/*--------------------------------*- C++ -*----------------------------------*\
  =========                 |
  \\      /  F ield         | OpenFOAM: The Open Source CFD Toolbox
   \\    /   O peration     | Website:  https://openfoam.org
    \\  /    A nd           | Version:  7
     \\/     M anipulation  |
\*---------------------------------------------------------------------------*/
FoamFile
{
    version     2.0;
    format      ascii;
    class       surfaceScalarField;
    location    "35";
    object      phi;
}
// * * * * * * * * * * * * * * * * * * * * * * * * * * * * * * * * * * * * * //

dimensions      [0 3 -1 0 0 0 0];

internalField   nonuniform List<scalar> 
16607
(
1.90341e-05
5.33575e-07
1.85005e-05
4.06501e-05
6.44161e-07
1.78563e-05
3.53218e-06
3.77621e-05
4.26563e-05
7.66201e-07
1.70901e-05
4.06406e-06
3.44642e-05
3.57449e-05
9.00122e-07
1.619e-05
4.64139e-06
3.07229e-05
1.23616e-05
2.80247e-05
6.99127e-06
1.04626e-06
1.51438e-05
5.26505e-06
2.65041e-05
1.38487e-05
1.94411e-05
2.80614e-05
-7.22142e-06
-5.48293e-05
1.20487e-06
1.39389e-05
5.93553e-06
2.17735e-05
1.5437e-05
9.93962e-06
3.10269e-05
-2.28113e-05
5.40958e-05
-7.78982e-05
-0.000156861
1.37611e-06
1.25628e-05
6.65291e-06
1.64967e-05
1.71253e-05
-5.32776e-07
3.41603e-05
-3.98463e-05
5.91888e-05
-0.000102927
9.36683e-05
-0.00019134
-0.000306609
1.56003e-06
1.10028e-05
7.41684e-06
1.06399e-05
1.89117e-05
-1.20277e-05
3.74555e-05
-5.839e-05
6.45102e-05
-0.000129981
0.000101537
-0.000228367
0.000149904
-0.000354975
-0.00051081
1.75661e-06
9.24614e-06
8.22656e-06
4.16993e-06
2.07931e-05
-2.45942e-05
4.09041e-05
-7.8501e-05
7.00417e-05
-0.000159119
0.000109654
-0.000267979
0.000161039
-0.000406361
0.000225188
-0.000574959
-0.000773488
1.96571e-06
7.28043e-06
9.08084e-06
-2.9452e-06
2.27653e-05
-3.82786e-05
4.44956e-05
-0.000100231
7.57613e-05
-0.000190385
0.000117977
-0.000310194
0.000172346
-0.00046073
0.00023968
-0.000642293
0.000320184
-0.000853993
-0.00109335
2.18712e-06
5.09331e-06
9.97803e-06
-1.07361e-05
2.48228e-05
-5.31234e-05
4.82173e-05
-0.000123626
8.16433e-05
-0.000223811
0.00012646
-0.000355011
0.000183747
-0.000518017
0.000254103
-0.000712649
0.000337424
-0.000937314
0.000432718
-0.00118864
-0.00146135
2.4205e-06
2.6728e-06
1.0916e-05
-1.92316e-05
2.69592e-05
-6.91666e-05
5.20543e-05
-0.000148721
8.76585e-05
-0.000259415
0.000135053
-0.000402405
0.000195161
-0.000578126
0.000268336
-0.000785824
0.000354135
-0.00102311
0.000451162
-0.00128567
0.000557025
-0.00156721
0.00066848
-0.00185986
-0.00215492
2.66541e-06
7.39817e-09
1.18921e-05
-2.84583e-05
2.91669e-05
-8.64415e-05
5.59894e-05
-0.000175543
9.37741e-05
-0.0002972
0.000143698
-0.000452329
0.0002065
-0.000640928
0.000282252
-0.000861576
0.000370152
-0.00111101
0.000468394
-0.00138391
0.000574203
-0.00167302
0.000684057
-0.00196972
0.000794098
-0.00226496
-0.00255045
2.92126e-06
-2.91386e-06
1.29033e-05
-3.84403e-05
3.1437e-05
-0.000104975
6.00035e-05
-0.00020411
9.99542e-05
-0.00033715
0.000152336
-0.000504711
0.00021767
-0.000706263
0.000295724
-0.00093963
0.000385314
-0.0012006
0.000484234
-0.00148283
0.000589365
-0.00177815
0.000696978
-0.00207733
0.00080321
-0.00237119
0.000904582
-0.00265182
-0.0029135
3.18742e-06
-6.10128e-06
1.39459e-05
-4.91987e-05
3.37596e-05
-0.000124789
6.40753e-05
-0.000234426
0.00010616
-0.000379235
0.000160902
-0.000559453
0.00022858
-0.00077394
0.000308625
-0.00101968
0.000399468
-0.00129145
0.000498522
-0.00158189
0.00060237
-0.001882
0.000707158
-0.00218212
0.000809104
-0.00247314
0.000905012
-0.00274773
0.000992646
-0.00300114
0.00107091
-0.00323152
-0.0034397
3.46305e-06
-9.56432e-06
1.50158e-05
-6.07515e-05
3.61234e-05
-0.000145897
6.81816e-05
-0.000266484
0.00011235
-0.000423403
0.000169332
-0.000616435
0.000239132
-0.000843739
0.000320831
-0.00110137
0.000412473
-0.00138309
0.000511118
-0.00168053
0.000613114
-0.001984
0.000714559
-0.00228356
0.000811834
-0.00257042
0.000902082
-0.00283798
0.000983518
-0.00308257
0.0010555
-0.0033035
0.00111841
-0.00350261
-0.00368358
3.74721e-06
-1.33115e-05
1.61084e-05
-7.31127e-05
3.85165e-05
-0.000168305
7.22975e-05
-0.000300265
0.00011848
-0.000469586
0.000177557
-0.000675512
0.000249233
-0.000915415
0.000332226
-0.00118437
0.000424203
-0.00147506
0.000521909
-0.00177824
0.000621527
-0.00208361
0.000719183
-0.00238122
0.000811493
-0.00266273
0.000895984
-0.00292247
0.00097132
-0.00315791
0.00103729
-0.00336947
0.00109461
-0.00355993
0.00114461
-0.00373358
0.00118893
-0.00389511
-0.00404995
4.03882e-06
-1.73504e-05
1.72187e-05
-8.62926e-05
4.09255e-05
-0.000192011
7.63968e-05
-0.000335736
0.000124506
-0.000517696
0.000185509
-0.000736515
0.00025879
-0.000988697
0.0003427
-0.00126828
0.000434546
-0.00156691
0.000530809
-0.0018745
0.000627573
-0.00218038
0.000721072
-0.00247472
0.000808211
-0.00274986
0.00088693
-0.00300119
0.000956333
-0.00322731
0.0010166
-0.00342974
0.00106872
-0.00361205
0.00111417
-0.00377904
0.00115462
-0.00393556
-0.00408686
0.00119152
4.33668e-06
-2.1687e-05
1.83409e-05
-0.000100297
4.33363e-05
-0.000217007
8.04517e-05
-0.000372852
0.000130382
-0.000567626
0.00019312
-0.000799252
0.000267717
-0.00106329
0.000352154
-0.00135272
0.000443411
-0.00165817
0.000537757
-0.00196885
0.000631251
-0.00227387
0.0007203
-0.00256377
0.000802146
-0.00283171
0.000875152
-0.00307419
0.000938841
-0.003291
0.000993732
-0.00348463
0.00104104
-0.00365936
0.00108233
-0.00382033
0.00111925
-0.00397247
-0.00412076
0.00115316
4.63943e-06
-2.63265e-05
1.94691e-05
-0.000115127
4.57341e-05
-0.000243272
8.44337e-05
-0.000411551
0.00013606
-0.000619253
0.000200324
-0.000863515
0.000275929
-0.0011389
0.000360502
-0.00143729
0.000450725
-0.00174839
0.000542721
-0.00206084
0.000632589
-0.00236374
0.00071697
-0.00264815
0.000793475
-0.00290822
0.000860886
-0.00314161
0.000919116
-0.00334923
0.000968973
-0.00353449
0.00101184
-0.00370222
0.00104932
-0.00385781
0.00108301
-0.00400616
-0.00415192
0.00111416
4.9456e-06
-3.12721e-05
2.05969e-05
-0.000130778
4.81032e-05
-0.000270778
8.83137e-05
-0.000451762
0.000141496
-0.000672434
0.000207057
-0.000929077
0.000283353
-0.0012152
0.000367669
-0.0015216
0.000456438
-0.00183716
0.000545694
-0.0021501
0.000631644
-0.00244969
0.000711209
-0.00272771
0.000782389
-0.0029794
0.000844374
-0.00320359
0.000897424
-0.00340228
0.000942588
-0.00357965
0.000981361
-0.00374099
0.00101536
-0.00389181
0.00104607
-0.00403688
-0.00418052
0.00107467
5.25361e-06
-3.65257e-05
2.17175e-05
-0.000147242
5.04277e-05
-0.000299488
9.20622e-05
-0.000493396
0.000146642
-0.000727014
0.00021326
-0.000995695
0.000289922
-0.00129186
0.000373598
-0.00160528
0.000460519
-0.00192408
0.000546693
-0.00223627
0.000628494
-0.00253149
0.000703161
-0.00280238
0.000769087
-0.00304532
0.00082585
-0.00326035
0.000874012
-0.00345044
0.000914814
-0.00362045
0.000949818
-0.003776
0.000980607
-0.0039226
0.00100859
-0.00406485
-0.00420672
0.00103479
5.56175e-06
-4.20874e-05
2.28238e-05
-0.000164504
5.26911e-05
-0.000329356
9.56502e-05
-0.000536355
0.000151457
-0.000782821
0.000218879
-0.00106312
0.000295579
-0.00136856
0.000378245
-0.00168794
0.000462957
-0.00200879
0.000545759
-0.00231908
0.000623238
-0.00260897
0.000692981
-0.00287212
0.000753772
-0.00310611
0.000805541
-0.00331212
0.000849113
-0.00349402
0.000885868
-0.00365721
0.0009174
-0.00380753
0.000945232
-0.00395043
0.000970662
-0.00409028
-0.00423067
0.000994609
5.86823e-06
-4.79557e-05
2.39086e-05
-0.000182544
5.48771e-05
-0.000360324
9.90492e-05
-0.000580527
0.000155899
-0.000839671
0.000223863
-0.00113108
0.000300278
-0.00144497
0.000381581
-0.00176925
0.00046376
-0.00209097
0.000542948
-0.00239826
0.000615992
-0.00268201
0.000680836
-0.00293697
0.000736644
-0.00316192
0.000783663
-0.00335914
0.000822937
-0.00353329
0.000855943
-0.00369021
0.000884267
-0.00383585
0.000909359
-0.00397552
0.0009324
-0.00411333
-0.00425247
0.000954198
6.17118e-06
-5.41268e-05
2.49645e-05
-0.000201337
5.69693e-05
-0.000392329
0.000102231
-0.00062579
0.000159931
-0.000897371
0.00022817
-0.00119932
0.000303981
-0.00152078
0.000383594
-0.00184886
0.000462954
-0.00217033
0.000538337
-0.00247365
0.000606879
-0.00275056
0.000666893
-0.00299698
0.000717896
-0.00321292
0.00076042
-0.00340167
0.000795678
-0.00356855
0.000825207
-0.00371974
0.000850561
-0.00386121
0.000873098
-0.00399806
0.000893884
-0.00413411
-0.0042722
0.000913618
6.4687e-06
-6.05955e-05
2.59841e-05
-0.000220853
5.89517e-05
-0.000425297
0.000105171
-0.000672009
0.000163517
-0.000955716
0.000231766
-0.00126757
0.000306665
-0.00159568
0.000384284
-0.00192648
0.000460579
-0.00224663
0.000532012
-0.00254508
0.000596035
-0.00281458
0.000651319
-0.00305227
0.000697716
-0.00325932
0.000735998
-0.00343995
0.00076751
-0.00360006
0.000793812
-0.00374604
0.000816403
-0.0038838
0.000836542
-0.0040182
0.000855181
-0.00415275
-0.00428994
0.000872921
6.75881e-06
-6.73543e-05
2.696e-05
-0.000241054
6.08088e-05
-0.000459145
0.000107844
-0.000719044
0.000166628
-0.0010145
0.00023462
-0.00133556
0.000308315
-0.00166938
0.000383666
-0.00200183
0.00045669
-0.00231965
0.000524073
-0.00261246
0.000583595
-0.0028741
0.000634281
-0.00310295
0.000676281
-0.00330132
0.000710571
-0.00347424
0.000738587
-0.00362808
0.000761885
-0.00376934
0.000781895
-0.00390381
0.00079977
-0.00403607
0.000816351
-0.00416933
-0.00430574
0.00083215
7.03956e-06
-7.43939e-05
2.78851e-05
-0.0002619
6.2526e-05
-0.000493786
0.000110227
-0.000766745
0.000169237
-0.00107351
0.000236712
-0.00140304
0.000308927
-0.00174159
0.000381766
-0.00207467
0.000451352
-0.00238924
0.000514625
-0.00267573
0.0005697
-0.00292918
0.000615938
-0.00314919
0.000653755
-0.00333914
0.000684293
-0.00350478
0.000709046
-0.00365283
0.000729542
-0.00378984
0.000747126
-0.00392139
0.000762846
-0.00405179
0.000777442
-0.00418393
-0.00431964
0.00079134
7.30897e-06
-8.17029e-05
2.87524e-05
-0.000283343
6.40894e-05
-0.000529123
0.000112301
-0.000814956
0.000171324
-0.00113253
0.000238028
-0.00146974
0.000308508
-0.00181207
0.000378621
-0.00214478
0.000444639
-0.00245526
0.000503777
-0.00273487
0.000554488
-0.00297989
0.000596442
-0.00319114
0.000630292
-0.00337299
0.000657307
-0.00353179
0.000679008
-0.00367453
0.000696878
-0.00380771
0.00071217
-0.00393669
0.000725828
-0.00406545
0.000738495
-0.00419659
-0.00433167
0.000750524
7.56513e-06
-8.9268e-05
2.95551e-05
-0.000305333
6.54863e-05
-0.000565054
0.000114049
-0.000863519
0.000172872
-0.00119136
0.000238564
-0.00153543
0.000307073
-0.00188058
0.000374279
-0.00221199
0.000436632
-0.00251761
0.000491645
-0.00278989
0.000538094
-0.00302634
0.000575939
-0.00322899
0.000606032
-0.00340308
0.000629738
-0.0035555
0.00064858
-0.00369337
0.000663978
-0.0038231
0.000677091
-0.0039498
0.000688762
-0.00407712
0.000699546
-0.00420738
-0.00434185
0.000709731
7.80615e-06
-9.70742e-05
3.02871e-05
-0.000327814
6.67054e-05
-0.000601473
0.000115456
-0.00091227
0.000173869
-0.00124977
0.000238319
-0.00159988
0.000304647
-0.00194691
0.000368792
-0.00227614
0.000427419
-0.00257623
0.000478339
-0.00284081
0.000520647
-0.00306864
0.000554563
-0.0032629
0.000581103
-0.00342962
0.000601699
-0.00357609
0.000617854
-0.00370953
0.000630915
-0.00383617
0.000641943
-0.00396083
0.000651688
-0.00408686
0.000660625
-0.00421632
-0.00435021
0.000668984
8.03023e-06
-0.000105104
3.09425e-05
-0.000350726
6.77367e-05
-0.000638267
0.000116511
-0.000961044
0.000174311
-0.00130757
0.000237302
-0.00166287
0.00030126
-0.00201087
0.000362222
-0.0023371
0.000417087
-0.0026311
0.000463974
-0.00288769
0.000502274
-0.00310694
0.000532439
-0.00329307
0.000555621
-0.0034528
0.000573289
-0.00359376
0.000586911
-0.00372315
0.00059775
-0.003847
0.000606774
-0.00396985
0.000614642
-0.00409473
0.00062176
-0.00422343
-0.00435676
0.000628306
8.23567e-06
-0.00011334
3.15161e-05
-0.000374007
6.85715e-05
-0.000675322
0.000117206
-0.00100968
0.000174194
-0.00136456
0.000235526
-0.0017242
0.00029695
-0.00207229
0.000354634
-0.00239478
0.000405729
-0.0026822
0.000448658
-0.00293062
0.000483091
-0.00314138
0.000509683
-0.00331966
0.000529691
-0.00347281
0.000544598
-0.00360867
0.00055582
-0.00373437
0.000564537
-0.00385572
0.000571622
-0.00397694
0.000577654
-0.00410077
0.000582974
-0.00422875
-0.0043615
0.000587719
8.42178e-06
-0.000121762
3.20051e-05
-0.00039759
6.92059e-05
-0.000712523
0.000117538
-0.00105801
0.000173527
-0.00142054
0.000233017
-0.00178369
0.000291766
-0.00213104
0.000346102
-0.00244912
0.000393443
-0.00272954
0.000432505
-0.00296968
0.000463217
-0.00317209
0.000486408
-0.00334285
0.000503413
-0.00348982
0.000515709
-0.00362096
0.00052465
-0.00374332
0.000531328
-0.0038624
0.000536529
-0.00398214
0.000540757
-0.00410499
0.000544297
-0.00423229
-0.00436445
0.000547248
8.58542e-06
-0.000130347
3.24018e-05
-0.000421406
6.96288e-05
-0.00074975
0.000117499
-0.00110588
0.000172307
-0.00147535
0.000229789
-0.00184118
0.000285743
-0.00218699
0.000336685
-0.00250006
0.000380303
-0.00277315
0.0004156
-0.00300498
0.000442739
-0.00319923
0.000462695
-0.00336281
0.000476856
-0.00350398
0.000486675
-0.00363078
0.000493439
-0.00375008
0.00049815
-0.00386711
0.000501511
-0.0039855
0.000503961
-0.00410744
0.000505733
-0.00423407
-0.00436562
0.000506897
8.72613e-06
-0.000139073
3.27048e-05
-0.000445385
6.98393e-05
-0.000786884
0.000117091
-0.00115313
0.000170551
-0.00152881
0.000225875
-0.0018965
0.000278937
-0.00224006
0.000326459
-0.00254758
0.000366404
-0.0028131
0.000398047
-0.00303662
0.000421759
-0.00322294
0.000438637
-0.00337969
0.0004501
-0.00351544
0.000457564
-0.00363825
0.000462239
-0.00375475
0.000465043
-0.00386991
0.000466602
-0.00398706
0.000467293
-0.00410813
0.000467309
-0.00423408
-0.004365
0.000466691
8.84274e-06
-0.000147916
3.29112e-05
-0.000469454
6.98351e-05
-0.000823808
0.000116318
-0.00119962
0.000168272
-0.00158077
0.000221307
-0.00194953
0.0002714
-0.00229015
0.000315497
-0.00259168
0.000351832
-0.00284943
0.000379936
-0.00306473
0.000400366
-0.00324337
0.000414314
-0.00339363
0.000423212
-0.00352434
0.000428427
-0.00364346
0.000431091
-0.00375742
0.000432039
-0.00387086
0.000431825
-0.00398684
0.000430773
-0.00410708
0.000429041
-0.00423235
-0.0043626
0.000426647
8.93427e-06
-0.00015685
3.30191e-05
-0.000493538
6.96157e-05
-0.000860405
0.000115186
-0.00124519
0.000165489
-0.00163107
0.00021612
-0.00200017
0.000263188
-0.00233722
0.000303868
-0.00263236
0.000336667
-0.00288223
0.00036135
-0.00308941
0.000378638
-0.00326066
0.000389796
-0.00340479
0.000396249
-0.00353079
0.000399309
-0.00364652
0.000400028
-0.00375814
0.000399162
-0.00387
0.0003972
-0.00398488
0.000394419
-0.0041043
0.000390945
-0.00422888
-0.00435844
0.000386779
8.99989e-06
-0.00016585
3.30271e-05
-0.000517566
6.9182e-05
-0.00089656
0.000113702
-0.00128971
0.000162222
-0.00167959
0.000210352
-0.0020483
0.000254353
-0.00238122
0.000291642
-0.00266965
0.000320986
-0.00291158
0.000342368
-0.00311079
0.000356649
-0.00327494
0.000365145
-0.00341329
0.000369263
-0.00353491
0.000370251
-0.00364751
0.000369082
-0.00375697
0.000366437
-0.00386735
0.000362746
-0.00398119
0.000358246
-0.0040998
0.000353037
-0.00422367
-0.0043525
0.000347103
9.03896e-06
-0.000174889
3.29348e-05
-0.000541461
6.85362e-05
-0.000932161
0.000111877
-0.00133305
0.000158494
-0.0017262
0.000204041
-0.00209384
0.000244951
-0.00242213
0.000278885
-0.00270358
0.000304861
-0.00293755
0.000323062
-0.003129
0.000334464
-0.00328634
0.000340417
-0.00341924
0.000342298
-0.00353679
0.000341287
-0.0036465
0.000338279
-0.00375396
0.000333884
-0.00386296
0.000328481
-0.00397579
0.00032227
-0.00409359
0.00031533
-0.00421673
-0.00434481
0.000307635
9.051e-06
-0.00018394
3.2742e-05
-0.000565152
6.76821e-05
-0.000967101
0.000109722
-0.00137509
0.000154328
-0.00177081
0.000197227
-0.00213674
0.000235035
-0.00245994
0.000265662
-0.00273421
0.000288362
-0.00296025
0.000303498
-0.00314413
0.000312142
-0.00329499
0.000315662
-0.00342276
0.000315393
-0.00353652
0.000312447
-0.00364355
0.000307641
-0.00374915
0.000301522
-0.00385684
0.000294419
-0.00396868
0.000286504
-0.00408568
0.000277838
-0.00420806
-0.00433536
0.000268387
9.03575e-06
-0.000192976
3.24496e-05
-0.000588566
6.66244e-05
-0.00100128
0.00010725
-0.00141571
0.000149753
-0.00181331
0.000189949
-0.00217694
0.000224659
-0.00249465
0.000252033
-0.00276158
0.000271552
-0.00297977
0.000283737
-0.00315632
0.000289737
-0.00330099
0.000290924
-0.00342395
0.000288585
-0.00353418
0.000283759
-0.00363873
0.000277191
-0.00374259
0.000269367
-0.00384901
0.000260575
-0.00395989
0.000250962
-0.00407606
0.000240575
-0.00419767
-0.00432416
0.000229375
8.99306e-06
-0.000201969
3.20587e-05
-0.000611632
6.53691e-05
-0.00103459
0.000104477
-0.00145482
0.000144793
-0.00185363
0.000182249
-0.00221439
0.000213873
-0.00252627
0.000238057
-0.00278577
0.000254489
-0.0029962
0.000263833
-0.00316566
0.000267297
-0.00330445
0.000266243
-0.00342289
0.000261903
-0.00352984
0.000255245
-0.00363207
0.000246946
-0.00373429
0.000237435
-0.0038395
0.000226964
-0.00394942
0.000215658
-0.00406476
0.000203554
-0.00418557
-0.00431121
0.000190611
8.923e-06
-0.000210892
3.15713e-05
-0.00063428
6.39231e-05
-0.00106694
0.000101418
-0.00149232
0.000139477
-0.00189169
0.000174166
-0.00224908
0.000202727
-0.00255483
0.000223787
-0.00280683
0.000237229
-0.00300965
0.000243838
-0.00317227
0.000244865
-0.00330548
0.000241652
-0.00341968
0.000235374
-0.00352356
0.000226928
-0.00362362
0.000216924
-0.00372428
0.000205741
-0.00382832
0.000193597
-0.00393728
0.000180602
-0.00405176
0.000166787
-0.00417175
-0.00429653
0.000152105
8.82576e-06
-0.000219718
3.09896e-05
-0.000656444
6.22942e-05
-0.00109824
9.80905e-05
-0.00152811
0.000133832
-0.00192743
0.000165738
-0.00228099
0.000191268
-0.00258036
0.000209276
-0.00282484
0.000219822
-0.00302019
0.000223795
-0.00317624
0.000222478
-0.00330416
0.000217183
-0.00341438
0.000209024
-0.0035154
0.000198826
-0.00361342
0.000187139
-0.0037126
0.000174296
-0.00381548
0.000160487
-0.00392347
0.000145807
-0.00403708
0.000130288
-0.00415624
-0.00428011
0.000113868
8.70171e-06
-0.00022842
3.03164e-05
-0.000678059
6.04909e-05
-0.00112842
9.45109e-05
-0.00156213
0.000127888
-0.00196081
0.000157004
-0.0023101
0.000179542
-0.0026029
0.000194569
-0.00283986
0.000202312
-0.00302793
0.000203747
-0.00317768
0.000200172
-0.00330059
0.000192863
-0.00340707
0.000182871
-0.00350541
0.000170956
-0.00360151
0.000157606
-0.00369925
0.000143115
-0.00380099
0.000127644
-0.003908
0.00011128
-0.00402072
9.40646e-05
-0.00413902
-0.00426196
7.59183e-05
8.55134e-06
-0.000236971
2.9555e-05
-0.000699062
5.85221e-05
-0.00115738
9.06974e-05
-0.00159431
0.000121671
-0.00199178
0.000148
-0.00233643
0.00016759
-0.00262249
0.000179713
-0.00285199
0.000184743
-0.00303296
0.00018373
-0.00317666
0.000177976
-0.00329483
0.000168715
-0.00339781
0.000156936
-0.00349363
0.000143332
-0.0035879
0.000128339
-0.00368425
0.00011221
-0.00378486
9.50835e-05
-0.00389087
7.70354e-05
-0.00400267
5.80977e-05
-0.00412008
-0.00424217
3.83023e-05
8.37526e-06
-0.000245346
2.8709e-05
-0.000719396
5.63974e-05
-0.00118507
8.6668e-05
-0.00162458
0.000115208
-0.00202032
0.000138762
-0.00235999
0.000155453
-0.00263918
0.000164748
-0.00286128
0.000167152
-0.00303537
0.000163776
-0.00317329
0.000155917
-0.00328697
0.000144762
-0.00338666
0.000131236
-0.00348011
0.00011597
-0.00357264
9.9349e-05
-0.00366763
8.15929e-05
-0.0037671
6.28229e-05
-0.0038721
4.31069e-05
-0.00398295
2.23665e-05
-0.00409934
-0.00421978
-1.9015e-08
8.17422e-06
-0.00025352
2.77821e-05
-0.000739004
5.41266e-05
-0.00121142
8.24407e-05
-0.00165289
0.000108527
-0.00204641
0.000129324
-0.00238078
0.000143168
-0.00265302
0.00014971
-0.00286782
0.000149575
-0.00303523
0.000143917
-0.00316763
0.000134019
-0.00327708
0.000121022
-0.00337366
0.000105785
-0.00346487
8.88801e-05
-0.00355573
7.06476e-05
-0.0036494
5.1275e-05
-0.00374773
3.08702e-05
-0.0038517
9.49255e-06
-0.00396158
-1.284e-05
-0.00407701
-0.00419659
-3.60321e-05
7.94906e-06
-0.000261469
2.67785e-05
-0.000757833
5.17199e-05
-0.00123636
7.80335e-05
-0.00167921
0.000101654
-0.00207003
0.000119717
-0.00239885
0.00013077
-0.00266408
0.000134636
-0.00287169
0.000132042
-0.00303264
0.000124177
-0.00315976
0.000112305
-0.0032652
9.7511e-05
-0.00335887
8.05958e-05
-0.00344795
6.2075e-05
-0.00353721
4.2245e-05
-0.00362957
2.1265e-05
-0.00372675
-7.75601e-07
-0.00382966
-2.38045e-05
-0.00393855
-4.78143e-05
-0.004053
-0.00417167
-7.27319e-05
7.7007e-06
-0.00026917
2.57026e-05
-0.000775835
4.91874e-05
-0.00125984
7.3464e-05
-0.00170348
9.46122e-05
-0.00209117
0.000109971
-0.00241421
0.000118292
-0.0026724
0.000119556
-0.00287295
0.000114581
-0.00302767
0.000104581
-0.00314976
9.07911e-05
-0.00325141
7.42446e-05
-0.00334232
5.56814e-05
-0.00342939
3.55647e-05
-0.0035171
1.4151e-05
-0.00360816
-8.42589e-06
-0.00370417
-3.20847e-05
-0.003806
-5.6769e-05
-0.00391386
-8.24383e-05
-0.00402733
-0.00414502
-0.000109094
7.43016e-06
-0.0002766
2.45587e-05
-0.000792964
4.65394e-05
-0.00128182
6.87496e-05
-0.00172569
8.74272e-05
-0.00210985
0.000100116
-0.0024269
0.000105764
-0.00267805
0.000104499
-0.00287169
9.72191e-05
-0.00302039
8.51495e-05
-0.00313769
6.94956e-05
-0.00323576
5.12357e-05
-0.00332406
3.10521e-05
-0.00340921
9.35854e-06
-0.0034954
-1.3625e-05
-0.00358517
-3.77894e-05
-0.00368001
-6.30663e-05
-0.00378072
-8.93946e-05
-0.00388753
-0.000116727
-0.004
-0.00411666
-0.000145088
7.1385e-06
-0.000283739
2.33514e-05
-0.000809177
4.37862e-05
-0.00130226
6.39073e-05
-0.00174582
8.01214e-05
-0.00212607
9.01779e-05
-0.00243695
9.32138e-05
-0.00268108
8.94924e-05
-0.00286797
7.99776e-05
-0.00301087
6.59013e-05
-0.00312362
4.84328e-05
-0.00321829
2.84959e-05
-0.00330412
6.71758e-06
-0.00338743
-1.65342e-05
-0.00347215
-4.10743e-05
-0.00356063
-6.68162e-05
-0.00365427
-9.37032e-05
-0.00375383
-0.000121671
-0.00385957
-0.000150667
-0.003971
-0.00408661
-0.00018071
6.82686e-06
-0.000290566
2.20855e-05
-0.000824435
4.09379e-05
-0.00132111
5.89533e-05
-0.00176383
7.27166e-05
-0.00213983
8.01816e-05
-0.00244442
8.06668e-05
-0.00268157
7.45587e-05
-0.00286186
6.28776e-05
-0.00299919
4.68531e-05
-0.00310759
2.76159e-05
-0.00319905
6.0356e-06
-0.00328254
-1.7313e-05
-0.00336408
-4.21056e-05
-0.00344736
-6.81884e-05
-0.00353455
-9.54969e-05
-0.00362696
-0.000123986
-0.00372534
-0.000153589
-0.00382996
-0.000184242
-0.00394035
-0.0040549
-0.000215954
6.49641e-06
-0.000297062
2.07655e-05
-0.000838705
3.80045e-05
-0.00133835
5.39035e-05
-0.00177973
6.52333e-05
-0.00215116
7.01506e-05
-0.00244933
6.81465e-05
-0.00267956
5.972e-05
-0.00285343
4.59371e-05
-0.00298541
2.80194e-05
-0.00308968
7.05623e-06
-0.00317809
-1.61357e-05
-0.00325935
-4.1032e-05
-0.00333918
-6.73479e-05
-0.00342104
-9.49593e-05
-0.00350694
-0.000123822
-0.00359809
-0.000153904
-0.00369526
-0.000185136
-0.00379873
-0.000217441
-0.00390804
-0.00402153
-0.000250809
6.14834e-06
-0.00030321
1.93962e-05
-0.000851952
3.49957e-05
-0.00135395
4.87731e-05
-0.00179351
5.7691e-05
-0.00216008
6.01065e-05
-0.00245175
5.56745e-05
-0.00267513
4.49955e-05
-0.00284275
2.91726e-05
-0.00296958
9.4134e-06
-0.00306992
-1.32358e-05
-0.00315544
-3.80101e-05
-0.00323458
-6.44321e-05
-0.00331276
-9.22539e-05
-0.00339322
-0.000121379
-0.00347781
-0.000151783
-0.00356769
-0.000183447
-0.0036636
-0.000216301
-0.00376588
-0.000250253
-0.00387409
-0.00398652
-0.000285267
5.7839e-06
-0.000308994
1.79822e-05
-0.000864151
3.19211e-05
-0.00136789
4.35764e-05
-0.00180516
5.01079e-05
-0.00216661
5.00692e-05
-0.00245171
4.32702e-05
-0.00266833
3.04029e-05
-0.00282989
1.25986e-05
-0.00295178
-8.95347e-06
-0.00304836
-3.32512e-05
-0.00313114
-5.95801e-05
-0.00320825
-8.75067e-05
-0.00328484
-0.000116817
-0.00336391
-0.00014744
-0.00344719
-0.000179372
-0.00353576
-0.000212605
-0.00363037
-0.000247074
-0.00373141
-0.000282667
-0.0038385
-0.00394987
-0.000319317
5.40432e-06
-0.000314399
1.6528e-05
-0.000875274
2.87898e-05
-0.00138015
3.83273e-05
-0.0018147
4.25011e-05
-0.00217078
4.00572e-05
-0.00244927
3.09517e-05
-0.00265923
1.59577e-05
-0.00281489
-3.77186e-06
-0.00293205
-2.7071e-05
-0.00302507
-5.29821e-05
-0.00310523
-8.08391e-05
-0.00318039
-0.00011025
-0.00325543
-0.000141031
-0.00333313
-0.000173136
-0.00341509
-0.000206578
-0.00350231
-0.000241368
-0.00359558
-0.000277442
-0.00369533
-0.000314671
-0.00380127
-0.00391159
-0.000352951
5.01087e-06
-0.000319409
1.50383e-05
-0.000885302
2.56106e-05
-0.00139072
3.30389e-05
-0.00182213
3.48866e-05
-0.00217263
3.00876e-05
-0.00244447
1.8735e-05
-0.00264787
1.67532e-06
-0.00279783
-1.99273e-05
-0.00291045
-4.49302e-05
-0.00300006
-7.24214e-05
-0.00307774
-0.000101781
-0.00315103
-0.000132656
-0.00322455
-0.000164891
-0.00330089
-0.000198459
-0.00338152
-0.000233395
-0.00346738
-0.000269725
-0.00355925
-0.000307395
-0.00365766
-0.000346256
-0.00376241
-0.00387169
-0.000386158
4.60481e-06
-0.000324014
1.35173e-05
-0.000894214
2.23923e-05
-0.0013996
2.77235e-05
-0.00182746
2.72794e-05
-0.00217219
2.01758e-05
-0.00243737
6.63513e-06
-0.00263433
-1.24348e-05
-0.00277876
-3.58579e-05
-0.00288702
-6.25232e-05
-0.0029734
-9.15628e-05
-0.0030487
-0.000122401
-0.00312019
-0.000154721
-0.00319223
-0.000188391
-0.00326722
-0.000223404
-0.0033465
-0.000259814
-0.00343097
-0.000297667
-0.00352139
-0.00033692
-0.00361841
-0.000377408
-0.00372192
-0.00383017
-0.000418928
4.18744e-06
-0.000328202
1.19696e-05
-0.000901997
1.91428e-05
-0.00140677
2.23929e-05
-0.00183071
1.96937e-05
-0.00216949
1.03353e-05
-0.00242801
-5.33475e-06
-0.00261866
-2.63581e-05
-0.00275774
-5.15543e-05
-0.00286183
-7.9843e-05
-0.00294511
-0.000110401
-0.00301814
-0.000142695
-0.0030879
-0.000176439
-0.00315849
-0.000211526
-0.00323214
-0.000247966
-0.00331006
-0.000285829
-0.00339311
-0.000325184
-0.00348204
-0.000366005
-0.00357759
-0.000408117
-0.00367981
-0.00378703
-0.000451251
3.76012e-06
-0.000331962
1.03991e-05
-0.000908636
1.58701e-05
-0.00141224
1.70579e-05
-0.0018319
1.21432e-05
-0.00216457
5.97503e-07
-0.00241646
-1.71622e-05
-0.0026009
-4.00862e-05
-0.00273482
-6.70086e-05
-0.00283491
-9.68834e-05
-0.00291523
-0.00012893
-0.0029861
-0.000162657
-0.00305417
-0.000197807
-0.00312334
-0.000234294
-0.00319565
-0.00027214
-0.00327222
-0.000311433
-0.00335381
-0.000352266
-0.00344121
-0.000394637
-0.00353522
-0.000438368
-0.00363608
-0.00374228
-0.000483117
3.32428e-06
-0.000335286
8.81022e-06
-0.000914122
1.25814e-05
-0.00141601
1.17289e-05
-0.00183105
4.63676e-06
-0.00215748
-9.07557e-06
-0.00240275
-2.88399e-05
-0.00258114
-5.36098e-05
-0.00271005
-8.22139e-05
-0.0028063
-0.000113639
-0.00288381
-0.000147147
-0.00295259
-0.000182284
-0.00301904
-0.000218822
-0.0030868
-0.000256689
-0.00315778
-0.000295921
-0.00323299
-0.00033662
-0.00331311
-0.000378904
-0.00339892
-0.000422804
-0.00349132
-0.000468149
-0.00359073
2.8812e-06
-0.000338167
7.20674e-06
-0.000918447
9.28436e-06
-0.00141809
6.41515e-06
-0.00182818
-2.81129e-06
-0.00214825
-1.86229e-05
-0.00238694
-4.03545e-05
-0.00255941
-6.69209e-05
-0.00268348
-9.71637e-05
-0.00277606
-0.000130105
-0.00285087
-0.000165048
-0.00291764
-0.000201574
-0.00298251
-0.000239479
-0.00304889
-0.000278709
-0.00311855
-0.000319307
-0.00319239
-0.000361387
-0.00327103
-0.000405091
-0.00335522
-0.000450493
-0.00344592
2.4319e-06
-0.000340599
5.59235e-06
-0.000921607
5.98596e-06
-0.00141848
1.13697e-06
-0.00182333
-1.01978e-05
-0.00213692
-2.80537e-05
-0.00236908
-5.16979e-05
-0.00253576
-8.00122e-05
-0.00265516
-0.000111853
-0.00274422
-0.000146276
-0.00281644
-0.000182628
-0.00288129
-0.000220521
-0.00294462
-0.000259777
-0.00300964
-0.000300352
-0.00307798
-0.000342295
-0.00315045
-0.00038573
-0.0032276
-0.000430822
-0.00331013
1.97768e-06
-0.000342577
3.97098e-06
-0.000923601
2.68996e-06
-0.0014172
-4.12987e-06
-0.00181651
-1.75064e-05
-0.00212354
-3.73576e-05
-0.00234923
-6.28623e-05
-0.00251026
-9.28775e-05
-0.00262515
-0.000126275
-0.00271082
-0.00016215
-0.00278057
-0.000199884
-0.00284356
-0.000239125
-0.00290538
-0.000279712
-0.00296905
-0.000321614
-0.00303608
-0.000364884
-0.00310718
-0.000409648
-0.00318283
1.51944e-06
-0.000344096
2.34629e-06
-0.000924428
-5.85279e-07
-0.00141427
-9.346e-06
-0.00180775
-2.47303e-05
-0.00210816
-4.65266e-05
-0.00232743
-7.38409e-05
-0.00248294
-0.000105511
-0.00259348
-0.000140428
-0.0026759
-0.000177722
-0.00274328
-0.000216814
-0.00280447
-0.000257381
-0.00286481
-0.000299282
-0.00292715
-0.000342495
-0.00299286
-0.000387073
-0.0030626
-0.00313676
1.05742e-06
-0.000345154
7.18065e-07
-0.000924088
-3.86819e-06
-0.00140969
-1.45157e-05
-0.0017971
-3.18618e-05
-0.00209081
-5.55532e-05
-0.00230374
-8.46273e-05
-0.00245387
-0.000117908
-0.0025602
-0.000154306
-0.00263951
-0.00019299
-0.00270459
-0.000233415
-0.00276404
-0.000275287
-0.00282294
-0.000318484
-0.00288395
-0.000362991
-0.00294836
-0.000408862
-0.00301673
5.87519e-07
-0.000345741
-9.0935e-07
-0.000922591
-7.11868e-06
-0.00140348
-1.96305e-05
-0.00178459
-3.88939e-05
-0.00207155
-6.44305e-05
-0.00227821
-9.52157e-05
-0.00242309
-0.000130063
-0.00252535
-0.000167907
-0.00260166
-0.00020795
-0.00266455
-0.000249683
-0.00272231
-0.00029284
-0.00277978
-0.000337315
-0.00283948
-0.000383101
-0.00290257
8.52548e-08
-0.000345826
-2.53552e-06
-0.000919971
-1.03435e-05
-0.00139567
-2.46842e-05
-0.00177025
-4.58199e-05
-0.00205041
-7.31524e-05
-0.00225087
-0.000105601
-0.00239064
-0.000141973
-0.00248898
-0.000181226
-0.00256241
-0.000222599
-0.00262318
-0.000265617
-0.00267929
-0.000310038
-0.00273536
-0.000355772
-0.00279374
-0.00285552
-3.7158e-07
-0.000345455
-4.1489e-06
-0.000916193
-1.35378e-05
-0.00138628
-2.96712e-05
-0.00175411
-5.26337e-05
-0.00202745
-8.17134e-05
-0.00222179
-0.000115779
-0.00235657
-0.000153634
-0.00245113
-0.000194262
-0.00252178
-0.000236936
-0.0025805
-0.000281213
-0.00263501
-0.000326876
-0.0026897
-0.000373851
-0.00274677
-8.22748e-07
-0.000344632
-5.7495e-06
-0.000911267
-1.66971e-05
-0.00137533
-3.45861e-05
-0.00173622
-5.93298e-05
-0.00200271
-9.01086e-05
-0.00219102
-0.000125745
-0.00232093
-0.000165042
-0.00241183
-0.000207011
-0.00247981
-0.000250957
-0.00253656
-0.000296469
-0.0025895
-0.000343352
-0.00264281
-0.00269857
-1.28733e-06
-0.000343345
-7.33814e-06
-0.000905216