/*--------------------------------*- C++ -*----------------------------------*\
  =========                 |
  \\      /  F ield         | OpenFOAM: The Open Source CFD Toolbox
   \\    /   O peration     | Website:  https://openfoam.org
    \\  /    A nd           | Version:  7
     \\/     M anipulation  |
\*---------------------------------------------------------------------------*/
FoamFile
{
    version     2.0;
    format      ascii;
    class       volVectorField;
    location    "90";
    object      U;
}
// * * * * * * * * * * * * * * * * * * * * * * * * * * * * * * * * * * * * * //

dimensions      [0 1 -1 0 0 0 0];

internalField   nonuniform List<vector> 
8500
(
(-0.0066118 0.00539868 1.47286e-19)
(-0.00609436 0.0048189 1.23674e-19)
(-0.00841317 0.00970904 -1.62834e-19)
(-0.00551275 0.00423603 7.77028e-19)
(-0.00615202 0.00804019 -4.60763e-19)
(0.00421558 0.00935962 -1.6377e-21)
(-0.00485851 0.00364858 -4.04017e-19)
(-0.00363637 0.00636871 4.58857e-21)
(0.00917985 0.006849 3.33585e-19)
(-0.0041225 0.00305519 -1.41056e-19)
(-0.000843351 0.00469664 8.50088e-20)
(0.0146471 0.00436985 1.22651e-19)
(0.0420832 0.00232153 -3.64127e-19)
(-0.00329501 0.00245491 7.23991e-19)
(0.0022506 0.00302667 -1.82089e-19)
(0.0206505 0.00193286 -2.65425e-19)
(0.0515956 -0.000591122 1.36056e-19)
(0.0951134 -0.0038018 6.48013e-19)
(-0.00236603 0.00184732 -3.26432e-19)
(0.00566924 0.0013625 5.04625e-20)
(0.0272222 -0.00045037 -3.67746e-19)
(0.0619283 -0.00337807 -5.21366e-19)
(0.109765 -0.00665186 -2.2497e-19)
(0.170568 -0.00959509 -1.26418e-19)
(-0.00132538 0.00123264 -3.17264e-19)
(0.00943615 -0.000290802 6.99307e-19)
(0.0343928 -0.00276681 4.37778e-19)
(0.0731131 -0.00601657 1.95966e-19)
(0.125505 -0.00925075 -7.075e-20)
(0.191292 -0.0117851 -4.65751e-19)
(0.269869 -0.0130614 6.55594e-20)
(-0.000162949 0.000611878 5.63772e-20)
(0.0135742 -0.00192659 -1.06391e-19)
(0.0421909 -0.00500168 7.80256e-20)
(0.0851763 -0.00848228 -1.87926e-19)
(0.142351 -0.0115647 3.98819e-19)
(0.213295 -0.013564 7.24702e-19)
(0.297186 -0.0139424 2.24408e-19)
(0.392633 -0.012299 1.40588e-19)
(0.00113113 -1.30571e-05 -1.89105e-19)
(0.0181051 -0.00353634 -4.41527e-19)
(0.0506424 -0.0071381 -3.34011e-19)
(0.0981399 -0.0107491 1.04541e-19)
(0.160309 -0.0135589 -5.67152e-19)
(0.236557 -0.0148905 -7.09062e-19)
(0.325806 -0.0142383 -9.62168e-20)
(0.426322 -0.0112607 -2.22909e-19)
(0.535559 -0.00583326 -2.39332e-20)
(0.00256634 -0.000639354 -1.45395e-19)
(0.0230492 -0.00510952 -1.13237e-19)
(0.0597701 -0.00915686 5.14383e-19)
(0.11202 -0.0127889 -3.18611e-19)
(0.179378 -0.0151973 8.2576e-19)
(0.261045 -0.0157236 3.49515e-19)
(0.355653 -0.013908 -2.30266e-19)
(0.461085 -0.00948422 -3.95369e-19)
(0.574354 -0.00243767 -6.32771e-19)
(0.691619 0.00696001 6.71711e-19)
(0.00415164 -0.00126325 2.855e-19)
(0.0284251 -0.00663353 4.65841e-19)
(0.0695928 -0.0110363 1.8493e-20)
(0.126826 -0.0145714 2.92271e-19)
(0.199547 -0.0164426 -7.0758e-19)
(0.286718 -0.0160227 1.71329e-19)
(0.386638 -0.0129127 -1.11617e-19)
(0.496776 -0.00694026 -2.17336e-20)
(0.613688 0.00178209 -2.14052e-19)
(0.733104 0.0128307 -4.73072e-19)
(0.850239 0.0254949 2.34617e-19)
(0.00589536 -0.00188006 -5.14119e-20)
(0.034249 -0.00809371 -7.01237e-19)
(0.0801255 -0.0127522 -5.41464e-19)
(0.142563 -0.0160639 -3.43504e-20)
(0.220796 -0.0172564 1.2369e-19)
(0.313517 -0.0157476 -2.39549e-19)
(0.418655 -0.0112171 -5.5046e-22)
(0.533237 -0.00360472 8.08417e-20)
(0.653353 0.00683158 1.19365e-19)
(0.774331 0.0195051 6.70821e-19)
(0.891146 0.0335492 2.78159e-19)
(0.998996 0.0479293 1.70162e-19)
(1.09393 0.0615984 -2.26362e-19)
(0.00780507 -0.00248418 9.05906e-20)
(0.0405349 -0.00947337 3.71264e-19)
(0.0913787 -0.0142782 2.33212e-19)
(0.159225 -0.017232 -4.26547e-19)
(0.243096 -0.0175995 9.20196e-20)
(0.341374 -0.0148595 5.62549e-19)
(0.451586 -0.0087887 3.08621e-19)
(0.570296 0.000540596 4.18188e-20)
(0.693131 0.012709 3.78353e-19)
(0.815061 0.0269585 -7.71565e-19)
(0.930893 0.042271 -2.16565e-19)
(1.03592 0.0575104 -9.27623e-20)
(1.12654 0.071597 5.44929e-19)
(1.20065 0.0836661 -3.59825e-19)
(0.00988751 -0.00306917 -8.45365e-20)
(0.047294 -0.0107539 -5.24181e-20)
(0.103358 -0.0155856 -1.35301e-19)
(0.176801 -0.0180395 4.48267e-19)
(0.266405 -0.0174321 2.99877e-19)
(0.370208 -0.0133207 -9.68164e-20)
(0.485303 -0.00559926 -1.78706e-20)
(0.607775 0.00550791 3.81402e-19)
(0.732808 0.0194053 -5.81115e-19)
(0.855064 0.0351596 3.55696e-19)
(0.969275 0.0516106 3.64176e-19)
(1.07093 0.0675424 9.64611e-20)
(1.15684 0.08187 -1.94607e-19)
(1.22549 0.0937906 2.80002e-19)
(1.277 0.102864 2.31744e-19)
(0.0121485 -0.00362777 -1.30493e-19)
(0.0545346 -0.0119151 5.75996e-20)
(0.116063 -0.0166439 3.81679e-19)
(0.195274 -0.018449 6.61464e-21)
(0.290675 -0.0167146 -6.49361e-19)
(0.399928 -0.0110958 -4.46457e-19)
(0.519667 -0.00162469 -3.83119e-19)
(0.64549 0.0113032 -2.01791e-19)
(0.77217 0.0269047 7.6736e-19)
(0.894128 0.0440713 -3.47004e-20)
(1.00611 0.0615156 1.02532e-19)
(1.10389 0.0779666 1.6748e-19)
(1.1848 0.0923624 -5.63233e-19)
(1.2479 0.103986 -4.48368e-19)
(1.29391 0.112517 1.20644e-19)
(1.32475 0.117996 -2.36603e-20)
(1.34306 0.120762 -4.68591e-19)
(0.0145929 -0.00415203 1.66292e-19)
(0.062262 -0.0129351 2.11418e-19)
(0.12949 -0.017421 -3.93739e-19)
(0.214616 -0.0184222 -2.12969e-20)
(0.315846 -0.0154081 7.60101e-19)
(0.430432 -0.00815194 4.77827e-19)
(0.554528 0.00315427 -1.91802e-19)
(0.683255 0.0179264 2.83152e-19)
(0.811012 0.0351848 -3.03257e-19)
(0.932057 0.0536518 -3.05966e-19)
(1.04125 0.0719318 3.11082e-19)
(1.13474 0.0887263 -6.30621e-19)
(1.21042 0.103024 7.96125e-20)
(1.26796 0.114215 3.02264e-19)
(1.30864 0.12211 -1.63718e-19)
(1.33476 0.126873 2.33181e-19)
(1.34921 0.128937 -2.81361e-19)
(1.35488 0.12875 4.65012e-20)
(0.0172244 -0.00463331 1.9412e-19)
(0.0704778 -0.0137907 -6.43641e-19)
(0.143628 -0.0178838 1.03757e-19)
(0.234793 -0.0179205 -1.08082e-19)
(0.341848 -0.0134748 -2.68222e-19)
(0.461608 -0.00445978 -2.13805e-19)
(0.589733 0.00875167 1.93269e-19)
(0.720883 0.0253709 -8.85975e-19)
(0.849138 0.0442178 -2.06679e-19)
(0.968678 0.0638561 1.34518e-19)
(1.07457 0.0828049 -1.70768e-19)
(1.16343 0.0997679 4.85515e-19)
(1.23373 0.113811 3.40077e-19)
(1.28577 0.124449 1.17541e-19)
(1.32132 0.131629 6.49927e-19)
(1.34306 0.135638 -6.39506e-19)
(1.35401 0.136991 3.92937e-19)
(1.35707 0.136202 5.50615e-19)
(1.3548 0.134238 -3.90095e-19)
(1.3488 0.129841 1.09171e-19)
(0.0200456 -0.00506246 1.52858e-20)
(0.0791806 -0.014458 -6.84232e-21)
(0.158459 -0.0179981 4.7005e-19)
(0.255762 -0.0169058 -6.73242e-20)
(0.368603 -0.0108793 -3.02134e-20)
(0.493337 6.23948e-06 5.08389e-19)
(0.625124 0.0151761 5.84519e-19)
(0.758192 0.0336242 1.61828e-19)
(0.886364 0.053971 3.4608e-19)
(1.00384 0.0746364 -2.26181e-19)
(1.10598 0.0940816 -1.92477e-19)
(1.18993 0.111042 -4.95391e-21)
(1.25478 0.124685 -2.35441e-19)
(1.30144 0.134664 -9.12921e-21)
(1.33213 0.141066 -4.56478e-19)
(1.3498 0.144293 1.79524e-19)
(1.35759 0.144934 4.17153e-19)
(1.35836 0.143556 -2.09692e-19)
(1.35451 0.141078 2.40156e-19)
(1.34754 0.136397 4.28261e-19)
(0.0230579 -0.0054298 5.89513e-20)
(0.0883648 -0.0149119 -1.64112e-19)
(0.173961 -0.0177299 -9.76349e-21)
(0.277473 -0.0153407 5.13603e-21)
(0.396025 -0.00758828 -3.32608e-19)
(0.525491 0.0052672 -4.77851e-20)
(0.66054 0.0224303 -6.02278e-19)
(0.795002 0.0426683 6.26182e-19)
(0.922524 0.0644071 3.22745e-19)
(1.03741 0.0859437 2.95925e-20)
(1.13541 0.10571 -2.86084e-21)
(1.21425 0.122502 -1.69023e-19)
(1.27366 0.135612 9.90195e-20)
(1.3151 0.144841 2.70789e-19)
(1.3412 0.150416 -4.70033e-19)
(1.35515 0.152845 3.575e-19)
(1.36011 0.15278 -4.29779e-19)
(1.35887 0.150827 -1.91777e-20)
(1.35369 0.147854 1.35351e-21)
(1.3459 0.142897 1.9234e-19)
(0.0262615 -0.00572532 -1.29533e-19)
(0.0980216 -0.0151273 -1.4744e-19)
(0.190106 -0.0170451 2.12714e-19)
(0.299869 -0.0131894 -9.46824e-20)
(0.42402 -0.00357209 -2.95536e-20)
(0.55794 0.0113393 -2.93955e-19)
(0.69582 0.0305114 3.29643e-19)
(0.831146 0.0524796 -5.92704e-19)
(0.957466 0.0754859 5.34488e-20)
(1.06929 0.0977286 9.19489e-20)
(1.16283 0.117641 -4.96262e-20)
(1.23642 0.134109 3.55899e-20)
(1.29044 0.146566 -4.14162e-19)
(1.32687 0.154969 -3.1608e-19)
(1.34869 0.159678 2.65594e-19)
(1.35924 0.161302 -8.52648e-20)
(1.36168 0.160541 -5.09031e-19)
(1.35871 0.158029 -9.6086e-20)
(1.35238 0.154578 -4.22414e-19)
(1.34393 0.149352 -5.20174e-19)
(0.0296551 -0.00593871 -3.05196e-20)
(0.108138 -0.0150784 2.18667e-19)
(0.20686 -0.0159103 1.58438e-19)
(0.322883 -0.0104181 4.67107e-19)
(0.452485 0.00119539 -1.62766e-20)
(0.590548 0.0182336 2.51199e-19)
(0.730806 0.0394108 -5.32812e-19)
(0.866463 0.0630299 1.87983e-19)
(0.991056 0.0871644 -1.5864e-19)
(1.09939 0.109942 2.28057e-19)
(1.18821 0.129829 5.69208e-20)
(1.25649 0.145826 1.32798e-19)
(1.30523 0.157524 3.84098e-19)
(1.33689 0.165037 4.76279e-20)
(1.35474 0.168856 -2.37861e-19)
(1.3622 0.169673 3.9361e-19)
(1.36242 0.16823 1.38547e-19)
(1.35795 0.165176 -6.52782e-20)
(1.35066 0.161262 3.96789e-19)
(1.34167 0.155773 2.61635e-19)
(0.0332361 -0.00605945 9.96363e-20)
(0.118697 -0.0147401 1.12717e-19)
(0.224181 -0.0142934 -2.80617e-19)
(0.346445 -0.00699577 -6.51947e-20)
(0.481315 0.006736 8.34812e-20)
(0.623175 0.0259558 -4.88999e-20)
(0.765342 0.0491143 3.01516e-19)
(0.900805 0.0742866 -9.55573e-20)
(1.02318 0.099398 -1.17938e-19)
(1.12765 0.122536 -4.03063e-19)
(1.21155 0.142231 -2.5655e-19)
(1.27452 0.157622 -2.38569e-19)
(1.31813 0.168467 -1.93704e-19)
(1.34528 0.17504 7.42684e-20)
(1.35947 0.177952 -1.44233e-19)
(1.36417 0.177969 1.71914e-20)
(1.36243 0.175858 2.75669e-19)
(1.35667 0.172276 2.92282e-19)
(1.34858 0.167914 2.07232e-20)
(1.33914 0.162166 1.82218e-19)
(0.0370005 -0.00607699 5.08194e-20)
(0.129678 -0.0140873 1.91231e-19)
(0.242024 -0.0121635 1.5245e-19)
(0.370477 -0.0028943 -2.54908e-19)
(0.510397 0.0130669 2.36214e-19)
(0.655685 0.0345058 -7.66174e-20)
(0.799282 0.0596027 -1.64447e-19)
(0.934037 0.0862137 3.96318e-19)
(1.05374 0.112141 -9.99236e-20)
(1.15403 0.135463 -3.19982e-21)
(1.23288 0.154807 2.75528e-19)
(1.29058 0.169469 -2.47805e-19)
(1.32926 0.179383 1.09141e-19)
(1.35218 0.184977 -2.74909e-19)
(1.36301 0.186973 4.64232e-19)
(1.36523 0.186197 -3.52095e-19)
(1.36179 0.183436 -2.12418e-19)
(1.35493 0.179342 -2.32699e-21)
(1.34617 0.174542 -3.11622e-19)
(1.33636 0.168537 -3.80509e-21)
(0.0409428 -0.00598077 -2.30015e-19)
(0.141057 -0.0130959 -8.58322e-20)
(0.260338 -0.00949201 -2.82923e-19)
(0.394894 0.0019108 -1.56765e-19)
(0.539617 0.0202005 -8.19174e-20)
(0.68794 0.0438783 -3.88705e-20)
(0.832482 0.0708516 1.81769e-19)
(0.966039 0.0987721 -1.00177e-19)
(1.08266 0.125347 -4.85127e-20)
(1.17852 0.14868 1.23906e-19)
(1.25224 0.167522 -1.6749e-19)
(1.30476 0.181343 2.14734e-19)
(1.33873 0.19026 2.0679e-19)
(1.3577 0.194846 4.68325e-20)
(1.36547 0.195924 -1.31834e-19)
(1.36549 0.194369 -3.08145e-20)
(1.36057 0.190972 -1.81806e-19)
(1.35277 0.186378 -7.73909e-20)
(1.34346 0.181151 1.277e-19)
(1.33337 0.17489 -2.17278e-19)
(0.045056 -0.00576041 7.56927e-20)
(0.152805 -0.0117426 -1.29854e-19)
(0.279066 -0.00625266 2.21339e-19)
(0.41961 0.00744012 1.04442e-19)
(0.568857 0.0281439 -1.50596e-19)
(0.719805 0.0540624 1.86345e-19)
(0.864811 0.0828323 4.69811e-20)
(0.996705 0.11192 -8.51764e-20)
(1.10989 0.13897 2.28977e-19)
(1.2011 0.162145 6.86165e-20)
(1.26967 0.180343 1.31151e-19)
(1.31715 0.193226 -1.35457e-19)
(1.34663 0.20109 -9.08376e-20)
(1.36195 0.204649 1.92705e-19)
(1.36696 0.204812 -5.543e-20)
(1.36503 0.20249 3.18028e-19)
(1.35883 0.198475 1.68607e-19)
(1.35025 0.193392 -2.79616e-20)
(1.34048 0.187745 9.29498e-20)
(1.33015 0.181228 3.54122e-19)
(0.0493317 -0.00540575 -3.75784e-20)
(0.16489 -0.0100056 2.10167e-20)
(0.298148 -0.00242189 -2.01138e-19)
(0.444532 0.01371 1.302e-19)
(0.598 0.036899 1.22589e-19)
(0.751148 0.0650421 -1.76102e-19)
(0.896146 0.0955124 8.15314e-20)
(1.02594 0.125615 -1.59787e-19)
(1.13536 0.152965 -2.28923e-19)
(1.22179 0.175817 8.31735e-20)
(1.28523 0.193242 1.54059e-20)
(1.32783 0.205101 1.31241e-19)
(1.35309 0.211867 8.84792e-20)
(1.36505 0.214387 -6.06509e-20)
(1.36756 0.213642 -1.27064e-20)
(1.36392 0.210569 -4.83698e-20)
(1.35662 0.205949 -2.52785e-19)
(1.34738 0.200387 2.12291e-20)
(1.33724 0.194324 -1.68205e-19)
(1.32674 0.187549 1.62938e-21)
(0.0537599 -0.00490703 -4.18903e-20)
(0.177278 -0.00786469 -5.39993e-20)
(0.317518 0.00202073 2.12354e-19)
(0.469565 0.0207322 -2.67082e-20)
(0.626928 0.0464625 1.27912e-21)
(0.781846 0.0767963 -1.1911e-19)
(0.926376 0.108855 -2.14281e-20)
(1.05367 0.139813 8.56988e-20)
(1.15907 0.167287 2.94653e-19)
(1.24061 0.18966 -9.52492e-20)
(1.29899 0.206193 1.62916e-20)
(1.3369 0.216952 5.2437e-20)
(1.3582 0.222587 -1.02966e-19)
(1.36707 0.224062 -6.66825e-20)
(1.36736 0.22242 1.80089e-20)
(1.36221 0.21861 6.30549e-20)
(1.35398 0.2134 1.61216e-19)
(1.34419 0.207366 -4.27366e-21)
(1.33376 0.200891 6.17828e-20)
(1.32312 0.193855 4.24809e-20)
(0.0583292 -0.00425496 7.29325e-20)
(0.189929 -0.00530143 1.5062e-19)
(0.337108 0.00709226 1.04466e-19)
(0.494612 0.0285139 -5.78311e-20)
(0.655523 0.0568256 2.1575e-19)
(0.811777 0.0892993 1.28605e-19)
(0.955399 0.122823 -1.94207e-19)
(1.07984 0.154467 -6.82294e-20)
(1.18099 0.181894 8.95115e-22)
(1.2576 0.203638 -5.76318e-20)
(1.31101 0.219171 -1.6738e-19)
(1.34445 0.228769 2.80669e-20)
(1.36206 0.233247 2.87099e-22)
(1.36812 0.233676 -1.78591e-19)
(1.36642 0.231149 8.23456e-20)
(1.35997 0.226618 -4.46554e-20)
(1.35094 0.220829 -1.98127e-19)
(1.34071 0.214328 9.6502e-20)
(1.33005 0.207444 -2.05372e-19)
(1.3193 0.200142 -1.23794e-19)
(0.063027 -0.00344085 -2.55936e-20)
(0.202802 -0.00229954 -6.47503e-20)
(0.356847 0.0128061 -1.0881e-19)
(0.519575 0.0370574 -5.29049e-21)
(0.683672 0.0679748 -1.04263e-20)
(0.840831 0.102521 -1.21307e-19)
(0.983127 0.137372 2.82758e-20)
(1.10438 0.169533 2.66364e-20)
(1.20112 0.196743 -5.55909e-20)
(1.27278 0.217719 4.55422e-21)
(1.32138 0.232157 8.81687e-20)
(1.35056 0.240541 -1.16729e-20)
(1.36475 0.243844 6.7901e-20)
(1.36826 0.243232 3.06439e-20)
(1.3648 0.239833 -1.6929e-19)
(1.35723 0.234595 1.30823e-20)
(1.34754 0.228238 1.05035e-19)
(1.33694 0.221273 -2.5213e-20)
(1.32611 0.213981 4.91333e-21)
(1.31529 0.206408 -1.7345e-20)
(0.0678391 -0.0024567 -2.33903e-20)
(0.215853 0.00115494 -2.29317e-20)
(0.376659 0.0191718 -4.09828e-20)
(0.544356 0.0463601 -2.71826e-20)
(0.711264 0.0798911 -7.16873e-20)
(0.868902 0.116427 8.37028e-20)
(1.00948 0.15246 1.66963e-19)
(1.12727 0.184965 5.86276e-20)
(1.21946 0.211795 3.02249e-20)
(1.28622 0.231873 -7.26275e-20)
(1.33015 0.24513 -8.02354e-22)
(1.35533 0.252258 4.77911e-20)
(1.36636 0.254375 -6.1809e-20)
(1.36758 0.25273 2.3754e-20)
(1.36257 0.248473 8.06006e-20)
(1.35404 0.242542 -2.80392e-20)
(1.34379 0.235625 -5.00418e-20)
(1.33291 0.2282 -4.66843e-20)
(1.32194 0.220498 1.67183e-19)
(1.31108 0.21265 5.88911e-20)
(0.0727503 -0.00129534 -4.15877e-20)
(0.229035 0.00507346 5.05825e-20)
(0.39647 0.0261949 -1.16088e-20)
(0.568856 0.0564146 3.68728e-20)
(0.738192 0.0925511 -3.33616e-20)
(0.895896 0.130981 -2.05291e-20)
(1.03439 0.168041 -8.09971e-20)
(1.14849 0.200717 9.47308e-21)
(1.23605 0.227009 2.31848e-20)
(1.29797 0.246071 5.25566e-20)
(1.33741 0.258075 -2.07142e-20)
(1.35884 0.263912 -1.62857e-20)
(1.36697 0.264839 1.51202e-20)
(1.36612 0.26217 -2.6757e-20)
(1.35976 0.257071 6.13501e-20)
(1.35041 0.250459 4.10808e-20)
(1.33971 0.242989 -7.05129e-21)
(1.32861 0.235104 -4.669e-21)
(1.31755 0.226992 -4.50982e-20)
(1.30667 0.218862 -5.66277e-20)
(0.0777441 4.95176e-05 8.95279e-21)
(0.242301 0.00946475 -1.57712e-20)
(0.416203 0.0338767 1.08711e-20)
(0.592978 0.0672085 -1.50491e-20)
(0.764356 0.105927 -5.81203e-20)
(0.921725 0.146141 2.71093e-20)
(1.05781 0.184069 1.33638e-20)
(1.168 0.216744 -6.36568e-20)
(1.25089 0.242351 -4.04052e-20)
(1.30807 0.260288 -3.88023e-21)
(1.34324 0.270974 -5.70363e-20)
(1.36115 0.275496 5.93598e-20)
(1.36664 0.275232 -1.16246e-22)
(1.36395 0.271551 -8.01682e-21)
(1.35642 0.265624 -1.55855e-20)
(1.34637 0.258342 7.68117e-21)
(1.33531 0.250326 5.42233e-21)
(1.32405 0.24198 -2.12899e-21)
(1.31294 0.233458 -1.64885e-20)
(1.30206 0.225039 2.01965e-20)
(0.0828031 0.00158317 2.98289e-21)
(0.255599 0.0143347 1.03803e-20)
(0.43578 0.0422146 5.83038e-21)
(0.616628 0.0787246 -2.73034e-21)
(0.78966 0.119986 3.83394e-20)
(0.946312 0.161864 -8.62872e-21)
(1.07969 0.200496 1.37976e-20)
(1.18582 0.233003 3.07095e-20)
(1.26403 0.257782 -5.57136e-21)
(1.3166 0.274498 1.40466e-21)
(1.3477 0.283814 1.56539e-20)
(1.36235 0.287002 -8.40328e-21)
(1.36543 0.285551 1.09965e-20)
(1.36112 0.280872 2.00978e-21)
(1.35257 0.274131 -2.11118e-20)
(1.34195 0.26619 1.04728e-21)
(1.3306 0.257631 2.77657e-20)
(1.31923 0.248825 -5.825e-21)
(1.30811 0.239888 8.69873e-21)
(1.29724 0.231175 -9.8008e-21)
(0.0879092 0.00330986 1.21853e-21)
(0.268878 0.0196862 1.52666e-20)
(0.455123 0.0512014 8.30917e-21)
(0.639715 0.0909415 -1.70704e-21)
(0.814015 0.134692 3.5266e-20)
(0.969588 0.178105 -1.00326e-20)
(1.09999 0.217274 1.88814e-20)
(1.20193 0.249449 2.55437e-20)
(1.2755 0.273271 -5.31505e-21)
(1.3236 0.288677 1.20082e-21)
(1.35086 0.296578 1.7696e-20)
(1.36249 0.298421 -7.19568e-21)
(1.36341 0.295791 7.14292e-21)
(1.35766 0.29013 -1.78031e-21)
(1.34824 0.282588 -1.71479e-20)
(1.33716 0.273996 -5.09379e-22)
(1.3256 0.264899 2.74917e-20)
(1.31416 0.25563 -5.42809e-21)
(1.30305 0.246278 1.02453e-20)
(1.29223 0.237263 -1.10116e-20)
(0.0930434 0.00523274 1.06211e-20)
(0.282088 0.0255194 -1.9597e-20)
(0.474157 0.060826 1.00377e-20)
(0.662151 0.103833 -8.14867e-21)
(0.837338 0.150006 -5.58297e-20)
(0.991493 0.194815 2.28118e-20)
(1.11869 0.234354 1.04664e-20)
(1.21636 0.266041 -7.20301e-20)
(1.28535 0.288782 -3.03931e-20)
(1.32914 0.302803 -2.69251e-23)
(1.35278 0.309255 -4.7648e-20)
(1.36164 0.309747 4.00491e-20)
(1.36062 0.305948 -9.07241e-21)
(1.35361 0.299319 5.74349e-21)
(1.34347 0.29099 -2.24916e-20)
(1.33201 0.281755 1.7193e-20)
(1.3203 0.272122 1.10407e-20)
(1.30884 0.262388 -1.96607e-21)
(1.29778 0.252619 -2.20286e-20)
(1.28701 0.243297 2.01743e-20)
(0.0981855 0.00735373 -2.29278e-20)
(0.295174 0.0318309 -1.05269e-20)
(0.492806 0.071073 -1.54564e-20)
(0.68385 0.117369 5.33356e-20)
(0.859554 0.165885 2.76733e-22)
(1.01198 0.211945 -2.86505e-20)
(1.13578 0.251687 -1.17294e-19)
(1.22913 0.282736 1.15814e-20)
(1.2936 0.304286 1.34723e-20)
(1.33329 0.316855 5.99067e-20)
(1.35354 0.321829 9.04645e-21)
(1.35986 0.32097 -5.11723e-20)
(1.3571 0.316015 4.84193e-20)
(1.34901 0.308434 -1.96617e-20)
(1.33825 0.299331 7.47029e-20)
(1.32651 0.289459 -6.87602e-21)
(1.31471 0.279293 3.91102e-21)
(1.30326 0.269092 3.38463e-21)
(1.29227 0.258904 -5.85496e-20)
(1.28158 0.249269 -3.53227e-20)
(0.103315 0.00967352 -8.61013e-21)
(0.308084 0.0386146 -5.05198e-20)
(0.510996 0.0819229 4.0122e-20)
(0.704735 0.131515 -5.12614e-20)
(0.880595 0.182283 -9.25148e-20)
(1.03099 0.229444 8.11508e-20)
(1.15123 0.269226 1.34266e-19)
(1.24024 0.299493 4.82823e-20)
(1.30032 0.31975 3.36876e-20)
(1.33608 0.330811 -9.70003e-20)
(1.35318 0.334288 7.46994e-20)
(1.3572 0.332082 8.68719e-21)
(1.35289 0.325986 -9.54445e-20)
(1.34387 0.317468 3.74541e-20)
(1.33262 0.307603 1.33831e-19)
(1.32067 0.297101 -9.23629e-20)
(1.30883 0.286403 -2.65102e-20)
(1.29744 0.275733 -2.5696e-20)
(1.28654 0.265124 1.19207e-19)
(1.27594 0.25517 6.82529e-20)
(0.108413 0.0121915 5.98551e-20)
(0.320767 0.0458609 -1.02243e-19)
(0.528655 0.0933525 -1.49708e-19)
(0.724729 0.146234 6.78891e-21)
(0.900399 0.199151 -2.71041e-20)
(1.04851 0.24726 -1.1133e-19)
(1.16505 0.286921 -1.89635e-20)
(1.24974 0.316272 5.75514e-20)
(1.30555 0.335145 -9.30261e-20)
(1.33759 0.34465 7.65379e-20)
(1.35177 0.346618 8.92131e-20)
(1.3537 0.343073 -5.64862e-20)
(1.34804 0.335852 2.32285e-20)
(1.33823 0.326413 1.1803e-19)
(1.32659 0.315796 -1.58501e-19)
(1.31449 0.304671 2.78708e-20)
(1.30266 0.293442 7.60551e-20)
(1.29136 0.282301 -2.31323e-20)
(1.28058 0.271269 -2.47417e-20)
(1.27009 0.260992 -4.19234e-21)
(0.113456 0.0149058 8.79982e-20)
(0.33317 0.0535574 1.64605e-19)
(0.545717 0.105334 8.79686e-20)
(0.743765 0.161483 -1.04962e-19)
(0.918913 0.21644 2.75311e-19)
(1.0645 0.26534 4.262e-20)
(1.17725 0.304724 -1.17961e-19)
(1.25764 0.333034 -8.53985e-20)
(1.30934 0.350442 -6.85102e-20)
(1.33787 0.358353 2.29805e-20)
(1.34936 0.358805 -7.81104e-20)
(1.34941 0.353932 2.55974e-21)
(1.34256 0.345604 -5.34656e-20)
(1.3321 0.335261 -7.34205e-20)
(1.32016 0.323903 -1.25586e-20)
(1.30799 0.312159 -7.80454e-21)
(1.29621 0.300399 -1.40632e-19)
(1.28502 0.288786 1.06668e-19)
(1.27439 0.277332 -1.62563e-19)
(1.26402 0.266727 -9.48799e-20)
(0.118426 0.0178134 -1.06659e-19)
(0.345244 0.0616886 -4.41581e-20)
(0.562115 0.117838 1.97155e-19)
(0.761778 0.17722 5.04318e-20)
(0.93609 0.234096 -1.73047e-19)
(1.07895 0.283632 -1.00593e-19)
(1.18783 0.322588 -3.34355e-20)
(1.26399 0.34974 2.18445e-19)
(1.31173 0.365612 1.56847e-19)
(1.33697 0.371899 -5.3976e-20)
(1.34598 0.370835 -3.15214e-20)
(1.34436 0.364649 7.98685e-20)
(1.33649 0.355231 -8.74512e-20)
(1.32549 0.343999 4.07954e-20)
(1.31334 0.331911 1.78299e-20)
(1.30116 0.319554 -2.24631e-20)
(1.28947 0.307265 1.71097e-19)
(1.27843 0.295178 -7.24117e-20)
(1.26797 0.283301 1.46552e-19)
(1.25775 0.272366 -5.16328e-20)
(0.1233 0.0209097 -5.97475e-20)
(0.356939 0.0702362 -1.11032e-19)
(0.577787 0.13083 -1.77035e-19)
(0.778711 0.193396 1.07329e-19)
(0.95189 0.252066 5.91181e-20)
(1.09184 0.302081 -8.43776e-20)
(1.19681 0.340465 1.41446e-19)
(1.26883 0.366354 -2.19005e-19)
(1.31277 0.380627 -2.33784e-19)
(1.33493 0.385269 1.41789e-19)
(1.3417 0.382692 5.32367e-20)
(1.33859 0.37521 -5.95829e-20)
(1.32986 0.364723 9.07236e-20)
(1.31843 0.352618 7.16152e-20)
(1.30615 0.339809 -5.26014e-20)
(1.294 0.326844 -1.79993e-20)
(1.28245 0.314028 -1.3049e-19)
(1.27159 0.301467 2.6809e-20)
(1.26132 0.289167 -1.1204e-19)
(1.25126 0.277899 -1.82817e-20)
(0.12806 0.024189 4.97024e-20)
(0.368208 0.0791791 -8.68516e-20)
(0.592677 0.144273 1.59541e-19)
(0.794511 0.209962 2.70934e-19)
(0.966282 0.270294 -3.9137e-19)
(1.10317 0.320635 3.46074e-19)
(1.20421 0.35831 9.30419e-20)
(1.27218 0.382838 -1.35605e-19)
(1.31252 0.395462 1.61237e-19)
(1.33182 0.398442 9.55736e-20)
(1.33654 0.394363 1.19007e-19)
(1.33213 0.385604 -2.07447e-19)
(1.32267 0.374067 -4.2949e-20)
(1.31093 0.361105 1.03501e-19)
(1.29858 0.347586 3.9667e-20)
(1.28652 0.334017 1.83556e-19)
(1.27514 0.320676 2.31378e-19)
(1.26448 0.30764 -5.71836e-20)
(1.25443 0.294919 9.9868e-20)
(1.24456 0.283316 1.12082e-19)
(0.132684 0.0276444 -1.41922e-20)
(0.379007 0.0884935 -2.01295e-19)
(0.606731 0.158126 -2.7845e-19)
(0.809134 0.226868 -3.65206e-19)
(0.979239 0.288725 -3.52923e-20)
(1.11293 0.339239 1.34955e-19)
(1.21005 0.376076 -2.61531e-20)
(1.2741 0.399156 4.60162e-20)
(1.31102 0.410087 -7.11766e-20)
(1.32767 0.411399 1.19447e-19)
(1.33055 0.40583 -1.8327e-19)
(1.32501 0.395816 2.40013e-19)
(1.31496 0.383251 1.38492e-19)
(1.30299 0.369447 6.32801e-20)
(1.29065 0.355227 -9.4973e-20)
(1.27873 0.34106 -1.01883e-19)
(1.26755 0.327196 -9.7293e-20)
(1.25712 0.313687 7.16312e-21)
(1.24731 0.300545 1.29625e-19)
(1.23765 0.288606 -1.36207e-19)
(0.137153 0.0312678 -2.52611e-20)
(0.389293 0.0981532 1.57324e-19)
(0.6199 0.172349 1.98448e-19)
(0.822539 0.244059 -3.10143e-20)
(0.990742 0.307301 9.37236e-20)
(1.12113 0.357841 2.49884e-20)
(1.21436 0.393718 -1.37576e-19)
(1.27461 0.415272 1.09497e-19)
(1.30831 0.424477 1.02868e-19)
(1.32252 0.42412 -1.79888e-19)
(1.32376 0.417077 2.90521e-19)
(1.31725 0.405832 -2.43186e-19)
(1.30674 0.39226 1.4086e-19)
(1.29464 0.377631 -2.06275e-19)
(1.28236 0.36272 3.04795e-19)
(1.27061 0.347961 -1.93385e-19)
(1.25967 0.333578 -5.67128e-20)
(1.24951 0.319596 -7.65876e-20)
(1.23996 0.306033 -1.62072e-19)
(1.23052 0.293756 2.55557e-21)
(0.141449 0.0350498 1.83111e-19)
(0.399025 0.10813 1.95923e-19)
(0.632139 0.186895 -2.83975e-19)
(0.834692 0.261481 -1.73343e-19)
(1.00078 0.325966 2.58685e-19)
(1.12778 0.376387 -1.03683e-19)
(1.21716 0.411192 1.51873e-19)
(1.27377 0.431153 6.56849e-20)
(1.30445 0.438605 -1.5349e-19)
(1.31643 0.436583 -3.8226e-19)
(1.31621 0.428089 -6.87062e-20)
(1.30889 0.415637 -1.442e-19)
(1.29802 0.40108 -2.15303e-19)
(1.28587 0.385642 1.75621e-20)
(1.27371 0.370051 -2.25901e-20)
(1.26219 0.354706 -2.16665e-20)
(1.25151 0.339807 1.77306e-19)
(1.24163 0.325355 1.28205e-19)
(1.23237 0.311375 1.42561e-20)
(1.22315 0.298762 7.46041e-20)
(0.145554 0.0389801 -4.40763e-20)
(0.408167 0.118392 3.46415e-19)
(0.643408 0.201718 1.35805e-19)
(0.845565 0.279077 2.76862e-19)
(1.00934 0.344662 9.02401e-20)
(1.13291 0.394825 3.44315e-20)
(1.21851 0.428455 -2.21206e-19)
(1.27162 0.446764 -7.1707e-20)
(1.29947 0.452446 3.57948e-20)
(1.30942 0.448769 2.83954e-19)
(1.30793 0.438847 -9.34941e-20)
(1.29994 0.425215 1.16253e-19)
(1.28882 0.409696 2.46602e-19)
(1.27669 0.393464 5.64884e-20)
(1.26471 0.377205 -4.95845e-20)
(1.25345 0.361281 6.69316e-20)
(1.24306 0.345871 1.27584e-19)
(1.23351 0.330954 5.83779e-20)
(1.22456 0.316571 1.49522e-19)
(1.21555 0.303631 1.1338e-19)
(0.14945 0.0430471 -1.1459e-19)
(0.416683 0.128908 -1.77899e-19)
(0.653673 0.21677 1.13347e-19)
(0.855136 0.296792 3.81019e-20)
(1.01642 0.363332 7.62177e-20)
(1.13651 0.413104 -3.13693e-19)
(1.21841 0.445464 1.14381e-19)
(1.2682 0.462071 -2.47518e-19)
(1.29341 0.465974 -1.37843e-19)
(1.30154 0.460658 1.61644e-19)
(1.29895 0.449334 -1.74572e-20)
(1.29042 0.43455 1.07828e-20)
(1.27916 0.418091 -2.999e-19)
(1.26712 0.401084 -1.21523e-19)
(1.25537 0.384167 1.00684e-19)
(1.2444 0.367672 -1.76749e-19)
(1.23435 0.351756 -9.52351e-20)
(1.22513 0.336379 -9.62204e-20)
(1.21651 0.321612 -1.68076e-19)
(1.20778 0.308325 -3.84633e-19)
(0.153122 0.0472386 6.69765e-20)
(0.424543 0.139643 -8.35364e-20)
(0.662903 0.232001 -4.57895e-19)
(0.863387 0.314567 2.48148e-19)
(1.02204 0.381918 -3.10452e-19)
(1.13863 0.431174 -4.40116e-20)
(1.21693 0.462176 -4.29919e-19)
(1.26355 0.477043 4.60189e-19)
(1.28634 0.479163 2.64039e-19)
(1.29283 0.472227 -1.60328e-20)
(1.2893 0.459532 9.52127e-20)
(1.28036 0.443624 -1.20752e-19)
(1.26905 0.426251 -9.75608e-21)
(1.25717 0.408485 5.67987e-20)
(1.24569 0.390922 -5.91104e-20)
(1.23505 0.373864 1.11418e-19)
(1.22535 0.35745 -1.48755e-19)
(1.21651 0.341619 -1.33264e-19)
(1.20824 0.326471 7.57678e-20)
(1.19982 0.312852 1.02273e-19)
(0.156553 0.0515412 1.52261e-19)
(0.431718 0.150562 1.53859e-19)
(0.671072 0.24736 1.19613e-19)
(0.870309 0.332345 -3.51126e-21)
(1.02618 0.400365 -7.99485e-20)
(1.13928 0.448983 5.46728e-19)
(1.21408 0.478552 3.12096e-19)
(1.25772 0.491646 2.11712e-19)
(1.27827 0.491987 3.02662e-19)
(1.28331 0.483457 3.73582e-20)
(1.279 0.469422 -2.55052e-19)
(1.26977 0.452422 -2.73987e-20)
(1.2585 0.434157 -5.60238e-20)
(1.24684 0.415651 -1.83606e-19)
(1.23568 0.397455 -6.91018e-20)
(1.2254 0.379844 -9.75575e-20)
(1.21608 0.362938 3.0572e-19)
(1.20764 0.346661 -4.0702e-21)
(1.19974 0.33114 8.6267e-20)
(1.19166 0.317192 6.87927e-20)
(0.159732 0.0559407 -5.11585e-20)
(0.438183 0.161627 -8.91422e-20)
(0.678159 0.262795 -1.96022e-19)
(0.875895 0.350069 -3.34945e-20)
(1.02888 0.418617 -3.2823e-19)
(1.13849 0.466484 -2.37757e-19)
(1.20992 0.494552 7.90686e-20)
(1.25075 0.50585 -5.79035e-19)
(1.26925 0.504422 -3.15823e-19)
(1.27302 0.494326 7.68684e-20)
(1.26808 0.478985 -4.00803e-20)
(1.25868 0.460924 2.3257e-19)
(1.24752 0.441794 3.18619e-19)
(1.23614 0.422566 8.10301e-20)
(1.22534 0.403751 2.20864e-19)
(1.21545 0.385597 -1.16404e-19)
(1.20655 0.368207 1.60502e-19)
(1.19852 0.351493 8.99368e-20)
(1.19103 0.335606 7.81621e-20)
(1.1833 0.321336 -1.48521e-19)
(0.162643 0.0604224 7.60252e-20)
(0.443917 0.1728 -8.68599e-21)
(0.684149 0.278254 -3.02654e-19)
(0.880143 0.367679 -5.57062e-22)
(1.03013 0.436617 7.39125e-19)
(1.13631 0.483629 1.48376e-19)
(1.20449 0.510137 1.12934e-19)
(1.24268 0.519624 3.35092e-19)
(1.25933 0.516444 -2.72379e-19)
(1.262 0.504814 -2.94423e-19)
(1.25656 0.488204 -3.00266e-21)
(1.24709 0.469114 -2.11377e-19)
(1.23612 0.449144 -1.18397e-19)
(1.22508 0.429213 3.20285e-19)
(1.21467 0.409793 -8.47927e-20)
(1.20521 0.391108 6.0643e-21)
(1.19674 0.373244 -1.16594e-19)
(1.18917 0.356102 -1.77595e-19)
(1.1821 0.339859 1.0815e-20)
(1.17475 0.325275 1.68415e-19)
(0.165277 0.0649707 -3.6752e-19)
(0.448901 0.184042 2.31169e-19)
(0.689031 0.293683 5.1941e-19)
(0.883058 0.38512 1.63969e-19)
(1.02998 0.454313 -8.68913e-19)
(1.13275 0.50037 -3.61946e-19)
(1.19782 0.525268 -2.84984e-19)
(1.23356 0.532938 -1.04517e-19)
(1.24854 0.528027 3.56966e-19)
(1.25027 0.514899 3.8771e-20)
(1.24447 0.497058 -7.60852e-20)
(1.23503 0.476973 1.40279e-19)
(1.22433 0.45619 2.06788e-20)
(1.21367 0.435577 -3.82338e-19)
(1.2037 0.415568 1.15482e-19)
(1.19469 0.396363 1.54621e-19)
(1.18668 0.378036 7.4441e-20)
(1.17957 0.360476 1.01836e-19)
(1.17296 0.343888 -1.79512e-19)
(1.16601 0.329 -8.72873e-20)
(0.167624 0.0695697 -2.50512e-20)
(0.45312 0.195313 1.16399e-19)
(0.692796 0.309031 5.83549e-20)
(0.884648 0.402334 1.74507e-19)
(1.02844 0.471651 4.85039e-19)
(1.12787 0.516664 -3.17793e-19)
(1.18996 0.53991 -1.91496e-20)
(1.22342 0.545762 3.10462e-19)
(1.23692 0.539147 -3.79978e-19)
(1.23787 0.524561 1.24714e-19)
(1.23184 0.505529 3.23933e-19)
(1.22252 0.484483 7.45338e-20)
(1.21215 0.462916 -1.62438e-19)
(1.20192 0.441642 2.7505e-19)
(1.19242 0.42106 -3.22385e-19)
(1.18389 0.401349 9.96067e-21)
(1.17637 0.382569 -7.62063e-20)
(1.16975 0.364603 1.34003e-19)
(1.16362 0.347681 1.19134e-19)
(1.15709 0.332499 1.05878e-19)
(0.169673 0.0742027 4.75631e-20)
(0.456563 0.206574 1.8578e-19)
(0.695443 0.324243 1.8503e-19)
(0.884926 0.419266 -1.19167e-19)
(1.02553 0.48858 1.05766e-20)
(1.12169 0.532465 2.94822e-19)
(1.18096 0.554027 5.26752e-19)
(1.21232 0.558068 -5.45179e-20)
(1.22451 0.549782 5.15671e-20)
(1.22483 0.533779 -1.55268e-19)
(1.21867 0.513597 -3.31446e-19)
(1.20957 0.491627 5.38328e-20)
(1.19959 0.469303 1.9049e-19)
(1.18984 0.44739 -3.91207e-20)
(1.18084 0.426253 -3.12811e-20)
(1.17282 0.40605 -1.28762e-19)
(1.1658 0.386831 -2.22871e-20)
(1.15971 0.36847 -5.1579e-20)
(1.15407 0.351229 -4.22789e-20)
(1.14799 0.335764 -9.85095e-20)
(0.171418 0.0788529 -1.63537e-19)