/*--------------------------------*- C++ -*----------------------------------*\
  =========                 |
  \\      /  F ield         | OpenFOAM: The Open Source CFD Toolbox
   \\    /   O peration     | Website:  https://openfoam.org
    \\  /    A nd           | Version:  7
     \\/     M anipulation  |
\*---------------------------------------------------------------------------*/
FoamFile
{
    version     2.0;
    format      ascii;
    class       volScalarField;
    location    "25";
    object      p;
}
// * * * * * * * * * * * * * * * * * * * * * * * * * * * * * * * * * * * * * //

dimensions      [0 2 -2 0 0 0 0];

internalField   nonuniform List<scalar> 
3025
(
-0.503294
-0.511974
-0.491232
-0.520288
-0.498646
-0.482252
-0.46678
-0.528158
-0.505662
-0.488712
-0.472753
-0.456925
-0.535504
-0.512205
-0.494738
-0.478325
-0.462034
-0.446081
-0.430337
-0.542238
-0.518191
-0.500254
-0.483421
-0.466689
-0.450251
-0.433946
-0.41761
-0.548267
-0.523537
-0.505176
-0.487961
-0.470812
-0.453894
-0.43702
-0.420003
-0.402699
-0.384993
-0.553492
-0.52815
-0.509417
-0.491858
-0.474315
-0.456927
-0.439476
-0.421759
-0.403626
-0.384966
-0.365689
-0.34558
-0.557812
-0.531936
-0.512885
-0.495023
-0.477111
-0.459261
-0.441227
-0.422794
-0.403813
-0.384188
-0.363856
-0.342673
-0.321189
-0.300905
-0.56112
-0.534797
-0.515488
-0.497363
-0.479109
-0.460805
-0.442184
-0.423022
-0.403181
-0.382585
-0.36121
-0.338985
-0.316455
-0.294845
-0.563311
-0.536633
-0.517127
-0.498783
-0.480213
-0.461466
-0.442256
-0.422357
-0.401649
-0.380086
-0.357688
-0.334463
-0.31095
-0.288137
-0.564274
-0.537344
-0.517706
-0.499187
-0.480329
-0.46115
-0.441351
-0.420713
-0.399137
-0.376619
-0.353228
-0.329053
-0.304625
-0.280735
-0.563904
-0.536827
-0.517125
-0.498478
-0.479361
-0.459764
-0.439381
-0.418005
-0.39557
-0.372117
-0.347773
-0.322706
-0.297439
-0.272595
-0.562093
-0.534984
-0.515287
-0.49656
-0.477214
-0.457216
-0.436257
-0.414152
-0.390875
-0.366518
-0.34127
-0.315377
-0.289352
-0.263678
-0.558738
-0.531716
-0.512097
-0.493338
-0.473796
-0.453416
-0.431895
-0.409077
-0.384983
-0.359763
-0.33367
-0.307028
-0.280332
-0.25395
-0.553742
-0.526929
-0.507461
-0.488721
-0.469018
-0.448279
-0.426215
-0.402708
-0.377831
-0.3518
-0.324931
-0.297623
-0.270351
-0.243385
-0.547012
-0.520535
-0.501294
-0.482624
-0.462795
-0.441725
-0.419144
-0.394979
-0.369366
-0.342584
-0.315018
-0.287137
-0.259387
-0.23196
-0.538459
-0.512448
-0.493509
-0.474961
-0.455048
-0.433678
-0.410612
-0.385832
-0.359537
-0.332078
-0.303904
-0.27555
-0.247427
-0.219662
-0.528007
-0.502593
-0.484033
-0.46566
-0.445704
-0.424072
-0.400562
-0.375216
-0.348307
-0.320252
-0.291567
-0.262848
-0.234462
-0.20648
-0.515587
-0.490902
-0.472797
-0.454655
-0.434702
-0.412849
-0.388944
-0.363093
-0.335643
-0.307086
-0.277996
-0.249025
-0.22049
-0.192413
-0.501144
-0.477318
-0.459743
-0.441887
-0.421985
-0.399961
-0.375716
-0.34943
-0.321527
-0.292568
-0.263187
-0.234083
-0.205516
-0.177464
-0.484631
-0.461793
-0.444824
-0.42731
-0.407512
-0.385371
-0.36085
-0.334207
-0.305946
-0.276695
-0.247142
-0.21803
-0.189551
-0.16164
-0.466016
-0.444292
-0.428002
-0.410888
-0.391249
-0.369051
-0.344327
-0.317416
-0.2889
-0.259474
-0.229876
-0.200882
-0.172614
-0.144959
-0.44528
-0.424792
-0.409253
-0.392598
-0.373177
-0.350989
-0.326141
-0.299058
-0.270399
-0.240922
-0.211407
-0.182661
-0.154731
-0.127446
-0.422418
-0.403285
-0.388566
-0.372428
-0.353288
-0.331182
-0.306299
-0.279147
-0.250464
-0.221063
-0.191762
-0.163395
-0.13593
-0.109104
-0.397441
-0.379774
-0.365944
-0.350381
-0.331588
-0.309644
-0.284818
-0.257708
-0.229125
-0.199932
-0.17098
-0.143121
-0.116229
-0.0898556
-0.370374
-0.354279
-0.341401
-0.326476
-0.308099
-0.286398
-0.26173
-0.234779
-0.206424
-0.177575
-0.149105
-0.121884
-0.0956564
-0.0696689
-0.341258
-0.326834
-0.314971
-0.300741
-0.282853
-0.261484
-0.23708
-0.210409
-0.182413
-0.154043
-0.126192
-0.0997268
-0.0742971
-0.0493192
-0.310149
-0.297487
-0.286697
-0.273224
-0.255899
-0.234953
-0.210923
-0.184657
-0.157155
-0.1294
-0.102298
-0.0767099
-0.0521602
-0.02822
-0.277119
-0.266302
-0.25664
-0.243984
-0.227298
-0.206871
-0.183329
-0.157594
-0.130721
-0.103715
-0.0774917
-0.0528988
-0.0293421
-0.00644407
-0.242255
-0.233357
-0.224875
-0.213095
-0.197126
-0.177317
-0.154378
-0.129304
-0.103192
-0.0770684
-0.0518465
-0.0283614
-0.00590184
0.0159082
-0.205659
-0.198744
-0.19149
-0.180645
-0.165473
-0.146379
-0.124161
-0.0998762
-0.0746598
-0.0495467
-0.0254449
-0.0031722
0.0180974
0.038764
-0.167445
-0.162569
-0.156588
-0.146735
-0.13244
-0.114159
-0.0927806
-0.0694138
-0.0452228
-0.021245
0.00162333
0.0225865
0.0425814
0.0620482
-0.127741
-0.124951
-0.120283
-0.111478
-0.0981356
-0.080775
-0.0603499
-0.0380265
-0.0149877
0.00773417
0.029261
0.0488248
0.067465
0.0856724
-0.0866841
-0.0860249
-0.0827039
-0.0750001
-0.0626885
-0.0463445
-0.0269886
-0.00583169
0.0159319
0.0372816
0.0573633
0.0754442
0.0926504
0.109534
-0.0444193
-0.0459428
-0.0439873
-0.0374366
-0.0262318
-0.011
0.00717493
0.0270467
0.0474171
0.0672827
0.0858189
0.102339
0.118032
-0.00113909
-0.00483422
-0.00428421
0.00106559
0.011092
0.0251191
0.0420064
0.06048
0.0793451
0.0976191
0.114513
0.12941
0.043003
0.0371237
0.0362461
0.0403518
0.0491322
0.0618671
0.0773663
0.0943361
0.111591
0.128169
0.143328
0.0878271
0.0797578
0.077437
0.0802595
0.0877312
0.099093
0.113112
0.128481
0.144029
0.158812
0.172146
0.133143
0.122889
0.119114
0.120619
0.126726
0.136641
0.149097
0.162781
0.176538
0.189439
0.178753
0.166329
0.161096
0.161255
0.165947
0.174352
0.185174
0.197103
0.209006
0.224465
0.209892
0.2032
0.20199
0.205226
0.212065
0.221193
0.231312
0.241319
0.270072
0.253382
0.245236
0.242641
0.244386
0.249615
0.257001
0.265265
0.315369
0.2966
0.287013
0.283023
0.283253
0.286835
0.292442
0.360149
0.339349
0.328338
0.322951
0.321648
0.323561
0.327363
0.404207
0.38143
0.369019
0.36224
0.359399
0.359628
0.36161
0.447339
0.422647
0.408866
0.400707
0.39633
0.394873
0.489344
0.462806
0.447691
0.438172
0.432271
0.429138
0.530026
0.501717
0.485309
0.47446
0.467058
0.569194
0.539194
0.521542
0.509398
0.500529
0.606663
0.57506
0.556217
0.542822
0.532529
0.642257
0.609142
0.589167
0.574574
0.675806
0.641278
0.620235
0.604502
0.707153
0.671312
0.649271
0.632465
0.736148
0.699099
0.676135
0.65833
0.762653
0.724507
0.700697
0.786543
0.747411
0.72284
0.807702
0.767702
0.742455
0.82603
0.785281
0.759448
0.84144
0.800062
0.773736
0.853858
0.811974
0.785251
0.863223
0.820959
0.793937
0.869492
0.826973
0.799751
0.872634
0.829988
0.802665
0.872634
0.829988
0.802665
0.869492
0.826973
0.799751
0.863223
0.820959
0.793937
0.853858
0.811974
0.785251
0.84144
0.800062
0.773736
0.82603
0.785281
0.759448
0.807702
0.767702
0.742455
0.786543
0.747411
0.72284
0.762653
0.724507
0.700697
0.736148
0.699099
0.676135
0.65833
0.707153
0.671312
0.649271
0.632465
0.675806
0.641278
0.620235
0.604502
0.642257
0.609142
0.589167
0.574574
0.606663
0.57506
0.556217
0.542822
0.532529
0.569194
0.539194
0.521542
0.509398
0.500529
0.530026
0.501717
0.485309
0.47446
0.467058
0.489344
0.462806
0.447691
0.438172
0.432271
0.429138
0.447339
0.422647
0.408866
0.400707
0.39633
0.394873
0.404207
0.38143
0.369019
0.36224
0.359399
0.359628
0.36161
0.360149
0.339349
0.328338
0.322951
0.321648
0.323561
0.327363
0.315369
0.2966
0.287013
0.283023
0.283253
0.286835
0.292442
0.298819
0.270072
0.253382
0.245236
0.242641
0.244386
0.249615
0.257001
0.265265
0.224465
0.209892
0.2032
0.20199
0.205226
0.212065
0.221193
0.231312
0.241319
0.178753
0.166329
0.161096
0.161255
0.165947
0.174352
0.185174
0.197103
0.209006
0.133143
0.122889
0.119114
0.120619
0.126726
0.136641
0.149097
0.162781
0.176538
0.189439
0.0878271
0.0797578
0.077437
0.0802595
0.0877312
0.099093
0.113112
0.128481
0.144029
0.158812
0.172146
0.043003
0.0371237
0.0362461
0.0403518
0.0491322
0.0618672
0.0773663
0.0943362
0.111591
0.128169
0.143328
-0.00113907
-0.0048342
-0.00428418
0.00106561
0.011092
0.0251192
0.0420064
0.0604801
0.0793451
0.0976192
0.114513
0.12941
-0.0444193
-0.0459428
-0.0439873
-0.0374366
-0.0262317
-0.011
0.00717496
0.0270468
0.0474172
0.0672827
0.085819
0.102339
0.118032
-0.0866841
-0.0860249
-0.0827039
-0.075
-0.0626885
-0.0463445
-0.0269886
-0.00583166
0.015932
0.0372816
0.0573634
0.0754442
0.0926505
0.109534
-0.127741
-0.124951
-0.120283
-0.111478
-0.0981356
-0.080775
-0.0603499
-0.0380265
-0.0149876
0.00773421
0.029261
0.0488249
0.067465
0.0856725
-0.167444
-0.162569
-0.156588
-0.146735
-0.13244
-0.114159
-0.0927805
-0.0694138
-0.0452228
-0.021245
0.00162337
0.0225865
0.0425814
0.0620482
-0.205659
-0.198744
-0.19149
-0.180645
-0.165473
-0.146379
-0.124161
-0.0998761
-0.0746598
-0.0495467
-0.0254449
-0.00317216
0.0180975
0.038764
-0.242255
-0.233357
-0.224875
-0.213095
-0.197126
-0.177317
-0.154377
-0.129304
-0.103192
-0.0770684
-0.0518465
-0.0283614
-0.0059018
0.0159082
-0.277119
-0.266302
-0.25664
-0.243984
-0.227298
-0.206871
-0.183329
-0.157594
-0.130721
-0.103715
-0.0774916
-0.0528988
-0.0293421
-0.00644403
-0.310149
-0.297487
-0.286697
-0.273224
-0.255899
-0.234953
-0.210923
-0.184657
-0.157155
-0.1294
-0.102298
-0.0767099
-0.0521602
-0.02822
-0.341258
-0.326834
-0.314971
-0.300741
-0.282853
-0.261484
-0.23708
-0.210409
-0.182413
-0.154043
-0.126192
-0.0997268
-0.0742971
-0.0493192
-0.370374
-0.354279
-0.341401
-0.326476
-0.308099
-0.286398
-0.26173
-0.234779
-0.206424
-0.177574
-0.149105
-0.121884
-0.0956564
-0.0696689
-0.397441
-0.379774
-0.365944
-0.350381
-0.331588
-0.309644
-0.284818
-0.257708
-0.229125
-0.199932
-0.17098
-0.143121
-0.116229
-0.0898556
-0.422418
-0.403285
-0.388566
-0.372428
-0.353288
-0.331182
-0.306299
-0.279147
-0.250464
-0.221063
-0.191762
-0.163395
-0.13593
-0.109104
-0.44528
-0.424792
-0.409253
-0.392598
-0.373177
-0.350989
-0.326141
-0.299058
-0.270399
-0.240922
-0.211407
-0.182661
-0.154731
-0.127446
-0.466016
-0.444292
-0.428002
-0.410888
-0.391249
-0.369051
-0.344327
-0.317416
-0.2889
-0.259474
-0.229876
-0.200882
-0.172614
-0.144959
-0.484631
-0.461793
-0.444824
-0.42731
-0.407512
-0.385371
-0.36085
-0.334207
-0.305946
-0.276695
-0.247142
-0.21803
-0.189551
-0.16164
-0.501144
-0.477318
-0.459743
-0.441887
-0.421985
-0.399961
-0.375716
-0.34943
-0.321527
-0.292568
-0.263187
-0.234083
-0.205516
-0.177464
-0.515587
-0.490902
-0.472797
-0.454655
-0.434701
-0.412849
-0.388944
-0.363093
-0.335643
-0.307086
-0.277996
-0.249025
-0.22049
-0.192413
-0.528007
-0.502593
-0.484033
-0.46566
-0.445704
-0.424072
-0.400562
-0.375216
-0.348307
-0.320252
-0.291567
-0.262847
-0.234462
-0.20648
-0.538459
-0.512448
-0.493509
-0.474961
-0.455048
-0.433678
-0.410612
-0.385832
-0.359537
-0.332078
-0.303904
-0.27555
-0.247427
-0.219662
-0.547012
-0.520535
-0.501294
-0.482624
-0.462795
-0.441725
-0.419144
-0.394979
-0.369366
-0.342584
-0.315018
-0.287137
-0.259387
-0.23196
-0.553742
-0.526929
-0.507461
-0.488721
-0.469018
-0.448279
-0.426215
-0.402708
-0.377831
-0.3518
-0.324931
-0.297623
-0.270351
-0.243385
-0.558738
-0.531716
-0.512097
-0.493338
-0.473796
-0.453416
-0.431895
-0.409077
-0.384983
-0.359763
-0.33367
-0.307027
-0.280332
-0.25395
-0.562093
-0.534984
-0.515287
-0.49656
-0.477214
-0.457216
-0.436257
-0.414152
-0.390875
-0.366518
-0.34127
-0.315377
-0.289352
-0.263678
-0.563904
-0.536827
-0.517125
-0.498478
-0.479361
-0.459764
-0.439381
-0.418005
-0.39557
-0.372117
-0.347773
-0.322706
-0.297439
-0.272595
-0.564274
-0.537344
-0.517706
-0.499187
-0.480329
-0.46115
-0.441351
-0.420713
-0.399137
-0.376619
-0.353228
-0.329053
-0.304625
-0.280735
-0.563311
-0.536633
-0.517127
-0.498783
-0.480213
-0.461466
-0.442256
-0.422357
-0.401648
-0.380085
-0.357687
-0.334463
-0.31095
-0.288137
-0.56112
-0.534797
-0.515488
-0.497363
-0.479109
-0.460805
-0.442184
-0.423022
-0.403181
-0.382585
-0.36121
-0.338985
-0.316455
-0.294845
-0.557812
-0.531936
-0.512885
-0.495023
-0.477111
-0.459261
-0.441227
-0.422794
-0.403813
-0.384188
-0.363856
-0.342673
-0.321189
-0.300905
-0.553492
-0.52815
-0.509416
-0.491858
-0.474315
-0.456927
-0.439476
-0.421759
-0.403626
-0.384966
-0.365689
-0.34558
-0.548267
-0.523537
-0.505176
-0.487961
-0.470811
-0.453894
-0.43702
-0.420003
-0.402699
-0.384993
-0.542238
-0.518191
-0.500254
-0.483421
-0.466689
-0.450251
-0.433946
-0.41761
-0.535504
-0.512205
-0.494738
-0.478325
-0.462034
-0.446081
-0.430337
-0.528158
-0.505662
-0.488711
-0.472753
-0.456925
-0.520288
-0.498646
-0.482252
-0.511974
-0.491232
-0.503294
-0.219561
-0.228956
-0.237542
-0.245335
-0.252356
-0.258637
-0.264214
-0.269132
-0.20005
-0.209347
-0.217987
-0.225985
-0.233367
-0.240162
-0.246407
-0.252144
-0.181768
-0.190929
-0.199571
-0.207708
-0.215358
-0.222545
-0.229294
-0.235636
-0.164557
-0.173437
-0.1819
-0.189958
-0.197625
-0.204917
-0.211854
-0.218458
-0.148451
-0.157004
-0.165224
-0.173122
-0.180709
-0.187998
-0.195006
-0.201751
-0.133437
-0.141635
-0.149571
-0.157252
-0.164688
-0.171891
-0.178874
-0.185651
-0.119458
-0.127281
-0.134895
-0.142309
-0.149531
-0.15657
-0.163436
-0.170144
-0.106448
-0.113884
-0.121154
-0.128266
-0.135226
-0.142042
-0.148724
-0.155283
-0.0943426
-0.101386
-0.108298
-0.115084
-0.121751
-0.128305
-0.134752
-0.141103
-0.0830703
-0.0897236
-0.0962722
-0.10272
-0.109073
-0.115335
-0.121514
-0.127615
-0.0725737
-0.0788417
-0.0850258
-0.091129
-0.0971553
-0.103109
-0.108994
-0.114817
-0.0627911
-0.0686836
-0.0745077
-0.0802661
-0.0859616
-0.0915973
-0.0971769
-0.102704
-0.0536742
-0.0592023
-0.0646744
-0.0700923
-0.0754579
-0.0807734
-0.0860416
-0.0912653
-0.0451758
-0.0503537
-0.055485
-0.0605707
-0.0656122
-0.0706109
-0.0755687
-0.0804874
-0.0372582
-0.0421012
-0.0469047
-0.0516695
-0.0563961
-0.0610856
-0.0657388
-0.0703569
-0.0298849
-0.0344098
-0.038901
-0.0433586
-0.0477828
-0.0521739
-0.0565324
-0.0608589
-0.023025
-0.0272499
-0.0314454
-0.0356113
-0.0397475
-0.0438539
-0.0479304
-0.0519772
-0.0166504
-0.0205938
-0.0245114
-0.0284025
-0.0322667
-0.0361036
-0.039913
-0.0436944
-0.0107368
-0.0144177
-0.0180753
-0.0217091
-0.0253182
-0.0289022
-0.0324604
-0.0359922
-0.00526137
-0.00869848
-0.0121146
-0.0155088
-0.0188804
-0.0222284
-0.0255522
-0.0288511
-0.000204585
-0.00341642
-0.00660906
-0.00978152
-0.0129329
-0.0160622
-0.0191686
-0.0222513
0.00445299
0.0014482
-0.00153887
-0.00450716
-0.00745564
-0.0103833
-0.0132893
-0.0161726
0.00872755
0.00591222
0.0031134
0.000332187
-0.00243034
-0.00517315
-0.00789524
-0.0105957
0.012634
0.00999117
0.00736385
0.00475316
0.00216019
-0.000413987
-0.00296836
-0.00550194
0.0161855
0.0136988
0.0112269
0.00877069
0.00633142
0.00391012
0.00150782
-0.000874481
0.0193925
0.0170464
0.0147143
0.0123972
0.0100964
0.00781278
0.00554746
0.0033014
0.0222638
0.0200432
0.0178359
0.0156432
0.013466
0.0113054
0.00916241
0.00703801
0.0248044
0.0226948
0.020598
0.0185152
0.0164474
0.0143957
0.0123609
0.010344
0.0270178
0.025005
0.0230046
0.0210178
0.0190454
0.0170885
0.0151479
0.0132247
0.0289008
0.0269711
0.0250535
0.023149
0.0212585
0.019383
0.0175232
0.0156802
0.0138546
0.030451
0.0285903
0.0267414
0.0249052
0.0230825
0.0212742
0.0194812
0.0177042
0.0159441
0.0316497
0.0298452
0.0280522
0.0262715
0.0245039
0.0227502
0.0210111
0.0192875
0.0175799
0.0324891
0.030724
0.0289701
0.0272282
0.025499
0.0237832
0.0220815
0.0203947
0.0187233
0.0329239
0.0311894
0.0294657
0.0277535
0.0260534
0.0243659
0.0226917
0.0210314
0.0193854
0.0786466
0.0569188
0.0355959
0.0147254
-0.00564744
-0.025491
-0.0448252
-0.063695
-0.0812942
-0.0986067
-0.115156
-0.130944
-0.145994
-0.160276
-0.173764
-0.186443
-0.198306
-0.209345
0.0768516
0.0568133
0.0372
0.0180346
-0.000648524
-0.0188169
-0.036439
-0.053407
-0.0693144
-0.0858747
-0.101354
-0.116013
-0.130027
-0.143392
-0.156086
-0.168101
-0.179432
-0.19008
0.0716488
0.053625
0.0360004
0.0187739
0.00196367
-0.0144134
-0.0303521
-0.045947
-0.061393
-0.0752808
-0.0891543
-0.102614
-0.115532
-0.127918
-0.13977
-0.151082
-0.161851
-0.172078
0.0678316
0.0515397
0.0356159
0.0200503
0.00485438
-0.00995991
-0.024378
-0.0383958
-0.0520288
-0.0650609
-0.0778824
-0.0902773
-0.102206
-0.11369
-0.124738
-0.135347
-0.145518
-0.155253
0.0648628
0.0501395
0.0357467
0.0216709
0.00791873
-0.00550187
-0.0185838
-0.0313186
-0.0436922
-0.0556545
-0.0674433
-0.0788396
-0.0898491
-0.100498
-0.110793
-0.120734
-0.130321
-0.139559
0.0624492
0.0491475
0.0361369
0.023402
0.0109451
-0.00123023
-0.0131222
-0.0247317
-0.036076
-0.047184
-0.0578118
-0.0682535
-0.0784275
-0.0883068
-0.0978972
-0.107203
-0.116226
-0.124969
0.060571
0.0485493
0.0367787
0.0252443
0.0139459
0.00288561
-0.0079361
-0.0185192
-0.0288672
-0.0389821
-0.0488092
-0.058477
-0.0678871
-0.0770491
-0.0859815
-0.094687
-0.103166
-0.111422
0.0591451
0.0482733
0.0376145
0.0271551
0.0168943
0.00683336
-0.00302709
-0.0126869
-0.0221442
-0.0313695
-0.0402851
-0.0493797
-0.0581373
-0.0666434
-0.0749635
-0.0831041
-0.0910633
-0.0988433
0.0580969
0.0482549
0.0385904
0.0290913
0.0197556
0.010583
0.00157162
-0.00728067
-0.0159795
-0.02456
-0.0330812
-0.0411044
-0.0491181
-0.0570274
-0.0647829
-0.0723873
-0.0798468
-0.0871642
0.0573642
0.0484441
0.03967
0.0310317
0.0225274
0.0141567
0.00591874
-0.00218737
-0.0101611
-0.0180051
-0.0257274
-0.0332823
-0.0407504
-0.0481085
-0.0553394
-0.0624462
-0.0694347
-0.0763085
0.0568937
0.0487984
0.0408217
0.0329551
0.0251969
0.0175469
0.0100042
0.00256784
-0.00476318
-0.0119899
-0.0191129
-0.0261243
-0.0330539
-0.0398812
-0.0466074
-0.0532374
-0.0597738
-0.0662185
0.0566406
0.0492834
0.0420213
0.034847
0.0277594
0.0207584
0.0138435
0.00701394
0.000268972
-0.00639198
-0.0129646
-0.0194365
-0.0258882
-0.0322382
-0.0384991
-0.0446832
-0.0507927
-0.0568281
0.0633451
0.0565674
0.0498707
0.0432489
0.0366961
0.0302113
0.0237945
0.0174454
0.011163
0.00494683
-0.00120431
-0.00729574
-0.0133343
-0.0192603
-0.0251442
-0.0309731
-0.0367394
-0.042444
-0.0480885
0.0628116
0.0566434
0.0505384
0.0444912
0.0384971
0.0325557
0.0266672
0.0208314
0.0150481
0.0093171
0.00363837
-0.00198953
-0.00756897
-0.0130814
-0.0185532
-0.0239785
-0.0293526
-0.0346761
-0.0399502
0.0624663
0.0568432
0.0512684
0.0457372
0.040246
0.0347946
0.0293836
0.0240131
0.0186831
0.0133937
0.00814504
0.00293695
-0.00223074
-0.00735317
-0.0124388
-0.0174845
-0.022489
-0.0274525
-0.0323755
0.0622809
0.0571456
0.0520461
0.0469785
0.0419401
0.0369311
0.0319521
0.0270036
0.0220858
0.0171992
0.012344
0.00752056
0.00272933
-0.00202718
-0.00675428
-0.0114478
-0.0161075
-0.0207336
-0.0253261
0.0622313
0.0575325
0.0528592
0.0482083
0.0435778
0.0389681
0.0343801
0.0298145
0.0252718
0.0207526
0.0162574
0.0117869
0.00734228
0.00292604
-0.00147141
-0.00583894
-0.0101775
-0.0144883
-0.018771
0.0622963
0.0579881
0.053697
0.0494206
0.0451575
0.0409084
0.0366742
0.0324559
0.0282542
0.0240699
0.0199037
0.0157566
0.0116296
0.00752484
0.00343581
-0.000629193
-0.00467028
-0.00868789
-0.0126815
0.0624573
0.0584983
0.0545498
0.0506098
0.0466774
0.0427534
0.0388391
0.0349354
0.0310431
0.0271633
0.0232968
0.0194445
0.0156063
0.0117816
0.00798621
0.0042035
0.000437392
-0.00330866
-0.00703359
0.0626975
0.0590506
0.055409
0.051771
0.0481362
0.0445056
0.0408805
0.0372619
0.033651
0.0300487
0.0264562
0.0228745
0.0193047
0.0157475
0.0122065
0.00867905
0.005167
0.00167225
-0.00180415
0.0630015
0.0596332
0.0562661
0.0528988
0.0495314
0.0461648
0.0428005
0.0394395
0.0360831
0.0327324
0.0293886
0.0260528
0.0227261
0.0194098
0.0161058
0.012814
0.00953579
0.00627256
0.00302542
0.063355
0.0602349
0.0571128
0.0539878
0.0508601
0.0477307
0.0446012
0.0414726
0.0383463
0.0352234
0.0321051
0.0289927
0.0258875
0.0227906
0.0197037
0.0166272
0.0135627
0.0105114
0.00747442
0.0637444
0.060845
0.0579412
0.0550324
0.052119
0.0492022
0.0462834
0.0433638
0.0404448
0.0375274
0.0346131
0.031703
0.0287984
0.0259007
0.0230113
0.0201309
0.0172611
0.0144032
0.0115583
0.0641572
0.0614531
0.058743
0.0560266
0.0533042
0.0505773
0.047847
0.0451148
0.0423818
0.0396492
0.0369185
0.0341909
0.0314676
0.02875
0.0260396
0.0233368
0.0206437
0.0179615
0.0152912
0.0645811
0.0620495
0.0595106
0.0569645
0.0544117
0.0518536
0.0492913
0.0467262
0.0441595
0.0415926
0.0390265
0.0364628
0.0339025
0.0313473
0.0287987
0.0262553
0.0237215
0.021198
0.0186856
0.0650045
0.062624
0.0602356
0.0578395
0.0554364
0.0530274
0.0506139
0.048197
0.0457781
0.0433583
0.040939
0.0385213
0.0361066
0.033696
0.0312906
0.0288931
0.026503
0.024122
0.0217514
0.0654164
0.0631674
0.0609103
0.0586453
0.0563732
0.0540952
0.0518125
0.0495263
0.0472377
0.0449481
0.0426587
0.0403706
0.0380852
0.0358034
0.0335264
0.0312572
0.0289948
0.0267408
0.0244967
0.0658056
0.0636698
0.0615259
0.0593742
0.0572157
0.0550515
0.0528826
0.0507103
0.0485357
0.0463601
0.0441845
0.0420102
0.0398383
0.0376701
0.0355067
0.0333497
0.0311997
0.029058
0.0269258
0.0661625
0.0641226
0.0620748
0.0600198
0.0579583
0.0558914
0.0538203
0.051746
0.0496696
0.0475923
0.0455151
0.0434393
0.041366
0.0392963
0.0372314
0.0351724
0.0331205
0.0310766
0.0290421
0.0664741
0.0645134
0.0625453
0.0605706
0.0585901
0.0566048
0.0546158
0.052624
0.0506306
0.0486365
0.046643
0.044651
0.0426617
0.0406761
0.0386952
0.0367204
0.0347524
0.0327925
0.0308416
0.0667352
0.0648377
0.0629336
0.0610236
0.0591086
0.0571896
0.0552674
0.0533431
0.0514177
0.0494921
0.0475674
0.0456446
0.0437247
0.0418087
0.0398976
0.0379924
0.0360942
0.0342039
0.0323225
0.0669224
0.0650711
0.0632143
0.0613528
0.0594872
0.0576187
0.0557479
0.0538759
0.0520035
0.0501317
0.0482614
0.0463935
0.044529
0.0426688
0.0408139
0.0389651
0.0371234
0.0352897
0.0334648
0.067052
0.0652318
0.0634072
0.061579
0.0597478
0.0579144
0.0560797
0.0542445
0.0524096
0.0505758
0.048744
0.0469151
0.04509
0.0432693
0.0414542
0.0396453
0.0378435
0.0360496
0.0342646
0.0670485
0.0652375
0.0634241
0.061609
0.0597929
0.0579765
0.0561606
0.0543459
0.0525331
0.050723
0.0489163
0.0471136
0.0453157
0.0435234
0.0417373
0.0399581
0.0381865
0.0364231
0.0346687
0.0670486
0.0652376
0.0634241
0.061609
0.0597929
0.0579766
0.0561607
0.054346
0.0525332
0.0507231
0.0489163
0.0471137
0.0453158
0.0435235
0.0417373
0.0399581
0.0381865
0.0364232
0.0346688
0.067052
0.0652319
0.0634073
0.061579
0.0597478
0.0579145
0.0560798
0.0542445
0.0524096
0.0505759
0.0487441
0.0469152
0.04509
0.0432694
0.0414542
0.0396453
0.0378435
0.0360497
0.0342646
0.0669224
0.0650712
0.0632144
0.0613528
0.0594873
0.0576187
0.055748
0.0538759
0.0520035
0.0501317
0.0482614
0.0463936
0.0445291
0.0426689
0.0408139
0.0389652
0.0371235
0.0352897
0.0334649
0.0667353
0.0648378
0.0629336
0.0610237
0.0591087
0.0571896
0.0552675
0.0533432
0.0514178
0.0494922
0.0475675
0.0456447
0.0437248
0.0418087
0.0398976
0.0379925
0.0360943
0.034204
0.0323226
0.0664741
0.0645134
0.0625454
0.0605707
0.0585902
0.0566049
0.0546158
0.0526241
0.0506306
0.0486366
0.0466431
0.0446511
0.0426617
0.0406761
0.0386953
0.0367204
0.0347525
0.0327926
0.0308417
0.0661625
0.0641226
0.0620749
0.0600199
0.0579584
0.0558915
0.0538203
0.051746
0.0496696
0.0475923
0.0455152
0.0434394
0.0413661
0.0392964
0.0372314
0.0351725
0.0331206
0.0310767
0.0290421
0.0658056
0.0636699
0.0615259
0.0593743
0.0572158
0.0550515
0.0528827
0.0507104
0.0485358
0.0463601
0.0441845
0.0420102
0.0398384
0.0376702
0.0355068
0.0333498
0.0311998
0.0290581
0.0269259
0.0654165
0.0631675
0.0609104
0.0586454
0.0563733
0.0540953
0.0518125
0.0495263
0.0472378
0.0449482
0.0426588
0.0403707
0.0380852
0.0358035
0.0335265
0.0312573
0.0289949
0.0267409
0.0244968
0.0650045
0.0626241
0.0602357
0.0578396
0.0554364
0.0530275
0.0506139
0.0481971
0.0457782
0.0433584
0.040939
0.0385214
0.0361067
0.033696
0.0312907
0.0288931
0.0265031
0.0241221
0.0217515
0.0645812
0.0620495
0.0595107
0.0569646
0.0544118
0.0518536
0.0492914
0.0467263
0.0441596
0.0415926
0.0390266
0.0364628
0.0339026
0.0313474
0.0287988
0.0262554
0.0237216
0.0211981
0.0186857
0.0641572
0.0614532
0.0587431
0.0560267
0.0533043
0.0505773
0.0478471
0.0451148
0.0423818
0.0396493
0.0369186
0.0341909
0.0314677
0.0287501
0.0260396
0.0233368
0.0206438
0.0179615
0.0152912
0.0637445
0.0608451
0.0579412
0.0550324
0.052119
0.0492023
0.0462835
0.0433639
0.0404448
0.0375275
0.0346131
0.0317031
0.0287985
0.0259008
0.0230114
0.020131
0.0172612
0.0144032
0.0115583
0.063355
0.060235
0.0571129
0.0539879
0.0508601
0.0477308
0.0446012
0.0414727
0.0383463
0.0352234
0.0321052
0.0289928
0.0258876
0.0227907
0.0197038
0.0166273
0.0135627
0.0105114
0.00747449
0.0630016
0.0596333
0.0562661
0.0528989
0.0495314
0.0461649
0.0428005
0.0394396
0.0360832
0.0327325
0.0293886
0.0260528
0.0227262
0.0194099
0.0161059
0.0128141
0.00953586
0.00627263
0.00302549
0.0626976
0.0590507
0.0554091
0.0517711
0.0481363
0.0445057
0.0408806
0.037262
0.033651
0.0300488
0.0264562
0.0228746
0.0193048
0.0157475
0.0122066
0.00867911
0.00516707
0.00167232
-0.00180409
0.0624574
0.0584983
0.0545499
0.0506099
0.0466775
0.0427535
0.0388392
0.0349355
0.0310432
0.0271634
0.0232968
0.0194446
0.0156064
0.0117817
0.00798628
0.00420357
0.000437459
-0.00330859
-0.00703353
0.0622964
0.0579881
0.0536971
0.0494207
0.0451576
0.0409084
0.0366743
0.032456
0.0282543
0.0240699
0.0199038
0.0157566
0.0116297
0.0075249
0.00343587
-0.000629126
-0.00467022
-0.00868782
-0.0126814
0.0622314
0.0575325
0.0528593
0.0482084
0.0435779
0.0389682
0.0343802
0.0298146
0.0252718
0.0207526
0.0162575
0.011787
0.00734235
0.0029261
-0.00147134
-0.00583887
-0.0101775
-0.0144882
-0.0187709
0.062281
0.0571457
0.0520462
0.0469786
0.0419402
0.0369311
0.0319522
0.0270036
0.0220859
0.0171993
0.0123441
0.00752063
0.00272939
-0.00202711
-0.00675421
-0.0114477
-0.0161074
-0.0207335
-0.025326
0.0624664
0.0568433
0.0512684
0.0457373
0.0402461
0.0347947
0.0293837
0.0240132
0.0186832
0.0133938
0.00814511
0.00293702
-0.00223068
-0.0073531
-0.0124387
-0.0174845
-0.022489
-0.0274524
-0.0323754
0.0628117
0.0566434
0.0505384
0.0444912
0.0384972
0.0325558
0.0266673
0.0208315
0.0150482
0.00931716
0.00363843
-0.00198947
-0.00756891
-0.0130813
-0.0185532
-0.0239785
-0.0293526
-0.034676
-0.0399501
0.0633452
0.0565674
0.0498708
0.043249
0.0366961
0.0302113
0.0237946
0.0174454
0.0111631
0.0049469
-0.00120425
-0.00729567
-0.0133342
-0.0192602
-0.0251441
-0.030973
-0.0367394
-0.0424439
-0.0480884
0.0641002
0.0566407
0.0492835
0.0420213
0.0348471
0.0277595
0.0207585
0.0138436
0.007014
0.000269032
-0.00639192
-0.0129645
-0.0194364
-0.0258882
-0.0322381
-0.0384991
-0.0446831
-0.0507926
-0.0568281
0.0651162
0.0568938
0.0487984
0.0408218
0.0329552
0.0251969
0.0175469
0.0100043
0.0025679
-0.00476312
-0.0119898
-0.0191128
-0.0261243
-0.0330539
-0.0398812
-0.0466074
-0.0532373
-0.0597738
-0.0662185
0.0664402
0.0573643
0.0484441
0.03967
0.0310318
0.0225274
0.0141568
0.0059188
-0.00218732
-0.010161
-0.018005
-0.0257273
-0.0332822
-0.0407504
-0.0481085
-0.0553394
-0.0624461
-0.0694347
-0.0763084
0.0681274
0.0580969
0.0482549
0.0385904
0.0290913
0.0197557
0.0105831
0.00157168
-0.00728061
-0.0159794
-0.02456
-0.0330812
-0.0411043
-0.0491181
-0.0570274
-0.0647829
-0.0723873
-0.0798467
-0.0871642
0.0702424
0.0591451
0.0482734
0.0376145
0.0271552
0.0168943
0.00683341
-0.00302704
-0.0126868
-0.0221441
-0.0313695
-0.0402851
-0.0493796
-0.0581372
-0.0666433
-0.0749634
-0.0831041
-0.0910632
-0.0988433
0.0728589
0.060571
0.0485493
0.0367787
0.0252443
0.013946
0.00288566
-0.00793605
-0.0185192
-0.0288672
-0.0389821
-0.0488091
-0.058477
-0.067887
-0.0770491
-0.0859815
-0.094687
-0.103166
-0.111422
0.0624493
0.0491476
0.0361369
0.0234021
0.0109451
-0.00123018
-0.0131222
-0.0247316
-0.036076
-0.0471839
-0.0578118
-0.0682535
-0.0784275
-0.0883068
-0.0978972
-0.107203
-0.116225
-0.124969
0.0648628
0.0501395
0.0357467
0.0216709
0.00791878
-0.00550182
-0.0185838
-0.0313185
-0.0436922
-0.0556544
-0.0674432
-0.0788395
-0.0898491
-0.100498
-0.110793
-0.120734
-0.130321
-0.139559
0.0678317
0.0515397
0.0356159
0.0200504
0.00485443
-0.00995986
-0.024378
-0.0383958
-0.0520288
-0.0650608
-0.0778823
-0.0902773
-0.102206
-0.11369
-0.124738
-0.135347
-0.145518
-0.155253
0.0716489
0.053625
0.0360004
0.018774
0.00196372
-0.0144133
-0.030352
-0.045947
-0.061393
-0.0752807
-0.0891543
-0.102614
-0.115532
-0.127918
-0.13977
-0.151082
-0.161851
-0.172078
0.0768517
0.0568133
0.0372
0.0180347
-0.000648479
-0.0188168
-0.036439
-0.0534069
-0.0693143
-0.0858746
-0.101354
-0.116013
-0.130027
-0.143392
-0.156086
-0.168101
-0.179432
-0.19008
0.0786466
0.0569188
0.0355959
0.0147254
-0.0056474
-0.025491
-0.0448252
-0.0636949
-0.0812941
-0.0986066
-0.115156
-0.130944
-0.145994
-0.160276
-0.173764
-0.186443
-0.198306
-0.209345
0.032924
0.0311894
0.0294657
0.0277535
0.0260534
0.024366
0.0226918
0.0210314
0.0324892
0.0307241
0.0289702
0.0272283
0.025499
0.0237832
0.0220816
0.0203947
0.0316498
0.0298453
0.0280523
0.0262716
0.024504
0.0227502
0.0210112
0.0192875
0.0304511
0.0285904
0.0267415
0.0249052
0.0230825
0.0212743
0.0194812
0.0177043
0.0289009
0.0269712
0.0250536
0.0231491
0.0212586
0.019383
0.0175233
0.0156802
0.0270179
0.0250051
0.0230047
0.0210178
0.0190454
0.0170885
0.015148
0.0132248
0.0248045
0.0226948
0.0205981
0.0185153
0.0164475
0.0143957
0.0123609
0.0103441
0.0222639
0.0200432
0.017836
0.0156432
0.0134661
0.0113055
0.00916248
0.00703808
0.0193926
0.0170465
0.0147143
0.0123973
0.0100964
0.00781285
0.00554753
0.00330147
0.0161856
0.0136989
0.0112269
0.00877076
0.00633149
0.00391019
0.00150789
-0.000874414
0.0126341
0.00999124
0.00736392
0.00475323
0.00216026
-0.000413919
-0.00296829
-0.00550187
0.00872762
0.00591229
0.00311346
0.000332256
-0.00243027
-0.00517308
-0.00789517
-0.0105956
0.00445306
0.00144827
-0.0015388
-0.00450709
-0.00745558
-0.0103833
-0.0132892
-0.0161725
-0.000204517
-0.00341635
-0.00660899
-0.00978145
-0.0129328
-0.0160621
-0.0191685
-0.0222512
-0.0052613
-0.00869842
-0.0121145
-0.0155088
-0.0188803
-0.0222284
-0.0255522
-0.0288511
-0.0107368
-0.0144176
-0.0180753
-0.021709
-0.0253182
-0.0289021
-0.0324603
-0.0359922
-0.0166503
-0.0205938
-0.0245113
-0.0284024
-0.0322666
-0.0361036
-0.0399129
-0.0436944
-0.0230249
-0.0272498
-0.0314453
-0.0356112
-0.0397474
-0.0438538
-0.0479303
-0.0519771
-0.0298848
-0.0344097
-0.0389009
-0.0433585
-0.0477827
-0.0521739
-0.0565324
-0.0608588
-0.0372582
-0.0421011
-0.0469047
-0.0516694
-0.0563961
-0.0610855
-0.0657387