/*--------------------------------*- C++ -*----------------------------------*\
  =========                 |
  \\      /  F ield         | OpenFOAM: The Open Source CFD Toolbox
   \\    /   O peration     | Website:  https://openfoam.org
    \\  /    A nd           | Version:  7
     \\/     M anipulation  |
\*---------------------------------------------------------------------------*/
FoamFile
{
    version     2.0;
    format      ascii;
    class       volVectorField;
    location    "25";
    object      U;
}
// * * * * * * * * * * * * * * * * * * * * * * * * * * * * * * * * * * * * * //

dimensions      [0 1 -1 0 0 0 0];

internalField   nonuniform List<vector> 
3025
(
(0.0162311 -0.00773436 -1.29266e-19)
(0.0189827 -0.00841281 5.59555e-20)
(0.0632895 -0.0233228 -8.48014e-20)
(0.0219208 -0.00897945 -1.09119e-20)
(0.071717 -0.0244496 1.01145e-19)
(0.129861 -0.0342324 5.53483e-21)
(0.194941 -0.0398493 -1.92164e-19)
(0.0250389 -0.00941722 -3.06691e-20)
(0.0805917 -0.025198 -1.6754e-19)
(0.14416 -0.0346358 -2.60371e-19)
(0.214319 -0.0394316 -2.83224e-20)
(0.290149 -0.0400472 7.49766e-21)
(0.0283284 -0.00970939 1.98854e-20)
(0.089884 -0.0255251 4.04518e-20)
(0.159027 -0.0343614 1.00097e-19)
(0.234327 -0.0381014 3.70551e-19)
(0.314818 -0.0373153 -2.03039e-19)
(0.399479 -0.0324506 -5.62715e-20)
(0.487138 -0.0240733 -4.23002e-20)
(0.031779 -0.00983965 4.12293e-20)
(0.0995586 -0.0253903 -1.34285e-19)
(0.174399 -0.0333527 5.04289e-21)
(0.254874 -0.0357949 -2.28374e-19)
(0.339973 -0.0333996 -4.05299e-20)
(0.428607 -0.0267184 1.30154e-19)
(0.519525 -0.016423 5.57613e-20)
(0.611354 -0.00321691 -1.02517e-20)
(0.0353779 -0.00979234 -4.01394e-20)
(0.109575 -0.0247552 1.50171e-19)
(0.190205 -0.0315589 -1.20037e-19)
(0.275857 -0.0324564 1.29916e-19)
(0.365478 -0.0282482 1.87196e-19)
(0.457917 -0.0195943 1.52323e-19)
(0.551849 -0.00727664 -1.26607e-19)
(0.645823 0.00789659 1.84991e-19)
(0.738279 0.0250863 -4.10514e-20)
(0.827594 0.0434205 1.74763e-20)
(0.0391103 -0.00955257 -2.11786e-20)
(0.119886 -0.0235849 -6.16335e-22)
(0.206366 -0.0289345 9.56353e-20)
(0.297163 -0.0280394 -4.05169e-20)
(0.39119 -0.0218211 -7.44124e-20)
(0.487237 -0.0110527 -4.55653e-20)
(0.583913 0.00337046 7.41755e-20)
(0.679702 0.0205336 -2.24925e-20)
(0.772995 0.0395018 2.1699e-19)
(0.862142 0.059325 6.27788e-20)
(0.94552 0.0790668 4.40429e-20)
(1.02162 0.0979214 -1.42559e-19)
(0.0429589 -0.00910649 4.671e-20)
(0.13044 -0.0218477 -7.69881e-20)
(0.222795 -0.0254411 6.0056e-20)
(0.318673 -0.0225069 -3.53545e-20)
(0.416957 -0.0140912 6.36059e-20)
(0.516386 -0.00108363 -1.08517e-19)
(0.615515 0.0155053 1.14992e-19)
(0.712778 0.0346535 1.016e-19)
(0.806533 0.0553329 -2.38008e-19)
(0.895134 0.0765201 3.80711e-20)
(0.977 0.0972333 1.7278e-19)
(1.05071 0.116642 6.28809e-20)
(1.11506 0.133891 1.49777e-19)
(1.16876 0.147173 1.00404e-19)
(0.0469041 -0.0084415 -3.30634e-20)
(0.14118 -0.0195164 1.29197e-19)
(0.239398 -0.0210472 3.41036e-20)
(0.340258 -0.0158325 -1.00978e-20)
(0.442619 -0.00504485 -3.55675e-20)
(0.545179 0.0103075 -1.82592e-20)
(0.646452 0.0290978 -1.33426e-19)
(0.744837 0.0501988 -1.36185e-19)
(0.838685 0.0724932 1.53627e-20)
(0.926375 0.0948923 1.3571e-19)
(1.0064 0.116379 -1.72388e-19)
(1.07746 0.136111 -1.83369e-20)
(1.13851 0.153273 -1.8591e-20)
(1.18856 0.166359 -5.91113e-20)
(0.0509244 -0.00754651 -4.75862e-20)
(0.152042 -0.0165682 -7.89479e-20)
(0.256075 -0.0157296 -1.33252e-19)
(0.361782 -0.00800087 -1.73808e-20)
(0.468011 0.00531805 1.05634e-19)
(0.573429 0.0230993 9.12807e-21)
(0.676521 0.0441015 4.86474e-20)
(0.775673 0.0670953 9.52171e-20)
(0.869251 0.0908817 -1.2132e-20)
(0.955687 0.114317 -1.23396e-19)
(1.03358 0.136362 2.71925e-20)
(1.10176 0.156178 8.77946e-20)
(1.1594 0.173004 6.22342e-20)
(1.20575 0.185626 -6.56272e-21)
(0.0549958 -0.00641218 -4.85951e-20)
(0.16296 -0.0129858 2.49656e-20)
(0.272719 -0.00947348 3.90988e-20)
(0.383107 0.000991828 9.5454e-21)
(0.492967 0.0169836 -4.15191e-20)
(0.600948 0.0372551 8.70924e-21)
(0.705524 0.0604536 -1.28947e-20)
(0.805089 0.0852542 -1.31441e-19)
(0.898047 0.110385 1.08812e-19)
(0.982912 0.134661 5.32454e-20)
(1.0584 0.157036 3.89965e-20)
(1.12354 0.17669 -6.10907e-20)
(1.17767 0.192937 1.27454e-20)
(1.22035 0.204845 -3.20677e-20)
(0.0590925 -0.00503123 3.46325e-20)
(0.173862 -0.00875759 2.1452e-20)
(0.289219 -0.00227324 -1.09158e-19)
(0.404086 0.0111373 5.68802e-20)
(0.517314 0.0299236 2.7454e-20)
(0.627548 0.052723 -8.56212e-21)
(0.733269 0.0780766 -6.53527e-20)
(0.832898 0.104573 1.30529e-19)
(0.924905 0.130879 -2.79761e-20)
(1.00791 0.155784 4.92758e-21)
(1.08079 0.178252 -7.14332e-20)
(1.14274 0.197501 4.91064e-20)
(1.19334 0.212935 4.88549e-21)
(1.2324 0.223896 -2.01419e-20)
(0.0631869 -0.00339862 -1.46124e-20)
(0.184673 -0.00387844 -4.93956e-20)
(0.305462 0.00586691 6.56283e-20)
(0.424575 0.022415 -2.52073e-20)
(0.540885 0.0440959 -2.06455e-20)
(0.653048 0.069436 -3.20467e-20)
(0.75957 0.0968784 3.72755e-20)
(0.858926 0.124936 -5.96833e-20)
(0.949672 0.152231 -1.60044e-20)
(1.03056 0.177541 -2.38936e-20)
(1.10064 0.199862 3.77472e-20)
(1.15933 0.218467 -4.39042e-20)
(1.20641 0.232868 6.32877e-20)
(1.24195 0.242674 -2.41405e-21)
(0.0672499 -0.0015118 -8.59509e-21)
(0.195315 0.00165019 3.68673e-20)
(0.321329 0.0149327 -2.82151e-20)
(0.444426 0.0347915 2.67378e-20)
(0.563512 0.059444 -2.03292e-20)
(0.67727 0.087313 2.04257e-20)
(0.784255 0.116754 -9.54318e-21)
(0.883015 0.146218 2.02011e-20)
(0.972218 0.174298 -2.56982e-20)
(1.05077 0.199784 1.37791e-20)
(1.11792 0.221718 3.5025e-20)
(1.1733 0.239451 9.49995e-21)
(1.21692 0.252615 -2.07717e-20)
(1.24908 0.261082 -2.41332e-20)
(0.0712512 0.000629082 6.6912e-21)
(0.205709 0.00781968 4.10693e-21)
(0.336703 0.0248993 -9.08334e-21)
(0.463493 0.0482209 7.23701e-22)
(0.585031 0.0758981 -1.36593e-21)
(0.700048 0.106259 -1.16168e-20)
(0.807162 0.137586 -4.28928e-21)
(0.905021 0.168283 9.11211e-21)
(0.992429 0.196935 1.69936e-20)
(1.06847 0.222362 -7.2195e-21)
(1.1326 0.243675 -6.91819e-21)
(1.18466 0.260319 -1.57435e-20)
(1.22492 0.272065 -4.44004e-21)
(1.25386 0.279034 1.02162e-20)
(0.07516 0.00302104 6.51871e-21)
(0.215773 0.0146141 7.99462e-21)
(0.351467 0.0357316 -1.43966e-20)
(0.481632 0.0626447 4.5699e-21)
(0.605286 0.0933746 -5.14726e-21)
(0.721221 0.126168 -1.39147e-20)
(0.828144 0.159247 2.14053e-21)
(0.92482 0.190989 1.00491e-20)
(1.01021 0.219992 6.83553e-21)
(1.0836 0.245125 2.56236e-22)
(1.14465 0.265592 -6.51693e-21)
(1.19345 0.280947 -1.48035e-20)
(1.23048 0.291113 -3.72834e-21)
(1.25641 0.296452 4.43087e-21)
(0.0789446 0.00565819 -4.18067e-21)
(0.225429 0.0220099 2.36005e-20)
(0.365504 0.0473836 -3.05656e-22)
(0.498706 0.0779921 8.87998e-21)
(0.624129 0.111778 -1.28893e-20)
(0.740645 0.146919 3.764e-20)
(0.847069 0.181599 -2.89572e-20)
(0.942307 0.214187 2.16104e-20)
(1.0255 0.243313 -1.46308e-20)
(1.09613 0.267924 1.72173e-20)
(1.15409 0.28733 2.31723e-20)
(1.19971 0.301215 6.56151e-21)
(1.23367 0.309662 -1.83583e-20)
(1.2568 0.313268 -2.21316e-20)
(0.082573 0.00853152 1.6288e-20)
(0.234594 0.0299762 -5.00904e-20)
(0.378701 0.059799 6.92596e-20)
(0.514581 0.0941805 -5.23998e-20)
(0.641419 0.131 -1.55008e-21)
(0.758186 0.168385 -3.99043e-20)
(0.863822 0.204496 4.42555e-20)
(0.957393 0.237722 -5.43546e-20)
(1.03823 0.266746 9.21778e-22)
(1.10604 0.290611 -3.39376e-20)
(1.16095 0.308759 1.68172e-20)
(1.2035 0.321012 -1.41102e-20)
(1.23458 0.327624 2.32978e-20)
(1.25515 0.329417 1.92023e-20)
(0.0860138 0.0116289 2.07306e-20)
(0.243192 0.0384742 -3.47378e-20)
(0.390949 0.0729114 -1.30754e-20)
(0.529133 0.111116 2.2797e-20)
(0.65703 0.150922 5.78963e-20)
(0.773725 0.190425 -5.05274e-20)
(0.878306 0.227788 -2.53758e-20)
(0.970012 0.261436 5.96815e-20)
(1.04838 0.290135 -3.05674e-20)
(1.11335 0.313043 -7.7591e-21)
(1.16526 0.32975 -7.85439e-21)
(1.20489 0.340231 2.57686e-20)
(1.2333 0.344916 1.1361e-20)
(1.25157 0.344843 -1.93244e-20)
(0.0892361 0.0149353 3.31455e-20)
(0.251147 0.0474581 2.25235e-20)
(0.402147 0.0866445 2.41728e-20)
(0.542245 0.128694 -1.76404e-20)
(0.670845 0.171416 -2.13727e-20)
(0.787161 0.212895 3.25124e-20)
(0.890441 0.251317 -4.32727e-20)
(0.980114 0.285172 -8.60825e-20)
(1.05594 0.313327 7.82383e-20)
(1.11807 0.335081 4.16901e-20)
(1.16709 0.350183 4.78492e-20)
(1.20397 0.358774 -8.29272e-20)
(1.22994 0.361463 3.44277e-20)
(1.24617 0.359494 -6.89704e-21)
(0.0922102 0.0184323 -3.30315e-20)
(0.258388 0.0568747 -2.02777e-20)
(0.412198 0.100913 -7.14737e-20)
(0.553813 0.146802 -7.56358e-20)
(0.682763 0.192345 5.72244e-20)
(0.798408 0.235641 9.86935e-21)
(0.900166 0.274923 7.96839e-20)
(0.98767 0.308769 1.09345e-19)
(1.0609 0.336172 -6.98464e-20)
(1.12024 0.356588 -4.95595e-20)
(1.16649 0.369943 1.41647e-20)
(1.20083 0.376547 4.36481e-20)
(1.22459 0.377193 6.31706e-21)
(1.23905 0.373321 2.00803e-20)
(0.094908 0.022099 -2.75455e-20)
(0.26485 0.0666643 6.55321e-20)
(0.421016 0.115623 4.10219e-20)
(0.563744 0.165315 9.61342e-20)
(0.692699 0.213565 -9.46845e-20)
(0.807397 0.258505 9.73843e-21)
(0.90744 0.298443 -9.88291e-20)
(0.99267 0.332069 -1.35083e-19)
(1.06329 0.358522 6.70608e-20)
(1.11991 0.377435 1.66027e-20)
(1.16355 0.38892 -7.3912e-20)
(1.19555 0.393465 2.60781e-20)
(1.21738 0.392042 -7.69083e-20)
(1.23032 0.386279 2.18254e-20)
(0.0973031 0.0259114 -6.34312e-21)
(0.270471 0.0767611 -5.56238e-20)
(0.428523 0.130673 1.31279e-19)
(0.571957 0.184106 -3.89218e-20)
(0.700582 0.234927 2.74194e-20)
(0.814077 0.281327 -1.01948e-19)
(0.912239 0.321715 1.47458e-19)
(0.995119 0.354915 2.88376e-20)
(1.06314 0.380236 -9.44076e-20)
(1.11715 0.397499 -7.50899e-21)
(1.15835 0.407013 5.42757e-20)
(1.18824 0.409446 4.3918e-20)
(1.20839 0.405947 -7.18763e-20)
(1.22009 0.398328 5.68295e-21)
(0.0993714 0.0298433 3.20046e-20)
(0.275197 0.0870937 5.28732e-20)
(0.434652 0.145956 -3.4381e-20)
(0.578386 0.203039 5.73302e-20)
(0.706358 0.256276 -1.19597e-19)
(0.818418 0.303944 1.68936e-22)
(0.914557 0.344577 3.91985e-20)
(0.995041 0.377156 1.89851e-20)
(1.06052 0.401176 1.73204e-19)
(1.11203 0.416662 -5.22973e-20)
(1.15098 0.424126 -1.1924e-19)
(1.179 0.424415 -2.14766e-20)
(1.19773 0.41885 3.04209e-20)
(1.20847 0.409427 -4.05101e-21)
(0.101092 0.0338659 3.61399e-20)
(0.278982 0.0975858 3.3596e-20)
(0.439346 0.161359 -3.38695e-20)
(0.58298 0.221972 9.14055e-21)
(0.709991 0.277455 1.06766e-19)
(0.820404 0.326194 1.30759e-19)
(0.914408 0.366869 -5.79062e-20)
(0.992479 0.398642 7.06496e-20)
(1.05547 0.421211 -1.06612e-19)
(1.10464 0.434814 -2.26235e-21)
(1.14154 0.440168 6.20787e-20)
(1.16793 0.438301 -5.27771e-21)
(1.18552 0.430695 5.04732e-20)
(1.19553 0.41954 2.82282e-20)
(0.102445 0.0379485 -7.83966e-21)
(0.281787 0.108157 -8.20181e-20)
(0.442564 0.176762 3.2001e-20)
(0.585702 0.240764 -1.54804e-19)
(0.711461 0.298307 -4.92929e-20)
(0.82004 0.347913 -1.5012e-20)
(0.911821 0.388434 1.07975e-19)
(0.987486 0.419231 -1.44471e-19)
(1.04809 0.440217 4.11875e-20)
(1.09507 0.451851 3.35646e-20)
(1.13013 0.455059 2.71833e-20)
(1.15515 0.451043 7.64541e-21)
(1.17184 0.44144 7.71222e-21)
(1.18132 0.428623 -1.39937e-20)
(0.103416 0.0420587 -5.06643e-20)
(0.283582 0.118724 5.07706e-20)
(0.444272 0.192047 1.09554e-19)
(0.586532 0.259267 1.44388e-19)
(0.710766 0.318672 -1.35252e-19)
(0.817347 0.368942 -4.82275e-21)
(0.906845 0.409121 -1.44129e-19)
(0.980135 0.438786 6.29265e-20)
(1.03846 0.458076 6.7785e-20)
(1.08343 0.467677 -2.4928e-20)
(1.11687 0.468721 4.25928e-20)
(1.14075 0.462586 2.44887e-20)
(1.15679 0.451071 -6.41417e-22)
(1.16603 0.436599 -5.67678e-21)
(0.103993 0.0461627 3.416e-20)
(0.284345 0.1292 -8.74648e-20)
(0.444453 0.207089 -2.00579e-19)
(0.585463 0.277336 -4.54642e-20)
(0.70792 0.338396 2.00128e-19)
(0.812363 0.389125 -3.78603e-20)
(0.899541 0.428784 6.99252e-21)
(0.97051 0.457177 9.08672e-21)
(1.02669 0.47468 -4.07275e-20)
(1.06981 0.482203 -7.3518e-20)
(1.10185 0.481084 -2.9615e-20)
(1.12484 0.472869 -3.75704e-20)
(1.14049 0.459515 -6.94529e-21)
(1.14977 0.443511 -1.27599e-20)
(0.104168 0.0502257 -2.53453e-20)
(0.284064 0.139498 1.00786e-19)
(0.443102 0.221766 1.73591e-20)
(0.582507 0.294826 6.55903e-21)
(0.702957 0.357322 -1.32658e-19)
(0.805146 0.408312 -5.87214e-21)
(0.889989 0.447284 -8.07467e-21)
(0.958707 0.474283 -2.19834e-20)
(1.01287 0.489926 -6.00727e-20)
(1.05435 0.495349 2.07202e-20)
(1.0852 0.492086 3.41859e-20)
(1.10752 0.481842 -3.70654e-22)
(1.12303 0.466723 -1.32272e-20)
(1.13259 0.449303 -1.19245e-21)
(0.103935 0.0542123 4.9654e-20)
(0.282736 0.14953 2.90509e-20)
(0.440226 0.235954 -4.94304e-20)
(0.57769 0.311594 4.05269e-20)
(0.695923 0.375303 -5.38608e-20)
(0.795765 0.426357 6.196e-20)
(0.878281 0.464488 1.66449e-20)
(0.944837 0.489991 8.01032e-21)
(0.997132 0.503723 4.72683e-20)
(1.03714 0.507042 -1.97985e-20)
(1.06702 0.50167 2.691e-20)
(1.0889 0.489462 -2.45756e-21)
(1.10448 0.472661 -1.17259e-20)
(1.11453 0.453932 -2.67933e-20)
(0.103294 0.0580867 4.18817e-20)
(0.280366 0.159208 -1.11161e-19)
(0.435848 0.24953 1.53793e-19)
(0.571053 0.327499 -5.119e-20)
(0.686883 0.392193 1.10011e-19)
(0.784309 0.443122 -3.18222e-20)
(0.864523 0.480273 -2.59601e-20)
(0.929019 0.504195 6.14995e-20)
(0.979602 0.515988 2.52206e-20)
(1.01833 0.517219 -2.05357e-20)
(1.04742 0.509789 -1.184e-20)
(1.06906 0.495691 3.98825e-21)
(1.08493 0.477294 1.25275e-20)
(1.09569 0.457364 4.02675e-20)
(0.102248 0.0618136 -6.02784e-20)
(0.276971 0.168444 6.29288e-20)
(0.43 0.262378 -4.31422e-20)
(0.562652 0.342408 -7.19214e-21)
(0.675917 0.407855 -4.42208e-20)
(0.770876 0.458477 -5.86121e-20)
(0.848834 0.494523 5.97006e-20)
(0.911385 0.516801 -3.5732e-20)
(0.960414 0.526644 8.85976e-21)
(0.998046 0.525825 -8.29504e-21)
(1.02653 0.516403 2.31376e-21)
(1.0481 0.500497 -1.00128e-21)
(1.06445 0.480591 -1.7314e-20)
(1.07613 0.459564 3.10971e-20)
(0.100803 0.0653579 -8.57377e-21)
(0.272575 0.177153 4.47029e-20)
(0.422729 0.27438 -6.09868e-20)
(0.552556 0.356189 7.41348e-20)
(0.663117 0.422158 -2.88893e-20)
(0.755582 0.472299 5.74841e-20)
(0.831346 0.507133 1.23939e-20)
(0.892075 0.527722 1.77853e-20)
(0.939713 0.535628 -1.56677e-20)
(0.976417 0.532813 5.29227e-22)
(1.00446 0.521481 -4.57297e-21)
(1.02612 0.503858 -1.00853e-20)
(1.04309 0.482526 3.39042e-20)
(1.0559 0.460493 -1.42078e-19)
(0.0989695 0.0686857 -2.55404e-20)
(0.267212 0.185255 2.50591e-21)
(0.414093 0.285427 1.64898e-20)
(0.540849 0.368721 -6.03155e-21)
(0.648588 0.434979 2.46508e-21)
(0.738552 0.484477 1.99441e-21)
(0.812197 0.518006 -2.48056e-20)
(0.87124 0.536881 -1.03407e-20)
(0.91765 0.542883 -3.67705e-21)
(0.953591 0.538148 -1.73686e-21)
(0.981341 0.525004 6.38454e-20)
(1.0032 0.505762 -1.9005e-20)
(1.02092 0.483079 9.78315e-20)
(1.03504 0.460105 4.83775e-20)
(0.0967602 0.071763 1.85183e-21)
(0.260923 0.192671 -1.86445e-20)
(0.404161 0.295415 -2.50434e-21)
(0.527625 0.379889 3.3579e-21)
(0.632449 0.446204 4.10982e-21)
(0.719923 0.494907 -1.42327e-20)
(0.79154 0.527054 4.03545e-22)
(0.849037 0.544208 -7.52493e-22)
(0.894383 0.54836 -6.89604e-21)
(0.929721 0.5418 3.70023e-21)
(0.957303 0.52696 -4.346e-20)
(0.97944 0.506211 -8.38375e-21)
(0.997958 0.48224 -2.64279e-20)
(0.0941936 0.0745573 1.13923e-21)
(0.253759 0.199325 -3.11326e-21)
(0.393013 0.304245 -5.49848e-21)
(0.51299 0.389585 4.57471e-21)
(0.614829 0.455731 -2.42891e-21)
(0.699841 0.503495 -1.26853e-20)
(0.769529 0.5342 -2.53505e-20)
(0.825629 0.549646 2.34398e-20)
(0.87008 0.552018 3.64238e-20)
(0.904972 0.543748 2.79155e-20)
(0.932497 0.527347 -5.27319e-20)
(0.954942 0.50522 2.69373e-20)
(0.0912909 0.07704 -2.91727e-20)
(0.245777 0.205147 -6.52064e-21)
(0.380738 0.311827 8.89235e-21)
(0.497062 0.397714 -5.30712e-21)
(0.595865 0.463465 1.1623e-20)
(0.678458 0.510159 2.95978e-20)
(0.74633 0.539376 3.39049e-20)
(0.801186 0.553141 -7.23033e-20)
(0.844911 0.553822 3.93525e-20)
(0.879514 0.543976 1.57155e-20)
(0.90709 0.526174 1.01917e-20)
(0.088075 0.0791834 -2.98402e-20)
(0.237041 0.210076 5.22261e-20)
(0.367434 0.318079 -3.07199e-20)
(0.479964 0.404186 1.40749e-20)
(0.575703 0.469324 -1.14818e-20)
(0.655933 0.514827 -1.99293e-20)
(0.722108 0.542523 3.36771e-20)
(0.775878 0.55465 8.67167e-20)
(0.819051 0.553743 -4.15363e-20)
(0.853532 0.542469 -1.03768e-20)
(0.881274 0.523451 7.7912e-20)
(0.0845719 0.0809619 4.3966e-21)
(0.22762 0.214053 -1.31135e-20)
(0.353206 0.322929 6.81735e-21)
(0.461831 0.408927 -2.12012e-20)
(0.554495 0.473237 -2.9504e-20)
(0.632432 0.517439 -9.35308e-20)
(0.697033 0.543594 8.05692e-21)
(0.749875 0.554135 -6.95705e-20)
(0.792672 0.551751 -1.02876e-19)
(0.827209 0.539209 -5.25792e-21)
(0.0808108 0.0823531 4.77914e-20)
(0.217592 0.217028 -3.45368e-20)
(0.338168 0.326312 -5.45994e-20)
(0.4428 0.411872 -5.67425e-20)
(0.532397 0.475145 3.89535e-20)
(0.608119 0.517947 1.02644e-19)
(0.671273 0.54255 -2.23985e-19)
(0.723343 0.551569 5.97247e-20)
(0.765937 0.547823 1.0245e-19)
(0.0768229 0.0833371 -3.78643e-21)
(0.207038 0.218957 3.88265e-20)
(0.322436 0.328176 8.8472e-20)
(0.423018 0.412968 -2.18612e-20)
(0.509572 0.475003 3.10499e-20)
(0.583164 0.516314 3.66789e-20)
(0.644996 0.539367 8.25081e-20)
(0.696442 0.546933 8.79778e-20)
(0.738994 0.541941 -8.71007e-20)
(0.0726411 0.0838968 -8.28333e-20)
(0.196041 0.219804 1.2353e-19)
(0.306135 0.328478 -8.3822e-20)
(0.402632 0.412174 1.19673e-19)
(0.486184 0.472778 8.23321e-21)
(0.557737 0.512518 1.65999e-19)
(0.618368 0.534034 -1.09949e-19)
(0.669327 0.540225 4.38843e-20)
(0.0683003 0.0840187 7.35962e-20)
(0.18469 0.219542 -1.47682e-19)
(0.28939 0.327187 6.70092e-20)
(0.381796 0.409463 -3.54282e-20)
(0.462399 0.468451 -6.24939e-20)
(0.532007 0.506551 -1.51044e-19)
(0.591556 0.52655 1.93697e-19)
(0.0638369 0.0836926 1.36803e-19)
(0.173078 0.218149 -1.39221e-20)
(0.272332 0.324281 -1.27439e-19)
(0.360664 0.404819 -1.3559e-20)
(0.438385 0.462015 1.03158e-20)
(0.506148 0.498417 -2.10756e-19)
(0.564727 0.516931 -4.82671e-20)
(0.0592882 0.0829116 -8.49662e-20)
(0.161296 0.215615 3.64811e-20)
(0.255093 0.319753 2.42153e-19)
(0.339393 0.398241 -5.19762e-20)
(0.414311 0.453477 1.5474e-19)
(0.480329 0.488131 1.18774e-19)
(0.538045 0.505202 -1.08851e-19)
(0.0546924 0.0816726 7.86182e-20)
(0.14944 0.211937 -9.97013e-20)
(0.237805 0.313603 -1.28892e-19)
(0.318138 0.389738 1.14413e-19)
(0.390345 0.442858 2.06613e-20)
(0.45472 0.475723 -2.93068e-20)
(0.0500878 0.0799758 6.28274e-20)
(0.137605 0.207119 -3.74037e-20)
(0.220601 0.305845 -2.82077e-20)
(0.297056 0.379335 -4.92519e-20)
(0.366653 0.430189 6.43026e-20)
(0.429488 0.461233 9.06176e-20)
(0.045513 0.077825 -2.02558e-19)
(0.125884 0.201176 4.00528e-20)
(0.203612 0.296503 4.44249e-19)
(0.276299 0.367064 -1.93666e-19)
(0.343397 0.415514 -1.50345e-19)
(0.0410061 0.0752273 1.14261e-22)
(0.114371 0.194127 1.50703e-19)
(0.186968 0.285613 -3.46143e-19)
(0.256017 0.352974 1.5772e-20)
(0.320737 0.39889 1.12919e-19)
(0.0366045 0.0721936 1.09821e-19)
(0.103157 0.186004 1.19934e-19)
(0.170794 0.273219 4.33357e-19)
(0.236357 0.337121 -6.21367e-20)
(0.298825 0.380383 -2.74286e-19)
(0.0323448 0.0687376 2.99848e-20)
(0.0923308 0.176842 5.31178e-21)
(0.155212 0.259377 -3.79447e-19)
(0.217458 0.319576 2.0335e-19)
(0.0282622 0.0648765 -4.37659e-20)
(0.081977 0.166687 -8.72173e-20)
(0.140338 0.244151 1.19847e-19)
(0.199455 0.300418 -2.97055e-20)
(0.0243904 0.0606305 -1.87167e-20)
(0.0721771 0.155589 -1.75111e-19)
(0.126285 0.227617 5.10426e-21)
(0.182475 0.279735 8.72924e-20)
(0.0207614 0.0560226 -5.31874e-20)
(0.0630075 0.143608 1.98546e-19)
(0.113155 0.209857 -1.62471e-19)
(0.166637 0.257629 1.74108e-19)
(0.0174049 0.0510785 -1.8771e-19)
(0.0545396 0.130807 -1.07685e-21)
(0.101048 0.190962 1.2962e-19)
(0.0143484 0.0458264 2.26203e-19)
(0.0468394 0.117256 -1.08897e-19)
(0.0900507 0.17103 1.60944e-19)
(0.0116171 0.040297 -4.6777e-20)
(0.0399663 0.10303 1.85241e-19)
(0.0802457 0.150168 -1.08481e-19)
(0.00923316 0.0345228 -7.00267e-20)
(0.0339736 0.0882107 -1.14921e-19)
(0.0717044 0.128485 -3.42693e-20)
(0.00721611 0.0285384 1.38916e-20)
(0.0289076 0.0728809 -7.87796e-21)
(0.0644893 0.106099 5.70989e-20)
(0.00558239 0.0223797 -5.71397e-20)
(0.0248071 0.0571288 1.221e-19)
(0.0586531 0.0831322 -1.24718e-19)
(0.00434532 0.0160842 -3.90234e-22)
(0.0217039 0.0410451 -7.58411e-20)
(0.0542384 0.0597086 5.83129e-20)
(0.00351498 0.00969012 8.83192e-21)
(0.0196218 0.0247229 3.46565e-20)
(0.0512773 0.035957 -9.17597e-22)
(0.00309811 0.00323665 -1.49023e-20)
(0.0185767 0.00825698 1.1411e-21)
(0.0497913 0.0120077 1.59614e-20)
(0.00309811 -0.00323665 -2.02874e-20)
(0.0185767 -0.00825699 1.32551e-20)
(0.0497913 -0.0120077 7.17074e-21)
(0.00351498 -0.00969012 1.58094e-20)
(0.0196218 -0.0247229 6.07445e-20)
(0.0512773 -0.035957 -1.30138e-21)
(0.00434532 -0.0160842 4.56724e-21)
(0.0217039 -0.0410451 -8.17777e-20)
(0.0542384 -0.0597087 5.04789e-20)
(0.00558239 -0.0223798 -3.04265e-20)
(0.0248071 -0.0571288 3.08524e-20)
(0.0586531 -0.0831322 -6.27753e-20)
(0.00721611 -0.0285384 1.43498e-19)
(0.0289076 -0.0728809 -9.49948e-20)
(0.0644893 -0.106099 4.20574e-20)
(0.00923316 -0.0345228 -5.607e-20)
(0.0339736 -0.0882107 7.59337e-21)
(0.0717044 -0.128485 -3.67415e-21)
(0.0116171 -0.040297 -4.84797e-20)
(0.0399663 -0.10303 1.13403e-19)
(0.0802457 -0.150168 -9.1654e-20)
(0.0143484 -0.0458264 1.47064e-19)
(0.0468394 -0.117256 -9.72541e-20)
(0.0900507 -0.17103 1.55833e-19)
(0.0174049 -0.0510785 -1.02197e-19)
(0.0545396 -0.130807 9.52277e-20)
(0.101048 -0.190962 -6.04517e-20)
(0.0207614 -0.0560226 6.62039e-20)
(0.0630075 -0.143608 -1.21513e-20)
(0.113155 -0.209857 1.28749e-20)
(0.166637 -0.257629 -3.92374e-21)
(0.0243904 -0.0606305 5.75008e-20)
(0.0721771 -0.155589 -1.54295e-19)
(0.126285 -0.227617 6.25058e-20)
(0.182475 -0.279735 -1.75189e-19)
(0.0282622 -0.0648765 -3.1568e-20)
(0.081977 -0.166687 -3.84301e-20)
(0.140338 -0.244151 2.22169e-19)
(0.199455 -0.300418 -2.08001e-19)
(0.0323448 -0.0687376 3.15146e-21)
(0.0923308 -0.176842 -1.10732e-19)
(0.155212 -0.259377 -3.46385e-19)
(0.217458 -0.319576 1.54085e-19)
(0.0366045 -0.0721936 6.30838e-20)
(0.103157 -0.186004 2.1354e-19)
(0.170794 -0.273219 1.44442e-19)
(0.236357 -0.337121 2.47052e-20)
(0.298825 -0.380383 1.29185e-19)
(0.0410061 -0.0752273 -6.31533e-20)
(0.114371 -0.194127 7.22982e-20)
(0.186968 -0.285613 -3.56587e-19)
(0.256017 -0.352974 6.0799e-22)
(0.320737 -0.39889 1.46575e-19)
(0.045513 -0.077825 -9.46382e-20)
(0.125884 -0.201176 -6.82652e-20)
(0.203612 -0.296503 2.86823e-19)
(0.276299 -0.367064 -3.22108e-20)
(0.343397 -0.415514 -1.51151e-19)
(0.0500878 -0.0799758 1.38552e-19)
(0.137605 -0.207119 4.45162e-20)
(0.220601 -0.305845 -1.99323e-19)
(0.297056 -0.379335 6.39371e-20)
(0.366653 -0.430189 3.7891e-20)
(0.429488 -0.461233 -5.40286e-20)
(0.0546924 -0.0816726 1.12987e-19)
(0.14944 -0.211937 -1.48746e-19)
(0.237805 -0.313603 -2.06791e-19)
(0.318138 -0.389738 1.90846e-19)
(0.390345 -0.442858 -5.09996e-20)
(0.45472 -0.475723 1.87123e-19)
(0.0592882 -0.0829116 -3.46015e-20)
(0.161296 -0.215615 -1.25462e-19)
(0.255093 -0.319753 2.8111e-19)
(0.339393 -0.398241 -1.5712e-19)
(0.414311 -0.453477 2.04078e-19)
(0.480329 -0.488131 3.26873e-20)
(0.538045 -0.505202 -1.15075e-19)
(0.0638369 -0.0836926 1.5696e-20)
(0.173078 -0.218149 7.68272e-20)
(0.272332 -0.324281 -2.15052e-19)
(0.360664 -0.404819 -3.17306e-20)
(0.438385 -0.462015 -1.03948e-19)
(0.506148 -0.498417 -1.71726e-19)
(0.564727 -0.516931 2.15153e-19)
(0.0683003 -0.0840187 1.30069e-20)
(0.18469 -0.219542 -1.16699e-19)
(0.28939 -0.327187 8.19303e-20)
(0.381796 -0.409463 -8.73089e-20)
(0.462399 -0.468451 -6.86116e-20)
(0.532007 -0.506551 -1.00227e-19)
(0.591556 -0.52655 2.80281e-20)
(0.642152 -0.531455 9.12814e-20)
(0.0726411 -0.0838968 -1.23988e-19)
(0.196041 -0.219804 1.59471e-19)
(0.306135 -0.328478 -4.88255e-20)
(0.402632 -0.412174 1.56684e-19)
(0.486184 -0.472778 -1.07655e-19)
(0.557737 -0.512518 1.23766e-19)
(0.618368 -0.534034 -3.23197e-20)
(0.669327 -0.540225 1.139e-19)
(0.0768229 -0.0833371 3.76385e-20)
(0.207038 -0.218957 -9.74245e-20)
(0.322436 -0.328176 1.9238e-19)
(0.423018 -0.412968 -3.0975e-21)
(0.509572 -0.475003 2.83997e-20)
(0.583164 -0.516314 8.4568e-21)
(0.644996 -0.539367 9.23282e-20)
(0.696442 -0.546933 -7.49691e-20)
(0.738994 -0.541941 -3.1059e-20)
(0.0808108 -0.0823531 4.46559e-20)
(0.217592 -0.217028 -1.25363e-20)
(0.338168 -0.326312 -7.96259e-20)
(0.4428 -0.411872 -4.90227e-20)
(0.532397 -0.475145 2.16828e-20)
(0.608119 -0.517947 9.27524e-20)
(0.671273 -0.54255 -1.30143e-19)
(0.723343 -0.551569 6.7504e-21)
(0.765937 -0.547823 1.26017e-19)
(0.0845719 -0.0809619 4.71383e-23)
(0.22762 -0.214053 -5.34075e-20)
(0.353206 -0.322929 -1.17313e-20)
(0.461831 -0.408927 -1.55034e-20)
(0.554495 -0.473237 -4.29242e-20)
(0.632432 -0.517439 -1.01801e-19)
(0.697033 -0.543594 8.39804e-20)
(0.749875 -0.554135 -2.31301e-19)
(0.792672 -0.551751 -9.15388e-20)
(0.827209 -0.539209 -1.29553e-21)
(0.088075 -0.0791834 4.8527e-21)
(0.237041 -0.210076 1.8482e-20)
(0.367434 -0.318079 9.20453e-21)
(0.479964 -0.404186 -1.17626e-20)
(0.575703 -0.469324 -1.42495e-20)
(0.655933 -0.514827 4.23489e-21)
(0.722108 -0.542523 4.00879e-20)
(0.775878 -0.55465 8.96682e-20)
(0.819051 -0.553743 -2.5802e-20)
(0.853532 -0.542469 5.83383e-20)
(0.881274 -0.523451 -1.08041e-19)
(0.0912909 -0.07704 -9.68673e-21)
(0.245777 -0.205147 -2.61857e-20)
(0.380738 -0.311827 3.02223e-20)
(0.497062 -0.397714 2.81914e-21)
(0.595865 -0.463465 1.20101e-22)
(0.678458 -0.510159 5.97729e-21)
(0.74633 -0.539376 2.42825e-20)
(0.801186 -0.553141 -1.51931e-20)
(0.844911 -0.553822 5.39568e-20)
(0.879514 -0.543976 -7.08613e-20)
(0.90709 -0.526174 9.81763e-20)
(0.0941936 -0.0745573 -2.6557e-22)
(0.253759 -0.199325 -3.26493e-21)
(0.393013 -0.304245 -4.40057e-21)
(0.51299 -0.389585 4.44482e-21)
(0.614829 -0.455731 -3.47273e-21)
(0.699841 -0.503495 -7.94702e-21)
(0.769529 -0.5342 -1.49495e-20)
(0.825629 -0.549646 1.33525e-20)
(0.87008 -0.552018 5.37008e-20)
(0.904972 -0.543748 -2.14947e-20)
(0.932497 -0.527347 2.18821e-20)
(0.954942 -0.50522 -1.04418e-19)
(0.0967602 -0.071763 1.67031e-20)
(0.260923 -0.192671 -3.09629e-20)
(0.404161 -0.295415 1.8167e-20)
(0.527625 -0.379889 -2.8564e-21)
(0.632449 -0.446204 3.1851e-21)
(0.719923 -0.494907 -1.39457e-20)
(0.79154 -0.527054 1.05597e-20)
(0.849037 -0.544208 -4.63199e-21)
(0.894383 -0.54836 -1.99622e-20)
(0.929721 -0.5418 1.00357e-20)
(0.957303 -0.52696 -8.80013e-20)
(0.97944 -0.506211 8.11509e-20)
(0.997958 -0.48224 -1.68855e-19)
(0.0989695 -0.0686857 -1.91153e-20)
(0.267212 -0.185255 5.69046e-20)
(0.414093 -0.285427 6.58561e-21)
(0.540849 -0.368721 -3.06466e-20)
(0.648588 -0.434979 1.85134e-20)
(0.738552 -0.484477 1.35176e-21)
(0.812197 -0.518006 -4.16154e-20)
(0.87124 -0.536881 -1.35959e-21)
(0.91765 -0.542883 -1.34487e-21)
(0.953591 -0.538148 -1.5978e-20)
(0.981341 -0.525004 5.20472e-20)
(1.0032 -0.505762 2.40336e-20)
(1.02092 -0.483079 7.11252e-20)
(1.03504 -0.460105 1.46656e-19)
(0.100803 -0.0653579 4.66593e-20)
(0.272575 -0.177153 3.32003e-21)
(0.422729 -0.27438 -3.89523e-20)
(0.552556 -0.356189 8.1768e-21)
(0.663117 -0.422158 2.79916e-20)
(0.755582 -0.472299 4.10737e-20)
(0.831346 -0.507133 2.12169e-20)
(0.892075 -0.527722 -2.38571e-21)
(0.939713 -0.535628 -1.01556e-20)
(0.976417 -0.532813 4.88246e-21)
(1.00446 -0.521481 -2.62457e-20)
(1.02612 -0.503858 2.93856e-20)
(1.04309 -0.482526 1.11069e-20)
(1.0559 -0.460493 -1.39716e-19)
(0.102248 -0.0618136 -1.83016e-20)
(0.276971 -0.168444 -3.86502e-20)
(0.43 -0.262378 -1.63126e-20)
(0.562652 -0.342408 -1.41312e-20)
(0.675917 -0.407855 -3.58322e-20)
(0.770876 -0.458477 -6.13264e-20)
(0.848834 -0.494523 6.96458e-20)
(0.911385 -0.516801 -2.56357e-20)
(0.960414 -0.526644 -4.03175e-21)
(0.998046 -0.525825 -9.74765e-21)
(1.02653 -0.516403 -3.24878e-22)
(1.0481 -0.500497 -1.33455e-20)
(1.06445 -0.480591 -8.15698e-21)
(1.07613 -0.459564 5.30841e-21)
(0.103294 -0.0580867 2.08659e-20)
(0.280366 -0.159208 -6.86207e-20)
(0.435848 -0.24953 1.35106e-19)
(0.571053 -0.327499 -3.73297e-20)
(0.686883 -0.392193 4.76631e-20)
(0.784309 -0.443122 5.12132e-20)
(0.864523 -0.480273 -5.56548e-20)
(0.929019 -0.504195 5.26161e-20)
(0.979602 -0.515988 1.94421e-20)
(1.01833 -0.517219 1.20708e-20)
(1.04742 -0.509789 -3.06975e-20)
(1.06906 -0.495691 4.00546e-21)
(1.08493 -0.477294 3.36235e-22)
(1.09569 -0.457364 5.87689e-20)
(0.103935 -0.0542123 2.67779e-20)
(0.282736 -0.14953 6.29283e-20)
(0.440226 -0.235954 -4.55347e-20)
(0.57769 -0.311594 -3.95996e-20)
(0.695923 -0.375303 1.22159e-20)
(0.795765 -0.426357 6.52022e-20)
(0.878281 -0.464488 -3.71496e-20)
(0.944837 -0.489991 4.721e-20)
(0.997132 -0.503723 -4.13393e-21)
(1.03714 -0.507042 4.95858e-20)
(1.06702 -0.50167 5.44017e-21)
(1.0889 -0.489462 -1.19867e-20)
(1.10448 -0.472661 -8.66598e-21)
(1.11453 -0.453932 -2.55716e-20)
(0.104168 -0.0502257 -4.03171e-21)
(0.284064 -0.139498 5.74825e-20)
(0.443102 -0.221766 4.26743e-20)
(0.582507 -0.294826 -2.85673e-20)
(0.702957 -0.357322 -2.72727e-20)
(0.805146 -0.408312 -1.2532e-19)
(0.889989 -0.447284 4.13802e-20)
(0.958707 -0.474283 -1.66374e-20)
(1.01287 -0.489926 -3.74404e-20)
(1.05435 -0.495349 5.35303e-20)
(1.0852 -0.492086 -3.13414e-20)
(1.10752 -0.481842 8.93218e-21)
(1.12303 -0.466723 -2.51869e-21)
(1.13259 -0.449303 1.68327e-21)
(0.103993 -0.0461627 -1.69092e-20)
(0.284345 -0.1292 -9.56119e-20)
(0.444453 -0.207089 -1.54119e-19)
(0.585463 -0.277336 -2.21512e-20)
(0.70792 -0.338396 1.12761e-19)
(0.812363 -0.389125 5.89492e-20)
(0.899541 -0.428784 5.60891e-20)
(0.97051 -0.457177 -7.86829e-20)
(1.02669 -0.47468 -3.53405e-20)
(1.06981 -0.482203 -4.153e-20)
(1.10185 -0.481084 -8.95142e-20)
(1.12484 -0.472869 -2.96776e-20)
(1.14049 -0.459515 1.13303e-20)
(1.14977 -0.443511 1.70806e-21)
(0.103416 -0.0420587 1.33165e-20)
(0.283582 -0.118724 2.59294e-20)
(0.444272 -0.192047 5.84492e-20)
(0.586532 -0.259267 2.33708e-19)
(0.710766 -0.318672 -1.20765e-19)
(0.817347 -0.368942 -1.78287e-20)
(0.906845 -0.409121 -1.34337e-19)
(0.980135 -0.438786 1.94583e-20)
(1.03846 -0.458076 5.84248e-20)
(1.08343 -0.467677 1.46291e-20)
(1.11687 -0.468721 2.58467e-20)
(1.14075 -0.462586 3.72217e-20)
(1.15679 -0.451071 -1.86951e-20)
(1.16603 -0.436599 1.49873e-20)
(0.102445 -0.0379485 2.83719e-20)
(0.281787 -0.108157 -9.29992e-20)
(0.442564 -0.176762 2.26455e-21)
(0.585702 -0.240764 -1.51408e-19)