/*--------------------------------*- C++ -*----------------------------------*\
  =========                 |
  \\      /  F ield         | OpenFOAM: The Open Source CFD Toolbox
   \\    /   O peration     | Website:  https://openfoam.org
    \\  /    A nd           | Version:  7
     \\/     M anipulation  |
\*---------------------------------------------------------------------------*/
FoamFile
{
    version     2.0;
    format      ascii;
    class       volVectorField;
    location    "15";
    object      U;
}
// * * * * * * * * * * * * * * * * * * * * * * * * * * * * * * * * * * * * * //

dimensions      [0 1 -1 0 0 0 0];

internalField   nonuniform List<vector> 
14800
(
(-0.000546474 0.000590357 1.37757e-20)
(-0.00326463 0.00147937 -2.34741e-21)
(-0.00868276 0.0021319 -3.05779e-21)
(-0.0156832 0.00259181 -2.56899e-21)
(-0.0237609 0.00289165 4.86922e-21)
(-0.032533 0.00306172 -9.10866e-21)
(-0.0416625 0.00313091 -9.63456e-21)
(-0.0508934 0.00312631 1.41553e-21)
(-0.060046 0.00307326 1.25774e-20)
(-0.069011 0.0029955 -2.70528e-20)
(-0.077746 0.00291501 8.82174e-21)
(-0.0862725 0.00285182 8.9776e-21)
(-0.0946684 0.00282271 2.97961e-21)
(-0.103045 0.00283974 3.31333e-21)
(-0.111569 0.00291705 7.09366e-21)
(-0.000615525 0.00176418 -1.18201e-20)
(-0.00342271 0.00442212 3.05803e-20)
(-0.00887964 0.00637402 1.39536e-20)
(-0.0158822 0.00775017 5.82748e-21)
(-0.0239315 0.00864747 2.21024e-20)
(-0.0326485 0.00915618 1.02645e-21)
(-0.0416993 0.00936256 1.15336e-20)
(-0.0508295 0.00934748 -3.17447e-20)
(-0.0598598 0.00918673 9.71836e-21)
(-0.0686807 0.00895131 -2.094e-20)
(-0.0772488 0.00870726 5.74037e-21)
(-0.0855844 0.00851479 2.58524e-20)
(-0.0937659 0.00842464 -6.65826e-21)
(-0.1019 0.00847355 -5.97996e-21)
(-0.110147 0.00870413 7.76182e-21)
(-0.000752299 0.00291651 -7.57814e-21)
(-0.00373625 0.0073145 -6.99387e-20)
(-0.00927066 0.0105471 2.72335e-20)
(-0.016278 0.0128273 7.11217e-21)
(-0.0242711 0.0143141 -4.27335e-20)
(-0.032879 0.015156 3.17655e-20)
(-0.0417736 0.0154952 -1.93773e-20)
(-0.0507036 0.0154651 7.08626e-20)
(-0.059491 0.0151911 6.21335e-21)
(-0.0680252 0.0147911 4.12864e-20)
(-0.0762609 0.0143751 -4.30339e-20)
(-0.0842167 0.0140441 -6.2038e-20)
(-0.0919714 0.0138838 2.12698e-20)
(-0.0996226 0.0139574 -8.84682e-21)
(-0.107321 0.0143369 4.71081e-20)
(-0.000954192 0.0040338 3.20152e-20)
(-0.00420004 0.0101245 -1.50256e-20)
(-0.00985039 0.014607 -5.31261e-20)
(-0.016866 0.0177711 -9.73116e-20)
(-0.0247768 0.0198341 4.30762e-20)
(-0.0332236 0.0209999 1.63844e-20)
(-0.0418867 0.0214643 3.55808e-20)
(-0.0505196 0.0214116 -2.6985e-20)
(-0.0589459 0.0210154 2.0991e-20)
(-0.0670539 0.0204393 -7.37638e-20)
(-0.0747951 0.0198374 2.12078e-20)
(-0.0821854 0.0193524 7.43756e-20)
(-0.0893049 0.0191068 -8.94109e-20)
(-0.0962392 0.0191937 2.28226e-20)
(-0.103123 0.019716 -7.91918e-20)
(-0.00121746 0.00510364 2.11036e-20)
(-0.00480659 0.0128224 1.15896e-20)
(-0.0106108 0.0185123 7.14743e-20)
(-0.0176394 0.0225319 -1.27009e-20)
(-0.0254441 0.0251522 1.64917e-20)
(-0.0336804 0.0266289 -1.78309e-20)
(-0.0420397 0.0272081 8.77627e-20)
(-0.050282 0.0271222 4.38527e-20)
(-0.0582329 0.026591 -6.93398e-20)
(-0.0657791 0.0258228 9.50521e-21)
(-0.072868 0.0250155 1.88606e-20)
(-0.0795119 0.0243548 -1.03364e-19)
(-0.0857926 0.0240029 1.64126e-19)
(-0.0917827 0.0240876 3.34143e-20)
(-0.0975943 0.0247472 3.07207e-20)
(-0.0015374 0.0061151 -4.21136e-20)
(-0.0055463 0.0153815 1.12984e-19)
(-0.0115416 0.0222251 -1.02921e-19)
(-0.0185891 0.027064 1.64988e-19)
(-0.0262661 0.0302173 1.05719e-19)
(-0.0342457 0.0319877 -1.39677e-20)
(-0.0422328 0.0326679 -1.85207e-19)
(-0.0499949 0.0325353 1.61012e-20)
(-0.0573603 0.0318531 6.38813e-21)
(-0.0642139 0.0308724 1.24631e-19)
(-0.0704977 0.0298346 1.04478e-20)
(-0.0762191 0.02897 1.22881e-19)
(-0.0814632 0.0284847 -2.27542e-19)
(-0.0862888 0.0285484 1.55089e-20)
(-0.0907793 0.0293424 2.75884e-21)
(-0.00190857 0.00705904 7.38731e-20)
(-0.00640791 0.0177788 8.69373e-20)
(-0.0126303 0.025712 -2.87556e-20)
(-0.0197036 0.0313262 -3.04839e-19)
(-0.0272338 0.0349824 -9.49498e-20)
(-0.0349137 0.0370252 -1.62311e-20)
(-0.0424634 0.0377896 6.54496e-20)
(-0.04966 0.0375939 1.07212e-20)
(-0.0563343 0.0367414 -1.4426e-19)
(-0.0623692 0.0355237 -2.15497e-19)
(-0.0676999 0.034225 -1.78184e-19)
(-0.0723275 0.0331218 -2.06935e-19)
(-0.0763412 0.0324698 1.43805e-19)
(-0.0797883 0.0324903 -1.70864e-19)
(-0.0827117 0.0334204 -3.56413e-20)
(-0.00232501 0.00792829 -9.08034e-20)
(-0.00737881 0.0199953 -7.82893e-20)
(-0.0138623 0.0289443 -3.23218e-20)
(-0.020969 0.0352822 2.25293e-19)
(-0.028335 0.0394054 -3.94134e-20)
(-0.0356747 0.0416951 1.84378e-19)
(-0.0427253 0.0425237 1.75633e-20)
(-0.0492741 0.0422461 -1.63013e-19)
(-0.0551557 0.0412015 1.2213e-19)
(-0.0602497 0.039719 1.72402e-19)
(-0.0644834 0.0381237 -4.27615e-20)
(-0.0678489 0.0367407 1.72196e-19)
(-0.0704408 0.0358815 -5.95229e-20)
(-0.0722985 0.0358326 8.45675e-20)
(-0.0734031 0.0369066 -1.52308e-19)
(-0.00278052 0.0087177 7.30777e-20)
(-0.00844542 0.0220162 -2.25181e-20)
(-0.0152214 0.0318986 5.43031e-20)
(-0.0223687 0.0389014 -9.30223e-20)
(-0.029554 0.0434498 -7.23383e-20)
(-0.0365146 0.0459568 1.55186e-20)
(-0.0430061 0.0468268 -5.09553e-20)
(-0.0488271 0.0464463 2.24404e-19)
(-0.053816 0.0451861 -2.94853e-20)
(-0.0578492 0.0434082 1.95477e-19)
(-0.0608437 0.0414767 4.18923e-20)
(-0.0627793 0.0397659 8.9773e-20)
(-0.0637561 0.0386515 8.45159e-20)
(-0.0638137 0.0385008 3.92165e-20)
(-0.0628273 0.0397306 2.15037e-19)
(-0.00326889 0.00942415 -3.60312e-21)
(-0.00959361 0.023831 -1.58493e-19)
(-0.0166899 0.0345568 1.06114e-19)
(-0.0238833 0.0421585 -5.21306e-20)
(-0.0308708 0.047085 1.93702e-19)
(-0.0374132 0.0497754 -9.91049e-20)
(-0.0432853 0.0506613 -9.68448e-20)
(-0.048298 0.0501558 7.96788e-20)
(-0.0522939 0.0486557 2.16985e-20)
(-0.0551451 0.0465511 -3.78637e-19)
(-0.0567562 0.0442407 -2.87452e-20)
(-0.05709 0.0421488 5.1963e-20)
(-0.056251 0.0407226 1.57624e-19)
(-0.0542946 0.0404283 -1.48161e-19)
(-0.0509033 0.0418276 6.16545e-21)
(-0.00378408 0.0100464 -1.8144e-19)
(-0.0108089 0.0254332 8.81681e-20)
(-0.0182484 0.0369056 -2.22579e-19)
(-0.02549 0.0450339 4.36265e-20)
(-0.03226 0.0502856 -8.25634e-20)
(-0.0383423 0.0531217 -5.06332e-20)
(-0.0435316 0.0539961 -2.56882e-19)
(-0.0476517 0.0533432 1.35158e-19)
(-0.0505492 0.0515801 -9.92618e-20)
(-0.0520913 0.0491186 7.28512e-20)
(-0.0521674 0.0463866 -7.43009e-20)
(-0.0507167 0.0438565 -1.58523e-19)
(-0.0478453 0.042054 -1.50658e-19)
(-0.043656 0.0415649 1.35359e-19)
(-0.0374926 0.0431763 3.06539e-20)
(-0.00432041 0.010585 2.79315e-19)
(-0.0120769 0.02682 7.85556e-20)
(-0.0198762 0.0389368 4.89313e-21)
(-0.0271629 0.0475132 5.41822e-20)
(-0.0336902 0.053032 1.76853e-19)
(-0.0392645 0.0559724 -1.90217e-19)
(-0.0437006 0.0568064 2.91079e-19)
(-0.046835 0.0559847 -9.06172e-20)
(-0.0485185 0.0539386 -2.78156e-20)
(-0.0486114 0.0510943 8.76677e-20)
(-0.0469851 0.0479013 -3.21858e-20)
(-0.0435471 0.0448757 1.15394e-19)
(-0.0383949 0.0426232 -1.15406e-20)
(-0.0317218 0.0418751 2.64132e-20)
(-0.0224374 0.0438736 2.7737e-19)
(-0.00487268 0.0110417 -2.3819e-19)
(-0.0133831 0.0279917 -4.24813e-20)
(-0.021551 0.0406459 1.05169e-19)
(-0.0288716 0.0495865 -2.20126e-19)
(-0.0351226 0.0553094 -5.42106e-20)
(-0.0401314 0.0583095 2.99755e-20)
(-0.0437318 0.0590735 -2.43192e-19)
(-0.0457729 0.0580639 -6.15664e-20)
(-0.0461084 0.0557203 -2.87775e-20)
(-0.0445906 0.0524755 1.44361e-19)
(-0.0410683 0.048791 5.10937e-20)
(-0.0354103 0.0452166 -2.61805e-19)
(-0.0276829 0.0424313 -9.88681e-20)
(-0.0181312 0.0413229 1.23958e-19)
(-0.00544828 0.0438628 -2.4064e-19)
(-0.00543621 0.0114196 1.61175e-19)
(-0.0147131 0.0289512 2.30119e-19)
(-0.0232487 0.0420321 -6.5005e-20)
(-0.0305817 0.0512479 1.76865e-19)
(-0.0365103 0.0571074 -4.59046e-20)
(-0.0408813 0.0601197 -3.79476e-19)
(-0.0435459 0.0607841 2.60194e-19)
(-0.0443641 0.0595713 3.78182e-19)
(-0.043191 0.0569241 8.69728e-20)
(-0.039868 0.053274 -3.59997e-19)
(-0.0342175 0.049083 -1.39265e-19)
(-0.0260639 0.0449198 -2.02866e-19)
(-0.0154399 0.0415221 3.87728e-19)
(-0.00253147 0.0399723 -3.22972e-19)
(0.0141477 0.0430273 3.30416e-19)
(-0.00600684 0.0117225 -1.1653e-19)
(-0.0160527 0.0297031 -1.18884e-19)
(-0.0249432 0.043097 1.49387e-20)
(-0.032253 0.0524947 -1.26944e-19)
(-0.0377971 0.0584191 1.09632e-19)
(-0.0414383 0.0613939 -2.36847e-20)
(-0.0430427 0.0619298 -1.16392e-19)
(-0.0424783 0.0605035 -1.35323e-19)
(-0.0395984 0.0575573 -2.24797e-19)
(-0.0342299 0.0535148 -1.23314e-19)
(-0.0261639 0.0488267 4.22395e-20)
(-0.0151713 0.0440633 -1.81439e-19)
(-0.0012429 0.0400058 -5.88647e-20)
(0.0154858 0.037944 -2.55914e-19)
(0.0369954 0.0414505 -1.10948e-19)
(-0.00658089 0.0119544 -1.58267e-19)
(-0.0173872 0.0302532 -2.08396e-19)
(-0.0266059 0.0438442 -2.15638e-19)
(-0.0338399 0.0533268 9.96448e-20)
(-0.0389163 0.0592409 5.09491e-19)
(-0.0417103 0.0621264 -4.08082e-21)
(-0.0420986 0.0625059 1.59454e-19)
(-0.0399526 0.0608619 1.93113e-19)
(-0.035119 0.0576341 -2.71502e-19)
(-0.0274046 0.053234 9.54856e-20)
(-0.0165639 0.048091 3.21928e-19)
(-0.002304 0.0427573 2.31019e-19)
(0.0154392 0.0380262 -3.6814e-20)
(0.0365342 0.0353491 -6.81407e-20)
(0.0638411 0.0393579 -6.83092e-21)
(-0.00715502 0.0121197 1.30511e-19)
(-0.0187015 0.0306078 3.70826e-20)
(-0.0282052 0.0442783 2.92144e-19)
(-0.0352896 0.0537457 -3.04806e-19)
(-0.0397896 0.0595715 -2.70398e-19)
(-0.0415876 0.0623146 -2.50215e-20)
(-0.0405651 0.0625115 1.8746e-19)
(-0.0365902 0.060652 1.47113e-19)
(-0.0294953 0.0571741 6.61652e-19)
(-0.0190604 0.0524761 3.57187e-19)
(-0.0049967 0.04696 2.60089e-19)
(0.0130606 0.0411419 1.67014e-19)
(0.0352436 0.0357857 -2.40935e-19)
(0.0613568 0.0324074 2.74279e-19)
(0.0955938 0.0370309 -1.8793e-19)
(-0.00772601 0.0122224 -1.86189e-19)
(-0.0199793 0.0307728 2.07647e-19)
(-0.0297054 0.0444046 6.26141e-20)
(-0.036542 0.0537545 1.3524e-19)
(-0.0403262 0.0594118 4.33889e-19)
(-0.0409417 0.0619586 2.99075e-20)
(-0.0382675 0.061949 1.58067e-19)
(-0.0321591 0.0598829 -2.20388e-19)
(-0.0224245 0.0562006 -6.18e-19)
(-0.00880676 0.0512906 -2.41673e-20)
(0.00903168 0.045527 -1.05088e-19)
(0.031533 0.0393795 -4.88885e-19)
(0.0589068 0.03354 2.87696e-19)
(0.0907975 0.0294361 -2.08734e-19)
(0.13325 0.0348713 4.31528e-19)
(-0.00829059 0.012266 2.7275e-19)
(-0.0212026 0.0307537 -9.13114e-20)
(-0.0310662 0.044228 -2.80174e-19)
(-0.0375277 0.0533573 1.46305e-19)
(-0.0404211 0.0587652 -3.17639e-19)
(-0.0396244 0.0610626 -1.99445e-19)
(-0.0350042 0.0608251 -1.48369e-19)
(-0.0263921 0.0585683 -6.53903e-20)
(-0.0135592 0.0547409 3.64183e-19)
(0.00379975 0.0497298 4.63577e-20)
(0.0260778 0.0438888 -3.00184e-19)
(0.0537932 0.0376414 3.23338e-20)
(0.0872331 0.0315763 9.0659e-20)
(0.125767 0.0268233 1.04827e-19)
(0.177775 0.0334354 -1.9135e-19)
(-0.00884504 0.0122532 -2.17904e-19)
(-0.022351 0.0305548 -1.73279e-19)
(-0.0322415 0.0437534 2.27807e-19)
(-0.0381674 0.0525594 -3.64602e-19)
(-0.0399541 0.0576381 3.86324e-19)
(-0.0374657 0.0596353 2.50077e-20)
(-0.0305455 0.0591532 1.31242e-19)
(-0.0189878 0.0567292 -9.64498e-24)
(-0.00251209 0.0528293 -1.75323e-19)
(0.0192474 0.0478506 1.52516e-19)
(0.0467434 0.0421413 6.73224e-20)
(0.0805605 0.0360946 1.52721e-19)
(0.121041 0.030184 2.09452e-19)
(0.167194 0.0249953 -2.08124e-19)
(0.229934 0.0334087 9.09999e-20)
(-0.00938486 0.012186 2.37294e-19)
(-0.0234006 0.0301789 1.98132e-20)
(-0.0331778 0.0429853 1.37432e-20)
(-0.03837 0.0513678 2.28303e-19)
(-0.0387883 0.0560413 -3.86958e-19)
(-0.0342737 0.0576921 -2.31453e-19)
(-0.024634 0.0569559 3.45936e-19)
(-0.00961139 0.0543983 -4.46899e-19)
(0.0111401 0.0505122 9.27326e-20)
(0.0380573 0.0457194 -3.19306e-19)
(0.0716523 0.0403833 -2.83086e-19)
(0.112553 0.0348961 -1.62262e-19)
(0.161091 0.0296237 3.49653e-19)
(0.215955 0.0243811 6.21751e-20)
(0.290061 0.0355174 -2.24994e-19)
(-0.00990427 0.0120651 7.77339e-20)
(-0.0243228 0.0296274 -4.30633e-19)
(-0.0338134 0.0419281 1.47409e-19)
(-0.0380315 0.0497918 2.0144e-19)
(-0.0367684 0.0539904 4.72152e-20)
(-0.0298327 0.0552581 3.22412e-19)
(-0.0169836 0.0542695 -1.92331e-19)
(0.00210255 0.0516256 3.11027e-19)
(0.0278496 0.0478561 1.36388e-19)
(0.0607702 0.0434225 4.11949e-20)
(0.101424 0.0387267 4.73374e-19)
(0.150443 0.0342013 7.33284e-21)
(0.207992 0.0301088 -1.06481e-19)
(0.272772 0.0254361 4.19318e-19)
(0.35772 0.0404698 -4.04618e-19)
(-0.0103957 0.0118898 1.40927e-19)
(-0.0250831 0.0288996 -1.71184e-19)
(-0.0340768 0.0405868 -1.24166e-19)
(-0.037033 0.0478435 -4.22693e-19)
(-0.0337197 0.0515085 -2.36979e-19)
(-0.0239029 0.0523703 -1.38543e-19)
(-0.00728124 0.0511478 -2.79807e-19)
(0.0165467 0.0484847 -3.41129e-19)
(0.0480893 0.0449561 2.14784e-20)
(0.0879296 0.0410767 1.85835e-19)
(0.136648 0.0373091 8.69929e-20)
(0.194817 0.0341741 -4.64422e-20)
(0.262159 0.0317981 -1.65406e-21)
(0.338075 0.0287986 -2.46859e-19)
(0.431194 0.049046 3.56542e-19)
(-0.0108498 0.0116584 1.23237e-19)
(-0.0256408 0.0279945 -1.83562e-19)
(-0.0338841 0.0389658 1.73053e-19)
(-0.0352402 0.0455384 3.06356e-19)
(-0.0294474 0.0486271 1.71241e-20)
(-0.0162211 0.04908 -9.63662e-20)
(0.00481073 0.0476661 2.44503e-19)
(0.0341338 0.0450779 1.61628e-19)
(0.072338 0.0419429 -4.80306e-19)
(0.120056 0.038837 -5.02473e-19)
(0.17784 0.036297 1.86302e-19)
(0.246136 0.034972 -1.06749e-19)
(0.323886 0.0347598 5.22696e-20)
(0.412115 0.0353598 -2.97609e-19)
(0.507542 0.0614366 2.04692e-19)
(-0.011254 0.0113682 4.98185e-19)
(-0.025948 0.0269092 4.43403e-19)
(-0.0331398 0.0370699 1.18856e-19)
(-0.0325017 0.0428977 1.02165e-19)
(-0.0237366 0.0453882 1.92529e-19)
(-0.00650246 0.0454553 -1.50035e-20)
(0.0196489 0.0439242 2.25813e-19)
(0.055285 0.0415405 2.16699e-19)
(0.101057 0.0389875 7.51974e-20)
(0.157603 0.036901 1.76006e-19)
(0.225369 0.0358831 -6.55596e-20)
(0.304594 0.0367137 2.16448e-19)
(0.393307 0.0389342 -7.21685e-20)
(0.495139 0.0455534 2.93655e-19)
(0.585432 0.0735979 -4.45466e-19)
(-0.011592 0.0110144 -1.28222e-19)
(-0.0259475 0.0256393 -5.43859e-19)
(-0.031736 0.0349073 -3.1333e-20)
(-0.0286499 0.0399482 -1.77745e-19)
(-0.0163542 0.0418447 -1.54578e-20)
(0.00555505 0.0415827 -1.57578e-19)
(0.0375999 0.0400478 -9.46466e-20)
(0.0804128 0.0380423 -3.6088e-19)
(0.134663 0.0363034 2.60442e-19)
(0.200909 0.0355143 3.16207e-19)
(0.279355 0.036302 -3.44356e-19)
(0.369871 0.0395167 -4.06357e-20)
(0.469647 0.0442173 -1.28932e-19)
(0.585145 0.0577254 -2.64287e-19)
(0.670569 0.0760361 5.40377e-19)
(-0.0118435 0.0105923 -2.62428e-19)
(-0.0255722 0.0241813 -3.08124e-19)
(-0.0295512 0.0324883 2.59477e-19)
(-0.0235019 0.0367238 3.25121e-19)
(-0.00705157 0.0380625 -2.80827e-19)
(0.020264 0.0375673 -4.50193e-20)
(0.0590278 0.0361886 -1.11306e-19)
(0.1099 0.0347863 -1.85675e-20)
(0.173491 0.0341443 -2.93499e-20)
(0.25015 0.0349703 -4.11652e-19)
(0.339641 0.0378593 2.24411e-19)
(0.441171 0.0436234 -2.64609e-19)
(0.550977 0.0506694 3.67915e-20)
(0.674303 0.0672489 4.17558e-19)
(0.767853 0.0732662 -3.30537e-19)
(-0.0119852 0.0100966 -1.96253e-21)
(-0.0247456 0.0225321 1.57527e-19)
(-0.0264509 0.029827 -4.43772e-19)
(-0.0168611 0.0332666 -4.28753e-19)
(0.00443023 0.0341204 3.73802e-19)
(0.0379379 0.0335335 7.15627e-20)
(0.084277 0.032523 1.4522e-19)
(0.144072 0.0320037 2.10095e-19)
(0.21776 0.0327924 -2.91076e-19)
(0.305301 0.0355888 -4.49765e-19)
(0.405773 0.0408929 2.97411e-19)
(0.51738 0.0493562 5.13679e-19)
(0.635351 0.0588844 -2.62772e-19)
(0.76203 0.0770188 7.50302e-20)
(0.860541 0.0809472 -4.01095e-19)
(-0.0119888 0.00952186 2.37718e-19)
(-0.0233823 0.020691 1.12792e-19)
(-0.0222891 0.0269436 7.89877e-19)
(-0.00852079 0.0296282 1.83325e-19)
(0.018354 0.0301119 -4.73344e-19)
(0.0588794 0.029624 3.71354e-19)
(0.113653 0.0292479 2.40111e-19)
(0.183167 0.0299444 9.55709e-20)
(0.267531 0.0325395 5.06403e-19)
(0.366088 0.0376784 4.87521e-19)
(0.476968 0.0456964 -2.0723e-19)
(0.597084 0.056961 -9.21784e-20)
(0.720614 0.069091 3.40694e-19)
(0.846953 0.0881772 -1.44951e-20)
(0.945443 0.0929453 5.01444e-19)
(-0.0118223 0.00886355 -1.28267e-19)
(-0.0213883 0.0186612 7.01179e-20)
(-0.0169109 0.0238652 -2.16023e-20)
(0.00173135 0.0258721 -4.06097e-19)
(0.034978 0.0261454 9.56366e-20)
(0.083365 0.0259993 1.67576e-21)
(0.147396 0.0265768 -2.61758e-19)
(0.227303 0.0288668 -4.66839e-19)
(0.322662 0.0336662 -2.58864e-19)
(0.43195 0.0415016 2.99318e-19)
(0.552094 0.0524616 -3.41651e-19)
(0.678548 0.0665124 -1.35809e-19)
(0.804514 0.081111 6.49559e-21)
(0.927009 0.100657 6.94856e-20)
(1.02192 0.10679 2.809e-19)
(-0.0114495 0.00811871 -2.10694e-19)
(-0.0186618 0.0164513 -6.33123e-19)
(-0.0101544 0.0206287 -1.1214e-19)
(0.0141079 0.0220746 5.02781e-19)
(0.0545456 0.0223457 4.67968e-19)
(0.111629 0.0228359 -2.7387e-19)
(0.185662 0.0247341 1.89097e-19)
(0.276441 0.0290258 2.49188e-19)
(0.382779 0.0364226 3.45815e-19)
(0.502019 0.0472475 -5.55971e-19)
(0.629694 0.0612517 1.13378e-19)
(0.759809 0.0779101 -2.33456e-19)
(0.884834 0.0945713 -1.64523e-19)
(1.00036 0.114085 -4.64627e-19)
(1.08843 0.121309 -7.99247e-19)
(-0.0108309 0.0072868 1.5812e-19)
(-0.0150955 0.014077 7.37885e-19)
(-0.00185518 0.0172823 -1.20448e-19)
(0.028815 0.0183273 -4.89985e-19)
(0.0772745 0.0188539 -2.51173e-19)
(0.143847 0.0203249 -7.43803e-20)
(0.228493 0.0239492 -1.03871e-20)
(0.330365 0.030661 -6.5416e-20)
(0.447254 0.0410086 -4.43231e-19)
(0.575141 0.0550115 -1.31922e-19)
(0.70808 0.0719936 2.89522e-19)
(0.838844 0.0908999 -9.11257e-20)
(0.959614 0.109009 1.92709e-19)
(1.0656 0.127973 5.77073e-20)
(1.14444 0.135656 8.07604e-19)
(-0.00992417 0.00637043 1.22404e-19)
(-0.0105782 0.0115633 -4.44999e-19)
(0.00815024 0.013888 -1.3796e-19)
(0.0460447 0.0147384 3.8812e-19)
(0.103344 0.0158283 -1.74447e-19)
(0.180114 0.0186686 3.59825e-19)
(0.275795 0.0244485 8.66655e-20)
(0.388656 0.033982 1.0617e-21)
(0.515213 0.0475574 4.88326e-19)
(0.649926 0.0647833 -1.42993e-19)
(0.785458 0.0844892 3.93021e-19)
(0.913766 0.105116 2.92223e-19)
(1.02734 0.123942 -1.32671e-19)
(1.12197 0.141841 -9.47943e-20)
(1.19011 0.149297 -2.02031e-19)
(-0.00868499 0.00537609 4.7968e-20)
(-0.00499762 0.00894532 3.29187e-19)
(0.0200189 0.0105227 1.12536e-19)
(0.0659667 0.0114337 -3.97336e-19)
(0.132884 0.0134425 4.72793e-19)
(0.220435 0.0180761 -5.33647e-20)
(0.327328 0.0264455 -1.59894e-19)
(0.450694 0.0391554 3.07083e-19)
(0.585562 0.0561221 -3.70894e-19)
(0.724843 0.0764466 -7.122e-20)
(0.860082 0.0984408 -1.78978e-19)
(0.983005 0.120138 -3.42051e-19)
(1.08704 0.138928 5.90855e-20)
(1.16928 0.155301 -2.32814e-20)
(1.2262 0.161942 1.22031e-19)
(-0.0070677 0.0043148 1.39768e-20)
(0.0017569 0.00627032 1.68735e-19)
(0.0338963 0.00728003 -2.37899e-19)
(0.0887193 0.00855637 6.35503e-20)
(0.165958 0.0118834 -3.62729e-19)
(0.264701 0.0187566 -4.28114e-19)
(0.382688 0.0301304 -8.78972e-20)
(0.515667 0.0462909 -2.45431e-19)
(0.65705 0.0666684 -9.09222e-20)
(0.798333 0.0897906 -3.4052e-20)
(0.930403 0.11349 2.92435e-19)
(1.04542 0.135548 -1.80612e-19)
(1.13831 0.153609 -3.59589e-20)
(1.20789 0.168091 -9.30165e-20)
(1.25383 0.173494 9.733e-20)
(-0.00502639 0.00320254 6.47119e-20)
(0.00979106 0.00359811 8.22068e-20)
(0.0499099 0.00427033 1.87652e-19)
(0.1144 0.00626627 -2.19831e-20)
(0.202555 0.0113472 -7.6394e-20)
(0.312686 0.0209117 4.6183e-20)
(0.441314 0.0356578 8.78456e-20)
(0.582602 0.0554318 4.32274e-20)
(0.728343 0.0790772 1.91663e-19)
(0.868929 0.104534 6.21383e-20)
(0.995188 0.129261 -2.27382e-20)
(1.10036 0.150979 1.15803e-19)
(1.18123 0.167731 1.73035e-19)
(1.2385 0.180075 -6.0127e-20)
(1.27426 0.183988 1.6875e-21)
(-0.00251597 0.00206064 -3.42639e-20)
(0.019202 0.00100161 -3.63889e-19)
(0.0681632 0.00162016 -4.37551e-19)
(0.143057 0.00473696 1.9549e-19)
(0.242579 0.0120332 1.0789e-19)
(0.364036 0.024725 1.58242e-19)
(0.502496 0.0431362 1.52142e-19)
(0.650415 0.0665499 1.19873e-19)
(0.798115 0.0931561 1.58836e-19)
(0.935366 0.120357 2.11815e-19)
(1.05358 0.145397 2.58144e-20)
(1.1476 0.16614 7.37531e-21)
(1.21629 0.181141 -3.39099e-19)
(1.26207 0.19122 -1.19642e-20)
(1.28878 0.193539 6.16885e-21)
(0.000506592 0.000915936 9.79316e-20)
(0.0300747 -0.00143336 3.57007e-19)
(0.0887289 -0.000529049 2.2502e-19)
(0.174678 0.00415191 1.57642e-19)
(0.285839 0.0141365 6.62562e-20)
(0.418276 0.0303529 -1.44827e-19)
(0.565404 0.0526196 -1.73371e-20)
(0.71797 0.0795476 9.77963e-20)
(0.86514 0.108659 -3.87985e-19)
(0.996652 0.136932 -2.6044e-21)
(1.10511 0.161593 3.29185e-19)
(1.18731 0.180829 1.06165e-19)
(1.24418 0.193781 1.05478e-19)
(1.27962 0.20157 9.83264e-20)
(1.29855 0.202304 1.23362e-20)
(0.004081 -0.00019916 -1.43393e-19)
(0.0424775 -0.00360871 1.70863e-19)
(0.111643 -0.00202358 -1.27364e-19)
(0.209188 0.00469926 -1.9777e-19)
(0.332048 0.0178399 1.34489e-19)
(0.474815 0.0379144 -2.60146e-19)
(0.629127 0.0641027 1.3257e-19)
(0.784152 0.0942673 -1.41774e-19)
(0.928366 0.12531 1.71778e-19)
(1.0521 0.153955 8.53986e-20)
(1.14966 0.177611 -1.88138e-20)
(1.21996 0.19493 1.14184e-19)
(1.26578 0.205662 1.87041e-20)
(1.29215 0.211219 -1.26421e-19)
(1.30459 0.210451 -1.54612e-19)
(0.00824211 -0.00124683 1.40975e-19)
(0.0564586 -0.00541548 9.91794e-21)
(0.136897 -0.00270077 4.9124e-20)
(0.246439 0.00656556 -1.32842e-19)
(0.380821 0.0233052 3.01711e-19)
(0.53297 0.0474845 -1.08512e-19)
(0.692713 0.0775225 -2.78495e-19)
(0.847928 0.110506 -1.56664e-19)
(0.986965 0.14283 -3.18077e-19)
(1.10135 0.171163 -3.46243e-19)
(1.18741 0.193282 -2.11662e-19)
(1.24617 0.208396 -1.65535e-19)
(1.28196 0.216847 2.4536e-19)
(1.30059 0.220284 -1.81771e-19)
(1.30774 0.21814 1.31036e-19)
(0.0130185 -0.0021842 -2.10828e-19)
(0.0720421 -0.00673566 1.66337e-19)
(0.164438 -0.00239328 -1.30342e-19)
(0.286209 0.0099289 1.46164e-19)
(0.431689 0.0306652 -1.00036e-19)
(0.59199 0.0590887 1.37655e-19)
(0.755226 0.092764 4.20328e-19)
(0.908404 0.128035 2.19309e-19)
(1.04035 0.160953 1.5135e-19)
(1.1443 0.188347 1.8036e-19)
(1.21875 0.208504 3.90236e-20)
(1.26666 0.221236 -1.0227e-19)
(1.2936 0.227426 8.25212e-20)
(1.30575 0.228888 6.46887e-20)
(1.30867 0.225511 -2.95705e-20)
(0.0184307 -0.00296388 -1.3872e-20)
(0.0892242 -0.00744461 -1.72481e-19)
(0.194159 -0.000933927 4.55191e-20)
(0.328208 0.0149519 -1.20032e-19)
(0.484106 0.0400165 1.03928e-19)
(0.651092 0.0727034 4.94815e-20)
(0.815789 0.10967 2.11053e-20)
(0.964854 0.146614 6.79817e-20)
(1.08819 0.179446 5.90407e-21)
(1.18107 0.20535 1.37638e-19)
(1.24419 0.223229 -1.40828e-19)
(1.28219 0.233498 -1.50291e-19)
(1.30145 0.237504 -6.58297e-20)
(1.30829 0.237151 4.71302e-20)
(1.3079 0.23268 -1.6579e-11)
(0.0244902 -0.00353471 4.5811e-20)
(0.107971 -0.00741403 -1.86033e-20)
(0.225903 0.00183899 9.82526e-20)
(0.372073 0.0217749 7.36266e-20)
(0.537472 0.0514158 -2.45299e-19)
(0.709493 0.0882581 1.01239e-19)
(0.873622 0.128056 -2.20837e-19)
(1.01674 0.166011 -2.40683e-19)
(1.13035 0.198114 -1.35114e-19)
(1.21195 0.222069 -2.6888e-19)
(1.26434 0.237453 1.25992e-20)
(1.29345 0.245253 8.31687e-20)
(1.30621 0.247186 1.05769e-19)
(1.30875 0.245177 -1.36209e-19)
(1.3058 0.239737 -7.23779e-12)
(0.0311976 -0.00384278 7.30519e-20)
(0.128215 -0.00651522 -2.13654e-19)
(0.259457 0.00607626 -1.88053e-19)
(0.417387 0.0305101 2.82096e-20)
(0.59115 0.0648769 1.24227e-19)
(0.766444 0.105642 -2.12969e-20)
(0.928069 0.147719 -2.34219e-20)
(1.06372 0.18601 1.03e-19)
(1.16688 0.2168 2.49469e-19)
(1.23737 0.238441 1.65739e-19)
(1.27979 0.251203 -9.53123e-21)
(1.30112 0.256582 8.47352e-20)
(1.30844 0.256569 -7.08026e-20)
(1.30757 0.25305 -3.76578e-20)
(1.30266 0.246748 4.59085e-20)
(0.0385416 -0.00383257 -2.15519e-19)
(0.149856 -0.00462281 2.34334e-19)
(0.294563 0.0119124 -1.00149e-19)
(0.463683 0.041237 5.26984e-21)
(0.644495 0.0803714 1.15925e-19)
(0.821258 0.124711 -1.00479e-19)
(0.978613 0.168453 2.22678e-19)
(1.10561 0.20642 7.51225e-20)
(1.19797 0.235386 -1.70375e-19)
(1.25776 0.254441 2.71293e-20)
(1.29115 0.264523 7.52519e-20)
(1.30576 0.267564 -7.36322e-20)
(1.30861 0.265738 1.51286e-19)
(1.30506 0.260841 -3.84547e-20)
(1.29867 0.253759 -3.01734e-20)
(0.0464984 -0.00344831 1.87117e-19)
(0.172759 -0.00161851 -4.86078e-20)
(0.330916 0.0194606 6.14511e-20)
(0.510461 0.0539989 -1.21422e-19)
(0.696873 0.097831 7.13264e-20)
(0.873332 0.145299 3.43942e-21)
(1.02488 0.190055 -1.60096e-19)
(1.14236 0.227077 -2.13045e-19)
(1.2239 0.253791 6.01982e-20)
(1.27364 0.270066 -2.57742e-20)
(1.29896 0.277467 -9.36774e-20)
(1.30785 0.278275 -5.15322e-21)
(1.30708 0.274762 4.23114e-20)
(1.30146 0.268596 -4.98718e-20)
(1.29397 0.260796 9.21773e-20)
(0.055031 -0.00263548 -1.78453e-19)
(0.196759 0.00260503 -5.17648e-20)
(0.368172 0.0288085 6.61472e-20)
(0.557201 0.0688016 9.71222e-20)
(0.747683 0.117152 -4.13281e-20)
(0.922159 0.167222 -4.10315e-20)
(1.06662 0.212334 6.88803e-20)
(1.17406 0.247844 1.52313e-19)
(1.24502 0.271955 -6.98024e-20)
(1.28547 0.28533 -2.43721e-20)
(1.30371 0.290089 -4.98186e-20)
(1.30781 0.288779 -1.95754e-20)
(1.30414 0.283691 5.82808e-20)
(1.29694 0.276348 5.7857e-20)
(1.28862 0.267871 1.51607e-20)
(0.0640892 -0.00134239 -1.14703e-20)
(0.221658 0.00814055 9.49734e-20)
(0.405957 0.0400147 -8.34504e-20)
(0.603383 0.0856133 -1.59259e-20)
(0.796375 0.138202 4.3171e-20)
(0.967336 0.190291 7.86619e-20)
(1.1037 0.235112 -7.34485e-20)
(1.20087 0.268606 -7.45156e-20)
(1.2617 0.289843 8.91519e-21)
(1.29371 0.300255 6.08052e-20)
(1.30581 0.302441 9.43726e-21)
(1.30596 0.299127 -1.47768e-20)
(1.3 0.292561 -4.085e-20)
(1.29162 0.284114 9.30771e-21)
(1.2827 0.274983 -3.00667e-20)
(0.0736098 0.000478272 4.9021e-20)
(0.247233 0.0150628 -5.4266e-20)
(0.44388 0.0531063 6.97212e-20)
(0.648496 0.104366 -5.34484e-20)
(0.842461 0.160821 3.15785e-20)
(1.00856 0.214313 -2.88156e-20)
(1.1361 0.258228 2.11152e-20)
(1.22301 0.289272 7.59855e-20)
(1.27432 0.307432 -4.18026e-21)
(1.29877 0.314865 1.21173e-21)
(1.30563 0.314564 4.14879e-20)
(1.30255 0.309354 4.23902e-21)
(1.29482 0.301393 4.03747e-20)
(1.28558 0.291897 -4.76767e-20)
(1.27623 0.282123 -2.09811e-20)
(0.0835179 0.00286789 -5.32341e-21)
(0.273239 0.0234258 1.67776e-20)
(0.481534 0.0680774 -4.28138e-20)
(0.692057 0.124959 1.82075e-21)
(0.885523 0.184834 -1.16419e-20)
(1.04561 0.239096 2.83903e-21)
(1.16387 0.281536 -1.84934e-20)
(1.24076 0.309764 8.53002e-21)
(1.28323 0.324707 3.22938e-21)
(1.30102 0.329184 -2.10367e-21)
(1.30345 0.32649 6.62581e-21)
(1.29778 0.319483 5.07556e-21)
(1.28872 0.310192 -1.34621e-21)
(1.27887 0.29969 9.12791e-21)
(1.26923 0.289271 -6.77179e-21)
(0.0937276 0.00586052 -2.18462e-20)
(0.299414 0.0332603 1.34813e-20)
(0.518516 0.0848893 -2.67008e-20)
(0.733617 0.147262 2.90097e-22)
(0.925216 0.210052 -1.21465e-20)
(1.07838 0.264456 1.25882e-21)
(1.18712 0.304902 -1.92754e-20)
(1.25437 0.330019 8.68258e-21)
(1.28879 0.341659 -4.66495e-22)
(1.30076 0.343226 1.22253e-21)
(1.29953 0.338238 1.10981e-20)
(1.29181 0.329522 1.57704e-21)
(1.28176 0.318954 1.80515e-21)
(1.27152 0.307476 4.81747e-21)
(1.2617 0.296403 -3.14128e-21)
(0.104144 0.00948166 2.05939e-20)
(0.325487 0.0445728 -5.17813e-20)
(0.554431 0.103471 7.31094e-20)
(0.772771 0.171116 -3.82005e-20)
(0.96127 0.236275 -7.20794e-21)
(1.1068 0.290214 -2.35127e-20)
(1.206 0.328208 6.25487e-20)
(1.26415 0.34998 2.13733e-20)
(1.29131 0.358277 1.789e-20)
(1.29828 0.357002 -2.71966e-21)
(1.29404 0.349815 3.54336e-20)
(1.28475 0.339467 1.22078e-20)
(1.27402 0.327663 5.48358e-21)
(1.26355 0.31523 -1.96164e-20)
(1.25364 0.303488 -4.74602e-21)
(0.114662 0.0137471 5.01484e-20)
(0.351179 0.0573437 4.77666e-20)
(0.588898 0.12372 -7.6987e-20)
(0.809166 0.196345 -1.14242e-20)
(0.993482 0.2633 6.37749e-20)
(1.13089 0.316197 9.92724e-22)
(1.2207 0.351341 -1.26903e-20)
(1.27036 0.369595 -8.49319e-20)
(1.29106 0.374547 -6.24721e-21)
(1.2938 0.370511 5.46414e-20)
(1.28714 0.361217 -9.9141e-22)
(1.27669 0.349303 1.74728e-20)
(1.26551 0.336293 -4.44134e-20)
(1.25496 0.32292 3.00594e-20)
(1.24506 0.310494 -9.40185e-21)
(0.125175 0.0186622 -1.31172e-19)
(0.376212 0.0715281 -1.52459e-19)
(0.621565 0.145507 8.86321e-20)
(0.842499 0.22275 9.69332e-20)
(1.02171 0.29092 -1.27936e-20)
(1.15069 0.342241 -2.29496e-20)
(1.23142 0.3742 3.08203e-20)
(1.27328 0.388816 1.29806e-19)
(1.28831 0.390449 4.41811e-21)
(1.28751 0.383742 -2.30451e-20)
(1.27896 0.372429 -2.14462e-20)
(1.26767 0.359004 -6.07617e-20)
(1.25626 0.344813 6.40717e-20)
(1.24576 0.33051 -1.47952e-20)
(1.23596 0.317385 6.75523e-20)
(0.13557 0.0242213 2.60637e-19)
(0.400316 0.0870556 -1.97521e-20)
(0.652108 0.168676 1.14699e-20)
(0.872524 0.250124 1.84159e-20)
(1.04588 0.318929 -2.61487e-20)
(1.16631 0.368187 2.48369e-20)
(1.23837 0.396686 -1.85055e-19)
(1.27314 0.407592 -1.15572e-19)
(1.28326 0.40596 -3.59154e-20)
(1.27956 0.396676 -8.80379e-21)
(1.26957 0.383425 -5.36105e-20)
(1.25776 0.368537 1.66051e-20)
(1.2463 0.353185 -3.70542e-20)
(1.23596 0.337959 1.46486e-21)
(1.22633 0.32412 1.78432e-20)
(0.145734 0.0304077 -2.23258e-19)
(0.423232 0.103832 1.65296e-19)
(0.680239 0.19305 4.06816e-20)
(0.899046 0.278245 2.84922e-20)
(1.06596 0.347123 -4.11452e-21)
(1.17786 0.393884 1.04683e-19)
(1.24177 0.418706 1.51549e-19)
(1.27017 0.425872 -1.76211e-20)
(1.27611 0.421048 -5.77855e-20)
(1.27008 0.409283 -2.73336e-20)
(1.25906 0.39417 9.7773e-20)
(1.24696 0.377861 -3.13715e-20)
(1.23561 0.361364 -1.69251e-21)
(1.22554 0.345215 3.28847e-20)
(1.2162 0.330658 -5.04342e-21)
(0.155554 0.0371934 2.41323e-19)
(0.444718 0.121742 -2.89318e-19)
(0.70571 0.218433 -8.27085e-20)
(0.921922 0.306887 1.24299e-19)
(1.08195 0.3753 -6.73099e-20)
(1.1855 0.419184 -1.44557e-19)
(1.24182 0.440168 6.74466e-20)
(1.26459 0.443602 1.67156e-19)
(1.26701 0.435673 1.87336e-19)
(1.25918 0.421527 1.81751e-19)
(1.24748 0.404624 -4.31447e-21)
(1.23532 0.386931 2.93781e-20)
(1.22421 0.369299 -9.24558e-20)
(1.21452 0.35222 1.78786e-20)
(1.20555 0.336943 1.32015e-20)
(0.164921 0.0445397 1.56507e-19)
(0.464551 0.140648 -7.86888e-21)
(0.728311 0.244613 3.04198e-19)
(0.941057 0.33582 -3.45028e-19)
(1.09392 0.403263 5.5208e-20)
(1.18938 0.443947 9.95308e-21)
(1.23874 0.460983 -1.61292e-19)
(1.25658 0.460722 -2.37897e-19)
(1.25612 0.449792 -1.16936e-19)
(1.24695 0.433363 -1.46833e-19)
(1.23488 0.414741 2.48209e-20)
(1.22284 0.395703 -8.87601e-21)
(1.2121 0.376944 3.25056e-20)
(1.20286 0.358916 -4.06504e-20)
(1.19431 0.342916 5.89036e-21)