/*--------------------------------*- C++ -*----------------------------------*\
  =========                 |
  \\      /  F ield         | OpenFOAM: The Open Source CFD Toolbox
   \\    /   O peration     | Website:  https://openfoam.org
    \\  /    A nd           | Version:  7
     \\/     M anipulation  |
\*---------------------------------------------------------------------------*/
FoamFile
{
    version     2.0;
    format      ascii;
    class       volScalarField;
    location    "10";
    object      p;
}
// * * * * * * * * * * * * * * * * * * * * * * * * * * * * * * * * * * * * * //

dimensions      [0 2 -2 0 0 0 0];

internalField   nonuniform List<scalar> 
14800
(
-0.313562
-0.315467
-0.316598
-0.317507
-0.318348
-0.319161
-0.320005
-0.320924
-0.321954
-0.323125
-0.324468
-0.326021
-0.327829
-0.329938
-0.332458
-0.313764
-0.31564
-0.316755
-0.317653
-0.318485
-0.319289
-0.320125
-0.321037
-0.322059
-0.323221
-0.324554
-0.326095
-0.32789
-0.32998
-0.332479
-0.314162
-0.31598
-0.317065
-0.317941
-0.318754
-0.319542
-0.320362
-0.321258
-0.322263
-0.323406
-0.324718
-0.326236
-0.328006
-0.330057
-0.332514
-0.314746
-0.316481
-0.317522
-0.318365
-0.319148
-0.319911
-0.320707
-0.321578
-0.322557
-0.323671
-0.32495
-0.326431
-0.328163
-0.330156
-0.332547
-0.315501
-0.31713
-0.318113
-0.318913
-0.319658
-0.320386
-0.321149
-0.321986
-0.322928
-0.324001
-0.325233
-0.326663
-0.328341
-0.330258
-0.332557
-0.316409
-0.317914
-0.318827
-0.319574
-0.320271
-0.320955
-0.321673
-0.322465
-0.323358
-0.324377
-0.325548
-0.32691
-0.328517
-0.330339
-0.332516
-0.317449
-0.318814
-0.319649
-0.320333
-0.320973
-0.321602
-0.322265
-0.322999
-0.323829
-0.32478
-0.325873
-0.327148
-0.328667
-0.330375
-0.332397
-0.318598
-0.319815
-0.320563
-0.321176
-0.321749
-0.322312
-0.322908
-0.323571
-0.324324
-0.325189
-0.326186
-0.327354
-0.328763
-0.330344
-0.332169
-0.319835
-0.320899
-0.321555
-0.32209
-0.322585
-0.323071
-0.323587
-0.324164
-0.324824
-0.325586
-0.326467
-0.327507
-0.328784
-0.330226
-0.331799
-0.321138
-0.322049
-0.32261
-0.323059
-0.323469
-0.323866
-0.324289
-0.324764
-0.325314
-0.325954
-0.326701
-0.327588
-0.328709
-0.330008
-0.331222
-0.322488
-0.323253
-0.323715
-0.324073
-0.324388
-0.324685
-0.325
-0.32536
-0.325783
-0.326283
-0.326874
-0.327586
-0.328521
-0.329686
-0.330389
-0.32387
-0.324497
-0.324861
-0.325123
-0.325334
-0.32552
-0.325715
-0.325943
-0.326222
-0.326565
-0.326982
-0.327496
-0.328196
-0.329221
-0.329684
-0.325272
-0.325773
-0.326041
-0.326202
-0.326302
-0.326366
-0.326427
-0.32651
-0.326631
-0.326801
-0.327027
-0.327331
-0.327822
-0.328515
-0.328799
-0.326689
-0.327078
-0.32725
-0.327307
-0.327288
-0.32722
-0.327135
-0.32706
-0.327011
-0.326995
-0.327016
-0.327093
-0.327338
-0.327728
-0.32767
-0.328119
-0.32841
-0.32849
-0.328439
-0.328293
-0.328083
-0.327843
-0.327599
-0.327369
-0.327158
-0.326965
-0.3268
-0.326777
-0.32687
-0.326326
-0.329567
-0.329773
-0.329762
-0.329599
-0.32932
-0.32896
-0.328555
-0.328135
-0.327716
-0.327305
-0.326895
-0.326481
-0.326176
-0.325966
-0.324775
-0.331041
-0.331176
-0.331074
-0.330795
-0.330377
-0.329858
-0.329281
-0.328678
-0.328067
-0.327455
-0.326828
-0.326166
-0.32557
-0.325057
-0.323022
-0.332558
-0.33263
-0.332438
-0.332037
-0.331472
-0.330788
-0.330032
-0.329241
-0.328437
-0.327626
-0.32679
-0.325886
-0.324998
-0.324194
-0.321083
-0.334136
-0.334151
-0.333865
-0.333337
-0.332618
-0.331761
-0.33082
-0.329839
-0.328842
-0.327837
-0.326801
-0.325668
-0.324493
-0.323423
-0.319003
-0.3358
-0.335759
-0.335373
-0.33471
-0.333829
-0.332792
-0.331661
-0.330486
-0.329298
-0.328103
-0.326878
-0.325531
-0.324084
-0.322773
-0.316869
-0.337576
-0.337474
-0.33698
-0.336174
-0.335122
-0.333896
-0.332569
-0.331198
-0.329818
-0.328439
-0.327034
-0.325486
-0.323788
-0.322238
-0.314832
-0.339496
-0.339324
-0.338707
-0.337747
-0.336513
-0.335091
-0.333562
-0.331991
-0.330419
-0.328857
-0.327276
-0.325533
-0.323618
-0.321736
-0.313024
-0.34159
-0.341327
-0.340582
-0.339451
-0.338023
-0.336396
-0.334658
-0.332882
-0.331115
-0.329371
-0.327616
-0.325683
-0.323605
-0.321085
-0.311418
-0.343893
-0.343516
-0.342623
-0.341307
-0.339673
-0.33783
-0.335875
-0.33389
-0.331924
-0.329996
-0.328071
-0.325972
-0.32386
-0.320298
-0.310545
-0.346436
-0.345919
-0.344856
-0.343338
-0.341483
-0.339413
-0.337234
-0.335032
-0.332863
-0.330746
-0.328658
-0.326429
-0.324484
-0.320132
-0.314227
-0.349255
-0.348559
-0.347306
-0.345567
-0.343476
-0.341167
-0.338754
-0.336329
-0.333949
-0.331634
-0.329374
-0.327006
-0.32523
-0.32107
-0.327634
-0.352375
-0.351469
-0.349997
-0.348017
-0.345674
-0.343113
-0.340458
-0.3378
-0.335198
-0.33267
-0.330209
-0.327654
-0.325836
-0.321662
-0.328195
-0.35583
-0.354672
-0.352954
-0.350712
-0.348099
-0.345274
-0.342365
-0.339466
-0.336627
-0.333861
-0.331156
-0.328341
-0.326194
-0.32183
-0.326132
-0.359648
-0.358193
-0.356201
-0.353674
-0.350774
-0.347672
-0.344499
-0.341344
-0.33825
-0.335213
-0.332204
-0.329042
-0.326355
-0.321658
-0.323503
-0.363855
-0.362057
-0.359762
-0.356927
-0.353722
-0.35033
-0.346879
-0.343452
-0.340077
-0.336723
-0.333339
-0.329726
-0.326344
-0.32116
-0.320567
-0.368474
-0.366286
-0.363658
-0.360495
-0.356968
-0.35327
-0.349527
-0.345806
-0.34211
-0.338383
-0.334537
-0.330363
-0.326165
-0.320351
-0.317583
-0.373527
-0.370901
-0.367912
-0.364399
-0.360534
-0.356516
-0.352461
-0.348414
-0.34435
-0.340175
-0.335769
-0.33092
-0.325818
-0.319256
-0.314633
-0.379033
-0.375922
-0.372545
-0.368663
-0.364443
-0.360087
-0.355695
-0.351281
-0.346784
-0.342073
-0.337
-0.331363
-0.325291
-0.317902
-0.311724
-0.385006
-0.381365
-0.377576
-0.373307
-0.368715
-0.364002
-0.359239
-0.354404
-0.349392
-0.344041
-0.338189
-0.33166
-0.324568
-0.316305
-0.308822
-0.391459
-0.387244
-0.38302
-0.378349
-0.373369
-0.368272
-0.363094
-0.357766
-0.352143
-0.346036
-0.339288
-0.331774
-0.323632
-0.314473
-0.30588
-0.398397
-0.393568
-0.38889
-0.383803
-0.378417
-0.372902
-0.36725
-0.361342
-0.354992
-0.348005
-0.34025
-0.331674
-0.322463
-0.312408
-0.302848
-0.405818
-0.400339
-0.395193
-0.389677
-0.383861
-0.377884
-0.371684
-0.365089
-0.357885
-0.349888
-0.341023
-0.331325
-0.321042
-0.310104
-0.299683
-0.413713
-0.407554
-0.401928
-0.39597
-0.389695
-0.3832
-0.376359
-0.368953
-0.360755
-0.351623
-0.341558
-0.330698
-0.31935
-0.307554
-0.296346
-0.422063
-0.415198
-0.409084
-0.402671
-0.3959
-0.388813
-0.381221
-0.372863
-0.363529
-0.353143
-0.341807
-0.329763
-0.31737
-0.304745
-0.292804
-0.430834
-0.423248
-0.416642
-0.409756
-0.40244
-0.394672
-0.386198
-0.376739
-0.366126
-0.354383
-0.341726
-0.328494
-0.315081
-0.30166
-0.289028
-0.439983
-0.431666
-0.424565
-0.417184
-0.409263
-0.400706
-0.391205
-0.380487
-0.368463
-0.355279
-0.341271
-0.326862
-0.312464
-0.298281
-0.284992
-0.449449
-0.440402
-0.432805
-0.4249
-0.416297
-0.406825
-0.39614
-0.384009
-0.370457
-0.35577
-0.340403
-0.324841
-0.309496
-0.294588
-0.280669
-0.459158
-0.449389
-0.441297
-0.432829
-0.423453
-0.412926
-0.400893
-0.387201
-0.372023
-0.355797
-0.339081
-0.322401
-0.306153
-0.290558
-0.276036
-0.469016
-0.458546
-0.449955
-0.440878
-0.430621
-0.418885
-0.405341
-0.389958
-0.373083
-0.355305
-0.337266
-0.319513
-0.30241
-0.286165
-0.271068
-0.478915
-0.467772
-0.45868
-0.448932
-0.437674
-0.42457
-0.409359
-0.392176
-0.373559
-0.354239
-0.334921
-0.316146
-0.298238
-0.281384
-0.265741
-0.488732
-0.476953
-0.467352
-0.456863
-0.444472
-0.429839
-0.412819
-0.393755
-0.373379
-0.35255
-0.332007
-0.312268
-0.293609
-0.276186
-0.26003
-0.498325
-0.485956
-0.475834
-0.464522
-0.450859
-0.434542
-0.415596
-0.394597
-0.372475
-0.350186
-0.328485
-0.307846
-0.288492
-0.270546
-0.253913
-0.507539
-0.494634
-0.483973
-0.471748
-0.456672
-0.438529
-0.417566
-0.394612
-0.370781
-0.347101
-0.324316
-0.302846
-0.282858
-0.264435
-0.247367
-0.51621
-0.502826
-0.491605
-0.478369
-0.461743
-0.441653
-0.418612
-0.393715
-0.368236
-0.343248
-0.319462
-0.297235
-0.276677
-0.257827
-0.24037
-0.524159
-0.51036
-0.498551
-0.484206
-0.465902
-0.443769
-0.418626
-0.391827
-0.364784
-0.338584
-0.313886
-0.290979
-0.26992
-0.250696
-0.232904
-0.531205
-0.517057
-0.50463
-0.489075
-0.468982
-0.444742
-0.417506
-0.388877
-0.360372
-0.333066
-0.307553
-0.284049
-0.26256
-0.243019
-0.224951
-0.537159
-0.52273
-0.509651
-0.492794
-0.470824
-0.444445
-0.415161
-0.384801
-0.354951
-0.326655
-0.300428
-0.276413
-0.254569
-0.234774
-0.216493
-0.541834
-0.527193
-0.513428
-0.495186
-0.471275
-0.442765
-0.41151
-0.37954
-0.348479
-0.319315
-0.292481
-0.268047
-0.245926
-0.22594
-0.207516
-0.545045
-0.53026
-0.515778
-0.496083
-0.470199
-0.439599
-0.406482
-0.373045
-0.340918
-0.311015
-0.283684
-0.258925
-0.236611
-0.216504
-0.19801
-0.546613
-0.531753
-0.516525
-0.495327
-0.467472
-0.43486
-0.400018
-0.365273
-0.332233
-0.301726
-0.274012
-0.249027
-0.226606
-0.206457
-0.187985
-0.546371
-0.5315
-0.515505
-0.492779
-0.462986
-0.428474
-0.392069
-0.356191
-0.322398
-0.291426
-0.263446
-0.238332
-0.215889
-0.19579
-0.177457
-0.544162
-0.529345
-0.512571
-0.488314
-0.456653
-0.420383
-0.382598
-0.345772
-0.311395
-0.280099
-0.25197
-0.226825
-0.204443
-0.184476
-0.166372
-0.539847
-0.525146
-0.507591
-0.481829
-0.448402
-0.410545
-0.37158
-0.334001
-0.299209
-0.267734
-0.239578
-0.214503
-0.192268
-0.172484
-0.15453
-0.533305
-0.518779
-0.500455
-0.473241
-0.43818
-0.39893
-0.359
-0.320869
-0.285838
-0.25433
-0.22627
-0.201375
-0.179394
-0.15984
-0.141792
-0.524435
-0.510142
-0.491076
-0.462487
-0.425955
-0.385527
-0.344855
-0.306377
-0.271282
-0.239888
-0.212048
-0.187446
-0.165839
-0.146608
-0.128602
-0.51316
-0.499155
-0.479388
-0.449531
-0.411713
-0.370337
-0.329155
-0.290537
-0.255553
-0.22442
-0.196922
-0.172723
-0.151582
-0.132639
-0.115221
-0.499423
-0.485761
-0.465351
-0.434353
-0.395457
-0.353375
-0.31192
-0.273368
-0.238668
-0.207942
-0.180919
-0.157249
-0.136621
-0.118104
-0.101395
-0.483195
-0.469928
-0.448947
-0.416961
-0.37721
-0.334673
-0.293179
-0.254899
-0.220655
-0.190485
-0.164063
-0.141022
-0.121003
-0.103028
-0.0870676
-0.46447
-0.45165
-0.430185
-0.397379
-0.357011
-0.314274
-0.272977
-0.235168
-0.201553
-0.172079
-0.14638
-0.124073
-0.104763
-0.0874217
-0.0722517
-0.443267
-0.430944
-0.409094
-0.375654
-0.334918
-0.292237
-0.251364
-0.214224
-0.1814
-0.152761
-0.127905
-0.106438
-0.0879329
-0.0713045
-0.0569825
-0.419628
-0.407851
-0.385727
-0.351852
-0.311008
-0.26863
-0.228402
-0.192121
-0.160247
-0.132579
-0.108683
-0.0881582
-0.0705468
-0.054707
-0.0413001
-0.393622
-0.382433
-0.360158
-0.326066
-0.285364
-0.24352
-0.204163
-0.168923
-0.138151
-0.111584
-0.0887632
-0.0692807
-0.052647
-0.0376704
-0.02525
-0.365333
-0.354782
-0.3325
-0.298429
-0.258032
-0.216994
-0.178726
-0.144702
-0.115178
-0.0898364
-0.0681995
-0.0498558
-0.034281
-0.0202455
-0.00888971
-0.334862
-0.325013
-0.302891
-0.269049
-0.229074
-0.18916
-0.152184
-0.119539
-0.091399
-0.0674001
-0.0470512
-0.0299385
-0.015501
-0.00249088
0.00770759
-0.302329
-0.293266
-0.271437
-0.237782
-0.198867
-0.16015
-0.124634
-0.0935211
-0.0668916
-0.0443446
-0.0253823
-0.00958752
0.0036399
0.0155381
0.0244769
-0.26787
-0.259686
-0.238133
-0.205133
-0.16737
-0.130077
-0.0961852
-0.0667411
-0.041738
-0.020744
-0.00326166
0.0111334
0.0230902
0.0337986
0.0413787
-0.231615
-0.224464
-0.203243
-0.17118
-0.134733
-0.099063
-0.0669486
-0.0392973
-0.0160249
0.00332354
0.0192385
0.0321619
0.0428031
0.0522237
0.0582488
-0.193731
-0.187739
-0.167077
-0.136054
-0.101109
-0.0672388
-0.0370409
-0.0112928
0.0101569
0.027778
0.0420516
0.053457
0.062746
0.0706252
0.0745081
-0.154663
-0.14958
-0.129737
-0.0999234
-0.0666583
-0.0347425
-0.00658422
0.0171638
0.0367115
0.0525373
0.0651216
0.0750086
0.0829022
0.0887413
0.0895346
-0.114461
-0.110269
-0.0913974
-0.0629659
-0.031543
-0.00171829
0.0242938
0.0459587
0.063537
0.0775142
0.08839
0.0967838
0.103198
0.106586
0.104552
-0.07329
-0.070054
-0.0522575
-0.0253657
0.004069
0.0316852
0.055461
0.0749731
0.0905261
0.102615
0.111771
0.11865
0.123401
0.12434
0.124176
-0.0313776
-0.0291526
-0.0125252
0.0126874
0.0400069
0.0653157
0.0867816
0.104085
0.117569
0.12774
0.135153
0.140426
0.143464
0.142941
0.143845
0.0110425
0.0122175
0.027587
0.0509995
0.0760971
0.0990187
0.118118
0.13317
0.144554
0.152787
0.15843
0.162047
0.163453
0.161785
0.16245
0.0537371
0.053834
0.0678653
0.0893754
0.112165
0.132638
0.149329
0.162103
0.171367
0.177648
0.181501
0.183445
0.183298
0.180533
0.180402
0.0964719
0.0954717
0.108095
0.127619
0.148035
0.166019
0.180278
0.190759
0.197895
0.202217
0.204272
0.204543
0.202877
0.198955
0.197758
0.139013
0.136904
0.148063
0.165537
0.183534
0.199005
0.210823
0.219011
0.224024
0.226392
0.226651
0.225259
0.22209
0.216959
0.214563
0.181127
0.177906
0.187556
0.202935
0.218488
0.231442
0.240828
0.246737
0.249642
0.250071
0.248547
0.245508
0.240849
0.234483
0.230815
0.222583
0.218254
0.226366
0.239624
0.25273
0.26318
0.270158
0.273815
0.27464
0.273156
0.269873
0.265209
0.25908
0.251473
0.246497
0.263155
0.257729
0.264289
0.275419
0.286092
0.29407
0.298679
0.300126
0.298911
0.29555
0.290543
0.284287
0.276716
0.267878
0.261581
0.302622
0.296118
0.301124
0.310139
0.318414
0.323969
0.326263
0.325554
0.32235
0.317162
0.310474
0.302666
0.293691
0.283647
0.276032
0.340769
0.333212
0.336679
0.343611
0.349541
0.352737
0.352785
0.349988
0.344858
0.337902
0.329586
0.320277
0.309945
0.298729
0.289813
0.377389
0.368811
0.370768
0.375667
0.379321
0.38024
0.378126
0.373319
0.366339
0.357682
0.347803
0.33705
0.325417
0.313074
0.302884
0.412284
0.402726
0.403214
0.406146
0.407613
0.406351
0.40217
0.395446
0.3867
0.376421
0.36505
0.352922
0.340052
0.326631
0.315205
0.445265
0.434773
0.433848
0.434897
0.43428
0.430949
0.424809
0.41627
0.405853
0.394041
0.381259
0.36783
0.353792
0.339351
0.32674
0.476156
0.464782
0.462514
0.461778
0.459196
0.453918
0.44594
0.435699
0.423717
0.410467
0.396362
0.381715
0.366586
0.351189
0.337451
0.504789
0.492592
0.489062
0.486656
0.482241
0.475153
0.465469
0.453648
0.440213
0.42563
0.410299
0.394523
0.378385
0.3621
0.347303
0.531013
0.518058
0.513357
0.509407
0.503306
0.494555
0.483306
0.470037
0.455271
0.439466
0.423012
0.406202
0.389142
0.372044
0.356265
0.554686
0.541043
0.535274
0.52992
0.522289
0.512035
0.49937
0.484794
0.468826
0.451918
0.434449
0.416706
0.398815
0.380981
0.364307
0.575683
0.561426
0.554702
0.548095
0.539102
0.52751
0.51359
0.497852
0.480818
0.462932
0.444562
0.425992
0.407365
0.388879
0.371403
0.593891
0.579101
0.571541
0.563841
0.553663
0.540911
0.5259
0.509155
0.491196
0.472461
0.453311
0.434023
0.414759
0.395706
0.377528
0.609215
0.593973
0.585707
0.577082
0.565905
0.552174
0.536245
0.518652
0.499914
0.480464
0.460657
0.440766
0.420967
0.401437
0.382664
0.621572
0.605966
0.597126
0.587753
0.575768
0.561247
0.544577
0.526301
0.506935
0.486909
0.466571
0.446194
0.425964
0.406048
0.386793
0.630898
0.615016
0.605741
0.595803
0.583207
0.568089
0.55086
0.532067
0.512227
0.491766
0.471029
0.450285
0.429729
0.409523
0.389902
0.637142
0.621075
0.611509
0.601191
0.588186
0.572668
0.555064
0.535926
0.515768
0.495016
0.474011
0.453021
0.432248
0.411846
0.39198
0.640273
0.624113
0.6144
0.603891
0.590681
0.574963
0.557171
0.53786
0.517543
0.496645
0.475505
0.454392
0.433509
0.413011
0.39302
0.640273
0.624113
0.6144
0.603891
0.590681
0.574963
0.557171
0.53786
0.517543
0.496645
0.475505
0.454392
0.433509
0.413011
0.39302
0.637142
0.621075
0.611509
0.601191
0.588186
0.572668
0.555064
0.535926
0.515768
0.495016
0.474011
0.453021
0.432248
0.411846
0.39198
0.630898
0.615016
0.605741
0.595803
0.583207
0.568089
0.55086
0.532067
0.512227
0.491766
0.471029
0.450285
0.429729
0.409523
0.389902
0.621572
0.605966
0.597126
0.587753
0.575768
0.561247
0.544577
0.526301
0.506935
0.486909
0.466572
0.446194
0.425964
0.406048
0.386793
0.609215
0.593973
0.585707
0.577082
0.565905
0.552174
0.536245
0.518652
0.499914
0.480464
0.460657
0.440766
0.420967
0.401437
0.382664
0.593891
0.579101
0.571541
0.563841
0.553663
0.540911
0.5259
0.509155
0.491196
0.472461
0.453311
0.434023
0.414759
0.395706
0.377529
0.575683
0.561426
0.554702
0.548095
0.539102
0.52751
0.51359
0.497853
0.480818
0.462932
0.444562
0.425992
0.407365
0.388879
0.371403
0.554686
0.541043
0.535274
0.52992
0.522289
0.512035
0.49937
0.484794
0.468826
0.451918
0.434449
0.416706
0.398815
0.380981
0.364307
0.531013
0.518058
0.513357
0.509407
0.503306
0.494555
0.483306
0.470037
0.455271
0.439467
0.423012
0.406202
0.389142
0.372044
0.356265
0.504789
0.492593
0.489062
0.486656
0.482241
0.475153
0.465469
0.453648
0.440213
0.42563
0.410299
0.394523
0.378385
0.3621
0.347303
0.476156
0.464782
0.462514
0.461778
0.459196
0.453918
0.445941
0.435699
0.423717
0.410467
0.396362
0.381715
0.366586
0.351189
0.337451
0.445265
0.434773
0.433849
0.434898
0.434281
0.430949
0.424809
0.41627
0.405853
0.394041
0.381259
0.36783
0.353792
0.339352
0.32674
0.412284
0.402726
0.403214
0.406146
0.407613
0.406351
0.40217
0.395446
0.3867
0.376421
0.36505
0.352922
0.340052
0.326631
0.315205
0.377389
0.368812
0.370768
0.375667
0.379321
0.38024
0.378126
0.373319
0.366339
0.357682
0.347803
0.33705
0.325418
0.313074
0.302884
0.340769
0.333212
0.336679
0.343612
0.349541
0.352737
0.352785
0.349988
0.344859
0.337902
0.329586
0.320277
0.309945
0.29873
0.289813
0.302622
0.296118
0.301124
0.31014
0.318415
0.323969
0.326263
0.325555
0.32235
0.317162
0.310474
0.302666
0.293691
0.283647
0.276033
0.263155
0.25773
0.264289
0.275419
0.286092
0.29407
0.298679
0.300126
0.298911
0.295551
0.290543
0.284287
0.276716
0.267878
0.261582
0.222583
0.218254
0.226367
0.239624
0.25273
0.26318
0.270158
0.273816
0.27464
0.273156
0.269873
0.26521
0.259081
0.251473
0.246497
0.181127
0.177906
0.187556
0.202935
0.218489
0.231442
0.240829
0.246738
0.249643
0.250071
0.248547
0.245508
0.240849
0.234483
0.230815
0.139013
0.136905
0.148063
0.165537
0.183534
0.199005
0.210823
0.219012
0.224024
0.226392
0.226651
0.225259
0.22209
0.21696
0.214563
0.0964724
0.0954721
0.108095
0.12762
0.148035
0.166019
0.180278
0.190759
0.197896
0.202218
0.204272
0.204544
0.202877
0.198955
0.197759
0.0537375
0.0538345
0.0678657
0.0893758
0.112165
0.132639
0.14933
0.162104
0.171368
0.177648
0.181502
0.183446
0.183299
0.180533
0.180402
0.011043
0.012218
0.0275874
0.0509999
0.0760975
0.099019
0.118118
0.13317
0.144554
0.152787
0.15843
0.162047
0.163453
0.161785
0.16245
-0.0313771
-0.0291521
-0.0125248
0.0126878
0.0400073
0.065316
0.086782
0.104085
0.117569
0.127741
0.135153
0.140426
0.143464
0.142942
0.143845
-0.0732895
-0.0700535
-0.052257
-0.0253653
0.00406941
0.0316855
0.0554614
0.0749735
0.0905264
0.102615
0.111771
0.11865
0.123401
0.12434
0.124177
-0.11446
-0.110268
-0.0913969
-0.0629655
-0.0315426
-0.00171789
0.0242942
0.045959
0.0635373
0.0775146
0.0883903
0.0967841
0.103199
0.106586
0.104552
-0.154662
-0.14958
-0.129737
-0.099923
-0.0666579
-0.0347421
-0.00658383
0.0171641
0.0367118
0.0525376
0.0651219
0.0750089
0.0829025
0.0887416
0.0895349
-0.193731
-0.187739
-0.167076
-0.136054
-0.101109
-0.0672383
-0.0370405
-0.0112925
0.0101572
0.0277784
0.0420519
0.0534573
0.0627463
0.0706255
0.0745084
-0.231614
-0.224464
-0.203243
-0.17118
-0.134732
-0.0990626
-0.0669482
-0.0392969
-0.0160246
0.00332389
0.0192389
0.0321622
0.0428034
0.0522239
0.0582491
-0.26787
-0.259685
-0.238132
-0.205132
-0.16737
-0.130077
-0.0961847
-0.0667407
-0.0417377
-0.0207437
-0.00326131
0.0111337
0.0230905
0.0337989
0.041379
-0.302329
-0.293265
-0.271436
-0.237781
-0.198866
-0.16015
-0.124634
-0.0935207
-0.0668912
-0.0443442
-0.0253819
-0.00958718
0.00364022
0.0155384
0.0244772
-0.334861
-0.325013
-0.302891
-0.269049
-0.229073
-0.189159
-0.152183
-0.119538
-0.0913986
-0.0673997
-0.0470509
-0.0299381
-0.0155007
-0.00249056
0.00770789
-0.365332
-0.354781
-0.332499
-0.298428
-0.258032
-0.216993
-0.178726
-0.144702
-0.115178
-0.089836
-0.0681991
-0.0498555
-0.0342807
-0.0202452
-0.0088894
-0.393621
-0.382433
-0.360158
-0.326066
-0.285364
-0.243519
-0.204163
-0.168923
-0.138151
-0.111584
-0.0887628
-0.0692803
-0.0526466
-0.03767
-0.0252497
-0.419628
-0.40785
-0.385726
-0.351851
-0.311007
-0.26863
-0.228401
-0.192121
-0.160246
-0.132578
-0.108683
-0.0881579
-0.0705465
-0.0547067
-0.0412998
-0.443266
-0.430943
-0.409093
-0.375654
-0.334917
-0.292236
-0.251364
-0.214224
-0.181399
-0.152761
-0.127905
-0.106437
-0.0879325
-0.0713042
-0.0569821
-0.464469
-0.45165
-0.430184
-0.397378
-0.35701
-0.314274
-0.272976
-0.235168
-0.201552
-0.172078
-0.146379
-0.124072
-0.104763
-0.0874213
-0.0722513
-0.483195
-0.469928
-0.448946
-0.41696
-0.377209
-0.334673
-0.293179
-0.254899
-0.220655
-0.190485
-0.164063
-0.141022
-0.121003
-0.103027
-0.0870672
-0.499423
-0.48576
-0.46535
-0.434353
-0.395456
-0.353375
-0.311919
-0.273368
-0.238668
-0.207942
-0.180919
-0.157249
-0.13662
-0.118103
-0.101395
-0.513159
-0.499154
-0.479388
-0.44953
-0.411712
-0.370336
-0.329155
-0.290537
-0.255552
-0.224419
-0.196922
-0.172722
-0.151582
-0.132638
-0.11522
-0.524435
-0.510142
-0.491076
-0.462487
-0.425955
-0.385526
-0.344855
-0.306377
-0.271281
-0.239888
-0.212047
-0.187445
-0.165838
-0.146607
-0.128601
-0.533304
-0.518779
-0.500455
-0.47324
-0.43818
-0.39893
-0.358999
-0.320868
-0.285837
-0.254329
-0.226269
-0.201374
-0.179394
-0.15984
-0.141792
-0.539846
-0.525145
-0.50759
-0.481829
-0.448401
-0.410544
-0.371579
-0.334
-0.299209
-0.267734
-0.239578
-0.214503
-0.192268
-0.172484
-0.154529
-0.544161
-0.529345
-0.51257
-0.488314
-0.456653
-0.420383
-0.382598
-0.345771
-0.311394
-0.280098
-0.25197
-0.226825
-0.204443
-0.184476
-0.166371
-0.54637
-0.5315
-0.515504
-0.492778
-0.462986
-0.428473
-0.392069
-0.35619
-0.322398
-0.291425
-0.263445
-0.238332
-0.215889
-0.195789
-0.177457
-0.546612
-0.531752
-0.516524
-0.495327
-0.467471
-0.434859
-0.400017
-0.365272
-0.332232
-0.301725
-0.274012
-0.249027
-0.226605
-0.206456
-0.187985
-0.545044
-0.530259
-0.515777
-0.496082
-0.470198
-0.439598
-0.406481
-0.373044
-0.340917
-0.311014
-0.283683
-0.258925
-0.236611
-0.216503
-0.19801
-0.541833
-0.527192
-0.513427
-0.495185
-0.471274
-0.442764
-0.411509
-0.379539
-0.348479
-0.319314
-0.29248
-0.268046
-0.245926
-0.22594
-0.207516
-0.537159
-0.522729
-0.50965
-0.492793
-0.470823
-0.444445
-0.41516
-0.3848
-0.354951
-0.326654
-0.300428
-0.276413
-0.254569
-0.234773
-0.216493
-0.531205
-0.517056
-0.504629
-0.489074
-0.468982
-0.444741
-0.417505
-0.388877
-0.360371
-0.333065
-0.307552
-0.284048
-0.262559
-0.243019
-0.22495
-0.524159
-0.510359
-0.498551
-0.484205
-0.465901
-0.443768
-0.418625
-0.391827
-0.364783
-0.338583
-0.313886
-0.290979
-0.26992
-0.250695
-0.232903
-0.516209
-0.502825
-0.491604
-0.478369
-0.461742
-0.441652
-0.418612
-0.393714
-0.368235
-0.343248
-0.319461
-0.297234
-0.276677
-0.257826
-0.240369
-0.507539
-0.494633
-0.483972
-0.471748
-0.456672
-0.438528
-0.417565
-0.394611
-0.37078
-0.347101
-0.324315
-0.302845
-0.282858
-0.264434
-0.247366
-0.498324
-0.485956
-0.475833
-0.464521
-0.450858
-0.434541
-0.415595
-0.394596
-0.372474
-0.350186
-0.328484
-0.307846
-0.288492
-0.270545
-0.253913
-0.488731
-0.476953
-0.467351
-0.456862
-0.444471
-0.429838
-0.412819
-0.393754
-0.373379
-0.352549
-0.332006
-0.312268
-0.293608
-0.276186
-0.26003
-0.478915
-0.467772
-0.45868
-0.448932
-0.437674
-0.42457
-0.409358
-0.392176
-0.373559
-0.354239
-0.334921
-0.316146
-0.298237
-0.281383
-0.26574
-0.469015
-0.458545
-0.449955
-0.440877
-0.43062
-0.418885
-0.40534
-0.389958
-0.373082
-0.355304
-0.337266
-0.319513
-0.302409
-0.286165
-0.271068
-0.459157
-0.449388
-0.441296
-0.432829
-0.423452
-0.412925
-0.400892
-0.387201
-0.372022
-0.355797
-0.33908
-0.3224
-0.306153
-0.290557
-0.276036
-0.449449
-0.440401
-0.432805
-0.4249
-0.416296
-0.406825
-0.39614
-0.384009
-0.370456
-0.355769
-0.340402
-0.32484
-0.309495
-0.294588
-0.280669
-0.439982
-0.431665
-0.424564
-0.417183
-0.409262
-0.400705
-0.391204
-0.380486
-0.368463
-0.355278
-0.341271
-0.326861
-0.312463
-0.298281
-0.284991
-0.430834
-0.423247
-0.416641
-0.409755
-0.402439
-0.394671
-0.386197
-0.376738
-0.366126
-0.354382
-0.341725
-0.328493
-0.31508
-0.301659
-0.289028
-0.422062
-0.415197
-0.409084
-0.402671
-0.395899
-0.388813
-0.38122
-0.372863
-0.363529
-0.353142
-0.341806
-0.329763
-0.317369
-0.304744
-0.292803
-0.413713
-0.407553
-0.401927
-0.39597
-0.389694
-0.383199
-0.376359
-0.368952
-0.360755
-0.351622
-0.341557
-0.330697
-0.31935
-0.307554
-0.296345
-0.405818
-0.400339
-0.395193
-0.389677
-0.38386
-0.377884
-0.371684
-0.365089
-0.357884
-0.349888
-0.341022
-0.331324
-0.321041
-0.310104
-0.299682
-0.398396
-0.393567
-0.38889
-0.383803
-0.378416
-0.372901
-0.367249
-0.361341
-0.354991
-0.348004
-0.340249
-0.331673
-0.322463
-0.312407
-0.302847
-0.391459
-0.387243
-0.383019
-0.378349
-0.373369
-0.368272
-0.363093
-0.357766
-0.352142
-0.346036
-0.339288
-0.331774
-0.323632
-0.314472
-0.305879
-0.385006
-0.381364
-0.377575
-0.373307
-0.368715
-0.364001
-0.359239
-0.354403
-0.349391
-0.344041
-0.338188
-0.331659
-0.324568
-0.316304
-0.308821
-0.379032
-0.375921
-0.372545
-0.368663
-0.364442
-0.360087
-0.355694
-0.351281
-0.346783
-0.342072
-0.337
-0.331363
-0.32529
-0.317902
-0.311723
-0.373526
-0.3709
-0.367912
-0.364399
-0.360533
-0.356515
-0.35246
-0.348413
-0.344349
-0.340174
-0.335768
-0.330919
-0.325817
-0.319256
-0.314632
-0.368473
-0.366285
-0.363657
-0.360494
-0.356967
-0.35327
-0.349526
-0.345805
-0.34211
-0.338382
-0.334536
-0.330362
-0.326165
-0.32035
-0.317582
-0.363854
-0.362056
-0.359761
-0.356927
-0.353722
-0.350329
-0.346879
-0.343452
-0.340076
-0.336723
-0.333338
-0.329725
-0.326343
-0.321159
-0.320567
-0.359648
-0.358193
-0.356201
-0.353673
-0.350773
-0.347671
-0.344498
-0.341343
-0.33825
-0.335212
-0.332204
-0.329041
-0.326355
-0.321657
-0.323502
-0.355829
-0.354672
-0.352954
-0.350711
-0.348098
-0.345274
-0.342365
-0.339465
-0.336627
-0.333861
-0.331155
-0.32834
-0.326193
-0.321829
-0.326131
-0.352375
-0.351469
-0.349996
-0.348016
-0.345673
-0.343113
-0.340457
-0.3378
-0.335197
-0.332669
-0.330208
-0.327654
-0.325835
-0.321661
-0.328194
-0.349255
-0.348558
-0.347305
-0.345566
-0.343476
-0.341166
-0.338754
-0.336329
-0.333948
-0.331634
-0.329373
-0.327005
-0.325229
-0.321069
-0.327634
-0.346436
-0.345918
-0.344856
-0.343337
-0.341483
-0.339412
-0.337233
-0.335032
-0.332862
-0.330745
-0.328657
-0.326428
-0.324483
-0.320131
-0.314226
-0.343892
-0.343516
-0.342623
-0.341306
-0.339672
-0.337829
-0.335875
-0.333889
-0.331924
-0.329995
-0.328071
-0.325971
-0.323859
-0.320297
-0.310545
-0.34159
-0.341326
-0.340581
-0.33945
-0.338023
-0.336395
-0.334657
-0.332882
-0.331115
-0.32937
-0.327615
-0.325682
-0.323604
-0.321084
-0.311417
-0.339495
-0.339323
-0.338707
-0.337746
-0.336513
-0.335091
-0.333562
-0.331991
-0.330418
-0.328857
-0.327275
-0.325532
-0.323617
-0.321735
-0.313023
-0.337576
-0.337474
-0.33698
-0.336173
-0.335121
-0.333896
-0.332569
-0.331197
-0.329818
-0.328439
-0.327033
-0.325485
-0.323787
-0.322237
-0.314831
-0.335799
-0.335758
-0.335372
-0.334709
-0.333829
-0.332791
-0.33166
-0.330485
-0.329297
-0.328103
-0.326877
-0.32553
-0.324083
-0.322772
-0.316868
-0.334136
-0.334151
-0.333865
-0.333336
-0.332618
-0.331761
-0.33082
-0.329838
-0.328842
-0.327836
-0.3268
-0.325667
-0.324493
-0.323422
-0.319002
-0.332557
-0.33263
-0.332437
-0.332037
-0.331472
-0.330788
-0.330031
-0.32924
-0.328437
-0.327625
-0.326789
-0.325885
-0.324997
-0.324193
-0.321082
-0.331041
-0.331176
-0.331074
-0.330795
-0.330377
-0.329858
-0.329281
-0.328677
-0.328067
-0.327454
-0.326827
-0.326165
-0.325569
-0.325056
-0.323021
-0.329566
-0.329773
-0.329761
-0.329598
-0.32932
-0.328959
-0.328555
-0.328134
-0.327716
-0.327304
-0.326894
-0.32648
-0.326175
-0.325965
-0.324774
-0.328119
-0.328409
-0.328489
-0.328438
-0.328292
-0.328082
-0.327842
-0.327599
-0.327368
-0.327157
-0.326964
-0.326799
-0.326776
-0.326869
-0.326325
-0.326689
-0.327077
-0.32725
-0.327307
-0.327287
-0.327219
-0.327135
-0.32706
-0.32701
-0.326994
-0.327015
-0.327092
-0.327337
-0.327727
-0.32767
-0.325272
-0.325773
-0.32604
-0.326202
-0.326301
-0.326365
-0.326426
-0.326509
-0.32663
-0.3268
-0.327026
-0.32733
-0.327821
-0.328514
-0.328798
-0.323869
-0.324496
-0.324861
-0.325123
-0.325334
-0.32552
-0.325714
-0.325942
-0.326222
-0.326565
-0.326982
-0.327495
-0.328195
-0.329221
-0.329683
-0.322487
-0.323252
-0.323714
-0.324073
-0.324387
-0.324685
-0.325
-0.325359
-0.325782
-0.326282
-0.326873
-0.327585
-0.32852
-0.329685
-0.330389
-0.321137
-0.322049
-0.322609
-0.323059
-0.323468
-0.323866
-0.324288
-0.324764
-0.325314
-0.325954
-0.3267
-0.327587
-0.328708
-0.330008
-0.331221
-0.319835
-0.320898
-0.321554
-0.322089
-0.322585
-0.323071
-0.323587
-0.324164
-0.324824
-0.325585
-0.326467
-0.327506
-0.328783
-0.330226
-0.331798
-0.318598
-0.319815
-0.320563
-0.321176
-0.321749
-0.322312
-0.322908
-0.32357
-0.324324
-0.325188
-0.326185
-0.327354
-0.328763
-0.330343
-0.332169
-0.317449
-0.318814
-0.319649
-0.320333
-0.320973
-0.321601
-0.322265
-0.322998
-0.323829
-0.324779
-0.325872
-0.327148
-0.328666
-0.330375
-0.332396
-0.316409
-0.317913
-0.318827
-0.319573
-0.320271
-0.320955
-0.321673
-0.322464
-0.323357
-0.324377
-0.325547
-0.326909
-0.328517
-0.330338
-0.332516
-0.315501
-0.31713
-0.318113
-0.318913
-0.319658
-0.320386
-0.321148
-0.321985
-0.322927
-0.324001
-0.325233
-0.326662
-0.328341
-0.330257
-0.332556
-0.314746
-0.316481
-0.317521
-0.318364
-0.319148
-0.319911
-0.320707
-0.321578
-0.322557
-0.323671
-0.32495
-0.326431
-0.328163
-0.330156
-0.332547
-0.314162
-0.31598
-0.317065
-0.317941
-0.318754
-0.319542
-0.320362
-0.321258
-0.322263
-0.323406
-0.324718
-0.326236
-0.328006
-0.330057
-0.332514
-0.313764
-0.31564
-0.316755
-0.317653
-0.318485
-0.319289
-0.320125
-0.321037
-0.322059
-0.323221
-0.324554
-0.326095
-0.32789
-0.32998
-0.332479
-0.313562
-0.315467
-0.316598
-0.317507
-0.318348
-0.319161
-0.320005
-0.320924
-0.321954
-0.323125
-0.324468
-0.326021
-0.327829
-0.329938
-0.332458
-0.335849
-0.339939
-0.344849
-0.350498
-0.356976
-0.364281
-0.372386
-0.381203
-0.390568
-0.400225
-0.409807
-0.418828
-0.426661
-0.432542
-0.435582
-0.434779
-0.428871
-0.416813
-0.397544
-0.37023
-0.334617
-0.291306
-0.242005