/*--------------------------------*- C++ -*----------------------------------*\
  =========                 |
  \\      /  F ield         | OpenFOAM: The Open Source CFD Toolbox
   \\    /   O peration     | Website:  https://openfoam.org
    \\  /    A nd           | Version:  7
     \\/     M anipulation  |
\*---------------------------------------------------------------------------*/
FoamFile
{
    version     2.0;
    format      ascii;
    class       volVectorField;
    location    "10";
    object      U;
}
// * * * * * * * * * * * * * * * * * * * * * * * * * * * * * * * * * * * * * //

dimensions      [0 1 -1 0 0 0 0];

internalField   nonuniform List<vector> 
14800
(
(-0.000749518 0.000799926 1.47058e-20)
(-0.00439493 0.00198016 -2.50525e-21)
(-0.0116122 0.0028471 -3.26727e-21)
(-0.0209449 0.00347433 -2.74773e-21)
(-0.0317846 0.00391298 5.21383e-21)
(-0.0437025 0.00420698 -9.75926e-21)
(-0.0563364 0.00439545 -1.03345e-20)
(-0.0694309 0.00451307 1.52109e-21)
(-0.0828259 0.00459081 1.35381e-20)
(-0.0964456 0.00465644 -2.91854e-20)
(-0.110291 0.00473478 9.53865e-21)
(-0.124434 0.00484779 9.7575e-21)
(-0.139009 0.0050132 3.26176e-21)
(-0.154168 0.00524371 3.63364e-21)
(-0.170168 0.00556288 7.80522e-21)
(-0.000836278 0.00238355 -1.26196e-20)
(-0.00457248 0.00590411 3.26842e-20)
(-0.0117926 0.00849315 1.49219e-20)
(-0.0210711 0.010368 6.23146e-21)
(-0.0318119 0.0116799 2.36636e-20)
(-0.0435929 0.0125594 1.10395e-21)
(-0.0560557 0.0131227 1.23776e-20)
(-0.0689458 0.0134731 -3.40957e-20)
(-0.0821019 0.0137029 1.04704e-20)
(-0.095445 0.0138953 -2.25877e-20)
(-0.108971 0.0141245 6.21705e-21)
(-0.122748 0.0144564 2.80996e-20)
(-0.136904 0.0149446 -7.21772e-21)
(-0.151576 0.0156278 -6.54268e-21)
(-0.167004 0.0165759 8.51967e-21)
(-0.00100683 0.00392031 -8.0958e-21)
(-0.00492251 0.00972302 -7.47617e-20)
(-0.0121495 0.0140001 2.91294e-20)
(-0.0213227 0.0171026 7.61761e-21)
(-0.0318695 0.0192761 -4.57719e-20)
(-0.0433809 0.0207334 3.40541e-20)
(-0.0555063 0.021665 -2.07807e-20)
(-0.0679929 0.0222405 7.61396e-20)
(-0.0806769 0.0226122 6.71932e-21)
(-0.0934731 0.0229174 4.45751e-20)
(-0.106368 0.0232797 -4.6513e-20)
(-0.119421 0.0238093 -6.73155e-20)
(-0.13275 0.0245961 2.31688e-20)
(-0.146463 0.025707 -9.72816e-21)
(-0.160767 0.0272563 5.18538e-20)
(-0.00125546 0.0053813 3.41994e-20)
(-0.00543525 0.0133714 -1.6071e-20)
(-0.0126758 0.0192804 -5.68357e-20)
(-0.021698 0.0235771 -1.04177e-19)
(-0.0319631 0.0265923 4.61283e-20)
(-0.0430808 0.0286143 1.75644e-20)
(-0.0547114 0.0299029 3.81917e-20)
(-0.0666054 0.0306905 -2.89989e-20)
(-0.0785954 0.0311869 2.2625e-20)
(-0.0905873 0.0315821 -7.95706e-20)
(-0.102555 0.0320483 2.28615e-20)
(-0.114543 0.0327403 8.06657e-20)
(-0.12666 0.0337863 -9.74665e-20)
(-0.138969 0.0352845 2.50488e-20)
(-0.151627 0.0373914 -8.70368e-20)
(-0.00157406 0.00674095 2.25688e-20)
(-0.00609677 0.0167906 1.23897e-20)
(-0.013361 0.0242544 7.65041e-20)
(-0.0221946 0.0296984 -1.36184e-20)
(-0.0321008 0.0335263 1.76548e-20)
(-0.0427126 0.0360936 -1.91166e-20)
(-0.0537047 0.0377227 9.42216e-20)
(-0.0648315 0.0387038 4.717e-20)
(-0.0759216 0.0393008 -7.4677e-20)
(-0.0868703 0.0397541 1.02547e-20)
(-0.0976352 0.0402839 2.04384e-20)
(-0.108243 0.0410899 -1.1224e-19)
(-0.118791 0.0423412 1.78779e-19)
(-0.129293 0.0441724 3.65575e-20)
(-0.139831 0.0467819 3.3711e-20)
(-0.00195271 0.00797811 -4.50612e-20)
(-0.00688985 0.0199304 1.20933e-19)
(-0.0141922 0.0288523 -1.10188e-19)
(-0.0228094 0.0353832 1.7675e-19)
(-0.0322925 0.0399855 1.13323e-19)
(-0.0423014 0.0430715 -1.49629e-20)
(-0.0525276 0.0450184 -1.98844e-19)
(-0.0627309 0.0461685 1.73099e-20)
(-0.0727359 0.0468351 6.9109e-21)
(-0.0824257 0.0473063 1.3457e-19)
(-0.0917393 0.0478485 1.13176e-20)
(-0.100682 0.0487076 1.33235e-19)
(-0.109342 0.0500968 -2.48075e-19)
(-0.117682 0.0521949 1.686e-20)
(-0.125681 0.0552444 2.85231e-21)
(-0.00238029 0.00907682 7.91088e-20)
(-0.00779503 0.0227513 9.31353e-20)
(-0.0151545 0.033017 -3.08121e-20)
(-0.0235385 0.0405607 -3.2664e-19)
(-0.0325489 0.0458888 -1.01807e-19)
(-0.041875 0.049459 -1.73889e-20)
(-0.0512271 0.0516944 7.03145e-20)
(-0.0603719 0.0529826 1.15664e-20)
(-0.0691302 0.053681 -1.55344e-19)
(-0.0773725 0.0541215 -2.32618e-19)
(-0.0850175 0.0546152 -1.92908e-19)
(-0.0920482 0.0554545 -2.24682e-19)
(-0.0985421 0.0569017 1.5664e-19)
(-0.10442 0.05919 -1.86964e-19)
(-0.10952 0.0626136 -3.93835e-20)
(-0.00284523 0.0100268 -9.72928e-20)
(-0.0087917 0.0252254 -8.38278e-20)
(-0.0162319 0.0367048 -3.46699e-20)
(-0.0243771 0.0451743 2.41473e-19)
(-0.0328806 0.0511687 -4.22773e-20)
(-0.0414621 0.0551796 1.9784e-19)
(-0.0498525 0.057667 1.89161e-20)
(-0.0578265 0.059056 -1.75263e-19)
(-0.0652021 0.059742 1.31507e-19)
(-0.0718375 0.0600958 1.85968e-19)
(-0.0776306 0.0604706 -4.63808e-20)
(-0.082539 0.0612063 1.8675e-19)
(-0.0866334 0.0626195 -6.47487e-20)
(-0.0898079 0.0650106 9.25223e-20)
(-0.0917032 0.0687389 -1.67416e-19)
(-0.00333623 0.0108236 7.83024e-20)
(-0.00985928 0.0273367 -2.408e-20)
(-0.0174076 0.039887 5.81955e-20)
(-0.0253193 0.0491826 -9.97403e-20)
(-0.0332967 0.0557728 -7.75976e-20)
(-0.0410899 0.0601717 1.66583e-20)
(-0.0484512 0.0628666 -5.47373e-20)
(-0.055165 0.0643126 2.41276e-19)
(-0.0610479 0.064936 -3.17148e-20)
(-0.0659466 0.065141 2.1095e-19)
(-0.0697382 0.0653188 4.54403e-20)
(-0.0723532 0.0658567 9.7448e-20)
(-0.073857 0.0671323 9.2071e-20)
(-0.0741495 0.0695267 4.27895e-20)
(-0.0725729 0.073487 2.364e-19)
(-0.00384293 0.0114684 -3.8501e-21)
(-0.0109783 0.0290813 -1.69934e-19)
(-0.0186653 0.0425496 1.1378e-19)
(-0.0263579 0.0525603 -5.59078e-20)
(-0.0338034 0.0596645 2.07778e-19)
(-0.0407807 0.0643889 -1.06358e-19)
(-0.0470642 0.0672393 -1.04093e-19)
(-0.0524497 0.0686924 8.5565e-20)
(-0.0567537 0.0691984 2.34059e-20)
(-0.0598132 0.0691878 -4.0822e-19)
(-0.0614853 0.0690846 -3.1125e-20)
(-0.0616709 0.0693223 5.60431e-20)
(-0.0604293 0.0703439 1.71371e-19)
(-0.0577224 0.0726335 -1.6162e-19)
(-0.0524461 0.0767969 6.76279e-21)
(-0.0043565 0.0119677 -1.9476e-19)
(-0.0121312 0.0304665 9.45429e-20)
(-0.0199889 0.0446928 -2.38701e-19)
(-0.0274838 0.0552976 4.67825e-20)
(-0.0344018 0.0628235 -8.85435e-20)
(-0.0405489 0.0678015 -5.4336e-20)
(-0.0457213 0.0707478 -2.75853e-19)
(-0.0497273 0.0721533 1.45263e-19)
(-0.0523859 0.072484 -1.06713e-19)
(-0.0535257 0.072189 7.85796e-20)
(-0.0529854 0.0717183 -8.026e-20)
(-0.0506343 0.0715474 -1.71645e-19)
(-0.0465123 0.0721855 -1.63619e-19)
(-0.040707 0.0742515 1.47708e-19)
(-0.0316456 0.0787863 3.42628e-20)
(-0.00487009 0.0123323 2.99875e-19)
(-0.0133033 0.0315092 8.42795e-20)
(-0.021363 0.04633 5.23193e-21)
(-0.0286849 0.0573994 5.81037e-20)
(-0.0350864 0.0652453 1.89707e-19)
(-0.0403971 0.0703963 -2.04069e-19)
(-0.0444346 0.0733727 3.12433e-19)
(-0.0470211 0.0746722 -9.73374e-20)
(-0.0479796 0.0747691 -2.98939e-20)
(-0.0471325 0.0741228 9.43655e-20)
(-0.0443009 0.0732 -3.47465e-20)
(-0.0393245 0.0725127 1.24692e-19)
(-0.0322017 0.0726452 -1.25161e-20)
(-0.0230595 0.0743253 2.83846e-20)
(-0.0103002 0.0792536 3.03021e-19)
(-0.00537907 0.0125763 -2.55717e-19)
(-0.0144824 0.0322347 -4.55355e-20)
(-0.0227726 0.0474856 1.12778e-19)
(-0.0299457 0.0588841 -2.36019e-19)
(-0.0358423 0.0669404 -5.81272e-20)
(-0.0403123 0.0721766 3.21189e-20)
(-0.0431935 0.0751121 -2.60899e-19)
(-0.0443222 0.0762459 -6.59404e-20)
(-0.0435273 0.0760534 -3.08255e-20)
(-0.0406258 0.0749951 1.55383e-19)
(-0.0354202 0.0735441 5.53392e-20)
(-0.0277167 0.072239 -2.82846e-19)
(-0.0175002 0.0717229 -1.07028e-19)
(-0.00482151 0.0728716 1.34213e-19)
(0.0119313 0.0780027 -2.6296e-19)
(-0.00588105 0.0127165 1.73058e-19)
(-0.0156596 0.032674 2.46866e-19)
(-0.0242028 0.0481928 -6.97228e-20)
(-0.0312455 0.0597814 1.8961e-19)
(-0.0366432 0.0679323 -4.91564e-20)
(-0.0402621 0.0731605 -4.06799e-19)
(-0.0419581 0.0759814 2.79123e-19)
(-0.0415813 0.0768912 4.05796e-19)
(-0.0389665 0.0763602 9.34182e-20)
(-0.0339261 0.0748418 -3.86924e-19)
(-0.0262426 0.0728027 -1.49616e-19)
(-0.0156836 0.0707901 -2.18813e-19)
(-0.00220494 0.0694923 4.19429e-19)
(0.014178 0.0699934 -3.51048e-19)
(0.0353563 0.0751905 3.60232e-19)
(-0.00637578 0.0127705 -1.25077e-19)
(-0.0168283 0.0328614 -1.27452e-19)
(-0.0256375 0.048491 1.60005e-20)
(-0.0325569 0.0601293 -1.36035e-19)
(-0.0374486 0.068256 1.17586e-19)
(-0.0401906 0.0733798 -2.52837e-20)
(-0.040654 0.0760123 -1.24654e-19)
(-0.0387003 0.076644 -1.45092e-19)
(-0.034169 0.0757365 -2.41112e-19)
(-0.0268659 0.0737288 -1.32071e-19)
(-0.0165516 0.0710698 4.58763e-20)
(-0.00294712 0.0682963 -1.95215e-19)
(0.014038 0.0661225 -6.33819e-20)
(0.0343903 0.065803 -2.77464e-19)
(0.0605556 0.0710302 -1.21167e-19)
(-0.0068647 0.0127559 -1.69797e-19)
(-0.0179833 0.0328325 -2.23287e-19)
(-0.0270585 0.0484227 -2.31053e-19)
(-0.0338441 0.0599721 1.06737e-19)
(-0.0382015 0.0679548 5.45722e-19)
(-0.0400153 0.0728777 -4.32264e-21)
(-0.0391672 0.0752501 1.7083e-19)
(-0.0355261 0.0755575 2.06834e-19)
(-0.0289313 0.0742507 -2.90672e-19)
(-0.0191778 0.0717503 1.02834e-19)
(-0.00599952 0.0684782 3.46109e-19)
(0.0109384 0.0649422 2.48716e-19)
(0.0317899 0.0618491 -3.973e-20)
(0.056506 0.0605507 -7.3404e-20)
(0.0884483 0.065802 -7.20984e-21)
(-0.00735042 0.0126893 1.40037e-19)
(-0.0191199 0.0326212 3.99223e-20)
(-0.0284439 0.0480308 3.12973e-19)
(-0.0350613 0.0593565 -3.26357e-19)
(-0.038826 0.0670778 -2.89415e-19)
(-0.039624 0.0717061 -2.6786e-20)
(-0.0373408 0.0737524 2.00555e-19)
(-0.0318457 0.0736995 1.57261e-19)
(-0.0229698 0.0719895 7.08381e-19)
(-0.0104885 0.0690244 3.82717e-19)
(0.00589849 0.065194 2.78879e-19)
(0.0265919 0.0609626 1.79087e-19)
(0.0518255 0.0569908 -2.59172e-19)
(0.0814554 0.0546127 2.96204e-19)
(0.120242 0.0599366 -2.03858e-19)
(-0.00783593 0.0125847 -1.99498e-19)
(-0.0202321 0.0322579 2.2252e-19)
(-0.0297658 0.0473554 6.69565e-20)
(-0.0361501 0.0583296 1.44748e-19)
(-0.0392257 0.0656774 4.64187e-19)
(-0.0388731 0.069923 3.1954e-20)
(-0.0349733 0.0715853 1.68847e-19)
(-0.0273852 0.0711497 -2.3577e-19)
(-0.0159199 0.0690541 -6.60876e-19)
(-0.000320219 0.0656869 -2.58376e-20)
(0.0197589 0.0614074 -1.12776e-19)
(0.044793 0.0566304 -5.24524e-19)
(0.075109 0.0519349 3.0954e-19)
(0.110376 0.0484716 -2.24662e-19)
(0.157331 0.0540507 4.678e-19)
(-0.00832384 0.0124531 2.92136e-19)
(-0.0213112 0.0317675 -9.77195e-20)
(-0.0309891 0.0464321 -2.99699e-19)
(-0.0370388 0.0569361 1.56372e-19)
(-0.0392819 0.0638065 -3.39605e-19)
(-0.0375864 0.0675902 -2.13062e-19)
(-0.0318181 0.0688222 -1.5864e-19)
(-0.0218116 0.0679971 -6.99255e-20)
(-0.00734142 0.0655566 3.89206e-19)
(0.0118979 0.0618849 4.98011e-20)
(0.0363089 0.0573209 -3.2108e-19)
(0.0664463 0.0522354 3.48771e-20)
(0.102732 0.0471063 9.74519e-20)
(0.144535 0.0426834 1.13048e-19)
(0.201121 0.0489404 -2.07158e-19)
(-0.00881547 0.0123022 -2.33156e-19)
(-0.0223441 0.0311684 -1.85318e-19)
(-0.0320692 0.0452902 2.43678e-19)
(-0.0376395 0.0552162 -3.89697e-19)
(-0.0388529 0.0615162 4.12694e-19)
(-0.0355561 0.0647715 2.67723e-20)
(-0.0275865 0.0655412 1.40118e-19)
(-0.014738 0.064338 -1.7923e-22)
(0.00326984 0.0616171 -1.86932e-19)
(0.0268092 0.0577722 1.62789e-19)
(0.0563503 0.0531385 7.16824e-20)
(0.0925228 0.0480632 1.63187e-19)
(0.13582 0.0429247 2.24524e-19)
(0.185222 0.0378255 -2.23656e-19)
(0.252773 0.0455178 9.82263e-20)
(-0.00930983 0.0121352 2.53827e-19)
(-0.023311 0.0304712 2.11554e-20)
(-0.0329512 0.0439517 1.47034e-20)
(-0.0378483 0.0532039 2.43909e-19)
(-0.0377741 0.058855 -4.13201e-19)
(-0.0325435 0.0615313 -2.46964e-19)
(-0.0219516 0.0618248 3.69024e-19)
(-0.00573327 0.0602753 -4.76692e-19)
(0.0164661 0.0573636 9.9088e-20)
(0.0451005 0.0535077 -3.40584e-19)
(0.0807119 0.049061 -3.02015e-19)
(0.123985 0.0443798 -1.73474e-19)
(0.175405 0.0397607 3.7393e-19)
(0.23362 0.034444 6.66606e-20)
(0.312875 0.0446796 -2.43075e-19)
(-0.00980293 0.0119514 8.30967e-20)
(-0.0241833 0.0296777 -4.59986e-19)
(-0.0335677 0.0424308 1.57453e-19)
(-0.0375443 0.0509275 2.14959e-19)
(-0.0358584 0.0558681 5.03905e-20)
(-0.0282827 0.057934 3.44012e-19)
(-0.0145546 0.0577592 -2.05179e-19)
(0.0056671 0.0559199 3.31516e-19)
(0.0328273 0.0529334 1.45389e-19)
(0.0674691 0.049258 4.38469e-20)
(0.110196 0.0452883 5.0477e-19)
(0.161704 0.0414315 7.62671e-21)
(0.222293 0.0379086 -1.1436e-19)
(0.290647 0.0330717 4.49998e-19)
(0.381037 0.0472159 -4.36446e-19)
(-0.010288 0.0117463 1.50536e-19)
(-0.0249246 0.0287856 -1.82612e-19)
(-0.0338358 0.0407334 -1.32487e-19)
(-0.0365897 0.0484078 -4.51018e-19)
(-0.032898 0.0525969 -2.5277e-19)
(-0.0224839 0.0540448 -1.47661e-19)
(-0.00501311 0.0534359 -2.98143e-19)
(0.0199462 0.0513917 -3.63355e-19)
(0.052937 0.0484766 2.28674e-20)
(0.0945859 0.0452018 1.97782e-19)
(0.145525 0.042024 9.26544e-20)
(0.206394 0.0394481 -4.94417e-20)
(0.276991 0.0375716 -1.49053e-21)
(0.356788 0.0343854 -2.64573e-19)
(0.455379 0.0538763 3.84808e-19)
(-0.0107532 0.0115131 1.31595e-19)
(-0.0254904 0.0277848 -1.95676e-19)
(-0.0336607 0.0388567 1.84678e-19)
(-0.0348282 0.0456614 3.2671e-19)
(-0.0286661 0.0490808 1.83003e-20)
(-0.0148389 0.0499303 -1.02581e-19)
(0.0070697 0.0489526 2.60555e-19)
(0.0375891 0.0468222 1.72172e-19)
(0.0773559 0.044158 -5.11372e-19)
(0.127054 0.0415322 -5.35078e-19)
(0.187285 0.0394737 1.98334e-19)
(0.258549 0.0386222 -1.13973e-19)
(0.339773 0.038827 5.57323e-20)
(0.432198 0.0392711 -3.19166e-19)
(0.532687 0.0647027 2.20738e-19)
(-0.0111824 0.0112413 5.31084e-19)
(-0.0258232 0.0266586 4.72701e-19)
(-0.0329344 0.036796 1.26713e-19)
(-0.032089 0.0427017 1.08862e-19)
(-0.0229204 0.0453585 2.0513e-19)
(-0.0050273 0.0456607 -1.59263e-20)
(0.0220935 0.0444158 2.40521e-19)
(0.059064 0.0423571 2.30721e-19)
(0.10659 0.0401609 8.00795e-20)
(0.165357 0.038459 1.87351e-19)
(0.23584 0.0378402 -6.98543e-20)
(0.318298 0.0390771 2.30878e-19)
(0.410636 0.041606 -7.71812e-20)
(0.516815 0.0481219 3.14616e-19)
(0.61134 0.0755036 -4.79315e-19)
(-0.011554 0.0109181 -1.36754e-19)
(-0.0258566 0.0253897 -5.79511e-19)
(-0.031535 0.0345435 -3.33917e-20)
(-0.0281875 0.0395408 -1.89405e-19)
(-0.0154067 0.0414706 -1.64933e-20)
(0.00727669 0.0413124 -1.67806e-19)
(0.0404484 0.0399431 -1.00795e-19)
(0.0848014 0.0381583 -3.8419e-19)
(0.141057 0.0366901 2.77222e-19)
(0.209806 0.0362157 3.36636e-19)
(0.291242 0.037342 -3.66819e-19)
(0.385188 0.0409071 -4.336e-20)
(0.488608 0.0458069 -1.37771e-19)
(0.608157 0.0592282 -2.83165e-19)
(0.696466 0.0769101 5.80039e-19)
(-0.0118421 0.0105331 -2.7944e-19)
(-0.0255124 0.0239601 -3.28035e-19)
(-0.0293286 0.0320905 2.76342e-19)
(-0.0229271 0.0361926 3.46219e-19)
(-0.00586338 0.037463 -2.99046e-19)
(0.0223961 0.0369705 -4.78803e-20)
(0.0625019 0.0356656 -1.18466e-19)
(0.115173 0.0344063 -1.97561e-20)
(0.181059 0.0339727 -3.12285e-20)
(0.260507 0.0350632 -4.38253e-19)
(0.353213 0.0382445 2.39035e-19)
(0.45825 0.0443057 -2.82188e-19)
(0.571569 0.0514902 3.9213e-20)
(0.698238 0.0679283 4.4714e-19)
(0.794199 0.0735397 -3.53878e-19)
(-0.0120194 0.0100746 -2.03112e-21)
(-0.0247042 0.0223515 1.67781e-19)
(-0.0261696 0.0294326 -4.72404e-19)
(-0.0161021 0.0326772 -4.56484e-19)
(0.00597381 0.0333901 3.97989e-19)
(0.0406423 0.0327329 7.62123e-20)
(0.0885836 0.0317304 1.54607e-19)
(0.15047 0.0312992 2.23645e-19)
(0.226749 0.0322521 -3.0987e-19)
(0.317329 0.0352745 -4.78945e-19)
(0.42115 0.0408284 3.16837e-19)
(0.536183 0.0495242 5.47872e-19)
(0.657335 0.0591382 -2.80365e-19)
(0.786532 0.0769917 8.04592e-20)
(0.886901 0.0807198 -4.29425e-19)
(-0.0120524 0.00953157 2.52924e-19)
(-0.0233383 0.0205517 1.20033e-19)
(-0.021904 0.0265721 8.40603e-19)
(-0.00750101 0.0290241 1.95147e-19)
(0.0203657 0.0293196 -5.03845e-19)
(0.0623051 0.0287131 3.95302e-19)
(0.118969 0.0283013 2.55596e-19)
(0.190876 0.0290493 1.01743e-19)
(0.278102 0.0317765 5.391e-19)
(0.379875 0.0371066 5.19166e-19)
(0.494107 0.0453255 -2.20763e-19)
(0.617391 0.0567378 -9.82964e-20)
(0.743565 0.0688702 3.63744e-19)
(0.871546 0.0875267 -1.5657e-20)
(0.971095 0.0920816 5.36778e-19)
(-0.0119047 0.00889612 -1.36331e-19)
(-0.0213137 0.0185546 7.44696e-20)
(-0.0163712 0.0235212 -2.30418e-20)
(0.0030892 0.0252766 -4.32049e-19)
(0.037563 0.0253354 1.01808e-19)
(0.087641 0.0250428 1.78436e-21)
(0.153862 0.0255592 -2.78623e-19)
(0.236446 0.0278776 -4.96965e-19)
(0.334884 0.0327837 -2.75622e-19)
(0.447458 0.040772 3.18809e-19)
(0.570801 0.0518696 -3.64084e-19)
(0.699992 0.0659603 -1.44935e-19)
(0.827904 0.0804358 6.78887e-21)
(0.951151 0.099409 7.42536e-20)
(1.0463 0.105202 3.01077e-19)
(-0.0115375 0.00816368 -2.23808e-19)
(-0.0185237 0.0163628 -6.73067e-19)
(-0.0094067 0.0203055 -1.19297e-19)
(0.0158788 0.0214949 5.34739e-19)
(0.0577979 0.0215415 4.9784e-19)
(0.11686 0.0218743 -2.91422e-19)
(0.193373 0.0237003 2.01278e-19)
(0.287076 0.0280068 2.65293e-19)
(0.396625 0.0354862 3.68291e-19)
(0.519095 0.0464169 -5.92255e-19)
(0.649656 0.0604756 1.20791e-19)
(0.781928 0.0770442 -2.49042e-19)
(0.908112 0.0934241 -1.75601e-19)
(1.02356 0.112233 -4.97107e-19)
(1.11112 0.118951 -8.56391e-19)
(-0.0109093 0.0073335 1.68089e-19)
(-0.0148578 0.0139892 7.84149e-19)
(-0.000844897 0.0169662 -1.28097e-19)
(0.0310693 0.0177593 -5.21037e-19)
(0.0812748 0.0180644 -2.6718e-19)
(0.150109 0.01938 -7.90858e-20)
(0.237501 0.022932 -1.10618e-20)
(0.342482 0.0296504 -6.96404e-20)
(0.462614 0.0400537 -4.71949e-19)
(0.593534 0.054102 -1.40528e-19)
(0.728903 0.0710343 3.08675e-19)
(0.861143 0.0897038 -9.71509e-20)
(0.982279 0.10736 2.05905e-19)
(1.08749 0.125506 6.17226e-20)
(1.16522 0.132523 8.6533e-19)
(-0.00997732 0.0064091 1.30021e-19)
(-0.0102035 0.0114585 -4.72658e-19)
(0.00947665 0.0135622 -1.46611e-19)
(0.0488469 0.014172 4.12564e-19)
(0.108159 0.015053 -1.85444e-19)
(0.187461 0.0177504 3.82769e-19)
(0.28611 0.0234656 9.21971e-20)
(0.402187 0.0329996 1.12038e-21)
(0.531902 0.0465966 5.20009e-19)
(0.669319 0.0637914 -1.52314e-19)
(0.806711 0.0833239 4.19049e-19)
(0.935776 0.103558 3.11805e-19)
(1.04899 0.121768 -1.41663e-19)
(1.1423 0.138761 -1.01386e-19)
(1.20895 0.145428 -2.16783e-19)
(-0.00869711 0.00539864 5.09052e-20)
(-0.00444862 0.00880822 3.49571e-19)
(0.0217129 0.0101714 1.19476e-19)
(0.0693748 0.0108577 -4.22169e-19)
(0.138565 0.0126779 5.02615e-19)
(0.228891 0.0171889 -5.67955e-20)
(0.338919 0.025506 -1.70168e-19)
(0.465517 0.0382079 3.26826e-19)
(0.60334 0.055151 -3.94941e-19)
(0.744878 0.075351 -7.59445e-20)
(0.881341 0.0970351 -1.90925e-19)
(1.00433 0.118187 -3.65017e-19)
(1.1074 0.136222 6.31175e-20)
(1.18797 0.151635 -2.49933e-20)
(1.24319 0.157414 1.30871e-19)
(-0.00702364 0.00431521 1.48045e-20)
(0.00251623 0.00608925 1.79082e-19)
(0.036006 0.00689116 -2.52616e-19)
(0.0927836 0.0079624 6.75218e-20)
(0.172542 0.0111273 -3.85443e-19)
(0.274266 0.0179037 -4.55183e-19)
(0.395486 0.0292387 -9.34768e-20)
(0.531613 0.0453764 -2.61177e-19)
(0.675635 0.0656709 -9.67944e-20)
(0.818644 0.08856 -3.62114e-20)
(0.951291 0.111808 3.11847e-19)
(1.06576 0.133184 -1.92623e-19)
(1.15724 0.150387 -3.83618e-20)
(1.22495 0.163889 -9.95294e-20)
(1.26915 0.168404 1.04255e-19)
(-0.00491187 0.00317702 6.85573e-20)
(0.0107949 0.00336608 8.71395e-20)
(0.0524796 0.00383723 1.98941e-19)
(0.119163 0.00565136 -2.3261e-20)
(0.210064 0.0106015 -8.1026e-20)
(0.323335 0.020098 4.91478e-20)
(0.455215 0.0348163 9.34861e-20)
(0.599466 0.0545418 4.60567e-20)
(0.747435 0.0780293 2.04073e-19)
(0.889172 0.103134 6.62727e-20)
(1.0154 0.127275 -2.42296e-20)
(1.11952 0.148198 1.23576e-19)
(1.19871 0.164028 1.84837e-19)
(1.25406 0.175405 -6.44831e-20)
(1.28814 0.178444 1.65507e-21)
(-0.00231767 0.00200752 -3.6274e-20)
(0.0204821 0.000716578 -3.8566e-19)
(0.0712322 0.00114268 -4.64115e-19)
(0.14855 0.00410482 2.07609e-19)
(0.251018 0.0113053 1.14689e-19)
(0.375718 0.0239583 1.68179e-19)
(0.517365 0.0423457 1.61754e-19)
(0.667967 0.0656711 1.27521e-19)
(0.817416 0.0920299 1.69021e-19)
(0.955239 0.118756 2.25576e-19)
(1.07288 0.143091 2.75522e-20)
(1.16549 0.162958 7.97742e-21)
(1.23234 0.177012 -3.62237e-19)
(1.27627 0.186162 -1.27471e-20)
(1.30144 0.18765 6.71204e-21)
(0.000801082 0.000835493 1.03645e-19)
(0.0316598 -0.0017686 3.78269e-19)
(0.0923306 -0.00104461 2.38519e-19)
(0.180924 0.00351302 1.67248e-19)
(0.295194 0.0134393 7.03509e-20)
(0.430913 0.0296427 -1.53805e-19)
(0.581081 0.0518787 -1.84021e-20)
(0.73597 0.0786631 1.03944e-19)
(0.884374 0.107427 -4.1281e-19)
(1.01591 0.135108 -2.82859e-21)
(1.12337 0.158967 3.50752e-19)
(1.20393 0.17728 1.13226e-19)
(1.25893 0.189292 1.1263e-19)
(1.29264 0.196208 1.0516e-19)
(1.31021 0.196172 1.30567e-20)
(0.00448316 -0.000304972 -1.51815e-19)
(0.0443933 -0.00398703 1.80911e-19)
(0.115804 -0.00256495 -1.34917e-19)
(0.216196 0.00407004 -2.09616e-19)
(0.342285 0.0171902 1.42739e-19)
(0.488308 0.0372711 -2.75957e-19)
(0.645431 0.0634077 1.40836e-19)
(0.802361 0.0933581 -1.50718e-19)
(0.947292 0.123948 1.82648e-19)
(1.07058 0.151895 9.08237e-20)
(1.16681 0.174679 -2.00759e-20)
(1.23535 0.191058 1.21805e-19)
(1.27936 0.200884 1.99279e-20)
(1.30417 0.205635 -1.35421e-19)
(1.31543 0.204166 -1.65925e-19)
(0.0087625 -0.0013746 1.49049e-19)
(0.0587269 -0.00582593 1.04783e-20)
(0.141637 -0.00325073 5.19769e-20)
(0.254204 0.00596696 -1.40715e-19)
(0.391889 0.022722 3.19855e-19)
(0.547197 0.046917 -1.14953e-19)
(0.709456 0.0768669 -2.95589e-19)
(0.866125 0.109554 -1.66321e-19)
(1.00539 0.14132 -3.38103e-19)
(1.11893 0.168869 -3.68409e-19)
(1.20345 0.190073 -2.25472e-19)
(1.26042 0.204255 -1.76562e-19)
(1.29453 0.211852 2.6231e-19)
(1.31178 0.214555 -1.94423e-19)
(1.31792 0.21178 1.40746e-19)
(0.0136666 -0.00232927 -2.2278e-19)
(0.0746805 -0.00716417 1.75811e-19)
(0.169765 -0.00293077 -1.37866e-19)
(0.294714 0.00938472 1.54779e-19)
(0.443518 0.0301678 -1.05919e-19)
(0.606816 0.058604 1.46023e-19)
(0.772219 0.0921392 4.45963e-19)
(0.92639 0.127022 2.32869e-19)
(1.05813 0.159287 1.60867e-19)
(1.16092 0.185829 1.91939e-19)
(1.23372 0.205054 4.15579e-20)
(1.27989 0.216886 -1.09192e-19)
(1.30529 0.222284 8.81692e-20)
(1.31624 0.223084 6.93334e-20)
(1.31831 0.219141 -3.17147e-20)
(0.019215 -0.00312052 -1.45611e-20)
(0.0922454 -0.00787464 -1.82399e-19)
(0.200075 -0.00143531 4.81483e-20)
(0.337417 0.0144871 -1.27049e-19)
(0.496608 0.0396231 1.10083e-19)
(0.666371 0.0723054 5.24118e-20)
(0.832852 0.109067 2.23304e-20)
(0.982468 0.145529 7.21126e-20)
(1.10522 0.177624 6.298e-21)
(1.19673 0.202632 1.46422e-19)
(1.25816 0.219584 -1.49877e-19)
(1.29451 0.228999 -1.60327e-19)
(1.31241 0.232278 -7.04027e-20)
(1.31821 0.23133 5.04805e-20)
(1.31709 0.226353 -1.78121e-11)
(0.0254176 -0.00369629 4.83925e-20)
(0.111382 -0.00782716 -1.97681e-20)
(0.232397 0.00139882 1.03754e-19)
(0.381941 0.0214141 7.78865e-20)
(0.550547 0.0511417 -2.59494e-19)
(0.725076 0.0879477 1.07136e-19)
(0.890592 0.127464 -2.34063e-19)
(1.03386 0.164847 -2.55313e-19)
(1.14658 0.196144 -1.43444e-19)
(1.22669 0.219181 -2.85878e-19)
(1.2774 0.233661 1.33319e-20)
(1.305 0.240661 8.8654e-20)
(1.31655 0.241933 1.13058e-19)
(1.3182 0.23939 -1.45894e-19)
(1.31463 0.233496 -7.78918e-12)
(0.0322734 -0.00400188 7.69845e-20)
(0.132018 -0.0068918 -2.25464e-19)
(0.26651 0.00572275 -1.9862e-19)
(0.427853 0.0302764 2.98057e-20)
(0.604688 0.0647343 1.31414e-19)
(0.782186 0.105418 -2.25425e-20)
(0.944805 0.147132 -2.47278e-20)
(1.08024 0.184767 1.0921e-19)
(1.18229 0.2147 2.6476e-19)
(1.25122 0.235418 1.76125e-19)
(1.29205 0.247312 -1.0239e-20)
(1.31199 0.251949 9.03252e-20)
(1.31826 0.25134 -7.57401e-20)
(1.31663 0.24734 -4.03753e-20)
(1.31118 0.240627 4.92262e-20)
(0.0397693 -0.00398117 -2.27051e-19)
(0.154046 -0.0049425 2.47098e-19)
(0.302145 0.0116704 -1.05639e-19)
(0.474675 0.0411507 5.56931e-21)
(0.658381 0.0803687 1.22559e-19)
(0.837023 0.12457 -1.0629e-19)
(0.995 0.167865 2.35636e-19)
(1.12148 0.205103 7.95734e-20)
(1.21257 0.233178 -1.80801e-19)
(1.2708 0.251321 2.87939e-20)
(1.30269 0.260579 8.009e-20)
(1.31606 0.262939 -7.86362e-20)
(1.31799 0.260573 1.6177e-19)
(1.31378 0.25524 -4.11947e-20)
(1.30691 0.247784 -3.25346e-20)
(0.0478795 -0.00357797 1.96979e-19)
(0.177327 -0.0018609 -5.12742e-20)
(0.338987 0.0193535 6.4847e-20)
(0.5219 0.0540773 -1.28098e-19)
(0.710993 0.0979736 7.53301e-20)
(0.888999 0.145237 3.62118e-21)
(1.04083 0.189464 -1.69395e-19)
(1.15755 0.225697 -2.25658e-19)
(1.23773 0.251501 6.38444e-20)
(1.28593 0.266887 -2.73377e-20)
(1.30987 0.273514 -9.97163e-20)
(1.31766 0.273699 -5.52485e-21)
(1.31609 0.269696 4.52641e-20)
(1.30989 0.263133 -5.34769e-20)
(1.30195 0.254987 9.9192e-20)
(0.0565648 -0.00273752 -1.87756e-19)
(0.201687 0.00245987 -5.45204e-20)
(0.376685 0.0288577 6.97149e-20)
(0.569002 0.0690583 1.02427e-19)
(0.761925 0.117442 -4.3582e-20)
(0.937622 0.167237 -4.33496e-20)
(1.08206 0.211742 7.28436e-20)
(1.18856 0.246415 1.613e-19)
(1.25811 0.269612 -7.40234e-20)
(1.2971 0.28213 -2.59405e-20)
(1.31407 0.286167 -5.31251e-20)
(1.3172 0.284287 -2.09467e-20)
(1.31283 0.278752 6.23742e-20)
(1.30512 0.271044 6.21429e-20)
(1.29638 0.262244 1.63746e-20)
(0.0657727 -0.00140809 -1.20444e-20)
(0.226924 0.00811149 9.99102e-20)
(0.414859 0.0402386 -8.78628e-20)
(0.615458 0.0860583 -1.68113e-20)
(0.810635 0.138639 4.55383e-20)
(0.982506 0.190379 8.30393e-20)
(1.1186 0.234525 -7.76041e-20)
(1.21469 0.267147 -7.8866e-20)
(1.27411 0.287476 9.45575e-21)
(1.30474 0.297069 6.46211e-20)
(1.3157 0.298584 1.0071e-20)
(1.31498 0.294748 -1.57855e-20)
(1.30841 0.287773 -4.37724e-20)
(1.29956 0.278985 1.0003e-20)
(1.29025 0.26955 -3.24324e-20)
(0.0754379 0.000457439 5.1492e-20)
(0.25281 0.0151672 -5.70718e-20)
(0.453111 0.0535203 7.33665e-20)
(0.660759 0.105006 -5.63085e-20)
(0.856644 0.161404 3.32731e-20)
(1.02336 0.214472 -3.04058e-20)
(1.15042 0.257652 2.23026e-20)
(1.23617 0.287801 8.04069e-20)
(1.28609 0.30507 -4.41973e-21)
(1.30927 0.311726 1.29099e-21)
(1.31509 0.310803 4.42132e-20)
(1.31125 0.305113 4.52061e-21)
(1.30298 0.296772 4.33122e-20)
(1.29331 0.286956 -5.12624e-20)
(1.28358 0.276891 -2.26432e-20)
(0.0854831 0.00290003 -5.59053e-21)
(0.279095 0.023679 1.76398e-20)
(0.491033 0.0686936 -4.50234e-20)
(0.704421 0.125797 1.91647e-21)
(0.899546 0.18556 -1.2265e-20)
(1.06 0.239327 2.99404e-21)
(1.17761 0.280981 -1.9528e-20)
(1.25329 0.308303 9.0305e-21)
(1.29443 0.322378 3.42482e-21)
(1.31103 0.32612 -2.24982e-21)
(1.31255 0.322848 7.06545e-21)
(1.3062 0.315399 5.4249e-21)
(1.29664 0.305752 -1.44966e-21)
(1.28639 0.294947 9.82633e-21)
(1.27638 0.284246 -7.32039e-21)
(0.0958206 0.00595313 -2.29137e-20)
(0.305514 0.0336754 1.41526e-20)
(0.528218 0.085716 -2.80487e-20)
(0.746001 0.148296 3.09919e-22)
(0.939007 0.210917 -1.27853e-20)
(1.09231 0.264759 1.33259e-21)
(1.20027 0.304379 -2.03463e-20)
(1.26631 0.328587 9.19065e-21)
(1.29946 0.339388 -4.96683e-22)
(1.31035 0.340263 1.27726e-21)
(1.30829 0.334737 1.18491e-20)
(1.29998 0.32561 1.70578e-21)
(1.28947 0.314705 1.93894e-21)
(1.27885 0.302937 5.21344e-21)
(1.26866 0.291587 -3.40889e-21)
(0.106353 0.00964145 2.15889e-20)
(0.331792 0.0451601 -5.43279e-20)
(0.564271 0.104513 7.67834e-20)
(0.785102 0.172346 -4.01454e-20)
(0.974768 0.237274 -7.59016e-21)
(1.12025 0.290591 -2.47802e-20)
(1.21858 0.327727 6.60374e-20)
(1.27553 0.348597 2.26202e-20)
(1.30149 0.356086 1.89715e-20)
(1.30749 0.35416 -2.90015e-21)
(1.30251 0.346472 3.78561e-20)
(1.29268 0.335738 1.31083e-20)
(1.28152 0.323611 5.8909e-21)
(1.27069 0.310899 -2.12631e-20)
(1.26042 0.298884 -5.17961e-21)
(0.116976 0.0139798 5.25388e-20)
(0.357647 0.0581109 5.01166e-20)
(0.598814 0.124979 -8.08222e-20)
(0.821375 0.197765 -1.19824e-20)
(1.00664 0.264429 6.70843e-20)
(1.14383 0.316651 1.03118e-21)
(1.23273 0.350916 -1.34216e-20)
(1.28121 0.36828 -8.98759e-20)
(1.30081 0.372456 -6.65661e-21)
(1.30266 0.367807 5.81546e-20)
(1.29534 0.358044 -1.05519e-21)
(1.28439 0.345764 1.87765e-20)
(1.27282 0.332443 -4.79036e-20)
(1.26192 0.318799 3.25677e-20)
(1.25166 0.306101 -1.02596e-20)
(0.127578 0.0189725 -1.37344e-19)
(0.382802 0.0724798 -1.59823e-19)
(0.631496 0.146982 9.29781e-20)
(0.854526 0.224354 1.01785e-19)
(1.03449 0.292174 -1.3477e-20)
(1.16313 0.342773 -2.41674e-20)
(1.24291 0.37384 3.25323e-20)
(1.28364 0.387583 1.3739e-19)
(1.29765 0.388476 4.71302e-21)
(1.29604 0.38119 -2.4468e-20)
(1.2869 0.369435 -2.28299e-20)
(1.27516 0.35566 -6.5287e-20)
(1.26338 0.341168 6.93084e-20)
(1.25254 0.326601 -1.60925e-20)
(1.24238 0.3132 7.37399e-20)
(0.138048 0.0246127 2.72844e-19)
(0.406987 0.0881937 -2.06726e-20)
(0.661997 0.170361 1.20162e-20)
(0.884317 0.251902 1.93587e-20)
(1.05824 0.320303 -2.74646e-20)
(1.17824 0.368801 2.61614e-20)
(1.24934 0.396402 -1.95432e-19)
(1.28304 0.406457 -1.22359e-19)
(1.29222 0.404117 -3.8135e-20)
(1.28779 0.394285 -9.40629e-21)
(1.27727 0.380616 -5.7481e-20)
(1.26504 0.365392 1.79158e-20)
(1.25323 0.349745 -4.00791e-20)
(1.24256 0.334261 1.54532e-21)
(1.23259 0.320141 1.96478e-20)
(0.148271 0.0308825 -2.33648e-19)
(0.429943 0.105156 1.73143e-19)
(0.690034 0.194939 4.26296e-20)
(0.91056 0.280189 2.99348e-20)
(1.07789 0.348612 -4.33756e-21)
(1.18929 0.394581 1.10328e-19)
(1.25225 0.418507 1.60229e-19)
(1.27964 0.424845 -1.86856e-20)
(1.28472 0.419345 -6.15163e-20)
(1.27803 0.407062 -2.91866e-20)
(1.26653 0.39155 1.05143e-19)
(1.25405 0.374914 -3.38486e-20)
(1.24236 0.358128 -1.6088e-21)
(1.23197 0.341726 3.59053e-20)
(1.2223 0.326877 -5.25503e-21)
(0.158134 0.0377526 2.52505e-19)
(0.451429 0.123247 -3.03024e-19)
(0.715362 0.220515 -8.66713e-20)
(0.93312 0.308986 1.30579e-19)
(1.09344 0.376898 -7.06634e-20)
(1.19643 0.419968 -1.5247e-19)
(1.25183 0.440061 7.12057e-20)
(1.27365 0.442692 1.7743e-19)
(1.2753 0.434119 1.99779e-19)
(1.26687 0.41948 1.94959e-19)
(1.25473 0.402193 -4.3158e-21)
(1.24221 0.384183 3.19203e-20)
(1.23078 0.366263 -1.00676e-19)
(1.22077 0.34893 1.9678e-20)
(1.21151 0.333348 1.50426e-20)
(0.167529 0.0451831 1.63731e-19)
(0.471225 0.14233 -8.21224e-21)
(0.737778 0.246879 3.1897e-19)
(0.951908 0.338063 -3.62162e-19)
(1.10495 0.404964 5.80538e-20)
(1.19982 0.444818 1.05504e-20)
(1.24829 0.460973 -1.70593e-19)
(1.26526 0.459938 -2.52679e-19)
(1.26409 0.448392 -1.24693e-19)
(1.25439 0.431493 -1.57425e-19)
(1.24191 0.412499 2.72225e-20)
(1.22953 0.39315 -9.46737e-21)
(1.21848 0.374104 3.58103e-20)
(1.20894 0.355815 -4.52271e-20)
(1.20009 0.339488 7.10749e-21)
(0.17635 0.0531237 -1.31825e-19)
(0.489136 0.162247 4.26171e-20)