/*--------------------------------*- C++ -*----------------------------------*\
  =========                 |
  \\      /  F ield         | OpenFOAM: The Open Source CFD Toolbox
   \\    /   O peration     | Website:  https://openfoam.org
    \\  /    A nd           | Version:  7
     \\/     M anipulation  |
\*---------------------------------------------------------------------------*/
FoamFile
{
    version     2.0;
    format      ascii;
    class       surfaceScalarField;
    location    "20";
    object      phi;
}
// * * * * * * * * * * * * * * * * * * * * * * * * * * * * * * * * * * * * * //

dimensions      [0 3 -1 0 0 0 0];

internalField   nonuniform List<scalar> 
6320
(
6.06076e-06
-5.12341e-05
-0.000170592
6.33201e-06
-5.75661e-05
2.52477e-05
-0.000189507
-0.000345507
6.59376e-06
-6.41599e-05
2.62034e-05
-0.000209117
5.94015e-05
-0.000378706
0.000106742
-0.000574173
-0.000796624
6.8443e-06
-7.10042e-05
2.71057e-05
-0.000229378
6.12747e-05
-0.000412875
0.000109806
-0.000622703
0.000173056
-0.000859875
0.000251224
-0.00112504
-0.00141842
7.08165e-06
-7.80859e-05
2.79474e-05
-0.000250244
6.29956e-05
-0.000447923
0.000112571
-0.000672279
0.000176899
-0.000924203
0.000256016
-0.00120416
0.000349699
-0.0015121
0.000457393
-0.00184738
-0.00220866
7.30365e-06
-8.53895e-05
2.87201e-05
-0.000271661
6.45466e-05
-0.000483749
0.000115008
-0.000722741
0.000180189
-0.000989383
0.000259958
-0.00128393
0.000353901
-0.00160605
0.000461256
-0.00195474
0.000580856
-0.00232826
0.000711105
-0.00272411
-0.00313903
7.50793e-06
-9.28974e-05
2.94154e-05
-0.000293568
6.59096e-05
-0.000520244
0.000117087
-0.000773918
0.000182881
-0.00105518
0.000262988
-0.00136404
0.000356801
-0.00169986
0.000463349
-0.00206128
0.000581258
-0.00244617
0.000708742
-0.0028516
0.000843624
-0.00327391
0.0009834
-0.0037088
-0.00415142
7.69207e-06
-0.00010059
3.00244e-05
-0.0003159
6.70659e-05
-0.000557285
0.000118777
-0.000825629
0.000184932
-0.00112133
0.00026505
-0.00144415
0.000358329
-0.00179314
0.000463594
-0.00216655
0.000579275
-0.00256185
0.000703411
-0.00297573
0.000833697
-0.0034042
0.000967566
-0.00384267
0.00110231
-0.00428617
0.00123523
-0.00472959
-0.00516739
0.00136373
7.85356e-06
-0.000108443
3.05383e-05
-0.000338585
6.79974e-05
-0.000594744
0.000120047
-0.000877679
0.000186299
-0.00118758
0.00026609
-0.00152394
0.000358422
-0.00188547
0.000461925
-0.00227005
0.000574845
-0.00267477
0.000695066
-0.00309596
0.00082018
-0.00352931
0.000947587
-0.00397008
0.00107463
-0.00441322
0.00119876
-0.00485372
-0.00528625
0.00131762
7.98992e-06
-0.000116433
3.09484e-05
-0.000361544
6.86862e-05
-0.000632482
0.00012087
-0.000929863
0.000186943
-0.00125366
0.000266058
-0.00160306
0.000357028
-0.00197644
0.000458292
-0.00237132
0.000567928
-0.00278441
0.000683688
-0.00321172
0.000803087
-0.00364871
0.000923522
-0.00409051
0.00104242
-0.00453211
0.00115739
-0.00496868
-0.00539521
0.00126634
8.09873e-06
-0.000124532
3.12463e-05
-0.000384691
6.91158e-05
-0.000670351
0.000121219
-0.000981967
0.000186829
-0.00131927
0.000264915
-0.00168115
0.000354103
-0.00206563
0.000452658
-0.00246987
0.000558503
-0.00289025
0.000669284
-0.0033225
0.000782465
-0.00376189
0.00089547
-0.00420351
0.00100583
-0.00464247
0.00111134
-0.0050742
-0.00549405
0.00121019
8.17768e-06
-0.000132709
3.14243e-05
-0.000407938
6.92708e-05
-0.000708198
0.000121072
-0.00103377
0.000185927
-0.00138412
0.000262628
-0.00175785
0.000349619
-0.00215262
0.000445003
-0.00256526
0.000546572
-0.00299182
0.000651886
-0.00342781
0.000758392
-0.0038684
0.000863564
-0.00430869
0.000965065
-0.00474398
0.00106089
-0.00517003
-0.00558266
0.0011495
8.22462e-06
-0.000140934
3.14751e-05
-0.000431188
6.91378e-05
-0.000745861
0.000120408
-0.00108504
0.000184214
-0.00144793
0.000259171
-0.0018328
0.000343557
-0.00223701
0.000435325
-0.00265702
0.000532158
-0.00308865
0.000631557
-0.00352721
0.000730976
-0.00396782
0.000827968
-0.00440568
0.000920349
-0.00483636
0.00100633
-0.00525601
-0.00566096
0.00108463
8.23756e-06
-0.000149172
3.13925e-05
-0.000454343
6.8705e-05
-0.000783173
0.000119211
-0.00113554
0.000181671
-0.00151039
0.000254531
-0.00190566
0.000335913
-0.00231839
0.00042364
-0.00274475
0.000515305
-0.00318032
0.000608379
-0.00362029
0.000700349
-0.00405979
0.000788873
-0.0044942
0.000871935
-0.00491942
0.000947968
-0.00533204
-0.00572894
0.00101595
8.21477e-06
-0.000157386
3.1171e-05
-0.0004773
6.79631e-05
-0.000819965
0.000117469
-0.00118505
0.000178286
-0.00157121
0.000248702
-0.00197608
0.000326695
-0.00239638
0.000409977
-0.00282803
0.000496077
-0.00326642
0.000582459
-0.00370667
0.00066667
-0.004144
0.000746493
-0.00457403
0.000820095
-0.00499302
0.000886136
-0.00539808
-0.00578665
0.000943845
8.15611e-06
-0.000165542
3.08092e-05
-0.000499953
6.69091e-05
-0.000856065
0.00011518
-0.00123332
0.000174063
-0.00163009
0.000241697
-0.00204371
0.000315933
-0.00247062
0.000394395
-0.00290649
0.000474567
-0.00334659
0.000553934
-0.00378603
0.000630126
-0.00422019
0.000701069
-0.00464497
0.000765125
-0.00505708
0.000821181
-0.00545414
-0.00583417
0.000868704
8.05789e-06
-0.0001736
3.02985e-05
-0.000522193
6.55309e-05
-0.000891297
0.000112331
-0.00128012
0.000168991
-0.00168675
0.000233516
-0.00210824
0.000303647
-0.00254075
0.000376938
-0.00297978
0.000450856
-0.00342051
0.000522929
-0.00385811
0.000590889
-0.00428815
0.000652824
-0.0047069
0.000707298
-0.00511155
0.000753421
-0.00550026
-0.00587163
0.000790883
7.9205e-06
-0.000181521
2.96396e-05
-0.000543912
6.38303e-05
-0.000925488
0.000108927
-0.00132522
0.000163086
-0.00174091
0.000224189
-0.00216934
0.00028989
-0.00260645
0.000357691
-0.00304759
0.000425068
-0.00348789
0.000489611
-0.00392265
0.000549175
-0.00434771
0.000602023
-0.00475975
0.000646922
-0.00515645
0.000683201
-0.00553654
-0.00589919
0.00071076
7.74334e-06
-0.000189264
2.88314e-05
-0.000565
6.1808e-05
-0.000958465
0.000104975
-0.00136838
0.000156363
-0.0017923
0.000213752
-0.00222673
0.00027472
-0.00266742
0.000336746
-0.00310961
0.000397331
-0.00354847
0.000454151
-0.00397947
0.000505201
-0.00439876
0.000548924
-0.00480347
0.000584294
-0.00519182
0.000610853
-0.0055631
-0.00591703
0.000628689
7.52613e-06
-0.00019679
2.78744e-05
-0.000585349
5.94672e-05
-0.000990058
0.000100485
-0.0014094
0.000148847
-0.00184066
0.000202244
-0.00228013
0.000258205
-0.00272338
0.000314202
-0.00316561
0.000367785
-0.00360205
0.000416731
-0.00402842
0.000459189
-0.00444122
0.000493788
-0.00483807
0.000519709
-0.00521774
0.000536695
-0.00558008
-0.00592534
0.00054501
7.26891e-06
-0.000204059
2.677e-05
-0.00060485
5.68139e-05
-0.0010201
9.54708e-05
-0.00144806
0.000140565
-0.00188575
0.000189716
-0.00232928
0.000240422
-0.00277408
0.00029017
-0.00321536
0.000336577
-0.00364846
0.00037754
-0.00406938
0.000411366
-0.00447505
0.000436877
-0.00486358
0.000453456
-0.00523432
0.000461035
-0.00558766
-0.00592435
0.000460042
6.97207e-06
-0.000211031
2.5521e-05
-0.000623399
5.38565e-05
-0.00104844
8.9952e-05
-0.00148415
0.000131552
-0.00192735
0.000176225
-0.00237395
0.000221457
-0.00281932
0.00026477
-0.00325867
0.000303865
-0.00368756
0.00033677
-0.00410228
0.00036196
-0.00450024
0.000378448
-0.00488007
0.000385814
-0.00524168
0.00038417
-0.00558602
-0.00591427
0.000374089
6.63633e-06
-0.000217668
2.41312e-05
-0.000640894
5.06056e-05
-0.00107491
8.39508e-05
-0.0015175
0.000121848
-0.00196525
0.000161834
-0.00241394
0.000201403
-0.00285888
0.000238128
-0.00329539
0.000269811
-0.00371924
0.000294619
-0.00412709
0.0003112
-0.00451682
0.000318757
-0.00488763
0.000317055
-0.00523998
0.000306377
-0.00557534
-0.00589532
0.000287431
6.2627e-06
-0.00022393
2.26057e-05
-0.000657237
4.70743e-05
-0.00109938
7.74932e-05
-0.00154792
0.000111498
-0.00199925
0.000146613
-0.00244905
0.000180357
-0.00289263
0.000210375
-0.00332541
0.00023458
-0.00374345
0.000251286
-0.0041438
0.000259314
-0.00452485
0.00025805
-0.00488636
0.000247439
-0.00522937
0.000227922
-0.00555582
-0.00586774
0.000200333
5.85253e-06
-0.000229783
2.09505e-05
-0.000672335
4.32775e-05
-0.00112171
7.06082e-05
-0.00157525
0.000100551
-0.0020292
0.000130635
-0.00247914
0.000158424
-0.00292042
0.000181647
-0.00334864
0.000198341
-0.00376014
0.00020697
-0.00415243
0.000206526
-0.0045244
0.000196571
-0.00487641
0.000177216
-0.00521002
0.000149044
-0.00552765
-0.00583173
0.00011304
5.4074e-06
-0.00023519
1.91725e-05
-0.0006861
3.92323e-05
-0.00114177
6.33279e-05
-0.00159934
8.90589e-05
-0.00205493
0.000113978
-0.00250406
0.00013571
-0.00294215
0.000152084
-0.00336501
0.000161264
-0.00376932
0.00016187
-0.00415303
0.000153059
-0.00451559
0.00013456
-0.00485791
0.000106644
-0.0051821
6.99698e-05
-0.00549098
-0.0057872
2.54406e-05
4.92921e-06
-0.000240119
1.72795e-05
-0.00069845
3.49571e-05
-0.00115944
5.56866e-05
-0.00162007
7.70768e-05
-0.00207632
9.67226e-05
-0.0025237
0.000112325
-0.00295775
0.000121824
-0.00337451
0.000123519
-0.00377102
0.000116182
-0.0041457
9.91291e-05
-0.00449854
7.22446e-05
-0.00483102
3.59682e-05
-0.00514583
-8.76862e-06
-0.00544624
-0.00573472
-6.12553e-05
4.42005e-06
-0.00024454
1.52803e-05
-0.00070931
3.04717e-05
-0.00117464
4.77202e-05
-0.00163732
6.46621e-05
-0.00209326
7.8951e-05
-0.00253799
8.83799e-05
-0.00296718
9.10073e-05
-0.00337713
8.52741e-05
-0.00376528
7.01e-05
-0.00413052
4.49469e-05
-0.00447339
9.84191e-06
-0.00479592
-3.46585e-05
-0.00510133
-8.76143e-05
-0.00539329
-0.00567465
-0.000147683
3.88223e-06
-0.000248422
1.31839e-05
-0.000718612
2.57971e-05
-0.00118725
3.94664e-05
-0.00165099
5.18732e-05
-0.00210567
6.07466e-05
-0.00254686
6.39845e-05
-0.00297042
5.97734e-05
-0.00337292
4.66957e-05
-0.0037522
2.38132e-05
-0.00410764
-9.27815e-06
-0.00444029
-5.24283e-05
-0.00475277
-0.000104964
-0.00504879
-0.000165796
-0.00533245
-0.00560689
-0.000233551
3.31822e-06
-0.00025174
1.10001e-05
-0.000726294
2.09549e-05
-0.0011972
3.09635e-05
-0.001661
3.87694e-05
-0.00211347
4.21928e-05
-0.00255029
3.92486e-05
-0.00296747
2.82584e-05
-0.00336193
7.9461e-06
-0.00373189
-2.24923e-05
-0.0040772
-6.33422e-05
-0.00439944
-0.000114352
-0.00470176
-0.000174747
-0.00498839
-0.00024332
-0.00526388
-0.00553161
-0.000318599
2.73063e-06
-0.000254471
8.73889e-06
-0.000732302
1.59674e-05
-0.00120443
2.22502e-05
-0.00166728
2.54096e-05
-0.00211663
2.33715e-05
-0.00254825
1.4279e-05
-0.00295838
-3.40532e-06
-0.00334425
-3.08179e-05
-0.00370448
-6.8636e-05
-0.00403938
-0.000117045
-0.00435103
-0.000175717
-0.00464309
-0.000243804
-0.00492031
-0.000319988
-0.0051877
-0.00544894
-0.000402662
2.12221e-06
-0.000256593
6.41054e-06
-0.00073659
1.08571e-05
-0.00120888
1.33652e-05
-0.00166979
1.18521e-05
-0.00211512
4.36304e-06
-0.00254076
-1.08214e-05
-0.0029432
-3.50923e-05
-0.00331998
-6.94458e-05
-0.00367013
-0.000114444
-0.00399439
-0.000170193
-0.00429529
-0.000236316
-0.00457697
-0.000311923
-0.0048447
-0.000395608
-0.00510401
-0.00535897
-0.000485577
1.49581e-06
-0.000258089
4.02549e-06
-0.00073912
5.64618e-06
-0.0012105
4.34664e-06
-0.00166849
-1.84632e-06
-0.00210893
-1.47564e-05
-0.00252785
-3.59546e-05
-0.002922
-6.66816e-05
-0.00328925
-0.000107796
-0.00362901
-0.000159752
-0.00394243
-0.000222595
-0.00423244
-0.000295936
-0.00450362
-0.000378887
-0.00476175
-0.000469983
-0.00501292
-0.00526176
-0.000567191
8.55028e-07
-0.000258944
1.59388e-06
-0.000739859
3.56759e-07
-0.00120926
-4.76845e-06
-0.00166337
-1.56319e-05
-0.00209806
-3.39131e-05
-0.00250957
-6.10284e-05
-0.00289488
-9.80632e-05
-0.00325222
-0.000145738
-0.00358134
-0.000204406
-0.00388376
-0.000274071
-0.00416278
-0.000354367
-0.00442333
-0.000444467
-0.00467165
-0.000542905
-0.00491448
-0.00515731
-0.000647353
1.99075e-07
-0.000259143
-8.74133e-07
-0.000738786
-4.98937e-06
-0.00120515
-1.3944e-05
-0.00165441
-2.94517e-05
-0.00208255
-5.30387e-05
-0.00248598
-8.59583e-05
-0.00286196
-0.000129137
-0.00320904
-0.000183154
-0.00352732
-0.000248269
-0.00381865
-0.000324451
-0.0040866
-0.000411395
-0.00433638
-0.000508414
-0.00457463
-0.000614143
-0.00480875
-4.6726e-07
-0.000258675
-3.36787e-06
-0.000735885
-1.03712e-05
-0.00119814
-2.31453e-05
-0.00164164
-4.32568e-05
-0.00206244
-7.20693e-05
-0.00245717
-0.000110667
-0.00282337
-0.000159814
-0.00315989
-0.000219946
-0.00346719
-0.000291222
-0.00374737
-0.000373585
-0.00400423
-0.000466817
-0.00424315
-0.000570456
-0.00447099
-1.13678e-06
-0.000257539
-5.87775e-06
-0.000731144
-1.57683e-05
-0.00118825
-3.23393e-05
-0.00162507
-5.70006e-05
-0.00203778
-9.09462e-05
-0.00242322
-0.000135087
-0.00277923
-0.000190018
-0.00310496
-0.000256031
-0.00340117
-0.000333174
-0.00367023
-0.000421355
-0.00391605
-0.000520445
-0.00414406
-1.81245e-06
-0.000255726
-8.39429e-06
-0.000724562
-2.11608e-05
-0.00117549
-4.14942e-05
-0.00160473
-7.06392e-05
-0.00200864
-0.000109615
-0.00238425
-0.000159155
-0.00272968
-0.000219686
-0.00304443
-0.000291348
-0.00332951
-0.000374068
-0.00358751
-0.000467687
-0.00382243
-0.00403962
-2.49001e-06
-0.000253236
-1.09079e-05
-0.000716144
-2.65294e-05
-0.00115987
-5.05794e-05
-0.00158068
-8.4131e-05
-0.00197509
-0.000128025
-0.00234036
-0.000182817
-0.00267489
-0.000248764
-0.00297848
-0.000325854
-0.00325242
-0.000413878
-0.00349948
-0.000512568
-0.00372374
-3.16666e-06
-0.00025007
-1.34092e-05
-0.000705902
-3.18553e-05
-0.00114142
-5.95654e-05
-0.00155297
-9.7436e-05
-0.00193721
-0.000146127
-0.00229166
-0.00020602
-0.002615
-0.000277205
-0.0029073
-0.000359521
-0.00317011
-0.000452617
-0.00340639
-3.83783e-06
-0.000246232
-1.58853e-05
-0.000693854
-3.7115e-05
-0.00112019
-6.84171e-05
-0.00152167
-0.000110508
-0.00189512
-0.000163869
-0.0022383
-0.000228706
-0.00255016
-0.000304955
-0.00283105
-0.000392314
-0.00308275
-0.0033084
-4.50453e-06
-0.000241727
-1.83342e-05
-0.000680025
-4.23007e-05
-0.00109622
-7.71188e-05
-0.00148685
-0.000123324
-0.00184892
-0.000181217
-0.00218041
-0.000250839
-0.00248054
-0.000331977
-0.00274991
-0.000424205
-0.00299052
-5.16227e-06
-0.000236565
-2.07436e-05
-0.000664443
-4.73896e-05
-0.00106958
-8.56371e-05
-0.00144861
-0.000135839
-0.00179872
-0.00019812
-0.00211813
-0.000272357
-0.0024063
-0.0003582
-0.00266407
-5.80857e-06
-0.000230756
-2.31049e-05
-0.000647147
-5.2365e-05
-0.00104032
-9.39457e-05
-0.00140702
-0.000148018
-0.00174464
-0.000214532
-0.00205162
-0.000293208
-0.00232763
-0.00257371
-6.44102e-06
-0.000224315
-2.54098e-05
-0.000628178
-5.72108e-05
-0.00100852
-0.00010202
-0.00136222
-0.000159827
-0.00168684
-0.000230411
-0.00198103
-0.00031334
-0.0022447
-7.05735e-06
-0.000217258
-2.76507e-05
-0.000607585
-6.19119e-05
-0.000974255
-0.000109836
-0.00131429
-0.000171235
-0.00162544
-0.000245719
-0.00190655
-0.00215771
-7.65537e-06
-0.000209603
-2.98203e-05
-0.00058542
-6.64542e-05
-0.000937621
-0.000117374
-0.00126337
-0.000182214
-0.0015606
-0.000260422
-0.00182834
-8.23305e-06
-0.00020137
-3.19118e-05
-0.000561741
-7.08248e-05
-0.000898708
-0.000124612
-0.00120958
-0.000192737
-0.00149247
-0.00174659
-8.78848e-06
-0.000192581
-3.39188e-05
-0.000536611
-7.50116e-05
-0.000857615
-0.000131534
-0.00115306
-0.000202783
-0.00142122
-0.00166147
-9.31992e-06
-0.000183261
-3.58357e-05
-0.000510095
-7.90038e-05
-0.000814447
-0.000138124
-0.00109394
-0.000212331
-0.00134702
-9.82574e-06
-0.000173435
-3.76572e-05
-0.000482264
-8.27915e-05
-0.000769313
-0.000144366
-0.00103237
-0.00127002
-1.03045e-05
-0.000163131
-3.93784e-05
-0.00045319
-8.63656e-05
-0.000722326
-0.000150249
-0.000968483
-0.00119041
-1.07547e-05
-0.000152376
-4.09949e-05
-0.000422949
-8.9718e-05
-0.000673603
-0.000155759
-0.000902442
-1.11752e-05
-0.000141201
-4.25026e-05
-0.000391622
-9.2841e-05
-0.000623264
-0.000834396
-1.15648e-05
-0.000129636
-4.38979e-05
-0.000359289
-9.57279e-05
-0.000571434
-0.000764503
-1.19224e-05
-0.000117714
-4.51772e-05
-0.000326034
-9.83724e-05
-0.000518239
-0.000692921
-1.22471e-05
-0.000105467
-4.63375e-05
-0.000291944
-0.000100769
-0.000463808
-0.000619811
-1.2538e-05
-9.29287e-05
-4.73761e-05
-0.000257106
-0.000102912
-0.000408272
-1.27943e-05
-8.01343e-05
-4.82904e-05
-0.00022161
-0.000351764
-1.30153e-05
-6.71191e-05
-4.90782e-05
-0.000185547
-0.000294421
-1.32004e-05
-5.39187e-05
-4.97376e-05
-0.000149009
-0.000236379
-1.33491e-05
-4.05696e-05
-5.02671e-05
-0.000112091
-0.000177777
-1.34609e-05
-2.71087e-05
-5.06653e-05
-7.4887e-05
-0.000118752
-1.35357e-05
-1.3573e-05
-5.09313e-05
-3.74914e-05
-5.94466e-05
-1.35731e-05
1.78279e-12
-5.10644e-05
4.96399e-12
7.92525e-12
-1.35731e-05
1.35731e-05
-5.10644e-05
3.74914e-05
5.94466e-05
-1.35357e-05
2.71087e-05
-5.09313e-05
7.48871e-05
0.000118752
-1.34609e-05
4.05696e-05
-5.06653e-05
0.000112091
0.000177777
-1.33491e-05
5.39187e-05
-5.02671e-05
0.000149009
0.000236379
-1.32004e-05
6.71191e-05
-4.97376e-05
0.000185547
0.000294421
-1.30153e-05
8.01344e-05
-4.90782e-05
0.00022161
0.000351764
-1.27943e-05
9.29287e-05
-4.82904e-05
0.000257106
0.000408272
-1.2538e-05
0.000105467
-4.73761e-05
0.000291944
-0.000102912
0.000463808
0.000619811
-1.22471e-05
0.000117714
-4.63375e-05
0.000326034
-0.000100769
0.000518239
0.000692921
-1.19224e-05
0.000129636
-4.51772e-05
0.000359289
-9.83724e-05
0.000571434
0.000764503
-1.15648e-05
0.000141201
-4.38979e-05
0.000391622
-9.57279e-05
0.000623264
0.000834396
-1.11752e-05
0.000152376
-4.25026e-05
0.000422949
-9.2841e-05
0.000673603
0.000902442
-1.07547e-05
0.000163131
-4.09949e-05
0.00045319
-8.9718e-05
0.000722326
-0.000155759
0.000968483
0.00119041
-1.03045e-05
0.000173435
-3.93784e-05
0.000482264
-8.63656e-05
0.000769313
-0.000150249
0.00103237
0.00127002
-9.82575e-06
0.000183261
-3.76572e-05
0.000510095
-8.27915e-05
0.000814447
-0.000144366
0.00109394
0.00134702
-9.31992e-06
0.000192581
-3.58357e-05
0.000536611
-7.90038e-05
0.000857615
-0.000138124
0.00115306
-0.000212331
0.00142122
0.00166147
-8.78848e-06
0.00020137
-3.39188e-05
0.000561741
-7.50116e-05
0.000898708
-0.000131534
0.00120958
-0.000202783
0.00149247
0.00174659
-8.23305e-06
0.000209603
-3.19118e-05
0.00058542
-7.08248e-05
0.000937621
-0.000124612
0.00126337
-0.000192737
0.0015606
0.00182834
-7.65537e-06
0.000217258
-2.98203e-05
0.000607585
-6.64542e-05
0.000974255
-0.000117374
0.00131429
-0.000182214
0.00162544
-0.000260422
0.00190655
0.00215771
-7.05735e-06
0.000224315
-2.76507e-05
0.000628178
-6.19119e-05
0.00100852
-0.000109836
0.00136222
-0.000171235
0.00168684
-0.000245719
0.00198103
0.0022447
-6.44103e-06
0.000230756
-2.54098e-05
0.000647147
-5.72108e-05
0.00104032
-0.00010202
0.00140702
-0.000159827
0.00174464
-0.000230411
0.00205162
-0.00031334
0.00232763
0.00257371
-5.80857e-06
0.000236565
-2.31049e-05
0.000664443
-5.2365e-05
0.00106958
-9.39457e-05
0.00144861
-0.000148018
0.00179872
-0.000214532
0.00211813
-0.000293208
0.00240631
0.00266407
-5.16227e-06
0.000241727
-2.07436e-05
0.000680025
-4.73896e-05
0.00109622
-8.56371e-05
0.00148685
-0.000135839
0.00184892
-0.00019812
0.00218041
-0.000272357
0.00248054
-0.0003582
0.00274991
0.00299052
-4.50453e-06
0.000246232
-1.83342e-05
0.000693854
-4.23007e-05
0.00112019
-7.71188e-05
0.00152167
-0.000123324
0.00189512
-0.000181217
0.0022383
-0.000250839
0.00255016
-0.000331977
0.00283105
-0.000424205
0.00308275
0.0033084
-3.83783e-06
0.00025007
-1.58853e-05
0.000705902
-3.7115e-05
0.00114142
-6.84171e-05
0.00155297
-0.000110508
0.00193721
-0.000163869
0.00229166
-0.000228706
0.002615
-0.000304955
0.0029073
-0.000392314
0.00317011
0.00340639
-3.16666e-06
0.000253236
-1.34092e-05
0.000716144
-3.18553e-05
0.00115987
-5.95654e-05
0.00158068
-9.74361e-05
0.00197509
-0.000146127
0.00234036
-0.00020602
0.00267489
-0.000277205
0.00297848
-0.000359521
0.00325242
-0.000452617
0.00349948
0.00372374
-2.49001e-06
0.000255726
-1.09079e-05
0.000724562
-2.65294e-05
0.00117549
-5.05794e-05
0.00160473
-8.41311e-05
0.00200864
-0.000128025
0.00238425
-0.000182817
0.00272968
-0.000248764
0.00304443
-0.000325854
0.00332951
-0.000413878
0.00358751
-0.000512568
0.00382243
0.00403962
-1.81245e-06
0.000257539
-8.39429e-06
0.000731144
-2.11608e-05
0.00118825
-4.14942e-05
0.00162507
-7.06392e-05
0.00203778
-0.000109615
0.00242322
-0.000159155
0.00277923
-0.000219686
0.00310496
-0.000291348
0.00340117
-0.000374068
0.00367023
-0.000467687
0.00391605
0.00414406
-1.13678e-06
0.000258675
-5.87775e-06
0.000735885
-1.57683e-05
0.00119814
-3.23393e-05
0.00164164
-5.70006e-05
0.00206244
-9.09462e-05
0.00245717
-0.000135087
0.00282337
-0.000190018
0.00315989
-0.000256031
0.00346719
-0.000333174
0.00374737
-0.000421355
0.00400423
-0.000520445
0.00424315
0.00447099
-4.6726e-07
0.000259143
-3.36787e-06
0.000738786
-1.03712e-05
0.00120515
-2.31453e-05
0.00165441
-4.32568e-05
0.00208255
-7.20693e-05
0.00248598
-0.000110667
0.00286196
-0.000159814
0.00320904
-0.000219946
0.00352732
-0.000291222
0.00381865
-0.000373585
0.0040866
-0.000466817
0.00433638
-0.000570456
0.00457463
0.00480875
1.99075e-07
0.000258944
-8.74134e-07
0.000739859
-4.98937e-06
0.00120926
-1.3944e-05
0.00166337
-2.94517e-05
0.00209806
-5.30387e-05
0.00250957
-8.59584e-05
0.00289488
-0.000129137
0.00325222
-0.000183154
0.00358134
-0.000248269
0.00388376
-0.000324451
0.00416278
-0.000411395
0.00442333
-0.000508415
0.00467165
-0.000614143
0.00491448
0.00515731
8.55028e-07
0.000258089
1.59388e-06
0.00073912
3.56759e-07
0.0012105
-4.76845e-06
0.00166849
-1.56319e-05
0.00210893
-3.39131e-05
0.00252785
-6.10284e-05
0.002922
-9.80632e-05
0.00328925
-0.000145738
0.00362901
-0.000204406
0.00394243
-0.000274071
0.00423244
-0.000354367
0.00450362
-0.000444467
0.00476175
-0.000542905
0.00501292
0.00526176
-0.000647353
1.49581e-06
0.000256593
4.02549e-06
0.00073659
5.64618e-06
0.00120888
4.34664e-06
0.00166979
-1.84632e-06
0.00211512
-1.47564e-05
0.00254076
-3.59546e-05
0.0029432
-6.66816e-05
0.00331998
-0.000107796
0.00367013
-0.000159752
0.00399439
-0.000222595
0.00429529
-0.000295936
0.00457697
-0.000378887
0.0048447
-0.000469983
0.00510401
0.00535897
-0.000567191
2.12221e-06
0.000254471
6.41054e-06
0.000732302
1.08571e-05
0.00120443
1.33652e-05
0.00166728
1.18521e-05
0.00211663
4.36304e-06
0.00254825
-1.08214e-05
0.00295838
-3.50923e-05
0.00334425
-6.94458e-05
0.00370448
-0.000114444
0.00403938
-0.000170193
0.00435103
-0.000236316
0.00464309
-0.000311923
0.00492031
-0.000395608
0.0051877
0.00544894
-0.000485577
2.73063e-06
0.00025174
8.73889e-06
0.000726294
1.59674e-05
0.0011972
2.22502e-05
0.001661
2.54096e-05
0.00211347
2.33715e-05
0.00255029
1.4279e-05
0.00296747
-3.40533e-06
0.00336193
-3.0818e-05
0.00373189
-6.8636e-05
0.0040772
-0.000117045
0.00439944
-0.000175717
0.00470176
-0.000243804
0.00498839
-0.000319988
0.00526388
0.00553161
-0.000402662
3.31822e-06
0.000248422
1.10001e-05
0.000718612
2.09549e-05
0.00118725
3.09635e-05
0.00165099
3.87693e-05
0.00210567
4.21928e-05
0.00254686
3.92486e-05
0.00297042
2.82583e-05
0.00337292
7.9461e-06
0.0037522
-2.24923e-05
0.00410764
-6.33422e-05
0.00444029
-0.000114352
0.00475277
-0.000174747
0.00504879
-0.00024332
0.00533245
0.00560689
-0.0003186
3.88223e-06
0.00024454
1.31839e-05
0.00070931
2.57971e-05
0.00117464
3.94664e-05
0.00163732
5.18732e-05
0.00209326
6.07466e-05
0.00253799
6.39845e-05
0.00296718
5.97734e-05
0.00337713
4.66957e-05
0.00376528
2.38132e-05
0.00413052
-9.27816e-06
0.00447339
-5.24283e-05
0.00479592
-0.000104964
0.00510133
-0.000165796
0.00539329
0.00567465
-0.000233551
4.42005e-06
0.000240119
1.52803e-05
0.00069845
3.04717e-05
0.00115944
4.77202e-05
0.00162007
6.46621e-05
0.00207632
7.8951e-05
0.0025237
8.83799e-05
0.00295775
9.10073e-05
0.00337451
8.52741e-05
0.00377102
7.01e-05
0.0041457
4.49469e-05
0.00449854
9.8419e-06
0.00483102
-3.46585e-05
0.00514583
-8.76143e-05
0.00544624
0.00573472
-0.000147683
4.92921e-06
0.00023519
1.72795e-05
0.0006861
3.49571e-05
0.00114177
5.56866e-05
0.00159934
7.70768e-05
0.00205493
9.67226e-05
0.00250406
0.000112325
0.00294215
0.000121824
0.00336501
0.000123519
0.00376932
0.000116182
0.00415303
9.91291e-05
0.00451559
7.22446e-05
0.00485791
3.59682e-05
0.0051821
-8.76864e-06
0.00549098
0.0057872
-6.12553e-05
5.4074e-06
0.000229783
1.91725e-05
0.000672335
3.92323e-05
0.00112171
6.33279e-05
0.00157525
8.90589e-05
0.0020292
0.000113978
0.00247914
0.00013571
0.00292042
0.000152084
0.00334864
0.000161264
0.00376014
0.00016187
0.00415243
0.000153059
0.0045244
0.00013456
0.00487641
0.000106644
0.00521002
6.99698e-05
0.00552765
0.00583173
2.54406e-05
5.85253e-06
0.00022393
2.09505e-05
0.000657237
4.32775e-05
0.00109938
7.06082e-05
0.00154792
0.000100551
0.00199925
0.000130635
0.00244905
0.000158424
0.00289263
0.000181647
0.00332541
0.000198341
0.00374345
0.00020697
0.0041438
0.000206526
0.00452485
0.000196571
0.00488636
0.000177216
0.00522937
0.000149044
0.00555582
0.00586774
0.00011304
6.2627e-06
0.000217668
2.26057e-05
0.000640894
4.70743e-05
0.00107491
7.74932e-05
0.0015175
0.000111498
0.00196525
0.000146613
0.00241394
0.000180357
0.00285888
0.000210375
0.00329539
0.00023458
0.00371924
0.000251286
0.00412709
0.000259314
0.00451682
0.00025805
0.00488763
0.000247439
0.00523998
0.000227922
0.00557534
0.00589532
0.000200333
6.63633e-06
0.000211031
2.41312e-05
0.000623399
5.06056e-05
0.00104844
8.39508e-05
0.00148415
0.000121848
0.00192735
0.000161834
0.00237395
0.000201403
0.00281932
0.000238128
0.00325867
0.000269811
0.00368756
0.000294619
0.00410228
0.0003112
0.00450024
0.000318757
0.00488007
0.000317055
0.00524168
0.000306377
0.00558602
0.00591427
0.000287431
6.97207e-06
0.000204059
2.5521e-05
0.00060485
5.38565e-05
0.0010201
8.9952e-05
0.00144806
0.000131552
0.00188575
0.000176225
0.00232928
0.000221457
0.00277408
0.00026477
0.00321536
0.000303865
0.00364846
0.00033677
0.00406938
0.00036196
0.00447505
0.000378448
0.00486358
0.000385814
0.00523432
0.00038417
0.00558766
0.00592435
0.000374089
7.26891e-06
0.00019679
2.677e-05
0.000585349
5.68139e-05
0.000990058
9.54708e-05
0.0014094
0.000140565
0.00184066
0.000189716
0.00228013
0.000240422
0.00272338
0.00029017
0.00316561
0.000336577
0.00360205
0.00037754
0.00402842
0.000411366
0.00444122
0.000436877
0.00483807
0.000453456
0.00521774
0.000461035
0.00558008
0.00592534
0.000460042
7.52613e-06
0.000189264
2.78744e-05
0.000565
5.94672e-05
0.000958465
0.000100485
0.00136838
0.000148847
0.0017923
0.000202244
0.00222673
0.000258205
0.00266742
0.000314202
0.00310961
0.000367785
0.00354847
0.000416731
0.00397947
0.000459189
0.00439876
0.000493788
0.00480347
0.000519709
0.00519182
0.000536695
0.0055631
0.00591703
0.000545009
7.74334e-06
0.000181521
2.88314e-05
0.000543912
6.1808e-05
0.000925488
0.000104975
0.00132522
0.000156363
0.00174091
0.000213752
0.00216934
0.00027472
0.00260645
0.000336746
0.00304759
0.000397331
0.00348789
0.000454151
0.00392265
0.000505201
0.00434771
0.000548924
0.00475975
0.000584294
0.00515645
0.000610853
0.00553654
0.00589919
0.000628689
7.9205e-06
0.0001736
2.96396e-05
0.000522193
6.38303e-05
0.000891298
0.000108927
0.00128012
0.000163086
0.00168675
0.000224189
0.00210824
0.00028989
0.00254075
0.000357691
0.00297979
0.000425068
0.00342051
0.000489611
0.00385811
0.000549175
0.00428815
0.000602023
0.0047069
0.000646922
0.00511155
0.000683201
0.00550026
0.00587163
0.00071076
8.05789e-06
0.000165542
3.02985e-05
0.000499953
6.55309e-05
0.000856065
0.000112331
0.00123332
0.000168991
0.00163009
0.000233516
0.00204371
0.000303647
0.00247062
0.000376938
0.00290649
0.000450856
0.00334659
0.000522929
0.00378603
0.000590889
0.00422019
0.000652824
0.00464497
0.000707298
0.00505708
0.000753421
0.00545414
0.00583417
0.000790883
8.15611e-06
0.000157386
3.08092e-05
0.0004773
6.69091e-05
0.000819965
0.00011518
0.00118505
0.000174063
0.00157121
0.000241697
0.00197608
0.000315933
0.00239638
0.000394395
0.00282803
0.000474567
0.00326642
0.000553934
0.00370667
0.000630126
0.004144
0.000701069
0.00457403
0.000765125
0.00499302
0.000821181
0.00539808
0.00578665
0.000868704
8.21477e-06
0.000149172
3.1171e-05
0.000454343
6.79631e-05
0.000783173
0.000117469
0.00113554
0.000178286
0.00151039
0.000248702
0.00190566
0.000326695
0.00231839
0.000409977
0.00274475
0.000496077
0.00318032
0.000582459
0.00362029
0.00066667
0.00405979
0.000746493
0.0044942
0.000820095
0.00491942
0.000886136
0.00533204
0.00572894
0.000943845
8.23756e-06
0.000140934
3.13925e-05
0.000431188
6.8705e-05
0.000745861
0.000119211
0.00108504
0.000181671
0.00144793
0.000254531
0.0018328
0.000335913
0.00223701
0.00042364
0.00265702
0.000515305
0.00308865
0.000608379
0.00352721
0.000700349
0.00396782
0.000788873
0.00440568
0.000871935
0.00483636
0.000947968
0.00525601
0.00566096
0.00101595
8.22462e-06
0.000132709
3.14751e-05
0.000407938
6.91378e-05
0.000708198
0.000120408
0.00103377
0.000184214
0.00138412
0.000259171
0.00175785
0.000343557
0.00215262
0.000435325
0.00256526
0.000532158
0.00299182
0.000631557
0.00342781
0.000730976
0.0038684
0.000827968
0.00430869
0.000920349
0.00474398
0.00100633
0.00517003
0.00558266
0.00108463
8.17768e-06
0.000124532
3.14243e-05
0.000384691
6.92708e-05
0.000670351
0.000121072
0.000981967
0.000185927
0.00131927
0.000262628
0.00168115
0.000349619
0.00206563
0.000445003
0.00246987
0.000546572
0.00289025
0.000651886
0.0033225
0.000758392
0.00376189
0.000863564
0.00420351
0.000965065
0.00464247
0.00106089
0.0050742
0.00549405
0.0011495
8.09873e-06
0.000116433
3.12463e-05
0.000361544
6.91158e-05
0.000632482
0.000121219
0.000929863
0.000186829
0.00125366
0.000264915
0.00160306
0.000354103
0.00197644
0.000452658
0.00237132
0.000558503
0.00278441
0.000669284
0.00321172
0.000782465
0.00364871
0.00089547
0.00409051
0.00100583
0.00453211
0.00111134
0.00496868
0.00539521
0.00121019
7.98992e-06
0.000108443
3.09484e-05
0.000338585
6.86862e-05
0.000594744
0.00012087
0.000877679
0.000186943
0.00118758
0.000266058
0.00152394
0.000357028
0.00188547
0.000458292
0.00227005
0.000567928
0.00267477
0.000683688
0.00309596
0.000803087
0.00352931
0.000923522
0.00397008
0.00104242
0.00441322
0.00115739
0.00485372
0.00528625
0.00126634
7.85356e-06
0.00010059
3.05383e-05
0.0003159
6.79974e-05
0.000557285
0.000120047
0.000825629
0.000186299
0.00112133
0.00026609
0.00144415
0.000358422
0.00179314
0.000461925
0.00216655
0.000574845
0.00256185
0.000695066
0.00297573
0.00082018
0.0034042
0.000947587
0.00384267
0.00107463
0.00428617
0.00119876
0.00472959
0.00516739
0.00131762