2 	-7.88796 	0 	-0.000897787
2 	-7.66648 	0 	-0.00103182
2 	-7.45015 	0 	-0.00129234
2 	-7.23884 	0 	-0.00167413
2 	-7.03244 	0 	-0.00217318
2 	-6.83083 	0 	-0.00278714
2 	-6.6339 	0 	-0.00351461
2 	-6.44155 	0 	-0.00435524
2 	-6.25366 	-1.73472e-18 	-0.00530944
2 	-6.07013 	-4.85723e-18 	-0.00637833
2 	-5.89087 	-5.89806e-18 	-0.0075636
2 	-5.71577 	-6.93889e-18 	-0.00886745
2 	-5.54474 	-6.93889e-18 	-0.0102925
2 	-5.37768 	-4.16334e-18 	-0.0118417
2 	-5.2145 	-4.16334e-18 	-0.0135184
2 	-5.0551 	-2.77556e-18 	-0.015326
2 	-4.89941 	0 	-0.0172684
2 	-4.74734 	0 	-0.0193494
2 	-4.59879 	0 	-0.021573
2 	-4.4537 	1.73472e-18 	-0.0239434
2 	-4.31198 	1.73472e-18 	-0.0264648
2 	-4.17354 	0 	-0.0291411
2 	-4.03832 	0 	-0.0319766
2 	-3.90625 	-1.73472e-18 	-0.0349751
2 	-3.77723 	-1.73472e-18 	-0.0381405
2 	-3.65122 	0 	-0.0414763
2 	-3.52813 	0 	-0.0449859
2 	-3.4079 	0 	-0.0486722
2 	-3.29046 	2.77556e-18 	-0.0525377
2 	-3.17575 	5.55112e-18 	-0.0565846
2 	-3.0637 	5.55112e-18 	-0.0608143
2 	-2.95426 	5.55112e-18 	-0.0652277
2 	-2.84735 	5.55112e-18 	-0.0698251
2 	-2.74293 	7.28584e-18 	-0.0746058
2 	-2.64094 	9.02056e-18 	-0.0795687
2 	-2.54131 	7.97973e-18 	-0.0847113
2 	-2.444 	3.81639e-18 	-0.0900306
2 	-2.34894 	-6.93889e-19 	-0.0955225
2 	-2.2561 	-2.08167e-18 	-0.101182
2 	-2.16541 	-2.08167e-18 	-0.107003
2 	-2.07682 	-2.08167e-18 	-0.112978
2 	-1.99029 	-3.81639e-18 	-0.1191
2 	-1.90578 	-4.16334e-18 	-0.12536
2 	-1.82322 	-2.77556e-18 	-0.131748
2 	-1.74258 	-3.1225e-18 	-0.138255
2 	-1.66382 	-3.46945e-18 	-0.14487
2 	-1.58688 	-3.46945e-18 	-0.151581
2 	-1.51173 	-3.46945e-18 	-0.158373
2 	-1.43833 	-3.46945e-18 	-0.16523
2 	-1.36663 	-3.46945e-18 	-0.172122
2 	-1.29659 	-6.245e-18 	-0.179002
2 	-1.22819 	-9.02056e-18 	-0.185793
2 	-1.16137 	-9.02056e-18 	-0.192379
2 	-1.0961 	-9.02056e-18 	-0.198598
2 	-1.03235 	-9.02056e-18 	-0.204256
2 	-0.970074 	-9.02056e-18 	-0.209167
2 	-0.909249 	-7.28584e-18 	-0.213201
2 	-0.849836 	-5.55112e-18 	-0.216337
2 	-0.791802 	-7.28584e-18 	-0.218691
2 	-0.735117 	-9.02056e-18 	-0.220379
2 	-0.699654 	-7.28584e-18 	-0.220817
2 	-0.684654 	-5.55112e-18 	-0.221106
2 	-0.669466 	-2.08167e-18 	-0.221378
2 	-0.654093 	6.86684e-19 	-0.221604
2 	-0.638537 	-8.61507e-19 	-0.221796
2 	-0.622801 	-2.73285e-18 	-0.22196
2 	-0.608707 	-3.96022e-18 	-0.222098
2 	-0.600707 	-4.16334e-18 	-0.222281
2 	-0.590802 	-4.16334e-18 	-0.222402
2 	-0.574544 	-1.38778e-18 	-0.222498
2 	-0.558118 	1.38778e-18 	-0.222571
2 	-0.541528 	4.49414e-18 	-0.222623
2 	-0.524778 	5.6013e-18 	-0.222654
2 	-0.507871 	4.9809e-18 	-0.222667
2 	-0.490812 	6.51943e-18 	-0.222662
2 	-0.474991 	6.80902e-18 	-0.222641
2 	-0.46635 	6.93889e-18 	-0.222825
2 	-0.45625 	4.16334e-18 	-0.222795
2 	-0.438757 	1.38778e-18 	-0.222752
2 	-0.421128 	1.38778e-18 	-0.222696
2 	-0.403368 	1.38778e-18 	-0.222628
2 	-0.385482 	4.03404e-18 	-0.22255
2 	-0.367475 	7.3265e-18 	-0.222463
2 	-0.349351 	7.39879e-18 	-0.222369
2 	-0.331116 	7.28587e-18 	-0.222268
2 	-0.312775 	6.81408e-18 	-0.222162
2 	-0.294334 	4.94242e-18 	-0.222052
2 	-0.277337 	6.51205e-18 	-0.22194
2 	-0.268046 	7.63278e-18 	-0.222116
2 	-0.257173 	7.28584e-18 	-0.222006
2 	-0.238464 	1.00614e-17 	-0.221896
2 	-0.219677 	6.93889e-18 	-0.221788
2 	-0.200818 	6.93889e-19 	-0.221683
2 	-0.181893 	-6.93889e-19 	-0.221581
2 	-0.162909 	-3.46945e-18 	-0.221485
2 	-0.143871 	-6.245e-18 	-0.221396
2 	-0.124785 	-5.20417e-18 	-0.221314
2 	-0.105657 	-6.93889e-18 	-0.221241
2 	-0.0864948 	-1.00614e-17 	-0.221178
2 	-0.0673036 	-9.02056e-18 	-0.221125
2 	-0.04809 	-7.63278e-18 	-0.221083
2 	-0.0288604 	-5.89806e-18 	-0.221052
2 	-0.00962122 	-2.42861e-18 	-0.221033
2 	0.00962122 	3.46945e-19 	-0.221026
2 	0.0288604 	1.38778e-18 	-0.221031
2 	0.04809 	-3.46945e-19 	-0.221048
2 	0.0673036 	-2.08167e-18 	-0.221077
2 	0.0864948 	-3.46945e-19 	-0.221116
2 	0.105657 	1.04083e-18 	-0.221167
2 	0.124785 	6.93889e-19 	-0.221227
2 	0.143871 	1.04083e-18 	-0.221296
2 	0.162909 	1.04083e-18 	-0.221373
2 	0.181893 	2.08167e-18 	-0.221458
2 	0.200818 	2.42861e-18 	-0.221548
2 	0.219677 	-3.46945e-19 	-0.221643
2 	0.238464 	-6.93889e-19 	-0.221742
2 	0.257173 	2.42861e-18 	-0.221842
2 	0.268046 	5.43405e-18 	-0.221944
2 	0.277337 	7.08887e-18 	-0.221732
2 	0.294334 	7.37103e-18 	-0.221834
2 	0.312775 	5.07936e-18 	-0.221935
2 	0.331116 	3.81642e-18 	-0.222032
2 	0.349351 	5.40385e-18 	-0.222126
2 	0.367475 	3.51011e-18 	-0.222214
2 	0.385482 	-5.62978e-19 	-0.222295
2 	0.403368 	-2.08167e-18 	-0.222367
2 	0.421128 	-6.93889e-19 	-0.222431
2 	0.438757 	-2.42861e-18 	-0.222484
2 	0.45625 	-7.28584e-18 	-0.222525
2 	0.46635 	-6.36899e-18 	-0.222553
2 	0.474991 	-5.11109e-18 	-0.222311
2 	0.490812 	-6.31752e-18 	-0.22233
2 	0.507871 	-4.3866e-18 	-0.222333
2 	0.524778 	-1.07739e-18 	-0.222319
2 	0.541528 	-1.49065e-18 	-0.222288
2 	0.558118 	-3.46945e-18 	-0.222237
2 	0.574544 	-2.77556e-18 	-0.222166
2 	0.590802 	-2.08167e-18 	-0.222071
2 	0.600707 	-1.24568e-18 	-0.221953
2 	0.608707 	-2.43034e-18 	-0.221702
2 	0.622801 	-3.60021e-18 	-0.221568
2 	0.638537 	-4.6779e-18 	-0.221407
2 	0.654093 	-5.0379e-18 	-0.221218
2 	0.669466 	6.93889e-19 	-0.220997
2 	0.684654 	-3.1225e-18 	-0.220732
2 	0.699654 	-1.45717e-17 	-0.220446
2 	0.735117 	-1.80411e-17 	-0.22
2 	0.791802 	-1.80411e-17 	-0.218299
2 	0.849836 	-1.80411e-17 	-0.215938
2 	0.909249 	-1.80411e-17 	-0.2128
2 	0.970074 	-1.80411e-17 	-0.208772
2 	1.03235 	-1.80411e-17 	-0.203874
2 	1.0961 	-1.80411e-17 	-0.198234
2 	1.16137 	-1.80411e-17 	-0.192038
2 	1.22819 	-1.80411e-17 	-0.185476
2 	1.29659 	-1.80411e-17 	-0.178709
2 	1.36663 	-1.80411e-17 	-0.171853
2 	1.43833 	-1.80411e-17 	-0.164985
2 	1.51173 	-1.80411e-17 	-0.158151
2 	1.58688 	-1.80411e-17 	-0.151379
2 	1.66382 	-1.80411e-17 	-0.144688
2 	1.74258 	-1.63064e-17 	-0.138091
2 	1.82322 	-1.63064e-17 	-0.131601
2 	1.90578 	-2.11636e-17 	-0.125228
2 	1.99029 	-2.56739e-17 	-0.118982
2 	2.07682 	-2.70617e-17 	-0.112873
2 	2.16541 	-2.84495e-17 	-0.106909
2 	2.2561 	-3.1572e-17 	-0.101099
2 	2.34894 	-3.19189e-17 	-0.0954487
2 	2.444 	-3.08781e-17 	-0.0899654
2 	2.54131 	-3.08781e-17 	-0.0846537
2 	2.64094 	-2.91434e-17 	-0.079518
2 	2.74293 	-2.91434e-17 	-0.0745612
2 	2.84735 	-3.01842e-17 	-0.0697859
2 	2.95426 	-2.98372e-17 	-0.0651933
2 	3.0637 	-3.1572e-17 	-0.0607841
2 	3.17575 	-3.46945e-17 	-0.0565582
2 	3.29046 	-3.60822e-17 	-0.0525146
2 	3.4079 	-3.46945e-17 	-0.048652
2 	3.52813 	-3.1572e-17 	-0.0449682
2 	3.65122 	-3.1225e-17 	-0.0414609
2 	3.77723 	-3.26128e-17 	-0.0381269
2 	3.90625 	-3.40006e-17 	-0.0349632
2 	4.03832 	-3.57353e-17 	-0.0319661
2 	4.17354 	-3.60822e-17 	-0.0291319
2 	4.31198 	-3.60822e-17 	-0.0264566
2 	4.4537 	-3.747e-17 	-0.0239362
2 	4.59879 	-4.02456e-17 	-0.0215666
2 	4.74734 	-4.16334e-17 	-0.0193436
2 	4.89941 	-4.16334e-17 	-0.0172631
2 	5.0551 	-4.16334e-17 	-0.0153212
2 	5.2145 	-4.16334e-17 	-0.013514
2 	5.37768 	-4.16334e-17 	-0.0118377
2 	5.54474 	-4.16334e-17 	-0.0102888
2 	5.71577 	-4.16334e-17 	-0.00886397
2 	5.89087 	-4.33681e-17 	-0.00756032
2 	6.07013 	-4.3715e-17 	-0.00637521
2 	6.25366 	-4.23273e-17 	-0.00530645
2 	6.44155 	-4.26742e-17 	-0.00435236
2 	6.6339 	-4.12864e-17 	-0.00351182
2 	6.83083 	-4.09395e-17 	-0.00278442
2 	7.03244 	-4.09395e-17 	-0.00217051
2 	7.23884 	-4.12864e-17 	-0.0016715
2 	7.45015 	-4.30211e-17 	-0.00128974
2 	7.66648 	-4.30211e-17 	-0.00102924
2 	7.88796 	-4.36639e-17 	-0.000895215
