# Force coefficients
# liftDir     : (0.000000e+00 1.000000e+00 0.000000e+00)
# dragDir     : (1.000000e+00 0.000000e+00 0.000000e+00)
# pitchAxis   : (0.000000e+00 0.000000e+00 1.000000e+00)
# magUInf     : 1.000000e+00
# lRef        : 1.000000e+00
# Aref        : 1.000000e-01
# CofR        : (0.000000e+00 0.000000e+00 0.000000e+00)
# Time        	Cm            	Cd            	Cl            	Cl(f)         	Cl(r)         
0.005         	2.608271e-10	3.266464e+02	-1.353902e-06	-6.766900e-07	-6.772116e-07
0.01          	-1.383250e-09	7.060494e+00	1.121158e-06	5.591959e-07	5.619624e-07
0.015         	-1.262678e-08	8.210443e+00	2.924288e-07	1.335876e-07	1.588412e-07
0.02          	-1.850484e-08	6.730592e+00	1.554379e-07	5.921409e-08	9.622377e-08
0.025         	-2.063167e-08	6.041284e+00	-4.496575e-07	-2.454604e-07	-2.041971e-07
0.03          	-2.112637e-08	5.470773e+00	-5.737874e-08	-4.981574e-08	-7.563001e-09
0.035         	-2.088922e-08	4.994960e+00	1.617406e-07	5.998109e-08	1.017595e-07
0.04          	-2.026896e-08	4.596942e+00	1.294693e-07	4.446567e-08	8.500359e-08
0.045         	-1.941684e-08	4.262437e+00	9.880872e-08	2.998752e-08	6.882120e-08
0.05          	-1.841311e-08	3.979643e+00	1.259602e-07	4.456696e-08	8.139319e-08
0.055         	-1.731986e-08	3.739018e+00	1.226730e-07	4.401662e-08	7.865633e-08
0.06          	-1.617462e-08	3.532830e+00	1.082523e-07	3.795152e-08	7.030076e-08
0.065         	-1.500940e-08	3.354886e+00	1.195533e-07	4.476728e-08	7.478607e-08
0.07          	-1.384194e-08	3.200279e+00	1.221554e-07	4.723575e-08	7.491964e-08
0.075         	-1.268878e-08	3.065028e+00	1.065920e-07	4.060721e-08	6.598476e-08
0.08          	-1.156851e-08	2.945977e+00	1.010733e-07	3.896814e-08	6.210515e-08
0.085         	-1.047833e-08	2.840476e+00	1.229334e-07	5.098835e-08	7.194501e-08
0.09          	-9.430803e-09	2.746429e+00	1.085015e-07	4.481995e-08	6.368156e-08
0.095         	-8.423647e-09	2.662108e+00	1.269885e-07	5.507061e-08	7.191791e-08
0.1           	-7.467222e-09	2.586109e+00	1.022591e-07	4.366232e-08	5.859676e-08
0.105         	-6.565211e-09	2.517316e+00	1.284471e-07	5.765835e-08	7.078877e-08
0.11          	-5.714437e-09	2.454764e+00	1.319879e-07	6.027952e-08	7.170840e-08
0.115         	-4.913959e-09	2.397610e+00	1.157228e-07	5.294745e-08	6.277537e-08
0.12          	-4.161392e-09	2.345224e+00	1.293020e-07	6.048962e-08	6.881241e-08
0.125         	-3.457645e-09	2.297080e+00	1.223886e-07	5.773664e-08	6.465193e-08
0.13          	-2.801806e-09	2.252611e+00	8.818968e-08	4.129303e-08	4.689665e-08
0.135         	-2.187190e-09	2.211442e+00	1.173735e-07	5.649957e-08	6.087395e-08
0.14          	-1.615420e-09	2.173257e+00	1.040348e-07	5.040199e-08	5.363283e-08
0.145         	-1.085905e-09	2.137732e+00	1.233413e-07	6.058475e-08	6.275656e-08
0.15          	-5.943802e-10	2.104600e+00	1.276800e-07	6.324560e-08	6.443436e-08
0.155         	-1.408460e-10	2.073596e+00	1.298765e-07	6.479740e-08	6.507909e-08
0.16          	2.765945e-10	2.044558e+00	1.356788e-07	6.811601e-08	6.756282e-08
0.165         	6.597439e-10	2.017379e+00	1.311711e-07	6.624530e-08	6.492582e-08
0.17          	1.008199e-09	1.991777e+00	1.315293e-07	6.677287e-08	6.475647e-08
0.175         	1.326640e-09	1.967688e+00	1.350247e-07	6.883901e-08	6.618573e-08
0.18          	1.615939e-09	1.944971e+00	1.375146e-07	7.037322e-08	6.714134e-08
0.185         	1.879042e-09	1.923500e+00	1.347299e-07	6.924398e-08	6.548590e-08
0.19          	2.115287e-09	1.903260e+00	1.411108e-07	7.267069e-08	6.844011e-08
0.195         	2.327950e-09	1.884098e+00	1.398299e-07	7.224288e-08	6.758698e-08
0.2           	2.518229e-09	1.865930e+00	1.401545e-07	7.259548e-08	6.755903e-08
0.205         	2.687383e-09	1.848679e+00	1.389434e-07	7.215906e-08	6.678430e-08
0.21          	2.833354e-09	1.832299e+00	1.441237e-07	7.489523e-08	6.922852e-08
0.215         	2.960694e-09	1.816751e+00	1.455141e-07	7.571776e-08	6.979637e-08
0.22          	3.070670e-09	1.801992e+00	1.416688e-07	7.390505e-08	6.776371e-08
0.225         	3.164672e-09	1.787939e+00	1.445809e-07	7.545514e-08	6.912579e-08
0.23          	3.243511e-09	1.774576e+00	1.437042e-07	7.509561e-08	6.860859e-08
0.235         	3.308261e-09	1.761795e+00	1.436744e-07	7.514545e-08	6.852893e-08
0.24          	3.359165e-09	1.749615e+00	1.455753e-07	7.614681e-08	6.942848e-08
0.245         	3.397540e-09	1.738002e+00	1.461773e-07	7.648621e-08	6.969113e-08
0.25          	3.424208e-09	1.726908e+00	1.469186e-07	7.688353e-08	7.003511e-08
0.255         	3.439931e-09	1.716340e+00	1.467187e-07	7.679929e-08	6.991943e-08
0.26          	3.445860e-09	1.706277e+00	1.503394e-07	7.861558e-08	7.172386e-08
0.265         	3.442581e-09	1.696655e+00	1.480542e-07	7.746970e-08	7.058454e-08
0.27          	3.430606e-09	1.687391e+00	1.446779e-07	7.576956e-08	6.890835e-08
0.275         	3.409791e-09	1.678548e+00	1.611660e-07	8.399277e-08	7.717319e-08
0.28          	3.380853e-09	1.670102e+00	1.726865e-07	8.972408e-08	8.296237e-08
0.285         	3.345255e-09	1.662009e+00	1.659486e-07	8.631954e-08	7.962903e-08
0.29          	3.301376e-09	1.654263e+00	1.448716e-07	7.573716e-08	6.913441e-08
0.295         	3.252115e-09	1.646866e+00	1.495375e-07	7.802087e-08	7.151663e-08
0.3           	3.196830e-09	1.639789e+00	1.579467e-07	8.217016e-08	7.577650e-08
0.305         	3.137124e-09	1.633028e+00	1.564326e-07	8.135343e-08	7.507918e-08
0.31          	3.072275e-09	1.626572e+00	1.557642e-07	8.095440e-08	7.480984e-08
0.315         	3.003368e-09	1.620371e+00	1.551371e-07	8.057192e-08	7.456518e-08
0.32          	2.930593e-09	1.614406e+00	1.475080e-07	7.668461e-08	7.082342e-08
0.325         	2.853798e-09	1.608707e+00	3.522599e-07	1.789838e-07	1.732762e-07
0.33          	2.771427e-09	1.603239e+00	-1.144768e-08	-2.952413e-09	-8.495268e-09
0.335         	2.688761e-09	1.598017e+00	3.338393e-07	1.696084e-07	1.642309e-07
0.34          	2.600320e-09	1.593015e+00	1.614977e-07	8.334917e-08	7.814853e-08
0.345         	2.509728e-09	1.588198e+00	2.147265e-08	1.324605e-08	8.226596e-09
0.35          	2.417360e-09	1.583580e+00	2.427814e-07	1.238080e-07	1.189733e-07
0.355         	2.322575e-09	1.579205e+00	2.131046e-07	1.088749e-07	1.042297e-07
0.36          	2.225317e-09	1.575004e+00	1.733816e-07	8.891611e-08	8.446548e-08
0.365         	2.127046e-09	1.570969e+00	1.609437e-07	8.259891e-08	7.834481e-08
0.37          	2.027511e-09	1.567179e+00	1.419412e-07	7.299813e-08	6.894310e-08
0.375         	1.926632e-09	1.563518e+00	1.568291e-07	8.034116e-08	7.648790e-08
0.38          	1.824597e-09	1.560001e+00	1.863804e-07	9.501480e-08	9.136560e-08
0.385         	1.721570e-09	1.556667e+00	1.223460e-07	6.289459e-08	5.945146e-08
0.39          	1.618256e-09	1.553452e+00	1.681906e-07	8.571358e-08	8.247706e-08
0.395         	1.514218e-09	1.550405e+00	1.357292e-07	6.937880e-08	6.635037e-08
0.4           	1.410572e-09	1.547516e+00	1.577063e-07	8.026372e-08	7.744258e-08
0.405         	1.306749e-09	1.544693e+00	1.316764e-07	6.714493e-08	6.453143e-08
0.41          	1.202614e-09	1.542038e+00	1.376644e-07	7.003480e-08	6.762957e-08
0.415         	1.098539e-09	1.539501e+00	1.699407e-07	8.606889e-08	8.387181e-08
0.42          	9.938986e-10	1.537079e+00	1.367903e-07	6.938907e-08	6.740127e-08
0.425         	2.288273e-08	1.534783e+00	1.618431e-07	1.038043e-07	5.803882e-08
0.43          	4.157367e-08	1.532614e+00	2.956660e-07	1.894067e-07	1.062593e-07
0.435         	5.756516e-08	1.530562e+00	2.040080e-07	1.595692e-07	4.443884e-08
0.44          	7.127281e-08	1.528598e+00	2.376547e-07	1.901002e-07	4.755454e-08
0.445         	8.303365e-08	1.526726e+00	3.064340e-07	2.362507e-07	7.018337e-08
0.45          	9.312609e-08	1.524976e+00	2.827895e-08	1.072656e-07	-7.898662e-08
0.455         	1.017941e-07	1.523323e+00	3.262917e-07	2.649399e-07	6.135177e-08
0.46          	1.092291e-07	1.521809e+00	2.838671e-07	2.511627e-07	3.270446e-08
0.465         	1.156031e-07	1.520299e+00	2.794724e-07	2.553393e-07	2.413306e-08
0.47          	1.210524e-07	1.518914e+00	3.170248e-07	2.795648e-07	3.746004e-08
0.475         	1.256936e-07	1.517574e+00	2.844300e-07	2.679086e-07	1.652145e-08
0.48          	1.296293e-07	1.516354e+00	3.220483e-07	2.906535e-07	3.139480e-08
0.485         	1.329477e-07	1.515215e+00	3.127684e-07	2.893319e-07	2.343652e-08
0.49          	1.357211e-07	1.514157e+00	3.448041e-07	3.081232e-07	3.668093e-08
0.495         	1.380138e-07	1.513131e+00	3.361309e-07	3.060793e-07	3.005163e-08
0.5           	1.398819e-07	1.512195e+00	3.559269e-07	3.178454e-07	3.808155e-08
0.505         	1.413744e-07	1.511347e+00	3.545696e-07	3.186592e-07	3.591039e-08
0.51          	1.425341e-07	1.510542e+00	3.577884e-07	3.214283e-07	3.636013e-08
0.515         	1.433987e-07	1.509818e+00	3.638456e-07	3.253215e-07	3.852411e-08
0.52          	1.473241e-07	1.509172e+00	3.935313e-07	3.440897e-07	4.944159e-08
0.525         	1.506084e-07	1.508536e+00	3.832416e-07	3.422291e-07	4.101243e-08
0.53          	1.533333e-07	1.507958e+00	4.124704e-07	3.595685e-07	5.290197e-08
0.535         	1.555702e-07	1.507464e+00	4.281692e-07	3.696548e-07	5.851439e-08
0.54          	1.573787e-07	1.507026e+00	4.736354e-07	3.941963e-07	7.943902e-08
0.545         	1.588054e-07	1.506632e+00	4.454003e-07	3.815056e-07	6.389471e-08
0.55          	1.598963e-07	1.506287e+00	4.622483e-07	3.910205e-07	7.122780e-08
0.555         	1.606881e-07	1.506008e+00	4.786927e-07	4.000344e-07	7.865823e-08
0.56          	1.612141e-07	1.505755e+00	4.744365e-07	3.984324e-07	7.600417e-08
0.565         	1.615033e-07	1.505564e+00	5.059261e-07	4.144664e-07	9.145971e-08
0.57          	1.615799e-07	1.505424e+00	4.966439e-07	4.099019e-07	8.674198e-08
0.575         	1.614666e-07	1.505324e+00	5.192465e-07	4.210898e-07	9.815667e-08
0.58          	1.611824e-07	1.505288e+00	5.184433e-07	4.204041e-07	9.803924e-08
0.585         	1.607455e-07	1.505209e+00	5.063657e-07	4.139283e-07	9.243735e-08
0.59          	1.601707e-07	1.505234e+00	5.477189e-07	4.340301e-07	1.136888e-07
0.595         	1.594719e-07	1.505314e+00	5.300275e-07	4.244856e-07	1.055418e-07
0.6           	1.586638e-07	1.505374e+00	5.469633e-07	4.321455e-07	1.148178e-07
0.605         	1.577556e-07	1.505500e+00	5.407373e-07	4.281243e-07	1.126130e-07
0.61          	1.567587e-07	1.505665e+00	5.641892e-07	4.388533e-07	1.253359e-07
0.615         	1.556827e-07	1.505861e+00	5.667916e-07	4.390785e-07	1.277131e-07
0.62          	1.545362e-07	1.506075e+00	5.998804e-07	4.544764e-07	1.454039e-07
0.625         	1.533244e-07	1.506323e+00	5.591317e-07	4.328903e-07	1.262414e-07
0.63          	1.520564e-07	1.506610e+00	5.926024e-07	4.483576e-07	1.442449e-07
0.635         	1.507376e-07	1.506922e+00	5.808596e-07	4.411674e-07	1.396922e-07
0.64          	1.493743e-07	1.507267e+00	5.951588e-07	4.469537e-07	1.482051e-07
0.645         	1.479720e-07	1.507671e+00	6.040802e-07	4.500121e-07	1.540680e-07
0.65          	1.465360e-07	1.508016e+00	5.968276e-07	4.449498e-07	1.518778e-07
0.655         	1.450697e-07	1.508417e+00	6.231803e-07	4.566598e-07	1.665205e-07
0.66          	1.435768e-07	1.508844e+00	6.086034e-07	4.478785e-07	1.607250e-07
0.665         	1.420619e-07	1.509317e+00	6.101823e-07	4.471531e-07	1.630292e-07
0.67          	1.405298e-07	1.509808e+00	6.360557e-07	4.585577e-07	1.774980e-07
0.675         	1.389824e-07	1.510310e+00	6.224118e-07	4.501883e-07	1.722235e-07
0.68          	1.374227e-07	1.510826e+00	6.453600e-07	4.601027e-07	1.852572e-07
0.685         	1.358530e-07	1.511361e+00	6.465881e-07	4.591471e-07	1.874410e-07
0.69          	1.342758e-07	1.511922e+00	6.258338e-07	4.471926e-07	1.786411e-07
0.695         	1.326935e-07	1.512532e+00	6.494038e-07	4.573954e-07	1.920084e-07
0.7           	1.311089e-07	1.513098e+00	6.374998e-07	4.498588e-07	1.876410e-07
0.705         	1.295228e-07	1.513716e+00	6.619664e-07	4.605060e-07	2.014604e-07
0.71          	1.279377e-07	1.514380e+00	6.651926e-07	4.605340e-07	2.046586e-07
0.715         	1.263556e-07	1.515027e+00	6.494009e-07	4.510560e-07	1.983449e-07
0.72          	1.247776e-07	1.515654e+00	6.732360e-07	4.613956e-07	2.118404e-07
0.725         	1.232037e-07	1.516284e+00	6.627233e-07	4.545654e-07	2.081580e-07
0.73          	1.216357e-07	1.516969e+00	6.830929e-07	4.631821e-07	2.199108e-07
0.735         	1.200749e-07	1.517687e+00	6.647989e-07	4.524743e-07	2.123246e-07
0.74          	1.185244e-07	1.518391e+00	6.951581e-07	4.661035e-07	2.290546e-07
0.745         	1.169834e-07	1.519119e+00	6.817762e-07	4.578715e-07	2.239047e-07
0.75          	1.154528e-07	1.519875e+00	7.085124e-07	4.697090e-07	2.388033e-07
0.755         	1.139333e-07	1.520577e+00	6.699106e-07	4.488886e-07	2.210220e-07
0.76          	1.124251e-07	1.521339e+00	6.985659e-07	4.617081e-07	2.368578e-07
0.765         	1.109296e-07	1.522106e+00	7.018497e-07	4.618544e-07	2.399952e-07
0.77          	1.094476e-07	1.522928e+00	7.165916e-07	4.677434e-07	2.488482e-07
0.775         	1.079793e-07	1.523639e+00	6.831494e-07	4.495540e-07	2.335954e-07
0.78          	1.065245e-07	1.524454e+00	7.298402e-07	4.714446e-07	2.583956e-07
0.785         	1.050843e-07	1.525288e+00	7.163999e-07	4.632842e-07	2.531157e-07
0.79          	1.036595e-07	1.526005e+00	6.967050e-07	4.520120e-07	2.446929e-07
0.795         	1.022488e-07	1.526830e+00	7.540719e-07	4.792847e-07	2.747871e-07
0.8           	1.008532e-07	1.527622e+00	7.042614e-07	4.529839e-07	2.512776e-07
0.805         	9.947321e-08	1.528442e+00	7.273465e-07	4.631464e-07	2.642000e-07
0.81          	9.810982e-08	1.529248e+00	7.325383e-07	4.643790e-07	2.681593e-07
0.815         	9.676276e-08	1.530072e+00	7.379010e-07	4.657133e-07	2.721877e-07
0.82          	9.543219e-08	1.530890e+00	7.386597e-07	4.647621e-07	2.738977e-07
0.825         	9.411800e-08	1.531816e+00	7.754989e-07	4.818674e-07	2.936314e-07
0.83          	9.281992e-08	1.532566e+00	7.017283e-07	4.436841e-07	2.580442e-07
0.835         	9.153806e-08	1.533423e+00	7.671200e-07	4.750981e-07	2.920219e-07
0.84          	9.027298e-08	1.534264e+00	7.509419e-07	4.657440e-07	2.851980e-07
0.845         	8.902549e-08	1.535125e+00	7.549465e-07	4.664987e-07	2.884478e-07
0.85          	8.779594e-08	1.536025e+00	7.944891e-07	4.850405e-07	3.094486e-07
0.855         	8.658174e-08	1.536863e+00	7.380014e-07	4.555824e-07	2.824189e-07
0.86          	8.538470e-08	1.537691e+00	7.744039e-07	4.725867e-07	3.018172e-07
0.865         	8.420339e-08	1.538474e+00	7.480346e-07	4.582207e-07	2.898139e-07
0.87          	8.303789e-08	1.539396e+00	8.050233e-07	4.855495e-07	3.194737e-07
0.875         	8.189020e-08	1.540163e+00	7.551321e-07	4.594562e-07	2.956758e-07
0.88          	8.075825e-08	1.541024e+00	7.923499e-07	4.769332e-07	3.154167e-07
0.885         	7.964228e-08	1.541973e+00	8.059612e-07	4.826229e-07	3.233383e-07
0.89          	7.854408e-08	1.542733e+00	7.511125e-07	4.541003e-07	2.970122e-07
0.895         	7.746240e-08	1.543564e+00	8.110325e-07	4.829786e-07	3.280538e-07
0.9           	7.639697e-08	1.544425e+00	8.010153e-07	4.769046e-07	3.241107e-07
0.905         	7.534812e-08	1.545300e+00	8.048855e-07	4.777909e-07	3.270946e-07
0.91          	7.431466e-08	1.546117e+00	7.896603e-07	4.691448e-07	3.205155e-07
0.915         	7.329665e-08	1.546964e+00	7.980728e-07	4.723331e-07	3.257398e-07
0.92          	7.229469e-08	1.547811e+00	8.115575e-07	4.780734e-07	3.334841e-07
0.925         	7.130842e-08	1.548661e+00	8.172363e-07	4.799266e-07	3.373097e-07
0.93          	7.033780e-08	1.549558e+00	8.288318e-07	4.847537e-07	3.440781e-07
0.935         	6.938287e-08	1.550375e+00	8.073833e-07	4.730745e-07	3.343088e-07
0.94          	6.844322e-08	1.551175e+00	8.176512e-07	4.772688e-07	3.403824e-07
0.945         	6.751868e-08	1.551975e+00	8.322025e-07	4.836199e-07	3.485826e-07
0.95          	6.660851e-08	1.552873e+00	8.446788e-07	4.889479e-07	3.557309e-07
0.955         	6.571406e-08	1.553595e+00	8.096337e-07	4.705309e-07	3.391028e-07
0.96          	6.483364e-08	1.554442e+00	8.569735e-07	4.933204e-07	3.636531e-07
0.965         	6.396725e-08	1.555273e+00	8.340247e-07	4.809796e-07	3.530451e-07
0.97          	6.311556e-08	1.556089e+00	8.685417e-07	4.973864e-07	3.711553e-07
0.975         	6.227789e-08	1.556902e+00	8.395548e-07	4.820553e-07	3.574995e-07
0.98          	6.145369e-08	1.557644e+00	8.317964e-07	4.773519e-07	3.544445e-07
0.985         	6.064270e-08	1.558476e+00	8.661923e-07	4.937388e-07	3.724534e-07
0.99          	5.984552e-08	1.559280e+00	8.630656e-07	4.913783e-07	3.716873e-07
0.995         	5.906224e-08	1.560106e+00	8.807258e-07	4.994251e-07	3.813007e-07
1             	5.829200e-08	1.560821e+00	8.342315e-07	4.754077e-07	3.588237e-07
1.005         	5.753451e-08	1.561600e+00	8.826924e-07	4.988807e-07	3.838117e-07
1.01          	5.679010e-08	1.562373e+00	8.760244e-07	4.948023e-07	3.812221e-07
1.015         	5.605814e-08	1.563152e+00	8.879749e-07	5.000456e-07	3.879293e-07
1.02          	5.533852e-08	1.563940e+00	8.648585e-07	4.877678e-07	3.770907e-07
1.025         	5.463361e-08	1.564711e+00	8.911564e-07	5.002118e-07	3.909446e-07
1.03          	5.394044e-08	1.565484e+00	8.872313e-07	4.975561e-07	3.896752e-07
1.035         	5.325948e-08	1.566193e+00	8.912579e-07	4.988884e-07	3.923695e-07
1.04          	5.258998e-08	1.566901e+00	8.878251e-07	4.965025e-07	3.913226e-07
1.045         	5.193224e-08	1.567636e+00	9.063787e-07	5.051216e-07	4.012571e-07
1.05          	5.128629e-08	1.568364e+00	9.043599e-07	5.034662e-07	4.008937e-07
1.055         	5.065146e-08	1.569107e+00	9.070799e-07	5.041914e-07	4.028885e-07
1.06          	5.002812e-08	1.569811e+00	9.029429e-07	5.014996e-07	4.014433e-07
1.065         	4.941583e-08	1.570508e+00	9.137902e-07	5.063109e-07	4.074793e-07
1.07          	4.881412e-08	1.571213e+00	9.139938e-07	5.058110e-07	4.081828e-07
1.075         	4.822311e-08	1.571959e+00	9.260337e-07	5.112399e-07	4.147937e-07
1.08          	4.764308e-08	1.572600e+00	9.218329e-07	5.085595e-07	4.132734e-07
1.085         	4.707261e-08	1.573297e+00	9.308303e-07	5.124877e-07	4.183425e-07
1.09          	4.651239e-08	1.573951e+00	9.229966e-07	5.080107e-07	4.149859e-07
1.095         	4.596199e-08	1.574622e+00	9.315056e-07	5.117148e-07	4.197908e-07
1.1           	4.542146e-08	1.575269e+00	9.437914e-07	5.173172e-07	4.264742e-07
1.105         	4.489107e-08	1.575943e+00	9.407644e-07	5.152733e-07	4.254911e-07
1.11          	4.437032e-08	1.576604e+00	9.381879e-07	5.134643e-07	4.247236e-07
1.115         	4.385903e-08	1.577226e+00	9.475496e-07	5.176338e-07	4.299158e-07
1.12          	4.335714e-08	1.577848e+00	9.495344e-07	5.181243e-07	4.314101e-07
1.125         	4.286485e-08	1.578484e+00	9.675838e-07	5.266567e-07	4.409270e-07
1.13          	4.238062e-08	1.579130e+00	9.578301e-07	5.212957e-07	4.365344e-07
1.135         	4.190564e-08	1.579683e+00	9.427242e-07	5.132678e-07	4.294565e-07
1.14          	4.143926e-08	1.580296e+00	9.829906e-07	5.329345e-07	4.500560e-07
1.145         	4.098144e-08	1.580901e+00	9.768140e-07	5.293884e-07	4.474255e-07
1.15          	4.053200e-08	1.581474e+00	9.628252e-07	5.219446e-07	4.408806e-07
1.155         	4.009086e-08	1.582065e+00	9.767922e-07	5.284870e-07	4.483052e-07
1.16          	3.965802e-08	1.582619e+00	9.145912e-07	4.969536e-07	4.176376e-07
1.165         	3.923374e-08	1.583189e+00	9.981104e-07	5.382889e-07	4.598214e-07
1.17          	3.881711e-08	1.583746e+00	1.006398e-06	5.420162e-07	4.643819e-07
1.175         	3.840747e-08	1.584303e+00	9.928915e-07	5.348532e-07	4.580383e-07
1.18          	3.800575e-08	1.584858e+00	9.989371e-07	5.374743e-07	4.614628e-07
1.185         	3.761136e-08	1.585482e+00	1.010843e-06	5.430327e-07	4.678100e-07
1.19          	3.722467e-08	1.585915e+00	9.798212e-07	5.271352e-07	4.526859e-07
1.195         	3.684511e-08	1.586416e+00	1.027406e-06	5.505481e-07	4.768579e-07
1.2           	3.647194e-08	1.586942e+00	1.018893e-06	5.459186e-07	4.729748e-07
1.205         	3.610540e-08	1.587435e+00	1.004163e-06	5.381869e-07	4.659761e-07
1.21          	3.574516e-08	1.587993e+00	1.022403e-06	5.469464e-07	4.754561e-07
1.215         	3.539256e-08	1.588401e+00	9.980182e-07	5.344017e-07	4.636165e-07
1.22          	3.504584e-08	1.588887e+00	1.038194e-06	5.541431e-07	4.840514e-07
1.225         	3.470595e-08	1.589384e+00	1.027548e-06	5.484798e-07	4.790679e-07
1.23          	3.437277e-08	1.589911e+00	1.034404e-06	5.515749e-07	4.828293e-07
1.235         	3.404549e-08	1.590308e+00	1.013667e-06	5.408792e-07	4.727882e-07
1.24          	3.372499e-08	1.590756e+00	1.054540e-06	5.609950e-07	4.935450e-07
1.245         	3.341006e-08	1.591208e+00	1.026730e-06	5.467753e-07	4.799552e-07
1.25          	3.310091e-08	1.591622e+00	1.035839e-06	5.510203e-07	4.848185e-07
1.255         	3.279761e-08	1.592087e+00	1.069730e-06	5.676626e-07	5.020674e-07
1.26          	3.250002e-08	1.592486e+00	1.043442e-06	5.542212e-07	4.892211e-07
1.265         	3.220775e-08	1.592886e+00	1.049543e-06	5.569790e-07	4.925635e-07
1.27          	3.192074e-08	1.593273e+00	1.058684e-06	5.612626e-07	4.974211e-07
1.275         	3.163906e-08	1.593653e+00	1.061135e-06	5.622066e-07	4.989285e-07
1.28          	3.136240e-08	1.594045e+00	1.056256e-06	5.594903e-07	4.967655e-07
1.285         	3.109034e-08	1.594429e+00	1.083422e-06	5.728013e-07	5.106206e-07
1.29          	3.082374e-08	1.594816e+00	1.069971e-06	5.658093e-07	5.041619e-07
1.295         	3.056209e-08	1.595219e+00	1.076923e-06	5.690236e-07	5.078994e-07
1.3           	3.030565e-08	1.595655e+00	1.072753e-06	5.666821e-07	5.060708e-07
1.305         	3.005292e-08	1.595874e+00	1.042776e-06	5.514411e-07	4.913353e-07
1.31          	2.980521e-08	1.596193e+00	1.149445e-06	6.045276e-07	5.449172e-07
1.315         	2.956121e-08	1.596480e+00	1.045277e-06	5.521995e-07	4.930771e-07
1.32          	2.932196e-08	1.596879e+00	1.086653e-06	5.726486e-07	5.140047e-07
1.325         	2.908629e-08	1.597202e+00	1.086235e-06	5.722039e-07	5.140313e-07
1.33          	2.885596e-08	1.597519e+00	1.079655e-06	5.686835e-07	5.109716e-07
1.335         	2.863002e-08	1.597809e+00	1.078499e-06	5.678797e-07	5.106197e-07
1.34          	2.840834e-08	1.598143e+00	1.087581e-06	5.721988e-07	5.153822e-07
1.345         	2.819111e-08	1.598441e+00	1.099614e-06	5.779983e-07	5.216161e-07
1.35          	2.797785e-08	1.598736e+00	1.114614e-06	5.852847e-07	5.293290e-07
1.355         	2.776807e-08	1.599081e+00	1.098981e-06	5.772584e-07	5.217223e-07
1.36          	2.756113e-08	1.599282e+00	1.123498e-06	5.893101e-07	5.341879e-07
1.365         	2.735805e-08	1.599467e+00	1.090945e-06	5.728304e-07	5.181143e-07
1.37          	2.715817e-08	1.599659e+00	1.113886e-06	5.841012e-07	5.297849e-07
1.375         	2.696218e-08	1.599986e+00	1.139056e-06	5.964903e-07	5.425659e-07
1.38          	2.676914e-08	1.600228e+00	1.095577e-06	5.745574e-07	5.210191e-07
1.385         	2.657999e-08	1.600469e+00	1.071235e-06	5.621973e-07	5.090373e-07
1.39          	2.639471e-08	1.600709e+00	1.150761e-06	6.017753e-07	5.489858e-07
1.395         	2.621269e-08	1.600992e+00	1.117987e-06	5.852060e-07	5.327806e-07
1.4           	2.603424e-08	1.601137e+00	1.119805e-06	5.859367e-07	5.338682e-07
1.405         	2.585923e-08	1.601363e+00	1.160339e-06	6.060287e-07	5.543102e-07
1.41          	2.568677e-08	1.601551e+00	1.150383e-06	6.008782e-07	5.495047e-07
1.415         	2.551810e-08	1.601752e+00	1.153169e-06	6.021024e-07	5.510662e-07
1.42          	2.535218e-08	1.601900e+00	1.142591e-06	5.966477e-07	5.459433e-07
1.425         	2.518889e-08	1.602270e+00	1.167742e-06	6.090597e-07	5.586819e-07
1.43          	2.502784e-08	1.602351e+00	1.106439e-06	5.782475e-07	5.281918e-07
1.435         	2.487083e-08	1.602695e+00	1.162140e-06	6.059406e-07	5.561990e-07
1.44          	2.471469e-08	1.602720e+00	1.357465e-06	7.034473e-07	6.540179e-07
1.445         	2.455935e-08	1.602681e+00	1.168918e-06	6.090181e-07	5.598994e-07
1.45          	2.440769e-08	1.602842e+00	1.000464e-06	5.246398e-07	4.758245e-07
1.455         	2.425979e-08	1.603089e+00	1.161425e-06	6.049722e-07	5.564526e-07
1.46          	2.411384e-08	1.603184e+00	1.185074e-06	6.166511e-07	5.684234e-07
1.465         	2.397095e-08	1.603159e+00	1.359094e-06	7.035181e-07	6.555762e-07
1.47          	2.382860e-08	1.603289e+00	9.561585e-07	5.019078e-07	4.542506e-07
1.475         	2.369064e-08	1.603416e+00	1.170561e-06	6.089711e-07	5.615898e-07
1.48          	2.355515e-08	1.603542e+00	1.162039e-06	6.045745e-07	5.574642e-07
1.485         	2.342189e-08	1.603676e+00	1.186608e-06	6.167259e-07	5.698821e-07
1.49          	2.329211e-08	1.603750e+00	1.250620e-06	6.486019e-07	6.020177e-07
1.495         	2.316364e-08	1.604056e+00	1.198192e-06	6.222597e-07	5.759324e-07
1.5           	2.303771e-08	1.603826e+00	1.423294e-06	7.346846e-07	6.886092e-07
1.505         	2.291203e-08	1.603900e+00	9.798015e-07	5.128128e-07	4.669887e-07
1.51          	2.279059e-08	1.603967e+00	1.152576e-06	5.990788e-07	5.534976e-07
1.515         	2.267034e-08	1.604045e+00	1.191445e-06	6.183929e-07	5.730522e-07
1.52          	2.255172e-08	1.604115e+00	1.179507e-06	6.123050e-07	5.672016e-07
1.525         	2.243546e-08	1.604183e+00	1.179547e-06	6.122088e-07	5.673379e-07
1.53          	2.232144e-08	1.604246e+00	1.203918e-06	6.242803e-07	5.796374e-07
1.535         	2.220953e-08	1.604305e+00	1.186835e-06	6.156271e-07	5.712080e-07
1.54          	2.209918e-08	1.604401e+00	1.204788e-06	6.244934e-07	5.802950e-07
1.545         	2.199124e-08	1.604574e+00	1.189552e-06	6.167671e-07	5.727846e-07
1.55          	2.188459e-08	1.604462e+00	1.434334e-06	7.390516e-07	6.952825e-07
1.555         	2.177887e-08	1.604231e+00	1.255124e-06	6.493410e-07	6.057833e-07
1.56          	2.167555e-08	1.604353e+00	1.049198e-06	5.462743e-07	5.029232e-07
1.565         	2.157445e-08	1.604379e+00	1.252881e-06	6.480150e-07	6.048661e-07
1.57          	2.147321e-08	1.604237e+00	1.450215e-06	7.465806e-07	7.036341e-07
1.575         	2.137202e-08	1.604184e+00	1.221384e-06	6.320639e-07	5.893198e-07
1.58          	2.127352e-08	1.604202e+00	1.006847e-06	5.246972e-07	4.821501e-07
1.585         	2.117879e-08	1.604312e+00	1.243854e-06	6.431059e-07	6.007483e-07
1.59          	2.108492e-08	1.604095e+00	1.485171e-06	7.636704e-07	7.215005e-07
1.595         	2.099057e-08	1.604091e+00	9.971528e-07	5.195669e-07	4.775858e-07
1.6           	2.090014e-08	1.604155e+00	1.287910e-06	6.648554e-07	6.230551e-07
1.605         	2.081029e-08	1.604145e+00	1.219197e-06	6.304090e-07	5.887884e-07
1.61          	2.072207e-08	1.604131e+00	1.228882e-06	6.351630e-07	5.937189e-07
1.615         	2.063567e-08	1.604128e+00	1.221240e-06	6.312556e-07	5.899843e-07
1.62          	2.055076e-08	1.604245e+00	1.229117e-06	6.351091e-07	5.940076e-07
1.625         	2.046808e-08	1.604077e+00	1.529485e-06	7.852108e-07	7.442747e-07
1.63          	2.038529e-08	1.603656e+00	1.305272e-06	6.730213e-07	6.322507e-07
1.635         	2.030235e-08	1.603566e+00	1.160009e-06	6.003071e-07	5.597024e-07
1.64          	2.022102e-08	1.603518e+00	1.281872e-06	6.611571e-07	6.207151e-07
1.645         	2.014127e-08	1.603465e+00	1.280790e-06	6.605364e-07	6.202539e-07
1.65          	2.006276e-08	1.603387e+00	1.076385e-06	5.582553e-07	5.181298e-07
1.655         	1.998596e-08	1.603316e+00	1.480665e-06	7.603183e-07	7.203463e-07
1.66          	1.990873e-08	1.603239e+00	1.275748e-06	6.577829e-07	6.179655e-07
1.665         	1.983341e-08	1.603156e+00	1.072251e-06	5.559590e-07	5.162922e-07
1.67          	1.975966e-08	1.603081e+00	1.461507e-06	7.505131e-07	7.109938e-07
1.675         	1.968571e-08	1.603050e+00	1.074075e-06	5.567234e-07	5.173520e-07
1.68          	1.961492e-08	1.603018e+00	1.279452e-06	6.593408e-07	6.201109e-07
1.685         	1.954556e-08	1.602656e+00	1.532506e-06	7.857983e-07	7.467072e-07
1.69          	1.947547e-08	1.602570e+00	1.057715e-06	5.483330e-07	5.093821e-07
1.695         	1.940746e-08	1.602486e+00	1.255522e-06	6.471685e-07	6.083535e-07
1.7           	1.934029e-08	1.602317e+00	1.537328e-06	7.880043e-07	7.493237e-07
1.705         	1.927262e-08	1.602205e+00	1.291919e-06	6.652322e-07	6.266870e-07
1.71          	1.920623e-08	1.602094e+00	1.309799e-06	6.741059e-07	6.356935e-07
1.715         	1.914083e-08	1.601998e+00	1.296159e-06	6.672205e-07	6.289388e-07
1.72          	1.907686e-08	1.602001e+00	1.103265e-06	5.707091e-07	5.325554e-07
1.725         	1.901497e-08	1.601706e+00	1.543578e-06	7.908042e-07	7.527743e-07
1.73          	1.895233e-08	1.601648e+00	1.107572e-06	5.727384e-07	5.348337e-07
1.735         	1.889316e-08	1.601292e+00	1.555205e-06	7.964957e-07	7.587093e-07
1.74          	1.883348e-08	1.601011e+00	1.366231e-06	7.019492e-07	6.642823e-07
1.745         	1.877466e-08	1.600793e+00	1.353704e-06	6.956268e-07	6.580774e-07
1.75          	1.871587e-08	1.600642e+00	1.295557e-06	6.664945e-07	6.290628e-07
1.755         	1.865878e-08	1.600798e+00	1.114805e-06	5.760613e-07	5.387437e-07
1.76          	1.860392e-08	1.600575e+00	1.557772e-06	7.974899e-07	7.602821e-07
1.765         	1.854836e-08	1.600089e+00	1.367493e-06	7.022951e-07	6.651984e-07
1.77          	1.849336e-08	1.599932e+00	1.332783e-06	6.848847e-07	6.478980e-07
1.775         	1.843805e-08	1.599780e+00	1.329609e-06	6.832423e-07	6.463662e-07
1.78          	1.838362e-08	1.599634e+00	1.261274e-06	6.490204e-07	6.122531e-07
1.785         	1.833099e-08	1.599461e+00	1.384161e-06	7.104116e-07	6.737496e-07
1.79          	1.827951e-08	1.599215e+00	1.396358e-06	7.164583e-07	6.798993e-07
1.795         	1.822842e-08	1.598949e+00	1.382445e-06	7.094510e-07	6.729941e-07
1.8           	1.817800e-08	1.598773e+00	1.441895e-06	7.391257e-07	7.027697e-07
1.805         	1.812764e-08	1.598594e+00	1.322447e-06	6.793512e-07	6.430959e-07
1.81          	1.807805e-08	1.598426e+00	1.359559e-06	6.978573e-07	6.617012e-07
1.815         	1.802900e-08	1.598277e+00	1.336712e-06	6.863852e-07	6.503272e-07
1.82          	1.798105e-08	1.598162e+00	1.148954e-06	5.924581e-07	5.564960e-07
1.825         	1.793566e-08	1.597691e+00	1.564060e-06	7.999656e-07	7.640943e-07
1.83          	1.788879e-08	1.597487e+00	1.364109e-06	6.999431e-07	6.641655e-07
1.835         	1.784266e-08	1.597360e+00	1.072955e-06	5.543201e-07	5.186348e-07
1.84          	1.779883e-08	1.597047e+00	1.598286e-06	8.169416e-07	7.813439e-07
1.845         	1.775387e-08	1.596836e+00	1.367401e-06	7.014544e-07	6.659467e-07