/*--------------------------------*- C++ -*----------------------------------*\
  =========                 |
  \\      /  F ield         | OpenFOAM: The Open Source CFD Toolbox
   \\    /   O peration     | Website:  https://openfoam.org
    \\  /    A nd           | Version:  7
     \\/     M anipulation  |
\*---------------------------------------------------------------------------*/
FoamFile
{
    version     2.0;
    format      ascii;
    class       surfaceScalarField;
    location    "10";
    object      phi;
}
// * * * * * * * * * * * * * * * * * * * * * * * * * * * * * * * * * * * * * //

dimensions      [0 3 -1 0 0 0 0];

internalField   nonuniform List<scalar> 
16730
(
-0.00365997
-0.000555074
-0.000535242
-0.00350746
-0.00360991
-0.000585305
-0.000512774
-0.00336306
-0.000563341
-0.00345689
-0.00355822
-0.000615036
-0.000488685
-0.00322825
-0.000538798
-0.00331295
-0.00059091
-0.00340478
-0.00350488
-0.00064425
-0.000512885
-0.00317878
-0.000564314
-0.00326152
-0.000617938
-0.00335116
-0.0034499
-0.000672918
-0.000485939
-0.00305265
-0.000536637
-0.00312809
-0.000589326
-0.00320883
-0.000644418
-0.00329607
-0.00339327
-0.000701041
-0.000457754
-0.00293296
-0.000508042
-0.00300236
-0.000559949
-0.00307618
-0.00061385
-0.00315493
-0.000670364
-0.00323955
-0.00333495
-0.00072869
-0.000478208
-0.00288288
-0.000529732
-0.00295084
-0.000582841
-0.00302307
-0.000637921
-0.00309985
-0.000695775
-0.0031817
-0.00327491
-0.000755817
-0.000446943
-0.002769
-0.00049825
-0.00283157
-0.000551007
-0.00289808
-0.000605335
-0.00296874
-0.000661606
-0.00304358
-0.000720568
-0.00312273
-0.00321312
-0.000782352
-0.000465347
-0.00271788
-0.00051787
-0.00277905
-0.000571858
-0.00284409
-0.000627439
-0.00291316
-0.00068496
-0.00298606
-0.000745237
-0.00306246
-0.00315086
-0.000807499
-0.000431027
-0.00260942
-0.000483333
-0.00266557
-0.000537049
-0.00272534
-0.00059226
-0.00278888
-0.000649117
-0.0028563
-0.000707712
-0.00292746
-0.000767196
-0.00300297
-0.00308567
-0.000832386
-0.000395342
-0.00250578
-0.000447446
-0.00255732
-0.000500904
-0.00261211
-0.000555789
-0.00267045
-0.000612193
-0.00273248
-0.000670256
-0.00279824
-0.000730007
-0.00286771
-0.000791433
-0.00294155
-0.00302017
-0.000856932
-0.000410244
-0.00245387
-0.000463466
-0.00250409
-0.000518051
-0.00255753
-0.000574075
-0.00261443
-0.000631635
-0.00267492
-0.000690851
-0.00273902
-0.000751783
-0.00280678
-0.000814665
-0.00287867
-0.00295423
-0.000880606
-0.000371773
-0.00235453
-0.00042477
-0.00240087
-0.000479084
-0.00244978
-0.000534769
-0.00250184
-0.000591903
-0.00255729
-0.000650583
-0.00261624
-0.000710916
-0.00267869
-0.000772992
-0.0027447
-0.000837064
-0.00281459
-0.00288762
-0.000903675
-0.000384857
-0.00230177
-0.000438919
-0.00234681
-0.0004943
-0.0023944
-0.000551057
-0.00244508
-0.00060927
-0.00249908
-0.000669036
-0.00255647
-0.000730454
-0.00261727
-0.000793625
-0.00268153
-0.00085876
-0.00274946
-0.00282024
-0.00092614
-0.000397589
-0.00224797
-0.000452689
-0.00229171
-0.000509109
-0.00233798
-0.000566911
-0.00238728
-0.000626175
-0.00243982
-0.000686994
-0.00249565
-0.000749465
-0.0025548
-0.000813687
-0.00261731
-0.000879826
-0.00268332
-0.00275203
-0.000948032
-0.000355153
-0.00215202
-0.000409967
-0.00219316
-0.000466078
-0.0022356
-0.000523512
-0.00228054
-0.000582331
-0.00232846
-0.000642616
-0.00237953
-0.000704459
-0.00243381
-0.000767952
-0.00249131
-0.000833188
-0.00255207
-0.000900299
-0.00261621
-0.00268296
-0.000969373
-0.000366186
-0.00209755
-0.00042199
-0.00213736
-0.000479087
-0.00217851
-0.000537506
-0.00222213
-0.000597315
-0.00226865
-0.000658594
-0.00231825
-0.000721432
-0.00237097
-0.000785918
-0.00242682
-0.000852139
-0.00248585
-0.000920203
-0.00254814
-0.00261299
-0.000990171
-0.000321452
-0.0020026
-0.000376891
-0.00204211
-0.000433658
-0.00208059
-0.000491713
-0.00212045
-0.000551091
-0.00216275
-0.000611863
-0.00220788
-0.000674108
-0.00225601
-0.000737914
-0.00230717
-0.000803366
-0.00236137
-0.000870547
-0.00241867
-0.000939551
-0.00247914
-0.00254212
-0.00101043
-0.00033088
-0.00194769
-0.000387268
-0.00198573
-0.000444969
-0.00202289
-0.000503956
-0.00206146
-0.000564267
-0.00210243
-0.000625974
-0.00214618
-0.000689158
-0.00219282
-0.000753905
-0.00224242
-0.000820298
-0.00229498
-0.000888417
-0.00235055
-0.000958347
-0.00240921
-0.00247033
-0.00103013
-0.000284149
-0.0018501
-0.000340009
-0.00189183
-0.000397316
-0.00192842
-0.000455924
-0.00196428
-0.000515815
-0.00200157
-0.000577032
-0.00204122
-0.000639647
-0.00208356
-0.000703744
-0.00212873
-0.000769406
-0.00217676
-0.000836716
-0.00222767
-0.000905751
-0.00228151
-0.000976593
-0.00233837
-0.00239763
-0.00104929
-0.000292062
-0.00179509
-0.000348836
-0.00183506
-0.000407034
-0.00187022
-0.000466522
-0.00190479
-0.00052729
-0.00194081
-0.000589385
-0.00197912
-0.000652883
-0.00202006
-0.000717865
-0.00206374
-0.000784416
-0.00211021
-0.000852619
-0.00215947
-0.000922549
-0.00221158
-0.000994289
-0.00226663
-0.00232403
-0.00106789
-0.000299705
-0.00173916
-0.000357363
-0.0017774
-0.000416422
-0.00181116
-0.000476762
-0.00184445
-0.00053838
-0.00187919
-0.000601327
-0.00191618
-0.00066568
-0.00195571
-0.000731521
-0.0019979
-0.000798936
-0.00204279
-0.000868007
-0.0020904
-0.000938811
-0.00214078
-0.00101143
-0.00219401
-0.00224954
-0.00108592
-0.000250251
-0.00163465
-0.000307077
-0.00168233
-0.000365589
-0.00171889
-0.00042548
-0.00175127
-0.000486645
-0.00178329
-0.000549084
-0.00181675
-0.000612856
-0.0018524
-0.000678037
-0.00189053
-0.000744711
-0.00193123
-0.000812964
-0.00197454
-0.000882879
-0.00202048
-0.000954534
-0.00206913
-0.00102801
-0.00212053
-0.00217418
-0.00110338
-0.000256495
-0.0015792
-0.000314179
-0.00162465
-0.000373513
-0.00165955
-0.000434208
-0.00169058
-0.000496168
-0.00172133
-0.000559403
-0.00175351
-0.000623971
-0.00178783
-0.000689953
-0.00182455
-0.000757433
-0.00186375
-0.000826498
-0.00190547
-0.000897232
-0.00194975
-0.000969715
-0.00199664
-0.00104403
-0.00204621
-0.00209796
-0.00112025
-0.0002625
-0.00152288
-0.00032101
-0.00156614
-0.000381136
-0.00159943
-0.000442605
-0.00162911
-0.000505333
-0.0016586
-0.000569334
-0.00168951
-0.000634672
-0.0017225
-0.000701428
-0.00175779
-0.000769687
-0.00179549
-0.000839538
-0.00183562
-0.000911064
-0.00187822
-0.000984351
-0.00192336
-0.00105949
-0.00197108
-0.00202091
-0.00113653
-0.000211104
-0.0014053
-0.000268268
-0.00146572
-0.00032757
-0.00150684
-0.000388457
-0.00153854
-0.000450671
-0.00156689
-0.000514137
-0.00159513
-0.000578878
-0.00162477
-0.000644957
-0.00165642
-0.000712459
-0.00169029
-0.00078147
-0.00172648
-0.00085208
-0.00176501
-0.000924374
-0.00180593
-0.000998438
-0.00184929
-0.00107436
-0.00189515
-0.00194305
-0.00115222
-0.000215828
-0.00135038
-0.000273797
-0.00140775
-0.000333859
-0.00144678
-0.000395476
-0.00147692
-0.000458405
-0.00150396
-0.000522582
-0.00153096
-0.000588033
-0.00155932
-0.000654826
-0.00158962
-0.000723046
-0.00162207
-0.000792781
-0.00165674
-0.000864122
-0.00169367
-0.000937157
-0.00173289
-0.00101197
-0.00177448
-0.00108866
-0.00181846
-0.00186441
-0.0011673
-0.000220348
-0.00129463
-0.000279089
-0.00134901
-0.000339876
-0.00138599
-0.000402192
-0.00141461
-0.000465808
-0.00144035
-0.000530666
-0.0014661
-0.000596799
-0.00149319
-0.000664277
-0.00152215
-0.000733187
-0.00155316
-0.000803619
-0.00158631
-0.000875663
-0.00162163
-0.000949411
-0.00165914
-0.00102495
-0.00169893
-0.00110238
-0.00174103
-0.00178502
-0.00118178
-0.000224667
-0.00123809
-0.000284141
-0.00128953
-0.000345622
-0.00132451
-0.000408606
-0.00135162
-0.000472878
-0.00137608
-0.000538388
-0.00140059
-0.000605174
-0.0014264
-0.000673309
-0.00145401
-0.000742881
-0.00148359
-0.00081398
-0.00151521
-0.0008867
-0.00154891
-0.000961132
-0.00158471
-0.00103737
-0.0016227
-0.00111551
-0.00166289
-0.0017049
-0.00119563
-0.00017149
-0.00110474
-0.000228781
-0.0011808
-0.000288955
-0.00122936
-0.000351096
-0.00126237
-0.000414717
-0.001288
-0.000479615
-0.00131118
-0.000545749
-0.00133446
-0.000613159
-0.00135899
-0.000681922
-0.00138525
-0.000752125
-0.00141339
-0.000823863
-0.00144347
-0.00089723
-0.00147554
-0.000972318
-0.00150962
-0.00104922
-0.00154579
-0.00112805
-0.00158406
-0.00162408
-0.00120887
-0.000174688
-0.00105104
-0.000232692
-0.00112279
-0.000293529
-0.00116852
-0.000356298
-0.0011996
-0.000420526
-0.00122377
-0.00048602
-0.00124568
-0.000552747
-0.00126773
-0.000620752
-0.00129099
-0.000690113
-0.00131589
-0.00076092
-0.00134258
-0.000833267
-0.00137113
-0.000907251
-0.00140156
-0.000982966
-0.00143391
-0.00106051
-0.00146825
-0.00113998
-0.00150459
-0.00154259
-0.00122147
-0.000177721
-0.000996619
-0.0002364
-0.00106411
-0.000297865
-0.00110706
-0.000361228
-0.00113623
-0.00042603
-0.00115897
-0.00049209
-0.00117962
-0.000559381
-0.00120044
-0.000627951
-0.00122242
-0.000697881
-0.00124596
-0.000769262
-0.0012712
-0.000842189
-0.0012982
-0.000916761
-0.00132699
-0.000993073
-0.0013576
-0.00107122
-0.00139009
-0.00115132
-0.00142449
-0.00146047
-0.00123344
-0.000180588
-0.000941514
-0.000239903
-0.0010048
-0.00030196
-0.001045
-0.000365885
-0.00107231
-0.000431231
-0.00109363
-0.000497827
-0.00111303
-0.000565652
-0.00113261
-0.000634757
-0.00115331
-0.000705226
-0.00117549
-0.00077715
-0.00119927
-0.000850628
-0.00122472
-0.000925756
-0.00125186
-0.00100263
-0.00128072
-0.00108136
-0.00131137
-0.00116205
-0.00134381
-0.00137775
-0.00124477
-0.000183288
-0.000885767
-0.000243201
-0.000944885
-0.000305816
-0.000982385
-0.00037027
-0.00100786
-0.000436129
-0.00102777
-0.000503229
-0.00104593
-0.000571558
-0.00106428
-0.000641168
-0.0010837
-0.000712146
-0.00110451
-0.000784584
-0.00112684
-0.000858581
-0.00115072
-0.000934236
-0.0011762
-0.00101165
-0.0012033
-0.00109092
-0.00123209
-0.00117217
-0.00126257
-0.00129445
-0.00125546
-0.000129473
-0.000742625
-0.000185822
-0.000829419
-0.000246294
-0.000884413
-0.000309432
-0.000919247
-0.000374382
-0.000942906
-0.000440722
-0.000961428
-0.000508297
-0.000978352
-0.000577098
-0.000995483
-0.000647184
-0.00101362
-0.00071864
-0.00103306
-0.000791561
-0.00105391
-0.000866046
-0.00107624
-0.000942197
-0.00110005
-0.00102011
-0.00112539
-0.0010999
-0.0011523
-0.00118167
-0.0011808
-0.00121061
-0.00126551
-0.000131279
-0.000692017
-0.000188188
-0.00077251
-0.000249183
-0.000823417
-0.000312808
-0.000855622
-0.000378221
-0.000877493
-0.00044501
-0.000894639
-0.000513029
-0.000910334
-0.000582273
-0.000926239
-0.000652803
-0.000943085
-0.000724706
-0.000961153
-0.000798079
-0.000980542
-0.000873023
-0.00100129
-0.000949638
-0.00102344
-0.00102803
-0.001047
-0.0011083
-0.00107203
-0.00119056
-0.00109854
-0.00112627
-0.0012749
-0.000132958
-0.000640867
-0.000190386
-0.000715082
-0.000251866
-0.000761938
-0.000315944
-0.000791544
-0.000381787
-0.00081165
-0.000448993
-0.000827432
-0.000517425
-0.000841902
-0.000587081
-0.000856583
-0.000658024
-0.000872141
-0.000730344
-0.000888832
-0.000804139
-0.000906747
-0.000879508
-0.000925925
-0.000956556
-0.000946389
-0.00103539
-0.000968167
-0.00111611
-0.000991311
-0.00119882
-0.00101582
-0.00104146
-0.00128363
-0.000134509
-0.000589217
-0.000192417
-0.000657174
-0.000254344
-0.000700011
-0.000318839
-0.000727049
-0.000385079
-0.00074541
-0.000452672
-0.00075984
-0.000521485
-0.000773089
-0.000591521
-0.000786546
-0.000662848
-0.000800815
-0.000735553
-0.000816127
-0.000809737
-0.000832563
-0.000885501
-0.000850161
-0.000962949
-0.000868941
-0.00104219
-0.00088893
-0.00112332
-0.000910175
-0.00120647
-0.000932673
-0.00095622
-0.00129171
-0.000135932
-0.000537109
-0.000194279
-0.000598826
-0.000256615
-0.000637674
-0.000321494
-0.00066217
-0.000388098
-0.000678806
-0.000456045
-0.000691893
-0.000525208
-0.000703927
-0.000595594
-0.00071616
-0.000667272
-0.000729137
-0.000740332
-0.000743067
-0.000814874
-0.000758022
-0.000891
-0.000774034
-0.000968816
-0.000791125
-0.00104843
-0.000809318
-0.00112995
-0.000828657
-0.00121348
-0.000849137
-0.000870575
-0.00129913
-0.000137226
-0.000484585
-0.000195973
-0.00054008
-0.000258681
-0.000574966
-0.000323907
-0.000596944
-0.000390843
-0.00061187
-0.000459112
-0.000623624
-0.000528594
-0.000634445
-0.000599299
-0.000645455
-0.000671296
-0.00065714
-0.000744679
-0.000669684
-0.000819547
-0.000683153
-0.000896004
-0.000697577
-0.000974155
-0.000712974
-0.00105411
-0.000729365
-0.00113598
-0.000746791
-0.00121987
-0.000765245
-0.000784565
-0.00130588
-0.000138393
-0.000431686
-0.000197498
-0.000480974
-0.000260541
-0.000511923
-0.00032608
-0.000531405
-0.000393314
-0.000544636
-0.000461873
-0.000555065
-0.000531642
-0.000564676
-0.000602634
-0.000574463
-0.00067492
-0.000584853
-0.000748594
-0.00059601
-0.000823756
-0.000607991
-0.000900511
-0.000620822
-0.000978965
-0.00063452
-0.00105923
-0.000649104
-0.00114141
-0.00066461
-0.00122562
-0.000681032
-0.000698225
-0.00131196
-0.00013943
-0.000378453
-0.000198854
-0.00042155
-0.000262195
-0.000448583
-0.000328012
-0.000465588
-0.000395511
-0.000477137
-0.000464328
-0.000486247
-0.000534353
-0.000494652
-0.0006056
-0.000503215
-0.000678143
-0.00051231
-0.000752076
-0.000522077
-0.0008275
-0.000532567
-0.000904521
-0.000543802
-0.000983244
-0.000555797
-0.00106378
-0.000568568
-0.00114624
-0.000582149
-0.00123074
-0.000596532
-0.000611591
-0.00131737
-0.000140338
-0.00032493
-0.000200042
-0.000361846
-0.000263642
-0.000384982
-0.000329703
-0.000399527
-0.000397434
-0.000409406
-0.000466477
-0.000417204
-0.000536725
-0.000424404
-0.000608197
-0.000431744
-0.000680965
-0.000439542
-0.000755125
-0.000447917
-0.000830778
-0.000456914
-0.000908031
-0.000466549
-0.000986991
-0.000476837
-0.00106777
-0.000487792
-0.00115047
-0.000499442
-0.00123522
-0.000511781
-0.000524701
-0.00132211
-8.73435e-05
-0.000223942
-0.000141117
-0.000271156
-0.000201059
-0.000301904
-0.000264883
-0.000321159
-0.000331152
-0.000333258
-0.000399082
-0.000341476
-0.000468319
-0.000347967
-0.000538759
-0.000353964
-0.000610423
-0.000360081
-0.000683384
-0.000366581
-0.000757739
-0.000373563
-0.000833589
-0.000381063
-0.000911042
-0.000389097
-0.000990204
-0.000397675
-0.00107119
-0.00040681
-0.0011541
-0.000416525
-0.00123907
-0.000426815
-0.000437589
-0.00132618
-8.77847e-05
-0.000179396
-0.000141766
-0.000217175
-0.000201908
-0.000241762
-0.000265917
-0.00025715
-0.00033236
-0.000266815
-0.000400456
-0.00027338
-0.000469855
-0.000278568
-0.000540455
-0.000283363
-0.000612278
-0.000288257
-0.000685401
-0.000293458
-0.000759918
-0.000299046
-0.000835933
-0.000305048
-0.000913552
-0.000311478
-0.000992883
-0.000318343
-0.00107404
-0.000325655
-0.00115713
-0.000333432
-0.00124228
-0.000341668
-0.000350293
-0.00132957
-8.81378e-05
-0.000134688
-0.000142286
-0.000163027
-0.000202587
-0.000181461
-0.000266744
-0.000192993
-0.000333326
-0.000200233
-0.000401555
-0.000205152
-0.000471083
-0.000209039
-0.000541811
-0.000212635
-0.000613763
-0.000216305
-0.000687015
-0.000220207
-0.000761662
-0.000224399
-0.000837808
-0.000228902
-0.000915561
-0.000233725
-0.000995028
-0.000238876
-0.00107632
-0.000244362
-0.00115955
-0.000250197
-0.00124485
-0.000256378
-0.00026285
-0.00133229
-8.84028e-05
-8.98593e-05
-0.000142675
-0.000108754
-0.000203096
-0.000121041
-0.000267365
-0.000128724
-0.000334051
-0.000133547
-0.000402379
-0.000136823
-0.000472004
-0.000139414
-0.000542829
-0.00014181
-0.000614877
-0.000144257
-0.000688225
-0.000146859
-0.00076297
-0.000149654
-0.000839215
-0.000152656
-0.000917068
-0.000155873
-0.000996636
-0.000159308
-0.00107803
-0.000162966
-0.00116137
-0.000166857
-0.00124677
-0.000170979
-0.000175295
-0.00133433
-8.85794e-05
-4.49501e-05
-0.000142935
-5.43983e-05
-0.000203435
-6.05406e-05
-0.000267778
-6.4381e-05
-0.000334534
-6.67915e-05
-0.000402929
-6.84287e-05
-0.000472619
-6.97235e-05
-0.000543507
-7.09218e-05
-0.00061562
-7.21452e-05
-0.000689032
-7.3446e-05
-0.000763842
-7.48436e-05
-0.000840154
-7.63451e-05
-0.000918073
-7.79536e-05
-0.000997709
-7.96713e-05
-0.00107917
-8.15009e-05
-0.00116259
-8.34468e-05
-0.00124806
-8.5508e-05
-8.76665e-05
-0.00133568
-8.86677e-05
-6.90826e-10
-0.000143065
-8.17022e-10
-0.000203605
-8.89622e-10
-0.000267985
-9.26955e-10
-0.000334776
-9.43585e-10
-0.000403203
-9.49902e-10
-0.000472926
-9.52312e-10
-0.000543847
-9.54137e-10
-0.000615991
-9.56756e-10
-0.000689436
-9.60532e-10
-0.000764279
-9.65403e-10
-0.000840623
-9.71194e-10
-0.000918575
-9.77705e-10
-0.000998246
-9.84787e-10
-0.00107975
-9.92317e-10
-0.00116319
-1.00025e-09
-0.0012487
-1.0085e-09
-1.01678e-09
-0.00133636
-8.86677e-05
4.49487e-05
-0.000143065
5.43967e-05
-0.000203605
6.05389e-05
-0.000267985
6.43791e-05
-0.000334776
6.67896e-05
-0.000403203
6.84268e-05
-0.000472926
6.97216e-05
-0.000543847
7.09198e-05
-0.000615991
7.21433e-05
-0.000689436
7.3444e-05
-0.000764279
7.48416e-05
-0.000840623
7.63431e-05
-0.000918575
7.79517e-05
-0.000998246
7.96694e-05
-0.00107975
8.14989e-05
-0.00116319
8.34448e-05
-0.0012487
8.5506e-05
8.76645e-05
-0.00133636
-8.85794e-05
8.98579e-05
-0.000142935
0.000108753
-0.000203435
0.000121039
-0.000267778
0.000128722
-0.000334534
0.000133545
-0.000402929
0.000136821
-0.000472619
0.000139412
-0.000543507
0.000141809
-0.00061562
0.000144255
-0.000689032
0.000146857
-0.000763842
0.000149652
-0.000840154
0.000152654
-0.000918073
0.000155871
-0.000997709
0.000159306
-0.00107917
0.000162964
-0.00116259
0.000166855
-0.00124806
0.000170977
0.000175293
-0.00133568
-8.84028e-05
0.000134686
-0.000142675
0.000163025
-0.000203096
0.000181459
-0.000267365
0.000192991
-0.000334051
0.000200232
-0.000402379
0.00020515
-0.000472004
0.000209037
-0.000542829
0.000212633
-0.000614877
0.000216303
-0.000688225
0.000220205
-0.00076297
0.000224397
-0.000839215
0.0002289
-0.000917068
0.000233723
-0.000996636
0.000238874
-0.00107803
0.00024436
-0.00116137
0.000250195
-0.00124677
0.000256376
0.000262848
-0.00133433
-8.81378e-05
0.000179394
-0.000142286
0.000217173
-0.000202587
0.00024176
-0.000266744
0.000257148
-0.000333326
0.000266814
-0.000401555
0.000273378
-0.000471083
0.000278566
-0.000541811
0.000283362
-0.000613763
0.000288255
-0.000687015
0.000293456
-0.000761662
0.000299044
-0.000837808
0.000305046
-0.000915561
0.000311476
-0.000995028
0.000318341
-0.00107632
0.000325653
-0.00115955
0.00033343
-0.00124485
0.000341666
0.000350291
-0.00133229
-8.77847e-05
0.000223941
-0.000141766
0.000271155
-0.000201908
0.000301902
-0.000265917
0.000321157
-0.00033236
0.000333256
-0.000400456
0.000341474
-0.000469855
0.000347965
-0.000540455
0.000353962
-0.000612278
0.000360079
-0.000685401
0.000366579
-0.000759918
0.000373561
-0.000835933
0.000381061
-0.000913552
0.000389095
-0.000992883
0.000397673
-0.00107404
0.000406808
-0.00115713
0.000416523
-0.00124228
0.000426813
0.000437587
-0.00132957
-8.73435e-05
-0.000141117
0.000324928
-0.000201059
0.000361844
-0.000264883
0.00038498
-0.000331152
0.000399526
-0.000399082
0.000409404
-0.000468319
0.000417202
-0.000538759
0.000424402
-0.000610423
0.000431742
-0.000683384
0.00043954
-0.000757739
0.000447916
-0.000833589
0.000456912
-0.000911042
0.000466547
-0.000990204
0.000476835
-0.00107119
0.00048779
-0.0011541
0.00049944
-0.00123907
0.000511779
0.000524699
-0.00132618
-0.000140338
0.000378452
-0.000200042
0.000421548
-0.000263642
0.000448581
-0.000329703
0.000465586
-0.000397434
0.000477135
-0.000466477
0.000486245
-0.000536725
0.00049465
-0.000608197
0.000503213
-0.000680965
0.000512308
-0.000755125
0.000522075
-0.000830778
0.000532565
-0.000908031
0.0005438
-0.000986991
0.000555795
-0.00106777
0.000568566
-0.00115047
0.000582147
-0.00123522
0.00059653
0.000611589
-0.00132211
-0.00013943
0.000431684
-0.000198854
0.000480972
-0.000262195
0.000511921
-0.000328012
0.000531403
-0.000395511
0.000544634
-0.000464328
0.000555063
-0.000534353
0.000564674
-0.0006056
0.000574461
-0.000678143
0.000584851
-0.000752076
0.000596008
-0.0008275
0.000607989
-0.000904521
0.00062082
-0.000983244
0.000634518
-0.00106378
0.000649102
-0.00114624
0.000664608
-0.00123074
0.00068103
0.000698223
-0.00131737
-0.000138393
0.000484583
-0.000197498
0.000540078
-0.000260541
0.000574964
-0.00032608
0.000596942
-0.000393314
0.000611868
-0.000461873
0.000623622
-0.000531642
0.000634443
-0.000602634
0.000645453
-0.00067492
0.000657138
-0.000748594
0.000669682
-0.000823756
0.000683151
-0.000900511
0.000697575
-0.000978965
0.000712972
-0.00105923
0.000729363
-0.00114141
0.000746789
-0.00122562
0.000765243
0.000784563
-0.00131196
-0.000137226
0.000537108
-0.000195973
0.000598825
-0.000258681
0.000637672
-0.000323907
0.000662168
-0.000390843
0.000678804
-0.000459112
0.000691891
-0.000528594
0.000703925
-0.000599299
0.000716158
-0.000671296
0.000729135
-0.000744679
0.000743065
-0.000819547
0.00075802
-0.000896004
0.000774032
-0.000974155
0.000791123
-0.00105411
0.000809316
-0.00113598
0.000828655
-0.00121987
0.000849135
0.000870573
-0.00130588
-0.000135932
0.000589216
-0.000194279
0.000657172
-0.000256615
0.000700009
-0.000321494
0.000727047
-0.000388098
0.000745408
-0.000456045
0.000759838
-0.000525208
0.000773088
-0.000595594
0.000786544
-0.000667272
0.000800813
-0.000740332
0.000816125
-0.000814874
0.000832561
-0.000891
0.000850159
-0.000968816
0.000868939
-0.00104843
0.000888928
-0.00112995
0.000910173
-0.00121348
0.000932671
0.000956218
-0.00129913
-0.000134509
0.000640866
-0.000192417
0.00071508
-0.000254344
0.000761936
-0.000318839
0.000791542
-0.000385079
0.000811648
-0.000452672
0.00082743
-0.000521485
0.0008419
-0.000591521
0.000856581
-0.000662848
0.00087214
-0.000735553
0.00088883
-0.000809737
0.000906745
-0.000885501
0.000925923
-0.000962949
0.000946387
-0.00104219
0.000968165
-0.00112332
0.000991309
-0.00120647
0.00101582
0.00104146
-0.00129171
-0.000132958
0.000692015
-0.000190386
0.000772509
-0.000251866
0.000823416
-0.000315944
0.00085562
-0.000381787
0.000877491
-0.000448993
0.000894637
-0.000517425
0.000910332
-0.000587081
0.000926237
-0.000658024
0.000943083
-0.000730344
0.000961151
-0.000804139
0.00098054
-0.000879508
0.00100129
-0.000956556
0.00102343
-0.00103539
0.00104699
-0.00111611
0.00107203
-0.00119882
0.00109854
0.00112627
-0.00128363
-0.000131279
0.000742623
-0.000188188
0.000829417
-0.000249183
0.000884411
-0.000312808
0.000919246
-0.000378221
0.000942904
-0.00044501
0.000961426
-0.000513029
0.00097835
-0.000582273
0.000995481
-0.000652803
0.00101361
-0.000724706
0.00103305
-0.000798079
0.00105391
-0.000873023
0.00107624
-0.000949638
0.00110005
-0.00102803
0.00112538
-0.0011083
0.0011523
-0.00119056
0.0011808
0.00121061
-0.0012749
-0.000129473
-0.000185822
0.000885765
-0.000246294
0.000944884
-0.000309432
0.000982384
-0.000374382
0.00100785
-0.000440722
0.00102777
-0.000508297
0.00104593
-0.000577098
0.00106428
-0.000647184
0.0010837
-0.00071864
0.00110451
-0.000791561
0.00112683
-0.000866046
0.00115072
-0.000942197
0.0011762
-0.00102011
0.0012033
-0.0010999
0.00123209
-0.00118167
0.00126256
0.00129445
-0.00126551
-0.000183288
0.000941512
-0.000243201
0.0010048
-0.000305816
0.001045
-0.00037027
0.00107231
-0.000436129
0.00109362
-0.00050323
0.00111303
-0.000571558
0.00113261
-0.000641168
0.00115331
-0.000712146
0.00117549
-0.000784584
0.00119927
-0.000858581
0.00122472
-0.000934236
0.00125186
-0.00101165
0.00128072
-0.00109092
0.00131136
-0.00117217
0.00134381
0.00137774
-0.00125546
-0.000180588
0.000996618
-0.000239903
0.00106411
-0.00030196
0.00110706
-0.000365885
0.00113623
-0.000431232
0.00115897
-0.000497827
0.00117962
-0.000565652
0.00120044
-0.000634757
0.00122242
-0.000705226
0.00124596
-0.00077715
0.0012712
-0.000850628
0.0012982
-0.000925756
0.00132698
-0.00100263
0.00135759
-0.00108136
0.00139009
-0.00116205
0.00142449
0.00146047
-0.00124477
-0.000177721
0.00105104
-0.0002364
0.00112279
-0.000297865
0.00116852
-0.000361228
0.0011996
-0.00042603
0.00122377
-0.000492091
0.00124568
-0.000559381
0.00126773
-0.000627951
0.00129099
-0.000697881
0.00131588
-0.000769262
0.00134258
-0.000842189
0.00137112
-0.000916761
0.00140156
-0.000993073
0.00143391
-0.00107122
0.00146824
-0.00115132
0.00150459
0.00154259
-0.00123344
-0.000174688
0.00110474
-0.000232692
0.00118079
-0.000293529
0.00122936
-0.000356298
0.00126236
-0.000420526
0.001288
-0.00048602
0.00131118
-0.000552747
0.00133445
-0.000620752
0.00135899
-0.000690113
0.00138525
-0.00076092
0.00141338
-0.000833267
0.00144347
-0.000907251
0.00147554
-0.000982966
0.00150962
-0.00106051
0.00154579
-0.00113998
0.00158406
0.00162408
-0.00122147
-0.00017149
-0.000228781
0.00123808
-0.000288955
0.00128953
-0.000351096
0.00132451
-0.000414718
0.00135162
-0.000479615
0.00137607
-0.000545749
0.00140059
-0.000613159
0.0014264
-0.000681922
0.00145401
-0.000752125
0.00148359
-0.000823863
0.00151521
-0.00089723
0.00154891
-0.000972318
0.00158471
-0.00104922
0.00162269
-0.00112805
0.00166288
0.0017049
-0.00120887
-0.000224667
0.00129462
-0.000284141
0.00134901
-0.000345622
0.00138599
-0.000408606
0.00141461
-0.000472878
0.00144035
-0.000538388
0.0014661
-0.000605174
0.00149319
-0.000673309
0.00152214
-0.000742881
0.00155316
-0.00081398
0.00158631
-0.0008867
0.00162163
-0.000961132
0.00165914
-0.00103737
0.00169893
-0.00111551
0.00174103
0.00178502
-0.00119563
-0.000220349
0.00135037
-0.000279089
0.00140775
-0.000339876
0.00144677
-0.000402192
0.00147692
-0.000465808
0.00150396
-0.000530666
0.00153096
-0.000596799
0.00155932
-0.000664277
0.00158962
-0.000733187
0.00162207
-0.000803619
0.00165674
-0.000875663
0.00169367
-0.000949411
0.00173289
-0.00102495
0.00177447
-0.00110238
0.00181846
0.00186441
-0.00118178
-0.000215828
-0.000273797
0.00146572
-0.000333859
0.00150684
-0.000395476
0.00153854
-0.000458405
0.00156689
-0.000522582
0.00159513
-0.000588033
0.00162477
-0.000654826
0.00165641
-0.000723046
0.00169029
-0.000792781
0.00172647
-0.000864122
0.00176501
-0.000937157
0.00180592
-0.00101197
0.00184929
-0.00108866
0.00189515
0.00194305
-0.0011673
-0.000268268
0.00152288
-0.00032757
0.00156614
-0.000388457
0.00159943
-0.000450671
0.00162911
-0.000514137
0.0016586
-0.000578878
0.00168951
-0.000644957
0.00172249
-0.000712459
0.00175779
-0.00078147
0.00179549
-0.00085208
0.00183562
-0.000924374
0.00187822
-0.000998438
0.00192335
-0.00107436
0.00197107
0.00202091
-0.00115222
-0.0002625
0.0015792
-0.00032101
0.00162465
-0.000381136
0.00165955
-0.000442605
0.00169057
-0.000505333
0.00172133
-0.000569334
0.00175351
-0.000634672
0.00178783
-0.000701428
0.00182455
-0.000769687
0.00186375
-0.000839538
0.00190547
-0.000911064
0.00194975
-0.000984351
0.00199664
-0.00105949
0.00204621
0.00209796
-0.00113653
-0.000256495
0.00163464
-0.000314179
0.00168233
-0.000373513
0.00171889
-0.000434208
0.00175127
-0.000496168
0.00178329
-0.000559403
0.00181675
-0.000623971
0.0018524
-0.000689953
0.00189053
-0.000757433
0.00193123
-0.000826498
0.00197454
-0.000897232
0.00202048
-0.000969715
0.00206912
-0.00104403
0.00212053
0.00217418
-0.00112025
-0.000250251
-0.000307077
0.00173916
-0.000365589
0.0017774
-0.00042548
0.00181116
-0.000486645
0.00184445
-0.000549084
0.00187919
-0.000612856
0.00191617
-0.000678037
0.00195571
-0.000744711
0.0019979
-0.000812964
0.00204279
-0.000882879
0.00209039
-0.000954534
0.00214078
-0.00102801
0.00219401
0.00224954
-0.00110338
-0.000299705
0.00179509
-0.000357363
0.00183506
-0.000416422
0.00187022
-0.000476762
0.00190479
-0.00053838
0.0019408
-0.000601327
0.00197912
-0.00066568
0.00202006
-0.000731521
0.00206374
-0.000798936
0.0021102
-0.000868007
0.00215946
-0.000938811
0.00221158
-0.00101143
0.00226663
0.00232403
-0.00108592
-0.000292062
0.0018501
-0.000348836
0.00189183
-0.000407034
0.00192842
-0.000466522
0.00196428
-0.00052729
0.00200157
-0.000589385
0.00204122
-0.000652883
0.00208356
-0.000717865
0.00212872
-0.000784416
0.00217675
-0.000852619
0.00222767
-0.000922549
0.00228151
-0.000994289
0.00233837
0.00239763
-0.00106789
-0.000284149
-0.000340009
0.00194769
-0.000397316
0.00198572
-0.000455924
0.00202289
-0.000515815
0.00206146
-0.000577032
0.00210243
-0.000639647
0.00214617
-0.000703744
0.00219282
-0.000769406
0.00224242
-0.000836716
0.00229498
-0.000905751
0.00235055
-0.000976593
0.00240921
0.00247033
-0.00104929
-0.00033088
0.0020026
-0.000387268
0.00204211
-0.000444969
0.00208059
-0.000503956
0.00212045
-0.000564267
0.00216274
-0.000625974
0.00220788
-0.000689158
0.002256
-0.000753905
0.00230716
-0.000820298
0.00236137
-0.000888417
0.00241867
-0.000958347
0.00247914
0.00254211
-0.00103013
-0.000321452
-0.000376891
0.00209755
-0.000433658
0.00213735
-0.000491713
0.0021785
-0.000551091
0.00222212
-0.000611863
0.00226865
-0.000674108
0.00231825
-0.000737914
0.00237097
-0.000803366
0.00242682
-0.000870547
0.00248585
-0.000939551
0.00254814
0.00261299
-0.00101043
-0.000366186
0.00215202
-0.00042199
0.00219316
-0.000479087
0.0022356
-0.000537506
0.00228054
-0.000597315
0.00232846
-0.000658594
0.00237953
-0.000721432
0.00243381
-0.000785918
0.00249131
-0.000852139
0.00255207
-0.000920203
0.00261621
0.00268296
-0.00099017
-0.000355153
-0.000409967
0.00224797
-0.000466078
0.00229171
-0.000523512
0.00233798
-0.000582331
0.00238728
-0.000642616
0.00243981
-0.000704459
0.00249565
-0.000767952
0.0025548
-0.000833188
0.00261731
-0.000900299
0.00268332
0.00275203
-0.000969373
-0.000397589
0.00230177
-0.000452689
0.00234681
-0.000509109
0.0023944
-0.000566911
0.00244508
-0.000626175
0.00249908
-0.000686994
0.00255647
-0.000749465
0.00261727
-0.000813687
0.00268153
-0.000879826
0.00274946
0.00282024
-0.000948032
-0.000384857
0.00235452
-0.000438919
0.00240087
-0.0004943
0.00244978
-0.000551057
0.00250184
-0.00060927
0.00255729
-0.000669036
0.00261623
-0.000730454
0.00267869
-0.000793625
0.0027447
-0.00085876
0.00281459
0.00288762
-0.00092614
-0.000371773
-0.00042477
0.00245387
-0.000479084
0.00250409
-0.000534769
0.00255752
-0.000591903
0.00261443
-0.000650583
0.00267491
-0.000710916
0.00273902
-0.000772992
0.00280678
-0.000837064
0.00287866
0.00295423
-0.000903675
-0.000410244
-0.000463466
0.00255731
-0.000518051
0.00261211
-0.000574075
0.00267045
-0.000631635
0.00273247
-0.000690851
0.00279824
-0.000751783
0.00286771
-0.000814665
0.00294155
0.00302017
-0.000880606
-0.000447446
0.00260942
-0.000500904
0.00266557
-0.000555789