/*--------------------------------*- C++ -*----------------------------------*\
  =========                 |
  \\      /  F ield         | OpenFOAM: The Open Source CFD Toolbox
   \\    /   O peration     | Website:  https://openfoam.org
    \\  /    A nd           | Version:  7
     \\/     M anipulation  |
\*---------------------------------------------------------------------------*/
FoamFile
{
    version     2.0;
    format      ascii;
    class       volVectorField;
    location    "5";
    object      U;
}
// * * * * * * * * * * * * * * * * * * * * * * * * * * * * * * * * * * * * * //

dimensions      [0 1 -1 0 0 0 0];

internalField   nonuniform List<vector> 
5110
(
(0.0159095 -0.00812568 5.87084e-20)
(0.0191991 -0.0091504 6.69422e-20)
(0.0668267 -0.0258004 -2.31823e-19)
(0.0227574 -0.0100435 3.35654e-21)
(0.0770607 -0.0276253 2.78311e-19)
(0.143135 -0.0384874 1.49983e-19)
(0.218854 -0.0446206 8.44101e-20)
(0.0265766 -0.0107787 -1.08963e-19)
(0.087934 -0.028979 -7.74154e-20)
(0.16069 -0.0394986 -9.82495e-20)
(0.242666 -0.0446157 -1.80634e-19)
(0.332452 -0.0448258 -1.13107e-19)
(0.0306464 -0.0113297 -3.27769e-19)
(0.0994069 -0.0297951 3.21306e-20)
(0.179044 -0.0396397 -7.70969e-20)
(0.267336 -0.0434358 2.49999e-19)
(0.362763 -0.0418492 -2.93802e-20)
(0.463618 -0.0355044 1.06812e-19)
(0.034953 -0.0116712 2.20693e-19)
(0.111431 -0.0300107 -1.63613e-19)
(0.198107 -0.0388248 -2.39188e-20)
(0.292731 -0.0409853 9.73923e-20)
(0.393673 -0.0373388 -1.16264e-19)
(0.499076 -0.0286829 -1.14281e-19)
(0.606777 -0.0160163 1.21473e-19)
(0.71437 -0.000422646 6.25039e-20)
(0.0394791 -0.0117786 -2.87371e-19)
(0.123949 -0.0295666 4.27023e-20)
(0.217777 -0.0369761 7.72807e-20)
(0.318702 -0.0371825 -1.25562e-19)
(0.424985 -0.0312223 1.02156e-19)
(0.534628 -0.0200761 3.51653e-19)
(0.645312 -0.00492629 -2.41006e-19)
(0.754486 0.012975 -4.22958e-19)
(0.85944 0.032294 2.37814e-19)
(0.0442039 -0.0116284 1.43213e-19)
(0.136894 -0.0284085 -9.42722e-20)
(0.23794 -0.0340258 7.31022e-20)
(0.345084 -0.0319602 4.74495e-21)
(0.456488 -0.0234477 -4.42668e-20)
(0.570023 -0.00966022 -1.64335e-19)
(0.683235 0.00803071 4.21647e-19)
(0.79346 0.028203 2.53524e-19)
(0.89793 0.0493885 -1.39858e-19)
(0.993946 0.0702283 -1.14955e-19)
(1.07906 0.0893957 -2.44362e-20)
(0.0491029 -0.0111988 -7.25497e-20)
(0.150191 -0.0264879 9.18064e-20)
(0.258469 -0.0299163 1.8739e-20)
(0.3717 -0.0252674 -1.2916e-19)
(0.487959 -0.013984 -1.22365e-19)
(0.605002 0.00256382 3.86027e-20)
(0.720265 0.0228123 -4.93344e-20)
(0.831007 0.0451716 -1.64199e-19)
(0.934455 0.0680484 -1.36805e-19)
(1.02799 0.0900016 7.42923e-20)
(1.10936 0.109685 5.7505e-20)
(1.17624 0.124087 -2.395e-19)
(0.0541477 -0.0104697 1.30622e-19)
(0.163755 -0.0237626 4.94498e-20)
(0.279225 -0.0246021 -5.15691e-20)
(0.398363 -0.0170699 1.09607e-19)
(0.519169 -0.00282147 9.76909e-20)
(0.639303 0.0165705 -1.0502e-19)
(0.756122 0.0393506 -5.12566e-20)
(0.866854 0.0637683 1.23256e-19)
(0.96877 0.0881183 1.96316e-19)
(1.0594 0.110898 1.68809e-19)
(1.13672 0.130769 1.01288e-19)
(1.19891 0.145181 1.34865e-19)
(0.0593063 -0.00942357 -3.62793e-20)
(0.177494 -0.0201983 1.14767e-19)
(0.30006 -0.0180503 6.95095e-20)
(0.424874 -0.0073513 -2.20321e-19)
(0.549878 0.0100278 1.44184e-19)
(0.672661 0.0323103 -1.51452e-19)
(0.790537 0.0575541 7.3332e-20)
(0.900744 0.0838596 -1.68435e-19)
(1.00065 0.109429 1.13251e-19)
(1.08799 0.132724 -5.28292e-21)
(1.16104 0.152443 -9.77313e-20)
(1.21846 0.166494 -1.511e-19)
(0.064543 -0.00804553 -5.93871e-20)
(0.191308 -0.0157688 -1.33338e-20)
(0.320818 -0.0102422 -1.79535e-20)
(0.451028 0.00388632 1.33573e-19)
(0.579846 0.0245299 -3.64118e-20)
(0.704818 0.0497109 1.27853e-19)
(0.823249 0.0773096 6.04965e-20)
(0.932441 0.105295 1.44937e-19)
(1.02992 0.131801 -3.44242e-20)
(1.11365 0.155283 -2.18093e-19)
(1.18228 0.174513 4.57105e-21)
(1.2349 0.187847 1.22285e-19)
(0.0698191 -0.00632407 1.13817e-19)
(0.205091 -0.0104578 -1.73795e-19)
(0.341335 -0.00117352 1.30652e-20)
(0.476618 0.0166219 1.0506e-19)
(0.608835 0.0406296 -9.84549e-20)
(0.73552 0.0686778 -1.44336e-20)
(0.854016 0.0984843 -1.11481e-20)
(0.961732 0.127908 -1.51515e-20)
(1.0564 0.155046 -2.98945e-20)
(1.13628 0.178381 9.75745e-20)
(1.20039 0.196792 3.42021e-20)
(1.24829 0.20908 1.96643e-21)
(0.0750929 -0.00425132 4.27121e-21)
(0.21873 -0.00425876 2.10216e-20)
(0.361442 0.0091443 5.93383e-20)
(0.501432 0.0308149 -9.43172e-20)
(0.636607 0.0582502 8.33616e-21)
(0.764527 0.0890961 3.20485e-20)
(0.882612 0.120928 -1.35178e-19)
(0.98843 0.151523 1.73349e-20)
(1.07996 0.178974 -2.46785e-20)
(1.15582 0.201826 1.39664e-20)
(1.21539 0.219105 -7.79351e-20)
(1.2587 0.230048 4.49369e-20)
(0.0803202 -0.00182352 -2.26137e-20)
(0.23211 0.0028237 -2.2187e-20)
(0.38097 0.0206838 -8.73385e-21)
(0.525262 0.0464057 1.09416e-20)
(0.662936 0.0772947 2.80519e-20)
(0.791612 0.110831 2.12852e-20)
(0.908834 0.144474 5.83441e-20)
(1.01238 0.175951 -9.22645e-21)
(1.10051 0.203388 4.28205e-20)
(1.17223 0.225432 -5.36188e-20)
(1.22731 0.241286 1.7864e-20)
(1.26621 0.250623 -8.91695e-21)
(0.0854549 0.000958655 -1.9812e-21)
(0.245112 0.0107735 1.19366e-20)
(0.399746 0.0334012 6.33304e-21)
(0.547903 0.0633152 1.51677e-20)
(0.687603 0.0976465 -1.2817e-20)
(0.816566 0.133733 -2.34759e-20)
(0.932505 0.168944 5.77027e-21)
(1.03344 0.201 -2.95404e-20)
(1.11799 0.228095 6.66087e-21)
(1.18551 0.249018 1.638e-20)
(1.23622 0.263182 -1.22839e-20)
(1.27094 0.270688 5.79953e-21)
(0.0904501 0.00408985 -4.21914e-21)
(0.257617 0.0195629 1.31276e-20)
(0.417603 0.0472362 -5.67242e-22)
(0.569156 0.081446 1.81085e-20)
(0.710403 0.119171 -6.8647e-21)
(0.8392 0.157632 -1.92217e-20)
(0.95347 0.19415 7.61239e-22)
(1.05153 0.226471 -2.37665e-20)
(1.13234 0.252904 3.41322e-22)
(1.19569 0.272411 1.20638e-20)
(1.2422 0.284651 -1.2152e-20)
(1.27302 0.290139 7.52487e-21)
(0.0952577 0.00755985 1.56564e-20)
(0.269506 0.0291519 -2.22211e-20)
(0.434374 0.0621124 -2.79256e-20)
(0.588835 0.100683 4.41455e-21)
(0.731148 0.141716 2.22341e-20)
(0.859346 0.182351 6.49891e-21)
(0.971604 0.219895 6.50125e-20)
(1.06656 0.252164 -1.85457e-20)
(1.14357 0.277624 5.86386e-20)
(1.20282 0.295448 -5.13944e-20)
(1.24533 0.305559 2.67963e-20)
(1.27256 0.308884 -3.27266e-20)
(0.0998296 0.0113534 -3.53133e-20)
(0.280664 0.0394887 7.32632e-20)
(0.449903 0.0779372 1.52612e-20)
(0.606762 0.120893 -7.73454e-20)
(0.749667 0.165116 3.39684e-21)
(0.876862 0.207697 2.45681e-20)
(0.986806 0.245974 -7.59454e-20)
(1.07849 0.27788 8.13057e-21)
(1.15168 0.302074 -3.30593e-20)
(1.20697 0.317972 -1.55151e-20)
(1.24574 0.325784 -2.22569e-20)
(1.26971 0.326837 3.08351e-20)
(0.104118 0.01545 7.15574e-20)
(0.290978 0.0505094 -9.84645e-20)
(0.464041 0.0946035 -4.76754e-20)
(0.622779 0.141929 4.73776e-20)
(0.765811 0.18919 -6.08742e-20)
(0.891629 0.233469 -1.74755e-21)
(0.999004 0.272182 2.51625e-20)
(1.08731 0.30342 -3.79565e-20)
(1.15671 0.326076 -7.76277e-21)
(1.20821 0.339835 1.21366e-19)
(1.24353 0.345214 -6.72862e-21)
(1.2646 0.343922 2.00155e-21)
(0.108079 0.0198245 -1.15179e-19)
(0.300341 0.062139 2.19696e-20)
(0.476649 0.11199 3.65493e-20)
(0.636739 0.163631 3.2068e-20)
(0.779453 0.213748 5.34497e-20)
(0.903553 0.259463 4.41981e-20)
(1.00815 0.298312 6.57971e-20)
(1.09302 0.32859 1.262e-19)
(1.15872 0.349459 -9.90125e-20)
(1.20666 0.3609 -1.04025e-19)
(1.23885 0.363743 4.797e-21)
(1.25738 0.36007 7.07162e-20)
(0.111667 0.0244466 -3.94457e-20)
(0.308655 0.0742916 3.22709e-20)
(0.487603 0.129961 1.11059e-19)
(0.648519 0.185824 -1.77869e-19)
(0.790487 0.23859 9.08771e-20)
(0.912568 0.285466 -5.59079e-20)
(1.01424 0.324156 2.16927e-21)
(1.09565 0.3532 -8.6402e-20)
(1.15779 0.372063 6.72105e-20)
(1.20241 0.381038 -3.16354e-21)
(1.23181 0.381275 -5.2947e-20)
(1.24819 0.375215 -9.82345e-20)
(0.114842 0.0292815 5.23896e-20)
(0.315831 0.0868716 1.12494e-19)
(0.496794 0.148373 -1.38505e-19)
(0.658014 0.208325 1.38793e-19)
(0.798835 0.263511 -2.0171e-20)
(0.918635 0.311266 6.21597e-20)
(1.01726 0.34951 -6.18919e-20)
(1.09526 0.377067 4.84995e-20)
(1.15401 0.393732 1.2623e-19)
(1.19561 0.400126 1.01137e-19)
(1.22257 0.39772 1.16167e-19)
(1.23716 0.389299 4.46053e-20)
(0.117567 0.0342902 3.72076e-20)
(0.321788 0.0997745 2.11471e-20)
(0.504129 0.167069 -8.95583e-21)
(0.665141 0.230944 -6.27902e-20)
(0.804442 0.2883 -3.0378e-20)
(0.921738 0.336651 -3.96455e-20)
(1.01725 0.374174 -4.70155e-20)
(1.09192 0.400017 -1.29193e-19)
(1.14749 0.414324 -7.26977e-20)
(1.18636 0.418053 8.39023e-20)
(1.21124 0.41299 -5.91499e-20)
(1.22442 0.402264 1.84457e-20)
(0.11981 0.0394299 1.40545e-19)
(0.326459 0.112888 -4.36392e-20)
(0.509534 0.185886 2.31889e-20)
(0.66984 0.253483 -6.51625e-20)
(0.807278 0.312746 5.77609e-21)
(0.921888 0.36141 -9.54631e-21)
(1.01426 0.397957 1.41675e-19)
(1.08572 0.421882 2.58277e-19)
(1.13834 0.433702 -6.76132e-20)
(1.1748 0.434714 -1.18188e-19)
(1.19798 0.42701 -1.35444e-20)
(1.21009 0.414052 -4.7076e-20)
(0.121542 0.0446544 -1.59373e-19)
(0.329789 0.126095 -1.6784e-20)
(0.512952 0.204656 6.32859e-20)
(0.672074 0.275743 -4.36641e-20)
(0.80734 0.336636 -2.46697e-20)
(0.919123 0.385338 2.233e-19)
(1.00837 0.42067 -1.77867e-19)
(1.07676 0.442506 -2.04187e-19)
(1.12669 0.451742 -8.18297e-20)
(1.16107 0.450017 6.48132e-20)
(1.18289 0.43972 4.69208e-20)
(1.19425 0.424606 -2.39094e-20)
(0.122739 0.0499147 1.72219e-19)
(0.331737 0.13927 -1.76982e-20)
(0.514347 0.223205 -3.02438e-20)
(0.67183 0.297523 3.32849e-20)
(0.804649 0.359762 -7.45543e-20)
(0.9135 0.408236 -3.51358e-20)
(0.999675 0.442139 -7.48939e-20)
(1.06518 0.461742 1.70731e-19)
(1.11268 0.468327 9.6612e-20)
(1.14531 0.463873 -1.50472e-20)
(1.16613 0.451074 -1.10306e-19)
(1.1771 0.433851 1.8396e-20)
(0.123386 0.0551596 -1.12868e-19)
(0.332276 0.152288 1.10678e-19)
(0.513704 0.241357 -7.09401e-20)
(0.669119 0.318621 1.33373e-20)
(0.799249 0.381919 1.15625e-19)
(0.905103 0.429913 -2.45341e-19)
(0.988285 0.462197 -1.43072e-20)
(1.05109 0.479453 -9.48606e-21)
(1.09645 0.483353 3.40089e-20)
(1.12766 0.476202 1.54914e-20)
(1.14782 0.460988 1.0479e-19)
(1.15879 0.441798 -5.64701e-20)
(0.12347 0.0603365 -3.9406e-21)
(0.331392 0.16502 -1.22042e-19)
(0.511027 0.258939 -5.99343e-20)
(0.663973 0.338841 3.27019e-20)
(0.791211 0.402909 9.30292e-20)
(0.894035 0.450185 1.02939e-19)
(0.974333 0.480687 1.9043e-20)
(1.03466 0.495516 3.71614e-20)
(1.07815 0.496724 -8.1504e-20)
(1.10824 0.486931 -1.43434e-20)
(1.12807 0.469398 -2.44044e-21)
(1.13937 0.448385 -8.69746e-21)
(0.122985 0.0653917 1.25428e-20)
(0.329089 0.177338 -1.46788e-21)
(0.50634 0.275776 3.52774e-20)
(0.65645 0.357991 -2.38147e-20)
(0.780626 0.422543 -2.59435e-19)
(0.880419 0.468883 1.00205e-19)
(0.957966 0.497468 -3.38328e-20)
(1.01604 0.509819 -2.76422e-22)
(1.05793 0.508358 -1.3218e-20)
(1.08721 0.496001 -5.85119e-21)
(1.10701 0.476256 -8.37688e-21)
(1.11895 0.453557 1.46686e-20)
(0.121934 0.0702717 2.37663e-20)
(0.325383 0.189113 7.0139e-20)
(0.499688 0.291699 5.26288e-21)
(0.646628 0.375886 8.87665e-20)
(0.767607 0.44064 6.16067e-20)
(0.864398 0.485846 3.77331e-20)
(0.939346 0.512407 4.81476e-20)
(0.995395 0.522262 -2.70072e-22)
(1.03596 0.518183 4.07961e-20)
(1.06469 0.503358 4.50721e-20)
(1.08474 0.481517 -1.3023e-20)
(1.0976 0.457265 -4.53628e-21)
(0.120323 0.0749235 2.80592e-20)
(0.320305 0.20022 -4.32817e-20)
(0.491134 0.306545 2.66471e-20)
(0.634605 0.392349 -1.0834e-19)
(0.752285 0.457032 -4.97121e-21)
(0.846131 0.500926 -8.05835e-20)
(0.91865 0.525387 -4.84778e-20)
(0.972905 0.532758 -1.4009e-20)
(1.01239 0.526138 -4.90323e-20)
(1.04081 0.50896 -8.34917e-21)
(1.06135 0.485144 -1.08977e-21)
(1.07542 0.459461 -7.35886e-21)
(0.118164 0.0792954 -3.82591e-20)
(0.313899 0.210538 4.38055e-20)
(0.480762 0.320157 1.17741e-20)
(0.620501 0.407214 7.96552e-20)
(0.734811 0.471563 8.79473e-20)
(0.825793 0.513991 -1.02601e-20)
(0.896066 0.536305 1.61106e-20)
(0.948761 0.541233 2.57787e-20)
(0.9874 0.532178 -3.14319e-20)
(1.01572 0.512781 1.32897e-20)
(1.03693 0.487109 -1.53393e-20)
(1.05247 0.460088 3.53989e-20)
(0.115474 0.0833354 -4.3656e-22)
(0.306229 0.219954 -2.03716e-20)
(0.46867 0.332386 -8.87887e-20)
(0.60445 0.420327 6.50148e-22)
(0.715352 0.484088 -6.01622e-21)
(0.803574 0.52492 6.07817e-21)
(0.871794 0.545067 4.96549e-21)
(0.923161 0.547627 3.45798e-21)
(0.961176 0.536269 -1.15084e-20)
(0.989561 0.514807 -1.94732e-20)
(1.01155 0.487394 -4.23516e-20)
(1.02879 0.459086 -3.05372e-20)
(0.11228 0.0869923 3.76121e-20)
(0.297368 0.228356 -7.32044e-21)
(0.454972 0.343097 5.69008e-20)
(0.586605 0.431545 1.48501e-20)
(0.69409 0.494479 -1.70257e-20)
(0.779674 0.533606 8.89886e-21)
(0.846045 0.551595 5.75655e-21)
(0.896315 0.551888 -1.52517e-20)
(0.933911 0.538388 7.1375e-20)
(0.962476 0.515042 6.4428e-20)
(0.985268 0.486001 5.76989e-23)
(1.00439 0.456382 3.25241e-20)
(0.108616 0.0902245 -1.53646e-20)
(0.287395 0.235642 9.56582e-21)
(0.439797 0.352163 4.23669e-21)
(0.567132 0.440741 6.18473e-21)
(0.671218 0.502621 -9.55581e-21)
(0.754303 0.539956 4.66051e-21)
(0.819036 0.555822 4.82272e-21)
(0.868444 0.553977 3.00486e-20)
(0.90582 0.538525 3.56536e-20)
(0.934636 0.513507 -1.03725e-19)
(0.958126 0.482944 1.37674e-19)
(0.97925 0.451861 -2.7158e-20)
(0.104515 0.0929897 1.36999e-20)
(0.276406 0.241721 1.13678e-20)
(0.423288 0.359472 3.17749e-21)
(0.54621 0.447802 1.2097e-20)
(0.646939 0.508414 2.72319e-20)
(0.727677 0.543892 -3.0616e-21)
(0.79099 0.557692 -5.9043e-20)
(0.839775 0.55386 -1.37903e-19)
(0.877134 0.536678 -5.81869e-20)
(0.906251 0.510252 1.68446e-19)
(0.930217 0.47829 -1.39393e-19)
(0.953247 0.445404 2.35494e-20)
(0.100014 0.095249 -1.98616e-20)
(0.264505 0.24651 7.89444e-21)
(0.405598 0.364923 3.21809e-20)
(0.524028 0.452631 -2.52681e-20)
(0.621463 0.511775 -1.116e-20)
(0.700017 0.545348 -6.31032e-20)
(0.76213 0.557157 8.72058e-20)
(0.810536 0.551508 1.62446e-19)
(0.848106 0.532844 -3.01654e-20)
(0.87762 0.50535 -2.81877e-19)
(0.901891 0.472284 1.00587e-19)
(0.926043 0.437379 1.31347e-20)
(0.0951581 0.0969689 7.16527e-20)
(0.251805 0.24994 -7.67004e-21)
(0.386891 0.368434 -8.57003e-20)
(0.500782 0.455147 -2.30025e-20)
(0.595005 0.512638 3.10052e-20)
(0.671542 0.544275 3.2168e-20)
(0.732673 0.554181 -1.04155e-19)
(0.780945 0.546887 -2.13666e-19)
(0.818982 0.526984 -5.99199e-20)
(0.849169 0.498774 2.51075e-19)
(0.874058 0.465223 -5.14838e-20)
(0.897108 0.428245 -7.24425e-20)
(0.0899954 0.0981201 1.53545e-20)
(0.238426 0.251948 -6.4883e-20)
(0.367338 0.369935 1.7638e-19)
(0.476675 0.45529 7.65835e-20)
(0.567783 0.510955 -1.57259e-19)
(0.642473 0.540639 1.11787e-19)
(0.702828 0.54874 4.78101e-20)
(0.75119 0.539972 2.60535e-19)
(0.789955 0.519017 2.14977e-19)
(0.821285 0.490218 -4.11554e-19)
(0.847797 0.456542 1.17608e-19)
(0.872357 0.419598 8.47708e-20)
(0.0845759 0.0986781 -2.37762e-20)
(0.224495 0.252486 -1.71969e-20)
(0.347115 0.369374 -1.01194e-19)
(0.451916 0.453013 -1.96929e-22)
(0.540019 0.506696 -6.80053e-20)
(0.613025 0.534427 3.6076e-20)
(0.672791 0.540834 -1.14985e-20)
(0.72143 0.530767 1.44704e-19)
(0.761102 0.508955 -2.22872e-19)
(0.793767 0.479702 1.83946e-19)
(0.821907 0.445953 -3.7404e-19)
(0.847702 0.409362 2.29295e-20)
(0.0789531 0.098624 -8.12522e-20)
(0.210141 0.25152 1.55966e-19)
(0.326405 0.366715 -1.08814e-19)
(0.426716 0.448292 7.24819e-21)
(0.511934 0.49985 -3.94712e-20)
(0.583415 0.525643 1.37592e-19)
(0.642761 0.530481 7.25962e-20)
(0.69183 0.519307 -2.00335e-19)
(0.732537 0.496859 -1.65192e-19)
(0.766625 0.467372 3.21972e-19)
(0.796352 0.433753 2.1369e-19)
(0.823395 0.397789 1.24987e-19)
(0.0731822 0.0979444 4.44526e-20)
(0.195501 0.249025 -3.79676e-20)
(0.305393 0.361939 1.97971e-19)
(0.401289 0.441121 -2.44011e-20)
(0.483751 0.490425 -1.8308e-20)
(0.55386 0.514311 7.78491e-20)
(0.612936 0.517717 -1.51393e-19)
(0.662565 0.505639 -7.03042e-21)
(0.704405 0.482791 4.20141e-19)
(0.739981 0.453322 -2.97505e-19)
(0.771311 0.420104 1.60852e-20)
(0.799706 0.385015 1.91168e-19)
(0.0673203 0.0966318 -4.22902e-20)
(0.18071 0.244993 1.08823e-19)
(0.284267 0.355046 -2.7424e-19)
(0.375848 0.43151 -3.58638e-20)
(0.455692 0.478447 5.08229e-20)
(0.524575 0.500467 -2.44828e-20)
(0.583515 0.502589 -8.93313e-20)
(0.633813 0.489816 -1.15485e-20)
(0.676864 0.466807 -1.52045e-19)
(0.713975 0.437609 2.89282e-19)
(0.746928 0.40505 -4.05628e-19)
(0.77675 0.371045 2.14021e-19)
(0.0614251 0.0946841 1.40257e-19)
(0.165908 0.239426 -9.54826e-20)
(0.263215 0.346049 -2.9673e-20)
(0.350607 0.419488 3.05497e-19)
(0.427975 0.463959 1.87332e-20)
(0.495772 0.484165 3.2824e-19)
(0.554695 0.485156 5.31263e-20)
(0.60575 0.471899 -1.94411e-19)
(0.65007 0.448967 -3.64009e-19)
(0.688748 0.420282 -2.10207e-19)
(0.723335 0.388612 8.57515e-20)
(0.754634 0.355867 -4.79738e-19)
(0.0555545 0.0921052 5.96405e-20)
(0.151233 0.232342 4.9801e-20)
(0.242422 0.334981 1.17306e-20)
(0.325775 0.405103 -4.5828e-19)
(0.400816 0.447019 -2.21337e-19)
(0.467657 0.465471 -1.44803e-19)
(0.526666 0.465488 -1.5093e-21)
(0.57855 0.451958 6.7851e-20)
(0.624179 0.429331 3.52658e-19)
(0.664437 0.40139 2.11695e-19)
(0.700659 0.370818 -3.06115e-20)
(0.733459 0.339485 4.42168e-20)
(0.0497661 0.0889045 7.91019e-21)
(0.136819 0.223769 4.86049e-20)
(0.22207 0.32189 6.65801e-20)
(0.301557 0.388419 2.35295e-19)
(0.374423 0.427701 -8.01501e-20)
(0.440432 0.444466 2.03394e-20)
(0.499614 0.443665 -5.27225e-21)
(0.552377 0.430066 7.20003e-20)
(0.599335 0.407967 -1.18757e-20)
(0.641171 0.380985 -1.17394e-19)
(0.679011 0.351703 -4.32932e-20)
(0.713317 0.321919 2.9336e-19)
(0.0441167 0.0850971 9.21008e-21)
(0.1228 0.213749 4.35903e-20)
(0.202337 0.306839 -8.2712e-20)
(0.27815 0.369513 -7.7129e-20)
(0.348998 0.406097 3.72673e-19)
(0.414287 0.421243 2.10777e-19)
(0.473715 0.41978 -2.91919e-21)
(0.52739 0.406311 -1.2117e-19)
(0.575677 0.384949 -1.38897e-19)
(0.619069 0.359128 2.62583e-19)
(0.658495 0.331312 4.19572e-19)
(0.69429 0.3032 -1.88285e-19)
(0.0386614 0.0807034 -3.24554e-19)
(0.109305 0.202336 -1.80869e-19)
(0.183395 0.289907 1.3252e-19)
(0.255747 0.348484 4.88026e-20)
(0.324732 0.38231 -2.5109e-20)
(0.389407 0.395909 -2.94912e-19)
(0.449135 0.393935 -5.21298e-19)
(0.503735 0.380785 1.97479e-19)
(0.553335 0.36036 9.16172e-21)
(0.598244 0.335888 -1.55975e-19)
(0.639205 0.309697 -3.48529e-19)
(0.676451 0.283374 1.70259e-19)
(0.0334532 0.0757491 3.80407e-20)
(0.0964578 0.189594 -1.64761e-19)
(0.165406 0.271185 -1.31838e-19)
(0.234526 0.32544 -8.11069e-21)
(0.301809 0.356459 -3.05548e-19)
(0.365963 0.368584 -1.28646e-19)
(0.426031 0.366242 3.95742e-19)
(0.481553 0.353591 -3.38908e-19)
(0.532428 0.334289 4.27379e-19)
(0.578795 0.311342 4.14485e-20)
(0.621225 0.286924 -7.92601e-20)
(0.659867 0.262498 -3.15957e-19)
(0.0285428 0.0702647 -2.36191e-21)
(0.0843753 0.175599 4.40264e-20)
(0.148526 0.250782 7.77356e-20)
(0.214659 0.300506 7.69747e-20)
(0.280398 0.328676 2.97969e-19)
(0.344117 0.339397 2.898e-19)
(0.404549 0.336827 -1.86319e-19)
(0.46097 0.324842 -1.83947e-20)
(0.513067 0.306835 -4.79097e-20)
(0.560817 0.285574 3.21821e-20)
(0.604632 0.263065 2.73579e-19)
(0.644597 0.240637 1.07613e-19)
(0.0239777 0.0642854 9.06441e-20)
(0.0731673 0.160438 2.25427e-19)
(0.132899 0.228816 -3.783e-20)
(0.196304 0.27382 1.2294e-20)
(0.260658 0.299105 -4.65244e-20)
(0.324017 0.308491 4.63851e-21)
(0.384822 0.30582 2.14749e-19)
(0.442104 0.294659 -1.45828e-20)
(0.495351 0.278105 -1.66105e-19)
(0.544393 0.258677 -3.78653e-19)
(0.589496 0.2382 -1.12548e-19)
(0.630697 0.217863 -5.49413e-20)
(0.019802 0.057851 1.24124e-19)
(0.0629353 0.144206 -2.53658e-20)
(0.118657 0.205418 -2.30479e-19)
(0.179607 0.245532 -1.4607e-19)
(0.242734 0.267903 7.1502e-20)
(0.305798 0.276017 -1.52374e-19)
(0.366973 0.273365 1.17422e-19)
(0.425062 0.263169 -1.93987e-19)
(0.479371 0.248214 1.24194e-19)
(0.529601 0.230751 8.70688e-20)
(0.575881 0.212417 -4.31605e-20)
(0.618215 0.194258 2.32119e-19)
(0.016056 0.0510049 -6.03374e-20)
(0.0537717 0.127008 -2.25018e-19)
(0.105922 0.18073 1.92822e-19)
(0.1647 0.215803 -5.09129e-20)
(0.226756 0.235236 -1.01745e-19)
(0.289584 0.242138 7.18545e-20)
(0.351112 0.239612 2.62861e-20)
(0.409938 0.230508 6.70748e-20)
(0.46521 0.217281 -5.43593e-20)
(0.516507 0.201902 -1.20055e-19)
(0.563843 0.18581 1.9514e-19)
(0.607195 0.169907 -3.06244e-20)
(0.0127757 0.0437944 3.10006e-20)
(0.0457588 0.108956 1.38561e-19)
(0.0948007 0.154904 -4.64445e-20)
(0.151699 0.184805 1.61667e-19)
(0.212841 0.201278 5.76152e-21)
(0.275482 0.207022 -1.34979e-19)
(0.337334 0.204718 8.95852e-20)
(0.396817 0.19682 -4.15214e-20)
(0.452937 0.185432 -7.75739e-21)
(0.505171 0.172242 2.69532e-19)
(0.553431 0.158477 -1.89894e-19)
(0.597675 0.1449 -1.61967e-19)
(0.00999255 0.03627 -7.18077e-20)
(0.0389689 0.0901692 -5.12369e-20)
(0.0853867 0.1281 1.13336e-19)
(0.140706 0.152717 -8.55765e-20)
(0.201089 0.166215 1.24124e-20)
(0.263585 0.170848 1.58129e-19)
(0.325724 0.168848 7.7208e-20)
(0.385772 0.162252 1.00795e-19)
(0.442616 0.152801 -4.51285e-20)
(0.495646 0.141887 -8.36489e-20)
(0.544689 0.130524 7.04306e-21)
(0.589691 0.119331 1.76361e-19)
(0.00773338 0.0284848 3.01022e-20)
(0.0334625 0.0707731 8.43422e-21)
(0.0777593 0.100485 -5.31614e-20)
(0.131808 0.119728 3.68701e-20)
(0.191585 0.130238 -6.49637e-20)
(0.253973 0.133799 3.5609e-20)
(0.316351 0.132172 -6.33137e-20)
(0.376862 0.126957 -1.95484e-19)
(0.434297 0.119523 -2.89114e-22)
(0.487974 0.110958 -4.83869e-21)
(0.537651 0.102057 5.01422e-20)
(0.583269 0.0932987 1.14578e-19)
(0.0060198 0.0204944 5.62708e-21)
(0.0292892 0.0508978 2.61608e-20)
(0.0719822 0.0722342 7.50053e-20)
(0.125073 0.0860297 8.67204e-21)
(0.184397 0.0935436 1.05778e-20)
(0.246708 0.0960645 4.16508e-20)
(0.309272 0.0948631 1.70736e-20)
(0.370137 0.0910933 2.35898e-20)
(0.428021 0.0857382 4.45223e-20)
(0.482189 0.0795794 -1.24095e-20)
(0.532348 0.0731873 -8.45418e-20)
(0.578432 0.0669031 -9.81792e-20)
(0.00486822 0.0123562 -2.93004e-20)
(0.0264861 0.0306775 1.00512e-20)
(0.0681038 0.0435247 4.1554e-20)
(0.120554 0.0518225 -2.61718e-21)
(0.179576 0.0563333 -7.87638e-21)
(0.241838 0.0578367 1.55565e-20)
(0.304529 0.0571002 -1.96266e-20)
(0.365633 0.0548202 3.39731e-20)
(0.42382 0.0515891 2.07259e-20)
(0.478319 0.0478774 -1.15428e-19)
(0.5288 0.0440285 5.92331e-20)
(0.575198 0.0402466 2.84135e-20)
(0.00428966 0.00412865 -1.04908e-20)
(0.0250782 0.010249 -2.53025e-20)
(0.0661565 0.014539 -1.73224e-20)
(0.118286 0.0173083 3.48464e-21)
(0.177157 0.0188123 2.02456e-20)
(0.239395 0.0193119 -1.86029e-20)
(0.302151 0.0190638 3.70119e-21)
(0.363375 0.0183007 8.35772e-22)
(0.421714 0.0172207 -1.58739e-20)
(0.476379 0.0159807 2.19737e-20)
(0.527022 0.0146955 1.0386e-21)
(0.573579 0.0134329 -1.96553e-21)
(0.00428966 -0.00412868 -8.58411e-21)
(0.0250782 -0.0102491 -2.33486e-20)
(0.0661565 -0.0145391 -1.75134e-20)
(0.118286 -0.0173084 7.4617e-21)
(0.177157 -0.0188125 1.27742e-20)
(0.239395 -0.0193121 -1.31087e-20)
(0.302151 -0.019064 3.28658e-21)
(0.363375 -0.0183009 -3.50031e-21)
(0.421714 -0.0172209 -4.83477e-21)
(0.476379 -0.0159809 2.50874e-20)
(0.527022 -0.0146957 -8.64015e-21)
(0.573579 -0.0134331 -6.1176e-21)
(0.00486822 -0.0123562 2.10523e-20)
(0.0264861 -0.0306776 8.68602e-21)
(0.0681038 -0.0435249 -1.93027e-20)
(0.120554 -0.0518226 2.26559e-20)
(0.179576 -0.0563335 1.50563e-20)
(0.241838 -0.0578369 2.1742e-20)
(0.304529 -0.0571004 -5.87733e-21)
(0.365633 -0.0548204 1.44257e-20)
(0.42382 -0.0515893 -2.87347e-20)
(0.478319 -0.0478776 -6.63431e-20)
(0.5288 -0.0440287 3.23067e-20)
(0.575198 -0.0402467 8.41616e-21)
(0.0060198 -0.0204945 -6.76364e-20)
(0.0292892 -0.0508979 9.9317e-20)
(0.0719822 -0.0722343 2.06061e-20)
(0.125073 -0.0860298 2.20312e-20)
(0.184397 -0.0935438 4.64528e-21)
(0.246708 -0.0960647 3.47849e-20)
(0.309272 -0.0948633 8.58993e-20)
(0.370137 -0.0910935 1.08671e-20)
(0.428021 -0.0857384 2.92086e-20)
(0.482189 -0.0795796 5.50253e-21)
(0.532348 -0.0731874 -7.33056e-20)
(0.578432 -0.0669032 -1.07738e-19)
(0.00773339 -0.0284848 2.24505e-20)
(0.0334626 -0.0707732 -6.16522e-20)
(0.0777593 -0.100485 4.18362e-21)
(0.131808 -0.119728 -9.61324e-20)
(0.191585 -0.130238 8.63784e-20)
(0.253973 -0.1338 -5.72299e-20)
(0.316351 -0.132172 -6.19987e-20)
(0.376862 -0.126958 -1.07292e-19)
(0.434297 -0.119523 -5.37019e-20)
(0.487974 -0.110958 7.54914e-20)
(0.537651 -0.102057 -1.28771e-20)
(0.583269 -0.0932988 1.18659e-19)
(0.00999256 -0.03627 -1.12672e-20)
(0.0389689 -0.0901692 6.021e-20)
(0.0853867 -0.1281 -8.49227e-20)
(0.140706 -0.152717 4.68966e-20)
(0.201089 -0.166216 1.4563e-20)
(0.263585 -0.170848 6.69274e-20)
(0.325724 -0.168849 1.47656e-19)
(0.385772 -0.162252 -9.69055e-20)
(0.442616 -0.152801 6.11109e-20)
(0.495646 -0.141887 -5.38404e-20)
(0.544689 -0.130524 8.55079e-21)
(0.589691 -0.119331 1.64458e-19)
(0.0127757 -0.0437944 1.58658e-19)
(0.0457589 -0.108956 3.67674e-20)
(0.0948007 -0.154904 -4.19688e-20)
(0.151699 -0.184805 1.1233e-19)
(0.212841 -0.201278 7.25391e-20)
(0.275482 -0.207022 -1.34728e-19)
(0.337334 -0.204719 4.87858e-21)
(0.396817 -0.19682 2.844e-20)
(0.452937 -0.185433 -3.62234e-20)
(0.505171 -0.172242 2.58423e-19)
(0.553431 -0.158478 -5.66392e-20)
(0.597675 -0.1449 -2.83639e-19)
(0.016056 -0.0510049 -2.08861e-19)
(0.0537717 -0.127008 -1.87948e-19)
(0.105922 -0.18073 3.15997e-19)
(0.1647 -0.215804 -1.02702e-19)
(0.226756 -0.235236 -2.43643e-19)
(0.289584 -0.242138 2.91754e-19)
(0.351112 -0.239612 -1.86899e-19)
(0.409938 -0.230509 1.68416e-19)
(0.46521 -0.217281 -5.50599e-20)
(0.516507 -0.201902 -3.89827e-21)
(0.563843 -0.18581 1.98322e-19)
(0.607195 -0.169907 -8.95459e-20)
(0.019802 -0.057851 1.25683e-19)
(0.0629353 -0.144206 -9.59569e-20)
(0.118657 -0.205418 -2.65429e-19)
(0.179607 -0.245532 -9.14386e-20)
(0.242734 -0.267903 1.7183e-19)
(0.305798 -0.276017 -2.58206e-19)
(0.366973 -0.273365 9.48536e-20)
(0.425062 -0.263169 -2.35843e-19)
(0.479371 -0.248214 1.61725e-19)
(0.529601 -0.230751 1.91158e-19)
(0.575881 -0.212417 -2.62029e-20)
(0.618215 -0.194258 5.95164e-20)
(0.0239777 -0.0642855 2.74537e-19)
(0.0731673 -0.160438 1.35193e-19)
(0.132899 -0.228816 1.50942e-19)
(0.196304 -0.27382 -1.02547e-19)
(0.260658 -0.299106 4.25072e-21)
(0.324017 -0.308491 -2.04084e-19)
(0.384822 -0.30582 1.60448e-19)
(0.442104 -0.294659 1.77846e-19)
(0.495351 -0.278106 -1.3428e-19)
(0.544393 -0.258677 -2.62657e-19)
(0.589496 -0.238201 -3.57034e-19)
(0.630697 -0.217864 -2.99946e-20)
(0.0285428 -0.0702647 -5.66498e-20)
(0.0843753 -0.175599 -2.45216e-20)
(0.148526 -0.250782 9.5109e-20)
(0.214659 -0.300506 2.38966e-19)
(0.280398 -0.328676 5.07897e-20)
(0.344117 -0.339397 4.59719e-19)
(0.404549 -0.336827 -4.01059e-19)
(0.46097 -0.324842 3.4063e-19)
(0.513067 -0.306835 -3.32832e-19)
(0.560817 -0.285574 1.56356e-19)
(0.604632 -0.263065 3.75634e-19)
(0.644597 -0.240637 -6.51041e-20)
(0.0334532 -0.0757491 -3.70887e-20)
(0.0964579 -0.189594 -2.68298e-20)
(0.165406 -0.271186 -3.57457e-19)
(0.234526 -0.32544 1.38625e-19)
(0.301809 -0.356459 -3.10881e-19)
(0.365963 -0.368584 -4.93555e-20)
(0.426031 -0.366243 1.63281e-19)
(0.481553 -0.353591 -2.25886e-19)
(0.532429 -0.334289 5.96194e-19)
(0.578795 -0.311342 -1.75107e-19)
(0.621225 -0.286925 3.85967e-20)
(0.659867 -0.262498 -2.69964e-19)
(0.0386614 -0.0807035 -1.78064e-19)
(0.109305 -0.202336 -4.18996e-20)
(0.183395 -0.289907 1.01152e-19)
(0.255747 -0.348484 -1.72487e-19)
(0.324733 -0.38231 1.91944e-19)
(0.389407 -0.39591 -4.41865e-19)
(0.449135 -0.393935 -3.35501e-19)
(0.503736 -0.380785 2.8482e-19)
(0.553335 -0.36036 -2.68629e-19)
(0.598244 -0.335889 -4.89181e-20)
(0.639205 -0.309698 -5.26037e-19)
(0.676451 -0.283374 2.0494e-19)
(0.0441167 -0.0850971 -1.15661e-19)
(0.1228 -0.213749 1.16622e-19)
(0.202337 -0.306839 -1.01114e-19)
(0.278151 -0.369514 -3.27193e-20)
(0.348998 -0.406097 2.49314e-19)
(0.414287 -0.421243 -4.05349e-20)
(0.473715 -0.41978 1.7572e-19)
(0.52739 -0.406311 1.10835e-19)
(0.575677 -0.38495 -1.14625e-19)
(0.61907 -0.359129 5.65767e-20)
(0.658496 -0.331312 3.98737e-19)
(0.69429 -0.3032 -9.38663e-20)
(0.0497661 -0.0889045 1.78965e-20)
(0.136819 -0.223769 9.3129e-20)
(0.22207 -0.32189 1.41064e-19)
(0.301557 -0.388419 1.82468e-19)
(0.374423 -0.427702 -1.89801e-19)
(0.440432 -0.444466 6.3354e-20)
(0.499614 -0.443666 5.63765e-20)
(0.552377 -0.430067 -1.0299e-19)
(0.599335 -0.407968 6.20586e-20)
(0.641171 -0.380985 -5.31988e-20)
(0.679011 -0.351703 -3.66933e-20)
(0.713317 -0.321919 1.3637e-19)
(0.0555545 -0.0921052 3.93158e-20)
(0.151233 -0.232342 4.29737e-20)
(0.242422 -0.334982 8.9765e-20)
(0.325775 -0.405104 -4.31351e-19)
(0.400816 -0.447019 -1.73947e-19)
(0.467657 -0.465471 -1.6218e-19)
(0.526666 -0.465488 2.48142e-20)
(0.57855 -0.451958 -1.13988e-20)
(0.624179 -0.429331 3.4732e-19)
(0.664437 -0.40139 1.97296e-19)
(0.700659 -0.370819 -2.40202e-20)
(0.733459 -0.339486 1.47505e-19)
(0.0614251 -0.0946841 5.65943e-20)
(0.165909 -0.239426 -7.9183e-20)
(0.263215 -0.346049 5.33702e-20)
(0.350607 -0.419488 3.78312e-19)
(0.427975 -0.463959 -8.2665e-20)
(0.495772 -0.484165 2.51476e-19)
(0.554695 -0.485156 -8.72396e-21)
(0.60575 -0.4719 -1.65308e-21)
(0.650071 -0.448967 -5.4486e-19)
(0.688748 -0.420282 -1.1611e-19)
(0.723335 -0.388613 1.59746e-19)
(0.754634 -0.355867 -3.86704e-19)
(0.0673203 -0.0966318 -8.552e-20)
(0.180711 -0.244993 -4.49387e-20)
(0.284267 -0.355046 -1.41184e-19)
(0.375849 -0.43151 -8.13383e-20)
(0.455692 -0.478448 2.29241e-19)
(0.524575 -0.500467 -2.8497e-19)
(0.583515 -0.502589 6.18512e-20)
(0.633813 -0.489816 -8.60679e-20)
(0.676864 -0.466807 -1.99409e-20)
(0.713975 -0.437609 7.37159e-20)
(0.746928 -0.40505 -2.11021e-19)
(0.77675 -0.371045 1.65089e-19)
(0.0731822 -0.0979445 3.71149e-20)
(0.195501 -0.249025 -5.2551e-20)
(0.305393 -0.361939 2.60894e-19)
(0.401289 -0.441121 -9.95122e-20)
(0.483751 -0.490425 5.58283e-20)
(0.55386 -0.514311 -8.97235e-22)
(0.612936 -0.517717 -1.36321e-19)
(0.662565 -0.505639 -1.25614e-20)
(0.704405 -0.482791 4.02311e-19)
(0.739981 -0.453322 -3.29094e-19)
(0.771311 -0.420104 1.77485e-19)
(0.799706 -0.385015 1.63701e-20)
(0.0789531 -0.098624 -1.54045e-20)
(0.210141 -0.25152 1.23565e-21)
(0.326405 -0.366715 3.27379e-21)
(0.426716 -0.448292 -7.66021e-22)
(0.511934 -0.49985 3.72483e-20)
(0.583415 -0.525644 -8.66444e-20)
(0.642761 -0.530481 1.54914e-19)
(0.69183 -0.519307 -5.66586e-20)
(0.732537 -0.49686 -2.27177e-19)