/*--------------------------------*- C++ -*----------------------------------*\
  =========                 |
  \\      /  F ield         | OpenFOAM: The Open Source CFD Toolbox
   \\    /   O peration     | Website:  https://openfoam.org
    \\  /    A nd           | Version:  7
     \\/     M anipulation  |
\*---------------------------------------------------------------------------*/
FoamFile
{
    version     2.0;
    format      ascii;
    class       volScalarField;
    location    "80";
    object      p;
}
// * * * * * * * * * * * * * * * * * * * * * * * * * * * * * * * * * * * * * //

dimensions      [0 2 -2 0 0 0 0];

internalField   nonuniform List<scalar> 
8500
(
-0.269539
-0.270772
-0.271484
-0.272061
-0.272548
-0.272963
-0.273339
-0.2737
-0.274062
-0.274434
-0.274821
-0.275225
-0.275646
-0.276082
-0.276533
-0.276997
-0.277473
-0.277964
-0.27846
-0.278962
-0.267374
-0.268634
-0.269354
-0.26993
-0.270406
-0.270797
-0.271136
-0.271444
-0.271737
-0.272021
-0.272302
-0.272578
-0.27285
-0.273113
-0.273364
-0.273601
-0.273821
-0.274025
-0.274193
-0.274323
-0.265267
-0.266549
-0.267274
-0.267848
-0.26831
-0.268676
-0.268977
-0.269232
-0.269455
-0.269653
-0.269827
-0.269976
-0.270099
-0.270189
-0.270243
-0.270256
-0.270223
-0.270144
-0.26999
-0.269753
-0.263221
-0.264521
-0.265249
-0.265817
-0.266265
-0.266606
-0.266868
-0.26707
-0.267224
-0.267334
-0.267402
-0.267426
-0.2674
-0.26732
-0.267179
-0.266971
-0.266688
-0.266334
-0.265865
-0.265269
-0.261242
-0.262553
-0.263283
-0.263844
-0.264276
-0.26459
-0.264813
-0.264962
-0.265046
-0.265071
-0.265034
-0.264933
-0.264761
-0.264513
-0.26418
-0.263754
-0.263229
-0.262605
-0.261832
-0.260884
-0.25933
-0.26065
-0.261378
-0.261931
-0.262346
-0.262633
-0.262817
-0.262913
-0.262929
-0.262867
-0.262727
-0.262503
-0.262188
-0.261774
-0.261253
-0.260615
-0.259852
-0.258968
-0.2579
-0.256612
-0.25749
-0.258815
-0.259539
-0.260082
-0.26048
-0.260739
-0.260884
-0.260927
-0.260875
-0.260729
-0.260486
-0.260141
-0.259685
-0.259109
-0.258404
-0.257559
-0.256566
-0.255429
-0.254078
-0.252463
-0.255723
-0.257049
-0.257769
-0.258301
-0.25868
-0.258911
-0.259016
-0.259007
-0.258888
-0.258659
-0.258316
-0.257852
-0.257257
-0.256523
-0.255638
-0.254592
-0.253375
-0.251996
-0.250375
-0.248444
-0.254031
-0.255357
-0.25607
-0.25659
-0.25695
-0.257153
-0.257219
-0.257157
-0.256972
-0.256661
-0.256219
-0.255638
-0.254909
-0.254019
-0.252959
-0.251717
-0.250285
-0.248673
-0.246794
-0.244562
-0.252416
-0.253739
-0.254445
-0.254952
-0.255293
-0.255467
-0.255494
-0.255381
-0.25513
-0.254738
-0.254199
-0.253504
-0.252642
-0.251601
-0.250371
-0.24894
-0.247299
-0.245464
-0.243341
-0.240822
-0.250879
-0.252199
-0.252896
-0.25339
-0.253711
-0.253856
-0.253844
-0.25368
-0.253364
-0.252893
-0.252259
-0.251452
-0.25046
-0.249272
-0.247877
-0.246262
-0.244421
-0.242372
-0.240017
-0.237228
-0.249424
-0.250738
-0.251427
-0.251907
-0.252206
-0.252323
-0.252272
-0.252057
-0.251678
-0.251129
-0.250401
-0.249484
-0.248366
-0.247034
-0.245478
-0.243686
-0.241652
-0.239399
-0.236826
-0.23378
-0.24805
-0.249358
-0.250038
-0.250503
-0.250782
-0.25087
-0.25078
-0.250515
-0.250073
-0.249447
-0.248627
-0.247603
-0.246361
-0.244889
-0.243176
-0.241213
-0.238993
-0.236545
-0.233766
-0.23048
-0.246759
-0.248062
-0.248732
-0.249183
-0.24944
-0.249499
-0.24937
-0.249056
-0.248551
-0.247849
-0.24694
-0.24581
-0.244447
-0.242839
-0.240974
-0.238844
-0.236445
-0.233811
-0.23084
-0.227326
-0.245553
-0.246851
-0.247511
-0.247947
-0.248183
-0.248213
-0.248045
-0.247681
-0.247115
-0.246338
-0.24534
-0.244107
-0.242626
-0.240885
-0.238872
-0.236581
-0.23401
-0.231197
-0.228046
-0.224316
-0.244434
-0.245727
-0.246377
-0.246798
-0.247012
-0.247012
-0.246806
-0.246392
-0.245765
-0.244915
-0.24383
-0.242497
-0.2409
-0.239029
-0.236873
-0.234425
-0.231687
-0.228704
-0.225383
-0.221448
-0.243404
-0.244691
-0.245332
-0.245737
-0.245929
-0.245899
-0.245654
-0.245192
-0.244505
-0.243583
-0.242412
-0.24098
-0.239271
-0.237273
-0.234976
-0.232377
-0.229477
-0.22633
-0.222853
-0.218715
-0.242464
-0.243747
-0.244378
-0.244767
-0.244937
-0.244877
-0.244593
-0.244082
-0.243335
-0.242342
-0.241088
-0.239559
-0.23774
-0.235618
-0.233185
-0.230438
-0.227381
-0.224076
-0.220452
-0.216104
-0.241618
-0.242897
-0.243517
-0.243889
-0.244036
-0.243946
-0.243623
-0.243063
-0.242258
-0.241195
-0.23986
-0.238236
-0.23631
-0.234068
-0.231502
-0.22861
-0.2254
-0.221942
-0.218181
-0.213585
-0.240866
-0.242141
-0.24275
-0.243106
-0.243229
-0.243108
-0.242746
-0.242139
-0.241276
-0.240144
-0.238729
-0.237014
-0.234984
-0.232624
-0.229928
-0.226895
-0.223535
-0.219931
-0.216062
-0.211121
-0.240212
-0.241483
-0.242081
-0.242419
-0.242518
-0.242365
-0.241964
-0.241309
-0.24039
-0.239191
-0.237699
-0.235895
-0.233763
-0.23129
-0.228468
-0.225297
-0.221789
-0.218046
-0.214151
-0.208887
-0.239659
-0.240924
-0.24151
-0.24183
-0.241904
-0.241719
-0.241279
-0.240577
-0.239601
-0.238338
-0.23677
-0.234881
-0.232652
-0.230069
-0.227124
-0.223817
-0.220164
-0.216265
-0.212137
-0.206941
-0.239209
-0.240468
-0.24104
-0.24134
-0.241388
-0.241171
-0.240692
-0.239943
-0.238913
-0.237586
-0.235947
-0.233975
-0.231652
-0.228964
-0.2259
-0.222461
-0.218662
-0.214613
-0.210312
-0.205011
-0.238865
-0.240116
-0.240673
-0.240952
-0.240973
-0.240723
-0.240203
-0.239408
-0.238325
-0.236938
-0.235229
-0.233179
-0.230768
-0.227979
-0.224801
-0.221233
-0.217289
-0.213092
-0.208642
-0.203136
-0.238629
-0.239869
-0.240411
-0.240667
-0.240659
-0.240375
-0.239816
-0.238975
-0.23784
-0.236395
-0.23462
-0.232496
-0.230002
-0.227118
-0.223831
-0.220138
-0.21605
-0.211702
-0.207108
-0.201331
-0.238506
-0.239732
-0.240254
-0.240485
-0.240448
-0.240128
-0.239529
-0.238644
-0.237458
-0.235957
-0.234121
-0.231928
-0.229356
-0.226383
-0.222993
-0.21918
-0.21495
-0.210447
-0.205707
-0.199589
-0.238497
-0.239704
-0.240205
-0.240409
-0.240339
-0.239984
-0.239345
-0.238414
-0.237181
-0.235627
-0.233732
-0.231475
-0.228831
-0.225776
-0.222291
-0.218363
-0.213993
-0.209331
-0.204445
-0.197901
-0.238606
-0.239788
-0.240264
-0.240439
-0.240335
-0.239942
-0.239262
-0.238288
-0.237007
-0.235402
-0.233454
-0.231138
-0.228429
-0.225299
-0.221726
-0.217691
-0.213184
-0.208359
-0.203324
-0.196262
-0.238833
-0.239986
-0.240433
-0.240575
-0.240435
-0.240003
-0.239281
-0.238263
-0.236936
-0.235284
-0.233285
-0.230915
-0.228147
-0.224951
-0.221297
-0.217163
-0.212525
-0.207533
-0.202351
-0.194665
-0.239182
-0.240298
-0.240713
-0.240818
-0.240639
-0.240165
-0.239401
-0.238339
-0.236968
-0.23527
-0.233224
-0.230805
-0.227985
-0.224728
-0.221003
-0.216779
-0.212015
-0.206855
-0.201529
-0.193112
-0.239653
-0.240726
-0.241103
-0.241168
-0.240946
-0.240429
-0.23962
-0.238514
-0.237099
-0.235357
-0.233268
-0.230805
-0.227937
-0.224628
-0.22084
-0.216534
-0.211653
-0.206323
-0.200863
-0.191608
-0.240248
-0.241269
-0.241604
-0.241625
-0.241357
-0.240793
-0.239938
-0.238786
-0.237327
-0.235543
-0.233412
-0.230908
-0.227998
-0.224643
-0.2208
-0.216422
-0.211433
-0.205935
-0.200352
-0.190163
-0.240969
-0.241929
-0.242216
-0.242188
-0.241869
-0.241255
-0.240351
-0.239153
-0.237649
-0.235823
-0.233652
-0.231109
-0.228161
-0.224766
-0.220874
-0.216433
-0.211346
-0.205686
-0.199988
-0.188798
-0.241814
-0.242705
-0.242939
-0.242855
-0.242482
-0.241814
-0.240858
-0.239611
-0.238061
-0.236192
-0.233982
-0.231402
-0.228418
-0.224986
-0.221052
-0.216557
-0.211382
-0.205571
-0.199757
-0.187542
-0.242785
-0.243597
-0.243771
-0.243627
-0.243193
-0.242467
-0.241456
-0.240156
-0.238558
-0.236645
-0.234395
-0.231779
-0.22876
-0.225294
-0.221323
-0.216781
-0.21153
-0.205586
-0.199641
-0.186448
-0.24388
-0.244604
-0.244712
-0.244502
-0.244002
-0.243212
-0.242141
-0.240785
-0.239136
-0.237177
-0.234885
-0.232231
-0.229178
-0.22568
-0.221675
-0.217094
-0.211777
-0.205734
-0.199617
-0.185601
-0.2451
-0.245726
-0.245761
-0.245478
-0.244905
-0.244046
-0.24291
-0.241494
-0.23979
-0.23778
-0.235444
-0.232751
-0.229663
-0.226133
-0.222099
-0.217487
-0.212115
-0.206022
-0.199622
-0.18503
-0.246444
-0.246963
-0.246917
-0.246554
-0.245902
-0.244968
-0.24376
-0.242279
-0.240514
-0.238451
-0.236067
-0.233331
-0.230207
-0.226645
-0.222586
-0.217956
-0.212552
-0.206482
-0.199526
-0.184583
-0.24791
-0.248313
-0.24818
-0.247729
-0.246991
-0.245974
-0.244689
-0.243136
-0.241306
-0.239184
-0.236747
-0.233965
-0.230802
-0.227209
-0.223131
-0.218501
-0.213115
-0.207211
-0.199399
-0.18472
-0.249499
-0.249775
-0.249548
-0.249002
-0.248171
-0.247064
-0.245694
-0.244062
-0.242161
-0.239974
-0.23748
-0.234648
-0.231442
-0.227818
-0.223725
-0.219118
-0.21382
-0.208304
-0.200076
-0.189623
-0.251209
-0.251351
-0.251021
-0.250373
-0.249439
-0.248235
-0.246773
-0.245056
-0.243077
-0.24082
-0.238262
-0.235375
-0.232122
-0.228464
-0.224359
-0.219789
-0.214615
-0.209587
-0.202143
-0.205761
-0.253041
-0.253039
-0.252599
-0.251841
-0.250797
-0.249487
-0.247925
-0.246115
-0.244051
-0.241717
-0.23909
-0.236142
-0.232838
-0.229142
-0.225021
-0.220485
-0.215426
-0.210822
-0.203761
-0.2102
-0.254994
-0.254841
-0.254283
-0.253406
-0.252244
-0.25082
-0.24915
-0.24724
-0.245084
-0.242666
-0.239964
-0.236949
-0.233587
-0.229846
-0.225701
-0.221183
-0.2162
-0.211842
-0.204952
-0.211291
-0.25707
-0.256756
-0.256074
-0.25507
-0.253781
-0.252234
-0.250449
-0.248431
-0.246175
-0.243666
-0.240882
-0.237793
-0.234366
-0.230571
-0.226389
-0.221864
-0.216911
-0.212637
-0.205853
-0.211332
-0.25927
-0.258787
-0.257973
-0.256833
-0.255409
-0.253732
-0.251823
-0.249689
-0.247327
-0.244721
-0.241848
-0.238677
-0.235176
-0.231315
-0.227078
-0.222517
-0.217544
-0.213219
-0.206463
-0.210612
-0.261596
-0.260936
-0.259982
-0.258699
-0.257131
-0.255316
-0.253275
-0.251018
-0.248542
-0.245832
-0.242862
-0.239601
-0.236015
-0.232074
-0.227761
-0.223128
-0.218086
-0.2136
-0.206796
-0.209392
-0.263205
-0.262104
-0.26067
-0.25895
-0.256988
-0.254809
-0.252422
-0.249826
-0.247003
-0.243929
-0.240568
-0.236885
-0.232846
-0.228433
-0.223691
-0.218529
-0.213796
-0.206888
-0.207889
-0.264341
-0.262749
-0.26087
-0.258755
-0.256429
-0.253905
-0.251182
-0.24824
-0.245052
-0.24158
-0.237784
-0.233628
-0.229088
-0.2242
-0.218871
-0.213829
-0.206771
-0.206245
-0.26494
-0.262895
-0.260619
-0.258141
-0.255474
-0.252616
-0.249547
-0.246236
-0.24264
-0.238715
-0.234419
-0.229721
-0.22465
-0.219111
-0.213716
-0.206476
-0.204542
-0.267248
-0.26503
-0.262587
-0.259951
-0.257134
-0.254135
-0.25093
-0.247484
-0.24375
-0.239675
-0.235214
-0.230329
-0.225037
-0.21925
-0.213474
-0.206026
-0.202832
-0.267281
-0.264666
-0.261865
-0.258893
-0.255744
-0.252394
-0.248801
-0.24491
-0.240664
-0.23601
-0.230906
-0.225359
-0.21929
-0.213116
-0.205441
-0.201142
-0.26686
-0.263889
-0.260756
-0.257451
-0.253944
-0.250188
-0.246121
-0.241679
-0.236803
-0.231447
-0.225613
-0.219233
-0.212655
-0.204737
-0.199481
-0.266031
-0.262729
-0.259258
-0.255583
-0.251648
-0.247383
-0.242717
-0.237587
-0.231947
-0.225795
-0.21908
-0.212097
-0.203926
-0.197851
-0.264818
-0.261172
-0.257314
-0.253179
-0.248691
-0.243772
-0.238357
-0.232399
-0.225902
-0.218833
-0.211448
-0.203018
-0.196245
-0.263195
-0.259137
-0.254781
-0.250042
-0.244838
-0.239103
-0.232798
-0.225931
-0.218492
-0.210711
-0.202019
-0.194653
-0.261052
-0.256449
-0.251429
-0.245906
-0.239819
-0.233135
-0.225877
-0.218056
-0.209888
-0.200933
-0.193061
-0.258177
-0.252843
-0.246967
-0.240493
-0.233405
-0.225737
-0.217526
-0.208979
-0.199762
-0.191458
-0.254275
-0.248009
-0.241118
-0.233598
-0.225506
-0.216899
-0.207983
-0.198507
-0.189828
-0.241681
-0.233709
-0.225179
-0.216174
-0.206899
-0.197167
-0.188159
-0.233728
-0.224752
-0.21535
-0.205724
-0.19574
-0.186439
-0.22422
-0.214422
-0.204455
-0.194224
-0.184656
-0.203088
-0.192615
-0.182802
-0.190911
-0.180866
-0.283402
-0.272118
-0.297946
-0.286281
-0.275315
-0.3221
-0.311366
-0.300418
-0.289109
-0.27848
-0.333134
-0.323455
-0.313286
-0.302828
-0.291893
-0.281625
-0.34985
-0.342134
-0.333734
-0.324709
-0.315126
-0.30518
-0.29464
-0.284762
-0.355348
-0.348969
-0.341939
-0.334229
-0.325867
-0.316888
-0.307482
-0.297357
-0.287905
-0.359048
-0.353785
-0.348019
-0.341653
-0.334625
-0.326934
-0.318576
-0.309735
-0.300047
-0.291068
-0.361429
-0.356966
-0.352204
-0.347017
-0.341288
-0.334931
-0.327912
-0.320191
-0.311944
-0.302716
-0.294265
-0.362975
-0.359003
-0.354921
-0.350621
-0.345976
-0.340857
-0.335155
-0.328807
-0.321735
-0.31411
-0.305367
-0.297511
-0.364062
-0.360354
-0.356663
-0.352928
-0.349053
-0.344913
-0.340373
-0.335304
-0.329622
-0.323208
-0.316234
-0.307999
-0.300824
-0.364902
-0.361348
-0.357853
-0.354418
-0.351
-0.347514
-0.343842
-0.339847
-0.335389
-0.330362
-0.324612
-0.318317
-0.310613
-0.304216
-0.365561
-0.362154
-0.358774
-0.355477
-0.352277
-0.349147
-0.346017
-0.342777
-0.339294
-0.335418
-0.331031
-0.325945
-0.320354
-0.313205
-0.307704
-0.365998
-0.362804
-0.359555
-0.356342
-0.35323
-0.350247
-0.347381
-0.344576
-0.341733
-0.338725
-0.335401
-0.331634
-0.327205
-0.322343
-0.315766
-0.311298
-0.366114
-0.36324
-0.3602
-0.357105
-0.354052
-0.351115
-0.348334
-0.34571
-0.343202
-0.340723
-0.338155
-0.335349
-0.332177
-0.328392
-0.324275
-0.318287
-0.315003
-0.365778
-0.36336
-0.360637
-0.357747
-0.354801
-0.351903
-0.349133
-0.346541
-0.344142
-0.341905
-0.33976
-0.337596
-0.335271
-0.332664
-0.329503
-0.326142
-0.32075
-0.31882
-0.363036
-0.360762
-0.358185
-0.35544
-0.352641
-0.349893
-0.347284
-0.344872
-0.342681
-0.340695
-0.338854
-0.337061
-0.33518
-0.333101
-0.330536
-0.327929
-0.323134
-0.322733
-0.362186
-0.360453
-0.358315
-0.355879
-0.353277
-0.350621
-0.348022
-0.345569
-0.343329
-0.341334
-0.339578
-0.338015
-0.33656
-0.335086
-0.333496
-0.331489
-0.329619
-0.325413
-0.32671
-0.361015
-0.359638
-0.358022
-0.356013
-0.353713
-0.35125
-0.348737
-0.346284
-0.343985
-0.341911
-0.340102
-0.338561
-0.337254
-0.336105
-0.335
-0.333855
-0.332361
-0.331193
-0.327551
-0.330687
-0.358513
-0.357245
-0.355737
-0.353849
-0.351681
-0.349355
-0.346983
-0.344675
-0.342529
-0.340617
-0.338986
-0.337647
-0.336575
-0.335705
-0.334933
-0.334186
-0.333152
-0.332625
-0.329508
-0.334553
-0.356175
-0.354998
-0.353588
-0.351815
-0.349775
-0.347583
-0.345352
-0.343191
-0.341196
-0.339444
-0.337986
-0.336839
-0.335984
-0.335368
-0.334894
-0.334498
-0.333866
-0.333891
-0.331241
-0.33812
-0.353991
-0.352889
-0.351568
-0.349904
-0.347987
-0.345928
-0.343838
-0.341823
-0.33998
-0.338388
-0.337098
-0.336134
-0.335484
-0.335099
-0.334892
-0.334801
-0.334509
-0.334962
-0.332712
-0.34112
-0.351949
-0.350905
-0.349665
-0.348105
-0.346308
-0.344381
-0.342431
-0.340564
-0.338874
-0.33744
-0.336318
-0.335531
-0.335074
-0.334903
-0.334934
-0.335105
-0.335093
-0.335806
-0.33389
-0.343237
-0.350036
-0.349038
-0.347871
-0.346409
-0.344728
-0.342932
-0.341123
-0.339403
-0.337868
-0.336594
-0.335637
-0.335023
-0.33475
-0.334778
-0.335026
-0.335422
-0.335636
-0.336396
-0.334672
-0.342557
-0.348237
-0.347273
-0.346173
-0.344804
-0.343236
-0.34157
-0.339901
-0.338332
-0.336952
-0.335838
-0.335046
-0.334602
-0.334507
-0.334723
-0.335171
-0.335765
-0.336173
-0.336835
-0.335125
-0.331482
-0.34654
-0.345599
-0.344561
-0.34328
-0.341823
-0.340284
-0.338756
-0.337337
-0.336114
-0.335162
-0.334533
-0.334258
-0.334336
-0.334732
-0.335368
-0.336148
-0.336751
-0.337295
-0.336511
-0.328842
-0.344929
-0.344004
-0.343021
-0.341825
-0.340476
-0.339063
-0.337675
-0.336406
-0.335341
-0.33455
-0.334087
-0.333978
-0.334225
-0.334795
-0.335613
-0.336579
-0.337406
-0.337976
-0.338424
-0.33033
-0.343388
-0.342473
-0.341543
-0.340428
-0.339184
-0.337895
-0.336647
-0.335528
-0.33462
-0.333991
-0.333691
-0.333748
-0.334161
-0.3349
-0.335895
-0.337047
-0.338118
-0.33883
-0.340191
-0.332342
-0.341903
-0.340995
-0.340113
-0.339076
-0.337934
-0.336768
-0.335657
-0.334687
-0.333936
-0.333468
-0.333331
-0.333551
-0.334127
-0.335032
-0.336199
-0.337534
-0.338842
-0.339757
-0.341703
-0.334336
-0.340459
-0.339555
-0.33872
-0.337759
-0.336717
-0.33567
-0.334695
-0.333873
-0.333276
-0.332968
-0.332991
-0.333371
-0.334106
-0.335172
-0.336506
-0.33802
-0.33955
-0.340704
-0.343047
-0.336429
-0.339042
-0.338142
-0.337352
-0.336464
-0.335519
-0.334589
-0.333747
-0.33307
-0.332626
-0.332473
-0.332654
-0.33319
-0.334082
-0.335303
-0.336798
-0.338485
-0.340221
-0.341638
-0.344269
-0.338596
-0.337638
-0.336744
-0.335997
-0.335181
-0.33433
-0.333514
-0.332803
-0.332266
-0.331971
-0.331971
-0.332305
-0.332994
-0.334035
-0.335407
-0.337057
-0.33891
-0.34084
-0.34253
-0.345379
-0.340749
-0.336233
-0.335349
-0.334645
-0.333899
-0.33314
-0.332435
-0.331849
-0.331449
-0.331298
-0.331446
-0.331929
-0.332764
-0.33395
-0.335466
-0.337264
-0.339277
-0.341391
-0.343353
-0.346379
-0.342819
-0.334817
-0.333946
-0.333287
-0.332608
-0.331938
-0.331341
-0.330876
-0.330608
-0.330596
-0.330885
-0.33151
-0.332485
-0.33381
-0.335464
-0.337403
-0.339569
-0.341858
-0.344085
-0.347269
-0.34476
-0.333377
-0.332525
-0.331911
-0.331299
-0.330716
-0.330222
-0.329873
-0.329732
-0.329851
-0.330276
-0.331035
-0.332144
-0.3336
-0.335384
-0.337458
-0.339769
-0.342227
-0.344709
-0.348044
-0.346533
-0.331905
-0.331078
-0.33051
-0.329964
-0.329465
-0.329069
-0.328832
-0.32881
-0.329055
-0.329607
-0.330493
-0.331726
-0.333306
-0.335212
-0.337413
-0.339864
-0.342484
-0.345207
-0.348695
-0.348109
-0.330391
-0.329597
-0.329076
-0.328595
-0.328177
-0.327875
-0.327744
-0.327835
-0.328197
-0.328868
-0.329872
-0.331222
-0.332915
-0.334937
-0.337257
-0.339839
-0.342615
-0.345566
-0.349207
-0.349462
-0.328829
-0.328074
-0.327602
-0.327185
-0.326845
-0.326633
-0.326601
-0.326797
-0.327269
-0.328049
-0.329163
-0.33062
-0.332418
-0.334545
-0.336976
-0.339681
-0.342606
-0.345769
-0.349565
-0.350571
-0.327212
-0.326503
-0.326082
-0.325729
-0.325463
-0.325337
-0.325397
-0.325691
-0.326263
-0.327145
-0.328357
-0.329911
-0.331805
-0.334028
-0.336561
-0.339381
-0.342445
-0.345803
-0.34975
-0.351419
-0.325536
-0.32488
-0.324511
-0.32422
-0.324027
-0.323981
-0.324127
-0.324511
-0.325175
-0.326147
-0.327448
-0.329089
-0.331068
-0.333377
-0.336002
-0.338927
-0.34212
-0.345654
-0.349745
-0.351993
-0.323796
-0.323201
-0.322886
-0.322657
-0.322532
-0.32256
-0.322786
-0.323252
-0.323998
-0.325051
-0.326431
-0.328147
-0.3302
-0.332585
-0.335291
-0.338309
-0.34162
-0.34531
-0.349534
-0.352279
-0.32199
-0.321463
-0.321203
-0.321034
-0.320975
-0.321073
-0.321371
-0.321911
-0.322729
-0.323853
-0.3253
-0.327081
-0.329197
-0.331645
-0.334421
-0.33752
-0.340933
-0.344758
-0.349101
-0.35227
-0.320117
-0.319664
-0.31946
-0.31935
-0.319354
-0.319516
-0.31988
-0.320485
-0.321367
-0.32255
-0.324054
-0.325887
-0.328054
-0.330554
-0.333387
-0.336553
-0.340052
-0.343988
-0.348431
-0.351955
-0.318177
-0.317803
-0.317657
-0.317605
-0.317667
-0.317889
-0.318311
-0.318973
-0.319908
-0.321141
-0.32269
-0.324565
-0.32677
-0.329309
-0.332184
-0.335401
-0.338969
-0.342992
-0.347513
-0.351329
-0.316171
-0.315881
-0.315793
-0.315797
-0.315915
-0.31619
-0.316664
-0.317374
-0.318354
-0.319626
-0.321209
-0.323113
-0.325344
-0.327908
-0.330811
-0.334062
-0.337678
-0.341763
-0.346339
-0.350387
-0.314101
-0.313898
-0.313868
-0.313927
-0.314097
-0.314421
-0.314939
-0.31569
-0.316704
-0.318006
-0.319611
-0.321532
-0.323776
-0.32635
-0.329265
-0.332534
-0.336176
-0.340296
-0.344904
-0.349126
-0.311968
-0.311858
-0.311886
-0.311996
-0.312215
-0.312582
-0.313139
-0.313922
-0.314962
-0.316281
-0.317898
-0.319823
-0.322067
-0.324638
-0.327548
-0.330814
-0.334462
-0.33859
-0.343205
-0.347548
-0.309778
-0.309761
-0.309847
-0.310008
-0.310271
-0.310676
-0.311265
-0.312072
-0.313128
-0.314456
-0.316073
-0.317991
-0.320221
-0.322773
-0.325661
-0.328906
-0.332535
-0.336644
-0.341245
-0.345649
-0.307534
-0.307613
-0.307755
-0.307964
-0.308268
-0.308707
-0.30932
-0.310144
-0.311208
-0.312535
-0.314141
-0.31604
-0.318242
-0.32076
-0.32361
-0.326813
-0.330398
-0.334461
-0.339018
-0.34343
-0.305242
-0.305417
-0.305615
-0.305869
-0.30621
-0.306677
-0.307309
-0.308142
-0.309205
-0.310521
-0.312106
-0.313974
-0.316135
-0.318604
-0.321398
-0.324539
-0.328058
-0.33204
-0.336487
-0.340933
-0.302907
-0.303178
-0.30343
-0.303727
-0.304101
-0.304591
-0.305235
-0.306071
-0.307126
-0.308422
-0.309975
-0.3118
-0.313908
-0.316313
-0.319034
-0.322093
-0.325521
-0.329394
-0.33371
-0.338124
-0.300535
-0.300901
-0.301205
-0.301542
-0.301946
-0.302454
-0.303106
-0.303937
-0.304976
-0.306243
-0.307755
-0.309526
-0.311568
-0.313895
-0.316526
-0.319483
-0.322797
-0.326537
-0.330698
-0.335021
-0.298133
-0.298593
-0.298947
-0.299321
-0.299751
-0.300272
-0.300925
-0.301746
-0.302761
-0.303991
-0.305453
-0.307159
-0.309123
-0.311359
-0.313884
-0.316722
-0.3199
-0.32348
-0.327463
-0.331652
-0.295708
-0.296259
-0.29666
-0.297068
-0.29752
-0.298051
-0.298701
-0.299505
-0.300489
-0.301675
-0.303078
-0.30471
-0.306585
-0.308716
-0.311121
-0.31382
-0.316843
-0.320241
-0.324021
-0.328036
-0.293267
-0.293906
-0.294352
-0.29479
-0.295261
-0.295797
-0.296439
-0.297221
-0.298169
-0.299303
-0.300638
-0.302187
-0.303963
-0.305977
-0.308247
-0.310793
-0.31364
-0.316835
-0.32039
-0.324195
-0.290818
-0.29154
-0.292027
-0.292494
-0.292979
-0.293516
-0.294146
-0.294901
-0.295806
-0.296883
-0.298143
-0.299601
-0.301267
-0.303154
-0.305277
-0.307654
-0.310309
-0.313282
-0.316589
-0.320151
-0.288367
-0.289168
-0.289694
-0.290185
-0.290682
-0.291217
-0.29183
-0.292553
-0.293411
-0.294424
-0.295604
-0.296963
-0.298511
-0.30026
-0.302224
-0.304419
-0.306867
-0.3096
-0.31264
-0.315929
-0.285923
-0.286798
-0.287359
-0.287871
-0.288377
-0.288905
-0.289498
-0.290185
-0.290992
-0.291935
-0.293028
-0.294282
-0.295705
-0.297308
-0.299103
-0.301104
-0.303331
-0.30581
-0.308565
-0.311556
-0.283491
-0.284435
-0.285028
-0.285558
-0.286069
-0.286589
-0.287157
-0.287805
-0.288556
-0.289426
-0.290427
-0.29157
-0.292861
-0.29431
-0.295927
-0.297726
-0.29972
-0.301933
-0.304388
-0.307059
-0.281079
-0.282086
-0.282708
-0.283253
-0.283766
-0.284274
-0.284816
-0.285421
-0.286113
-0.286905
-0.287811
-0.288837
-0.289991
-0.29128
-0.292713
-0.294299
-0.296053
-0.297989
-0.300131
-0.302464
-0.278694
-0.279758
-0.280405
-0.280962
-0.281474
-0.281968
-0.28248
-0.283041
-0.28367
-0.284382
-0.285188
-0.286094
-0.287107
-0.288231
-0.289473
-0.290842
-0.292346
-0.293998
-0.295819
-0.2978
-0.276342
-0.277457
-0.278125
-0.278691
-0.279201
-0.279677
-0.280158
-0.280671
-0.281236
-0.281865
-0.282569
-0.283352
-0.28422
-0.285175
-0.286222
-0.287368
-0.288618
-0.289982
-0.291475
-0.293093
-0.274028
-0.275189
-0.275874
-0.276447
-0.276951
-0.277409
-0.277856
-0.27832
-0.278818
-0.279363
-0.279962
-0.280621
-0.28134
-0.282124
-0.282974
-0.283893
-0.284886
-0.285959
-0.28712
-0.288369
-0.271759
-0.272958
-0.273659
-0.274235
-0.274732
-0.275169
-0.275581
-0.275994
-0.276424
-0.276883
-0.277377
-0.277908
-0.278479
-0.279089
-0.27974
-0.280432
-0.281166
-0.281947
-0.282775
-0.283651
-0.279608
-0.280189
-0.280754
-0.281231
-0.281601
-0.281826
-0.281864
-0.281674
-0.281222
-0.280486
-0.279467
-0.278204
-0.276782
-0.275344
-0.274691
-0.275018
-0.275317
-0.275528
-0.275643
-0.275635
-0.275477
-0.275146
-0.274628
-0.273924
-0.273059
-0.272091
-0.271122
-0.270309
-0.269876
-0.26995
-0.269994
-0.269952
-0.269824
-0.269595
-0.269253
-0.268792
-0.268217
-0.26755
-0.266837
-0.266156
-0.265626
-0.265413
-0.265178
-0.265001
-0.264802
-0.264517
-0.264159
-0.263722
-0.263208
-0.262627
-0.262002
-0.261374
-0.26081
-0.260408
-0.260297
-0.260657
-0.26061
-0.260185
-0.259754
-0.259239
-0.258663
-0.25803
-0.257354
-0.256662
-0.255992
-0.255405
-0.254986
-0.25485
-0.25514
-0.256042
-0.256182
-0.255513
-0.254862
-0.254129
-0.253346
-0.252528
-0.251702
-0.250906
-0.250195
-0.249649
-0.249367
-0.249486
-0.250152
-0.251565
-0.251901
-0.250994
-0.250135
-0.249194
-0.248216
-0.247224
-0.246256
-0.245364
-0.244616
-0.244107
-0.243955
-0.244314
-0.245333
-0.247222
-0.247772
-0.246635
-0.245578
-0.244441
-0.243279
-0.242124
-0.241023
-0.24004
-0.239256
-0.238781
-0.238749
-0.239334
-0.240679
-0.24301
-0.2438
-0.24244
-0.241197
-0.239874
-0.238538
-0.237229
-0.236003
-0.234935
-0.234114
-0.233669
-0.233744
-0.234544
-0.236186
-0.238922
-0.239987
-0.238413
-0.236993
-0.235495
-0.233996
-0.232542
-0.231197
-0.230047
-0.22919
-0.228768
-0.228936
-0.22994
-0.231847
-0.234955
-0.239482
-0.236333
-0.234555
-0.232968
-0.231305
-0.229651
-0.228061
-0.226603
-0.225376
-0.224481
-0.224073
-0.224316
-0.22552
-0.227657
-0.231099
-0.236041
-0.23284
-0.230866
-0.229123
-0.227304
-0.225503
-0.223783
-0.222219
-0.220918
-0.219985
-0.219579
-0.219872
-0.22128
-0.223606
-0.22735
-0.232664
-0.229506
-0.227346
-0.225456
-0.223489
-0.221551
-0.219708
-0.218042
-0.216668
-0.215698
-0.215277
-0.215574
-0.217237
-0.219688
-0.223715
-0.229336
-0.226334
-0.223994
-0.221967
-0.219858
-0.217792
-0.215828
-0.214068
-0.212618
-0.21161
-0.211164
-0.211385
-0.21343
-0.215924
-0.220138
-0.226062
-0.223323
-0.220807
-0.218655
-0.216409
-0.214222
-0.212136
-0.210285
-0.208757
-0.207719
-0.207262
-0.207663
-0.209491
-0.212257
-0.216657
-0.22284
-0.220476
-0.217784
-0.215518
-0.213133
-0.210834
-0.208623
-0.206694
-0.205086
-0.204027
-0.203553
-0.204014
-0.20578
-0.208716
-0.21327
-0.219663
-0.217798
-0.214917
-0.212552
-0.210018
-0.207633
-0.205288
-0.203321
-0.201615
-0.20048
-0.200014
-0.2005
-0.202256
-0.205294
-0.209971
-0.21653
-0.215294
-0.212188
-0.209766
-0.207061
-0.204654
-0.202183
-0.200069
-0.198311
-0.197117
-0.196648
-0.197137
-0.198882
-0.201987
-0.206756
-0.213442
-0.212985
-0.209589
-0.207213
-0.204371
-0.201753
-0.199225
-0.197007
-0.195189
-0.193935
-0.193441
-0.193918
-0.195648
-0.198792
-0.203625
-0.210401
-0.210909
-0.207318
-0.20468
-0.201802
-0.199047
-0.196442
-0.194129
-0.192238
-0.190923
-0.190388
-0.190842
-0.19255
-0.195709
-0.200579
-0.207411
-0.208853
-0.205162
-0.202352
-0.199402
-0.196528
-0.193831
-0.191423
-0.189453
-0.188072
-0.187487
-0.187907
-0.189584
-0.192736
-0.197616
-0.204473
-0.213519
-0.207048
-0.203166
-0.200218
-0.197174
-0.194183
-0.191387
-0.188886
-0.186831
-0.185381
-0.184737
-0.18511
-0.186746
-0.189873
-0.19474
-0.201593
-0.210642
-0.205477
-0.201343
-0.198263
-0.195117
-0.19201
-0.189111
-0.186515
-0.184372
-0.182846
-0.182135
-0.182452
-0.184035
-0.18712
-0.191952
-0.198774
-0.207796
-0.204133
-0.1997
-0.196485
-0.193236
-0.19001
-0.187005
-0.184309
-0.182074
-0.180466
-0.179681
-0.179931
-0.181451
-0.184477
-0.189254
-0.196021
-0.204986
-0.203024
-0.198242
-0.194887
-0.191532
-0.188184
-0.185068
-0.182268
-0.179936
-0.178239
-0.177372
-0.177546
-0.178992
-0.181946
-0.18665
-0.193339
-0.202222
-0.202156
-0.196977
-0.193472
-0.190008
-0.186532
-0.183301
-0.180393
-0.177958
-0.176167
-0.17521
-0.175299
-0.176659
-0.179528
-0.184142
-0.190734
-0.199511
-0.20153
-0.195911
-0.192241
-0.188668
-0.185057
-0.181706
-0.178684
-0.176142
-0.174249
-0.173195
-0.173189
-0.174455
-0.177225
-0.181734
-0.188211
-0.196861
-0.201146
-0.19505
-0.191197
-0.187511
-0.183761
-0.180285
-0.177144
-0.174488
-0.172487
-0.171329
-0.17122
-0.17238
-0.175039
-0.17943
-0.185776
-0.194279
-0.200997
-0.194399
-0.19034
-0.186541
-0.182644
-0.179037
-0.175773
-0.172998
-0.170882
-0.169612
-0.169392
-0.170437
-0.172975
-0.177234
-0.183433
-0.191772
-0.202404
-0.201068
-0.193958
-0.18967
-0.185754
-0.181707
-0.177964
-0.174573
-0.171673
-0.169438
-0.168049
-0.167709
-0.16863
-0.171036
-0.175149
-0.181188
-0.189347
-0.199779
-0.201337
-0.193724
-0.189185
-0.185149
-0.180947
-0.177065
-0.173543
-0.170516
-0.168155
-0.166642
-0.166174
-0.166962
-0.169224
-0.173181
-0.179045
-0.18701
-0.197226
-0.201766
-0.193685
-0.18888
-0.18472
-0.180359
-0.176336
-0.172683
-0.169526
-0.167036
-0.165392
-0.16479
-0.165436
-0.167545
-0.171334
-0.177012
-0.184768
-0.194752
-0.202308
-0.193821
-0.188744
-0.184457
-0.179937
-0.175773
-0.17199
-0.168703
-0.166083
-0.164304
-0.163561
-0.164056
-0.166003
-0.169612
-0.175091
-0.182625
-0.192363
-0.202905
-0.194098
-0.188763
-0.184349
-0.179671
-0.175368
-0.171459
-0.168046
-0.165294
-0.163379
-0.162489
-0.162828
-0.164601
-0.168021
-0.173288
-0.180587
-0.190066
-0.203482
-0.194462
-0.188912
-0.184373
-0.179544
-0.175109
-0.171082
-0.167548
-0.164669
-0.162616
-0.161577
-0.161752
-0.163345
-0.166564
-0.171609
-0.178659
-0.187864
-0.199315
-0.203939
-0.194819
-0.189138
-0.184493
-0.179526
-0.174972
-0.17084
-0.167196
-0.164196
-0.162009
-0.160821
-0.160829
-0.162236
-0.165247
-0.170059
-0.176851
-0.185771
-0.196911
-0.204136
-0.195064
-0.189399
-0.184682
-0.179598
-0.174942
-0.170723
-0.166984
-0.163873
-0.161557
-0.160222
-0.160061
-0.161277
-0.164073
-0.168643
-0.175166
-0.183789
-0.194605
-0.204056
-0.195253
-0.189768
-0.185014
-0.179834
-0.175091
-0.170798
-0.166974
-0.163754
-0.161306
-0.159814
-0.159471
-0.160476
-0.163032
-0.167334
-0.17356
-0.181855
-0.192317
-0.203582
-0.195153
-0.190085
-0.185425
-0.180218
-0.175416
-0.171068
-0.167172
-0.163849
-0.161266
-0.159605
-0.159062
-0.159834
-0.162123
-0.166124
-0.172013
-0.179938
-0.189999
-0.200221
-0.192488
-0.188922
-0.184841
-0.179805
-0.175053
-0.170756
-0.166897
-0.163578
-0.160969
-0.159258
-0.158641
-0.159317
-0.161479
-0.165321
-0.171015
-0.178709
-0.1885
-0.1828
-0.181912
-0.184167
-0.181932
-0.177349
-0.172717
-0.168574
-0.164879
-0.161692
-0.159195
-0.157595
-0.15709
-0.157875
-0.160145
-0.164088
-0.16987
-0.177628
-0.187449
-0.199352
-0.18026
-0.177585
-0.179663
-0.178057
-0.173906
-0.169638
-0.166035
-0.163006
-0.160485
-0.158601
-0.157553
-0.157531
-0.15871
-0.16126
-0.165343
-0.171099
-0.178637
-0.188015
-0.199232
-0.176475
-0.173264
-0.173716
-0.172385
-0.169243
-0.165867
-0.163026
-0.160739
-0.158939
-0.157715
-0.157244
-0.157706
-0.15926
-0.162053
-0.166218
-0.171869
-0.179084
-0.187896
-0.198274
-0.170915
-0.168114
-0.167304
-0.165953
-0.163721
-0.161312
-0.159248
-0.157647
-0.156501
-0.155881
-0.155929
-0.156798
-0.158631
-0.161551
-0.165667
-0.171069
-0.177811
-0.185901
-0.195289
-0.163135
-0.161498
-0.160195
-0.158819
-0.157269
-0.155723
-0.154403
-0.153429
-0.152855
-0.152753
-0.153234
-0.154419
-0.156426
-0.159356
-0.163298
-0.168315
-0.174443
-0.181671
-0.189936
-0.153808
-0.153409
-0.152185
-0.150952
-0.149945
-0.149117
-0.148463
-0.148047