/*--------------------------------*- C++ -*----------------------------------*\
  =========                 |
  \\      /  F ield         | OpenFOAM: The Open Source CFD Toolbox
   \\    /   O peration     | Website:  https://openfoam.org
    \\  /    A nd           | Version:  7
     \\/     M anipulation  |
\*---------------------------------------------------------------------------*/
FoamFile
{
    version     2.0;
    format      ascii;
    class       surfaceScalarField;
    location    "65";
    object      phi;
}
// * * * * * * * * * * * * * * * * * * * * * * * * * * * * * * * * * * * * * //

dimensions      [0 3 -1 0 0 0 0];

internalField   nonuniform List<scalar> 
16753
(
-0.000358789
0.000122063
-0.000111899
-0.000368708
0.000164057
-0.000154138
-0.000378334
0.000212551
-0.000202924
-0.000387616
0.000267873
-0.000258592
-0.000396495
0.000330209
-0.000321329
-0.000404918
0.000399551
-0.000391128
-0.00041283
0.000475642
-0.00046773
-0.000420186
0.000557924
-0.000550568
-0.000426953
0.000645476
-0.000638709
-0.000433114
0.000736958
-0.000730797
-0.000438672
0.000830565
-0.000825008
-0.000443648
0.000923982
-0.000919006
-0.000448083
0.00101435
-0.00100992
-0.00045203
0.00109826
-0.00109431
-0.000455543
0.00117173
-0.00116822
-0.000458665
0.00123025
-0.00122713
-0.000461415
0.00126882
-0.00126607
-0.000463773
0.00128202
-0.00127967
-0.00046567
0.00126417
-0.00126228
-0.000466985
0.00120954
-0.00120822
-0.000467553
0.00111262
-0.00111205
-0.000467184
0.000968584
-0.000968953
-0.000465687
0.000773735
-0.000775232
-0.000462911
0.000526055
-0.00052883
-0.000458791
0.000225799
-0.000229919
-0.000453383
-0.000124075
0.000118666
-0.000446894
-0.000517519
0.00051103
-0.000439669
-0.000945326
0.000938101
-0.000432153
-0.0013952
0.00138769
-0.000424814
-0.00185211
0.00184477
-0.000418035
-0.00229841
0.00229164
-0.000412015
-0.00271455
0.00270853
-0.000406677
-0.00307871
0.00307337
-0.000401673
-0.0033684
0.00336339
-0.000396395
-0.00355932
0.00355404
-0.000390193
-0.00363009
0.00362389
-0.000382375
-0.00355957
0.00355175
-0.000372752
-0.00333842
0.00332879
-0.000361114
-0.00296255
0.00295091
-0.000348274
-0.00245335
0.00244051
-0.000333487
-0.0018465
0.00183171
-0.000317292
-0.0011982
0.00118201
-0.000294315
-0.000612999
0.000590022
-0.000264734
-9.73728e-05
6.77918e-05
-0.000217477
9.19517e-05
-0.000139209
0.000381266
-0.000427717
-0.000355081
0.000131679
-0.000364415
0.00017339
-0.000373422
0.000221558
-0.000382055
0.000276507
-0.000390266
0.00033842
-0.000398004
0.000407289
-0.000405226
0.000482864
-0.000411894
0.000564592
-0.000417985
0.000651566
-0.00042349
0.000742463
-0.000428419
0.000835494
-0.000432801
0.000928365
-0.000436684
0.00101823
-0.000440122
0.0011017
-0.000443172
0.00117478
-0.000445878
0.00123296
-0.000448259
0.00127121
-0.000450296
0.00128406
-0.00045192
0.0012658
-0.000453012
0.00121063
-0.00045341
0.00111301
-0.000452926
0.0009681
-0.000451374
0.000772182
-0.000448608
0.000523289
-0.00044457
0.000221761
-0.000439329
-0.000129317
-0.000433108
-0.00052374
-0.000426276
-0.000952158
-0.000419307
-0.00140217
-0.0004127
-0.00185872
-0.000406867
-0.00230425
-0.000402024
-0.0027194
-0.000398096
-0.00308264
-0.000394709
-0.00337178
-0.000391208
-0.00356282
-0.000386875
-0.00363442
-0.000380947
-0.00356549
-0.000373146
-0.00334622
-0.000363216
-0.00297248
-0.000351899
-0.00246467
-0.000338532
-0.00185986
-0.000323569
-0.00121316
-0.000302
-0.000634568
-0.000273713
-0.00012566
-0.000229697
4.79355e-05
0.00033839
-0.000349831
0.00014072
-0.000358551
0.00018211
-0.000366913
0.00022992
-0.000374874
0.000284468
-0.000382391
0.000345937
-0.000389423
0.000414321
-0.000395932
0.000489373
-0.00040189
0.000570551
-0.000407282
0.000656958
-0.000412107
0.000747288
-0.000416383
0.00083977
-0.000420146
0.000932128
-0.000423447
0.00102153
-0.000426345
0.00110459
-0.000428899
0.00117734
-0.000431156
0.00123522
-0.000433135
0.00127319
-0.000434818
0.00128574
-0.000436138
0.00126712
-0.000436981
0.00121147
-0.000437184
0.00111322
-0.000436565
0.000967481
-0.000434941
0.000770558
-0.00043217
0.000520519
-0.000428201
0.000217792
-0.000423111
-0.000134406
-0.000417143
-0.000529709
-0.000410686
-0.000958615
-0.000404244
-0.00140861
-0.000398348
-0.00186461
-0.000393441
-0.00230915
-0.000389762
-0.00272308
-0.000387239
-0.00308516
-0.000385476
-0.00337355
-0.00038377
-0.00356452
-0.000381332
-0.00363686
-0.000377325
-0.0035695
-0.000371376
-0.00335217
-0.000363179
-0.00298068
-0.000353401
-0.00247444
-0.000341464
-0.0018718
-0.000327759
-0.00122687
-0.000307667
-0.000654661
-0.000280865
-0.000152462
-0.000240278
7.34875e-06
0.000299132
-0.000343087
0.000149157
-0.000351169
0.000190193
-0.000358861
0.000237612
-0.000366126
0.000291733
-0.000372927
0.000352738
-0.000379229
0.000420623
-0.000385003
0.000495147
-0.000390229
0.000575776
-0.000394898
0.000661627
-0.000399019
0.000751408
-0.000402616
0.000843368
-0.000405731
0.000935243
-0.00040842
0.00102422
-0.000410747
0.00110692
-0.000412772
0.00117936
-0.000414545
0.00123699
-0.000416088
0.00127473
-0.000417384
0.00128704
-0.00041837
0.0012681
-0.000418935
0.00121204
-0.00041892
0.0011132
-0.000418147
0.000966708
-0.000416434
0.000768845
-0.000413644
0.000517729
-0.00040973
0.000213877
-0.000404778
-0.000139358
-0.000399045
-0.000535442
-0.000392943
-0.000964717
-0.000387006
-0.00141455
-0.000381796
-0.00186982
-0.00037779
-0.00231316
-0.000375253
-0.00272561
-0.000374124
-0.00308629
-0.000373985
-0.00337368
-0.000374089
-0.00356442
-0.000373569
-0.00363738
-0.000371508
-0.00357156
-0.000367438
-0.00335624
-0.000360994
-0.00298712
-0.000352769
-0.00248267
-0.00034227
-0.0018823
-0.000329849
-0.00123929
-0.000311306
-0.000673204
-0.000286173
-0.000177594
-0.000249161
-2.96636e-05
0.000263494
-0.000334905
0.000156969
-0.000342325
0.000197613
-0.000349325
0.000244611
-0.000355871
0.000298279
-0.000361933
0.0003588
-0.000367484
0.000426174
-0.0003725
0.000500164
-0.00037697
0.000580246
-0.000380893
0.00066555
-0.000384284
0.0007548
-0.000387175
0.000846258
-0.000389613
0.000937681
-0.00039166
0.00102627
-0.000393381
0.00110864
-0.000394844
0.00118082
-0.000396098
0.00123824
-0.000397169
0.0012758
-0.000398046
0.00128792
-0.000398668
0.00126873
-0.000398929
0.0012123
-0.000398673
0.00111295
-0.000397726
0.000965761
-0.000395909
0.000767028
-0.000393086
0.000514906
-0.000389213
0.000210005
-0.000384385
-0.000144185
-0.000378871
-0.000540957
-0.000373104
-0.000970484
-0.000367645
-0.00142001
-0.000363091
-0.00187438
-0.000359956
-0.00231629
-0.000358534
-0.00272704
-0.000358778
-0.00308605
-0.000360258
-0.0033722
-0.000362178
-0.0035625
-0.000363593
-0.00363597
-0.000363502
-0.00357165
-0.000361335
-0.00335841
-0.000356662
-0.00299179
-0.000350002
-0.00248933
-0.000340948
-0.00189135
-0.000329835
-0.0012504
-0.000312911
-0.000690128
-0.000289621
-0.000200884
-0.000256286
-6.29993e-05
0.000231442
-0.000325342
0.000164133
-0.00033208
0.000204351
-0.000338366
0.000250896
-0.000344172
0.000304086
-0.000349475
0.000364103
-0.000354252
0.000430951
-0.000358489
0.000504401
-0.000362179
0.000583937
-0.000365332
0.000668702
-0.000367967
0.000757435
-0.000370124
0.000848415
-0.000371855
0.000939412
-0.000373226
0.00102764
-0.00037431
0.00110973
-0.000375174
0.00118169
-0.000375874
0.00123894
-0.000376441
0.00127637
-0.000376866
0.00128834
-0.000377095
0.00126896
-0.000377026
0.00121223
-0.000376506
0.00111243
-0.000375367
0.000964621
-0.000373429
0.00076509
-0.00037056
0.000512036
-0.000366716
0.000206161
-0.000361997
-0.000148904
-0.000356684
-0.00054627
-0.00035123
-0.000975938
-0.000346223
-0.00142501
-0.000342292
-0.00187831
-0.000339991
-0.0023186
-0.000339648
-0.00272738
-0.000341239
-0.00308446
-0.000344322
-0.00336912
-0.000348058
-0.00355876
-0.000351422
-0.0036326
-0.000353321
-0.00356975
-0.000353077
-0.00335865
-0.000350193
-0.00299468
-0.000345108
-0.00249441
-0.000337503
-0.00189896
-0.000327722
-0.00126019
-0.000312484
-0.000705366
-0.000291192
-0.000222176
-0.000261596
-9.25955e-05
0.000202916
-0.000314462
0.00017063
-0.000320498
0.000210387
-0.00032605
0.000256449
-0.000331097
0.000309133
-0.00033562
0.000368625
-0.000339603
0.000434934
-0.000343038
0.000507836
-0.000345927
0.000586826
-0.000348283
0.000671059
-0.000350137
0.000759289
-0.000351531
0.000849809
-0.000352525
0.000940406
-0.000353189
0.00102831
-0.000353601
0.00111014
-0.000353833
0.00118192
-0.000353945
0.00123906
-0.000353973
0.00127639
-0.000353913
0.00128828
-0.000353719
0.00126876
-0.000353294
0.0012118
-0.00035249
0.00111162
-0.00035114
0.000963271
-0.000349067
0.000763018
-0.000346138
0.000509107
-0.00034231
0.000202333
-0.000337687
-0.000153527
-0.000332558
-0.000551399
-0.000327394
-0.000981102
-0.000322809
-0.0014296
-0.000319466
-0.00188165
-0.000317957
-0.0023201
-0.000318651
-0.00272668
-0.000321551
-0.00308156
-0.000326214
-0.00336446
-0.00033176
-0.00355322
-0.00033708
-0.00362728
-0.000340985
-0.00356585
-0.000342683
-0.00335695
-0.000341602
-0.00299576
-0.000338102
-0.00249791
-0.000331951
-0.00190511
-0.000323523
-0.00126861
-0.000310028
-0.000718861
-0.000290871
-0.000241333
-0.000265041
-0.000118425
0.000177837
-0.000302327
0.000176445
-0.000307645
0.000215705
-0.000312447
0.000261251
-0.000316717
0.000313403
-0.000320441
0.000372349
-0.00032361
0.000438103
-0.000326223
0.000510449
-0.000328287
0.00058889
-0.000329824
0.000672596
-0.00033087
0.000760334
-0.000331473
0.000850412
-0.0003317
0.000940633
-0.000331625
0.00102823
-0.000331331
0.00110984
-0.000330896
0.00118149
-0.000330385
0.00123855
-0.000329841
0.00127585
-0.000329266
0.00128771
-0.00032862
0.00126812
-0.000327814
0.001211
-0.000326703
0.00111051
-0.000325125
0.000961693
-0.000322903
0.000760796
-0.000319901
0.000506106
-0.000316078
0.000198509
-0.000311537
-0.000158068
-0.000306575
-0.000556361
-0.000301678
-0.000985998
-0.000297485
-0.00143379
-0.000294689
-0.00188445
-0.000293926
-0.00232087
-0.000295606
-0.002725
-0.000299769
-0.00307739
-0.000305979
-0.00335825
-0.000313319
-0.00354588
-0.000320598
-0.00362
-0.000326522
-0.00355993
-0.000330178
-0.00335329
-0.000330915
-0.00299502
-0.000329008
-0.00249982
-0.000324314
-0.0019098
-0.000317257
-0.00127567
-0.000305556
-0.000730561
-0.000288644
-0.000258246
-0.000266577
-0.000140492
0.000156106
-0.000289005
0.000181564
-0.000293591
0.000220291
-0.000297628
0.000265289
-0.000301106
0.00031688
-0.000304014
0.000375258
-0.000306351
0.00044044
-0.000308122
0.000512219
-0.00030934
0.000590108
-0.000310034
0.00067329
-0.000310246
0.000760546
-0.000310032
0.000850197
-0.000309461
0.000940062
-0.000308616
0.00102739
-0.000307583
0.00110881
-0.000306448
0.00118035
-0.00030528
0.00123738
-0.00030413
0.0012747
-0.000303009
0.00128659
-0.000301884
0.00126699
-0.000300671
0.00120978
-0.000299231
0.00110907
-0.000297407
0.000959869
-0.000295021
0.00075841
-0.000291936
0.00050302
-0.000288105
0.000194678
-0.000283632
-0.00016254
-0.000278821
-0.000561173
-0.000274169
-0.00099065
-0.000270337
-0.00143762
-0.000268048
-0.00188674
-0.000267979
-0.00232094
-0.000270589
-0.00272239
-0.000275959
-0.00307202
-0.00028367
-0.00335054
-0.00029278
-0.00353677
-0.000302012
-0.00361077
-0.000309964
-0.00355197
-0.000315594
-0.00334766
-0.000318163
-0.00299245
-0.000317856
-0.00250013
-0.000314622
-0.00191304
-0.00030895
-0.00128134
-0.000299082
-0.000740429
-0.000284501
-0.000272827
-0.000266166
-0.000158827
0.000137622
-0.000274562
-0.000278406
0.000224135
-0.000281667
0.00026855
-0.000284339
0.000319552
-0.000286418
0.000377336
-0.000287907
0.000441929
-0.000288818
0.00051313
-0.00028917
0.000590461
-0.000288999
0.000673119
-0.000288353
0.0007599
-0.000287293
0.000849137
-0.000285896
0.000938665
-0.00028425
0.00102574
-0.000282446
0.00110701
-0.000280578
0.00117848
-0.000278721
0.00123552
-0.000276933
0.00127291
-0.000275235
0.00128489
-0.000273601
0.00126536
-0.000271958
0.00120814
-0.000270168
0.00110728
-0.000268081
0.000957782
-0.000265517
0.000755846
-0.000262335
0.000499838
-0.000258485
0.000190828
-0.000254069
-0.000166956
-0.000249392
-0.00056585
-0.000244963
-0.000995079
-0.00024146
-0.00144113
-0.000239635
-0.00188856
-0.000240206
-0.00232036
-0.000243682
-0.00271892
-0.000250194
-0.00306551
-0.000259351
-0.00334138
-0.000270194
-0.00352593
-0.000281367
-0.0035996
-0.000291352
-0.00354199
-0.000298969
-0.00334005
-0.000303382
-0.00298804
-0.000304685
-0.00249882
-0.000302913
-0.00191481
-0.000298634
-0.00128562
-0.000290627
-0.000748436
-0.000278435
-0.000285019
-0.000263779
-0.000173483
0.000122274
-0.00026216
0.00022723
-0.000264638
0.000271028
-0.000266495
0.000321409
-0.000267733
0.000378574
-0.000268361
0.000442556
-0.000268396
0.000513165
-0.000267864
0.000589929
-0.000266807
0.000672062
-0.00026528
0.000758373
-0.000263349
0.000847206
-0.000261099
0.000936414
-0.000258621
0.00102326
-0.000256016
0.0011044
-0.000253382
0.00117585
-0.000250803
0.00123294
-0.000248346
0.00127046
-0.000246041
0.00128258
-0.000243871
0.00126319
-0.000241773
0.00120604
-0.000239613
0.00110512
-0.000237244
0.000955414
-0.000234487
0.000753089
-0.000231197
0.000496547
-0.000227317
0.000186948
-0.000222945
-0.000171328
-0.000218387
-0.000570408
-0.000214159
-0.000999307
-0.000210955
-0.00144433
-0.000209552
-0.00188997
-0.000210706
-0.00231921
-0.000214978
-0.00271465
-0.000222558
-0.00305793
-0.000233094
-0.00333084
-0.000245622
-0.0035134
-0.000258714
-0.0035865
-0.00027073
-0.00352997
-0.000280345
-0.00333043
-0.000286616
-0.00298177
-0.000289538
-0.0024959
-0.00028923
-0.00191512
-0.000286349
-0.0012885
-0.000280214
-0.000754571
-0.000270445
-0.000294789
-0.000259397
-0.00018453
0.000109956
-0.000244925
0.000229575
-0.000246616
0.000272719
-0.000247652
0.000322445
-0.000248041
0.000378963
-0.000247797
0.000442312
-0.000246943
0.000512312
-0.000245512
0.000588498
-0.000243551
0.000670101
-0.000241122
0.000755945
-0.000238297
0.000844382
-0.000235166
0.000933284
-0.00023183
0.00101993
-0.000228393
0.00110097
-0.000224963
0.00117242
-0.000221631
0.00122961
-0.000218474
0.0012673
-0.000215532
0.00127964
-0.000212799
0.00126046
-0.000210221
0.00120346
-0.000207668
0.00110257
-0.000205
0.000952746
-0.000202036
0.000750124
-0.000198625
0.000493136
-0.000194704
0.000183028
-0.000190365
-0.000175667
-0.000185911
-0.000574863
-0.000181863
-0.00100335
-0.000178929
-0.00144726
-0.000177904
-0.00189099
-0.000179584
-0.00231753
-0.000184579
-0.00270965
-0.000193144
-0.00304937
-0.00020498
-0.00331901
-0.000219132
-0.00349925
-0.000234109
-0.00357153
-0.00024815
-0.00351593
-0.000259772
-0.00331881
-0.000267913
-0.00297363
-0.000272465
-0.00249135
-0.000273621
-0.00191396
-0.000272139
-0.00128998
-0.000267876
-0.000758834
-0.000260534
-0.000302131
-0.00025301
-0.000192055
0.000100562
-0.000226766
0.000231173
-0.000227671
0.000273624
-0.000227887
0.00032266
-0.000227423
0.0003785
-0.000226301
0.000441189
-0.00022455
0.000510561
-0.000222206
0.000586155
-0.000219325
0.00066722
-0.000215976
0.000752596
-0.000212235
0.000840641
-0.000208201
0.000929249
-0.000203979
0.0010157
-0.000199683
0.00109667
-0.000195427
0.00116816
-0.000191311
0.00122549
-0.000187425
0.00126341
-0.000183817
0.00127603
-0.000180494
0.00125713
-0.000177411
0.00120038
-0.000174443
0.0010996
-0.000171458
0.000949761
-0.000168271
0.000746937
-0.000164726
0.000489592
-0.000160753
0.000179055
-0.000156434
-0.000179986
-0.000152071
-0.000579226
-0.000148185
-0.00100724
-0.000145493
-0.00144996
-0.000144805
-0.00189168
-0.00014695
-0.00231539
-0.000152591
-0.00270401
-0.000162052
-0.0030399
-0.000175097
-0.00330596
-0.0001908
-0.00348354
-0.000207617
-0.00355471
-0.000223667
-0.00349988
-0.0002373
-0.00330518
-0.000247325
-0.0029636
-0.000253518
-0.00248516
-0.000256142
-0.00191134
-0.000256052
-0.00129007
-0.000253646
-0.00076124
-0.000248713
-0.000307064
-0.000244614
-0.000196154
9.39906e-05
-0.000207748
0.000232033
-0.000207875
0.000273751
-0.000207273
0.000322059
-0.000205959
0.000377186
-0.000203957
0.000439187
-0.000201303
0.000507907
-0.000198039
0.00058289
-0.000194225
0.000663406
-0.000189941
0.000748311
-0.000185266
0.000835966
-0.000180306
0.000924289
-0.000175175
0.00101057
-0.000169993
0.00109149
-0.000164884
0.00116305
-0.000159956
0.00122057
-0.000155311
0.00125877
-0.000151009
0.00127173
-0.000147068
0.00125319
-0.000143456
0.00119677
-0.000140051
0.00109619
-0.000136728
0.000946438
-0.000133301
0.00074351
-0.000129609
0.0004859
-0.000125573
0.000175018
-0.000121264
-0.000184294
-0.000116977
-0.000583513
-0.000113236
-0.00101098
-0.00011076
-0.00145243
-0.000110369
-0.00189207
-0.000112922
-0.00231283
-0.000119131
-0.0026978
-0.000129392
-0.00302964
-0.000143545
-0.00329181
-0.00016071
-0.00346638
-0.000179309
-0.00353611
-0.000197344
-0.00348185
-0.000212989
-0.00328953
-0.00022491
-0.00295168
-0.000232756
-0.00247731
-0.000236849
-0.00190724
-0.000238141
-0.00128878
-0.000237566
-0.000761815
-0.000234998
-0.000309631
-0.000234218
-0.000196935
9.0148e-05
-0.000187928
0.000232172
-0.00018729
0.000273113
-0.000185883
0.000320652
-0.000183726
0.000375029
-0.000180847
0.000436308
-0.000177291
0.000504351
-0.000173102
0.000578702
-0.000168349
0.000658653
-0.000163117
0.00074308
-0.000157493
0.000830342
-0.000151589
0.000918385
-0.000145527
0.00100451
-0.000139435
0.0010854
-0.000133447
0.00115706
-0.000127681
0.0012148
-0.000122249
0.00125334
-0.000117223
0.0012667
-0.000112638
0.00124861
-0.000108471
0.0011926
-0.000104605
0.00109233
-0.000100924
0.000942757
-9.72404e-05
0.000739827
-9.33867e-05
0.000482046
-8.92731e-05
0.000170904
-8.49624e-05
-0.000188605
-8.07412e-05
-0.000587734
-7.71285e-05
-0.00101459
-7.48444e-05
-0.00145472
-7.47141e-05
-0.0018922
-7.76196e-05
-0.00230993
-8.43184e-05
-0.0026911
-9.52791e-05
-0.00301868
-0.00011043
-0.00327666
-0.000128955
-0.00344785
-0.000149263
-0.0035158
-0.000169246
-0.00346186
-0.000186898
-0.00327188
-0.000200727
-0.00293785
-0.000210241
-0.0024678
-0.000215805
-0.00190168
-0.000218466
-0.00128612
-0.000219681
-0.0007606
-0.000219413
-0.000309899
-0.000221837
-0.000194511
8.89452e-05
-0.000167356
0.000231612
-0.000165974
0.000271732
-0.000163779
0.000318457
-0.000160794
0.000372043
-0.000157049
0.000432563
-0.000152597
0.000499899
-0.000147486
0.000573591
-0.000141789
0.000652956
-0.000135604
0.000736896
-0.00012902
0.000823757
-0.000122156
0.000911521
-0.000115146
0.0009975
-0.000108123
0.00107837
-0.000101232
0.00115017
-9.46013e-05
0.00120817
-8.83552e-05
0.00124709
-8.25799e-05
0.00126093
-7.73228e-05
0.00124335
-7.25732e-05
0.00118785
-6.82229e-05
0.00108798
-6.41597e-05
0.000938693
-6.01995e-05
0.000735867
-5.61668e-05
0.000478013
-5.1962e-05
0.000166699
-4.76366e-05
-0.000192931
-4.34684e-05
-0.000591902
-3.99704e-05
-0.00101809
-3.78596e-05
-0.00145683
-3.79575e-05
-0.0018921
-4.11645e-05
-0.00230672
-4.82767e-05
-0.00268399
-5.98355e-05
-0.00300712
-7.58664e-05
-0.00326063
-9.56368e-05
-0.00342808
-0.000117564
-0.00349388
-0.000139447
-0.00343998
-0.000159093
-0.00325223
-0.00017484
-0.00292211
-0.000186035
-0.0024566
-0.000193075
-0.00189464
-0.000197088
-0.00128211
-0.000200043
-0.000757646
-0.000201989
-0.000307953
-0.000207494
-0.000189006
9.02988e-05
-0.000146073
0.000230385
-0.000143977
0.000269635
-0.00014102
0.0003155
-0.000137228
0.000368251
-0.000132636
0.00042797
-0.000127301
0.000494564
-0.000121276
0.000567566
-0.000114639
0.000646319
-0.000107499
0.000729756
-9.99479e-05
0.000816205
-9.21148e-05
0.000903688
-8.41407e-05
0.000989526
-7.61691e-05
0.0010704
-6.83549e-05
0.00114236
-6.08361e-05
0.00120065
-5.37499e-05
0.00124
-4.71965e-05
0.00125438
-4.12388e-05
0.00123739
-3.58785e-05
0.00118249
-3.10102e-05
0.00108311
-2.65352e-05
0.000934218
-2.22687e-05
0.0007316
-1.80275e-05
0.000473772
-1.37006e-05
0.000162373
-9.32521e-06
-0.000197306
-5.16314e-06
-0.000596064
-1.70993e-06
-0.00102154
3.15881e-07
-0.00145885
-9.24679e-08
-0.00189169
-3.65229e-06
-0.00230316
-1.11297e-05
-0.00267651
-2.31879e-05
-0.00299507
-3.9974e-05
-0.00324384
-6.08622e-05
-0.00340719
-8.43039e-05
-0.00347043
-0.000108024
-0.00341626
-0.000129643
-0.00323061
-0.000147313
-0.00290444
-0.000160204
-0.00244371
-0.000168726
-0.00188612
-0.000174072
-0.00127676
-0.000178706
-0.000753012
-0.000182763
-0.000303896
-0.000191221
-0.000180549
9.41295e-05
-0.000124107
0.000228531
-0.000121335
0.000266863
-0.000117652
0.000311818
-0.000113086
0.000363685
-0.000107671
0.000422555
-0.000101476
0.000488369
-9.45529e-05
0.000560643
-8.69853e-05
0.000638751
-7.88961e-05
0.000721667
-7.03775e-05
0.000807687
-6.15689e-05
0.00089488
-5.26212e-05
0.000980578
-4.36864e-05
0.00106147
-3.49312e-05
0.0011336
-2.65008e-05
0.00119222
-1.85458e-05
0.00123205
-1.11712e-05
0.001247
-4.42161e-06
0.00123064
1.76233e-06
0.00117631
7.00053e-06
0.00107787
1.1851e-05
0.000929368
1.63989e-05
0.000727052
2.0821e-05
0.00046935
2.52336e-05
0.00015796
2.96097e-05
-0.000201682
3.36942e-05
-0.000600149
3.69958e-05
-0.00102485
3.8818e-05
-0.00146068
3.8354e-05
-0.00189123
3.46936e-05
-0.0022995
2.69813e-05
-0.0026688
1.45354e-05
-0.00298262
-2.87984e-06
-0.00322643
-2.47479e-05
-0.00338533
-4.95839e-05
-0.0034456
-7.50603e-05
-0.00339078
-9.86197e-05
-0.00320705
-0.000118215
-0.00288484
-0.000132818
-0.00242911
-0.000142827
-0.00187611
-0.000149486
-0.0012701
-0.000155732
-0.000746766
-0.000161781
-0.000297847
-0.000173055
-0.000169275
0.00010036
-0.000101475
0.000226098
-9.80734e-05
0.000263461
-9.37106e-05
0.000307455
-8.84103e-05
0.000358384
-8.22102e-05
0.000416355
-7.51847e-05
0.000481344
-6.73896e-05
0.000552848
-5.89095e-05
0.000630271
-4.9883e-05
0.000712641
-4.04041e-05
0.000798208
-3.06196e-05
0.000885095
-2.06936e-05
0.000970652
-1.07845e-05
0.00105156
-1.02686e-06
0.00112385
8.29116e-06
0.0011829
1.71189e-05
0.00122322
2.5294e-05
0.00123883
3.27205e-05
0.00122322
3.93727e-05
0.00116966
4.53252e-05
0.00107192
5.06657e-05
0.000924027
5.55764e-05
0.000722142
6.02492e-05
0.000464677
6.48132e-05
0.000153396
6.92549e-05
-0.000206124
7.33305e-05
-0.000604224
7.65625e-05
-0.00102808
7.82715e-05
-0.00146239
7.76631e-05
-0.00189062
7.38401e-05
-0.00229568
6.59306e-05
-0.00266089
5.31937e-05
-0.00296988
3.52857e-05
-0.00320852
1.25705e-05
-0.00336261
-1.35136e-05
-0.00341951
-4.06473e-05
-0.00336365
-6.61003e-05
-0.0031816
-8.76151e-05
-0.00286333
-0.000103944
-0.00241278
-0.000115449
-0.0018646
-0.000123401
-0.00126215
-0.000131186
-0.000738981
-0.000139095
-0.000289938
-0.000153042
-0.000155328
0.000108914
-7.81754e-05
0.000223147
-7.42025e-05
0.000259488
-6.9216e-05
0.000302469
-6.32343e-05
0.000352402
-5.62957e-05
0.000409417
-4.84816e-05
0.000473529
-3.98504e-05
0.000544217
-3.04841e-05
0.000620905
-2.05464e-05
0.000702703
-1.01246e-05
0.000787786
6.12901e-07
0.000874358
1.15408e-05
0.000959724
2.24269e-05
0.00104067
3.31037e-05
0.00111317
4.33975e-05
0.00117261
5.31275e-05
0.00121349
6.21474e-05
0.00122981
7.03492e-05
0.00121501
7.76931e-05
0.00116231
8.42312e-05
0.00106538
9.005e-05
0.000918209
9.53294e-05
0.000716862
0.000100263
0.000459744
0.000104987
0.000148672
0.0001095
-0.000210637
0.000113571
-0.000608295
0.000116737
-0.00103124
0.000118338
-0.00146399
0.000117601
-0.00188989
0.000113647
-0.00229172
0.000105599
-0.00265284
9.26632e-05
-0.00295695
7.43891e-05
-0.00319024
5.10103e-05
-0.00333923
2.37969e-05
-0.0033923
-4.89349e-06
-0.00333496
-3.21665e-05
-0.00315433
-5.55877e-05
-0.00283991
-7.36525e-05
-0.00239471
-8.66631e-05
-0.00185159
-9.58882e-05
-0.00125293
-0.000105136
-0.000729733
-0.000114763
-0.00028031
-0.000131232
-0.00013886
0.000119712
-5.41925e-05
-4.97165e-05
0.000255012
-4.41747e-05
0.000296927
-3.75759e-05
0.000345804
-2.99575e-05
0.000401798
-2.14137e-05
0.000464986
-1.20044e-05
0.000534807
-1.91632e-06
0.000610817
9.0452e-06
0.000691741
2.04094e-05
0.000776422
3.21161e-05
0.000862651
4.39896e-05
0.000947851
5.58504e-05
0.00102881
6.74986e-05
0.00110152
7.8742e-05
0.00116136
8.93878e-05
0.00120284
9.92734e-05
0.00121992
0.000108276
0.00120601
0.000116334
0.00115425
0.000123488
0.00105823
0.000129815
0.000911882
0.000135492
0.000711186
0.000140711
0.000454524
0.000145617
0.000143766
0.000150218
-0.000215238
0.000154294
-0.000612371
0.0001574
-0.00103435
0.0001589
-0.00146549
0.000158047
-0.00188903
0.000153992
-0.00228767
0.000145857
-0.00264471
0.000132808
-0.0029439
0.000114294
-0.00317173
9.03947e-05
-0.00331533
6.22476e-05
-0.00336415
3.21398e-05
-0.00330485
2.80728e-06
-0.003125
-2.221e-05
-0.00281489
-4.20163e-05
-0.00237491
-5.65408e-05
-0.00183707
-6.70218e-05
-0.00124244
-7.7655e-05
-0.0007191
-8.88527e-05
-0.000269113
-0.000107682
-0.000120031
0.000132668
-2.4596e-05
0.000250116
-1.85837e-05
0.000290915
-1.1458e-05
0.000338678
-3.32638e-06
0.000393667
5.9884e-06
0.000455671
1.61741e-05
0.000524622
2.71853e-05
0.000599805
3.88623e-05
0.000680065
5.11053e-05
0.000764179
6.37361e-05
0.00085002
7.65632e-05
0.000935024
8.9392e-05
0.00101598
0.000102009
0.0010889
0.00011421
0.00114916
0.000125784
0.00119127
0.000136553
0.00120915
0.000146378
0.00119619
0.000155179
0.00114545
0.000162978
0.00105043
0.000169845
0.000905015
0.000175949
0.000705081
0.000181483
0.00044899
0.000186594
0.000138656
0.0001913
-0.000219944
0.000195393
-0.000616464
0.000198445
-0.0010374
0.00019985
-0.00146689
0.000198892
-0.00188808
0.000194757
-0.00228353
0.000186581
-0.00263653
0.000173498
-0.00293082
0.000154864
-0.0031531
0.000130602
-0.00329107
0.000101685
-0.00333524
7.03227e-05
-0.00327349
3.9606e-05
-0.00309428
1.24138e-05
-0.0027877
-9.12004e-06
-0.00235337
-2.51557e-05
-0.00182103
-3.68771e-05
-0.00123072
-4.88178e-05
-0.000707159
-6.14341e-05
-0.000256496
-8.2454e-05
-9.90111e-05
0.000147688
1.12109e-06
0.000244887
7.59905e-06
0.000284437
1.52172e-05
0.00033106
2.39754e-05
0.000384909
3.37944e-05
0.000445852
4.462e-05
0.000513796
5.63488e-05
0.000588077
6.88198e-05
0.000667593
8.19082e-05
0.00075109
9.54301e-05
0.000836498
0.000109185
0.000921268
0.000122966
0.0010022
0.000136545
0.00107533
0.000149702
0.00113601
0.000162212
0.00117876
0.00017388
0.00119748
0.000184548
0.00118552
0.000194117
0.00113588
0.000202591
0.00104195
0.00021003
0.000897576
0.000216595
0.000698516
0.000222474
0.000443111
0.000227815
0.000133314
0.000232647
-0.000224776
0.000236768
-0.000620585
0.000239772
-0.00104041
0.000241084
-0.0014682
0.000240028
-0.00188702
0.000235831
-0.00227933
0.000227651
-0.00262835
0.000214605
-0.00291777
0.000195964
-0.00313445
0.000171496
-0.0032666
0.000141989
-0.00330573
0.000109532
-0.00324103
7.72674e-05
-0.00306201
4.83257e-05
-0.00275876
2.50021e-05
-0.00233005
7.3587e-06
-0.00180339
-5.54466e-06
-0.00121782
-1.87024e-05
-0.000694002
-3.25853e-05
-0.000242613
-5.56161e-05
-7.59803e-05
0.000164665
2.77792e-05
0.000239424
3.4478e-05
0.000277738
4.24317e-05
0.000323106
5.16037e-05
0.000375737
6.19225e-05
0.000435533
7.33239e-05
0.000502395
8.57024e-05
0.000575698
9.88994e-05
0.000654397
0.000112777
0.000737213
0.000127144
0.000822131
0.000141791
0.000906621
0.000156497
0.000987495
0.000171023
0.0010608
0.00018513
0.0011219
0.000198579
0.00116531
0.000211156
0.00118491
0.000222685
0.00117399
0.000233046
0.00112552
0.000242225
0.00103277
0.000250269
0.000889532
0.000257328
0.000691457
0.000263584
0.000436855
0.000269185
0.000127714
0.00027416
-0.000229751
0.000278321
-0.000624746
0.000281282
-0.00104337
0.000282502
-0.00146942
0.000281352
-0.00188587
0.000277105
-0.00227509
0.000268954
-0.0026202
0.000256006
-0.00290482
0.000237461
-0.00311591
0.000212939
-0.00324208
0.000183026
-0.00327582
0.000149654
-0.00320766
0.000115973
-0.00302833
8.53125e-05
-0.0027281
6.02697e-05
-0.00230501
4.1133e-05
-0.00178425
2.69576e-05
-0.00120364
1.26036e-05
-0.000679648
-2.39296e-06
-0.000227617
-2.72402e-05
-5.11331e-05
0.000183475
5.51715e-05
0.000233846
6.20458e-05
0.000270864
7.02358e-05
0.000314916
7.97196e-05
0.000366253
9.04321e-05
0.00042482
0.00010231
0.000490516
0.000115248
0.00056276
0.000129089
0.000640556
0.000143685
0.000722617
0.000158838
0.000806978
0.00017433
0.000891129
0.000189926
0.000971899
0.000205372
0.00104535
0.000220416
0.00110686
0.000234801
0.00115093
0.000248292
0.00117141
0.000260695
0.00116159
0.000271871
0.00111435
0.000281784
0.00102286
0.000290466
0.00088085
0.000298055
0.000683869
0.000304722
0.000430188
0.000310608
0.000121828
0.000315748
-0.000234891
0.00031996
-0.000628958
0.00032288
-0.00104629
0.000324008
-0.00147055
0.000322764
-0.00188463
0.000318478
-0.0022708
0.000310379
-0.0026121
0.000297581
-0.00289202
0.000279226
-0.00309755
0.000254793
-0.00321765
0.00022466
-0.00324568
0.000190567
-0.00317357
0.000155624
-0.00299339
0.000123329
-0.0026958
9.658e-05
-0.00227826
7.58944e-05
-0.00176357
6.05124e-05
-0.00118826
4.50621e-05
-0.000664197
2.90679e-05
-0.000211623
2.54259e-06
-2.46078e-05
0.000203919
8.34918e-05
0.000228273
9.04162e-05
0.000263939
9.87184e-05
0.000306614
0.00010839
0.000356581
0.000119376
0.000413834
0.000131617
0.000478276
0.000145007
0.000549369
0.000159396
0.000626167
0.000174624
0.000707388
0.000190491
0.000791112
0.000206766
0.000874853
0.000223205
0.000955461
0.000239538
0.00102902
0.000255495
0.0010909
0.000270803
0.00113562
0.000285209
0.00115701
0.000298497
0.0011483
0.000310507
0.00110234
0.000321181
0.00101219
0.000330534
0.000871497
0.000338686
0.000675717
0.000345798
0.000423075
0.000351998
0.000115628
0.000357322
-0.000240215
0.000361594
-0.00063323
0.000364476
-0.00104917
0.000365508
-0.00147158
0.00036417
-0.00188329
0.000359848
-0.00226648
0.000351822
-0.00260408
0.000339217
-0.00287942
0.000321135
-0.00307947
0.000296926
-0.00319344
0.000266755
-0.00321551
0.000232142
-0.00313896
0.000196111
-0.00295736
0.000162287
-0.00266198
0.00013387
-0.00224984
0.000111637
-0.00174133
9.50482e-05
-0.00117167
7.85527e-05
-0.000647702
6.16956e-05
-0.000194766
3.37978e-05
3.29002e-06
0.000225905
0.000112858
0.000222834
0.000119698
0.000257099
0.000127977
0.000298335
0.0001377
0.000346858
0.000148826
0.000402709
0.0001613
0.000465802
0.000175022
0.000535647
0.000189846
0.000611344
0.000205607
0.000691627
0.000222099
0.000774621
0.000239084
0.000857868
0.000256304
0.000938241
0.000273477
0.00101185
0.000290315
0.00107406
0.000306528
0.00111941
0.000321841
0.0011417
0.000336018