/*--------------------------------*- C++ -*----------------------------------*\
  =========                 |
  \\      /  F ield         | OpenFOAM: The Open Source CFD Toolbox
   \\    /   O peration     | Website:  https://openfoam.org
    \\  /    A nd           | Version:  7
     \\/     M anipulation  |
\*---------------------------------------------------------------------------*/
FoamFile
{
    version     2.0;
    format      ascii;
    class       volVectorField;
    location    "5";
    object      U;
}
// * * * * * * * * * * * * * * * * * * * * * * * * * * * * * * * * * * * * * //

dimensions      [0 1 -1 0 0 0 0];

internalField   nonuniform List<vector> 
8500
(
(-0.00890789 0.00679829 1.2217e-19)
(-0.00882358 0.00650347 1.0271e-19)
(-0.0174397 0.0143536 -1.35389e-19)
(-0.0086593 0.00616948 6.46572e-19)
(-0.0161959 0.0132956 -3.83844e-19)
(-0.0139658 0.0173106 -1.64892e-21)
(-0.00840499 0.00579479 -3.36271e-19)
(-0.0146697 0.01216 3.47562e-21)
(-0.0103917 0.0155709 2.78056e-19)
(-0.00805107 0.00537922 -1.17883e-19)
(-0.0128365 0.0109466 7.06562e-20)
(-0.00628499 0.0137643 1.02554e-19)
(0.0114951 0.0145947 -3.03535e-19)
(-0.00758855 0.0049238 6.05155e-19)
(-0.0106731 0.00965835 -1.5256e-19)
(-0.00161309 0.0118961 -2.21818e-19)
(0.0194035 0.01236 1.13976e-19)
(0.0524841 0.0120139 5.40921e-19)
(-0.00700886 0.00443065 -2.72704e-19)
(-0.00815732 0.00830135 4.17725e-20)
(0.00365451 0.00997628 -3.08332e-19)
(0.0281562 0.0101278 -4.3616e-19)
(0.0653949 0.00973817 -1.87864e-19)
(0.115384 0.00964477 -1.05328e-19)
(-0.00630388 0.00390294 -2.65914e-19)
(-0.00526805 0.00688457 5.86716e-19)
(0.00954675 0.00801941 3.66749e-19)
(0.0377835 0.00791847 1.64187e-19)
(0.0794188 0.00757678 -5.93414e-20)
(0.134361 0.00783911 -3.89827e-19)
(0.202328 0.00938764 5.46146e-20)
(-0.00546582 0.00334463 4.73074e-20)
(-0.00198541 0.00541953 -8.87878e-20)
(0.0160903 0.00604425 6.5335e-20)
(0.0483129 0.00575808 -1.57649e-19)
(0.0945749 0.00556248 3.34528e-19)
(0.154658 0.00630214 6.06942e-19)
(0.228091 0.0086447 1.8813e-19)
(0.313982 0.0130927 1.18126e-19)
(-0.00448718 0.00276049 -1.5931e-19)
(0.00170938 0.0039201 -3.71684e-19)
(0.0233097 0.00407335 -2.81656e-19)
(0.0597678 0.00367737 8.80318e-20)
(0.110877 0.00373334 -4.76849e-19)
(0.176267 0.00507743 -5.95237e-19)
(0.255245 0.00835116 -8.0198e-20)
(0.34661 0.0140095 -1.86356e-19)
(0.448469 0.0222745 -1.9051e-20)
(-0.00336072 0.00215589 -1.22851e-19)
(0.00583387 0.00240217 -9.59478e-20)
(0.0312269 0.00213252 4.33531e-19)
(0.0721673 0.00171129 -2.68605e-19)
(0.128331 0.00213193 6.95206e-19)
(0.199171 0.00421232 2.9375e-19)
(0.283734 0.00855492 -1.93538e-19)
(0.380474 0.0155504 -3.32222e-19)
(0.487069 0.0253249 -5.31553e-19)
(0.600346 0.0376986 5.65469e-19)
(-0.00207943 0.0015368 2.41516e-19)
(0.0104043 0.00088345 3.93928e-19)
(0.039861 0.000250427 1.59098e-20)
(0.0855252 -0.000101779 2.46417e-19)
(0.146936 0.000804158 -5.96628e-19)
(0.223339 0.0037567 1.44547e-19)
(0.313485 0.00930444 -9.45742e-20)
(0.415444 0.0177557 -1.86212e-20)
(0.526439 0.0291206 -1.81116e-19)
(0.642826 0.043074 -3.99481e-19)
(0.760251 0.0589583 1.98574e-19)
(-0.000636563 0.000909744 -4.34429e-20)
(0.0154354 -0.000616758 -5.94234e-19)
(0.0492278 -0.00154188 -4.58629e-19)
(0.0998502 -0.00172075 -2.92593e-20)
(0.166682 -0.000201711 1.0448e-19)
(0.248729 0.00376161 -2.02448e-19)
(0.344412 0.0106473 -1.04076e-21)
(0.451378 0.0206619 6.78558e-20)
(0.566378 0.0336792 1.00313e-19)
(0.685303 0.0492133 5.68257e-19)
(0.803442 0.0664421 2.3632e-19)
(0.915946 0.0842966 1.45064e-19)
(1.01841 0.101609 -1.94617e-19)
(0.000974331 0.000281725 7.71064e-20)
(0.0209404 -0.00207774 3.15036e-19)
(0.0593396 -0.00321139 1.97336e-19)
(0.115144 -0.00310253 -3.62331e-19)
(0.187549 -0.000836067 7.79989e-20)
(0.275289 0.00427791 4.76354e-19)
(0.376413 0.0126288 2.6127e-19)
(0.48812 0.0243005 3.4844e-20)
(0.606673 0.0390114 3.2112e-19)
(0.727524 0.0561014 -6.5569e-19)
(0.845669 0.0745834 -1.85042e-19)
(0.956198 0.093265 -7.93318e-20)
(1.05492 0.110923 4.70978e-19)
(1.1389 0.126487 -3.13058e-19)
(0.0027593 -0.000339756 -7.19158e-20)
(0.0269303 -0.00347753 -4.46274e-20)
(0.0702044 -0.00472349 -1.15423e-19)
(0.131402 -0.00420267 3.80353e-19)
(0.209509 -0.0010489 2.55224e-19)
(0.30295 0.00535518 -8.18576e-20)
(0.409373 0.0152905 -1.459e-20)
(0.525499 0.0286971 3.23899e-19)
(0.647106 0.0451199 -4.94588e-19)
(0.769244 0.0637157 3.03537e-19)
(0.886691 0.0833367 3.12006e-19)
(0.994583 0.102686 8.34691e-20)
(1.08904 0.120514 -1.67351e-19)
(1.16764 0.135803 2.44472e-19)
(1.22958 0.147893 2.02377e-19)
(0.00472393 -0.000946725 -1.11691e-19)
(0.0334141 -0.00479307 4.93009e-20)
(0.0818258 -0.00604237 3.25475e-19)
(0.148613 -0.00497599 5.42548e-21)
(0.232521 -0.000790662 -5.52509e-19)
(0.331634 0.00704058 -3.8028e-19)
(0.443163 0.0186692 -3.25918e-19)
(0.563336 0.0338704 -1.71737e-19)
(0.687457 0.0519997 6.54764e-19)
(0.810226 0.0720262 -2.9194e-20)
(0.926294 0.092652 8.91831e-20)
(1.03094 0.1125 1.46382e-19)
(1.1207 0.130323 -4.90063e-19)
(1.19371 0.145186 -3.93926e-19)
(1.2498 0.156556 1.05815e-19)
(1.29021 0.164309 -2.07138e-20)
(1.31716 0.168691 -4.23486e-19)
(0.00687317 -0.00153075 1.42106e-19)
(0.0403984 -0.00600032 1.81375e-19)
(0.0942027 -0.00713135 -3.36402e-19)
(0.166757 -0.00537717 -1.83432e-20)
(0.256535 -1.3104e-05 6.48831e-19)
(0.361249 0.00937803 4.07114e-19)
(0.477643 0.0227962 -1.64033e-19)
(0.601444 0.0398318 2.42252e-19)
(0.727508 0.0596381 -2.5969e-19)
(0.85025 0.0809972 -2.63235e-19)
(0.96429 0.102477 2.69497e-19)
(1.06516 0.122647 -5.46376e-19)
(1.14987 0.140296 6.95558e-20)
(1.21718 0.154593 2.65912e-19)
(1.26753 0.165151 -1.45873e-19)
(1.30264 0.171995 2.10037e-19)
(1.32507 0.175486 -2.54463e-19)
(1.33761 0.176068 4.24473e-20)
(0.00921129 -0.00208293 1.66506e-19)
(0.047887 -0.00707442 -5.51886e-19)
(0.107328 -0.0079532 8.87001e-20)
(0.185805 -0.00536131 -9.27899e-20)
(0.281492 0.00133002 -2.28663e-19)
(0.391693 0.0124073 -1.83415e-19)
(0.512663 0.0276969 1.65238e-19)
(0.639631 0.0465854 -7.59503e-19)
(0.767046 0.0680153 -1.7822e-19)
(0.889113 0.0905879 1.15643e-19)
(1.00052 0.112758 -1.46808e-19)
(1.09715 0.133072 4.23423e-19)
(1.17656 0.150385 2.98494e-19)
(1.23814 0.163993 1.04137e-19)
(1.28292 0.173664 5.79183e-19)
(1.31305 0.179567 -5.74712e-19)
(1.33133 0.182173 3.55309e-19)
(1.34066 0.182008 5.05427e-19)
(1.34372 0.180039 -3.62268e-19)
(1.34241 0.175416 1.01887e-19)
(0.0117417 -0.00259396 1.32529e-20)
(0.0558805 -0.00798984 -5.92537e-21)
(0.121191 -0.00847051 4.03888e-19)
(0.205723 -0.00488444 -5.82006e-20)
(0.307321 0.0032823 -2.54372e-20)
(0.422851 0.0161636 4.35853e-19)
(0.548066 0.0333899 5.02414e-19)
(0.677707 0.0541278 1.38327e-19)
(0.805868 0.0771052 2.97849e-19)
(0.926633 0.100754 -1.964e-19)
(1.03486 0.123441 -1.67372e-19)
(1.12686 0.143723 -3.42591e-21)
(1.20081 0.160549 -2.06697e-19)
(1.25671 0.17336 -7.53475e-21)
(1.29613 0.182084 -4.0726e-19)
(1.32161 0.18703 1.61734e-19)
(1.33614 0.188764 3.81008e-19)
(1.34263 0.187883 -1.92963e-19)
(1.34365 0.185323 2.22926e-19)
(1.34097 0.180345 4.03663e-19)
(0.0144667 -0.00305411 5.11406e-20)
(0.0643766 -0.00872052 -1.4167e-19)
(0.135772 -0.00864598 -8.34586e-21)
(0.226466 -0.003904 4.05444e-21)
(0.333942 0.00588407 -2.86076e-19)
(0.454602 0.0206765 -4.07389e-20)
(0.583688 0.039887 -5.18186e-19)
(0.715482 0.0624488 5.40268e-19)
(0.843783 0.0868758 2.79558e-19)
(0.962651 0.111448 2.50083e-20)
(1.06721 0.134475 -2.7854e-21)
(1.15429 0.154553 -1.48044e-19)
(1.22267 0.170753 8.76885e-20)
(1.27301 0.182675 2.41568e-19)
(1.30734 0.190408 -4.21689e-19)
(1.32853 0.194392 3.2281e-19)
(1.33967 0.195276 -3.91941e-19)
(1.34366 0.193709 -1.77823e-20)
(1.34293 0.19059 1.70379e-21)
(1.33909 0.185282 1.81568e-19)
(0.0173876 -0.00345332 -1.11979e-19)
(0.0733691 -0.00924007 -1.2803e-19)
(0.151049 -0.00844278 1.8373e-19)
(0.247983 -0.00237935 -8.19398e-20)
(0.361266 0.00917187 -2.58258e-20)
(0.486815 0.0259705 -2.53762e-19)
(0.619364 0.0471934 2.84833e-19)
(0.752771 0.0715314 -5.12764e-19)
(0.880617 0.0972908 4.70813e-20)
(0.997033 0.122622 7.96091e-20)
(1.0975 0.145808 -4.40085e-20)
(1.17943 0.16552 3.13731e-20)
(1.24224 0.180968 -3.67474e-19)
(1.28718 0.191926 -2.82183e-19)
(1.31672 0.198637 2.37892e-19)
(1.33396 0.201663 -7.71154e-20)
(1.34208 0.201722 -4.66021e-19)
(1.34388 0.199501 -8.9843e-20)
(1.34164 0.195854 -3.95458e-19)
(1.33685 0.190237 -4.9228e-19)
(0.0205046 -0.00378121 -2.65274e-20)
(0.0828485 -0.00952197 1.89218e-19)
(0.166992 -0.00782487 1.37657e-19)
(0.270213 -0.000272169 4.04476e-19)
(0.389195 0.0131781 -1.43491e-20)
(0.519354 0.0320636 2.1718e-19)
(0.654927 0.0553074 -4.6186e-19)
(0.789397 0.0813527 1.63165e-19)
(0.916213 0.10831 -1.37423e-19)
(1.02967 0.134227 2.00024e-19)
(1.1257 0.157395 4.96159e-20)
(1.20232 0.176585 1.18035e-19)
(1.25961 0.191172 3.41206e-19)
(1.29936 0.201103 4.27778e-20)
(1.32442 0.206775 -2.15063e-19)
(1.33807 0.208855 3.58069e-19)
(1.34349 0.208117 1.27459e-19)
(1.3434 0.205274 -6.06555e-20)
(1.33988 0.201127 3.71052e-19)
(1.33428 0.195219 2.47845e-19)
(0.0238164 -0.00402719 8.6843e-20)
(0.0928011 -0.0095398 9.80947e-20)
(0.183564 -0.00675741 -2.43536e-19)
(0.29309 0.00245305 -5.60675e-20)
(0.417625 0.0179304 7.24341e-20)
(0.552079 0.0389683 -4.26963e-20)
(0.690213 0.064221 2.61825e-19)
(0.825196 0.0918846 -8.3412e-20)
(0.95043 0.119891 -1.03029e-19)
(1.06048 0.146216 -3.53391e-19)
(1.15178 0.16919 -2.27038e-19)
(1.22301 0.187717 -2.11301e-19)
(1.2749 0.201347 -1.73319e-19)
(1.30971 0.210205 6.68301e-20)
(1.33061 0.214828 -1.31263e-19)
(1.34101 0.21598 1.5847e-20)
(1.34404 0.214476 2.53397e-19)
(1.34231 0.211039 2.7121e-19)
(1.33771 0.206417 1.98617e-20)
(1.33143 0.200234 1.7345e-19)
(0.0273203 -0.00418053 4.46512e-20)
(0.10321 -0.00926746 1.67221e-19)
(0.200724 -0.00520708 1.32867e-19)
(0.31654 0.00582861 -2.21724e-19)
(0.446447 0.0234516 2.06029e-19)
(0.584847 0.0466905 -6.70687e-20)
(0.725062 0.0739202 -1.43823e-19)
(0.860013 0.103094 3.46888e-19)
(0.983151 0.131989 -8.76844e-20)
(1.08939 0.158541 -3.17007e-21)
(1.17576 0.181154 2.43736e-19)
(1.24159 0.198888 -2.20464e-19)
(1.28821 0.21148 9.75701e-20)
(1.31835 0.219229 -2.47675e-19)
(1.33542 0.222805 4.212e-19)
(1.34289 0.223051 -3.21622e-19)
(1.34384 0.220809 -1.95682e-19)
(1.34069 0.216808 -2.13249e-21)
(1.33517 0.211731 -2.92576e-19)
(1.32833 0.205286 -3.56026e-21)
(0.0310122 -0.00423045 -2.01297e-19)
(0.114053 -0.00867947 -7.44693e-20)
(0.218425 -0.00314247 -2.4723e-19)
(0.340482 0.00988325 -1.372e-19)
(0.475544 0.0297593 -7.10074e-20)
(0.617517 0.0552304 -3.42256e-20)
(0.75932 0.0843852 1.5875e-19)
(0.893709 0.114946 -8.7296e-20)
(1.01427 0.14456 -4.28321e-20)
(1.11637 0.171157 1.09113e-19)
(1.19765 0.193251 -1.49026e-19)
(1.25812 0.210075 1.91533e-19)
(1.29967 0.221562 1.85733e-19)
(1.32543 0.228177 4.17227e-20)
(1.33899 0.230714 -1.19893e-19)
(1.34385 0.230078 -2.87063e-20)
(1.34296 0.227129 -1.67928e-19)
(1.3386 0.222587 -7.21894e-20)
(1.33232 0.217074 1.19563e-19)
(1.32501 0.210376 -2.08126e-19)
(0.0348866 -0.00416623 6.65808e-20)
(0.125305 -0.00775122 -1.13676e-19)
(0.236614 -0.000534437 1.93838e-19)
(0.36483 0.0146418 9.10529e-20)
(0.5048 0.0368658 -1.31833e-19)
(0.649944 0.0645821 1.63596e-19)
(0.79284 0.0955911 4.1021e-20)
(0.926157 0.1274 -7.48312e-20)
(1.04372 0.157556 2.02395e-19)
(1.1414 0.184022 6.08246e-20)
(1.2175 0.205447 1.16719e-19)
(1.27269 0.221259 -1.21427e-19)
(1.3094 0.231585 -8.13918e-20)
(1.33107 0.237054 1.74727e-19)
(1.34144 0.238565 -5.03458e-20)
(1.34397 0.237073 2.92051e-19)
(1.34149 0.233444 1.56015e-19)
(1.3361 0.228383 -2.64056e-20)
(1.32917 0.222449 8.74944e-20)
(1.32148 0.215506 3.38694e-19)
(0.0389363 -0.0039773 -3.30046e-20)
(0.136938 -0.00645923 1.855e-20)
(0.255233 0.00264352 -1.76983e-19)
(0.389495 0.0201246 1.14376e-19)
(0.534091 0.0447777 1.07569e-19)
(0.681991 0.0747341 -1.54458e-19)
(0.825486 0.107509 7.19655e-20)
(0.957249 0.140414 -1.4134e-19)
(1.07143 0.170933 -2.02974e-19)
(1.16447 0.197096 7.4197e-20)
(1.23536 0.217715 1.38071e-20)
(1.28541 0.232424 1.17737e-19)
(1.31751 0.241547 8.06016e-20)
(1.3354 0.245864 -5.49174e-20)
(1.34289 0.246365 -1.16087e-20)
(1.34335 0.244045 -4.44211e-20)
(1.33949 0.239762 -2.34658e-19)
(1.33323 0.234201 1.95241e-20)
(1.32577 0.227858 -1.59042e-19)
(1.31776 0.220673 1.42215e-21)
(0.0431527 -0.00365339 -3.70912e-20)
(0.148919 -0.00478148 -4.77185e-20)
(0.274219 0.00641496 1.87128e-19)
(0.414381 0.0263479 -2.33836e-20)
(0.563298 0.0534965 9.62174e-22)
(0.713522 0.0856692 -1.05019e-19)
(0.85713 0.120104 -1.86284e-20)
(0.986889 0.153945 7.58354e-20)
(1.09735 0.184647 2.62227e-19)
(1.18559 0.210341 -8.48876e-20)
(1.2513 0.230028 1.4876e-20)
(1.29636 0.243557 4.72136e-20)
(1.32413 0.251445 -9.30357e-20)
(1.33853 0.254611 -6.07315e-20)
(1.34342 0.254124 1.62971e-20)
(1.34207 0.251 5.8187e-20)
(1.33702 0.246087 1.4991e-19)
(1.33002 0.240041 -4.02221e-21)
(1.32212 0.233298 5.85041e-20)
(1.31385 0.225875 4.09119e-20)
(0.0475256 -0.00318462 6.4624e-20)
(0.161211 -0.0026976 1.33432e-19)
(0.293506 0.0108001 9.26478e-20)
(0.43939 0.0333229 -5.10396e-20)
(0.592299 0.0630177 1.90887e-19)
(0.744408 0.0973655 1.13957e-19)
(0.887658 0.133341 -1.72366e-19)
(1.015 0.167949 -6.07654e-20)
(1.12147 0.198654 1.17165e-21)
(1.2048 0.223722 -5.15752e-20)
(1.26537 0.242363 -1.50856e-19)
(1.30566 0.254648 2.52858e-20)
(1.32936 0.261278 2.95367e-22)
(1.34057 0.263301 -1.63397e-19)
(1.34312 0.261847 7.57373e-20)
(1.34019 0.257945 -4.12338e-20)
(1.33412 0.252424 -1.84701e-19)
(1.3265 0.245906 9.0524e-20)
(1.31824 0.23877 -1.94799e-19)
(1.30975 0.231109 -1.19389e-19)
(0.0520434 -0.00256163 -2.26663e-20)
(0.173774 -0.000189238 -5.72942e-20)
(0.313024 0.0158158 -9.63596e-20)
(0.464425 0.0410561 -4.68395e-21)
(0.620974 0.0733317 -8.87712e-21)
(0.774526 0.109796 -1.07831e-19)
(0.916967 0.147178 2.49195e-20)
(1.04151 0.18238 2.37041e-20)
(1.14376 0.212912 -4.97005e-20)
(1.22213 0.237208 4.14659e-21)
(1.27767 0.254701 7.94772e-20)
(1.31339 0.265688 -1.06554e-20)
(1.3333 0.271047 6.20612e-20)
(1.3416 0.271938 2.7945e-20)
(1.34208 0.26954 -1.56315e-19)
(1.33776 0.264884 1.20323e-20)
(1.33083 0.258773 9.78889e-20)
(1.3227 0.251793 -2.37676e-20)
(1.31414 0.24427 4.45922e-21)
(1.30548 0.236368 -1.68212e-20)
(0.056693 -0.00177568 -2.079e-20)
(0.186567 0.0027598 -2.04113e-20)
(0.332698 0.0214749 -3.64753e-20)
(0.489382 0.0495487 -2.42355e-20)
(0.649205 0.0844236 -6.36109e-20)
(0.803762 0.12293 7.45441e-20)
(0.944964 0.161575 1.49176e-19)
(1.06638 0.197194 5.26095e-20)
(1.16422 0.227382 2.72292e-20)
(1.23761 0.250767 -6.55461e-20)
(1.28827 0.267024 -6.42642e-22)
(1.31965 0.27667 4.3434e-20)
(1.33605 0.280752 -5.6463e-20)
(1.34171 0.280527 2.19264e-20)
(1.34035 0.277208 7.42945e-20)
(1.33483 0.27182 -2.6102e-20)
(1.32717 0.265134 -4.67943e-20)
(1.31862 0.257701 -4.39816e-20)
(1.30982 0.249793 1.59084e-19)
(1.30103 0.241649 5.70713e-20)
(0.0614601 -0.00081878 -3.72018e-20)
(0.199545 0.00616326 4.52052e-20)
(0.352454 0.0277864 -1.03892e-20)
(0.514163 0.0587974 3.28837e-20)
(0.676881 0.0962734 -2.9722e-20)
(0.832009 0.136731 -1.83734e-20)
(0.97157 0.176487 -7.25961e-20)
(1.08957 0.212344 8.68394e-21)
(1.18287 0.242024 2.1054e-20)
(1.25132 0.264373 4.75696e-20)
(1.29724 0.279316 -1.87083e-20)
(1.32454 0.287589 -1.49083e-20)
(1.33769 0.290393 1.3833e-20)
(1.34098 0.289068 -2.4683e-20)
(1.33799 0.284853 5.68292e-20)
(1.33145 0.278752 3.82046e-20)
(1.32318 0.271506 -6.64904e-21)
(1.31428 0.263624 -4.41676e-21)
(1.3053 0.255334 -4.28782e-20)
(1.2964 0.246944 -5.48836e-20)
(0.0663289 0.000316234 8.02076e-21)
(0.212658 0.0100323 -1.41378e-20)
(0.372214 0.0347551 9.71494e-21)
(0.538666 0.0687935 -1.34679e-20)
(0.703891 0.108856 -5.21223e-20)
(0.859169 0.151162 2.43437e-20)
(0.996719 0.191867 1.19239e-20)
(1.11105 0.227788 -5.74078e-20)
(1.19972 0.256801 -3.65224e-20)
(1.26329 0.278 -3.52897e-21)
(1.30467 0.291562 -5.20128e-20)
(1.32813 0.298438 5.43284e-20)
(1.33831 0.299969 -1.03651e-22)
(1.33946 0.297565 -7.41597e-21)
(1.33506 0.292474 -1.43714e-20)
(1.32763 0.285681 7.15333e-21)
(1.31886 0.277886 5.03111e-21)
(1.30969 0.269559 -2.04707e-21)
(1.30057 0.260887 -1.57533e-20)
(1.2916 0.252246 1.9652e-20)
(0.0712827 0.00163557 2.68605e-21)
(0.225859 0.0143752 9.32396e-21)
(0.3919 0.0423815 5.23563e-21)
(0.562793 0.0795235 -2.45683e-21)
(0.730134 0.122143 3.44252e-20)
(0.885154 0.166181 -7.74386e-21)
(1.02035 0.20767 1.24159e-20)
(1.13081 0.243479 2.77717e-20)
(1.2148 0.271678 -5.06073e-21)
(1.27359 0.291623 1.27202e-21)
(1.31064 0.30375 1.42946e-20)
(1.33052 0.309212 -7.70488e-21)
(1.33798 0.30948 1.01388e-20)
(1.33723 0.306017 1.84091e-21)
(1.33159 0.300073 -1.96385e-20)
(1.32342 0.292602 9.59148e-22)
(1.31423 0.284267 2.61424e-20)
(1.30485 0.275498 -5.54804e-21)
(1.29564 0.266444 8.30066e-21)
(1.28661 0.257547 -9.53647e-21)
(0.0763039 0.00314444 1.10608e-21)
(0.239095 0.0191975 1.37856e-20)
(0.411431 0.0506621 7.49327e-21)
(0.586448 0.0909693 -1.53414e-21)
(0.755511 0.136101 3.18809e-20)
(0.909885 0.181744 -9.08065e-21)
(1.04243 0.223847 1.71589e-20)
(1.14885 0.259375 2.32498e-20)
(1.22815 0.286622 -4.84194e-21)
(1.28229 0.30522 1.09868e-21)
(1.31521 0.315866 1.62673e-20)
(1.33177 0.319906 -6.6315e-21)
(1.33676 0.318923 6.63916e-21)
(1.33432 0.314423 -1.65362e-21)
(1.32761 0.307646 -1.6062e-20)
(1.31882 0.299512 -4.77914e-22)
(1.3093 0.290646 2.59887e-20)
(1.29977 0.281435 -5.1792e-21)
(1.2905 0.271999 9.81975e-21)
(1.28144 0.26284 -1.0767e-20)
(0.0813739 0.00484697 9.64422e-21)
(0.252316 0.0245015 -1.77316e-20)
(0.430731 0.0595888 9.09938e-21)
(0.609538 0.103108 -7.38108e-21)
(0.779934 0.150691 -5.05186e-20)
(0.933293 0.197804 2.06856e-20)
(1.06291 0.240351 9.61686e-21)
(1.16516 0.275434 -6.5717e-20)
(1.23981 0.301599 -2.78592e-20)
(1.28945 0.31877 -2.22718e-23)
(1.31847 0.327899 -4.38858e-20)
(1.33195 0.330514 3.70449e-20)
(1.33472 0.328296 -8.41817e-21)
(1.33079 0.32278 5.35908e-21)
(1.32316 0.315189 -2.11657e-20)
(1.31385 0.306405 1.62136e-20)
(1.30408 0.297013 1.05286e-20)
(1.29444 0.287361 -1.84833e-21)
(1.28515 0.277541 -2.11818e-20)
(1.27608 0.268115 1.98017e-20)
(0.0864728 0.00674608 -2.08679e-20)
(0.265467 0.0302866 -9.55941e-21)
(0.449721 0.0691495 -1.40008e-20)
(0.631972 0.115912 4.8426e-20)
(0.803317 0.165875 1.67592e-22)
(0.955316 0.214312 -2.6066e-20)
(1.08177 0.257133 -1.07041e-19)
(1.17977 0.291613 1.04393e-20)
(1.24982 0.316579 1.22423e-20)
(1.29512 0.332252 5.51766e-20)
(1.32048 0.339837 8.23712e-21)
(1.33113 0.341029 -4.73872e-20)
(1.3319 0.337595 4.50814e-20)
(1.32667 0.331084 -1.83545e-20)
(1.31826 0.322697 7.01499e-20)
(1.30854 0.313275 -6.40153e-21)
(1.29858 0.303361 3.75156e-21)
(1.28888 0.293267 3.23897e-21)
(1.2796 0.283063 -5.65566e-20)
(1.27054 0.273364 -3.48511e-20)
(0.0915806 0.00884348 -7.93613e-21)
(0.278496 0.0365488 -4.6015e-20)
(0.468324 0.0793275 3.65142e-20)
(0.653667 0.12935 -4.6601e-20)
(0.825584 0.181606 -8.45306e-20)
(0.975905 0.231219 7.41922e-20)
(1.099 0.274145 1.22932e-19)
(1.19269 0.307872 4.42583e-20)
(1.25822 0.331532 3.09704e-20)
(1.29938 0.345647 -8.95701e-20)
(1.3213 0.351667 6.91159e-20)
(1.32938 0.351445 8.13752e-21)
(1.32835 0.346814 -8.90978e-20)
(1.32199 0.33933 3.50198e-20)
(1.31293 0.330163 1.26172e-19)
(1.30288 0.320112 -8.73908e-20)
(1.29279 0.309681 -2.52898e-20)
(1.28308 0.299144 -2.46995e-20)
(1.27383 0.288554 1.15175e-19)
(1.26481 0.278576 6.73668e-20)
(0.0966767 0.0111396 5.46435e-20)
(0.291348 0.0432812 -9.35919e-20)
(0.486466 0.0901024 -1.36854e-19)
(0.674542 0.143387 6.19167e-21)
(0.846668 0.19784 -2.51701e-20)
(0.995017 0.248474 -1.01959e-19)
(1.11458 0.291339 -1.71592e-20)
(1.20395 0.324172 5.30727e-20)
(1.26507 0.346427 -8.60046e-20)
(1.30227 0.358935 7.08426e-20)
(1.32101 0.36338 8.30322e-20)
(1.32673 0.361753 -5.26034e-20)
(1.32412 0.355947 2.16241e-20)
(1.31678 0.34751 1.11018e-19)
(1.30719 0.33758 -1.49408e-19)
(1.2969 0.326908 2.65201e-20)
(1.28673 0.315963 7.28171e-20)
(1.27704 0.304982 -2.22506e-20)
(1.26785 0.294004 -2.37574e-20)
(1.25889 0.283742 -4.07482e-21)
(0.10174 0.0136336 8.07908e-20)
(0.303971 0.0504734 1.50702e-19)
(0.504075 0.10145 8.02852e-20)
(0.694521 0.157984 -9.62733e-20)
(0.866507 0.214526 2.5248e-19)
(1.01262 0.266024 3.91061e-20)
(1.12852 0.308666 -1.08685e-19)
(1.21357 0.340473 -7.88502e-20)
(1.27042 0.361238 -6.37685e-20)
(1.30387 0.372098 2.12769e-20)
(1.31965 0.374961 -7.26935e-20)
(1.32324 0.371946 2.46534e-21)
(1.31924 0.364986 -5.01939e-20)
(1.31107 0.355617 -6.90579e-20)
(1.30105 0.344936 -1.19101e-20)
(1.29058 0.333653 -7.5034e-21)
(1.28039 0.322195 -1.34629e-19)
(1.27075 0.310769 1.02933e-19)
(1.26166 0.299404 -1.57881e-19)
(1.25277 0.288853 -9.43333e-20)
(0.10675 0.0163232 -9.80905e-20)
(0.316313 0.0581122 -4.05095e-20)
(0.521082 0.113341 1.81235e-19)
(0.713536 0.173098 4.61974e-20)
(0.885047 0.231613 -1.59078e-19)
(1.02868 0.283817 -9.28972e-20)
(1.14082 0.326079 -3.12201e-20)
(1.22159 0.356738 2.02582e-19)
(1.27431 0.375936 1.45779e-19)
(1.30423 0.385116 -5.04706e-20)
(1.31728 0.386398 -2.96402e-20)
(1.31896 0.382013 7.49056e-20)
(1.31374 0.373921 -8.25976e-20)
(1.30488 0.363641 3.84879e-20)
(1.29452 0.352224 1.7071e-20)
(1.28394 0.340334 -2.14323e-20)
(1.27378 0.328368 1.64296e-19)
(1.26423 0.316494 -6.9987e-20)
(1.25526 0.30474 1.42729e-19)
(1.24646 0.293897 -5.17901e-20)
(0.111686 0.0192051 -5.52723e-20)
(0.328324 0.0661814 -1.02408e-19)
(0.537422 0.125745 -1.62958e-19)
(0.731523 0.188684 9.89445e-20)
(0.902242 0.249049 5.47014e-20)
(1.04319 0.301799 -7.85548e-20)
(1.15149 0.343532 1.31054e-19)
(1.22805 0.372929 -2.03489e-19)
(1.27679 0.390494 -2.17949e-19)
(1.3034 0.397972 1.32432e-19)
(1.31395 0.397679 4.98691e-20)
(1.31392 0.391943 -5.58077e-20)
(1.30765 0.382744 8.51767e-20)
(1.29822 0.371571 6.77104e-20)
(1.28762 0.35943 -5.00861e-20)
(1.27699 0.346942 -1.73305e-20)
(1.26688 0.334467 -1.25623e-19)
(1.25746 0.322146 2.62394e-20)
(1.24863 0.310004 -1.0952e-19)
(1.23996 0.298864 -1.84279e-20)
(0.116526 0.0222745 4.59328e-20)
(0.339954 0.0746617 -8.0564e-20)
(0.553033 0.138626 1.47613e-19)
(0.748423 0.204694 2.51085e-19)
(0.918053 0.266778 -3.62574e-19)
(1.05613 0.319918 3.20932e-19)
(1.16056 0.360977 8.6792e-20)
(1.23298 0.38901 -1.26703e-19)
(1.27793 0.404887 1.50663e-19)
(1.30144 0.410646 8.98e-20)
(1.30971 0.408789 1.12189e-19)
(1.30816 0.401725 -1.95601e-19)
(1.30099 0.391443 -4.09652e-20)
(1.29111 0.379396 9.83625e-20)
(1.28034 0.366543 3.773e-20)
(1.26972 0.353462 1.76368e-19)
(1.25972 0.340482 2.23589e-19)
(1.25045 0.327713 -5.54604e-20)
(1.24179 0.315182 9.7918e-20)
(1.23326 0.303743 1.12887e-19)
(0.12125 0.0255252 -1.33964e-20)
(0.351156 0.0835311 -1.8734e-19)
(0.567857 0.151947 -2.58109e-19)
(0.764186 0.221078 -3.3851e-19)
(0.93245 0.284746 -3.34467e-20)
(1.06751 0.338119 1.25903e-19)
(1.16803 0.37837 -2.40453e-20)
(1.23642 0.404945 4.25608e-20)
(1.27776 0.419088 -6.65956e-20)
(1.29839 0.42312 1.12684e-19)
(1.30459 0.419713 -1.7266e-19)
(1.30172 0.411347 2.27237e-19)
(1.29379 0.400005 1.31451e-19)
(1.28356 0.387103 6.07747e-20)
(1.2727 0.373551 -9.10624e-20)
(1.26214 0.359883 -9.7689e-20)
(1.25228 0.346399 -9.42708e-20)
(1.24319 0.333182 6.98592e-21)
(1.23473 0.320262 1.28062e-19)
(1.22637 0.308523 -1.37358e-19)
(0.125838 0.0289501 -2.38326e-20)
(0.361884 0.0927651 1.45757e-19)
(0.581842 0.165667 1.84408e-19)
(0.778766 0.237783 -2.90815e-20)
(0.945406 0.302896 8.6976e-20)
(1.07731 0.356349 2.37418e-20)
(1.17394 0.395665 -1.28433e-19)
(1.23842 0.420699 1.02538e-19)
(1.27634 0.433071 9.67932e-20)
(1.29431 0.435374 -1.69386e-19)
(1.29865 0.430438 2.75042e-19)
(1.29462 0.420795 -2.3077e-19)
(1.28607 0.408418 1.34324e-19)
(1.27559 0.394679 -1.97207e-19)
(1.26471 0.380438 2.92915e-19)
(1.25425 0.36619 -1.87004e-19)
(1.24457 0.352205 -5.53385e-20)
(1.23569 0.338541 -7.52083e-20)
(1.22746 0.325231 -1.60383e-19)
(1.21928 0.31319 2.37448e-21)
(0.130271 0.0325405 1.70946e-19)
(0.372097 0.102337 1.82669e-19)
(0.594937 0.179741 -2.65173e-19)
(0.792125 0.254756 -1.62504e-19)
(0.956903 0.321171 2.41889e-19)
(1.08555 0.374556 -9.68659e-20)
(1.17831 0.412818 1.42969e-19)
(1.23901 0.436239 6.1945e-20)
(1.27371 0.44681 -1.44947e-19)
(1.28923 0.44739 -3.62078e-19)
(1.29191 0.440946 -6.46726e-20)
(1.28689 0.430054 -1.37569e-19)
(1.27785 0.416668 -2.05406e-19)
(1.2672 0.40211 1.67472e-20)
(1.25636 0.387192 -2.11521e-20)
(1.24605 0.37237 -2.12821e-20)
(1.23658 0.357887 1.73106e-19)
(1.22794 0.343777 1.26201e-19)
(1.21996 0.330076 1.3631e-20)
(1.21199 0.317737 7.61098e-20)
(0.13453 0.0362868 -4.12594e-20)
(0.381755 0.112216 3.24632e-19)
(0.6071 0.194126 1.26602e-19)
(0.804228 0.271942 2.59e-19)
(0.96693 0.339514 8.48842e-20)
(1.09223 0.392688 3.2559e-20)
(1.18119 0.429785 -2.08367e-19)
(1.23825 0.45153 -6.76071e-20)
(1.26992 0.460281 3.33883e-20)
(1.2832 0.459147 2.69272e-19)
(1.28441 0.451222 -8.87079e-20)
(1.27855 0.43911 1.10444e-19)
(1.26914 0.424739 2.36559e-19)
(1.25842 0.409381 5.4331e-20)
(1.24767 0.393797 -4.75966e-20)
(1.23755 0.378408 6.50037e-20)
(1.22832 0.363432 1.25348e-19)
(1.21995 0.348878 5.83513e-20)
(1.21223 0.33479 1.49393e-19)
(1.20447 0.322157 1.17163e-19)
(0.138596 0.0401784 -1.07876e-19)
(0.390819 0.122373 -1.66272e-19)
(0.618291 0.208772 1.06335e-19)
(0.815048 0.289283 3.60414e-20)
(0.97548 0.357868 7.21927e-20)
(1.09738 0.410692 -2.95613e-19)
(1.18259 0.446525 1.08056e-19)
(1.23618 0.466539 -2.34808e-19)
(1.26502 0.473459 -1.31507e-19)
(1.27627 0.470626 1.54209e-19)
(1.27619 0.461248 -1.64741e-20)
(1.26964 0.447948 1.02389e-20)
(1.25996 0.432616 -2.88231e-19)
(1.24923 0.416476 -1.1745e-19)
(1.23864 0.40024 9.84111e-20)
(1.22875 0.384291 -1.72899e-19)
(1.21979 0.368827 -9.36018e-20)
(1.21172 0.353835 -9.47994e-20)
(1.20429 0.339375 -1.68233e-19)
(1.19671 0.326444 -3.98257e-19)
(0.142453 0.0442033 6.28145e-20)
(0.399256 0.132773 -7.83825e-20)
(0.628475 0.223633 -4.31253e-19)
(0.824566 0.306724 2.3418e-19)
(0.982553 0.376174 -2.93152e-19)
(1.10102 0.428518 -4.20769e-20)
(1.18256 0.462994 -4.08142e-19)
(1.23284 0.481234 4.37423e-19)
(1.25906 0.486317 2.51349e-19)
(1.26847 0.481808 -1.47822e-20)
(1.26727 0.471008 9.14362e-20)
(1.26017 0.45655 -1.16397e-19)
(1.25032 0.440284 -9.63623e-21)
(1.23967 0.42338 5.46491e-20)
(1.22927 0.406503 -5.73494e-20)
(1.21965 0.390004 1.09608e-19)
(1.21099 0.374056 -1.47791e-19)
(1.20324 0.358631 -1.32983e-19)
(1.19613 0.343826 7.58892e-20)
(1.18879 0.330582 1.06011e-19)
(0.146085 0.048349 1.43809e-19)
(0.407036 0.143382 1.45425e-19)
(0.637623 0.238656 1.12945e-19)
(0.832764 0.324205 -2.79716e-21)
(0.988154 0.394378 -7.63693e-20)
(1.10317 0.446115 5.19208e-19)
(1.18114 0.479153 2.96228e-19)
(1.22827 0.495583 2.02687e-19)
(1.25207 0.498832 2.89885e-19)
(1.25983 0.492671 3.6324e-20)
(1.25769 0.480483 -2.45343e-19)
(1.25016 0.464899 -2.70977e-20)
(1.24024 0.447726 -5.46763e-20)
(1.22972 0.430078 -1.792e-19)
(1.21957 0.412573 -6.81512e-20)
(1.21026 0.395532 -9.59791e-20)
(1.20192 0.379109 3.03121e-19)
(1.19452 0.363253 -4.31201e-21)
(1.18775 0.348107 8.7901e-20)
(1.18072 0.334568 7.22521e-20)
(0.149477 0.0526017 -4.82842e-20)
(0.41413 0.154163 -8.45858e-20)
(0.645711 0.25379 -1.85286e-19)
(0.839633 0.34167 -3.13501e-20)
(0.992291 0.412421 -3.12968e-19)
(1.10385 0.463434 -2.25836e-19)
(1.17836 0.494961 7.56399e-20)
(1.22252 0.509555 -5.54062e-19)
(1.24409 0.51098 -3.02463e-19)
(1.2504 0.503195 7.43013e-20)
(1.24746 0.489655 -3.94593e-20)
(1.23963 0.472979 2.25038e-19)
(1.22973 0.454925 3.09893e-19)
(1.21941 0.436551 7.8986e-20)
(1.20955 0.418433 2.17217e-19)
(1.20058 0.400859 -1.15582e-19)
(1.1926 0.383968 1.61588e-19)
(1.18558 0.367692 9.09895e-20)
(1.17917 0.352206 8.03448e-20)
(1.17247 0.338377 -1.57627e-19)
(0.152614 0.0569471 7.2705e-20)
(0.420514 0.16508 -8.9756e-21)
(0.652718 0.268985 -2.87801e-19)
(0.845169 0.35906 -2.21157e-22)
(0.99498 0.43025 7.0438e-19)
(1.10311 0.480427 1.42382e-19)
(1.17428 0.51038 1.08498e-19)
(1.21565 0.52312 3.21519e-19)
(1.23518 0.522734 -2.623e-19)
(1.24021 0.51336 -2.84096e-19)
(1.23663 0.498506 -3.65841e-21)
(1.22861 0.480772 -2.06144e-19)
(1.2188 0.461864 -1.15607e-19)
(1.20874 0.442785 3.15054e-19)
(1.19922 0.424067 -8.34636e-20)
(1.19061 0.405972 5.22151e-21)
(1.18302 0.388619 -1.1705e-19)
(1.17639 0.371931 -1.813e-19)
(1.17037 0.356113 1.18655e-20)
(1.16404 0.342 1.80881e-19)
(0.155486 0.0613701 -3.50257e-19)
(0.426167 0.176092 2.20042e-19)
(0.65863 0.284185 4.95096e-19)
(0.849371 0.376319 1.57004e-19)
(0.996239 0.447808 -8.31325e-19)
(1.10097 0.497048 -3.46513e-19)
(1.16892 0.525371 -2.74088e-19)
(1.20768 0.536247 -1.00893e-19)
(1.22536 0.534072 3.45235e-19)
(1.22929 0.523145 3.71821e-20)
(1.2252 0.507017 -7.47617e-20)
(1.2171 0.48826 1.36059e-19)
(1.20747 0.468526 2.03105e-20)
(1.19773 0.448762 -3.77338e-19)
(1.18858 0.42946 1.15554e-19)
(1.18036 0.410854 1.55523e-19)
(1.17318 0.39305 7.6263e-20)
(1.16698 0.375958 1.04335e-19)
(1.16138 0.359815 -1.87111e-19)
(1.15542 0.345426 -9.46603e-20)
(0.158079 0.065855 -2.41266e-20)
(0.431072 0.187161 1.11275e-19)
(0.663437 0.299339 5.64599e-20)
(0.852244 0.393388 1.68187e-19)
(0.99609 0.465043 4.64656e-19)
(1.09747 0.51325 -3.06172e-19)
(1.16234 0.539898 -1.93386e-20)
(1.19866 0.548907 3.00334e-19)
(1.21469 0.54497 -3.68546e-19)
(1.21768 0.532529 1.21377e-19)
(1.21322 0.515168 3.16606e-19)
(1.20513 0.495424 7.2878e-20)
(1.19575 0.474892 -1.61301e-19)
(1.18637 0.454466 2.73393e-19)
(1.17764 0.434595 -3.23034e-19)
(1.16984 0.415493 1.12986e-20)
(1.16309 0.397247 -7.74109e-20)
(1.15734 0.37976 1.39945e-19)
(1.15218 0.363302 1.2501e-19)
(1.14662 0.348646 1.1639e-19)
(0.160386 0.0703856 4.54851e-20)
(0.435215 0.198247 1.78599e-19)
(0.667132 0.314394 1.78317e-19)
(0.853799 0.410212 -1.13495e-19)
(0.99456 0.481903 1.02301e-20)
(1.09264 0.528989 2.8447e-19)
(1.15458 0.553924 5.09981e-19)
(1.18865 0.561071 -5.21919e-20)
(1.20319 0.555404 4.9973e-20)
(1.2054 0.541493 -1.52117e-19)
(1.2007 0.522941 -3.25319e-19)
(1.19272 0.502248 5.29703e-20)
(1.18366 0.480947 1.88656e-19)
(1.17469 0.459881 -3.87361e-20)
(1.1664 0.439459 -3.32644e-20)
(1.15906 0.419872 -1.30852e-19)
(1.15276 0.401196 -2.33227e-20)
(1.14748 0.383324 -5.27972e-20)
(1.14278 0.366562 -4.43488e-20)
(1.13765 0.351651 -1.10889e-19)
(0.162396 0.0749452 -1.57746e-19)