/*--------------------------------*- C++ -*----------------------------------*\
  =========                 |
  \\      /  F ield         | OpenFOAM: The Open Source CFD Toolbox
   \\    /   O peration     | Website:  https://openfoam.org
    \\  /    A nd           | Version:  7
     \\/     M anipulation  |
\*---------------------------------------------------------------------------*/
FoamFile
{
    version     2.0;
    format      ascii;
    class       volScalarField;
    location    "35";
    object      p;
}
// * * * * * * * * * * * * * * * * * * * * * * * * * * * * * * * * * * * * * //

dimensions      [0 2 -2 0 0 0 0];

internalField   nonuniform List<scalar> 
13100
(
-0.291955
-0.296031
-0.298238
-0.299522
-0.300141
-0.300093
-0.299437
-0.298232
-0.29653
-0.294379
-0.291825
-0.288915
-0.285695
-0.282169
-0.27842
-0.292447
-0.29647
-0.298637
-0.299886
-0.300471
-0.300391
-0.299705
-0.298472
-0.296743
-0.294566
-0.291988
-0.289057
-0.28582
-0.282268
-0.278485
-0.29343
-0.297345
-0.299434
-0.300612
-0.301129
-0.300986
-0.30024
-0.29895
-0.297167
-0.294939
-0.292313
-0.289338
-0.286067
-0.282465
-0.278613
-0.294899
-0.298653
-0.300625
-0.301697
-0.302113
-0.301875
-0.301039
-0.299663
-0.297799
-0.295494
-0.292795
-0.289754
-0.28643
-0.282754
-0.278795
-0.296847
-0.300388
-0.302204
-0.303136
-0.303418
-0.303052
-0.302096
-0.300607
-0.298634
-0.296225
-0.293428
-0.290297
-0.286904
-0.283126
-0.279021
-0.299265
-0.302544
-0.304167
-0.304924
-0.305038
-0.304514
-0.303407
-0.301775
-0.299665
-0.297126
-0.294205
-0.290961
-0.287477
-0.283573
-0.279265
-0.302145
-0.305112
-0.306506
-0.307054
-0.306967
-0.306252
-0.304965
-0.30316
-0.300886
-0.29819
-0.295117
-0.291734
-0.28814
-0.284083
-0.279494
-0.305476
-0.308084
-0.309211
-0.309517
-0.309197
-0.308261
-0.306763
-0.304757
-0.302289
-0.299407
-0.296156
-0.292607
-0.28888
-0.284652
-0.27976
-0.309245
-0.311449
-0.312275
-0.312306
-0.311719
-0.310531
-0.308793
-0.306556
-0.303866
-0.300769
-0.297311
-0.293568
-0.289681
-0.285218
-0.280072
-0.31344
-0.315196
-0.315687
-0.315411
-0.314527
-0.313056
-0.311047
-0.30855
-0.305609
-0.302269
-0.298574
-0.294607
-0.290533
-0.285806
-0.280323
-0.31805
-0.319315
-0.319437
-0.318822
-0.31761
-0.315826
-0.313518
-0.310733
-0.307512
-0.303899
-0.299936
-0.295713
-0.291423
-0.286396
-0.2805
-0.323061
-0.323794
-0.323515
-0.322531
-0.32096
-0.318834
-0.316199
-0.313097
-0.309568
-0.305653
-0.301391
-0.296878
-0.292338
-0.286969
-0.280586
-0.328462
-0.328623
-0.32791
-0.326527
-0.324568
-0.322072
-0.319082
-0.315637
-0.311774
-0.307529
-0.302935
-0.298097
-0.29327
-0.287507
-0.280553
-0.334241
-0.33379
-0.332613
-0.330801
-0.328426
-0.325533
-0.322163
-0.31835
-0.314127
-0.309523
-0.304567
-0.299367
-0.294212
-0.287997
-0.280371
-0.340387
-0.339283
-0.337612
-0.335344
-0.332526
-0.329211
-0.325437
-0.321233
-0.316626
-0.31164
-0.306292
-0.30069
-0.295162
-0.288428
-0.280011
-0.346886
-0.345092
-0.342896
-0.340146
-0.33686
-0.333099
-0.3289
-0.324285
-0.319275
-0.313883
-0.308116
-0.302075
-0.296125
-0.288793
-0.279438
-0.353728
-0.351203
-0.348455
-0.345197
-0.341419
-0.337193
-0.332549
-0.327507
-0.322077
-0.316263
-0.310052
-0.303538
-0.297113
-0.289091
-0.278614
-0.360897
-0.357605
-0.354277
-0.350487
-0.346196
-0.341485
-0.336383
-0.3309
-0.325039
-0.318792
-0.312121
-0.305102
-0.298149
-0.28933
-0.277498
-0.36838
-0.364282
-0.360349
-0.356005
-0.351183
-0.345972
-0.340398
-0.334467
-0.328171
-0.321485
-0.314348
-0.306802
-0.29927
-0.289532
-0.276051
-0.37616
-0.37122
-0.366657
-0.36174
-0.35637
-0.350647
-0.344594
-0.338211
-0.331481
-0.324365
-0.316767
-0.308688
-0.300537
-0.28975
-0.274249
-0.384216
-0.378401
-0.373187
-0.36768
-0.361748
-0.355504
-0.348968
-0.342134
-0.334981
-0.327452
-0.319418
-0.310826
-0.302047
-0.290111
-0.272151
-0.392527
-0.385807
-0.379921
-0.373811
-0.367306
-0.360534
-0.353514
-0.346239
-0.338679
-0.330768
-0.322345
-0.313296
-0.303924
-0.290771
-0.269813
-0.401067
-0.393415
-0.386843
-0.380117
-0.373032
-0.365729
-0.358228
-0.350521
-0.342582
-0.334335
-0.325599
-0.316202
-0.306304
-0.291692
-0.266723
-0.409807
-0.401202
-0.393931
-0.386582
-0.378912
-0.371076
-0.363099
-0.354977
-0.346689
-0.338171
-0.329248
-0.319735
-0.309523
-0.293169
-0.262663
-0.418718
-0.409143
-0.401165
-0.393187
-0.384928
-0.376561
-0.368114
-0.359591
-0.350987
-0.34227
-0.333341
-0.324125
-0.314418
-0.29892
-0.268684
-0.427765
-0.41721
-0.40852
-0.399911
-0.391065
-0.382168
-0.373255
-0.36434
-0.35544
-0.346571
-0.337763
-0.329171
-0.321012
-0.3136
-0.317734
-0.436912
-0.425373
-0.41597
-0.406732
-0.3973
-0.387876
-0.3785
-0.369193
-0.359993
-0.350957
-0.342214
-0.334055
-0.326775
-0.322595
-0.332799
-0.446123
-0.433601
-0.423489
-0.413626
-0.403612
-0.393665
-0.383825
-0.37412
-0.364601
-0.355347
-0.346532
-0.338475
-0.331309
-0.32737
-0.336658
-0.455359
-0.44186
-0.431046
-0.420566
-0.409978
-0.399511
-0.389207
-0.379095
-0.369229
-0.359699
-0.350685
-0.342484
-0.335075
-0.330612
-0.338102
-0.464579
-0.450115
-0.43861
-0.427524
-0.416371
-0.405391
-0.394621
-0.38409
-0.37385
-0.363985
-0.354664
-0.346134
-0.338257
-0.33295
-0.338156
-0.473743
-0.458327
-0.446147
-0.434469
-0.422762
-0.411275
-0.40004
-0.389078
-0.378433
-0.368177
-0.358453
-0.349446
-0.340916
-0.334545
-0.337316
-0.482806
-0.466458
-0.453619
-0.441365
-0.429119
-0.417134
-0.405434
-0.394027
-0.382947
-0.372247
-0.362034
-0.352429
-0.343113
-0.335555
-0.335929
-0.49172
-0.474462
-0.460985
-0.448176
-0.435406
-0.422932
-0.410765
-0.398901
-0.387357
-0.376162
-0.365385
-0.355088
-0.344891
-0.336092
-0.334153
-0.500436
-0.482292
-0.468201
-0.454858
-0.441582
-0.428629
-0.415996
-0.403661
-0.391622
-0.379884
-0.368479
-0.357412
-0.346274
-0.336214
-0.332057
-0.508898
-0.489897
-0.475218
-0.461364
-0.447601
-0.43418
-0.421079
-0.408259
-0.395698
-0.383372
-0.371281
-0.359387
-0.347264
-0.335945
-0.32967
-0.517047
-0.497221
-0.481983
-0.467644
-0.453414
-0.439534
-0.425966
-0.412647
-0.399533
-0.386579
-0.373753
-0.360984
-0.34785
-0.335289
-0.326997
-0.524818
-0.504203
-0.488437
-0.473641
-0.458964
-0.444637
-0.430599
-0.416767
-0.403075
-0.389455
-0.375852
-0.362173
-0.348013
-0.334231
-0.324029
-0.532141
-0.510777
-0.494518
-0.479294
-0.464192
-0.449429
-0.43492
-0.42056
-0.406263
-0.391944
-0.377529
-0.362912
-0.347721
-0.332748
-0.320743
-0.538941
-0.516875
-0.50016
-0.484539
-0.469034
-0.453846
-0.438864
-0.423961
-0.409035
-0.393986
-0.378729
-0.363157
-0.346937
-0.330809
-0.317109
-0.545139
-0.522421
-0.50529
-0.489304
-0.47342
-0.457817
-0.442361
-0.426902
-0.411325
-0.395519
-0.379398
-0.362859
-0.345621
-0.328374
-0.313091
-0.550649
-0.527337
-0.509833
-0.493518
-0.477277
-0.461271
-0.445338
-0.429311
-0.413062
-0.396478
-0.379475
-0.361966
-0.343724
-0.325403
-0.308646
-0.555384
-0.53154
-0.513711
-0.497101
-0.48053
-0.464131
-0.44772
-0.431114
-0.414175
-0.396795
-0.3789
-0.360424
-0.341201
-0.32185
-0.303731
-0.55925
-0.534945
-0.51684
-0.499973
-0.483096
-0.466317
-0.449429
-0.432233
-0.414591
-0.396402
-0.37761
-0.358177
-0.338
-0.317671
-0.298299
-0.562156
-0.537465
-0.519136
-0.502053
-0.484896
-0.467749
-0.450383
-0.43259
-0.414235
-0.39523
-0.375542
-0.35517
-0.334075
-0.312821
-0.292307
-0.564004
-0.53901
-0.520514
-0.503253
-0.485845
-0.468343
-0.450502
-0.432108
-0.413033
-0.39321
-0.372636
-0.351349
-0.329377
-0.307257
-0.285709
-0.5647
-0.53949
-0.520886
-0.50349
-0.485857
-0.468016
-0.449704
-0.430707
-0.410911
-0.390276
-0.368832
-0.346663
-0.323861
-0.300938
-0.278465
-0.564147
-0.538815
-0.520164
-0.502676
-0.484849
-0.466684
-0.447907
-0.42831
-0.407799
-0.386363
-0.364075
-0.341063
-0.317486
-0.293827
-0.270536
-0.562253
-0.536898
-0.518262
-0.500727
-0.482736
-0.464265
-0.445034
-0.424844
-0.403627
-0.381411
-0.35831
-0.334504
-0.310212
-0.285892
-0.261889
-0.558925
-0.53365
-0.515095
-0.497559
-0.479435
-0.460679
-0.441006
-0.420236
-0.398331
-0.375362
-0.35149
-0.326946
-0.302008
-0.277103
-0.252495
-0.554077
-0.52899
-0.510582
-0.493091
-0.474869
-0.455849
-0.435752
-0.41442
-0.391852
-0.368166
-0.343572
-0.318353
-0.292845
-0.267436
-0.242329
-0.547629
-0.522839
-0.504645
-0.487247
-0.46896
-0.449703
-0.429204
-0.407334
-0.384136
-0.359777
-0.33452
-0.308698
-0.282701
-0.256875
-0.231374
-0.539501
-0.515119
-0.497209
-0.479952
-0.461638
-0.442172
-0.421298
-0.398922
-0.375134
-0.350155
-0.324302
-0.297957
-0.271557
-0.245405
-0.219616
-0.529624
-0.505765
-0.488208
-0.471141
-0.452839
-0.433195
-0.411979
-0.389136
-0.364806
-0.33927
-0.312895
-0.286112
-0.259403
-0.233019
-0.207047
-0.517937
-0.494716
-0.47758
-0.460753
-0.442503
-0.42272
-0.401199
-0.377933
-0.35312
-0.327096
-0.300282
-0.273155
-0.246235
-0.219716
-0.193664
-0.50439
-0.481919
-0.465273
-0.448736
-0.430582
-0.410699
-0.388917
-0.365282
-0.34005
-0.313617
-0.286455
-0.259081
-0.232052
-0.205499
-0.17947
-0.488939
-0.467332
-0.451243
-0.435047
-0.417033
-0.397095
-0.375103
-0.351159
-0.325582
-0.298825
-0.271411
-0.243895
-0.216862
-0.190377
-0.164472
-0.471554
-0.450921
-0.435455
-0.419651
-0.401825
-0.381881
-0.359735
-0.33555
-0.309707
-0.28272
-0.255156
-0.227606
-0.200678
-0.174365
-0.148681
-0.452215
-0.432663
-0.417885
-0.402524
-0.384937
-0.36504
-0.342802
-0.318449
-0.292429
-0.265311
-0.237705
-0.21023
-0.183518
-0.157484
-0.132115
-0.430914
-0.412547
-0.39852
-0.383654
-0.366357
-0.346564
-0.324303
-0.299864
-0.27376
-0.246615
-0.219077
-0.191792
-0.165405
-0.139757
-0.114794
-0.407655
-0.390573
-0.377358
-0.363038
-0.346086
-0.32646
-0.304248
-0.27981
-0.253722
-0.226658
-0.199303
-0.172321
-0.146368
-0.121204
-0.0966876
-0.382457
-0.366753
-0.354408
-0.340686
-0.324135
-0.304742
-0.282658
-0.258314
-0.232345
-0.205475
-0.178419
-0.151854
-0.126447
-0.101867
-0.0777417
-0.355349
-0.341113
-0.329694
-0.316621
-0.30053
-0.281438
-0.259566
-0.235411
-0.20967
-0.18311
-0.156468
-0.130437
-0.105691
-0.0818462
-0.0583092
-0.326377
-0.31369
-0.30325
-0.290877
-0.275305
-0.256589
-0.235014
-0.21115
-0.185747
-0.159612
-0.133502
-0.108118
-0.0841221
-0.0609748
-0.0384126
-0.295596
-0.284534
-0.275123
-0.263501
-0.24851
-0.230243
-0.209058
-0.185587
-0.160635
-0.135042
-0.109579
-0.0849509
-0.0618091
-0.0394881
-0.0178571
-0.263076
-0.253709
-0.245373
-0.234551
-0.220204
-0.202465
-0.181761
-0.15879
-0.134403
-0.109467
-0.0847644
-0.0609981
-0.0388071
-0.0174159
0.0032703
-0.228901
-0.221289
-0.214072
-0.204098
-0.190458
-0.173326
-0.153198
-0.130834
-0.107124
-0.0829615
-0.05913
-0.036327
-0.0151777
0.00519954
0.0248984
-0.193164
-0.187362
-0.181303
-0.172224
-0.159355
-0.142911
-0.123455
-0.101804
-0.0788864
-0.0556087
-0.0327549
-0.0110123
0.00901037
0.0282983
0.0469664
-0.155973
-0.152025
-0.147161
-0.139025
-0.126989
-0.111313
-0.0926255
-0.0717948
-0.0497796
-0.0274971
-0.00572444
0.0148651
0.0336823
0.0518115
0.0694071
-0.117444
-0.115389
-0.111753
-0.104602
-0.0934618
-0.0786347
-0.060811
-0.0409058
-0.0199023
0.00127804
0.0218697
0.0412181
0.0587568
0.0756611
0.0921405
-0.0776973
-0.0775795
-0.0751936
-0.0690704
-0.0588874
-0.044988
-0.0281214
-0.00924455
0.0106412
0.030616
0.0499305
0.0679527
0.0841442
0.0997564
0.115073
-0.0368776
-0.0387217
-0.0376091
-0.0325536
-0.0233865
-0.0104917
0.00532692
0.0230761
0.0417422
0.0604122
0.0783564
0.094969
0.109749
0.123998
0.138086
0.00486025
0.00105315
0.000865663
0.00481684
0.012912
0.0247287
0.0394122
0.0559389
0.0732886
0.0905596
0.107043
0.122165
0.13548
0.148295
0.160969
0.0473717
0.0415916
0.0400879
0.0429019
0.0498726
0.0605414
0.0740079
0.0892234
0.105166
0.12095
0.135885
0.149436
0.161264
0.172545
0.18334
0.0904959
0.0827396
0.0799086
0.081556
0.0873537
0.09681
0.108984
0.122807
0.137261
0.151475
0.164775
0.17668
0.186988
0.196415
0.204628
0.134064
0.124337
0.120172
0.120627
0.125209
0.133394
0.144207
0.156565
0.16946
0.182035
0.193625
0.203812
0.212454
0.219045
0.223324
0.177901
0.166217
0.160716
0.159959
0.163286
0.170149
0.179541
0.190374
0.201651
0.212538
0.222385
0.230842
0.237649
0.239967
0.238597
0.221836
0.208213
0.201379
0.199393
0.201433
0.206928
0.214849
0.224106
0.233722
0.242892
0.251003
0.257784
0.26304
0.263903
0.263065
0.265688
0.250153
0.241991
0.238766
0.239493
0.243584
0.249992
0.257631
0.265552
0.272984
0.279363
0.284475
0.28818
0.288001
0.287325
0.309273
0.291859
0.282382
0.277912
0.277307
0.279965
0.284826
0.290817
0.297017
0.302695
0.307337
0.31077
0.312878
0.311491
0.310277
0.352409
0.333156
0.322381
0.316667
0.314717
0.315921
0.319212
0.323532
0.327993
0.331908
0.334807
0.336556
0.337054
0.334383
0.332261
0.394913
0.373868
0.361818
0.354864
0.351564
0.351303
0.35301
0.355647
0.358361
0.360509
0.361665
0.361729
0.360613
0.356623
0.353392
0.436604
0.41382
0.40052
0.392339
0.387693
0.385962
0.386081
0.387032
0.388002
0.388389
0.387811
0.386193
0.383464
0.378134
0.373683
0.477304
0.452838
0.438321
0.428932
0.422949
0.419755
0.418291
0.417565
0.416802
0.415444
0.413149
0.409864
0.405535
0.398856
0.393124
0.516837
0.490754
0.475056
0.464481
0.45718
0.452539
0.449508
0.447125
0.444653
0.441575
0.43759
0.432665
0.426759
0.418741
0.411699
0.555032
0.5274
0.510563
0.498834
0.490241
0.484178
0.479606
0.475595
0.471447
0.466688
0.461051
0.454523
0.447077
0.437744
0.429386
0.591724
0.562617
0.544686
0.531839
0.521988
0.514537
0.508463
0.502865
0.497087
0.490693
0.483453
0.475369
0.466433
0.455822
0.446161
0.626753
0.596249
0.577275
0.563353
0.552286
0.543491
0.535961
0.528828
0.521475
0.513505
0.504721
0.495141
0.484773
0.472931
0.461996
0.659967
0.628148
0.608185
0.593236
0.581004
0.570917
0.56199
0.553384
0.544522
0.535044
0.524785
0.513777
0.502044
0.489029
0.476862
0.69122
0.658172
0.63728
0.621357
0.608017
0.596702
0.586443
0.576436
0.566141
0.555234
0.543578
0.531219
0.518198
0.504075
0.49073
0.720376
0.686189
0.664429
0.647594
0.633211
0.620736
0.609222
0.597896
0.586254
0.574004
0.561038
0.547413
0.533188
0.518027
0.503569
0.747306
0.712073
0.689512
0.67183
0.656474
0.642919
0.630235
0.617681
0.604785
0.591289
0.577106
0.562308
0.546969
0.530848
0.51535
0.771894
0.73571
0.712418
0.693958
0.677709
0.663158
0.649397
0.635713
0.621666
0.607025
0.591729
0.575857
0.559499
0.542501
0.526045
0.794031
0.756994
0.733045
0.713881
0.696821
0.681368
0.666631
0.651923
0.636834
0.621159
0.604856
0.588015
0.57074
0.552952
0.535625
0.813619
0.775831
0.751299
0.73151
0.71373
0.697472
0.681867
0.666248
0.650232
0.633639
0.616444
0.598743
0.580656
0.562169
0.544067
0.830572
0.792136
0.7671
0.746769
0.728361
0.711404
0.695042
0.678632
0.661812
0.644421
0.626452
0.608007
0.589217
0.570124
0.551348
0.844816
0.805837
0.780378
0.759589
0.740652
0.723105
0.706105
0.689026
0.671528
0.653466
0.634845
0.615774
0.596393
0.576792
0.557447
0.856287
0.816872
0.791072
0.769914
0.750549
0.732525
0.715009
0.697391
0.679345
0.660742
0.641595
0.62202
0.602163
0.582153
0.562347
0.864935
0.825192
0.799134
0.777697
0.75801
0.739624
0.721719
0.703694
0.685234
0.666222
0.646679
0.626722
0.606508
0.586188
0.566034
0.870721
0.830759
0.804529
0.782906
0.763001
0.744374
0.726207
0.707909
0.689173
0.669886
0.650078
0.629866
0.609412
0.588886
0.568499
0.873621
0.833549
0.807233
0.785516
0.765503
0.746754
0.728456
0.710021
0.691145
0.671721
0.65178
0.631441
0.610867
0.590237
0.569733
0.873621
0.833549
0.807233
0.785516
0.765503
0.746754
0.728456
0.710021
0.691145
0.671721
0.65178
0.631441
0.610867
0.590237
0.569733
0.870721
0.830759
0.804529
0.782906
0.763001
0.744374
0.726207
0.707909
0.689173
0.669886
0.650078
0.629866
0.609412
0.588886
0.568499
0.864935
0.825192
0.799134
0.777697
0.75801
0.739624
0.721719
0.703694
0.685234
0.666222
0.646679
0.626722
0.606508
0.586188
0.566034
0.856287
0.816872
0.791072
0.769914
0.750549
0.732525
0.715009
0.697391
0.679345
0.660742
0.641595
0.62202
0.602163
0.582153
0.562347
0.844816
0.805837
0.780378
0.759589
0.740652
0.723105
0.706105
0.689026
0.671528
0.653466
0.634845
0.615774
0.596393
0.576792
0.557447
0.830572
0.792136
0.7671
0.746769
0.728361
0.711404
0.695042
0.678632
0.661812
0.644421
0.626452
0.608007
0.589217
0.570124
0.551348
0.813619
0.775831
0.751299
0.73151
0.71373
0.697472
0.681867
0.666248
0.650232
0.633639
0.616444
0.598743
0.580656
0.562169
0.544067
0.794031
0.756994
0.733045
0.713881
0.696821
0.681368
0.666631
0.651923
0.636834
0.621159
0.604856
0.588015
0.57074
0.552952
0.535625
0.771894
0.73571
0.712418
0.693958
0.677709
0.663158
0.649397
0.635713
0.621666
0.607025
0.591729
0.575857
0.559499
0.542501
0.526045
0.747306
0.712073
0.689512
0.67183
0.656474
0.642919
0.630235
0.617681
0.604785
0.591288
0.577106
0.562308
0.546969
0.530848
0.51535
0.720376
0.686188
0.664429
0.647594
0.633211
0.620736
0.609222
0.597896
0.586254
0.574004
0.561038
0.547413
0.533188
0.518027
0.503569
0.69122
0.658172
0.63728
0.621357
0.608017
0.596702
0.586443
0.576436
0.566141
0.555234
0.543578
0.531219
0.518198
0.504075
0.49073
0.659967
0.628148
0.608185
0.593236
0.581004
0.570917
0.561989
0.553383
0.544521
0.535044
0.524785
0.513777
0.502044
0.489029
0.476862
0.626753
0.596249
0.577275
0.563352
0.552286
0.543491
0.535961
0.528828
0.521475
0.513505
0.504721
0.495141
0.484773
0.472931
0.461996
0.591724
0.562617
0.544686
0.531839
0.521988
0.514537
0.508463
0.502865
0.497087
0.490693
0.483453
0.475369
0.466433
0.455822
0.446161
0.555032
0.5274
0.510563
0.498834
0.490241
0.484177
0.479606
0.475595
0.471447
0.466688
0.461051
0.454523
0.447077
0.437744
0.429386
0.516837
0.490754
0.475056
0.464481
0.45718
0.452539
0.449508
0.447125
0.444652
0.441575
0.43759
0.432665
0.426759
0.418741
0.411699
0.477304
0.452838
0.438321
0.428931
0.422948
0.419755
0.418291
0.417565
0.416802
0.415444
0.413149
0.409864
0.405535
0.398856
0.393124
0.436604
0.41382
0.40052
0.392339
0.387693
0.385962
0.386081
0.387032
0.388002
0.388389
0.387811
0.386193
0.383464
0.378134
0.373683
0.394913
0.373868
0.361817
0.354864
0.351564
0.351303
0.35301
0.355646
0.358361
0.360509
0.361665
0.361729
0.360613
0.356623
0.353392
0.352408
0.333156
0.322381
0.316667
0.314717
0.315921
0.319212
0.323532
0.327993
0.331908
0.334807
0.336556
0.337054
0.334383
0.332261
0.309273
0.291859
0.282382
0.277912
0.277307
0.279965
0.284826
0.290817
0.297016
0.302695
0.307336
0.31077
0.312878
0.311491
0.310277
0.265688
0.250153
0.241991
0.238766
0.239493
0.243584
0.249991
0.257631
0.265552
0.272984
0.279363
0.284475
0.28818
0.288001
0.287325
0.221836
0.208213
0.201378
0.199393
0.201433
0.206928
0.214849
0.224106
0.233722
0.242892
0.251003
0.257784
0.26304
0.263903
0.263065
0.177901
0.166217
0.160716
0.159959
0.163286
0.170149
0.179541
0.190374
0.201651
0.212538
0.222385
0.230842
0.237649
0.239967
0.238597
0.134064
0.124337
0.120172
0.120627
0.125209
0.133394
0.144207
0.156565
0.16946
0.182035
0.193625
0.203812
0.212454
0.219045
0.223324
0.0904959
0.0827395
0.0799085
0.0815559
0.0873537
0.09681
0.108984
0.122807
0.137261
0.151475
0.164775
0.17668
0.186988
0.196415
0.204628
0.0473716
0.0415915
0.0400878
0.0429018
0.0498725
0.0605413
0.0740078
0.0892233
0.105166
0.12095
0.135885
0.149436
0.161264
0.172545
0.18334
0.00486016
0.00105306
0.000865573
0.00481675
0.0129119
0.0247286
0.0394121
0.0559388
0.0732885
0.0905595
0.107043
0.122165
0.13548
0.148295
0.160969
-0.0368777
-0.0387218
-0.0376092
-0.0325537
-0.0233866
-0.0104917
0.00532683
0.023076
0.0417421
0.0604121
0.0783563
0.0949689
0.109748
0.123998
0.138086
-0.0776974
-0.0775796
-0.0751937
-0.0690705
-0.0588875
-0.0449881
-0.0281215
-0.00924465
0.0106411
0.0306159
0.0499304
0.0679526
0.0841441
0.0997563
0.115072
-0.117444
-0.115389
-0.111753
-0.104602
-0.0934619
-0.0786348
-0.0608111
-0.0409059
-0.0199024
0.00127793
0.0218696
0.041218
0.0587567
0.075661
0.0921404
-0.155973
-0.152025
-0.147162
-0.139025
-0.126989
-0.111313
-0.0926256
-0.0717949
-0.0497797
-0.0274972
-0.00572454
0.014865
0.0336822
0.0518114
0.069407
-0.193164
-0.187362
-0.181303
-0.172225
-0.159355
-0.142911
-0.123455
-0.101805
-0.0788865
-0.0556088
-0.032755
-0.0110125
0.00901026
0.0282981
0.0469663
-0.228901
-0.221289
-0.214072
-0.204098
-0.190458
-0.173326
-0.153199
-0.130834
-0.107125
-0.0829617
-0.0591301
-0.0363272
-0.0151778
0.00519943
0.0248983
-0.263076
-0.253709
-0.245374
-0.234551
-0.220204
-0.202465
-0.181761
-0.15879
-0.134403
-0.109467
-0.0847645
-0.0609982
-0.0388072
-0.017416
0.00327018
-0.295596
-0.284534
-0.275123
-0.263501
-0.24851
-0.230244
-0.209058
-0.185587
-0.160636
-0.135042
-0.109579
-0.0849511
-0.0618092
-0.0394882
-0.0178573
-0.326377
-0.31369
-0.30325
-0.290877
-0.275305
-0.256589
-0.235014
-0.21115
-0.185747
-0.159612
-0.133502
-0.108118
-0.0841222
-0.0609749
-0.0384127
-0.355349
-0.341113
-0.329694
-0.316621
-0.30053
-0.281439
-0.259566
-0.235411
-0.20967
-0.18311
-0.156468
-0.130437
-0.105691
-0.0818463
-0.0583094
-0.382457
-0.366753
-0.354408
-0.340686
-0.324135
-0.304742
-0.282658
-0.258314
-0.232345
-0.205476
-0.178419
-0.151854
-0.126447
-0.101867
-0.0777418
-0.407655
-0.390573
-0.377358
-0.363038
-0.346086
-0.32646
-0.304248
-0.27981
-0.253722
-0.226658
-0.199303
-0.172321
-0.146368
-0.121204
-0.0966877
-0.430914
-0.412547
-0.39852
-0.383654
-0.366357
-0.346564
-0.324303
-0.299864
-0.273761
-0.246615
-0.219077
-0.191792
-0.165406
-0.139757
-0.114794
-0.452215
-0.432663
-0.417885
-0.402524
-0.384937
-0.36504
-0.342802
-0.31845
-0.292429
-0.265311
-0.237705
-0.210231
-0.183518
-0.157484
-0.132116
-0.471554
-0.450921
-0.435455
-0.419651
-0.401826
-0.381881
-0.359735
-0.33555
-0.309707
-0.28272
-0.255156
-0.227606
-0.200678
-0.174365
-0.148681
-0.488939
-0.467332
-0.451243
-0.435047
-0.417033
-0.397095
-0.375103
-0.351159
-0.325582
-0.298825
-0.271411
-0.243895
-0.216862
-0.190377
-0.164472
-0.50439
-0.48192
-0.465273
-0.448736
-0.430582
-0.410699
-0.388917
-0.365282
-0.34005
-0.313617
-0.286455
-0.259081
-0.232052
-0.205499
-0.179471
-0.517937
-0.494716
-0.47758
-0.460753
-0.442503
-0.42272
-0.401199
-0.377933
-0.35312
-0.327096
-0.300282
-0.273155
-0.246235
-0.219716
-0.193665
-0.529624
-0.505765
-0.488208
-0.471141
-0.452839
-0.433196
-0.411979
-0.389136
-0.364807
-0.33927
-0.312895
-0.286112
-0.259403
-0.233019
-0.207047
-0.539501
-0.515119
-0.49721
-0.479952
-0.461639
-0.442172
-0.421298
-0.398922
-0.375134
-0.350155
-0.324302
-0.297957
-0.271557
-0.245405
-0.219616
-0.54763
-0.522839
-0.504646
-0.487247
-0.468961
-0.449703
-0.429204
-0.407335
-0.384136
-0.359777
-0.33452
-0.308698
-0.282701
-0.256875
-0.231375
-0.554078
-0.52899
-0.510582
-0.493091
-0.474869
-0.455849
-0.435752
-0.41442
-0.391852
-0.368166
-0.343572
-0.318354
-0.292845
-0.267436
-0.242329
-0.558925
-0.533651
-0.515095
-0.497559
-0.479436
-0.460679
-0.441006
-0.420236
-0.398331
-0.375362
-0.35149
-0.326946
-0.302009
-0.277103
-0.252495
-0.562253
-0.536898
-0.518262
-0.500727
-0.482736
-0.464265
-0.445034
-0.424844
-0.403627
-0.381411
-0.35831
-0.334504
-0.310213
-0.285892
-0.261889
-0.564147
-0.538816
-0.520164
-0.502676
-0.484849
-0.466684
-0.447907
-0.42831
-0.407799
-0.386363
-0.364075
-0.341063
-0.317486
-0.293828
-0.270536
-0.5647
-0.53949
-0.520886
-0.50349
-0.485857
-0.468016
-0.449704
-0.430707
-0.410911
-0.390276
-0.368833
-0.346663
-0.323861
-0.300938
-0.278465
-0.564005
-0.53901
-0.520514
-0.503253
-0.485845
-0.468344
-0.450502
-0.432108
-0.413033
-0.39321
-0.372636
-0.35135
-0.329377
-0.307257
-0.285709
-0.562156
-0.537465
-0.519137
-0.502053
-0.484896
-0.467749
-0.450383
-0.43259
-0.414235
-0.39523
-0.375542
-0.35517
-0.334075
-0.312821
-0.292307
-0.559251
-0.534945
-0.51684
-0.499974
-0.483097
-0.466318
-0.449429
-0.432233
-0.414591
-0.396403
-0.37761
-0.358177
-0.338001
-0.317671
-0.2983
-0.555384
-0.53154
-0.513711
-0.497101
-0.48053
-0.464131
-0.44772
-0.431114
-0.414176
-0.396796
-0.3789
-0.360424
-0.341201
-0.32185
-0.303731
-0.550649
-0.527337
-0.509833
-0.493518
-0.477278
-0.461271
-0.445338
-0.429311
-0.413062
-0.396478
-0.379475
-0.361966
-0.343724
-0.325403
-0.308646
-0.545139
-0.522421
-0.50529
-0.489305
-0.47342
-0.457817
-0.442361
-0.426902
-0.411325
-0.395519
-0.379398
-0.362859
-0.345621
-0.328374
-0.313091
-0.538941
-0.516875
-0.50016
-0.484539
-0.469034
-0.453846
-0.438864
-0.423961
-0.409035
-0.393986
-0.378729
-0.363157
-0.346938
-0.330809
-0.317109
-0.532141
-0.510778
-0.494519
-0.479294
-0.464192
-0.449429
-0.43492
-0.42056
-0.406263
-0.391944
-0.377529
-0.362912
-0.347721
-0.332748
-0.320743
-0.524818
-0.504203
-0.488437
-0.473641
-0.458964
-0.444637
-0.430599
-0.416767
-0.403075
-0.389455
-0.375852
-0.362173
-0.348013
-0.334231
-0.324029
-0.517047
-0.497221
-0.481983
-0.467644
-0.453414
-0.439534
-0.425966
-0.412647
-0.399533
-0.38658
-0.373753
-0.360985
-0.347851
-0.335289
-0.326998
-0.508898
-0.489897
-0.475218
-0.461364
-0.447601
-0.43418
-0.421079
-0.408259
-0.395698
-0.383372
-0.371281
-0.359387
-0.347264
-0.335946
-0.32967
-0.500436
-0.482292
-0.468201
-0.454858
-0.441582
-0.428629
-0.415996
-0.403661
-0.391622
-0.379884
-0.368479
-0.357413
-0.346274
-0.336214
-0.332057
-0.49172
-0.474462
-0.460985
-0.448176
-0.435406
-0.422932
-0.410766
-0.398901
-0.387357
-0.376162
-0.365385
-0.355088
-0.344891
-0.336092
-0.334153
-0.482806
-0.466458
-0.453619
-0.441365
-0.42912
-0.417135
-0.405434
-0.394027
-0.382947
-0.372247
-0.362034
-0.35243
-0.343113
-0.335555
-0.335929
-0.473743
-0.458327
-0.446147
-0.434469
-0.422762
-0.411275
-0.400041
-0.389078
-0.378433
-0.368177
-0.358453
-0.349446
-0.340916
-0.334545
-0.337316
-0.46458
-0.450115
-0.43861
-0.427524
-0.416371
-0.405391
-0.394621
-0.38409
-0.37385
-0.363985
-0.354664
-0.346134
-0.338257
-0.33295
-0.338156
-0.455359
-0.44186
-0.431046
-0.420566
-0.409978
-0.399511
-0.389207
-0.379095
-0.36923
-0.359699
-0.350685
-0.342484
-0.335075
-0.330612
-0.338102
-0.446123
-0.433601
-0.423489
-0.413626
-0.403612
-0.393665
-0.383825
-0.37412
-0.364601
-0.355347
-0.346532
-0.338475
-0.331309
-0.32737
-0.336658
-0.436912
-0.425373
-0.41597
-0.406732
-0.3973
-0.387877
-0.3785
-0.369193
-0.359993
-0.350957
-0.342214
-0.334055
-0.326775
-0.322595
-0.332799
-0.427765
-0.41721
-0.40852
-0.399911
-0.391065
-0.382168
-0.373255
-0.36434
-0.35544
-0.346571
-0.337763
-0.329171
-0.321013
-0.3136
-0.317735
-0.418718
-0.409143
-0.401165
-0.393187
-0.384929
-0.376562
-0.368114
-0.359591
-0.350987
-0.34227
-0.333341
-0.324125
-0.314418
-0.29892
-0.268684
-0.409808
-0.401202
-0.393932
-0.386582
-0.378912
-0.371076
-0.363099
-0.354977
-0.346689
-0.338171
-0.329248
-0.319735
-0.309523
-0.293169
-0.262663
-0.401067
-0.393415
-0.386843
-0.380117
-0.373032
-0.365729
-0.358228
-0.350522
-0.342582
-0.334335
-0.325599
-0.316203
-0.306305
-0.291692
-0.266723
-0.392527
-0.385807
-0.379921
-0.373811
-0.367307
-0.360534
-0.353514
-0.346239
-0.338679
-0.330768
-0.322345
-0.313296
-0.303924
-0.290771
-0.269813
-0.384216
-0.378401
-0.373187
-0.36768
-0.361748
-0.355504
-0.348968
-0.342135
-0.334981
-0.327452
-0.319418
-0.310826
-0.302047
-0.290111
-0.272151
-0.37616
-0.37122
-0.366657
-0.36174
-0.35637
-0.350647
-0.344594
-0.338211
-0.331481
-0.324365
-0.316767
-0.308688
-0.300537
-0.28975
-0.274249
-0.368381
-0.364282
-0.360349
-0.356005
-0.351183
-0.345972
-0.340398
-0.334467
-0.328171
-0.321486
-0.314348
-0.306802
-0.29927
-0.289532
-0.276051
-0.360898
-0.357605
-0.354277
-0.350487
-0.346196
-0.341485
-0.336383
-0.3309
-0.325039
-0.318792
-0.312121
-0.305102
-0.298149
-0.28933
-0.277498
-0.353728
-0.351203
-0.348455
-0.345197
-0.341419
-0.337193
-0.332549
-0.327507
-0.322077
-0.316263
-0.310052
-0.303538
-0.297113
-0.289091
-0.278614
-0.346886
-0.345092
-0.342896
-0.340146
-0.33686
-0.333099
-0.3289
-0.324285
-0.319275
-0.313884
-0.308116
-0.302075
-0.296125
-0.288793
-0.279438
-0.340387
-0.339283
-0.337612
-0.335344
-0.332526
-0.329211
-0.325437
-0.321233
-0.316626
-0.31164
-0.306292
-0.30069
-0.295162
-0.288428
-0.280011
-0.334242
-0.33379
-0.332613
-0.330801
-0.328426
-0.325533
-0.322163
-0.31835
-0.314127
-0.309524
-0.304568
-0.299367
-0.294212
-0.287997
-0.280371
-0.328462
-0.328623
-0.32791
-0.326527
-0.324568
-0.322072
-0.319082
-0.315637
-0.311774
-0.307529
-0.302935
-0.298097
-0.29327
-0.287507
-0.280553
-0.323061
-0.323794
-0.323515
-0.322531
-0.32096
-0.318834
-0.316199
-0.313097
-0.309568
-0.305654
-0.301391
-0.296878
-0.292338
-0.286969
-0.280586
-0.31805
-0.319315
-0.319437
-0.318822
-0.31761
-0.315826
-0.313518
-0.310733
-0.307512
-0.303899
-0.299936
-0.295713
-0.291423
-0.286396
-0.2805
-0.31344
-0.315196
-0.315687
-0.315411
-0.314527
-0.313056
-0.311047
-0.30855
-0.305609
-0.302269
-0.298574
-0.294607
-0.290533
-0.285806
-0.280323
-0.309245
-0.311449
-0.312275
-0.312306
-0.311719
-0.310531
-0.308793
-0.306556
-0.303866
-0.300769
-0.297311
-0.293568
-0.289681
-0.285219
-0.280072
-0.305476
-0.308084
-0.309211
-0.309517
-0.309197
-0.308261
-0.306763
-0.304757
-0.302289
-0.299407
-0.296156
-0.292607
-0.28888
-0.284653
-0.27976
-0.302146
-0.305112
-0.306506
-0.307054
-0.306967
-0.306252
-0.304965
-0.30316
-0.300886
-0.29819
-0.295118
-0.291734
-0.28814
-0.284083
-0.279494
-0.299265
-0.302544
-0.304167
-0.304924
-0.305038
-0.304514
-0.303407
-0.301775
-0.299665
-0.297126
-0.294205
-0.290961
-0.287477
-0.283573
-0.279265
-0.296847
-0.300388
-0.302204
-0.303136
-0.303418
-0.303052
-0.302096
-0.300607
-0.298634
-0.296225
-0.293428
-0.290297
-0.286904
-0.283126
-0.279021
-0.294899
-0.298653
-0.300625
-0.301697
-0.302113
-0.301875
-0.301039
-0.299663
-0.297799
-0.295494
-0.292795
-0.289754
-0.28643
-0.282754
-0.278795
-0.29343
-0.297345
-0.299434
-0.300612
-0.301129
-0.300986
-0.30024
-0.29895
-0.297167
-0.294939
-0.292313
-0.289338
-0.286067
-0.282465
-0.278613
-0.292447
-0.29647
-0.298637
-0.299886
-0.300471
-0.300391
-0.299705
-0.298472
-0.296743
-0.294566
-0.291988
-0.289057
-0.28582
-0.282268
-0.278485
-0.291955
-0.296031
-0.298238
-0.299522
-0.300141
-0.300093
-0.299437
-0.298232
-0.29653
-0.294379
-0.291825
-0.288915
-0.285695
-0.282169
-0.27842
-0.274175
-0.267169
-0.259941
-0.251688
-0.242731
-0.233093
-0.22287
-0.212166
-0.201087
-0.189743
-0.178243
-0.166688
-0.155173
-0.143784
-0.132597
-0.121682
-0.111094
-0.100885
-0.0910894
-0.0817506
-0.0728712
-0.064509
-0.0565956
-0.0492807
-0.0422974
-0.0361122
-0.0298867
-0.0250317
-0.0191144
-0.0161594
-0.00946049
-0.00994152
0.000171439