/*--------------------------------*- C++ -*----------------------------------*\
  =========                 |
  \\      /  F ield         | OpenFOAM: The Open Source CFD Toolbox
   \\    /   O peration     | Website:  https://openfoam.org
    \\  /    A nd           | Version:  7
     \\/     M anipulation  |
\*---------------------------------------------------------------------------*/
FoamFile
{
    version     2.0;
    format      ascii;
    class       surfaceScalarField;
    location    "35";
    object      phi;
}
// * * * * * * * * * * * * * * * * * * * * * * * * * * * * * * * * * * * * * //

dimensions      [0 3 -1 0 0 0 0];

internalField   nonuniform List<scalar> 
25875
(
-1.51235e-06
1.51235e-06
-8.81098e-13
-5.44522e-06
3.93287e-06
-3.045e-12
-1.1387e-05
5.94175e-06
-5.27544e-12
-1.89392e-05
7.55225e-06
-7.47333e-12
-2.77169e-05
8.7777e-06
-9.58595e-12
-3.73538e-05
9.63692e-06
-1.16144e-11
-4.75083e-05
1.01545e-05
-1.35792e-11
-5.7871e-05
1.03628e-05
-1.54745e-11
-6.81755e-05
1.03045e-05
-1.73006e-11
-7.82102e-05
1.00348e-05
-1.90104e-11
-8.78333e-05
9.6231e-06
-2.05679e-11
-9.69871e-05
9.15378e-06
-2.20181e-11
-0.000105708
8.72048e-06
-2.33933e-11
-0.000114116
8.4088e-06
-2.4618e-11
8.35605e-06
-2.5475e-11
-0.000122472
-1.49499e-06
3.00734e-06
-5.37733e-06
7.81521e-06
-1.12341e-05
1.17985e-05
-1.8665e-05
1.49831e-05
-2.72822e-05
1.73949e-05
-3.6716e-05
1.90707e-05
-4.66203e-05
2.00588e-05
-5.66807e-05
2.04231e-05
-6.66241e-05
2.02479e-05
-7.62323e-05
1.9643e-05
-8.5356e-05
1.87468e-05
-9.39306e-05
1.77284e-05
-0.000101987
1.67766e-05
-0.000109643
1.6065e-05
1.58713e-05
-0.000117158
-1.46044e-06
4.46778e-06
-5.24213e-06
1.15969e-05
-1.09296e-05
1.7486e-05
-1.81186e-05
2.21721e-05
-2.64159e-05
2.56922e-05
-3.54449e-05
2.80997e-05
-4.48507e-05
2.94647e-05
-5.43082e-05
2.98806e-05
-6.35321e-05
2.94718e-05
-7.229e-05
2.84009e-05
-8.04179e-05
2.68748e-05
-8.78373e-05
2.51477e-05
-9.45676e-05
2.35069e-05
-0.000100721
2.22187e-05
2.17062e-05
-0.000106556
-1.40903e-06
5.87681e-06
-5.04081e-06
1.52287e-05
-1.0476e-05
2.29212e-05
-1.73043e-05
2.90004e-05
-2.51245e-05
3.35124e-05
-3.35495e-05
3.65247e-05
-4.22117e-05
3.81269e-05
-5.07701e-05
3.8439e-05
-5.89206e-05
3.76223e-05
-6.64098e-05
3.58902e-05
-7.30516e-05
3.35165e-05
-7.87458e-05
3.0842e-05
-8.34952e-05
2.82562e-05
-8.74024e-05
2.61259e-05
2.50267e-05
-9.07229e-05
-1.34127e-06
7.21808e-06
-4.77502e-06
1.86624e-05
-9.8766e-06
2.80228e-05
-1.62278e-05
3.53515e-05
-2.34168e-05
4.07014e-05
-3.10428e-05
4.41508e-05
-3.87212e-05
4.58052e-05
-4.60899e-05
4.58077e-05
-5.28202e-05
4.43526e-05
-5.86305e-05
4.17005e-05
-6.33045e-05
3.81905e-05
-6.67132e-05
3.42507e-05
-6.88362e-05
3.03792e-05
-6.97634e-05
2.70531e-05
2.50089e-05
-6.97456e-05
-1.25774e-06
8.47582e-06
-4.44686e-06
2.18516e-05
-9.13582e-06
3.27117e-05
-1.48965e-05
4.11122e-05
-2.13041e-05
4.71089e-05
-2.7941e-05
5.07877e-05
-3.44015e-05
5.22657e-05
-4.02977e-05
5.17039e-05
-4.52702e-05
4.93251e-05
-4.90018e-05
4.54321e-05
-5.12381e-05
4.04268e-05
-5.18131e-05
3.48257e-05
-5.06769e-05
2.9243e-05
-4.79064e-05
2.42826e-05
2.08403e-05
-4.37378e-05
-1.15914e-06
9.63496e-06
-4.05865e-06
2.47511e-05
-8.25854e-06
3.69116e-05
-1.33189e-05
4.61726e-05
-1.87993e-05
5.25894e-05
-2.42627e-05
5.62511e-05
-2.92785e-05
5.72815e-05
-3.34285e-05
5.58539e-05
-3.63164e-05
5.22129e-05
-3.75823e-05
4.66981e-05
-3.69253e-05
3.97698e-05
-3.41332e-05
3.20335e-05
-2.91177e-05
2.42276e-05
-2.19499e-05
1.71147e-05
1.18149e-05
-1.29245e-05
-1.04618e-06
1.06811e-05
-3.61288e-06
2.73178e-05
-7.24996e-06
4.05487e-05
-1.15037e-05
5.04263e-05
-1.59163e-05
5.70019e-05
-2.00281e-05
6.03629e-05
-2.33805e-05
6.0634e-05
-2.55206e-05
5.79941e-05
-2.60097e-05
5.2702e-05
-2.44381e-05
4.51265e-05
-2.04492e-05
3.57809e-05
-1.37745e-05
2.53588e-05
-4.27422e-06
1.47274e-05
8.03487e-06
4.80563e-06
-2.88929e-06
2.27391e-05
-9.19557e-07
1.16007e-05
-3.11202e-06
2.95102e-05
-6.11526e-06
4.35519e-05
-9.46009e-06
5.37712e-05
-1.26689e-05
6.02108e-05
-1.52576e-05
6.29516e-05
-1.67366e-05
6.21129e-05
-1.66141e-05
5.78716e-05
-1.44041e-05
5.0492e-05
-9.64001e-06
4.03624e-05
-1.90031e-06
2.80411e-05
9.15076e-06
1.43077e-05
2.37073e-05
1.70854e-07
4.176e-05
-1.32471e-05
-2.41405e-05
6.30113e-05
-7.79932e-07
1.23806e-05
-2.55834e-06
3.12886e-05
-4.85933e-06
4.58529e-05
-7.19643e-06
5.61083e-05
-9.07068e-06
6.2085e-05
-9.97117e-06
6.38521e-05
-9.37495e-06
6.15167e-05
-6.74857e-06
5.52452e-05
-1.55377e-06
4.52972e-05
6.73936e-06
3.20693e-05
1.86266e-05
1.61539e-05
3.45234e-05
-1.58916e-06
5.46954e-05
-2.00011e-05
7.91802e-05
-3.7732e-05
-5.26014e-05
0.000107641
-6.27851e-07
1.30085e-05
-1.95383e-06
3.26146e-05
-3.48641e-06
4.73855e-05
-4.72026e-06
5.73421e-05
-5.13342e-06
6.24982e-05
-4.18669e-06
6.29054e-05
-1.32186e-06
5.86518e-05
4.03876e-06
4.98846e-05
1.24891e-05
3.68468e-05
2.46283e-05
1.993e-05
4.10356e-05
-2.53319e-07
6.22197e-05
-2.27732e-05
8.85351e-05
-4.63165e-05
0.000120076
-6.92731e-05
-8.90005e-05
0.000156475
-4.63728e-07
1.34722e-05
-1.30003e-06
3.34509e-05
-1.99995e-06
4.80854e-05
-2.03774e-06
5.73799e-05
-8.67136e-07
6.13276e-05
2.08061e-06
5.99576e-05
7.40018e-06
5.33323e-05
1.5715e-05
4.15698e-05
2.76771e-05
2.48847e-05
4.39595e-05
3.64766e-06
6.5233e-05
-2.15269e-05
9.21141e-05
-4.96543e-05
0.000125066
-7.92685e-05
0.00016426
-0.000108467
-0.00013405
0.00020931
-2.87823e-07
1.376e-05
-5.97979e-07
3.37611e-05
-4.02355e-07
4.78898e-05
8.46596e-07
5.6131e-05
3.72067e-06
5.84535e-05
8.81903e-06
5.48593e-05
1.67734e-05
4.53779e-05
2.82535e-05
3.00897e-05
4.39702e-05
9.168e-06
6.46731e-05
-1.70552e-05
9.11317e-05
-4.79855e-05
0.000124084
-8.26065e-05
0.000164126
-0.00011931
0.000211534
-0.000155876
-0.000188432
0.000265916
-1.0024e-07
1.38603e-05
1.51767e-07
3.35091e-05
1.30488e-06
4.67367e-05
3.92988e-06
5.35059e-05
8.6251e-06
5.37583e-05
1.60207e-05
4.74636e-05
2.67856e-05
3.4613e-05
4.1635e-05
1.52403e-05
6.1338e-05
-1.05349e-05
8.67205e-05
-4.24378e-05
0.000118655
-7.992e-05
0.000158014
-0.000121966
0.000205554
-0.00016685
0.000261695
-0.000212017
-0.000252802
0.000326065
9.91268e-08
1.37611e-05
9.49098e-07
3.26591e-05
3.12125e-06
4.45645e-05
7.2108e-06
4.94164e-05
1.38437e-05
4.71254e-05
2.36816e-05
3.76257e-05
3.74302e-05
2.08644e-05
5.58487e-05
-3.17809e-06
7.97611e-05
-3.44474e-05
0.000110067
-7.27439e-05
0.000147742
-0.000117595
0.000193803
-0.000168026
0.000249193
-0.000222241
0.000314533
-0.000277357
-0.0003278
0.000389532
3.10374e-07
1.34508e-05
1.79431e-06
3.11752e-05
5.04682e-06
4.1312e-05
1.0689e-05
4.37742e-05
1.93756e-05
3.84389e-05
3.18005e-05
2.52008e-05
4.87055e-05
3.95945e-06
7.08912e-05
-2.53638e-05
9.92324e-05
-6.27887e-05
0.000134695
-0.000108207
0.000178352
-0.000161251
0.000231366
-0.000221041
0.000294898
-0.000285773
0.000369832
-0.00035229
-0.000414016
0.000456048
5.33776e-07
1.2917e-05
2.68772e-06
2.90212e-05
7.08185e-06
3.69179e-05
1.43646e-05
3.64914e-05
2.52209e-05
2.75826e-05
4.03776e-05
1.0044e-05
6.06126e-05
-1.62755e-05
8.67655e-05
-5.15167e-05
0.000119755
-9.57785e-05
0.000160604
-0.000149056
0.000210467
-0.000211114
0.000270648
-0.000281222
0.000342542
-0.000357667
0.000427373
-0.000437121
-0.000511978
0.000525335
7.69518e-07
1.21475e-05
3.62952e-06
2.61612e-05
9.22614e-06
3.13213e-05
1.82367e-05
2.74808e-05
3.13782e-05
1.44412e-05
4.94121e-05
-7.98997e-06
7.31527e-05
-4.0016e-05
0.000103477
-8.18408e-05
0.000141341
-0.000133643
0.000187809
-0.000195524
0.000244098
-0.000267403
0.000311628
-0.000348752
0.000392031
-0.00043807
0.000486951
-0.000532041
-0.000622122
0.000597096
1.01767e-06
1.11298e-05
4.6194e-06
2.25595e-05
1.14784e-05
2.44623e-05
2.23027e-05
1.66565e-05
3.78433e-05
-1.09946e-06
5.8899e-05
-2.90457e-05
8.63222e-05
-6.74392e-05
0.000121027
-0.000116545
0.000164001
-0.000176617
0.000216337
-0.00024786
0.000279283
-0.000330349
0.000354333
-0.000423802
0.000443326
-0.000527064
0.000548387
-0.000637102
-0.000744755
0.000671019
1.27809e-06
9.85171e-06
5.65622e-06
1.81814e-05
1.38354e-05
1.62831e-05
2.65562e-05
3.9358e-06
4.46063e-05
-1.91496e-05
6.88252e-05
-5.32645e-05
0.000100107
-9.87208e-05
0.000139404
-0.000155843
0.000187738
-0.000224951
0.000246215
-0.000306337
0.000316082
-0.000400216
0.000398847
-0.000506566
0.000496477
-0.000624694
0.000611578
-0.000752202
-0.000879974
0.000746797
1.55031e-06
8.30141e-06
6.73768e-06
1.2994e-05
1.62915e-05
6.72931e-06
3.09862e-05
-1.0759e-05
5.16495e-05
-3.9813e-05
7.91651e-05
-8.07801e-05
0.000114475
-0.00013403
0.000158577
-0.000199945
0.000212528
-0.000278902
0.000277448
-0.000371258
0.00035456
-0.000477328
0.000445309
-0.000597314
0.000551658
-0.000731044
0.000676571
-0.000877115
-0.00102756
0.00082416
1.83349e-06
6.46792e-06
7.86013e-06
6.96735e-06
1.88376e-05
-4.2482e-06
3.5576e-05
-2.74973e-05
5.89451e-05
-6.3182e-05
8.98773e-05
-0.000111712
0.000129368
-0.000173521
0.000178473
-0.00024905
0.000238299
-0.000338727
0.000309992
-0.000442951
0.000394748
-0.000562084
0.000493889
-0.000696455
0.000609198
-0.000846352
0.000743668
-0.00101159
-0.00118691
0.000903015
2.12639e-06
4.34153e-06
9.01845e-06
7.52927e-08
2.14618e-05
-1.66915e-05
4.03023e-05
-4.63379e-05
6.64538e-05
-8.93335e-05
0.000100901
-0.00014616
0.0001447
-0.000217321
0.000198976
-0.000303326
0.000264908
-0.000404659
0.000343709
-0.000521752
0.000436586
-0.000654961
0.000544746
-0.000804615
0.000669601
-0.000971208
0.000813527
-0.00115551
-0.00135727
0.000983885
2.42741e-06
1.91412e-06
1.02062e-05
-7.70347e-06
2.41487e-05
-3.0634e-05
4.51359e-05
-6.73251e-05
7.41254e-05
-0.000118323
0.000112155
-0.000184189
0.000160348
-0.000265513
0.000219908
-0.000362885
0.000292116
-0.000476867
0.000378309
-0.000607945
0.000479831
-0.000756483
0.000597965
-0.000922749
0.000733801
-0.00110704
0.000887838
-0.00130955
-0.00153784
0.00106841
2.73462e-06
-8.20502e-07
1.14158e-05
-1.63847e-05
2.68805e-05
-4.60987e-05
5.00424e-05
-9.0487e-05
8.19e-05
-0.000150181
0.000123542
-0.000225832
0.000176155
-0.000318126
0.000241028
-0.000427758
0.000319561
-0.0005554
0.000413278
-0.000701663
0.000523843
-0.000867048
0.000653103
-0.00105201
0.000802988
-0.00125693
0.000972919
-0.00147948
-0.00172224
0.00115732
3.04607e-06
-3.86657e-06
1.26394e-05
-2.5978e-05
2.96383e-05
-6.30975e-05
5.49849e-05
-0.000115834
8.97128e-05
-0.000184908
0.000134953
-0.000271073
0.000191946
-0.000375118
0.00026205
-0.000497862
0.000346773
-0.000640124
0.000447828
-0.000802717
0.000567261
-0.000986481
0.00070777
-0.00119252
0.000873623
-0.00142278
0.00107551
-0.00168136
-0.00199659
0.00134986
3.35962e-06
-7.22619e-06
1.38687e-05
-3.64871e-05
3.24024e-05
-8.16313e-05
5.99251e-05
-0.000143356
9.74961e-05
-0.000222479
0.000146276
-0.000319852
0.000207536
-0.000436378
0.000282674
-0.000573
0.000373248
-0.000730698
0.000481048
-0.000910517
0.000608251
-0.00111368
0.000757733
-0.001342
0.000933771
-0.00159882
0.00114373
-0.00189132
-0.00224247
0.00138961
3.67345e-06
-1.08996e-05
1.50961e-05
-4.79097e-05
3.51548e-05
-0.00010169
6.48279e-05
-0.000173029
0.000105189
-0.00026284
0.000157409
-0.000372073
0.000222764
-0.000501734
0.000302646
-0.000652882
0.000398585
-0.000826637
0.0005123
-0.00102423
0.000645788
-0.00124717
0.000801442
-0.00149765
0.000982092
-0.00177947
0.00119056
-0.00209978
-0.00247419
0.00142228
3.98599e-06
-1.48856e-05
1.63151e-05
-6.02388e-05
3.78795e-05
-0.000123254
6.96624e-05
-0.000204812
0.000112737
-0.000305915
0.000168267
-0.000427602
0.000237502
-0.000570969
0.000321781
-0.000737161
0.000422534
-0.00092739
0.000541289
-0.00114299
0.000679677
-0.00138556
0.000839357
-0.00165733
0.00102168
-0.00196179
0.00122667
-0.00230477
-0.00269614
0.00144861
4.29599e-06
-1.91816e-05
1.75201e-05
-7.34629e-05
4.0563e-05
-0.000146297
7.44023e-05
-0.000238652
0.000120097
-0.00035161
0.000178782
-0.000486287
0.000251654
-0.00064384
0.000339958
-0.000825466
0.000444968
-0.0010324
0.000567952
-0.00126597
0.0007101
-0.00152771
0.000872343
-0.00181958
0.0010549
-0.00214435
0.00125629
-0.00250617
-0.00291076
0.00147091
4.60253e-06
-2.37842e-05
1.87067e-05
-8.7567e-05
4.31941e-05
-0.000170785
7.90264e-05
-0.000274484
0.000127235
-0.000399818
0.000188905
-0.000547957
0.000265155
-0.000720091
0.000357107
-0.000917418
0.000465842
-0.00114113
0.000592333
-0.00139246
0.000737329
-0.0016727
0.000901128
-0.00198338
0.00108314
-0.00232635
0.00128113
-0.00270416
-0.0031196
0.00148997
4.90489e-06
-2.8689e-05
1.98712e-05
-0.000102533
4.57635e-05
-0.000196677
8.35167e-05
-0.000312237
0.00013412
-0.000450421
0.000198593
-0.00061243
0.000277956
-0.000799454
0.000373183
-0.00101264
0.00048514
-0.00125309
0.000614501
-0.00152182
0.000761601
-0.0018198
0.000926215
-0.00214799
0.00110719
-0.00250733
0.00130192
-0.0028989
-0.0033234
0.00150572
5.2025e-06
-3.38915e-05
2.10106e-05
-0.000118341
4.82631e-05
-0.00022393
8.78578e-05
-0.000351832
0.000140729
-0.000503292
0.000207815
-0.000679516
0.000290019
-0.000881658
0.000388151
-0.00111078
0.000502855
-0.0013678
0.000634507
-0.00165347
0.000783069
-0.00196837
0.000947892
-0.00231281
0.00112742
-0.00268685
0.00131886
-0.00309034
-0.00352239
0.00151785
5.49477e-06
-3.93863e-05
2.21215e-05
-0.000134968
5.06846e-05
-0.000252493
9.20342e-05
-0.000393181
0.000147036
-0.000558294
0.000216536
-0.000749016
0.000301304
-0.000966426
0.000401975
-0.00121145
0.000518965
-0.00148479
0.000652363
-0.00178687
0.000801798
-0.0021178
0.000966269
-0.00247728
0.00114393
-0.00286451
0.00133186
-0.00327828
-0.00371648
0.00152596
5.78101e-06
-4.51673e-05
2.32006e-05
-0.000152388
5.30196e-05
-0.000282312
9.60297e-05
-0.000436191
0.000153018
-0.000615282
0.000224721
-0.000820718
0.000311767
-0.00105347
0.000414607
-0.00131429
0.000533425
-0.0016036
0.000668038
-0.00192148
0.000817773
-0.00226754
0.00098133
-0.00264084
0.00115663
-0.00303981
0.00134071
-0.00346235
-0.00390537
0.0015296
6.06033e-06
-5.12276e-05
2.42437e-05
-0.000170571
5.52581e-05
-0.000313326
9.98262e-05
-0.00048076
0.000158644
-0.0006741
0.00023233
-0.000894404
0.000321358
-0.0011425
0.000425987
-0.00141892
0.000546171
-0.00172379
0.000681465
-0.00205678
0.00083092
-0.00241699
0.000992981
-0.0028029
0.00116539
-0.00321222
0.00134512
-0.00364208
-0.00408862
0.00152836
6.33159e-06
-5.75592e-05
2.52461e-05
-0.000189486
5.73886e-05
-0.000345469
0.000103403
-0.000526774
0.000163883
-0.00073458
0.000239316
-0.000969837
0.000330015
-0.0012332
0.00043604
-0.00152494
0.000557116
-0.00184486
0.000692546
-0.00219221
0.000841128
-0.00256558
0.00100108
-0.00296285
0.00117
-0.00338114
0.00134483
-0.00381692
-0.00426568
0.0015219
6.59334e-06
-6.41526e-05
2.62018e-05
-0.000209094
5.9398e-05
-0.000378665
0.000106736
-0.000574112
0.000168698
-0.000796542
0.000245629
-0.00104677
0.000337672
-0.00132524
0.000444683
-0.00163195
0.000566161
-0.00196634
0.000701168
-0.00232721
0.000848265
-0.00271267
0.00100548
-0.00312007
0.00117028
-0.00354594
0.00133961
-0.00398625
-0.004436
0.00150993
6.84389e-06
-7.09965e-05
2.71042e-05
-0.000229354
6.12714e-05
-0.000412832
0.0001098
-0.00062264
0.000173048
-0.00085979
0.000251212
-0.00112493
0.000344254
-0.00141828
0.000451827
-0.00173953
0.000573201
-0.00208772
0.000707209
-0.00246122
0.000852198
-0.00285766
0.00100602
-0.00327389
0.00116606
-0.00370598
0.00132927
-0.00414946
-0.00459899
0.00149226
7.08125e-06
-7.80777e-05
2.79459e-05
-0.000250219
6.29924e-05
-0.000447879
0.000112566
-0.000672214
0.000176891
-0.000924115
0.000256005
-0.00120405
0.000349685
-0.00151196
0.000457377
-0.00184722
0.000578129
-0.00220847
0.000710553
-0.00259365
0.000852801
-0.00299991
0.00100258
-0.00342367
0.00115721
-0.0038606
0.00131369
-0.00430594
-0.0047541
0.00146879
7.30326e-06
-8.5381e-05
2.87187e-05
-0.000271634
6.45436e-05
-0.000483703
0.000115003
-0.000722673
0.000180181
-0.000989293
0.000259948
-0.00128381
0.000353889
-0.00160591
0.000461242
-0.00195457
0.000580841
-0.00232807
0.00071109
-0.0027239
0.000849967
-0.00313879
0.000995059
-0.00356876
0.00114365
-0.00400919
0.0012928
-0.00445509
-0.00490079
0.0014395
7.50756e-06
-9.28885e-05
2.9414e-05
-0.000293541
6.59067e-05
-0.000520196
0.000117083
-0.000773849
0.000182874
-0.00105508
0.000262979
-0.00136392
0.00035679
-0.00169972
0.000463337
-0.00206112
0.000581245
-0.00244598
0.00070873
-0.00285138
0.000843615
-0.00327367
0.000983395
-0.00370854
0.00112535
-0.00415114
0.00126663
-0.00459638
-0.0050386
0.00140444
7.69171e-06
-0.00010058
3.00231e-05
-0.000315872
6.70632e-05
-0.000557236
0.000118772
-0.000825558
0.000184926
-0.00112124
0.000265042
-0.00144404
0.000358319
-0.00179299
0.000463583
-0.00216638
0.000579265
-0.00256166
0.000703403
-0.00297552
0.000833692
-0.00340396
0.000967566
-0.00384241
0.00110232
-0.0042859
0.00123525
-0.00472931
-0.00516711
0.00136376
7.85322e-06
-0.000108433
3.05371e-05
-0.000338556
6.79949e-05
-0.000594694
0.000120043
-0.000877607
0.000186294
-0.00118749
0.000266083
-0.00152382
0.000358414
-0.00188533
0.000461917
-0.00226988
0.000574838
-0.00267458
0.000695061
-0.00309574
0.000820179
-0.00352908
0.000947592
-0.00396983
0.00107465
-0.00441295
0.00119878
-0.00485345
-0.00528598
0.00131766
7.98961e-06
-0.000116423
3.09473e-05
-0.000361514
6.8684e-05
-0.000632431
0.000120867
-0.000929789
0.000186938
-0.00125356
0.000266052
-0.00160294
0.000357021
-0.00197629
0.000458286
-0.00237115
0.000567923
-0.00278422
0.000683686
-0.00321151
0.00080309
-0.00364848
0.000923531
-0.00409027
0.00104244
-0.00453186
0.00115742
-0.00496843
-0.00539495
0.00126638
8.09844e-06
-0.000124522
3.12453e-05
-0.000384661
6.91138e-05
-0.000670299
0.000121216
-0.000981892
0.000186825
-0.00131917
0.000264911
-0.00168102
0.000354098
-0.00206548
0.000452654
-0.0024697
0.000558501
-0.00289006
0.000669285
-0.00332229
0.000782472
-0.00376167
0.000895484
-0.00420328
0.00100585
-0.00464223
0.00111138
-0.00507395
-0.0054938
0.00121023
8.17742e-06
-0.000132699
3.14234e-05
-0.000407907
6.92691e-05
-0.000708145
0.000121069
-0.00103369
0.000185924
-0.00138402
0.000262624
-0.00175772
0.000349616
-0.00215247
0.000445001
-0.00256509
0.000546572
-0.00299163
0.000651891
-0.00342761
0.000758403
-0.00386818
0.000863582
-0.00430846
0.000965092
-0.00474374
0.00106093
-0.00516979
-0.00558242
0.00114955
8.22438e-06
-0.000140923
3.14743e-05
-0.000431157
6.91363e-05
-0.000745807
0.000120406
-0.00108496
0.000184211
-0.00144783
0.000259168
-0.00183268
0.000343555
-0.00223686
0.000435325
-0.00265686
0.000532161
-0.00308847
0.000631565
-0.00352701
0.000730989
-0.0039676
0.000827989
-0.00440546
0.00092038
-0.00483613
0.00100637
-0.00525578
-0.00566073
0.00108468
8.23735e-06
-0.000149161
3.13918e-05
-0.000454311
6.87038e-05
-0.000783119
0.000119209
-0.00113547
0.000181669
-0.00151029
0.000254529
-0.00190554
0.000335912
-0.00231824
0.000423642
-0.00274459
0.00051531
-0.00318014
0.000608389
-0.00362009
0.000700366
-0.00405958
0.000788898
-0.00449399
0.000871969
-0.0049192
0.000948013
-0.00533182
-0.00572873
0.00101601
8.21459e-06
-0.000157375
3.11705e-05
-0.000477267
6.79622e-05
-0.00081991
0.000117468
-0.00118497
0.000178285
-0.00157111
0.000248702
-0.00197596
0.000326696
-0.00239624
0.000409981
-0.00282787
0.000496085
-0.00326624
0.000582472
-0.00370648
0.00066669
-0.0041438
0.000746521
-0.00457382
0.000820132
-0.00499281
0.000886184
-0.00539788
-0.00578645
0.000943904
8.15596e-06
-0.000165531
3.08087e-05
-0.00049992
6.69084e-05
-0.00085601
0.000115179
-0.00123324
0.000174063
-0.00162999
0.000241697
-0.00204359
0.000315936
-0.00247048
0.0003944
-0.00290634
0.000474577
-0.00334642
0.00055395
-0.00378585
0.000630148
-0.00422
0.0007011
-0.00464477
0.000765165
-0.00505688
0.000821232
-0.00545394
-0.00583398
0.000868766
8.05778e-06
-0.000173589
3.02982e-05
-0.00052216
6.55305e-05
-0.000891242
0.00011233
-0.00128004
0.000168991
-0.00168665
0.000233517
-0.00210812
0.000303651
-0.00254061
0.000376945
-0.00297963
0.000450868
-0.00342034
0.000522946
-0.00385793
0.000590913
-0.00428796
0.000652857
-0.00470672
0.00070734
-0.00511136
0.000753473
-0.00550008
-0.00587145
0.000790946
7.92042e-06
-0.000181509
2.96394e-05
-0.000543879
6.38301e-05
-0.000925433
0.000108927
-0.00132514
0.000163087
-0.00174081
0.000224192
-0.00216922
0.000289895
-0.00260631
0.0003577
-0.00304744
0.000425082
-0.00348772
0.00048963
-0.00392248
0.000549202
-0.00434754
0.000602058
-0.00475957
0.000646966
-0.00515627
0.000683255
-0.00553636
-0.00589902
0.000710825
7.74329e-06
-0.000189253
2.88314e-05
-0.000564967
6.18081e-05
-0.00095841
0.000104976
-0.00136831
0.000156365
-0.0017922
0.000213755
-0.00222661
0.000274726
-0.00266729
0.000336756
-0.00310947
0.000397346
-0.00354831
0.000454172
-0.0039793
0.00050523
-0.00439859
0.00054896
-0.0048033
0.00058434
-0.00519165
0.000610908
-0.00556293
-0.00591687
0.000628755
7.52611e-06
-0.000196779
2.78745e-05
-0.000585316
5.94676e-05
-0.000990003
0.000100486
-0.00140933
0.000148849
-0.00184056
0.000202249
-0.00228001
0.000258212
-0.00272325
0.000314213
-0.00316547
0.000367801
-0.0036019
0.000416754
-0.00402826
0.000459219
-0.00444106
0.000493826
-0.00483791
0.000519756
-0.00521758
0.000536751
-0.00557993
-0.00592519
0.000545075
7.26892e-06
-0.000204048
2.67702e-05
-0.000604817
5.68146e-05
-0.00102005
9.54723e-05
-0.00144798
0.000140568
-0.00188566
0.000189722
-0.00232917
0.000240431
-0.00277396
0.000290183
-0.00321522
0.000336595
-0.00364832
0.000377564
-0.00406923
0.000411397
-0.00447489
0.000436916
-0.00486343
0.000453503
-0.00523417
0.000461092
-0.00558752
-0.00592421
0.000460107
6.97211e-06
-0.00021102
2.55213e-05
-0.000623366
5.38573e-05
-0.00104838
8.9954e-05
-0.00148408
0.000131555
-0.00192726
0.000176231
-0.00237384
0.000221467
-0.00281919
0.000264784
-0.00325854
0.000303885
-0.00368742
0.000336795
-0.00410214
0.000361992
-0.00450009
0.000378488
-0.00487992
0.000385862
-0.00524154
0.000384226
-0.00558588
-0.00591414
0.000374154
6.6364e-06
-0.000217656
2.41316e-05
-0.000640861
5.06067e-05
-0.00107486
8.39531e-05
-0.00151743
0.000121852
-0.00196516
0.000161841
-0.00241383
0.000201413
-0.00285877
0.000238142
-0.00329527
0.000269831
-0.0037191
0.000294645
-0.00412695
0.000311234
-0.00451668
0.000318797
-0.00488749
0.000317104
-0.00523985
0.000306434
-0.00557521
-0.0058952
0.000287496
6.2628e-06
-0.000223919
2.26062e-05
-0.000657205
4.70756e-05
-0.00109933
7.74958e-05
-0.00154785
0.000111503
-0.00199917
0.000146621
-0.00244895
0.000180368
-0.00289251
0.00021039
-0.00332529
0.000234601
-0.00374331
0.000251313
-0.00414366
0.000259348
-0.00452471
0.000258091
-0.00488623
0.000247488
-0.00522924
0.000227979
-0.0055557
-0.00586762
0.000200398
5.85265e-06
-0.000229772
2.0951e-05
-0.000672303
4.3279e-05
-0.00112166
7.06112e-05
-0.00157518
0.000100556
-0.00202911
0.000130643
-0.00247904
0.000158436
-0.00292031
0.000181664
-0.00334852
0.000198362
-0.00376001
0.000206998
-0.0041523
0.000206561
-0.00452427
0.000196612
-0.00487628
0.000177265
-0.0052099
0.0001491
-0.00552754
-0.00583162
0.000113103
5.40755e-06
-0.000235179
1.91731e-05
-0.000686069
3.9234e-05
-0.00114172
6.33312e-05
-0.00159928
8.90644e-05
-0.00205484
0.000113987
-0.00250396
0.000135723
-0.00294204
0.000152101
-0.00336489
0.000161286
-0.0037692
0.000161898
-0.00415291
0.000153094
-0.00451547
0.000134601
-0.00485779
0.000106692
-0.00518199
7.00247e-05
-0.00549087
-0.0057871
2.55031e-05
4.92938e-06
-0.000240109
1.72803e-05
-0.000698419
3.49589e-05
-0.0011594
5.56901e-05
-0.00162001
7.70827e-05
-0.00207624
9.67316e-05
-0.00252361
0.000112338
-0.00295765
0.000121841
-0.0033744
0.000123541
-0.0037709
0.000116211
-0.00414558
9.91637e-05
-0.00449842
7.22856e-05
-0.00483091
3.60159e-05
-0.00514572
-8.71366e-06
-0.00544614
-0.00573462
-6.1195e-05
4.42025e-06
-0.000244529
1.52811e-05
-0.00070928
3.04737e-05
-0.00117459
4.7724e-05
-0.00163726
6.46683e-05
-0.00209318
7.89603e-05
-0.0025379
8.83932e-05
-0.00296708
9.1025e-05
-0.00337703
8.5297e-05
-0.00376517
7.01285e-05
-0.00413041
4.49814e-05
-0.00447328
9.88259e-06
-0.00479581
-3.46115e-05
-0.00510122
-8.75614e-05
-0.00539319
-0.00567456
-0.000147624
3.88245e-06
-0.000248411
1.31848e-05
-0.000718583
2.57992e-05
-0.0011872
3.94704e-05
-0.00165093
5.18797e-05
-0.00210559
6.07563e-05
-0.00254678
6.39981e-05
-0.00297032
5.97915e-05
-0.00337282
4.67188e-05
-0.0037521
2.38417e-05
-0.00410753
-9.24386e-06
-0.00444019
-5.23881e-05
-0.00475267
-0.000104918
-0.00504869
-0.000165744
-0.00533236
-0.00560681
-0.000233493
3.31845e-06
-0.00025173
1.10011e-05
-0.000726265
2.09572e-05
-0.00119716
3.09676e-05
-0.00166094
3.87761e-05
-0.0021134
4.22027e-05
-0.0025502
3.92624e-05
-0.00296738
2.82766e-05
-0.00336184
7.96928e-06
-0.00373179
-2.24638e-05
-0.0040771
-6.33082e-05
-0.00439935
-0.000114312
-0.00470166
-0.000174702
-0.0049883
-0.000243269
-0.0052638
-0.00553153
-0.000318543
2.73088e-06
-0.000254461
8.73991e-06
-0.000732274
1.59698e-05
-0.00120439
2.22545e-05
-0.00166722
2.54165e-05
-0.00211656
2.33817e-05
-0.00254817
1.4293e-05
-0.00295829
-3.38696e-06
-0.00334416
-3.07948e-05
-0.00370438
-6.86078e-05
-0.00403929
-0.000117012
-0.00435094
-0.000175679
-0.004643
-0.000243759
-0.00492022
-0.000319939
-0.00518762
-0.00544886
-0.000402607
2.12247e-06
-0.000256583
6.41161e-06
-0.000736564
1.08595e-05
-0.00120884
1.33696e-05
-0.00166973
1.18592e-05
-0.00211505
4.37335e-06
-0.00254068
-1.08073e-05
-0.00294311
-3.50739e-05
-0.00331989
-6.94228e-05
-0.00367004
-0.000114416
-0.0039943
-0.00017016
-0.0042952
-0.000236278
-0.00457688
-0.00031188
-0.00484462
-0.00039556
-0.00510394
-0.0053589
-0.000485524
1.49609e-06
-0.000258079
4.0266e-06
-0.000739094
5.64871e-06
-0.00121046
4.35121e-06
-0.00166844
-1.83912e-06
-0.00210886
-1.47459e-05
-0.00252778
-3.59404e-05
-0.00292192
-6.66633e-05
-0.00328917
-0.000107773
-0.00362893
-0.000159725
-0.00394234
-0.000222563
-0.00423236
-0.000295899
-0.00450354
-0.000378845
-0.00476167
-0.000469936
-0.00501285
-0.0052617
-0.00056714
8.55314e-07
-0.000258935
1.59503e-06
-0.000739834
3.59358e-07
-0.00120922
-4.7638e-06
-0.00166331
-1.56246e-05
-0.002098
-3.39026e-05
-0.0025095
-6.10143e-05
-0.00289481
-9.80449e-05
-0.00325214
-0.000145715
-0.00358126
-0.000204379
-0.00388368
-0.000274039
-0.0041627
-0.00035433
-0.00442325
-0.000444426
-0.00467158
-0.00054286
-0.00491441
-0.00515725
-0.000647303
1.99381e-07
-0.000259134
-8.72956e-07
-0.000738761
-4.98672e-06
-0.00120511
-1.39393e-05
-0.00165436
-2.94444e-05
-0.00208249
-5.30282e-05
-0.00248591
-8.59442e-05
-0.00286189
-0.000129119
-0.00320896
-0.000183132
-0.00352724
-0.000248242
-0.00381857
-0.00032442
-0.00408652
-0.00041136
-0.00433631
-0.000508375
-0.00457456
-0.000614099
-0.00480869
-0.00504549
-0.000725861
-4.66957e-07
-0.000258667
-3.36667e-06
-0.000735862
-1.03685e-05
-0.00119811
-2.31406e-05
-0.00164159
-4.32494e-05
-0.00206238
-7.20588e-05
-0.00245711
-0.000110653
-0.0028233
-0.000159796
-0.00315982
-0.000219924
-0.00346711
-0.000291195
-0.0037473
-0.000373555
-0.00400416
-0.000466782
-0.00424309
-0.000570418
-0.00447093
-0.00068338
-0.00469573
-0.0049262
-0.000802674
-1.13646e-06
-0.000257531
-5.87653e-06
-0.000731122
-1.57656e-05
-0.00118822
-3.23346e-05
-0.00162502
-5.69932e-05
-0.00203773
-9.09357e-05
-0.00242316
-0.000135073
-0.00277916
-0.00019
-0.00310489
-0.000256009
-0.0034011
-0.000333149
-0.00367016
-0.000421326
-0.00391599
-0.000520411
-0.004144
-0.000630262
-0.00436108
-0.000750369
-0.00457562
-0.00479896
-0.000877609
-1.81213e-06
-0.000255718
-8.39306e-06
-0.000724541
-2.1158e-05
-0.00117545
-4.14894e-05
-0.00160469
-7.06319e-05
-0.00200858
-0.000109604
-0.00238419
-0.000159141
-0.00272962
-0.000219669
-0.00304436
-0.000291327
-0.00332945
-0.000374043
-0.00358744
-0.000467658
-0.00382237
-0.000572102
-0.00403956
-0.000687599
-0.00424558
-0.000814604
-0.00444861
-0.00466321
-0.000950356
-2.48968e-06
-0.000253229
-1.09067e-05
-0.000716124
-2.65267e-05
-0.00115983
-5.05747e-05
-0.00158064
-8.41237e-05
-0.00197503
-0.000128014
-0.0023403
-0.000182803
-0.00267483
-0.000248747
-0.00297842
-0.000325833
-0.00325236
-0.000413854
-0.00349942
-0.00051254
-0.00372368
-0.000621787
-0.00393031
-0.000742102
-0.00412527
-0.000875186
-0.00431553
-0.00451773
-0.00102067
-3.16634e-06
-0.000250062
-1.34079e-05
-0.000705882
-3.18526e-05
-0.00114139
-5.95606e-05
-0.00155293
-9.74288e-05
-0.00193717
-0.000146117
-0.00229161
-0.000206006
-0.00261494
-0.000277189
-0.00290724
-0.000359501
-0.00317005
-0.000452594
-0.00340633
-0.000556049
-0.00362023
-0.000669587
-0.00381677
-0.000793589
-0.00400126
-0.000930877
-0.00417824
-0.00435922
-0.00108939
-3.8375e-06
-0.000246225
-1.5884e-05
-0.000693836
-3.71123e-05
-0.00112016
-6.84123e-05
-0.00152163
-0.000110501
-0.00189508
-0.000163859
-0.00223825
-0.000228692
-0.00255011
-0.000304938
-0.00283099
-0.000392294
-0.00308269
-0.000490283
-0.00330834
-0.000598347
-0.00351216
-0.000715991
-0.00369913
-0.000842821
-0.00387443
-0.000977773
-0.00404329
-0.00421183
-0.00112516
-4.50421e-06
-0.000241721
-1.8333e-05
-0.000680007
-4.2298e-05
-0.00109619
-7.71141e-05
-0.00148682
-0.000123317
-0.00184887
-0.000181208
-0.00218036
-0.000250826
-0.00248049
-0.00033196
-0.00274986
-0.000424186
-0.00299047
-0.000526928
-0.0032056
-0.000639557
-0.00339953
-0.0007615
-0.00357719
-0.000892296
-0.00374364
-0.00103168
-0.00390391
-0.0040614
-0.00118211
-5.16195e-06
-0.000236559
-2.07424e-05
-0.000664426
-4.73869e-05
-0.00106955
-8.56325e-05
-0.00144857
-0.000135832
-0.00179867
-0.00019811
-0.00211808
-0.000272345
-0.00240626
-0.000358184
-0.00266402
-0.000455094
-0.00289356
-0.000562425
-0.00309827
-0.000679502
-0.00328246
-0.000805736
-0.00345095
-0.000940708
-0.00360867
-0.00108433
-0.00376029
-0.00390848
-0.00123725
-5.80824e-06
-0.00023075
-2.31037e-05
-0.000647131
-5.23623e-05
-0.00104029
-9.39412e-05
-0.00140699
-0.000148011
-0.0017446
-0.000214522
-0.00205157
-0.000293195
-0.00232758
-0.000383547
-0.00257367
-0.00048494
-0.00279216
-0.000596656
-0.00298655
-0.000717983
-0.00316113
-0.000848304
-0.00332063
-0.000987176
-0.00346979
-0.00113441
-0.00361305
-0.00375288
-0.00129
-6.4407e-06
-0.00022431
-2.54086e-05
-0.000628163
-5.72082e-05
-0.00100849
-0.000102015
-0.00136218
-0.00015982
-0.0016868
-0.000230402
-0.00198099
-0.000313328
-0.00224466
-0.000407989
-0.002479
-0.000513652
-0.0026865
-0.000629531
-0.00287067
-0.00075487
-0.00303579
-0.000889019
-0.00318648
-0.00103148
-0.00332733