/*--------------------------------*- C++ -*----------------------------------*\
  =========                 |
  \\      /  F ield         | OpenFOAM: The Open Source CFD Toolbox
   \\    /   O peration     | Website:  https://openfoam.org
    \\  /    A nd           | Version:  7
     \\/     M anipulation  |
\*---------------------------------------------------------------------------*/
FoamFile
{
    version     2.0;
    format      ascii;
    class       volScalarField;
    location    "75";
    object      p;
}
// * * * * * * * * * * * * * * * * * * * * * * * * * * * * * * * * * * * * * //

dimensions      [0 2 -2 0 0 0 0];

internalField   nonuniform List<scalar> 
34000
(
-0.160837
-0.161787
-0.162364
-0.162852
-0.163276
-0.163641
-0.163967
-0.164272
-0.164566
-0.164861
-0.165164
-0.16548
-0.165815
-0.166175
-0.166565
-0.166994
-0.167472
-0.168011
-0.168624
-0.169326
-0.160318
-0.161328
-0.161937
-0.16245
-0.162893
-0.163272
-0.163608
-0.163917
-0.16421
-0.164496
-0.164784
-0.165076
-0.165378
-0.165694
-0.166027
-0.166385
-0.166774
-0.167205
-0.167686
-0.168232
-0.159841
-0.160907
-0.161546
-0.162084
-0.162545
-0.162937
-0.16328
-0.163591
-0.163881
-0.164158
-0.164428
-0.164696
-0.164963
-0.165232
-0.165506
-0.16579
-0.166088
-0.166408
-0.166755
-0.167139
-0.159409
-0.160529
-0.161197
-0.161756
-0.162234
-0.162638
-0.162987
-0.163299
-0.163584
-0.16385
-0.164102
-0.164343
-0.164573
-0.164794
-0.165008
-0.165216
-0.165421
-0.165628
-0.165838
-0.166057
-0.159028
-0.160198
-0.160893
-0.161472
-0.161965
-0.162378
-0.162733
-0.163044
-0.163323
-0.163577
-0.163809
-0.164021
-0.164214
-0.164386
-0.164537
-0.164667
-0.164778
-0.164872
-0.164944
-0.164994
-0.158701
-0.159917
-0.160636
-0.161234
-0.16174
-0.162161
-0.16252
-0.16283
-0.163102
-0.163342
-0.163553
-0.163736
-0.163889
-0.164011
-0.164098
-0.16415
-0.164166
-0.164146
-0.164079
-0.16396
-0.158432
-0.159691
-0.160432
-0.161045
-0.161563
-0.161991
-0.162351
-0.162659
-0.162922
-0.163148
-0.163338
-0.16349
-0.163603
-0.163673
-0.163697
-0.16367
-0.163589
-0.163456
-0.163251
-0.162961
-0.158224
-0.159522
-0.160282
-0.160909
-0.161437
-0.16187
-0.162231
-0.162534
-0.162789
-0.162999
-0.163166
-0.163287
-0.163359
-0.163378
-0.163336
-0.16323
-0.163054
-0.162807
-0.162466
-0.162007
-0.158082
-0.159413
-0.160189
-0.160828
-0.161364
-0.1618
-0.162161
-0.162459
-0.162703
-0.162897
-0.163041
-0.16313
-0.163161
-0.163127
-0.163021
-0.162835
-0.162564
-0.162206
-0.16173
-0.161102
-0.158008
-0.159367
-0.160158
-0.160806
-0.161347
-0.161785
-0.162144
-0.162436
-0.162669
-0.162845
-0.162965
-0.163022
-0.163012
-0.162925
-0.162753
-0.162489
-0.162123
-0.161655
-0.161047
-0.160251
-0.158004
-0.159387
-0.160188
-0.160844
-0.161388
-0.161827
-0.162182
-0.162466
-0.162687
-0.162846
-0.162941
-0.162966
-0.162913
-0.162773
-0.162537
-0.162193
-0.161734
-0.161159
-0.160421
-0.159461
-0.158073
-0.159474
-0.160284
-0.160944
-0.16149
-0.161927
-0.162277
-0.162553
-0.16276
-0.162901
-0.16297
-0.162963
-0.162868
-0.162675
-0.162374
-0.161952
-0.1614
-0.160719
-0.159855
-0.158732
-0.158218
-0.159631
-0.160446
-0.161107
-0.161653
-0.162086
-0.16243
-0.162696
-0.16289
-0.163011
-0.163055
-0.163014
-0.162877
-0.162631
-0.162265
-0.161765
-0.161121
-0.160338
-0.159351
-0.158067
-0.158439
-0.15986
-0.160675
-0.161336
-0.161879
-0.162307
-0.162643
-0.162898
-0.163077
-0.163178
-0.163197
-0.163122
-0.162942
-0.162644
-0.162213
-0.161636
-0.160901
-0.160016
-0.15891
-0.157465
-0.158738
-0.16016
-0.160974
-0.161631
-0.162168
-0.16259
-0.162916
-0.163159
-0.163322
-0.163403
-0.163395
-0.163287
-0.163065
-0.162713
-0.162218
-0.161563
-0.160738
-0.159754
-0.158531
-0.156926
-0.159116
-0.160533
-0.161342
-0.161992
-0.162522
-0.162934
-0.16325
-0.16348
-0.163626
-0.163686
-0.163651
-0.163509
-0.163244
-0.16284
-0.16228
-0.161547
-0.160632
-0.159551
-0.158214
-0.156446
-0.159574
-0.160979
-0.161779
-0.16242
-0.16294
-0.163341
-0.163644
-0.163859
-0.163988
-0.164027
-0.163965
-0.163788
-0.163481
-0.163023
-0.162398
-0.161588
-0.160582
-0.159404
-0.157956
-0.156021
-0.16011
-0.161499
-0.162286
-0.162915
-0.163422
-0.16381
-0.164099
-0.164298
-0.164408
-0.164424
-0.164335
-0.164125
-0.163774
-0.163264
-0.162573
-0.161684
-0.160586
-0.159312
-0.157753
-0.155643
-0.160726
-0.162091
-0.162862
-0.163476
-0.163967
-0.16434
-0.164613
-0.164795
-0.164886
-0.164879
-0.164761
-0.164517
-0.164123
-0.163559
-0.162803
-0.161834
-0.160642
-0.15927
-0.157602
-0.155304
-0.161419
-0.162755
-0.163506
-0.164101
-0.164574
-0.164929
-0.165185
-0.165348
-0.165418
-0.165388
-0.165242
-0.164963
-0.164527
-0.163908
-0.163085
-0.162035
-0.160747
-0.159275
-0.157498
-0.154993
-0.162189
-0.163489
-0.164218
-0.16479
-0.165243
-0.165577
-0.165813
-0.165956
-0.166005
-0.16595
-0.165776
-0.165462
-0.164982
-0.16431
-0.163419
-0.162286
-0.160898
-0.159322
-0.157436
-0.154698
-0.163035
-0.164293
-0.164994
-0.165542
-0.16597
-0.166282
-0.166496
-0.166617
-0.166643
-0.166563
-0.16636
-0.16601
-0.165487
-0.16476
-0.163801
-0.162583
-0.16109
-0.159405
-0.157411
-0.154404
-0.163955
-0.165164
-0.165834
-0.166353
-0.166754
-0.167042
-0.167231
-0.167328
-0.167329
-0.167223
-0.16699
-0.166606
-0.16604
-0.165258
-0.164228
-0.162922
-0.161321
-0.159519
-0.157419
-0.154085
-0.164945
-0.166101
-0.166736
-0.167223
-0.167594
-0.167853
-0.168015
-0.168087
-0.168062
-0.167928
-0.167665
-0.167245
-0.166635
-0.165798
-0.164698
-0.163302
-0.161586
-0.15966
-0.157456
-0.153686
-0.166005
-0.167101
-0.167697
-0.168148
-0.168486
-0.168713
-0.168846
-0.168889
-0.168836
-0.168674
-0.168379
-0.167923
-0.16727
-0.166377
-0.165206
-0.163718
-0.161882
-0.159822
-0.157526
-0.153189
-0.16713
-0.168162
-0.168715
-0.169127
-0.169427
-0.16962
-0.16972
-0.169732
-0.169649
-0.169456
-0.169129
-0.168636
-0.167938
-0.16699
-0.165747
-0.164165
-0.162206
-0.159998
-0.157572
-0.152896
-0.16832
-0.169281
-0.169788
-0.170156
-0.170415
-0.170569
-0.170634
-0.170611
-0.170495
-0.170269
-0.169908
-0.169378
-0.168636
-0.167632
-0.166317
-0.16464
-0.162553
-0.160191
-0.157577
-0.152534
-0.169569
-0.170456
-0.170913
-0.171234
-0.171448
-0.171559
-0.171584
-0.171523
-0.171371
-0.17111
-0.170712
-0.170143
-0.169356
-0.168297
-0.16691
-0.165137
-0.162919
-0.160395
-0.157604
-0.152061
-0.170877
-0.171684
-0.172087
-0.172357
-0.172521
-0.172586
-0.172566
-0.172464
-0.172271
-0.171972
-0.171536
-0.170926
-0.170092
-0.168978
-0.167518
-0.16565
-0.1633
-0.160603
-0.157648
-0.151496
-0.17224
-0.172963
-0.173309
-0.173523
-0.173633
-0.173647
-0.173578
-0.173429
-0.173192
-0.17285
-0.172372
-0.171719
-0.170837
-0.169667
-0.168136
-0.166173
-0.16369
-0.160812
-0.157698
-0.150849
-0.173655
-0.174291
-0.174576
-0.17473
-0.174781
-0.174738
-0.174615
-0.174414
-0.174129
-0.17374
-0.173216
-0.172516
-0.171585
-0.170357
-0.168755
-0.166699
-0.164084
-0.161017
-0.157751
-0.150127
-0.175121
-0.175667
-0.175886
-0.175977
-0.175964
-0.175858
-0.175675
-0.175417
-0.175077
-0.174635
-0.174061
-0.173311
-0.172327
-0.17104
-0.169367
-0.16722
-0.164475
-0.161216
-0.157806
-0.149314
-0.176635
-0.177088
-0.177239
-0.17726
-0.177178
-0.177005
-0.176755
-0.176434
-0.176033
-0.175533
-0.174903
-0.174098
-0.173058
-0.171709
-0.169965
-0.167729
-0.164859
-0.161407
-0.157859
-0.148469
-0.178196
-0.178554
-0.178633
-0.178581
-0.178423
-0.178176
-0.177854
-0.177462
-0.176993
-0.176429
-0.175737
-0.174871
-0.17377
-0.172358
-0.170541
-0.168218
-0.165227
-0.161589
-0.157896
-0.147592
-0.179804
-0.180065
-0.180068
-0.179937
-0.179699
-0.17937
-0.178969
-0.178499
-0.177956
-0.17732
-0.17656
-0.175627
-0.174461
-0.172981
-0.171091
-0.168682
-0.165577
-0.161767
-0.157905
-0.146719
-0.181459
-0.18162
-0.181544
-0.181329
-0.181004
-0.180588
-0.1801
-0.179546
-0.17892
-0.178205
-0.177369
-0.176363
-0.175125
-0.173574
-0.17161
-0.169119
-0.165906
-0.161951
-0.157876
-0.145939
-0.183162
-0.183221
-0.183062
-0.182758
-0.18234
-0.18183
-0.181248
-0.1806
-0.179885
-0.179083
-0.178164
-0.177078
-0.175763
-0.174137
-0.172098
-0.169531
-0.166216
-0.16216
-0.157761
-0.145286
-0.184914
-0.18487
-0.184623
-0.184226
-0.183709
-0.183097
-0.182413
-0.181665
-0.180852
-0.179956
-0.178945
-0.177773
-0.176376
-0.174671
-0.172558
-0.169922
-0.166525
-0.162434
-0.157448
-0.144618
-0.186718
-0.186568
-0.186231
-0.185735
-0.185112
-0.184392
-0.183598
-0.182742
-0.181823
-0.180825
-0.179716
-0.178451
-0.176965
-0.175179
-0.172995
-0.170306
-0.166872
-0.162877
-0.157012
-0.144372
-0.188577
-0.18832
-0.187888
-0.187287
-0.186552
-0.185716
-0.184806
-0.183834
-0.182802
-0.181694
-0.18048
-0.179115
-0.177535
-0.175665
-0.173413
-0.170689
-0.167283
-0.163591
-0.157259
-0.148563
-0.190497
-0.19013
-0.189598
-0.188887
-0.188033
-0.187075
-0.186041
-0.184946
-0.183794
-0.182569
-0.181244
-0.179771
-0.178093
-0.176134
-0.173813
-0.171065
-0.167718
-0.164424
-0.15878
-0.163486
-0.192482
-0.192001
-0.191366
-0.190538
-0.18956
-0.188474
-0.187309
-0.186084
-0.184804
-0.183456
-0.182012
-0.180427
-0.178643
-0.17659
-0.174195
-0.171418
-0.168115
-0.165157
-0.15977
-0.167181
-0.194538
-0.19394
-0.193196
-0.192247
-0.191139
-0.189916
-0.188614
-0.187254
-0.18584
-0.184363
-0.182794
-0.18109
-0.179194
-0.177039
-0.17456
-0.171736
-0.168436
-0.165641
-0.160293
-0.167603
-0.196673
-0.195952
-0.195095
-0.194019
-0.192774
-0.19141
-0.189965
-0.188462
-0.186909
-0.185297
-0.183598
-0.181768
-0.179752
-0.177486
-0.174909
-0.172013
-0.168669
-0.165881
-0.160513
-0.166987
-0.198894
-0.198045
-0.197069
-0.195861
-0.194472
-0.192962
-0.191368
-0.189718
-0.188021
-0.186268
-0.184432
-0.18247
-0.180326
-0.177937
-0.175243
-0.172245
-0.168809
-0.165899
-0.160444
-0.16562
-0.201209
-0.200225
-0.199125
-0.197778
-0.196241
-0.194578
-0.192831
-0.191029
-0.189183
-0.187284
-0.185306
-0.183204
-0.180922
-0.178395
-0.175565
-0.172431
-0.168853
-0.165717
-0.160113
-0.163759
-0.203627
-0.202499
-0.201269
-0.199778
-0.198088
-0.196268
-0.194363
-0.192404
-0.190404
-0.188355
-0.186228
-0.183978
-0.181546
-0.178865
-0.175875
-0.172569
-0.168803
-0.16536
-0.159562
-0.161623
-0.206155
-0.204876
-0.203509
-0.201868
-0.20002
-0.198038
-0.195971
-0.193852
-0.191694
-0.189489
-0.187207
-0.184799
-0.182203
-0.17935
-0.176173
-0.17266
-0.168662
-0.164853
-0.158831
-0.159356
-0.208802
-0.207362
-0.205852
-0.204056
-0.202044
-0.199897
-0.197664
-0.195381
-0.193061
-0.190695
-0.188249
-0.185672
-0.182897
-0.17985
-0.176461
-0.172706
-0.168437
-0.164221
-0.157954
-0.157051
-0.211577
-0.209965
-0.208306
-0.206349
-0.204169
-0.201851
-0.19945
-0.197
-0.194513
-0.191979
-0.189361
-0.186602
-0.18363
-0.180367
-0.176736
-0.172706
-0.168133
-0.163486
-0.156958
-0.154762
-0.214487
-0.212692
-0.210876
-0.208753
-0.2064
-0.20391
-0.201337
-0.198715
-0.196057
-0.193348
-0.190547
-0.187591
-0.184402
-0.180898
-0.176997
-0.17266
-0.167754
-0.162663
-0.155865
-0.152523
-0.21754
-0.215549
-0.213571
-0.211276
-0.208746
-0.20608
-0.203331
-0.200535
-0.1977
-0.194807
-0.19181
-0.18864
-0.185213
-0.181441
-0.177241
-0.172569
-0.167305
-0.161766
-0.154692
-0.150351
-0.220743
-0.218544
-0.216395
-0.213923
-0.211213
-0.208367
-0.20544
-0.202465
-0.199446
-0.19636
-0.193152
-0.189749
-0.186059
-0.181992
-0.177464
-0.17243
-0.16679
-0.160807
-0.153451
-0.148248
-0.224102
-0.221681
-0.219355
-0.216701
-0.213807
-0.210778
-0.207669
-0.204509
-0.201299
-0.198007
-0.194573
-0.190914
-0.186936
-0.182545
-0.177661
-0.172243
-0.16621
-0.159789
-0.152153
-0.14621
-0.227621
-0.224965
-0.222456
-0.219615
-0.216533
-0.213319
-0.210023
-0.206673
-0.203262
-0.19975
-0.19607
-0.192132
-0.187837
-0.183093
-0.177826
-0.172002
-0.165566
-0.158718
-0.150802
-0.144229
-0.231305
-0.2284
-0.225701
-0.222669
-0.219396
-0.215992
-0.212506
-0.208958
-0.205334
-0.201587
-0.197639
-0.193394
-0.188754
-0.183628
-0.177952
-0.171706
-0.164859
-0.157595
-0.149401
-0.14229
-0.235155
-0.231989
-0.229094
-0.225866
-0.222398
-0.218802
-0.21512
-0.211365
-0.207516
-0.203513
-0.199273
-0.194694
-0.189677
-0.18414
-0.178032
-0.171349
-0.164085
-0.156419
-0.147952
-0.14038
-0.239174
-0.235734
-0.232636
-0.22921
-0.225544
-0.22175
-0.217866
-0.213894
-0.209803
-0.205524
-0.200964
-0.19602
-0.190595
-0.184619
-0.178058
-0.170926
-0.163244
-0.155187
-0.146451
-0.138483
-0.243362
-0.239634
-0.236329
-0.2327
-0.228833
-0.224838
-0.220743
-0.216543
-0.212192
-0.207611
-0.202702
-0.19736
-0.191497
-0.185055
-0.178022
-0.170432
-0.162332
-0.153897
-0.144898
-0.136583
-0.247716
-0.24369
-0.240173
-0.236338
-0.232266
-0.228064
-0.22375
-0.219306
-0.214673
-0.209765
-0.204475
-0.198702
-0.192368
-0.185436
-0.177914
-0.169861
-0.161345
-0.152544
-0.143287
-0.134665
-0.252233
-0.247899
-0.244167
-0.240123
-0.235841
-0.231427
-0.226882
-0.222176
-0.217239
-0.211972
-0.206267
-0.200029
-0.193196
-0.18575
-0.177727
-0.169205
-0.160278
-0.151122
-0.141614
-0.132716
-0.256909
-0.252257
-0.248306
-0.244051
-0.239557
-0.234921
-0.230133
-0.225146
-0.219876
-0.214218
-0.208063
-0.201326
-0.193964
-0.185985
-0.17745
-0.16846
-0.159127
-0.149627
-0.139873
-0.130722
-0.261737
-0.256759
-0.252586
-0.248118
-0.243407
-0.238542
-0.233495
-0.228204
-0.222572
-0.216487
-0.209845
-0.202576
-0.194659
-0.18613
-0.177075
-0.167618
-0.157885
-0.148053
-0.138058
-0.128673
-0.266708
-0.261398
-0.257002
-0.252318
-0.247385
-0.24228
-0.236957
-0.231335
-0.225309
-0.21876
-0.211595
-0.203761
-0.195265
-0.186171
-0.176592
-0.166671
-0.156547
-0.146392
-0.136163
-0.126556
-0.271812
-0.266164
-0.261545
-0.256644
-0.251482
-0.246125
-0.240505
-0.234525
-0.228068
-0.221019
-0.213293
-0.204864
-0.195766
-0.186097
-0.175993
-0.165614
-0.155107
-0.144638
-0.134182
-0.124362
-0.277037
-0.271047
-0.266205
-0.261084
-0.255688
-0.250064
-0.244125
-0.237755
-0.23083
-0.223239
-0.214918
-0.205864
-0.196148
-0.185896
-0.175269
-0.164438
-0.153558
-0.142785
-0.132106
-0.122082
-0.282367
-0.276035
-0.270969
-0.265627
-0.259989
-0.254082
-0.247797
-0.241003
-0.233572
-0.2254
-0.216447
-0.206745
-0.196395
-0.185556
-0.174409
-0.163136
-0.151893
-0.140825
-0.12993
-0.119707
-0.287785
-0.281111
-0.275824
-0.270259
-0.264368
-0.258161
-0.251501
-0.244248
-0.236268
-0.227477
-0.217861
-0.207486
-0.196493
-0.185067
-0.173406
-0.1617
-0.150104
-0.138752
-0.127647
-0.11723
-0.293273
-0.286258
-0.280752
-0.274962
-0.268809
-0.262279
-0.255215
-0.247462
-0.238894
-0.229445
-0.219136
-0.208071
-0.196428
-0.184416
-0.17225
-0.160123
-0.148185
-0.136557
-0.125248
-0.114642
-0.298809
-0.291458
-0.285735
-0.279717
-0.273289
-0.266414
-0.258912
-0.25062
-0.241422
-0.231279
-0.22025
-0.208481
-0.196184
-0.183592
-0.170932
-0.158396
-0.146128
-0.134234
-0.122728
-0.111937
-0.304369
-0.296687
-0.290752
-0.284501
-0.277785
-0.270539
-0.262564
-0.253692
-0.243824
-0.232954
-0.221182
-0.208699
-0.195748
-0.182585
-0.169443
-0.15651
-0.143924
-0.131775
-0.12008
-0.109108
-0.309927
-0.301923
-0.295779
-0.289292
-0.282271
-0.274627
-0.266141
-0.256648
-0.246071
-0.234443
-0.221911
-0.208707
-0.195107
-0.181384
-0.167773
-0.154459
-0.141567
-0.129173
-0.117295
-0.106148
-0.315456
-0.307139
-0.30079
-0.29406
-0.286718
-0.278647
-0.269612
-0.259457
-0.248134
-0.235721
-0.222414
-0.208488
-0.194247
-0.179977
-0.165914
-0.152232
-0.139047
-0.126419
-0.114367
-0.10305
-0.320923
-0.312306
-0.305756
-0.298779
-0.291096
-0.282566
-0.272944
-0.262087
-0.249984
-0.236764
-0.222673
-0.208027
-0.193156
-0.178354
-0.163855
-0.149822
-0.136358
-0.123507
-0.111289
-0.0998088
-0.326298
-0.317393
-0.310646
-0.303414
-0.29537
-0.28635
-0.276101
-0.264504
-0.251591
-0.237546
-0.222666
-0.207308
-0.191821
-0.176506
-0.161588
-0.14722
-0.13349
-0.120428
-0.108054
-0.0964175
-0.331545
-0.322368
-0.315429
-0.307934
-0.299507
-0.289962
-0.279049
-0.266675
-0.252926
-0.238043
-0.222376
-0.206316
-0.19023
-0.17442
-0.159103
-0.144418
-0.130436
-0.117176
-0.104655
-0.0928702
-0.336628
-0.327196
-0.320069
-0.312301
-0.303469
-0.293366
-0.28175
-0.268569
-0.253961
-0.238232
-0.221782
-0.205035
-0.188371
-0.172087
-0.156392
-0.141406
-0.127188
-0.113743
-0.101086
-0.0891613
-0.341509
-0.33184
-0.324529
-0.316479
-0.307216
-0.296523
-0.28417
-0.27015
-0.254669
-0.238092
-0.220869
-0.203453
-0.186232
-0.169498
-0.153444
-0.138176
-0.123738
-0.110122
-0.0973398
-0.0852853
-0.346148
-0.336263
-0.328771
-0.320428
-0.310711
-0.299393
-0.28627
-0.271389
-0.255022
-0.237599
-0.219619
-0.201555
-0.183802
-0.166641
-0.150251
-0.134721
-0.120079
-0.106305
-0.0934105
-0.0812367
-0.350506
-0.340425
-0.332756
-0.324107
-0.313912
-0.301938
-0.288015
-0.272252
-0.254994
-0.236735
-0.218015
-0.199329
-0.18107
-0.163508
-0.146804
-0.131031
-0.116203
-0.102288
-0.0892921
-0.0770107
-0.354541
-0.344286
-0.336442
-0.327477
-0.316778
-0.304119
-0.289371
-0.272712
-0.254562
-0.23548
-0.216044
-0.196763
-0.178026
-0.160089
-0.143095
-0.1271
-0.112102
-0.098062
-0.0849789
-0.0726023
-0.35821
-0.347804
-0.339789
-0.330494
-0.319267
-0.305896
-0.290301
-0.272737
-0.253702
-0.233815
-0.21369
-0.193844
-0.174659
-0.156375
-0.139116
-0.12292
-0.107771
-0.0936223
-0.0804655
-0.0680071
-0.36147
-0.350937
-0.342753
-0.333116
-0.321339
-0.307231
-0.290772
-0.2723
-0.252392
-0.231724
-0.21094
-0.190562
-0.170961
-0.152358
-0.134858
-0.118482
-0.103202
-0.0889628
-0.075747
-0.063221
-0.36428
-0.353644
-0.345294
-0.335301
-0.322953
-0.308087
-0.290754
-0.271376
-0.250613
-0.229191
-0.207781
-0.186906
-0.166922
-0.148029
-0.130314
-0.113782
-0.0983905
-0.0840783
-0.0708186
-0.0582402
-0.366596
-0.355882
-0.347367
-0.337007
-0.324069
-0.308429
-0.290215
-0.269941
-0.248344
-0.226202
-0.204203
-0.182867
-0.162533
-0.143381
-0.125478
-0.108812
-0.0933297
-0.0789638
-0.0656762
-0.0530613
-0.368376
-0.35761
-0.348932
-0.338194
-0.324649
-0.308222
-0.289126
-0.267971
-0.245569
-0.222742
-0.200194
-0.178436
-0.157787
-0.138407
-0.120342
-0.103567
-0.088015
-0.073615
-0.0603161
-0.0476813
-0.36958
-0.358787
-0.349947
-0.33882
-0.324656
-0.307434
-0.287463
-0.265447
-0.242272
-0.218801
-0.195745
-0.173604
-0.152677
-0.1331
-0.114901
-0.0980416
-0.0824417
-0.0680277
-0.0547347
-0.0420978
-0.370168
-0.359372
-0.350373
-0.338849
-0.324053
-0.306035
-0.285199
-0.262349
-0.238439
-0.214367
-0.190847
-0.168365
-0.147196
-0.127455
-0.109151
-0.0922308
-0.0766058
-0.0621985
-0.0489292
-0.0363082
-0.370101
-0.359328
-0.350172
-0.338242
-0.322809
-0.303996
-0.282314
-0.258661
-0.234058
-0.209431
-0.185493
-0.162712
-0.141338
-0.121466
-0.103085
-0.086131
-0.0705039
-0.0561245
-0.0428971
-0.0303107
-0.369342
-0.358616
-0.349305
-0.336966
-0.320892
-0.301293
-0.278787
-0.254369
-0.229119
-0.203986
-0.179677
-0.156639
-0.135099
-0.115129
-0.0967013
-0.0797388
-0.0641332
-0.0498032
-0.0366366
-0.0241041
-0.367856
-0.357202
-0.34774
-0.334987
-0.318274
-0.297902
-0.274601
-0.249459
-0.223611
-0.198023
-0.173392
-0.150142
-0.128475
-0.10844
-0.0899959
-0.0730515
-0.0574914
-0.0432326
-0.030147
-0.0176899
-0.365611
-0.355054
-0.345443
-0.332276
-0.314929
-0.293802
-0.269741
-0.243922
-0.217529
-0.191539
-0.166636
-0.143218
-0.121463
-0.101398
-0.0829667
-0.0660673
-0.0505764
-0.0364097
-0.0234264
-0.0110694
-0.362577
-0.352139
-0.342384
-0.328805
-0.310834
-0.288977
-0.264195
-0.237749
-0.210866
-0.18453
-0.159405
-0.135864
-0.11406
-0.0940004
-0.0756125
-0.0587853
-0.043387
-0.0293315
-0.0164694
-0.00423288
-0.358726
-0.348431
-0.338537
-0.32455
-0.30597
-0.283412
-0.257953
-0.230934
-0.20362
-0.176992
-0.151697
-0.128079
-0.106266
-0.0862463
-0.0679331
-0.0512058
-0.0359241
-0.0220004
-0.009274
0.00285618
-0.354034
-0.343904
-0.333877
-0.31949
-0.300319
-0.277095
-0.251007
-0.223473
-0.195787
-0.168926
-0.143512
-0.119863
-0.0980814
-0.0781363
-0.0599291
-0.0433296
-0.0281907
-0.014431
-0.0018704
0.0102404
-0.348479
-0.338536
-0.328384
-0.313607
-0.293868
-0.270017
-0.243353
-0.215364
-0.187368
-0.160331
-0.134851
-0.111217
-0.0895064
-0.0696714
-0.0516016
-0.0351579
-0.0201892
-0.00663208
0.00569555
0.017841
-0.342044
-0.332308
-0.322039
-0.306886
-0.286607
-0.262172
-0.234989
-0.206608
-0.178364
-0.15121
-0.125716
-0.102143
-0.0805433
-0.0608539
-0.0429528
-0.0266929
-0.0119219
0.00142103
0.013621
0.0254609
-0.334712
-0.325205
-0.314828
-0.299316
-0.278529
-0.253558
-0.225915
-0.197206
-0.168778
-0.141566
-0.116111
-0.0926433
-0.0711955
-0.0516869
-0.0339859
-0.0179384
-0.00339112
0.00972012
0.0217403
0.0332937
-0.326474
-0.317214
-0.30674
-0.290889
-0.269629
-0.244173
-0.216133
-0.187163
-0.158616
-0.131405
-0.10604
-0.0827239
-0.0614673
-0.0421748
-0.0247054
-0.00889882
0.00540014
0.0182578
0.0300581
0.0413404
-0.31732
-0.308327
-0.297768
-0.281601
-0.259907
-0.234021
-0.205648
-0.176485
-0.147883
-0.120732
-0.0955087
-0.0723899
-0.0513642
-0.0323229
-0.0151164
0.00042114
0.0144465
0.0270266
0.0385789
0.0495916
-0.307247
-0.298538
-0.287908
-0.27145
-0.249365
-0.223107
-0.194468
-0.165181
-0.136588
-0.109555
-0.0845253
-0.0616482
-0.0408928
-0.0221375
-0.0052251
0.0100155
0.0237419
0.0360205
0.0473029
0.0580375
-0.296253
-0.287846
-0.27716
-0.260439
-0.238009
-0.21144
-0.182603
-0.153259
-0.124742
-0.0978837
-0.0730983
-0.050507
-0.0300607
-0.0116259
0.0049615
0.0198774
0.0332797
0.0452335
0.0562267
0.06667
-0.284341
-0.276253
-0.265527
-0.248573
-0.225848
-0.19903
-0.170064
-0.140734
-0.112355
-0.085729
-0.0612374
-0.0389756
-0.0188767
-0.000796524
0.0154353
0.029999
0.0430522
0.0546587
0.0653444
0.0754815
-0.271518
-0.263764
-0.253016
-0.235863
-0.212893
-0.18589
-0.156866
-0.127617
-0.09944
-0.0731027
-0.0489539
-0.0270643
-0.00735057
0.0103412
0.0261873
0.0403716
0.0530511
0.0642883
0.0746486
0.0844639
-0.257793
-0.250389
-0.239636
-0.222321
-0.199158
-0.172036
-0.143024
-0.113926
-0.0860124
-0.0600182
-0.0362601
-0.0147847
0.00450677
0.0217771
0.0372076
0.0509856
0.063267
0.0741136
0.0841309
0.0936088
-0.243179
-0.236139
-0.225403
-0.207961
-0.184662
-0.157487
-0.128558
-0.0996761
-0.0720876
-0.0464905
-0.0231697
-0.00214934
0.0166835
0.0334997
0.0484853
0.0618305
0.0736898
0.0841245
0.0937816
0.102907
-0.227693
-0.22103
-0.210331
-0.192804
-0.169424
-0.142264
-0.113486
-0.0848872
-0.0576835
-0.0325355
-0.00969734
0.010828
0.0291667
0.045497
0.0600087
0.0728951
0.0843082
0.0943103
0.10359
0.112346
-0.211355
-0.205083
-0.194443
-0.176869
-0.153467
-0.126389
-0.0978311
-0.0695794
-0.0428187
-0.0181704
0.00414099
0.0241326
0.0419428
0.057756
0.0717656
0.0841671
0.0951104
0.104659
0.113543
0.121915
-0.194188
-0.188318
-0.17776
-0.160182
-0.136816
-0.109887
-0.0816145
-0.053776
-0.0275135
-0.00341371
0.0183284
0.037749
0.0549971
0.0702629
0.0837427
0.0956338
0.106083
0.115158
0.123628
0.131598
-0.176218
-0.170762
-0.160309
-0.14277
-0.119499
-0.0927813
-0.0648653
-0.0374995
-0.0117895
0.011715
0.0328469
0.0516604
0.0683143
0.0830034
0.0959264
0.107282
0.117214
0.125794
0.133831
0.141377
-0.157474
-0.152442
-0.142118
-0.124664
-0.101548
-0.0751011
-0.0476084
-0.0207747
0.0043308
0.0271949
0.0476777
0.0658496
0.0818783
0.0959624
0.108303
0.119098
0.128488
0.136552
0.144133
0.151233
-0.137987
-0.133391
-0.12322
-0.105895
-0.0829814
-0.0568858
-0.0298728
-0.00362791
0.0208234
0.0430043
0.0628007
0.0802984
0.0956725
0.109125
0.120857
0.131067
0.139892
0.147417
0.154519
0.161138
-0.117791
-0.113642
-0.103654
-0.0864882
-0.0638466
-0.0381598
-0.0116881
0.0139135
0.0376633
0.0591204
0.0781953
0.0949876
0.109679
0.122474
0.133574
0.143176
0.151411
0.158375
0.164968
0.171059
-0.0969216
-0.093234
-0.083461
-0.0664726
-0.0441746
-0.0189574
0.00691433
0.031821
0.0548245
0.0755195
0.0938397
0.109898
0.123881
0.135994
0.14644
0.155411
0.163032
0.169413
0.175459
0.180953
-0.0754163
-0.0722022
-0.0626356
-0.0459342
-0.024005
0.000686249
0.0259021
0.0500647
0.07228
0.092177
0.109712
0.125008
0.138259
0.149669
0.15944
0.167759
0.174743
0.180519
0.185978
0.190789
-0.0533086
-0.0505977
-0.0412633
-0.0248748
-0.00337497
0.0207343
0.0452418
0.0686141
0.0900017
0.109067
0.125788
0.140298
0.152794
0.163482
0.17256
0.180208
0.186533
0.191688
0.196522
0.200539
-0.0306391
-0.0284699
-0.0193839
-0.00333986
0.0176756
0.0411494
0.0648987
0.0874375
0.107961
0.126164
0.142044
0.155745
0.167467
0.177415
0.185785
0.192745
0.198393
0.20292
0.207082
0.210092
-0.00750349
-0.00582538
0.0029642
0.0186249
0.0391055
0.0618928
0.0848373
0.106502
0.126127
0.14344
0.158455
0.171327
0.182257
0.191451
0.199101
0.20536
0.210325
0.214236
0.217618
0.219167
0.016066
0.0172828
0.0257365
0.0409744
0.0608725
0.0829251
0.105021
0.125775
0.144471
0.160867
0.174997
0.187021
0.197144
0.205571
0.212492
0.218046
0.222346
0.22568
0.228101
0.227555
0.0400469
0.0407869
0.0488853
0.0636629
0.0829332
0.104206
0.125414
0.145223
0.162961
0.178418
0.191641
0.202801
0.212103
0.219755
0.22594
0.230793
0.234468
0.237276
0.238621
0.236038
0.0643859
0.0646371
0.0723621
0.0866434
0.105243
0.125694
0.145976
0.164809
0.181565
0.196061
0.208362
0.218643
0.227114
0.23398
0.239424
0.243582
0.246661
0.248919
0.24915
0.247377
0.0890306
0.0887859
0.0961183
0.109869
0.127758
0.147348
0.166671
0.1845
0.200251
0.213769
0.225131
0.234521
0.24215
0.248223
0.252921
0.256387
0.258854
0.260509
0.260111
0.259117
0.113927
0.113182
0.120103
0.13329
0.150431
0.169126
0.187458
0.204259
0.218986
0.231509
0.241921
0.25041
0.257187
0.26246
0.266406
0.269177
0.271014
0.272045
0.271137
0.270241
0.139021
0.137772
0.144264
0.156858
0.173217
0.190984
0.2083
0.224052
0.237737
0.249253
0.258703
0.266282
0.272201
0.276667
0.279857
0.281929
0.28312
0.283529
0.28214
0.281042
0.164258
0.162504
0.168551
0.180523
0.196069
0.21288
0.229156
0.24384
0.256471
0.266969
0.275449
0.28211
0.287166
0.29082
0.293251
0.294616
0.295152
0.294937
0.293051
0.291612
0.189584
0.187325
0.192911
0.204235
0.218941
0.234771
0.249987
0.263589
0.275154
0.284625
0.29213
0.297869
0.302057
0.304896
0.306563
0.307218
0.30709
0.306247
0.303841
0.301984
0.214943
0.212179
0.21729
0.227945
0.241786
0.256613
0.270753
0.283261
0.293753
0.302192
0.308717
0.313531
0.316848
0.31887
0.319772
0.319712
0.318916
0.31744
0.314496
0.312175
0.240281
0.237014
0.241637
0.251602
0.264556
0.278364
0.291415
0.30282
0.312233
0.319638
0.325182
0.32907
0.331516
0.33272
0.332855
0.33208
0.330612
0.328499
0.325004
0.322193
0.265542
0.261775
0.265899
0.275156
0.287207
0.29998
0.311933
0.32223
0.330563
0.336933
0.341496
0.344459
0.346036
0.346424
0.345793
0.344301
0.34216
0.339409
0.335356
0.332039
0.290671
0.286407
0.290024
0.298557
0.30969
0.321418
0.332267
0.341456
0.348708
0.354045
0.35763
0.359672
0.360383
0.359957
0.358564
0.356357
0.353543
0.350154
0.345541
0.341707
0.315612
0.310857
0.313958
0.321756
0.33196
0.342637
0.352379
0.36046
0.366635
0.370945
0.373558
0.374684
0.374534
0.373299
0.371147
0.36823
0.364746
0.360721
0.35555
0.351193
0.340313
0.33507
0.33765
0.344705
0.353972
0.363594
0.372231
0.379207
0.384313
0.387602
0.38925
0.389468
0.388464
0.386428
0.383524
0.379901
0.375753
0.371096
0.365371
0.360487
0.364717
0.358994
0.361049
0.367354
0.37568
0.384248
0.391784
0.397664
0.401708
0.403987
0.40468
0.403999
0.402151
0.399322
0.395674
0.391353
0.386546
0.381266
0.374993
0.369581
0.388772
0.382577
0.384105
0.389655
0.397041
0.404558
0.411
0.415794
0.418789
0.42007
0.41982
0.418253
0.415572
0.411961
0.407578
0.402569
0.397112
0.391216
0.384403
0.378465
0.412426
0.405766
0.406767
0.411563
0.41801
0.424483
0.429844
0.433565
0.435526
0.435822
0.434645
0.432205
0.428704
0.424323
0.419218
0.413531
0.407433
0.400933
0.39359
0.387128
0.435626
0.428511
0.428986
0.43303
0.438545
0.443985
0.448278
0.450943
0.451886
0.451217
0.449128
0.44583
0.441525
0.436389
0.430575
0.424222
0.417496
0.410403
0.402541
0.39556
0.458322
0.450761
0.450715
0.454011
0.458604
0.463025
0.466267
0.467895
0.467841
0.466225
0.463243
0.459107
0.454013
0.448138
0.44163
0.434626
0.427286
0.419613
0.411245
0.40375
0.480464
0.472469
0.471906
0.474463
0.478146
0.481565
0.483777
0.48439
0.483361
0.480819
0.476966
0.472011
0.466148
0.459551
0.452366
0.444727
0.436787
0.42855
0.419688
0.411687
0.502004
0.493587
0.492514
0.494343
0.497132
0.499569
0.500774
0.500397
0.498417
0.494975
0.490273
0.48452
0.477909
0.47061
0.462766
0.454508
0.445985
0.437199
0.427859
0.419362
0.522895
0.514068
0.512495
0.513609
0.515523
0.517002
0.517225
0.515885
0.512982
0.508665
0.50314
0.496613
0.489276
0.481295
0.472812
0.463955
0.454866
0.445549
0.435746
0.426763
0.543091
0.533867
0.531806
0.532221
0.533281
0.533828
0.5331
0.530826
0.527029
0.521866
0.515544
0.508269
0.50023
0.49159
0.482489
0.473053
0.463416
0.453587
0.443336
0.433881
0.562548
0.552943
0.550405
0.550139
0.550371
0.550015
0.548366
0.545192
0.540532
0.534553
0.527463
0.519467
0.510751
0.501477
0.491781
0.481786
0.471622
0.4613
0.45062
0.440705
0.581223
0.571252
0.568253
0.567327
0.566758
0.565531
0.562996
0.558955
0.553467
0.546704
0.538876
0.530188
0.520822
0.510938
0.500671
0.490141
0.479471
0.468676
0.457584
0.447226
0.599077
0.588755
0.585311
0.583749
0.582409
0.580346
0.576961
0.57209
0.565808
0.558296
0.549763
0.540412
0.530425
0.519959
0.509146
0.498103
0.486951
0.475705
0.46422
0.453434
0.61607
0.605414
0.601542
0.59937
0.597291
0.594429
0.590234
0.584572
0.577534
0.569308
0.560103
0.550122
0.539544
0.528524
0.517191
0.505661
0.494049
0.482374
0.470516
0.459321
0.632165
0.621192
0.616912
0.614158
0.611376
0.607754
0.602789
0.596377
0.588623
0.57972
0.569879
0.559301
0.548164
0.536618
0.524793
0.512802
0.500754
0.488674
0.476463
0.464877
0.647327
0.636056
0.631389
0.628083
0.624635
0.620295
0.614603
0.607483
0.599055
0.589514
0.579073
0.567933
0.556268
0.544228
0.53194
0.519514
0.507056
0.494594
0.482051
0.470096
0.661523
0.649973
0.644941
0.641114
0.63704
0.632026
0.625653
0.61787
0.608808
0.59867
0.587669
0.576002
0.563843
0.55134
0.538618
0.525785
0.512943
0.500125
0.487271
0.474968
0.674722
0.662912
0.657538
0.653225
0.648567
0.642924
0.635917
0.627517
0.617867
0.607174
0.59565
0.583494
0.570876
0.557942
0.544817
0.531606
0.518408
0.505258
0.492116
0.479488
0.686896
0.674846
0.669156
0.664392
0.659193
0.652969
0.645375
0.636406
0.626213
0.615008
0.603003
0.590395
0.577354
0.564024
0.550527
0.536967
0.52344
0.509984
0.496577
0.483647
0.698018
0.685749
0.679767
0.67459
0.668895
0.66214
0.65401
0.64452
0.633832
0.622158
0.609714
0.596694
0.583266
0.569573
0.555737
0.541859