/*--------------------------------*- C++ -*----------------------------------*\
  =========                 |
  \\      /  F ield         | OpenFOAM: The Open Source CFD Toolbox
   \\    /   O peration     | Website:  https://openfoam.org
    \\  /    A nd           | Version:  7
     \\/     M anipulation  |
\*---------------------------------------------------------------------------*/
FoamFile
{
    version     2.0;
    format      ascii;
    class       volVectorField;
    location    "75";
    object      U;
}
// * * * * * * * * * * * * * * * * * * * * * * * * * * * * * * * * * * * * * //

dimensions      [0 1 -1 0 0 0 0];

internalField   nonuniform List<vector> 
34000
(
(-0.000140721 -0.00779372 -5.47904e-22)
(-0.00128265 -0.0212505 -2.952e-21)
(-0.00383869 -0.0330556 3.62956e-22)
(-0.0073439 -0.0432754 -6.30632e-22)
(-0.011625 -0.0520046 9.65676e-22)
(-0.016517 -0.0593667 -7.1228e-21)
(-0.0218597 -0.0655087 1.22431e-21)
(-0.0275129 -0.0705974 -4.83389e-21)
(-0.0333544 -0.074813 -1.04215e-20)
(-0.0392807 -0.0783392 8.92601e-21)
(-0.0452082 -0.0813549 2.65925e-21)
(-0.0510738 -0.084025 -3.19859e-21)
(-0.0568352 -0.0864935 3.93849e-21)
(-0.0624709 -0.0888789 5.40802e-21)
(-0.0679792 -0.0912715 -3.42552e-21)
(-0.0733773 -0.0937333 -4.63649e-21)
(-0.0786986 -0.0962997 -1.11579e-20)
(-0.083991 -0.0989813 -8.67922e-22)
(-0.0893087 -0.101764 -1.90898e-21)
(-0.0947105 -0.104613 -3.73654e-21)
(-1.73957e-05 -0.0073298 -2.66717e-21)
(-0.00100179 -0.0200214 2.23774e-21)
(-0.00350986 -0.0312024 -2.63305e-21)
(-0.00703924 -0.0409206 -5.92847e-21)
(-0.0114007 -0.0492591 4.8599e-21)
(-0.0164155 -0.0563299 2.96231e-20)
(-0.0219114 -0.0622684 -1.82824e-20)
(-0.0277386 -0.06723 3.13006e-21)
(-0.0337673 -0.0713829 1.49858e-20)
(-0.0398881 -0.0748992 -1.6503e-23)
(-0.0460132 -0.0779455 8.91325e-21)
(-0.0520768 -0.0806747 -1.18424e-20)
(-0.0580353 -0.0832187 1.24389e-20)
(-0.063867 -0.0856844 -1.07582e-20)
(-0.0695715 -0.0881513 -4.17701e-21)
(-0.0751674 -0.0906721 2.11573e-20)
(-0.0806902 -0.0932738 -6.61026e-21)
(-0.0861897 -0.0959612 1.03451e-21)
(-0.0917211 -0.0987176 -1.25489e-20)
(-0.0973462 -0.101503 -1.31911e-21)
(8.68101e-05 -0.0068342 -2.06004e-20)
(-0.00076908 -0.0187148 2.68413e-21)
(-0.00324858 -0.0292403 4.14163e-21)
(-0.00681364 -0.0384366 1.81964e-20)
(-0.0112598 -0.0463731 -2.12304e-20)
(-0.0163953 -0.053148 -3.31547e-20)
(-0.0220366 -0.0588833 3.02468e-20)
(-0.0280246 -0.0637216 -8.27708e-21)
(-0.0342224 -0.0678178 -4.19833e-21)
(-0.0405152 -0.0713311 -2.11528e-20)
(-0.0468112 -0.0744151 5.76469e-21)
(-0.0530419 -0.0772099 2.08921e-20)
(-0.0591627 -0.0798351 -4.33578e-21)
(-0.0651519 -0.0823854 1.72062e-20)
(-0.0710098 -0.0849297 -1.4211e-20)
(-0.076757 -0.0875107 -4.39075e-21)
(-0.082431 -0.090148 3.40204e-20)
(-0.0880837 -0.0928405 -2.12337e-21)
(-0.0937708 -0.0955696 5.34925e-20)
(-0.0995534 -0.0982928 -1.25295e-20)
(0.000170316 -0.0063089 3.36514e-20)
(-0.00058803 -0.0173358 -1.50779e-20)
(-0.00305907 -0.0271768 -1.05477e-20)
(-0.00667131 -0.035833 -8.05489e-21)
(-0.011206 -0.0433575 1.49239e-20)
(-0.0164592 -0.049833 -2.76725e-21)
(-0.0222369 -0.0553665 -5.0454e-20)
(-0.0283714 -0.0600857 -5.34049e-21)
(-0.0347193 -0.0641315 -1.11403e-20)
(-0.0411604 -0.067649 -1.71656e-21)
(-0.0475995 -0.0707783 -1.95795e-20)
(-0.0539657 -0.0736459 2.21672e-20)
(-0.0602133 -0.0763584 -3.29338e-20)
(-0.0663204 -0.0789985 -1.00598e-21)
(-0.0722887 -0.0816237 9.03951e-21)
(-0.0781401 -0.0842672 -7.0034e-20)
(-0.0839145 -0.0869409 -5.65266e-20)
(-0.0896665 -0.0896385 3.06762e-20)
(-0.0954515 -0.0923401 -4.14171e-20)
(-0.101326 -0.0950011 1.17183e-21)
(0.000231683 -0.00575613 -4.52242e-21)
(-0.000461808 -0.01589 5.95154e-20)
(-0.00294515 -0.0250202 2.7951e-20)
(-0.00661596 -0.0331201 -1.83168e-21)
(-0.0112424 -0.0402241 7.57318e-21)
(-0.0166096 -0.0463978 1.20947e-21)
(-0.0225135 -0.0517311 2.57952e-20)
(-0.0287792 -0.0563361 3.05657e-20)
(-0.0352567 -0.0603382 1.30029e-20)
(-0.0418216 -0.0638676 4.62013e-20)
(-0.048375 -0.0670499 -5.32364e-20)
(-0.0548442 -0.0699978 -1.12907e-20)
(-0.0611821 -0.0728044 2.37642e-20)
(-0.0673673 -0.07554 -4.13348e-20)
(-0.0734019 -0.0782504 1.88938e-20)
(-0.07931 -0.0809592 4.40036e-20)
(-0.0851336 -0.0836707 1.0766e-20)
(-0.0909306 -0.0863739 1.49962e-20)
(-0.0967559 -0.0890479 -2.41675e-20)
(-0.102659 -0.0916471 2.70205e-21)
(0.000269623 -0.00517833 -2.18307e-20)
(-0.000393213 -0.0143837 1.39341e-20)
(-0.0029101 -0.0227795 -2.29015e-20)
(-0.00665073 -0.0303086 6.64032e-21)
(-0.0113716 -0.0369852 1.86547e-20)
(-0.0168479 -0.0428554 8.5764e-21)
(-0.0228671 -0.0479912 1.61244e-20)
(-0.0292472 -0.0524871 -1.1389e-20)
(-0.0358331 -0.0564523 -7.03e-20)
(-0.042496 -0.0600014 -6.29625e-20)
(-0.0491342 -0.0632448 -4.09345e-20)
(-0.0556728 -0.0662808 1.55725e-20)
(-0.062064 -0.0691888 -8.91557e-21)
(-0.0682861 -0.0720259 6.79933e-20)
(-0.0743426 -0.0748265 -2.45093e-20)
(-0.0802591 -0.0776042 1.99749e-20)
(-0.0860802 -0.0803553 2.9219e-20)
(-0.0918676 -0.0830646 -1.6504e-20)
(-0.0976757 -0.085711 1.42652e-19)
(-0.103543 -0.0882481 -5.27927e-20)
(0.000283025 -0.00457818 2.64382e-20)
(-0.000384625 -0.0128235 -3.34844e-20)
(-0.00295665 -0.0204643 -5.13793e-20)
(-0.00677807 -0.0274104 -1.36362e-20)
(-0.0115953 -0.0336538 5.99644e-21)
(-0.0171751 -0.0392198 9.27966e-21)
(-0.0232973 -0.0441608 3.11075e-20)
(-0.0297743 -0.0485531 6.87964e-21)
(-0.036446 -0.0524884 2.40977e-21)
(-0.0431803 -0.056065 1.13024e-19)
(-0.0498726 -0.0593778 8.51003e-20)
(-0.0564462 -0.0625099 -5.10181e-20)
(-0.0628526 -0.0655267 -7.54771e-21)
(-0.06907 -0.0684722 -2.0399e-20)
(-0.0751028 -0.0713686 2.01479e-20)
(-0.0809786 -0.0742191 -1.06559e-19)
(-0.0867448 -0.0770122 -2.21662e-20)
(-0.0924675 -0.0797283 -3.34734e-20)
(-0.0982005 -0.0823465 -8.09302e-20)
(-0.103969 -0.0848201 4.37304e-20)
(0.000270961 -0.00395853 4.36334e-21)
(-0.000437973 -0.0112166 -1.62243e-20)
(-0.00308689 -0.0180846 4.63383e-20)
(-0.00699974 -0.0244374 -2.8576e-20)
(-0.0119147 -0.0302432 -1.59868e-20)
(-0.0175912 -0.0355052 2.55582e-20)
(-0.0238033 -0.0402547 -4.3527e-20)
(-0.0303583 -0.0445488 -6.00852e-21)
(-0.0370923 -0.0484612 8.29158e-20)
(-0.0438701 -0.0520731 -5.31593e-20)
(-0.0505848 -0.0554633 -2.19291e-20)
(-0.0571581 -0.0586997 2.59967e-20)
(-0.0635406 -0.0618333 -6.86368e-21)
(-0.0697105 -0.0648943 -3.58151e-21)
(-0.0756732 -0.0678925 2.93255e-20)
(-0.0814582 -0.0708204 -7.77106e-20)
(-0.0871158 -0.0736581 2.73921e-20)
(-0.0927178 -0.0763816 -2.06254e-20)
(-0.0983175 -0.0789704 -4.62023e-20)
(-0.103923 -0.0813776 1.67072e-20)
(0.00023271 -0.00332237 -1.23243e-20)
(-0.000554698 -0.00957036 8.92506e-20)
(-0.00330226 -0.015651 -1.98797e-20)
(-0.0073167 -0.0214024 1.22422e-20)
(-0.0123297 -0.0267675 8.89261e-20)
(-0.0180955 -0.0317262 -6.04629e-20)
(-0.0243831 -0.0362877 -2.97889e-20)
(-0.0309961 -0.0404891 -5.2033e-20)
(-0.0377678 -0.0443854 -5.71584e-20)
(-0.0445601 -0.0480401 -3.77686e-20)
(-0.0512644 -0.0515158 -5.11974e-20)
(-0.057801 -0.0548647 9.3446e-20)
(-0.0641194 -0.0581231 -1.04283e-20)
(-0.0701979 -0.0613072 -2.18105e-20)
(-0.0760427 -0.0644139 -1.1423e-19)
(-0.0816853 -0.0674243 6.42419e-20)
(-0.0871794 -0.0703094 1.612e-20)
(-0.0926032 -0.0730406 3.99439e-20)
(-0.0980102 -0.0755977 2.69762e-20)
(-0.103389 -0.0779333 -7.12109e-20)
(0.000167761 -0.00267289 -3.81823e-20)
(-0.000735723 -0.00789269 5.18388e-20)
(-0.0036035 -0.0131746 2.93925e-20)
(-0.0077291 -0.0183184 1.34249e-20)
(-0.0128398 -0.0232411 1.12343e-20)
(-0.0186861 -0.0278977 -4.04338e-20)
(-0.0250338 -0.032275 8.79268e-20)
(-0.0316838 -0.036389 4.99408e-21)
(-0.0384671 -0.0402756 8.19335e-20)
(-0.0452439 -0.0439804 -4.78861e-20)
(-0.0519038 -0.0475493 7.74491e-20)
(-0.0583659 -0.0510189 -7.6809e-20)
(-0.0645789 -0.0544103 -6.93937e-20)
(-0.0705207 -0.0577255 5.92892e-20)
(-0.0761982 -0.0609478 2.1049e-19)
(-0.0816451 -0.0640461 -1.16132e-19)
(-0.0869186 -0.0669817 9.5609e-20)
(-0.0921048 -0.0697206 2.19005e-20)
(-0.097258 -0.0722424 -8.24003e-20)
(-0.102345 -0.0744984 6.83808e-20)
(7.58343e-05 -0.00201335 6.92105e-20)
(-0.000981429 -0.00619163 -3.99043e-20)
(-0.00399058 -0.0106666 1.35602e-20)
(-0.00823621 -0.0151989 5.15123e-20)
(-0.0134433 -0.0196784 -4.78028e-20)
(-0.0193604 -0.0240349 9.40799e-20)
(-0.0257515 -0.0282317 -1.71617e-20)
(-0.0324162 -0.0322635 2.1919e-21)
(-0.0391839 -0.0361464 -1.13134e-19)
(-0.0459136 -0.0399081 7.18327e-20)
(-0.0524939 -0.0435777 1.65753e-20)
(-0.0588424 -0.0471758 -2.18291e-20)
(-0.0649069 -0.0507084 2.75687e-20)
(-0.070665 -0.0541629 -1.09212e-19)
(-0.0761241 -0.0575085 -6.10648e-20)
(-0.0813198 -0.0607008 1.28458e-19)
(-0.0863132 -0.0636901 -7.17323e-20)
(-0.0911996 -0.066436 -1.02239e-19)
(-0.0960351 -0.0689173 1.89692e-19)
(-0.100761 -0.0710825 -4.82587e-22)
(-4.31188e-05 -0.00134716 5.78173e-20)
(-0.00129163 -0.00447549 -7.32541e-20)
(-0.0044627 -0.00813863 -7.7031e-20)
(-0.00883638 -0.0120577 -3.69571e-20)
(-0.0141375 -0.0160946 -5.37522e-20)
(-0.0201144 -0.0201533 -3.05556e-20)
(-0.0265311 -0.0241733 -1.29696e-19)
(-0.0331866 -0.0281275 1.60304e-20)
(-0.0399102 -0.0320122 -5.55405e-20)
(-0.0465601 -0.0358371 1.95287e-19)
(-0.0530238 -0.0396142 -1.13902e-19)
(-0.0592181 -0.0433484 7.02458e-20)
(-0.0650894 -0.0470304 -2.15366e-20)
(-0.0706148 -0.0506327 1.18681e-19)
(-0.0758019 -0.0541096 9.76385e-21)
(-0.080688 -0.0574025 -1.0193e-19)
(-0.0853387 -0.0604489 -1.81615e-20)
(-0.0898595 -0.0632007 4.619e-21)
(-0.0943099 -0.0656346 -8.13687e-21)
(-0.0986026 -0.0676933 1.25491e-19)
(-0.000188902 -0.000677772 -7.20133e-20)
(-0.00166555 -0.00275277 -6.98335e-20)
(-0.00501827 -0.00560262 2.92285e-20)
(-0.009527 -0.00890871 7.34108e-20)
(-0.0149186 -0.0125047 -5.30683e-21)
(-0.0209433 -0.0162685 -5.10667e-20)
(-0.0273663 -0.0201153 1.1417e-19)
(-0.0339876 -0.0239961 -1.28866e-20)
(-0.0406369 -0.0278875 1.3996e-19)
(-0.0471724 -0.031781 -1.56314e-19)
(-0.053481 -0.0356717 4.13739e-20)
(-0.0594784 -0.0395491 4.9116e-20)
(-0.0651098 -0.0433886 -1.48027e-21)
(-0.0703511 -0.0471472 -8.19314e-22)
(-0.0752098 -0.0507639 -9.39225e-20)
(-0.0797249 -0.0541644 1.29055e-20)
(-0.0839661 -0.0572718 1.2561e-19)
(-0.0880512 -0.0600279 1.61027e-19)
(-0.0920441 -0.0624053 -1.90782e-19)
(-0.0958247 -0.0643373 -1.21065e-19)
(-0.000361073 -8.7146e-06 3.00882e-20)
(-0.00210183 -0.0010321 4.66769e-20)
(-0.00565487 -0.00307058 5.70757e-20)
(-0.0103045 -0.00576609 -9.70195e-20)
(-0.0157819 -0.00892403 1.02418e-19)
(-0.0218408 -0.012396 9.80416e-20)
(-0.0282493 -0.016073 -3.84897e-20)
(-0.0348097 -0.0198842 1.6906e-19)
(-0.0413529 -0.0237864 -1.71945e-19)
(-0.0477378 -0.0277529 7.65089e-20)
(-0.0538507 -0.0317628 7.8139e-20)
(-0.0596065 -0.0357898 -6.12627e-21)
(-0.0649488 -0.0397942 9.87379e-22)
(-0.0698519 -0.0437177 1.02993e-20)
(-0.0743227 -0.0474831 -7.35415e-20)
(-0.0784011 -0.050999 7.26019e-20)
(-0.0821616 -0.0541715 -3.7413e-20)
(-0.085735 -0.05693 -8.3816e-20)
(-0.0891922 -0.0592398 1.07895e-19)
(-0.0923745 -0.0610195 2.22491e-20)
(-0.000558937 0.000656452 -1.73853e-20)
(-0.00259849 0.000677825 2.18802e-20)
(-0.00636922 -0.00055461 -4.77309e-20)
(-0.0111643 -0.0026441 -7.15682e-20)
(-0.0167213 -0.00536797 -7.41514e-20)
(-0.0227995 -0.00855165 -6.7171e-20)
(-0.0291713 -0.0120621 1.09838e-19)
(-0.0356424 -0.0158067 -5.59033e-20)
(-0.0420459 -0.0197227 4.47814e-20)
(-0.0482417 -0.023766 4.94495e-21)
(-0.0541162 -0.0278993 -1.22657e-20)
(-0.0595831 -0.0320813 3.0666e-20)
(-0.0645843 -0.0362577 -5.98112e-20)
(-0.0690917 -0.0403545 3.14009e-20)
(-0.0731111 -0.0442777 1.011e-19)
(-0.0766829 -0.0479174 -1.47687e-19)
(-0.0798854 -0.05116 -9.41279e-20)
(-0.0828649 -0.0539187 1.23372e-19)
(-0.0857006 -0.0561479 -7.21524e-20)
(-0.0881886 -0.0577438 -1.09352e-19)
(-0.000781546 0.00131416 6.39349e-20)
(-0.00315295 0.00236827 -6.60108e-20)
(-0.00715723 0.00193311 5.37057e-20)
(-0.0121009 0.000442938 8.66948e-20)
(-0.0177299 -0.00185194 -1.60591e-20)
(-0.0238108 -0.00475119 -5.76198e-20)
(-0.0301219 -0.00809797 -1.07977e-19)
(-0.0364733 -0.0117783 -8.24319e-20)
(-0.0427013 -0.0157104 -1.6656e-19)
(-0.0486673 -0.0198327 1.69895e-20)
(-0.054258 -0.0240925 -1.49312e-20)
(-0.0593859 -0.0284341 -1.19047e-19)
(-0.0639905 -0.0327885 1.03181e-19)
(-0.0680413 -0.0370667 1.26537e-19)
(-0.0715414 -0.0411571 -6.31496e-21)
(-0.0745311 -0.0449297 7.72171e-20)
(-0.0770921 -0.048248 -3.91424e-20)
(-0.0793875 -0.0510052 6.24425e-21)
(-0.0815074 -0.053139 1.08514e-19)
(-0.0831935 -0.0545133 2.5616e-19)
(-0.0010277 0.00196085 -2.77856e-20)
(-0.00376203 0.00403054 -1.96994e-20)
(-0.00801396 0.00438045 5.53203e-20)
(-0.0131076 0.00348074 -7.76172e-20)
(-0.0187993 0.00160861 -2.03051e-20)
(-0.0248647 -0.00101039 1.20986e-19)
(-0.0310892 -0.00419617 -2.86988e-20)
(-0.0372887 -0.0078139 -8.3305e-20)
(-0.043303 -0.0117629 1.35613e-19)
(-0.0489959 -0.0159653 -3.64765e-20)
(-0.0542543 -0.0203534 2.66625e-20)
(-0.0589896 -0.0248575 1.45161e-19)
(-0.0631386 -0.029395 -2.01798e-19)
(-0.0666671 -0.0338619 -5.51529e-20)
(-0.0695752 -0.0381289 -1.08378e-19)
(-0.0719013 -0.042044 2.19577e-19)
(-0.07373 -0.045445 6.93932e-21)
(-0.0752421 -0.0481993 1.19807e-19)
(-0.076542 -0.0502218 -4.36242e-20)
(-0.0773045 -0.0513301 -2.42001e-19)
(-0.00129596 0.002593 -6.45636e-20)
(-0.00442195 0.00565601 9.39244e-20)
(-0.00893364 0.00677536 1.27756e-21)
(-0.0141768 0.00645508 -9.55909e-22)
(-0.0199203 0.00499831 9.9236e-20)
(-0.0259499 0.00265503 7.17191e-20)
(-0.0320601 -0.000372131 -2.75306e-21)
(-0.0380728 -0.00392801 2.15941e-19)
(-0.0438327 -0.00789392 8.29426e-20)
(-0.0492061 -0.0121759 -1.52773e-19)
(-0.0540804 -0.0166923 7.16601e-21)
(-0.0583656 -0.0213603 -5.1969e-21)
(-0.0619955 -0.0260845 2.13678e-19)
(-0.0649313 -0.0307463 -2.39022e-19)
(-0.0671687 -0.0351988 6.58083e-20)
(-0.0687432 -0.0392669 2.32609e-21)
(-0.0697406 -0.0427586 -1.67131e-19)
(-0.0703603 -0.0455102 -1.72361e-19)
(-0.070725 -0.0474049 -2.07755e-20)
(-0.0704257 -0.048196 2.44834e-19)
(-0.00158464 0.00320718 2.10229e-20)
(-0.00512833 0.00723621 -6.67856e-20)
(-0.0099097 0.00910596 6.5021e-20)
(-0.0153001 0.00935189 -9.75457e-20)
(-0.0210823 0.00830189 1.21599e-19)
(-0.0270541 0.00622938 -2.04257e-19)
(-0.0330196 0.00335873 -5.0613e-20)
(-0.0388083 -0.00013531 -1.12879e-19)
(-0.0442702 -0.00411668 -5.33319e-20)
(-0.0492742 -0.00847628 9.52818e-20)
(-0.0537087 -0.0131191 1.94664e-19)
(-0.057482 -0.0179504 -2.18273e-19)
(-0.0605242 -0.0228628 -8.14326e-20)
(-0.0627914 -0.0277243 2.95826e-19)
(-0.0642731 -0.0323705 -1.07045e-19)
(-0.0650004 -0.0366023 -1.53622e-19)
(-0.0650583 -0.0401944 1.93855e-19)
(-0.0646658 -0.0429452 4.0616e-20)
(-0.0639683 -0.0446961 3.85204e-20)
(-0.0624497 -0.0451125 -1.57131e-19)
(-0.00189182 0.00380003 8.2723e-21)
(-0.00587628 0.00876289 -3.4859e-20)
(-0.0109348 0.0113606 1.14091e-19)
(-0.0164679 0.0121573 -1.48069e-19)
(-0.0222738 0.0115042 -1.22594e-19)
(-0.0281634 0.00969708 7.76091e-20)
(-0.0339516 0.00698104 2.16297e-19)
(-0.0394763 0.0035496 -1.36847e-19)
(-0.0445931 -0.000444577 3.31803e-20)
(-0.0491741 -0.00487802 -6.60336e-20)
(-0.0531087 -0.00964332 -2.66676e-19)
(-0.0563031 -0.014635 1.61508e-19)
(-0.0586835 -0.0197348 1.30411e-19)
(-0.0601996 -0.0247987 -2.30654e-19)
(-0.0608335 -0.0296455 5.39258e-20)
(-0.0606099 -0.0340516 2.14159e-19)
(-0.0596107 -0.0377551 8.37522e-20)
(-0.0580742 -0.0405094 2.92748e-20)
(-0.0561751 -0.0421023 -1.69936e-19)
(-0.0532583 -0.0420811 -8.13764e-20)
(-0.00221538 0.00436833 -5.66988e-20)
(-0.00666035 0.010228 -1.04955e-19)
(-0.0120009 0.0135279 -6.06104e-20)
(-0.0176698 0.0148577 8.04117e-20)
(-0.0234821 0.0145904 -4.75161e-21)
(-0.0292628 0.0130427 1.81461e-19)
(-0.0348386 0.0104794 -1.70518e-20)
(-0.0400561 0.00711206 2.02562e-20)
(-0.0447771 0.00310901 1.31113e-19)
(-0.0488773 -0.00139273 1.66076e-19)
(-0.0522467 -0.0062744 -7.86713e-21)
(-0.0547898 -0.0114207 -3.67603e-20)
(-0.0564277 -0.0167043 -2.15259e-19)
(-0.057103 -0.0219703 1.61103e-19)
(-0.0567892 -0.0270225 -1.44718e-20)
(-0.0555021 -0.0316126 -9.58832e-20)
(-0.0533178 -0.0354398 -4.76741e-19)
(-0.050493 -0.0382051 1.67639e-19)
(-0.0472411 -0.0396296 8.52752e-21)
(-0.0427224 -0.0391036 -1.00655e-19)
(-0.00255299 0.00490902 5.24978e-20)
(-0.00747463 0.011624 1.37203e-19)
(-0.0130992 0.015597 -1.04888e-19)
(-0.0188946 0.01744 -5.10046e-20)
(-0.0246937 0.0175458 4.26265e-20)
(-0.0303362 0.0162508 -1.03202e-19)
(-0.0356613 0.0138386 -1.92305e-19)
(-0.0405251 0.0105374 1.14068e-19)
(-0.0447957 0.00653061 -1.29785e-20)
(-0.0483525 0.00196792 -2.62737e-19)
(-0.0510861 -0.00302149 5.03185e-20)
(-0.0528988 -0.0083138 2.84842e-20)
(-0.0537064 -0.013774 -4.94384e-20)
(-0.0534435 -0.0192384 1.30381e-19)
(-0.0520731 -0.0244974 2.5323e-19)
(-0.0496005 -0.0292797 -1.64037e-19)
(-0.0460924 -0.0332434 1.32413e-19)
(-0.0418222 -0.03603 3.24976e-20)
(-0.0370553 -0.037282 1.82163e-19)
(-0.0307026 -0.0361835 8.01721e-20)
(-0.00290216 0.00541923 -5.75541e-20)
(-0.00831277 0.0129435 -6.45316e-21)
(-0.0142203 0.0175574 1.48762e-19)
(-0.0201303 0.0198912 1.48164e-19)
(-0.0258938 0.020356 -3.04606e-20)
(-0.0313662 0.0193064 -1.92477e-20)
(-0.0363995 0.0170433 1.93824e-19)
(-0.0408594 0.0138108 -1.50778e-19)
(-0.0446206 0.00980658 4.61894e-20)
(-0.0475662 0.00519209 1.91186e-19)
(-0.0495872 0.00010608 1.83456e-19)
(-0.0505833 -0.00532029 7.17577e-20)
(-0.0504648 -0.0109459 3.1285e-19)
(-0.0491571 -0.0166005 -4.28344e-20)
(-0.0466117 -0.0220635 -3.29395e-19)
(-0.0428213 -0.0270429 1.61369e-19)
(-0.0378395 -0.0311553 -8.59592e-20)
(-0.0319541 -0.0339766 -1.98028e-19)
(-0.0255023 -0.0350601 -1.39239e-19)
(-0.0170521 -0.0333189 -1.37017e-19)
(-0.00326025 0.00589631 3.6964e-20)
(-0.00916804 0.0141799 7.80871e-20)
(-0.0153544 0.019399 -5.42443e-20)
(-0.0213642 0.0221991 -6.76905e-20)
(-0.0270672 0.0230072 -7.07558e-20)
(-0.0323346 0.0221946 -1.90471e-20)
(-0.0370315 0.0200783 -2.00501e-19)
(-0.0410334 0.0169175 1.03024e-19)
(-0.0442215 0.012923 -9.50043e-20)
(-0.0464823 0.00826767 -1.60895e-19)
(-0.0477072 0.00309876 5.80164e-21)
(-0.047793 -0.00244619 -4.08558e-19)
(-0.0466436 -0.00822164 -3.16463e-19)
(-0.0441749 -0.0140528 1.0018e-19)
(-0.0403255 -0.0197115 5.01756e-20)
(-0.0350737 -0.024888 -1.07795e-19)
(-0.0284566 -0.0291589 4.14502e-19)
(-0.0207723 -0.0320305 -6.44514e-20)
(-0.0124603 -0.032958 1.7363e-19)
(-0.00164004 -0.0304675 1.52195e-19)
(-0.00362449 0.00633789 -5.07733e-20)
(-0.0100334 0.0153267 -1.69506e-19)
(-0.016491 0.0211128 5.4251e-20)
(-0.022583 0.024352 3.05295e-21)
(-0.0281977 0.025486 2.31223e-19)
(-0.033222 0.0249009 -1.38427e-19)
(-0.0375345 0.0229286 7.58373e-20)
(-0.0410199 0.0198425 1.08942e-19)
(-0.0435661 0.0158659 -8.54124e-21)
(-0.0450626 0.0111821 6.72052e-20)
(-0.0454007 0.00594655 2.05361e-19)
(-0.0444737 0.00030211 4.28838e-19)
(-0.0421791 -0.00560256 3.44142e-20)
(-0.0384224 -0.0115905 -1.89459e-19)
(-0.0331286 -0.0174295 3.44087e-20)
(-0.0262601 -0.0227966 3.32799e-19)
(-0.0178342 -0.0272317 -2.24091e-19)
(-0.00815111 -0.030172 7.02685e-22)
(0.00222547 -0.0309679 1.68766e-19)
(0.0156148 -0.0275367 -1.02723e-19)
(-0.00399205 0.00674186 -4.89444e-20)
(-0.0109016 0.0163786 2.01152e-19)
(-0.0176195 0.02269 -1.53845e-19)
(-0.0237727 0.026339 -3.15395e-20)
(-0.0292682 0.0277795 -5.34139e-20)
(-0.0340082 0.0274111 -1.39404e-19)
(-0.0378843 0.0255794 1.38807e-19)
(-0.0407905 0.0225708 -4.56293e-20)
(-0.0426206 0.0186207 -8.22359e-20)
(-0.0432667 0.0139224 1.34886e-19)
(-0.0426194 0.00863885 -1.55948e-19)
(-0.0405684 0.00291767 -5.00428e-20)
(-0.0370038 -0.0030905 -5.51447e-21)
(-0.0318205 -0.00920874 1.33298e-19)
(-0.0249296 -0.0152041 -1.20368e-19)
(-0.0162765 -0.0207464 -2.25382e-19)
(-0.00585739 -0.0253449 -6.8773e-20)
(0.00603208 -0.0283712 -9.8352e-20)
(0.0187506 -0.0290553 -2.97147e-19)
(0.0348766 -0.0246238 -8.65799e-20)
(-0.00436003 0.00710644 6.97021e-20)
(-0.0117652 0.0173305 -8.82943e-20)
(-0.0187287 0.0241229 -1.11616e-19)
(-0.0249192 0.0281499 -1.05559e-19)
(-0.0302612 0.0298756 3.51217e-20)
(-0.0346722 0.0297117 1.94016e-20)
(-0.0380559 0.0280161 4.97896e-20)
(-0.0403154 0.0250877 -1.29322e-19)
(-0.0413494 0.0211731 1.00425e-19)
(-0.0410522 0.0164752 -3.00967e-19)
(-0.0393129 0.0111644 -1.50923e-19)
(-0.0360168 0.0053927 2.85874e-21)
(-0.0310463 -0.000688033 1.34094e-19)
(-0.0242858 -0.00690261 -8.75961e-20)
(-0.0156319 -0.013021 2.22585e-19)
(-0.00501321 -0.0187116 -5.41622e-20)
(0.00759633 -0.0234622 6.98397e-20)
(0.0219032 -0.0265863 2.61655e-19)
(0.0372087 -0.0271768 3.42459e-20)
(0.0564478 -0.0217784 1.61823e-19)
(-0.00472555 0.00743021 -1.47513e-19)
(-0.0126166 0.0181781 1.19738e-19)
(-0.0198074 0.0254047 1.34398e-19)
(-0.0260076 0.0297755 -7.86834e-20)
(-0.0311585 0.0317632 1.34656e-19)
(-0.035192 0.0317898 1.29928e-19)
(-0.0380232 0.0302248 -2.34314e-20)
(-0.0395633 0.0273784 -4.48312e-20)
(-0.0397154 0.0235082 -1.21905e-19)
(-0.0383748 0.0188266 5.66509e-20)
(-0.0354283 0.0135112 5.44923e-21)
(-0.0307561 0.00771845 -1.49911e-19)
(-0.0242325 0.00160117 1.12155e-19)
(-0.0157312 -0.00466827 -8.77231e-20)
(-0.00513524 -0.0108659 -1.58059e-19)
(0.00764346 -0.016665 -2.05762e-19)
(0.0226536 -0.0215424 4.99777e-20)
(0.0396079 -0.0247632 6.94538e-20)
(0.0577138 -0.0252827 -6.49921e-20)
(0.0804498 -0.018896 2.67062e-19)
(-0.00508574 0.00771209 -1.17238e-19)
(-0.0134482 0.0189182 -1.10366e-19)
(-0.0208441 0.0265296 8.75986e-20)
(-0.0270229 0.0312076 5.09424e-20)
(-0.0319416 0.0334317 2.11655e-20)
(-0.0355449 0.0336334 -3.85308e-20)
(-0.0377591 0.032192 -2.68663e-20)
(-0.0385018 0.0294288 6.20711e-20)
(-0.0376799 0.0256118 -5.87295e-20)
(-0.0351883 0.0209628 4.71465e-19)
(-0.0309109 0.0156668 3.44662e-20)
(-0.0247214 0.0098852 -5.29968e-20)
(-0.0164858 0.00377207 -3.47881e-19)
(-0.00606732 -0.00250341 6.65551e-20)
(0.00666387 -0.00872554 -1.71394e-19)
(0.0218101 -0.0145786 1.12404e-19)
(0.0394421 -0.0195401 1.0262e-19)
(0.0592855 -0.0228421 -3.85895e-19)
(0.0804117 -0.0233335 -1.18592e-19)
(0.106996 -0.0158944 -3.98086e-19)
(-0.0054378 0.00795138 5.65856e-20)
(-0.0142526 0.0195481 1.14656e-19)
(-0.0218273 0.0274926 -2.07186e-19)
(-0.0279497 0.0324391 -1.59081e-19)
(-0.032591 0.0348722 8.12532e-20)
(-0.0357076 0.0352314 7.59653e-20)
(-0.0372352 0.0339054 -1.58263e-19)
(-0.0370973 0.0312255 -1.43462e-20)
(-0.0352027 0.0274699 8.38986e-21)
(-0.0314452 0.0228699 -1.41931e-19)
(-0.0257039 0.0176184 2.07641e-19)
(-0.0178457 0.0118825 9.01804e-22)
(-0.00772766 0.00581839 2.62035e-19)
(0.00479743 -0.000407732 1.77418e-19)
(0.0198702 -0.00658893 2.97194e-20)
(0.0376044 -0.0124256 3.7046e-19)
(0.058089 -0.0174081 -3.33855e-19)
(0.0810686 -0.020755 1.53504e-19)
(0.105437 -0.0212617 1.18444e-19)
(0.136205 -0.0127073 9.87186e-20)
(-0.00577904 0.00814778 2.7498e-19)
(-0.0150223 0.0200661 -1.94705e-19)
(-0.0227453 0.0282902 4.6963e-20)
(-0.0287725 0.0334641 1.54709e-19)
(-0.033087 0.0360767 -1.66935e-19)
(-0.0356557 0.0365741 8.11033e-21)
(-0.0364223 0.0353536 1.27997e-19)
(-0.0353146 0.032756 2.35589e-19)
(-0.0322421 0.0290695 3.19949e-19)
(-0.0270957 0.0245348 -3.06676e-19)
(-0.019749 0.0193536 -1.82351e-19)
(-0.0100606 0.0136996 8.66102e-20)
(0.00212181 0.00773258 -2.49372e-19)
(0.016955 0.00161727 1.72521e-20)
(0.0345886 -0.0044477 9.71336e-20)
(0.0551428 -0.0101822 7.47205e-20)
(0.0787186 -0.0151001 2.25038e-19)
(0.105082 -0.0184274 4.61248e-20)
(0.132909 -0.0189792 -1.66418e-19)
(0.168161 -0.00926429 1.75031e-19)
(-0.0061069 0.00830134 -2.61271e-19)
(-0.0157499 0.0204713 1.94341e-19)
(-0.0235867 0.0289197 4.70577e-20)
(-0.0294753 0.0342783 -1.53996e-19)
(-0.0334093 0.0370387 6.53173e-20)
(-0.0353641 0.0376534 -3.17416e-20)
(-0.0352897 0.036527 -2.34111e-20)
(-0.033117 0.0340096 -1.99287e-19)
(-0.0287544 0.030399 -3.14707e-19)
(-0.0220886 0.0259458 2.95005e-19)
(-0.012986 0.020861 -1.06189e-19)
(-0.00129589 0.0153262 3.24691e-21)
(0.0131434 0.0095068 6.03803e-20)
(0.0304976 0.0035686 1.27956e-19)
(0.0509222 -0.00229652 -1.53145e-20)
(0.0745383 -0.0078284 -3.56241e-20)
(0.10145 -0.0125726 -1.81857e-19)
(0.131441 -0.0157827 -1.20729e-19)
(0.162932 -0.0163866 -1.13345e-19)
(0.202882 -0.00544885 1.74623e-19)
(-0.00641898 0.00841249 2.10858e-19)
(-0.0164285 0.0207637 -5.5026e-20)
(-0.0243398 0.0293798 1.87969e-19)
(-0.030042 0.0348784 4.56209e-20)
(-0.0335367 0.0377535 -1.00974e-19)
(-0.0348063 0.0384627 1.62777e-20)
(-0.0338054 0.0374178 -2.15955e-19)
(-0.030466 0.0349773 9.8281e-20)
(-0.0246941 0.0314488 5.36961e-20)
(-0.0163704 0.0270929 -1.96867e-20)
(-0.0053526 0.0221308 -2.24859e-20)
(0.0085198 0.0167535 2.68377e-20)
(0.0254185 0.0111341 -1.21091e-19)
(0.0455162 0.00544251 -2.80795e-19)
(0.0689714 -0.000132629 1.42418e-19)
(0.0958986 -0.00534917 -6.96721e-20)
(0.126393 -0.0097884 -1.65654e-20)
(0.160247 -0.0127488 2.92243e-19)
(0.19561 -0.0133707 3.00336e-19)
(0.240484 -0.00106516 -4.48836e-19)
(-0.00671301 0.00848201 -5.33912e-20)
(-0.0170509 0.020944 -5.97604e-20)
(-0.0249929 0.0296704 -1.17885e-19)
(-0.030456 0.035263 8.70078e-20)
(-0.0334476 0.0382181 1.57473e-19)
(-0.0339549 0.0389977 -2.04615e-19)
(-0.0319358 0.0380204 3.27271e-19)
(-0.0273213 0.0356529 -6.41688e-20)
(-0.0200133 0.0322122 9.7399e-21)
(-0.00988515 0.0279694 -2.2344e-19)
(0.00321538 0.0231565 -1.71079e-20)
(0.0194596 0.0179756 -1.83813e-19)
(0.0390286 0.0126096 2.46552e-19)
(0.0621007 0.00723616 1.6198e-19)
(0.0888323 0.00204536 -3.1538e-19)
(0.119323 -0.00273415 -2.66882e-19)
(0.153646 -0.00671807 6.09892e-20)
(0.191578 -0.00926308 3.51105e-19)
(0.23101 -0.00982602 1.59458e-19)
(0.28084 0.00396 8.54537e-20)
(-0.00698693 0.00851096 1.74273e-20)
(-0.0176105 0.0210138 5.78177e-20)
(-0.0255344 0.0297923 7.02354e-20)
(-0.0307001 0.0354321 -5.82802e-20)
(-0.0331189 0.0384312 1.47022e-19)
(-0.032781 0.0392564 1.97216e-19)
(-0.0296451 0.038332 3.32518e-21)
(-0.02364 0.036033 -2.5586e-19)
(-0.0146616 0.0326858 -2.04718e-19)
(-0.00257437 0.0285721 2.14272e-19)
(0.0127848 0.0239356 -2.88048e-19)
(0.0315981 0.0189905 -3.23487e-19)
(0.0540556 0.0139322 -3.2424e-20)
(0.0803382 0.00894952 -1.70328e-20)
(0.110595 0.00423927 1.11192e-19)
(0.144902 2.34686e-05 7.24559e-20)
(0.183292 -0.00334016 9.31885e-20)
(0.225487 -0.00527562 -4.3433e-19)
(0.269188 -0.00563569 -1.16583e-19)
(0.323791 0.0098129 3.01634e-19)
(-0.00723882 0.00850068 -1.00718e-19)
(-0.0181006 0.0209755 9.95027e-20)
(-0.0259522 0.0297479 -7.30273e-20)
(-0.0307567 0.0353874 -3.64979e-20)
(-0.032527 0.038394 -9.91821e-20)
(-0.0312539 0.039239 -7.52744e-20)
(-0.0268956 0.0383527 -1.35102e-19)
(-0.0193767 0.036118 2.23571e-19)
(-0.0085855 0.0328705 8.88355e-20)
(0.00562358 0.0289028 -2.19473e-19)
(0.023425 0.0244708 3.43319e-19)
(0.0450119 0.0198022 1.75844e-19)
(0.0705812 0.0151067 -1.33387e-19)
(0.100313 0.0105875 -1.85939e-19)
(0.134343 0.00645353 -2.35673e-20)
(0.172711 0.00292875 1.89701e-19)
(0.215397 0.000359252 -1.24442e-19)
(0.262002 -0.000756331 4.76109e-20)
(0.310194 -0.000681697 1.04912e-19)
(0.369086 0.0166653 2.52566e-19)
(-0.00746688 0.00845273 -1.00368e-20)
(-0.0185146 0.0208319 -2.46102e-19)
(-0.0262342 0.0295404 6.032e-20)
(-0.0306075 0.035132 1.33417e-19)
(-0.0316464 0.0381096 -2.44627e-20)
(-0.0293411 0.038949 -1.62181e-19)
(-0.023647 0.0380863 1.79317e-19)
(-0.0144827 0.0359123 2.0547e-19)
(-0.00172811 0.0327719 7.85705e-20)
(0.0147737 0.0289688 3.90769e-19)
(0.0352084 0.0247715 -1.81828e-19)
(0.0597789 0.0204218 8.68329e-20)
(0.0886863 0.0161453 -9.01935e-20)
(0.122105 0.0121618 2.15288e-19)
(0.160149 0.00869746 -1.89895e-20)
(0.202811 0.00598713 -4.8697e-20)
(0.250002 0.0043876 -7.74676e-20)
(0.301114 0.00430025 1.20137e-19)
(0.354057 0.00517121 -2.9854e-19)
(0.416303 0.024688 -3.89669e-19)
(-0.00766943 0.00836881 -5.90116e-20)
(-0.0188457 0.0205864 -2.24832e-20)
(-0.0263679 0.0291742 -1.99635e-19)
(-0.0302328 0.034671 1.22356e-19)
(-0.0304504 0.0375835 -1.25144e-19)
(-0.0270077 0.0383924 -1.27302e-19)
(-0.019856 0.0375401 -1.12943e-20)
(-0.00890654 0.0354249 -2.07254e-19)
(0.00597089 0.0324014 -3.29965e-19)
(0.0249442 0.0287841 9.05425e-20)
(0.0482101 0.0248545 1.01159e-19)
(0.0759783 0.0208689 1.21772e-19)
(0.10845 0.0170691 3.10501e-19)
(0.145787 0.0136931 -3.04733e-20)
(0.188074 0.0109868 -6.6424e-20)
(0.235243 0.00920506 -8.7899e-21)
(0.287125 0.0087422 1.6519e-19)
(0.342789 0.009872 2.88993e-19)
(0.400751 0.0121645 -8.00284e-20)
(0.464656 0.0342112 2.81391e-19)
(-0.0078448 0.0082507 1.86781e-19)
(-0.0190873 0.0202429 -3.08789e-20)
(-0.0263399 0.0286545 1.77144e-19)
(-0.0296124 0.0340107 -1.81636e-19)
(-0.0289104 0.0368232 2.68289e-19)
(-0.0242168 0.0375786 2.24609e-19)
(-0.0154767 0.0367254 -1.84862e-19)
(-0.00259284 0.0346699 -3.44178e-19)
(0.0145755 0.0317761 5.70616e-19)
(0.0362071 0.0283697 1.41251e-19)
(0.0625072 0.0247449 -1.09587e-19)
(0.0936891 0.0211725 -1.08465e-19)
(0.129947 0.0179097 -5.37569e-20)
(0.171423 0.0152119 -8.41731e-20)
(0.218159 0.0133448 -2.76758e-19)
(0.27002 0.0125874 -7.43983e-20)
(0.326758 0.0133941 6.24087e-21)
(0.387045 0.0158897 -1.97863e-19)
(0.450361 0.0206614 9.72556e-20)
(0.513072 0.0453743 -2.02829e-19)
(-0.00799133 0.00810024 -2.99189e-19)
(-0.0192322 0.0198057 2.00989e-19)
(-0.0261363 0.0279874 -2.9998e-19)
(-0.0287243 0.0331591 -1.63766e-19)
(-0.0269961 0.035839 6.11865e-20)
(-0.0209286 0.0365201 -2.43427e-19)
(-0.0104598 0.0356578 3.81772e-19)
(0.00451701 0.0336664 6.15599e-21)
(0.0241531 0.0309196 -2.12244e-19)
(0.0486367 0.0277543 -1.85699e-19)
(0.0781786 0.0244769 -3.31576e-19)
(0.112989 0.0213716 -4.22616e-21)
(0.153247 0.0187097 1.22135e-20)
(0.199061 0.0167602 -7.55917e-20)
(0.250419 0.0158037 3.34444e-19)
(0.307108 0.0161361 2.04662e-19)
(0.368824 0.0182725 5.02035e-20)
(0.433937 0.0221938 -2.15686e-19)
(0.503439 0.0306479 -1.2626e-20)
(0.562315 0.0557937 -3.38477e-19)
(-0.0081073 0.00791927 1.06296e-19)
(-0.019273 0.0192791 -2.02485e-19)
(-0.0257422 0.02718 2.59812e-19)
(-0.0275451 0.0321258 3.65246e-19)
(-0.0246747 0.0346431 -1.18929e-19)
(-0.0171007 0.0352325 1.5215e-20)
(-0.00475307 0.0343568 -3.22591e-19)
(0.012485 0.0324389 -8.06511e-20)
(0.0347743 0.0298621 -2.49975e-19)
(0.06231 0.0269742 3.25928e-19)
(0.0953029 0.0240934 3.01704e-19)
(0.133952 0.0215157 -5.37159e-20)
(0.178408 0.0195231 -4.00952e-20)
(0.228729 0.0183926 -3.26644e-21)
(0.284829 0.018409 6.03792e-20)
(0.3464 0.0198632 -1.07516e-19)