/*--------------------------------*- C++ -*----------------------------------*\
  =========                 |
  \\      /  F ield         | OpenFOAM: The Open Source CFD Toolbox
   \\    /   O peration     | Website:  https://openfoam.org
    \\  /    A nd           | Version:  7
     \\/     M anipulation  |
\*---------------------------------------------------------------------------*/
FoamFile
{
    version     2.0;
    format      ascii;
    class       volScalarField;
    location    "95";
    object      p;
}
// * * * * * * * * * * * * * * * * * * * * * * * * * * * * * * * * * * * * * //

dimensions      [0 2 -2 0 0 0 0];

internalField   nonuniform List<scalar> 
8500
(
-0.00403539
-0.00227373
0.00683424
-1.21724e-06
0.00921906
0.0177092
0.00324025
0.0121612
0.0207482
0.0285441
0.0161642
0.0243894
0.0322981
0.039305
0.0203187
0.029164
0.0366773
0.0438676
0.0499689
0.0245836
0.0341614
0.0422313
0.0490294
0.0554555
0.0604303
0.0393045
0.0480789
0.0553696
0.0614722
0.0670261
0.0703766
0.0445647
0.0540961
0.0620635
0.0685991
0.074058
0.0785413
0.0795362
0.0602493
0.068939
0.0761059
0.0819337
0.0868011
0.090054
0.0887496
0.0665008
0.0759675
0.0838111
0.090187
0.0953381
0.0995716
0.101505
0.101075
0.0727975
0.0831326
0.0916947
0.0986883
0.104277
0.108734
0.11227
0.113447
0.113884
0.0903892
0.0997547
0.107406
0.113546
0.118347
0.122088
0.124908
0.125488
0.126033
0.0976736
0.107951
0.116341
0.123077
0.12836
0.132369
0.135379
0.13749
0.137521
0.137845
0.116221
0.125456
0.132866
0.138682
0.143106
0.146317
0.148586
0.149991
0.149462
0.149413
0.124491
0.134687
0.142876
0.149302
0.154197
0.157759
0.160169
0.16169
0.162387
0.161277
0.160767
0.143957
0.153042
0.160183
0.165625
0.169597
0.172296
0.173902
0.174671
0.174657
0.172947
0.171925
0.163283
0.171255
0.177349
0.181809
0.184859
0.186695
0.187495
0.18751
0.186782
0.184459
0.182895
0.173524
0.182437
0.189298
0.194348
0.197827
0.199958
0.200933
0.20093
0.200189
0.198746
0.195803
0.193678
0.193643
0.201385
0.207142
0.211152
0.213656
0.214872
0.21499
0.214185
0.212691
0.210534
0.206968
0.20427
0.204823
0.21352
0.220099
0.224757
0.227735
0.22927
0.229578
0.228845
0.227243
0.224998
0.222131
0.217945
0.214664
0.225638
0.233121
0.238546
0.242116
0.244071
0.244646
0.244054
0.242477
0.240085
0.237096
0.233523
0.22872
0.224855
0.246133
0.252413
0.256696
0.259189
0.260133
0.259759
0.258277
0.255866
0.252692
0.248966
0.244696
0.239284
0.234832
0.259147
0.266273
0.271364
0.274519
0.27595
0.275896
0.274586
0.272226
0.268992
0.265047
0.260594
0.255637
0.249623
0.244585
0.280116
0.286022
0.289942
0.291986
0.292372
0.291335
0.289104
0.28588
0.281836
0.277132
0.271963
0.266331
0.259727
0.254106
0.300641
0.305348
0.308115
0.309069
0.308427
0.306426
0.303291
0.299219
0.29438
0.288931
0.283059
0.276764
0.269581
0.263382
0.315352
0.320688
0.324216
0.325854
0.325738
0.32409
0.321145
0.317124
0.312222
0.306605
0.300426
0.293866
0.286923
0.279175
0.272405
0.336061
0.340221
0.342595
0.343128
0.341967
0.339336
0.335468
0.330582
0.324869
0.318492
0.311601
0.304369
0.296794
0.288496
0.281162
0.356195
0.359205
0.360453
0.359908
0.357728
0.354139
0.349373
0.343644
0.337141
0.330024
0.32244
0.314553
0.306365
0.297531
0.289644
0.375719
0.377608
0.37776
0.376167
0.372996
0.368476
0.362837
0.35629
0.34902
0.341185
0.332927
0.324405
0.31562
0.306268
0.297839
0.392409
0.394598
0.395398
0.394485
0.391876
0.387746
0.382324
0.375839
0.368499
0.360487
0.351956
0.343046
0.333909
0.324549
0.314695
0.305738
0.411648
0.412798
0.412542
0.410601
0.40701
0.401953
0.39566
0.388359
0.380254
0.371525
0.362323
0.352783
0.343053
0.333139
0.322802
0.31333
0.430141
0.430286
0.429013
0.426079
0.421543
0.415593
0.408463
0.400376
0.391535
0.382117
0.372269
0.362124
0.351823
0.341376
0.330575
0.320606
0.447853
0.447032
0.44478
0.440894
0.43545
0.428645
0.420711
0.411871
0.402325
0.392246
0.381779
0.371055
0.360207
0.34925
0.338006
0.327556
0.464754
0.463006
0.459817
0.455021
0.44871
0.441087
0.432386
0.422826
0.412607
0.401897
0.390839
0.379562
0.368193
0.35675
0.345083
0.334171
0.482591
0.480812
0.478179
0.474098
0.468435
0.461298
0.452898
0.443467
0.433224
0.422364
0.411055
0.399436
0.387633
0.375768
0.363864
0.351795
0.340442
0.498558
0.495999
0.492526
0.487598
0.481113
0.473195
0.464059
0.453938
0.443048
0.431582
0.419705
0.407556
0.395255
0.382922
0.370582
0.358135
0.346362
0.513584
0.510287
0.50602
0.500294
0.493035
0.484381
0.474552
0.46378
0.452282
0.440246
0.427836
0.415187
0.402419
0.389644
0.376895
0.364091
0.351922
0.527642
0.52365
0.518639
0.512164
0.50418
0.494837
0.48436
0.472979
0.460911
0.448342
0.435433
0.422317
0.409111
0.395925
0.382793
0.369657
0.357115
0.540704
0.536065
0.53036
0.523188
0.514529
0.504546
0.493466
0.48152
0.468923
0.455858
0.442485
0.428936
0.415324
0.401755
0.388268
0.374823
0.361934
0.552748
0.547509
0.541163
0.533348
0.524066
0.513492
0.501855
0.489389
0.476303
0.462783
0.448982
0.435033
0.421047
0.407125
0.393312
0.379583
0.366372
0.563752
0.557963
0.55103
0.542625
0.532775
0.52166
0.509515
0.496573
0.483042
0.469104
0.454914
0.4406
0.426272
0.412028
0.397917
0.383929
0.370424
0.573696
0.567408
0.559943
0.551005
0.54064
0.529037
0.516433
0.50306
0.489127
0.474813
0.46027
0.445627
0.430991
0.416457
0.402077
0.387856
0.374084
0.582561
0.575828
0.567887
0.558474
0.547649
0.535611
0.522598
0.508842
0.49455
0.4799
0.465044
0.450108
0.435198
0.420406
0.405787
0.391358
0.377348
0.596684
0.590333
0.583209
0.57485
0.565019
0.553791
0.541371
0.528
0.513908
0.499302
0.484359
0.469228
0.454036
0.438886
0.423867
0.40904
0.394429
0.380212
0.603632
0.596999
0.589537
0.580819
0.57063
0.559056
0.546309
0.53263
0.51825
0.503375
0.488181
0.472816
0.457404
0.442049
0.426838
0.411831
0.397066
0.382671
0.609414
0.602545
0.594803
0.585786
0.575298
0.563436
0.550416
0.536482
0.521863
0.506765
0.491362
0.475803
0.460209
0.444683
0.429312
0.414158
0.399264
0.384722
0.614021
0.606964
0.598997
0.589741
0.579014
0.566924
0.553687
0.539549
0.524741
0.509465
0.493897
0.478183
0.462445
0.446786
0.431288
0.416017
0.401022
0.386364
0.617446
0.610249
0.602114
0.592679
0.581775
0.569514
0.556117
0.541828
0.526879
0.511473
0.495783
0.479955
0.464111
0.448352
0.432762
0.417405
0.402336
0.387594
0.619683
0.612394
0.604148
0.594596
0.583576
0.571203
0.557701
0.543315
0.528275
0.512784
0.497016
0.481115
0.465204
0.449382
0.433732
0.418321
0.403205
0.388413
0.62073
0.613396
0.605097
0.59549
0.584415
0.57199
0.558439
0.544008
0.528927
0.513399
0.497596
0.481663
0.465722
0.449873
0.434198
0.418764
0.403629
0.388816
0.620585
0.613256
0.604962
0.59536
0.584291
0.571873
0.55833
0.543908
0.528835
0.513316
0.497522
0.481598
0.465666
0.449825
0.434159
0.418733
0.403605
0.388799
0.619251
0.611974
0.603742
0.594207
0.583205
0.570854
0.557375
0.543014
0.528
0.512536
0.496794
0.48092
0.465035
0.449239
0.433615
0.418229
0.403133
0.388369
0.616732
0.609555
0.601443
0.592035
0.581162
0.568936
0.555577
0.54133
0.526424
0.511062
0.495416
0.479633
0.463833
0.448117
0.432569
0.417253
0.402218
0.387524
0.613033
0.606005
0.598069
0.588849
0.578165
0.566123
0.55294
0.538859
0.52411
0.508896
0.49339
0.477737
0.46206
0.44646
0.431022
0.415808
0.400861
0.386271
0.608165
0.601332
0.593628
0.584656
0.574221
0.562421
0.549469
0.535607
0.521064
0.506043
0.490719
0.475237
0.459721
0.444273
0.428977
0.413895
0.399064
0.384612
0.595547
0.58813
0.579464
0.569338
0.557838
0.545172
0.531579
0.51729
0.502509
0.487409
0.472138
0.45682
0.441558
0.426438
0.411519
0.39683
0.382545
0.588661
0.581585
0.573286
0.563527
0.552382
0.540056
0.526784
0.512797
0.498299
0.483466
0.468446
0.453362
0.43832
0.423409
0.408683
0.394163
0.380074
0.58069
0.574009
0.566132
0.556797
0.546065
0.534131
0.52123
0.507592
0.493422
0.478897
0.464166
0.449354
0.434567
0.419896
0.405393
0.391067
0.377203
0.57165
0.565416
0.558017
0.549163
0.538898
0.527409
0.514929
0.501686
0.487887
0.473711
0.459307
0.444801
0.430302
0.415904
0.401653
0.387547
0.373937
0.56156
0.555824
0.548957
0.54064
0.530896
0.519903
0.507891
0.495089
0.481704
0.467916
0.453876
0.439713
0.425535
0.41144
0.397471
0.38361
0.370282
0.55044
0.545251
0.53897
0.531243
0.522072
0.511625
0.500129
0.487812
0.474883
0.461523
0.447885
0.434098
0.420273
0.406512
0.392853
0.379261
0.366241
0.538315
0.533719
0.528076
0.520991
0.512444
0.502592
0.491658
0.47987
0.467437
0.454542
0.441341
0.427965
0.414525
0.401127
0.387806
0.374509
0.361822
0.525207
0.521251
0.516295
0.509903
0.50203
0.492821
0.482493
0.471275
0.459379
0.446987
0.434258
0.421324
0.4083
0.395295
0.382338
0.369359
0.357031
0.511145
0.507872
0.50365
0.498
0.490849
0.482328
0.47265
0.462045
0.450722
0.43887
0.426647
0.414187
0.401609
0.389024
0.376459
0.363821
0.351874
0.493607
0.490166
0.485305
0.478921
0.471133
0.462148
0.452194
0.441483
0.430205
0.418521
0.406566
0.394462
0.382326
0.370178
0.357903
0.346361
0.478485
0.475868
0.47184
0.466269
0.459256
0.451004
0.441739
0.431677
0.421006
0.409892
0.398473
0.386871
0.375209
0.363504
0.351614
0.340497
0.462536
0.460783
0.457632
0.452916
0.446719
0.439239
0.430701
0.42132
0.41129
0.400777
0.389922
0.378849
0.367687
0.356448
0.344965
0.334293
0.44579
0.444941
0.442707
0.438886
0.433545
0.426873
0.419096
0.410431
0.401072
0.39119
0.380925
0.370408
0.35977
0.34902
0.337965
0.327756
0.428282
0.428372
0.427093
0.424204
0.419756
0.413929
0.406947
0.399028
0.39037
0.381146
0.371499
0.361561
0.351471
0.341233
0.330624
0.320896
0.411107
0.410818
0.408899
0.405378
0.400429
0.394273
0.387131
0.379202
0.370662
0.361658
0.352323
0.342802
0.333098
0.322955
0.313722
0.393178
0.393913
0.392997
0.390436
0.386396
0.381097
0.374759
0.367587
0.359756
0.351417
0.342707
0.333777
0.324628
0.314967
0.306244
0.374621
0.376409
0.376527
0.374957
0.371856
0.367441
0.361935
0.355543
0.348445
0.340794
0.332729
0.32441
0.315833
0.306674
0.298473
0.35834
0.359519
0.358968
0.356833
0.353329
0.348678
0.34309
0.336747
0.329804
0.322405
0.314714
0.306729
0.298085
0.290418
0.339737
0.342004
0.342498
0.341354
0.338784
0.335012
0.330249
0.324681
0.318466
0.311749
0.304704
0.297326
0.289215
0.28209
0.320635
0.324013
0.325576
0.325446
0.323832
0.320959
0.317041
0.312266
0.306796
0.300779
0.294394
0.28764
0.280074
0.273499
0.30107
0.30558
0.308232
0.309136
0.308498
0.306543
0.303487
0.299522
0.294813
0.28951
0.283799
0.277683
0.270675
0.264656
0.286737
0.290496
0.292453
0.292808
0.291788
0.28961
0.28647
0.282535
0.277959
0.272936
0.267469
0.26103
0.255572
0.267517
0.272399
0.275424
0.276788
0.276717
0.275432
0.27313
0.269982
0.266144
0.261818
0.257011
0.251151
0.246256
0.247956
0.253974
0.25808
0.260466
0.261357
0.260975
0.259523
0.257172
0.254082
0.250461
0.246324
0.24105
0.236718
0.235252
0.24045
0.243868
0.245732
0.246264
0.24567
0.244125
0.24179
0.238882
0.23542
0.230739
0.226967
0.216267
0.222565
0.227023
0.229867
0.231322
0.231593
0.23086
0.229287
0.227096
0.224314
0.220228
0.217011
0.204454
0.20996
0.21379
0.216172
0.217315
0.2174
0.216592
0.21512
0.21302
0.209527
0.206856
0.18615
0.192706
0.197527
0.200841
0.202859
0.203763
0.203722
0.20297
0.201553
0.198647
0.196506
0.17529
0.181104
0.185351
0.188246
0.189972
0.190698
0.190665
0.189927
0.187598
0.185959
0.157742
0.164548
0.169729
0.173501
0.176049
0.17754
0.178222
0.178161
0.176391
0.175207
0.14009
0.147886
0.154
0.158648
0.162016
0.164269
0.16566
0.166274
0.165041
0.164232
0.131146
0.138189
0.143711
0.147897
0.150908
0.152999
0.15429
0.153579
0.153001
0.122322
0.128713
0.133716
0.137482
0.14026
0.142232
0.142079
0.141416
0.106425
0.11368
0.119497
0.124017
0.127463
0.130098
0.130638
0.129166
0.0986367
0.105264
0.110543
0.114642
0.117886
0.119641
0.11731
0.0836061
0.0910407
0.097089
0.101872
0.105698
0.108629
0.108448
0.0768494
0.0836736
0.0891858
0.093646
0.0976219
0.0996581
0.0627086
0.0703062
0.0765695
0.0817074
0.0865364
0.0901199
0.0569945
0.064005
0.0698355
0.0754067
0.0800675
0.0514904
0.0580094
0.0642759
0.0697977
0.0462272
0.0531505
0.0594219
0.0344956
0.0420337
0.0489682
0.0309415
0.0384702
0.027971
0.0818329
0.072398
0.0629038
0.0536167
0.0439084
0.0338961
0.0238444
0.0138094
0.00378445
-0.00620252
-0.0161144
0.0718743
0.0624061
0.0518088
0.0424447
0.0333835
0.0240959
0.0147949
0.00564751
-0.00336319
-0.012266
-0.0210524
0.0599244
0.0507714
0.0406186
0.0319773
0.0239755
0.0158388
0.00764315
-0.000409885
-0.0083067
-0.0160961
-0.0237913
0.0483236
0.0399397
0.0308764
0.0232302
0.0162117
0.00908013
0.00185523
-0.00527069
-0.0122582
-0.0191471
-0.0259561
0.0384309
0.0309372
0.0229769
0.0162267
0.0100099
0.00369917
-0.00269967
-0.00902064
-0.0152186
-0.0213234
-0.0273545
0.0301614
0.0234485
0.0164532
0.0104754
0.00493432
-0.000679462
-0.00636044
-0.0119731
-0.0174779
-0.0228983
-0.028252
0.0231999
0.017165
0.0110219
0.00573757
0.000799217
-0.00419837
-0.00924331
-0.0142267
-0.019118
-0.023936
-0.0286955
0.0173578
0.0119329
0.00654436
0.00187885
-0.00252219
-0.00697606
-0.0114622
-0.015893
-0.0202461
-0.0245373
-0.0287784
0.0125004
0.00762681
0.00289955
-0.00122205
-0.0051485
-0.00912408
-0.0131204
-0.0170669
-0.0209481
-0.0247777
-0.0285648
0.00849699
0.00411794
-3.34709e-05
-0.00367965
-0.00718784
-0.0107423
-0.0143087
-0.0178301
-0.0212971
-0.0247213
-0.0281098
0.00522667
0.00128943
-0.00236123
-0.00559175
-0.00873074
-0.0119136
-0.0151018
-0.0182495
-0.0213519
-0.0244192
-0.0274568
0.00258462
-0.000958045
-0.00417323
-0.00704004
-0.00985265
-0.0127071
-0.0155619
-0.0183804
-0.0211613
-0.0239137
-0.0266415
0.000481275
-0.00270898
-0.00554531
-0.00809364
-0.0106173
-0.013181
-0.0157414
-0.0182693
-0.0207662
-0.02324
-0.0256935
-0.00116045
-0.00403584
-0.00654236
-0.00881147
-0.0110791
-0.0133848
-0.0156847
-0.0179555
-0.0202008
-0.0224275
-0.0246377
-0.00240697
-0.0050009
-0.00721994
-0.0092439
-0.011284
-0.0133605
-0.0154294
-0.0174723
-0.0194942
-0.0215013
-0.0234949
-0.00331553
-0.00565764
-0.00762576
-0.00943408
-0.0112719
-0.0131442
-0.0150078
-0.0168482
-0.0186714
-0.0204828
-0.0222833
-0.00393555
-0.00605211
-0.00780088
-0.0094192
-0.0110767
-0.0127668
-0.0144476
-0.0161077
-0.0177537
-0.0193905
-0.0210184
-0.0043098
-0.00622413
-0.00778083
-0.00923145
-0.0107279
-0.0122553
-0.0137731
-0.0152724
-0.01676
-0.0182405
-0.019714
-0.00447547
-0.00620825
-0.00759654
-0.00889888
-0.0102515
-0.0116331
-0.0130052
-0.0143608
-0.0157068
-0.0170474
-0.0183823
-0.004465
-0.0060346
-0.007275
-0.00844604
-0.00966978
-0.0109209
-0.0121626
-0.0133895
-0.0146087
-0.0158237
-0.0170343
-0.00430676
-0.00572954
-0.00683991
-0.00789453
-0.0090028
-0.0101367
-0.0112616
-0.0123733
-0.0134786
-0.0145809
-0.0156796
-0.00402572
-0.00531626
-0.00631212
-0.00726339
-0.00826806
-0.00929664
-0.0103168
-0.0113251
-0.0123282
-0.013329
-0.0143271
-0.00364382
-0.00481515
-0.00571008
-0.00656946
-0.00748111
-0.00841501
-0.00934101
-0.0102565
-0.0111677
-0.0120773
-0.0129847
-0.00318044
-0.0042442
-0.00505005
-0.00582768
-0.00665572
-0.00750442
-0.00834582
-0.00917786
-0.0100063
-0.0108337
-0.0116595
-0.00265268
-0.00361931
-0.00434643
-0.00505124
-0.0058041
-0.00657606
-0.00734136
-0.00809831
-0.00885233
-0.00960563
-0.0103577
-0.00207562
-0.00295447
-0.00361195
-0.00425182
-0.00493702
-0.00563983
-0.00633661
-0.00702596
-0.00771289
-0.00839938
-0.00908497
-0.00146254
-0.00226202
-0.0028578
-0.00343972
-0.00406399
-0.00470445
-0.00533949
-0.00596794
-0.00659437
-0.00722057
-0.00784611
-0.000825123
-0.00155279
-0.00209384
-0.00262396
-0.00319334
-0.00377755
-0.00435693
-0.00493047
-0.0055023
-0.00607406
-0.00664535
-0.00017357
-0.000836238
-0.00132866
-0.00181244
-0.00233234
-0.00286577
-0.00339493
-0.00391892
-0.00444147
-0.00496405
-0.0054863
0.00048323
-0.000120565
-0.000569715
-0.00101199
-0.00148725
-0.00197482
-0.00245862
-0.00293787
-0.0034159
-0.00389401
-0.0043719
0.00113759
0.000587137
0.000176568
-0.000228482
-0.00066345
-0.00110956
-0.00155239
-0.00199121
-0.00242898
-0.00286687
-0.00330461
0.00178293
0.00128084
0.000904732
0.000533124
0.000134556
-0.00027406
-0.000679837
-0.00108209
-0.00148344
-0.00188491
-0.00228629
0.00241367
0.00195543
0.00161019
0.00126867
0.000903009
0.000528326
0.000156084
-0.00021307
-0.000581429
-0.000949921
-0.00131834
0.00302514
0.0026067
0.00228914
0.00197474
0.00163887
0.00129492
0.00095306
0.000613898
0.000275435
-6.31489e-05
-0.000401682
0.00361352
0.0032312
0.00293856
0.00264865
0.00233975
0.00202366
0.00170935
0.00139739
0.00108605
0.000774603
0.000463201
0.00417573
0.00382621
0.00355603
0.00328828
0.00300385
0.00271304
0.00242373
0.00213647
0.00184975
0.00156296
0.00470938
0.00438966
0.00413981
0.00389214
0.00362991
0.00336207
0.00309548
0.00283065
0.00256633
0.00230195
0.00521271
0.00492007
0.00468864
0.00445923
0.00421718
0.00397021
0.00372427
0.00347987
0.00323592
0.00299193
0.00568451
0.00541647
0.00520181
0.00498901
0.00476532
0.00453734
0.00431022
0.00408441
0.00385901
0.0036336
0.00612406
0.0058784
0.00567901
0.00548137
0.00527441
0.00506373
0.00485374
0.00464489
0.0044364
0.00422792
0.00653111
0.00630579
0.00612036
0.00593656
0.00574486
0.00554994
0.00535558
0.0051622
0.00496914
0.00477612
0.00690577
0.00669894
0.00652629
0.00635518
0.00617739
0.00599684
0.00581676
0.0056375
0.00545853
0.00527961
0.00724851
0.00705849
0.00689756
0.00673807
0.00657299
0.00640557
0.00623852
0.00607216
0.00590606
0.00574003
0.00756009
0.00738534
0.00723518
0.00708636
0.00693289
0.00677745
0.0066223
0.00646773
0.0063134
0.00615913
0.00784153
0.00768065
0.00754038
0.00740135
0.0072585
0.00711399
0.00696971
0.00682592
0.00668234
0.00653882
0.00809405
0.00794574
0.00781457
0.00768454
0.00755138
0.00741685
0.00728249
0.00714854
0.00701478
0.00688108
0.00831906
0.00818213
0.00805932
0.00793754
0.00781324
0.0076878
0.00756249
0.00743752
0.00731271
0.00718797
0.00851809
0.00839144
0.0082763
0.00816208
0.00804585
0.00792868
0.00781162
0.00769482
0.00757817
0.00746158
0.00869277
0.00857539
0.00846728
0.00835996
0.00825106
0.00814141
0.00803183
0.00792246
0.00781322
0.00770404
0.00884482
0.00873574
0.00863403
0.008533
0.00843075
0.00832789
0.00822508
0.00812244
0.00801991
0.00791742
0.00897597
0.0088743
0.0087784
0.00868307
0.0085868
0.00849006
0.00839334
0.00829676
0.00820027
0.00810382
0.00908794
0.00899284
0.00890216
0.00881196
0.00872104
0.00862976
0.00853849
0.00844733
0.00835624
0.00826519
0.00918249
0.00909315
0.00900712
0.00892147
0.0088353
0.00874885
0.00866242
0.00857606
0.00848975
0.00840348
0.00926117
0.00917681
0.00909487
0.00901321
0.00893119
0.00884896
0.00876674
0.00868458
0.00860245
0.00852037
0.00932565
0.00924554
0.0091671
0.00908889
0.00901042
0.00893181
0.0088532
0.00877464
0.00869611
0.00861762
0.00937713
0.0093005
0.00922499
0.00914964
0.00907413
0.00899852
0.00892293
0.00884736
0.00877184
0.00869634
0.00941718
0.00934333
0.00927015
0.00919709
0.00912394
0.00905074
0.00897755
0.0089044
0.00883128
0.0087582
0.00944617
0.00937429
0.0093028
0.00923141
0.00915998
0.00908855
0.00901713
0.00894576
0.00887442
0.00880314
0.00946585
0.00939526
0.00932485
0.00925451
0.0091842
0.00911391
0.00904365
0.00897345
0.0089033
0.00883322
0.00947493
0.00940469
0.00933455
0.00926451
0.00919452
0.00912459
0.00905472
0.00898492
0.0089152
0.00884557
0.111596
0.112206
0.113405
0.115119
0.117298
0.119898
0.122881
0.126209
0.129847
0.133753
0.137884
0.142187
0.146604
0.15106
0.155474
0.159742
0.163749
0.167353
0.170399
0.172698
0.174053
0.174216
0.172963
0.169967
0.165026
0.157664
0.147854
0.134625
0.118601
0.0967149
0.110578
0.11116
0.112298
0.113923
0.115983
0.118432
0.121228
0.124332
0.127701
0.13129
0.135049
0.138919
0.142835
0.146717
0.150474
0.153999
0.157172
0.159849
0.161875
0.163065
0.163237
0.162158
0.159634
0.155377
0.149235
0.140819
0.130146
0.116597
0.100928
0.0827776
0.109486
0.110037
0.11111
0.11264
0.114573
0.11686
0.119459
0.122324
0.125411
0.128669
0.132042
0.135468
0.138875
0.142179
0.145286
0.148085
0.150457
0.152259
0.153346
0.153544
0.152689
0.150577
0.147052
0.141877
0.134958
0.126017
0.115154
0.102054
0.087379
0.0708412
0.108316
0.108834
0.109838
0.111267
0.113065
0.115183
0.117574
0.120192
0.122987
0.125903
0.128883
0.131858
0.134753
0.13748
0.139944
0.142033
0.143631
0.144601
0.144808
0.144093
0.142314
0.139298
0.134923
0.12901
0.121509
0.112249
0.101346
0.088643
0.074555
0.0588559
0.107068
0.10755
0.108482
0.109805
0.111464
0.113406
0.115584
0.117947
0.120444
0.123015
0.125598
0.128122
0.13051
0.132671
0.134512
0.135922
0.136789
0.136987
0.13639
0.134861
0.132279
0.128504
0.123445
0.116978
0.109082
0.0996643
0.0888286
0.076497
0.0629854
0.0482184
0.10574
0.106185
0.107042
0.108257
0.109771
0.111533
0.113493
0.115597
0.117792
0.120016
0.122203
0.124282
0.126173
0.127787
0.129031
0.1298
0.12999
0.129483
0.128172
0.125936
0.122679
0.118294
0.112717
0.10587
0.0977533
0.0883283
0.0776936
0.0658336
0.0530239
0.0392616
0.104333
0.10474
0.10552
0.106622
0.107989
0.109567
0.111304
0.113147
0.115039
0.116916
0.118713
0.120355
0.121764
0.122853
0.123533
0.123706
0.123275
0.122137
0.120199
0.117364
0.113555
0.108695
0.102746
0.0956668
0.0874747
0.0781705
0.0678527
0.0565507
0.0444912
0.0316973
0.102846
0.103214
0.103916
0.104903
0.106119
0.10751
0.109024
0.110605
0.112194
0.113729
0.115142
0.11636
0.117307
0.117899
0.118051
0.117675
0.116683
0.114988
0.112511
0.109177
0.104929
0.0997167
0.0935222
0.086333
0.0781814
0.0690963
0.0591728
0.0484671
0.0371554
0.0252793
0.101281
0.101609
0.102231
0.103101
0.104165
0.105368
0.106657
0.107977
0.109268
0.110467
0.111507
0.112318
0.112825
0.11295
0.112615
0.11174
0.110251
0.108072
0.105141
0.101403
0.0968185
0.091361
0.0850285
0.0778313
0.0698114
0.0610167
0.0515354
0.0414395
0.0308626
0.0198617
0.0996389
0.0999249
0.100467
0.101219
0.10213
0.103145
0.104211
0.105273
0.106271
0.107143
0.107825
0.108247
0.108341
0.108033
0.107254
0.105934
0.104008
0.101417
0.0981139
0.0940594
0.0892316
0.0836222
0.0772427
0.0701198
0.0623016
0.0538477
0.0448381
0.0353539
0.0254932
0.0153231
0.0979203
0.098165
0.0986257
0.0992607
0.100019
0.100847
0.101693
0.102501
0.103215
0.103772
0.104112
0.104169
0.103878
0.103174
0.101995
0.100282
0.0979809
0.0950474
0.0914468
0.0871561
0.0821671
0.076486
0.0701349
0.0631518
0.0555877
0.047509
0.0389866
0.0301066
0.0209364
0.0115478
0.0961278
0.0963309
0.0967109
0.0972287
0.0978352
0.0984794
0.0991095
0.099672
0.100111
0.100368
0.100385
0.100101
0.0994562
0.0983942
0.0968606
0.0948065
0.0921901
0.0889789
0.0851506
0.0806956
0.0756168
0.0699319
0.0636705
0.0568779
0.0496058
0.0419235
0.0338932
0.0256013
0.0170898
0.00843195
0.0942638
0.0944256
0.0947256
0.0951276
0.0955852
0.0960493
0.0964699
0.0967952
0.096972
0.0969452
0.0966597
0.0960607
0.0950954
0.0937137
0.0918705
0.0895268
0.0866514
0.0832229
0.07923
0.074674
0.0695668
0.0639346
0.0578118
0.051248
0.0442939
0.0370189
0.0294763
0.0217509
0.013863
0.00588556
0.0923313
0.0924523
0.0926736
0.0929621
0.0932744
0.0935637
0.0937823
0.093881
0.0938095
0.0935166
0.0929518
0.092066
0.0908129
0.0891504
0.0870417
0.0844574
0.0813759
0.0777856
0.0736846
0.0690829
0.0639992
0.0584657
0.0525196
0.0462124
0.0395925
0.0327273
0.0256619
0.0184774
0.0111767
0.00383087
0.0903338
0.0904149
0.0905592
0.0907373
0.0909089
0.09103
0.0910556
0.0909397
0.0906353
0.0900959
0.0892757
0.0881318
0.0866245
0.0847194
0.082388
0.0796094
0.0763707
0.0726689
0.0685096
0.0639095
0.0588927
0.0534947
0.0477542
0.0417226
0.0354452
0.0289861
0.0223826
0.0157115
0.00896132
0.00220038
0.0882754
0.0883175
0.0883875
0.0884589
0.0884953
0.0884559
0.0882988
0.0879816
0.0874612
0.0866958
0.085645
0.084272
0.0825438
0.0804335
0.07792
0.0749904
0.0716393
0.0678708
0.0636965
0.0591383
0.0542236
0.04899
0.0434761
0.0377319
0.031799
0.0257376
0.0195778
0.0133915
0.00715565
0.000935449
0.0861604
0.0861651
0.0861635
0.0861329
0.0860405
0.0858494
0.085521
0.0850169
0.0842983
0.0833283
0.0820721
0.080499
0.0785826
0.0763028
0.0736456
0.0706049
0.0671817
0.063386
0.059234
0.0547513
0.049967
0.0449197
0.0396467
0.0341959
0.0286048
0.0229292
0.0171929
0.0114625
0.00570595
-1.49504e-05
0.0839939
0.0839628
0.083893
0.0837656
0.0835519
0.0832186
0.0827313
0.0820555
0.0811572
0.0800046
0.0785684
0.0768237
0.0747506
0.0723352
0.0695699
0.0664544
0.0629952
0.0592067
0.0551086
0.0507287
0.0460971
0.0412519
0.0362288
0.0310726
0.025817
0.0205129
0.0151788
0.00987563
0.00456494
-0.000695265
0.0817811
0.0817162
0.081582
0.0813638
0.0810366
0.0805717
0.0799385
0.0791071
0.0780482
0.0767349
0.0751437
0.0732553
0.0710556
0.0685364
0.0656957
0.0625382
0.0590747
0.0553229
0.051305
0.0470499
0.0425879
0.0379557
0.0331868
0.0283229
0.0233936
0.0184451
0.0134913
0.0085877
0.00369104
-0.00114433
0.0795279
0.0794312
0.079237
0.0789342
0.0785024
0.0779168
0.0771515
0.0761809
0.0749805
0.0735286
0.0718068
0.0698013
0.0675033
0.0649099
0.0620235
0.0588531
0.0554128
0.0517228
0.0478068
0.0436937
0.0394135
0.0350009
0.0304871
0.0259101
0.021296
0.0166863
0.0120908
0.00756015
0.00304753
-0.0013962
0.0772403
0.0771142
0.0768645
0.076484
0.0759566
0.075262
0.0743787
0.0732855
0.0719628
0.0703937
0.068565
0.0664678
0.0640981
0.0614573
0.058552
0.0553943
0.052001
0.0483936
0.0445966
0.0406387
0.0365485
0.0323587
0.0280978
0.0238003
0.0194889
0.0152007
0.010942
0.00675872
0.00260199
-0.00148078
0.0749247
0.0747717
0.0744713
0.0740204
0.073407
0.0726153
0.0716282
0.070429
0.0690029
0.0673376
0.0654245
0.0632594
0.0608423
0.0581787
0.0552782
0.0521555
0.0488291
0.0453215
0.041657
0.0378637
0.0339685
0.0300017
0.0259893
0.0219623
0.0179401
0.0139559
0.010013
0.00615286
0.00232569
-0.00142444
0.0725878
0.0724104
0.0720645
0.0715506
0.070861
0.0699842
0.0689076
0.0676189
0.0661077
0.0643663
0.0623901
0.0601791
0.0577371
0.0550725
0.0521977
0.0491291
0.0458862
0.0424919
0.0389702
0.0353477
0.0316496
0.027904
0.0241338
0.020367
0.0166202
0.0129226
0.00927518
0.00571536
0.00219317
-0.00125048
0.0702362
0.0700372
0.0696511
0.0690818
0.0683259
0.0673762
0.0662242
0.0648621
0.0632836
0.0614849
0.0594656
0.0572291
0.0547823
0.0521361
0.0493049
0.0463064
0.0431607
0.0398904
0.0365186
0.0330705
0.0295696
0.0260411
0.0225057
0.0189881
0.0155024
0.0120743
0.008703
0.00542195
0.00218183
-0.000979475
0.0678771
0.0676592
0.0672381
0.0666212
0.0658089
0.0647981
0.0635847
0.0621646
0.0605356
0.0586976
0.0566536
0.0544099
0.0519763
0.0493655
0.0465934
0.0436784
0.0406406
0.0375021
0.034285
0.0310128
0.0277069
0.0243902
0.0210811
0.0178012
0.0145624
0.0113873
0.00827349
0.00525099
0.0022716
-0.000629648
0.0655173
0.0652834
0.0648327
0.0641758
0.0633168
0.0622567
0.0609952
0.059532
0.0578683
0.0560075
0.0539556
0.0517215
0.0493168
0.0467561
0.0440559
0.0412351
0.0383136
0.0353125
0.0322527
0.0291558
0.0260415
0.0229302
0.0198381
0.0167842
0.0137782
0.01084
0.00796609
0.00518316
0.00244466
-0.000217113
0.0631639
0.0629167
0.0624417
0.0617523
0.0608563
0.0597582
0.0584613
0.0569689
0.0552853
0.053417
0.0513723
0.0491624
0.0468006
0.0443023
0.0416848
0.0389667
0.0361675
0.0333072
0.0304054
0.027482
0.0245545
0.0216413
0.0187565
0.0159167
0.0131298
0.0104132
0.00776239
0.00520128
0.00268521
0.000243894
0.0608239
0.060566
0.0600719
0.0593574
0.0584335
0.0573082
0.055988
0.0544794
0.0527896
0.0509275
0.0489037
0.0467309
0.0444237
0.0419982
0.0394718
0.0368629
0.0341902
0.0314725
0.0287279
0.0259746
0.0232283
0.0205053
0.0178178
0.0151803
0.0125991
0.0100894
0.00764593
0.00529005
0.00297926
0.000740828
0.0585039
0.0582381
0.0577298
0.0569972
0.0560542
0.0549119
0.0535798
0.0520671
0.0503834
0.0485398
0.0465488
0.0444243
0.0421816
0.0398373
0.0374087
0.0349137
0.0323698
0.0297949
0.0272055
0.024618
0.0220466
0.0195055
0.0170052
0.0145583
0.0121699
0.009853
0.00760206
0.0054359
0.00331446
0.00126266
0.0562108
0.0559395
0.0554218
0.0546778
0.053724
0.0525742
0.0512405
0.0497345
0.0480682
0.0462541
0.0443062
0.0422394
0.0400694
0.0378131
0.0354872
0.0331089
0.0306949
0.0282617
0.0258244
0.0233977
0.0209941
0.0186263
0.0163032
0.0140356
0.0118276
0.00969017
0.00761772
0.00562685
0.00367994
0.00179977
0.0539507
0.0536764
0.0531538
0.0524047
0.0514478
0.0502991
0.0489734
0.0474841
0.0458449
0.0440699
0.0421739
0.0401726
0.038082
0.0359185
0.0336987
0.0314388
0.0291545
0.0268608
0.0245715
0.0223
0.0200571
0.0178538
0.015698
0.0135986
0.011559
0.00958848
0.00768138
0.0058523
0.00406619
0.00234375
0.0517299
0.0514548
0.0509314
0.050183
0.04923
0.0480906
0.0467812
0.0453174
0.0437139
0.0419861
0.0401495
0.03822
0.0362138
0.0341469
0.0320352
0.029894
0.0277379
0.0255807
0.023435
0.0213123
0.0192226
0.0171752
0.0151767
0.013235
0.0113524
0.0095369
0.00778282
0.006103
0.00446492
0.00288739
0.0495541
0.0492801
0.0487598
0.0480174
0.0470747
0.0459517
0.0446663
0.0432355
0.0416752
0.0400014
0.0382301
0.0363775
0.0344594
0.0324913
0.0304885
0.0284653
0.0264352
0.0244108
0.0224034
0.0204232
0.018479
0.0165788
0.0147282
0.0129339
0.0111974
0.0095257
0.0079131
0.00637087
0.00486899
0.0034245
0.0474286
0.0471577
0.046644
0.0459123
0.0449856
0.0438852
0.0426304
0.0412391
0.0397282
0.038114
0.0364128
0.0346407
0.0328131
0.0309451
0.029051
0.0271442
0.025237
0.0233411
0.0214664
0.0196221
0.0178156
0.0160541
0.0143422
0.0126854
0.0110848
0.00954631
0.0080644
0.0066489
0.00527226
0.00394985
0.0453584
0.0450923
0.0445882
0.0438713
0.0429657
0.0418934
0.0406749
0.0393286
0.037872
0.0363218
0.0346943
0.0330052
0.0312696
0.0295017
0.0277151
0.0259223
0.0241346
0.0223623
0.0206145
0.0188992
0.0172229
0.0155918
0.0140095
0.0124809
0.0110065
0.00959127
0.00822996
0.0069311
0.00566954
0.00445908
0.0433481
0.0430882
0.0425963
0.041898
0.0410177
0.0399782
0.0388005
0.0375037
0.0361054
0.0346226
0.0330712
0.0314666
0.0298233
0.0281549
0.0264739
0.0247921
0.0231196
0.0214659
0.0198389
0.0182459
0.0166922
0.0151833
0.0137221
0.0123127
0.0109553
0.00965408
0.00840396
0.00721238
0.00605648
0.00494861
0.0414017
0.0411492
0.0406719
0.0399952
0.0391438
0.0381409
0.0370078
0.035764
0.0344271
0.0330139
0.0315401
0.0300205
0.028469
0.0268985
0.0253207
0.0237463
0.0221846
0.0206441
0.0191318
0.0176541
0.0162158
0.0148211
0.0134729
0.0121742
0.0109252
0.00972916
0.00858147
0.00748847
0.00642951
0.00541561
0.0395229
0.0392788
0.038818
0.0381655
0.0373459
0.0363826
0.0352971
0.0341087
0.0328353
0.031493
0.0300974
0.0286625
0.0272017
0.025727
0.0242492