/*--------------------------------*- C++ -*----------------------------------*\
  =========                 |
  \\      /  F ield         | OpenFOAM: The Open Source CFD Toolbox
   \\    /   O peration     | Website:  https://openfoam.org
    \\  /    A nd           | Version:  7
     \\/     M anipulation  |
\*---------------------------------------------------------------------------*/
FoamFile
{
    version     2.0;
    format      ascii;
    class       surfaceScalarField;
    location    "100";
    object      phi;
}
// * * * * * * * * * * * * * * * * * * * * * * * * * * * * * * * * * * * * * //

dimensions      [0 3 -1 0 0 0 0];

internalField   nonuniform List<scalar> 
16730
(
-0.00362843
-0.000593672
-0.000571811
-0.00347851
-0.00357718
-0.000623059
-0.000547258
-0.00333593
-0.000599115
-0.00342665
-0.00352433
-0.00065197
-0.000521027
-0.00320245
-0.000572525
-0.00328443
-0.000625912
-0.00337326
-0.00346985
-0.000680388
-0.000544507
-0.00315156
-0.000597302
-0.00323163
-0.000652187
-0.00331838
-0.00341375
-0.000708284
-0.000515451
-0.00302651
-0.000567555
-0.00309946
-0.000621592
-0.0031776
-0.000677933
-0.00326203
-0.00335603
-0.000735654
-0.000485184
-0.00290775
-0.000536894
-0.0029748
-0.000590182
-0.00304617
-0.00064541
-0.00312237
-0.000703162
-0.00320428
-0.00329663
-0.00076257
-0.000505023
-0.00285623
-0.000557943
-0.00292188
-0.000612406
-0.00299171
-0.000668792
-0.00306598
-0.000727873
-0.0031452
-0.00323551
-0.000788985
-0.00047175
-0.00274312
-0.000524469
-0.00280351
-0.000578595
-0.00286775
-0.00063425
-0.00293605
-0.000691805
-0.00300843
-0.000751984
-0.00308502
-0.00317268
-0.000814817
-0.000489601
-0.00269056
-0.000543509
-0.00274961
-0.00059884
-0.00281242
-0.000655723
-0.00287917
-0.000714505
-0.00294965
-0.000775986
-0.00302354
-0.00310946
-0.000839212
-0.000453341
-0.00258269
-0.00050705
-0.00263685
-0.000562125
-0.00269453
-0.000618653
-0.00275589
-0.000676788
-0.00282103
-0.000736615
-0.00288982
-0.000797256
-0.0029629
-0.00304311
-0.000863597
-0.000415739
-0.00247951
-0.000469263
-0.00252917
-0.000524099
-0.00258201
-0.000580317
-0.00263831
-0.000638013
-0.00269819
-0.000697328
-0.00276172
-0.000758287
-0.00282886
-0.000820876
-0.00290031
-0.00297647
-0.000887522
-0.000430186
-0.00242616
-0.000484803
-0.00247455
-0.000540739
-0.00252608
-0.000598071
-0.00258098
-0.000656897
-0.00263937
-0.000717338
-0.00270128
-0.000779452
-0.00276675
-0.00084348
-0.00283628
-0.00290941
-0.000910541
-0.00038986
-0.00232717
-0.000444272
-0.00237175
-0.000499956
-0.00241887
-0.000556967
-0.00246907
-0.000615384
-0.00252256
-0.000675304
-0.00257945
-0.000736836
-0.00263975
-0.000800068
-0.00270352
-0.000865259
-0.00277109
-0.00284171
-0.000932958
-0.000402544
-0.00227298
-0.000457994
-0.0023163
-0.00051472
-0.00236214
-0.000572778
-0.00241101
-0.000632251
-0.00246309
-0.000693233
-0.00251847
-0.000755824
-0.00257716
-0.000820125
-0.00263921
-0.000886351
-0.00270487
-0.00277327
-0.000954785
-0.000414888
-0.00221777
-0.000471352
-0.00225984
-0.000529093
-0.0023044
-0.000588172
-0.00235193
-0.000648672
-0.00240259
-0.000710684
-0.00245645
-0.000774303
-0.00251354
-0.000839629
-0.00257389
-0.000906831
-0.00263766
-0.00270404
-0.000976061
-0.000370691
-0.00212212
-0.000426892
-0.00216157
-0.000484343
-0.00220239
-0.000543073
-0.00224567
-0.000603147
-0.00229185
-0.000664646
-0.00234109
-0.000727658
-0.00239344
-0.000792275
-0.00244892
-0.000858592
-0.00250757
-0.000926741
-0.00256952
-0.00263397
-0.000996809
-0.000381388
-0.00206624
-0.000438553
-0.00210441
-0.000496966
-0.00214397
-0.00055666
-0.00218598
-0.000617701
-0.00223081
-0.000680171
-0.00227862
-0.000744157
-0.00232946
-0.000809745
-0.00238333
-0.000877024
-0.00244029
-0.000946101
-0.00250044
-0.00256304
-0.00101704
-0.000334938
-0.00197169
-0.000391768
-0.00200941
-0.000449872
-0.0020463
-0.000509221
-0.00208463
-0.000569852
-0.00212535
-0.000631834
-0.00216883
-0.000695249
-0.00221521
-0.000760181
-0.00226452
-0.000826714
-0.0023168
-0.000894931
-0.00237208
-0.000964925
-0.00243044
-0.00249122
-0.00103674
-0.000344079
-0.00191534
-0.000401832
-0.00195166
-0.000460848
-0.00198729
-0.000521106
-0.00202437
-0.000582648
-0.0020638
-0.000645545
-0.00210593
-0.000709878
-0.00215087
-0.000775731
-0.00219867
-0.000843185
-0.00224934
-0.000912319
-0.00230294
-0.000983218
-0.00235955
-0.00241851
-0.00105593
-0.000295668
-0.00181842
-0.00035293
-0.00185808
-0.000411578
-0.00189301
-0.000471479
-0.00192738
-0.00053262
-0.00196323
-0.000595048
-0.00200138
-0.000658834
-0.00204215
-0.000724059
-0.00208565
-0.000790807
-0.00213192
-0.000859158
-0.00218099
-0.000929189
-0.00223291
-0.00100098
-0.00228775
-0.00234491
-0.00107458
-0.00030334
-0.00176196
-0.000361491
-0.00179993
-0.000421007
-0.00183349
-0.000481766
-0.00186662
-0.000543764
-0.00190123
-0.00060705
-0.00193809
-0.000671699
-0.0019775
-0.000737791
-0.00201956
-0.000805409
-0.00206431
-0.000874634
-0.00211177
-0.000945542
-0.002162
-0.00101821
-0.00221508
-0.00227043
-0.00109269
-0.000310751
-0.00170461
-0.000369762
-0.00174092
-0.000430117
-0.00177314
-0.000491707
-0.00180503
-0.000554535
-0.0018384
-0.000618654
-0.00187397
-0.000684139
-0.00191201
-0.000751072
-0.00195262
-0.000819536
-0.00199584
-0.000889612
-0.00204169
-0.000961375
-0.00209024
-0.00103491
-0.00214155
-0.00219508
-0.00111026
-0.000259677
-0.00160119
-0.000317901
-0.00164638
-0.000377741
-0.00168108
-0.000438908
-0.00171197
-0.000501303
-0.00174264
-0.000564934
-0.00177477
-0.000629859
-0.00180905
-0.000696155
-0.00184572
-0.000763903
-0.00188487
-0.000833188
-0.00192656
-0.00090409
-0.00197079
-0.000976687
-0.00201764
-0.00105106
-0.00206717
-0.00211886
-0.00112727
-0.000265732
-0.0015443
-0.000324789
-0.00158732
-0.00038543
-0.00162044
-0.00044738
-0.00165002
-0.000510552
-0.00167947
-0.00057496
-0.00171036
-0.000640664
-0.00174334
-0.000707744
-0.00177864
-0.000776281
-0.00181634
-0.000846361
-0.00185648
-0.000918066
-0.00189909
-0.000991475
-0.00194423
-0.00106667
-0.00199197
-0.00204181
-0.00114372
-0.000271557
-0.00148655
-0.000331416
-0.00152746
-0.000392827
-0.00155903
-0.000455532
-0.00158732
-0.000519453
-0.00161555
-0.000584611
-0.0016452
-0.000651068
-0.00167688
-0.000718905
-0.0017108
-0.000788205
-0.00174704
-0.000859055
-0.00178563
-0.000931537
-0.0018266
-0.00100573
-0.00187004
-0.00108173
-0.00191598
-0.00196395
-0.0011596
-0.000218587
-0.00137075
-0.000277152
-0.00142798
-0.000337781
-0.00146684
-0.000399933
-0.00149688
-0.000463364
-0.00152388
-0.000528007
-0.0015509
-0.000593888
-0.00157932
-0.00066107
-0.0016097
-0.000729637
-0.00164224
-0.000799673
-0.001677
-0.000871266
-0.00171404
-0.000944501
-0.00175337
-0.00101946
-0.00179508
-0.00109624
-0.0018392
-0.00188529
-0.0011749
-0.00022317
-0.00131437
-0.000282516
-0.00136864
-0.000343883
-0.00140547
-0.000406746
-0.00143401
-0.000470876
-0.00145975
-0.000536213
-0.00148557
-0.000602788
-0.00151275
-0.000670669
-0.00154182
-0.000739938
-0.00157297
-0.000810684
-0.00160625
-0.000882994
-0.00164173
-0.000956955
-0.00167941
-0.00103265
-0.00171938
-0.00111018
-0.00176167
-0.00180586
-0.00118961
-0.000227557
-0.0012572
-0.00028765
-0.00130854
-0.000349723
-0.0013434
-0.000413268
-0.00137047
-0.000478066
-0.00139496
-0.000544069
-0.00141956
-0.000611311
-0.00144551
-0.000679862
-0.00147327
-0.000749808
-0.00150302
-0.000821236
-0.00153483
-0.000894235
-0.00156873
-0.000968895
-0.00160475
-0.0010453
-0.00164297
-0.00112356
-0.00168342
-0.00172569
-0.00120373
-0.000231747
-0.00119926
-0.000292553
-0.00124774
-0.0003553
-0.00128065
-0.000419496
-0.00130627
-0.000484935
-0.00132952
-0.000551576
-0.00135292
-0.000619457
-0.00137763
-0.000688651
-0.00140407
-0.000759244
-0.00143243
-0.000831325
-0.00146275
-0.000904987
-0.00149506
-0.000980319
-0.00152942
-0.00105741
-0.00156588
-0.00113636
-0.00160447
-0.0016448
-0.00121725
-0.00017707
-0.0010687
-0.00023574
-0.00114059
-0.000297225
-0.00118625
-0.000360614
-0.00121726
-0.000425431
-0.00124146
-0.000491482
-0.00126347
-0.000558732
-0.00128567
-0.000627223
-0.00130913
-0.000697031
-0.00133427
-0.000768244
-0.00136121
-0.000840952
-0.00139004
-0.000915247
-0.00142077
-0.000991222
-0.00145344
-0.00106897
-0.00148813
-0.00114859
-0.00152484
-0.00156323
-0.00123016
-0.000180175
-0.00101359
-0.000239536
-0.00108123
-0.000301665
-0.00112412
-0.000365665
-0.00115326
-0.000431073
-0.00117605
-0.000497707
-0.00119683
-0.000565537
-0.00121784
-0.00063461
-0.00124006
-0.000705004
-0.00126387
-0.000776807
-0.00128941
-0.000850113
-0.00131673
-0.000925013
-0.00134587
-0.0010016
-0.00137685
-0.00107998
-0.00140975
-0.00116024
-0.00144458
-0.00148101
-0.00124246
-0.000183118
-0.000957788
-0.000243134
-0.00102121
-0.000305874
-0.00106138
-0.000370452
-0.00108868
-0.000436421
-0.00111008
-0.000503608
-0.00112965
-0.000571989
-0.00114946
-0.000641616
-0.00117044
-0.000712567
-0.00119292
-0.000784932
-0.00121705
-0.000858806
-0.00124286
-0.000934283
-0.00127039
-0.00101146
-0.00129968
-0.00109043
-0.00133078
-0.0011713
-0.00136371
-0.00139816
-0.00125415
-0.000185901
-0.00090132
-0.000246534
-0.000960577
-0.00030985
-0.000998067
-0.000374976
-0.00102356
-0.000441476
-0.00104358
-0.000509186
-0.00106194
-0.000578089
-0.00108056
-0.00064824
-0.00110028
-0.000719719
-0.00112144
-0.000792617
-0.00114415
-0.00086703
-0.00116845
-0.000943053
-0.00119437
-0.00102078
-0.00122195
-0.00110032
-0.00125124
-0.00118177
-0.00128227
-0.00131472
-0.00126521
-0.000188522
-0.000844229
-0.000249736
-0.000899364
-0.000313594
-0.000934209
-0.000379235
-0.000957916
-0.000446235
-0.000976578
-0.000514439
-0.000993732
-0.000583836
-0.00101116
-0.000654481
-0.00102964
-0.000726458
-0.00104947
-0.00079986
-0.00107075
-0.000874782
-0.00109352
-0.000951321
-0.00111783
-0.00102958
-0.00114369
-0.00110965
-0.00117117
-0.00119165
-0.00120027
-0.00123071
-0.00127565
-0.000133308
-0.000705499
-0.000190981
-0.000786556
-0.000252739
-0.000837606
-0.000317106
-0.000869842
-0.00038323
-0.000891791
-0.0004507
-0.000909108
-0.000519368
-0.000925064
-0.000589228
-0.0009413
-0.000660339
-0.000958528
-0.000732785
-0.00097702
-0.00080666
-0.000996871
-0.000882061
-0.00101812
-0.000959086
-0.0010408
-0.00103784
-0.00106494
-0.00111841
-0.00109059
-0.00120093
-0.00111776
-0.00114618
-0.00128546
-0.00013506
-0.000653594
-0.000193278
-0.000728338
-0.000255543
-0.00077534
-0.000320384
-0.000805001
-0.000386961
-0.000825214
-0.00045487
-0.000841199
-0.000523972
-0.000855963
-0.000594265
-0.000871007
-0.000665811
-0.000886982
-0.000738696
-0.000904135
-0.000813014
-0.000922553
-0.000888864
-0.000942274
-0.000966345
-0.000963322
-0.00104556
-0.000985727
-0.00112661
-0.00100954
-0.0012096
-0.00103476
-0.00106116
-0.00129463
-0.00013669
-0.000601162
-0.000195412
-0.000669615
-0.000258149
-0.000712604
-0.00032343
-0.000739719
-0.000390427
-0.000758218
-0.000458744
-0.000772882
-0.00052825
-0.000786457
-0.000598947
-0.00080031
-0.000670899
-0.000815031
-0.000744192
-0.000830841
-0.000818923
-0.000847822
-0.000895191
-0.000866006
-0.000973096
-0.000885417
-0.00105274
-0.000906082
-0.00113423
-0.000928051
-0.00121768
-0.000951319
-0.000975672
-0.00130316
-0.000138195
-0.000548246
-0.000197383
-0.000610427
-0.000260554
-0.000649432
-0.000326243
-0.00067403
-0.000393628
-0.000690833
-0.000462323
-0.000704187
-0.000532203
-0.000716577
-0.000603273
-0.00072924
-0.0006756
-0.000742704
-0.000749271
-0.00075717
-0.000824384
-0.000772708
-0.000901039
-0.000789351
-0.000979337
-0.00080712
-0.00105938
-0.000826038
-0.00114128
-0.000846152
-0.00122514
-0.000867457
-0.000889759
-0.00131105
-0.000139576
-0.000494885
-0.000199191
-0.000550812
-0.000262761
-0.000585863
-0.000328823
-0.000607968
-0.000396564
-0.000623092
-0.000465606
-0.000635145
-0.000535828
-0.000646355
-0.000607242
-0.000657826
-0.000679913
-0.000670032
-0.000753933
-0.00068315
-0.000829397
-0.000697244
-0.000906407
-0.000712341
-0.000985066
-0.000728461
-0.00106548
-0.000745626
-0.00114775
-0.000763879
-0.001232
-0.000783213
-0.000803453
-0.0013183
-0.000140832
-0.000441119
-0.000200835
-0.000490809
-0.000264767
-0.00052193
-0.000331169
-0.000541566
-0.000399234
-0.000555028
-0.000468592
-0.000565787
-0.000539127
-0.000575819
-0.000610853
-0.0005861
-0.000683839
-0.000597047
-0.000758175
-0.000608814
-0.00083396
-0.000621459
-0.000911294
-0.000635006
-0.000990282
-0.000649473
-0.00107103
-0.000664879
-0.00115364
-0.000681264
-0.00123824
-0.000698619
-0.00071679
-0.0013249
-0.000141962
-0.000386989
-0.000202315
-0.000430456
-0.000266574
-0.000457671
-0.000333282
-0.000474858
-0.000401639
-0.000486671
-0.000471281
-0.000496144
-0.000542099
-0.000505002
-0.000614107
-0.000514092
-0.000687376
-0.000523777
-0.000761998
-0.000534192
-0.000838072
-0.000545386
-0.000915699
-0.000557379
-0.000994984
-0.000570188
-0.00107603
-0.000583831
-0.00115896
-0.000598341
-0.00124386
-0.00061371
-0.000629804
-0.00133085
-0.000142968
-0.000332536
-0.000203631
-0.000369793
-0.00026818
-0.000393122
-0.00033516
-0.000407878
-0.000403778
-0.000418053
-0.000473674
-0.000426248
-0.000544743
-0.000433933
-0.000617002
-0.000441833
-0.000690524
-0.000450255
-0.000765401
-0.000459316
-0.000841732
-0.000469055
-0.00091962
-0.000479492
-0.000999169
-0.000490639
-0.00108049
-0.000502513
-0.00116368
-0.000515143
-0.00124887
-0.000528521
-0.000542532
-0.00133615
-0.000143848
-0.000277799
-0.000204783
-0.000308858
-0.000269587
-0.000328319
-0.000336805
-0.000340659
-0.000405651
-0.000349208
-0.00047577
-0.000356128
-0.000547059
-0.000362643
-0.000619539
-0.000369353
-0.000693283
-0.000376512
-0.000768383
-0.000384215
-0.00084494
-0.000392498
-0.000923056
-0.000401376
-0.00100284
-0.000410858
-0.00108439
-0.00042096
-0.00116783
-0.000431705
-0.00125326
-0.000443086
-0.000455008
-0.00134079
-8.96229e-05
-0.000184487
-0.000144602
-0.00022282
-0.000205771
-0.000247689
-0.000270792
-0.000263298
-0.000338216
-0.000273235
-0.000407258
-0.000280167
-0.000477568
-0.000285818
-0.000549047
-0.000291164
-0.000621717
-0.000296683
-0.000695651
-0.000302577
-0.000770943
-0.000308923
-0.000847694
-0.000315747
-0.000926007
-0.000323063
-0.00100599
-0.000330878
-0.00108774
-0.000339204
-0.00117139
-0.00034806
-0.00125703
-0.000357441
-0.000367267
-0.00134477
-9.00488e-05
-0.000138855
-0.000145231
-0.000167638
-0.000206594
-0.000186326
-0.000271798
-0.000198093
-0.000339393
-0.00020564
-0.000408599
-0.000210961
-0.000479069
-0.000215348
-0.000550707
-0.000219526
-0.000623535
-0.000223855
-0.000697629
-0.000228484
-0.000773082
-0.00023347
-0.000849995
-0.000238835
-0.000928471
-0.000244586
-0.00100862
-0.000250732
-0.00109054
-0.000257279
-0.00117436
-0.000264243
-0.00126018
-0.000271619
-0.000279346
-0.0013481
-9.03889e-05
-9.30678e-05
-0.000145733
-0.000112294
-0.000207253
-0.000124806
-0.000272603
-0.000132743
-0.000340336
-0.000137907
-0.000409674
-0.000141624
-0.000480273
-0.000144748
-0.000552038
-0.000147761
-0.000624994
-0.000150899
-0.000699216
-0.000154262
-0.000774798
-0.000157888
-0.000851841
-0.000161792
-0.000930449
-0.000165978
-0.00101073
-0.000170452
-0.00109279
-0.000175219
-0.00117674
-0.000180289
-0.00126271
-0.000185656
-0.000191275
-0.00135078
-9.06433e-05
-4.71632e-05
-0.000146109
-5.68282e-05
-0.000207747
-6.3169e-05
-0.000273208
-6.72819e-05
-0.000341045
-7.00697e-05
-0.000410482
-7.21868e-05
-0.000481179
-7.40514e-05
-0.000553041
-7.58993e-05
-0.000626093
-7.78465e-05
-0.000700412
-7.99433e-05
-0.000776091
-8.2209e-05
-0.000853232
-8.46504e-05
-0.000931939
-8.72709e-05
-0.00101232
-9.00723e-05
-0.00109448
-9.30573e-05
-0.00117854
-9.62312e-05
-0.0012646
-9.95907e-05
-0.000103089
-0.00135279
-9.08117e-05
-1.18077e-06
-0.000146359
-1.28048e-06
-0.000208076
-1.45249e-06
-0.000273612
-1.74605e-06
-0.000341519
-2.16188e-06
-0.000411024
-2.6819e-06
-0.000481787
-3.28855e-06
-0.000553715
-3.97195e-06
-0.000626832
-4.72887e-06
-0.000701216
-5.55929e-06
-0.000776961
-6.4639e-06
-0.000854169
-7.4431e-06
-0.000932942
-8.49696e-06
-0.00101339
-9.62538e-06
-0.00109562
-1.08284e-05
-0.00117974
-1.21069e-05
-0.00126587
-1.34584e-05
-1.48777e-05
-0.00135409
-9.08941e-05
4.48403e-05
-0.000146483
5.43086e-05
-0.00020824
6.03047e-05
-0.000273815
6.38287e-05
-0.00034176
6.57829e-05
-0.0004113
6.68586e-05
-0.000482098
6.75091e-05
-0.00055406
6.79897e-05
-0.000627211
6.84229e-05
-0.000701629
6.88588e-05
-0.000777409
6.93152e-05
-0.00085465
6.97983e-05
-0.000933458
7.0311e-05
-0.00101394
7.08557e-05
-0.0010962
7.14346e-05
-0.00118036
7.20516e-05
-0.00126653
7.27072e-05
7.33833e-05
-0.00135479
-9.08907e-05
9.08611e-05
-0.000146481
0.000109899
-0.00020824
0.000122064
-0.000273818
0.000129406
-0.000341766
0.000133731
-0.00041131
0.000136403
-0.000482111
0.00013831
-0.000554076
0.000139954
-0.000627231
0.000141578
-0.000701652
0.00014328
-0.000777433
0.000145097
-0.000854677
0.000147042
-0.000933486
0.000149121
-0.00101397
0.000151338
-0.00109623
0.000153698
-0.00118039
0.000156211
-0.00126656
0.000158874
0.000161652
-0.00135483
-9.08013e-05
0.000136842
-0.000146352
0.00016545
-0.000208076
0.000183788
-0.000273621
0.000194951
-0.000341539
0.000201649
-0.000411054
0.000205918
-0.000481827
0.000209083
-0.000553764
0.000211891
-0.000626891
0.000214704
-0.000701283
0.000217672
-0.000777035
0.000220849
-0.000854248
0.000224255
-0.000933027
0.000227899
-0.00101348
0.000231788
-0.00109571
0.000235929
-0.00117983
0.000240335
-0.00126596
0.000245005
0.000249885
-0.0013542
-9.06258e-05
0.000182745
-0.000146097
0.000220921
-0.000207746
0.000245436
-0.000273223
0.000260428
-0.000341077
0.000269504
-0.000410532
0.000275373
-0.000481245
0.000279797
-0.000553123
0.000283769
-0.000626191
0.000287771
-0.000700523
0.000292004
-0.000776214
0.00029654
-0.000853365
0.000301406
-0.00093208
0.000306614
-0.00101247
0.000312173
-0.00109463
0.000318093
-0.00117869
0.000324392
-0.00126475
0.000331066
0.000338045
-0.00135291
-9.03644e-05
0.00022853
-0.000145716
0.000276273
-0.000207252
0.000306972
-0.000272624
0.0003258
-0.000340381
0.000337261
-0.000409743
0.000344734
-0.000480366
0.00035042
-0.000552154
0.000355557
-0.000625131
0.000360748
-0.000699372
0.000366244
-0.00077497
0.000372139
-0.000852028
0.000378463
-0.000930647
0.000385234
-0.00101093
0.000392461
-0.001093
0.000400157
-0.00117695
0.000408345
-0.00126291
0.00041702
0.000426096
-0.00135096
-9.00171e-05
0.000274158
-0.000145209
0.000331465
-0.000206593
0.000368357
-0.000271825
0.000391032
-0.000339452
0.000404887
-0.000408689
0.000413972
-0.00047919
0.000420922
-0.000550857
0.000427224
-0.000623712
0.000433603
-0.000697831
0.000440363
-0.000773305
0.000447613
-0.000850236
0.000455395
-0.000928727
0.000463725
-0.00100888
0.000472617
-0.00109081
0.000482087
-0.00117463
0.000492161
-0.00126044
0.000502834
0.000514
-0.00134835
-8.95841e-05
-0.000144576
0.000386457
-0.00020577
0.000429551
-0.000270826
0.000456088
-0.000338288
0.000472349
-0.000407369
0.000483052
-0.000477717
0.00049127
-0.000549232
0.000498739
-0.000621935
0.000506306
-0.000695899
0.000514327
-0.000771218
0.000522932
-0.000847992
0.000532168
-0.000926322
0.000542056
-0.00100632
0.00055261
-0.00108808
0.000563849
-0.00117172
0.000575805
-0.00125736
0.000588471
0.000601723
-0.00134508
-0.000143817
0.000441208
-0.000204783
0.000490517
-0.000269627
0.000520932
-0.000336891
0.000539614
-0.000405783
0.000551944
-0.000475947
0.000561434
-0.000547279
0.000570071
-0.000619799
0.000578826
-0.000693578
0.000588107
-0.00076871
0.000598064
-0.000845294
0.000608752
-0.000923433
0.000620194
-0.00100323
0.000632407
-0.00108479
0.000645411
-0.00116823
0.000659243
-0.00125366
0.000673897
0.000689228
-0.00134116
-0.000142932
0.000495678
-0.000203631
0.000551216
-0.000268227
0.000585529
-0.000335261
0.000606647
-0.000403931
0.000620615
-0.00047388
0.000631383
-0.000544999
0.00064119
-0.000617304
0.000651131
-0.000690868
0.000661671
-0.000765782
0.000672979
-0.000842145
0.000685115
-0.000920059
0.000698107
-0.000999627
0.000711975
-0.00108096
0.00072674
-0.00116415
0.000742443
-0.00124934
0.000759078
0.000776481
-0.00133659
-0.000141922
0.000549827
-0.000202315
0.00061161
-0.000266628
0.000649842
-0.000333397
0.000673415
-0.000401815
0.000689033
-0.000471517
0.000701085
-0.000542392
0.000712064
-0.000614452
0.000723192
-0.00068777
0.000734988
-0.000762435
0.000747644
-0.000838546
0.000761226
-0.000916203
0.000775765
-0.00099551
0.000791282
-0.00107657
0.000807802
-0.0011595
0.000825369
-0.0012444
0.000843978
0.000863445
-0.00133136
-0.000140787
0.000603615
-0.000200836
0.000671659
-0.00026483
0.000713835
-0.000331299
0.000739885
-0.000399433
0.000757167
-0.000468859
0.00077051
-0.000539458
0.000782663
-0.000611243
0.000794978
-0.000684284
0.000808029
-0.000758669
0.000822029
-0.000834496
0.000837053
-0.000911865
0.000853134
-0.000990879
0.000870296
-0.00107164
0.000888565
-0.00115426
0.000907989
-0.00123885
0.000928564
0.000950086
-0.00132549
-0.000139527
0.000657001
-0.000199193
0.000731326
-0.000262831
0.000777473
-0.000328969
0.000806023
-0.000396787
0.000824985
-0.000465904
0.000839627
-0.000536198
0.000852957
-0.000607678
0.000866458
-0.000680411
0.000880761
-0.000754485
0.000896103
-0.000829997
0.000912565
-0.000907047
0.000930184
-0.000985736
0.000948985
-0.00106617
0.000968996
-0.00114845
0.00099027
-0.00123269
0.0010128
0.00103637
-0.00131897
-0.000138142
0.000709945
-0.000197387
0.000790571
-0.000260634
0.00084072
-0.000326407
0.000871795
-0.000393876
0.000892454
-0.000462654
0.000908405
-0.000532613
0.000922915
-0.000603757
0.000937602
-0.000676151
0.000953156
-0.000749884
0.000969836
-0.000825051
0.000987732
-0.000901751
0.00100688
-0.000980083
0.00102732
-0.00106015
0.00104906
-0.00114206
0.00107218
-0.00122592
0.00109666
0.00112226
-0.00131181
-0.000136633
0.000762406
-0.000195419
0.000849357
-0.000258238
0.000903539
-0.000323611
0.000937169
-0.000390701
0.000959544
-0.00045911
0.000976814
-0.000528702
0.000992508
-0.00059948
0.00100838
-0.000671507
0.00102518
-0.000744868
0.0010432
-0.000819659
0.00106252
-0.000895977
0.0010832
-0.000973922
0.00110526
-0.00105359
0.00112874
-0.0011351
0.00115368
-0.00121854
0.0011801
0.00120773
-0.00130401
-0.000135001
0.000814345
-0.000193287
0.000907643
-0.000255642
0.000965895
-0.000320584
0.00100211
-0.000387262
0.00102622
-0.00045527
0.00104482
-0.000524467
0.0010617
-0.000594849
0.00107876
-0.000666478
0.00109681
-0.000739437
0.00111616
-0.000813822
0.00113691
-0.000889728
0.00115911
-0.000967254
0.00118279
-0.0010465
0.00120798
-0.00112757
0.00123475
-0.00121056
0.0012631
0.00129273
-0.00129557
-0.000133245
-0.000190993
0.000965391
-0.000252849
0.00102775
-0.000317324
0.00106658
-0.000383559
0.00109246
-0.000451137
0.0011124
-0.000519908
0.00113048
-0.000589864
0.00114872
-0.000661065
0.00116801
-0.000733593
0.00118868
-0.000807541
0.00121085
-0.000883005
0.00123457
-0.000960081
0.00125987
-0.00103887
0.00128677
-0.00111947
0.00131535
-0.00120198
0.00134561
0.00137725
-0.0012865
-0.000188537
0.00102256
-0.000249856
0.00108907
-0.000313832
0.00113056
-0.000379593
0.00115822
-0.00044671
0.00117952
-0.000515025
0.00119879
-0.000584526
0.00121822
-0.00065527
0.00123875
-0.000727337
0.00126075
-0.000800818
0.00128434
-0.00087581
0.00130956
-0.000952407
0.00133646
-0.00103071
0.00136507
-0.00111081
0.00139545
-0.00119281
0.00142762
0.00146124
-0.0012768
-0.000185919
0.00107912
-0.000246666
0.00114982
-0.000310108
0.001194
-0.000375363
0.00122347
-0.000441989
0.00124614
-0.000509819
0.00126662
-0.000578836
0.00128724
-0.000649093
0.00130901
-0.000720669
0.00133233
-0.000793655
0.00135732
-0.000868145
0.00138405
-0.000944232
0.00141255
-0.00102201
0.00144285
-0.00110158
0.00147502
-0.00118304
0.00150908
0.00154467
-0.00126648
-0.00018314
0.00113502
-0.000243278
0.00120996
-0.000306154
0.00125688
-0.000370871
0.00128819
-0.000436975
0.00131225
-0.000504291
0.00133394
-0.000572794
0.00135574
-0.000642536
0.00137875
-0.000713592
0.00140338
-0.000786054
0.00142978
-0.000860012
0.00145801
-0.00093556
0.0014881
-0.00101279
0.00152008
-0.0010918
0.00155403
-0.00117269
0.00158997
0.00162751
-0.00125553
-0.0001802
0.00119022
-0.000239693
0.00126945
-0.000301967
0.00131915
-0.000366115
0.00135234
-0.000431668
0.0013778
-0.00049844
0.00140071
-0.000566402
0.0014237
-0.000635599
0.00144795
-0.000706107
0.00147389
-0.000778015
0.00150169
-0.000851413
0.00153141
-0.000926393
0.00156308
-0.00100305
0.00159673
-0.00108147
0.00163245
-0.00116175
0.00167025
0.00170974
-0.00124398
-0.0001771
-0.00023591
0.00132826
-0.00029755
0.00138079
-0.000361097
0.00141589
-0.000426069
0.00144277
-0.000492269
0.00146691
-0.000559659
0.00149109
-0.000628283
0.00151657
-0.000698215
0.00154383
-0.000769541
0.00157302
-0.00084235
0.00160422
-0.000916733
0.00163746
-0.00099278
0.00167278
-0.00107058
0.00171025
-0.00115023
0.0017499
0.00179132
-0.00123181
-0.00023193
0.00138635
-0.000292902
0.00144176
-0.000355818
0.0014788
-0.000420178
0.00150713
-0.000485776
0.00153251
-0.000552567
0.00155789
-0.00062059
0.0015846
-0.000689917
0.00161315
-0.000760633
0.00164373
-0.000832825
0.00167641
-0.000906584
0.00171122
-0.000981996
0.00174819
-0.00105915
0.00178741
-0.00113814
0.0018289
0.00187222
-0.00121904
-0.000227754
0.00144368
-0.000288024
0.00150203
-0.000350276
0.00154105
-0.000413996
0.00157085
-0.000478963
0.00159747
-0.000545127
0.00162405
-0.000612521
0.00165199
-0.000681215
0.00168185
-0.000751293
0.00171381
-0.000822841
0.00174796
-0.000895947
0.00178432
-0.000970697
0.00182294
-0.00104718
0.00186389
-0.00112548
0.0019072
0.00195241
-0.00120567
-0.000223382
-0.000282915
0.00156157
-0.000344472
0.00160261
-0.000407522
0.0016339
-0.00047183
0.00166178
-0.000537338
0.00168956
-0.000604076
0.00171873
-0.00067211
0.00174988
-0.000741522
0.00178322
-0.000812398
0.00181883
-0.000884825
0.00185675
-0.000958886
0.001897
-0.00103467
0.00193967
-0.00111225
0.00198479
0.00203187
-0.00119172
-0.000277576
0.00162033
-0.000338407
0.00166344
-0.000400756
0.00169625
-0.000464378
0.0017254
-0.000529203
0.00175438
-0.000595256
0.00178478
-0.000662603
0.00181723
-0.000731323
0.00185194
-0.0008015
0.00188901
-0.000873221
0.00192847
-0.000946566
0.00197035
-0.00102162
0.00201472
-0.00109847
0.00206163
0.00211058
-0.00117717
-0.000272007
0.00167829
-0.00033208
0.00172351
-0.0003937
0.00175787
-0.000456607
0.00178831
-0.000520721
0.0018185
-0.000586063
0.00185012
-0.000652695
0.00188386
-0.000720696
0.00191994
-0.000790148
0.00195846
-0.000861136
0.00199946
-0.000933741
0.00204295
-0.00100804
0.00208902
-0.00108412
0.00213772
0.0021885
-0.00116205
-0.000266209
0.00173541
-0.000325492
0.0017828
-0.000386354
0.00181873
-0.000448517
0.00185047
-0.000511893
0.00188187
-0.000576497
0.00191473
-0.000642387
0.00194975
-0.000709642
0.0019872
-0.000778344
0.00202717
-0.000848574
0.00206969
-0.000920414
0.00211479
-0.000993939
0.00216255
-0.00106923
0.00221301
0.00226562
-0.00114635
-0.000260181
-0.000318643
0.00184126
-0.000378717
0.00187881
-0.000440108
0.00191186
-0.00050272
0.00194448
-0.000566558
0.00197857
-0.000631681
0.00201487
-0.000698164
0.00205368
-0.000766089
0.00209509
-0.000835537
0.00213914
-0.000906586
0.00218584
-0.000979313
0.00223527
-0.0010538
0.0022875
0.00234191
-0.00113009
-0.000311534
0.00189887
-0.00037079
0.00193806
-0.000431383
0.00197246
-0.000493201
0.0020063
-0.000556249
0.00204161
-0.000620578
0.0020792
-0.000686263
0.00211937
-0.000753385
0.00216221
-0.000822025
0.00220778
-0.000892261
0.00225608
-0.000964168
0.00230718
-0.00103782
0.00236115
0.00241737
-0.00111328
-0.000304164
0.00195559
-0.000362574
0.00199647
-0.000422339
0.00203222
-0.000483339
0.0020673
-0.000545568
0.00210384
-0.000609077
0.00214271
-0.000673939
0.00218423
-0.000740233
0.00222851
-0.00080804
0.00227558
-0.00087744
0.00232548
-0.000948506
0.00237824
-0.00102132
0.00243396
0.00249196
-0.00109591
-0.000296533
-0.000354067
0.00205401
-0.000412978
0.00209113
-0.000473133
0.00212746
-0.000534518
0.00216523
-0.000597181
0.00220537
-0.000661193
0.00224824
-0.000726633
0.00229395
-0.000793584
0.00234254
-0.000862124
0.00239402
-0.000932328
0.00244845
-0.00100428
0.00250591
0.00256569
-0.00107801
-0.000345272
0.00211064
-0.000403301
0.00214916
-0.000462583
0.00218674
-0.000523098
0.00222574
-0.000584889
0.00226716
-0.000648026
0.00231138
-0.000712587
0.00235851
-0.000778657
0.0024086
-0.000846314
0.00246168
-0.000915637
0.00251777
-0.000986708
0.00257698
0.00263855
-0.00105957
-0.000336187
-0.000393307
0.00220628
-0.000451691
0.00224512
-0.00051131
0.00228536
-0.000572203
0.00232806
-0.000634438
0.00237361
-0.000698095
0.00242217
-0.000763258
0.00247377
-0.000830009
0.00252843
-0.000898429
0.00258619
-0.000968612
0.00264716
0.00271054
-0.0010406
-0.000382997
0.00226246
-0.000440456
0.00230258
-0.000499153
0.00234406
-0.000559122
0.00238803
-0.000620431
0.00243492
-0.000683157
0.00248489
-0.000747388
0.002538
-0.000813208
0.00259425
-0.000880704
0.00265369
-0.000949986
0.00271644
0.00278167
-0.00102111
-0.000372371
-0.000428879
0.00235909
-0.000486629
0.00240181
-0.000545649
0.00244705
-0.000606004
0.00249528
-0.000667773
0.00254666
-0.000731045
0.00260127
-0.000795908
0.00265911
-0.000862454
0.00272023
-0.000930821
0.00278481
0.00285194
-0.0010011
-0.000416962
0.00241462
-0.000473738
0.00245858
-0.000531783
0.00250509
-0.000591159
0.00255465
-0.000651943
0.00260745
-0.000714228
0.00266355
-0.000778105
0.00272299
-0.000843671
0.0027858
-0.0009111
0.00285224
0.0029214
-0.000980556
-0.000404704
0.00246915
-0.000460482
0.00251436
-0.000517527
0.00256214
-0.000575896
0.00261302
-0.000635668
0.00266722
-0.000696936
0.00272482
-0.000759797
0.00278585
-0.000824344
0.00285035
-0.000890796
0.00291869
0.00299007
-0.000959464
-0.000392107
-0.000446862
0.00256912
-0.00050288
0.00261815
-0.000560217
0.00267036
-0.000618948
0.00272595
-0.000679169
0.00278504
-0.000740981
0.00284766
-0.00080446
0.00291383
-0.000869861
0.00298409
0.00305799
-0.000937783
-0.000432879
-0.000487846
0.00267312
-0.000544124
0.00272663
-0.000601785
0.00278361
-0.000660925
0.00284418
-0.000721656
0.00290839
-0.000784014
0.00297618
-0.000848212
0.00304829
0.00312523
-0.000915448
-0.000472427
0.00272701
-0.00052762
0.00278183
-0.000584183
0.00284018
-0.000642207
0.00290221
-0.000701823