/*--------------------------------*- C++ -*----------------------------------*\
  =========                 |
  \\      /  F ield         | OpenFOAM: The Open Source CFD Toolbox
   \\    /   O peration     | Website:  https://openfoam.org
    \\  /    A nd           | Version:  7
     \\/     M anipulation  |
\*---------------------------------------------------------------------------*/
FoamFile
{
    version     2.0;
    format      ascii;
    class       volScalarField;
    location    "70";
    object      p;
}
// * * * * * * * * * * * * * * * * * * * * * * * * * * * * * * * * * * * * * //

dimensions      [0 2 -2 0 0 0 0];

internalField   nonuniform List<scalar> 
8500
(
-0.309866
-0.306484
-0.304343
-0.304095
-0.30627
-0.311088
-0.31829
-0.326992
-0.335673
-0.342325
-0.344685
-0.340838
-0.329536
-0.310869
-0.286195
-0.257877
-0.228701
-0.201247
-0.177442
-0.158615
-0.145655
-0.139395
-0.141028
-0.150725
-0.166707
-0.183763
-0.196131
-0.198113
-0.188508
-0.168653
-0.143975
-0.11875
-0.0974392
-0.080788
-0.0717366
-0.066502
-0.0702988
-0.0772063
-0.0968517
-0.107383
-0.117314
-0.10648
-0.0837562
-0.0533458
-0.0159256
-0.313246
-0.308603
-0.304967
-0.303041
-0.303418
-0.306407
-0.311852
-0.318982
-0.326386
-0.332141
-0.334063
-0.330273
-0.319521
-0.301858
-0.278534
-0.251731
-0.224115
-0.198161
-0.175742
-0.158179
-0.146404
-0.141337
-0.144239
-0.155195
-0.172246
-0.189948
-0.202411
-0.20395
-0.193467
-0.172505
-0.146668
-0.120419
-0.0982022
-0.0807856
-0.0709779
-0.0651462
-0.0681634
-0.0744013
-0.0932455
-0.103405
-0.113425
-0.103113
-0.0812433
-0.051858
-0.0155275
-0.316664
-0.310736
-0.305575
-0.301935
-0.300475
-0.301591
-0.305233
-0.310746
-0.316833
-0.321665
-0.323137
-0.319406
-0.309207
-0.292556
-0.270593
-0.245311
-0.219269
-0.194825
-0.173805
-0.15752
-0.146951
-0.143105
-0.147303
-0.159537
-0.177659
-0.195998
-0.208547
-0.209638
-0.198278
-0.176221
-0.149241
-0.121984
-0.098881
-0.0807185
-0.0701692
-0.063753
-0.0660047
-0.0715856
-0.089637
-0.0994322
-0.109531
-0.0997257
-0.078707
-0.0503475
-0.0151224
-0.320115
-0.312881
-0.306172
-0.300789
-0.29746
-0.296666
-0.298464
-0.302318
-0.307051
-0.310932
-0.311937
-0.308261
-0.29861
-0.282973
-0.262378
-0.23862
-0.214157
-0.191233
-0.171621
-0.156626
-0.147283
-0.144686
-0.150209
-0.163737
-0.182932
-0.2019
-0.214526
-0.215166
-0.202935
-0.179795
-0.151691
-0.123445
-0.0994768
-0.0805887
-0.0693137
-0.0623259
-0.0638264
-0.0687635
-0.0860302
-0.0954668
-0.105633
-0.0963218
-0.0761501
-0.0488158
-0.0147104
-0.323588
-0.315036
-0.306762
-0.299616
-0.294392
-0.291659
-0.291578
-0.293736
-0.297077
-0.299977
-0.300498
-0.296857
-0.287753
-0.273124
-0.253898
-0.231659
-0.208776
-0.187375
-0.169178
-0.155485
-0.147389
-0.146071
-0.152944
-0.167782
-0.188049
-0.207636
-0.220333
-0.220521
-0.207427
-0.183222
-0.154017
-0.124803
-0.0999908
-0.0803984
-0.0684146
-0.0608684
-0.0616328
-0.0659388
-0.082429
-0.0915126
-0.101735
-0.0929037
-0.0735756
-0.0472647
-0.0142918
-0.327075
-0.317196
-0.307347
-0.298425
-0.29129
-0.286596
-0.284609
-0.285037
-0.286949
-0.288839
-0.288847
-0.285218
-0.27666
-0.263021
-0.24516
-0.224431
-0.203125
-0.183245
-0.166467
-0.154088
-0.147259
-0.147247
-0.155498
-0.171659
-0.192996
-0.213192
-0.225956
-0.225693
-0.211747
-0.186498
-0.156215
-0.126058
-0.100425
-0.08015
-0.0674749
-0.0593839
-0.0594275
-0.0631155
-0.078837
-0.0875728
-0.0978398
-0.0894746
-0.0709863
-0.0456957
-0.0138669
-0.319356
-0.307929
-0.297226
-0.288172
-0.281503
-0.277588
-0.276259
-0.276709
-0.277553
-0.277016
-0.273368
-0.265351
-0.252679
-0.236173
-0.216937
-0.197201
-0.178839
-0.163481
-0.152425
-0.146885
-0.148208
-0.157859
-0.175355
-0.197757
-0.218555
-0.231381
-0.230671
-0.215887
-0.189619
-0.158286
-0.12721
-0.10078
-0.0798459
-0.0664978
-0.0578758
-0.0572145
-0.0602973
-0.0752581
-0.0836509
-0.0939507
-0.0860374
-0.068385
-0.0441105
-0.0134359
-0.321509
-0.308507
-0.296027
-0.285053
-0.276405
-0.270549
-0.267438
-0.266395
-0.266158
-0.265042
-0.261365
-0.253825
-0.242113
-0.226948
-0.209181
-0.191003
-0.17415
-0.160214
-0.150491
-0.146259
-0.148946
-0.16002
-0.178858
-0.202319
-0.22371
-0.236596
-0.235445
-0.219842
-0.192579
-0.160228
-0.12826
-0.101058
-0.0794883
-0.0654864
-0.0563477
-0.0549975
-0.0574879
-0.0716958
-0.0797498
-0.0900706
-0.082595
-0.0657747
-0.0425107
-0.0129992
-0.323645
-0.309081
-0.294834
-0.28195
-0.271326
-0.263523
-0.258613
-0.256048
-0.254695
-0.252959
-0.249214
-0.242133
-0.231336
-0.217495
-0.201169
-0.184532
-0.169178
-0.15666
-0.148279
-0.145377
-0.149453
-0.161971
-0.182157
-0.206668
-0.228644
-0.241589
-0.240007
-0.223603
-0.195377
-0.162039
-0.129209
-0.101262
-0.0790798
-0.0644437
-0.0548027
-0.0527799
-0.054691
-0.0681534
-0.0758727
-0.0862026
-0.0791503
-0.0631581
-0.0408981
-0.0125571
-0.325754
-0.309647
-0.293652
-0.278877
-0.266288
-0.256541
-0.249821
-0.245709
-0.243203
-0.240807
-0.236946
-0.230294
-0.220368
-0.207825
-0.192906
-0.177789
-0.16392
-0.152818
-0.145787
-0.144236
-0.149727
-0.163705
-0.185242
-0.210793
-0.233344
-0.24635
-0.244348
-0.227167
-0.198008
-0.16372
-0.130058
-0.101393
-0.0786228
-0.0633727
-0.0532441
-0.0505653
-0.0519101
-0.0646344
-0.0720227
-0.0823495
-0.0757063
-0.0605381
-0.0392741
-0.0121097
-0.327826
-0.310201
-0.292487
-0.275846
-0.261314
-0.249633
-0.241099
-0.235418
-0.231725
-0.228622
-0.224599
-0.21831
-0.209229
-0.197955
-0.1844
-0.170779
-0.158378
-0.148686
-0.143013
-0.142834
-0.149764
-0.165216
-0.188103
-0.214683
-0.237801
-0.250868
-0.248459
-0.230526
-0.200471
-0.16527
-0.13081
-0.101454
-0.07812
-0.0622766
-0.051675
-0.0483571
-0.0491485
-0.0611421
-0.0682028
-0.0785145
-0.0722661
-0.0579176
-0.0376405
-0.0116574
-0.329848
-0.310739
-0.291341
-0.272869
-0.256424
-0.242828
-0.232482
-0.225217
-0.220301
-0.216446
-0.212206
-0.206244
-0.1979
-0.187899
-0.17566
-0.163507
-0.152555
-0.144268
-0.139961
-0.141172
-0.149562
-0.166499
-0.190732
-0.218326
-0.242002
-0.255134
-0.252334
-0.233678
-0.202762
-0.166689
-0.131464
-0.101446
-0.0775737
-0.0611581
-0.0500987
-0.0461585
-0.0464095
-0.0576796
-0.0644159
-0.0747006
-0.0688325
-0.0552992
-0.0359989
-0.0112005
-0.331809
-0.311255
-0.290216
-0.269956
-0.251636
-0.236152
-0.224004
-0.215144
-0.208974
-0.204318
-0.199802
-0.194219
-0.18642
-0.177676
-0.166699
-0.155982
-0.146456
-0.139567
-0.136632
-0.139252
-0.149121
-0.16755
-0.19312
-0.221713
-0.245939
-0.259139
-0.255966
-0.236618
-0.204882
-0.167978
-0.132024
-0.101373
-0.0769865
-0.0600202
-0.048518
-0.0439725
-0.0436963
-0.05425
-0.060665
-0.0709109
-0.0654086
-0.0526859
-0.0343509
-0.0107393
-0.333696
-0.311744
-0.289115
-0.267117
-0.246968
-0.229633
-0.2157
-0.205239
-0.197786
-0.192281
-0.187423
-0.182045
-0.174843
-0.167305
-0.157531
-0.148213
-0.140091
-0.13459
-0.133034
-0.137079
-0.148442
-0.168366
-0.195261
-0.224836
-0.249603
-0.262876
-0.25935
-0.239343
-0.206828
-0.169136
-0.132492
-0.101236
-0.0763612
-0.0588656
-0.0469359
-0.0418022
-0.0410119
-0.0508564
-0.0569528
-0.0671484
-0.0619974
-0.0500803
-0.0326981
-0.0102741
-0.335497
-0.3122
-0.288037
-0.264361
-0.242438
-0.223293
-0.207601
-0.195541
-0.186778
-0.180378
-0.175111
-0.169844
-0.163192
-0.156809
-0.148174
-0.140215
-0.13347
-0.129347
-0.129175
-0.134659
-0.147527
-0.168946
-0.19715
-0.227688
-0.252986
-0.266339
-0.262481
-0.241851
-0.208599
-0.170166
-0.132868
-0.101039
-0.0757001
-0.057697
-0.0453552
-0.0396505
-0.0383591
-0.0475015
-0.0532823
-0.0634163
-0.058602
-0.0474852
-0.031042
-0.00980516
-0.3372
-0.312618
-0.286985
-0.261696
-0.23806
-0.217156
-0.199738
-0.186085
-0.175994
-0.168652
-0.162908
-0.157682
-0.151484
-0.146213
-0.138647
-0.132003
-0.126607
-0.12385
-0.125065
-0.132001
-0.146382
-0.169288
-0.198783
-0.230263
-0.256082
-0.269521
-0.265356
-0.24414
-0.210197
-0.171068
-0.133156
-0.100783
-0.0750059
-0.0565172
-0.0437786
-0.0375199
-0.0357409
-0.0441883
-0.0496562
-0.0597176
-0.0552253
-0.0449032
-0.0293843
-0.00933274
-0.338797
-0.312993
-0.285959
-0.259128
-0.233847
-0.211244
-0.192138
-0.176908
-0.165472
-0.157147
-0.150859
-0.145603
-0.139749
-0.135545
-0.128976
-0.123597
-0.119519
-0.118116
-0.120719
-0.129113
-0.145012
-0.169394
-0.200156
-0.232556
-0.258886
-0.272418
-0.267971
-0.246207
-0.21162
-0.171843
-0.133358
-0.100472
-0.0742811
-0.0553285
-0.0422087
-0.0354131
-0.0331597
-0.0409194
-0.0460771
-0.0560555
-0.0518704
-0.042337
-0.0277266
-0.00885716
-0.340278
-0.313321
-0.284961
-0.256666
-0.229814
-0.205575
-0.184828
-0.168042
-0.155252
-0.145905
-0.139008
-0.133648
-0.128018
-0.124838
-0.119187
-0.115019
-0.112227
-0.11216
-0.11615
-0.126009
-0.143422
-0.169265
-0.201267
-0.234563
-0.261394
-0.275027
-0.270323
-0.248054
-0.21287
-0.172493
-0.133475
-0.100109
-0.0735283
-0.0541335
-0.040648
-0.0333324
-0.0306182
-0.0376974
-0.0425478
-0.0524331
-0.0485403
-0.0397891
-0.0260703
-0.00837871
-0.341635
-0.313602
-0.283994
-0.254315
-0.225973
-0.200168
-0.177834
-0.159519
-0.145371
-0.134969
-0.127397
-0.121858
-0.116331
-0.114123
-0.10931
-0.106295
-0.104753
-0.106005
-0.111376
-0.1227
-0.14162
-0.168903
-0.202117
-0.236283
-0.263602
-0.277346
-0.272412
-0.249679
-0.213948
-0.17302
-0.133512
-0.0996959
-0.07275
-0.0529344
-0.0390989
-0.0312802
-0.0281186
-0.0345248
-0.0390707
-0.0488534
-0.0452381
-0.0372621
-0.024417
-0.00789765
-0.342862
-0.313833
-0.283059
-0.252083
-0.222334
-0.195039
-0.171177
-0.151368
-0.135865
-0.12438
-0.116073
-0.110275
-0.104737
-0.103427
-0.09938
-0.0974543
-0.0971238
-0.0996716
-0.106418
-0.119201
-0.139616
-0.168313
-0.202704
-0.237714
-0.26551
-0.279373
-0.274237
-0.251084
-0.214856
-0.173427
-0.13347
-0.0992356
-0.0719487
-0.0517336
-0.0375637
-0.0292585
-0.0256632
-0.031404
-0.0356483
-0.0453196
-0.0419667
-0.0347585
-0.0227682
-0.00741427
-0.343957
-0.314011
-0.282164
-0.249981
-0.218909
-0.190204
-0.164877
-0.143616
-0.126767
-0.114177
-0.105077
-0.0989408
-0.0932978
-0.0927495
-0.0894321
-0.0885282
-0.0893673
-0.0931861
-0.101294
-0.115527
-0.13742
-0.167499
-0.203031
-0.238856
-0.267117
-0.281107
-0.275798
-0.252269
-0.215594
-0.173715
-0.133352
-0.0987309
-0.0711269
-0.0505331
-0.0360445
-0.0272692
-0.023254
-0.0283372
-0.032283
-0.0418345
-0.0387291
-0.0322805
-0.0211253
-0.00692881
-0.344918
-0.314133
-0.281308
-0.248013
-0.215715
-0.185677
-0.158953
-0.136285
-0.118107
-0.104397
-0.0944527
-0.0878984
-0.082162
-0.0820489
-0.0795037
-0.0795511
-0.0815144
-0.0865748
-0.0960273
-0.111695
-0.13504
-0.166466
-0.203101
-0.23971
-0.268423
-0.282556
-0.277096
-0.253236
-0.216167
-0.173888
-0.133161
-0.0981846
-0.0702869
-0.0493349
-0.0345434
-0.0253143
-0.0208929
-0.0253265
-0.0289768
-0.0384012
-0.0355281
-0.0298306
-0.0194899
-0.00644155
-0.345741
-0.314211
-0.2805
-0.24617
-0.212753
-0.181479
-0.153423
-0.129396
-0.10991
-0.0950754
-0.0842384
-0.0771913
-0.071834
-0.0713771
-0.0696335
-0.0705598
-0.0735976
-0.0798661
-0.0906412
-0.107722
-0.13249
-0.165222
-0.202917
-0.24028
-0.26943
-0.28372
-0.278132
-0.253988
-0.216576
-0.173948
-0.132899
-0.0975994
-0.0694311
-0.048141
-0.0330621
-0.0233952
-0.0185816
-0.0223738
-0.0257321
-0.0350224
-0.0323665
-0.027411
-0.0178634
-0.00595271
-0.314244
-0.279747
-0.244501
-0.20999
-0.177612
-0.14831
-0.122971
-0.102202
-0.0862415
-0.0744718
-0.0668494
-0.0613677
-0.0608646
-0.0598624
-0.0615929
-0.0656514
-0.0730895
-0.0851594
-0.103626
-0.12978
-0.163773
-0.202484
-0.240567
-0.270139
-0.284461
-0.278909
-0.254526
-0.216825
-0.173898
-0.13257
-0.0969781
-0.0685619
-0.0469532
-0.0316026
-0.0215136
-0.0163217
-0.019481
-0.0225505
-0.0317009
-0.0292471
-0.0250237
-0.0162471
-0.00546252
-0.314236
-0.279051
-0.242989
-0.207531
-0.174008
-0.143617
-0.117036
-0.095006
-0.0779232
-0.0651873
-0.056912
-0.0512256
-0.0506032
-0.0502313
-0.0526905
-0.0577108
-0.0662751
-0.0796062
-0.099425
-0.126924
-0.162128
-0.201808
-0.240579
-0.270559
-0.285052
-0.27943
-0.254855
-0.216917
-0.173741
-0.132177
-0.0963232
-0.0676814
-0.0457733
-0.0301664
-0.0196708
-0.0141147
-0.0166498
-0.019434
-0.0284393
-0.0261724
-0.0226709
-0.0146424
-0.00497121
-0.314194
-0.278416
-0.241635
-0.205331
-0.170822
-0.139254
-0.111589
-0.0883492
-0.0701495
-0.056416
-0.0474077
-0.0414953
-0.0406435
-0.0407829
-0.0438932
-0.0498119
-0.0594537
-0.0740063
-0.0951369
-0.123933
-0.160296
-0.200896
-0.240318
-0.270693
-0.285356
-0.279699
-0.254978
-0.216855
-0.173481
-0.131721
-0.0956375
-0.066792
-0.0446027
-0.028755
-0.017868
-0.0119617
-0.0138816
-0.0163842
-0.02524
-0.023145
-0.0203543
-0.0130506
-0.00447896
-0.314123
-0.277851
-0.240446
-0.203388
-0.167993
-0.135401
-0.106536
-0.0822132
-0.0629599
-0.0481827
-0.0383605
-0.0322183
-0.0310279
-0.03156
-0.0352413
-0.0419903
-0.0526557
-0.0683842
-0.0907801
-0.120822
-0.158286
-0.199755
-0.239794
-0.270545
-0.285376
-0.279719
-0.2549
-0.216644
-0.173121
-0.131207
-0.0949234
-0.0658956
-0.0434431
-0.0273699
-0.0161064
-0.00986393
-0.0111778
-0.0134024
-0.0221052
-0.0201672
-0.0180759
-0.0114729
-0.00398595
-0.314025
-0.277359
-0.239428
-0.201707
-0.165512
-0.131993
-0.102081
-0.0764745
-0.0563655
-0.0405013
-0.0298529
-0.0233922
-0.0217939
-0.0226042
-0.0267743
-0.0342816
-0.0459114
-0.0627639
-0.0863728
-0.117602
-0.156108
-0.198394
-0.239011
-0.270122
-0.285126
-0.279497
-0.254623
-0.216288
-0.172665
-0.130637
-0.0941835
-0.0649943
-0.0422959
-0.0260121
-0.0143867
-0.00782219
-0.00853973
-0.01049
-0.0190372
-0.0172411
-0.0158373
-0.0099107
-0.00349235
-0.313906
-0.276946
-0.238584
-0.200293
-0.163382
-0.129014
-0.0981422
-0.071513
-0.0501557
-0.0333873
-0.0220224
-0.0149138
-0.0129743
-0.0139552
-0.0185299
-0.0267198
-0.0392499
-0.0571688
-0.0819326
-0.114287
-0.153772
-0.196821
-0.237979
-0.269431
-0.284611
-0.279037
-0.254155
-0.215791
-0.172116
-0.130014
-0.0934201
-0.0640901
-0.0411624
-0.024683
-0.01271
-0.00583727
-0.00596837
-0.00764806
-0.0160377
-0.0143689
-0.01364
-0.00836504
-0.00299827
-0.31377
-0.276612
-0.237917
-0.199146
-0.161607
-0.126466
-0.0946986
-0.0670982
-0.0446282
-0.026911
-0.0146513
-0.00697173
-0.00460072
-0.00564965
-0.0105442
-0.0193379
-0.0326994
-0.0516214
-0.0774766
-0.11089
-0.15129
-0.195046
-0.236706
-0.268479
-0.283836
-0.278344
-0.253498
-0.215157
-0.171478
-0.129341
-0.0926357
-0.0631849
-0.0400437
-0.0233833
-0.0110769
-0.00390972
-0.00346467
-0.00487746
-0.0131085
-0.0115523
-0.0114855
-0.00683708
-0.00250382
-0.313618
-0.27636
-0.237426
-0.198265
-0.16018
-0.124344
-0.0917483
-0.0632207
-0.039709
-0.0210399
-0.00787543
0.000419046
0.00329976
0.00227861
-0.0028506
-0.0121666
-0.0262863
-0.0461431
-0.0730214
-0.107424
-0.148672
-0.193079
-0.2352
-0.267274
-0.28281
-0.277425
-0.25266
-0.214393
-0.170755
-0.12862
-0.0918324
-0.0622804
-0.0389412
-0.022114
-0.00948788
-0.00203998
-0.00102942
-0.00217895
-0.0102511
-0.00879303
-0.00937511
-0.00532787
-0.00200908
-0.313454
-0.276191
-0.237108
-0.197644
-0.159098
-0.122644
-0.0892877
-0.0598877
-0.0353797
-0.0157754
-0.00171183
0.00725775
0.0107017
0.00979943
0.00452022
-0.00523465
-0.0200354
-0.0407538
-0.0685826
-0.103902
-0.145928
-0.19093
-0.233472
-0.265824
-0.281539
-0.276286
-0.251646
-0.213502
-0.169952
-0.127856
-0.0910127
-0.0613785
-0.037856
-0.0208759
-0.00794361
-0.000228339
0.00133667
0.000446903
-0.00746679
-0.00609258
-0.00730987
-0.00383842
-0.0015141
-0.276104
-0.236963
-0.197282
-0.158355
-0.121359
-0.0873095
-0.0570947
-0.0316408
-0.011119
0.00384496
0.0135302
0.017583
0.016886
0.0115403
0.0014319
-0.0139695
-0.0354723
-0.064175
-0.100336
-0.143071
-0.188609
-0.23153
-0.264137
-0.28003
-0.274933
-0.250461
-0.21249
-0.169071
-0.127051
-0.0901793
-0.0604812
-0.0367893
-0.0196698
-0.00644458
0.00152505
0.00363306
0.00299969
-0.00475661
-0.00345223
-0.00529087
-0.00236968
-0.00101889
-0.276101
-0.236988
-0.197173
-0.157942
-0.120477
-0.0858023
-0.0548307
-0.0284835
-0.00706635
0.00879476
0.0192238
0.0239249
0.0235147
0.0181847
0.00780917
-0.00810935
-0.0303156
-0.0598125
-0.0967376
-0.140111
-0.186126
-0.229382
-0.26222
-0.278288
-0.273372
-0.249111
-0.211361
-0.168118
-0.126207
-0.089333
-0.0595891
-0.0357415
-0.0184957
-0.00499071
0.00322042
0.00585954
0.00547937
-0.00212126
-0.000873016
-0.00331898
-0.000922549
-0.00052342
-0.276163
-0.23716
-0.197288
-0.15783
-0.119967
-0.0847347
-0.0530658
-0.0258803
-0.00359763
0.0131475
0.0243379
0.0297247
0.0296679
0.0244325
0.0138762
-0.00247399
-0.0252997
-0.0555083
-0.0931183
-0.137058
-0.183493
-0.22704
-0.260082
-0.276326
-0.271614
-0.247605
-0.210121
-0.167091
-0.125322
-0.0884712
-0.0587
-0.0347105
-0.0173517
-0.00358064
0.00485875
0.00801651
0.0078865
0.000439608
0.00164468
-0.00139477
0.000502205
-2.76398e-05
-0.276257
-0.237435
-0.197581
-0.157968
-0.11978
-0.0840581
-0.0517548
-0.0237903
-0.000680223
0.0169263
0.0288848
0.0349545
0.0353347
0.0302693
0.0196162
0.00292008
-0.0204395
-0.0512761
-0.0894915
-0.133927
-0.180723
-0.224518
-0.257741
-0.274157
-0.269671
-0.245951
-0.208771
-0.165993
-0.124396
-0.0875944
-0.0578142
-0.0336965
-0.0162377
-0.002214
0.00644052
0.0101037
0.0102212
0.00292643
0.00410101
0.000481608
0.00190404
0.000468599
-0.276439
-0.237876
-0.198114
-0.158419
-0.119974
-0.0838261
-0.0509452
-0.0222533
0.0016514
0.0201014
0.032836
0.0392741
0.0404892
0.0356709
0.0250094
0.00805806
-0.0157457
-0.0471235
-0.0858634
-0.130723
-0.177819
-0.221811
-0.255184
-0.271765
-0.26753
-0.244146
-0.207327
-0.164849
-0.123461
-0.0867308
-0.0569552
-0.0327176
-0.0151675
-0.000900755
0.00796094
0.0121163
0.0124795
0.00533326
0.00649282
0.00230862
0.00328192
0.0009654
-0.276983
-0.238784
-0.199203
-0.159497
-0.12085
-0.0843186
-0.0508878
-0.0214867
0.00321229
0.0225169
0.0360686
0.0432762
0.0450426
0.0405629
0.0300043
0.0129133
-0.0112213
-0.0430329
-0.0821972
-0.127389
-0.174699
-0.218817
-0.252294
-0.269043
-0.265122
-0.242175
-0.205819
-0.163716
-0.122579
-0.0859381
-0.0561697
-0.0318099
-0.0141694
0.000338049
0.00941023
0.0140459
0.0146539
0.00764402
0.00880815
0.0040793
0.00463163
0.00146212
-0.277721
-0.239981
-0.200663
-0.161014
-0.122221
-0.0853469
-0.051396
-0.0213085
0.00417192
0.0243187
0.0386886
0.0468257
0.0490115
0.0449282
0.0345548
0.0174309
-0.00691362
-0.0390332
-0.0784988
-0.123907
-0.171333
-0.215502
-0.249059
-0.266016
-0.262491
-0.240067
-0.204237
-0.162546
-0.12168
-0.0851438
-0.0553942
-0.0309201
-0.0132001
0.00153474
0.0108083
0.0159122
0.0167627
0.00987668
0.0110449
0.00579335
0.00595053
0.00195813
-0.276552
-0.239146
-0.200051
-0.160498
-0.121662
-0.0845999
-0.0503197
-0.0197614
0.00627762
0.0270376
0.0420025
0.0507718
0.0532367
0.0493549
0.0389828
0.021664
-0.00302975
-0.0355729
-0.0754353
-0.121143
-0.168758
-0.213033
-0.246658
-0.263691
-0.260289
-0.238027
-0.202388
-0.160907
-0.12025
-0.0838585
-0.0542158
-0.0297185
-0.0119885
0.00289595
0.0122664
0.0178105
0.0188958
0.0121925
0.013328
0.00751936
0.00727834
0.00246464
-0.272479
-0.235086
-0.196027
-0.156507
-0.117669
-0.0805455
-0.0461149
-0.0152822
0.011153
0.0324328
0.047982
0.0575851
0.0601412
0.0563359
0.0456782
0.0276649
0.00190418
-0.0319388
-0.073115
-0.119936
-0.168338
-0.212983
-0.246557
-0.263115
-0.258996
-0.236031
-0.199912
-0.158279
-0.117732
-0.0815431
-0.0521422
-0.0277427
-0.0100806
0.00488457
0.0141863
0.0202325
0.0216101
0.0153323
0.0165899
0.00979075
0.00901777
0.00312708
-0.26553
-0.228836
-0.190486
-0.151628
-0.113356
-0.0766691
-0.0425233
-0.0118092
0.0146456
0.0360681
0.0518151
0.0611676
0.0644193
0.0606883
0.0498761
0.0314658
0.00511173
-0.0293818
-0.071067
-0.118072
-0.166234
-0.210226
-0.242917
-0.258577
-0.253878
-0.230758
-0.19497
-0.153999
-0.114233
-0.0787124
-0.0498026
-0.025645
-0.00814778
0.00690187
0.0162643
0.0228287
0.0243779
0.0184496
0.0194825
0.0121124
0.0108359
0.00381825
-0.25793
-0.222088
-0.184608
-0.146576
-0.109037
-0.072959
-0.0392752
-0.00886515
0.0174228
0.0387967
0.0545659
0.0640614
0.0672495
0.0634231
0.052375
0.0335853
0.00678108
-0.0280857
-0.0698848
-0.116598
-0.164013
-0.206904
-0.238423
-0.25309
-0.247866
-0.224775
-0.189527
-0.149394
-0.110531
-0.075761
-0.047398
-0.0235249
-0.00622496
0.00888289
0.0182878
0.0253301
0.0270229
0.0214054
0.0222874
0.014314
0.0125791
0.00448412
-0.250366
-0.215448
-0.178911
-0.14178
-0.105055
-0.0696669
-0.0365264
-0.00649956
0.019556
0.0408319
0.0565994
0.0661978
0.0693351
0.065427
0.0541681
0.0350465
0.00787197
-0.0272518
-0.069019
-0.11528
-0.1618
-0.203476
-0.233735
-0.24735
-0.241564
-0.218502
-0.183837
-0.144606
-0.106702
-0.0727278
-0.0449465
-0.0213825
-0.00429595
0.0108482
0.0202651
0.0277603
0.0296054
0.0243004
0.0250729
0.0164789
0.0143091
0.00515505
-0.242871
-0.208962
-0.173455
-0.137316
-0.101494
-0.0668889
-0.0343824
-0.00482673
0.0209196
0.0420356
0.0577599
0.0673969
0.0705436
0.0666055
0.055219
0.0358831
0.00848689
-0.0267252
-0.0682883
-0.113936
-0.15943
-0.199788
-0.228692
-0.241205
-0.234845
-0.211858
-0.177864
-0.139627
-0.102753
-0.0696254
-0.0424632
-0.0192347
-0.00237868
0.01278
0.0221854
0.0301066
0.0321064
0.0271145
0.0278053
0.0185978
0.0160219
0.00583133
-0.235448
-0.202632
-0.168238
-0.133176
-0.0983469
-0.0646148
-0.0328352
-0.00384383
0.0215057
0.0423834
0.0580025
0.0676318
0.0707869
0.0668478
0.05541
0.0359865
0.00854205
-0.0265524
-0.0676961
-0.112527
-0.156823
-0.195728
-0.223186
-0.234566
-0.227659
-0.204833
-0.171619
-0.134472
-0.0986968
-0.0664641
-0.0399558
-0.0170891
-0.000480383
0.0146715
0.0240435
0.0323604
0.0345128
0.0298342
0.0304662
0.020657
0.0177065
0.0065084
-0.228141
-0.196483
-0.163272
-0.129361
-0.0956007
-0.0628232
-0.031855
-0.00351491
0.0213535
0.0419154
0.0573652
0.0669439
0.0700925
0.0661733
0.054752
0.0353607
0.00803817
-0.0267319
-0.067236
-0.111039
-0.153959
-0.191276
-0.21721
-0.227435
-0.220027
-0.197459
-0.165131
-0.129164
-0.0945501
-0.0632551
-0.037432
-0.0149521
0.00139384
0.0165184
0.0258353
0.0345161
0.0368178
0.0324568
0.0330522
0.0226531
0.0193599
0.00718528
-0.22099
-0.190543
-0.158569
-0.125867
-0.093241
-0.0614883
-0.0314067
-0.00379644
0.0205131
0.0406873
0.0559084
0.0653934
0.0685246
0.0646485
0.0533119
0.034071
0.0070355
-0.0272122
-0.0668677
-0.109445
-0.150822
-0.186427
-0.210769
-0.219833
-0.211981
-0.189771
-0.158435
-0.123731
-0.090331
-0.0600104
-0.0349001
-0.0128307
0.00323831
0.0183158
0.0275568
0.0365685
0.0390149
0.0349809
0.0355627
0.0245862
0.0209827
0.00786309
-0.214027
-0.184827
-0.154131
-0.122683
-0.0912444
-0.0605756
-0.0314461
-0.00463583
0.0190437
0.0387644
0.0537002
0.0630514
0.0661575
0.0623505
0.0511686
0.032196
0.00560844
-0.0279274
-0.0665374
-0.107705
-0.147387
-0.181173
-0.203868
-0.21178
-0.203556
-0.181811
-0.151565
-0.118198
-0.0860585
-0.0567428
-0.0323688
-0.0107318
0.00504704
0.020059
0.029204
0.0385126
0.0410972
0.0374048
0.037996
0.0264562
0.0225759
0.00854325
-0.207276
-0.179345
-0.149953
-0.119793
-0.0895803
-0.0600433
-0.0319209
-0.00597121
0.0170147
0.0362215
0.0508204
0.0600023
0.0630772
0.059367
0.0484097
0.0298209
0.00383653
-0.0288072
-0.0661872
-0.105776
-0.143626
-0.175502
-0.196515
-0.203306
-0.194797
-0.173628
-0.144563
-0.112594
-0.0817523
-0.0534653
-0.0298466
-0.0086624
0.00681393
0.0217431
0.0307728
0.0403438
0.0430576
0.0397266
0.0403494
0.0282633
0.0241402
0.00922737
-0.200753
-0.174099
-0.146024
-0.11717
-0.088213
-0.0598438
-0.0327727
-0.00773415
0.0145038
0.0331413
0.0473591
0.0563413
0.059382
0.0557978
0.0451339
0.0270405
0.00180638
-0.0297763
-0.0657561
-0.103613
-0.139514
-0.169408
-0.188729
-0.194452
-0.185759
-0.165274
-0.137472
-0.10695
-0.0774326
-0.0501913
-0.0273425
-0.00662943
0.00853286
0.0233634
0.0322594
0.0420581
0.0448896
0.0419445
0.0426197
0.0300078
0.0256771
0.00991743
-0.194466
-0.169087
-0.142329
-0.11479
-0.0871036
-0.0599272
-0.0339403
-0.00985265
0.0115929
0.0296158
0.0434127
0.0521709
0.0551778
0.0517508
0.0414483
0.0239563
-0.000389967
-0.0307563
-0.0651823
-0.101174
-0.135029
-0.162898
-0.180542
-0.185274
-0.176507
-0.156808
-0.130336
-0.101297
-0.0731196
-0.0469341
-0.024865
-0.00463963
0.0101977
0.0249153
0.0336602
0.043652
0.0465869
0.0440556
0.0448031
0.0316907
0.027188
0.010616
-0.188421
-0.164301
-0.138851
-0.112624
-0.0862129
-0.0602429
-0.0353623
-0.0122545
0.00836476
0.0257363
0.0390808
0.0475965
0.0505734
0.0473365
0.0374617
0.0206714
-0.00266063
-0.0316706
-0.0644083
-0.0984234
-0.130162
-0.15599
-0.172001
-0.17584
-0.167112
-0.148293
-0.123202
-0.0956651
-0.0688333
-0.043707
-0.0224229
-0.00269953
0.0118024
0.0263942
0.0349716
0.0451222
0.048144
0.0460568
0.0468945
0.033313
0.0286745
0.011326
-0.182613
-0.159731
-0.13557
-0.110642
-0.085502
-0.0607418
-0.0369793
-0.01487
0.00489918
0.0215932
0.0344615
0.0427213
0.0456752
0.0426618
0.0332783
0.0172826
-0.00492112
-0.0324519
-0.0633881
-0.0953414
-0.124922
-0.148719
-0.163173
-0.166229
-0.157653
-0.139792
-0.116115
-0.0900843
-0.064593
-0.0405228
-0.0200247
-0.000815408
0.0133412
0.0277955
0.0361904
0.0464662
0.049556
0.0479433
0.0488877
0.0348758
0.0301377
0.0120512
-0.177039
-0.155365
-0.132467
-0.108817
-0.0849346
-0.0613784
-0.0387357
-0.0176339
0.00127123
0.0172711
0.029647
0.037643
0.0405829
0.0378255
0.0289922
0.0138746
-0.00710138
-0.0330496
-0.0620946
-0.091928
-0.119338
-0.141153
-0.154141
-0.156534
-0.148214
-0.131369
-0.10912
-0.0845836
-0.0604171
-0.037394
-0.0176787
0.00100678
0.0148086
0.0291148
0.0373136
0.0476816
0.0508193
0.0497093
0.0507748
0.0363796
0.0315778
0.0127955
-0.17169
-0.15119
-0.129522
-0.107123
-0.0844777
-0.0621114
-0.0405817
-0.0204867
-0.0024506
0.0128467
0.0247216
0.0324507
0.0353865
0.0329145
0.0246827
0.0105145
-0.00915131
-0.0334354
-0.0605251
-0.0882093
-0.113466
-0.13337
-0.145002
-0.146853
-0.138876
-0.123085
-0.102257
-0.0791896
-0.0563229
-0.0343323
-0.0153927
0.00276141
0.0161994
0.0303474
0.0383382
0.0487665
0.0519314
0.0513473
0.0525463
0.0378244
0.0329932
0.0135631
-0.166556
-0.147193
-0.126719
-0.105539
-0.0841021
-0.0629047
-0.0424733
-0.0233764
-0.00620669
0.00838762
0.0197598
0.027223
0.0301644
0.0280022
0.0204132
0.00725016
-0.0110432
-0.0336061
-0.0587037
-0.0842379
-0.107387
-0.12547
-0.135866
-0.137285
-0.129721
-0.114997
-0.095565
-0.0739268
-0.0523261
-0.0313486
-0.0131743
0.00444321
0.017509
0.031489
0.039262
0.0497194
0.0528912
0.0528483
0.0541908
0.0392093
0.0343804
0.0143584
-0.161626
-0.14336
-0.124041
-0.104042
-0.0837826
-0.0637272
-0.044373
-0.0262587
-0.00994692
0.00395225
0.0148257
0.0220271
0.0249826
0.0231481
0.0162308
0.00411088
-0.0127706
-0.0335816
-0.0566782
-0.0800891
-0.101197
-0.117566
-0.126843
-0.127928
-0.120821
-0.107156
-0.0890768
-0.0688167
-0.0484409
-0.0284529
-0.0110306
0.00604729
0.0187331
0.032535
0.0400827
0.0505391
0.0536989
0.0542018
0.0556953
0.0405318
0.0357329
0.0151856
-0.156889
-0.139679
-0.121474
-0.102617
-0.0834981
-0.0645533
-0.0462498
-0.0290967
-0.0136252
-0.000410514
0.00997251
0.0169186
0.0198951
0.0183989
0.0121689
0.00111055
-0.0143437
-0.0333996
-0.054514
-0.0758528
-0.0950056
-0.10977
-0.118039
-0.118867
-0.112239
-0.0996028
-0.0828199
-0.0638779
-0.0446797
-0.025654
-0.00896829
0.00756916
0.0198684
0.0334811
0.0407983
0.0512247
0.0543561
0.0553966
0.0570452
0.0417877
0.0370406
0.016048
-0.152335
-0.136139
-0.119004
-0.101247
-0.0832309
-0.0653616
-0.0480783
-0.0318605
-0.017208
-0.00466118
0.00524331
0.011942
0.0149444
0.0137902
0.00824983
-0.00174774
-0.0157834
-0.0331075
-0.0522842
-0.0716232
-0.0889186
-0.102191
-0.109549
-0.110176
-0.104028
-0.0923723
-0.0768168
-0.0591256
-0.0410534
-0.0229599
-0.00699332
0.0090047
0.020912
0.0343232
0.0414073
0.0517758
0.0548653
0.0564206
0.0582249
0.0429707
0.0382898
0.0169482
-0.147952
-0.132728
-0.11662
-0.0999214
-0.0829665
-0.0661351
-0.0498384
-0.0345263
-0.0206678
-0.00876881
0.000671679
0.00713189
0.0101633
0.00934822
0.00448797
-0.00446714
-0.0171147
-0.032754
-0.0500601
-0.0674884
-0.0830315
-0.094918
-0.10145
-0.101912
-0.0962244
-0.0854891
-0.0710841
-0.054572
-0.0375708
-0.0203774
-0.00511112
0.0103501
0.0218615
0.0350574
0.0419082
0.0521928
0.0552301
0.0572621
0.0592181
0.0440714
0.0394628
0.0178863
-0.14373
-0.129436
-0.114313
-0.0986282
-0.0826929
-0.0668602
-0.051514
-0.0370755
-0.0239835
-0.0127098
-0.00371683
0.00251443
0.00557588
0.00509169
0.000892173
-0.00705339
-0.0183615
-0.0323829
-0.0479032
-0.0635223
-0.0774217
-0.0880226
-0.0937969
-0.0941141
-0.088855
-0.0789699
-0.0656335
-0.0502264
-0.0342393
-0.0179124
-0.00332643
0.0116021
0.0227154
0.0356804
0.0422998
0.0524765
0.0554544
0.0579104
0.0600092
0.0450777
0.040538
0.01886
-0.139659
-0.126255
-0.112073
-0.0973587
-0.0824005
-0.0675261
-0.0530929
-0.0394942
-0.0271392
-0.0164665
-0.00790349
-0.00189157
0.00119955
0.00103364
-0.00253215
-0.00951226
-0.0195435
-0.0320287
-0.0458611
-0.0597801
-0.072145
-0.0815531
-0.086627
-0.0868059
-0.0819331
-0.0728234
-0.0604718
-0.0460952
-0.0310647
-0.0155695
-0.00164324
0.0127576
0.0234728
0.0361896
0.0425814
0.0526285
0.0555421
0.0583564
0.060584
0.0459737
0.0414911
0.0198623
-0.13573
-0.123175
-0.109891
-0.0961051
-0.0820813
-0.0681241
-0.0545657
-0.041772
-0.0301233
-0.0200264
-0.0118751
-0.00607305
-0.00295402
-0.00281735
-0.00578181
-0.0118483
-0.0206748
-0.0317152
-0.0439657
-0.0562976
-0.0672355
-0.0755364
-0.0799571
-0.0799956
-0.0754623
-0.0670519
-0.0556021
-0.0421823
-0.0280513
-0.0133526
-6.4807e-05
0.0138141
0.0241332
0.0365831
0.0427524
0.0526514
0.0554967
0.0585933
0.0609309
0.0467403
0.0422962
0.0208811
-0.131933
-0.120189
-0.107762
-0.0948608
-0.0817289
-0.0686477
-0.0559253
-0.0439012
-0.0329277
-0.023381
-0.0156229
-0.0100216
-0.0068775
-0.0064561
-0.00885506
-0.0140643
-0.0217636
-0.031456
-0.0422345
-0.0530928
-0.062708
-0.0699809
-0.0737886
-0.0736799
-0.069438
-0.0616525
-0.0510237
-0.0384896
-0.0252021
-0.0112647
0.00140639
0.0147692
0.0246968
0.0368599
0.042813
0.052548
0.0553212
0.0586178
0.0610419
0.0473554
0.0429272
0.021897
-0.128261
-0.117289
-0.105679
-0.0936199
-0.0813378
-0.0690917
-0.0571665
-0.0458765
-0.0355471
-0.0265248
-0.0191417
-0.0137324
-0.0105669
-0.00988005
-0.0117512
-0.0161619
-0.0228137
-0.0312564
-0.0406728
-0.0501692
-0.0585619
-0.0648808
-0.0681109
-0.0678464
-0.0638492
-0.056618
-0.0467337
-0.0350171
-0.022519
-0.00930786
0.00276865
0.0156212
0.0251643
0.03702
0.042764
0.0523217
0.0550176
0.0584301
0.0609133
0.0477953
0.0433596
0.0228822
-0.124706