/*--------------------------------*- C++ -*----------------------------------*\
  =========                 |
  \\      /  F ield         | OpenFOAM: The Open Source CFD Toolbox
   \\    /   O peration     | Website:  https://openfoam.org
    \\  /    A nd           | Version:  7
     \\/     M anipulation  |
\*---------------------------------------------------------------------------*/
FoamFile
{
    version     2.0;
    format      ascii;
    class       volScalarField;
    location    "20";
    object      p;
}
// * * * * * * * * * * * * * * * * * * * * * * * * * * * * * * * * * * * * * //

dimensions      [0 2 -2 0 0 0 0];

internalField   nonuniform List<scalar> 
8500
(
-0.250394
-0.251467
-0.252118
-0.252674
-0.253161
-0.253579
-0.253948
-0.254281
-0.254586
-0.25487
-0.255138
-0.255394
-0.255638
-0.255874
-0.256103
-0.256326
-0.256546
-0.256769
-0.256996
-0.257231
-0.250441
-0.25151
-0.25216
-0.252714
-0.253199
-0.253616
-0.253984
-0.254314
-0.254618
-0.2549
-0.255167
-0.255421
-0.255664
-0.255898
-0.256125
-0.256346
-0.256565
-0.256786
-0.257011
-0.257242
-0.250535
-0.251598
-0.252244
-0.252795
-0.253276
-0.25369
-0.254054
-0.254382
-0.254682
-0.254962
-0.255225
-0.255476
-0.255715
-0.255946
-0.256169
-0.256386
-0.256601
-0.256819
-0.25704
-0.257264
-0.250676
-0.25173
-0.252369
-0.252915
-0.253391
-0.2538
-0.25416
-0.254483
-0.254779
-0.255053
-0.255312
-0.255557
-0.255792
-0.256017
-0.256234
-0.256446
-0.256655
-0.256868
-0.257083
-0.257296
-0.250863
-0.251904
-0.252536
-0.253075
-0.253544
-0.253947
-0.254301
-0.254617
-0.254906
-0.255175
-0.255427
-0.255665
-0.255893
-0.25611
-0.25632
-0.256524
-0.256726
-0.256932
-0.257139
-0.257337
-0.251096
-0.252121
-0.252743
-0.253273
-0.253735
-0.254129
-0.254475
-0.254784
-0.255065
-0.255325
-0.255569
-0.255799
-0.256017
-0.256226
-0.256426
-0.25662
-0.256812
-0.25701
-0.257207
-0.257387
-0.251373
-0.25238
-0.25299
-0.25351
-0.253961
-0.254347
-0.254683
-0.254982
-0.255253
-0.255504
-0.255737
-0.255957
-0.256165
-0.256362
-0.25655
-0.256732
-0.256912
-0.257099
-0.257284
-0.257442
-0.251693
-0.252679
-0.253276
-0.253784
-0.254224
-0.254598
-0.254923
-0.255211
-0.255471
-0.255709
-0.255931
-0.256138
-0.256333
-0.256517
-0.256691
-0.256859
-0.257024
-0.257199
-0.257369
-0.257501
-0.252055
-0.253017
-0.2536
-0.254095
-0.254521
-0.254882
-0.255194
-0.255469
-0.255716
-0.255941
-0.256149
-0.256342
-0.256521
-0.256689
-0.256847
-0.256998
-0.257147
-0.257307
-0.257461
-0.257562
-0.252457
-0.253394
-0.253961
-0.254441
-0.254852
-0.255199
-0.255496
-0.255756
-0.255988
-0.256198
-0.256389
-0.256566
-0.256728
-0.256877
-0.257017
-0.257148
-0.257277
-0.25742
-0.257555
-0.257622
-0.252899
-0.253809
-0.254358
-0.254821
-0.255216
-0.255546
-0.255827
-0.256071
-0.256286
-0.256478
-0.256652
-0.256809
-0.256951
-0.25708
-0.257197
-0.257306
-0.257413
-0.257536
-0.25765
-0.257678
-0.253379
-0.254259
-0.25479
-0.255234
-0.255611
-0.255924
-0.256187
-0.256412
-0.256608
-0.25678
-0.256934
-0.257069
-0.257189
-0.257295
-0.257388
-0.257471
-0.257552
-0.257653
-0.257743
-0.257726
-0.253895
-0.254744
-0.255254
-0.25568
-0.256037
-0.25633
-0.256574
-0.256778
-0.256953
-0.257104
-0.257234
-0.257346
-0.257441
-0.25752
-0.257585
-0.25764
-0.257692
-0.257767
-0.25783
-0.257763
-0.254445
-0.255263
-0.255752
-0.256156
-0.256493
-0.256765
-0.256986
-0.257168
-0.25732
-0.257447
-0.257552
-0.257638
-0.257705
-0.257754
-0.257788
-0.257811
-0.257829
-0.257875
-0.25791
-0.257785
-0.255029
-0.255814
-0.25628
-0.256662
-0.256977
-0.257225
-0.257423
-0.257581
-0.257707
-0.257808
-0.257885
-0.257942
-0.257979
-0.257995
-0.257995
-0.257981
-0.257962
-0.257975
-0.257977
-0.257788
-0.255645
-0.256395
-0.256838
-0.257197
-0.257488
-0.257712
-0.257884
-0.258015
-0.258114
-0.258186
-0.258233
-0.258259
-0.258261
-0.258242
-0.258203
-0.258149
-0.258089
-0.258064
-0.258031
-0.257765
-0.256291
-0.257007
-0.257426
-0.25776
-0.258025
-0.258223
-0.258367
-0.25847
-0.258539
-0.25858
-0.258595
-0.258585
-0.258551
-0.258493
-0.258412
-0.258313
-0.258205
-0.258138
-0.258067
-0.257711
-0.256967
-0.257648
-0.258042
-0.25835
-0.258588
-0.258757
-0.258872
-0.258944
-0.258981
-0.258988
-0.258968
-0.258921
-0.258848
-0.258746
-0.258619
-0.258471
-0.258311
-0.258196
-0.258084
-0.257618
-0.257672
-0.258318
-0.258685
-0.258967
-0.259175
-0.259315
-0.259398
-0.259437
-0.259439
-0.25941
-0.259352
-0.259266
-0.259149
-0.259002
-0.258824
-0.258621
-0.258403
-0.258234
-0.258079
-0.25746
-0.258404
-0.259015
-0.259355
-0.259608
-0.259787
-0.259894
-0.259944
-0.259947
-0.259913
-0.259845
-0.259747
-0.259618
-0.259456
-0.259259
-0.259027
-0.258764
-0.258481
-0.258251
-0.25805
-0.257226
-0.259164
-0.259739
-0.260052
-0.260275
-0.260422
-0.260495
-0.260509
-0.260475
-0.260401
-0.260292
-0.260151
-0.259977
-0.259766
-0.259516
-0.259226
-0.258899
-0.258545
-0.258244
-0.257984
-0.257057
-0.259951
-0.260491
-0.260775
-0.260967
-0.26108
-0.261117
-0.261093
-0.261018
-0.260903
-0.260751
-0.260565
-0.260343
-0.260081
-0.259775
-0.259422
-0.259025
-0.258593
-0.258214
-0.25787
-0.256818
-0.260764
-0.261269
-0.261524
-0.261684
-0.261761
-0.26176
-0.261695
-0.261578
-0.261418
-0.261221
-0.260987
-0.260715
-0.2604
-0.260035
-0.259616
-0.259145
-0.258627
-0.258161
-0.257729
-0.256496
-0.261605
-0.262075
-0.2623
-0.262426
-0.262465
-0.262423
-0.262315
-0.262153
-0.261947
-0.261702
-0.261418
-0.261094
-0.260722
-0.260296
-0.259808
-0.259258
-0.258648
-0.258084
-0.25756
-0.256094
-0.262474
-0.262908
-0.263102
-0.263192
-0.263192
-0.263107
-0.262954
-0.262744
-0.262489
-0.262193
-0.261857
-0.261479
-0.261049
-0.26056
-0.26
-0.259366
-0.258657
-0.257986
-0.257361
-0.255612
-0.263372
-0.26377
-0.263932
-0.263985
-0.263942
-0.263812
-0.26361
-0.263351
-0.263043
-0.262694
-0.262305
-0.26187
-0.261381
-0.260827
-0.260193
-0.259473
-0.258658
-0.257868
-0.257135
-0.255042
-0.264299
-0.264662
-0.26479
-0.264804
-0.264717
-0.264539
-0.264286
-0.263973
-0.263611
-0.263206
-0.26276
-0.262268
-0.261719
-0.261098
-0.260389
-0.259579
-0.258653
-0.257733
-0.256885
-0.254381
-0.265258
-0.265585
-0.265678
-0.265651
-0.265517
-0.265287
-0.26498
-0.264611
-0.264191
-0.263729
-0.263225
-0.262673
-0.262062
-0.261374
-0.260589
-0.259688
-0.258647
-0.257585
-0.256617
-0.253625
-0.266251
-0.266541
-0.266597
-0.266526
-0.266343
-0.266059
-0.265694
-0.265265
-0.264786
-0.264263
-0.263697
-0.263084
-0.262411
-0.261655
-0.260794
-0.259802
-0.258643
-0.257429
-0.256338
-0.252773
-0.267279
-0.267532
-0.26755
-0.267433
-0.267196
-0.266855
-0.266429
-0.265938
-0.265394
-0.264807
-0.264179
-0.263503
-0.262766
-0.261943
-0.261006
-0.259924
-0.258645
-0.257271
-0.256055
-0.251827
-0.268346
-0.268561
-0.268538
-0.268372
-0.268079
-0.267677
-0.267186
-0.266628
-0.266018
-0.265364
-0.26467
-0.26393
-0.263127
-0.262237
-0.261225
-0.260054
-0.258656
-0.257114
-0.255776
-0.250794
-0.269456
-0.26963
-0.269564
-0.269346
-0.268994
-0.268526
-0.267967
-0.267338
-0.266657
-0.265934
-0.265172
-0.264364
-0.263495
-0.262537
-0.261452
-0.260193
-0.25868
-0.256965
-0.255507
-0.249687
-0.27061
-0.270742
-0.270631
-0.270357
-0.269942
-0.269405
-0.268773
-0.26807
-0.267314
-0.266518
-0.265684
-0.264807
-0.263871
-0.262845
-0.261686
-0.260344
-0.258718
-0.25683
-0.255251
-0.248527
-0.271814
-0.271902
-0.271742
-0.271409
-0.270926
-0.270316
-0.269607
-0.268825
-0.267991
-0.267117
-0.266208
-0.26526
-0.264254
-0.263159
-0.261929
-0.260506
-0.258772
-0.256715
-0.255006
-0.247346
-0.273072
-0.273113
-0.272901
-0.272505
-0.27195
-0.271262
-0.270471
-0.269606
-0.268689
-0.267734
-0.266747
-0.265724
-0.264647
-0.263483
-0.262182
-0.260681
-0.258844
-0.256634
-0.254769
-0.246199
-0.27439
-0.274379
-0.274112
-0.273649
-0.273017
-0.272246
-0.271369
-0.270416
-0.269411
-0.268371
-0.267303
-0.266202
-0.265051
-0.263816
-0.262447
-0.260874
-0.25894
-0.256603
-0.254533
-0.245175
-0.275771
-0.275706
-0.275379
-0.274843
-0.27413
-0.273271
-0.272303
-0.271257
-0.270161
-0.269032
-0.267878
-0.266696
-0.265469
-0.264164
-0.262727
-0.261088
-0.259065
-0.256645
-0.254258
-0.244325
-0.277223
-0.277098
-0.276706
-0.276094
-0.275294
-0.274342
-0.273278
-0.272135
-0.270943
-0.26972
-0.268477
-0.267211
-0.265906
-0.264529
-0.263028
-0.261333
-0.259239
-0.256807
-0.25384
-0.243534
-0.27875
-0.27856
-0.2781
-0.277405
-0.276512
-0.275463
-0.274297
-0.273053
-0.27176
-0.27044
-0.269104
-0.267751
-0.266365
-0.264917
-0.263356
-0.261621
-0.259501
-0.257193
-0.253363
-0.243272
-0.280361
-0.280098
-0.279564
-0.278781
-0.277791
-0.276638
-0.275366
-0.274015
-0.272618
-0.271197
-0.269764
-0.268321
-0.266853
-0.265332
-0.263717
-0.26196
-0.259876
-0.257901
-0.253609
-0.247571
-0.28206
-0.281719
-0.281104
-0.280228
-0.279134
-0.277873
-0.27649
-0.275028
-0.273522
-0.271996
-0.270464
-0.268927
-0.267374
-0.26578
-0.26411
-0.262343
-0.260322
-0.258765
-0.255114
-0.26265
-0.283856
-0.283428
-0.282727
-0.28175
-0.280548
-0.279173
-0.277674
-0.276097
-0.274478
-0.272844
-0.271209
-0.269575
-0.267934
-0.266263
-0.264534
-0.262751
-0.260778
-0.259566
-0.25612
-0.266222
-0.285754
-0.285231
-0.284437
-0.283355
-0.282037
-0.280543
-0.278923
-0.277227
-0.275492
-0.273746
-0.272005
-0.270272
-0.268538
-0.266784
-0.264989
-0.263172
-0.261207
-0.260155
-0.256712
-0.26659
-0.287764
-0.287136
-0.286242
-0.285047
-0.283608
-0.281989
-0.280244
-0.278425
-0.27657
-0.27471
-0.27286
-0.271023
-0.269191
-0.267347
-0.265472
-0.263597
-0.261592
-0.260539
-0.257063
-0.266027
-0.289891
-0.289148
-0.288146
-0.286832
-0.285266
-0.283517
-0.281643
-0.279697
-0.27772
-0.275742
-0.273779
-0.271834
-0.269898
-0.267954
-0.265982
-0.264019
-0.261927
-0.260742
-0.257175
-0.264768
-0.292143
-0.291274
-0.290157
-0.288717
-0.287018
-0.285134
-0.283126
-0.28105
-0.278947
-0.276848
-0.274768
-0.27271
-0.270661
-0.268604
-0.266517
-0.264431
-0.262204
-0.260778
-0.257062
-0.263043
-0.29352
-0.292281
-0.290707
-0.288869
-0.286845
-0.2847
-0.28249
-0.280258
-0.278035
-0.275834
-0.273655
-0.271485
-0.2693
-0.267073
-0.264829
-0.262418
-0.260667
-0.256753
-0.261062
-0.294523
-0.292809
-0.290826
-0.288658
-0.286371
-0.284023
-0.28166
-0.279308
-0.276981
-0.274674
-0.272369
-0.270038
-0.267646
-0.265207
-0.262566
-0.260428
-0.256278
-0.258961
-0.295029
-0.292894
-0.290577
-0.288145
-0.285657
-0.283158
-0.280674
-0.278214
-0.275768
-0.273314
-0.270816
-0.268232
-0.26556
-0.262649
-0.260079
-0.255663
-0.256826
-0.297372
-0.295081
-0.29261
-0.290028
-0.287397
-0.284758
-0.282136
-0.279535
-0.276939
-0.274319
-0.271631
-0.268825
-0.265886
-0.262665
-0.259634
-0.254929
-0.254708
-0.297391
-0.294761
-0.292028
-0.289249
-0.286466
-0.283699
-0.280947
-0.278187
-0.27538
-0.272477
-0.269418
-0.266177
-0.262614
-0.259105
-0.254091
-0.252638
-0.297038
-0.294149
-0.291219
-0.288286
-0.285366
-0.282451
-0.27951
-0.276495
-0.273348
-0.270005
-0.26643
-0.262495
-0.258501
-0.253164
-0.250626
-0.296396
-0.29331
-0.290222
-0.287139
-0.284047
-0.280905
-0.277656
-0.274237
-0.270578
-0.266639
-0.262307
-0.257828
-0.252157
-0.248675
-0.295528
-0.292276
-0.289019
-0.285732
-0.282366
-0.278858
-0.275135
-0.271128
-0.266797
-0.26205
-0.257089
-0.251078
-0.246779
-0.294449
-0.291004
-0.287503
-0.283889
-0.28009
-0.276031
-0.271646
-0.266899
-0.261719
-0.256284
-0.24993
-0.244925
-0.293092
-0.289355
-0.285464
-0.281342
-0.276915
-0.272122
-0.266937
-0.261313
-0.255412
-0.248716
-0.2431
-0.29128
-0.287081
-0.282603
-0.277775
-0.272546
-0.266905
-0.260829
-0.254473
-0.247435
-0.241289
-0.288729
-0.283861
-0.2786
-0.272909
-0.266795
-0.260261
-0.253462
-0.246088
-0.239475
-0.279375
-0.2732
-0.266601
-0.259607
-0.252375
-0.244671
-0.237644
-0.273408
-0.266315
-0.258862
-0.251209
-0.24318
-0.235781
-0.265931
-0.258021
-0.249958
-0.241611
-0.233873
-0.248617
-0.23996
-0.231907
-0.238222
-0.229873
-0.238232
-0.229883
-0.248628
-0.239971
-0.231917
-0.265943
-0.258033
-0.249969
-0.241622
-0.233883
-0.27342
-0.266327
-0.258874
-0.25122
-0.243191
-0.235792
-0.285112
-0.279387
-0.273212
-0.266613
-0.259619
-0.252387
-0.244682
-0.237655
-0.288742
-0.283873
-0.278612
-0.272921
-0.266807
-0.260273
-0.253474
-0.2461
-0.239487
-0.291292
-0.287094
-0.282616
-0.277788
-0.272559
-0.266917
-0.260841
-0.254485
-0.247447
-0.241301
-0.293105
-0.289368
-0.285477
-0.281355
-0.276927
-0.272134
-0.26695
-0.261326
-0.255425
-0.248728
-0.243112
-0.294462
-0.291017
-0.287516
-0.283902
-0.280102
-0.276043
-0.271658
-0.266912
-0.261732
-0.256296
-0.249942
-0.244937
-0.29554
-0.292288
-0.289031
-0.285744
-0.282379
-0.27887
-0.275147
-0.27114
-0.26681
-0.262062
-0.257101
-0.25109
-0.246791
-0.296408
-0.293322
-0.290234
-0.287152
-0.284059
-0.280917
-0.277669
-0.27425
-0.270591
-0.266652
-0.26232
-0.257841
-0.25217
-0.248688
-0.297051
-0.294161
-0.291231
-0.288298
-0.285379
-0.282463
-0.279522
-0.276507
-0.273361
-0.270018
-0.266443
-0.262508
-0.258515
-0.253177
-0.250639
-0.297403
-0.294774
-0.29204
-0.289261
-0.286478
-0.283712
-0.280959
-0.278199
-0.275393
-0.27249
-0.269431
-0.26619
-0.262627
-0.259119
-0.254105
-0.252651
-0.297384
-0.295093
-0.292622
-0.290041
-0.287409
-0.28477
-0.282148
-0.279547
-0.276952
-0.274331
-0.271643
-0.268838
-0.265899
-0.262678
-0.259648
-0.254943
-0.254722
-0.296902
-0.295041
-0.292907
-0.290589
-0.288157
-0.285669
-0.28317
-0.280686
-0.278226
-0.275781
-0.273327
-0.270829
-0.268245
-0.265574
-0.262663
-0.260093
-0.255678
-0.25684
-0.294535
-0.292821
-0.290838
-0.28867
-0.286383
-0.284035
-0.281672
-0.27932
-0.276993
-0.274687
-0.272382
-0.270051
-0.267659
-0.26522
-0.26258
-0.260443
-0.256293
-0.258976
-0.293532
-0.292293
-0.290719
-0.288881
-0.286857
-0.284712
-0.282502
-0.28027
-0.278047
-0.275846
-0.273668
-0.271497
-0.269313
-0.267086
-0.264842
-0.262432
-0.260682
-0.256768
-0.261077
-0.292156
-0.291286
-0.29017
-0.288729
-0.28703
-0.285146
-0.283138
-0.281062
-0.278959
-0.27686
-0.274781
-0.272722
-0.270674
-0.268618
-0.26653
-0.264445
-0.262218
-0.260793
-0.257077
-0.263058
-0.289904
-0.28916
-0.288159
-0.286844
-0.285278
-0.283529
-0.281655
-0.279709
-0.277732
-0.275754
-0.273791
-0.271846
-0.269911
-0.267967
-0.265996
-0.264033
-0.261942
-0.260757
-0.257191
-0.264783
-0.287776
-0.287148
-0.286254
-0.285059
-0.28362
-0.282001
-0.280256
-0.278437
-0.276582
-0.274722
-0.272872
-0.271036
-0.269204
-0.26736
-0.265486
-0.263611
-0.261607
-0.260554
-0.257078
-0.266043
-0.285767
-0.285244
-0.284449
-0.283367
-0.282049
-0.280555
-0.278935
-0.277239
-0.275504
-0.273758
-0.272018
-0.270285
-0.268551
-0.266798
-0.265003
-0.263186
-0.261221
-0.26017
-0.256728
-0.266606
-0.283868
-0.28344
-0.282739
-0.281762
-0.28056
-0.279185
-0.277686
-0.276109
-0.27449
-0.272856
-0.271221
-0.269588
-0.267947
-0.266276
-0.264548
-0.262765
-0.260793
-0.259582
-0.256136
-0.266238
-0.282072
-0.281731
-0.281116
-0.28024
-0.279146
-0.277885
-0.276502
-0.27504
-0.273534
-0.272008
-0.270476
-0.26894
-0.267387
-0.265793
-0.264124
-0.262357
-0.260337
-0.258781
-0.255131
-0.262667
-0.280373
-0.280111
-0.279576
-0.278793
-0.277803
-0.27665
-0.275378
-0.274027
-0.27263
-0.271209
-0.269777
-0.268334
-0.266866
-0.265346
-0.263731
-0.261975
-0.259891
-0.257917
-0.253626
-0.247588
-0.278763
-0.278572
-0.278112
-0.277417
-0.276524
-0.275475
-0.274309
-0.273065
-0.271772
-0.270452
-0.269116
-0.267763
-0.266378
-0.26493
-0.263371
-0.261636
-0.259517
-0.257209
-0.25338
-0.24329
-0.277235
-0.27711
-0.276718
-0.276106
-0.275305
-0.274354
-0.27329
-0.272147
-0.270955
-0.269732
-0.268489
-0.267223
-0.265919
-0.264543
-0.263042
-0.261348
-0.259255
-0.256823
-0.253857
-0.243552
-0.275783
-0.275718
-0.275391
-0.274855
-0.274142
-0.273283
-0.272315
-0.271269
-0.270173
-0.269044
-0.26789
-0.266709
-0.265482
-0.264178
-0.262741
-0.261103
-0.259081
-0.256662
-0.254275
-0.244342
-0.274402
-0.274391
-0.274124
-0.27366
-0.273028
-0.272257
-0.27138
-0.270428
-0.269423
-0.268383
-0.267315
-0.266214
-0.265064
-0.26383
-0.262461
-0.260889
-0.258956
-0.25662
-0.254551
-0.245193
-0.273084
-0.273125
-0.272913
-0.272517
-0.271961
-0.271273
-0.270483
-0.269618
-0.268701
-0.267746
-0.26676
-0.265737
-0.26466
-0.263496
-0.262196
-0.260697
-0.25886
-0.256651
-0.254787
-0.246217
-0.271826
-0.271914
-0.271754
-0.271421
-0.270938
-0.270327
-0.269619
-0.268837
-0.268002
-0.267129
-0.266221
-0.265273
-0.264267
-0.263173
-0.261944
-0.260521
-0.258787
-0.256732
-0.255024
-0.247364
-0.270622
-0.270754
-0.270643
-0.270369
-0.269953
-0.269416
-0.268785
-0.268082
-0.267326
-0.26653
-0.265696
-0.26482
-0.263884
-0.262859
-0.261701
-0.260359
-0.258733
-0.256846
-0.255269
-0.248545
-0.269467
-0.269641
-0.269575
-0.269357
-0.269005
-0.268537
-0.267978
-0.26735
-0.266669
-0.265946
-0.265184
-0.264377
-0.263509
-0.262551
-0.261466
-0.260208
-0.258696
-0.256982
-0.255524
-0.249705
-0.268358
-0.268572
-0.268549
-0.268383
-0.26809
-0.267688
-0.267198
-0.266639
-0.266029
-0.265376
-0.264683
-0.263943
-0.26314
-0.262251
-0.261239
-0.260069
-0.258672
-0.257131
-0.255793
-0.250812
-0.267291
-0.267543
-0.267561
-0.267444
-0.267207
-0.266866
-0.26644
-0.265949
-0.265406
-0.264819
-0.264191
-0.263516
-0.262779
-0.261957
-0.26102
-0.259939
-0.258661
-0.257287
-0.256072
-0.251845
-0.266262
-0.266552
-0.266608
-0.266537
-0.266354
-0.26607
-0.265705
-0.265277
-0.264797
-0.264274
-0.263709
-0.263097
-0.262423
-0.261669
-0.260808
-0.259817
-0.258658
-0.257446
-0.256355
-0.252791
-0.265269
-0.265596
-0.265689
-0.265661
-0.265527
-0.265298
-0.264991
-0.264622
-0.264203
-0.26374
-0.263236
-0.262685
-0.262074
-0.261387
-0.260603
-0.259703
-0.258662
-0.257601
-0.256634
-0.253643
-0.26431
-0.264673
-0.2648
-0.264814
-0.264727
-0.264549
-0.264296
-0.263983
-0.263622
-0.263218
-0.262772
-0.26228
-0.261731
-0.261111
-0.260403
-0.259594
-0.258668
-0.257749
-0.256902
-0.254399
-0.263382
-0.26378
-0.263942
-0.263995
-0.263952
-0.263822
-0.263621
-0.263361
-0.263054
-0.262705
-0.262316
-0.261882
-0.261394
-0.26084
-0.260207
-0.259487
-0.258673
-0.257883
-0.257152
-0.25506
-0.262484
-0.262918
-0.263112
-0.263202
-0.263202
-0.263117
-0.262964
-0.262754
-0.262499
-0.262203
-0.261868
-0.26149
-0.261062
-0.260572
-0.260014
-0.25938
-0.258672
-0.258001
-0.257378
-0.255629
-0.261615
-0.262084
-0.262309
-0.262435
-0.262474
-0.262433
-0.262325
-0.262163
-0.261957
-0.261712
-0.261429
-0.261105
-0.260734
-0.260308
-0.259821
-0.259271
-0.258662
-0.2581
-0.257576
-0.256111
-0.260774
-0.261278
-0.261533
-0.261693
-0.26177
-0.261769
-0.261704
-0.261588
-0.261428
-0.261231
-0.260998
-0.260726
-0.260411
-0.260047
-0.259629
-0.259158
-0.258641
-0.258176
-0.257745
-0.256512
-0.25996
-0.2605
-0.260784
-0.260976
-0.261089
-0.261126
-0.261102
-0.261028
-0.260912
-0.260761
-0.260575
-0.260354
-0.260092
-0.259787
-0.259435
-0.259038
-0.258607
-0.258228
-0.257886
-0.256835
-0.259173
-0.259748
-0.260061
-0.260284
-0.26043
-0.260504
-0.260518
-0.260484
-0.26041
-0.260302
-0.260161
-0.259987
-0.259777
-0.259528
-0.259238
-0.258912
-0.258558
-0.258258
-0.257999
-0.257073
-0.258413
-0.259023
-0.259364
-0.259617
-0.259795
-0.259902
-0.259952
-0.259956
-0.259922
-0.259854
-0.259757
-0.259628
-0.259466
-0.25927
-0.259038
-0.258776
-0.258494
-0.258265
-0.258064
-0.257241
-0.25768
-0.258326
-0.258693
-0.258975
-0.259183
-0.259323
-0.259406
-0.259445
-0.259448
-0.259419
-0.259362
-0.259275
-0.259159
-0.259012
-0.258835
-0.258633
-0.258416
-0.258247
-0.258093
-0.257475
-0.256975
-0.257656
-0.258049
-0.258358
-0.258596
-0.258765
-0.25888
-0.258952
-0.258989
-0.258997
-0.258977
-0.258931
-0.258857
-0.258756
-0.25863
-0.258482
-0.258323
-0.258208
-0.258098
-0.257632
-0.256298
-0.257015
-0.257433
-0.257768
-0.258032
-0.25823
-0.258375
-0.258478
-0.258547
-0.258588
-0.258603
-0.258594
-0.258561
-0.258502
-0.258422
-0.258324
-0.258217
-0.25815
-0.25808
-0.257725
-0.255652
-0.256402
-0.256845
-0.257204
-0.257495
-0.257719
-0.257891
-0.258023
-0.258122
-0.258193
-0.258241
-0.258267
-0.25827
-0.258251
-0.258213
-0.258159
-0.258099
-0.258075
-0.258043
-0.257778
-0.255035
-0.25582
-0.256286
-0.256669
-0.256983
-0.257232
-0.25743
-0.257588
-0.257714
-0.257815
-0.257893
-0.25795
-0.257987
-0.258004
-0.258004
-0.257991
-0.257973
-0.257986
-0.257989
-0.2578
-0.254451
-0.255269
-0.255758
-0.256162
-0.256499
-0.256771
-0.256992
-0.257175
-0.257327
-0.257454
-0.257559
-0.257645
-0.257713
-0.257762
-0.257797
-0.25782
-0.257839
-0.257886
-0.25792
-0.257797
-0.2539
-0.25475
-0.25526
-0.255685
-0.256043
-0.256336
-0.256579
-0.256784
-0.256959
-0.25711
-0.257241
-0.257353
-0.257449
-0.257528
-0.257593
-0.257649
-0.257701
-0.257776
-0.257841
-0.257774
-0.253384
-0.254264
-0.254795
-0.255239
-0.255617
-0.255929
-0.256192
-0.256418
-0.256614
-0.256786
-0.25694
-0.257076
-0.257196
-0.257302
-0.257395
-0.257479
-0.25756
-0.257662
-0.257752
-0.257736
-0.252904
-0.253814
-0.254363
-0.254826
-0.255221
-0.255551
-0.255833
-0.256076
-0.256291
-0.256483
-0.256657
-0.256815
-0.256957
-0.257086
-0.257204
-0.257314
-0.257421
-0.257544
-0.257659
-0.257687
-0.252462
-0.253399
-0.253966
-0.254445
-0.254857
-0.255203
-0.255501
-0.255761
-0.255993
-0.256203
-0.256395
-0.256571
-0.256733
-0.256883
-0.257023
-0.257155
-0.257284
-0.257427
-0.257563
-0.257631
-0.252059
-0.253021
-0.253604
-0.254099
-0.254525
-0.254886
-0.255198
-0.255473
-0.25572
-0.255946
-0.256153
-0.256346
-0.256526
-0.256694
-0.256853
-0.257004
-0.257153
-0.257313
-0.257468
-0.25757
-0.251696
-0.252682
-0.25328
-0.253788
-0.254227
-0.254601
-0.254926
-0.255214
-0.255475
-0.255713
-0.255935
-0.256142
-0.256337
-0.256521
-0.256696
-0.256864
-0.25703
-0.257205
-0.257376
-0.257508
-0.251376
-0.252383
-0.252993
-0.253513
-0.253965
-0.25435
-0.254686
-0.254985
-0.255257
-0.255507
-0.255741
-0.255961
-0.256168
-0.256366
-0.256554
-0.256737
-0.256917
-0.257105
-0.25729
-0.257448
-0.251098
-0.252124
-0.252746
-0.253276
-0.253737
-0.254132
-0.254478
-0.254786
-0.255068
-0.255328
-0.255572
-0.255802
-0.256021
-0.256229
-0.25643
-0.256624
-0.256816
-0.257014
-0.257211
-0.257392
-0.250865
-0.251906
-0.252538
-0.253077
-0.253547
-0.253949
-0.254303
-0.254619
-0.254909
-0.255177
-0.255429
-0.255668
-0.255896
-0.256113
-0.256323
-0.256527
-0.256729
-0.256936
-0.257143
-0.257342
-0.250678
-0.251731
-0.252371
-0.252917
-0.253393
-0.253802
-0.254162
-0.254485
-0.25478
-0.255055
-0.255314
-0.255559
-0.255794
-0.256019
-0.256236
-0.256448
-0.256658
-0.256871
-0.257086
-0.257299
-0.250536
-0.251599
-0.252245
-0.252796
-0.253277
-0.253691
-0.254056
-0.254383
-0.254683
-0.254963
-0.255226
-0.255477
-0.255717
-0.255947
-0.25617
-0.256388
-0.256603
-0.256821
-0.257042
-0.257266
-0.250442
-0.251511
-0.25216
-0.252715
-0.2532
-0.253617
-0.253985
-0.254315
-0.254618
-0.254901
-0.255168
-0.255422
-0.255665
-0.255899
-0.256126
-0.256347
-0.256566
-0.256787
-0.257012
-0.257243
-0.250394
-0.251467
-0.252118
-0.252675
-0.253161
-0.25358
-0.253949
-0.254281
-0.254586
-0.25487
-0.255138
-0.255394
-0.255639
-0.255875
-0.256103
-0.256326
-0.256547
-0.25677
-0.256997
-0.257231
-0.257523
-0.257773
-0.258045
-0.258316
-0.258594
-0.258878
-0.25917
-0.259471
-0.259781
-0.260102
-0.260433
-0.260776
-0.261132
-0.261503
-0.257546
-0.257791
-0.258062
-0.258331
-0.258608
-0.258892
-0.259183
-0.259483
-0.259793
-0.260113
-0.260443
-0.260786
-0.261142
-0.261513
-0.257593
-0.257825
-0.258095
-0.258362
-0.258637
-0.258919
-0.259209
-0.259508
-0.259817
-0.260136
-0.260465
-0.260807
-0.261162
-0.261532
-0.257663
-0.257877
-0.258144
-0.258408
-0.25868
-0.25896
-0.259248
-0.259546
-0.259852
-0.26017
-0.260498
-0.260838
-0.261191
-0.26156
-0.257755
-0.257944
-0.258209
-0.258468
-0.258737
-0.259013
-0.259299
-0.259594
-0.259899
-0.260214
-0.26054
-0.260878
-0.26123
-0.261596
-0.257867
-0.258026
-0.258287
-0.258542
-0.258805
-0.259079
-0.259361
-0.259653
-0.259955
-0.260268
-0.260592
-0.260927
-0.261276
-0.26164
-0.257998
-0.258122
-0.258378
-0.258627
-0.258885
-0.259154
-0.259433
-0.259722
-0.260021
-0.260331
-0.260651
-0.260984
-0.26133
-0.261691
-0.258145
-0.258229
-0.258481
-0.258722
-0.258975
-0.259239
-0.259514
-0.259799
-0.260095
-0.260401
-0.260718
-0.261048
-0.26139
-0.261748
-0.258308
-0.258346
-0.258593
-0.258827
-0.259073
-0.259332
-0.259602
-0.259883
-0.260175
-0.260477
-0.260791
-0.261116
-0.261455
-0.261809
-0.258483
-0.258472
-0.258712
-0.258938
-0.259178
-0.259431
-0.259696
-0.259972
-0.26026
-0.260558
-0.260868
-0.261189
-0.261524
-0.261874
-0.262241
-0.258669
-0.258603
-0.258838
-0.259055
-0.259287
-0.259535
-0.259794
-0.260066
-0.260349
-0.260642
-0.260948
-0.261265
-0.261595
-0.26194
-0.262302
-0.258864
-0.258738
-0.258967
-0.259175
-0.259399
-0.259641
-0.259895
-0.260161
-0.260439
-0.260729
-0.261029
-0.261341
-0.261667
-0.262007
-0.262364
-0.259066
-0.258874
-0.259098
-0.259297
-0.259513
-0.259748
-0.259996
-0.260258
-0.260531
-0.260815
-0.26111
-0.261418
-0.261738
-0.262072
-0.262424
-0.259273
-0.25901
-0.25923
-0.259419
-0.259627
-0.259855
-0.260097
-0.260353
-0.260621
-0.2609
-0.26119
-0.261492
-0.261807
-0.262136
-0.262482
-0.259486
-0.259143
-0.259359
-0.259539
-0.259738
-0.259959
-0.260196
-0.260446
-0.260708
-0.260982
-0.261267
-0.261564
-0.261873
-0.262196
-0.262535
-0.259703
-0.259271
-0.259486
-0.259656
-0.259845
-0.26006
-0.26029
-0.260534
-0.260791
-0.26106
-0.261339
-0.26163
-0.261933
-0.26225
-0.262584
-0.259925
-0.259393
-0.259609
-0.259768
-0.259947
-0.260155
-0.260379
-0.260617
-0.260869
-0.261132
-0.261406
-0.261691
-0.261988
-0.262299
-0.262626
-0.260154
-0.259505
-0.259725
-0.259874
-0.260043
-0.260244
-0.260461
-0.260693
-0.260939
-0.261197
-0.261465
-0.261744
-0.262035
-0.26234
-0.262661
-0.260428
-0.259594
-0.259833
-0.259973
-0.260131
-0.260324
-0.260534
-0.260761
-0.261001
-0.261253
-0.261515
-0.261789
-0.262074
-0.262372
-0.262686
-0.260779
-0.259636
-0.259929
-0.260064
-0.260209
-0.260395
-0.260598
-0.260819
-0.261053
-0.261299
-0.261556
-0.261823
-0.262102
-0.262395
-0.262702
-0.260887
-0.25981
-0.260017
-0.260145
-0.260278
-0.260456
-0.260652
-0.260865
-0.261093
-0.261334
-0.261585
-0.261847
-0.26212
-0.262406
-0.262707
-0.263027
-0.261076
-0.259938
-0.260091
-0.260217
-0.260336
-0.260505
-0.260693
-0.2609
-0.261122
-0.261357
-0.261602
-0.261858
-0.262125
-0.262405
-0.2627
-0.263013
-0.261314
-0.260036
-0.260155
-0.260281
-0.260383
-0.260542
-0.260722
-0.260922
-0.261137
-0.261365
-0.261605
-0.261856
-0.262117
-0.262391
-0.26268
-0.262987
-0.261572
-0.260128
-0.26021
-0.260334
-0.260418
-0.260566
-0.260737
-0.260929
-0.261137
-0.26136
-0.261593
-0.261838
-0.262095
-0.262363
-0.262646
-0.262947
-0.261851
-0.260218
-0.260256
-0.260377
-0.26044
-0.260576
-0.260737
-0.26092
-0.261121
-0.261337
-0.261566
-0.261805
-0.262056
-0.262319
-0.262597
-0.262892
-0.262157
-0.260309
-0.260293
-0.26041
-0.26045
-0.260571
-0.260721
-0.260895
-0.261088
-0.261298
-0.26152
-0.261755
-0.262001
-0.262259
-0.262532
-0.262822
-0.262492
-0.260405
-0.26032
-0.260434
-0.260446
-0.260551
-0.260688
-0.260851
-0.261036
-0.261239
-0.261456
-0.261685
-0.261927
-0.262181
-0.262449
-0.262735
-0.262858
-0.260509
-0.26034
-0.260448
-0.260429
-0.260513
-0.260637
-0.260788
-0.260964
-0.261159
-0.261371
-0.261596
-0.261833
-0.262084
-0.262348
-0.26263
-0.263255
-0.260625
-0.260352
-0.260451
-0.260396
-0.260458
-0.260565
-0.260703
-0.260869
-0.261058
-0.261263
-0.261484
-0.261718
-0.261966
-0.262227
-0.262505
-0.262803
-0.263677
-0.260756
-0.260359
-0.260444
-0.260348
-0.260382
-0.260471
-0.260594
-0.26075
-0.260931
-0.261132
-0.261349
-0.26158
-0.261825
-0.262084
-0.26236
-0.262655
-0.264117
-0.260899
-0.260359
-0.260425
-0.26028
-0.260283
-0.260352
-0.26046
-0.260605
-0.260778
-0.260974
-0.261188
-0.261417
-0.26166
-0.261918
-0.262192
-0.262485
-0.264557
-0.26105
-0.260352
-0.260391
-0.260191
-0.260159
-0.260205
-0.260296
-0.26043
-0.260596
-0.260787
-0.260999
-0.261227
-0.26147
-0.261727
-0.262001
-0.262292
-0.264973
-0.261199
-0.260335
-0.260337
-0.260075
-0.260003
-0.260025
-0.2601
-0.260222
-0.260382
-0.260569
-0.260779
-0.261007
-0.261251
-0.261509
-0.261783
-0.262074
-0.265326
-0.261322
-0.260303
-0.260258
-0.259927
-0.259811
-0.25981
-0.259868
-0.259979
-0.260133
-0.260318
-0.260527
-0.260756
-0.261001
-0.261261
-0.261536
-0.261829
-0.265568
-0.261383
-0.260239
-0.260141
-0.259736
-0.259575
-0.25955
-0.259593
-0.259696
-0.259845
-0.260028
-0.260239
-0.26047
-0.260718
-0.260981
-0.261259
-0.261554
-0.261869
-0.265621
-0.261312
-0.260113
-0.259968
-0.259489
-0.259284
-0.25924
-0.259272
-0.259368
-0.259514
-0.259698
-0.259912
-0.260147
-0.260399
-0.260667
-0.260949
-0.261248
-0.261565
-0.265375
-0.261041
-0.259912
-0.259738
-0.259188
-0.258941
-0.258882
-0.258908
-0.259001
-0.259146
-0.259332
-0.259549
-0.259789
-0.260047
-0.26032
-0.260608
-0.260911
-0.261232
-0.264796
-0.260589
-0.259654
-0.259466
-0.258846
-0.258556
-0.258485
-0.258507
-0.258596
-0.25874
-0.258927
-0.259147
-0.259392
-0.259656
-0.259935
-0.260228
-0.260536
-0.26086
-0.263732
-0.259617
-0.259088
-0.258998
-0.258357
-0.258035
-0.25796
-0.257989
-0.258083
-0.258231
-0.258423
-0.258651
-0.258905
-0.259178
-0.259467
-0.259769
-0.260086
-0.260418
-0.260195
-0.256515
-0.257495
-0.257951
-0.257448
-0.257163
-0.257144
-0.25723
-0.257365
-0.257546
-0.257768
-0.258025
-0.258306
-0.258606
-0.258921
-0.259247
-0.259586
-0.259939
-0.243845
-0.24701
-0.253825
-0.256112
-0.25603
-0.255836
-0.255938
-0.256149
-0.25637
-0.256605
-0.256873
-0.25717
-0.25749
-0.257825
-0.258172
-0.258529
-0.258895
-0.259272
-0.259664
-0.243319
-0.244265
-0.250617
-0.253157
-0.253013
-0.252653
-0.252768
-0.253118
-0.253485
-0.25384
-0.254208
-0.254601
-0.255012
-0.255432
-0.255857
-0.256287
-0.25672
-0.25716
-0.257608
-0.241324
-0.24119
-0.245418
-0.247745
-0.248058
-0.248005
-0.248305
-0.248846
-0.249411
-0.24994
-0.25046
-0.250989
-0.251528
-0.252069
-0.252608
-0.253142
-0.253674
-0.254204
-0.254735
-0.237048
-0.236824
-0.239209
-0.240993
-0.241695
-0.242068
-0.24261
-0.243329
-0.244081
-0.244804
-0.245505
-0.246203
-0.246901
-0.247593
-0.248274
-0.248943
-0.249601
-0.250248
-0.250887
-0.230169
-0.230694
-0.232033
-0.233281
-0.234188
-0.234946
-0.235758
-0.236657
-0.237584
-0.238495
-0.239386
-0.240265
-0.241134
-0.24199
-0.242828
-0.243646
-0.244445
-0.245225
-0.245987
-0.221468
-0.2229
-0.223855
-0.224799
-0.225836
-0.226911
-0.227997
-0.229092