/*--------------------------------*- C++ -*----------------------------------*\
  =========                 |
  \\      /  F ield         | OpenFOAM: The Open Source CFD Toolbox
   \\    /   O peration     | Website:  https://openfoam.org
    \\  /    A nd           | Version:  7
     \\/     M anipulation  |
\*---------------------------------------------------------------------------*/
FoamFile
{
    version     2.0;
    format      ascii;
    class       volVectorField;
    location    "75";
    object      U;
}
// * * * * * * * * * * * * * * * * * * * * * * * * * * * * * * * * * * * * * //

dimensions      [0 1 -1 0 0 0 0];

internalField   nonuniform List<vector> 
34000
(
(-0.000430173 0.0120004 -1.0469e-21)
(-0.002381 0.0294398 -5.62806e-21)
(-0.00618352 0.0416651 6.82742e-22)
(-0.0111677 0.049468 -1.20042e-21)
(-0.0170845 0.0536282 1.83268e-21)
(-0.0237087 0.0548917 -1.35327e-20)
(-0.0308329 0.0539435 2.33357e-21)
(-0.0382862 0.0513858 -9.19692e-21)
(-0.0459287 0.0477211 -1.97738e-20)
(-0.0536491 0.0433429 1.69399e-20)
(-0.0613627 0.0385348 5.05008e-21)
(-0.0690095 0.0334775 -6.07449e-21)
(-0.0765528 0.0282615 7.47107e-21)
(-0.083978 0.0229042 1.02282e-20)
(-0.0912922 0.0173676 -6.46997e-21)
(-0.0985229 0.0115737 -8.78233e-21)
(-0.105717 0.00541711 -2.11044e-20)
(-0.112938 -0.00122753 -1.63853e-21)
(-0.120259 -0.00849853 -3.60662e-21)
(-0.127755 -0.0165777 -7.05279e-21)
(-0.00067551 0.0126172 -5.15589e-21)
(-0.00296115 0.0310568 4.29336e-21)
(-0.00696424 0.0440857 -5.07171e-21)
(-0.0120529 0.052523 -1.14087e-20)
(-0.0180032 0.0571681 9.34008e-21)
(-0.0246112 0.0587867 5.66591e-20)
(-0.0316868 0.0580833 -3.4972e-20)
(-0.0390727 0.0556788 5.8693e-21)
(-0.046639 0.052093 2.86035e-20)
(-0.0542813 0.047736 5.0996e-23)
(-0.0619193 0.0429067 1.71466e-20)
(-0.0694953 0.0378 -2.27606e-20)
(-0.0769738 0.0325201 2.39073e-20)
(-0.0843406 0.0270974 -2.05148e-20)
(-0.0916033 0.0215062 -8.07858e-21)
(-0.0987905 0.0156802 4.05016e-20)
(-0.105951 0.00952428 -1.29648e-20)
(-0.11315 0.00292135 1.96746e-21)
(-0.12047 -0.00426405 -2.42083e-20)
(-0.127999 -0.0122084 -2.68434e-21)
(-0.000942763 0.0132126 -4.01301e-20)
(-0.00359351 0.0326266 5.19292e-21)
(-0.00781223 0.0464462 7.96206e-21)
(-0.0130093 0.0555144 3.51342e-20)
(-0.0189876 0.0606475 -4.09608e-20)
(-0.0255655 0.0626284 -6.38393e-20)
(-0.0325713 0.0621794 5.82775e-20)
(-0.0398621 0.0599383 -1.60413e-20)
(-0.0473181 0.0564415 -7.92255e-21)
(-0.0548421 0.052115 -4.08775e-20)
(-0.062358 0.0472728 1.13638e-20)
(-0.0698104 0.0421243 4.00778e-20)
(-0.0771643 0.0367875 -8.0187e-21)
(-0.0844056 0.0313063 3.32029e-20)
(-0.0915415 0.0256682 -2.76385e-20)
(-0.098601 0.0198194 -8.1139e-21)
(-0.105634 0.0136758 6.57554e-20)
(-0.112708 0.00712982 -4.09308e-21)
(-0.119913 4.96133e-05 1.04078e-19)
(-0.127344 -0.00773396 -2.48902e-20)
(-0.00123065 0.0137829 6.58381e-20)
(-0.00427503 0.0341393 -2.96229e-20)
(-0.00872314 0.0487328 -2.05455e-20)
(-0.0140316 0.0584258 -1.55487e-20)
(-0.0200314 0.0640482 2.88502e-20)
(-0.0265645 0.0663977 -5.67721e-21)
(-0.0334787 0.0662117 -9.8028e-20)
(-0.0406455 0.0641435 -1.04833e-20)
(-0.0479562 0.0607453 -2.16157e-20)
(-0.0553206 0.056458 -3.7379e-21)
(-0.062667 0.0516105 -3.78986e-20)
(-0.0699415 0.0464265 4.33057e-20)
(-0.0771096 0.0410385 -6.41293e-20)
(-0.0841564 0.0355041 -1.9751e-21)
(-0.091088 0.0298247 1.75665e-20)
(-0.097933 0.0239598 -1.37549e-19)
(-0.104742 0.0178378 -1.11404e-19)
(-0.111584 0.0113615 6.07009e-20)
(-0.118558 0.0044038 -8.07401e-20)
(-0.125752 -0.00319465 1.51468e-21)
(-0.00153759 0.0143242 -8.77902e-21)
(-0.00500206 0.035586 1.17355e-19)
(-0.00969195 0.0509326 5.52187e-20)
(-0.0151138 0.0612414 -3.5781e-21)
(-0.0211279 0.0673526 1.47449e-20)
(-0.027601 0.0700753 1.99176e-21)
(-0.0344008 0.0701601 5.03668e-20)
(-0.0414143 0.068274 5.99515e-20)
(-0.0485439 0.0649833 2.55861e-20)
(-0.0557066 0.0607432 9.0271e-20)
(-0.0628348 0.0558971 -1.0469e-19)
(-0.0698762 0.0506831 -2.1951e-20)
(-0.076796 0.0452479 4.66206e-20)
(-0.0835776 0.0396638 -8.20157e-20)
(-0.0902258 0.0339465 3.75821e-20)
(-0.0967676 0.0280697 8.66784e-20)
(-0.103253 0.0219757 2.01047e-20)
(-0.109754 0.0155789 3.08633e-20)
(-0.116373 0.00875857 -4.88705e-20)
(-0.123188 0.00136796 5.11182e-21)
(-0.00186183 0.014833 -4.36384e-20)
(-0.00577049 0.0369571 2.81609e-20)
(-0.0107131 0.0530321 -4.5032e-20)
(-0.0162495 0.0639451 1.32735e-20)
(-0.0222702 0.0705424 3.69301e-20)
(-0.0286674 0.0736419 1.66378e-20)
(-0.0353298 0.0740044 3.20616e-20)
(-0.0421602 0.0723087 -2.22697e-20)
(-0.0490722 0.0691338 -1.39001e-19)
(-0.0559903 0.0649485 -1.25083e-19)
(-0.0628509 0.0601098 -8.18292e-20)
(-0.0696031 0.05487 3.08636e-20)
(-0.0762109 0.0493905 -1.76237e-20)
(-0.0826559 0.0437582 1.35186e-19)
(-0.0889399 0.038004 -4.88225e-20)
(-0.0950877 0.032117 4.02766e-20)
(-0.101148 0.0260542 5.81854e-20)
(-0.107196 0.0197437 -3.25787e-20)
(-0.113335 0.0130729 2.91502e-19)
(-0.119623 0.00591071 -1.09311e-19)
(-0.00220134 0.0153056 5.31112e-20)
(-0.0065757 0.038244 -6.68026e-20)
(-0.0117805 0.0550187 -1.02856e-19)
(-0.0174315 0.0665212 -2.69331e-20)
(-0.0234507 0.0736 1.19911e-20)
(-0.029756 0.0770783 1.85314e-20)
(-0.0362576 0.0777244 6.22266e-20)
(-0.0428746 0.0762268 1.3988e-20)
(-0.0495322 0.0731756 4.09903e-21)
(-0.0561626 0.0690518 2.24906e-19)
(-0.0627058 0.0642258 1.69606e-19)
(-0.0691118 0.0589638 -1.02465e-19)
(-0.0753434 0.0534413 -1.50653e-20)
(-0.0813791 0.0477605 -4.08239e-20)
(-0.0872171 0.0419681 4.07091e-20)
(-0.0928788 0.0360694 -2.17148e-19)
(-0.0984103 0.0300381 -4.62274e-20)
(-0.10389 0.0238173 -6.85699e-20)
(-0.109421 0.017305 -1.66667e-19)
(-0.115032 0.010389 9.00553e-20)
(-0.0025539 0.0157387 9.04785e-21)
(-0.00741261 0.0394381 -3.30118e-20)
(-0.0128875 0.0568799 9.30384e-20)
(-0.0186526 0.0689542 -5.74707e-20)
(-0.0246615 0.0765077 -3.2384e-20)
(-0.0308586 0.0803653 5.18035e-20)
(-0.0371761 0.0812999 -8.70762e-20)
(-0.0435494 0.0800074 -1.165e-20)
(-0.0499158 0.0770871 1.66317e-19)
(-0.0562147 0.0730314 -1.06676e-19)
(-0.0623902 0.0682228 -4.4015e-20)
(-0.0683929 0.0629409 5.17735e-20)
(-0.0741834 0.0573755 -1.36936e-20)
(-0.0797365 0.0516441 -7.08467e-21)
(-0.0850459 0.0458098 6.00123e-20)
(-0.0901282 0.0398951 -1.61783e-19)
(-0.0950262 0.0338919 5.52996e-20)
(-0.0998208 0.0277607 -4.31054e-20)
(-0.104614 0.0214125 -9.75754e-20)
(-0.109397 0.0147589 3.42048e-20)
(-0.0029171 0.0161293 -2.51007e-20)
(-0.00827574 0.0405314 1.81568e-19)
(-0.0140269 0.0586039 -4.03022e-20)
(-0.0199047 0.0712294 2.47694e-20)
(-0.0258945 0.0792487 1.79803e-19)
(-0.0319672 0.0834844 -1.21764e-19)
(-0.0380771 0.0847113 -6.03723e-20)
(-0.0441765 0.0836299 -1.05165e-19)
(-0.0502146 0.0808474 -1.154e-19)
(-0.0561386 0.0768656 -7.68072e-20)
(-0.0618959 0.0720784 -1.04457e-19)
(-0.0674377 0.0667783 1.90074e-19)
(-0.0727219 0.0611689 -2.07094e-20)
(-0.0777189 0.0553831 -4.52213e-20)
(-0.0824165 0.0495006 -2.36753e-19)
(-0.0868255 0.0435624 1.32744e-19)
(-0.0909841 0.0375804 3.225e-20)
(-0.0949756 0.0315348 8.46819e-20)
(-0.0989006 0.0253535 5.81204e-20)
(-0.102701 0.0189784 -1.55823e-19)
(-0.00328839 0.0164745 -7.8685e-20)
(-0.00915926 0.0415166 1.072e-19)
(-0.0151912 0.0601797 6.03261e-20)
(-0.0211796 0.0733328 2.7465e-20)
(-0.0271411 0.0818064 2.35146e-20)
(-0.0330733 0.0864174 -8.25273e-20)
(-0.0389525 0.0879391 1.78663e-19)
(-0.044748 0.0870742 9.82899e-21)
(-0.0504209 0.0844355 1.67092e-19)
(-0.0559262 0.080533 -9.83479e-20)
(-0.0612151 0.075771 1.57978e-19)
(-0.0662383 0.0704535 -1.57937e-19)
(-0.0709511 0.0647979 -1.42562e-19)
(-0.0753181 0.0589521 1.22878e-19)
(-0.0793206 0.0530129 4.38823e-19)
(-0.0829619 0.0470407 -2.44813e-19)
(-0.0862744 0.0410691 2.02151e-19)
(-0.0893439 0.0351011 4.76112e-20)
(-0.0922681 0.0290857 -1.78785e-19)
(-0.0949281 0.0230033 1.49437e-19)
(-0.00366507 0.0167721 1.43756e-19)
(-0.0100571 0.0423872 -8.17422e-20)
(-0.0163726 0.0615972 2.85331e-20)
(-0.0224687 0.0752514 1.05938e-19)
(-0.0283927 0.0841655 -9.73167e-20)
(-0.0341684 0.089147 1.92497e-19)
(-0.039794 0.0909645 -3.49413e-20)
(-0.0452558 0.0903205 4.32056e-21)
(-0.050527 0.0878311 -2.31418e-19)
(-0.0555703 0.084013 1.46884e-19)
(-0.0603402 0.0792791 3.45772e-20)
(-0.0647874 0.0739447 -4.63276e-20)
(-0.0688635 0.0682397 5.75277e-20)
(-0.0725269 0.0623269 -2.28877e-19)
(-0.0757508 0.0563202 -1.27708e-19)
(-0.0785302 0.0503002 2.73115e-19)
(-0.0808896 0.0443244 -1.54201e-19)
(-0.0829175 0.0384215 -2.22927e-19)
(-0.0847089 0.0325671 4.16603e-19)
(-0.0860697 0.0267885 4.7466e-22)
(-0.00404438 0.01702 1.21463e-19)
(-0.0109628 0.0431376 -1.51943e-19)
(-0.0175629 0.0628474 -1.58937e-19)
(-0.023763 0.076973 -7.60618e-20)
(-0.0296402 0.0863114 -1.10722e-19)
(-0.0352437 0.0916567 -6.26756e-20)
(-0.0405934 0.0937696 -2.67278e-19)
(-0.0456921 0.0933497 3.27678e-20)
(-0.0505254 0.0910144 -1.14911e-19)
(-0.0550634 0.087285 4.04015e-19)
(-0.0592642 0.0825822 -2.3628e-19)
(-0.063078 0.0772307 1.4509e-19)
(-0.0664522 0.0714726 -4.47788e-20)
(-0.0693383 0.0654844 2.49434e-19)
(-0.0717006 0.0593973 2.09025e-20)
(-0.0735238 0.0533128 -2.18517e-19)
(-0.0748233 0.0473142 -4.03425e-20)
(-0.0756897 0.0414595 8.77249e-21)
(-0.0762171 0.0357568 -1.55022e-20)
(-0.0761188 0.030292 2.87548e-19)
(-0.00442347 0.0172168 -1.50956e-19)
(-0.0118699 0.043763 -1.46402e-19)
(-0.0187538 0.0639225 6.08018e-20)
(-0.0250536 0.078487 1.52565e-19)
(-0.0308747 0.0882307 -1.13137e-20)
(-0.0362905 0.0939307 -1.05995e-19)
(-0.0413423 0.0963369 2.35897e-19)
(-0.0460492 0.0961432 -2.69386e-20)
(-0.0504086 0.093966 2.9039e-19)
(-0.0543984 0.0903295 -3.24274e-19)
(-0.0579801 0.0856602 8.57988e-20)
(-0.061103 0.0802913 1.03012e-19)
(-0.0637104 0.0744756 -3.06773e-21)
(-0.065746 0.0684029 -1.86967e-21)
(-0.0671636 0.0622208 -2.01282e-19)
(-0.0679369 0.0560522 2.6687e-20)
(-0.0680699 0.050008 2.74928e-19)
(-0.067655 0.0441798 3.58645e-19)
(-0.0667882 0.0386155 -4.29131e-19)
(-0.0650692 0.033473 -2.74244e-19)
(-0.00479952 0.0173612 6.38401e-20)
(-0.012772 0.0442599 9.73116e-20)
(-0.0199371 0.064816 1.19741e-19)
(-0.0263315 0.0797839 -2.02127e-19)
(-0.0320869 0.0899112 2.13094e-19)
(-0.0373001 0.0959547 2.03644e-19)
(-0.0420325 0.0986502 -7.95673e-20)
(-0.0463191 0.0986834 3.51983e-19)
(-0.0501692 0.0966673 -3.58265e-19)
(-0.0535681 0.0931272 1.60002e-19)
(-0.0564806 0.0884937 1.63622e-19)
(-0.0588555 0.0831071 -1.23236e-20)
(-0.060631 0.0772293 2.57968e-21)
(-0.0617428 0.0710623 2.17841e-20)
(-0.0621333 0.0647693 -1.58914e-19)
(-0.0617632 0.0584945 1.59408e-19)
(-0.0606235 0.0523783 -8.22216e-20)
(-0.0588072 0.0465499 -1.87045e-19)
(-0.056418 0.0411053 2.45022e-19)
(-0.0529129 0.0362916 5.13804e-20)
(-0.00516973 0.017453 -3.66044e-20)
(-0.0136626 0.0446258 4.60741e-20)
(-0.0211044 0.0655227 -1.00159e-19)
(-0.0275874 0.0808558 -1.50358e-19)
(-0.0332677 0.0913421 -1.54917e-19)
(-0.0382635 0.0977154 -1.40182e-19)
(-0.0426554 0.100694 2.3011e-19)
(-0.0464938 0.100953 -1.15969e-19)
(-0.0497994 0.0991004 9.33964e-20)
(-0.0525648 0.0956597 1.10712e-20)
(-0.0547583 0.0910642 -2.59375e-20)
(-0.0563277 0.0856595 6.55747e-20)
(-0.0572063 0.0797154 -1.278e-19)
(-0.0573208 0.0734442 6.64495e-20)
(-0.0566017 0.0670236 2.19506e-19)
(-0.0549952 0.0606185 -3.24219e-19)
(-0.0524768 0.0544003 -2.09663e-19)
(-0.049139 0.0485402 2.78514e-19)
(-0.0451023 0.0431915 -1.63855e-19)
(-0.0396386 0.0387105 -2.58348e-19)
(-0.00553139 0.0174919 1.36862e-19)
(-0.0145352 0.0448594 -1.39764e-19)
(-0.0222475 0.0660391 1.13077e-19)
(-0.0288126 0.0816962 1.82134e-19)
(-0.034408 0.0925144 -3.38183e-20)
(-0.039172 0.0992009 -1.21245e-19)
(-0.0432028 0.102455 -2.25682e-19)
(-0.0465654 0.102937 -1.72472e-19)
(-0.0492914 0.101248 -3.50635e-19)
(-0.0513808 0.0979092 3.62822e-20)
(-0.052805 0.0933539 -3.22321e-20)
(-0.0535111 0.0879312 -2.53184e-19)
(-0.0534272 0.0819169 2.22373e-19)
(-0.0524708 0.075532 2.73585e-19)
(-0.0505593 0.068967 -1.43399e-20)
(-0.0476231 0.0624064 1.70336e-19)
(-0.0436202 0.056053 -8.68782e-20)
(-0.0386397 0.0501244 1.46109e-20)
(-0.032834 0.0448403 2.52417e-19)
(-0.0252365 0.0407051 6.05059e-19)
(-0.00588194 0.0174787 -5.89649e-20)
(-0.0153839 0.0449605 -4.1752e-20)
(-0.0233586 0.066363 1.17019e-19)
(-0.0299981 0.0823004 -1.63657e-19)
(-0.035499 0.0934201 -4.27968e-20)
(-0.0400166 0.100401 2.53939e-19)
(-0.0436659 0.103918 -6.0484e-20)
(-0.0465253 0.104619 -1.75411e-19)
(-0.0486368 0.103094 2.85488e-19)
(-0.0500075 0.0998588 -7.6379e-20)
(-0.0506118 0.0953457 5.64927e-20)
(-0.050396 0.0899056 3.10871e-19)
(-0.0492831 0.0838181 -4.34178e-19)
(-0.047181 0.0773113 -1.19454e-19)
(-0.0439934 0.0705858 -2.38884e-19)
(-0.0396341 0.0638441 4.8834e-19)
(-0.0340407 0.05732 1.5366e-20)
(-0.0272942 0.0512783 2.76169e-19)
(-0.0195892 0.0460034 -9.80782e-20)
(-0.00971982 0.0422741 -5.76464e-19)
(-0.00621899 0.0174142 -1.38292e-19)
(-0.0162028 0.0449302 2.00504e-19)
(-0.02443 0.066494 2.57086e-21)
(-0.0311357 0.0826654 -2.11149e-21)
(-0.0365317 0.0940535 2.09634e-19)
(-0.0407887 0.101305 1.51254e-19)
(-0.0440362 0.105074 -6.06689e-21)
(-0.046365 0.105987 4.5595e-19)
(-0.0478269 0.104623 1.75426e-19)
(-0.0484355 0.101492 -3.24431e-19)
(-0.0481684 0.0970233 1.52459e-20)
(-0.0469709 0.0915669 -1.00989e-20)
(-0.0447609 0.0854048 4.62488e-19)
(-0.0414367 0.0787693 -5.21336e-19)
(-0.0368879 0.0718691 1.44457e-19)
(-0.0310103 0.0649216 6.84961e-21)
(-0.023721 0.0581903 -3.78507e-19)
(-0.0150942 0.0519882 -3.97391e-19)
(-0.00533415 0.0466841 -4.71744e-20)
(0.00690624 0.0433546 5.89859e-19)
(-0.00654038 0.0173001 4.5059e-20)
(-0.0169868 0.0447709 -1.42967e-19)
(-0.0254549 0.0664332 1.38133e-19)
(-0.0322172 0.0827898 -2.07048e-19)
(-0.0374978 0.0944101 2.57785e-19)
(-0.0414795 0.101908 -4.31828e-19)
(-0.0443048 0.105911 -1.07197e-19)
(-0.0460754 0.107027 -2.38331e-19)
(-0.046852 0.105821 -1.12885e-19)
(-0.0466544 0.102794 2.02144e-19)
(-0.0454631 0.0983711 4.15614e-19)
(-0.0432223 0.0929004 -4.6951e-19)
(-0.039845 0.0866637 -1.76921e-19)
(-0.0352196 0.0798952 6.46457e-19)
(-0.0292215 0.0728086 -2.37877e-19)
(-0.0217278 0.0656332 -3.45079e-19)
(-0.0126329 0.0586598 4.42193e-19)
(-0.00200192 0.0522539 9.37212e-20)
(0.00994213 0.0468888 9.166e-20)
(0.0247464 0.0439136 -3.81498e-19)
(-0.0068442 0.0171385 1.76966e-20)
(-0.0177309 0.0444861 -7.48408e-20)
(-0.0264265 0.0661832 2.43289e-19)
(-0.0332352 0.0826743 -3.14769e-19)
(-0.0383889 0.0944876 -2.59379e-19)
(-0.0420804 0.102203 1.63924e-19)
(-0.0444626 0.106421 4.5777e-19)
(-0.0456468 0.107727 -2.89862e-19)
(-0.0457016 0.106674 7.06502e-20)
(-0.0446524 0.10375 -1.4046e-19)
(-0.0424821 0.0993741 -5.71257e-19)
(-0.039134 0.0938919 3.47509e-19)
(-0.0345159 0.0875826 2.84078e-19)
(-0.0285067 0.0806798 -5.06079e-19)
(-0.020967 0.073399 1.18458e-19)
(-0.0117549 0.0659773 4.81137e-19)
(-0.000740164 0.0587291 1.92295e-19)
(0.0120262 0.0520725 6.78209e-20)
(0.0262869 0.0465917 -4.01297e-19)
(0.0438571 0.0439675 -1.96394e-19)
(-0.00712888 0.016932 -1.2249e-19)
(-0.0184311 0.0440804 -2.24918e-19)
(-0.0273393 0.0657484 -1.29006e-19)
(-0.0341824 0.0823209 1.70888e-19)
(-0.0391971 0.0942852 -9.96604e-21)
(-0.0425826 0.102187 3.84511e-19)
(-0.0445 0.106596 -3.59953e-20)
(-0.0450688 0.108079 4.2779e-20)
(-0.0443641 0.107169 2.79035e-19)
(-0.042416 0.104345 3.54641e-19)
(-0.0392096 0.100018 -1.67391e-20)
(-0.0346869 0.0945281 -7.92395e-20)
(-0.0287504 0.0881502 -4.68816e-19)
(-0.0212697 0.0811153 3.54153e-19)
(-0.0120906 0.0736372 -3.13106e-20)
(-0.00105177 0.0659562 -2.15477e-19)
(0.0120035 0.058405 -1.09352e-18)
(0.0270434 0.0514507 3.92353e-19)
(0.0437602 0.0457899 2.1055e-20)
(0.0643034 0.0435174 -2.4535e-19)
(-0.0073932 0.0166837 1.1349e-19)
(-0.0190838 0.0435596 2.94327e-19)
(-0.0281879 0.0651343 -2.23807e-19)
(-0.0350525 0.0817338 -1.08593e-19)
(-0.0399148 0.0938042 9.0512e-20)
(-0.0429773 0.101856 -2.18807e-19)
(-0.0444073 0.106431 -4.07659e-19)
(-0.0443301 0.108072 2.41923e-19)
(-0.0428263 0.107296 -2.75189e-20)
(-0.0399298 0.104568 -5.60716e-19)
(-0.0356269 0.10029 1.07718e-19)
(-0.029858 0.0947962 6.13572e-20)
(-0.0225204 0.0883559 -1.08021e-19)
(-0.0134741 0.0811949 2.86576e-19)
(-0.00255042 0.0735222 5.64174e-19)
(0.0104316 0.0655762 -3.7158e-19)
(0.0256561 0.0577005 3.02778e-19)
(0.0431167 0.0504057 7.51523e-20)
(0.0624367 0.0444961 4.34117e-19)
(0.0861748 0.0425704 1.96556e-19)
(-0.00763629 0.0163968 -1.24717e-19)
(-0.0196863 0.0429305 -1.427e-20)
(-0.028968 0.0643482 3.17468e-19)
(-0.0358395 0.0809186 3.15129e-19)
(-0.0405344 0.0930476 -6.47693e-20)
(-0.0432556 0.101211 -4.08324e-20)
(-0.0441737 0.105923 4.10933e-19)
(-0.0434181 0.107701 -3.19974e-19)
(-0.0410732 0.107045 9.81756e-20)
(-0.0371756 0.104407 4.08041e-19)
(-0.0317119 0.100178 3.94089e-19)
(-0.0246203 0.0946844 1.55301e-19)
(-0.0157924 0.0881899 6.81332e-19)
(-0.00507859 0.080913 -9.42931e-20)
(0.00770409 0.0730548 -7.34626e-19)
(0.0227559 0.0648466 3.64311e-19)
(0.0402891 0.0566351 -1.97663e-19)
(0.060329 0.0489647 -4.62577e-19)
(0.0824083 0.0427361 -3.31636e-19)
(0.109584 0.0411468 -3.35037e-19)
(-0.00785769 0.0160753 8.00456e-20)
(-0.0202366 0.0422005 1.67328e-19)
(-0.0296759 0.0633986 -1.1593e-19)
(-0.036538 0.0798825 -1.43962e-19)
(-0.0410486 0.0920202 -1.50044e-19)
(-0.043408 0.100254 -4.04496e-20)
(-0.0437876 0.105069 -4.24965e-19)
(-0.0423186 0.106961 2.1845e-19)
(-0.0390877 0.106409 -2.02198e-19)
(-0.0341324 0.103851 -3.43481e-19)
(-0.0274388 0.0996699 1.24818e-20)
(-0.0189418 0.0941817 -8.81483e-19)
(-0.0085268 0.0876433 -6.89369e-19)
(0.00396577 0.0802647 2.2004e-19)
(0.018733 0.0722371 1.12405e-19)
(0.0359938 0.0637797 -2.43685e-19)
(0.0559878 0.0552333 9.55484e-19)
(0.0787799 0.0471648 -1.51842e-19)
(0.103785 0.0405486 4.17308e-19)
(0.134665 0.0392818 3.78317e-19)
(-0.00805732 0.0157232 -1.09707e-19)
(-0.0207333 0.0413782 -3.63148e-19)
(-0.0303089 0.062295 1.15535e-19)
(-0.0371429 0.0786345 6.55294e-21)
(-0.0414501 0.0907286 4.90524e-19)
(-0.0434247 0.0989884 -2.93207e-19)
(-0.0432362 0.10387 1.60767e-19)
(-0.0410156 0.105847 2.30795e-19)
(-0.0368497 0.10538 -1.80392e-20)
(-0.0307755 0.102893 1.4369e-19)
(-0.0227771 0.0987565 4.39699e-19)
(-0.0127847 0.0932785 9.24969e-19)
(-0.000676825 0.0867079 7.5015e-20)
(0.0137166 0.0792461 -4.16948e-19)
(0.0306067 0.0710723 7.58257e-20)
(0.0502303 0.0623899 7.51971e-19)
(0.0728526 0.0535248 -5.15964e-19)
(0.098586 0.0450526 2.91173e-21)
(0.126695 0.0379865 4.08683e-19)
(0.161572 0.0370272 -2.51774e-19)
(-0.00823552 0.0153447 -1.05372e-19)
(-0.0211761 0.0404726 4.30043e-19)
(-0.0308645 0.0610481 -3.27783e-19)
(-0.0376497 0.0771847 -6.69195e-20)
(-0.0417314 0.0891813 -1.13049e-19)
(-0.0432949 0.0974192 -2.94545e-19)
(-0.0425051 0.102328 2.93621e-19)
(-0.0394905 0.10436 -9.68732e-20)
(-0.034336 0.103957 -1.74584e-19)
(-0.027076 0.101527 2.86578e-19)
(-0.0176908 0.0974305 -3.34952e-19)
(-0.00610477 0.091967 -1.0875e-19)
(0.00781212 0.0853775 -1.22585e-20)
(0.0242409 0.0778545 2.93227e-19)
(0.0434068 0.0695649 -2.67659e-19)
(0.0655633 0.0606932 -5.11663e-19)
(0.0909983 0.0515424 -1.59901e-19)
(0.11988 0.0426828 -2.32896e-19)
(0.151281 0.0351161 -7.17708e-19)
(0.190476 0.0344538 -2.16676e-19)
(-0.008393 0.0149444 1.49792e-19)
(-0.0215649 0.039493 -1.88602e-19)
(-0.0313412 0.0596694 -2.36743e-19)
(-0.0380538 0.0755447 -2.23655e-19)
(-0.0418844 0.0873883 7.44544e-20)
(-0.0430065 0.0955547 4.15709e-20)
(-0.0415778 0.100449 1.04935e-19)
(-0.0377217 0.102502 -2.73414e-19)
(-0.031519 0.102137 2.12092e-19)
(-0.0229995 0.0997492 -6.39316e-19)
(-0.0121377 0.0956871 -3.22645e-19)
(0.00115012 0.0902421 5.11274e-21)
(0.0170037 0.083648 2.89664e-19)
(0.035616 0.0760893 -1.91948e-19)
(0.0572265 0.0677209 4.94536e-19)
(0.0821039 0.0587075 -1.22208e-19)
(0.110554 0.0493221 1.60146e-19)
(0.142808 0.0401171 6.15192e-19)
(0.177701 0.0320168 8.21208e-20)
(0.221554 0.0316521 3.99506e-19)
(-0.00853085 0.0145267 -3.16256e-19)
(-0.0219006 0.0384493 2.54763e-19)
(-0.0317375 0.0581711 2.85342e-19)
(-0.0383507 0.073727 -1.66214e-19)
(-0.0419005 0.0853613 2.84003e-19)
(-0.042546 0.0934046 2.742e-19)
(-0.0404351 0.0982398 -4.96142e-20)
(-0.0356839 0.100277 -9.44518e-20)
(-0.0283665 0.0999233 -2.57889e-19)
(-0.0185058 0.0975603 1.20989e-19)
(-0.0060678 0.0935255 1.17972e-20)
(0.00904086 0.0881025 -3.21247e-19)
(0.0269718 0.0815191 2.41919e-19)
(0.047931 0.073953 -1.91036e-19)
(0.0721718 0.065549 -3.50873e-19)
(0.099976 0.0564525 -4.63095e-19)
(0.13166 0.0469018 1.14287e-19)
(0.167529 0.0374225 1.6089e-19)
(0.206118 0.0287791 -1.57279e-19)
(0.254983 0.0287326 6.63043e-19)
(-0.00865043 0.0140961 -2.50135e-19)
(-0.0221845 0.0373513 -2.34387e-19)
(-0.0320526 0.0565657 1.85054e-19)
(-0.0385355 0.0717452 1.0761e-19)
(-0.0417698 0.0831134 4.41326e-20)
(-0.0418977 0.0909807 -8.06438e-20)
(-0.039055 0.0957101 -5.69909e-20)
(-0.0333476 0.0976935 1.3063e-19)
(-0.0248406 0.0973223 -1.23714e-19)
(-0.0135472 0.0949649 9.96905e-19)
(0.000577183 0.090949 7.30161e-20)
(0.0176384 0.0855515 -1.13848e-19)
(0.0378017 0.0789951 -7.5155e-19)
(0.0612869 0.0714528 1.46645e-19)
(0.0883611 0.063062 -3.77875e-19)
(0.119316 0.0539513 2.52569e-19)
(0.154471 0.0443222 2.34337e-19)
(0.194207 0.0346702 -9.0442e-19)
(0.236701 0.0255027 -2.8601e-19)
(0.290928 0.0258253 -9.91028e-19)
(-0.00875339 0.0136569 1.20904e-19)
(-0.022418 0.0362086 2.42722e-19)
(-0.0322852 0.054866 -4.36995e-19)
(-0.0386026 0.0696134 -3.34613e-19)
(-0.0414809 0.0806592 1.6982e-19)
(-0.0410435 0.088297 1.59866e-19)
(-0.0374113 0.0928732 -3.3226e-19)
(-0.030678 0.0947632 -2.99811e-20)
(-0.0208966 0.0943441 1.79285e-20)
(-0.00806827 0.0919723 -3.00355e-19)
(0.00786545 0.0879667 4.38673e-19)
(0.027025 0.0825984 2.7406e-21)
(0.0495911 0.0760868 5.63043e-19)
(0.0757985 0.0686026 3.84899e-19)
(0.105926 0.0602789 6.42595e-20)
(0.140273 0.0512321 8.31051e-19)
(0.179146 0.0416272 -7.62398e-19)
(0.223007 0.0319345 3.56061e-19)
(0.269609 0.0222939 2.82396e-19)
(0.329518 0.0230778 2.45181e-19)
(-0.00884151 0.0132131 5.82956e-19)
(-0.0226028 0.0350306 -4.10934e-19)
(-0.0324339 0.0530847 9.95272e-20)
(-0.0385454 0.0673464 3.24761e-19)
(-0.0410207 0.0780142 -3.50277e-19)
(-0.0399621 0.0853695 1.72854e-20)
(-0.0354739 0.0897447 2.67176e-19)
(-0.0276346 0.0915015 4.92783e-19)
(-0.0164827 0.0910039 6.69897e-19)
(-0.00200412 0.0885978 -6.43908e-19)
(0.0158759 0.0845943 -3.86648e-19)
(0.0372952 0.0792601 1.84502e-19)
(0.0624513 0.0728133 -5.35393e-19)
(0.0915938 0.0654247 3.62652e-20)
(0.125012 0.0572274 2.10861e-19)
(0.163003 0.0483304 1.62682e-19)
(0.205852 0.0388661 5.14785e-19)
(0.254089 0.0292923 1.10621e-19)
(0.304993 0.0192645 -3.98081e-19)
(0.370834 0.0206528 4.3091e-19)
(-0.00891667 0.0127685 -5.52815e-19)
(-0.0227405 0.0338261 4.09206e-19)
(-0.0324966 0.0512342 9.92558e-20)
(-0.038356 0.0649591 -3.22135e-19)
(-0.0403733 0.0751953 1.36179e-19)
(-0.0386287 0.0822161 -6.58443e-20)
(-0.0332073 0.0863436 -4.9663e-20)
(-0.0241703 0.0879278 -4.15711e-19)
(-0.0115387 0.0873219 -6.58808e-19)
(0.00471985 0.0848626 6.18761e-19)
(0.0246991 0.0808548 -2.23624e-19)
(0.0485561 0.0755621 7.12385e-21)
(0.0765068 0.0692032 1.28355e-19)
(0.108814 0.0619521 2.75547e-19)
(0.145773 0.0539457 -3.35837e-20)
(0.187672 0.0452919 -7.86974e-20)
(0.234754 0.0360959 -4.13537e-19)
(0.287595 0.0268237 -2.79913e-19)
(0.342976 0.0165297 -2.67852e-19)
(0.414882 0.0187246 4.3446e-19)
(-0.00898071 0.0123264 4.43226e-19)
(-0.0228323 0.032603 -1.15587e-19)
(-0.0324702 0.0493263 3.92534e-19)
(-0.0380244 0.0624665 9.51476e-20)
(-0.0395204 0.0722199 -2.09917e-19)
(-0.0370144 0.0788565 3.40184e-20)
(-0.0305709 0.0826913 -4.48822e-19)
(-0.020231 0.0840656 2.04796e-19)
(-0.00599565 0.0833238 1.11324e-19)
(0.0121887 0.0807949 -4.07566e-20)
(0.0344372 0.0767793 -4.65716e-20)
(0.0609282 0.0715393 5.59689e-20)
(0.0918953 0.0652962 -2.57402e-19)
(0.127613 0.0582298 -6.05145e-19)
(0.168374 0.050485 3.08465e-19)
(0.214446 0.0421745 -1.58002e-19)
(0.26601 0.0333838 -4.04855e-20)
(0.323644 0.0246111 6.76754e-19)
(0.383651 0.0142099 7.1959e-19)
(0.461567 0.0174754 -1.11055e-18)
(-0.00903531 0.0118895 -1.1325e-19)
(-0.0228788 0.0313685 -1.2442e-19)
(-0.0323504 0.0473721 -2.46089e-19)
(-0.0375388 0.0598834 1.80332e-19)
(-0.0384399 0.0691063 3.27284e-19)
(-0.0350858 0.075312 -4.23806e-19)
(-0.0275179 0.0788124 6.78239e-19)
(-0.0157553 0.0799427 -1.32921e-19)
(0.000224275 0.0790407 1.93928e-20)
(0.0204978 0.0764299 -4.64038e-19)
(0.0452043 0.0724077 -3.55118e-20)
(0.0745435 0.067237 -3.87576e-19)
(0.108766 0.0611437 5.23145e-19)
(0.148152 0.0543161 3.47257e-19)
(0.192983 0.0469105 -6.84036e-19)
(0.243486 0.0390496 -5.88472e-19)
(0.299762 0.0308087 1.3751e-19)
(0.362315 0.0227388 8.09859e-19)
(0.42707 0.0124316 3.79367e-19)
(0.510665 0.0170881 2.07075e-19)
(-0.00908186 0.0114599 3.50147e-20)
(-0.0228795 0.0301283 1.20588e-19)
(-0.0321311 0.0453816 1.45094e-19)
(-0.0368844 0.0572239 -1.21208e-19)
(-0.0371066 0.0658728 3.03599e-19)
(-0.0328045 0.0716055 4.0722e-19)
(-0.0239955 0.0747341 6.37862e-21)
(-0.0106739 0.0755909 -5.27969e-19)
(0.00720787 0.0745094 -4.23429e-19)
(0.0297527 0.0718099 4.4529e-19)
(0.0571246 0.0677886 -5.99383e-19)
(0.0895444 0.0627109 -6.77769e-19)
(0.127275 0.0568091 -6.80741e-20)
(0.170596 0.0502821 -3.46087e-20)
(0.219762 0.0433009 2.43041e-19)
(0.274939 0.0360015 1.60989e-19)
(0.336123 0.0284616 2.11225e-19)
(0.403638 0.0212894 -1.00042e-18)
(0.473234 0.0113289 -2.82106e-19)
(0.561806 0.0177294 7.43562e-19)
(-0.00912133 0.0110392 -2.10206e-19)
(-0.022833 0.0288873 2.05351e-19)
(-0.0318042 0.0433637 -1.51434e-19)
(-0.0360437 0.0545015 -7.51787e-20)
(-0.035491 0.062538 -2.04994e-19)
(-0.0301274 0.0677608 -1.5545e-19)
(-0.0199446 0.0704858 -2.78595e-19)
(-0.00491041 0.0710456 4.61317e-19)
(0.0150503 0.0697721 1.84217e-19)
(0.0400678 0.0669843 -4.52853e-19)
(0.0703312 0.0629793 7.13714e-19)
(0.10608 0.0580268 3.68602e-19)
(0.147584 0.0523672 -2.80394e-19)
(0.195108 0.0462116 -3.97455e-19)
(0.248864 0.0397474 -5.21274e-20)
(0.308925 0.0331259 4.14595e-19)
(0.375164 0.0264435 -2.8196e-19)
(0.44758 0.0203388 1.07616e-19)
(0.522083 0.0110458 2.45958e-19)
(0.61445 0.019528 6.2934e-19)
(-0.00915413 0.0106281 -2.16096e-20)
(-0.0227363 0.0276486 -5.07046e-19)
(-0.0313591 0.0413257 1.23508e-19)
(-0.0349959 0.051729 2.74549e-19)
(-0.0335596 0.0591204 -5.06092e-20)
(-0.0270061 0.0638026 -3.32725e-19)
(-0.0153002 0.0660993 3.67237e-19)
(0.00161842 0.066346 4.21422e-19)
(0.0238539 0.0648757 1.61602e-19)
(0.0515646 0.0620086 8.05534e-19)
(0.0849629 0.0580447 -3.76533e-19)
(0.124302 0.0532595 1.81694e-19)
(0.169849 0.0479026 -1.87861e-19)
(0.221839 0.042198 4.57302e-19)
(0.280416 0.0363504 -4.01925e-20)
(0.345526 0.0305252 -1.08531e-19)
(0.416896 0.0248612 -1.73196e-19)
(0.49403 0.0199512 2.76393e-19)
(0.573462 0.0117628 -7.04597e-19)
(0.667834 0.0226046 -9.67716e-19)
(-0.00917998 0.0102266 -1.21852e-19)
(-0.0225847 0.0264141 -4.49841e-20)
(-0.0307828 0.0392737 -4.09317e-19)
(-0.0337168 0.0489177 2.5047e-19)
(-0.0312748 0.055638 -2.55708e-19)
(-0.0233873 0.0597564 -2.59826e-19)
(-0.00999164 0.0616079 -2.34741e-20)
(0.00900177 0.061534 -4.24963e-19)
(0.0337268 0.0598716 -6.7575e-19)
(0.0643688 0.0569444 1.85337e-19)
(0.10116 0.053057 2.0865e-19)
(0.144359 0.0484919 2.52905e-19)
(0.194217 0.0435083 6.50976e-19)
(0.250916 0.0383426 -6.43075e-20)
(0.314506 0.033215 -1.43581e-19)
(0.38477 0.0283026 -2.13098e-20)
(0.461263 0.0238132 3.66501e-19)
(0.542821 0.02017 6.58973e-19)
(0.627099 0.0137566 -1.86956e-19)
(0.720864 0.0271555 7.021e-19)
(-0.00919782 0.00983384 3.81336e-19)
(-0.0223714 0.0251841 -6.16525e-20)
(-0.0300594 0.0372121 3.61192e-19)
(-0.0321787 0.0460778 -3.70268e-19)
(-0.0285947 0.0521081 5.46703e-19)
(-0.0192131 0.0556477 4.577e-19)
(-0.00394357 0.057046 -3.76393e-19)
(0.0173333 0.0566539 -7.01799e-19)
(0.0447805 0.0548147 1.16593e-18)
(0.0786076 0.0518576 2.88874e-19)
(0.11906 0.0480935 -2.26124e-19)
(0.16639 0.0438126 -2.24626e-19)
(0.220813 0.0392829 -1.12589e-19)
(0.282434 0.0347504 -1.77134e-19)
(0.351175 0.0304464 -5.91712e-19)
(0.426618 0.0265528 -1.63369e-19)
(0.508126 0.0233654 1.30881e-20)
(0.593785 0.0209974 -4.53004e-19)
(0.682742 0.017368 2.26433e-19)
(0.772416 0.0330294 -4.98864e-19)
(-0.00920568 0.00944845 -6.09002e-19)
(-0.0220878 0.0239576 4.09497e-19)
(-0.0291703 0.0351438 -6.09358e-19)
(-0.0303506 0.0432184 -3.31672e-19)
(-0.0254738 0.0485473 1.23671e-19)
(-0.0144218 0.0515018 -4.94401e-19)
(0.00292309 0.052449 7.75526e-19)
(0.0267096 0.0517518 1.35934e-20)
(0.0571275 0.0497624 -4.33606e-19)
(0.0944056 0.0468176 -3.79613e-19)
(0.138792 0.0432357 -6.80252e-19)
(0.190517 0.0393143 -8.11416e-21)
(0.249735 0.0353281 2.50268e-20)
(0.316442 0.0315273 -1.59835e-19)
(0.390394 0.0281462 7.12112e-19)
(0.470937 0.0253564 4.44097e-19)
(0.557224 0.0235338 1.1127e-19)
(0.646705 0.0223877 -4.81829e-19)
(0.740302 0.0225882 -2.47396e-20)
(0.823113 0.0378831 -8.07528e-19)
(-0.00920067 0.0090683 2.16306e-19)
(-0.0217229 0.0227323 -4.09035e-19)
(-0.0280938 0.0330701 5.25915e-19)
(-0.0281978 0.040347 7.39104e-19)
(-0.0218629 0.0449712 -2.40499e-19)
(-0.00894841 0.0473438 3.1429e-20)
(0.0106899 0.0478525 -6.53438e-19)
(0.0372279 0.0468748 -1.62349e-19)
(0.0708782 0.0447739 -5.08019e-19)
(0.11188 0.041896 6.64116e-19)
(0.160472 0.0385672 6.17972e-19)
(0.216838 0.0350912 -1.10144e-19)
(0.281043 0.0317457 -8.37042e-20)
(0.352936 0.0287779 -7.68539e-21)
(0.432062 0.0264117 1.2697e-19)
(0.517491 0.0247864 -2.31272e-19)
(0.608126 0.0243132 -2.71285e-19)
(0.701006 0.0242807 5.80166e-19)
(0.798837 0.0283371 -1.87361e-19)
(0.877452 0.0368756 3.44802e-20)
(-0.00917888 0.00869072 5.71227e-20)
(-0.0212637 0.0215046 8.29465e-20)
(-0.0268052 0.0309911 -2.75173e-19)
(-0.0256829 0.0374698 -7.61318e-19)
(-0.01771 0.0413944 1.23564e-19)
(-0.0027255 0.0431982 3.74012e-19)
(0.0194393 0.0432919 1.7092e-19)
(0.0489841 0.0420701 7.3439e-19)
(0.0861375 0.0399091 -4.61883e-19)
(0.131138 0.0371651 -6.02166e-19)
(0.184194 0.0341719 -1.10491e-19)
(0.24542 0.0312371 2.773e-19)
(0.314753 0.0286355 6.10505e-20)
(0.391851 0.0266022 3.30387e-19)
(0.475999 0.0253355 -4.06802e-19)
(0.565953 0.0249188 8.27341e-20)
(0.660299 0.0257414 -1.04751e-19)
(0.755759 0.0266552 -6.00217e-20)
(0.855058 0.0323776 1.3195e-19)
(0.93475 0.0320623 1.41921e-18)
(-0.00913534 0.00831255 -2.81654e-19)
(-0.0206949 0.0202702 1.92433e-20)