/*--------------------------------*- C++ -*----------------------------------*\
  =========                 |
  \\      /  F ield         | OpenFOAM: The Open Source CFD Toolbox
   \\    /   O peration     | Website:  https://openfoam.org
    \\  /    A nd           | Version:  7
     \\/     M anipulation  |
\*---------------------------------------------------------------------------*/
FoamFile
{
    version     2.0;
    format      ascii;
    class       volVectorField;
    location    "20";
    object      U;
}
// * * * * * * * * * * * * * * * * * * * * * * * * * * * * * * * * * * * * * //

dimensions      [0 1 -1 0 0 0 0];

internalField   nonuniform List<vector> 
8500
(
(-0.00883697 0.00682826 1.07039e-19)
(-0.00873482 0.00650385 9.00167e-20)
(-0.0181736 0.014924 -1.18666e-19)
(-0.00857234 0.00615338 5.66675e-19)
(-0.0171156 0.0138765 -3.36401e-19)
(-0.017093 0.0187897 -1.42263e-21)
(-0.00834243 0.00577664 -2.9471e-19)
(-0.0158307 0.0127712 3.07331e-21)
(-0.0141329 0.0171198 2.43742e-19)
(-0.00803763 0.00537373 -1.0327e-19)
(-0.0142986 0.011611 6.1942e-20)
(-0.0107288 0.0153976 8.98696e-20)
(0.00253584 0.0173339 -2.66155e-19)
(-0.00765014 0.00494516 5.30143e-19)
(-0.0124981 0.0103999 -1.33638e-19)
(-0.00684901 0.0136331 -1.94395e-19)
(0.00911307 0.0152291 9.98521e-20)
(0.035443 0.0160144 4.74254e-19)
(-0.00717192 0.00449186 -2.38922e-19)
(-0.010408 0.00914318 3.66281e-20)
(-0.00246167 0.0118378 -2.70098e-19)
(0.0164299 0.0131368 -3.82223e-19)
(0.0462909 0.0138905 -1.64698e-19)
(0.0871389 0.0148477 -9.23848e-20)
(-0.00659471 0.00401523 -2.32873e-19)
(-0.00800675 0.00784732 5.13889e-19)
(0.00246446 0.0100255 3.21307e-19)
(0.0245233 0.0110788 1.4385e-19)
(0.0581549 0.0118784 -5.19809e-20)
(0.103318 0.0131864 -3.41573e-19)
(0.159878 0.0156473 4.78991e-20)
(-0.00591012 0.00351723 4.14239e-20)
(-0.00527304 0.00652029 -7.78057e-20)
(0.00795972 0.00821176 5.72377e-20)
(0.0334283 0.00907948 -1.38094e-19)
(0.071068 0.0100114 2.93023e-19)
(0.120763 0.0117779 5.3172e-19)
(0.182259 0.0150181 1.64749e-19)
(0.255052 0.0202515 1.03385e-19)
(-0.00510969 0.00300035 -1.39462e-19)
(-0.00218576 0.00517155 -3.25457e-19)
(0.0140532 0.00641443 -2.46587e-19)
(0.0431765 0.00716572 7.70737e-20)
(0.0850578 0.0083252 -4.17533e-19)
(0.139486 0.0106654 -5.21232e-19)
(0.206064 0.0148116 -7.03205e-20)
(0.284073 0.0212503 -1.63288e-19)
(0.372321 0.0302898 -1.68428e-20)
(-0.00418499 0.00246771 -1.07517e-19)
(0.0012756 0.00381212 -8.39726e-20)
(0.0207723 0.0046535 3.79577e-19)
(0.0537963 0.00536678 -2.35142e-19)
(0.100145 0.00685773 6.08612e-19)
(0.159493 0.00989362 2.57184e-19)
(0.231265 0.0150755 -1.69406e-19)
(0.314496 0.0228434 -2.90812e-19)
(0.407669 0.0334295 -4.65427e-19)
(0.508595 0.0468133 4.95228e-19)
(-0.00312766 0.00192303 2.11376e-19)
(0.00513073 0.00245458 3.44836e-19)
(0.0281421 0.00295112 1.39148e-20)
(0.0653114 0.00371433 2.15715e-19)
(0.116344 0.00564897 -5.222e-19)
(0.180774 0.00950821 1.26482e-19)
(0.25782 0.0158569 -8.2682e-20)
(0.346231 0.0250731 -1.62538e-20)
(0.444128 0.0372945 -1.58438e-19)
(0.548912 0.0523731 -3.49743e-19)
(0.657284 0.0698525 1.74031e-19)
(-0.00192955 0.00137069 -3.80197e-20)
(0.00939825 0.00111316 -5.20126e-19)
(0.0361852 0.0013316 -4.01417e-19)
(0.077741 0.0022422 -2.55817e-20)
(0.133661 0.00474059 9.1439e-20)
(0.203312 0.00955538 -1.771e-19)
(0.285672 0.0172014 -8.49355e-22)
(0.379167 0.0279774 5.93992e-20)
(0.481527 0.0419072 8.77896e-20)
(0.589726 0.0586977 4.97361e-19)
(0.700073 0.0777285 2.06989e-19)
(0.808467 0.0980925 1.27182e-19)
(0.91081 0.118694 -1.70945e-19)
(-0.000582755 0.000815701 6.74796e-20)
(0.0140954 -0.000196362 2.75738e-19)
(0.0449212 -0.000178709 1.72712e-19)
(0.0910987 0.000986233 -3.17042e-19)
(0.152093 0.00417557 6.82328e-20)
(0.227075 0.0100812 4.16623e-19)
(0.314746 0.0191521 2.28471e-19)
(0.413176 0.0315892 3.05048e-20)
(0.519676 0.0472826 2.80907e-19)
(0.630792 0.0657771 -5.73888e-19)
(0.742468 0.086281 -1.62134e-19)
(0.850391 0.107735 -6.9565e-20)
(0.950462 0.12894 4.13935e-19)
(1.0393 0.148725 -2.75624e-19)
(0.000920248 0.000263738 -6.29326e-20)
(0.0192379 -0.00145662 -3.9057e-20)
(0.0543661 -0.00155155 -1.01004e-19)
(0.105392 -1.60015e-05 3.3282e-19)
(0.171628 0.00399772 2.23229e-19)
(0.252019 0.011131 -7.15971e-20)
(0.344955 0.0217495 -1.279e-20)
(0.448114 0.0359359 2.83211e-19)
(0.558374 0.0534274 -4.32568e-19)
(0.671859 0.0735926 2.65727e-19)
(0.784197 0.095465 2.73453e-19)
(0.890938 0.117844 7.33098e-20)
(0.988083 0.139454 -1.4692e-19)
(1.07258 0.159124 2.15415e-19)
(1.14265 0.175952 1.78287e-19)
(0.00258652 -0.000278879 -9.77706e-20)
(0.0248393 -0.00264877 4.31606e-20)
(0.0645317 -0.00275691 2.84849e-19)
(0.120622 -0.000725552 4.7648e-21)
(0.192245 0.00425123 -4.83243e-19)
(0.278088 0.0127486 -3.32497e-19)
(0.376193 0.0250298 -2.84928e-19)
(0.483824 0.0410385 -1.50154e-19)
(0.597409 0.0603403 5.72708e-19)
(0.712679 0.0821168 -2.54856e-20)
(0.824999 0.105229 7.8358e-20)
(0.929877 0.128353 1.28871e-19)
(1.02351 0.150163 -4.31232e-19)
(1.10326 0.169524 -3.4766e-19)
(1.16789 0.185636 9.33301e-20)
(1.21753 0.198094 -1.81937e-20)
(1.25348 0.206913 -3.7651e-19)
(0.00442253 -0.000805199 1.24383e-19)
(0.0309111 -0.00375257 1.588e-19)
(0.0754258 -0.00376325 -2.94424e-19)
(0.136782 -0.00110245 -1.60421e-20)
(0.213912 0.00498002 5.6748e-19)
(0.305211 0.0149757 3.55947e-19)
(0.408345 0.0290249 -1.43403e-19)
(0.520133 0.0469113 2.1179e-19)
(0.636564 0.068012 -2.27212e-19)
(0.753005 0.0913151 -2.30567e-19)
(0.864636 0.115517 2.36524e-19)
(0.967014 0.139193 -4.79892e-19)
(1.05663 0.161 6.13041e-20)
(1.13133 0.17987 2.34771e-19)
(1.19043 0.19513 -1.29291e-19)
(1.23461 0.206531 1.86775e-19)
(1.26559 0.214232 -2.26569e-19)
(1.28567 0.218554 3.76694e-20)
(0.0064341 -0.00130766 1.45786e-19)
(0.0374624 -0.00474649 -4.8319e-19)
(0.0870511 -0.00453775 7.76436e-20)
(0.153858 -0.00110615 -8.1191e-20)
(0.236587 0.00622722 -1.99965e-19)
(0.333308 0.0178513 -1.60367e-19)
(0.441278 0.0337615 1.44453e-19)
(0.556863 0.0535613 -6.64129e-19)
(0.675619 0.0764252 -1.55977e-19)
(0.792604 0.101146 1.0132e-19)
(0.902893 0.12627 -1.28607e-19)
(1.00219 0.150299 3.72477e-19)
(1.08737 0.171906 2.63217e-19)
(1.1568 0.190119 9.21144e-20)
(1.21038 0.204412 5.13384e-19)
(1.2493 0.214697 -5.10716e-19)
(1.27565 0.221273 3.1623e-19)
(1.29191 0.22458 4.51843e-19)
(1.30067 0.225588 -3.24846e-19)
(1.30397 0.223583 9.15994e-20)
(0.00862621 -0.00177812 1.16204e-20)
(0.0444992 -0.00560786 -5.17643e-21)
(0.0994053 -0.0050466 3.53605e-19)
(0.17183 -0.000695965 -5.09554e-20)
(0.260218 0.00803452 -2.22351e-20)
(0.362285 0.0214106 3.81102e-19)
(0.474853 0.0392608 4.39325e-19)
(0.593826 0.0609886 1.20939e-19)
(0.714358 0.0855557 2.60681e-19)
(0.831257 0.111564 -1.72264e-19)
(0.939582 0.137428 -1.47014e-19)
(1.03528 0.161607 -2.82306e-21)
(1.11568 0.182826 -1.82265e-19)
(1.17973 0.200234 -6.51041e-21)
(1.22788 0.213467 -3.61132e-19)
(1.26179 0.2226 1.43841e-19)
(1.28384 0.228059 3.40453e-19)
(1.29668 0.230388 -1.72686e-19)
(1.30286 0.230555 2.00078e-19)
(1.30437 0.227984 3.64737e-19)
(0.011003 -0.0022079 4.48447e-20)
(0.0520247 -0.00631303 -1.24112e-19)
(0.11248 -0.00525535 -7.31691e-21)
(0.190667 0.000168423 3.49983e-21)
(0.284742 0.0104416 -2.5027e-19)
(0.392036 0.0256848 -3.56057e-20)
(0.508918 0.0455376 -4.53151e-19)
(0.630834 0.069186 4.72691e-19)
(0.752571 0.0953727 2.44861e-19)
(0.868762 0.122518 2.18159e-20)
(0.974546 0.148931 -2.52621e-21)
(1.0662 0.173061 -1.30385e-19)
(1.14158 0.193716 7.7495e-20)
(1.2002 0.210191 2.14174e-19)
(1.24307 0.222292 -3.74658e-19)
(1.27226 0.230253 2.87439e-19)
(1.29039 0.234616 -3.50018e-19)
(1.30017 0.23601 -1.59697e-20)
(1.30411 0.23539 1.75371e-21)
(1.30408 0.232294 1.64348e-19)
(0.0135675 -0.00258784 -9.81409e-20)
(0.0600388 -0.00683757 -1.12262e-19)
(0.126263 -0.00512922 1.60923e-19)
(0.210331 0.00152646 -7.17616e-20)
(0.310087 0.0134854 -2.26154e-20)
(0.422448 0.0307005 -2.2199e-19)
(0.543315 0.0526004 2.49199e-19)
(0.667695 0.0781394 -4.4881e-19)
(0.790056 0.10584 4.13475e-20)
(0.90494 0.133956 6.97353e-20)
(1.00766 0.16072 -3.88883e-20)
(1.0949 0.184607 2.7631e-20)
(1.16509 0.204537 -3.25032e-19)
(1.21833 0.219971 -2.50248e-19)
(1.25613 0.230888 2.11232e-19)
(1.28091 0.237672 -6.87135e-20)
(1.29547 0.24097 -4.16965e-19)
(1.30255 0.241476 -8.09869e-20)
(1.30455 0.240121 -3.56354e-19)
(1.30323 0.236539 -4.45342e-19)
(0.0163218 -0.00290834 -2.3272e-20)
(0.0685378 -0.0071565 1.65839e-19)
(0.140733 -0.00463351 1.20683e-19)
(0.230777 0.00341622 3.54228e-19)
(0.336171 0.0171998 -1.26013e-20)
(0.453396 0.0364791 1.90021e-19)
(0.577884 0.0604516 -4.0425e-19)
(0.704221 0.0878284 1.42906e-19)
(0.826627 0.116916 -1.20308e-19)
(0.939633 0.145824 1.7582e-19)
(1.03882 0.17274 4.35744e-20)
(1.12136 0.196199 1.04361e-19)
(1.18627 0.215261 3.01889e-19)
(1.23422 0.229564 3.80218e-20)
(1.2672 0.239262 -1.91613e-19)
(1.28791 0.244879 3.19747e-19)
(1.29925 0.247148 1.1423e-19)
(1.30396 0.246814 -5.46098e-20)
(1.30431 0.244774 3.34434e-19)
(1.3019 0.240742 2.24137e-19)
(0.0192666 -0.00315947 7.62247e-20)
(0.0775145 -0.00724446 8.6048e-20)
(0.155866 -0.00373398 -2.13454e-19)
(0.251951 0.00587386 -4.90614e-20)
(0.362903 0.0216148 6.34225e-20)
(0.484751 0.0430366 -3.74088e-20)
(0.612458 0.0690867 2.29233e-19)
(0.740233 0.0982269 -7.31222e-20)
(0.86211 0.128558 -9.03996e-20)
(0.972708 0.158068 -3.10582e-19)
(1.06796 0.184939 -2.0027e-19)
(1.14559 0.207797 -1.86657e-19)
(1.20519 0.225864 -1.53729e-19)
(1.24803 0.238966 5.94176e-20)
(1.27646 0.247426 -1.17222e-19)
(1.29343 0.251895 1.42239e-20)
(1.3019 0.253177 2.2714e-19)
(1.30454 0.252051 2.43901e-19)
(1.30347 0.24937 1.81197e-20)
(1.30016 0.24492 1.57148e-19)
(0.0224013 -0.00333102 3.92588e-20)
(0.0869578 -0.00707606 1.46813e-19)
(0.17163 -0.00239725 1.16515e-19)
(0.273791 0.00893317 -1.94308e-19)
(0.390185 0.0267563 1.80562e-19)
(0.516377 0.0503831 -5.88061e-20)
(0.646874 0.0784953 -1.26097e-19)
(0.775554 0.109303 3.0431e-19)
(0.89635 0.140717 -7.70013e-20)
(1.00406 0.170637 -2.85331e-21)
(1.09504 0.197269 2.15019e-19)
(1.16761 0.219366 -1.94941e-19)
(1.22197 0.236331 8.65337e-20)
(1.25988 0.248179 -2.20284e-19)
(1.28406 0.255395 3.75738e-19)
(1.29762 0.258743 -2.87648e-19)
(1.30354 0.259082 -1.7555e-19)
(1.30438 0.257209 -1.89513e-21)
(1.30212 0.253929 -2.64265e-19)
(1.29805 0.249088 -3.17117e-21)
(0.0257242 -0.00341259 -1.76846e-19)
(0.0968526 -0.00662606 -6.52651e-20)
(0.187986 -0.000591224 -2.16948e-19)
(0.296228 0.012625 -1.20379e-19)
(0.417913 0.0326456 -6.21708e-20)
(0.548133 0.058523 -3.00499e-20)
(0.680968 0.0886611 1.39142e-19)
(0.810024 0.121022 -7.64727e-20)
(0.929213 0.153346 -3.76793e-20)
(1.0336 0.183479 9.60086e-20)
(1.12005 0.209688 -1.31673e-19)
(1.18747 0.230879 1.69532e-19)
(1.23669 0.24665 1.64906e-19)
(1.26991 0.257207 3.69594e-20)
(1.29016 0.263186 -1.07046e-19)
(1.30064 0.265445 -2.58508e-20)
(1.30431 0.264885 -1.50808e-19)
(1.3036 0.262308 -6.50631e-20)
(1.30032 0.258464 1.07898e-19)
(1.29564 0.253257 -1.88772e-19)
(0.0292318 -0.0033937 5.8572e-20)
(0.10718 -0.00586971 -9.98393e-20)
(0.204892 0.00171452 1.70177e-19)
(0.319188 0.0169771 7.98249e-20)
(0.445974 0.039299 -1.15616e-19)
(0.579879 0.0674547 1.43535e-19)
(0.714584 0.099562 3.59382e-20)
(0.843491 0.133343 -6.57214e-20)
(0.960581 0.166396 1.7813e-19)
(1.06127 0.196545 5.3649e-20)
(1.14298 0.222157 1.03149e-19)
(1.20525 0.242313 -1.07648e-19)
(1.24947 0.256816 -7.21884e-20)
(1.27827 0.26606 1.55765e-19)
(1.29489 0.270815 -4.49153e-20)
(1.3026 0.272023 2.61693e-19)
(1.3043 0.270607 1.40194e-19)
(1.30227 0.267365 -2.3909e-20)
(1.29814 0.262988 7.91273e-20)
(1.29294 0.257434 3.06753e-19)
(0.0329193 -0.0032639 -2.90183e-20)
(0.117917 -0.00478299 1.63226e-20)
(0.222298 0.00454831 -1.55564e-19)
(0.342587 0.0220131 1.0042e-19)
(0.474254 0.0467277 9.43771e-20)
(0.611472 0.0771711 -1.3549e-19)
(0.74757 0.111171 6.324e-20)
(0.875818 0.146225 -1.24337e-19)
(0.990358 0.179818 -1.78801e-19)
(1.08704 0.209791 6.55655e-20)
(1.16387 0.234643 1.2219e-20)
(1.22103 0.25365 1.04425e-19)
(1.26043 0.266828 7.19456e-20)
(1.28508 0.274746 -4.89133e-20)
(1.29838 0.278301 -1.03794e-20)
(1.30363 0.278495 -3.98006e-20)
(1.3036 0.276265 -2.11096e-19)
(1.30044 0.272394 1.75009e-20)
(1.2956 0.267511 -1.44086e-19)
(1.28998 0.261626 1.2321e-21)
(0.0367803 -0.00301285 -3.26928e-20)
(0.129037 -0.00334295 -4.20073e-20)
(0.240151 0.00793602 1.64531e-19)
(0.366339 0.027753 -2.05078e-20)
(0.502635 0.0549375 8.09562e-22)
(0.642773 0.0876591 -9.22451e-20)
(0.779783 0.123457 -1.62845e-20)
(0.906884 0.159623 6.67218e-20)
(1.01847 0.193563 2.31303e-19)
(1.11087 0.223175 -7.49563e-20)
(1.18275 0.247116 1.32806e-20)
(1.23489 0.264878 4.19366e-20)
(1.26969 0.276686 -8.27659e-20)
(1.29047 0.283278 -5.42121e-20)
(1.30077 0.28566 1.45091e-20)
(1.30382 0.284879 5.22074e-20)
(1.3023 0.281875 1.34912e-19)
(1.29818 0.277406 -3.63061e-21)
(1.29276 0.272039 5.30009e-20)
(1.28679 0.265835 3.70578e-20)
(0.0408071 -0.0026305 5.69754e-20)
(0.14051 -0.00152795 1.17559e-19)
(0.258389 0.0119007 8.15957e-20)
(0.390354 0.0342121 -4.48784e-20)
(0.530996 0.0639288 1.67848e-19)
(0.673643 0.0989004 1.00241e-19)
(0.811088 0.136384 -1.51716e-19)
(0.936582 0.173492 -5.35679e-20)
(1.04485 0.207586 1.17054e-21)
(1.13278 0.236658 -4.55945e-20)
(1.19967 0.259552 -1.33879e-19)
(1.24692 0.275987 2.244e-20)
(1.27736 0.286394 2.71632e-22)
(1.29457 0.291669 -1.46053e-19)
(1.30214 0.292908 6.78437e-20)
(1.30327 0.291192 -3.70024e-20)
(1.30046 0.287449 -1.66339e-19)
(1.29553 0.282409 8.17153e-20)
(1.28962 0.276575 -1.76621e-19)
(1.28338 0.270062 -1.08124e-19)
(0.0449902 -0.00210712 -1.99709e-20)
(0.1523 0.000682025 -5.04456e-20)
(0.27695 0.0164622 -8.48315e-20)
(0.414534 0.0414013 -4.12059e-21)
(0.559216 0.0736967 -7.71252e-21)
(0.703952 0.110872 -9.4942e-20)
(0.841363 0.149913 2.18857e-20)
(0.964821 0.187784 2.0898e-20)
(1.06946 0.221841 -4.38973e-20)
(1.15277 0.250204 3.69419e-21)
(1.2147 0.27193 7.05233e-20)
(1.25722 0.28697 -9.50776e-21)
(1.28356 0.295957 5.54239e-20)
(1.29748 0.299929 2.49576e-20)
(1.30261 0.300058 -1.40187e-19)
(1.30204 0.297444 1.07703e-20)
(1.29813 0.292996 8.81255e-20)
(1.29253 0.287408 -2.15088e-20)
(1.28622 0.281123 4.00081e-21)
(1.27975 0.274307 -1.52343e-20)
(0.0493187 -0.00143349 -1.83461e-20)
(0.164371 0.00330512 -1.80105e-20)
(0.295765 0.0216369 -3.21566e-20)
(0.438784 0.0493264 -2.13589e-20)
(0.587175 0.0842306 -5.59774e-20)
(0.733571 0.123545 6.56729e-20)
(0.870496 0.164004 1.31599e-19)
(0.991526 0.202452 4.65106e-20)
(1.09227 0.236284 2.41276e-20)
(1.17087 0.263782 -5.81351e-20)
(1.22791 0.284232 -5.41924e-22)
(1.26589 0.297822 3.86794e-20)
(1.28839 0.30538 -5.03975e-20)
(1.29931 0.308071 1.96574e-20)
(1.30225 0.307125 6.65928e-20)
(1.3002 0.303648 -2.3471e-20)
(1.29536 0.298523 -4.21513e-20)
(1.28919 0.292407 -3.97437e-20)
(1.28256 0.285682 1.44277e-19)
(1.27591 0.278567 5.16189e-20)
(0.0537803 -0.000600992 -3.29003e-20)
(0.176681 0.00635734 3.99408e-20)
(0.314762 0.0274376 -9.18424e-21)
(0.463002 0.0579887 2.8992e-20)
(0.614755 0.095515 -2.61905e-20)
(0.762381 0.136888 -1.62145e-20)
(0.898387 0.178611 -6.41112e-20)
(1.01664 0.217451 7.74212e-21)
(1.11327 0.250876 1.8713e-20)
(1.18711 0.277362 4.22506e-20)
(1.23937 0.296443 -1.6612e-20)
(1.27303 0.308542 -1.33047e-20)
(1.29195 0.314671 1.23582e-20)
(1.30014 0.316104 -2.21123e-20)
(1.30115 0.314117 5.09828e-20)
(1.29781 0.309811 3.43435e-20)
(1.29217 0.304036 -5.99041e-21)
(1.28555 0.297406 -3.99468e-21)
(1.27867 0.290251 -3.88747e-20)
(1.27187 0.28284 -4.95681e-20)
(0.0583611 0.000398302 7.09841e-21)
(0.189187 0.00985232 -1.25042e-20)
(0.333869 0.0338731 8.57649e-21)
(0.48709 0.0673842 -1.18897e-20)
(0.64184 0.107529 -4.60314e-20)
(0.79027 0.150864 2.15084e-20)
(0.924948 0.19369 1.05124e-20)
(1.0401 0.232733 -5.08389e-20)
(1.13247 0.265577 -3.23912e-20)
(1.20155 0.290919 -3.13944e-21)
(1.24916 0.30855 -4.63422e-20)
(1.27872 0.319128 4.849e-20)
(1.29434 0.323834 -8.86083e-23)
(1.30006 0.324037 -6.64316e-21)
(1.29936 0.321043 -1.28844e-20)
(1.29492 0.315938 6.43569e-21)
(1.28861 0.309536 4.52866e-21)
(1.28161 0.302406 -1.86068e-21)
(1.27454 0.294826 -1.42926e-20)
(1.26763 0.28712 1.77364e-20)
(0.0630462 0.00157149 2.38258e-21)
(0.201843 0.0138011 8.25381e-21)
(0.353008 0.040948 4.6301e-21)
(0.510945 0.077504 -2.17323e-21)
(0.66832 0.120248 3.0416e-20)
(0.817136 0.165434 -6.83964e-21)
(0.950105 0.209194 1.09802e-20)
(1.06189 0.248253 2.46191e-20)
(1.14988 0.28035 -4.49663e-21)
(1.21423 0.304427 1.12866e-21)
(1.25735 0.320543 1.27402e-20)
(1.28306 0.32958 -6.88091e-21)
(1.29564 0.332875 9.07409e-21)
(1.29914 0.331878 1.64561e-21)
(1.29694 0.32791 -1.76357e-20)
(1.29155 0.322034 8.58844e-22)
(1.2847 0.315024 2.35712e-20)
(1.2774 0.307404 -5.02125e-21)
(1.27018 0.299405 7.51964e-21)
(1.26319 0.291401 -8.59683e-21)
(0.0678196 0.00292475 9.85242e-22)
(0.2146 0.0182121 1.22262e-20)
(0.372102 0.0486628 6.63457e-21)
(0.534471 0.0883344 -1.35871e-21)
(0.694089 0.133642 2.82381e-20)
(0.842884 0.180555 -8.04613e-21)
(0.973793 0.225074 1.5234e-20)
(1.08199 0.263967 2.06627e-20)
(1.16551 0.295162 -4.30592e-21)
(1.22521 0.317867 9.79112e-22)
(1.26403 0.332411 1.45291e-20)
(1.28613 0.339896 -5.92815e-21)
(1.29593 0.341798 5.95362e-21)
(1.29745 0.339631 -1.48509e-21)
(1.29394 0.334721 -1.44348e-20)
(1.28775 0.3281 -4.33313e-22)
(1.28045 0.320497 2.34312e-20)
(1.27292 0.312395 -4.68674e-21)
(1.26559 0.30398 8.8975e-21)
(1.25854 0.295679 -9.68798e-21)
(0.072664 0.0044633 8.57994e-21)
(0.227408 0.0230908 -1.57369e-20)
(0.391073 0.0570139 8.0763e-21)
(0.557568 0.0998569 -6.54474e-21)
(0.719046 0.147676 -4.47638e-20)
(0.86743 0.196182 1.8344e-20)
(0.99596 0.241283 8.57404e-21)
(1.10037 0.279832 -5.84554e-20)
(1.1794 0.309979 -2.48358e-20)
(1.23455 0.331217 -1.89394e-23)
(1.26927 0.344146 -3.92152e-20)
(1.28802 0.350076 3.31546e-20)
(1.29528 0.350607 -7.54555e-21)
(1.29504 0.347301 4.80579e-21)
(1.29039 0.341478 -1.90238e-20)
(1.28354 0.334134 1.45877e-20)
(1.27588 0.325954 9.49324e-21)
(1.26818 0.317375 -1.66236e-21)
(1.26078 0.308547 -1.91861e-20)
(1.2537 0.299946 1.78147e-20)
(0.0775608 0.00619123 -1.85901e-20)
(0.240215 0.0284394 -8.49919e-21)
(0.409841 0.065993 -1.24138e-20)
(0.580143 0.112048 4.29839e-20)
(0.743097 0.162313 1.20327e-22)
(0.890698 0.212269 -2.31448e-20)
(1.01656 0.257772 -9.51839e-20)
(1.11704 0.295804 9.23915e-21)
(1.19158 0.32477 1.08753e-20)
(1.24231 0.344459 4.92796e-20)
(1.27315 0.355741 7.3377e-21)
(1.28878 0.360119 -4.24215e-20)
(1.29376 0.359303 4.04099e-20)
(1.29197 0.35489 -1.64661e-20)
(1.28635 0.348182 6.30436e-20)
(1.27894 0.340134 -5.76088e-21)
(1.271 0.331389 3.36746e-21)
(1.26318 0.322337 2.92756e-21)
(1.25574 0.313098 -5.12025e-20)
(1.24865 0.304194 -3.13034e-20)
(0.0824908 0.00811146 -7.1063e-21)
(0.252969 0.0342574 -4.09446e-20)
(0.428328 0.0755879 3.24512e-20)
(0.602105 0.124881 -4.13895e-20)
(0.766155 0.177511 -7.51899e-20)
(0.912624 0.228765 6.60068e-20)
(1.03557 0.274492 1.09452e-19)
(1.13202 0.311844 3.94332e-20)
(1.2021 0.339506 2.76322e-20)
(1.24856 0.357577 -8.00689e-20)
(1.27574 0.367187 6.18323e-20)
(1.28851 0.370023 7.30093e-21)
(1.29143 0.367887 -7.98987e-20)
(1.28827 0.362397 3.14152e-20)
(1.28182 0.354829 1.1336e-19)
(1.27396 0.346097 -7.86211e-20)
(1.26581 0.336795 -2.28055e-20)
(1.25792 0.327275 -2.22917e-20)
(1.25048 0.317625 1.0421e-19)
(1.2434 0.308415 6.03969e-20)
(0.0874343 0.0102257 4.8709e-20)
(0.265616 0.0405408 -8.34707e-20)
(0.446458 0.0857819 -1.21864e-19)
(0.623366 0.138323 5.50465e-21)
(0.78814 0.193226 -2.25329e-20)
(0.93315 0.245621 -9.07706e-20)
(1.05297 0.291395 -1.52104e-20)
(1.1453 0.327911 4.73891e-20)
(1.21099 0.35416 -7.68859e-20)
(1.25337 0.370552 6.33634e-20)
(1.27711 0.378477 7.43804e-20)
(1.28725 0.379786 -4.71339e-20)
(1.28833 0.376358 1.93801e-20)
(1.28398 0.36982 9.96395e-20)
(1.27684 0.361418 -1.34209e-19)
(1.26863 0.352016 2.38747e-20)
(1.26033 0.342166 6.55833e-20)
(1.25241 0.332179 -2.00149e-20)
(1.245 0.32212 -2.15205e-20)
(1.23795 0.312602 -3.66219e-21)
(0.0923708 0.0125343 7.22103e-20)
(0.278104 0.0472825 1.34377e-19)
(0.464156 0.0965544 7.14373e-20)
(0.643843 0.152338 -8.57901e-20)
(0.808979 0.209411 2.24908e-19)
(0.95223 0.262785 3.48385e-20)
(1.06874 0.308434 -9.70011e-20)
(1.15692 0.343967 -7.04421e-20)
(1.21831 0.368703 -5.71226e-20)
(1.25678 0.38337 1.90287e-20)
(1.27732 0.389602 -6.51147e-20)
(1.28507 0.389403 2.22036e-21)
(1.28451 0.384713 -4.50214e-20)
(1.27914 0.377156 -6.19738e-20)
(1.27143 0.367941 -1.06887e-20)
(1.26295 0.357883 -6.74304e-21)
(1.25456 0.347494 -1.21143e-19)
(1.24665 0.337041 9.28021e-20)
(1.2393 0.326573 -1.42505e-19)
(1.23229 0.316744 -8.41735e-20)
(0.0972798 0.0150365 -8.7738e-20)
(0.290379 0.0544723 -3.61583e-20)
(0.481348 0.107881 1.61734e-19)
(0.663461 0.166888 4.11413e-20)
(0.828609 0.226016 -1.41842e-19)
(0.969825 0.280205 -8.29719e-20)
(1.08287 0.32556 -2.80006e-20)
(1.16689 0.359975 1.81234e-19)
(1.22411 0.383111 1.30517e-19)
(1.25886 0.396014 -4.5249e-20)
(1.27643 0.400555 -2.65899e-20)
(1.28201 0.39887 6.71613e-20)
(1.28001 0.392949 -7.40867e-20)
(1.27378 0.3844 3.45433e-20)
(1.26561 0.374392 1.53349e-20)
(1.25693 0.363692 -1.92355e-20)
(1.2485 0.352767 1.47723e-19)
(1.24063 0.341851 -6.30314e-20)
(1.23337 0.330976 1.28808e-19)
(1.22643 0.320833 -4.59998e-20)
(0.10214 0.0177301 -4.95716e-20)
(0.302388 0.0620969 -9.15896e-20)
(0.497965 0.119732 -1.45486e-19)
(0.682146 0.18193 8.83587e-20)
(0.846971 0.242989 4.89052e-20)
(0.985907 0.297827 -7.03702e-20)
(1.09538 0.342727 1.17197e-19)
(1.17526 0.375898 -1.82154e-19)
(1.22843 0.397359 -1.95279e-19)
(1.25968 0.40847 1.18697e-19)
(1.27451 0.411326 4.4711e-20)
(1.27814 0.408181 -5.00448e-20)
(1.27487 0.401058 7.63988e-20)
(1.26791 0.391545 6.0739e-20)
(1.25938 0.380764 -4.49308e-20)
(1.25057 0.369432 -1.5536e-20)
(1.24215 0.357978 -1.12798e-19)
(1.23437 0.346599 2.36093e-20)
(1.22721 0.335317 -9.84664e-20)
(1.22036 0.32486 -1.61785e-20)
(0.106931 0.0206116 4.11727e-20)
(0.314082 0.0701398 -7.22127e-20)
(0.513939 0.132077 1.32072e-19)
(0.699833 0.197418 2.24655e-19)
(0.864017 0.260278 -3.2426e-19)
(1.00045 0.3156 2.87087e-19)
(1.10626 0.359889 7.77881e-20)
(1.18206 0.391701 -1.13598e-19)
(1.23133 0.411421 1.35065e-19)
(1.25928 0.420723 8.05531e-20)
(1.27159 0.421905 1.00626e-19)
(1.27348 0.417328 -1.75404e-19)
(1.26913 0.409034 -3.67002e-20)
(1.26156 0.398583 8.81515e-20)
(1.25276 0.387046 3.38364e-20)
(1.24389 0.375093 1.58044e-19)
(1.23552 0.363114 2.00548e-19)
(1.22785 0.351274 -4.97626e-20)
(1.22083 0.339586 8.81755e-20)
(1.21408 0.328815 1.00067e-19)
(0.111631 0.0236761 -1.21441e-20)
(0.325411 0.0785818 -1.68184e-19)
(0.529208 0.14488 -2.31108e-19)
(0.716462 0.213303 -3.02896e-19)
(0.879704 0.277828 -3.01439e-20)
(1.01345 0.33347 1.1286e-19)
(1.11554 0.377001 -2.14539e-20)
(1.18732 0.407348 3.80616e-20)
(1.23286 0.425275 -5.97211e-20)
(1.25773 0.432755 1.01124e-19)
(1.26774 0.432282 -1.54862e-19)
(1.26808 0.426303 2.03726e-19)
(1.2628 0.416869 1.17809e-19)
(1.25475 0.405504 5.43478e-20)
(1.24577 0.393228 -8.14867e-20)
(1.23689 0.380663 -8.76345e-20)
(1.22861 0.368164 -8.44657e-20)
(1.22108 0.355865 6.32003e-21)
(1.21422 0.343773 1.14855e-19)
(1.2076 0.332689 -1.21315e-19)
(0.116221 0.0269175 -2.15027e-20)
(0.336325 0.0874007 1.30651e-19)
(0.543713 0.158103 1.65306e-19)
(0.731979 0.229536 -2.61268e-20)
(0.893999 0.295583 7.78248e-20)
(1.02489 0.351383 2.13998e-20)
(1.12323 0.394017 -1.15145e-19)
(1.19108 0.422808 9.19924e-20)
(1.23307 0.438898 8.68865e-20)
(1.25507 0.444553 -1.51971e-19)
(1.263 0.442445 2.46699e-19)
(1.26198 0.435096 -2.06831e-19)
(1.25591 0.424553 1.20267e-19)
(1.24749 0.412298 -1.76523e-19)
(1.2384 0.399298 2.61942e-19)
(1.22957 0.386131 -1.67169e-19)
(1.22142 0.373117 -4.93349e-20)
(1.21407 0.36036 -6.71177e-20)
(1.20739 0.347866 -1.43427e-19)
(1.20091 0.336471 2.24125e-21)
(0.120679 0.0303285 1.53849e-19)
(0.346781 0.0965717 1.64078e-19)
(0.557399 0.171705 -2.38064e-19)
(0.746337 0.246063 -1.45993e-19)
(0.906873 0.313486 2.17044e-19)
(1.03477 0.369288 -8.68764e-20)
(1.12936 0.410895 1.28453e-19)
(1.1934 0.438046 5.56493e-20)
(1.23201 0.452265 -1.30156e-19)
(1.25135 0.456099 -3.24933e-19)
(1.25741 0.452383 -5.80355e-20)
(1.25521 0.443696 -1.23208e-19)
(1.24849 0.432074 -1.83896e-19)
(1.2398 0.418952 1.50043e-20)
(1.23067 0.405245 -1.91257e-20)
(1.22193 0.391483 -1.88174e-20)
(1.21396 0.377959 1.54455e-19)
(1.2068 0.364747 1.12529e-19)
(1.20034 0.351852 1.24181e-20)
(1.19403 0.340154 6.67625e-20)
(0.124986 0.0339004 -3.71605e-20)
(0.356734 0.106067 2.92043e-19)
(0.570217 0.185641 1.13569e-19)
(0.759495 0.262831 2.32526e-19)
(0.918307 0.331482 7.63205e-20)
(1.04309 0.387132 2.93167e-20)
(1.13395 0.427592 -1.87207e-19)
(1.1943 0.453031 -6.0708e-20)
(1.22973 0.465354 2.9976e-20)
(1.24663 0.467377 2.41625e-19)
(1.25101 0.462082 -7.95624e-20)
(1.24779 0.452092 9.90159e-20)
(1.24056 0.439421 2.1144e-19)
(1.23169 0.425455 4.85165e-20)
(1.22258 0.411055 -4.25838e-20)
(1.21398 0.396708 5.79474e-20)
(1.20621 0.382678 1.11324e-19)
(1.19929 0.369011 5.16081e-20)
(1.19306 0.355718 1.32819e-19)
(1.18695 0.34373 1.01979e-19)
(0.129124 0.0376235 -9.73556e-20)
(0.366144 0.115859 -1.49465e-19)
(0.58212 0.199867 9.56283e-20)
(0.771417 0.279784 3.24821e-20)
(0.928287 0.349512 6.5004e-20)
(1.04988 0.404863 -2.65764e-19)
(1.13704 0.444065 9.71476e-20)
(1.19384 0.467732 -2.11089e-19)
(1.22628 0.478142 -1.18144e-19)
(1.24095 0.478371 1.38339e-19)
(1.24384 0.471529 -1.48074e-20)
(1.23977 0.46027 9.16199e-21)
(1.23214 0.446581 -2.57449e-19)
(1.22317 0.431793 -1.04647e-19)
(1.21414 0.416714 8.73014e-20)
(1.20573 0.401792 -1.53542e-19)
(1.19819 0.387261 -8.30916e-20)
(1.19152 0.373141 -8.42827e-20)
(1.18556 0.359449 -1.48966e-19)
(1.17963 0.347186 -3.45815e-19)
(0.133073 0.0414868 5.65985e-20)
(0.374973 0.125913 -7.06037e-20)
(0.593068 0.214334 -3.88224e-19)
(0.782076 0.296865 2.1084e-19)
(0.936804 0.36752 -2.63769e-19)
(1.05513 0.422432 -3.79317e-20)
(1.13866 0.460274 -3.67204e-19)
(1.19206 0.482116 3.93228e-19)
(1.22171 0.490607 2.25742e-19)
(1.23435 0.489062 -1.33313e-20)
(1.23594 0.480709 8.18016e-20)
(1.23115 0.468218 -1.03932e-19)
(1.22324 0.45354 -8.51046e-21)
(1.21425 0.437953 4.88042e-20)
(1.20536 0.422209 -5.10587e-20)
(1.19717 0.406721 9.70048e-20)
(1.18989 0.391697 -1.30146e-19)
(1.18351 0.377128 -1.17391e-19)
(1.17781 0.363047 6.72513e-20)
(1.17202 0.350482 9.20932e-20)
(0.136818 0.0454785 1.29854e-19)
(0.383187 0.136198 1.31049e-19)
(0.603026 0.228994 1.01693e-19)
(0.791448 0.314017 -2.39399e-21)
(0.943857 0.385449 -6.88772e-20)
(1.05888 0.439787 4.67449e-19)
(1.13885 0.476179 2.66543e-19)
(1.189 0.496155 1.82292e-19)
(1.21606 0.502726 2.60282e-19)
(1.22687 0.499435 3.2441e-20)
(1.22733 0.489606 -2.19458e-19)
(1.22197 0.47592 -2.39345e-20)
(1.21387 0.460284 -4.84798e-20)
(1.20494 0.443918 -1.58851e-19)
(1.19625 0.427526 -6.00441e-20)
(1.18831 0.411481 -8.49482e-20)
(1.18133 0.395971 2.67394e-19)
(1.17525 0.380968 -3.54917e-21)
(1.16984 0.36654 7.7051e-20)
(1.16427 0.353579 6.18866e-20)
(0.140341 0.0495856 -4.35186e-20)
(0.390753 0.146677 -7.6307e-20)
(0.611963 0.243794 -1.67033e-19)
(0.799516 0.331183 -2.81839e-20)
(0.94945 0.403243 -2.82122e-19)
(1.06115 0.45688 -2.03312e-19)
(1.13765 0.49174 6.81137e-20)
(1.18472 0.509818 -4.98075e-19)
(1.20938 0.514477 -2.71511e-19)
(1.21855 0.50947 6.6536e-20)
(1.21805 0.498206 -3.4936e-20)
(1.21225 0.483361 2.00593e-19)
(1.20407 0.466797 2.75258e-19)
(1.19526 0.449675 7.00714e-20)
(1.1868 0.432649 1.91682e-19)
(1.17916 0.416058 -1.01475e-19)
(1.17249 0.400069 1.41019e-19)
(1.16676 0.384639 7.94169e-20)
(1.16167 0.369867 6.96764e-20)
(1.15642 0.356579 -1.33901e-19)
(0.143627 0.0537943 6.57924e-20)
(0.397644 0.157314 -8.30011e-21)
(0.619854 0.258685 -2.59674e-19)
(0.80627 0.348304 -1.71105e-22)
(0.953591 0.420845 6.34854e-19)
(1.06196 0.473662 1.28332e-19)
(1.13509 0.506919 9.76702e-20)
(1.17925 0.523076 2.88902e-19)
(1.20171 0.525837 -2.35346e-19)
(1.20943 0.519149 -2.5427e-19)
(1.20812 0.50649 -2.92557e-21)
(1.20201 0.490526 -1.82927e-19)
(1.19383 0.473064 -1.02434e-19)
(1.18521 0.455208 2.77762e-19)
(1.17704 0.437563 -7.36223e-20)
(1.16972 0.420438 5.1092e-21)
(1.1634 0.403978 -1.02438e-19)
(1.15803 0.388129 -1.5707e-19)
(1.15329 0.373014 9.70488e-21)
(1.14836 0.359417 1.52405e-19)
(0.146663 0.0580901 -3.16949e-19)
(0.403835 0.168072 1.98896e-19)
(0.626679 0.273612 4.46905e-19)
(0.811705 0.365324 1.41659e-19)
(0.956295 0.438202 -7.49609e-19)
(1.06134 0.490087 -3.1218e-19)
(1.13123 0.521679 -2.46633e-19)
(1.17265 0.535901 -9.06295e-20)
(1.1931 0.536784 3.09312e-19)
(1.19954 0.528454 3.34396e-20)
(1.19759 0.514444 -6.61297e-20)
(1.19127 0.497398 1.21279e-19)
(1.18317 0.479069 1.79514e-20)
(1.1748 0.460501 -3.31861e-19)
(1.16695 0.442254 1.00619e-19)
(1.16 0.424607 1.35104e-19)
(1.15405 0.407685 6.55024e-20)
(1.14907 0.391425 9.01874e-20)
(1.1447 0.375973 -1.60207e-19)
(1.14011 0.362079 -7.89661e-20)
(0.149437 0.0624576 -2.18013e-20)
(0.409304 0.17891 1.00655e-19)
(0.632421 0.288524 5.10184e-20)
(0.815819 0.382184 1.51825e-19)
(0.957579 0.455259 4.19001e-19)
(1.05934 0.506109 -2.75817e-19)
(1.12609 0.535983 -1.72201e-20)
(1.16496 0.548264 2.69638e-19)
(1.18359 0.547296 -3.29812e-19)
(1.18893 0.537366 1.08345e-19)
(1.18646 0.522049 2.81245e-19)
(1.18004 0.50396 6.46099e-20)
(1.17211 0.484795 -1.41232e-19)
(1.16405 0.465538 2.39097e-19)
(1.15656 0.446706 -2.80768e-19)
(1.15 0.428548 8.83185e-21)
(1.14445 0.411176 -6.68656e-20)
(1.13987 0.394513 1.18636e-19)
(1.13591 0.378735 1.06196e-19)
(1.13167 0.364553 9.55878e-20)
(0.151936 0.066881 4.1197e-20)
(0.414035 0.18979 1.61537e-19)
(0.63707 0.303367 1.61182e-19)
(0.818618 0.398827 -1.0241e-19)
(0.957467 0.471963 9.18108e-21)
(1.05598 0.521684 2.56284e-19)
(1.11974 0.549798 4.58484e-19)
(1.15622 0.560139 -4.70577e-20)
(1.17321 0.557352 4.48279e-20)
(1.17762 0.545866 -1.35207e-19)
(1.17477 0.529288 -2.88236e-19)
(1.16836 0.510197 4.67789e-20)
(1.16067 0.490226 1.65514e-19)
(1.15295 0.470304 -3.39925e-20)
(1.14587 0.450904 -2.73682e-20)
(1.13972 0.43225 -1.12622e-19)
(1.1346 0.414437 -1.96566e-20)
(1.13046 0.397383 -4.56658e-20)
(1.12691 0.381288 -3.78071e-20)
(1.12306 0.366831 -8.97033e-20)
(0.15415 0.0713438 -1.42933e-19)