/*--------------------------------*- C++ -*----------------------------------*\
  =========                 |
  \\      /  F ield         | OpenFOAM: The Open Source CFD Toolbox
   \\    /   O peration     | Website:  https://openfoam.org
    \\  /    A nd           | Version:  7
     \\/     M anipulation  |
\*---------------------------------------------------------------------------*/
FoamFile
{
    version     2.0;
    format      ascii;
    class       surfaceScalarField;
    location    "70";
    object      phi;
}
// * * * * * * * * * * * * * * * * * * * * * * * * * * * * * * * * * * * * * //

dimensions      [0 3 -1 0 0 0 0];

internalField   nonuniform List<scalar> 
42332
(
-4.89897e-07
1.06543e-05
-1.01644e-05
-1.87704e-06
3.01888e-05
-2.88016e-05
-4.11159e-06
4.85784e-05
-4.63438e-05
-7.14264e-06
6.57475e-05
-6.27165e-05
-1.09179e-05
8.16472e-05
-7.7872e-05
-1.53837e-05
9.62643e-05
-9.17984e-05
-2.04857e-05
0.000109621
-0.000104519
-2.61689e-05
0.000121777
-0.000116093
-3.23791e-05
0.000132825
-0.000126615
-3.90632e-05
0.000142892
-0.000136208
-4.61707e-05
0.000152129
-0.000145021
-5.3655e-05
0.000160706
-0.000153221
-6.14742e-05
0.000168804
-0.000160984
-6.95933e-05
0.000176606
-0.000168487
-7.79849e-05
0.000184292
-0.0001759
-8.66309e-05
0.000192026
-0.00018338
-9.55239e-05
0.00019996
-0.000191067
-0.000104668
0.000208221
-0.000199076
-0.000114081
0.000216915
-0.000207502
-0.000123793
0.000226124
-0.000216413
-0.000133848
0.000235907
-0.000225852
-0.000144304
0.000246298
-0.000235842
-0.000155232
0.000257304
-0.000246376
-0.000166713
0.000268905
-0.000257424
0.000281056
-0.000268921
-0.000178847
-4.6094e-07
1.11153e-05
-1.77095e-06
3.14988e-05
-3.88718e-06
5.06946e-05
-6.76504e-06
6.86254e-05
-1.03578e-05
8.524e-05
-1.46167e-05
0.000100523
-1.94912e-05
0.000114496
-2.49299e-05
0.000127215
-3.08806e-05
0.000138776
-3.72921e-05
0.000149303
-4.41146e-05
0.000158951
-5.13016e-05
0.000167893
-5.88106e-05
0.000176313
-6.66052e-05
0.000184401
-7.4656e-05
0.000192343
-8.29425e-05
0.000200313
-9.1454e-05
0.000208471
-0.000100191
0.000216958
-0.000109168
0.000225891
-0.000118411
0.000235367
-0.000127959
0.000245456
-0.000137869
0.000256207
-0.000148208
0.000267643
-0.000159055
0.000279753
0.000292511
-0.000170511
-4.31086e-07
1.15464e-05
-1.66133e-06
3.2729e-05
-3.65485e-06
5.26881e-05
-6.3733e-06
7.13438e-05
-9.77544e-06
8.86421e-05
-1.38173e-05
0.000104565
-1.84523e-05
0.000119131
-2.36319e-05
0.000132395
-2.93065e-05
0.00014445
-3.54262e-05
0.000155423
-4.19418e-05
0.000165467
-4.88065e-05
0.000174757
-5.5977e-05
0.000183483
-6.34149e-05
0.000191839
-7.10884e-05
0.000200016
-7.89736e-05
0.000208198
-8.70564e-05
0.000216554
-9.53333e-05
0.000225235
-0.000103813
0.000234371
-0.000112517
0.000244071
-0.000121482
0.000254421
-0.000130758
0.000265483
-0.000140409
0.000277294
-0.000150514
0.000289857
0.000303168
-0.00016117
-4.0049e-07
1.19468e-05
-1.54874e-06
3.38773e-05
-3.41574e-06
5.45551e-05
-5.96927e-06
7.38974e-05
-9.17351e-06
9.18464e-05
-1.29891e-05
0.000108381
-1.73732e-05
0.000123515
-2.22804e-05
0.000137302
-2.76631e-05
0.000149833
-3.34726e-05
0.000161232
-3.96603e-05
0.000171654
-4.61787e-05
0.000181276
-5.29831e-05
0.000190288
-6.0033e-05
0.000198889
-6.72936e-05
0.000207277
-7.47372e-05
0.000215642
-8.23451e-05
0.000224162
-9.01089e-05
0.000232999
-9.8032e-05
0.000242294
-0.000106131
0.00025217
-0.000114435
0.000262725
-0.000122991
0.000274039
-0.000131858
0.000286162
-0.000141112
0.000299111
0.000312904
-0.000150848
-3.6932e-07
1.23162e-05
-1.43377e-06
3.49417e-05
-3.17106e-06
5.62924e-05
-5.55495e-06
7.62813e-05
-8.55486e-06
9.48463e-05
-1.21358e-05
0.000111962
-1.62588e-05
0.000127638
-2.08812e-05
0.000141924
-2.59572e-05
0.000154909
-3.14392e-05
0.000166714
-3.72789e-05
0.000177494
-4.34279e-05
0.000187425
-4.98399e-05
0.0001967
-5.64717e-05
0.000205521
-6.32849e-05
0.00021409
-7.02475e-05
0.000222605
-7.73359e-05
0.00023125
-8.45357e-05
0.000240199
-9.18441e-05
0.000249603
-9.92711e-05
0.000259597
-0.000106841
0.000270295
-0.000114592
0.00028179
-0.000122582
0.000294151
-0.000130879
0.000307409
0.000321603
-0.000139578
-3.37748e-07
1.26539e-05
-1.31704e-06
3.5921e-05
-2.92209e-06
5.78975e-05
-5.13243e-06
7.84916e-05
-7.92251e-06
9.76364e-05
-1.12617e-05
0.000115301
-1.51143e-05
0.00013149
-1.94404e-05
0.00014625
-2.4196e-05
0.000159665
-2.93345e-05
0.000171853
-3.48072e-05
0.000182967
-4.0565e-05
0.000193183
-4.65594e-05
0.000202694
-5.27441e-05
0.000211705
-5.90769e-05
0.000220423
-6.55209e-05
0.000229049
-7.20465e-05
0.000237776
-7.86331e-05
0.000246785
-8.52709e-05
0.00025624
-9.19625e-05
0.000266288
-9.87248e-05
0.000277057
-0.000105591
0.000288656
-0.00011261
0.00030117
-0.000119848
0.000314647
0.000329151
-0.000127396
-3.05957e-07
1.29599e-05
-1.19919e-06
3.68142e-05
-2.67017e-06
5.93685e-05
-4.70391e-06
8.05254e-05
-7.27966e-06
0.000100212
-1.03708e-05
0.000118392
-1.3945e-05
0.000135065
-1.79646e-05
0.00015027
-2.23874e-05
0.000164087
-2.71674e-05
0.000176633
-3.22556e-05
0.000188055
-3.76016e-05
0.000198528
-4.31545e-05
0.000208247
-4.88649e-05
0.000217416
-5.46859e-05
0.000226244
-6.05752e-05
0.000234938
-6.64969e-05
0.000243698
-7.24232e-05
0.000252712
-7.83364e-05
0.000262154
-8.42313e-05
0.000272183
-9.01166e-05
0.000282943
-9.60176e-05
0.000294557
-0.000101978
0.00030713
-0.000108059
0.000320728
0.000335439
-0.000114347
-2.74134e-07
1.3234e-05
-1.0809e-06
3.7621e-05
-2.41668e-06
6.07042e-05
-4.27167e-06
8.23803e-05
-6.62962e-06
0.00010257
-9.46767e-06
0.00012123
-1.27565e-05
0.000138353
-1.64608e-05
0.000153974
-2.05397e-05
0.000168166
-2.49476e-05
0.000181041
-2.96351e-05
0.000192743
-3.45501e-05
0.000203444
-3.96394e-05
0.000213336
-4.48496e-05
0.000222626
-5.01291e-05
0.000231523
-5.54297e-05
0.000240238
-6.07084e-05
0.000248976
-6.59296e-05
0.000257933
-7.10672e-05
0.000267291
-7.61067e-05
0.000277223
-8.10484e-05
0.000287884
-8.59091e-05
0.000299418
-9.07255e-05
0.000311947
-9.5554e-05
0.000325556
0.000340363
-0.000100478
-2.4247e-07
1.34765e-05
-9.62854e-07
3.83414e-05
-2.16304e-06
6.19044e-05
-3.83808e-06
8.40554e-05
-5.97584e-06
0.000104708
-8.55697e-06
0.000123811
-1.15549e-05
0.000141351
-1.49363e-05
0.000157356
-1.86615e-05
0.000171892
-2.26851e-05
0.000185064
-2.69571e-05
0.000197015
-3.14238e-05
0.00020791
-3.60288e-05
0.000217941
-4.07149e-05
0.000227312
-4.54253e-05
0.000236233
-5.01052e-05
0.000244918
-5.47043e-05
0.000253576
-5.91783e-05
0.000262407
-6.34918e-05
0.000271605
-6.76207e-05
0.000281352
-7.15554e-05
0.000291819
-7.5304e-05
0.000303166
-7.88957e-05
0.000315538
-8.23818e-05
0.000329042
0.000343823
-8.58422e-05
-2.11161e-07
1.36876e-05
-8.45748e-07
3.8976e-05
-1.91073e-06
6.29694e-05
-3.40555e-06
8.55502e-05
-5.32186e-06
0.000106624
-7.64344e-06
0.000126133
-1.03462e-05
0.000144054
-1.33986e-05
0.000160408
-1.67617e-05
0.000175255
-2.03905e-05
0.000188693
-2.4234e-05
0.000200858
-2.82363e-05
0.000211913
-3.23384e-05
0.000222043
-3.64784e-05
0.000231452
-4.0594e-05
0.000240349
-4.46238e-05
0.000248948
-4.85091e-05
0.000257461
-5.21966e-05
0.000266094
-5.56407e-05
0.000275049
-5.88069e-05
0.000284518
-6.16751e-05
0.000294687
-6.42438e-05
0.000305735
-6.65343e-05
0.000317829
-6.85932e-05
0.000331101
0.000345727
-7.04971e-05
-1.80402e-07
1.3868e-05
-7.30291e-07
3.95259e-05
-1.66121e-06
6.39003e-05
-2.97654e-06
8.68655e-05
-4.67128e-06
0.000108319
-6.73197e-06
0.000128193
-9.13667e-06
0.000146459
-1.18552e-05
0.000163127
-1.48497e-05
0.000178249
-1.80746e-05
0.000191918
-2.1478e-05
0.000204261
-2.50021e-05
0.000215437
-2.85842e-05
0.000225625
-3.21582e-05
0.000235026
-3.56558e-05
0.000243847
-3.90083e-05
0.000252301
-4.21485e-05
0.000260601
-4.50132e-05
0.000268959
-4.7546e-05
0.000277582
-4.97011e-05
0.000286673
-5.14471e-05
0.000296433
-5.27721e-05
0.00030706
-5.36895e-05
0.000318746
-5.42415e-05
0.000331653
0.000345987
-5.45015e-05
-1.50391e-07
1.40184e-05
-6.17193e-07
3.99927e-05
-1.41597e-06
6.46991e-05
-2.55351e-06
8.80031e-05
-4.02772e-06
0.000109793
-5.82747e-06
0.000129993
-7.93262e-06
0.000148564
-1.03142e-05
0.000165508
-1.29347e-05
0.00018087
-1.57484e-05
0.000194732
-1.87021e-05
0.000207215
-2.17356e-05
0.00021847
-2.47829e-05
0.000228673
-2.7773e-05
0.000238016
-3.06316e-05
0.000246705
-3.32823e-05
0.000254951
-3.56488e-05
0.000262968
-3.76576e-05
0.000270968
-3.92408e-05
0.000279165
-4.03402e-05
0.000287772
-4.09123e-05
0.000297005
-4.09344e-05
0.000307082
-4.04115e-05
0.000318224
-3.93822e-05
0.000330624
0.000344521
-3.79161e-05
-1.21321e-07
1.41398e-05
-5.07159e-07
4.03785e-05
-1.17649e-06
6.53684e-05
-2.13895e-06
8.89655e-05
-3.39482e-06
0.000111049
-4.93488e-06
0.000131533
-6.74041e-06
0.00015037
-8.78333e-06
0.000167551
-1.10263e-05
0.000183113
-1.34231e-05
0.000197129
-1.59191e-05
0.000209711
-1.84517e-05
0.000221003
-2.09512e-05
0.000231172
-2.33418e-05
0.000240407
-2.55427e-05
0.000248906
-2.74697e-05
0.000256878
-2.9037e-05
0.000264535
-3.016e-05
0.000272091
-3.07586e-05
0.000279763
-3.07614e-05
0.000287775
-3.01122e-05
0.000296356
-2.87764e-05
0.000305746
-2.67508e-05
0.000316198
-2.4073e-05
0.000327946
0.000341251
-2.08029e-05
-9.33849e-08
1.42331e-05
-4.0088e-07
4.0686e-05
-9.44214e-07
6.59118e-05
-1.73527e-06
8.97566e-05
-2.77615e-06
0.00011209
-4.05907e-06
0.000132816
-5.56634e-06
0.000151877
-7.27037e-06
0.000169255
-9.13381e-06
0.000184976
-1.11097e-05
0.000199105
-1.31418e-05
0.000211743
-1.51649e-05
0.000223026
-1.71057e-05
0.000233113
-1.88833e-05
0.000242184
-2.04103e-05
0.000250433
-2.15943e-05
0.000258062
-2.23397e-05
0.00026528
-2.25503e-05
0.000272301
-2.21328e-05
0.000279346
-2.10022e-05
0.000286645
-1.90881e-05
0.000294442
-1.63436e-05
0.000303002
-1.27557e-05
0.00031261
-8.36375e-06
0.000323554
0.00033619
-3.30263e-06
-6.67681e-08
1.42999e-05
-2.99032e-07
4.09183e-05
-7.20565e-07
6.63333e-05
-1.34484e-06
9.03808e-05
-2.17522e-06
0.00011292
-3.20483e-06
0.000133846
-4.41656e-06
0.000153089
-5.783e-06
0.000170622
-7.26646e-06
0.00018646
-8.81904e-06
0.000200657
-1.03827e-05
0.000213307
-1.18897e-05
0.000224533
-1.32628e-05
0.000234486
-1.4416e-05
0.000243337
-1.52551e-05
0.000251272
-1.56794e-05
0.000258487
-1.5583e-05
0.000265184
-1.48576e-05
0.000271576
-1.33963e-05
0.000277885
-1.10989e-05
0.000284347
-7.8802e-06
0.000291223
-3.68021e-06
0.000298802
1.52264e-06
0.000307407
7.70538e-06
0.000317371
0.000329168
1.47266e-05
-4.16506e-08
1.43416e-05
-2.02261e-07
4.10789e-05
-5.06904e-07
6.66379e-05
-9.69955e-07
9.08439e-05
-1.59541e-06
0.000113546
-2.37676e-06
0.000134627
-3.29703e-06
0.000154009
-4.3286e-06
0.000171653
-5.43316e-06
0.000187564
-6.56163e-06
0.000201786
-7.65411e-06
0.000214399
-8.64002e-06
0.000225519
-9.43822e-06
0.000235284
-9.95744e-06
0.000243857
-1.00968e-05
0.000251412
-9.74704e-06
0.000258137
-8.79162e-06
0.000264229
-7.10969e-06
0.000269894
-4.57981e-06
0.000275355
-1.08598e-06
0.000280853
3.47338e-06
0.000286664
9.17279e-06
0.000293102
1.60427e-05
0.000300537
2.40464e-05
0.000309368
0.000320144
3.30704e-05
-1.82161e-08
1.43598e-05
-1.11182e-07
4.11718e-05
-3.04524e-07
6.68313e-05
-6.12778e-07
9.11522e-05
-1.03991e-06
0.000113973
-1.57924e-06
0.000135166
-2.2134e-06
0.000154643
-2.91419e-06
0.000172354
-3.64235e-06
0.000188292
-4.34739e-06
0.000202491
-4.96737e-06
0.000215019
-5.42879e-06
0.00022598
-5.64657e-06
0.000235502
-5.52418e-06
0.000243734
-4.95394e-06
0.000250841
-3.81776e-06
0.000257001
-1.98844e-06
0.000262399
6.67963e-07
0.000267238
4.28814e-06
0.000271735
9.0051e-06
0.000276136
1.49381e-05
0.000280731
2.21775e-05
0.000285863
3.07634e-05
0.000291952
4.06593e-05
0.000299472
0.000309078
5.1726e-05
3.43759e-09
1.43563e-05
-2.63666e-08
4.12016e-05
-1.14633e-07
6.69195e-05
-2.75332e-07
9.13129e-05
-5.11729e-07
0.000114209
-8.16351e-07
0.000135471
-1.17095e-06
0.000154998
-1.54631e-06
0.000172729
-1.90189e-06
0.000188648
-2.18553e-06
0.000202774
-2.33306e-06
0.000215167
-2.26801e-06
0.000225915
-1.90129e-06
0.000235135
-1.13107e-06
0.000242964
1.57176e-07
0.000249553
2.09026e-06
0.000255068
4.80641e-06
0.000259683
8.45304e-06
0.000263591
1.31829e-05
0.000267005
1.91471e-05
0.000270172
2.64842e-05
0.000273394
3.53023e-05
0.000277045
4.5653e-05
0.000281601
5.74978e-05
0.000287627
0.000295906
7.06692e-05
2.3113e-08
1.43332e-05
5.16608e-08
4.11731e-05
6.16712e-08
6.69095e-05
4.05406e-08
9.1334e-05
-1.35776e-08
0.000114263
-9.18057e-08
0.000135549
-1.7447e-07
0.00015508
-2.30865e-07
0.000172786
-2.18833e-07
0.000188636
-8.4272e-08
0.00020264
2.39394e-07
0.000214843
8.31757e-07
0.000225323
1.78594e-06
0.000234181
3.20905e-06
0.000241541
5.22244e-06
0.00024754
7.96178e-06
0.000252328
1.15764e-05
0.000256068
1.62275e-05
0.00025894
2.20846e-05
0.000261148
2.93184e-05
0.000262939
3.80883e-05
0.000264624
4.85225e-05
0.000266611
6.06862e-05
0.000269437
7.45386e-05
0.000273775
0.000280566
8.98787e-05
4.06614e-08
1.42926e-05
1.22435e-07
4.10913e-05
2.2341e-07
6.68086e-05
3.33197e-07
9.12242e-05
4.52108e-07
0.000114144
5.91103e-07
0.00013541
7.7183e-07
0.000154899
1.02695e-06
0.000172531
1.40064e-06
0.000188262
1.94925e-06
0.000202091
2.74197e-06
0.00021405
3.86165e-06
0.000224203
5.4055e-06
0.000232637
7.4859e-06
0.00023946
1.0231e-05
0.000244795
1.37853e-05
0.000248774
1.83093e-05
0.000251544
2.39785e-05
0.000253271
3.09797e-05
0.000254146
3.95043e-05
0.000254414
4.97351e-05
0.000254393
6.18228e-05
0.000254523
7.58489e-05
0.000255411
9.1771e-05
0.000257852
0.000262987
0.00010935
5.60114e-08
1.42365e-05
1.85551e-07
4.09618e-05
3.69743e-07
6.66244e-05
6.01247e-07
9.09927e-05
8.833e-07
0.000113862
1.22961e-06
0.000135064
1.66441e-06
0.000154465
2.22282e-06
0.000171972
2.95147e-06
0.000187533
3.90928e-06
0.000201133
5.16833e-06
0.000212791
6.81486e-06
0.000222557
8.95027e-06
0.000230502
1.16922e-05
0.000236719
1.51757e-05
0.000241311
1.95539e-05
0.000244396
2.49986e-05
0.0002461
3.16996e-05
0.00024657
3.9862e-05
0.000245984
4.96993e-05
0.000244577
6.14195e-05
0.000242673
7.51994e-05
0.000240743
9.114e-05
0.00023947
0.0001092
0.000239793
0.00024309
0.000129097
6.90609e-08
1.41675e-05
2.40686e-07
4.07902e-05
4.99994e-07
6.63651e-05
8.43568e-07
9.06491e-05
1.27836e-06
0.000113428
1.82153e-06
0.000134521
2.50051e-06
0.000153786
3.35344e-06
0.000171119
4.42986e-06
0.000186457
5.79164e-06
0.000199772
7.51405e-06
0.000211069
9.68694e-06
0.000220384
1.2416e-05
0.000227773
1.58243e-05
0.00023331
2.00536e-05
0.000237082
2.52657e-05
0.000239184
3.16438e-05
0.000239722
3.93922e-05
0.000238821
4.87347e-05
0.000236641
5.99082e-05
0.000233403
7.31485e-05
0.000229433
8.86622e-05
0.000225229
0.000106575
0.000221558
0.000126848
0.000219519
0.000220784
0.000149154
7.97377e-08
1.40878e-05
2.87593e-07
4.05823e-05
6.13665e-07
6.6039e-05
1.05935e-06
9.02034e-05
1.63612e-06
0.000112851
2.36532e-06
0.000133791
3.27825e-06
0.000152873
4.41664e-06
0.000169981
5.83344e-06
0.00018504
7.59392e-06
0.000198011
9.77691e-06
0.000208886
1.24761e-05
0.000217684
1.58019e-05
0.000224447
1.98826e-05
0.00022923
2.48668e-05
0.000232098
3.09252e-05
0.000233125
3.8252e-05
0.000232395
4.70665e-05
0.000230007
5.76115e-05
0.000226096
7.01487e-05
0.000220866
8.49439e-05
0.000214638
0.000102238
0.000207935
0.000122186
0.00020161
0.000144759
0.000196947
0.00019596
0.000169582
8.79946e-08
1.39998e-05
3.26119e-07
4.03442e-05
7.10455e-07
6.56547e-05
1.24812e-06
8.96658e-05
1.95593e-06
0.000112143
2.86019e-06
0.000132887
3.99674e-06
0.000151736
5.4115e-06
0.000168566
7.16144e-06
0.00018329
9.31572e-06
0.000195857
1.19572e-05
0.000206245
1.51838e-05
0.000214458
1.91106e-05
0.00022052
2.38719e-05
0.000224468
2.96231e-05
0.000226347
3.65435e-05
0.000226205
4.48388e-05
0.0002241
5.47429e-05
0.000220103
6.65184e-05
0.000214321
8.04525e-05
0.000206932
9.68438e-05
0.000198246
0.000115972
0.000188808
0.000138028
0.000179554
0.000163
0.000171975
0.000168495
0.000190465
9.38113e-08
1.39059e-05
3.56211e-07
4.00818e-05
7.90282e-07
6.52206e-05
1.40979e-06
8.90463e-05
2.23774e-06
0.000111315
3.30616e-06
0.000131819
4.65615e-06
0.000150386
6.33853e-06
0.000166884
8.41488e-06
0.000181214
1.09589e-05
0.000193313
1.40578e-05
0.000203146
1.78144e-05
0.000210701
2.23492e-05
0.000215985
2.78022e-05
0.000219015
3.43362e-05
0.000219813
4.21394e-05
0.000218402
5.14288e-05
0.00021481
6.24531e-05
0.000209078
7.54949e-05
0.000201279
9.08678e-05
0.000191559
0.000108906
0.000180209
0.00012993
0.000167783
0.00015418
0.000155304
0.000181665
0.00014449
0.000138239
0.00021192
9.71961e-08
1.38087e-05
3.77927e-07
3.9801e-05
8.53307e-07
6.47452e-05
1.54467e-06
8.83549e-05
2.48211e-06
0.000110378
3.70414e-06
0.000130597
5.25788e-06
0.000148832
7.19979e-06
0.000164942
9.59674e-06
0.000178817
1.25276e-05
0.000190382
1.60847e-05
0.000199588
2.03765e-05
0.000206409
2.55289e-05
0.000210833
3.16889e-05
0.000212855
3.90267e-05
0.000212475
4.77398e-05
0.000209689
5.80567e-05
0.000204493
7.02411e-05
0.000196894
8.45954e-05
0.000186925
0.00010146
0.000174694
0.000121207
0.000160462
0.000144205
0.000144785
0.000170745
0.000128764
0.000200874
0.00011436
0.000105021
0.000234093
9.81903e-08
1.37106e-05
3.91445e-07
3.95078e-05
8.99946e-07
6.42367e-05
1.65355e-06
8.76013e-05
2.69027e-06
0.000109341
4.05597e-06
0.000129231
5.80461e-06
0.000147084
7.99899e-06
0.000162747
1.07121e-05
0.000176104
1.40287e-05
0.000187065
1.80472e-05
0.00019557
2.28821e-05
0.000201575
2.86661e-05
0.000205049
3.55533e-05
0.000205968
4.37223e-05
0.000204306
5.33804e-05
0.00020003
6.47679e-05
0.000193106
7.81637e-05
0.000183498
9.38901e-05
0.000171198
0.000112315
0.000156269
0.000133848
0.000138929
0.00015891
0.000119723
0.000187855
9.98197e-05
0.00022078
8.14357e-05
6.86405e-05
0.00025716
9.6868e-08
1.36137e-05
3.9707e-07
3.92076e-05
9.30896e-07
6.37029e-05
1.73767e-06
8.67945e-05
2.86422e-06
0.000108214
4.36459e-06
0.000127731
6.30038e-06
0.000145148
8.74164e-06
0.000160306
1.17683e-05
0.000173077
1.54719e-05
0.000183362
1.99579e-05
0.000191084
2.53478e-05
0.000196185
3.1782e-05
0.000198615
3.94228e-05
0.000198327
4.84582e-05
0.00019527
5.91059e-05
0.000189383
7.16189e-05
0.000180593
8.62913e-05
0.000168826
0.000103465
0.000154024
0.000123537
0.000136197
0.000146953
0.000115513
0.00017419
9.24859e-05
0.000205672
6.83376e-05
0.000241561
4.55462e-05
2.88737e-05
0.000281328
9.33405e-08
1.35204e-05
3.95246e-07
3.89057e-05
9.47154e-07
6.3151e-05
1.7988e-06
8.59429e-05
3.0067e-06
0.000107006
4.63397e-06
0.000126103
6.75073e-06
0.000143031
9.43517e-06
0.000157622
1.27751e-05
0.000169737
1.687e-05
0.000179267
2.18331e-05
0.000186121
2.77944e-05
0.000190223
3.49031e-05
0.000191506
4.33312e-05
0.000189899
5.32771e-05
0.000185324
6.49703e-05
0.00017769
7.86772e-05
0.000166886
9.47078e-05
0.000152795
0.000113424
0.000135308
0.000135249
0.000114373
0.000160666
9.00958e-05
0.00019021
6.29423e-05
0.000224382
3.41655e-05
0.000263426
6.50216e-06
-1.45304e-05
0.00030683
8.77598e-08
1.34326e-05
3.86565e-07
3.86069e-05
9.50029e-07
6.25875e-05
1.83923e-06
8.50537e-05
3.1213e-06
0.000105724
4.86929e-06
0.000124355
7.16276e-06
0.000140738
1.0089e-05
0.000154696
1.37448e-05
0.000166082
1.82385e-05
0.000174773
2.36928e-05
0.000180666
3.02474e-05
0.000183669
3.80617e-05
0.000183692
4.73189e-05
0.000180642
5.82296e-05
0.000174414
7.10367e-05
0.000164882
8.60211e-05
0.000151901
0.00010351
0.000135306
0.000123884
0.000114933
0.000147593
9.06646e-05
0.000175156
6.25323e-05
0.000207163
3.09352e-05
0.0002442
-2.87106e-06
0.000286606
-3.59045e-05
-6.18437e-05
0.00033392
8.03173e-08
1.33523e-05
3.71771e-07
3.83154e-05
9.41162e-07
6.20181e-05
1.86185e-06
8.4133e-05
3.21246e-06
0.000104374
5.07692e-06
0.000122491
7.54517e-06
0.00013827
1.07146e-05
0.000151526
1.46922e-05
0.000162104
1.95966e-05
0.000169869
2.55612e-05
0.000174702
3.27368e-05
0.000176493
4.12952e-05
0.000175133
5.14326e-05
0.000170505
6.33739e-05
0.000162473
7.7377e-05
0.000150879
9.37395e-05
0.000135539
0.000112806
0.00011624
0.000134978
9.27613e-05
0.000160727
6.49153e-05
0.000190609
3.26508e-05
0.000225263
-3.71865e-06
0.00026536
-4.29686e-05
0.000311353
-8.18975e-05
-0.000113353
0.000362862
7.12497e-08
1.3281e-05
3.51768e-07
3.80349e-05
9.22533e-07
6.14473e-05
1.8701e-06
8.31854e-05
3.28551e-06
0.000102958
5.26446e-06
0.000120512
7.90833e-06
0.000135626
1.13258e-05
0.000148109
1.56351e-05
0.000157795
2.09666e-05
0.000164537
2.74661e-05
0.000168202
3.52975e-05
0.000168662
4.46469e-05
0.000165784
5.57258e-05
0.000159426
6.87754e-05
0.000149423
8.40717e-05
0.000135583
0.00010193
0.00011768
0.000122715
9.5455e-05
0.000146849
6.86281e-05
0.000174824
3.694e-05
0.000207224
2.50223e-07
0.000244736
-4.12306e-05
0.000288113
-8.63451e-05
0.000337927
-0.000131712
-0.000169349
0.000393923
6.08375e-08
1.32202e-05
3.27622e-07
3.77681e-05
8.96469e-07
6.08785e-05
1.86803e-06
8.22139e-05
3.34665e-06
0.00010148
5.4408e-06
0.000118418
8.26429e-06
0.000132802
1.19382e-05
0.000144435
1.65936e-05
0.000153139
2.23741e-05
0.000158757
2.94395e-05
0.000161137
3.79691e-05
0.000160132
4.81654e-05
0.000155588
6.02577e-05
0.000147333
7.45066e-05
0.000135174
9.12083e-05
0.000118881
0.0001107
9.81888e-05
0.000133366
7.27891e-05
0.000159648
4.23455e-05
0.000190062
6.52657e-06
0.000225212
-3.49001e-05
0.00026582
-8.1839e-05
0.000312713
-0.000133238
0.000366589
-0.000185588
-0.000230114
0.000427354
4.94064e-08
1.31708e-05
3.00562e-07
3.7517e-05
8.65643e-07
6.03134e-05
1.86027e-06
8.12192e-05
3.40302e-06
9.9937e-05
5.61606e-06
0.000116205
8.62677e-06
0.000129792
1.257e-05
0.000140491
1.75908e-05
0.000148118
2.3848e-05
0.0001525
3.15174e-05
0.000153468
4.07957e-05
0.000150854
5.19044e-05
0.000144479
6.50935e-05
0.000134144
8.06459e-05
0.000119622
9.88809e-05
0.000100646
0.000120159
7.69104e-05
0.000144889
4.80594e-05
0.000173533
1.37014e-05
0.000206623
-2.65635e-05
0.000244781
-7.30576e-05
0.000288749
-0.000125807
0.00033941
-0.000183898
0.000397585
-0.000243764
-0.000295904
0.000463375
3.73267e-08
1.31335e-05
2.7198e-07
3.72823e-05
8.33064e-07
5.97523e-05
1.85204e-06
8.02002e-05
3.46258e-06
9.83265e-05
5.80159e-06
0.000113866
9.01114e-06
0.000126582
1.32411e-05
0.000136262
1.86524e-05
0.000142707
2.54204e-05
0.000145731
3.37393e-05
0.000145149
4.38256e-05
0.000140768
5.59224e-05
0.000132382
7.03034e-05
0.000119763
8.72768e-05
0.000102648
0.000107188
8.07349e-05
0.000130426
5.36731e-05
0.000157421
2.10636e-05
0.00018866
-1.75374e-05
0.000224688
-6.25915e-05
0.000266134
-0.000114503
0.000313745
-0.000173418
0.000368434
-0.000238588
0.000431134
-0.000306463
-0.000366926
0.000502156
2.50118e-08
1.31084e-05
2.43416e-07
3.70639e-05
8.02066e-07
5.91937e-05
1.84907e-06
7.91532e-05
3.53413e-06
9.66414e-05
6.00988e-06
0.00011139
9.43428e-06
0.000123158
1.39736e-05
0.000131722
1.98062e-05
0.000136875
2.71263e-05
0.000138411
3.61482e-05
0.000136127
4.71109e-05
0.000129805
6.02819e-05
0.000119211
7.59617e-05
0.000104083
9.44867e-05
8.41233e-05
0.000116232
5.89892e-05
0.000141616
2.82899e-05
0.000171096
-8.41722e-06
0.00020518
-5.16212e-05
0.000244425
-0.000101836
0.000289455
-0.000159534
0.000341005
-0.000224968
0.000399985
-0.000297568
0.000467409
-0.000373888
-0.000443316
0.000543798
1.29153e-08
1.30955e-05
2.16553e-07
3.68603e-05
7.76274e-07
5.8634e-05
1.85764e-06
7.80719e-05
3.62723e-06
9.48718e-05
6.25448e-06
0.000108763
9.91446e-06
0.000119498
1.47914e-05
0.000126845
2.10827e-05
0.000130583
2.90032e-05
0.000130491
3.879e-05
0.00012634
5.0707e-05
0.000117888
6.5049e-05
0.000104869
8.21458e-05
8.69865e-05
0.000102365
6.39036e-05
0.000126116
3.52387e-05
0.000153846
5.60131e-07
0.000186043
-4.06146e-05
0.000223234
-8.88125e-05
0.000265984
-0.000144586
0.000314905
-0.000208454
0.000370692
-0.000280755
0.000434212
-0.000361088
0.000506528
-0.000446203
-0.000525102
0.000588314
1.5339e-09
1.3094e-05
1.93197e-07
3.66686e-05
7.59572e-07
5.80676e-05
1.88441e-06
7.6947e-05
3.75208e-06
9.30042e-05
6.54986e-06
0.000105965
1.04712e-05
0.000115576
1.57197e-05
0.000121597
2.25137e-05
0.000123789
3.10908e-05
0.000121914
4.17131e-05
0.000115718
5.46717e-05
0.000104929
7.02916e-05
8.92494e-05
8.89348e-05
6.83433e-05
0.000111003
4.18351e-05
0.00013694
9.30223e-06
0.000167226
-2.97264e-05
0.00020238
-7.57682e-05
0.000242946
-0.000129379
0.000289492
-0.000191132
0.000342606
-0.000261568
0.00040292
-0.000341069
0.000471208
-0.000429376
0.000548535
-0.00052353
-0.000612181
0.000635614
-8.6483e-09
1.31026e-05
1.75252e-07
3.64847e-05
7.56056e-07
5.74868e-05
1.93644e-06
7.57667e-05
3.91943e-06
9.10212e-05
6.91122e-06
0.000102973
1.11249e-05
0.000111363
1.67852e-05
0.000115936
2.41329e-05
0.000116442
3.34305e-05
0.000112616
4.49673e-05
0.000104181
5.90644e-05
9.08323e-05
7.60789e-05
7.22349e-05
9.64075e-05
4.80146e-05
0.000120488
1.77541e-05
0.000148801
-1.90099e-05
0.00018186
-6.27856e-05
0.000220211
-0.00011412
0.000264418
-0.000173585
0.000315042
-0.000241756
0.000372636
-0.000319162
0.000437748
-0.000406181
0.000510999
-0.000502627
0.000593401
-0.000605933
-0.000704274
0.000685495
-1.70495e-08
1.31197e-05
1.64704e-07
3.6303e-05
7.69971e-07
5.68815e-05
2.02102e-06
7.45156e-05
4.1404e-06
8.89018e-05
7.35429e-06
9.97593e-05
1.18968e-05
0.00010682
1.80151e-05
0.000109818
2.59745e-05
0.000108482
3.60644e-05
0.000102526
4.86034e-05
9.16419e-05
6.39444e-05
7.54912e-05
8.24793e-05
5.37e-05
0.000104641
2.58529e-05
0.000130905
-8.5099e-06
0.000161787
-4.98916e-05
0.000197835
-9.88342e-05
0.000239622
-0.000155906
0.000287721
-0.000221685
0.000342687
-0.000296722
0.000405022
-0.000381497
0.000475166
-0.000476324
0.000553536
-0.000580997
0.000641023
-0.000693419
-0.000800892
0.000737641
-2.31419e-08
1.31428e-05
1.63571e-07
3.61162e-05
8.05646e-07
5.62394e-05
2.14558e-06
7.31757e-05
4.42631e-06
8.66211e-05
7.89505e-06
9.62906e-05
1.28083e-05
0.000101907
1.94372e-05
0.000103189
2.80734e-05
9.98461e-05
3.90349e-05
9.15648e-05
5.26716e-05
7.80052e-05
6.93704e-05
5.87924e-05
8.9559e-05
3.35114e-05
0.000113708
1.70403e-06
0.00014233
-3.71318e-05
0.000175975
-8.35374e-05
0.000215225
-0.000138083
0.00026067
-0.000201352
0.000312894
-0.000273908
0.00037243
-0.000356258
0.000439725
-0.000448793
0.000515092
-0.000551691
0.000598699
-0.000664605
0.00069123
-0.000785951
-0.000901305
0.000791643
-2.63694e-08
1.31692e-05
1.7388e-07
3.5916e-05
8.67421e-07
5.55459e-05
2.31758e-06
7.17255e-05
4.78847e-06
8.41502e-05
8.54947e-06
9.25296e-05
1.38807e-05
9.65755e-05
2.10789e-05
9.59911e-05
3.04636e-05
9.04614e-05
4.23832e-05
7.96452e-05
5.72207e-05
6.31677e-05
7.53981e-05
4.0615e-05
9.73798e-05
1.15297e-05
0.000123674
-2.45899e-05
0.000154829
-6.82867e-05
0.000191428
-0.000120137
0.000234077
-0.000180733
0.000283384
-0.000250659
0.000339929
-0.000330453
0.000404221
-0.00042055
0.000476641
-0.000521212
0.000557362
-0.000632412
0.000646283
-0.000753526
0.000743782
-0.00088345
-0.00100462
0.000847094
-2.61892e-08
1.31954e-05
1.97622e-07
3.56922e-05
9.5956e-07
5.4784e-05
2.54432e-06
7.01407e-05
5.23803e-06
8.14565e-05
9.33323e-06
8.84344e-05
1.51349e-05
9.07738e-05
2.29669e-05
8.81591e-05
3.31782e-05
8.02501e-05
4.61491e-05
6.66743e-05
6.22967e-05
4.70201e-05
8.2079e-05
2.08326e-05
0.000105997
-1.23886e-05
0.000134595
-5.31879e-05
0.000168455
-0.000102146
0.000208187
-0.000159869
0.000254416
-0.000226961
0.000307754
-0.000303997
0.000368772
-0.00039147
0.000437945
-0.000489723
0.000515589
-0.000598857
0.000601747
-0.00071857
0.00069605
-0.000847828
0.00079833
-0.00098573
-0.0011101
0.000903813
-2.20796e-08
1.32175e-05
2.36718e-07
3.54334e-05
1.08617e-06
5.39345e-05
2.83286e-06
6.83941e-05
5.78566e-06
7.85037e-05
1.02613e-05
8.39587e-05
1.6591e-05
8.44442e-05
2.51267e-05
7.96233e-05
3.62483e-05
6.91285e-05
5.03692e-05
5.25534e-05
6.79414e-05
2.94479e-05
8.94589e-05
-6.84847e-07
0.000115458
-3.83882e-05
0.000146517
-8.42465e-05
0.000183245
-0.000138874
0.000226272
-0.000202896
0.000276231
-0.000276921
0.000333729
-0.000361495
0.000399308
-0.00045705
0.000473408
-0.000563823
0.000556293
-0.000681741
0.000647952
-0.000810229
0.000747875
-0.000947751
0.000854735
-0.00109259
-0.00121746
0.000962098
-1.35712e-08
1.3231e-05
2.92978e-07
3.51268e-05
1.25114e-06
5.29763e-05
3.18984e-06
6.64554e-05
6.44146e-06
7.5252e-05
1.13479e-05
7.90523e-05
1.82674e-05
7.75247e-05
2.75817e-05
7.0309e-05
3.97024e-05
5.70078e-05
5.50766e-05
3.71792e-05
7.41915e-05
1.03331e-05
9.7576e-05
-2.40693e-05
0.0001258
-6.66123e-05
0.000159469
-0.000117916
0.000199215
-0.00017862
0.000245677
-0.000249359
0.000299482
-0.000330725
0.000361211
-0.000423223
0.000431365
-0.000527204
0.000510327
-0.000642785
0.000598322
-0.000769737
0.000695411
-0.000907317
0.000801462
-0.0010538
0.000914608
-0.00120574
-0.00132509
0.00102224
-3.00763e-11
1.32311e-05
3.67912e-07
3.47589e-05
1.45778e-06
5.18865e-05
3.6211e-06
6.4292e-05
7.21435e-06
7.16588e-05
1.26054e-05
7.36612e-05
2.01809e-05
6.99492e-05
3.03528e-05
6.01371e-05
4.35652e-05
4.37954e-05
6.02994e-05
2.0445e-05
8.10768e-05
-1.04443e-05
0.00010646
-4.94521e-05
0.000137047
-9.71996e-05
0.000173467
-0.000154336
0.000216362
-0.000221515
0.00026637
-0.000299366
0.000324091
-0.000388446
0.00039006
-0.000489193
0.000464709
-0.000601853
0.000548333
-0.000726409
0.000641083
-0.000862487
0.000743032
-0.00100927
0.000854457
-0.00116523
0.000977337
-0.00132862
-0.00148424
0.00113649
1.8476e-08
1.32126e-05
4.63253e-07
3.43141e-05
1.70972e-06
5.064e-05
4.13258e-06
6.18692e-05
8.11309e-06
6.76783e-05
1.40459e-05
6.77284e-05
2.23465e-05
6.16486e-05
3.34582e-05
4.90255e-05
4.78578e-05
2.93958e-05
6.60601e-05
2.24266e-06
8.86196e-05
-3.30037e-05
0.000116128
-7.69607e-05
0.000149209
-0.000130281
0.000188505
-0.000193632
0.000234659
-0.000267669
0.000288286
-0.000352993
0.000349944
-0.000450105
0.000420096
-0.000559344
0.000499066
-0.000680823
0.000587017
-0.00081436
0.000683949
-0.000959418
0.000789775
-0.00111509
0.000904661
-0.00128011
0.00102932
-0.00145327
-0.00162637
0.00117144
4.2785e-08
1.31698e-05
5.8016e-07
3.37767e-05
2.00946e-06
4.92107e-05
4.7287e-06
5.91499e-05
9.14438e-06
6.32626e-05
1.56786e-05
6.11942e-05
2.47763e-05
5.25509e-05
3.69123e-05
3.68895e-05
5.2596e-05
1.3712e-05
7.23748e-05
-1.75361e-05
9.68334e-05
-5.74624e-05
0.00012659
-0.000106717
0.000162284
-0.000165975
0.000204562
-0.00023591
0.000254054
-0.00031716
0.000311336
-0.000410275
0.0003769
-0.000515669
0.000451104
-0.000633548
0.000534134