/*--------------------------------*- C++ -*----------------------------------*\
  =========                 |
  \\      /  F ield         | OpenFOAM: The Open Source CFD Toolbox
   \\    /   O peration     | Website:  https://openfoam.org
    \\  /    A nd           | Version:  7
     \\/     M anipulation  |
\*---------------------------------------------------------------------------*/
FoamFile
{
    version     2.0;
    format      ascii;
    class       surfaceScalarField;
    location    "20";
    object      phi;
}
// * * * * * * * * * * * * * * * * * * * * * * * * * * * * * * * * * * * * * //

dimensions      [0 3 -1 0 0 0 0];

internalField   nonuniform List<scalar> 
67470
(
-9.08721e-07
9.06857e-07
1.86395e-09
-3.41875e-06
2.50507e-06
4.9565e-09
-7.39378e-06
3.96745e-06
7.58512e-09
-1.26993e-05
5.29574e-06
9.77144e-09
-1.92039e-05
6.49307e-06
1.15456e-08
-2.67813e-05
7.56442e-06
1.29458e-08
-3.53119e-05
8.5166e-06
1.40164e-08
-4.46852e-05
9.35847e-06
1.48057e-08
-5.48017e-05
1.01012e-05
1.53631e-08
-6.55757e-05
1.07583e-05
1.57364e-08
-7.69375e-05
1.13459e-05
1.59686e-08
-8.88365e-05
1.18829e-05
1.60955e-08
-0.000101243
1.23908e-05
1.61439e-08
-0.000114153
1.28939e-05
1.61297e-08
-0.000127588
1.34185e-05
1.60584e-08
-0.000141596
1.39925e-05
1.59237e-08
-0.000156256
1.46437e-05
1.57081e-08
-0.000171669
1.53982e-05
1.53833e-08
-0.000187959
1.62751e-05
1.49098e-08
1.72976e-05
1.42311e-08
-0.000205271
-9.05884e-07
1.81274e-06
-3.40834e-06
5.00753e-06
-7.37154e-06
7.93065e-06
-1.26612e-05
1.05854e-05
-1.91462e-05
1.2978e-05
-2.67e-05
1.51183e-05
-3.5203e-05
1.70196e-05
-4.45443e-05
1.86997e-05
-5.46239e-05
2.01807e-05
-6.53553e-05
2.14897e-05
-7.6668e-05
2.26586e-05
-8.85103e-05
2.37252e-05
-0.000100852
2.47323e-05
-0.000113686
2.57285e-05
-0.000127034
2.67664e-05
-0.000140944
2.79019e-05
-0.000155491
2.91907e-05
-0.000170778
3.06855e-05
-0.000186928
3.24245e-05
3.44539e-05
-0.000204084
-9.00237e-07
2.71298e-06
-3.38763e-06
7.49492e-06
-7.32726e-06
1.18703e-05
-1.25855e-05
1.58436e-05
-1.90312e-05
1.94238e-05
-2.65381e-05
2.26251e-05
-3.49861e-05
2.54676e-05
-4.42635e-05
2.79771e-05
-5.42693e-05
3.01866e-05
-6.49158e-05
3.21361e-05
-7.61306e-05
3.38734e-05
-8.78598e-05
3.54544e-05
-0.000100071
3.69433e-05
-0.000112755
3.84125e-05
-0.00012593
3.99413e-05
-0.000139641
4.16134e-05
-0.000153964
4.35134e-05
-0.000168999
4.57207e-05
-0.000184868
4.8293e-05
5.12997e-05
-0.000201713
-8.91846e-07
3.60482e-06
-3.35683e-06
9.9599e-06
-7.26138e-06
1.57748e-05
-1.24727e-05
2.10549e-05
-1.886e-05
2.58112e-05
-2.62969e-05
3.00621e-05
-3.46628e-05
3.38334e-05
-4.38449e-05
3.71592e-05
-5.37407e-05
4.00824e-05
-6.42603e-05
4.26557e-05
-7.53288e-05
4.49419e-05
-8.68891e-05
4.70147e-05
-9.89049e-05
4.89592e-05
-0.000111364
5.08715e-05
-0.00012428
5.28573e-05
-0.000137695
5.50289e-05
-0.000151682
5.75001e-05
-0.000166339
6.0378e-05
-0.000181787
6.37411e-05
6.76812e-05
-0.000198169
-8.80807e-07
4.48563e-06
-3.31627e-06
1.23954e-05
-7.17455e-06
1.96331e-05
-1.23239e-05
2.62042e-05
-1.86341e-05
3.21214e-05
-2.59785e-05
3.74065e-05
-3.42357e-05
4.20906e-05
-4.32916e-05
4.62151e-05
-5.30417e-05
4.98326e-05
-6.33933e-05
5.30072e-05
-7.42678e-05
5.58164e-05
-8.56042e-05
5.83511e-05
-9.73613e-05
6.07163e-05
-0.000109521
6.30317e-05
-0.000122094
6.54295e-05
-0.000135116
6.80508e-05
-0.000148655
7.10398e-05
-0.00016281
7.45328e-05
-0.000177699
7.86298e-05
8.34456e-05
-0.000193463
-8.67248e-07
5.35288e-06
-3.26639e-06
1.47945e-05
-7.06764e-06
2.34344e-05
-1.21405e-05
3.12771e-05
-1.83554e-05
3.83362e-05
-2.55853e-05
4.46364e-05
-3.3708e-05
5.02133e-05
-4.26077e-05
5.51148e-05
-5.21773e-05
5.94021e-05
-6.23205e-05
6.31505e-05
-7.29546e-05
6.64505e-05
-8.40131e-05
6.94095e-05
-9.54488e-05
7.2152e-05
-0.000107238
7.48206e-05
-0.000119382
7.75738e-05
-0.000131914
8.05825e-05
-0.000144896
8.40223e-05
-0.000158424
8.80608e-05
-0.000172616
9.28213e-05
9.84419e-05
-0.000187612
-8.5132e-07
6.2042e-06
-3.20769e-06
1.71509e-05
-6.94167e-06
2.71683e-05
-1.19242e-05
3.62597e-05
-1.80263e-05
4.44383e-05
-2.51207e-05
5.17308e-05
-3.30839e-05
5.81766e-05
-4.17982e-05
6.38291e-05
-5.11534e-05
6.87573e-05
-6.10491e-05
7.30462e-05
-7.13973e-05
7.67988e-05
-8.21252e-05
8.01374e-05
-9.31783e-05
8.32052e-05
-0.000104525
8.61669e-05
-0.000116158
8.92076e-05
-0.000128104
9.25285e-05
-0.000140421
9.63385e-05
-0.000153199
0.000100839
-0.000166556
0.000106179
0.000112521
-0.000180635
-8.33202e-07
7.0374e-06
-3.14077e-06
1.94584e-05
-6.79785e-06
3.08254e-05
-1.16769e-05
4.11388e-05
-1.76495e-05
5.04109e-05
-2.45881e-05
5.86694e-05
-3.23679e-05
6.59563e-05
-4.08686e-05
7.23299e-05
-4.99767e-05
7.78653e-05
-5.95869e-05
8.26564e-05
-6.96053e-05
8.68171e-05
-7.99514e-05
9.04835e-05
-9.05623e-05
9.38161e-05
-0.000101396
9.7001e-05
-0.000112439
0.00010025
-0.000123705
0.000103795
-0.000135246
0.00010788
-0.000147151
0.000112744
-0.000159538
0.000118565
0.000125534
-0.000172551
-8.1309e-07
7.85049e-06
-3.0663e-06
2.17117e-05
-6.6375e-06
3.43966e-05
-1.14007e-05
4.5902e-05
-1.72281e-05
5.62382e-05
-2.39916e-05
6.54329e-05
-3.1565e-05
7.35296e-05
-3.98252e-05
8.05901e-05
-4.86547e-05
8.66948e-05
-5.79429e-05
9.19447e-05
-6.75889e-05
9.64631e-05
-7.75038e-05
0.000100398
-8.76145e-05
0.000103927
-9.78685e-05
0.000107255
-0.000108239
0.00011062
-0.000118732
0.000114288
-0.000129391
0.000118539
-0.000140301
0.000123654
-0.000151581
0.000129846
0.000137334
-0.000163382
-7.91198e-07
8.64169e-06
-2.98501e-06
2.39055e-05
-6.46206e-06
3.78737e-05
-1.1098e-05
5.05379e-05
-1.67654e-05
6.19056e-05
-2.33356e-05
7.20031e-05
-3.06807e-05
8.08747e-05
-3.86746e-05
8.8584e-05
-4.71953e-05
9.52156e-05
-5.61265e-05
0.000100876
-6.53591e-05
0.000105696
-7.47949e-05
0.000109834
-8.43494e-05
0.000113481
-9.39572e-05
0.000116863
-0.000103579
0.000120242
-0.000113207
0.000123916
-0.000122877
0.000128209
-0.000132669
0.000133446
-0.000142706
0.000139882
0.000147774
-0.000153145
-7.67753e-07
9.40944e-06
-2.89766e-06
2.60354e-05
-6.27305e-06
4.12491e-05
-1.07711e-05
5.5036e-05
-1.62647e-05
6.73993e-05
-2.26246e-05
7.8363e-05
-2.97206e-05
8.79707e-05
-3.74237e-05
9.62871e-05
-4.56069e-05
0.000103399
-5.41472e-05
0.000109416
-6.29273e-05
0.000114476
-7.18379e-05
0.000118745
-8.07819e-05
0.000122425
-8.96795e-05
0.00012576
-9.84754e-05
0.000129038
-0.000107149
0.000132589
-0.000115723
0.000136783
-0.000124274
0.000141996
-0.000132929
0.000148538
0.000156705
-0.000141859
-7.4299e-07
1.01524e-05
-2.80503e-06
2.80974e-05
-6.07204e-06
4.45161e-05
-1.04225e-05
5.93865e-05
-1.57296e-05
7.27064e-05
-2.18631e-05
8.44964e-05
-2.86906e-05
9.47982e-05
-3.60794e-05
0.000103676
-4.38975e-05
0.000111217
-5.20147e-05
0.000117533
-6.03045e-05
0.000122766
-6.86457e-05
0.000127086
-7.6927e-05
0.000130707
-8.5052e-05
0.000133885
-9.29479e-05
0.000136934
-0.000100577
0.000140218
-0.000107948
0.000144154
-0.000115134
0.000149182
-0.000122267
0.000155671
0.000163974
-0.000129536
-7.17146e-07
1.08696e-05
-2.70793e-06
3.00882e-05
-5.86061e-06
4.76687e-05
-1.00548e-05
6.35807e-05
-1.51637e-05
7.78152e-05
-2.10556e-05
9.03884e-05
-2.75961e-05
0.000101339
-3.46485e-05
0.000110728
-4.20751e-05
0.000118644
-4.97383e-05
0.000125197
-5.75014e-05
0.000130529
-6.52305e-05
0.000134815
-7.27985e-05
0.000138275
-8.00905e-05
0.000141177
-8.70133e-05
0.000143857
-9.3509e-05
0.000146714
-9.95714e-05
0.000150216
-0.000105265
0.000154876
-0.000110732
0.000161138
0.000169424
-0.000116182
-6.90459e-07
1.156e-05
-2.60715e-06
3.20049e-05
-5.64032e-06
5.07019e-05
-9.67041e-06
6.76108e-05
-1.45702e-05
8.2715e-05
-2.02067e-05
9.60249e-05
-2.64427e-05
0.000107575
-3.31373e-05
0.000117423
-4.01472e-05
0.000125653
-4.73264e-05
0.000132376
-5.45276e-05
0.00013773
-6.16032e-05
0.000141891
-6.84088e-05
0.00014508
-7.48089e-05
0.000147577
-8.06871e-05
0.000149735
-8.59619e-05
0.000151989
-9.06076e-05
0.000154862
-9.46796e-05
0.000158948
-9.83293e-05
0.000164787
0.00017289
-0.000101795
-6.63163e-07
1.22232e-05
-2.50347e-06
3.38452e-05
-5.41269e-06
5.36111e-05
-9.27166e-06
7.14697e-05
-1.39525e-05
8.73959e-05
-1.93205e-05
0.000101393
-2.52352e-05
0.000113489
-3.15517e-05
0.000123739
-3.812e-05
0.000132222
-4.47861e-05
0.000139042
-5.13911e-05
0.000144335
-5.77728e-05
0.000148273
-6.3768e-05
0.000151075
-6.92184e-05
0.000153028
-7.39813e-05
0.000154498
-7.79477e-05
0.000155955
-8.10677e-05
0.000157982
-8.33845e-05
0.000161264
-8.50601e-05
0.000166463
0.000174193
-8.63634e-05
-6.35478e-07
1.28587e-05
-2.39761e-06
3.56073e-05
-5.17914e-06
5.63927e-05
-8.86078e-06
7.51514e-05
-1.33135e-05
9.18486e-05
-1.84005e-05
0.00010648
-2.39781e-05
0.000119067
-2.98963e-05
0.000129658
-3.5999e-05
0.000138324
-4.2123e-05
0.000145166
-4.80977e-05
0.00015031
-5.37454e-05
0.00015392
-5.88827e-05
0.000156213
-6.33261e-05
0.000157471
-6.69035e-05
0.000158075
-6.94737e-05
0.000158525
-7.09571e-05
0.000159465
-7.138e-05
0.000161687
-7.09154e-05
0.000165998
0.000173143
-6.98654e-05
-6.07616e-07
1.34663e-05
-2.29027e-06
3.729e-05
-4.94099e-06
5.90434e-05
-8.43977e-06
7.86502e-05
-1.2656e-05
9.60648e-05
-1.74501e-05
0.000111274
-2.26748e-05
0.000124292
-2.81751e-05
0.000135158
-3.37878e-05
0.000143937
-3.93406e-05
0.000150719
-4.46507e-05
0.00015562
-4.95238e-05
0.000158793
-5.37552e-05
0.000160444
-5.71342e-05
0.00016085
-5.94554e-05
0.000160396
-6.05404e-05
0.00015961
-6.02737e-05
0.000159199
-5.86581e-05
0.000160072
-5.58768e-05
0.000163217
0.000169532
-5.22663e-05
-5.7977e-07
1.40461e-05
-2.18206e-06
3.88923e-05
-4.69941e-06
6.15607e-05
-8.01036e-06
8.19611e-05
-1.1982e-05
0.000100036
-1.64717e-05
0.000115764
-2.1328e-05
0.000129148
-2.63902e-05
0.00014022
-3.14882e-05
0.000149035
-3.644e-05
0.00015567
-4.10498e-05
0.000160229
-4.51064e-05
0.00016285
-4.83825e-05
0.00016372
-5.06381e-05
0.000163106
-5.1631e-05
0.000161389
-5.11398e-05
0.000159119
-4.90055e-05
0.000157064
-4.51996e-05
0.000156266
-3.99156e-05
0.000157933
0.00016314
-3.35237e-05
-5.52113e-07
1.45982e-05
-2.07355e-06
4.04137e-05
-4.45542e-06
6.39426e-05
-7.57401e-06
8.50797e-05
-1.12934e-05
0.000103756
-1.54673e-05
0.000119938
-1.99392e-05
0.00013362
-2.45428e-05
0.000144824
-2.91e-05
0.000153592
-3.3419e-05
0.000159989
-3.72908e-05
0.000164101
-4.04865e-05
0.000166046
-4.27551e-05
0.000165989
-4.38252e-05
0.000164176
-4.34146e-05
0.000160979
-4.12529e-05
0.000156957
-3.71281e-05
0.00015294
-3.09675e-05
0.000150105
-2.29873e-05
0.000149953
0.000153796
-1.3643e-05
-5.24797e-07
1.5123e-05
-1.9652e-06
4.18541e-05
-4.20983e-06
6.61872e-05
-7.13182e-06
8.80017e-05
-1.05914e-05
0.000107215
-1.44376e-05
0.000123784
-1.85088e-05
0.000137691
-2.26318e-05
0.000148947
-2.66205e-05
0.000157581
-3.02725e-05
0.000163641
-3.33652e-05
0.000167194
-3.56514e-05
0.000168332
-3.68556e-05
0.000167193
-3.66736e-05
0.000163994
-3.47793e-05
0.000159084
-3.08476e-05
0.000153026
-2.46043e-05
0.000146696
-1.59025e-05
0.000141404
-4.89246e-06
0.000138943
0.000141427
7.47641e-06
-4.97949e-07
1.56209e-05
-1.85737e-06
4.32135e-05
-3.96328e-06
6.82931e-05
-6.68452e-06
9.07229e-05
-9.87655e-06
0.000110408
-1.33829e-05
0.00012729
-1.70357e-05
0.000141344
-2.06545e-05
0.000152566
-2.40443e-05
0.000160971
-2.69915e-05
0.000166589
-2.92593e-05
0.000169462
-3.05819e-05
0.000169654
-3.06583e-05
0.000167269
-2.91501e-05
0.000162486
-2.56845e-05
0.000155619
-1.98757e-05
0.000147217
-1.13808e-05
0.000138201
-3.45279e-08
0.000130057
1.41643e-05
0.000124744
0.000125186
3.04058e-05
-4.7167e-07
1.60926e-05
-1.75035e-06
4.44922e-05
-3.71614e-06
7.02589e-05
-6.23246e-06
9.32393e-05
-9.14881e-06
0.000113324
-1.23023e-05
0.000130444
-1.55176e-05
0.000144559
-1.86063e-05
0.000155654
-2.13633e-05
0.000163728
-2.35633e-05
0.000168789
-2.49545e-05
0.000170853
-2.52516e-05
0.000169951
-2.4128e-05
0.000166146
-2.12094e-05
0.000159567
-1.60745e-05
0.000150484
-8.27103e-06
0.000139413
2.6335e-06
0.000127297
1.69368e-05
0.000115754
3.45195e-05
0.000107161
0.000104978
5.4727e-05
-4.46035e-07
1.65386e-05
-1.64431e-06
4.56905e-05
-3.4686e-06
7.20832e-05
-5.77557e-06
9.55462e-05
-8.40751e-06
0.000115956
-1.11938e-05
0.00013323
-1.39507e-05
0.000147316
-1.64802e-05
0.000158184
-1.85665e-05
0.000165814
-1.99711e-05
0.000170193
-2.04263e-05
0.000171308
-1.96267e-05
0.000169152
-1.72191e-05
0.000163738
-1.27931e-05
0.000155141
-5.8768e-06
0.000143567
4.05286e-06
0.000129484
1.75232e-05
0.000113826
3.4934e-05
9.83433e-05
5.62667e-05
8.58285e-05
8.04436e-05
8.08015e-05
-4.21091e-07
1.69597e-05
-1.5393e-06
4.68087e-05
-3.22058e-06
7.37645e-05
-5.31333e-06
9.7639e-05
-7.65123e-06
0.000118294
-1.00545e-05
0.000135633
-1.23296e-05
0.000149591
-1.42676e-05
0.000160122
-1.564e-05
0.000167187
-1.61941e-05
0.000170747
-1.56449e-05
0.000170759
-1.36657e-05
0.000167173
-9.87594e-06
0.000159948
-3.82881e-06
0.000149094
4.99897e-06
0.00013474
1.72037e-05
0.000117279
3.34158e-05
9.76142e-05
5.41646e-05
7.75945e-05
7.95466e-05
6.04465e-05
5.11685e-05
0.000108822
-3.96854e-07
1.73566e-05
-1.43528e-06
4.78471e-05
-2.97174e-06
7.5301e-05
-4.84479e-06
9.9512e-05
-6.8779e-06
0.000120327
-8.88052e-06
0.000137636
-1.06476e-05
0.000151358
-1.19573e-05
0.000161431
-1.2567e-05
0.000167796
-1.22076e-05
0.000170388
-1.05749e-05
0.000169126
-7.31945e-06
0.000163917
-2.03242e-06
0.000154661
5.76993e-06
0.000141292
1.66619e-05
0.000123848
3.13139e-05
0.000102627
5.04652e-05
7.84629e-05
7.47942e-05
5.32655e-05
0.000104545
3.06958e-05
1.67077e-05
0.000139006
-3.73312e-07
1.77299e-05
-1.33208e-06
4.88059e-05
-2.7215e-06
7.66904e-05
-4.36854e-06
0.000101159
-6.08468e-06
0.000122043
-7.6668e-06
0.000139218
-8.89627e-06
0.000152588
-9.5364e-06
0.000162071
-9.32801e-06
0.000167588
-7.98304e-06
0.000169043
-5.17592e-06
0.000166319
-5.32006e-07
0.000159273
6.38723e-06
0.000147742
1.61028e-05
0.000131576
2.92391e-05
0.000110711
4.65391e-05
8.53271e-05
6.8853e-05
5.6149e-05
9.70231e-05
2.50953e-05
0.000131477
-3.75825e-06
-2.34109e-05
0.000171596
-3.50421e-07
1.80803e-05
-1.22941e-06
4.96849e-05
-2.469e-06
7.793e-05
-3.88269e-06
0.000102573
-5.26805e-06
0.000123428
-6.40727e-06
0.000140357
-7.06596e-06
0.000153246
-6.99001e-06
0.000161996
-5.90085e-06
0.000166499
-3.48855e-06
0.000166631
5.97178e-07
0.000162234
6.75893e-06
0.000153111
1.54673e-05
0.000139034
2.72814e-05
0.000119762
4.28741e-05
9.51187e-05
6.30572e-05
6.5144e-05
8.87885e-05
3.04178e-05
0.000121083
-7.19921e-06
0.000160586
-4.32616e-05
-6.96734e-05
0.000206849
-3.28105e-07
1.84084e-05
-1.12686e-06
5.04836e-05
-2.21311e-06
7.90162e-05
-3.38487e-06
0.000103745
-4.42369e-06
0.000124467
-5.09481e-06
0.000141028
-5.14547e-06
0.000153297
-4.3013e-06
0.000161151
-2.26099e-06
0.000164458
1.31092e-06
0.000163059
6.79335e-06
0.000156751
1.46207e-05
0.000145284
2.5299e-05
0.000128356
3.94267e-05
0.000105634
5.77236e-05
7.68218e-05
8.10644e-05
4.18032e-05
0.000110505
9.76662e-07
0.000147234
-4.39275e-05
0.000192141
-8.81688e-05
-0.000122562
0.00024503
-3.06249e-07
1.87147e-05
-1.02386e-06
5.12013e-05
-1.95238e-06
7.99447e-05
-2.87219e-06
0.000104664
-3.54653e-06
0.000125141
-3.7212e-06
0.000141203
-3.12223e-06
0.000152698
-1.45166e-06
0.000159481
1.61833e-06
0.000161388
6.45304e-06
0.000158224
1.34648e-05
0.000149739
2.31246e-05
0.000135624
3.59781e-05
0.000115502
5.26658e-05
8.89466e-05
7.39531e-05
5.55345e-05
0.00010077
1.49867e-05
0.000134256
-3.25096e-05
0.000175757
-8.54285e-05
0.000226428
-0.000138839
-0.000182535
0.0002864
-2.84703e-07
1.89994e-05
-9.19708e-07
5.18363e-05
-1.68506e-06
8.07101e-05
-2.34123e-06
0.00010532
-2.63071e-06
0.000125431
-2.27714e-06
0.000140849
-9.82203e-07
0.000151403
1.57927e-06
0.000156919
5.76589e-06
0.000157202
1.19777e-05
0.000152012
2.0666e-05
0.000141051
3.23443e-05
0.000123946
4.76031e-05
0.000100243
6.71287e-05
6.9421e-05
9.17313e-05
3.09318e-05
0.000122387
-1.56694e-05
0.0001603
-7.04227e-05
0.000206945
-0.000132074
0.000263742
-0.000195636
-0.000249993
0.000331201
-2.6327e-07
1.92626e-05
-8.13546e-07
5.23865e-05
-1.40905e-06
8.13056e-05
-1.78797e-06
0.000105699
-1.6695e-06
0.000125312
-7.52162e-07
0.000139932
1.29005e-06
0.000149361
4.81355e-06
0.000153396
1.02124e-05
0.000151803
1.79269e-05
0.000144298
2.84533e-05
0.000130525
4.23543e-05
0.000110045
6.0272e-05
8.23256e-05
8.29431e-05
4.67499e-05
0.000111223
2.65154e-06
0.000146127
-5.0573e-05
0.000188896
-0.000113192
0.00024109
-0.000184268
0.000304375
-0.00025892
-0.000325253
0.000379634
-2.4171e-07
1.95043e-05
-7.04337e-07
5.28492e-05
-1.1219e-06
8.17232e-05
-1.20782e-06
0.000105785
-6.55273e-07
0.00012476
8.65377e-07
0.000138411
3.71149e-06
0.000146515
8.27493e-06
0.000148832
1.49903e-05
0.000145088
2.43439e-05
0.000134944
3.68838e-05
0.000117985
5.32291e-05
9.36995e-05
7.40804e-05
6.14743e-05
0.000100231
2.05991e-05
0.000132584
-2.97016e-05
0.000172184
-9.01723e-05
0.000220282
-0.00016129
0.000278463
-0.000242449
0.000348596
-0.000329053
-0.000408499
0.000431842
-2.19727e-07
1.97241e-05
-5.90856e-07
5.32203e-05
-8.20743e-07
8.1953e-05
-5.95519e-07
0.00010556
4.20519e-07
0.000123744
2.58838e-06
0.000136243
6.30058e-06
0.000142803
1.19889e-05
0.000143144
2.01337e-05
0.000136943
3.12736e-05
0.000123804
4.60151e-05
0.000103244
6.50413e-05
7.46733e-05
8.91192e-05
3.73964e-05
0.000119105
-9.38704e-06
0.000155952
-6.65488e-05
0.000200727
-0.000134947
0.000254665
-0.000215228
0.000319297
-0.00030708
0.000396638
-0.000406394
-0.00049974
0.000487879
-1.96973e-07
1.9921e-05
-4.7168e-07
5.3495e-05
-5.02325e-07
8.19837e-05
5.49214e-08
0.000105003
1.56742e-06
0.000122231
4.43108e-06
0.00013338
9.07741e-06
0.000138156
1.59828e-05
0.000136239
2.56787e-05
0.000127247
3.87621e-05
0.000110721
5.59048e-05
8.61008e-05
7.78612e-05
5.27168e-05
0.000105472
9.78533e-06
0.000139664
-4.35787e-05
0.000181442
-0.000108327
0.000231892
-0.000185397
0.000292203
-0.00027554
0.000363769
-0.000378646
0.000448674
-0.000491299
-0.000598757
0.00054769
-1.73034e-07
2.00941e-05
-3.45174e-07
5.36671e-05
-1.62943e-07
8.18015e-05
7.50042e-07
0.00010409
2.79602e-06
0.000120185
6.40902e-06
0.000129767
1.20637e-05
0.000132502
2.02857e-05
0.000128017
3.16628e-05
0.00011587
4.68563e-05
9.55272e-05
6.66098e-05
6.63473e-05
9.17558e-05
2.75709e-05
0.000123215
-2.16741e-05
0.000161989
-8.23529e-05
0.000209141
-0.000155479
0.000265768
-0.000242023
0.000332994
-0.000342766
0.000411988
-0.000457639
0.000504809
-0.00058412
-0.000705042
0.000611094
-1.47436e-07
2.02415e-05
-2.09486e-07
5.37292e-05
2.01537e-07
8.13904e-05
1.49734e-06
0.000102794
4.11795e-06
0.000117565
8.53917e-06
0.000125346
1.52828e-05
0.000125758
2.49282e-05
0.000118371
3.8125e-05
0.000102673
5.5604e-05
7.80483e-05
7.81862e-05
4.37651e-05
0.000106787
-1.03009e-06
0.000142413
-5.72998e-05
0.000186143
-0.000126084
0.0002391
-0.000208435
0.000302391
-0.000305315
0.000377059
-0.000417434
0.000463976
-0.000544556
0.000565071
-0.000685216
-0.000817759
0.000677788
-1.19639e-07
2.03612e-05
-6.24908e-08
5.3672e-05
5.95702e-07
8.07322e-05
2.30486e-06
0.000101085
5.54585e-06
0.000114324
1.08397e-05
0.000120052
1.87595e-05
0.000117838
2.99429e-05
0.000107188
4.51058e-05
8.75101e-05
6.50532e-05
5.81009e-05
9.06879e-05
1.81304e-05
0.000123012
-3.3354e-05
0.000163118
-9.74056e-05
0.000212165
-0.000175131
0.000271332
-0.000267603
0.000341739
-0.000375721
0.000424332
-0.000500028
0.000519655
-0.000639879
0.000629362
-0.000794923
-0.00093584
0.000747444
-8.90533e-08
2.04502e-05
9.79324e-08
5.34851e-05
1.02456e-06
7.98056e-05
3.18139e-06
9.89281e-05
7.09332e-06
0.000110412
1.33302e-05
0.000113815
2.25202e-05
0.000108648
3.53635e-05
9.43444e-05
5.26462e-05
7.02273e-05
7.52515e-05
3.54956e-05
0.000104166
-1.07841e-05
0.000140478
-6.96664e-05
0.000185366
-0.000142293
0.000240063
-0.000229828
0.000305804
-0.000333343
0.000383718
-0.000453636
0.000474672
-0.000590982
0.000578894
-0.000744101
0.000697367
-0.000913396
-0.00105844
0.00081997
-5.50072e-08
2.05052e-05
2.74388e-07
5.31557e-05
1.4935e-06
7.85865e-05
4.13631e-06
9.62853e-05
8.77481e-06
0.000105773
1.60311e-05
0.000106558
2.65921e-05
9.80874e-05
4.12244e-05
7.97122e-05
6.07876e-05
5.06641e-05
8.62449e-05
1.00382e-05
0.000118667
-4.32061e-05
0.000159226
-0.000110225
0.000209175
-0.000192243
0.000269814
-0.000290466
0.000342419
-0.000405948
0.000428144
-0.000539361
0.000527854
-0.000690692
0.000641688
-0.000857936
0.000768978
-0.00104069
-0.00118523
0.000895767
-1.67916e-08
2.0522e-05
4.6953e-07
5.26693e-05
2.00826e-06
7.70478e-05
5.17954e-06
9.3114e-05
1.06054e-05
0.000100348
1.89636e-05
9.82002e-05
3.10033e-05
8.60477e-05
4.75603e-05
6.31552e-05
6.95703e-05
2.86541e-05
9.80766e-05
-1.8468e-05
0.00013423
-7.93599e-05
0.000179279
-0.000155274
0.000234539
-0.000247503
0.000301349
-0.000357277
0.000381006
-0.000485605
0.000474676
-0.000633031
0.000583337
-0.000799353
0.000707735
-0.000982334
0.000846347
-0.0011793
-0.00131342
0.000974538
2.62733e-08
2.04957e-05
6.85905e-07
5.20097e-05
2.57454e-06
7.51591e-05
6.32102e-06
8.93676e-05
1.26004e-05
9.40681e-05
2.21491e-05
8.86515e-05
3.57816e-05
7.24152e-05
5.44054e-05
4.45313e-05
7.90328e-05
4.02675e-06
0.000110785
-5.02205e-05
0.000150888
-0.000119463
0.00020065
-0.000205036
0.000261426
-0.000308279
0.00033456
-0.000430411
0.000421316
-0.000572361
0.000522808
-0.000734523
0.000640015
-0.000916559
0.000774149
-0.00111647
0.000928054
-0.0013332
-0.00152771
0.00114234
7.51463e-08
2.04206e-05
9.26808e-07
5.1158e-05
3.19902e-06
7.28869e-05
7.57179e-06
8.49948e-05
1.4776e-05
8.6864e-05
2.56096e-05
7.78179e-05
4.09547e-05
5.707e-05
6.17921e-05
2.36939e-05
8.92097e-05
-2.33908e-05
0.000124402
-8.54131e-05
0.000168658
-0.000163719
0.000223329
-0.000259706
0.000289775
-0.000374725
0.000369298
-0.000509934
0.000463052
-0.000666116
0.000571978
-0.000843448
0.000696807
-0.00104139
0.000838642
-0.0012583
0.000998603
-0.00149316
-0.00172181
0.00119271
1.3055e-07
2.029e-05
1.19494e-06
5.00936e-05
3.88757e-06
7.01943e-05
8.94197e-06
7.99404e-05
1.71473e-05
7.86586e-05
2.93656e-05
6.55996e-05
4.65484e-05
3.98872e-05
6.97498e-05
4.92637e-07
0.00010013
-5.37713e-05
0.00013895
-0.000124233
0.000187547
-0.000212315
0.000247286
-0.000319445
0.000319498
-0.000446937
0.00040538
-0.000595816
0.000505896
-0.000766631
0.000621681
-0.000959233
0.000752984
-0.00117269
0.000900094
-0.00140541
0.00106202
-0.00165509
-0.00190527
0.00124548
1.93292e-07
2.00967e-05
1.49321e-06
4.87937e-05
4.64631e-06
6.70412e-05
1.04417e-05
7.41449e-05
1.97292e-05
6.93711e-05
3.34367e-05
5.18921e-05
5.25862e-05
2.07376e-05
7.83034e-05
-2.52245e-05
0.000111817
-8.72845e-05
0.000154441
-0.000166857
0.00020754
-0.000265415
0.000272468
-0.000384373
0.000350474
-0.000524942
0.00044259
-0.000687932
0.000549505
-0.000873546
0.000671446
-0.00108117
0.000808058
-0.0013093
0.00095868
-0.00155604
0.00112111
-0.00181751
-0.00208106
0.00129689
2.64172e-07
1.98326e-05
1.82444e-06
4.72335e-05
5.48109e-06
6.33846e-05
1.20808e-05
6.75453e-05
2.25356e-05
5.89163e-05
3.78408e-05
3.6587e-05
5.90883e-05
-5.09861e-07
8.74724e-05
-5.36087e-05
0.000124281
-0.000124093
0.00017087
-0.000213446
0.000228605
-0.00032315
0.000298789
-0.000454557
0.000382542
-0.000608695
0.000480667
-0.000786058
0.000593501
-0.00098638
0.000720786
-0.00120846
0.000861522
-0.00145004
0.00101415
-0.00170866
0.00117565
-0.00197902
-0.00225029
0.00134489
3.4396e-07
1.94886e-05
2.19135e-06
4.53861e-05
6.39745e-06
5.91784e-05
1.3868e-05
6.00747e-05
2.55788e-05
4.72054e-05
4.25928e-05
1.95731e-05
6.60703e-05
-2.39874e-05
9.72691e-05
-8.48075e-05
0.000137526
-0.000164351
0.000188217
-0.000264136
0.000250683
-0.000385617
0.000326134
-0.000530007
0.000415504
-0.000698066
0.000519306
-0.000889859
0.00063746
-0.00110453
0.000769173
-0.00134017
0.000912803
-0.00159367
0.00106599
-0.00186185
0.00122521
-0.00213823
-0.00241309
0.00138801
4.33383e-07
1.90552e-05
2.59643e-06
4.3223e-05
7.40044e-06
5.43744e-05
1.58113e-05
5.16639e-05
2.88695e-05
3.41472e-05
4.77047e-05
7.37856e-07
7.35428e-05
-4.98254e-05
0.000107697
-0.000118962
0.00015154
-0.000208193
0.000206443
-0.000319039
0.00027369
-0.000452864
0.000354349
-0.000610666
0.000449119
-0.000792836
0.000558156
-0.000998896
0.000680916
-0.00122729
0.000816045
-0.0014753
0.0009613
-0.00173892
0.00111367
-0.00201422
0.0012693
-0.00229386
-0.00256907
0.00142528
5.33107e-07
1.85221e-05
3.04195e-06
4.07142e-05
8.4945e-06
4.89219e-05
1.79175e-05
4.22408e-05
3.2416e-05
1.96488e-05
5.31848e-05
-2.0031e-05
8.151e-05
-7.81506e-05
0.000118751
-0.000156203
0.000166296
-0.000255738
0.000225488
-0.000378232
0.000297512
-0.000524889
0.00038325
-0.000696404
0.000483104
-0.00089269
0.000596826
-0.00111262
0.000723371
-0.00135384
0.000860826
-0.00161275
0.00100641
-0.00188451
0.00115664
-0.00216445
0.00130751
-0.00244474
-0.00271764
0.00145608
6.43731e-07
1.78784e-05
3.52989e-06
3.7828e-05
9.68337e-06
4.27684e-05
2.01919e-05
3.17323e-05
3.6224e-05
3.61665e-06
5.90368e-05
-4.28437e-05
8.99692e-05
-0.000109083
0.000130413
-0.000196646
0.000181752
-0.000307077
0.000245269
-0.000441749
0.000322009
-0.000601629
0.000412614
-0.000787009
0.000517141
-0.000997217
0.000634893
-0.00123037
0.000764309
-0.00148326
0.000902947
-0.00175139
0.00104759
-0.00202916
0.00119442
-0.00231128
0.00133951
-0.00258983
-0.00285823
0.0014801
7.65776e-07
1.71126e-05
4.0619e-06
3.45319e-05
1.097e-05
3.58603e-05
2.26381e-05
2.00641e-05
4.02966e-05
-1.40418e-05
6.52596e-05
-6.78067e-05
9.89099e-05
-0.000142733
0.000142655
-0.000240392
0.000197851
-0.000362273
0.000265682
-0.00050958
0.00034701
-0.000682956
0.000442188
-0.000882187
0.000550881
-0.00110591
0.000671914
-0.00135141
0.000803215
-0.00161456
0.00094187
-0.00189005
0.00108433
-0.00217162
0.00122665
-0.0024536
0.00136509
-0.00272827
-0.00299039
0.00149725
8.99676e-07
1.62129e-05
4.63927e-06
3.07923e-05
1.23564e-05
2.81432e-05
2.52582e-05
7.16231e-06
4.46334e-05
-3.3417e-05
7.1847e-05
-9.50204e-05
0.000108314
-0.0001792
0.000155438
-0.000287516
0.000214517
-0.000421352
0.000286601
-0.000581664
0.00037232
-0.000768676
0.000471693
-0.00098156
0.000583954
-0.00121817
0.00070744
-0.00147489
0.000839594
-0.00174671
0.000977113
-0.00202756
0.00111624
-0.00231074
0.00125306
-0.00259042
0.0013842
-0.00285941
-0.00311386
0.00150766
1.04578e-06
1.51672e-05
5.26291e-06
2.65752e-05
1.38436e-05
1.95625e-05
2.80521e-05
-7.0461e-06
4.92308e-05
-5.45957e-05
7.87874e-05
-0.000124577
0.000118153
-0.000218566
0.000168708
-0.00033807
0.000231657
-0.000484301
0.000307876
-0.000657883
0.00039772
-0.000858519
0.000500829
-0.00108467
0.000615981
-0.00133332
0.000741031
-0.00159994
0.000872991
-0.00187867
0.00100827
-0.00216284
0.00114303
-0.00244551
0.00127356
-0.00272095
0.00139692
-0.00298276
-0.00322854
0.0015116
1.20434e-06
1.39628e-05
5.93334e-06
2.18462e-05
1.54319e-05
1.00639e-05
3.10179e-05
-2.2632e-05
5.40819e-05
-7.76598e-05
8.60632e-05
-0.000156558
0.000128393
-0.000260896
0.000182399
-0.000392076
0.000249163
-0.000551065
0.000329343
-0.000738063
0.000422973
-0.000952149
0.000529282
-0.00119098
0.000646581
-0.00145062
0.000772271
-0.00172563
0.000903007
-0.00200941
0.00103502
-0.00229485
0.00116454
-0.00257503
0.00128816
-0.00284457
0.00140347
-0.00309807
-0.00333453
0.00150946
1.37553e-06
1.25873e-05
6.65064e-06
1.65711e-05
1.71203e-05
-4.05738e-07
3.41516e-05
-3.96633e-05
5.91758e-05
-0.000102684
9.36511e-05
-0.000191033
0.000138989
-0.000306234
0.000196436
-0.000449523
0.000266912
-0.000621542
0.000350817
-0.000821968
0.000447826
-0.00104916
0.000556733
-0.00129989
0.000675389
-0.00156928
0.000800786
-0.00185103
0.000929312
-0.00213793
0.00105714
-0.00242268
0.00118069
-0.00269859
0.00129699
-0.00296086
0.00140418
-0.00320526
-0.0034321
0.00150174
1.5594e-06
1.10279e-05
7.41451e-06
1.0716e-05
1.89067e-05
-1.1898e-05
3.74471e-05
-5.82037e-05
6.44981e-05
-0.000129735
0.000101522
-0.000228057
0.000149887
-0.000354598
0.000210728
-0.000510365
0.000284767
-0.000695581
0.000372103
-0.000909303
0.00047202
-0.00114908
0.000582868
-0.00141073
0.00070206
-0.00168847
0.000826248
-0.00197522
0.000951654
-0.00226334
0.00107452
-0.00254554
0.00119156
-0.00281563
0.00130029
-0.00306959
0.00139944
-0.00330441
-0.00352161
0.00148896
1.75594e-06
9.27195e-06
8.22417e-06
4.24772e-06
2.07882e-05
-2.4462e-05
4.08961e-05
-7.83116e-05
7.00306e-05
-0.00015887
0.00010964
-0.000267667
0.000161025
-0.000405984
0.000225177
-0.000574517
0.000302579
-0.000772982
0.000392994
-0.000999718
0.000495294
-0.00125138
0.000607387
-0.00152283
0.00072629
-0.00180737
0.000848394
-0.00209732
0.000969868
-0.00238481
0.00108713
-0.0026628
0.00119729
-0.00292579
0.00129839
-0.0031707
0.00138973
-0.00339575
-0.00360354
0.00147166
1.96501e-06
7.30694e-06
9.07844e-06
-2.8657e-06
2.27604e-05
-3.8144e-05
4.44881e-05
-0.000100039
7.57513e-05
-0.000190133
0.000117965
-0.000309881
0.000172336
-0.000460354
0.000239675
-0.000641856
0.000320191
-0.000853498
0.000413281
-0.00109281
0.000517393
-0.00135549
0.000630009
-0.00163544
0.000747813
-0.00192518
0.000867026
-0.00221653
0.000983871
-0.00250166
0.00109504
-0.00277397
0.00119811
-0.00302886
0.00129167
-0.00326425
0.00137553
-0.00347961
-0.00367842
0.00145041
2.1864e-06
5.12053e-06
9.97564e-06
-1.06549e-05
2.48182e-05
-5.29865e-05
4.82104e-05
-0.000123431
8.16347e-05
-0.000223557
0.000126451
-0.000354697
0.000183741
-0.000517644
0.000254104
-0.000712219
0.000337439
-0.000936834
0.000432755
-0.00118812
0.000538072
-0.0014608
0.000650487
-0.00174786
0.000766417
-0.00204111
0.000882015
-0.00233213
0.000993659
-0.0026133
0.00109841
-0.00287872
0.00119432
-0.00312477
0.00128053
-0.00335047
0.00135732
-0.0035564
-0.00374681
0.00142571
2.41978e-06
2.70076e-06
1.09137e-05
-1.91488e-05
2.69549e-05
-6.90277e-05
5.20481e-05
-0.000148525
8.76513e-05
-0.00025916
0.000135046
-0.000402093
0.000195159
-0.000577757
0.000268343
-0.000785403
0.000354159
-0.00102265
0.00045121
-0.00128518
0.000557108
-0.0015667
0.000668607
-0.00185936
0.000781944
-0.00215444
0.0008933
-0.00244349
0.000999304
-0.00271931
0.00109744
-0.00297685
0.00118626
-0.0032136
0.00126543
-0.00342963
0.00133561
-0.00362658
-0.00380926
0.00139806
2.66469e-06
3.60665e-08
1.18899e-05
-2.8374e-05
2.91629e-05
-8.63008e-05
5.59841e-05
-0.000175346
9.37686e-05
-0.000296945
0.000143694
-0.000452018
0.000206502
-0.000640564
0.000282266
-0.000861167
0.000370184
-0.00111057
0.000468453
-0.00138344
0.000574298
-0.00167255