/*--------------------------------*- C++ -*----------------------------------*\
  =========                 |
  \\      /  F ield         | OpenFOAM: The Open Source CFD Toolbox
   \\    /   O peration     | Website:  https://openfoam.org
    \\  /    A nd           | Version:  7
     \\/     M anipulation  |
\*---------------------------------------------------------------------------*/
FoamFile
{
    version     2.0;
    format      ascii;
    class       volScalarField;
    location    "90";
    object      p;
}
// * * * * * * * * * * * * * * * * * * * * * * * * * * * * * * * * * * * * * //

dimensions      [0 2 -2 0 0 0 0];

internalField   nonuniform List<scalar> 
14800
(
-0.355662
-0.35756
-0.358556
-0.359286
-0.35999
-0.360765
-0.361685
-0.362785
-0.364071
-0.365534
-0.367162
-0.368942
-0.370858
-0.372861
-0.375013
-0.349702
-0.35172
-0.352737
-0.353423
-0.354013
-0.354592
-0.355224
-0.355936
-0.356722
-0.357565
-0.358438
-0.359318
-0.36017
-0.360896
-0.361614
-0.343946
-0.346053
-0.34708
-0.347715
-0.34819
-0.348573
-0.348921
-0.349249
-0.349543
-0.349774
-0.349904
-0.349898
-0.349706
-0.349181
-0.348497
-0.338427
-0.340598
-0.341623
-0.342204
-0.342563
-0.342756
-0.342827
-0.342781
-0.342596
-0.342233
-0.341641
-0.340777
-0.33958
-0.337855
-0.335822
-0.333174
-0.335386
-0.3364
-0.336925
-0.337171
-0.337179
-0.336983
-0.336579
-0.335933
-0.334998
-0.333714
-0.332031
-0.329881
-0.327029
-0.323722
-0.32821
-0.330444
-0.331441
-0.331908
-0.332045
-0.331877
-0.331427
-0.33068
-0.329596
-0.328117
-0.326175
-0.323714
-0.320677
-0.316784
-0.312291
-0.323556
-0.325796
-0.32677
-0.327181
-0.327212
-0.326878
-0.326187
-0.325116
-0.323616
-0.321623
-0.319063
-0.315877
-0.312015
-0.307175
-0.301593
-0.319225
-0.321462
-0.32241
-0.322764
-0.322695
-0.322203
-0.321285
-0.319908
-0.318017
-0.315541
-0.312403
-0.308543
-0.303922
-0.298235
-0.291659
-0.31523
-0.317458
-0.318378
-0.318677
-0.318512
-0.31787
-0.316738
-0.315074
-0.312816
-0.309889
-0.306211
-0.301725
-0.29641
-0.289973
-0.282494
-0.311585
-0.313799
-0.31469
-0.314935
-0.314678
-0.313894
-0.312561
-0.310627
-0.308025
-0.304676
-0.300498
-0.295432
-0.289482
-0.282387
-0.274074
-0.308299
-0.310499
-0.31136
-0.311551
-0.311205
-0.310287
-0.308764
-0.306577
-0.303654
-0.299914
-0.295271
-0.289668
-0.283135
-0.275461
-0.266334
-0.305384
-0.30757
-0.308399
-0.308537
-0.308106
-0.307059
-0.305357
-0.302934
-0.299713
-0.29561
-0.290539
-0.284439
-0.277369
-0.269182
-0.259155
-0.302853
-0.305024
-0.305821
-0.305904
-0.305388
-0.30422
-0.302349
-0.299708
-0.296213
-0.291776
-0.286313
-0.27976
-0.272204
-0.263593
-0.252427
-0.300719
-0.302872
-0.303634
-0.303661
-0.303063
-0.301777
-0.299751
-0.296909
-0.293164
-0.288427
-0.28261
-0.275648
-0.267662
-0.258849
-0.24669
-0.298996
-0.301125
-0.301847
-0.301816
-0.301136
-0.29974
-0.29757
-0.294547
-0.29058
-0.285578
-0.279447
-0.272117
-0.26369
-0.254234
-0.242001
-0.297698
-0.299792
-0.300468
-0.300375
-0.299614
-0.298114
-0.295813
-0.292631
-0.288474
-0.283246
-0.276847
-0.269194
-0.260384
-0.250423
-0.237681
-0.296839
-0.298882
-0.299503
-0.299343
-0.298501
-0.296903
-0.294487
-0.291169
-0.286854
-0.281443
-0.274829
-0.266908
-0.257772
-0.247411
-0.233775
-0.296429
-0.298398
-0.298952
-0.298719
-0.297795
-0.296106
-0.293588
-0.290158
-0.28572
-0.280171
-0.273396
-0.265268
-0.255863
-0.24519
-0.230334
-0.296474
-0.298342
-0.298815
-0.2985
-0.297491
-0.295716
-0.29311
-0.289591
-0.285061
-0.279416
-0.272535
-0.264261
-0.254645
-0.243755
-0.227409
-0.296979
-0.298713
-0.299085
-0.298678
-0.297579
-0.29572
-0.293036
-0.289445
-0.284851
-0.279146
-0.272204
-0.263841
-0.254073
-0.243056
-0.225088
-0.297939
-0.299502
-0.299754
-0.299239
-0.298041
-0.296096
-0.29334
-0.28969
-0.28505
-0.27931
-0.272339
-0.263928
-0.254064
-0.242975
-0.223495
-0.299346
-0.300699
-0.300806
-0.300166
-0.298856
-0.296818
-0.293987
-0.290283
-0.285606
-0.279844
-0.272861
-0.264423
-0.254516
-0.243288
-0.222687
-0.301187
-0.30229
-0.302225
-0.301437
-0.299998
-0.297853
-0.29494
-0.291177
-0.286461
-0.280678
-0.273686
-0.265231
-0.255342
-0.243664
-0.222493
-0.303446
-0.304257
-0.303992
-0.30303
-0.301438
-0.299166
-0.296155
-0.29232
-0.287556
-0.281747
-0.274747
-0.266299
-0.256558
-0.244014
-0.223309
-0.306102
-0.306585
-0.306088
-0.304923
-0.303149
-0.300726
-0.297595
-0.293668
-0.288839
-0.282988
-0.27598
-0.267578
-0.258184
-0.245081
-0.228919
-0.309139
-0.309258
-0.308496
-0.307096
-0.305109
-0.302505
-0.299225
-0.295181
-0.290263
-0.28435
-0.277318
-0.268958
-0.259922
-0.247381
-0.244052
-0.31254
-0.312265
-0.311201
-0.309535
-0.307301
-0.304482
-0.301024
-0.296835
-0.2918
-0.285793
-0.278704
-0.270341
-0.261486
-0.249459
-0.246745
-0.316296
-0.31559
-0.314207
-0.312234
-0.309717
-0.306651
-0.302983
-0.298617
-0.293433
-0.287294
-0.280093
-0.271653
-0.262723
-0.250983
-0.246605
-0.320404
-0.319241
-0.317504
-0.315194
-0.312361
-0.309016
-0.305105
-0.300531
-0.295158
-0.288838
-0.281455
-0.272843
-0.263639
-0.251948
-0.245646
-0.324866
-0.323222
-0.321101
-0.318424
-0.315245
-0.311591
-0.307408
-0.302588
-0.296982
-0.29042
-0.28277
-0.273872
-0.264235
-0.252386
-0.244194
-0.329694
-0.327543
-0.325013
-0.321943
-0.318392
-0.314401
-0.309914
-0.30481
-0.298915
-0.292034
-0.284017
-0.274711
-0.264517
-0.25234
-0.242521
-0.334905
-0.332221
-0.329259
-0.325775
-0.321829
-0.317476
-0.312653
-0.307216
-0.300964
-0.293673
-0.285178
-0.275341
-0.264493
-0.251862
-0.240706
-0.340518
-0.337275
-0.333862
-0.329946
-0.325587
-0.320848
-0.315651
-0.309824
-0.30313
-0.295323
-0.286229
-0.275744
-0.264169
-0.251002
-0.238768
-0.346556
-0.342725
-0.338845
-0.334484
-0.329695
-0.324544
-0.318928
-0.312638
-0.305404
-0.296961
-0.287146
-0.275904
-0.263549
-0.249798
-0.236689
-0.353037
-0.348589
-0.34423
-0.339414
-0.33418
-0.328585
-0.322494
-0.315654
-0.307763
-0.298555
-0.287897
-0.275808
-0.262637
-0.248279
-0.234447
-0.359974
-0.354882
-0.350033
-0.344755
-0.339057
-0.33298
-0.326342
-0.318847
-0.310171
-0.300064
-0.288451
-0.275441
-0.261434
-0.246464
-0.232013
-0.367374
-0.361611
-0.356264
-0.350516
-0.344333
-0.337723
-0.330452
-0.322181
-0.312579
-0.301441
-0.288774
-0.27479
-0.259939
-0.244363
-0.229366
-0.37523
-0.368773
-0.362924
-0.356697
-0.349999
-0.342791
-0.334782
-0.325598
-0.314927
-0.302634
-0.288832
-0.273839
-0.25815
-0.241981
-0.226484
-0.383525
-0.376355
-0.370002
-0.363284
-0.35603
-0.348143
-0.339274
-0.329031
-0.317147
-0.303589
-0.288592
-0.272574
-0.25606
-0.239314
-0.223349
-0.392227
-0.384331
-0.377472
-0.370248
-0.362385
-0.353722
-0.343854
-0.332398
-0.319164
-0.304251
-0.28802
-0.270976
-0.253657
-0.236355
-0.219941
-0.401287
-0.392661
-0.385296
-0.377541
-0.369004
-0.359448
-0.348431
-0.335607
-0.320902
-0.304565
-0.287082
-0.269026
-0.250929
-0.233091
-0.216243
-0.410641
-0.401288
-0.393419
-0.385102
-0.375806
-0.365225
-0.352901
-0.338561
-0.322283
-0.304477
-0.285743
-0.2667
-0.247857
-0.229506
-0.212236
-0.420207
-0.410142
-0.401767
-0.392845
-0.382694
-0.370943
-0.357149
-0.34116
-0.32323
-0.303935
-0.283969
-0.263974
-0.244418
-0.225579
-0.2079
-0.429889
-0.419134
-0.41025
-0.400671
-0.389551
-0.376475
-0.361056
-0.343302
-0.323669
-0.302887
-0.281724
-0.260817
-0.240589
-0.221287
-0.203215
-0.439571
-0.428158
-0.418759
-0.408459
-0.396245
-0.381685
-0.364496
-0.344888
-0.323527
-0.301283
-0.27897
-0.257201
-0.236341
-0.216606
-0.198159
-0.449123
-0.437092
-0.427169
-0.416071
-0.402629
-0.386429
-0.367345
-0.345822
-0.322736
-0.299074
-0.275668
-0.253091
-0.231646
-0.211509
-0.192711
-0.458399
-0.445798
-0.435337
-0.423355
-0.408546
-0.39056
-0.369481
-0.346011
-0.32123
-0.29621
-0.27178
-0.248455
-0.226473
-0.20597
-0.186848
-0.46724
-0.454124
-0.443105
-0.430146
-0.413831
-0.393931
-0.370784
-0.34537
-0.318946
-0.292645
-0.267266
-0.243256
-0.220792
-0.199962
-0.18055
-0.475476
-0.461905
-0.450303
-0.436269
-0.418317
-0.396395
-0.371144
-0.343816
-0.315826
-0.288333
-0.262087
-0.237462
-0.214574
-0.193458
-0.173798
-0.48293
-0.468967
-0.456753
-0.441544
-0.421836
-0.397816
-0.370456
-0.341276
-0.311813
-0.283227
-0.256205
-0.231039
-0.207787
-0.186434
-0.166572
-0.489416
-0.475129
-0.46227
-0.44579
-0.424226
-0.398062
-0.368623
-0.337679
-0.306856
-0.277288
-0.249582
-0.223954
-0.200406
-0.178868
-0.158857
-0.494747
-0.480203
-0.466666
-0.448827
-0.425331
-0.397013
-0.36556
-0.332965
-0.300908
-0.270474
-0.242185
-0.216177
-0.192404
-0.170737
-0.150636
-0.498737
-0.484004
-0.469756
-0.450481
-0.425007
-0.394561
-0.36119
-0.327077
-0.293926
-0.26275
-0.233982
-0.207682
-0.183757
-0.162023
-0.141896
-0.501204
-0.48635
-0.471361
-0.450592
-0.423123
-0.39061
-0.355447
-0.319969
-0.285872
-0.254084
-0.224945
-0.198445
-0.174447
-0.152713
-0.132632
-0.501975
-0.487066
-0.471309
-0.449007
-0.419563
-0.385079
-0.348275
-0.311601
-0.276713
-0.244447
-0.21505
-0.188443
-0.164456
-0.1428
-0.122848
-0.500886
-0.485987
-0.469445
-0.445595
-0.414227
-0.3779
-0.33963
-0.301939
-0.266425
-0.233819
-0.204277
-0.177658
-0.153766
-0.132273
-0.112531
-0.497787
-0.482961
-0.465627
-0.44024
-0.407033
-0.369022
-0.329477
-0.290961
-0.254989
-0.222183
-0.192611
-0.166077
-0.142366
-0.121102
-0.101593
-0.492548
-0.477854
-0.459732
-0.432845
-0.397918
-0.358406
-0.317795
-0.278652
-0.242392
-0.209529
-0.180046
-0.1537
-0.130254
-0.109245
-0.089869
-0.485053
-0.47055
-0.451659
-0.423337
-0.386836
-0.34603
-0.304573
-0.265006
-0.228632
-0.195856
-0.166582
-0.140528
-0.117437
-0.0967229
-0.0773651
-0.475211
-0.460956
-0.441328
-0.411663
-0.373762
-0.331884
-0.289812
-0.250027
-0.213713
-0.181167
-0.152225
-0.126569
-0.103912
-0.0835982
-0.064744
-0.462953
-0.449
-0.428684
-0.397792
-0.358689
-0.315977
-0.273523
-0.233726
-0.197645
-0.165474
-0.136989
-0.111844
-0.0897354
-0.0698447
-0.0517064
-0.44823
-0.434634
-0.413694
-0.381714
-0.341625
-0.298327
-0.255728
-0.216125
-0.180446
-0.148795
-0.120901
-0.0963734
-0.0748871
-0.0555384
-0.038157
-0.431023
-0.417835
-0.39635
-0.363443
-0.322598
-0.278968
-0.236463
-0.197255
-0.162145
-0.131172
-0.103972
-0.0801716
-0.0593989
-0.0406882
-0.0241011
-0.411332
-0.398604
-0.376668
-0.34301
-0.301652
-0.257948
-0.215772
-0.177158
-0.142793
-0.112617
-0.0862391
-0.0632688
-0.0433007
-0.0253096
-0.0095716
-0.389186
-0.376968
-0.354687
-0.32047
-0.278856
-0.23534
-0.193696
-0.155879
-0.122417
-0.0931774
-0.0677397
-0.0457011
-0.0266252
-0.00942795
0.00539545
-0.364636
-0.352974
-0.330466
-0.295901
-0.254297
-0.211228
-0.17028
-0.133468
-0.101072
-0.0729024
-0.0485183
-0.02751
-0.00940993
0.00692143
0.0207613
-0.337753
-0.326691
-0.304088
-0.269407
-0.228048
-0.185576
-0.14569
-0.110008
-0.0788184
-0.0518458
-0.028625
-0.00874264
0.00830175
0.0236953
0.0364817
-0.308629
-0.298216
-0.275664
-0.241085
-0.200144
-0.158611
-0.119935
-0.0855672
-0.0557229
-0.0300672
-0.00811536
0.0105491
0.0264606
0.0408416
0.0524999
-0.277372
-0.267684
-0.245358
-0.210944
-0.170757
-0.130396
-0.0931135
-0.0602253
-0.0318583
-0.00763237
0.0129505
0.0303092
0.0450134
0.058301
0.0687437
-0.244105
-0.235245
-0.213319
-0.179056
-0.140026
-0.101045
-0.0653308
-0.0340698
-0.00730273
0.0153883
0.0345078
0.0504779
0.0639057
0.076017
0.0851483
-0.208962
-0.201027
-0.179305
-0.146001
-0.108101
-0.070676
-0.0366952
-0.0071952
0.0178603
0.0389193
0.0564863
0.0709903
0.0830848
0.0939457
0.101674
-0.172079
-0.165201
-0.143896
-0.111646
-0.0751158
-0.0394207
-0.00731948
0.0202992
0.0435431
0.0628817
0.0788127
0.0917831
0.102503
0.11202
0.11816
-0.133677
-0.127952
-0.107262
-0.0761568
-0.0412135
-0.0074132
0.0226779
0.0483092
0.0696537
0.0871941
0.101419
0.112813
0.122123
0.130052
0.134045
-0.0941741
-0.0893209
-0.0695217
-0.03972
-0.00654675
0.0252084
0.0531732
0.0767254
0.0960954
0.111773
0.124248
0.134065
0.141924
0.147779
0.14872
-0.0535746
-0.0496307
-0.030855
-0.00252082
0.0287216
0.0583
0.0840381
0.105433
0.122766
0.136532
0.147239
0.155505
0.161827
0.165202
0.163356
-0.0120803
-0.00911659
0.00853686
0.035253
0.0644233
0.0917127
0.11514
0.134313
0.149557
0.161375
0.170306
0.177002
0.181609
0.182505
0.182421
0.0300757
0.0320083
0.0484457
0.07341
0.100387
0.125294
0.146342
0.163243
0.176358
0.186204
0.193339
0.198379
0.201229
0.20063
0.201516
0.0726595
0.0735248
0.0886585
0.111755
0.136438
0.15889
0.177507
0.192099
0.203059
0.210915
0.216231
0.219568
0.220746
0.218961
0.219541
0.115438
0.115209
0.128961
0.150094
0.172402
0.192343
0.208495
0.220755
0.229545
0.235401
0.238883
0.240504
0.24009
0.237168
0.236897
0.158175
0.156835
0.169139
0.188229
0.208104
0.225499
0.239167
0.249084
0.255701
0.259556
0.261198
0.261107
0.259139
0.255024
0.253641
0.200638
0.198176
0.208978
0.225966
0.24337
0.258201
0.269382
0.276964
0.281416
0.283277
0.283085
0.281296
0.277793
0.272438
0.269813
0.242591
0.239006
0.248266
0.263113
0.278027
0.290297
0.299004
0.304268
0.306576
0.306463
0.304455
0.300987
0.295965
0.289346
0.285413
0.283806
0.279102
0.286794
0.299481
0.311906
0.321634
0.327898
0.330877
0.331072
0.329015
0.325219
0.320099
0.313582
0.305695
0.300422
0.324055
0.318244
0.324358
0.334884
0.344842
0.352066
0.35593
0.35667
0.354797
0.350838
0.345291
0.338554
0.330573
0.321434
0.314811
0.363116
0.356219
0.360758
0.369142
0.376674
0.381448
0.382973
0.381533
0.377648
0.371839
0.36459
0.35628
0.346876
0.336511
0.328546
0.400776
0.392819
0.395802
0.402081
0.407245
0.409641
0.408901
0.405353
0.399525
0.391928
0.383033
0.373205
0.362429
0.350875
0.341587
0.436827
0.427845
0.429303
0.433533
0.436408
0.436512
0.433595
0.428024
0.42033
0.411018
0.400545
0.38926
0.377171
0.364475
0.353896
0.471071
0.461104
0.461086
0.463339
0.464017
0.461932
0.456939
0.449441
0.439971
0.429027
0.417052
0.404381
0.391046
0.377261
0.365434
0.50332
0.492415
0.490981
0.491347
0.489939
0.485781
0.478826
0.469508
0.458362
0.445877
0.432484
0.418506
0.403997
0.389183
0.376161
0.533395
0.521608
0.518831
0.517415
0.514044
0.507943
0.499152
0.488131
0.475418
0.461494
0.446775
0.431575
0.415972
0.400196
0.386042
0.56113
0.548521
0.544487
0.541409
0.536215
0.528312
0.517821
0.505226
0.491063
0.475807
0.459862
0.443534
0.426921
0.410254
0.395041
0.586373
0.573007
0.567812
0.563205
0.556341
0.54679
0.534746
0.520712
0.505226
0.488753
0.471689
0.45433
0.436798
0.419317
0.403126
0.608981
0.59493
0.588683
0.582693
0.57432
0.563286
0.549844
0.534517
0.51784
0.500274
0.482203
0.463918
0.445561
0.427347
0.410268
0.628828
0.614169
0.606986
0.599769
0.590063
0.577718
0.563043
0.546574
0.528846
0.510315
0.491356
0.472255
0.45317
0.434309
0.41644
0.645802
0.630615
0.622621
0.614345
0.603489
0.590015
0.574277
0.556824
0.538192
0.51883
0.499105
0.479302
0.459592
0.440172
0.421619
0.659804
0.644174
0.635503
0.626343
0.614528
0.600113
0.58349
0.565219
0.545833
0.525778
0.505416
0.485026
0.464797
0.44491
0.425783
0.670751
0.654767
0.645557
0.635696
0.623121
0.607959
0.590634
0.571713
0.551729
0.531124
0.510255
0.489401
0.468758
0.448501
0.428917
0.678578
0.662329
0.652725
0.64235
0.629219
0.613512
0.595672
0.576273
0.555849
0.53484
0.513599
0.492402
0.471457
0.450927
0.431007
0.683232
0.666811
0.656961
0.646267
0.632787
0.616736
0.598572
0.578872
0.55817
0.536904
0.515427
0.494015
0.472876
0.452173
0.432043
0.684679
0.668181
0.658234
0.647416
0.6338
0.617612
0.599316
0.579492
0.558675
0.537303
0.515728
0.494225
0.473006
0.45223
0.432014
0.682901
0.666419
0.656528
0.645785
0.632244
0.616125
0.597892
0.578124
0.557356
0.536029
0.514494
0.493028
0.471842
0.451092
0.43092
0.677894
0.661523
0.651841
0.64137
0.628117
0.612276
0.594299
0.574766
0.554212
0.53308
0.511724
0.490423
0.469382
0.44876
0.428757
0.669673
0.653508
0.644185
0.634183
0.62143
0.606073
0.588546
0.569425
0.549249
0.528462
0.507425
0.486415
0.465632
0.445239
0.425533
0.658269
0.642402
0.633587
0.624248
0.612204
0.597535
0.580649
0.562118
0.542482
0.52219
0.501607
0.481015
0.460601
0.440538
0.421253
0.643728
0.62825
0.620088
0.611601
0.600473
0.586692
0.570636
0.552869
0.533933
0.514282
0.494289
0.474239
0.454304
0.434669
0.415927
0.626113
0.611112
0.603743
0.596293
0.58628
0.573584
0.558543
0.54171
0.523631
0.504766
0.485495
0.466108
0.446762
0.42765
0.409567
0.605502
0.591063
0.584621
0.578386
0.569681
0.558262
0.544416
0.528683
0.511613
0.493674
0.475254
0.45665
0.437998
0.419503
0.40219
0.581989
0.568193
0.562805
0.557954
0.550744
0.540786
0.528307
0.513836
0.497924
0.481046
0.463602
0.445895
0.428041
0.410254
0.393815
0.555683
0.542606
0.538391
0.535084
0.529546
0.521225
0.510281
0.497226
0.482613
0.466927
0.45058
0.433882
0.416926
0.399932
0.384466
0.526706
0.514421
0.511488
0.509873
0.506175
0.499657
0.490407
0.478916
0.465739
0.45137
0.436234
0.420651
0.40469
0.388573
0.374169
0.495197
0.48377
0.482218
0.482432
0.480728
0.476172
0.468765
0.458977
0.447365
0.434432
0.420617
0.406249
0.391375
0.376213
0.362952
0.461305
0.450797
0.450713
0.452879
0.453313
0.450865
0.445443
0.437489
0.427562
0.416176
0.403783
0.390727
0.377026
0.362893
0.350847
0.425194
0.41566
0.417119
0.421346
0.424048
0.423841
0.420533
0.414534
0.406406
0.396669
0.385795
0.374138
0.361693
0.348657
0.337889
0.38704
0.378526
0.381592
0.387973
0.393056
0.395213
0.394136
0.390205
0.383978
0.375986
0.366717
0.356541
0.345428
0.33355
0.324114
0.347027
0.339576
0.344296
0.352908
0.360472
0.365099
0.366361
0.364597
0.360364
0.354204
0.346619
0.337997
0.328284
0.317621
0.309559
0.305353
0.298998
0.305409
0.316311
0.326438
0.333627
0.33732
0.337813
0.335657
0.331404
0.325573
0.31857
0.31032
0.300918
0.294263
0.262224
0.256992
0.265112
0.278346
0.2911
0.300929
0.307132
0.309958
0.309951
0.307672
0.303656
0.298329
0.291594
0.283492
0.278263
0.217853
0.213763
0.223598
0.239187
0.254614
0.267143
0.275922
0.281145
0.283348
0.283098
0.280948
0.277343
0.272166
0.265393
0.261594
0.172461
0.169525
0.181066
0.199013
0.21714
0.232412
0.243817
0.251488
0.255949
0.257775
0.257531
0.255687
0.252102
0.246669
0.244289
0.126276
0.124498
0.137719
0.158009
0.178844
0.196884
0.210951
0.221107
0.227863
0.231798
0.233492
0.233438
0.231468
0.22737
0.226371
0.0795297
0.0789065
0.0937681
0.116363
0.139893
0.16071
0.177457
0.190123
0.1992
0.205266
0.208919
0.210678
0.210343
0.207548
0.207852
0.0324567
0.0329774
0.0494254
0.0742703
0.100461
0.124044
0.143476
0.158662
0.170071
0.178282
0.183903
0.187493
0.188816
0.18727
0.188723
-0.0147048
-0.0130597
0.0049072
0.0319258
0.0607241
0.0870432
0.109146
0.126849
0.140592
0.15095
0.158536
0.163966
0.166995
0.166637
0.168938
-0.0617165
-0.0589749
-0.0395692
-0.0104725
0.0208577
0.0498645
0.0746097
0.0948114
0.11088
0.123378
0.132916
0.140174
0.14501
0.14591
0.148442
-0.10834
-0.10454
-0.0837858
-0.0527261
-0.0189607
0.0126659
0.0400078
0.0626771
0.0810485
0.0956763
0.107146
0.116185
0.122935
0.125477
0.126783
-0.154337
-0.14953
-0.127525
-0.0946371
-0.0585544
-0.0243952
0.00548126
0.0305725
0.051213
0.0679507
0.0813363
0.0920594
0.100675
0.105983
0.105146
-0.199472
-0.193726
-0.170571
-0.13601
-0.0977486
-0.0611634
-0.0288311
-0.00137741
0.0214854
0.0403028
0.0556043
0.0679941
0.0782649
0.086338
0.0886869
-0.243521
-0.236897
-0.212712
-0.176653
-0.136371
-0.097486
-0.0627935
-0.0330503
-0.00802376
0.012829
0.0300394
0.0441372
0.0559748
0.066344
0.0721929
-0.286369
-0.278765
-0.253746
-0.216383
-0.174254
-0.133214
-0.0962739
-0.0643285
-0.037209
-0.0143812
0.00470018
0.0205217
0.0338934
0.0460111
0.0542701
-0.327856
-0.319133
-0.293511
-0.25502
-0.211233
-0.168203
-0.129146
-0.0950998
-0.0659709
-0.0412428
-0.0203579
-0.00284882
0.0120311
0.0256284
0.0356467
-0.367581
-0.357806
-0.331949
-0.292397
-0.24715
-0.202316
-0.161287
-0.125257
-0.0942152
-0.0676731
-0.045067
-0.0259364
-0.00958578
0.0053928
0.0169704
-0.405384
-0.394729
-0.368634
-0.328393
-0.281847
-0.235421
-0.192582
-0.154696
-0.121851
-0.0935905
-0.0693522
-0.0486772
-0.0309116
-0.0146289
-0.00159081
-0.441127
-0.4297
-0.403332
-0.362912
-0.315172
-0.267397
-0.222917
-0.18332
-0.148792
-0.118917
-0.0931409
-0.0710045
-0.051893
-0.0343934
-0.0200003
-0.474668
-0.462564
-0.436069
-0.395409
-0.347189
-0.298131
-0.252187
-0.211036
-0.174956
-0.14358
-0.116366
-0.0928564
-0.0724742
-0.0538421
-0.038188
-0.505882
-0.493175
-0.466742
-0.426062
-0.37749
-0.327485
-0.280291
-0.237758
-0.200267
-0.167509
-0.138964
-0.114175
-0.0925997
-0.0729125
-0.0560748
-0.534665
-0.521413
-0.4952
-0.454764
-0.405999
-0.355359
-0.307136
-0.263403
-0.224653
-0.190642
-0.160877
-0.134905
-0.112218
-0.091549
-0.0736004
-0.560928
-0.547179
-0.521324
-0.481376
-0.432688
-0.381649
-0.33265
-0.287901
-0.24805
-0.21292
-0.182052
-0.154998
-0.131282
-0.109705
-0.0907187
-0.584603
-0.570403
-0.545033
-0.505797
-0.457473
-0.406298
-0.356752
-0.311186
-0.270401
-0.234292
-0.20244
-0.174409
-0.149754
-0.127342
-0.10739
-0.605639
-0.591039
-0.566268
-0.527954
-0.480271
-0.429236
-0.379385
-0.333217
-0.291647
-0.254712
-0.222
-0.1931
-0.167599
-0.144429
-0.123579
-0.624013
-0.609063
-0.584993
-0.547796
-0.501018
-0.450402
-0.400493
-0.353933
-0.311774
-0.274136
-0.240698
-0.211039
-0.184789
-0.160942
-0.139248
-0.639723
-0.624476
-0.601192
-0.565289
-0.519669
-0.469748
-0.420035
-0.373295
-0.330729
-0.292552
-0.258506
-0.228198
-0.201299
-0.176873
-0.154361
-0.652796
-0.637302
-0.614875
-0.58042
-0.536197
-0.48724
-0.437979
-0.391279
-0.348485
-0.309926
-0.275409
-0.24457
-0.217098
-0.192217
-0.168913
-0.663279
-0.647592
-0.626072
-0.593197
-0.550591
-0.50286
-0.454304
-0.407865
-0.365028
-0.32624
-0.291384
-0.260131
-0.232195
-0.206916
-0.183037
-0.671246
-0.655419
-0.634843
-0.603651
-0.562858
-0.516599
-0.468999
-0.423044
-0.38035
-0.341487
-0.306422
-0.274869
-0.246563
-0.221008
-0.197217
-0.676793
-0.66088
-0.641266
-0.611834
-0.573021
-0.528466
-0.482063
-0.436813
-0.394448
-0.355664
-0.320521
-0.288783
-0.260202
-0.234379
-0.210467
-0.680036
-0.664094
-0.645445
-0.61782
-0.581125
-0.538481
-0.493508
-0.449179
-0.40733
-0.368779
-0.333684
-0.301869
-0.273101
-0.247026
-0.222864
-0.681113
-0.665199
-0.647505
-0.621703
-0.587231
-0.546681
-0.503355
-0.460158
-0.419008
-0.380842
-0.345921
-0.314133
-0.285271
-0.259018
-0.234636
-0.680177
-0.664351
-0.64759
-0.623599
-0.591419
-0.553116
-0.511637
-0.469774
-0.429503
-0.391874
-0.35725
-0.325594
-0.296733
-0.270399
-0.245884
-0.677397
-0.661721
-0.64586
-0.623642
-0.593785
-0.557851
-0.518396
-0.478059
-0.438842
-0.401898
-0.367696
-0.336276
-0.307509
-0.281182
-0.256625
-0.672953
-0.657491
-0.64249
-0.621982
-0.594444
-0.560963
-0.523685
-0.485053
-0.44706
-0.410947
-0.377288
-0.346207
-0.317621
-0.291378
-0.266858
-0.667034
-0.651848
-0.637664
-0.618785
-0.593525
-0.562544
-0.527568
-0.490801
-0.454193
-0.419054
-0.386058
-0.355415
-0.327097
-0.301007
-0.276596
-0.659834
-0.644989
-0.631576
-0.614228
-0.591173
-0.562699
-0.530116
-0.495356
-0.460285
-0.426258
-0.394041
-0.363934
-0.335965
-0.310094
-0.28586
-0.651549
-0.637108
-0.624422
-0.608493
-0.587541
-0.561544
-0.531411
-0.498776
-0.465382
-0.4326
-0.401276
-0.371799
-0.344259
-0.31867
-0.294676
-0.642371
-0.628395
-0.616394
-0.60177
-0.582795
-0.559206
-0.531544
-0.501125
-0.469533
-0.438122
-0.407802
-0.379048
-0.352015
-0.326767
-0.30307
-0.632489
-0.619037
-0.607683
-0.594245
-0.577102
-0.55582
-0.530612
-0.502473
-0.47279
-0.442869
-0.413662
-0.385721
-0.359271
-0.33442
-0.311072
-0.622083
-0.60921
-0.598471
-0.586104
-0.570637
-0.551528
-0.528721
-0.502893
-0.475209
-0.446887
-0.418896
-0.391858
-0.366065
-0.341666
-0.318716
-0.611324
-0.599077
-0.588926
-0.577522
-0.563568
-0.546479
-0.525983
-0.502464
-0.476844
-0.45022
-0.423547
-0.3975
-0.372439
-0.348546
-0.326037
-0.600367
-0.588789
-0.579204
-0.568664
-0.556062
-0.54082
-0.522514
-0.501268
-0.477754
-0.452912
-0.427655
-0.402687
-0.378431
-0.355099
-0.333073
-0.589355
-0.57848
-0.569445
-0.559681
-0.548275
-0.534698
-0.518434
-0.499394
-0.477998
-0.455008
-0.431258
-0.407457
-0.384084
-0.361367
-0.339865
-0.578413
-0.568267
-0.559771
-0.550705
-0.54035
-0.528254
-0.513866
-0.496931
-0.477638
-0.456551
-0.434393
-0.411848
-0.389436
-0.367391
-0.346455
-0.567651
-0.558252
-0.550284
-0.541852
-0.532417
-0.521622
-0.508929
-0.493971
-0.476737
-0.457583
-0.437093
-0.415893
-0.394525
-0.373214
-0.352887
-0.557163
-0.548518
-0.541071
-0.533219
-0.524586
-0.514922
-0.50374
-0.490611
-0.475361
-0.458147
-0.439389
-0.419621
-0.399385
-0.378876
-0.359205
-0.547024
-0.539133
-0.532199
-0.524882
-0.516951
-0.508263
-0.498408
-0.486943
-0.473579
-0.458286
-0.441308
-0.423058
-0.404047
-0.384415
-0.365457
-0.537299
-0.530152
-0.52372
-0.516901
-0.509586
-0.501736
-0.493033
-0.483062
-0.47146
-0.458044
-0.44288
-0.426226
-0.408539
-0.389867
-0.371691
-0.528039
-0.521615
-0.515674
-0.509319
-0.502549
-0.495417
-0.487706
-0.479056
-0.469078
-0.45747
-0.444129
-0.429143
-0.412881
-0.395264
-0.377957
-0.519282
-0.513553
-0.508085
-0.502166
-0.495881
-0.489364
-0.482502
-0.47501
-0.466506
-0.456614
-0.445084
-0.431823
-0.417092
-0.400633
-0.384308
-0.511059
-0.505988
-0.500971
-0.495461
-0.489611
-0.483626
-0.477488
-0.470999
-0.463819
-0.455532
-0.445775
-0.434279
-0.421181
-0.405996
-0.3908
-0.503395
-0.498934
-0.494342
-0.489214
-0.483758
-0.478236
-0.472717
-0.467096
-0.46109
-0.454283
-0.446236
-0.436523
-0.425155
-0.411362
-0.397488
-0.496306
-0.4924
-0.488203
-0.48343
-0.478334
-0.47322
-0.468236
-0.463362
-0.45839
-0.452931
-0.446508
-0.438567
-0.429012
-0.416733
-0.40443
-0.489802
-0.486389
-0.482554
-0.478111
-0.473346
-0.468599
-0.464082
-0.459856
-0.455788
-0.451541
-0.446637
-0.440427
-0.432748
-0.422093
-0.411682
-0.483888
-0.480899
-0.477391
-0.473254
-0.468798
-0.464388
-0.460288
-0.456627
-0.453351
-0.450184
-0.446676
-0.442124
-0.436349
-0.427408
-0.419278
-0.478558
-0.47592
-0.472703
-0.468852
-0.464689
-0.460596
-0.456879
-0.453723
-0.451142
-0.448928
-0.446684
-0.443683
-0.4398
-0.432616
-0.427248
-0.473794
-0.471434
-0.468475
-0.464892
-0.461013
-0.45723
-0.453875
-0.451179
-0.449215
-0.447841
-0.446724
-0.445138
-0.443074
-0.437649
-0.435422
-0.46957
-0.467414
-0.464681
-0.461354
-0.457756
-0.454283
-0.451285
-0.449023
-0.447617
-0.446985
-0.446858
-0.446535
-0.446142
-0.442366
-0.443645
-0.465842
-0.463823
-0.461287
-0.458207
-0.454893
-0.45174
-0.449104
-0.447266
-0.446378
-0.446408
-0.447146
-0.447929
-0.448953
-0.446666
-0.450244
-0.462554
-0.460612
-0.458251
-0.455413
-0.45239
-0.449572
-0.447312
-0.445901
-0.445508
-0.446141
-0.447636
-0.449394
-0.451483
-0.450985
-0.447951
-0.45964
-0.457726
-0.455519
-0.452921
-0.4502
-0.447734
-0.445871
-0.444897
-0.444993
-0.446189
-0.448358
-0.450987
-0.453842
-0.455742
-0.44973
-0.45702
-0.455097
-0.453032
-0.450673
-0.448265
-0.446171
-0.444725
-0.444206
-0.444791
-0.446527
-0.449313
-0.452739
-0.456274
-0.460467
-0.45429
-0.454612
-0.452657
-0.450724
-0.448605
-0.446519
-0.444812
-0.443804
-0.443754
-0.444835
-0.447098
-0.450464
-0.454616
-0.458829
-0.464706
-0.459262
-0.452327
-0.450332
-0.448527
-0.446648
-0.44489
-0.443583
-0.443024
-0.443456
-0.445037
-0.447818
-0.451733
-0.456534
-0.461432
-0.468407
-0.464133
-0.450079
-0.448049
-0.446372
-0.444734
-0.443307
-0.442403
-0.442298
-0.443214
-0.445292
-0.448578
-0.453016
-0.458395
-0.463982
-0.47168
-0.469033
-0.447784
-0.445737
-0.444191
-0.442793
-0.441695
-0.441191
-0.441535
-0.442925
-0.445488
-0.44926
-0.454189
-0.460091
-0.466352
-0.474573
-0.474142
-0.445367
-0.443328
-0.44192
-0.44076
-0.439983
-0.439867
-0.440643
-0.442488
-0.44551
-0.449739
-0.455126
-0.461496
-0.468384
-0.476961
-0.478453
-0.442759
-0.440763
-0.439501
-0.438574
-0.438106
-0.438358
-0.439539
-0.441807
-0.445253
-0.449898
-0.455696
-0.462488
-0.469936
-0.478797
-0.482165
-0.439902
-0.437987
-0.43688
-0.436181
-0.436004
-0.436596
-0.438148
-0.440796
-0.444618
-0.449629
-0.455786
-0.462948
-0.470885
-0.480017
-0.485129
-0.436748
-0.434957
-0.434013
-0.433533
-0.433625
-0.434524
-0.436401
-0.439379
-0.443521
-0.448841
-0.455299
-0.462774
-0.471125
-0.480524
-0.487147
-0.433264
-0.431636
-0.430862
-0.430589
-0.430926
-0.432092
-0.434246
-0.437495
-0.441896
-0.44746
-0.454152
-0.461878
-0.470562
-0.480216
-0.488096
-0.429425
-0.427999
-0.427401
-0.427321
-0.427873
-0.429264
-0.431641
-0.435101
-0.439692
-0.445428
-0.452283
-0.46019
-0.46912
-0.478995
-0.487887
-0.42522
-0.424029
-0.42361
-0.423707
-0.424443
-0.426015
-0.428559
-0.432164
-0.436875
-0.442708
-0.44965
-0.457657
-0.466737
-0.476774
-0.486437
-0.420651
-0.419723
-0.419481
-0.419739
-0.420626
-0.422333
-0.424987
-0.428671
-0.43343
-0.439282
-0.446227
-0.454245
-0.463371
-0.473484
-0.483673
-0.415728
-0.415085
-0.415018
-0.415416
-0.416422
-0.418217
-0.420924
-0.424622
-0.429355
-0.435147
-0.442008
-0.44994
-0.458997
-0.469078
-0.479545
-0.410474
-0.410132
-0.410232
-0.41075
-0.411841
-0.41368
-0.416386
-0.420034
-0.424669
-0.430319
-0.437005
-0.444743
-0.453614
-0.463533
-0.47404
-0.404922
-0.404888
-0.405147
-0.405762
-0.406907
-0.408747
-0.411399
-0.414936
-0.419402
-0.424831
-0.431249
-0.438691
-0.447231
-0.456828
-0.467173
-0.399111
-0.399388
-0.399792
-0.400484
-0.401652
-0.403453
-0.406003
-0.40937
-0.413601
-0.41873
-0.424789
-0.431821
-0.439898
-0.449004
-0.458996
-0.393096
-0.393667
-0.394205
-0.394954
-0.396116
-0.397843
-0.400245
-0.403391
-0.407325
-0.41208
-0.417692
-0.424205
-0.431687
-0.440153
-0.449515
-0.386923
-0.387776
-0.388432
-0.389218
-0.390349
-0.391969
-0.394185
-0.397063
-0.400643
-0.404959
-0.410042
-0.415935
-0.422699
-0.430372
-0.438891
-0.380648
-0.381765
-0.382523
-0.383327
-0.384403
-0.385888
-0.387886
-0.390456
-0.393636
-0.397453
-0.401936
-0.407119
-0.413054
-0.41979
-0.42727
-0.37433
-0.375685
-0.376528
-0.377333
-0.378336
-0.379664
-0.381416
-0.383647
-0.386387
-0.389659
-0.393481
-0.397881
-0.402894
-0.408565
-0.414848
-0.368023
-0.36959
-0.3705
-0.371292
-0.372206
-0.373361
-0.374847
-0.376714
-0.378986
-0.381675
-0.384792
-0.38835
-0.39237
-0.396877
-0.401846
-0.361784
-0.363532
-0.364493
-0.365259
-0.366072
-0.36704
-0.368247
-0.369735
-0.371519
-0.373601
-0.375981
-0.378661
-0.38164
-0.384914
-0.388493
-0.377749
-0.380394
-0.382515
-0.383452
-0.382684
-0.379545
-0.373575
-0.364711
-0.3536
-0.34176
-0.331443
-0.325185
-0.325118
-0.332156
-0.345295
-0.361307
-0.375383
-0.38135
-0.372742
-0.345246
-0.300838
-0.247985