/*--------------------------------*- C++ -*----------------------------------*\
  =========                 |
  \\      /  F ield         | OpenFOAM: The Open Source CFD Toolbox
   \\    /   O peration     | Website:  https://openfoam.org
    \\  /    A nd           | Version:  7
     \\/     M anipulation  |
\*---------------------------------------------------------------------------*/
FoamFile
{
    version     2.0;
    format      ascii;
    class       surfaceScalarField;
    location    "90";
    object      phi;
}
// * * * * * * * * * * * * * * * * * * * * * * * * * * * * * * * * * * * * * //

dimensions      [0 3 -1 0 0 0 0];

internalField   nonuniform List<scalar> 
29260
(
-3.77742e-06
-7.36504e-05
7.74279e-05
-1.40405e-05
-0.000180016
0.000190279
-3.01776e-05
-0.000255612
0.00027175
-5.15713e-05
-0.000303833
0.000325227
-7.76404e-05
-0.000329148
0.000355217
-0.000107895
-0.000336565
0.00036682
-0.000141969
-0.000330917
0.000364991
-0.000179634
-0.000316206
0.000353872
-0.000220804
-0.00029511
0.00033628
-0.000265537
-0.00026873
0.000313463
-0.000314047
-0.0002366
0.00028511
-0.000366729
-0.000196855
0.000249537
-0.000424168
-0.000146498
0.000203937
-0.000487108
-8.14891e-05
0.000144429
4.06717e-06
6.53745e-05
-0.00055655
-4.08193e-06
-6.95685e-05
-1.49869e-05
-0.000169111
-3.19074e-05
-0.000238692
-5.40831e-05
-0.000281657
-8.0842e-05
-0.000302389
-0.000111648
-0.000305759
-0.000146122
-0.000296443
-0.000184042
-0.000278287
-0.000225331
-0.000253821
-0.000270049
-0.000224012
-0.000318395
-0.000188254
-0.000370721
-0.000144529
-0.000427536
-8.96834e-05
-0.00048945
-1.95752e-05
7.17917e-05
-0.000557174
-4.31926e-06
-6.52492e-05
-1.57035e-05
-0.000157727
-3.31673e-05
-0.000221228
-5.58152e-05
-0.000259009
-8.28832e-05
-0.000275321
-0.000113777
-0.000274865
-0.000148085
-0.000262136
-0.000185561
-0.000240811
-0.000226104
-0.000213278
-0.000269732
-0.000180384
-0.000316575
-0.00014141
-0.000366883
-9.42212e-05
-0.000421026
-3.55408e-05
-0.000479415
3.88139e-05
0.000134808
-0.000542431
-4.49455e-06
-6.07547e-05
-1.62099e-05
-0.000146011
-3.40005e-05
-0.000203438
-5.68437e-05
-0.000236166
-8.38802e-05
-0.000248284
-0.000114447
-0.000244298
-0.000148078
-0.000228505
-0.000184477
-0.000204411
-0.000223485
-0.000174271
-0.000265035
-0.000138833
-0.000309144
-9.73015e-05
-0.000355905
-4.74601e-05
-0.000405496
1.40497e-05
-0.000458098
9.14157e-05
0.000190428
-0.000513718
-4.61547e-06
-5.61392e-05
-1.65333e-05
-0.000134093
-3.44648e-05
-0.000185506
-5.72667e-05
-0.000213364
-8.39819e-05
-0.000221569
-0.000113867
-0.000214413
-0.000146383
-0.000195989
-0.000181158
-0.000169635
-0.000217942
-0.000137487
-0.000256552
-0.000100224
-0.000296845
-5.70085e-05
-0.000338718
-5.58712e-06
-0.000382116
5.74476e-05
-0.000426963
0.000136263
0.000236369
-0.000472904
-4.69158e-06
-5.14476e-05
-1.67067e-05
-0.000122078
-3.46285e-05
-0.000167584
-5.71988e-05
-0.000190794
-8.33608e-05
-0.000195407
-0.00011228
-0.000185494
-0.000143327
-0.000164942
-0.000176034
-0.000136927
-0.000210032
-0.000103489
-0.000244989
-6.52674e-05
-0.000280573
-2.14243e-05
-0.000316446
3.02855e-05
-0.000352296
9.32982e-05
-0.000387784
0.000171751
0.000270813
-0.000422227
-4.73356e-06
-4.67141e-05
-1.67662e-05
-0.000110046
-3.45652e-05
-0.000149785
-5.67632e-05
-0.000168596
-8.22013e-05
-0.000169969
-0.000109946
-0.00015775
-0.000139264
-0.000135624
-0.000169573
-0.000106618
-0.000200364
-7.26987e-05
-0.000231131
-3.45003e-05
-0.000261327
8.77139e-06
-0.000290354
5.93123e-05
-0.000317621
0.000120565
-0.000342535
0.000196665
0.000292435
-0.000364157
-4.75235e-06
-4.19617e-05
-1.67482e-05
-9.80498e-05
-3.43488e-05
-0.000132185
-5.60822e-05
-0.000146863
-8.06871e-05
-0.000145364
-0.000107125
-0.000131312
-0.00013455
-0.000108198
-0.000162251
-7.89176e-05
-0.000189563
-4.53866e-05
-0.000215791
-8.27276e-06
-0.00024015
3.31304e-05
-0.000261763
8.09261e-05
-0.000279749
0.000138551
-0.000293281
0.000210198
0.000300396
-0.000301243
-4.75824e-06
-3.72035e-05
-1.66865e-05
-8.61215e-05
-3.40474e-05
-0.000114824
-5.52686e-05
-0.000125642
-7.89874e-05
-0.000121645
-0.000104058
-0.000106242
-0.000129516
-8.27392e-05
-0.000154514
-5.39197e-05
-0.000178224
-2.16767e-05
-0.000199749
1.32516e-05
-0.000218054
5.14363e-05
-0.00023197
9.48416e-05
-0.000240307
0.000146888
-0.000242032
0.000211923
0.000294302
-0.000235937
-4.75997e-06
-3.24435e-05
-1.66095e-05
-7.4272e-05
-3.37173e-05
-9.77159e-05
-5.44154e-05
-0.000104943
-7.7242e-05
-9.88187e-05
-0.000100944
-8.25396e-05
-0.00012444
-5.92433e-05
-0.000146743
-3.16174e-05
-0.000166859
-1.56079e-06
-0.000183686
3.00786e-05
-0.000195935
6.36859e-05
-0.000202128
0.000101035
-0.000200754
0.000145514
-0.000190586
0.000201755
0.000274124
-0.000170409
-4.76383e-06
-2.76797e-05
-1.6537e-05
-6.24988e-05
-3.33979e-05
-8.0855e-05
-5.3587e-05
-8.47543e-05
-7.55476e-05
-7.68581e-05
-9.79235e-05
-6.01637e-05
-0.000119517
-3.76501e-05
-0.000139206
-1.19286e-05
-0.000155836
1.50693e-05
-0.000168103
4.2346e-05
-0.000174463
7.00459e-05
-0.000173118
9.96895e-05
-0.000162204
0.0001346
-0.000140321
0.000179872
0.000240166
-0.000106362
-4.773e-06
-2.29067e-05
-1.64787e-05
-5.07931e-05
-3.31069e-05
-6.42268e-05
-5.28113e-05
-6.50499e-05
-7.39448e-05
-5.57246e-05
-9.50534e-05
-3.90551e-05
-0.000114829
-1.78748e-05
-0.000132021
5.26425e-06
-0.000145325
2.83723e-05
-0.000153241
5.02623e-05
-0.000153972
7.07773e-05
-0.000145387
9.11045e-05
-0.000125207
0.00011442
-9.18489e-05
0.000146514
0.000193402
-4.50849e-05
-4.78704e-06
-1.81197e-05
-1.64316e-05
-3.91485e-05
-3.28369e-05
-4.78216e-05
-5.20737e-05
-4.58131e-05
-7.24093e-05
-3.5389e-05
-9.22969e-05
-1.91674e-05
-0.000110324
1.52488e-07
-0.000125122
2.00622e-05
-0.000135241
3.84907e-05
-0.000139001
5.40226e-05
-0.000134356
6.6132e-05
-0.000118818
7.55667e-05
-8.95863e-05
8.51884e-05
-4.45401e-05
0.000101467
0.000133626
1.52354e-05
-4.80165e-06
-1.3318e-05
-1.63804e-05
-2.75698e-05
-3.25543e-05
-3.16477e-05
-5.13146e-05
-2.70529e-05
-7.08464e-05
-1.58572e-05
-8.95134e-05
-5.00412e-07
-0.000105802
1.64414e-05
-0.000118229
3.24886e-05
-0.000125206
4.54685e-05
-0.000124886
5.37026e-05
-0.000114981
5.62267e-05
-9.26284e-05
5.3214e-05
-5.43638e-05
4.69237e-05
3.65082e-06
4.34528e-05
5.84481e-05
7.88289e-05
-4.80888e-06
-8.50912e-06
-1.62973e-05
-1.60814e-05
-3.22001e-05
-1.57449e-05
-5.04307e-05
-8.82224e-06
-6.90925e-05
2.80463e-06
-8.64581e-05
1.68652e-05
-0.00010091
3.08932e-05
-0.000110844
4.24227e-05
-0.000114536
4.91604e-05
-0.000109969
4.91358e-05
-9.46299e-05
4.08874e-05
-6.53095e-05
2.38937e-05
-1.81498e-05
-2.36004e-07
5.0791e-05
-2.5488e-05
-3.43925e-05
0.000143632
-4.79767e-06
-3.71146e-06
-1.61441e-05
-4.73491e-06
-3.16933e-05
-1.95727e-07
-4.92806e-05
8.76508e-06
-6.69234e-05
2.04474e-05
-8.27942e-05
3.2736e-05
-9.51578e-05
4.32568e-05
-0.000102273
4.95377e-05
-0.000102257
4.91442e-05
-9.29096e-05
3.97887e-05
-7.14899e-05
1.94678e-05
-3.44422e-05
-1.3154e-05
2.2721e-05
-5.73992e-05
0.000104858
-0.000107625
-0.000145184
0.000215649
-4.75479e-06
1.04333e-06
-1.58753e-05
6.38562e-06
-3.09374e-05
1.48664e-05
-4.7695e-05
2.55227e-05
-6.40691e-05
3.68215e-05
-7.81147e-05
4.67816e-05
-8.79525e-05
5.30946e-05
-9.16686e-05
5.32537e-05
-8.71803e-05
4.46559e-05
-7.20635e-05
2.46719e-05
-4.33246e-05
-9.2711e-06
2.92156e-06
-5.94002e-05
7.17204e-05
-0.000126198
0.000169017
-0.000204921
-0.000276298
0.000300131
-4.66622e-06
5.70956e-06
-1.54424e-05
1.71618e-05
-2.98287e-05
2.92528e-05
-4.54908e-05
4.11848e-05
-6.02368e-05
5.15674e-05
-7.19765e-05
5.85213e-05
-7.8647e-05
5.97651e-05
-7.81091e-05
5.27158e-05
-6.8016e-05
3.45627e-05
-4.5651e-05
2.30692e-06
-7.71546e-06
-4.72066e-05
4.99648e-05
-0.00011708
0.000132908
-0.000209142
0.000248015
-0.000320027
-0.000430475
0.000402191
-4.51866e-06
1.02282e-05
-1.47984e-05
2.74414e-05
-2.82659e-05
4.27203e-05
-4.24877e-05
5.54066e-05
-5.51363e-05
6.42159e-05
-6.39402e-05
6.73253e-05
-6.6602e-05
6.24269e-05
-6.06904e-05
4.68041e-05
-4.35138e-05
1.73862e-05
-1.19798e-05
-2.92271e-05
3.75706e-05
-9.67571e-05
0.000109621
-0.000189131
0.000209929
-0.00030945
0.000346126
-0.000456225
-0.000610142
0.000525794
-4.30109e-06
1.45293e-05
-1.39033e-05
3.70437e-05
-2.61605e-05
5.49775e-05
-3.8526e-05
6.7772e-05
-4.85083e-05
7.41983e-05
-5.36129e-05
7.24299e-05
-5.125e-05
6.00641e-05
-3.86242e-05
3.41783e-05
-1.26142e-05
-8.62376e-06
3.03358e-05
-7.2177e-05
9.43149e-05
-0.000160736
0.000184061
-0.000278877
0.000305319
-0.000430707
0.000466162
-0.000617068
-0.000816602
0.000672622
-4.00618e-06
1.85355e-05
-1.27285e-05
4.5766e-05
-2.3446e-05
6.5695e-05
-3.34814e-05
7.78074e-05
-4.01488e-05
8.08657e-05
-4.06855e-05
7.29666e-05
-3.21523e-05
5.15308e-05
-1.1321e-05
1.3347e-05
2.54293e-05
-4.53741e-05
8.21849e-05
-0.000128933
0.000163493
-0.000242045
0.00027429
-0.000389673
0.000419957
-0.000576375
0.000608697
-0.000805809
-0.00104921
0.000841308
-3.63122e-06
2.21667e-05
-1.12595e-05
5.33943e-05
-2.00838e-05
7.45193e-05
-2.72772e-05
8.50008e-05
-2.99271e-05
8.35157e-05
-2.496e-05
6.79995e-05
-9.03693e-06
3.56077e-05
2.15546e-05
-1.72445e-05
7.09807e-05
-9.48002e-05
0.000143873
-0.000201825
0.000245207
-0.000343378
0.00037999
-0.000524456
0.000552864
-0.000749249
0.000771649
-0.00102459
-0.00130495
0.00102738
-3.17852e-06
2.53452e-05
-9.49767e-06
5.97135e-05
-1.60669e-05
8.10885e-05
-1.98886e-05
8.88225e-05
-1.77937e-05
8.14207e-05
-6.36088e-06
5.65667e-05
1.81859e-05
1.1061e-05
6.00703e-05
-5.9129e-05
0.000124006
-0.000158736
0.000215129
-0.000292948
0.000338727
-0.000466976
0.000499687
-0.000685416
0.000701547
-0.000951109
0.000950357
-0.0012734
-0.00157871
0.00122412
-2.65495e-06
2.80002e-05
-7.45891e-06
6.45174e-05
-1.14176e-05
8.50472e-05
-1.13415e-05
8.87464e-05
-3.77766e-06
7.38568e-05
1.507e-05
3.7719e-05
4.94331e-05
-2.33021e-05
0.000104042
-0.000113738
0.00018411
-0.000238804
0.00029516
-0.000403998
0.000442611
-0.000614427
0.000631029
-0.000873834
0.000862811
-0.00118289
0.00113886
-0.00154946
-0.00186412
0.00142427
-2.07086e-06
3.0071e-05
-5.17092e-06
6.76175e-05
-6.18235e-06
8.60586e-05
-1.70244e-06
8.42665e-05
1.20273e-05
6.01271e-05
3.91936e-05
1.05528e-05
8.44797e-05
-6.85883e-05
0.00015308
-0.000182339
0.000250594
-0.000336318
0.000382729
-0.000536132
0.000554728
-0.000786427
0.000770571
-0.00108968
0.00103217
-0.00144449
0.00133395
-0.00185123
-0.00215574
0.00162556
-1.43818e-06
3.15092e-05
-2.66926e-06
6.88486e-05
-4.20324e-07
8.38097e-05
8.93553e-06
7.49107e-05
2.94849e-05
3.95777e-05
6.58055e-05
-2.57678e-05
0.000123003
-0.000125786
0.000206648
-0.000265984
0.000322546
-0.000452215
0.000476264
-0.00068985
0.000672382
-0.000982545
0.000913516
-0.00133081
0.00120019
-0.00173116
0.00152719
-0.00217823
-0.00258326
0.00195471
-7.6758e-07
3.22768e-05
3.69064e-08
6.80441e-05
5.80244e-06
7.80442e-05
2.04705e-05
6.02426e-05
4.84419e-05
1.16063e-05
9.4671e-05
-7.19969e-05
0.000164628
-0.000195743
0.000264126
-0.000365482
0.00039892
-0.000587009
0.000574012
-0.000864943
0.000792688
-0.00120122
0.00105534
-0.00159346
0.00135955
-0.00203537
0.0016959
-0.00251458
-0.00297137
0.00208401
-7.64407e-08
3.23532e-05
2.84917e-06
6.51185e-05
1.24246e-05
6.84688e-05
3.28099e-05
3.98572e-05
6.87526e-05
-2.43364e-05
0.000125556
-0.000128801
0.000208967
-0.000279154
0.000324852
-0.000481367
0.00047859
-0.000740747
0.000674125
-0.00106048
0.000912791
-0.00143989
0.00119209
-0.00187276
0.00150554
-0.00234883
0.00184093
-0.00284996
-0.00333065
0.0022002
6.40236e-07
3.1713e-05
5.81878e-06
5.99399e-05
1.94139e-05
5.48737e-05
4.5884e-05
1.33871e-05
9.02959e-05
-6.87483e-05
0.000158248
-0.000196753
0.000255631
-0.000376537
0.000388126
-0.000613862
0.000560342
-0.000912962
0.000774625
-0.00127476
0.00102978
-0.00169504
0.00132005
-0.00216303
0.00163524
-0.00266401
0.00196096
-0.00317569
-0.00366217
0.00229248
1.37401e-06
3.0339e-05
8.91142e-06
5.24025e-05
2.67507e-05
3.70344e-05
5.9652e-05
-1.95141e-05
0.000112981
-0.000122078
0.000192551
-0.000276322
0.000304224
-0.000488211
0.000453187
-0.000762825
0.000642829
-0.0011026
0.000873369
-0.0015053
0.00114065
-0.00196232
0.0014357
-0.00245808
0.00174539
-0.00297371
0.00205453
-0.00348482
-0.00396414
0.0023565
2.13074e-06
2.82082e-05
1.21358e-05
4.23975e-05
3.44392e-05
1.47309e-05
7.41003e-05
-5.91752e-05
0.000136743
-0.00018472
0.000228276
-0.000367855
0.00035431
-0.000614245
0.000519169
-0.000927685
0.000724543
-0.00130798
0.000968064
-0.00174882
0.00124245
-0.00223671
0.00153588
-0.0027515
0.00183358
-0.00327141
0.00212096
-0.00377221
-0.00423507
0.0023919
2.91815e-06
2.52901e-05
1.55106e-05
2.9805e-05
4.25013e-05
-1.22597e-05
8.92329e-05
-0.000105907
0.000161518
-0.000257005
0.000265207
-0.000471544
0.000405373
-0.00075441
0.000585064
-0.00110738
0.000803805
-0.00152672
0.00105634
-0.00200136
0.00133241
-0.00251278
0.00161814
-0.00303724
0.0018985
-0.00355177
0.00216079
-0.0040345
-0.0044749
0.00240062
3.74707e-06
2.1543e-05
1.90616e-05
1.44905e-05
5.09672e-05
-4.41653e-05
0.000105055
-0.000159995
0.000187227
-0.000339177
0.000303068
-0.000587385
0.000456777
-0.00090812
0.000649699
-0.0013003
0.000878805
-0.00175582
0.00113589
-0.00225844
0.00140823
-0.00278511
0.00168095
-0.00330996
0.00194004
-0.00381086
0.00217567
-0.00427013
-0.00468488
0.00238566
4.62942e-06
1.69136e-05
2.28154e-05
-3.69552e-06
5.98636e-05
-8.12135e-05
0.000121554
-0.000221686
0.000213738
-0.000431361
0.000341484
-0.00071513
0.000507746
-0.00107438
0.000711752
-0.0015043
0.000947699
-0.00199177
0.00120465
-0.0025154
0.00146822
-0.00304868
0.00172372
-0.00356545
0.0019592
-0.00404634
0.0021681
-0.00447903
-0.00486734
0.00235055
5.57622e-06
1.13374e-05
2.67939e-05
-2.49132e-05
6.92022e-05
-0.000123622
0.000138681
-0.000291164
0.000240851
-0.000533531
0.000379968
-0.000854246
0.000557358
-0.00125177
0.000769811
-0.00171676
0.00100873
-0.0022307
0.00126098
-0.00276764
0.0015115
-0.0032992
0.00174682
-0.00380078
0.00195777
-0.00425729
0.00214105
-0.00466231
-0.00502515
0.00229886
6.59586e-06
4.74153e-06
3.10088e-05
-4.93262e-05
7.89689e-05
-0.000171582
0.000156334
-0.000368529
0.000268277
-0.000645474
0.000417913
-0.00100388
0.000604587
-0.00143845
0.000822463
-0.00193463
0.0010604
-0.00246863
0.00130378
-0.00301103
0.00153791
-0.00353333
0.00175139
-0.00401426
0.00193809
-0.00444398
0.00209765
-0.00482188
-0.00516141
0.00223392
7.69285e-06
-2.95132e-06
3.54574e-05
-7.70907e-05
8.91175e-05
-0.000225242
0.000174354
-0.000453766
0.000295637
-0.000766757
0.000454612
-0.00116286
0.000648357
-0.00163219
0.000868402
-0.00215468
0.00110153
-0.00270175
0.00133255
-0.00324206
0.00154802
-0.0037488
0.00173913
-0.00420537
0.00190273
-0.00460758
0.00204092
-0.00496007
-0.00527912
0.00215863
8.86711e-06
-1.18184e-05
4.0121e-05
-0.000108345
9.95666e-05
-0.000284687
0.000192522
-0.000546721
0.000322477
-0.000896713
0.000489296
-0.00132968
0.000687614
-0.00183051
0.000906529
-0.00237359
0.0011314
-0.00292663
0.00134737
-0.00345802
0.00154292
-0.00394434
0.00171204
-0.0043745
0.00185428
-0.00474982
0.00197356
-0.00507935
-0.005381
0.00207544
1.01138e-05
-2.19323e-05
4.4964e-05
-0.000143195
0.0001102
-0.000349924
0.000210564
-0.000647085
0.000348283
-0.00103443
0.000521176
-0.00150257
0.000721407
-0.00203074
0.000936033
-0.00258822
0.00114976
-0.00314035
0.00134881
-0.00365707
0.00152407
-0.0041196
0.00167227
-0.0045227
0.00179517
-0.00487272
0.00189795
-0.00518213
-0.00546939
0.00198633
1.14237e-05
-3.33559e-05
4.99358e-05
-0.000181707
0.000120872
-0.000420859
0.000228167
-0.000754381
0.00037251
-0.00117878
0.0005495
-0.00167956
0.000748955
-0.0022302
0.00095643
-0.00279569
0.00115674
-0.00334067
0.00133784
-0.00383816
0.00149315
-0.00427492
0.0016219
-0.00465145
0.00172757
-0.00497839
0.00181603
-0.00527059
-0.00554622
0.00189286
1.27834e-05
-4.61394e-05
5.49721e-05
-0.000223896
0.000131411
-0.000497298
0.00024499
-0.000867959
0.000394619
-0.0013284
0.0005736
-0.00185854
0.000769688
-0.00242628
0.000967572
-0.00299358
0.00115288
-0.00352597
0.00131566
-0.00400094
0.00145189
-0.00441116
0.00156289
-0.00476245
0.00165335
-0.00506885
0.0017294
-0.00534664
-0.00561304
0.00179622
1.41765e-05
-6.03158e-05
5.99984e-05
-0.000269717
0.000141632
-0.000578931
0.000260684
-0.000987011
0.000414101
-0.00148182
0.000592931
-0.00203737
0.000783276
-0.00261663
0.000969612
-0.00317991
0.00113894
-0.00369529
0.00128362
-0.00414562
0.00140197
-0.00452951
0.00149698
-0.00485745
0.00157409
-0.00514596
0.00163933
-0.00541188
-0.00567105
0.00169734
1.55837e-05
-7.58995e-05
6.49329e-05
-0.000319067
0.000151338
-0.000665337
0.00027491
-0.00111058
0.000430511
-0.00163742
0.000607101
-0.00221396
0.000789624
-0.00279915
0.000962963
-0.00335325
0.00111589
-0.00384822
0.0012431
-0.00427284
0.00134496
-0.00463137
0.00142568
-0.00493817
0.00149105
-0.00521134
0.00154678
-0.00546761
-0.00572115
0.00159688
1.6984e-05
-9.28834e-05
6.96891e-05
-0.000371772
0.000160337
-0.000755985
0.000287354
-0.0012376
0.000443487
-0.00179355
0.000615878
-0.00238635
0.000788854
-0.00297213
0.000948229
-0.00351263
0.00108479
-0.00398478
0.00119545
-0.0043835
0.00128226
-0.00471818
0.00135026
-0.00500617
0.00140527
-0.00526635
0.00145252
-0.00551485
-0.00576401
0.00149537
1.83549e-05
-0.000111238
7.41795e-05
-0.000427596
0.000168442
-0.000850248
0.000297742
-0.0013669
0.000452765
-0.00194858
0.000619194
-0.00255278
0.000781269
-0.0031342
0.000926151
-0.00365751
0.00104673
-0.00410535
0.00114192
-0.00447869
0.0012151
-0.00479136
0.00127177
-0.00506284
0.00131757
-0.00531215
0.00135712
-0.0055544
-0.00580009
0.0013932
1.96735e-05
-0.000130912
7.83182e-05
-0.000486241
0.000175482
-0.000947411
0.000305849
-0.00149727
0.000458186
-0.00210091
0.000617127
-0.00271172
0.000767314
-0.00328439
0.000897541
-0.00378773
0.00100277
-0.00421058
0.00108366
-0.00455958
0.00114453
-0.00485223
0.00119108
-0.00510938
0.00122857
-0.00534965
0.00126102
-0.00558686
-0.00582973
0.00129067
2.09166e-05
-0.000151829
8.20238e-05
-0.000547348
0.000181307
-0.00104669
0.000311509
-0.00162747
0.000459695
-0.0022491
0.000609882
-0.00286191
0.000747533
-0.00342204
0.000863242
-0.00390344
0.000953925
-0.00430127
0.00102166
-0.00462732
0.00107143
-0.004902
0.00110886
-0.00514681
0.00113877
-0.00537955
0.00116457
-0.00561266
-0.00585316
0.001188
2.20616e-05
-0.00017389
8.52218e-05
-0.000610508
0.000185795
-0.00114727
0.000314618
-0.00175629
0.000457332
-0.00239181
0.000597766
-0.00300235
0.000722532
-0.00354681
0.000824085
-0.004005
0.000901105
-0.00437829
0.000956806
-0.00468302
0.000996526
-0.00494172
0.00102568
-0.00517596
0.00104855
-0.00540243
0.00106801
-0.00563212
-0.00587053
0.00108538
2.30871e-05
-0.000196977
8.7847e-05
-0.000675268
0.000188853
-0.00124827
0.000315134
-0.00188257
0.000451223
-0.0025279
0.000581162
-0.00313228
0.000692943
-0.00365859
0.000780862
-0.00409292
0.000845136
-0.00444256
0.000889828
-0.00472771
0.00092041
-0.0049723
0.000941952
-0.0051975
0.000958223
-0.0054187
0.000971569
-0.00564546
-0.00588193
0.000982972
2.39735e-05
-0.000220951
8.98455e-05
-0.00074114
0.00019042
-0.00134885
0.00031307
-0.00200522
0.000441565
-0.0026564
0.000560499
-0.00325122
0.000659401
-0.00375749
0.000734309
-0.00416782
0.000786744
-0.004495
0.000821354
-0.00476232
0.000843568
-0.00499452
0.000858035
-0.00521197
0.000868014
-0.00542868
0.000875403
-0.00565285
-0.00588744
0.000880911
2.47056e-05
-0.000245656
9.11798e-05
-0.000807615
0.000190474
-0.00144814
0.000308505
-0.00212325
0.000428616
-0.00277651
0.000536245
-0.00335885
0.000622529
-0.00384377
0.000685109
-0.0042304
0.000726567
-0.00453645
0.000751915
-0.00478767
0.000766398
-0.005009
0.000774209
-0.00521978
0.000778126
-0.0054326
0.000779665
-0.00565439
-0.0058871
0.000779324
2.52648e-05
-0.000270921
9.18133e-05
-0.000874163
0.000189005
-0.00154533
0.000301531
-0.00223578
0.000412644
-0.00288762
0.000508844
-0.00345505
0.000582882
-0.00391781
0.000633835
-0.00428136
0.000665118
-0.00456774
0.000681917
-0.00480447
0.000689192
-0.00501627
0.00069067
-0.00522125
0.000688689
-0.00543062
0.00068445
-0.00565015
-0.00588094
0.000678293
2.56415e-05
-0.000296563
9.17344e-05
-0.000940256
0.000186047
-0.00163965
0.000292307
-0.00234204
0.000393969
-0.00298928
0.000478762
-0.00353984
0.000541004
-0.00398005
0.000581026
-0.00432138
0.000602865
-0.00458958
0.000611724
-0.00481333
0.000612215
-0.00501676
0.000607604
-0.00521664
0.000599842
-0.00542286
0.000589873
-0.00564018
-0.005869
0.000577926
2.58272e-05
-0.00032239
9.09405e-05
-0.00100537
0.000181655
-0.00173036
0.000281004
-0.00244139
0.000372913
-0.00308119
0.000446437
-0.00361336
0.00049738
-0.004031
0.000527141
-0.00435114
0.000540188
-0.00460262
0.000541624
-0.00481477
0.00053567
-0.00501081
0.000525156
-0.00520613
0.000511695
-0.00540939
0.000496026
-0.00562451
-0.00585128
0.000478306
2.58164e-05
-0.000348206
8.94412e-05
-0.00106899
0.000175905
-0.00181682
0.000267817
-0.0025333
0.000349796
-0.00316317
0.000412279
-0.00367585
0.000452444
-0.00407116
0.000472574
-0.00437127
0.000477408
-0.00460746
0.000471853
-0.00480921
0.000459723
-0.00499868
0.000443443
-0.00518985
0.000424338
-0.00539029
0.000402989
-0.00560317
-0.00582778
0.000379494
2.56072e-05
-0.000373813
8.72569e-05
-0.00113064
0.000168888
-0.00189846
0.000252949
-0.00261736
0.000324933
-0.00323516
0.000376667
-0.00372758
0.000406578
-0.00410107
0.000417662
-0.00438235
0.000414789
-0.00460458
0.000402605
-0.00479703
0.000384512
-0.00498059
0.000362565
-0.0051679
0.000337846
-0.00536557
0.000310828
-0.00557615
-0.00579849
0.000281535
2.52006e-05
-0.000399014
8.44173e-05
-0.00118986
0.000160708
-0.00197475
0.000236607
-0.00269326
0.000298622
-0.00329717
0.000339946
-0.0037689
0.000360119
-0.00412125
0.000362691
-0.00438493
0.000352552
-0.00459445
0.000334042
-0.00477852
0.000310158
-0.0049567
0.000282617
-0.00514036
0.000252292
-0.00533525
0.000219591
-0.00554345
-0.00576339
0.000184489
2.46002e-05
-0.000423614
8.096e-05
-0.00124622
0.000151478
-0.00204526
0.000218997
-0.00276078
0.000271142
-0.00334931
0.000302424
-0.00380019
0.000313356
-0.00413218
0.000307901
-0.00437947
0.000290881
-0.00457742
0.000266297
-0.00475393
0.000236767
-0.00492717
0.000203709
-0.0051073
0.000167804
-0.00529934
0.000129285
-0.00550493
-0.00572243
8.83243e-05
2.38125e-05
-0.000447427
7.69288e-05
-0.00129934
0.000141313
-0.00210965
0.000200319
-0.00281979
0.000242753
-0.00339175
0.000264376
-0.00382181
0.000266539
-0.00413434
0.000253495
-0.00436643
0.000229924
-0.00455385
0.000199481
-0.00472349
0.000164428
-0.00489212
0.000125935
-0.00506881
8.4582e-05
-0.00525799
4.02663e-05
-0.00546061
-0.00567335
-8.80729e-06
2.28456e-05
-0.000470272
7.23718e-05
-0.00134886
0.000130332
-0.00216761
0.000180762
-0.00287022
0.000213691
-0.00342468
0.000226043
-0.00383416
0.000219882
-0.00412818
0.000199641
-0.00434619
0.000169806
-0.00452402
0.000133687
-0.00468737
9.3217e-05
-0.00485165
4.93243e-05
-0.00502492
2.37185e-06
-0.00521104
-4.72334e-05
-0.00541101
-0.00562086
-9.97244e-05
2.171e-05
-0.000491982
6.73404e-05
-0.00139449
0.00011865
-0.00221892
0.000160506
-0.00291207
0.000184169
-0.00344834
0.000187636
-0.00383763
0.000173564
-0.00411411
0.000146476
-0.0043191
0.000110628
-0.00448817
6.89929e-05
-0.00464574
2.31838e-05
-0.00480584
-2.6028e-05
-0.00497571
-7.82563e-05
-0.00515881
-0.000133605
-0.00535566
-0.00556306
-0.000191404
2.04172e-05
-0.0005124
6.18875e-05
-0.00143596
0.000106381
-0.00226341
0.000139717
-0.00294541
0.000154377
-0.003463
0.000149337
-0.00383259
0.000127739
-0.00409251
9.41173e-05
-0.00428548
5.24741e-05
-0.00444653
5.41809e-06
-0.00459868
-4.55886e-05
-0.00475483
-0.000100043
-0.00492125
-0.000157716
-0.00510113
-0.000218475
-0.0052949
-0.00549958
-0.000281957
1.89803e-05
-0.00053138
5.60668e-05
-0.00147305
9.36327e-05
-0.00230098
0.000118546
-0.00297032
0.000124483
-0.00346894
0.000111305
-0.00381941
8.2533e-05
-0.00406374
4.26563e-05
-0.0042456
-4.61939e-06
-0.00439925
-5.68665e-05
-0.00454643
-0.000113057
-0.00469864
-0.000172738
-0.00486157
-0.000235768
-0.0050381
-0.000301968
-0.0052287
-0.00543049
-0.00037106
1.74132e-05
-0.000548793
4.99315e-05
-0.00150557
8.05081e-05
-0.00233155
9.71332e-05
-0.00298695
9.46372e-05
-0.00346644
7.367e-05
-0.00379844
3.80529e-05
-0.00402812
-7.82348e-06
-0.00419972
-6.0483e-05
-0.00434659
-0.000117917
-0.004489
-0.00017919
-0.00463737
-0.000244031
-0.00479673
-0.000312364
-0.00496977
-0.000384013
-0.00515705
-0.00535586
-0.000458643
1.57311e-05
-0.000564524
4.35341e-05
-0.00153337
6.71029e-05
-0.00235512
7.56072e-05
-0.00299545
6.49761e-05
-0.00345581
3.65307e-05
-0.00377
-5.60012e-06
-0.00398599
-5.72393e-05
-0.00414808
-0.00011519
-0.00428864
-0.000177665
-0.00442653
-0.000243939
-0.0045711
-0.000313866
-0.0047268
-0.000387448
-0.00489619
-0.000464521
-0.00507998
-0.00527575
-0.000544625
1.39501e-05
-0.000578474
3.69247e-05
-0.00155635
5.35069e-05
-0.00237171
5.40786e-05
-0.00299602
3.56222e-05
-0.00343735
2.31376e-07
-0.00373461
-4.83353e-05
-0.00393742
-0.000105574
-0.00409085
-0.000168661
-0.00422556
-0.000236075
-0.00435911
-0.000307265
-0.00449991
-0.000382194
-0.00465187
-0.000460958
-0.00481742
-0.000543414
-0.00499752
-0.00519023
-0.000628934
1.20895e-05
-0.000590564
3.01522e-05
-0.00157441
3.98061e-05
-0.00238136
3.26478e-05
-0.00298887
6.71678e-06
-0.00341142
-3.5772e-05
-0.00369212
-9.01843e-05
-0.00388301
-0.000152775
-0.00402826
-0.000220861
-0.00415747
-0.000293116
-0.00428686
-0.000369131
-0.00442389
-0.000448971
-0.00457203
-0.000532832
-0.00473356
-0.000620616
-0.00490974
-0.00509936
-0.000711495
1.01677e-05
-0.000600732
2.32674e-05
-0.00158751
2.60735e-05
-0.00238417
1.14591e-05
-0.00297425
-2.18879e-05
-0.00337808
-7.08146e-05
-0.00364319
-0.000131021
-0.0038228
-0.000198803
-0.00396047
-0.000271763
-0.00408451
-0.000348763
-0.00420986
-0.00042951
-0.00434314
-0.000514156
-0.00448739
-0.000603008
-0.00464471
-0.000696056
-0.00481669
-0.00500317
-0.000792244
8.1962e-06
-0.000608928
1.63382e-05
-0.00159565
1.23548e-05
-0.00238018
-9.51724e-06
-0.00295238
-4.98703e-05
-0.00333772
-0.000105056
-0.00358801
-0.000170815
-0.00375705
-0.00024363
-0.00388766
-0.000321344
-0.0040068
-0.000402994
-0.00412821
-0.00048838
-0.00425776
-0.00057772
-0.00439805
-0.000671441
-0.00455099
-0.000769669
-0.00471846
-0.00490175
-0.00087109
6.18006e-06
-0.000615108
9.41857e-06
-0.00159889
-6.16499e-07
-0.00237015
-3.02327e-05
-0.00292276
-7.72795e-05
-0.00329068
-0.000138449
-0.00352684
-0.000209538
-0.00368596
-0.00028723
-0.00380997
-0.000369586
-0.00392444
-0.000455794
-0.004042
-0.000545726
-0.00416783
-0.000639644
-0.00430413
-0.000738102
-0.00445253
-0.0008414
-0.00461516
-0.00479527
-0.000947875
4.1124e-06
-0.00061922
2.41172e-06
-0.00159719
-1.48182e-05
-0.00235292
-5.06417e-05
-0.00288694
-0.000104042
-0.00323728
-0.000170948
-0.00345993
-0.000247163
-0.00360974
-0.000329582
-0.00372755
-0.000416471
-0.00383755
-0.000507148
-0.00395132
-0.000601536
-0.00407344
-0.00069992
-0.00420575
-0.000802974
-0.00434948
-0.000911201
-0.00450694
-0.00468391
-0.00102256
1.94382e-06
-0.000621164
-4.65985e-06
-0.00159058
-2.81369e-05
-0.00232944
-7.05858e-05
-0.00284449
-0.000130108
-0.00317775
-0.000202508
-0.00338753
-0.000283662
-0.00352859
-0.000370667
-0.00364054
-0.000461982
-0.00374624
-0.000557041
-0.00385626
-0.000655802
-0.00397468
-0.000758548
-0.004103
-0.000866046
-0.00424198
-0.000979083
-0.0043939
-0.00456753
-0.00109547
-4.62075e-07
-0.000620702
-1.17268e-05
-0.00157932
-4.12242e-05
-0.00229994
-9.00275e-05
-0.00279569
-0.000155437
-0.00311234
-0.000233103
-0.00330986
-0.000319012
-0.00344268
-0.000410465
-0.00354909
-0.000506102
-0.0036506
-0.000605463
-0.0037569
-0.000708531
-0.00387161
-0.000815577
-0.00399595
-0.000927385
-0.00413017
-0.00104502
-0.00427627
-0.00444587
-0.00116667
-2.36305e-06
-0.000618339
-1.85974e-05
-0.00156309
-5.40449e-05
-0.00226449
-0.000108943
-0.00274079
-0.000179993
-0.00304129
-0.000262706
-0.00322715
-0.000353193
-0.00335219
-0.000448957
-0.00345332
-0.000548807
-0.00355075
-0.000652385
-0.00365332
-0.000759726
-0.00376427
-0.000871128
-0.00388455
-0.000987285
-0.00401401
-0.0011088
-0.00415475
-0.00431912
-0.00123555
-4.4414e-06
-0.000613898
-2.5345e-05
-0.00154218
-6.65628e-05
-0.00222328
-0.000127306
-0.00268005
-0.00020375
-0.00296485
-0.000291294
-0.00313961
-0.000386185
-0.0032573
-0.000486119
-0.00335339
-0.000590062
-0.0034468
-0.000697756
-0.00354563
-0.000809326
-0.0036527
-0.000925177
-0.0037687
-0.001046
-0.00389319
-0.00117275
-0.004028
-0.00419384
-0.00129803
-6.52756e-06
-0.00060737
-3.19569e-05
-0.00151675
-7.87394e-05
-0.00217649
-0.000145082
-0.0026137
-0.000226675
-0.00288326
-0.000318841
-0.00304744
-0.000417962
-0.00315818
-0.000521921
-0.00324943
-0.000629824
-0.0033389
-0.000741506
-0.00343395
-0.000857188
-0.00353702
-0.000977331
-0.00364856
-0.00110184
-0.00376869
-0.00122914
-0.0039007
-0.00404566
-0.00137732
-8.59411e-06
-0.000598776
-3.84274e-05
-0.00148692
-9.05678e-05
-0.00212435
-0.000162265
-0.00254201
-0.000248769
-0.00279675
-0.00034535
-0.00295086
-0.00044853
-0.003055
-0.000556366
-0.0031416
-0.000668091
-0.00322718
-0.000783621
-0.00331842
-0.000903202
-0.00341744
-0.00102713
-0.00352463
-0.00115526
-0.00364056
-0.00128892
-0.00376703
-0.00389996
-0.00143463
-1.06239e-05
-0.000588152
-4.47296e-05
-0.00145281
-0.000102016
-0.00206707
-0.000178824
-0.0024652
-0.000270006
-0.00270557
-0.000370799
-0.00285007
-0.000477868
-0.00294793
-0.000589431
-0.00303003
-0.00070484
-0.00311177
-0.000824073
-0.00319919
-0.000947386
-0.00329412
-0.00107504
-0.00339698
-0.00120727
-0.00350833
-0.00134556
-0.00362874
-0.00375403
-0.0014915
-1.26088e-05
-0.000575543
-5.08463e-05
-0.00141458
-0.000113063
-0.00200485
-0.000194741
-0.00238352
-0.000290371
-0.00260994
-0.000395179
-0.00274526
-0.000505968
-0.00283714
-0.000621108
-0.00291489
-0.000740054
-0.00299282
-0.000862836
-0.0030764
-0.00098971
-0.00316725
-0.00112095
-0.00326574
-0.00125695
-0.00337233
-0.00139871
-0.00348698
-0.00360625
-0.00154648
-1.45421e-05
-0.000561001
-5.67622e-05
-0.00137236
-0.000123693
-0.00193792
-0.000210001
-0.00229721
-0.000309855
-0.00251008
-0.000418482
-0.00263663
-0.000532823
-0.0027228
-0.000651388
-0.00279633
-0.000773725
-0.00287048
-0.000899904