/*--------------------------------*- C++ -*----------------------------------*\
  =========                 |
  \\      /  F ield         | OpenFOAM: The Open Source CFD Toolbox
   \\    /   O peration     | Website:  https://openfoam.org
    \\  /    A nd           | Version:  7
     \\/     M anipulation  |
\*---------------------------------------------------------------------------*/
FoamFile
{
    version     2.0;
    format      ascii;
    class       volVectorField;
    location    "80";
    object      U;
}
// * * * * * * * * * * * * * * * * * * * * * * * * * * * * * * * * * * * * * //

dimensions      [0 1 -1 0 0 0 0];

internalField   nonuniform List<vector> 
8500
(
(1.03705 0.366017 -3.14899e-21)
(1.02545 0.382838 -4.39592e-20)
(1.02659 0.365992 7.41156e-20)
(1.01236 0.401929 -6.48813e-20)
(1.01416 0.382581 9.60015e-20)
(1.01601 0.365631 -1.21165e-19)
(0.998628 0.422891 -4.13402e-20)
(1.00043 0.401473 1.54737e-19)
(1.00276 0.381975 -9.47001e-20)
(1.00534 0.364919 3.05182e-20)
(0.986094 0.422197 6.99808e-20)
(0.988457 0.400653 8.05671e-20)
(0.991268 0.381011 -2.8647e-19)
(0.994592 0.363835 6.71169e-20)
(0.97115 0.444042 9.62994e-20)
(0.97353 0.421099 -1.22295e-19)
(0.976452 0.399462 5.05015e-20)
(0.979719 0.379673 3.10358e-19)
(0.983784 0.36234 1.87364e-19)
(0.955008 0.467041 -4.17751e-20)
(0.957853 0.442617 -1.55626e-19)
(0.960957 0.419586 -5.33672e-20)
(0.964445 0.397893 -1.8855e-19)
(0.968131 0.377946 9.6986e-20)
(0.972959 0.360383 -2.22306e-19)
(0.940859 0.465241 -3.46414e-20)
(0.944529 0.440739 -2.05169e-20)
(0.948387 0.417647 1.05884e-19)
(0.952452 0.395933 2.09139e-19)
(0.956557 0.375813 -3.55026e-19)
(0.962293 0.357929 2.44211e-19)
(0.922242 0.489004 -4.15932e-21)
(0.926675 0.462954 -7.0777e-21)
(0.931188 0.438398 1.94653e-19)
(0.935821 0.415268 -7.5446e-20)
(0.940473 0.393553 -1.50597e-19)
(0.94511 0.373226 -5.91902e-21)
(0.952073 0.35499 -3.45038e-19)
(0.90714 0.486256 -1.00236e-19)
(0.912471 0.460177 5.67823e-20)
(0.917834 0.435593 1.5929e-19)
(0.923243 0.41244 4.89677e-20)
(0.928507 0.39071 -2.85329e-19)
(0.93393 0.370042 -9.80929e-21)
(0.942268 0.351379 1.08103e-19)
(0.885736 0.510643 -5.95582e-20)
(0.89203 0.482984 -1.27801e-20)
(0.898263 0.45691 -1.70016e-19)
(0.904473 0.432328 -8.9957e-20)
(0.91064 0.409178 -1.02355e-19)
(0.91657 0.387434 3.36897e-19)
(0.923092 0.366247 -7.91867e-20)
(0.931835 0.345464 3.01117e-19)
(0.862241 0.536061 -1.85245e-19)
(0.869674 0.506808 8.11117e-20)
(0.876933 0.479187 1.32401e-19)
(0.884068 0.453155 5.56197e-20)
(0.891118 0.428613 1.49906e-19)
(0.898035 0.405503 7.27457e-20)
(0.904689 0.383793 -2.01032e-20)
(0.912158 0.36262 1.66396e-19)
(0.920868 0.34192 2.6009e-20)
(0.845181 0.531594 -8.45397e-20)
(0.853645 0.502407 -2.47585e-19)
(0.86187 0.474863 -1.65496e-20)
(0.869908 0.448913 -1.10152e-19)
(0.877791 0.42445 1.72436e-19)
(0.885461 0.401417 -2.69427e-19)
(0.892835 0.379766 -6.95482e-20)
(0.90099 0.358622 -1.05572e-19)
(0.90971 0.337935 -3.86898e-19)
(0.818242 0.557169 -2.9427e-20)
(0.828175 0.526514 -9.83924e-21)
(0.837671 0.497438 -3.9016e-20)
(0.846865 0.470014 -8.61005e-20)
(0.855804 0.444184 -1.24717e-19)
(0.864519 0.41984 6.69199e-20)
(0.872947 0.396922 2.16816e-19)
(0.88104 0.375371 -1.17673e-19)
(0.889816 0.354335 1.55042e-19)
(0.898742 0.33385 4.45688e-19)
(0.800225 0.551341 -3.89231e-19)
(0.811249 0.520823 -1.87911e-19)
(0.821778 0.491903 5.2245e-20)
(0.831939 0.46464 7.23205e-20)
(0.841777 0.43897 2.54909e-19)
(0.851322 0.414783 -3.5915e-19)
(0.860512 0.392019 1.0651e-19)
(0.86932 0.370606 6.4817e-20)
(0.8787 0.349734 -9.34202e-20)
(0.887957 0.329539 -3.3491e-19)
(0.769334 0.576457 -3.15397e-19)
(0.782312 0.544852 2.74869e-19)
(0.794428 0.51452 3.34838e-19)
(0.80599 0.485802 2.74618e-19)
(0.817114 0.458742 2.01765e-19)
(0.82785 0.433271 -4.38497e-19)
(0.838223 0.40928 -3.98545e-21)
(0.848175 0.386707 -1.19772e-19)
(0.857694 0.365473 4.65344e-19)
(0.867681 0.344813 -2.07508e-20)
(0.877344 0.324945 -2.32013e-19)
(0.750423 0.569108 2.73069e-19)
(0.764532 0.537703 6.66677e-21)
(0.777738 0.507609 1.10391e-19)
(0.790329 0.479137 -1.75141e-19)
(0.802415 0.452322 -2.21845e-19)
(0.814043 0.42709 5.63593e-19)
(0.825241 0.403333 2.28604e-19)
(0.835955 0.380988 -2.37813e-19)
(0.846185 0.359968 -2.76782e-19)
(0.856786 0.339563 -3.13445e-19)
(0.866904 0.320043 -2.77493e-20)
(0.731673 0.561049 1.5207e-19)
(0.746912 0.5299 5.98227e-20)
(0.761207 0.500091 -3.06727e-19)
(0.774821 0.471911 3.26058e-19)
(0.787863 0.445382 2.0033e-19)
(0.800379 0.420429 -7.94382e-20)
(0.812399 0.396942 -1.54498e-19)
(0.823872 0.37486 1.35845e-19)
(0.834811 0.354091 -2.35668e-19)
(0.846032 0.333976 -3.30229e-19)
(0.856638 0.314821 3.20312e-19)
(0.695184 0.583647 4.79467e-19)
(0.713115 0.552283 -2.40878e-19)
(0.729483 0.521445 2.98042e-19)
(0.744858 0.491971 -3.46938e-19)
(0.75949 0.464127 4.5727e-20)
(0.77348 0.437927 -1.40497e-19)
(0.786878 0.41329 1.01577e-19)
(0.799715 0.390111 9.66221e-20)
(0.811945 0.368325 -6.03447e-20)
(0.823591 0.347841 5.88362e-19)
(0.835437 0.328046 -7.78278e-20)
(0.846551 0.30927 -2.7357e-19)
(0.675718 0.573878 -3.47987e-19)
(0.694779 0.542817 5.03365e-19)
(0.71227 0.512345 -5.54096e-20)
(0.728719 0.483255 1.44598e-19)
(0.744359 0.455791 1.76152e-19)
(0.759289 0.429959 7.10629e-20)
(0.773561 0.405677 -4.91041e-19)
(0.787208 0.382841 1.10823e-19)
(0.800191 0.361386 1.05309e-19)
(0.812542 0.341218 -3.5332e-19)
(0.825013 0.321771 1.3401e-19)
(0.836651 0.303385 5.18069e-20)
(0.633717 0.592902 -5.15108e-20)
(0.656508 0.563357 -6.05593e-21)
(0.676697 0.532659 8.06391e-20)
(0.695301 0.502606 -1.40518e-19)
(0.712814 0.473948 -1.91244e-20)
(0.729452 0.446908 -5.47696e-19)
(0.745312 0.421484 -4.23928e-19)
(0.760449 0.397594 -7.15071e-20)
(0.774899 0.375136 -6.14412e-20)
(0.788628 0.354043 -6.85758e-20)
(0.801679 0.334222 -1.40671e-19)
(0.814773 0.31515 -1.64297e-19)
(0.826944 0.297166 -2.22068e-19)
(0.613733 0.581337 -9.97757e-20)
(0.637586 0.552092 -4.60809e-20)
(0.658897 0.521818 -4.81021e-19)
(0.678605 0.492237 -4.59309e-19)
(0.697168 0.464057 8.56048e-20)
(0.714791 0.437484 7.52382e-19)
(0.731571 0.412508 1.13724e-19)
(0.747562 0.389047 3.07589e-19)
(0.762804 0.367 -4.81417e-19)
(0.777272 0.346301 -1.15246e-19)
(0.791018 0.326856 5.78108e-19)
(0.804729 0.308183 2.59174e-19)
(0.817438 0.290614 1.06965e-18)
(0.594071 0.568973 -6.34636e-20)
(0.618986 0.540095 3.27569e-19)
(0.641409 0.510304 -2.05104e-19)
(0.662207 0.481246 1.52315e-19)
(0.681806 0.453591 3.51074e-19)
(0.700401 0.427527 -2.43127e-19)
(0.718085 0.403038 6.25584e-20)
(0.734918 0.380042 3.03736e-19)
(0.750943 0.358439 3.86571e-19)
(0.76614 0.338164 -2.03379e-19)
(0.780572 0.319123 -1.17913e-19)
(0.794894 0.300873 1.80783e-19)
(0.808142 0.283731 -5.29256e-19)
(0.544861 0.580258 7.39966e-20)
(0.574768 0.555825 2.07993e-19)
(0.60074 0.527379 -3.1176e-19)
(0.624262 0.498127 7.44487e-19)
(0.646135 0.469643 3.13939e-19)
(0.666753 0.442559 -1.06328e-19)
(0.686303 0.417045 -3.41402e-20)
(0.704877 0.393081 1.44257e-19)
(0.722538 0.370584 -4.02984e-19)
(0.739332 0.349458 3.34374e-20)
(0.755248 0.329637 -2.637e-19)
(0.770356 0.311027 -1.18116e-19)
(0.78528 0.293223 -5.28182e-19)
(0.799066 0.276522 -2.30975e-19)
(0.52506 0.566062 -2.59818e-19)
(0.555858 0.541906 1.40483e-19)
(0.582878 0.513957 -8.65903e-20)
(0.607484 0.485301 -2.69333e-19)
(0.630413 0.457441 2.95297e-19)
(0.652033 0.430972 3.19127e-19)
(0.672519 0.406048 -1.04028e-21)
(0.691966 0.382646 -7.41645e-20)
(0.710439 0.360683 -4.21394e-20)
(0.72799 0.340065 3.18339e-19)
(0.744612 0.320726 2.88072e-19)
(0.760383 0.302575 8.1271e-20)
(0.775898 0.285238 5.56434e-19)
(0.790219 0.268992 1.8329e-19)
(0.505687 0.551043 -9.44128e-20)
(0.537375 0.527235 -1.61806e-19)
(0.565431 0.499845 -6.19073e-20)
(0.591103 0.471839 -8.97782e-21)
(0.615068 0.444651 -6.4619e-19)
(0.637667 0.41884 -8.26777e-19)
(0.65907 0.394546 -1.29073e-19)
(0.679372 0.371743 2.93069e-19)
(0.698641 0.350347 -1.16383e-19)
(0.716931 0.330268 -5.98324e-19)
(0.734245 0.311439 5.66819e-19)
(0.750668 0.293772 8.23971e-20)
(0.76676 0.276924 -2.32244e-19)
(0.78161 0.261148 3.67938e-19)
(0.448841 0.550152 1.09113e-19)
(0.486778 0.535223 3.80661e-19)
(0.519352 0.511829 -1.33423e-19)
(0.548429 0.485058 2.04049e-19)
(0.575146 0.457756 3.93376e-19)
(0.600124 0.431287 2.16868e-19)
(0.62368 0.406176 9.21802e-19)
(0.645979 0.382551 4.26713e-19)
(0.667114 0.360381 -3.56984e-20)
(0.68716 0.339585 -2.24746e-20)
(0.706174 0.320074 7.6147e-20)
(0.724164 0.301783 -6.26016e-19)
(0.741222 0.284625 -3.38089e-19)
(0.757878 0.268288 1.46733e-19)
(0.773251 0.252997 -5.10289e-19)
(0.42986 0.533453 8.18081e-20)
(0.468369 0.518622 -4.84939e-19)
(0.501821 0.495707 3.69908e-19)
(0.531901 0.469614 -1.73126e-19)
(0.559639 0.443068 -4.02321e-19)
(0.585604 0.417363 -9.83137e-20)
(0.610094 0.392994 -3.80111e-19)
(0.633264 0.370074 -7.99993e-19)
(0.655212 0.348572 6.90524e-20)
(0.676014 0.328408 6.46274e-19)
(0.695733 0.309495 -2.85037e-19)
(0.714382 0.291768 3.5082e-19)
(0.73206 0.275143 4.75752e-19)
(0.749264 0.259336 3.08587e-19)
(0.76515 0.244546 2.37081e-19)
(0.411409 0.515932 2.93682e-19)
(0.450496 0.501263 5.14525e-19)
(0.484814 0.478891 -6.2864e-19)
(0.515875 0.453532 4.99983e-19)
(0.544608 0.427791 4.03016e-19)
(0.571534 0.402895 -1.17353e-19)
(0.596929 0.379307 -6.29757e-20)
(0.620946 0.35713 2.32962e-19)
(0.643684 0.336329 -4.04951e-19)
(0.665221 0.316827 -5.47279e-19)
(0.685623 0.298539 2.09716e-19)
(0.704914 0.281402 -2.14573e-19)
(0.723193 0.265334 -2.58337e-19)
(0.740928 0.250078 -2.26164e-19)
(0.757317 0.235804 2.2826e-20)
(0.393526 0.497614 -5.08832e-19)
(0.433191 0.48317 -4.08018e-20)
(0.468361 0.461401 3.0415e-20)
(0.500377 0.436831 -5.25391e-20)
(0.530077 0.411944 -5.05545e-19)
(0.557934 0.3879 -2.23081e-20)
(0.584207 0.365131 -8.40419e-20)
(0.609045 0.343731 5.11959e-19)
(0.632547 0.323664 -1.60733e-19)
(0.654795 0.304854 -4.6276e-20)
(0.675861 0.287219 2.7625e-19)
(0.695772 0.270696 8.12928e-19)
(0.714634 0.255208 -8.30101e-20)
(0.732883 0.240522 -9.92755e-20)
(0.749763 0.22678 1.71463e-19)
(0.330105 0.478837 3.64113e-19)
(0.376246 0.478527 -2.15771e-19)
(0.416488 0.464367 -3.51849e-19)
(0.452489 0.443261 3.49986e-19)
(0.485435 0.419534 -1.18004e-19)
(0.51607 0.395546 3.31654e-19)
(0.544828 0.372395 1.52938e-19)
(0.571949 0.350483 -9.05137e-20)
(0.597578 0.329894 -3.48303e-19)
(0.621818 0.310592 4.35416e-19)
(0.644754 0.292502 -1.10218e-19)
(0.666459 0.275545 -4.84843e-19)
(0.686971 0.259661 -1.67926e-19)
(0.706395 0.244775 -5.33623e-20)
(0.725139 0.230678 8.46069e-19)
(0.742496 0.217483 -5.48899e-19)
(0.313376 0.459328 -2.70306e-19)
(0.359606 0.458698 5.35313e-19)
(0.400417 0.444883 9.74035e-20)
(0.437229 0.424495 2.65325e-19)
(0.471073 0.40166 1.98817e-19)
(0.502611 0.378618 -5.48726e-19)
(0.532236 0.356399 -2.90285e-19)
(0.560172 0.335379 5.43007e-19)
(0.586564 0.315634 -1.82753e-20)
(0.611514 0.297126 -4.50373e-19)
(0.635111 0.279784 1.1635e-19)
(0.657433 0.263531 5.65666e-19)
(0.678522 0.248309 -4.62143e-19)
(0.698487 0.234047 -1.89194e-19)
(0.717707 0.220555 -1.67465e-19)
(0.735527 0.207923 3.74966e-19)
(0.297303 0.43906 -3.65087e-19)
(0.343637 0.438158 -1.5932e-19)
(0.385008 0.424743 -6.74489e-20)
(0.422606 0.405128 -5.30161e-19)
(0.457316 0.383235 -4.06462e-19)
(0.489722 0.361179 5.4392e-19)
(0.520178 0.33993 3.04427e-19)
(0.548898 0.319837 -2.40105e-19)
(0.57602 0.300968 -2.80155e-19)
(0.601651 0.283283 3.06208e-19)
(0.625882 0.266714 -1.74788e-19)
(0.648795 0.25119 2.53991e-19)
(0.670438 0.236652 1.22945e-19)
(0.690921 0.223034 4.81948e-19)
(0.710596 0.210165 9.72686e-20)
(0.728863 0.198111 -4.43384e-19)
(0.281922 0.418066 -7.48883e-20)
(0.328372 0.416939 -2.1363e-19)
(0.37029 0.403977 1.88495e-19)
(0.408645 0.385187 7.04901e-20)
(0.444187 0.364281 -2.11667e-19)
(0.477423 0.343253 1.42703e-19)
(0.508675 0.323011 -3.81931e-19)
(0.538142 0.303877 -8.57648e-20)
(0.565962 0.285912 3.54637e-19)
(0.592244 0.269078 1.2714e-19)
(0.617081 0.253309 2.01398e-19)
(0.640558 0.238536 -3.84145e-19)
(0.662731 0.224703 -1.49337e-19)
(0.683709 0.211748 -5.08631e-20)
(0.703818 0.199519 7.11448e-20)
(0.722514 0.188059 4.07332e-19)
(0.267265 0.39638 -1.67318e-19)
(0.313841 0.395072 3.69673e-19)
(0.35629 0.382615 5.91888e-19)
(0.395372 0.364699 1.70064e-19)
(0.431707 0.344824 2.3298e-19)
(0.465735 0.324863 -3.39167e-21)
(0.497744 0.305661 1.12698e-19)
(0.527922 0.287517 3.98172e-19)
(0.556407 0.270486 -5.88514e-20)
(0.583307 0.254528 -7.23832e-19)
(0.608721 0.239583 6.22528e-21)
(0.632735 0.225583 4.12995e-20)
(0.655411 0.212476 3.85094e-20)
(0.67686 0.200203 -2.39376e-19)
(0.697381 0.188629 -2.23374e-19)
(0.716488 0.177776 -4.38108e-19)
(0.202512 0.357326 -1.12343e-19)
(0.253365 0.374039 2.2322e-19)
(0.300073 0.372592 2.20658e-19)
(0.343033 0.360688 -2.20416e-19)
(0.382809 0.343692 2.65172e-20)
(0.419899 0.32489 -1.45998e-19)
(0.454677 0.306031 3.66089e-20)
(0.487403 0.287902 -4.46432e-21)
(0.518255 0.270779 -1.78253e-19)
(0.547369 0.254707 -8.07697e-20)
(0.574855 0.239651 4.80974e-19)
(0.600814 0.225552 -3.6327e-19)
(0.625337 0.212347 2.45313e-19)
(0.64849 0.199985 1.00367e-19)
(0.670384 0.188411 -2.32852e-20)
(0.691295 0.177507 7.44002e-21)
(0.710793 0.167276 2.41262e-19)
(0.18989 0.335619 3.11277e-19)
(0.240251 0.35108 -1.72883e-19)
(0.287094 0.349532 -3.0599e-19)
(0.330544 0.338228 -1.86652e-19)
(0.370978 0.322196 -3.64457e-19)
(0.408781 0.304505 3.00266e-19)
(0.444268 0.286784 -2.47734e-19)
(0.477669 0.269759 5.33522e-20)
(0.509156 0.253682 3.78525e-20)
(0.538862 0.238596 -1.65381e-19)
(0.5669 0.224466 1.93859e-19)
(0.593373 0.211234 2.95063e-19)
(0.618376 0.198843 -2.63894e-19)
(0.641978 0.187243 -3.04128e-19)
(0.664291 0.176386 5.86555e-19)
(0.685568 0.166166 -5.31771e-19)
(0.705436 0.15657 1.95758e-19)
(0.17804 0.313315 -2.59868e-19)
(0.227951 0.327539 5.54625e-20)
(0.274929 0.325929 1.21483e-19)
(0.318846 0.315268 -4.26779e-19)
(0.3599 0.30024 7.00134e-20)
(0.398373 0.283697 -2.92982e-19)
(0.434523 0.267145 2.50958e-19)
(0.468558 0.251253 6.02437e-20)
(0.500639 0.23625 -2.76101e-19)
(0.5309 0.222173 -6.31026e-20)
(0.559454 0.208989 1.50835e-19)
(0.586409 0.196645 7.16922e-20)
(0.61186 0.185087 -2.1375e-20)
(0.635884 0.174268 1.77381e-20)
(0.658589 0.164142 -5.15867e-19)
(0.680208 0.154619 3.70464e-19)
(0.700426 0.145672 3.46582e-19)
(0.166989 0.290454 2.37283e-19)
(0.21649 0.303457 1.62792e-19)
(0.263604 0.30182 3.10251e-19)
(0.307959 0.29184 4.33921e-20)
(0.349593 0.277855 3.03285e-20)
(0.388691 0.262495 -2.27101e-21)
(0.42546 0.247142 -3.20968e-19)
(0.460084 0.232409 1.69628e-19)
(0.492718 0.218504 -2.75479e-19)
(0.523494 0.205459 1.82984e-19)
(0.55253 0.193242 -2.96427e-19)
(0.579933 0.181804 -1.75683e-19)
(0.605802 0.171096 3.58053e-19)
(0.630216 0.161073 3.20699e-20)
(0.653287 0.151694 8.15339e-20)
(0.675224 0.142879 3.32689e-20)
(0.695768 0.134592 -3.82053e-19)
(0.156763 0.267076 -1.58996e-19)
(0.205894 0.278873 1.00961e-19)
(0.253139 0.277241 -2.28629e-19)
(0.297903 0.267981 1.7515e-19)
(0.340076 0.255074 2.51052e-20)
(0.379752 0.240927 1.49726e-19)
(0.417092 0.226801 -5.50536e-21)
(0.45226 0.213252 -1.49112e-19)
(0.485405 0.200467 1.48411e-19)
(0.516658 0.188474 -3.85143e-19)
(0.546138 0.177243 5.41958e-19)
(0.573954 0.166729 2.09186e-19)
(0.600208 0.156886 -4.41507e-19)
(0.624985 0.147674 4.47491e-20)
(0.648393 0.139056 2.9248e-19)
(0.670623 0.130961 -4.17458e-19)
(0.691469 0.123346 -2.17108e-21)
(0.147385 0.243225 1.04452e-19)
(0.196183 0.253828 -8.61408e-20)
(0.243554 0.252232 -4.31397e-20)
(0.288697 0.243725 -8.78145e-20)
(0.331365 0.231928 -1.12589e-19)
(0.371571 0.219024 -3.15324e-19)
(0.409434 0.20615 1.38737e-19)
(0.4451 0.193807 -1.94971e-19)
(0.478712 0.182163 3.61288e-19)
(0.510401 0.171241 2.46116e-19)
(0.540287 0.161013 -4.3711e-19)
(0.568482 0.151439 -4.43197e-19)
(0.595089 0.142477 2.13289e-19)
(0.620196 0.134089 -2.39732e-19)
(0.643912 0.126243 -2.98391e-20)
(0.666411 0.118879 2.39075e-19)
(0.687534 0.111947 -4.46418e-19)
(0.138877 0.218942 -1.67928e-19)
(0.18738 0.228365 -2.42241e-19)
(0.234868 0.226831 3.57425e-19)
(0.280357 0.219108 4.98989e-20)
(0.323474 0.208451 1.81348e-19)
(0.364161 0.196815 1.92599e-19)
(0.402498 0.185216 -4.59266e-20)
(0.438615 0.174101 2.7357e-19)
(0.47265 0.163616 -1.62571e-19)
(0.504733 0.153782 -2.12614e-19)
(0.534986 0.144573 3.4169e-19)
(0.563524 0.135953 3.91898e-19)
(0.59045 0.127885 -4.53365e-19)
(0.615858 0.120334 6.27499e-20)
(0.639853 0.113272 -4.2082e-20)
(0.662594 0.106647 -1.49452e-19)
(0.68397 0.100407 5.97799e-20)
(0.131258 0.194271 1.84709e-19)
(0.1795 0.202525 1.34198e-19)
(0.227097 0.201079 -1.93073e-19)
(0.272897 0.194167 9.12328e-20)
(0.316418 0.184676 1.03723e-19)
(0.357534 0.174331 -3.28559e-19)
(0.396295 0.164028 1.6219e-19)
(0.432814 0.154158 1.84246e-20)
(0.467227 0.144849 1.57974e-19)
(0.499663 0.136119 -2.06175e-19)
(0.530245 0.127943 2.60016e-20)
(0.559089 0.120291 -1.64792e-20)
(0.586301 0.113128 2.29971e-20)
(0.611976 0.106425 1.41827e-19)
(0.63622 0.100157 2.56556e-20)
(0.659178 0.0942796 -3.19133e-20)
(0.68078 0.0887419 3.73938e-21)
(0.124546 0.169257 -2.77697e-20)
(0.172562 0.176352 1.64713e-19)
(0.220257 0.175014 -2.09346e-19)
(0.266332 0.168939 5.25594e-20)
(0.310208 0.160637 -1.87374e-19)
(0.351702 0.151604 4.51398e-22)
(0.390835 0.142616 -3.04974e-19)
(0.427708 0.134007 -2.23632e-19)
(0.462453 0.125889 1.2089e-19)
(0.495199 0.118275 3.21847e-20)
(0.526069 0.111146 -8.587e-20)
(0.555182 0.104472 1.15905e-19)
(0.582645 0.0982259 8.54118e-20)
(0.608557 0.0923808 1.44241e-19)
(0.63302 0.0869152 7.15344e-20)
(0.656167 0.0817929 1.65765e-19)
(0.677969 0.0769647 6.75189e-20)
(0.0731616 0.126766 2.68642e-19)
(0.118757 0.143945 -1.05501e-19)
(0.166579 0.14989 -4.86855e-20)
(0.21436 0.14868 -9.31964e-20)
(0.260672 0.143462 9.03495e-21)
(0.304854 0.136368 6.67178e-20)
(0.346674 0.128665 2.08074e-19)
(0.386127 0.121007 2.56837e-19)
(0.423305 0.113675 1.00457e-19)
(0.458335 0.10676 -2.43358e-20)
(0.491347 0.100275 -5.30249e-20)
(0.522466 0.0942023 -1.34583e-19)
(0.551811 0.0885175 1.64104e-20)
(0.57949 0.0831966 -1.61283e-20)
(0.605604 0.0782176 -1.18101e-19)
(0.630256 0.0735626 -1.23503e-20)
(0.653567 0.0692018 -2.39692e-19)
(0.675542 0.0650901 4.69124e-21)
(0.0688436 0.104338 -1.09928e-19)
(0.113902 0.118382 -5.82741e-21)
(0.161564 0.123183 -1.25675e-20)
(0.209417 0.122116 6.22742e-20)
(0.255929 0.117774 -1.96369e-19)
(0.300366 0.111905 -7.74783e-20)
(0.342458 0.105548 -1.33213e-19)
(0.382178 0.0992325 5.35381e-21)
(0.419611 0.0931879 4.50938e-20)
(0.454879 0.0874882 1.01664e-19)
(0.488114 0.0821417 -2.02328e-20)
(0.519441 0.0771344 9.04132e-20)
(0.548979 0.072447 -4.45741e-20)
(0.576839 0.0680594 -1.62929e-19)
(0.603123 0.0639537 -1.73487e-20)
(0.627933 0.0601157 -3.81549e-20)
(0.651381 0.0565219 1.8313e-19)
(0.6735 0.0531324 -3.13608e-20)
(0.0653662 0.0817148 -2.57289e-20)
(0.109993 0.0926119 5.6811e-20)
(0.157526 0.0962762 4.45402e-20)
(0.205437 0.0953653 1.2779e-20)
(0.252109 0.0919127 1.51599e-19)
(0.296751 0.0872837 -4.12334e-20)
(0.339061 0.0822832 3.69776e-20)
(0.378995 0.077322 4.42788e-20)
(0.416631 0.072575 3.09874e-20)
(0.452091 0.0680985 -8.49031e-20)
(0.485505 0.0638987 1.12597e-19)
(0.516998 0.0599647 8.54958e-20)
(0.546692 0.0562813 -3.38604e-20)
(0.574697 0.0528333 1.38889e-19)
(0.601117 0.0496069 2.19616e-19)
(0.626054 0.0465912 -3.24612e-20)
(0.649612 0.0437687 8.31963e-20)
(0.671848 0.0411064 -3.78641e-20)
(0.0627378 0.0589398 1.74573e-20)
(0.107039 0.0666828 -8.99129e-20)
(0.154474 0.0692144 4.66627e-20)
(0.202428 0.0684694 1.3802e-19)
(0.249219 0.0659177 -1.11633e-19)
(0.294015 0.0625385 -6.52287e-21)
(0.336488 0.0589047 2.91449e-20)
(0.376583 0.0553057 6.54541e-20)
(0.414372 0.0518637 6.17825e-21)
(0.449975 0.0486174 -2.13286e-20)
(0.483522 0.0455706 -3.48766e-20)
(0.515141 0.0427154 -3.72216e-20)
(0.544951 0.0400415 1.43393e-20)
(0.573066 0.037538 1.45511e-20)
(0.599589 0.0351953 -7.39729e-20)
(0.624622 0.033006 -7.30803e-21)
(0.648262 0.0309582 -1.79483e-19)
(0.670586 0.0290267 7.5436e-20)
(0.0609646 0.036058 -8.29695e-21)
(0.105045 0.0406413 3.81137e-20)
(0.152413 0.0420433 -2.23863e-20)
(0.200395 0.0414709 -7.07332e-20)
(0.247265 0.0398277 3.44631e-20)
(0.292163 0.0377057 -8.07049e-22)
(0.334744 0.0354451 -1.00805e-19)
(0.374945 0.0332142 6.16072e-20)
(0.412835 0.0310824 -4.18232e-20)
(0.448534 0.0290709 3.3439e-20)
(0.482171 0.0271814 -2.76748e-20)
(0.513873 0.0254092 1.46959e-20)
(0.543761 0.0237484 2.6857e-20)
(0.571949 0.0221927 -7.93152e-20)
(0.598541 0.0207369 7.52517e-21)
(0.623638 0.0193771 -3.62381e-21)
(0.647334 0.0181061 4.55613e-20)
(0.669717 0.0169082 1.02221e-21)
(0.0600507 0.0131144 5.72712e-21)
(0.104017 0.0145346 7.18476e-21)
(0.151348 0.0148084 -1.43055e-20)
(0.199341 0.0144125 2.76211e-20)
(0.246249 0.013682 -1.0963e-20)
(0.291196 0.0128212 3.43769e-20)
(0.33383 0.0119375 3.17121e-20)
(0.374084 0.011078 -3.97596e-20)
(0.412024 0.0102594 -1.47655e-20)
(0.44777 0.00948544 2.02402e-20)
(0.481451 0.00875572 -1.4291e-20)
(0.513195 0.00806877 -1.84382e-20)
(0.543122 0.00742309 1.61893e-21)
(0.571347 0.00681728 1.9227e-20)
(0.597974 0.00625018 3.784e-20)
(0.623104 0.00572125 2.84346e-21)
(0.646828 0.00522858 4.26124e-21)
(0.669242 0.00476569 1.89333e-20)
(0.0599978 -0.00984592 4.5585e-21)
(0.103954 -0.0115901 8.50996e-21)
(0.15128 -0.0124443 -7.20726e-21)
(0.199269 -0.0126633 2.61466e-20)
(0.246173 -0.0124802 -1.45597e-20)
(0.291118 -0.0120789 3.79704e-20)
(0.333749 -0.011585 2.33969e-20)
(0.374 -0.0110723 -3.15391e-20)
(0.411939 -0.010577 -1.16148e-20)
(0.447684 -0.0101128 1.44903e-20)
(0.481364 -0.00968209 -1.21192e-20)
(0.513108 -0.00928326 -2.37324e-20)
(0.543036 -0.00891323 6.29819e-21)
(0.571261 -0.00856874 1.71153e-20)
(0.597889 -0.00824671 3.88858e-20)
(0.62302 -0.00794429 3.35441e-21)
(0.646745 -0.00765843 2.97574e-21)
(0.669161 -0.00738593 2.01912e-20)
(0.0608055 -0.0327777 3.09914e-20)
(0.104858 -0.0376853 2.38851e-20)
(0.152208 -0.0396692 -1.9402e-20)
(0.200177 -0.0397137 -1.15884e-19)
(0.247036 -0.0386197 7.04571e-20)
(0.291926 -0.0369586 -1.16928e-20)
(0.334499 -0.0350891 -5.52076e-20)
(0.374694 -0.033206 1.08535e-23)
(0.41258 -0.0313984 -3.07951e-20)
(0.448275 -0.0296974 4.03526e-20)
(0.48191 -0.0281076 -4.07175e-20)
(0.513612 -0.0266242 3.44794e-20)
(0.543501 -0.0252395 1.3058e-20)
(0.571691 -0.0239457 -6.31239e-20)
(0.598286 -0.0227355 1.90786e-20)
(0.623387 -0.0216026 -3.10973e-21)
(0.647085 -0.0205389 3.37577e-20)
(0.669474 -0.0195319 3.49822e-21)
(0.0624713 -0.0556359 -4.68745e-20)
(0.106726 -0.063704 -7.33083e-20)
(0.15413 -0.0668205 8.4458e-20)
(0.202063 -0.0666961 1.29622e-19)
(0.248837 -0.0646972 -1.16253e-19)
(0.293619 -0.0617819 3.08071e-20)
(0.33608 -0.0585417 1.50158e-20)
(0.376164 -0.0552926 7.53219e-20)
(0.413945 -0.0521765 -2.04056e-20)
(0.449543 -0.049242 -7.06272e-20)
(0.483088 -0.0464963 1.44775e-20)
(0.514706 -0.0439312 -5.47572e-20)
(0.544518 -0.0415346 4.38459e-20)
(0.572636 -0.039294 1.25227e-20)
(0.599164 -0.0371978 -9.85869e-20)
(0.624204 -0.0352365 5.90273e-21)
(0.647848 -0.0333969 -1.45098e-19)
(0.670181 -0.0316571 3.28659e-20)
(0.0649903 -0.0783756 2.37129e-20)
(0.109552 -0.0895989 3.21458e-20)
(0.157042 -0.0938526 -5.93047e-20)
(0.204923 -0.0935679 1.11226e-20)
(0.251572 -0.0906735 1.93702e-19)
(0.296195 -0.0865129 1.98439e-20)
(0.338487 -0.0819097 4.03498e-20)
(0.378407 -0.0773014 5.64057e-21)
(0.416033 -0.0728828 6.7957e-20)
(0.451485 -0.0687205 -7.56451e-20)
(0.484895 -0.0648239 1.07654e-19)
(0.516388 -0.0611817 3.20274e-21)
(0.546084 -0.0577775 -2.73642e-20)
(0.574094 -0.054594 2.09749e-19)
(0.600522 -0.0516156 1.63766e-19)
(0.625468 -0.0488291 -8.52957e-20)
(0.649031 -0.0462163 1.13019e-19)
(0.671279 -0.0437468 -2.49969e-21)
(0.0683552 -0.100952 -1.66881e-19)
(0.113329 -0.115323 7.34032e-21)
(0.160937 -0.12072 -3.00773e-20)
(0.208752 -0.120287 -4.82008e-21)
(0.255235 -0.11651 -9.83702e-20)
(0.299647 -0.111116 -1.14239e-19)
(0.341717 -0.10516 -4.77786e-20)
(0.381419 -0.099202 -1.64829e-19)
(0.418838 -0.0934893 1.85063e-19)
(0.454098 -0.0881067 3.80828e-20)
(0.487328 -0.0830661 -7.73898e-20)
(0.518655 -0.0783533 1.32318e-19)
(0.548196 -0.0739472 -5.77523e-20)
(0.576062 -0.0698263 -1.3139e-19)
(0.602356 -0.0659706 -3.09883e-20)
(0.627179 -0.0623635 -4.17614e-20)
(0.650634 -0.0589813 6.70511e-20)
(0.672769 -0.0557863 -4.99422e-21)
(0.072557 -0.12332 1.04418e-20)
(0.118048 -0.14083 -2.60211e-20)
(0.165805 -0.147378 -7.31967e-20)
(0.213541 -0.146811 -3.38854e-20)
(0.259818 -0.142168 -6.1007e-20)
(0.30397 -0.135555 4.29322e-20)
(0.345764 -0.128261 2.5554e-19)
(0.385195 -0.120964 2.22816e-19)
(0.422357 -0.113968 1.40475e-19)
(0.457376 -0.107375 -5.24468e-20)
(0.490383 -0.101199 2.92859e-20)
(0.521502 -0.0954235 -2.16551e-19)
(0.550851 -0.0900231 7.54306e-20)
(0.578538 -0.0849715 -5.99837e-20)
(0.604665 -0.0802448 -8.49981e-20)
(0.629332 -0.075823 4.54432e-20)
(0.652653 -0.0716762 -3.88165e-19)
(0.674646 -0.0677609 1.40635e-19)
(0.123697 -0.166074 5.29056e-20)
(0.171637 -0.173781 -2.31604e-20)
(0.21928 -0.173098 -3.52231e-20)
(0.265314 -0.167608 -1.16267e-19)
(0.309156 -0.159796 -2.46163e-20)
(0.35062 -0.151179 -1.05558e-20)
(0.389727 -0.142559 -3.99219e-19)
(0.426583 -0.134292 -2.92104e-19)
(0.461315 -0.126499 1.71038e-19)
(0.494055 -0.119198 2.50088e-20)
(0.524926 -0.11237 6.45276e-20)
(0.554044 -0.105984 -6.19731e-20)
(0.581517 -0.10001 3.17012e-19)
(0.607444 -0.0944205 6.23561e-20)
(0.631926 -0.0891908 9.2946e-20)
(0.655084 -0.0842853 2.18633e-19)
(0.676909 -0.0796559 -1.17025e-19)
(0.130263 -0.191009 6.85796e-20)
(0.178419 -0.199886 6.15326e-20)
(0.225957 -0.199107 -9.45436e-20)
(0.271712 -0.192794 1.62829e-19)
(0.315194 -0.183804 2.30359e-20)
(0.356277 -0.173883 -2.96294e-19)
(0.395009 -0.163955 1.86666e-19)
(0.431508 -0.154432 7.46741e-20)
(0.465908 -0.145454 -8.67975e-20)
(0.498338 -0.137041 2.33233e-20)
(0.52892 -0.129171 1.09079e-20)
(0.557771 -0.121811 -8.95799e-20)
(0.584995 -0.114924 2.28653e-19)
(0.610688 -0.10848 -8.03211e-20)
(0.634954 -0.102451 5.82959e-20)
(0.657925 -0.0967932 1.24723e-19)
(0.679554 -0.0914571 -4.61018e-20)
(0.13773 -0.21559 -9.38445e-20)
(0.186135 -0.225649 -3.38536e-19)
(0.233559 -0.224798 2.2807e-19)
(0.278999 -0.217687 1.09734e-19)
(0.322074 -0.207543 1.884e-19)
(0.362724 -0.19634 2.03281e-19)
(0.40103 -0.185125 1.29502e-19)
(0.437125 -0.174363 1.70996e-19)
(0.471146 -0.164214 -3.08049e-19)
(0.503223 -0.154704 3.42707e-20)
(0.533478 -0.145806 6.7459e-20)
(0.562024 -0.137482 3.47966e-19)
(0.588965 -0.129694 -1.89708e-19)
(0.614393 -0.122406 -4.76484e-20)
(0.638414 -0.115586 -1.10564e-19)
(0.661171 -0.109185 -7.2292e-20)
(0.682577 -0.10315 1.88603e-19)
(0.146079 -0.239773 2.37538e-21)
(0.194771 -0.251026 -3.80898e-20)
(0.242071 -0.25013 1.48128e-19)
(0.287162 -0.24225 -3.19811e-19)
(0.329784 -0.23098 -1.81878e-20)
(0.369951 -0.21852 -2.85652e-19)
(0.407781 -0.206038 1.62029e-19)
(0.443423 -0.194057 -2.60039e-19)
(0.477021 -0.182756 2.51029e-19)
(0.508704 -0.172163 2.23348e-19)
(0.538592 -0.162252 -1.83014e-19)
(0.566797 -0.152979 -6.34616e-19)
(0.593421 -0.144302 3.39782e-19)
(0.618553 -0.136181 -2.73642e-19)
(0.642298 -0.128581 -6.00557e-20)
(0.664815 -0.121445 2.22717e-19)
(0.685974 -0.114721 -1.82691e-19)
(0.155291 -0.263514 -1.42346e-19)
(0.204305 -0.275976 1.79066e-19)
(0.251476 -0.275062 -3.41824e-19)
(0.296185 -0.266447 6.30986e-20)
(0.33831 -0.254083 -6.93908e-21)
(0.377944 -0.240393 3.92971e-19)
(0.415249 -0.226668 -2.44503e-19)
(0.450393 -0.213488 -5.21939e-20)
(0.483523 -0.201054 6.83015e-20)
(0.51477 -0.189397 -8.59159e-20)
(0.544254 -0.178488 3.33383e-19)
(0.572083 -0.168282 1.84509e-19)
(0.598357 -0.158729 -3.72343e-19)
(0.623161 -0.149788 2.02206e-19)
(0.646602 -0.141421 2.78984e-19)
(0.668854 -0.133558 -5.10448e-19)
(0.689739 -0.126156 1.65488e-21)
(0.165342 -0.28677 1.40664e-19)
(0.214718 -0.300455 1.94885e-19)
(0.261753 -0.299558 1.11423e-19)
(0.30605 -0.290243 4.54516e-19)
(0.347635 -0.276817 -5.74387e-20)
(0.386689 -0.261927 1.85957e-19)
(0.423422 -0.246986 -6.492e-19)
(0.458021 -0.232632 3.70721e-19)
(0.49064 -0.219085 -2.28302e-19)
(0.521413 -0.206384 6.70627e-20)
(0.550454 -0.194495 -3.61235e-19)
(0.577872 -0.183371 -2.87651e-20)
(0.603764 -0.172958 2.9273e-19)
(0.62821 -0.163212 4.93237e-20)
(0.651318 -0.154089 -1.40832e-20)
(0.67328 -0.145511 2.38806e-20)
(0.693867 -0.137441 -3.27613e-19)
(0.176209 -0.3095 -1.96863e-19)
(0.225985 -0.324425 1.64206e-20)
(0.272883 -0.323577 1.76115e-19)
(0.31674 -0.313602 -3.95809e-19)
(0.357744 -0.29915 4.19138e-20)
(0.396172 -0.283093 -4.65878e-19)
(0.432286 -0.266965 5.15362e-19)
(0.466295 -0.251461 -1.35157e-19)
(0.498362 -0.236826 -1.53572e-19)
(0.52862 -0.223101 4.39278e-21)
(0.557183 -0.210253 1.8169e-21)
(0.584156 -0.198228 2.73458e-19)
(0.609633 -0.186972 -3.97406e-20)
(0.633692 -0.176435 -3.48503e-19)
(0.65644 -0.16657 -4.33139e-19)
(0.678087 -0.15729 5.05082e-19)
(0.698353 -0.148563 3.18564e-19)
(0.187865 -0.331664 2.28577e-19)
(0.238083 -0.347845 -3.53333e-19)
(0.284842 -0.347083 -3.35216e-19)
(0.328234 -0.336489 1.33733e-19)
(0.368617 -0.321053 -5.60788e-19)
(0.406376 -0.303863 5.63039e-19)
(0.441826 -0.286578 -2.45817e-19)
(0.475202 -0.269953 -2.48101e-19)
(0.506676 -0.254254 2.18213e-20)
(0.53638 -0.239527 -8.66884e-22)
(0.564429 -0.22574 -3.12399e-20)
(0.590924 -0.212835 2.11001e-19)
(0.615956 -0.200753 -2.00955e-19)
(0.639599 -0.189442 1.03536e-19)
(0.661959 -0.178851 2.25026e-19)
(0.683267 -0.168879 -2.82815e-19)
(0.70319 -0.159509 -5.80933e-20)
(0.200281 -0.353221 -3.24242e-20)
(0.250984 -0.370676 2.50085e-19)
(0.297607 -0.37004 2.24416e-19)
(0.34051 -0.358871 -3.53885e-19)
(0.380236 -0.342493 1.8962e-19)
(0.417282 -0.324208 -1.46297e-19)
(0.452024 -0.3058 -1.05996e-20)
(0.484725 -0.288083 3.72733e-20)
(0.515566 -0.271346 -8.92958e-20)
(0.544681 -0.255643 1.76935e-19)
(0.572181 -0.24094 -9.58689e-20)
(0.598165 -0.227174 -2.86758e-19)
(0.622723 -0.214285 4.09225e-19)
(0.64592 -0.202217 2.54561e-19)
(0.667867 -0.190916 -3.27006e-19)
(0.688813 -0.180267 1.89751e-19)
(0.70837 -0.170267 2.78392e-19)
(0.26466 -0.392881 4.86407e-20)
(0.311152 -0.392412 1.79469e-19)
(0.353544 -0.380717 3.53578e-19)
(0.392578 -0.363441 2.66517e-19)