/*--------------------------------*- C++ -*----------------------------------*\
  =========                 |
  \\      /  F ield         | OpenFOAM: The Open Source CFD Toolbox
   \\    /   O peration     | Website:  https://openfoam.org
    \\  /    A nd           | Version:  7
     \\/     M anipulation  |
\*---------------------------------------------------------------------------*/
FoamFile
{
    version     2.0;
    format      ascii;
    class       surfaceScalarField;
    location    "100";
    object      phi;
}
// * * * * * * * * * * * * * * * * * * * * * * * * * * * * * * * * * * * * * //

dimensions      [0 3 -1 0 0 0 0];

internalField   nonuniform List<scalar> 
16735
(
-4.23248e-06
4.23248e-06
-8.24596e-15
-1.45019e-05
1.02694e-05
-1.19079e-14
-2.92242e-05
1.47223e-05
-7.44874e-15
-4.68572e-05
1.7633e-05
-2.90396e-16
-6.59459e-05
1.90887e-05
2.81265e-15
-8.51993e-05
1.92534e-05
-3.84011e-15
-0.000103591
1.83915e-05
-2.32035e-14
-0.000120503
1.6912e-05
-5.07954e-14
-0.000135819
1.53158e-05
-7.29942e-14
1.4241e-05
-7.0508e-14
-0.00015006
-4.15571e-06
8.38819e-06
-1.42026e-05
2.03164e-05
-2.85438e-05
2.90635e-05
-4.56175e-05
3.47067e-05
-6.39413e-05
3.74125e-05
-8.21874e-05
3.74995e-05
-9.92836e-05
3.54878e-05
-0.000114562
3.21899e-05
-0.00012786
2.86144e-05
2.60334e-05
-0.000139653
-4.00333e-06
1.23915e-05
-1.36079e-05
2.9921e-05
-2.7191e-05
4.26466e-05
-4.31518e-05
5.06675e-05
-5.99534e-05
5.42141e-05
-7.61953e-05
5.37413e-05
-9.0714e-05
5.00065e-05
-0.000102739
4.42146e-05
-0.000112017
3.78929e-05
3.29447e-05
-0.000118928
-3.77759e-06
1.61691e-05
-1.27251e-05
3.88685e-05
-2.5181e-05
5.51025e-05
-3.94866e-05
6.49731e-05
-5.40241e-05
6.87516e-05
-6.72849e-05
6.70021e-05
-7.79691e-05
6.06907e-05
-8.51517e-05
5.13971e-05
-8.84407e-05
4.11819e-05
3.25647e-05
-8.80606e-05
-3.48157e-06
1.96507e-05
-1.15645e-05
4.69515e-05
-2.25353e-05
6.60732e-05
-3.46591e-05
7.70968e-05
-4.62123e-05
8.03048e-05
-5.55441e-05
7.6334e-05
-6.11737e-05
6.63203e-05
-6.19681e-05
5.21915e-05
-5.73749e-05
3.65887e-05
2.24828e-05
-4.72931e-05
-3.119e-06
2.27697e-05
-1.01384e-05
5.39709e-05
-1.92796e-05
7.52144e-05
-2.87143e-05
8.65315e-05
-3.659e-05
8.81804e-05
-4.10815e-05
8.08255e-05
-4.04832e-05
6.5722e-05
-3.3376e-05
4.50844e-05
-1.90304e-05
2.22431e-05
1.95496e-06
1.49743e-06
-2.69384e-06
2.54635e-05
-8.46014e-06
5.97372e-05
-1.5442e-05
8.21963e-05
-2.1702e-05
9.27916e-05
-2.52374e-05
9.17158e-05
-2.40187e-05
7.96069e-05
-1.6078e-05
5.77813e-05
2.61732e-07
2.87446e-05
2.63885e-05
-3.88369e-06
-3.38093e-05
6.21528e-05
-2.20996e-06
2.76735e-05
-6.5428e-06
6.407e-05
-1.10507e-05
8.67042e-05
-1.36726e-05
9.54134e-05
-1.22373e-05
9.02805e-05
-4.48582e-06
7.18553e-05
1.1864e-05
4.14315e-05
3.8934e-05
1.67459e-06
7.82321e-05
-4.31818e-05
-8.57318e-05
0.000130155
-1.67076e-06
2.93442e-05
-4.39827e-06
6.67975e-05
-6.13159e-06
8.84375e-05
-4.67325e-06
9.39551e-05
2.33056e-06
8.32767e-05
1.73881e-05
5.67978e-05
4.31227e-05
1.56969e-05
8.20843e-05
-3.72871e-05
0.000136294
-9.7391e-05
-0.000155874
0.000206436
-1.0789e-06
3.04231e-05
-2.03613e-06
6.77548e-05
-7.05938e-07
8.71073e-05
5.25551e-06
8.79936e-05
1.83962e-05
7.0136e-05
4.14865e-05
3.37074e-05
7.75123e-05
-2.03289e-05
0.000129516
-8.92908e-05
0.000200113
-0.000167987
-0.000246177
0.000290415
-4.36267e-07
3.08594e-05
5.36845e-07
6.67817e-05
5.20936e-06
8.24348e-05
1.60828e-05
7.71202e-05
3.59047e-05
5.03141e-05
6.7713e-05
1.8991e-06
0.000114867
-6.74824e-05
0.000180941
-0.000155365
0.00026925
-0.000256297
-0.000358435
0.000381509
2.57977e-07
3.06014e-05
3.31633e-06
6.37233e-05
1.16051e-05
7.4146e-05
2.77885e-05
6.09369e-05
5.48186e-05
2.3284e-05
9.59976e-05
-3.92799e-05
0.00015505
-0.000126535
0.000236102
-0.000236416
0.00034327
-0.000363465
-0.000494268
0.000479102
1.00167e-06
2.95998e-05
6.30213e-06
5.84228e-05
1.84763e-05
6.19719e-05
4.03618e-05
3.90513e-05
7.51177e-05
-1.14719e-05
0.0001263
-9.04622e-05
0.000197973
-0.000198208
0.00029479
-0.000333234
0.00042175
-0.000490425
-0.000655044
0.000582527
1.79745e-06
2.78023e-05
9.49382e-06
5.07265e-05
2.58204e-05
4.56453e-05
5.37976e-05
1.10742e-05
9.67948e-05
-5.44691e-05
0.000158608
-0.000152275
0.000243594
-0.000283193
0.000356868
-0.000446509
0.000504319
-0.000637876
-0.000841791
0.000691065
2.64573e-06
2.51566e-05
1.28908e-05
4.04814e-05
3.36334e-05
2.49027e-05
6.80886e-05
-2.3381e-05
0.000119844
-0.000106225
0.000192926
-0.000225357
0.000291923
-0.000382191
0.000422291
-0.000576877
0.000590697
-0.000806282
-0.00105506
0.000803962
3.54652e-06
2.16101e-05
1.64894e-05
2.75385e-05
4.19035e-05
-5.11419e-07
8.32148e-05
-6.46923e-05
0.000144246
-0.000167256
0.000229251
-0.000310362
0.000343002
-0.000495942
0.000491126
-0.000725001
0.00068078
-0.000995935
-0.00129475
0.000920472
4.49823e-06
1.71118e-05
2.02795e-05
1.17573e-05
5.0605e-05
-3.08369e-05
9.91295e-05
-0.000113217
0.000169936
-0.000238063
0.000267534
-0.000407959
0.000396855
-0.000625263
0.000563535
-0.000891681
0.000774707
-0.00120711
-0.00156006
0.00104002
5.49692e-06
1.16149e-05
2.42425e-05
-6.98832e-06
5.96912e-05
-6.62856e-05
0.000115744
-0.00016927
0.000196781
-0.0003191
0.000307626
-0.000518804
0.000453438
-0.000771075
0.000639771
-0.00107801
0.000872896
-0.00144023
-0.00184984
0.00116268
6.53589e-06
5.07902e-06
2.83497e-05
-2.88021e-05
6.90897e-05
-0.000107026
0.000132916
-0.000233096
0.000224539
-0.000410723
0.0003492
-0.000643465
0.000512541
-0.000934417
0.000720357
-0.00128583
0.000976788
-0.00169666
-0.002163
0.00128995
7.60576e-06
-2.52674e-06
3.25621e-05
-5.37585e-05
7.87017e-05
-0.000153165
0.000150436
-0.00030483
0.000252819
-0.000513107
0.000391608
-0.000782254
0.000573354
-0.00111616
0.000805541
-0.00151802
0.00109288
-0.001984
-0.00249259
0.00142246
8.69556e-06
-1.12223e-05
3.68343e-05
-8.18972e-05
8.84087e-05
-0.00020474
0.000168043
-0.000384464
0.000281082
-0.000626145
0.000433744
-0.000934917
0.000633534
-0.00131595
0.000890503
-0.00177498
0.0012249
-0.0023184
-0.0029793
0.00171161
9.7937e-06
-2.1016e-05
4.11182e-05
-0.000113222
9.80859e-05
-0.000261707
0.000185461
-0.00047184
0.000308735
-0.000749419
0.000474279
-0.00110046
0.000689759
-0.00153143
0.000965212
-0.00205044
0.00131708
-0.00267027
-0.00342701
0.00176479
1.08903e-05
-3.19063e-05
4.53716e-05
-0.000147703
0.000107624
-0.000323959
0.000202455
-0.000566671
0.00033532
-0.000882284
0.000512361
-0.0012775
0.000740535
-0.00175961
0.00102773
-0.00233763
0.0013829
-0.00302544
-0.00385281
0.0018087
1.19778e-05
-4.38841e-05
4.95603e-05
-0.000185285
0.000116935
-0.000391334
0.000218852
-0.000668588
0.000360553
-0.00102398
0.000547648
-0.0014646
0.000785895
-0.00199785
0.00108055
-0.00263228
0.00143476
-0.00337966
-0.00426153
0.00184349
1.30509e-05
-5.6935e-05
5.36583e-05
-0.000225893
0.000125955
-0.000463631
0.000234534
-0.000777166
0.000384274
-0.00117373
0.000580053
-0.00166038
0.000826231
-0.00224403
0.00112559
-0.00293164
0.00147723
-0.0037313
-0.00465628
0.00187197
1.41059e-05
-7.10408e-05
5.76454e-05
-0.000269432
0.000134633
-0.000540619
0.000249412
-0.000891945
0.00040638
-0.00133069
0.000609549
-0.00186355
0.000861837
-0.00249632
0.00116384
-0.00323364
0.0015118
-0.00407926
-0.00503885
0.00189437
1.51396e-05
-8.61804e-05
6.15029e-05
-0.000315796
0.000142922
-0.000622038
0.000263406
-0.00101243
0.00042677
-0.00149406
0.000636079
-0.00207285
0.000892822
-0.00275306
0.00119569
-0.00353651
0.00153883
-0.0044224
-0.00540971
0.00190968
1.61483e-05
-0.000102329
6.5211e-05
-0.000364858
0.000150773
-0.0007076
0.000276429
-0.00113808
0.000445328
-0.00166296
0.000659526
-0.00228705
0.000919118
-0.00301265
0.00122111
-0.0038385
0.00155808
-0.00475936
-0.00576835
0.00191673
1.7127e-05
-0.000119456
6.87458e-05
-0.000416477
0.000158128
-0.000796982
0.000288379
-0.00126834
0.000461903
-0.00183648
0.000679703
-0.00250485
0.000940519
-0.00327347
0.00123986
-0.00413784
0.00156905
-0.00508855
-0.00611368
0.00191438
1.80688e-05
-0.000137524
7.20781e-05
-0.000470487
0.00016492
-0.000889824
0.000299135
-0.00140255
0.000476315
-0.00201366
0.000696373
-0.00272491
0.000956732
-0.00353383
0.00125156
-0.00443267
0.00157118
-0.00540818
-0.00644422
0.00190173
1.89649e-05
-0.000156489
7.51732e-05
-0.000526695
0.00017107
-0.000985721
0.00030856
-0.00154004
0.00048836
-0.00219346
0.000709267
-0.00294582
0.000967431
-0.00379199
0.00125581
-0.00472105
0.00156398
-0.00571635
-0.00675837
0.00187813
1.9805e-05
-0.000176294
7.79911e-05
-0.000584881
0.000176491
-0.00108422
0.000316506
-0.00168006
0.000497824
-0.00237478
0.00071811
-0.0031661
0.000972299
-0.00404618
0.00125229
-0.00500104
0.0015471
-0.00601116
-0.00705448
0.00184321
2.05771e-05
-0.000196871
8.04886e-05
-0.000644792
0.000181091
-0.00118482
0.000322821
-0.00182178
0.000504492
-0.00255645
0.000722641
-0.00338425
0.00097106
-0.0042946
0.00124074
-0.00527072
0.00152036
-0.00629077
-0.00733103
0.00179691
2.12682e-05
-0.00021814
8.26197e-05
-0.000706144
0.000184776
-0.00128698
0.000327352
-0.00196436
0.000508163
-0.00273726
0.000722632
-0.00359872
0.000963504
-0.00453547
0.00122103
-0.00552825
0.00148375
-0.00655349
-0.00758665
0.00173937
2.18649e-05
-0.000240005
8.43382e-05
-0.000768617
0.000187452
-0.00139009
0.000329961
-0.00210687
0.000508659
-0.00291596
0.000717905
-0.00380797
0.000949502
-0.00476707
0.00119315
-0.00577189
0.00143745
-0.00679779
-0.00782021
0.001671
2.23536e-05
-0.000262358
8.5599e-05
-0.000831863
0.000189035
-0.00149353
0.000330519
-0.00224835
0.000505836
-0.00309128
0.000708336
-0.00401047
0.000929016
-0.00498775
0.00115721
-0.00600008
0.00138179
-0.00702237
-0.00803079
0.00159237
2.27213e-05
-0.000285079
8.63598e-05
-0.000895501
0.000189444
-0.00159661
0.000328922
-0.00238783
0.000499588
-0.00326194
0.000693866
-0.00420475
0.000902099
-0.00519598
0.00111344
-0.00621142
0.00131722
-0.00722615
-0.00821777
0.0015042
2.29555e-05
-0.000308035
8.65823e-05
-0.000959128
0.000188615
-0.00169865
0.000325089
-0.00252431
0.00048985
-0.0034267
0.000674502
-0.0043894
0.00086889
-0.00539037
0.00106218
-0.00640471
0.00124433
-0.0074083
-0.00838074
0.0014073
2.30451e-05
-0.00033108
8.62336e-05
-0.00102232
0.000186495
-0.00179891
0.000318965
-0.00265678
0.000476607
-0.00358434
0.000650319
-0.00456311
0.000829616
-0.00556967
0.00100386
-0.00657896
0.00116377
-0.0075682
-0.00851953
0.00130255
2.29802e-05
-0.00035406
8.52871e-05
-0.00108462
0.000183046
-0.00189667
0.000310527
-0.00278426
0.000459886
-0.0037337
0.00062145
-0.00472467
0.000784573
-0.00573279
0.00093898
-0.00673337
0.00107626
-0.00770548
-0.00863416
0.00119089
2.27554e-05
-0.000376816
8.3728e-05
-0.0011456
0.000178255
-0.00199119
0.000299788
-0.00290579
0.000439771
-0.00387369
0.000588101
-0.004873
0.000734135
-0.00587883
0.00086811
-0.00686734
0.000982572
-0.00781994
-0.00872482
0.00107324
2.23599e-05
-0.000399176
8.15349e-05
-0.00120477
0.000172104
-0.00208176
0.000286765
-0.00302045
0.000416359
-0.00400328
0.000550495
-0.00500714
0.00067869
-0.00600702
0.000791822
-0.00698047
0.000883452
-0.00791157
-0.00879187
0.000950498
2.17917e-05
-0.000420967
7.87082e-05
-0.00126169
0.000164614
-0.00216767
0.00027153
-0.00312737
0.000389814
-0.00412156
0.00050893
-0.00512626
0.000618702
-0.0061168
0.00071075
-0.00707252
0.000779682
-0.00798051
-0.00883574
0.000823555
2.1049e-05
-0.000442016
7.52515e-05
-0.00131589
0.000155815
-0.00224823
0.000254175
-0.00322573
0.000360326
-0.00422771
0.000463734
-0.00522966
0.000554655
-0.00620772
0.000625528
-0.00714339
0.000672017
-0.008027
-0.00885698
0.000693252
2.0132e-05
-0.000462148
7.11765e-05
-0.00136693
0.000145753
-0.00232281
0.000234812
-0.00331479
0.000328116
-0.00432102
0.000415263
-0.00531681
0.000487049
-0.0062795
0.000536789
-0.00719313
0.000561187
-0.00805139
-0.00885616
0.000560374
1.90429e-05
-0.000481191
6.65026e-05
-0.00141439
0.00013449
-0.0023908
0.000213581
-0.00339388
0.00029343
-0.00440087
0.000363895
-0.00538728
0.000416398
-0.006332
0.000445159
-0.0072219
0.000447892
-0.00805413
-0.00883392
0.000425644
1.77866e-05
-0.000498978
6.12563e-05
-0.00145786
0.000122102
-0.00245164
0.000190637
-0.00346241
0.000256536
-0.00446677
0.000310025
-0.00544077
0.000343218
-0.0063652
0.000351243
-0.00722992
0.000332789
-0.00803567
-0.00879086
0.000289736
1.63695e-05
-0.000515347
5.54712e-05
-0.00149697
0.000108676
-0.00250485
0.000166153
-0.00351989
0.000217718
-0.00451833
0.00025406
-0.00547711
0.000268029
-0.00637916
0.000255638
-0.00721753
0.000216451
-0.00799648
-0.00872769
0.000153277
1.48004e-05
-0.000530148
4.91867e-05
-0.00153135
9.43105e-05
-0.00254997
0.000140315
-0.00356589
0.00017727
-0.00455529
0.000196412
-0.00549625
0.000191351
-0.0063741
0.000158965
-0.00718514
9.94252e-05
-0.00793694
-0.0086431
1.48401e-05
1.30898e-05
-0.000543237
4.24475e-05
-0.00156071
7.91125e-05
-0.00258663
0.000113318
-0.0036001
0.000135495
-0.00457746
0.000137489
-0.00549824
0.000113682
-0.0063503
6.1792e-05
-0.00713325
-1.67756e-05
-0.00785838
-0.00854066
-0.000119217
1.12496e-05
-0.000554487
3.53028e-05
-0.00158476
6.31949e-05
-0.00261453
8.53625e-05
-0.00362227
9.2693e-05
-0.00458479
7.76943e-05
-0.00548325
3.55032e-05
-0.00630811
-3.54786e-05
-0.00706227
-0.00013359
-0.00776027
-0.00842026
-0.000253994
9.29343e-06
-0.000563781
2.78049e-05
-0.00160327
4.66747e-05
-0.0026334
5.6652e-05
-0.00363224
4.91661e-05
-0.00457731
1.74297e-05
-0.00545151
-4.27086e-05
-0.00624797
-0.000132216
-0.00697276
-0.000248871
-0.00764361
-0.00828172
-0.000387408
7.23583e-06
-0.000571016
2.00087e-05
-0.00161605
2.96715e-05
-0.00264306
2.73878e-05
-0.00362996
5.21903e-06
-0.00455514
-4.29305e-05
-0.00540336
-0.00012049
-0.00617041
-0.000227932
-0.00686532
-0.00036266
-0.00750888
-0.00812542
-0.000518961
5.09291e-06
-0.000576109
1.19698e-05
-0.00162292
1.23044e-05
-0.00264339
-2.21527e-06
-0.00361544
-3.88994e-05
-0.00451846
-0.000103017
-0.00533924
-0.000197399
-0.00607602
-0.000322133
-0.00674059
-0.000474472
-0.00735654
-0.00795163
-0.000648266
2.88608e-06
-0.000578995
3.743e-06
-0.00162378
-5.31433e-06
-0.00263434
-3.20261e-05
-0.00358873
-8.28974e-05
-0.00446758
-0.000162487
-0.00525965
-0.000273015
-0.0059655
-0.000414324
-0.00659928
-0.000583803
-0.00718707
-0.00776048
-0.00077495
5.85281e-07
-0.000579581
-4.62021e-06
-0.00161858
-2.30746e-05
-0.00261588
-6.18091e-05
-0.00354999
-0.000126538
-0.00440285
-0.000221033
-0.00516516
-0.000346947
-0.00583958
-0.000504009
-0.00644222
-0.000690111
-0.00700096
-0.00755191
-0.000898678
-1.7295e-06
-0.000577851
-1.30616e-05
-0.00160724
-4.08646e-05
-0.00258808
-9.14224e-05
-0.00349944
-0.000169607
-0.00432467
-0.000278386
-0.00505638
-0.000418849
-0.00569912
-0.000590707
-0.00627036
-0.000792811
-0.00679886
-0.00732558
-0.00101914
-4.06113e-06
-0.00057379
-2.15297e-05
-0.00158977
-5.8588e-05
-0.00255102
-0.000120719
-0.00343731
-0.000211917
-0.00423347
-0.000334324
-0.00493397
-0.000488433
-0.00554501
-0.000673965
-0.00608483
-0.000891196
-0.00658163
-0.00708105
-0.00113572
-6.41361e-06
-0.000567376
-2.99788e-05
-0.00156621
-7.6153e-05
-0.00250485
-0.000149566
-0.00336389
-0.000253311
-0.00412973
-0.000388682
-0.0047986
-0.000555499
-0.00537819
-0.000753346
-0.00588698
-0.000984002
-0.00635097
-0.00681724
-0.00124781
-8.76482e-06
-0.000558612
-3.83616e-05
-0.00153661
-9.34738e-05
-0.00244973
-0.000177847
-0.00327952
-0.000293666
-0.00401391
-0.000441368
-0.0046509
-0.000620018
-0.00519954
-0.000828596
-0.0056784
-0.0010698
-0.00610977
-0.0065302
-0.00135684
-1.10963e-05
-0.000547515
-4.66265e-05
-0.00150108
-0.00011046
-0.0023859
-0.000205443
-0.00318454
-0.000332862
-0.00388649
-0.000492347
-0.00449141
-0.000682251
-0.00500964
-0.000900348
-0.00546031
-0.00114268
-0.00586744
-0.00625983
-0.00141306
-1.34006e-05
-0.000534115
-5.47417e-05
-0.00145974
-0.00012705
-0.00231359
-0.000232263
-0.00307932
-0.000370805
-0.00374795
-0.000541582
-0.00432064
-0.000742409
-0.00480881
-0.000970658
-0.00523206
-0.00122348
-0.00561462
-0.00598029
-0.00150301
-1.56607e-05
-0.000518454
-6.26582e-05
-0.00141274
-0.000143156
-0.00223309
-0.000258188
-0.00296429
-0.000407343
-0.00359879
-0.000588867
-0.00413911
-0.000800135
-0.00459754
-0.00103834
-0.00499386
-0.00130108
-0.00535187
-0.005693
-0.00158837
-1.78633e-05
-0.000500591
-7.03351e-05
-0.00136027
-0.000158705
-0.00214473
-0.00028311
-0.00283989
-0.000442335
-0.00343957
-0.000634
-0.00394745
-0.000855076
-0.00437647
-0.00110255
-0.00474638
-0.00137404
-0.00508039
-0.00539837
-0.00166867
-1.99961e-05
-0.000480595
-7.77344e-05
-0.00130253
-0.000173628
-0.00204883
-0.000306936
-0.00270658
-0.000475662
-0.00327084
-0.000676837
-0.00374628
-0.000907051
-0.00414625
-0.00116308
-0.00449035
-0.00144246
-0.00480101
-0.00509696
-0.00174387
-2.20476e-05
-0.000458547
-8.48213e-05
-0.00123976
-0.000187866
-0.00194579
-0.000329581
-0.00256486
-0.000507228
-0.00309319
-0.000717278
-0.00353623
-0.000955971
-0.00390756
-0.0012199
-0.00422642
-0.00150653
-0.00451438
-0.00478918
-0.00181432
-2.40073e-05
-0.00043454
-9.15641e-05
-0.0011722
-0.000201364
-0.00183599
-0.000350977
-0.00241525
-0.000536956
-0.00290721
-0.000755255
-0.00331793
-0.0010018
-0.00366102
-0.00127303
-0.00395519
-0.00156637
-0.00422104
-0.00447533
-0.00188021
-2.58655e-05
-0.000408674
-9.79345e-05
-0.00110013
-0.000214075
-0.00171985
-0.000371062
-0.00225826
-0.000564784
-0.00271349
-0.000790717
-0.00309199
-0.0010445
-0.00340723
-0.00132248
-0.00367721
-0.00162207
-0.00392145
-0.00415571
-0.00194169
-2.76135e-05
-0.000381061
-0.000103907
-0.00102384
-0.000225956
-0.0015978
-0.000389784
-0.00209444
-0.00059066
-0.00251262
-0.000823623
-0.00285903
-0.00108407
-0.00314678
-0.00136827
-0.00339301
-0.00167367
-0.00361605
-0.00383058
-0.0019988
-2.92433e-05
-0.000351817
-0.00010946
-0.000943624
-0.000236972
-0.00147028
-0.0004071
-0.00192431
-0.000614539
-0.00230518
-0.000853938
-0.00261963
-0.00112049
-0.00288023
-0.00141041
-0.00310309
-0.0017212
-0.00330526
-0.00350025
-0.00205153
-3.0748e-05
-0.000321069
-0.000114571
-0.000859801
-0.000247089
-0.00133777
-0.000422968
-0.00174843
-0.000636381
-0.00209176
-0.000881629
-0.00237438
-0.00115373
-0.00260813
-0.00144887
-0.00280795
-0.00176465
-0.00298948
-0.00316506
-0.00209984
-3.21209e-05
-0.000288948
-0.000119224
-0.000772698
-0.000256279
-0.00120071
-0.000437353
-0.00156736
-0.000656152
-0.00187297
-0.000906666
-0.00212387
-0.00118377
-0.00233102
-0.00148364
-0.00250808
-0.00180396
-0.00266916
-0.00282536
-0.00214366
-3.33562e-05
-0.000255592
-0.000123402
-0.000682652
-0.000264514
-0.0010596
-0.000450223
-0.00138165
-0.000673816
-0.00164937
-0.000929016
-0.00186867
-0.00121058
-0.00204946
-0.00151468
-0.00220398
-0.0018391
-0.00234474
-0.00248156
-0.00218291
-3.44489e-05
-0.000221143
-0.000127089
-0.000590012
-0.000271771
-0.000914918
-0.00046155
-0.00119187
-0.000689346
-0.00142158
-0.000948651
-0.00160936
-0.00123412
-0.00176399
-0.00154196
-0.00189614
-0.00187002
-0.00201668
-0.00213409
-0.00221749
-3.53941e-05
-0.000185749
-0.000130274
-0.000495132
-0.000278031
-0.000767161
-0.000471308
-0.000998589
-0.000702711
-0.00119017
-0.00096554
-0.00134653
-0.00125438
-0.00147515
-0.00156543
-0.00158508
-0.00189664
-0.00168547
-0.00178342
-0.00224731
-3.61881e-05
-0.000149561
-0.000132946
-0.000398374
-0.000283275
-0.000616831
-0.000479475
-0.000802389
-0.000713889
-0.00095576
-0.000979659
-0.00108076
-0.0012713
-0.00118351
-0.00158506
-0.00127133
-0.00191893
-0.0013516
-0.00143004
-0.0022723
-3.68274e-05
-0.000112734
-0.000135094
-0.000300108
-0.000287489
-0.000464437
-0.000486032
-0.000603847
-0.000722858
-0.000718934
-0.000990984
-0.000812638
-0.00128488
-0.000889609
-0.00160081
-0.000955405
-0.00193682
-0.00101559
-0.00107447
-0.00229239
-3.73092e-05
-7.54246e-05
-0.000136712
-0.000200705
-0.00029066
-0.000310489
-0.000490963
-0.000403544
-0.0007296
-0.000480297
-0.000999496
-0.000542742
-0.00129509
-0.000594016
-0.00161265
-0.000637847
-0.00195027
-0.000677967
-0.000717242
-0.0023075
-3.76315e-05
-3.7793e-05
-0.000137794
-0.000100543
-0.000292779
-0.000155504
-0.000494256
-0.000202066
-0.000734102
-0.000240451
-0.00100518
-0.000271666
-0.0013019
-0.000297291
-0.00162055
-0.000319197
-0.00195926
-0.000339255
-0.000358901
-0.00231761
-3.7793e-05
2.58978e-15
-0.000138336
4.43068e-15
-0.00029384
3.22641e-15
-0.000495905
1.3377e-15
-0.000736356
1.14759e-15
-0.00100802
3.59949e-15
-0.00130531
7.55797e-15
-0.00162451
1.02688e-14
-0.00196377
9.1006e-15
3.53679e-15
-0.00232267
-3.7793e-05
3.7793e-05
-0.000138336
0.000100543
-0.00029384
0.000155504
-0.000495905
0.000202066
-0.000736356
0.000240451
-0.00100802
0.000271666
-0.00130531
0.000297291
-0.00162451
0.000319197
-0.00196377
0.000339255
0.000358901
-0.00232267
-3.76315e-05
7.54246e-05
-0.000137794
0.000200705
-0.000292779
0.000310489
-0.000494256
0.000403544
-0.000734102
0.000480297
-0.00100518
0.000542742
-0.0013019
0.000594016
-0.00162055
0.000637847
-0.00195926
0.000677967
0.000717242
-0.00231761
-3.73092e-05
0.000112734
-0.000136712
0.000300108
-0.00029066
0.000464437
-0.000490963
0.000603847
-0.0007296
0.000718934
-0.000999496
0.000812638
-0.00129509
0.000889609
-0.00161265
0.000955405
-0.00195027
0.00101559
0.00107447
-0.0023075
-3.68274e-05
0.000149561
-0.000135094
0.000398374
-0.000287489
0.000616831
-0.000486032
0.000802389
-0.000722858
0.00095576
-0.000990984
0.00108076
-0.00128488
0.00118351
-0.00160081
0.00127133
-0.00193682
0.0013516
0.00143004
-0.00229239
-3.61881e-05
0.000185749
-0.000132946
0.000495132
-0.000283275
0.000767161
-0.000479475
0.000998589
-0.000713889
0.00119017
-0.000979659
0.00134653
-0.0012713
0.00147515
-0.00158506
0.00158508
-0.00191893
0.00168547
0.00178342
-0.0022723
-3.53941e-05
0.000221143
-0.000130274
0.000590012
-0.000278031
0.000914918
-0.000471308
0.00119187
-0.000702711
0.00142158
-0.00096554
0.00160936
-0.00125438
0.00176399
-0.00156543
0.00189614
-0.00189664
0.00201668
0.00213409
-0.00224731
-3.44489e-05
0.000255592
-0.000127089
0.000682652
-0.000271771
0.0010596
-0.00046155
0.00138165
-0.000689346
0.00164937
-0.000948651
0.00186867
-0.00123412
0.00204946
-0.00154196
0.00220398
-0.00187002
0.00234474
0.00248156
-0.00221749
-3.33562e-05
0.000288948
-0.000123402
0.000772698
-0.000264514
0.00120071
-0.000450223
0.00156736
-0.000673816
0.00187297
-0.000929016
0.00212387
-0.00121058
0.00233102
-0.00151468
0.00250808
-0.0018391
0.00266916
0.00282536
-0.00218291
-3.21209e-05
0.000321069
-0.000119224
0.000859801
-0.000256279
0.00133777
-0.000437353
0.00174843
-0.000656152
0.00209176
-0.000906666
0.00237438
-0.00118377
0.00260813
-0.00148364
0.00280795
-0.00180396
0.00298948
0.00316506
-0.00214366
-3.0748e-05
0.000351817
-0.000114571
0.000943624
-0.000247089
0.00147028
-0.000422968
0.00192431
-0.000636381
0.00230518
-0.000881629
0.00261963
-0.00115373
0.00288023
-0.00144887
0.00310309
-0.00176465
0.00330526
0.00350025
-0.00209984
-2.92433e-05
0.000381061
-0.00010946
0.00102384
-0.000236972
0.0015978
-0.0004071
0.00209444
-0.000614539
0.00251262
-0.000853938
0.00285903
-0.00112049
0.00314678
-0.00141041
0.00339301
-0.0017212
0.00361605
0.00383058
-0.00205153
-2.76135e-05
0.000408674
-0.000103907
0.00110013
-0.000225956
0.00171985
-0.000389784
0.00225826
-0.00059066
0.00271349
-0.000823623
0.00309199
-0.00108407
0.00340723
-0.00136827
0.00367721
-0.00167367
0.00392145
0.00415571
-0.0019988
-2.58655e-05
0.00043454
-9.79345e-05
0.0011722
-0.000214075
0.00183599
-0.000371062
0.00241525
-0.000564784
0.00290721
-0.000790717
0.00331793
-0.0010445
0.00366102
-0.00132248
0.00395519
-0.00162207
0.00422104
0.00447533
-0.00194169
-2.40073e-05
0.000458547
-9.15641e-05
0.00123976
-0.000201364
0.00194579
-0.000350977
0.00256486
-0.000536956
0.00309319
-0.000755255
0.00353623
-0.0010018
0.00390756
-0.00127303
0.00422642
-0.00156637
0.00451438
0.00478918
-0.00188021
-2.20476e-05
0.000480595
-8.48213e-05
0.00130253
-0.000187866
0.00204883
-0.000329581
0.00270658
-0.000507228
0.00327084
-0.000717278
0.00374628
-0.000955971
0.00414625
-0.0012199
0.00449035
-0.00150653
0.00480101
0.00509696
-0.00181432
-1.99961e-05
0.000500591
-7.77344e-05
0.00136027
-0.000173628
0.00214473
-0.000306936
0.00283989
-0.000475662
0.00343957
-0.000676837
0.00394745
-0.000907051
0.00437647
-0.00116308
0.00474638
-0.00144246
0.00508039
0.00539837
-0.00174387
-1.78633e-05
0.000518454
-7.03351e-05
0.00141274
-0.000158705
0.00223309
-0.00028311
0.00296429
-0.000442335
0.00359879
-0.000634
0.00413911
-0.000855076
0.00459754
-0.00110255
0.00499386
-0.00137404
0.00535187
0.005693
-0.00166867
-1.56607e-05
0.000534115
-6.26582e-05
0.00145974
-0.000143156
0.00231359
-0.000258188
0.00307932
-0.000407343
0.00374795
-0.000588867
0.00432064
-0.000800135
0.00480881
-0.00103834
0.00523206
-0.00130108
0.00561462
0.00598029
-0.00158837
-1.34006e-05
0.000547515
-5.47417e-05
0.00150108
-0.00012705
0.0023859
-0.000232263
0.00318454
-0.000370805
0.00388649
-0.000541582
0.00449141
-0.000742409
0.00500964
-0.000970658
0.00546031
-0.00122348
0.00586744
0.00625983
-0.00150301
-1.10963e-05
0.000558612
-4.66265e-05
0.00153661
-0.00011046
0.00244973
-0.000205443
0.00327952
-0.000332862
0.00401391
-0.000492347
0.0046509
-0.000682251
0.00519954
-0.000900348
0.0056784
-0.00114268
0.00610977
0.0065302
-0.00141306
-8.76482e-06
0.000567376
-3.83616e-05
0.00156621
-9.34738e-05
0.00250485
-0.000177847
0.00336389
-0.000293666
0.00412973
-0.000441368
0.0047986
-0.000620018
0.00537819
-0.000828596
0.00588698
-0.0010698
0.00635097
0.00681724
-0.00135684
-6.41361e-06
0.00057379
-2.99788e-05
0.00158977
-7.6153e-05
0.00255102
-0.000149566
0.00343731
-0.000253311
0.00423347
-0.000388682
0.00493397
-0.000555499
0.00554501
-0.000753346
0.00608483
-0.000984002
0.00658163
0.00708105
-0.00124781
-4.06113e-06
0.000577851
-2.15297e-05
0.00160724
-5.8588e-05
0.00258808
-0.000120719
0.00349944
-0.000211917
0.00432467
-0.000334324
0.00505638
-0.000488433
0.00569912
-0.000673965
0.00627036
-0.000891196
0.00679886
0.00732558
-0.00113572
-1.7295e-06
0.000579581
-1.30616e-05
0.00161858
-4.08646e-05
0.00261588
-9.14224e-05
0.00354999
-0.000169607
0.00440285
-0.000278386
0.00516516
-0.000418849
0.00583958
-0.000590707
0.00644222
-0.000792811
0.00700096
0.00755191
-0.00101914
5.85281e-07
0.000578995
-4.62021e-06
0.00162378
-2.30746e-05
0.00263434
-6.18091e-05
0.00358873
-0.000126538
0.00446758
-0.000221033
0.00525965
-0.000346947
0.0059655
-0.000504009
0.00659928
-0.000690111
0.00718707
0.00776048
-0.000898678
2.88608e-06
0.000576109
3.743e-06
0.00162292
-5.31433e-06
0.00264339
-3.20261e-05
0.00361544
-8.28974e-05
0.00451846
-0.000162487
0.00533924
-0.000273015
0.00607602
-0.000414324
0.00674059
-0.000583803
0.00735654
0.00795163
-0.00077495
5.09291e-06
0.000571016
1.19698e-05
0.00161605
1.23044e-05
0.00264306
-2.21527e-06
0.00362996
-3.88994e-05
0.00455514
-0.000103017
0.00540336
-0.000197399
0.00617041
-0.000322133
0.00686532
-0.000474472
0.00750888
0.00812542
-0.000648266
7.23583e-06
0.000563781
2.00087e-05
0.00160327
2.96715e-05
0.0026334
2.73878e-05
0.00363224
5.21903e-06
0.00457731
-4.29305e-05
0.00545151
-0.00012049
0.00624797
-0.000227932
0.00697276
-0.00036266
0.00764361
0.00828172
-0.000518961
9.29343e-06
0.000554487
2.78049e-05
0.00158476
4.66747e-05
0.00261453
5.6652e-05
0.00362227
4.91661e-05
0.00458479
1.74297e-05
0.00548325
-4.27086e-05
0.00630811
-0.000132216
0.00706227
-0.000248871
0.00776027
0.00842026
-0.000387408
1.12496e-05
0.000543237
3.53028e-05
0.00156071
6.31949e-05
0.00258663
8.53625e-05
0.0036001
9.2693e-05
0.00457746
7.76943e-05
0.00549824
3.55032e-05
0.0063503
-3.54786e-05
0.00713325
-0.00013359
0.00785838
0.00854066
-0.000253994
1.30898e-05
0.000530148
4.24475e-05
0.00153135
7.91125e-05
0.00254997
0.000113318
0.00356589
0.000135495
0.00455529
0.000137489
0.00549625
0.000113682
0.0063741
6.1792e-05
0.00718514
-1.67756e-05
0.00793694
0.0086431
-0.000119217
1.48004e-05
0.000515347
4.91867e-05
0.00149697
9.43105e-05
0.00250485
0.000140315
0.00351989
0.00017727
0.00451833
0.000196412
0.00547711
0.000191351
0.00637916
0.000158965
0.00721753
9.94252e-05
0.00799648
0.00872769
1.48401e-05
1.63695e-05
0.000498978
5.54712e-05
0.00145786
0.000108676
0.00245164
0.000166153
0.00346241
0.000217718
0.00446677
0.00025406
0.00544077
0.000268029
0.0063652
0.000255638
0.00722992
0.000216451
0.00803567
0.00879086
0.000153277
1.77866e-05
0.000481191
6.12563e-05
0.00141439
0.000122102
0.0023908
0.000190637
0.00339388
0.000256536
0.00440087
0.000310025
0.00538728
0.000343218
0.006332
0.000351243
0.0072219
0.000332789
0.00805413
0.00883392
0.000289736
1.90429e-05
0.000462148
6.65026e-05
0.00136693
0.00013449
0.00232281
0.000213581
0.00331479
0.00029343
0.00432102
0.000363895
0.00531681
0.000416398
0.0062795
0.000445159
0.00719313
0.000447892
0.00805139
0.00885616
0.000425644
2.0132e-05
0.000442016
7.11765e-05
0.00131589
0.000145753
0.00224823
0.000234812
0.00322573
0.000328116
0.00422771
0.000415263
0.00522966
0.000487049
0.00620772
0.000536789
0.00714339
0.000561187
0.008027
0.00885698
0.000560374
2.1049e-05
0.000420967
7.52515e-05
0.00126169
0.000155815
0.00216767
0.000254175
0.00312737
0.000360326
0.00412156
0.000463734
0.00512626
0.000554655
0.0061168
0.000625528
0.00707252
0.000672017
0.00798051
0.00883574
0.000693252
2.17917e-05
0.000399176
7.87082e-05
0.00120477
0.000164614
0.00208176
0.00027153
0.00302045
0.000389814
0.00400328
0.00050893
0.00500714
0.000618702
0.00600702
0.00071075
0.00698047
0.000779682
0.00791157
0.00879187
0.000823555
2.23599e-05
0.000376816
8.15349e-05
0.0011456
0.000172104
0.00199119
0.000286765
0.00290579
0.000416359
0.00387369
0.000550495
0.004873
0.00067869
0.00587883
0.000791822
0.00686734
0.000883452
0.00781994
0.00872482
0.000950498
2.27554e-05
0.00035406
8.3728e-05
0.00108462
0.000178255
0.00189667
0.000299788
0.00278426
0.000439771
0.0037337
0.000588101
0.00472467
0.000734135
0.00573279
0.00086811
0.00673337
0.000982572
0.00770548
0.00863416
0.00107324
2.29802e-05
0.00033108
8.52871e-05
0.00102232
0.000183046
0.00179891
0.000310527
0.00265678
0.000459886
0.00358434
0.00062145
0.00456311
0.000784573
0.00556967
0.00093898
0.00657896
0.00107626
0.0075682
0.00851953
0.00119089
2.30451e-05
0.000308035
8.62336e-05
0.000959128
0.000186495
0.00169865
0.000318965
0.00252431
0.000476607
0.0034267
0.000650319