/*--------------------------------*- C++ -*----------------------------------*\
  =========                 |
  \\      /  F ield         | OpenFOAM: The Open Source CFD Toolbox
   \\    /   O peration     | Website:  https://openfoam.org
    \\  /    A nd           | Version:  7
     \\/     M anipulation  |
\*---------------------------------------------------------------------------*/
FoamFile
{
    version     2.0;
    format      ascii;
    class       volVectorField;
    location    "55";
    object      U;
}
// * * * * * * * * * * * * * * * * * * * * * * * * * * * * * * * * * * * * * //

dimensions      [0 1 -1 0 0 0 0];

internalField   nonuniform List<vector> 
8500
(
(1.00515 0.379105 -1.6298e-20)
(0.992784 0.394019 -1.67177e-19)
(0.995339 0.378359 1.9471e-19)
(0.979129 0.411175 -2.13652e-19)
(0.982195 0.393079 2.26168e-19)
(0.985412 0.377302 -2.99497e-19)
(0.96508 0.430107 -1.11939e-19)
(0.967959 0.410079 3.80161e-19)
(0.971493 0.391818 -2.58234e-19)
(0.975386 0.375921 8.6047e-20)
(0.953345 0.428823 1.7259e-19)
(0.956726 0.408649 1.48243e-19)
(0.960697 0.390228 -6.26366e-19)
(0.965275 0.374193 1.45104e-19)
(0.938269 0.448676 2.11777e-19)
(0.94157 0.427165 -2.73202e-19)
(0.945456 0.406877 7.78634e-20)
(0.949828 0.388294 6.3754e-19)
(0.95509 0.372081 3.58225e-19)
(0.922126 0.469656 -9.56457e-20)
(0.925808 0.446742 -3.36938e-19)
(0.929777 0.425123 -1.00328e-19)
(0.934174 0.404756 -3.86513e-19)
(0.938909 0.386001 1.63062e-19)
(0.944873 0.369539 -4.2267e-19)
(0.90886 0.467397 -6.74943e-20)
(0.913312 0.444384 -2.48321e-20)
(0.917978 0.422686 2.06124e-19)
(0.922898 0.402275 3.86566e-19)
(0.927994 0.383336 -6.6125e-19)
(0.934788 0.366533 4.33982e-19)
(0.890416 0.489161 -3.51914e-21)
(0.895548 0.464682 -1.5733e-20)
(0.900788 0.441594 3.7204e-19)
(0.906176 0.419837 -1.42669e-19)
(0.911634 0.399403 -2.72039e-19)
(0.91719 0.380254 -8.10378e-21)
(0.925081 0.363074 -5.96118e-19)
(0.876226 0.486039 -1.78605e-19)
(0.882204 0.461505 9.77221e-20)
(0.888243 0.438368 2.78924e-19)
(0.894356 0.416569 7.79973e-20)
(0.900381 0.396099 -4.77794e-19)
(0.906626 0.376618 -1.57579e-20)
(0.915703 0.358993 1.93402e-19)
(0.85516 0.508455 -1.06651e-19)
(0.862015 0.482422 -1.38382e-20)
(0.868843 0.457867 -2.86172e-19)
(0.875679 0.434711 -1.51812e-19)
(0.882507 0.412893 -1.74778e-19)
(0.88915 0.392387 5.54221e-19)
(0.896373 0.372407 -1.28199e-19)
(0.905726 0.35272 4.89208e-19)
(0.832123 0.53187 -3.32449e-19)
(0.840033 0.504334 1.38622e-19)
(0.8478 0.478308 2.21095e-19)
(0.855482 0.453769 9.72567e-20)
(0.863111 0.430629 2.43052e-19)
(0.870647 0.408827 1.1266e-19)
(0.877965 0.388334 -3.61668e-20)
(0.886045 0.368349 2.62135e-19)
(0.895325 0.348745 3.39603e-20)
(0.816036 0.527183 -1.38238e-19)
(0.824922 0.499676 -3.9685e-19)
(0.833605 0.473696 -2.99301e-20)
(0.842141 0.44921 -1.71366e-19)
(0.850559 0.426124 2.64014e-19)
(0.858806 0.404377 -4.13488e-19)
(0.866797 0.383922 -1.08477e-19)
(0.875506 0.363953 -1.61279e-19)
(0.884774 0.344376 -5.9168e-19)
(0.789704 0.550776 -5.5259e-20)
(0.799982 0.521912 -9.09051e-21)
(0.809848 0.494479 -4.77304e-20)
(0.81945 0.468585 -1.31228e-19)
(0.828841 0.444191 -1.87003e-19)
(0.838047 0.421197 9.3502e-20)
(0.847012 0.399542 3.28625e-19)
(0.855679 0.379166 -1.72745e-19)
(0.864967 0.359288 2.26483e-19)
(0.874422 0.339905 6.59766e-19)
(0.772674 0.54483 -5.97296e-19)
(0.783987 0.516057 -2.7399e-19)
(0.794835 0.488741 8.75492e-20)
(0.805357 0.462975 1.10357e-19)
(0.815603 0.438711 3.7763e-19)
(0.825598 0.415848 -5.29224e-19)
(0.835284 0.394322 1.55926e-19)
(0.844625 0.374064 9.83447e-20)
(0.854482 0.35433 -1.42405e-19)
(0.86425 0.335216 -4.93371e-19)
(0.742524 0.567963 -4.71874e-19)
(0.755725 0.538249 4.21852e-19)
(0.768076 0.509617 5.01912e-19)
(0.779908 0.482463 4.02563e-19)
(0.791349 0.456866 2.87404e-19)
(0.802449 0.432771 -6.28117e-19)
(0.813231 0.410076 -2.387e-21)
(0.82364 0.388715 -1.71405e-19)
(0.833654 0.368614 6.58981e-19)
(0.844087 0.349071 -3.47311e-20)
(0.854243 0.330259 -3.27315e-19)
(0.724611 0.560605 4.09059e-19)
(0.738884 0.531035 1.05518e-20)
(0.752275 0.502593 1.53867e-19)
(0.765089 0.475647 -2.45287e-19)
(0.777448 0.45026 -3.14665e-19)
(0.789399 0.426372 7.91811e-19)
(0.800966 0.403882 3.1986e-19)
(0.812099 0.382723 -3.29084e-19)
(0.822787 0.362813 -3.92489e-19)
(0.833805 0.343501 -4.41105e-19)
(0.844396 0.325011 -3.31671e-20)
(0.706831 0.552561 2.16366e-19)
(0.72218 0.523191 8.30867e-20)
(0.736609 0.494988 -4.31952e-19)
(0.750403 0.468294 4.55207e-19)
(0.763675 0.443158 2.74395e-19)
(0.776474 0.419516 -1.14228e-19)
(0.788825 0.397266 -2.16118e-19)
(0.800681 0.376343 1.90968e-19)
(0.812043 0.356661 -3.20697e-19)
(0.823653 0.337612 -4.49433e-19)
(0.83471 0.319459 4.4219e-19)
(0.671233 0.573238 6.64725e-19)
(0.689215 0.543835 -3.27755e-19)
(0.70564 0.514719 4.03827e-19)
(0.721104 0.486805 -4.71552e-19)
(0.735872 0.460406 6.18078e-20)
(0.750053 0.435562 -1.94093e-19)
(0.763695 0.412204 1.33726e-19)
(0.776826 0.390231 1.26517e-19)
(0.789404 0.369577 -7.96933e-20)
(0.801439 0.350154 7.98291e-19)
(0.813645 0.331398 -9.71459e-20)
(0.825189 0.313595 -3.74057e-19)
(0.652739 0.5636 -4.79895e-19)
(0.671795 0.534431 6.8138e-19)
(0.689293 0.505625 -8.29508e-20)
(0.705786 0.478048 1.97026e-19)
(0.721521 0.451989 2.31243e-19)
(0.736603 0.427476 9.27556e-20)
(0.751082 0.404439 -6.53541e-19)
(0.764988 0.382778 1.42911e-19)
(0.778284 0.362426 1.42172e-19)
(0.790991 0.343293 -4.70369e-19)
(0.803795 0.324857 1.84577e-19)
(0.81584 0.307415 6.95775e-20)
(0.611743 0.58066 -6.9748e-20)
(0.63447 0.55323 -6.24382e-21)
(0.654599 0.524356 1.00392e-19)
(0.673164 0.495914 -1.91108e-19)
(0.690679 0.468722 -2.18294e-20)
(0.707373 0.443045 -7.1887e-19)
(0.723348 0.418904 -5.53644e-19)
(0.738656 0.396225 -9.06475e-20)
(0.75333 0.37491 -8.1476e-20)
(0.767339 0.354891 -8.92789e-20)
(0.780715 0.336078 -1.81579e-19)
(0.794114 0.317988 -2.12517e-19)
(0.806669 0.300919 -2.90259e-19)
(0.592729 0.569347 -1.30801e-19)
(0.616459 0.542136 -5.83707e-20)
(0.637658 0.513619 -6.2468e-19)
(0.657283 0.485594 -5.94807e-19)
(0.675808 0.458833 1.13004e-19)
(0.69345 0.433582 9.68758e-19)
(0.710308 0.409852 1.51581e-19)
(0.726435 0.387567 3.99629e-19)
(0.74187 0.36663 -6.19357e-19)
(0.756585 0.346975 -1.49728e-19)
(0.770624 0.32851 7.52262e-19)
(0.784616 0.31079 3.42167e-19)
(0.797684 0.294106 1.39785e-18)
(0.574002 0.557253 -7.99163e-20)
(0.598738 0.530329 4.18072e-19)
(0.621001 0.502229 -2.53981e-19)
(0.641674 0.474672 1.95639e-19)
(0.661197 0.44839 4.45682e-19)
(0.679775 0.423606 -3.15938e-19)
(0.697504 0.400324 8.3213e-20)
(0.71444 0.378468 3.85772e-19)
(0.730625 0.357943 4.97073e-19)
(0.746039 0.338681 -2.59045e-19)
(0.760734 0.320593 -1.55001e-19)
(0.775311 0.303266 2.34504e-19)
(0.788894 0.286981 -6.89745e-19)
(0.525966 0.566667 9.48218e-20)
(0.555599 0.544391 2.62943e-19)
(0.581339 0.51782 -3.9491e-19)
(0.604656 0.490195 9.39968e-19)
(0.626365 0.463158 3.93056e-19)
(0.646871 0.4374 -1.37084e-19)
(0.66637 0.413124 -4.54455e-20)
(0.684956 0.390328 1.82732e-19)
(0.702689 0.368936 -5.09985e-19)
(0.719613 0.348855 4.16135e-20)
(0.735716 0.330016 -3.3095e-19)
(0.751058 0.312329 -1.50471e-19)
(0.766211 0.295418 -6.73599e-19)
(0.780309 0.279546 -2.95671e-19)
(0.507086 0.552864 -3.25377e-19)
(0.537555 0.530775 1.71465e-19)
(0.564294 0.504623 -1.07661e-19)
(0.588653 0.47753 -3.35206e-19)
(0.61138 0.451063 3.60764e-19)
(0.632854 0.425872 3.92485e-19)
(0.653257 0.402144 -2.21677e-21)
(0.672685 0.379872 -9.19946e-20)
(0.6912 0.358978 -5.17329e-20)
(0.708851 0.339371 3.95367e-19)
(0.725631 0.320983 3.65591e-19)
(0.741609 0.303725 1.03036e-19)
(0.757329 0.287252 7.05205e-19)
(0.771939 0.271807 2.34382e-19)
(0.488595 0.538251 -1.14083e-19)
(0.519904 0.51642 -2.01948e-19)
(0.547633 0.490751 -7.62795e-20)
(0.573019 0.464245 -9.19659e-21)
(0.596747 0.438397 -7.97954e-19)
(0.619168 0.413817 -1.01672e-18)
(0.640457 0.390678 -1.59259e-19)
(0.66071 0.368965 3.61315e-19)
(0.679992 0.348602 -1.4356e-19)
(0.698354 0.329499 -7.45356e-19)
(0.715799 0.311589 7.06312e-19)
(0.732401 0.294786 1.03231e-19)
(0.748675 0.278772 -2.92699e-19)
(0.763792 0.263769 4.63291e-19)
(0.43314 0.535718 1.34213e-19)
(0.470532 0.52285 4.6416e-19)
(0.502679 0.501345 -1.6194e-19)
(0.531387 0.476221 2.46654e-19)
(0.55778 0.450356 4.77931e-19)
(0.582488 0.425173 2.62756e-19)
(0.605836 0.401247 1.12343e-18)
(0.627992 0.378734 5.18354e-19)
(0.64905 0.357615 -4.55311e-20)
(0.669081 0.337816 -2.59166e-20)
(0.68814 0.319247 9.4727e-20)
(0.706235 0.301843 -7.73353e-19)
(0.723447 0.285519 -4.19774e-19)
(0.740262 0.269985 1.83717e-19)
(0.755879 0.255438 -6.39244e-19)
(0.415011 0.519542 9.80725e-20)
(0.452932 0.506679 -5.83806e-19)
(0.485913 0.485568 4.44241e-19)
(0.515584 0.461048 -2.09942e-19)
(0.542964 0.435877 -4.84324e-19)
(0.568628 0.411406 -1.18528e-19)
(0.59288 0.388175 -4.61601e-19)
(0.61588 0.366325 -9.70557e-19)
(0.637725 0.345835 8.25044e-20)
(0.658486 0.326629 7.85967e-19)
(0.678224 0.308624 -3.47292e-19)
(0.696952 0.291752 4.33666e-19)
(0.714759 0.275931 5.85566e-19)
(0.732101 0.260897 3.82595e-19)
(0.74821 0.246823 2.94862e-19)
(0.397374 0.502554 3.4873e-19)
(0.435831 0.489761 6.13882e-19)
(0.469637 0.469108 -7.49747e-19)
(0.500252 0.44525 5.94116e-19)
(0.528595 0.420823 4.80805e-19)
(0.555191 0.397109 -1.38756e-19)
(0.580322 0.374613 -7.62338e-20)
(0.604143 0.353462 2.80937e-19)
(0.626751 0.333634 -4.88475e-19)
(0.648223 0.315054 -6.6406e-19)
(0.66862 0.297639 2.56048e-19)
(0.687966 0.281324 -2.59345e-19)
(0.70635 0.26603 -3.19234e-19)
(0.724204 0.251516 -2.7887e-19)
(0.740794 0.23793 2.72317e-20)
(0.380264 0.484776 -6.02072e-19)
(0.419263 0.472118 -5.0527e-20)
(0.453882 0.451986 3.78804e-20)
(0.485419 0.428846 -6.43324e-20)
(0.514699 0.405213 -5.99314e-19)
(0.542199 0.382299 -2.42505e-20)
(0.568182 0.360576 -1.00332e-19)
(0.592799 0.34016 6.09691e-19)
(0.616148 0.321026 -1.91258e-19)
(0.638307 0.3031 -5.4807e-20)
(0.659344 0.286303 3.32939e-19)
(0.679288 0.27057 9.84805e-19)
(0.698232 0.255825 -1.02354e-19)
(0.716581 0.24185 -1.19926e-19)
(0.733641 0.228768 2.09719e-19)
(0.318491 0.464933 4.25472e-19)
(0.363721 0.466237 -2.4983e-19)
(0.40326 0.453776 -4.12472e-19)
(0.438676 0.434225 4.10845e-19)
(0.471111 0.411858 -1.39332e-19)
(0.501299 0.389065 3.906e-19)
(0.529674 0.366992 1.805e-19)
(0.556482 0.346079 -1.067e-19)
(0.581867 0.326433 -4.1524e-19)
(0.605931 0.308023 5.17859e-19)
(0.628755 0.290781 -1.30607e-19)
(0.650411 0.274627 -5.81608e-19)
(0.670932 0.2595 -2.053e-19)
(0.690418 0.245326 -6.48914e-20)
(0.709242 0.231909 1.02923e-18)
(0.726761 0.219347 -6.71062e-19)
(0.302481 0.446059 -3.177e-19)
(0.347777 0.446963 6.24305e-19)
(0.387855 0.434759 1.14813e-19)
(0.424049 0.415848 3.06752e-19)
(0.457353 0.394305 2.30852e-19)
(0.488419 0.372398 -6.40857e-19)
(0.517637 0.351206 -3.40304e-19)
(0.545239 0.33114 6.37563e-19)
(0.571365 0.312294 -2.32834e-20)
(0.596117 0.29464 -5.32814e-19)
(0.619582 0.278108 1.39122e-19)
(0.641833 0.262623 6.75069e-19)
(0.662911 0.248125 -5.54282e-19)
(0.682917 0.234544 -2.27311e-19)
(0.7022 0.221702 -2.04645e-19)
(0.720162 0.209675 4.54474e-19)
(0.287088 0.42643 -4.22546e-19)
(0.332469 0.426984 -1.84283e-19)
(0.373078 0.415096 -7.70239e-20)
(0.410028 0.396879 -6.14818e-19)
(0.444171 0.376209 -4.71845e-19)
(0.47608 0.355232 6.32454e-19)
(0.506109 0.33496 3.55952e-19)
(0.534473 0.315775 -2.82204e-19)
(0.561309 0.297762 -3.28466e-19)
(0.586723 0.280891 3.61774e-19)
(0.610802 0.265096 -2.05734e-19)
(0.633625 0.250304 3.00352e-19)
(0.655237 0.236457 1.4683e-19)
(0.675743 0.223488 5.76782e-19)
(0.695464 0.211239 1.15627e-19)
(0.713855 0.199762 -5.36463e-19)
(0.272348 0.406079 -8.56047e-20)
(0.317828 0.40633 -2.43875e-19)
(0.358957 0.394813 2.1727e-19)
(0.396637 0.377344 8.1501e-20)
(0.431588 0.357596 -2.42539e-19)
(0.464306 0.337589 1.63844e-19)
(0.49511 0.318273 -4.42045e-19)
(0.524202 0.300001 -1.00303e-19)
(0.551718 0.282851 4.13859e-19)
(0.577763 0.266791 1.48119e-19)
(0.60243 0.251758 2.37414e-19)
(0.625798 0.237683 -4.54352e-19)
(0.647922 0.224508 -1.77353e-19)
(0.668904 0.212171 -6.16126e-20)
(0.689044 0.200532 8.39017e-20)
(0.707847 0.18962 4.90391e-19)
(0.258295 0.38504 -1.9057e-19)
(0.303884 0.385034 4.23543e-19)
(0.34552 0.37394 6.75525e-19)
(0.383903 0.35727 1.94176e-19)
(0.419625 0.338487 2.68556e-19)
(0.453114 0.319491 -5.38286e-21)
(0.484657 0.301165 1.30831e-19)
(0.514442 0.283839 4.60556e-19)
(0.542605 0.26758 -6.90312e-20)
(0.569252 0.252358 -8.43934e-19)
(0.594477 0.23811 6.98331e-21)
(0.618366 0.224773 4.92158e-20)
(0.640976 0.212291 4.5663e-20)
(0.662412 0.200605 -2.85095e-19)
(0.682949 0.18959 -2.68369e-19)
(0.702146 0.179258 -5.25415e-19)
(0.195347 0.345829 -1.27891e-19)
(0.24496 0.363348 2.5334e-19)
(0.290667 0.363129 2.50668e-19)
(0.332793 0.352508 -2.52343e-19)
(0.371847 0.336684 2.87882e-20)
(0.408304 0.31891 -1.66287e-19)
(0.442525 0.30096 4.08396e-20)
(0.474769 0.283659 -4.97308e-21)
(0.505211 0.267307 -2.06591e-19)
(0.533987 0.251967 -9.45596e-20)
(0.561203 0.237606 5.59647e-19)
(0.586958 0.224168 -4.22689e-19)
(0.611339 0.21159 2.87686e-19)
(0.63441 0.199819 1.17624e-19)
(0.656275 0.188802 -2.75608e-20)
(0.677188 0.178426 8.08968e-21)
(0.696761 0.168688 2.88805e-19)
(0.183246 0.324816 3.51157e-19)
(0.232374 0.341038 -1.95369e-19)
(0.278204 0.340647 -3.45847e-19)
(0.320801 0.330548 -2.12168e-19)
(0.360494 0.315615 -4.14289e-19)
(0.397645 0.298889 3.41364e-19)
(0.432558 0.282022 -2.83492e-19)
(0.465462 0.265775 6.12297e-20)
(0.496524 0.250426 4.32353e-20)
(0.525877 0.23603 -1.91068e-19)
(0.55363 0.222555 2.24868e-19)
(0.579884 0.209947 3.44275e-19)
(0.60473 0.198148 -3.07726e-19)
(0.628235 0.187107 -3.57252e-19)
(0.650505 0.176775 6.90806e-19)
(0.671771 0.167053 -6.2988e-19)
(0.6917 0.157922 2.33074e-19)
(0.17188 0.303205 -2.92535e-19)
(0.220567 0.31815 6.28952e-20)
(0.266522 0.317625 1.37387e-19)
(0.309567 0.308091 -4.81335e-19)
(0.349862 0.294091 7.94439e-20)
(0.387667 0.278451 -3.32238e-19)
(0.423229 0.262699 2.8461e-19)
(0.456752 0.247537 6.91837e-20)
(0.488395 0.233218 -3.16011e-19)
(0.518289 0.219789 -7.28756e-20)
(0.546545 0.207221 1.73947e-19)
(0.573267 0.195464 8.28401e-20)
(0.598547 0.184462 -2.48955e-20)
(0.622459 0.174169 2.0981e-20)
(0.645108 0.164538 -6.05817e-19)
(0.666705 0.155482 4.37683e-19)
(0.686969 0.146972 4.10331e-19)
(0.161278 0.281038 2.65478e-19)
(0.209563 0.29472 1.82531e-19)
(0.255644 0.294099 3.48142e-19)
(0.299112 0.285171 4.93986e-20)
(0.339972 0.272144 3.42613e-20)
(0.378387 0.257625 -2.47588e-21)
(0.414554 0.243019 -3.64265e-19)
(0.448654 0.228968 1.92877e-19)
(0.480837 0.215702 -3.13797e-19)
(0.511235 0.203264 2.09006e-19)
(0.53996 0.191624 -3.40426e-19)
(0.567117 0.180736 -2.03199e-19)
(0.592802 0.17055 4.15009e-19)
(0.617093 0.161019 3.75553e-20)
(0.640094 0.152104 9.59659e-20)
(0.661998 0.143726 3.85054e-20)
(0.682575 0.135849 -4.53037e-19)
(0.151466 0.258353 -1.77704e-19)
(0.199388 0.270789 1.12202e-19)
(0.245593 0.270105 -2.55839e-19)
(0.289458 0.261822 1.96307e-19)
(0.330842 0.249805 2.86571e-20)
(0.369822 0.236439 1.68455e-19)
(0.406549 0.223007 -5.53264e-21)
(0.441181 0.210092 -1.68945e-19)
(0.473865 0.197903 1.70014e-19)
(0.504727 0.186475 -4.39929e-19)
(0.533885 0.175783 6.21642e-19)
(0.561444 0.165782 2.40832e-19)
(0.587503 0.156426 -5.1063e-19)
(0.612144 0.147674 5.1919e-20)
(0.63547 0.139488 3.41567e-19)
(0.657658 0.1318 -4.90192e-19)
(0.678525 0.124567 -3.03477e-21)
(0.142467 0.235192 1.16136e-19)
(0.190066 0.246396 -9.6476e-20)
(0.23639 0.245681 -4.78228e-20)
(0.280621 0.238079 -9.80943e-20)
(0.322489 0.227104 -1.25727e-19)
(0.361987 0.214921 -3.5436e-19)
(0.399227 0.202689 1.56765e-19)
(0.434347 0.190934 -2.20091e-19)
(0.467488 0.179842 4.1037e-19)
(0.498776 0.169444 2.80585e-19)
(0.52833 0.159717 -4.9976e-19)
(0.556257 0.150619 -5.08882e-19)
(0.582658 0.142109 2.46559e-19)
(0.60762 0.134149 -2.77667e-19)
(0.631244 0.126704 -3.48613e-20)
(0.65369 0.119717 2.80184e-19)
(0.674824 0.113139 -5.25433e-19)
(0.134305 0.211598 -1.86312e-19)
(0.181615 0.221584 -2.69168e-19)
(0.228052 0.220865 3.97435e-19)
(0.27262 0.213977 5.5888e-20)
(0.314927 0.204075 2.02764e-19)
(0.354896 0.193102 2.15776e-19)
(0.392601 0.182094 -5.15521e-20)
(0.428163 0.171519 3.08587e-19)
(0.461718 0.161543 -1.8381e-19)
(0.493392 0.152193 -2.41932e-19)
(0.523304 0.143446 3.90045e-19)
(0.551565 0.135267 4.49903e-19)
(0.578276 0.127616 -5.21489e-19)
(0.603527 0.120459 7.28982e-20)
(0.627421 0.113767 -4.87562e-20)
(0.650102 0.10749 -1.74515e-19)
(0.671478 0.101577 7.03407e-20)
(0.126999 0.187614 2.04402e-19)
(0.174057 0.196394 1.4896e-19)
(0.220599 0.195698 -2.14556e-19)
(0.265469 0.189551 1.01376e-19)
(0.30817 0.18075 1.15427e-19)
(0.348562 0.171011 -3.67282e-19)
(0.386682 0.161248 1.81774e-19)
(0.42264 0.151873 2.05852e-20)
(0.456565 0.14303 1.78888e-19)
(0.488584 0.134743 -2.3369e-19)
(0.518816 0.126992 2.94067e-20)
(0.547375 0.119743 -1.88551e-20)
(0.574363 0.112963 2.67678e-20)
(0.599874 0.106622 1.63881e-19)
(0.624007 0.100693 2.9926e-20)
(0.646898 0.0951346 -3.73224e-20)
(0.668491 0.0898958 4.24181e-21)
(0.120568 0.163283 -3.08297e-20)
(0.167406 0.17087 1.82093e-19)
(0.214043 0.170219 -2.31877e-19)
(0.259182 0.16484 5.81731e-20)
(0.302231 0.157164 -2.086e-19)
(0.342994 0.14868 7.25879e-22)
(0.38148 0.14018 -3.412e-19)
(0.417786 0.132022 -2.50878e-19)
(0.452037 0.124327 1.36654e-19)
(0.484359 0.117117 3.65981e-20)
(0.514873 0.110373 -9.77142e-20)
(0.543694 0.104067 1.32299e-19)
(0.570925 0.0981701 9.79852e-20)
(0.596664 0.0926543 1.6605e-19)
(0.621009 0.0874976 8.25345e-20)
(0.644083 0.0826647 1.92337e-19)
(0.665868 0.0781079 7.90376e-20)
(0.0706738 0.12148 2.9558e-19)
(0.115026 0.138652 -1.16314e-19)
(0.161679 0.145053 -5.37661e-20)
(0.2084 0.144469 -1.02921e-19)
(0.253772 0.139879 9.87849e-21)
(0.297121 0.133349 7.40524e-20)
(0.338204 0.126139 2.31856e-19)
(0.377005 0.11892 2.87235e-19)
(0.413611 0.111992 1.12984e-19)
(0.448142 0.105459 -2.73714e-20)
(0.480724 0.0993379 -6.00598e-20)
(0.511481 0.0936129 -1.5266e-19)
(0.540527 0.08826 1.86127e-20)
(0.567969 0.0832541 -1.85589e-20)
(0.593903 0.0785723 -1.35714e-19)
(0.618431 0.0741957 -1.4613e-20)
(0.641663 0.0700952 -2.78519e-19)
(0.663613 0.0662274 5.5899e-21)
(0.0665492 0.0997021 -1.20928e-19)
(0.110387 0.113765 -6.4203e-21)
(0.156887 0.11899 -1.38078e-20)
(0.20368 0.118488 6.89251e-20)
(0.249247 0.114707 -2.17136e-19)
(0.292849 0.10934 -8.59739e-20)
(0.3342 0.10342 -1.4825e-19)
(0.373265 0.0974949 6.07594e-21)
(0.41012 0.0918101 5.06169e-20)
(0.444886 0.0864502 1.14145e-19)
(0.477687 0.0814283 -2.26762e-20)
(0.508646 0.0767317 1.02674e-19)
(0.537881 0.0723404 -5.06621e-20)
(0.565498 0.068234 -1.86023e-19)
(0.591597 0.0643935 -1.96482e-20)
(0.616276 0.0608036 -4.40914e-20)
(0.63964 0.0574412 2.12659e-19)
(0.661729 0.0542684 -3.61136e-20)
(0.0632366 0.0777238 -2.82603e-20)
(0.106663 0.0886676 6.23345e-20)
(0.153041 0.0927227 4.9069e-20)
(0.199893 0.0923179 1.42493e-20)
(0.245618 0.0893615 1.67544e-19)
(0.289422 0.0851725 -4.56475e-20)
(0.330988 0.0805551 4.09956e-20)
(0.370265 0.0759355 4.94019e-20)
(0.407321 0.071504 3.45631e-20)
(0.442275 0.0673261 -9.54207e-20)
(0.475251 0.0634119 1.26749e-19)
(0.506373 0.0597513 9.67227e-20)
(0.535759 0.0563287 -3.83579e-20)
(0.563516 0.0531283 1.58596e-19)
(0.589747 0.0501352 2.51883e-19)
(0.614548 0.0473375 -3.73207e-20)
(0.638018 0.0447178 9.63973e-20)
(0.660218 0.042245 -4.39093e-20)
(0.0607449 0.0555893 1.91391e-20)
(0.103863 0.0634066 -9.86545e-20)
(0.15015 0.0662974 5.12909e-20)
(0.197046 0.0660003 1.51942e-19)
(0.24289 0.0638805 -1.23208e-19)
(0.286847 0.0608811 -7.22643e-21)
(0.328575 0.0575765 3.22371e-20)
(0.368011 0.0542712 7.28272e-20)
(0.405218 0.0511009 6.79528e-21)
(0.440313 0.0481122 -2.38471e-20)
(0.47342 0.0453121 -3.92788e-20)
(0.504665 0.0426935 -4.21003e-20)
(0.534164 0.0402453 1.62836e-20)
(0.562028 0.037956 1.651e-20)
(0.588357 0.035815 -8.47419e-20)
(0.61325 0.0338138 -8.41738e-21)
(0.636799 0.0319402 -2.077e-19)
(0.659083 0.0301713 8.76677e-20)
(0.0590808 0.0333428 -9.07494e-21)
(0.101994 0.0380285 4.17914e-20)
(0.14822 0.0397589 -2.45963e-20)
(0.195146 0.0395773 -7.7811e-20)
(0.24107 0.0383028 3.80352e-20)
(0.285128 0.036501 -8.62188e-22)
(0.326965 0.0345165 -1.11761e-19)
(0.366506 0.0325319 6.8485e-20)
(0.403815 0.0306283 -4.6649e-20)
(0.439004 0.0288339 3.7506e-20)
(0.472199 0.0271527 -3.11104e-20)
(0.503525 0.0255805 1.66189e-20)
(0.5331 0.0241105 3.04853e-20)
(0.561034 0.0227359 -9.03342e-20)
(0.58743 0.0214504 8.631e-21)
(0.612384 0.0202488 -4.20163e-21)
(0.635986 0.0191239 5.26475e-20)
(0.658326 0.0180617 1.19545e-21)
(0.0582489 0.0110292 6.2699e-21)
(0.101059 0.0125801 7.88113e-21)
(0.147255 0.0131524 -1.56925e-20)
(0.194196 0.013091 3.03667e-20)
(0.24016 0.0126669 -1.20831e-20)
(0.284269 0.0120677 3.79825e-20)
(0.326159 0.0114077 3.51544e-20)
(0.365754 0.0107474 -4.41905e-20)
(0.403113 0.0101141 -1.64899e-20)
(0.438349 0.009517 2.2637e-20)
(0.471588 0.0089575 -1.60649e-20)
(0.502956 0.0084342 -2.08251e-20)
(0.532568 0.00794488 1.78822e-21)
(0.560537 0.00748724 2.1839e-20)
(0.586966 0.0070592 4.3254e-20)
(0.61195 0.00665905 3.2675e-21)
(0.635579 0.00628441 4.91968e-21)
(0.657947 0.0059306 2.19835e-20)
(0.0582513 -0.0113066 4.98146e-21)
(0.101061 -0.0128916 9.32098e-21)
(0.147257 -0.0134767 -7.89876e-21)
(0.194199 -0.0134164 2.87249e-20)
(0.240162 -0.0129882 -1.60322e-20)
(0.284271 -0.0123833 4.19157e-20)
(0.326161 -0.0117174 2.59033e-20)
(0.365756 -0.0110519 -3.50253e-20)
(0.403115 -0.0104139 -1.29485e-20)
(0.43835 -0.00981269 1.61939e-20)
(0.47159 -0.00924956 -1.36058e-20)
(0.502957 -0.00872306 -2.67779e-20)
(0.532569 -0.00823096 7.0742e-21)
(0.560538 -0.00777091 1.94121e-20)
(0.586967 -0.0073408 4.43919e-20)
(0.611951 -0.00693891 3.85067e-21)
(0.63558 -0.0065628 3.42709e-21)
(0.657948 -0.0062077 2.3414e-20)
(0.059088 -0.0336199 3.38799e-20)
(0.102001 -0.0383398 2.61523e-20)
(0.148227 -0.0400829 -2.12637e-20)
(0.195153 -0.0399025 -1.27295e-19)
(0.241076 -0.0386239 7.75271e-20)
(0.285134 -0.0368163 -1.29191e-20)
(0.32697 -0.0348261 -6.10776e-20)
(0.366511 -0.0328362 2.24151e-23)
(0.403819 -0.030928 -3.43369e-20)
(0.439008 -0.0291294 4.50747e-20)
(0.472203 -0.0274446 -4.57182e-20)
(0.503529 -0.0258692 3.88255e-20)
(0.533103 -0.0243964 1.47508e-20)
(0.561037 -0.0230195 -7.1757e-20)
(0.587432 -0.0217319 2.17854e-20)
(0.612386 -0.0205286 -3.53244e-21)
(0.635988 -0.0194022 3.89233e-20)
(0.658327 -0.0183388 4.05088e-21)
(0.0607568 -0.0558657 -5.12443e-20)
(0.103876 -0.0637172 -8.0264e-20)
(0.150162 -0.0666209 9.25905e-20)
(0.197058 -0.066325 1.42375e-19)
(0.242901 -0.0642012 -1.27938e-19)
(0.286856 -0.061196 3.40281e-20)
(0.328584 -0.0578857 1.66773e-20)
(0.368019 -0.0545752 8.36575e-20)
(0.405226 -0.0514002 -2.26718e-20)
(0.440319 -0.0484074 -7.89741e-20)
(0.473426 -0.0456037 1.62231e-20)
(0.504671 -0.0429819 -6.17074e-20)
(0.534169 -0.040531 4.96121e-20)
(0.562032 -0.0382392 1.43264e-20)
(0.588361 -0.0360962 -1.12513e-19)
(0.613253 -0.0340933 6.77489e-21)
(0.636802 -0.0322183 -1.67126e-19)
(0.659086 -0.0304482 3.81049e-20)
(0.0632532 -0.0779993 2.59558e-20)
(0.106681 -0.0889773 3.5226e-20)
(0.153058 -0.0930453 -6.50214e-20)
(0.199909 -0.0926418 1.21644e-20)
(0.245633 -0.0896815 2.13158e-19)
(0.289435 -0.0854868 2.19162e-20)
(0.331001 -0.0808637 4.47156e-20)
(0.370276 -0.0762389 6.30945e-21)
(0.407332 -0.0718028 7.57194e-20)
(0.442284 -0.0676208 -8.44534e-20)
(0.475259 -0.063703 1.20874e-19)
(0.506381 -0.0600393 3.6086e-21)
(0.535765 -0.056614 -3.10443e-20)
(0.563522 -0.0534112 2.38289e-19)
(0.589752 -0.0504161 1.86912e-19)
(0.614552 -0.0476167 -9.79176e-20)
(0.638022 -0.0449955 1.30068e-19)
(0.660221 -0.0425215 -2.97094e-21)
(0.0665704 -0.0999763 -1.82561e-19)
(0.11041 -0.114073 8.03983e-21)
(0.156909 -0.119311 -3.29741e-20)
(0.2037 -0.118811 -5.29993e-21)
(0.249266 -0.115026 -1.0832e-19)
(0.292866 -0.109653 -1.26081e-19)
(0.334216 -0.103728 -5.28347e-20)
(0.373279 -0.0977975 -1.82977e-19)
(0.410134 -0.0921082 2.06083e-19)
(0.444898 -0.0867443 4.25858e-20)
(0.477697 -0.0817189 -8.69259e-20)
(0.508656 -0.0770191 1.48939e-19)
(0.537889 -0.0726251 -6.54192e-20)
(0.565505 -0.0685163 -1.4933e-19)
(0.591603 -0.0646739 -3.53981e-20)
(0.616282 -0.0610823 -4.79461e-20)
(0.639645 -0.0577185 7.7019e-20)
(0.661733 -0.0545446 -6.14168e-21)
(0.0706997 -0.121753 1.13645e-20)
(0.115053 -0.138959 -2.85547e-20)
(0.161705 -0.145373 -8.03249e-20)
(0.208425 -0.144791 -3.71711e-20)
(0.253795 -0.140197 -6.72074e-20)
(0.297142 -0.133661 4.73384e-20)
(0.338224 -0.126446 2.82915e-19)
(0.377023 -0.119221 2.47481e-19)
(0.413627 -0.112289 1.56617e-19)
(0.448156 -0.105752 -5.8634e-20)
(0.480737 -0.0996276 3.28523e-20)
(0.511493 -0.0938996 -2.43911e-19)
(0.540538 -0.0885441 8.53625e-20)
(0.567978 -0.0835359 -6.81104e-20)
(0.593912 -0.0788521 -9.69563e-20)
(0.618438 -0.0744738 5.22462e-20)
(0.641669 -0.070372 -4.47172e-19)
(0.663618 -0.0665031 1.62823e-19)
(0.1206 -0.163588 5.79845e-20)
(0.167438 -0.171188 -2.54563e-20)
(0.214073 -0.170539 -3.87799e-20)
(0.25921 -0.165156 -1.2824e-19)
(0.302256 -0.157475 -2.72764e-20)
(0.343017 -0.148985 -1.14892e-20)
(0.381501 -0.140481 -4.4349e-19)
(0.417805 -0.132318 -3.25688e-19)
(0.452054 -0.12462 1.91256e-19)
(0.484374 -0.117406 2.8014e-20)
(0.514887 -0.110659 7.27414e-20)
(0.543706 -0.104351 -7.0126e-20)
(0.570936 -0.098451 3.60412e-19)
(0.596673 -0.0929334 7.14795e-20)
(0.621017 -0.0877751 1.06757e-19)
(0.64409 -0.0829408 2.52171e-19)
(0.665875 -0.0783829 -1.35377e-19)
(0.127036 -0.187916 7.52854e-20)
(0.174093 -0.196711 6.76378e-20)
(0.220633 -0.196017 -1.04353e-19)
(0.265501 -0.189866 1.79574e-19)
(0.308199 -0.18106 2.53599e-20)
(0.348588 -0.171315 -3.28559e-19)
(0.386706 -0.161547 2.07455e-19)
(0.422662 -0.152168 8.33272e-20)
(0.456584 -0.143321 -9.71446e-20)
(0.488601 -0.135031 2.60395e-20)
(0.518832 -0.127276 1.23691e-20)
(0.547389 -0.120025 -1.01441e-19)
(0.574375 -0.113243 2.60312e-19)
(0.599884 -0.106901 -9.15162e-20)
(0.624017 -0.10097 6.67824e-20)
(0.646906 -0.09541 1.4392e-19)
(0.668498 -0.0901701 -5.3076e-20)
(0.134347 -0.211898 -1.03093e-19)
(0.181656 -0.221898 -3.7255e-19)
(0.228091 -0.221182 2.51236e-19)
(0.272655 -0.214289 1.21178e-19)
(0.314959 -0.204383 2.08498e-19)
(0.354926 -0.193405 2.25485e-19)
(0.392628 -0.182392 1.44284e-19)
(0.428188 -0.171813 1.91165e-19)
(0.46174 -0.161833 -3.45082e-19)
(0.493412 -0.15248 3.84496e-20)
(0.523322 -0.14373 7.62098e-20)
(0.551581 -0.135548 3.94061e-19)
(0.57829 -0.127895 -2.15879e-19)
(0.60354 -0.120737 -5.42326e-20)
(0.627431 -0.114043 -1.27074e-19)
(0.650111 -0.107765 -8.35309e-20)
(0.671486 -0.101851 2.18786e-19)
(0.142514 -0.235489 2.49261e-21)
(0.190111 -0.246708 -4.2417e-20)
(0.236432 -0.245994 1.63644e-19)
(0.280661 -0.23839 -3.53648e-19)
(0.322525 -0.22741 -2.01403e-20)
(0.36202 -0.215222 -3.17483e-19)
(0.399257 -0.202986 1.8073e-19)
(0.434374 -0.191226 -2.90505e-19)
(0.467512 -0.18013 2.81376e-19)
(0.498798 -0.16973 2.5093e-19)
(0.52835 -0.159999 -2.06822e-19)
(0.556275 -0.150899 -7.19671e-19)
(0.582674 -0.142387 3.87038e-19)
(0.607633 -0.134425 -3.12806e-19)
(0.631255 -0.126979 -6.91189e-20)
(0.6537 -0.11999 2.56982e-19)
(0.674833 -0.113412 -2.11634e-19)
(0.151516 -0.258647 -1.57179e-19)
(0.199438 -0.271097 1.97369e-19)
(0.24564 -0.270416 -3.77938e-19)
(0.289501 -0.262131 6.96797e-20)
(0.330882 -0.250109 -7.83029e-21)
(0.369858 -0.236738 4.36888e-19)
(0.406582 -0.223301 -2.72591e-19)
(0.441211 -0.210383 -5.87526e-20)
(0.473892 -0.19819 7.6855e-20)
(0.504751 -0.186759 -9.68918e-20)
(0.533906 -0.176064 3.77171e-19)
(0.561463 -0.166061 2.0913e-19)
(0.58752 -0.156703 -4.24635e-19)
(0.612159 -0.147949 2.31642e-19)
(0.635483 -0.139761 3.21346e-19)
(0.657669 -0.132073 -5.89405e-19)
(0.678535 -0.124839 1.82486e-21)
(0.161333 -0.281329 1.55266e-19)
(0.209617 -0.295025 2.1552e-19)
(0.255695 -0.294407 1.23138e-19)
(0.299159 -0.285477 5.04469e-19)
(0.340015 -0.272446 -6.3612e-20)
(0.378426 -0.257922 2.07563e-19)
(0.41459 -0.243312 -7.25405e-19)
(0.448686 -0.229257 4.15449e-19)
(0.480867 -0.215987 -2.56027e-19)
(0.511261 -0.203546 7.568e-20)
(0.539983 -0.191904 -4.08792e-19)
(0.567138 -0.181014 -3.26759e-20)
(0.59282 -0.170825 3.3423e-19)
(0.617109 -0.161293 5.68012e-20)
(0.640108 -0.152376 -1.59764e-20)
(0.66201 -0.143998 2.72063e-20)
(0.682586 -0.13612 -3.81144e-19)
(0.171939 -0.303493 -2.18321e-19)
(0.220625 -0.318452 1.8482e-20)
(0.266577 -0.317931 1.95776e-19)
(0.309617 -0.308394 -4.39798e-19)
(0.349908 -0.29439 4.69072e-20)
(0.387709 -0.278746 -5.20238e-19)
(0.423267 -0.26299 5.76365e-19)
(0.456787 -0.247824 -1.51397e-19)
(0.488426 -0.233501 -1.72971e-19)
(0.518317 -0.220069 5.02228e-21)
(0.54657 -0.207499 2.15992e-21)
(0.57329 -0.195739 3.11374e-19)
(0.598567 -0.184736 -4.49088e-20)
(0.622477 -0.174441 -4.00029e-19)
(0.645123 -0.164809 -4.99858e-19)
(0.666718 -0.155752 5.84687e-19)
(0.68698 -0.147241 3.70088e-19)
(0.183309 -0.325099 2.53715e-19)
(0.232436 -0.341337 -3.92792e-19)
(0.278263 -0.340949 -3.7298e-19)
(0.320855 -0.330848 1.48567e-19)
(0.360543 -0.315911 -6.26181e-19)
(0.39769 -0.299181 6.29829e-19)
(0.432599 -0.28231 -2.75598e-19)
(0.465499 -0.266059 -2.78736e-19)
(0.496558 -0.250708 2.42096e-20)
(0.525907 -0.236308 -1.25424e-21)
(0.553657 -0.222831 -3.53958e-20)
(0.579908 -0.21022 2.4051e-19)
(0.604751 -0.19842 -2.30575e-19)
(0.628253 -0.187378 1.18905e-19)
(0.65052 -0.177045 2.59726e-19)
(0.671785 -0.167321 -3.27829e-19)
(0.691711 -0.15819 -6.74998e-20)
(0.195414 -0.346109 -3.5589e-20)
(0.245026 -0.363642 2.78711e-19)
(0.290729 -0.363427 2.50328e-19)
(0.33285 -0.352805 -3.96349e-19)
(0.3719 -0.336978 2.11226e-19)
(0.408352 -0.319199 -1.6368e-19)
(0.442569 -0.301246 -1.25238e-20)
(0.474808 -0.283941 4.20604e-20)
(0.505247 -0.267586 -1.01365e-19)
(0.534019 -0.252243 2.00795e-19)
(0.561232 -0.23788 -1.08419e-19)
(0.586984 -0.22444 -3.27591e-19)
(0.611362 -0.21186 4.69165e-19)
(0.634429 -0.200088 2.93204e-19)
(0.656292 -0.18907 -3.78033e-19)
(0.677203 -0.178694 2.19872e-19)
(0.696773 -0.168955 3.25214e-19)
(0.258364 -0.38533 5.47e-20)
(0.30395 -0.385329 2.0178e-19)
(0.345581 -0.374234 3.95277e-19)
(0.383959 -0.357561 2.98407e-19)
(0.419676 -0.338774 5.80292e-19)
(0.453161 -0.319774 -5.41228e-20)