/*--------------------------------*- C++ -*----------------------------------*\
  =========                 |
  \\      /  F ield         | OpenFOAM: The Open Source CFD Toolbox
   \\    /   O peration     | Website:  https://openfoam.org
    \\  /    A nd           | Version:  7
     \\/     M anipulation  |
\*---------------------------------------------------------------------------*/
FoamFile
{
    version     2.0;
    format      ascii;
    class       surfaceScalarField;
    location    "75";
    object      phi;
}
// * * * * * * * * * * * * * * * * * * * * * * * * * * * * * * * * * * * * * //

dimensions      [0 3 -1 0 0 0 0];

internalField   nonuniform List<scalar> 
16730
(
-0.0037095
-0.000590462
-0.000568448
-0.00355856
-0.00365812
-0.00061983
-0.000543833
-0.00341539
-0.000595739
-0.00350665
-0.00360515
-0.000648713
-0.000517645
-0.00328148
-0.000569108
-0.00336393
-0.000622516
-0.00345325
-0.00355057
-0.000677094
-0.000541153
-0.00323065
-0.000593892
-0.00331119
-0.000648769
-0.00339837
-0.0034944
-0.000704943
-0.000512195
-0.00310514
-0.000564229
-0.00317861
-0.000618192
-0.00325723
-0.000674495
-0.00334206
-0.00343663
-0.000732258
-0.000482024
-0.00298589
-0.00053367
-0.00305349
-0.000586884
-0.0031254
-0.000642024
-0.00320209
-0.000699709
-0.00328438
-0.00337722
-0.00075912
-0.000501892
-0.00293444
-0.000554746
-0.00300064
-0.000609134
-0.00307101
-0.000665427
-0.00314579
-0.000724421
-0.00322539
-0.00331614
-0.0007855
-0.000468712
-0.00282087
-0.000521359
-0.0028818
-0.000575418
-0.00294658
-0.000631001
-0.00301543
-0.000688471
-0.00308832
-0.000748555
-0.0031653
-0.0032534
-0.000811295
-0.000486583
-0.00276839
-0.000540415
-0.00282796
-0.000595677
-0.00289132
-0.00065249
-0.00295861
-0.000711202
-0.00302961
-0.000772605
-0.0031039
-0.00319049
-0.000835519
-0.000450427
-0.00266012
-0.000504046
-0.00271478
-0.000559041
-0.00277297
-0.000615496
-0.00283486
-0.000673563
-0.00290055
-0.000733313
-0.00296986
-0.000793764
-0.00304345
-0.00312436
-0.000859894
-0.000412944
-0.00255658
-0.000466363
-0.0026067
-0.000521104
-0.00266003
-0.000577237
-0.00271684
-0.000634857
-0.00277724
-0.000694101
-0.0028413
-0.000754979
-0.00290898
-0.000817435
-0.00298099
-0.0030578
-0.000883988
-0.000427403
-0.00250335
-0.00048191
-0.0025522
-0.000537748
-0.0026042
-0.000594991
-0.00265959
-0.000653737
-0.0027185
-0.000714105
-0.00278094
-0.000776142
-0.00284695
-0.000840078
-0.00291706
-0.0029908
-0.000907084
-0.00038721
-0.00240405
-0.000441497
-0.00244907
-0.000497066
-0.00249663
-0.000553974
-0.00254729
-0.000612298
-0.00260127
-0.000672135
-0.00265866
-0.000733592
-0.00271948
-0.00079675
-0.00278379
-0.000861871
-0.00285194
-0.00292314
-0.000929531
-0.000399902
-0.00235
-0.000455223
-0.00239375
-0.000511829
-0.00244002
-0.000569779
-0.00248934
-0.000629154
-0.00254189
-0.000690049
-0.00259776
-0.000752562
-0.00265697
-0.000816791
-0.00271956
-0.000882956
-0.00278577
-0.00285474
-0.000951356
-0.000412249
-0.00229493
-0.000468578
-0.00233742
-0.000526195
-0.0023824
-0.000585162
-0.00243037
-0.000645559
-0.0024815
-0.000707479
-0.00253584
-0.000771016
-0.00259343
-0.00083627
-0.0026543
-0.000903413
-0.00271863
-0.00278555
-0.000972604
-0.0003682
-0.002199
-0.000424251
-0.00223888
-0.000481563
-0.0022801
-0.000540164
-0.0023238
-0.00060012
-0.00237042
-0.000661511
-0.00242011
-0.000724426
-0.00247293
-0.000788957
-0.0025289
-0.000855199
-0.00258806
-0.000923284
-0.00265054
-0.00271552
-0.000993306
-0.000378896
-0.00214328
-0.000435907
-0.00218187
-0.000494176
-0.00222184
-0.000553735
-0.00226424
-0.000614653
-0.0023095
-0.00067701
-0.00235775
-0.000740893
-0.00240905
-0.000806389
-0.0024634
-0.000873587
-0.00252086
-0.000942596
-0.00258153
-0.00264465
-0.00101348
-0.000332613
-0.00204838
-0.000389273
-0.00208662
-0.000447217
-0.00212393
-0.000506415
-0.00216264
-0.000566907
-0.00220375
-0.00062876
-0.00224765
-0.000692055
-0.00229445
-0.000756879
-0.00234422
-0.000823315
-0.00239697
-0.000891445
-0.00245273
-0.000961363
-0.00251162
-0.00257289
-0.00103312
-0.00034175
-0.00199223
-0.000399328
-0.00202905
-0.000458178
-0.00206508
-0.000518281
-0.00210254
-0.000579678
-0.00214235
-0.00064244
-0.00218488
-0.000706648
-0.00223024
-0.000772386
-0.00227848
-0.000839736
-0.00232962
-0.000908776
-0.00238369
-0.000979591
-0.0024408
-0.00250026
-0.00105222
-0.000293526
-0.00189472
-0.000350595
-0.00193516
-0.000409062
-0.00197058
-0.000468792
-0.00200535
-0.000529772
-0.00204156
-0.000592048
-0.00208008
-0.000655693
-0.00212124
-0.000720787
-0.00216515
-0.000787414
-0.00221186
-0.000855654
-0.00226138
-0.000925583
-0.00231376
-0.000997283
-0.0023691
-0.00242675
-0.0010708
-0.000301193
-0.00183847
-0.000359145
-0.0018772
-0.000418474
-0.00191125
-0.000479057
-0.00194476
-0.000540887
-0.00197973
-0.000604016
-0.00201695
-0.000668517
-0.00205674
-0.000734472
-0.0020992
-0.000801962
-0.00214437
-0.000871069
-0.00219227
-0.000941868
-0.00224297
-0.00101444
-0.00229653
-0.00235236
-0.00108883
-0.000308596
-0.00178133
-0.000367402
-0.0018184
-0.000427565
-0.00185109
-0.000488973
-0.00188336
-0.000551627
-0.00191707
-0.000615582
-0.00195299
-0.000680913
-0.00199141
-0.000747702
-0.00203241
-0.000816031
-0.00207604
-0.000885982
-0.00212232
-0.000957628
-0.00217132
-0.00103105
-0.00222311
-0.00227711
-0.0011063
-0.000257735
-0.0016768
-0.000315734
-0.00172333
-0.000375365
-0.00175877
-0.000436332
-0.00179012
-0.000498538
-0.00182115
-0.00056199
-0.00185362
-0.000626745
-0.00188824
-0.00069288
-0.00192527
-0.000760477
-0.00196481
-0.00082962
-0.00200689
-0.000900389
-0.00205155
-0.000972863
-0.00209885
-0.00104712
-0.00214885
-0.00220101
-0.00112322
-0.000263782
-0.00162015
-0.000322608
-0.00166451
-0.000383033
-0.00169834
-0.000444778
-0.00172837
-0.000507754
-0.00175817
-0.000571976
-0.0017894
-0.000637504
-0.00182271
-0.000704415
-0.00185836
-0.000772795
-0.00189643
-0.000842726
-0.00193696
-0.000914291
-0.00197998
-0.000987568
-0.00202557
-0.00106264
-0.00207377
-0.00212408
-0.00113957
-0.000269596
-0.00156266
-0.000329218
-0.00160488
-0.000390407
-0.00163715
-0.000452899
-0.00166588
-0.000516619
-0.00169445
-0.000581583
-0.00172443
-0.000647857
-0.00175644
-0.000715519
-0.0017907
-0.000784654
-0.0018273
-0.000855348
-0.00186627
-0.000927683
-0.00190765
-0.00100174
-0.00195151
-0.00107761
-0.00199791
-0.00204634
-0.00115535
-0.000216876
-0.00144469
-0.000275177
-0.00150436
-0.000335562
-0.0015445
-0.000397485
-0.00157523
-0.000460698
-0.00160267
-0.000525132
-0.00163002
-0.000590812
-0.00165875
-0.000657804
-0.00168945
-0.000726189
-0.00172231
-0.000796054
-0.00175743
-0.000867484
-0.00179484
-0.000940564
-0.00183457
-0.00101538
-0.0018767
-0.00109202
-0.00192127
-0.00196781
-0.00117054
-0.000221448
-0.00138862
-0.000280525
-0.00144528
-0.000341641
-0.00148338
-0.000404268
-0.00151261
-0.000468172
-0.00153877
-0.000533293
-0.0015649
-0.00059966
-0.00159238
-0.000667343
-0.00162176
-0.000736425
-0.00165323
-0.000806991
-0.00168686
-0.000879132
-0.0017227
-0.000952931
-0.00176077
-0.00102848
-0.00180115
-0.00110586
-0.00184389
-0.00188853
-0.00118514
-0.000225823
-0.00133174
-0.00028564
-0.00138547
-0.000347455
-0.00142157
-0.000410756
-0.0014493
-0.000475321
-0.0014742
-0.000541101
-0.00149912
-0.000608128
-0.00152536
-0.000676475
-0.00155342
-0.000746224
-0.00158348
-0.000817466
-0.00161562
-0.000890288
-0.00164988
-0.00096478
-0.00168628
-0.00104103
-0.0017249
-0.00111913
-0.00176579
-0.0018085
-0.00119915
-0.000229998
-0.0012741
-0.000290521
-0.00132494
-0.000353003
-0.00135909
-0.000416947
-0.00138536
-0.000482146
-0.001409
-0.000548556
-0.00143271
-0.000616214
-0.0014577
-0.000685196
-0.00148444
-0.000755586
-0.00151309
-0.000827474
-0.00154373
-0.000900952
-0.0015764
-0.000976108
-0.00161112
-0.00105303
-0.00164798
-0.00113183
-0.001687
-0.00172777
-0.00121256
-0.000175616
-0.00113959
-0.000233974
-0.00121575
-0.000295169
-0.00126375
-0.000358285
-0.00129597
-0.000422843
-0.0013208
-0.000488645
-0.0013432
-0.000555656
-0.0013657
-0.000623918
-0.00138944
-0.000693506
-0.00141485
-0.000764508
-0.00144209
-0.000837015
-0.00147123
-0.00091112
-0.00150229
-0.000986912
-0.00153533
-0.00106449
-0.0015704
-0.00114394
-0.00160754
-0.00164636
-0.00122535
-0.000178709
-0.00108482
-0.00023775
-0.0011567
-0.000299582
-0.00120192
-0.000363301
-0.00123225
-0.000428442
-0.00125566
-0.000494818
-0.00127682
-0.000562402
-0.00129812
-0.000631237
-0.0013206
-0.000701404
-0.00134468
-0.000772989
-0.0013705
-0.000846086
-0.00139813
-0.000920789
-0.00142759
-0.00099719
-0.00145893
-0.00107538
-0.00149221
-0.00115547
-0.00152746
-0.0015643
-0.00123753
-0.000181638
-0.00102937
-0.000241327
-0.00109702
-0.00030376
-0.00113948
-0.00036805
-0.00116796
-0.000433743
-0.00118997
-0.000500665
-0.0012099
-0.000568791
-0.00122999
-0.000638172
-0.00125122
-0.000708888
-0.00127397
-0.000781028
-0.00129836
-0.000854686
-0.00132447
-0.000929957
-0.00135232
-0.00100694
-0.00138195
-0.00108572
-0.00141342
-0.00116641
-0.00144676
-0.00148163
-0.00124909
-0.000184405
-0.000973255
-0.000244703
-0.00103672
-0.000307704
-0.00107648
-0.000372532
-0.00110313
-0.000438748
-0.00112375
-0.000506184
-0.00114246
-0.000574825
-0.00116135
-0.000644722
-0.00118132
-0.000715957
-0.00120273
-0.000788622
-0.0012257
-0.000862811
-0.00125028
-0.000938622
-0.00127651
-0.00101615
-0.00130442
-0.00109549
-0.00133408
-0.00117676
-0.0013655
-0.00139836
-0.00126002
-0.000187008
-0.000916527
-0.000247878
-0.000975848
-0.000311413
-0.00101295
-0.000376748
-0.0010378
-0.000443455
-0.00105705
-0.000511376
-0.00107454
-0.000580501
-0.00109222
-0.000650884
-0.00111094
-0.00072261
-0.00113101
-0.00079577
-0.00115254
-0.000870461
-0.00117559
-0.000946781
-0.00120019
-0.00102483
-0.00122637
-0.0011047
-0.00125421
-0.00118651
-0.00128369
-0.00131454
-0.00127033
-0.000132144
-0.00077099
-0.000189447
-0.000859225
-0.000250852
-0.000914442
-0.000314887
-0.000948912
-0.000380696
-0.000971988
-0.000447863
-0.000989878
-0.00051624
-0.00100617
-0.000585819
-0.00102265
-0.000656659
-0.0010401
-0.000728845
-0.00105882
-0.00080247
-0.00107891
-0.000877633
-0.00110043
-0.000954431
-0.00112339
-0.00103297
-0.00114784
-0.00111334
-0.00117383
-0.00119565
-0.00120138
-0.00123019
-0.00128
-0.000133883
-0.000719471
-0.000191721
-0.000801386
-0.000253626
-0.000852538
-0.000318125
-0.000884412
-0.000384377
-0.000905737
-0.000451974
-0.000922281
-0.000520775
-0.000937364
-0.000590778
-0.000952643
-0.000662045
-0.000968832
-0.000734661
-0.000986203
-0.000808722
-0.00100485
-0.000884325
-0.00102482
-0.000961571
-0.00104615
-0.00104056
-0.00106885
-0.0011214
-0.00109299
-0.00120419
-0.00111858
-0.00114536
-0.00128903
-0.000135497
-0.000667433
-0.000193832
-0.000743052
-0.000256198
-0.000790172
-0.000321128
-0.000819482
-0.000387789
-0.000839076
-0.000455785
-0.000854285
-0.000524981
-0.000868168
-0.000595378
-0.000882245
-0.000667041
-0.000897169
-0.000740057
-0.000913187
-0.000814522
-0.000930388
-0.000890536
-0.000948811
-0.000968199
-0.000968483
-0.00104761
-0.000989435
-0.00112889
-0.00101172
-0.00121212
-0.00103535
-0.00106007
-0.00129741
-0.000136986
-0.000614918
-0.000195777
-0.000684261
-0.000258568
-0.000727381
-0.000323895
-0.000754155
-0.000390934
-0.000772037
-0.000459297
-0.000785922
-0.000528857
-0.000798609
-0.000599618
-0.000811484
-0.000671647
-0.00082514
-0.000745032
-0.000839802
-0.000819871
-0.00085555
-0.000896263
-0.000872419
-0.000974311
-0.000890435
-0.00105412
-0.000909627
-0.00113579
-0.000930048
-0.00121944
-0.000951696
-0.000974356
-0.00130515
-0.000138348
-0.000561966
-0.000197557
-0.000625052
-0.000260736
-0.000664202
-0.000326426
-0.000688465
-0.00039381
-0.000704652
-0.00046251
-0.000717222
-0.000532403
-0.000728716
-0.000603497
-0.000740389
-0.000675861
-0.000752776
-0.000749585
-0.000766078
-0.000824766
-0.000780368
-0.000901506
-0.000795679
-0.000979907
-0.000812034
-0.00106007
-0.00082946
-0.00114212
-0.000848006
-0.00122614
-0.00086767
-0.000888255
-0.00131224
-0.000139584
-0.000508619
-0.000199171
-0.000565466
-0.000262702
-0.000600671
-0.00032872
-0.000622447
-0.000396418
-0.000636954
-0.000465423
-0.000648217
-0.000535618
-0.000658522
-0.000607015
-0.000668992
-0.000679683
-0.000680108
-0.000753714
-0.000692047
-0.000829207
-0.000704876
-0.000906262
-0.000718624
-0.000984985
-0.000733312
-0.00106548
-0.000748965
-0.00114786
-0.000765628
-0.00123223
-0.000783299
-0.000801801
-0.00131868
-0.000140694
-0.000454917
-0.000200619
-0.000505541
-0.000264465
-0.000536826
-0.000330778
-0.000556134
-0.000398757
-0.000568975
-0.000468035
-0.000578938
-0.000538501
-0.000588056
-0.00061017
-0.000597324
-0.000683112
-0.000607166
-0.000757419
-0.00061774
-0.000833191
-0.000629104
-0.000910531
-0.000641284
-0.000989542
-0.0006543
-0.00107033
-0.000668175
-0.00115301
-0.000682949
-0.00123769
-0.00069862
-0.000715029
-0.00132446
-0.000141677
-0.000400901
-0.000201901
-0.000445316
-0.000266026
-0.000472701
-0.000332599
-0.00048956
-0.000400826
-0.000500748
-0.000470347
-0.000509418
-0.000541054
-0.000517349
-0.000612963
-0.000525415
-0.000686147
-0.000533982
-0.000760699
-0.000543188
-0.000836719
-0.000553084
-0.00091431
-0.000563693
-0.000993578
-0.000575032
-0.00107463
-0.000587123
-0.00115758
-0.000600002
-0.00124253
-0.000613665
-0.000627976
-0.00132958
-0.000142532
-0.000346612
-0.000203017
-0.000384831
-0.000267384
-0.000408335
-0.000334183
-0.000422761
-0.000402627
-0.000432305
-0.000472358
-0.000439686
-0.000543274
-0.000446434
-0.000615392
-0.000453296
-0.000688787
-0.000460586
-0.000763553
-0.000468423
-0.000839789
-0.000476848
-0.0009176
-0.000485882
-0.000997091
-0.000495541
-0.00107837
-0.000505844
-0.00116155
-0.000516822
-0.00124674
-0.000528471
-0.000540675
-0.00133405
-8.87397e-05
-0.000242107
-0.000143261
-0.000292091
-0.000203967
-0.000324125
-0.000268539
-0.000343763
-0.000335531
-0.000355768
-0.000404158
-0.000363678
-0.000474068
-0.000369775
-0.000545162
-0.000375341
-0.000617458
-0.000380999
-0.000691033
-0.000387012
-0.00076598
-0.000393476
-0.0008424
-0.000400428
-0.000920398
-0.000407884
-0.00100008
-0.00041586
-0.00108155
-0.000424369
-0.00116493
-0.000433441
-0.00125033
-0.000443073
-0.000453164
-0.00133784
-8.91494e-05
-0.000196903
-0.000143861
-0.000237379
-0.000204749
-0.000263237
-0.000269491
-0.000279022
-0.000336641
-0.000288618
-0.000405419
-0.0002949
-0.000475477
-0.000299717
-0.000546717
-0.000304102
-0.00061916
-0.000308556
-0.000692883
-0.000313289
-0.00076798
-0.000318379
-0.000844552
-0.000323856
-0.000922704
-0.000329732
-0.00100254
-0.000336021
-0.00108418
-0.000342734
-0.00116772
-0.000349896
-0.00125329
-0.000357505
-0.000365479
-0.00134098
-8.94723e-05
-0.000151553
-0.000144335
-0.000182517
-0.000205366
-0.000202206
-0.000270239
-0.000214148
-0.000337514
-0.000221344
-0.00040641
-0.000226004
-0.000476584
-0.000229542
-0.000547939
-0.000232747
-0.000620498
-0.000235997
-0.000694337
-0.00023945
-0.000769551
-0.000243165
-0.000846243
-0.000247164
-0.000924517
-0.000251458
-0.00100448
-0.000256057
-0.00108624
-0.000260972
-0.00116992
-0.000266221
-0.00125562
-0.000271802
-0.000277655
-0.00134344
-8.97084e-05
-0.000106096
-0.00014468
-0.000127545
-0.000205815
-0.000141071
-0.000270785
-0.000149178
-0.000338149
-0.00015398
-0.000407132
-0.000157021
-0.00047739
-0.000159284
-0.000548828
-0.000161309
-0.000621471
-0.000163354
-0.000695395
-0.000165526
-0.000770695
-0.000167864
-0.000847474
-0.000170385
-0.000925837
-0.000173095
-0.00100589
-0.000176003
-0.00108775
-0.000179116
-0.00117152
-0.000182449
-0.00125732
-0.000186001
-0.000189729
-0.00134524
-8.98575e-05
-6.0572e-05
-0.000144898
-7.2505e-05
-0.000206097
-7.98713e-05
-0.000271127
-8.41476e-05
-0.000338547
-8.65593e-05
-0.000407583
-8.79856e-05
-0.000477893
-8.89738e-05
-0.000549383
-8.9819e-05
-0.000622079
-9.06588e-05
-0.000696056
-9.1549e-05
-0.00077141
-9.25102e-05
-0.000848244
-9.3551e-05
-0.000926663
-9.46764e-05
-0.00100677
-9.58914e-05
-0.00108869
-9.72017e-05
-0.00117252
-9.86165e-05
-0.00125839
-0.000100137
-0.000101738
-0.00134638
-8.99195e-05
-1.50201e-05
-0.000144987
-1.74373e-05
-0.000206212
-1.86462e-05
-0.000271266
-1.90942e-05
-0.000338708
-1.91174e-05
-0.000407764
-1.89291e-05
-0.000478095
-1.8643e-05
-0.000549605
-1.83085e-05
-0.000622321
-1.79429e-05
-0.00069632
-1.75509e-05
-0.000771696
-1.71342e-05
-0.000848552
-1.66946e-05
-0.000926994
-1.62343e-05
-0.00100713
-1.57557e-05
-0.00108907
-1.52621e-05
-0.00117293
-1.47579e-05
-0.00125882
-1.42456e-05
-1.37179e-05
-0.00134684
-8.98943e-05
3.05198e-05
-0.000144949
3.76172e-05
-0.000206161
4.25656e-05
-0.000271201
4.59462e-05
-0.00033863
4.83121e-05
-0.000407675
5.01155e-05
-0.000477995
5.16764e-05
-0.000549494
5.31909e-05
-0.000622199
5.47623e-05
-0.000696187
5.64367e-05
-0.000771552
5.82314e-05
-0.000848399
6.01516e-05
-0.000926831
6.21981e-05
-0.00100696
6.43706e-05
-0.00108889
6.66685e-05
-0.00117274
6.90921e-05
-0.00125862
7.16376e-05
7.42938e-05
-0.00134663
-8.97821e-05
7.6008e-05
-0.000144782
9.26174e-05
-0.000205942
0.000103725
-0.000270933
0.000110937
-0.000338316
0.000115695
-0.000407316
0.000119116
-0.000477592
0.000121953
-0.000549049
0.000124648
-0.000621711
0.000127425
-0.000695657
0.000130382
-0.00077098
0.000133555
-0.000847784
0.000136955
-0.000926173
0.000140588
-0.00100626
0.000144454
-0.00108814
0.000148556
-0.00117195
0.000152899
-0.00125779
0.000157477
0.000162262
-0.00134576
-8.95828e-05
0.000121405
-0.000144488
0.000147523
-0.000205556
0.000164792
-0.000270461
0.000175842
-0.000337763
0.000182997
-0.000406686
0.000188039
-0.000476887
0.000192154
-0.00054827
0.00019603
-0.000620859
0.000200014
-0.00069473
0.000204253
-0.000769978
0.000208803
-0.000846707
0.000213684
-0.000925021
0.000218902
-0.00100503
0.000224461
-0.00108684
0.000230366
-0.00117057
0.000236627
-0.00125633
0.000243237
0.000250149
-0.00134421
-8.92963e-05
0.000166671
-0.000144065
0.000202292
-0.000205002
0.000225729
-0.000269785
0.000240625
-0.000336973
0.000250185
-0.000405786
0.000256852
-0.000475881
0.000262248
-0.000547157
0.000267307
-0.00061964
0.000272497
-0.000693406
0.000278018
-0.000768548
0.000283946
-0.000845169
0.000290305
-0.000923375
0.000297108
-0.00100327
0.000304358
-0.00108497
0.000312065
-0.00116859
0.000320242
-0.00125423
0.000328881
0.000337918
-0.001342
-8.89228e-05
0.000211766
-0.000143515
0.000256884
-0.000204282
0.000286496
-0.000268906
0.000305249
-0.000335945
0.000317224
-0.000404616
0.000325524
-0.000474572
0.000332204
-0.000545711
0.000338447
-0.000618057
0.000344843
-0.000691685
0.000351645
-0.000766688
0.000358949
-0.00084317
0.000366787
-0.000921234
0.000375172
-0.00100099
0.000384113
-0.00108254
0.000393619
-0.00116601
0.000403709
-0.0012515
0.000414375
0.000425534
-0.00133912
-8.84624e-05
-0.000142837
0.000311258
-0.000203394
0.000347054
-0.000267823
0.000369678
-0.000334679
0.000384079
-0.000403175
0.00039402
-0.000472961
0.000401989
-0.000543931
0.000409418
-0.000616109
0.00041702
-0.000689567
0.000425104
-0.0007644
0.000433782
-0.000840709
0.000443096
-0.0009186
0.000453062
-0.000998177
0.00046369
-0.00107955
0.000474993
-0.00116284
0.000486993
-0.00124814
0.000499683
0.00051296
-0.00133557
-0.00014203
0.000365373
-0.00020234
0.000407364
-0.000266537
0.000433875
-0.000333175
0.000450718
-0.000401464
0.000462309
-0.000471048
0.000471572
-0.000541818
0.000480188
-0.000613796
0.000488998
-0.000687053
0.000498361
-0.000761684
0.000508413
-0.000837789
0.000519201
-0.000915472
0.000530746
-0.000994841
0.000543058
-0.001076
0.000556154
-0.00115907
0.000570061
-0.00124416
0.00058477
0.000600159
-0.00133136
-0.000141097
0.000419188
-0.000201119
0.000467386
-0.000265047
0.000497804
-0.000331434
0.000517105
-0.000399483
0.000530358
-0.000468833
0.000540921
-0.000539372
0.000550728
-0.000611118
0.000560744
-0.000684143
0.000571386
-0.00075854
0.00058281
-0.000834409
0.00059507
-0.000911853
0.00060819
-0.000990978
0.000622184
-0.00107189
0.000637069
-0.00115471
0.000652877
-0.00123954
0.000669599
0.000687096
-0.00132648
-0.000140036
0.000472662
-0.000199731
0.000527082
-0.000263354
0.000561427
-0.000329456
0.000583206
-0.000397232
0.000598135
-0.000466316
0.000610005
-0.000536593
0.000621005
-0.000608077
0.000632228
-0.000680838
0.000644147
-0.000754969
0.00065694
-0.000830569
0.00067067
-0.000907742
0.000685363
-0.000986592
0.000701034
-0.00106723
0.000717704
-0.00114976
0.000735408
-0.0012343
0.000754138
0.000773734
-0.00132093
-0.000138847
0.000525754
-0.000198176
0.000586411
-0.000261458
0.000624709
-0.00032724
0.000648987
-0.000394711
0.000665606
-0.000463498
0.000678792
-0.000533481
0.000690988
-0.000604671
0.000703418
-0.000677138
0.000716613
-0.000750971
0.000730774
-0.000826272
0.00074597
-0.000903141
0.000762232
-0.000981683
0.000779576
-0.001062
0.000798025
-0.00114422
0.000817619
-0.00122843
0.00083835
0.000860039
-0.00131473
-0.000137533
0.000578423
-0.000196456
0.000645334
-0.000259359
0.000687613
-0.000324786
0.000714415
-0.00039192
0.00073274
-0.000460379
0.00074725
-0.000530037
0.000760646
-0.000600903
0.000774284
-0.000673043
0.000788754
-0.000746548
0.000804279
-0.000821517
0.000820939
-0.00089805
0.000838765
-0.000976251
0.000857778
-0.00105623
0.000878
-0.00113808
0.000899477
-0.00122194
0.000922201
0.000945975
-0.00130787
-0.000136091
0.000630628
-0.000194569
0.000703812
-0.000257057
0.0007501
-0.000322096
0.000779453
-0.00038886
0.000799504
-0.000456959
0.000815349
-0.000526261
0.000829948
-0.000596771
0.000844794
-0.000668555
0.000860537
-0.0007417
0.000877425
-0.000816305
0.000895544
-0.000892471
0.00091493
-0.0009703
0.000935606
-0.0010499
0.000957596
-0.00113137
0.000980948
-0.00121482
0.00100566
0.00103151
-0.00130036
-0.000134524
0.000682327
-0.000192517
0.000761805
-0.000254553
0.000812136
-0.000319168
0.000844069
-0.00038553
0.000865866
-0.000453237
0.000883056
-0.000522153
0.000898864
-0.000592277
0.000914918
-0.000663673
0.000931933
-0.000736428
0.00095018
-0.000810639
0.000969755
-0.000886405
0.000990697
-0.000963829
0.00101303
-0.00104301
0.00103678
-0.00112407
0.001062
-0.00120709
0.00108869
0.0011166
-0.00129219
-0.000132831
0.00073348
-0.000190299
0.000819273
-0.000251845
0.000873682
-0.000316004
0.000908228
-0.000381931
0.000931792
-0.000449216
0.000950341
-0.000517714
0.000967362
-0.000587422
0.000984626
-0.000658399
0.00100291
-0.000730733
0.00102251
-0.000804518
0.00104354
-0.000879855
0.00106603
-0.000956842
0.00109002
-0.00103558
0.00111552
-0.00111618
0.0011426
-0.00119875
0.00117125
0.00120122
-0.00128337
-0.000131012
-0.000187916
0.000876176
-0.000248936
0.000934702
-0.000312603
0.000971895
-0.000378062
0.000997252
-0.000444894
0.00101717
-0.000512944
0.00103541
-0.000582205
0.00105389
-0.000652734
0.00107344
-0.000724616
0.0010944
-0.000797945
0.00111687
-0.00087282
0.00114091
-0.00094934
0.00116654
-0.0010276
0.00119379
-0.00110772
0.00122271
-0.00118979
0.00125332
0.00128533
-0.0012739
-0.000185368
0.000932475
-0.000245824
0.000995159
-0.000308965
0.00103504
-0.000373925
0.00106221
-0.000440271
0.00108352
-0.000507844
0.00110298
-0.000576628
0.00112267
-0.000646678
0.00114349
-0.000718078
0.0011658
-0.000790921
0.00118971
-0.000865303
0.00121529
-0.000941324
0.00124256
-0.00101908
0.00127154
-0.00109868
0.00130231
-0.00118022
0.00133486
0.0013689
-0.00126379
-0.000182655
0.00098813
-0.00024251
0.00105501
-0.000305091
0.00109762
-0.000369519
0.00112664
-0.00043535
0.00114935
-0.000502413
0.00117005
-0.00057069
0.00119095
-0.000640232
0.00121303
-0.00071112
0.00123668
-0.000783446
0.00126204
-0.000857306
0.00128915
-0.000932798
0.00131805
-0.00101002
0.00134876
-0.00108907
0.00138136
-0.00117005
0.00141585
0.0014519
-0.00125305
-0.000179778
0.0010431
-0.000238995
0.00111423
-0.00030098
0.0011596
-0.000364844
0.0011905
-0.000430128
0.00121463
-0.000496654
0.00123657
-0.000564394
0.00125869
-0.000633397
0.00128204
-0.000703743
0.00130703
-0.000775523
0.00133382
-0.000848831
0.00136246
-0.000923762
0.00139298
-0.00100041
0.00142542
-0.00107888
0.00145983
-0.00115927
0.00149624
0.0015343
-0.00124167
-0.000176737
0.00109734
-0.000235278
0.00117277
-0.000296633
0.00122096
-0.0003599
0.00125377
-0.000424608
0.00127934
-0.000490565
0.00130253
-0.000557738
0.00132586
-0.000626174
0.00135047
-0.000695949
0.0013768
-0.000767153
0.00140502
-0.000839879
0.00143518
-0.000914221
0.00146732
-0.000990273
0.00150147
-0.00106813
0.00153769
-0.0011479
0.001576
0.00161605
-0.00122966
-0.000173533
-0.00023136
0.0012306
-0.000292051
0.00128165
-0.000354689
0.00131641
-0.000418788
0.00134344
-0.000484147
0.00136789
-0.000550725
0.00139244
-0.000618564
0.00141831
-0.000687739
0.00144598
-0.000758338
0.00147562
-0.000830452
0.0015073
-0.000904175
0.00154104
-0.000979599
0.00157689
-0.00105682
0.00161491
-0.00113593
0.00165512
0.00169714
-0.00121702
-0.000227241
0.00128768
-0.000287233
0.00134164
-0.000349209
0.00137838
-0.00041267
0.0014069
-0.000477401
0.00143262
-0.000543355
0.00145839
-0.000610568
0.00148552
-0.000679114
0.00151453
-0.000749078
0.00154559
-0.000820552
0.00157877
-0.000893627
0.00161412
-0.000968394
0.00165166
-0.00104495
0.00169146
-0.00112338
0.00173355
0.00177753
-0.00120377
-0.000222922
0.00134396
-0.000282179
0.0014009
-0.000343462
0.00143967
-0.000406254
0.00146969
-0.000470327
0.00149669
-0.000535627
0.00152369
-0.000602186
0.00155208
-0.000670074
0.00158241
-0.000739376
0.00161489
-0.000810181
0.00164958
-0.00088258
0.00168652
-0.000956662
0.00172574
-0.00103252
0.00176731
-0.00111024
0.00181127
0.00185719
-0.0011899
-0.000218402
-0.00027689
0.00145938
-0.000337447
0.00150023
-0.000399539
0.00153179
-0.000462926
0.00156008
-0.000527544
0.00158831
-0.00059342
0.00161796
-0.000660622
0.00164962
-0.000729234
0.0016835
-0.000799342
0.00171969
-0.000871036
0.00175821
-0.000944405
0.00179911
-0.00101953
0.00184244
-0.00109652
0.00188826
0.0019361
-0.00117542
-0.000271365
0.00151707
-0.000331164
0.00156002
-0.000392526
0.00159315
-0.000455198
0.00162275
-0.000519105
0.00165222
-0.00058427
0.00168312
-0.000650759
0.0017161
-0.000718651
0.00175139
-0.000788035
0.00178907
-0.000858998
0.00182918
-0.000931626
0.00187174
-0.001006
0.00191682
-0.00108222
0.00196447
0.00201423
-0.00116034
-0.000265606
0.00157391
-0.000324614
0.00161903
-0.000385216
0.00165375
-0.000447143
0.00168468
-0.000510312
0.00171539
-0.000574738
0.00174755
-0.000640485
0.00178185
-0.000707631
0.00181854
-0.000776264
0.0018577
-0.000846468
0.00189938
-0.000918328
0.0019436
-0.000991927
0.00199042
-0.00106735
0.0020399
0.00209154
-0.00114467
-0.000259613
0.00162987
-0.000317796
0.00167721
-0.000377608
0.00171356
-0.000438762
0.00174583
-0.000501163
0.00177779
-0.000564824
0.00181121
-0.000629801
0.00184683
-0.000696175
0.00188491
-0.000764029
0.00192556
-0.000833448
0.0019688
-0.000904515
0.00201466
-0.000977312
0.00206322
-0.00105192
0.00211451
0.00216803
-0.00112841
-0.000253385
-0.000310712
0.00173454
-0.000369703
0.00177255
-0.000430055
0.00180619
-0.000491661
0.0018394
-0.000554528
0.00187408
-0.000618709
0.00191101
-0.000684283
0.00195048
-0.000751331
0.0019926
-0.00081994
0.00203741
-0.000890189
0.00208491
-0.000962159
0.00213518
-0.00103593
0.00218828
0.00224366
-0.00111156
-0.000303361
0.00179098
-0.000361501
0.00183069
-0.000421022
0.00186571
-0.000481806
0.00190018
-0.000543852
0.00193612
-0.00060721
0.00197437
-0.000671957
0.00201523
-0.000738174
0.00205882
-0.000805945
0.00210518
-0.000875353
0.00215432
-0.000946472
0.0022063
-0.00101939
0.00226119
0.00231842
-0.00109415
-0.000295743
0.0018465
-0.000353002
0.00188795
-0.000411664
0.00192437
-0.000471598
0.00196012
-0.000532795
0.00199732
-0.000595304
0.00203688
-0.000659197
0.00207912
-0.000724557
0.00212418
-0.000791466
0.00217209
-0.000860007
0.00222286
-0.000930255
0.00227655
-0.00100229
0.00233323
0.0023923
-0.00107616
-0.00028786
-0.000344206
0.0019443
-0.00040198
0.00198214
-0.000461038
0.00201917
-0.00052136
0.00205764
-0.000582992
0.00209851
-0.000646005
0.00214214
-0.000710482
0.00218866
-0.000776504
0.00223811
-0.000844154
0.00229051
-0.000913509
0.00234591
-0.000984649
0.00240437
0.00246527
-0.00105762
-0.000335115
0.0019997
-0.000391973
0.002039
-0.000450125
0.00207733
-0.000509546
0.00211706
-0.000570275
0.00215924
-0.000632382
0.00220425
-0.000695949
0.00225222
-0.000761058
0.00230322
-0.000827794
0.00235725
-0.000896235
0.00241435
-0.000966465
0.0024746
0.00253733
-0.00103853
-0.000325727
-0.00038164
0.00209491
-0.000438861
0.00213455
-0.000497354
0.00217555
-0.000557153
0.00221904
-0.000618328
0.00226542
-0.000680958
0.00231485
-0.00074513
0.00236739
-0.000810928
0.00242305
-0.000878434
0.00248185
-0.00094774
0.00254391
0.00260849
-0.00101889
-0.000370984
0.00214985
-0.000427247
0.00219081
-0.000484784
0.00223309
-0.000543628
0.00227788
-0.000603843
0.00232564
-0.000665511
0.00237652
-0.000728719
0.0024306
-0.000793553
0.00248788
-0.000860102
0.0025484
-0.000928472
0.00261228
0.00267874
-0.000998722
-0.000360005
-0.000415282
0.00224609
-0.000471838
0.00228965
-0.0005297
0.00233574
-0.000588929
0.00238486
-0.000649607
0.0024372
-0.000711823
0.00249282
-0.000775669
0.00255173
-0.000841236
0.00261397
-0.000908657
0.0026797
0.0027481
-0.000978017
-0.000402967
0.00230035
-0.000458517
0.0023452
-0.000515369
0.00239259
-0.000573586
0.00244308
-0.000633247
0.00249686
-0.000694443
0.00255401
-0.000757271
0.00261455
-0.000821828
0.00267853
-0.00088828
0.00274615
0.00281659
-0.000956776
-0.000390304
0.00235358
-0.00044482
0.00239971
-0.000500638
0.00244841
-0.000557814
0.00250026
-0.00061643
0.00255548
-0.000676577
0.00261416
-0.000738357
0.00267633
-0.000801868
0.00274204
-0.00086732
0.0028116
0.00288427
-0.000934993
-0.000377293
-0.00043075
0.00245317
-0.000485507
0.00250317
-0.000541617
0.00255637
-0.000599157
0.00261302
-0.000658224
0.00267323
-0.000718924
0.00273703
-0.000781344
0.00280446
-0.000845737
0.00287599
0.00295117
-0.000912642
-0.000416308
-0.000469978
0.00255684
-0.000524994
0.00261138
-0.00058143
0.00266945
-0.000639383
0.00273118
-0.000698971
0.00279662
-0.000760252
0.00286574
-0.000823457
0.0029392
0.0030174
-0.000889688
-0.000454054
0.0026094
-0.00050795
0.00266528
-0.000563253
0.00272476
-0.000620056
0.00278798
-0.000678496
0.00285506
-0.0007386