/*--------------------------------*- C++ -*----------------------------------*\
  =========                 |
  \\      /  F ield         | OpenFOAM: The Open Source CFD Toolbox
   \\    /   O peration     | Website:  https://openfoam.org
    \\  /    A nd           | Version:  7
     \\/     M anipulation  |
\*---------------------------------------------------------------------------*/
FoamFile
{
    version     2.0;
    format      ascii;
    class       volVectorField;
    location    "75";
    object      U;
}
// * * * * * * * * * * * * * * * * * * * * * * * * * * * * * * * * * * * * * //

dimensions      [0 1 -1 0 0 0 0];

internalField   nonuniform List<vector> 
8500
(
(1.05631 0.367886 1.66995e-21)
(1.04479 0.385583 1.4045e-22)
(1.04554 0.368013 3.03742e-20)
(1.03162 0.405504 -1.1842e-20)
(1.03316 0.385474 4.96737e-20)
(1.03467 0.367792 -5.62947e-20)
(1.01775 0.427295 -1.61754e-20)
(1.01931 0.405195 7.46233e-20)
(1.02141 0.385006 -3.63247e-20)
(1.02369 0.367211 1.05354e-20)
(1.00482 0.426757 3.34675e-20)
(1.00694 0.404518 5.6696e-20)
(1.00956 0.384173 -1.65811e-19)
(1.01262 0.366249 3.8528e-20)
(0.989729 0.44947 5.51668e-20)
(0.991842 0.425813 -6.86733e-20)
(0.994529 0.403469 4.09539e-20)
(0.997623 0.382964 1.94498e-19)
(1.00146 0.364877 1.24744e-19)
(0.973453 0.473351 -2.25255e-20)
(0.976022 0.448204 -9.10376e-20)
(0.978853 0.424456 -3.67565e-20)
(0.982099 0.402043 -1.18514e-19)
(0.985616 0.381367 7.39668e-20)
(0.990235 0.363053 -1.4884e-19)
(0.958894 0.471705 -2.2938e-20)
(0.962291 0.446483 -1.90554e-20)
(0.965868 0.422677 7.03431e-20)
(0.96967 0.400236 1.46608e-19)
(0.973576 0.379369 -2.47302e-19)
(0.979065 0.360746 1.74932e-19)
(0.940126 0.496344 -4.37427e-21)
(0.944305 0.469567 -4.00089e-21)
(0.948549 0.444301 1.31558e-19)
(0.952894 0.420467 -5.1591e-20)
(0.957252 0.39803 -1.079e-19)
(0.961608 0.376947 -5.37288e-21)
(0.968215 0.357968 -2.53825e-19)
(0.924611 0.493732 -7.21083e-20)
(0.929701 0.466934 4.21245e-20)
(0.934804 0.441652 1.16798e-19)
(0.939923 0.417817 3.8741e-20)
(0.944865 0.395402 -2.17652e-19)
(0.949902 0.374026 -7.94232e-21)
(0.957714 0.354664 7.75045e-20)
(0.903013 0.518985 -4.25509e-20)
(0.909092 0.490588 -1.24695e-20)
(0.915098 0.463804 -1.28587e-19)
(0.921063 0.438538 -6.79623e-20)
(0.926954 0.414732 -7.67235e-20)
(0.932559 0.392362 2.60525e-19)
(0.938642 0.370617 -6.19691e-20)
(0.946752 0.34963 2.36339e-19)
(0.87929 0.545283 -1.31701e-19)
(0.886531 0.515262 6.03196e-20)
(0.89359 0.48691 1.00584e-19)
(0.900515 0.460177 4.07298e-20)
(0.907337 0.434962 1.16786e-19)
(0.914003 0.411211 5.86385e-20)
(0.920366 0.388904 -1.45002e-20)
(0.927487 0.367189 1.3285e-19)
(0.93583 0.346131 2.31125e-20)
(0.861796 0.540911 -6.49789e-20)
(0.870084 0.510964 -1.93704e-19)
(0.878128 0.482696 -1.17192e-20)
(0.885972 0.456053 -8.83612e-20)
(0.893647 0.430926 1.3991e-19)
(0.901088 0.407264 -2.18558e-19)
(0.908205 0.385026 -5.58458e-20)
(0.916094 0.36334 -8.60185e-20)
(0.924582 0.342223 -3.15152e-19)
(0.834582 0.567371 -1.99474e-20)
(0.844359 0.535917 -1.01153e-20)
(0.853698 0.506088 -3.59017e-20)
(0.862726 0.477948 -6.9923e-20)
(0.871489 0.451432 -1.02515e-19)
(0.880014 0.426432 5.74942e-20)
(0.888236 0.402893 1.77353e-19)
(0.896103 0.38076 -9.82527e-20)
(0.90467 0.359172 1.29983e-19)
(0.913428 0.338204 3.70581e-19)
(0.816117 0.561609 -3.13231e-19)
(0.827005 0.530301 -1.56744e-19)
(0.837395 0.500637 3.94653e-20)
(0.847407 0.472665 5.86176e-20)
(0.857087 0.446316 2.11157e-19)
(0.86646 0.421481 -2.98893e-19)
(0.875463 0.398101 8.90252e-20)
(0.884072 0.376108 5.2991e-20)
(0.893282 0.354674 -7.6234e-20)
(0.902397 0.333957 -2.79285e-19)
(0.797762 0.555176 1.65614e-19)
(0.809762 0.524064 2.74197e-19)
(0.821202 0.49461 2.28562e-19)
(0.832195 0.466849 1.71243e-19)
(0.842788 0.440706 -3.70991e-19)
(0.853006 0.416073 -4.55224e-21)
(0.86279 0.392889 -1.01536e-19)
(0.872132 0.371075 3.97292e-19)
(0.881974 0.349846 -1.58388e-20)
(0.891506 0.329432 -1.98607e-19)
(0.765534 0.580309 -2.36431e-19)
(0.779545 0.548074 5.26034e-21)
(0.792654 0.517209 9.46546e-20)
(0.805141 0.488009 -1.49964e-19)
(0.817111 0.460501 -1.88662e-19)
(0.828613 0.434605 4.82519e-19)
(0.839674 0.410211 1.96354e-19)
(0.850236 0.387259 -2.05673e-19)
(0.860306 0.365661 -2.36117e-19)
(0.87078 0.344683 -2.68662e-19)
(0.880771 0.324607 -2.58879e-20)
(0.746331 0.572273 1.28463e-19)
(0.761494 0.540307 5.14341e-20)
(0.775709 0.509738 -2.61427e-19)
(0.789237 0.480839 2.79655e-19)
(0.802179 0.453625 1.73896e-19)
(0.814585 0.428014 -6.70925e-20)
(0.826482 0.403897 -1.32742e-19)
(0.83782 0.381213 1.16361e-19)
(0.848616 0.359867 -2.0585e-19)
(0.859722 0.339177 -2.88477e-19)
(0.870202 0.319463 2.77637e-19)
(0.70945 0.595761 4.10866e-19)
(0.727325 0.563521 -2.0908e-19)
(0.743637 0.531878 2.5967e-19)
(0.758952 0.501655 -3.01961e-19)
(0.773514 0.473102 3.99305e-20)
(0.787421 0.446223 -1.21368e-19)
(0.800724 0.420937 9.02203e-20)
(0.813453 0.397134 8.61216e-20)
(0.825562 0.374751 -5.35551e-20)
(0.837079 0.353693 5.14715e-19)
(0.84882 0.333325 -7.11068e-20)
(0.859811 0.313991 -2.38422e-19)
(0.68952 0.58598 -2.99234e-19)
(0.708549 0.554059 4.38256e-19)
(0.726004 0.522795 -4.53453e-20)
(0.74241 0.492966 1.25647e-19)
(0.757997 0.464803 1.56456e-19)
(0.77286 0.438302 6.33282e-20)
(0.787051 0.413378 -4.33551e-19)
(0.800604 0.389924 9.94799e-20)
(0.813479 0.367877 9.23558e-20)
(0.825713 0.347139 -3.12285e-19)
(0.838088 0.327124 1.16287e-19)
(0.849607 0.308184 4.56147e-20)
(0.64706 0.605897 -4.47072e-20)
(0.669853 0.575436 -5.99193e-21)
(0.690032 0.543895 7.3463e-20)
(0.70862 0.513064 -1.22151e-19)
(0.726108 0.483678 -1.81667e-20)
(0.742708 0.455948 -4.86527e-19)
(0.758516 0.429864 -3.77891e-19)
(0.773587 0.40534 -6.4814e-20)
(0.787956 0.382272 -5.43672e-20)
(0.80159 0.360593 -6.13023e-20)
(0.814537 0.340207 -1.2641e-19)
(0.827543 0.320572 -1.47498e-19)
(0.839598 0.302041 -1.98326e-19)
(0.626602 0.594279 -8.82044e-20)
(0.650482 0.564138 -4.16106e-20)
(0.671804 0.533038 -4.28654e-19)
(0.691515 0.502692 -4.10317e-19)
(0.71007 0.473797 7.56743e-20)
(0.727672 0.446544 6.75194e-19)
(0.744413 0.420917 1.00261e-19)
(0.760352 0.396831 2.7514e-19)
(0.775528 0.374181 -4.32911e-19)
(0.789912 0.352903 -1.03169e-19)
(0.803564 0.332899 5.17216e-19)
(0.817196 0.31367 2.3017e-19)
(0.829794 0.295561 9.55337e-19)
(0.606476 0.581852 -5.74533e-20)
(0.63144 0.552099 2.94354e-19)
(0.653895 0.521498 -1.87467e-19)
(0.674715 0.49169 1.36658e-19)
(0.694323 0.463332 3.17234e-19)
(0.712911 0.436598 -2.17106e-19)
(0.730572 0.411468 5.52118e-20)
(0.747366 0.387855 2.74836e-19)
(0.763336 0.365658 3.47742e-19)
(0.778462 0.344812 -1.83919e-19)
(0.792811 0.325219 -1.04947e-19)
(0.807062 0.30642 1.62041e-19)
(0.820205 0.288747 -4.73372e-19)
(0.556691 0.593947 6.62282e-20)
(0.586716 0.56863 1.87659e-19)
(0.61276 0.539331 -2.81396e-19)
(0.636335 0.509287 6.73503e-19)
(0.658247 0.480068 2.85476e-19)
(0.678891 0.452292 -9.53218e-20)
(0.698448 0.426119 -3.0092e-20)
(0.717013 0.401525 1.30673e-19)
(0.734648 0.378421 -3.65308e-19)
(0.751401 0.356709 3.05817e-20)
(0.767257 0.336325 -2.40239e-19)
(0.782292 0.317171 -1.06828e-19)
(0.797152 0.298826 -4.77563e-19)
(0.810839 0.281603 -2.08508e-19)
(0.53642 0.579643 -2.35369e-19)
(0.567359 0.554629 1.29158e-19)
(0.594473 0.525848 -7.89328e-20)
(0.619151 0.496417 -2.45572e-19)
(0.642137 0.467837 2.71837e-19)
(0.663797 0.440688 2.93001e-19)
(0.684306 0.415118 -6.16842e-22)
(0.703757 0.391095 -6.78696e-20)
(0.722218 0.368535 -3.87754e-20)
(0.739738 0.347341 2.91383e-19)
(0.756311 0.327447 2.60949e-19)
(0.77202 0.30876 7.36699e-20)
(0.787479 0.290892 5.04672e-19)
(0.801708 0.274133 1.65513e-19)
(0.516587 0.564508 -8.71557e-20)
(0.548438 0.539866 -1.46985e-19)
(0.576609 0.511665 -5.66454e-20)
(0.602372 0.482903 -8.89597e-21)
(0.62641 0.455009 -5.91778e-19)
(0.649065 0.428532 -7.59226e-19)
(0.670506 0.403603 -1.18383e-19)
(0.690825 0.38019 2.69044e-19)
(0.710093 0.358208 -1.0688e-19)
(0.728365 0.337562 -5.46916e-19)
(0.745641 0.318188 5.1819e-19)
(0.762011 0.299993 7.51571e-20)
(0.778055 0.282624 -2.11217e-19)
(0.792821 0.266345 3.34894e-19)
(0.459001 0.564216 9.96829e-20)
(0.497228 0.548562 3.49769e-19)
(0.529986 0.524359 -1.23069e-19)
(0.559199 0.496798 1.88608e-19)
(0.586024 0.468758 3.62963e-19)
(0.611092 0.441599 2.00517e-19)
(0.634719 0.415835 8.50308e-19)
(0.657069 0.391587 3.94419e-19)
(0.678235 0.368819 -3.22284e-20)
(0.698292 0.347447 -2.12836e-20)
(0.717299 0.327381 6.96563e-20)
(0.735262 0.308554 -5.74719e-19)
(0.752277 0.290877 -3.09702e-19)
(0.768892 0.274028 1.3389e-19)
(0.784188 0.258244 -4.65572e-19)
(0.439564 0.547356 7.57853e-20)
(0.47838 0.531826 -4.48609e-19)
(0.512037 0.508127 3.42878e-19)
(0.542271 0.481266 -1.59805e-19)
(0.570135 0.454 -3.72961e-19)
(0.596207 0.427621 -9.10832e-20)
(0.620781 0.402612 -3.51168e-19)
(0.644016 0.379083 -7.39884e-19)
(0.666007 0.356995 6.43588e-20)
(0.686833 0.336266 5.97475e-19)
(0.706555 0.316807 -2.63372e-19)
(0.725188 0.298554 3.21983e-19)
(0.742832 0.28142 4.37658e-19)
(0.760003 0.265113 2.82935e-19)
(0.775819 0.24984 2.17069e-19)
(0.420667 0.529664 2.73375e-19)
(0.460079 0.514322 4.78185e-19)
(0.494621 0.491192 -5.84762e-19)
(0.525854 0.465087 4.6618e-19)
(0.554731 0.438645 3.75275e-19)
(0.581778 0.413091 -1.09814e-19)
(0.607272 0.388878 -5.82932e-20)
(0.631367 0.366103 2.16108e-19)
(0.65416 0.344729 -3.75708e-19)
(0.675732 0.324673 -5.06518e-19)
(0.696149 0.305851 1.93568e-19)
(0.715433 0.288198 -1.99068e-19)
(0.733688 0.271632 -2.37202e-19)
(0.751398 0.255886 -2.07912e-19)
(0.767725 0.241139 2.13225e-20)
(0.402351 0.511166 -4.74553e-19)
(0.442357 0.496076 -3.72106e-20)
(0.477768 0.473575 2.76381e-20)
(0.509975 0.448282 -4.8227e-20)
(0.539835 0.422712 -4.72138e-19)
(0.567828 0.398025 -2.16493e-20)
(0.594214 0.374647 -7.82973e-20)
(0.619141 0.352663 4.77752e-19)
(0.642711 0.332034 -1.50095e-19)
(0.665005 0.312682 -4.33167e-20)
(0.686096 0.294524 2.56574e-19)
(0.706011 0.277497 7.5333e-19)
(0.724858 0.261521 -7.63032e-20)
(0.743089 0.246356 -9.21426e-20)
(0.759915 0.232151 1.58241e-19)
(0.337979 0.492529 3.41539e-19)
(0.38465 0.49189 -2.03469e-19)
(0.425247 0.477113 -3.29887e-19)
(0.461508 0.455299 3.28141e-19)
(0.494661 0.430871 -1.10354e-19)
(0.525473 0.40622 3.10786e-19)
(0.55438 0.382443 1.43213e-19)
(0.581627 0.359936 -8.48748e-20)
(0.607358 0.338777 -3.24877e-19)
(0.631677 0.318926 4.06683e-19)
(0.65467 0.300306 -1.03169e-19)
(0.676411 0.282839 -4.51294e-19)
(0.696936 0.266462 -1.54947e-19)
(0.716354 0.251099 -4.9373e-20)
(0.735088 0.236533 7.82744e-19)
(0.752398 0.222887 -5.06682e-19)
(0.320833 0.472798 -2.5276e-19)
(0.367599 0.471865 5.02913e-19)
(0.408781 0.457459 9.10728e-20)
(0.445869 0.43639 2.50586e-19)
(0.479938 0.412877 1.87466e-19)
(0.511667 0.38919 -5.1626e-19)
(0.541455 0.366362 -2.72751e-19)
(0.56953 0.344762 5.09943e-19)
(0.596036 0.324461 -1.6518e-20)
(0.621076 0.305418 -4.21746e-19)
(0.644741 0.287559 1.08427e-19)
(0.667108 0.270808 5.27774e-19)
(0.68822 0.255104 -4.30266e-19)
(0.708188 0.240375 -1.76026e-19)
(0.727404 0.226428 -1.54605e-19)
(0.745185 0.213355 3.47517e-19)
(0.304357 0.4523 -3.44109e-19)
(0.351233 0.45112 -1.50301e-19)
(0.392988 0.437142 -6.40699e-20)
(0.430878 0.416872 -5.00003e-19)
(0.465828 0.394323 -3.83342e-19)
(0.49844 0.371643 5.12763e-19)
(0.529073 0.349801 2.86375e-19)
(0.557943 0.329144 -2.25357e-19)
(0.585192 0.309732 -2.63344e-19)
(0.610924 0.291526 2.86926e-19)
(0.635233 0.274454 -1.64095e-19)
(0.658201 0.258444 2.3799e-19)
(0.679876 0.243436 1.14696e-19)
(0.700371 0.229363 4.4921e-19)
(0.72005 0.21605 9.09445e-20)
(0.738285 0.203567 -4.11253e-19)
(0.288585 0.431068 -7.10325e-20)
(0.335582 0.429687 -2.02848e-19)
(0.377898 0.416191 1.78228e-19)
(0.416561 0.396772 6.65865e-20)
(0.452357 0.375234 -2.00857e-19)
(0.485813 0.3536 1.35372e-19)
(0.517254 0.332783 -3.61002e-19)
(0.546884 0.3131 -8.07061e-20)
(0.574842 0.294609 3.34117e-19)
(0.601235 0.277267 1.19899e-19)
(0.62616 0.261008 1.88936e-19)
(0.649702 0.245761 -3.59904e-19)
(0.671915 0.231471 -1.39666e-19)
(0.692914 0.218073 -4.71403e-20)
(0.713033 0.205412 6.67589e-20)
(0.731706 0.193533 3.78677e-19)
(0.27355 0.409136 -1.58999e-19)
(0.320678 0.4076 3.50344e-19)
(0.363537 0.394637 5.62325e-19)
(0.402941 0.376118 1.61635e-19)
(0.439546 0.355634 2.20465e-19)
(0.473807 0.335087 -2.64875e-21)
(0.506017 0.315327 1.06366e-19)
(0.53637 0.296651 3.76568e-19)
(0.565003 0.279108 -5.52967e-20)
(0.592025 0.262657 -6.82368e-19)
(0.617536 0.247235 5.96089e-21)
(0.641624 0.232775 3.85544e-20)
(0.66435 0.219223 3.60424e-20)
(0.685827 0.206519 -2.23612e-19)
(0.706366 0.194525 -2.07849e-19)
(0.725456 0.183265 -4.07997e-19)
(0.207672 0.369466 -1.06744e-19)
(0.259285 0.386542 2.12472e-19)
(0.306549 0.384891 2.10021e-19)
(0.349931 0.37251 -2.09067e-19)
(0.390043 0.354938 2.58067e-20)
(0.427416 0.33555 -1.38953e-19)
(0.46244 0.316126 3.51864e-20)
(0.49538 0.297457 -4.30131e-21)
(0.526418 0.279817 -1.6844e-19)
(0.55569 0.263249 -7.60037e-20)
(0.583308 0.247715 4.53839e-19)
(0.609374 0.233153 -3.42825e-19)
(0.633979 0.219501 2.30726e-19)
(0.65719 0.206706 9.4431e-20)
(0.679121 0.194714 -2.18136e-20)
(0.700055 0.183402 7.22176e-21)
(0.719545 0.172776 2.2487e-19)
(0.194709 0.347484 2.97056e-19)
(0.245819 0.363321 -1.64897e-19)
(0.293222 0.361596 -2.91935e-19)
(0.337105 0.349843 -1.77669e-19)
(0.377889 0.333262 -3.47068e-19)
(0.415988 0.315009 2.86005e-19)
(0.451732 0.296742 -2.35358e-19)
(0.485359 0.279195 5.0618e-20)
(0.517042 0.26262 3.60182e-20)
(0.546916 0.247053 -1.56528e-19)
(0.575096 0.232458 1.83189e-19)
(0.601685 0.218778 2.78131e-19)
(0.626779 0.205953 -2.48826e-19)
(0.650447 0.193935 -2.85852e-19)
(0.672805 0.182672 5.50687e-19)
(0.694112 0.172056 -4.97981e-19)
(0.713979 0.162077 1.82896e-19)
(0.182531 0.324898 -2.48268e-19)
(0.23318 0.339512 5.28134e-20)
(0.280723 0.337752 1.15883e-19)
(0.325082 0.326669 -4.07808e-19)
(0.366498 0.31112 6.6722e-20)
(0.40528 0.294038 -2.79408e-19)
(0.441699 0.276961 2.39403e-19)
(0.47597 0.260566 5.7146e-20)
(0.508258 0.24508 -2.62394e-19)
(0.538697 0.230539 -5.9743e-20)
(0.567402 0.216905 1.42905e-19)
(0.594482 0.204127 6.78695e-20)
(0.620032 0.192149 -2.01707e-20)
(0.64413 0.180924 1.66208e-20)
(0.666887 0.170406 -4.84938e-19)
(0.688543 0.1605 3.47319e-19)
(0.708766 0.151181 3.24615e-19)
(0.171166 0.301748 2.27408e-19)
(0.221394 0.315155 1.55906e-19)
(0.269075 0.313393 2.97116e-19)
(0.313883 0.303023 4.12824e-20)
(0.355891 0.288543 2.89517e-20)
(0.395309 0.272667 -2.22608e-21)
(0.432358 0.25681 -3.06096e-19)
(0.467229 0.241592 1.6166e-19)
(0.500079 0.227221 -2.62394e-19)
(0.531043 0.213728 1.74089e-19)
(0.560238 0.201077 -2.81377e-19)
(0.587774 0.18922 -1.6625e-19)
(0.61375 0.178106 3.38529e-19)
(0.638247 0.16769 3.01843e-20)
(0.661377 0.157932 7.65697e-20)
(0.683357 0.148747 3.14681e-20)
(0.703912 0.140101 -3.57592e-19)
(0.160639 0.278076 -1.52448e-19)
(0.210486 0.29029 9.71136e-20)
(0.258301 0.28856 -2.19231e-19)
(0.303527 0.278938 1.67894e-19)
(0.346085 0.265563 2.38835e-20)
(0.386092 0.250924 1.43343e-19)
(0.423723 0.236315 -5.52638e-21)
(0.459148 0.2223 -1.4233e-19)
(0.492519 0.209067 1.40996e-19)
(0.523968 0.196641 -3.6643e-19)
(0.553615 0.184992 5.14722e-19)
(0.581573 0.174074 1.98366e-19)
(0.607942 0.16384 -4.17835e-19)
(0.632808 0.154249 4.22916e-20)
(0.656282 0.145264 2.75618e-19)
(0.678561 0.136812 -3.92428e-19)
(0.699425 0.12885 -1.87363e-21)
(0.150974 0.253922 1.00435e-19)
(0.200478 0.264958 -8.25157e-20)
(0.248421 0.26329 -4.15597e-20)
(0.294033 0.25445 -8.4302e-20)
(0.337096 0.242213 -1.08127e-19)
(0.377644 0.228841 -3.02017e-19)
(0.415808 0.215505 1.32576e-19)
(0.451741 0.202715 -1.86439e-19)
(0.485587 0.19064 3.4457e-19)
(0.517481 0.179302 2.34375e-19)
(0.547543 0.168672 -4.15745e-19)
(0.575887 0.158709 -4.20766e-19)
(0.602616 0.14937 2.01898e-19)
(0.62782 0.140617 -2.26734e-19)
(0.651609 0.132418 -2.81147e-20)
(0.674162 0.124709 2.24926e-19)
(0.69531 0.117443 -4.19181e-19)
(0.142192 0.229331 -1.61639e-19)
(0.191391 0.239201 -2.33046e-19)
(0.239453 0.237622 3.4383e-19)
(0.285418 0.229596 4.78523e-20)
(0.328941 0.218526 1.7408e-19)
(0.369979 0.206446 1.8475e-19)
(0.408626 0.194407 -4.40304e-20)
(0.445018 0.182863 2.61684e-19)
(0.479296 0.171965 -1.55369e-19)
(0.511593 0.161732 -2.02636e-19)
(0.54203 0.152137 3.25221e-19)
(0.570724 0.143144 3.72094e-19)
(0.59778 0.134713 -4.30087e-19)
(0.623291 0.126811 5.9271e-20)
(0.647365 0.119409 -3.9794e-20)
(0.670165 0.112453 -1.4083e-19)
(0.691573 0.105892 5.61444e-20)
(0.134314 0.204347 1.78021e-19)
(0.183242 0.213061 1.29182e-19)
(0.231413 0.211597 -1.85769e-19)
(0.277697 0.204412 8.78185e-20)
(0.321631 0.194536 9.9795e-20)
(0.363108 0.183771 -3.155e-19)
(0.402188 0.173049 1.55583e-19)
(0.438992 0.162771 1.77001e-20)
(0.473656 0.153067 1.50875e-19)
(0.506312 0.143954 -1.96844e-19)
(0.537085 0.135409 2.48496e-20)
(0.566092 0.127398 -1.56695e-20)
(0.593441 0.119888 2.17047e-20)
(0.619226 0.112849 1.34275e-19)
(0.643556 0.106254 2.41866e-20)
(0.666578 0.100059 -3.00483e-20)
(0.688217 0.0942122 3.57485e-21)
(0.127357 0.179014 -2.67222e-20)
(0.176048 0.186584 1.58874e-19)
(0.224318 0.185255 -2.01778e-19)
(0.270882 0.178937 5.0695e-20)
(0.31518 0.170277 -1.80238e-19)
(0.357044 0.160849 3.33766e-22)
(0.396504 0.151463 -2.92805e-19)
(0.43367 0.142465 -2.14466e-19)
(0.468673 0.133971 1.15555e-19)
(0.501647 0.125992 3.06868e-20)
(0.532716 0.118509 -8.18463e-20)
(0.561999 0.111493 1.10326e-19)
(0.589605 0.104914 8.11206e-20)
(0.615632 0.0987465 1.36783e-19)
(0.640187 0.0929684 6.77634e-20)
(0.663404 0.0875422 1.56624e-19)
(0.685249 0.0824176 6.35496e-20)
(0.0749933 0.134991 2.59653e-19)
(0.121337 0.153378 -1.01881e-19)
(0.169824 0.159812 -4.69868e-20)
(0.218179 0.158638 -8.99719e-20)
(0.264986 0.153207 8.76585e-21)
(0.309597 0.145784 6.42779e-20)
(0.351795 0.137711 2.00115e-19)
(0.391583 0.129676 2.46633e-19)
(0.429061 0.121974 9.62286e-20)
(0.464357 0.114701 -2.33139e-20)
(0.497604 0.107869 -5.06433e-20)
(0.528929 0.101459 -1.28458e-19)
(0.558449 0.0954474 1.56639e-20)
(0.586277 0.0898094 -1.52969e-20)
(0.612514 0.0845226 -1.12073e-19)
(0.637262 0.079569 -1.15694e-20)
(0.660648 0.0749178 -2.26322e-19)
(0.682671 0.0705226 4.38392e-21)
(0.0704849 0.112248 -1.06265e-19)
(0.116265 0.127485 -5.6301e-21)
(0.164581 0.13279 -1.21632e-20)
(0.213008 0.131787 6.00507e-20)
(0.260019 0.127262 -1.8949e-19)
(0.304893 0.121092 -7.46517e-20)
(0.34737 0.114389 -1.28201e-19)
(0.387433 0.107719 5.10479e-21)
(0.425172 0.101325 4.32367e-20)
(0.460714 0.0952852 9.74745e-20)
(0.49419 0.0896087 -1.94144e-20)
(0.525728 0.0842813 8.62546e-20)
(0.555449 0.079283 -4.25082e-20)
(0.583463 0.0745936 -1.55058e-19)
(0.609875 0.0701949 -1.65633e-20)
(0.634787 0.0660724 -3.61199e-20)
(0.658315 0.0622018 1.7295e-19)
(0.680487 0.0585419 -2.97278e-20)
(0.0668303 0.0893053 -2.48975e-20)
(0.112154 0.101381 5.50045e-20)
(0.16033 0.105564 4.30426e-20)
(0.208814 0.104744 1.22785e-20)
(0.255989 0.101139 1.46338e-19)
(0.301074 0.0962371 -3.97782e-20)
(0.343776 0.0909159 3.56485e-20)
(0.38406 0.0856222 4.25657e-20)
(0.422009 0.0805458 2.97978e-20)
(0.457748 0.075748 -8.13696e-20)
(0.491409 0.0712359 1.07836e-19)
(0.52312 0.0669985 8.17e-20)
(0.553002 0.0630205 -3.23375e-20)
(0.581167 0.0592862 1.32172e-19)
(0.60772 0.0557815 2.08576e-19)
(0.632764 0.0524955 -3.07971e-20)
(0.656406 0.0494099 7.86373e-20)
(0.6787 0.0464903 -3.57725e-20)
(0.064038 0.0662066 1.69082e-20)
(0.109012 0.0751131 -8.70637e-20)
(0.15708 0.0781782 4.51506e-20)
(0.205605 0.0775525 1.3347e-19)
(0.252903 0.0748786 -1.07836e-19)
(0.298146 0.0712549 -6.29372e-21)
(0.341018 0.0673254 2.81308e-20)
(0.381468 0.0634161 6.30074e-20)
(0.419577 0.0596649 5.97951e-21)
(0.455465 0.056116 -2.04891e-20)
(0.489266 0.0527746 -3.33949e-20)
(0.521108 0.0496332 -3.55721e-20)
(0.551111 0.0466808 1.368e-20)
(0.579391 0.0439066 1.38846e-20)
(0.606052 0.0413006 -7.02862e-20)
(0.631197 0.0388553 -6.92665e-21)
(0.654925 0.0365581 -1.69746e-19)
(0.677312 0.0343827 7.12061e-20)
(0.0621145 0.0429971 -8.0481e-21)
(0.106845 0.048729 3.6921e-20)
(0.154835 0.0506792 -2.16673e-20)
(0.203387 0.0502542 -6.84297e-20)
(0.250765 0.0485194 3.32936e-20)
(0.296115 0.0461815 -7.92794e-22)
(0.3391 0.0436503 -9.71983e-20)
(0.379663 0.0411314 5.93346e-20)
(0.417878 0.0387107 -4.02189e-20)
(0.453868 0.0364156 3.20767e-20)
(0.487763 0.0342495 -2.65212e-20)
(0.519693 0.0322081 1.40455e-20)
(0.54978 0.0302853 2.56253e-20)
(0.578137 0.0284746 -7.55606e-20)
(0.604872 0.0267706 7.1482e-21)
(0.630086 0.025169 -3.42366e-21)
(0.653873 0.0236625 4.31163e-20)
(0.676324 0.022234 9.63221e-22)
(0.0610637 0.0197222 5.55288e-21)
(0.105657 0.0222758 6.96058e-21)
(0.153601 0.0231127 -1.38592e-20)
(0.202161 0.0228922 2.67321e-20)
(0.249579 0.022101 -1.05987e-20)
(0.294983 0.021053 3.31987e-20)
(0.338025 0.0199241 3.05802e-20)
(0.378646 0.018799 -3.82967e-20)
(0.416916 0.0177118 -1.41919e-20)
(0.452958 0.0166733 1.94412e-20)
(0.486903 0.0156851 -1.36954e-20)
(0.518879 0.0147462 -1.76318e-20)
(0.54901 0.0138551 1.5638e-21)
(0.577409 0.01301 1.83389e-20)
(0.604183 0.0122098 3.59867e-20)
(0.629433 0.0114536 2.69755e-21)
(0.653253 0.0107393 4.03387e-21)
(0.675738 0.0100592 1.78747e-20)
(0.0608878 -0.00357273 4.42463e-21)
(0.105451 -0.00419897 8.25153e-21)
(0.153379 -0.00447522 -6.98662e-21)
(0.201931 -0.00449052 2.53198e-20)
(0.249346 -0.00433706 -1.40844e-20)
(0.29475 -0.0040941 3.66895e-20)
(0.337795 -0.0038199 2.25785e-20)
(0.378418 -0.0035503 -3.0393e-20)
(0.416692 -0.00330304 -1.1173e-20)
(0.452737 -0.00308419 1.39235e-20)
(0.486686 -0.00289383 -1.16209e-20)
(0.518666 -0.00272959 -2.27041e-20)
(0.548801 -0.00258843 6.0378e-21)
(0.577205 -0.00246726 1.63343e-20)
(0.603984 -0.00236317 3.69988e-20)
(0.62924 -0.00227342 3.18334e-21)
(0.653063 -0.00219522 2.81945e-21)
(0.675554 -0.00212637 1.90702e-20)
(0.0615863 -0.0268423 3.00822e-20)
(0.106226 -0.0306476 2.31701e-20)
(0.154167 -0.0320386 -1.88127e-20)
(0.202696 -0.031851 -1.12238e-19)
(0.250067 -0.0307554 6.81872e-20)
(0.295418 -0.0292236 -1.12925e-20)
(0.338408 -0.0275482 -5.32955e-20)
(0.378979 -0.0258855 5.48345e-24)
(0.417204 -0.0243053 -2.96229e-20)
(0.453204 -0.0228304 3.87838e-20)
(0.487112 -0.0214626 -3.90407e-20)
(0.519054 -0.0201964 3.30157e-20)
(0.549155 -0.0190239 1.24847e-20)
(0.577526 -0.0179375 -6.01767e-20)
(0.604276 -0.0169299 1.81472e-20)
(0.629505 -0.015995 -2.96563e-21)
(0.653306 -0.015125 3.19644e-20)
(0.675773 -0.0143079 3.30447e-21)
(0.0631566 -0.0500411 -4.55041e-20)
(0.107979 -0.0570227 -7.11199e-20)
(0.155966 -0.0595313 8.18875e-20)
(0.204453 -0.0591462 1.25562e-19)
(0.251738 -0.0571144 -1.12512e-19)
(0.296984 -0.0542993 2.97666e-20)
(0.339864 -0.0512274 1.4468e-20)
(0.380328 -0.0481758 7.25879e-20)
(0.418453 -0.0452663 -1.96629e-20)
(0.454359 -0.0425387 -6.78486e-20)
(0.48818 -0.0399966 1.38945e-20)
(0.520042 -0.0376312 -5.24124e-20)
(0.550068 -0.03543 4.18874e-20)
(0.578372 -0.0333807 1.1904e-20)
(0.605058 -0.0314719 -9.38052e-20)
(0.630229 -0.0296939 5.60141e-21)
(0.653979 -0.0280338 -1.37451e-19)
(0.676393 -0.0264704 3.10322e-20)
(0.0655942 -0.0731239 2.30117e-20)
(0.110707 -0.0832768 3.11737e-20)
(0.158768 -0.0869076 -5.74991e-20)
(0.207199 -0.0863335 1.08083e-20)
(0.254357 -0.0833746 1.87496e-19)
(0.299445 -0.0792849 1.91776e-20)
(0.34216 -0.0748241 3.89267e-20)
(0.382463 -0.0703903 5.42228e-21)
(0.420434 -0.0661575 6.53927e-20)
(0.456199 -0.0621826 -7.27244e-20)
(0.489887 -0.0584712 1.0322e-19)
(0.521628 -0.0550111 3.06569e-21)
(0.551541 -0.0517855 -2.61094e-20)
(0.57974 -0.0487772 1.99991e-19)
(0.606329 -0.0459707 1.55802e-19)
(0.631409 -0.0433529 -8.09212e-20)
(0.655081 -0.0409055 1.07105e-19)
(0.677413 -0.0385988 -2.33841e-21)
(0.0688919 -0.0960456 -1.6204e-19)
(0.1144 -0.109363 7.1217e-21)
(0.162569 -0.114122 -2.91669e-20)
(0.210928 -0.11337 -4.65351e-21)
(0.257918 -0.109497 -9.51968e-20)
(0.302796 -0.104144 -1.1044e-19)
(0.34529 -0.0983052 -4.61469e-20)
(0.385377 -0.0924984 -1.58894e-19)
(0.423145 -0.0869505 1.7814e-19)
(0.45872 -0.0817357 3.65842e-20)
(0.492232 -0.0768619 -7.41888e-20)
(0.523809 -0.0723135 1.26715e-19)
(0.55357 -0.0680692 -5.51395e-20)
(0.581628 -0.0641073 -1.25251e-19)
(0.608085 -0.0604081 -2.94777e-20)
(0.633044 -0.056955 -3.9608e-20)
(0.65661 -0.053724 6.35851e-20)
(0.678832 -0.050678 -4.58001e-21)
(0.0730407 -0.118762 1.01434e-20)
(0.119051 -0.135234 -2.52393e-20)
(0.167358 -0.141128 -7.09754e-20)
(0.215632 -0.140214 -3.28483e-20)
(0.262414 -0.135443 -5.90458e-20)
(0.307031 -0.128842 4.15213e-20)
(0.34925 -0.121638 2.46688e-19)
(0.389068 -0.11447 2.14767e-19)
(0.426581 -0.107617 1.35154e-19)
(0.461917 -0.101172 -5.0391e-20)
(0.495208 -0.0951444 2.80919e-20)
(0.52658 -0.0895157 -2.07316e-19)
(0.556151 -0.0842601 7.20505e-20)
(0.584032 -0.0793515 -5.72006e-20)
(0.610324 -0.0747658 -8.08819e-20)
(0.635131 -0.0704831 4.30822e-20)
(0.658565 -0.0664734 -3.67561e-19)
(0.680647 -0.0626934 1.32841e-19)
(0.124648 -0.160843 5.13271e-20)
(0.173126 -0.167882 -2.24454e-20)
(0.2213 -0.166823 -3.4106e-20)
(0.267836 -0.161173 -1.12476e-19)
(0.312141 -0.153342 -2.37652e-20)
(0.354031 -0.144789 -1.02599e-20)
(0.393527 -0.136274 -3.84771e-19)
(0.430735 -0.128129 -2.81027e-19)
(0.465787 -0.120465 1.64324e-19)
(0.498812 -0.113295 2.40061e-20)
(0.529938 -0.106595 6.17503e-20)
(0.55928 -0.100337 -5.91965e-20)
(0.586949 -0.0944903 3.02107e-19)
(0.613043 -0.0890258 5.91797e-20)
(0.637666 -0.0839205 8.81371e-20)
(0.66094 -0.0791379 2.06897e-19)
(0.682856 -0.0746301 -1.10587e-19)
(0.131177 -0.186145 6.652e-20)
(0.17986 -0.194339 5.966e-20)
(0.227922 -0.193155 -9.14672e-20)
(0.274174 -0.186649 1.57531e-19)
(0.318118 -0.17761 2.22922e-20)
(0.359626 -0.167727 -2.8586e-19)
(0.398747 -0.157881 1.79888e-19)
(0.435601 -0.14846 7.18167e-20)
(0.47032 -0.13959 -8.33499e-20)
(0.503037 -0.131289 2.24251e-20)
(0.533876 -0.12353 1.04081e-20)
(0.562952 -0.116281 -8.55315e-20)
(0.590374 -0.109505 2.17737e-19)
(0.616237 -0.10317 -7.64689e-20)
(0.640646 -0.0972505 5.53425e-20)
(0.663734 -0.0917018 1.17981e-19)
(0.685454 -0.0864736 -4.36679e-20)
(0.138622 -0.211095 -9.10177e-20)
(0.187545 -0.220456 -3.28022e-19)
(0.235484 -0.21917 2.20833e-19)
(0.281415 -0.211833 1.06133e-19)
(0.324949 -0.201611 1.81987e-19)
(0.366023 -0.190419 1.96116e-19)
(0.404719 -0.179262 1.24664e-19)
(0.441168 -0.16858 1.64324e-19)
(0.47551 -0.158521 -2.95713e-19)
(0.507876 -0.149103 3.28705e-20)
(0.538388 -0.140299 6.44851e-20)
(0.567161 -0.132069 3.32221e-19)
(0.5943 -0.124375 -1.80695e-19)
(0.619899 -0.117182 -4.5389e-20)
(0.644064 -0.110457 -1.04786e-19)
(0.66694 -0.10415 -6.83282e-20)
(0.688439 -0.0982095 1.77903e-19)
(0.146965 -0.235647 2.35153e-21)
(0.196163 -0.246187 -3.67404e-20)
(0.24397 -0.244826 1.43286e-19)
(0.289546 -0.236689 -3.09121e-19)
(0.332624 -0.22531 -1.75464e-20)
(0.373213 -0.212834 -2.75361e-19)
(0.411432 -0.200387 1.55915e-19)
(0.447429 -0.188465 -2.49983e-19)
(0.481348 -0.177233 2.40925e-19)
(0.51332 -0.166715 2.14099e-19)
(0.543467 -0.156879 -1.74917e-19)
(0.5719 -0.147683 -6.05481e-19)
(0.598723 -0.139084 3.23453e-19)
(0.624026 -0.131042 -2.60032e-19)
(0.647917 -0.123523 -5.68675e-20)
(0.670554 -0.116466 2.10635e-19)
(0.691806 -0.109823 -1.72441e-19)
(0.156186 -0.259758 -1.37807e-19)
(0.205696 -0.271492 1.73411e-19)
(0.253363 -0.270085 -3.30551e-19)
(0.29855 -0.261179 6.10443e-20)
(0.341127 -0.248675 -6.61696e-21)
(0.381182 -0.234942 3.78794e-19)
(0.418875 -0.221229 -2.35312e-19)
(0.454373 -0.208087 -4.99917e-20)
(0.487824 -0.195702 6.54489e-20)
(0.519361 -0.184101 -8.22054e-20)
(0.549103 -0.17325 3.18461e-19)
(0.57716 -0.163103 1.76084e-19)
(0.603633 -0.153613 -3.54224e-19)
(0.62861 -0.144736 1.91925e-19)
(0.652197 -0.136433 2.64061e-19)
(0.67457 -0.128637 -4.82535e-19)
(0.695549 -0.121301 1.61654e-21)
(0.166263 -0.283385 1.36208e-19)
(0.216123 -0.296327 1.8853e-19)
(0.263645 -0.294906 1.078e-19)
(0.308412 -0.285268 4.38743e-19)
(0.350444 -0.271671 -5.54881e-20)
(0.389915 -0.256711 1.78927e-19)
(0.427034 -0.241758 -6.24253e-19)
(0.461986 -0.22742 3.55906e-19)
(0.494927 -0.213904 -2.19072e-19)
(0.525988 -0.201239 6.41398e-20)
(0.555287 -0.189391 -3.45022e-19)
(0.582933 -0.17831 -2.74205e-20)
(0.609024 -0.167943 2.78312e-19)
(0.633643 -0.158245 4.66822e-20)
(0.656898 -0.149172 -1.34438e-20)
(0.678982 -0.140647 2.27499e-20)
(0.699664 -0.13263 -3.0844e-19)
(0.177171 -0.306486 -1.90296e-19)
(0.227421 -0.320652 1.5784e-20)
(0.274794 -0.319251 1.6997e-19)
(0.319113 -0.308919 -3.81908e-19)
(0.360557 -0.294266 4.03015e-20)
(0.399399 -0.278111 -4.48236e-19)
(0.435896 -0.261947 4.95367e-19)
(0.470257 -0.246439 -1.29785e-19)
(0.502644 -0.231814 -1.47059e-19)
(0.53319 -0.218107 4.16849e-21)
(0.56201 -0.205282 1.68971e-21)
(0.589211 -0.193284 2.60357e-19)
(0.614887 -0.182057 -3.79862e-20)
(0.639118 -0.171553 -3.30414e-19)
(0.662013 -0.161724 -4.09499e-19)
(0.683783 -0.152481 4.76748e-19)
(0.704143 -0.143795 3.00168e-19)
(0.188884 -0.32902 2.20876e-19)
(0.239565 -0.344428 -3.41119e-19)
(0.286788 -0.343083 -3.23369e-19)
(0.330631 -0.332098 1.29048e-19)
(0.371448 -0.316429 -5.39811e-19)
(0.409615 -0.299115 5.41323e-19)
(0.445446 -0.28177 -2.36063e-19)
(0.479172 -0.265119 -2.37933e-19)
(0.510964 -0.24941 2.10531e-20)
(0.540955 -0.234684 -7.15374e-22)
(0.56926 -0.220902 -2.98171e-20)
(0.595982 -0.208007 2.00792e-19)
(0.621213 -0.195938 -1.90557e-19)
(0.645027 -0.184645 9.81357e-20)
(0.667534 -0.174075 2.12722e-19)
(0.688966 -0.164127 -2.66737e-19)
(0.708982 -0.154784 -5.47209e-20)
(0.201374 -0.350946 -3.14811e-20)
(0.252528 -0.367614 2.41223e-19)
(0.299602 -0.366365 2.16297e-19)
(0.342946 -0.354772 -3.40357e-19)
(0.383097 -0.338129 1.82716e-19)
(0.420547 -0.319693 -1.40655e-19)
(0.455667 -0.301201 -9.93858e-21)
(0.488715 -0.283436 3.56815e-20)
(0.519872 -0.26667 -8.52002e-20)
(0.549272 -0.250949 1.68765e-19)
(0.577026 -0.236233 -9.16029e-20)
(0.603236 -0.222461 -2.72553e-19)
(0.627991 -0.20957 3.88219e-19)
(0.65136 -0.197504 2.40895e-19)
(0.673452 -0.186209 -3.0884e-19)
(0.694522 -0.17557 1.79001e-19)
(0.714172 -0.165584 2.61444e-19)
(0.266282 -0.390172 4.67282e-20)
(0.313211 -0.389061 1.72403e-19)
(0.356034 -0.376908 3.40354e-19)
(0.395485 -0.359336 2.56296e-19)
(0.432175 -0.339817 4.94404e-19)
(0.466541 -0.320213 -4.53817e-20)