/*--------------------------------*- C++ -*----------------------------------*\
  =========                 |
  \\      /  F ield         | OpenFOAM: The Open Source CFD Toolbox
   \\    /   O peration     | Website:  https://openfoam.org
    \\  /    A nd           | Version:  7
     \\/     M anipulation  |
\*---------------------------------------------------------------------------*/
FoamFile
{
    version     2.0;
    format      ascii;
    class       volVectorField;
    location    "45";
    object      U;
}
// * * * * * * * * * * * * * * * * * * * * * * * * * * * * * * * * * * * * * //

dimensions      [0 1 -1 0 0 0 0];

internalField   nonuniform List<vector> 
8500
(
(-0.00881971 0.00681363 6.75068e-20)
(-0.00871866 0.00649066 5.70868e-20)
(-0.0181365 0.0148893 -7.54097e-20)
(-0.00855731 0.00614158 3.63193e-19)
(-0.0170812 0.0138452 -2.15323e-19)
(-0.0170504 0.0187411 -1.60398e-21)
(-0.00832852 0.00576615 -1.89209e-19)
(-0.0157992 0.0127431 1.10104e-21)
(-0.0140948 0.0170757 1.55731e-19)
(-0.00802481 0.00536447 -6.71951e-20)
(-0.01427 0.0115861 3.92586e-20)
(-0.0106955 0.0153582 5.80517e-20)
(0.00256391 0.0172819 -1.69952e-19)
(-0.00763839 0.00493703 3.44651e-19)
(-0.0124725 0.0103781 -8.71513e-20)
(-0.0068206 0.0135981 -1.25304e-19)
(0.00913406 0.0151827 6.47822e-20)
(0.0354467 0.0159575 3.0388e-19)
(-0.0071612 0.00448476 -1.55002e-19)
(-0.0103855 0.00912418 2.31685e-20)
(-0.00243845 0.0118072 -1.75931e-19)
(0.0164433 0.0130957 -2.46798e-19)
(0.0462843 0.0138396 -1.05628e-19)
(0.0871025 0.0147872 -5.88144e-20)
(-0.006585 0.00400908 -1.52672e-19)
(-0.00798745 0.00783099 3.3608e-19)
(0.00248223 0.00999902 2.08716e-19)
(0.0245288 0.0110428 9.32509e-20)
(0.0581374 0.0118332 -3.37708e-20)
(0.103267 0.0131318 -2.20107e-19)
(0.159784 0.0155824 3.04199e-20)
(-0.00590141 0.00351193 2.72435e-20)
(-0.00525699 0.00650644 -5.00658e-20)
(0.00797176 0.00818913 3.71677e-20)
(0.0334252 0.00904836 -8.98688e-20)
(0.0710388 0.00997168 1.90218e-19)
(0.120697 0.011729 3.42908e-19)
(0.182147 0.0149587 1.06107e-19)
(0.254884 0.02018 6.65071e-20)
(-0.00510198 0.00299584 -9.25207e-20)
(-0.00217309 0.00516 -2.14782e-19)
(0.0140592 0.00639536 -1.63115e-19)
(0.0431644 0.00713907 5.06667e-20)
(0.0850162 0.00829049 -2.72733e-19)
(0.139404 0.0106217 -3.38121e-19)
(0.205931 0.0147573 -4.48233e-20)
(0.283881 0.0211836 -1.04401e-19)
(0.372063 0.0302086 -1.01073e-20)
(-0.0041783 0.00246392 -7.20027e-20)
(0.00128473 0.00380266 -5.64263e-20)
(0.0207718 0.00463768 2.50808e-19)
(0.0537745 0.00534422 -1.54971e-19)
(0.10009 0.00682757 3.98839e-19)
(0.159394 0.00985457 1.67411e-19)
(0.231112 0.0150259 -1.0976e-19)
(0.314281 0.0227812 -1.87281e-19)
(0.407384 0.0333527 -2.9725e-19)
(0.508238 0.0467202 3.14589e-19)
(-0.00312205 0.00191992 1.41792e-19)
(0.00513615 0.00244706 2.30254e-19)
(0.0281349 0.00293826 9.68497e-21)
(0.0652794 0.00369543 1.42232e-19)
(0.116276 0.00562287 -3.43436e-19)
(0.180658 0.00947331 8.30506e-20)
(0.257646 0.0158113 -5.44594e-20)
(0.345991 0.0250149 -1.08445e-20)
(0.443817 0.0372217 -1.02288e-19)
(0.548529 0.0522847 -2.23066e-19)
(0.656831 0.0697483 1.09552e-19)
(-0.00192506 0.0013682 -2.54603e-20)
(0.00939974 0.00110742 -3.49279e-19)
(0.0361709 0.0013214 -2.68453e-19)
(0.0776983 0.00222655 -1.71856e-20)
(0.133578 0.00471803 6.04931e-20)
(0.203177 0.00952404 -1.16616e-19)
(0.285476 0.0171592 -1.08494e-21)
(0.378903 0.0279225 3.81888e-20)
(0.48119 0.0418381 5.62993e-20)
(0.589318 0.0586137 3.18881e-19)
(0.699598 0.0776303 1.31654e-19)
(0.807934 0.0979826 8.01724e-20)
(0.910232 0.118576 -1.06324e-19)
(-0.000579468 0.000813805 4.5981e-20)
(0.0140928 -0.000200474 1.8576e-19)
(0.0448993 -0.000186531 1.15135e-19)
(0.0910447 0.000973425 -2.13072e-19)
(0.151995 0.00415602 4.54176e-20)
(0.226921 0.0100528 2.75365e-19)
(0.314528 0.0191129 1.50089e-19)
(0.412888 0.0315372 1.95355e-20)
(0.519315 0.0472167 1.8192e-19)
(0.630361 0.0656973 -3.6886e-19)
(0.741975 0.0861888 -1.03374e-19)
(0.849846 0.107633 -4.39298e-20)
(0.949878 0.128834 2.58804e-19)
(1.03869 0.148622 -1.70288e-19)
(0.000922242 0.0002624 -4.29021e-20)
(0.0192308 -0.00145924 -2.66158e-20)
(0.0543362 -0.00155727 -6.86759e-20)
(0.105326 -2.63778e-05 2.23016e-19)
(0.171514 0.00398068 1.5005e-19)
(0.251846 0.011105 -4.72045e-20)
(0.344714 0.0217125 -8.06191e-21)
(0.447803 0.0358862 1.85387e-19)
(0.55799 0.0533643 -2.81947e-19)
(0.671408 0.0735167 1.71157e-19)
(0.783688 0.0953787 1.74587e-19)
(0.890383 0.117751 4.65057e-20)
(0.987498 0.13936 -9.19748e-20)
(1.07198 0.159036 1.33145e-19)
(1.14204 0.175877 1.09078e-19)
(0.00258712 -0.000279689 -6.75996e-20)
(0.0248275 -0.00265004 2.9527e-20)
(0.0644935 -0.0027608 1.93665e-19)
(0.120544 -0.000733893 3.05757e-21)
(0.192115 0.00423619 -3.24438e-19)
(0.277895 0.0127245 -2.22625e-19)
(0.375931 0.0249945 -1.88915e-19)
(0.483489 0.0409907 -9.86429e-20)
(0.597003 0.0602798 3.74121e-19)
(0.712209 0.0820448 -1.66228e-20)
(0.824478 0.105149 5.00721e-20)
(0.929318 0.128268 8.13622e-20)
(1.02293 0.150081 -2.70358e-19)
(1.10267 0.16945 -2.14508e-19)
(1.1673 0.185578 5.71662e-20)
(1.21695 0.198057 -1.07733e-20)
(1.25291 0.206904 -2.20512e-19)
(0.00442163 -0.000805511 8.5628e-20)
(0.0308944 -0.00375261 1.09841e-19)
(0.0753788 -0.00376556 -2.01067e-19)
(0.136691 -0.00110914 -1.10473e-20)
(0.213766 0.0049665 3.8381e-19)
(0.305 0.014953 2.3823e-19)
(0.408061 0.0289909 -9.61082e-20)
(0.519777 0.046865 1.40889e-19)
(0.636138 0.0679537 -1.48655e-19)
(0.75252 0.0912468 -1.49971e-19)
(0.864105 0.115443 1.52421e-19)
(0.966452 0.139117 -3.05882e-19)
(1.05605 0.16093 3.78576e-20)
(1.13075 0.179811 1.44782e-19)
(1.18985 0.195088 -7.85666e-20)
(1.23405 0.206511 1.10954e-19)
(1.26505 0.214239 -1.3324e-19)
(1.28513 0.218593 2.16162e-20)
(0.00643157 -0.0013075 1.00999e-19)
(0.0374404 -0.00474545 -3.33628e-19)
(0.086995 -0.00453875 5.32173e-20)
(0.153755 -0.00111157 -5.57814e-20)
(0.236424 0.00621477 -1.34707e-19)
(0.333077 0.0178293 -1.08743e-19)
(0.440974 0.0337283 9.64334e-20)
(0.556487 0.0535161 -4.41947e-19)
(0.675176 0.076369 -1.03543e-19)
(0.792107 0.101082 6.54132e-20)
(0.902356 0.126202 -8.30568e-20)
(1.00163 0.150231 2.3743e-19)
(1.0868 0.171846 1.65399e-19)
(1.15623 0.190073 5.72005e-20)
(1.20983 0.204384 3.1198e-19)
(1.24876 0.214692 -3.0454e-19)
(1.27512 0.221295 1.85888e-19)
(1.2914 0.224632 2.57595e-19)
(1.30017 0.225671 -1.80691e-19)
(1.30348 0.223701 5.06624e-20)
(0.00862195 -0.00177753 8.31025e-21)
(0.0444717 -0.00560587 -3.46138e-21)
(0.0993397 -0.00504655 2.44579e-19)
(0.171713 -0.000700484 -3.55679e-20)
(0.260038 0.00802268 -1.46653e-20)
(0.362035 0.021389 2.58261e-19)
(0.474529 0.0392279 2.96274e-19)
(0.593431 0.0609443 7.96298e-20)
(0.7139 0.0855014 1.71962e-19)
(0.83075 0.111503 -1.13136e-19)
(0.939042 0.137366 -9.49066e-20)
(1.03472 0.161549 -1.53184e-21)
(1.11512 0.182777 -1.14597e-19)
(1.17918 0.200201 -4.26183e-21)
(1.22734 0.213453 -2.19795e-19)
(1.26127 0.222609 8.54125e-20)
(1.28334 0.228094 1.96785e-19)
(1.29619 0.230451 -9.79327e-20)
(1.30238 0.230647 1.11184e-19)
(1.30389 0.228107 1.95609e-19)
(0.0109969 -0.00220692 3.18805e-20)
(0.0519914 -0.00631025 -8.68221e-20)
(0.112405 -0.00525452 -5.07493e-21)
(0.190536 0.000164435 1.80617e-21)
(0.284546 0.0104299 -1.71843e-19)
(0.391768 0.0256632 -2.39155e-20)
(0.508575 0.0455047 -3.06221e-19)
(0.630422 0.0691422 3.17653e-19)
(0.7521 0.0953202 1.63224e-19)
(0.868247 0.122461 1.39748e-20)
(0.974005 0.148874 -1.54265e-21)
(1.06565 0.17301 -8.30188e-20)
(1.14103 0.193677 4.9115e-20)
(1.19967 0.210169 1.32166e-19)
(1.24256 0.22229 -2.27423e-19)
(1.27177 0.230274 1.71218e-19)
(1.28991 0.234662 -2.02888e-19)
(1.2997 0.236082 -8.87734e-21)
(1.30365 0.235489 2.41626e-22)
(1.30363 0.232422 8.70357e-20)
(0.0135594 -0.00258651 -6.92006e-20)
(0.0599995 -0.00683415 -7.95386e-20)
(0.126178 -0.00512788 1.12396e-19)
(0.210187 0.00152264 -5.01694e-20)
(0.309874 0.0134735 -1.58428e-20)
(0.422161 0.0306784 -1.52063e-19)
(0.542955 0.0525672 1.69584e-19)
(0.667267 0.078096 -3.02356e-19)
(0.789575 0.105789 2.83733e-20)
(0.90442 0.133902 4.61452e-20)
(1.00712 0.160669 -2.48941e-20)
(1.09436 0.184564 1.82415e-20)
(1.16455 0.204508 -2.04917e-19)
(1.21781 0.21996 -1.54426e-19)
(1.25563 0.230897 1.28888e-19)
(1.28043 0.237704 -4.08938e-20)
(1.29501 0.241026 -2.40364e-19)
(1.3021 0.241556 -4.40256e-20)
(1.30411 0.240227 -1.93121e-19)
(1.3028 0.236671 -2.35097e-19)
(0.0163116 -0.00290673 -1.65911e-20)
(0.0684923 -0.00715261 1.1674e-19)
(0.140638 -0.00463194 8.53712e-20)
(0.230619 0.0034122 2.47593e-19)
(0.335941 0.0171873 -9.17834e-21)
(0.453092 0.0364562 1.30356e-19)
(0.577507 0.0604178 -2.76732e-19)
(0.703781 0.0877853 9.64411e-20)
(0.826137 0.116867 -8.0838e-20)
(0.939111 0.145774 1.16766e-19)
(1.03828 0.172695 2.83874e-20)
(1.12083 0.196164 6.72228e-20)
(1.18575 0.215241 1.90605e-19)
(1.23372 0.229563 2.32593e-20)
(1.26672 0.239282 -1.15526e-19)
(1.28745 0.244921 1.88565e-19)
(1.29881 0.247213 6.48584e-20)
(1.30353 0.246901 -3.02076e-20)
(1.30388 0.244885 1.81342e-19)
(1.30148 0.240876 1.18055e-19)
(0.0192542 -0.00315762 5.45659e-20)
(0.0774626 -0.00724029 6.11591e-20)
(0.15576 -0.00373247 -1.50535e-19)
(0.251779 0.00586928 -3.39516e-20)
(0.362658 0.0216013 4.42286e-20)
(0.484431 0.0430125 -2.6032e-20)
(0.612066 0.0690521 1.57017e-19)
(0.739781 0.0981839 -4.99724e-20)
(0.861613 0.12851 -6.07444e-20)
(0.972186 0.158022 -2.06461e-19)
(1.06743 0.184899 -1.31392e-19)
(1.14506 0.207769 -1.19601e-19)
(1.20469 0.225853 -9.67275e-20)
(1.24754 0.238975 3.67272e-20)
(1.276 0.247455 -7.02429e-20)
(1.29298 0.251946 8.48794e-21)
(1.30147 0.253249 1.30027e-19)
(1.30412 0.252144 1.35321e-19)
(1.30306 0.249485 8.83477e-21)
(1.29975 0.245056 8.09305e-20)
(0.0223867 -0.003329 2.84765e-20)
(0.0868994 -0.0070718 1.05207e-19)
(0.171513 -0.00239609 8.26601e-20)
(0.273606 0.00892766 -1.36924e-19)
(0.389925 0.0267414 1.27021e-19)
(0.516041 0.0503575 -4.12387e-20)
(0.646469 0.0784597 -8.70481e-20)
(0.775093 0.10926 2.07996e-19)
(0.89585 0.140671 -5.23007e-20)
(1.00354 0.170594 -2.37942e-21)
(1.09452 0.197235 1.40481e-19)
(1.16709 0.219345 -1.26244e-19)
(1.22147 0.236328 5.41629e-20)
(1.25941 0.248196 -1.36329e-19)
(1.28362 0.255433 2.25871e-19)
(1.29719 0.258801 -1.68876e-19)
(1.30313 0.25916 -9.98423e-20)
(1.30398 0.257306 -1.09276e-21)
(1.30172 0.254046 -1.4077e-19)
(1.29766 0.249226 -1.98575e-21)
(0.0257072 -0.00341047 -1.27545e-19)
(0.0967875 -0.00662191 -4.60915e-20)
(0.187859 -0.000590722 -1.54827e-19)
(0.29603 0.0126183 -8.58145e-20)
(0.417637 0.032629 -4.35478e-20)
(0.547783 0.0584956 -2.12349e-20)
(0.680551 0.0886242 9.60797e-20)
(0.809555 0.120979 -5.23594e-20)
(0.928711 0.153302 -2.56973e-20)
(1.03308 0.18344 6.4006e-20)
(1.11953 0.209659 -8.67104e-20)
(1.18697 0.230865 1.09377e-19)
(1.23621 0.246654 1.04307e-19)
(1.26946 0.257232 2.32202e-20)
(1.28973 0.26323 -6.39915e-20)
(1.30022 0.265509 -1.45909e-20)
(1.30391 0.264968 -8.53136e-20)
(1.30321 0.262409 -3.54296e-20)
(1.29993 0.258584 5.79148e-20)
(1.29525 0.253395 -9.43154e-20)
(0.0292123 -0.00339156 4.2618e-20)
(0.107108 -0.00586588 -7.17671e-20)
(0.204755 0.00171406 1.21916e-19)
(0.318976 0.0169687 5.65632e-20)
(0.445685 0.0392804 -8.1827e-20)
(0.579515 0.0674254 1.00933e-19)
(0.714157 0.0995238 2.50611e-20)
(0.843016 0.133301 -4.48053e-20)
(0.960079 0.166354 1.21284e-19)
(1.06076 0.19651 3.56359e-20)
(1.14248 0.222133 6.77286e-20)
(1.20477 0.242305 -6.96261e-20)
(1.24901 0.256828 -4.60101e-20)
(1.27783 0.26609 9.53547e-20)
(1.29447 0.270866 -2.72797e-20)
(1.3022 0.272092 1.51878e-19)
(1.30391 0.270694 7.88775e-20)
(1.30188 0.26747 -1.23477e-20)
(1.29776 0.26311 4.12836e-20)
(1.29257 0.257573 1.53532e-19)
(0.0328973 -0.00326181 -2.10396e-20)
(0.117838 -0.00477971 1.18831e-20)
(0.222151 0.00454658 -1.12373e-19)
(0.342363 0.0220028 7.18258e-20)
(0.473952 0.0467067 6.67659e-20)
(0.611097 0.0771396 -9.548e-20)
(0.747134 0.111132 4.42686e-20)
(0.875339 0.146182 -8.60572e-20)
(0.989857 0.179777 -1.22184e-19)
(1.08653 0.209759 4.38972e-20)
(1.16338 0.234624 8.21658e-21)
(1.22056 0.253649 6.71136e-20)
(1.25998 0.266845 4.43792e-20)
(1.28465 0.274783 -3.0387e-20)
(1.29798 0.278357 -6.19668e-21)
(1.30324 0.278569 -2.31865e-20)
(1.30323 0.276355 -1.1744e-19)
(1.30007 0.272501 1.01325e-20)
(1.29524 0.267634 -7.39897e-20)
(1.28962 0.261765 4.62993e-22)
(0.0367559 -0.00301091 -2.4028e-20)
(0.128952 -0.00334045 -3.06252e-20)
(0.239993 0.00793271 1.19051e-19)
(0.366103 0.0277404 -1.45449e-20)
(0.50232 0.0549139 3.92196e-22)
(0.642387 0.0876252 -6.5543e-20)
(0.77934 0.123416 -1.15159e-20)
(0.906403 0.15958 4.61237e-20)
(1.01797 0.193525 1.58088e-19)
(1.11038 0.223146 -5.061e-20)
(1.18227 0.247102 8.43782e-21)
(1.23443 0.264882 2.68161e-20)
(1.26926 0.276709 -5.22892e-20)
(1.29006 0.283321 -3.31241e-20)
(1.30037 0.28572 9.1684e-21)
(1.30344 0.284957 3.00801e-20)
(1.30193 0.281968 7.46506e-20)
(1.29782 0.277515 -1.8738e-21)
(1.2924 0.272162 2.67033e-20)
(1.28644 0.265974 1.74561e-20)
(0.0407801 -0.00262879 4.19312e-20)
(0.140417 -0.00152645 8.60752e-20)
(0.258221 0.0118955 5.95364e-20)
(0.390106 0.0341969 -3.24661e-20)
(0.530669 0.0639024 1.20424e-19)
(0.673248 0.098864 7.12091e-20)
(0.810639 0.136341 -1.0702e-19)
(0.936101 0.173449 -3.73754e-20)
(1.04435 0.207549 5.80423e-22)
(1.13229 0.236632 -3.10155e-20)
(1.1992 0.259543 -8.81886e-20)
(1.24647 0.275996 1.47507e-20)
(1.27694 0.286422 1.60477e-22)
(1.29417 0.291715 -8.87926e-20)
(1.30176 0.292971 4.00742e-20)
(1.3029 0.291272 -2.1292e-20)
(1.3001 0.287544 -9.10897e-20)
(1.29518 0.282518 4.32886e-20)
(1.28927 0.276699 -8.84075e-20)
(1.28303 0.2702 -5.15475e-20)
(0.0449605 -0.00210574 -1.46476e-20)
(0.152201 0.000682296 -3.68073e-20)
(0.276772 0.0164548 -6.17928e-20)
(0.414275 0.0413832 -2.9755e-21)
(0.558879 0.0736671 -5.27416e-21)
(0.703548 0.110833 -6.78234e-20)
(0.84091 0.149869 1.52356e-20)
(0.964341 0.187741 1.44223e-20)
(1.06897 0.221805 -3.02538e-20)
(1.15229 0.250181 2.43429e-21)
(1.21424 0.271925 4.67045e-20)
(1.25679 0.286983 -6.03386e-21)
(1.28315 0.295989 3.43803e-20)
(1.2971 0.29998 1.52509e-20)
(1.30224 0.300125 -8.16888e-20)
(1.30168 0.297526 6.43655e-21)
(1.29778 0.293092 4.8448e-20)
(1.29218 0.287518 -1.11071e-20)
(1.28588 0.281246 2.65396e-21)
(1.27941 0.274444 -6.89894e-21)
(0.0492864 -0.00143254 -1.35578e-20)
(0.164265 0.00330393 -1.32755e-20)
(0.295578 0.0216271 -2.35437e-20)
(0.438514 0.0493052 -1.55014e-20)
(0.586828 0.0841978 -4.02594e-20)
(0.73316 0.123503 4.70592e-20)
(0.870041 0.163958 9.3219e-20)
(0.991048 0.202409 3.24278e-20)
(1.09179 0.23625 1.6475e-20)
(1.1704 0.263762 -3.93894e-20)
(1.22746 0.28423 -4.21081e-22)
(1.26547 0.297839 2.49416e-20)
(1.28799 0.305416 -3.16495e-20)
(1.29893 0.308124 1.15396e-20)
(1.30189 0.307194 3.91146e-20)
(1.29985 0.303732 -1.30778e-20)
(1.29501 0.29862 -2.28301e-20)
(1.28885 0.292517 -2.05527e-20)
(1.28223 0.285805 7.0193e-20)
(1.27558 0.278703 2.35871e-20)
(0.0537454 -0.000600552 -2.44945e-20)
(0.176569 0.00635447 2.95838e-20)
(0.314567 0.0274251 -6.82659e-21)
(0.462723 0.0579641 2.11352e-20)
(0.6144 0.0954788 -1.89452e-20)
(0.761965 0.136843 -1.16083e-20)
(0.897931 0.178564 -4.55646e-20)
(1.01616 0.217408 5.3508e-21)
(1.1128 0.250843 1.27424e-20)
(1.18665 0.277345 2.83217e-20)
(1.23893 0.296444 -1.101e-20)
(1.27262 0.308563 -8.57132e-21)
(1.29157 0.314709 7.63764e-21)
(1.29977 0.316159 -1.31868e-20)
(1.3008 0.314188 2.96385e-20)
(1.29747 0.309895 1.92897e-20)
(1.29184 0.304133 -3.11661e-21)
(1.28522 0.297516 -2.01193e-21)
(1.27834 0.290373 -1.9016e-20)
(1.27155 0.282974 -2.26104e-20)
(0.0583237 0.000398131 5.3002e-21)
(0.189069 0.00984756 -9.29161e-21)
(0.333665 0.0338575 6.31619e-21)
(0.486802 0.067356 -8.71811e-21)
(0.641478 0.10749 -3.35154e-20)
(0.789851 0.150816 1.55214e-20)
(0.924493 0.193641 7.44798e-21)
(1.03963 0.23269 -3.56703e-20)
(1.13201 0.265546 -2.23266e-20)
(1.2011 0.290904 -2.10596e-21)
(1.24873 0.308554 -3.04077e-20)
(1.27832 0.319151 3.09989e-20)
(1.29397 0.323875 -1.31023e-22)
(1.2997 0.324094 -4.00642e-21)
(1.29901 0.321115 -7.60921e-21)
(1.29458 0.316023 3.57071e-21)
(1.28829 0.309633 2.57418e-21)
(1.28129 0.302515 -8.28548e-22)
(1.27422 0.294947 -6.70942e-21)
(1.26731 0.287252 7.79537e-21)
(0.0630063 0.00157061 1.79238e-21)
(0.201718 0.0137943 6.15231e-21)
(0.352796 0.0409292 3.42769e-21)
(0.51065 0.077472 -1.60026e-21)
(0.667952 0.120205 2.21875e-20)
(0.816714 0.165383 -4.9546e-21)
(0.94965 0.209143 7.82609e-21)
(1.06143 0.24821 1.73008e-20)
(1.14942 0.28032 -3.09378e-21)
(1.21379 0.304415 7.88928e-22)
(1.25694 0.320549 8.39396e-21)
(1.28267 0.329605 -4.3825e-21)
(1.29527 0.332918 5.56175e-21)
(1.29879 0.331936 1.02926e-21)
(1.2966 0.327983 -1.00522e-20)
(1.29123 0.322119 5.31454e-22)
(1.28438 0.31512 1.22857e-20)
(1.27709 0.307512 -2.39751e-21)
(1.26986 0.299524 3.54185e-21)
(1.26288 0.291532 -3.79011e-21)
(0.0677773 0.00292308 7.51009e-22)
(0.214469 0.018203 9.15354e-21)
(0.371883 0.0486406 4.91503e-21)
(0.534168 0.0882985 -1.02864e-21)
(0.693716 0.133594 2.06766e-20)
(0.84246 0.180502 -5.87605e-21)
(0.97334 0.225022 1.08604e-20)
(1.08153 0.263924 1.4498e-20)
(1.16506 0.295133 -2.98335e-21)
(1.22478 0.317856 6.62784e-22)
(1.26363 0.332419 9.47241e-21)
(1.28575 0.339923 -3.80744e-21)
(1.29557 0.341842 3.53385e-21)
(1.29711 0.339691 -8.4267e-22)
(1.29361 0.334794 -7.98321e-21)
(1.28743 0.328184 -2.22251e-22)
(1.28014 0.320593 1.1891e-20)
(1.27261 0.312502 -2.20029e-21)
(1.26528 0.304098 4.01551e-21)
(1.25824 0.295808 -4.02317e-21)
(0.0726193 0.00446075 6.48634e-21)
(0.227272 0.0230791 -1.17962e-20)
(0.390846 0.0569881 6.03674e-21)
(0.557259 0.0998169 -4.85133e-21)
(0.718669 0.147625 -3.28481e-20)
(0.867006 0.196126 1.32906e-20)
(0.995511 0.241229 6.1457e-21)
(1.09992 0.279788 -4.10406e-20)
(1.17896 0.309951 -1.70366e-20)
(1.23413 0.331208 -2.32649e-23)
(1.26888 0.344156 -2.55795e-20)
(1.28765 0.350104 2.08344e-20)
(1.29494 0.350652 -4.50175e-21)
(1.29471 0.347361 2.83808e-21)
(1.29007 0.341551 -1.02989e-20)
(1.28323 0.334218 7.64785e-21)
(1.27557 0.326049 4.48936e-21)
(1.26787 0.31748 -8.83065e-22)
(1.26048 0.308663 -8.35056e-21)
(1.2534 0.300073 7.17514e-21)
(0.0775137 0.00618771 -1.41056e-20)
(0.240074 0.0284251 -6.39866e-21)
(0.409608 0.0659635 -9.20835e-21)
(0.579829 0.112004 3.19552e-20)
(0.742717 0.162258 4.96612e-23)
(0.890274 0.21221 -1.68704e-20)
(1.01612 0.257717 -6.80714e-20)
(1.1166 0.29576 6.64564e-21)
(1.19115 0.324743 7.68264e-21)
(1.24191 0.344451 3.31182e-20)
(1.27277 0.355752 4.91186e-21)
(1.28843 0.360148 -2.65408e-20)
(1.29342 0.359349 2.43515e-20)
(1.29164 0.35495 -9.58909e-21)
(1.28603 0.348254 3.44286e-20)
(1.27863 0.340217 -3.30962e-21)
(1.27069 0.331482 1.5294e-21)
(1.26288 0.322441 1.33162e-21)
(1.25545 0.313212 -2.10792e-20)
(1.24836 0.304318 -1.17756e-20)
(0.0824416 0.00810689 -5.42829e-21)
(0.252823 0.0342402 -3.08287e-20)
(0.42809 0.0755544 2.42412e-20)
(0.601786 0.124832 -3.08677e-20)
(0.765773 0.177452 -5.54934e-20)
(0.912201 0.228703 4.7932e-20)
(1.03514 0.274435 7.83384e-20)
(1.13158 0.3118 2.78083e-20)
(1.20168 0.339479 1.91017e-20)
(1.24817 0.357569 -5.31242e-20)
(1.27537 0.367199 4.00465e-20)
(1.28816 0.370053 4.36252e-21)
(1.29109 0.367933 -4.73981e-20)
(1.28795 0.362456 1.83068e-20)
(1.28151 0.354901 6.07462e-20)
(1.27366 0.346179 -4.02185e-20)
(1.26551 0.336887 -1.06696e-20)
(1.25763 0.327377 -9.61769e-21)
(1.2502 0.317737 4.26443e-20)
(1.24312 0.308537 2.26228e-20)
(0.087383 0.01022 3.68989e-20)
(0.265466 0.0405207 -6.3119e-20)
(0.446215 0.0857444 -9.14575e-20)
(0.623043 0.13827 4.08268e-21)
(0.787757 0.193163 -1.66705e-20)
(0.93273 0.245557 -6.60179e-20)
(1.05254 0.291337 -1.08092e-20)
(1.14487 0.327867 3.33319e-20)
(1.21058 0.354133 -5.23019e-20)
(1.25298 0.370545 4.21797e-20)
(1.27675 0.37849 4.73178e-20)
(1.28691 0.379816 -2.92523e-20)
(1.288 0.376404 1.1908e-20)
(1.28367 0.369879 5.57384e-20)
(1.27654 0.361488 -7.22347e-20)
(1.26833 0.352096 1.15145e-20)
(1.26004 0.342257 2.96277e-20)
(1.25212 0.332279 -8.5236e-21)
(1.24472 0.32223 -9.56837e-21)
(1.23767 0.312721 -1.70553e-21)
(0.0923176 0.0125275 5.49231e-20)
(0.277949 0.0472593 1.01448e-19)
(0.463909 0.0965127 5.3532e-20)
(0.643518 0.152281 -6.38716e-20)
(0.808596 0.209344 1.65916e-19)
(0.951813 0.262718 2.55605e-20)
(1.06831 0.308374 -6.90671e-20)
(1.1565 0.343923 -4.91444e-20)
(1.21791 0.368677 -3.82359e-20)
(1.2564 0.383364 1.30966e-20)
(1.27697 0.389615 -4.17529e-20)
(1.28473 0.389433 8.95695e-22)
(1.28419 0.384759 -2.62454e-20)
(1.27884 0.377214 -3.47349e-20)
(1.27114 0.36801 -5.59778e-21)
(1.26266 0.357962 -2.92375e-21)
(1.25427 0.347582 -5.49125e-20)
(1.24636 0.337139 3.80697e-20)
(1.23902 0.326681 -5.37636e-20)
(1.23202 0.316861 -2.79924e-20)
(0.0972247 0.0150284 -6.67783e-20)
(0.290221 0.054446 -2.73541e-20)
(0.481097 0.107835 1.21511e-19)
(0.663133 0.166827 3.05351e-20)
(0.828227 0.225946 -1.04525e-19)
(0.969413 0.280135 -5.98873e-20)
(1.08245 0.325499 -1.94203e-20)
(1.16648 0.35993 1.26421e-19)
(1.22372 0.383085 8.85815e-20)
(1.25849 0.396008 -2.91379e-20)
(1.27609 0.400568 -1.60945e-20)
(1.28169 0.3989 4.12679e-20)
(1.2797 0.392993 -4.14848e-20)
(1.27348 0.384457 1.89451e-20)
(1.26532 0.37446 6.96872e-21)
(1.25664 0.363769 -9.28847e-21)
(1.24822 0.352854 6.46623e-20)
(1.24035 0.341946 -2.52829e-20)
(1.23309 0.331081 4.65832e-20)
(1.22616 0.320947 -1.28529e-20)
(0.102083 0.0177207 -3.7806e-20)
(0.302227 0.0620673 -6.9257e-20)
(0.497711 0.119682 -1.09217e-19)
(0.681817 0.181864 6.60405e-20)
(0.846591 0.242916 3.64346e-20)
(0.985499 0.297755 -5.05663e-20)
(1.09497 0.342665 8.35414e-20)
(1.17486 0.375852 -1.26652e-19)
(1.22805 0.397332 -1.31427e-19)
(1.25932 0.408464 7.78096e-20)
(1.27417 0.411338 2.78749e-20)
(1.27782 0.40821 -3.01288e-20)
(1.27457 0.401101 4.55435e-20)
(1.26762 0.3916 3.332e-20)
(1.25909 0.380829 -2.24299e-20)
(1.25029 0.369507 -6.66755e-21)
(1.24188 0.358062 -4.78676e-20)
(1.23409 0.346692 7.72832e-21)
(1.22694 0.335419 -3.28711e-20)
(1.22009 0.324972 -3.52721e-21)
(0.106873 0.0206008 3.13762e-20)
(0.313919 0.070107 -5.46068e-20)
(0.513683 0.132023 9.92883e-20)
(0.699504 0.197347 1.67237e-19)
(0.863639 0.260201 -2.38737e-19)
(1.00005 0.315525 2.08389e-19)
(1.10586 0.359825 5.47244e-20)
(1.18167 0.391654 -7.86168e-20)
(1.23096 0.411395 9.10128e-20)
(1.25893 0.420716 5.1485e-20)
(1.27126 0.421917 6.12631e-20)
(1.27317 0.417356 -1.03619e-19)
(1.26883 0.409076 -1.90969e-20)
(1.26127 0.398636 4.669e-20)
(1.25248 0.387109 1.73497e-20)
(1.24362 0.375165 7.00436e-20)
(1.23525 0.363195 8.08129e-20)
(1.22758 0.351364 -1.88887e-20)
(1.22057 0.339686 2.81119e-20)
(1.21382 0.328924 2.57919e-20)
(0.111572 0.023664 -9.34978e-21)
(0.325244 0.0785456 -1.27258e-19)
(0.528951 0.144822 -1.73733e-19)
(0.716133 0.213229 -2.25445e-19)
(0.879329 0.277747 -2.14521e-20)
(1.01305 0.333392 8.14973e-20)
(1.11514 0.376936 -1.53058e-20)
(1.18694 0.407301 2.68665e-20)
(1.2325 0.425249 -4.03376e-20)
(1.25738 0.432748 6.42554e-20)
(1.26742 0.432293 -9.52965e-20)
(1.26778 0.42633 1.18173e-19)
(1.2625 0.416909 6.44737e-20)
(1.25447 0.405555 2.58787e-20)
(1.24549 0.393289 -3.83941e-20)
(1.23662 0.380733 -3.98673e-20)
(1.22835 0.368243 -3.26324e-20)
(1.22082 0.355953 2.23605e-21)
(1.21396 0.34387 3.04876e-20)
(1.20735 0.332794 -2.99937e-20)
(0.11616 0.026904 -1.61693e-20)
(0.336157 0.0873612 9.91057e-20)
(0.543455 0.15804 1.2442e-19)
(0.731652 0.229457 -1.94128e-20)
(0.893628 0.295499 5.69619e-20)
(1.0245 0.351304 1.484e-20)
(1.12284 0.393951 -8.20348e-20)
(1.19071 0.42276 6.3593e-20)
(1.23271 0.43887 5.80291e-20)
(1.25473 0.444545 -9.66654e-20)
(1.26269 0.442456 1.4987e-19)
(1.26168 0.435121 -1.17657e-19)
(1.25563 0.424591 6.46991e-20)
(1.24721 0.412347 -8.77874e-20)
(1.23813 0.399357 1.19752e-19)
(1.2293 0.386198 -6.79037e-20)
(1.22116 0.373193 -1.69227e-20)
(1.21381 0.360445 -1.99945e-20)
(1.20714 0.34796 -3.58156e-20)
(1.20067 0.336574 2.04436e-21)
(0.120617 0.0303135 1.16993e-19)
(0.346611 0.0965288 1.23937e-19)
(0.55714 0.171638 -1.78299e-19)
(0.746012 0.245981 -1.07869e-19)
(0.906507 0.313399 1.58913e-19)
(1.03438 0.369206 -6.28981e-20)
(1.12898 0.410828 9.00763e-20)
(1.19303 0.437997 3.79808e-20)
(1.23166 0.452236 -8.53767e-20)
(1.25103 0.45609 -2.02936e-19)
(1.2571 0.452392 -3.6071e-20)
(1.25491 0.44372 -6.91792e-20)
(1.24821 0.43211 -9.81008e-20)
(1.23953 0.418999 7.65549e-21)
(1.2304 0.405301 -1.15932e-20)
(1.22167 0.391548 -6.11688e-21)
(1.2137 0.378033 5.22479e-20)
(1.20655 0.364829 3.15161e-20)
(1.20009 0.351944 6.3014e-21)
(1.19379 0.340254 1.14495e-20)
(0.124924 0.033884 -2.81806e-20)
(0.356564 0.106021 2.19577e-19)
(0.569958 0.18557 8.49731e-20)
(0.759172 0.262745 1.72508e-19)
(0.917946 0.331391 5.58976e-20)
(1.04272 0.387048 2.16142e-20)
(1.13358 0.427523 -1.29954e-19)
(1.19394 0.452982 -4.05521e-20)
(1.22939 0.465325 2.09723e-20)
(1.24632 0.467368 1.49653e-19)
(1.25071 0.46209 -4.77255e-20)
(1.24751 0.452114 5.72894e-20)
(1.24029 0.439456 1.07911e-19)
(1.23142 0.4255 2.31892e-20)
(1.22232 0.411109 -1.99765e-20)
(1.21373 0.396771 2.20541e-20)
(1.20596 0.38275 3.29892e-20)
(1.19904 0.369091 8.6305e-21)
(1.19282 0.355807 2.33624e-20)
(1.18671 0.343826 7.4159e-21)
(0.12906 0.0376057 -7.35254e-20)
(0.365973 0.115809 -1.12706e-19)
(0.581862 0.199792 7.15294e-20)
(0.771097 0.279694 2.39255e-20)
(0.927931 0.349419 4.64333e-20)
(1.04951 0.404778 -1.90003e-19)
(1.13668 0.443995 6.73979e-20)
(1.19349 0.467681 -1.4109e-19)
(1.22595 0.478112 -7.52754e-20)
(1.24064 0.47836 8.39371e-20)
(1.24355 0.471535 -9.54988e-21)
(1.23949 0.460291 4.44252e-21)
(1.23187 0.446613 -1.28737e-19)
(1.22291 0.431836 -4.72958e-20)
(1.21389 0.416766 3.05685e-20)
(1.20548 0.401852 -5.13389e-20)
(1.19794 0.38733 -2.42094e-20)
(1.19128 0.373218 -2.31235e-20)
(1.18532 0.359535 -2.3474e-20)
(1.1794 0.347279 -2.12673e-20)
(0.133009 0.0414676 4.28287e-20)
(0.374802 0.12586 -5.33302e-20)
(0.592811 0.214256 -2.88259e-19)
(0.78176 0.296771 1.55247e-19)
(0.936454 0.367424 -1.90566e-19)
(1.05477 0.422344 -2.61755e-20)
(1.13831 0.460203 -2.51849e-19)
(1.19172 0.482064 2.59929e-19)
(1.22139 0.490576 1.43446e-19)
(1.23405 0.489051 -9.62081e-21)
(1.23565 0.480713 4.50208e-20)
(1.23088 0.468236 -5.39597e-20)
(1.22297 0.45357 -3.39176e-21)
(1.21399 0.437992 2.36406e-20)
(1.20511 0.422258 -2.04424e-20)
(1.19693 0.406778 2.8267e-20)
(1.18965 0.391763 -2.75386e-20)
(1.18327 0.377203 -2.0615e-20)
(1.17758 0.363129 1.03811e-20)
(1.1718 0.350572 5.59142e-21)
(0.136753 0.0454578 9.74859e-20)
(0.383016 0.136142 9.70803e-20)
(0.602771 0.228911 7.50328e-20)
(0.791136 0.31392 -2.18511e-21)
(0.943513 0.385351 -4.85621e-20)
(1.05853 0.439697 3.27849e-19)
(1.13851 0.476106 1.83441e-19)
(1.18867 0.496102 1.18958e-19)
(1.21575 0.502694 1.61933e-19)
(1.22657 0.499422 1.70392e-20)
(1.22705 0.489609 -1.21244e-19)
(1.2217 0.475936 -9.24977e-21)
(1.21362 0.460312 -2.04639e-20)
(1.20469 0.443955 -6.14332e-20)
(1.196 0.427572 -1.7405e-20)
(1.18807 0.411535 -2.49578e-20)
(1.18109 0.396034 6.09087e-20)
(1.17502 0.38104 1.31643e-21)
(1.16961 0.366619 8.91222e-22)
(1.16405 0.353666 -4.10915e-21)
(0.140276 0.0495635 -3.24478e-20)
(0.390583 0.146618 -5.64211e-20)
(0.611711 0.243709 -1.23927e-19)
(0.799209 0.331083 -2.11925e-20)
(0.949113 0.403142 -1.99747e-19)
(1.0608 0.456788 -1.42016e-19)
(1.13731 0.491665 4.61581e-20)
(1.1844 0.509764 -3.21304e-19)
(1.20908 0.514444 -1.67659e-19)
(1.21826 0.509455 3.8519e-20)
(1.21778 0.498207 -1.44622e-20)
(1.21199 0.483375 9.9707e-20)
(1.20381 0.466822 1.20527e-19)
(1.19501 0.44971 2.75962e-20)
(1.18656 0.432692 6.04193e-20)
(1.17893 0.41611 -2.27813e-20)
(1.17226 0.40013 1.4288e-20)
(1.16653 0.384709 4.65614e-21)
(1.16145 0.369943 -5.03303e-21)
(1.1562 0.356663 1.94961e-20)
(0.143562 0.0537709 4.82075e-20)
(0.397475 0.157253 -5.46454e-21)
(0.619605 0.258596 -1.90026e-19)
(0.805968 0.348201 -8.15424e-22)
(0.953261 0.420742 4.49825e-19)
(1.06162 0.473569 8.78619e-20)
(1.13476 0.506843 6.47432e-20)
(1.17894 0.523021 1.83053e-19)
(1.20142 0.525802 -1.42954e-19)
(1.20915 0.519133 -1.44375e-19)
(1.20786 0.50649 2.66962e-21)
(1.20175 0.490538 -8.10707e-20)
(1.19358 0.473087 -4.12165e-20)
(1.18497 0.45524 9.43835e-20)
(1.1768 0.437604 -2.28402e-20)
(1.16949 0.420487 6.96237e-21)
(1.16317 0.404035 -1.27018e-20)
(1.15781 0.388195 3.09323e-21)
(1.15307 0.373087 -6.68172e-21)
(1.14815 0.359498 -3.63184e-20)
(0.146599 0.0580653 -2.34528e-19)
(0.403667 0.168007 1.46919e-19)
(0.626432 0.27352 3.25425e-19)
(0.811407 0.365218 1.00337e-19)
(0.955972 0.438096 -5.26249e-19)
(1.06101 0.489993 -2.13584e-19)
(1.13091 0.521602 -1.61299e-19)
(1.17235 0.535845 -5.65298e-20)
(1.19281 0.536748 1.811e-19)
(1.19927 0.528436 2.10857e-20)
(1.19733 0.514441 -2.76013e-20)
(1.19102 0.497407 6.08641e-20)
(1.18293 0.479089 6.71286e-21)
(1.17456 0.460531 -1.05166e-19)
(1.16672 0.442292 1.82082e-20)
(1.15977 0.424653 1.60858e-20)
(1.15383 0.40774 -3.31754e-21)
(1.14885 0.391488 -4.64984e-21)
(1.14448 0.376044 3.23882e-20)
(1.1399 0.362157 2.5959e-20)
(0.149372 0.0624316 -1.55125e-20)
(0.409138 0.178843 7.36646e-20)
(0.632178 0.288429 3.54555e-20)
(0.815527 0.382075 1.0588e-19)
(0.957264 0.455151 2.92662e-19)
(1.05902 0.506013 -1.84615e-19)
(1.12578 0.535906 -7.6556e-21)
(1.16466 0.548207 1.65866e-19)
(1.18331 0.547259 -1.88037e-19)
(1.18866 0.537346 5.83327e-20)
(1.18621 0.522044 1.33704e-19)
(1.1798 0.503968 2.83903e-20)
(1.17188 0.484813 -4.2036e-20)
(1.16381 0.465565 6.26711e-20)
(1.15633 0.446741 -4.8942e-20)
(1.14977 0.428592 -8.79284e-21)
(1.14423 0.411228 -1.7491e-21)
(1.13966 0.394573 -2.74485e-20)
(1.1357 0.378803 -2.85263e-20)
(1.13147 0.364628 -4.50179e-20)
(0.151871 0.0668537 3.03174e-20)
(0.41387 0.18972 1.16233e-19)
(0.636831 0.303269 1.14578e-19)
(0.818332 0.398716 -7.42611e-20)
(0.95716 0.471853 5.59162e-21)
(1.05567 0.521587 1.71167e-19)
(1.11944 0.549719 2.90662e-19)
(1.15593 0.560081 -3.15104e-20)
(1.17294 0.557313 2.68827e-20)
(1.17736 0.545844 -6.63744e-20)
(1.17452 0.529282 -1.29527e-19)
(1.16812 0.510202 1.88831e-20)
(1.16043 0.490242 5.28865e-20)
(1.15273 0.470329 -9.68408e-21)
(1.14565 0.450937 9.35203e-21)
(1.1395 0.432291 -3.39929e-21)
(1.13438 0.414486 5.03757e-21)
(1.13025 0.39744 1.78197e-21)
(1.12671 0.381353 9.77521e-21)
(1.12286 0.366903 5.97608e-20)
(0.154087 0.0713153 -1.0262e-19)