/*--------------------------------*- C++ -*----------------------------------*\
  =========                 |
  \\      /  F ield         | OpenFOAM: The Open Source CFD Toolbox
   \\    /   O peration     | Website:  https://openfoam.org
    \\  /    A nd           | Version:  7
     \\/     M anipulation  |
\*---------------------------------------------------------------------------*/
FoamFile
{
    version     2.0;
    format      ascii;
    class       surfaceScalarField;
    location    "10";
    object      phi;
}
// * * * * * * * * * * * * * * * * * * * * * * * * * * * * * * * * * * * * * //

dimensions      [0 3 -1 0 0 0 0];

internalField   nonuniform List<scalar> 
16708
(
-1.29426e-06
1.29494e-06
-6.80111e-10
-4.82571e-06
3.53332e-06
-1.87053e-09
-1.03939e-05
5.57119e-06
-2.95923e-09
-1.7824e-05
7.43397e-06
-3.93937e-09
-2.69641e-05
9.14492e-06
-4.80218e-09
-3.76855e-05
1.07269e-05
-5.54627e-09
-4.98821e-05
1.22028e-05
-6.17778e-09
-6.34716e-05
1.35962e-05
-6.70745e-09
-7.8397e-05
1.49325e-05
-7.15008e-09
-9.46286e-05
1.62391e-05
-7.5215e-09
-0.000112167
1.75462e-05
-7.83652e-09
-0.000131045
1.88866e-05
-8.1081e-09
-0.000151334
2.02965e-05
-8.34505e-09
-0.00017314
2.18154e-05
-8.5525e-09
-0.000196617
2.34858e-05
-8.73124e-09
-0.000221962
2.53532e-05
-8.87692e-09
-0.000249419
2.74658e-05
-8.98206e-09
-0.000279282
2.98728e-05
-9.03588e-09
-0.000311888
3.2615e-05
-9.0249e-09
3.57653e-05
-8.93175e-09
-0.000347645
-1.28545e-06
2.58039e-06
-4.79431e-06
7.04219e-06
-1.03282e-05
1.11051e-05
-1.77134e-05
1.48192e-05
-2.6799e-05
1.82304e-05
-3.74561e-05
2.1384e-05
-4.95783e-05
2.4325e-05
-6.30824e-05
2.71003e-05
-7.79099e-05
2.976e-05
-9.40292e-05
3.23585e-05
-0.000111438
3.49554e-05
-0.000130168
3.76162e-05
-0.000150284
4.04125e-05
-0.000171891
4.34227e-05
-0.000195137
4.67314e-05
-0.000220213
5.0429e-05
-0.000247358
5.46114e-05
-0.000276862
5.93766e-05
-0.000309052
6.48052e-05
7.10407e-05
-0.000344328
-1.26797e-06
3.84836e-06
-4.73204e-06
1.05063e-05
-1.01978e-05
1.65708e-05
-1.74941e-05
2.21155e-05
-2.64712e-05
2.72076e-05
-3.70006e-05
3.19135e-05
-4.8975e-05
3.62994e-05
-6.23093e-05
4.04346e-05
-7.69422e-05
4.43928e-05
-9.28383e-05
4.82546e-05
-0.000109991
5.2108e-05
-0.000128425
5.60499e-05
-0.000148198
6.01863e-05
-0.000169409
6.46334e-05
-0.000192195
6.9517e-05
-0.000216737
7.49714e-05
-0.000243265
8.11389e-05
-0.000272053
8.81653e-05
-0.000303418
9.61701e-05
0.000105362
-0.00033774
-1.24215e-06
5.09051e-06
-4.63994e-06
1.3904e-05
-1.00048e-05
2.19356e-05
-1.71693e-05
2.928e-05
-2.59856e-05
3.60239e-05
-3.63256e-05
4.22534e-05
-4.80806e-05
4.80545e-05
-6.11628e-05
5.35168e-05
-7.55068e-05
5.87368e-05
-9.10715e-05
6.38194e-05
-0.000107843
6.88796e-05
-0.000125837
7.40441e-05
-0.000145103
7.9452e-05
-0.000165725
8.52556e-05
-0.000187828
9.162e-05
-0.000211579
9.87223e-05
-0.00023719
0.00010675
-0.000264919
0.000115894
-0.000295062
0.000126313
0.000138273
-0.000327972
-1.20843e-06
6.29894e-06
-4.51954e-06
1.72151e-05
-9.75224e-06
2.71683e-05
-1.6744e-05
3.62718e-05
-2.53495e-05
4.46294e-05
-3.54407e-05
5.23447e-05
-4.69075e-05
5.95213e-05
-5.96585e-05
6.62677e-05
-7.36227e-05
7.2701e-05
-8.87518e-05
7.89485e-05
-0.000105022
8.51503e-05
-0.000122439
9.14609e-05
-0.000141037
9.80501e-05
-0.000160886
0.000105104
-0.000182093
0.000112827
-0.000204805
0.000121434
-0.000229213
0.000131158
-0.000255552
0.000142234
-0.000284094
0.000154855
0.000169338
-0.00031516
-1.1674e-06
7.46634e-06
-4.37282e-06
2.04206e-05
-9.4442e-06
3.22397e-05
-1.62248e-05
4.30523e-05
-2.45721e-05
5.29767e-05
-3.43586e-05
6.21312e-05
-4.5472e-05
7.06346e-05
-5.78165e-05
7.86122e-05
-7.13146e-05
8.61991e-05
-8.59091e-05
9.35429e-05
-0.000101565
0.000100806
-0.000118273
0.000108169
-0.000136052
0.000115829
-0.000154953
0.000124005
-0.00017506
0.000132934
-0.000196499
0.000142873
-0.000219434
0.000154093
-0.000244074
0.000166874
-0.00027066
0.000181441
0.000198154
-0.000299476
-1.11975e-06
8.58609e-06
-4.20217e-06
2.3503e-05
-9.08546e-06
3.7123e-05
-1.56194e-05
4.95863e-05
-2.36648e-05
6.10221e-05
-3.30944e-05
7.15608e-05
-4.37936e-05
8.13338e-05
-5.56614e-05
9.04801e-05
-6.86128e-05
9.91505e-05
-8.25799e-05
0.00010751
-9.75147e-05
0.000115741
-0.000113392
0.000124046
-0.00013021
0.000132648
-0.000147999
0.000141793
-0.000166818
0.000151753
-0.000186765
0.00016282
-0.000207977
0.000175304
-0.000230629
0.000189527
-0.000254934
0.000205746
0.000224352
-0.000281132
-1.06629e-06
9.65238e-06
-4.01035e-06
2.6447e-05
-8.68157e-06
4.17942e-05
-1.49368e-05
5.58415e-05
-2.26406e-05
6.87259e-05
-3.16658e-05
8.0586e-05
-4.1895e-05
9.1563e-05
-5.32218e-05
0.000101807
-6.55521e-05
0.000111481
-7.88065e-05
0.000120764
-9.29222e-05
0.000129857
-0.000107855
0.000138979
-0.000123583
0.000148376
-0.00014011
0.00015832
-0.000157469
0.000169112
-0.000175725
0.000181076
-0.000194984
0.000194563
-0.000215388
0.000209931
-0.000237116
0.000227474
0.000247603
-0.000260367
-1.00793e-06
1.06603e-05
-3.80041e-06
2.92395e-05
-8.23873e-06
4.62325e-05
-1.41873e-05
6.17901e-05
-2.15142e-05
7.60528e-05
-3.00926e-05
8.91644e-05
-3.98019e-05
0.000101272
-5.05294e-05
0.000112534
-6.21717e-05
0.000123123
-7.46365e-05
0.000133229
-8.78446e-05
0.000143065
-0.000101732
0.000152866
-0.000116253
0.000162897
-0.000131384
0.000173451
-0.000147126
0.000184854
-0.000163513
0.000197464
-0.000180614
0.000211664
-0.000198538
0.000227855
-0.000217429
0.000246365
0.00026762
-0.000237446
-9.45609e-07
1.16059e-05
-3.57566e-06
3.18696e-05
-7.76364e-06
5.04205e-05
-1.33816e-05
6.74081e-05
-2.03014e-05
8.29725e-05
-2.83961e-05
9.72591e-05
-3.75418e-05
0.000110418
-4.7619e-05
0.000122612
-5.85142e-05
0.000134018
-7.01215e-05
0.000144837
-8.23441e-05
0.000155288
-9.50967e-05
0.000165619
-0.000108308
0.000176108
-0.000121924
0.000187067
-0.000135914
0.000198844
-0.000150276
0.000211825
-0.00016504
0.000226428
-0.000180282
0.000243096
-0.000196112
0.000262195
0.000284163
-0.000212655
-8.80354e-07
1.24863e-05
-3.33957e-06
3.43288e-05
-7.26336e-06
5.43443e-05
-1.25314e-05
7.26761e-05
-1.90189e-05
8.94601e-05
-2.65991e-05
0.000104839
-3.51441e-05
0.000118963
-4.45275e-05
0.000131995
-5.46251e-05
0.000144116
-6.53165e-05
0.000155528
-7.64868e-05
0.000166458
-8.8028e-05
0.00017716
-9.98415e-05
0.000187922
-0.000111843
0.000199068
-0.000123965
0.000210966
-0.000136168
0.000224028
-0.000148445
0.000238706
-0.000160834
0.000255485
-0.000173418
0.000274779
0.000297033
-0.000186289
-8.13202e-07
1.32995e-05
-3.09572e-06
3.66113e-05
-6.74518e-06
5.79938e-05
-1.16485e-05
7.75794e-05
-1.76843e-05
9.54959e-05
-2.4725e-05
0.00011188
-3.26393e-05
0.000126877
-4.12931e-05
0.000140649
-5.05512e-05
0.000153374
-6.02786e-05
0.000165255
-7.03413e-05
0.000176521
-8.06079e-05
0.000187427
-9.09518e-05
0.000198266
-0.000101255
0.000209372
-0.000111415
0.000221126
-0.000121351
0.000233964
-0.000131018
0.000248372
-0.000140416
0.000264884
-0.000149603
0.000283966
0.000306078
-0.000158648
-7.45199e-07
1.40447e-05
-2.84774e-06
3.87138e-05
-6.21646e-06
6.13625e-05
-1.0745e-05
8.2108e-05
-1.63149e-05
0.000101066
-2.27979e-05
0.000118363
-3.00584e-05
0.000134138
-3.79546e-05
0.000148545
-4.63405e-05
0.00016176
-5.50658e-05
0.000173981
-6.39774e-05
0.000185432
-7.29199e-05
0.000196369
-8.17379e-05
0.000207084
-9.02797e-05
0.000217913
-9.84037e-05
0.00022925
-0.000105989
0.000241549
-0.000112948
0.000255332
-0.000119248
0.000271184
-0.000124925
0.000289643
0.000311185
-0.000130031
-6.77374e-07
1.4722e-05
-2.59917e-06
4.06356e-05
-5.6845e-06
6.44478e-05
-9.833e-06
8.62565e-05
-1.49284e-05
0.000106161
-2.08415e-05
0.000124276
-2.7432e-05
0.000140728
-3.45508e-05
0.000155664
-4.20404e-05
0.000169249
-4.97358e-05
0.000181676
-5.74643e-05
0.000193161
-6.50467e-05
0.000203952
-7.22983e-05
0.000214335
-7.90326e-05
0.000224648
-8.50688e-05
0.000235286
-9.02429e-05
0.000246724
-9.44261e-05
0.000259515
-9.75496e-05
0.000274307
-9.96343e-05
0.000291728
0.000312275
-0.000100725
-6.10719e-07
1.53328e-05
-2.35348e-06
4.23784e-05
-5.15634e-06
6.72507e-05
-8.92398e-06
9.00241e-05
-1.35417e-05
0.000110779
-1.88787e-05
0.000129613
-2.47902e-05
0.00014664
-3.11192e-05
0.000161993
-3.76973e-05
0.000175828
-4.43445e-05
0.000188323
-5.08693e-05
0.000199686
-5.70685e-05
0.000210151
-6.27281e-05
0.000219995
-6.76267e-05
0.000229546
-7.15428e-05
0.000239202
-7.42685e-05
0.000249449
-7.56313e-05
0.000260878
-7.55279e-05
0.000274204
-7.39686e-05
0.000290169
0.000309305
-7.09987e-05
-5.4617e-07
1.58789e-05
-2.11391e-06
4.39461e-05
-4.63868e-06
6.97755e-05
-8.02899e-06
9.34144e-05
-1.21709e-05
0.000114921
-1.69315e-05
0.000134374
-2.21613e-05
0.00015187
-2.76954e-05
0.000167527
-3.33547e-05
0.000181487
-3.89447e-05
0.000193913
-4.42555e-05
0.000204996
-4.90604e-05
0.000214956
-5.31165e-05
0.000224051
-5.61672e-05
0.000232597
-5.79498e-05
0.000240985
-5.82106e-05
0.00024971
-5.67314e-05
0.000259399
-5.33741e-05
0.000270847
-4.81479e-05
0.000284942
0.000302261
-4.11031e-05
-4.84588e-07
1.63635e-05
-1.88347e-06
4.5345e-05
-4.13769e-06
7.20297e-05
-7.15821e-06
9.64349e-05
-1.0831e-05
0.000118594
-1.50202e-05
0.000138563
-1.95714e-05
0.000156421
-2.43122e-05
0.000172268
-2.90527e-05
0.000186227
-3.35848e-05
0.000198445
-3.76804e-05
0.000209092
-4.10905e-05
0.000218366
-4.35437e-05
0.000226504
-4.47486e-05
0.000233802
-4.44004e-05
0.000240637
-4.21979e-05
0.000247508
-3.78743e-05
0.000255075
-3.12494e-05
0.000264222
-2.23513e-05
0.000276044
0.000291307
-1.13976e-05
-4.26739e-07
1.67903e-05
-1.66484e-06
4.65831e-05
-3.65888e-06
7.40237e-05
-6.32075e-06
9.90968e-05
-9.53508e-06
0.000121808
-1.31629e-05
0.000142191
-1.7044e-05
0.000160302
-2.09987e-05
0.000176222
-2.48267e-05
0.000190055
-2.83067e-05
0.000201925
-3.11939e-05
0.000211979
-3.32173e-05
0.000220389
-3.40782e-05
0.000227365
-3.34507e-05
0.000233174
-3.09879e-05
0.000238174
-2.63388e-05
0.000242859
-1.91847e-05
0.000247921
-9.2876e-06
0.000254325
3.4925e-06
0.000263264
0.000276407
1.8392e-05
-3.73286e-07
1.71636e-05
-1.46034e-06
4.76702e-05
-3.20702e-06
7.57704e-05
-5.52444e-06
0.000101414
-8.29475e-06
0.000124578
-1.13748e-05
0.000145271
-1.45989e-05
0.000163526
-1.77792e-05
0.000179403
-2.07061e-05
0.000192982
-2.31454e-05
0.000204365
-2.48363e-05
0.00021367
-2.54873e-05
0.00022104
-2.47735e-05
0.000226651
-2.23352e-05
0.000230736
-1.77831e-05
0.000233622
-1.07148e-05
0.00023579
-7.54307e-07
0.00023796
1.23699e-05
0.0002412
2.86712e-05
0.000246963
0.000257172
4.79063e-05
-3.24765e-07
1.74883e-05
-1.27185e-06
4.86173e-05
-2.78598e-06
7.72845e-05
-4.77568e-06
0.000103404
-7.11926e-06
0.000126922
-9.66861e-06
0.00014782
-1.22517e-05
0.000166109
-1.46731e-05
0.000181824
-1.67134e-05
0.000195022
-1.81266e-05
0.000205778
-1.86368e-05
0.00021418
-1.79331e-05
0.000220336
-1.56654e-05
0.000224384
-1.14415e-05
0.000226512
-4.82944e-06
0.00022701
4.6265e-06
0.000226334
1.73649e-05
0.000225222
3.37151e-05
0.00022485
5.37302e-05
0.000226948
0.000233839
7.70633e-05
-2.81587e-07
1.77699e-05
-1.1008e-06
4.94365e-05
-2.3987e-06
7.85824e-05
-4.07922e-06
0.000105084
-6.01543e-06
0.000128858
-8.05321e-06
0.000149858
-1.00136e-05
0.000168069
-1.16934e-05
0.000183504
-1.28635e-05
0.000196193
-1.32664e-05
0.000206181
-1.26119e-05
0.000213526
-1.05707e-05
0.000218295
-6.76915e-06
0.000220582
-7.83161e-07
0.000220526
7.86145e-06
0.000218365
1.96763e-05
0.00021452
3.51692e-05
0.000209729
5.47419e-05
0.000205277
7.84883e-05
0.000203201
0.000206348
0.000105979
-2.44022e-07
1.80139e-05
-9.48127e-07
5.01406e-05
-2.04705e-06
7.96813e-05
-3.4381e-06
0.000106475
-4.9875e-06
0.000130407
-6.53398e-06
0.000151404
-7.89096e-06
0.000169426
-8.84667e-06
0.00018446
-9.16251e-06
0.000196508
-8.56963e-06
0.000205588
-6.76377e-06
0.00021172
-3.39848e-06
0.00021493
1.92286e-06
0.000215261
9.65481e-06
0.000212794
2.03137e-05
0.000207706
3.44691e-05
0.000200364
5.27047e-05
0.000191493
7.55088e-05
0.000182473
0.000103033
0.000175677
0.000174596
0.000134785
-2.12193e-07
1.82261e-05
-8.14244e-07
5.07427e-05
-1.73184e-06
8.05989e-05
-2.85351e-06
0.000107597
-4.03693e-06
0.000131591
-5.11235e-06
0.00015248
-5.88454e-06
0.000170199
-6.13254e-06
0.000184708
-5.60763e-06
0.000195984
-4.02935e-06
0.00020401
-1.07966e-06
0.00020877
3.60493e-06
0.000210245
1.0443e-05
0.000208423
1.9919e-05
0.000203318
3.25908e-05
0.000195034
4.90874e-05
0.000183868
7.00754e-05
0.000170505
9.61448e-05
0.000156404
0.00012753
0.000144292
0.000138425
0.000163701
-1.8608e-07
1.84122e-05
-6.99042e-07
5.12556e-05
-1.45277e-06
8.13527e-05
-2.32476e-06
0.000108469
-3.1623e-06
0.000132428
-3.78567e-06
0.000153103
-3.98972e-06
0.000170403
-3.54321e-06
0.000184261
-2.18637e-06
0.000194627
3.73626e-07
0.00020145
4.46915e-06
0.000204675
1.0481e-05
0.000204234
1.88497e-05
0.000200054
3.00888e-05
0.000192079
4.47976e-05
0.000180326
6.36655e-05
0.000165
8.74472e-05
0.000146724
0.000116851
0.000127
0.000152222
0.000108922
9.76109e-05
0.000193036
-1.65511e-07
1.85777e-05
-6.01881e-07
5.1692e-05
-1.2084e-06
8.19592e-05
-1.84922e-06
0.00010911
-2.35929e-06
0.000132938
-2.54718e-06
0.000153291
-2.19624e-06
0.000170052
-1.06348e-06
0.000183128
1.12339e-06
0.00019244
4.67097e-06
0.000197902
9.92735e-06
0.000199418
1.72918e-05
0.000196869
2.72274e-05
0.000190118
4.02771e-05
0.000179029
5.70813e-05
0.000163522
7.83896e-05
0.000143691
0.000105049
0.000120064
0.000137903
9.41463e-05
0.000177435
6.93893e-05
5.18607e-05
0.000223185
-1.50174e-07
1.87279e-05
-5.21599e-07
5.20634e-05
-9.96193e-07
8.24338e-05
-1.4224e-06
0.000109536
-1.6207e-06
0.000133137
-1.38602e-06
0.000153056
-4.88288e-07
0.000169154
1.32919e-06
0.000181311
4.35329e-06
0.000189416
8.90663e-06
0.000193349
1.53553e-05
0.00019297
2.41191e-05
0.000188105
3.56858e-05
0.000178552
5.06288e-05
0.000164086
6.96293e-05
0.000144521
9.34969e-05
0.000119824
0.000123172
9.03884e-05
0.000159644
5.76743e-05
0.000203571
2.54629e-05
8.13237e-07
0.000254618
-1.39614e-07
1.88675e-05
-4.56529e-07
5.23803e-05
-8.12536e-07
8.27898e-05
-1.03794e-06
0.000109762
-9.36522e-07
0.000133035
-2.87343e-07
0.000152407
1.15535e-06
0.000167711
3.66445e-06
0.000178802
7.54418e-06
0.000185536
1.31362e-05
0.000187757
2.08279e-05
0.000185278
3.10634e-05
0.00017787
4.4358e-05
0.000165257
6.13181e-05
0.000147126
8.26661e-05
0.000123173
0.00010927
9.32199e-05
0.000142162
5.74963e-05
0.000182484
1.73529e-05
0.000231095
-2.31481e-05
-5.59547e-05
0.000287863
-1.33245e-07
1.90007e-05
-4.04527e-07
5.26516e-05
-6.528e-07
8.3038e-05
-6.87768e-07
0.000109797
-2.94104e-07
0.000132642
7.67428e-07
0.000151346
2.76096e-06
0.000165718
5.9786e-06
0.000175584
1.07454e-05
0.000180769
1.7426e-05
0.000181076
2.64336e-05
0.00017627
3.82414e-05
0.000166062
5.33972e-05
0.000150101
7.25438e-05
0.00012798
9.64465e-05
9.92702e-05
0.000126029
6.36376e-05
0.000162408
2.11167e-05
0.000206878
-2.71164e-05
0.000260522
-7.67919e-05
-0.000118913
0.000323479
-1.30363e-07
1.91311e-05
-3.63007e-07
5.28842e-05
-5.11415e-07
8.31865e-05
-3.62185e-07
0.000109647
3.21651e-07
0.000131958
1.80036e-06
0.000149867
4.35952e-06
0.000163159
8.31398e-06
0.00017163
1.40138e-05
0.000175069
2.18516e-05
0.000173239
3.22721e-05
0.00016585
4.57835e-05
0.000152551
6.29723e-05
0.000132912
8.45232e-05
0.000106429
0.000111247
7.25468e-05
0.000144118
3.07658e-05
0.000184331
-1.90958e-05
0.000233315
-7.61003e-05
0.000292392
-0.000135869
-0.000188552
0.000362031
-1.30152e-07
1.92613e-05
-3.28997e-07
5.30831e-05
-3.81975e-07
8.32394e-05
-5.00274e-08
0.000109315
9.28031e-07
0.00013098
2.83658e-06
0.000147958
5.98606e-06
0.000160009
1.07182e-05
0.000166897
1.74128e-05
0.000168375
2.64964e-05
0.000164155
3.84518e-05
0.000153894
5.38296e-05
0.000137173
7.32628e-05
0.000113479
9.74842e-05
8.22076e-05
0.000127353
4.2678e-05
0.000163894
-5.77491e-06
0.000208358
-6.35601e-05
0.000262289
-0.000130031
0.000327244
-0.000200825
-0.000265351
0.000404043
-1.31706e-07
1.9393e-05
-2.99178e-07
5.32506e-05
-2.57353e-07
8.31976e-05
2.60987e-07
0.000108797
1.54421e-06
0.000129697
3.90386e-06
0.000145599
7.67911e-06
0.000156234
1.32431e-05
0.000161333
2.10111e-05
0.000160607
3.14497e-05
0.000153716
4.50873e-05
0.000140257
6.25257e-05
0.000119734
8.44525e-05
9.15524e-05
0.000111657
5.50033e-05
0.00014505
9.28449e-06
0.000185703
-4.64271e-05
0.000234905
-0.000112763
0.000294271
-0.000189397
0.00036558
-0.000272134
-0.000349729
0.000449958
-1.34042e-07
1.9527e-05
-2.69957e-07
5.33865e-05
-1.29816e-07
8.30575e-05
5.84344e-07
0.000108083
2.19089e-06
0.00012809
5.03209e-06
0.000142758
9.47994e-06
0.000151786
1.5944e-05
0.000154869
2.48809e-05
0.00015167
3.68044e-05
0.000141793
5.22967e-05
0.000124764
7.20193e-05
0.000100012
9.6724e-05
6.68477e-05
0.000127264
2.44633e-05
0.000164608
-2.80599e-05
0.000209867
-9.16858e-05
0.000264349
-0.000167244
0.00032968
-0.000254728
0.000407832
-0.000350286
-0.000441991
0.000500093
-1.36118e-07
1.96631e-05
-2.37526e-07
5.34879e-05
8.90665e-09
8.2811e-05
9.34191e-07
0.000107158
2.88996e-06
0.000126134
6.25274e-06
0.000139395
1.14318e-05
0.000146607
1.88784e-05
0.000147423
2.90968e-05
0.000141452
4.26552e-05
0.000128234
6.01979e-05
0.000107222
8.24551e-05
7.77546e-05
0.000110252
3.90511e-05
0.000144513
-9.79817e-06
0.00018627
-6.98164e-05
0.000236666
-0.000142082
0.000297005
-0.000227583
0.000368852
-0.000326576
0.000454328
-0.000435761
-0.000542258
0.000554595
-1.36861e-07
1.98e-05
-1.97961e-07
5.3549e-05
1.67051e-07
8.2446e-05
1.32519e-06
0.000105999
3.66403e-06
0.000123795
7.59827e-06
0.000135461
1.3579e-05
0.000140626
2.21048e-05
0.000138897
3.37338e-05
0.000129823
4.90962e-05
0.000112872
6.89062e-05
8.74118e-05
9.39711e-05
5.26898e-05
0.000125197
7.82524e-06
0.000163588
-4.8189e-05
0.000210238
-0.000116466
0.000266321
-0.000198166
0.000333106
-0.000294369
0.000412016
-0.000405485
0.000505265
-0.00052901
-0.000650398
0.000613405
-1.3517e-07
1.99352e-05
-1.47229e-07
5.3561e-05
3.53505e-07
8.19453e-05
1.77232e-06
0.000104581
4.5361e-06
0.000121032
9.10155e-06
0.000130895
1.59663e-05
0.000133761
2.56817e-05
0.000129182
3.88662e-05
0.000116638
5.62188e-05
9.55193e-05
7.85309e-05
6.50997e-05
0.000106694
2.45267e-05
0.000141701
-2.71821e-05
0.00018464
-9.11272e-05
0.000236667
-0.000168493
0.000298979
-0.000260478
0.000372786
-0.000368176
0.000459279
-0.000491978
0.000560695
-0.000630426
-0.000765935
0.000676232
-1.29938e-07
2.00651e-05
-8.1342e-08
5.35125e-05
5.76831e-07
8.12871e-05
2.29049e-06
0.000102867
5.52908e-06
0.000117793
1.07952e-05
0.000125629
1.86378e-05
0.000125919
2.96663e-05
0.000118153
4.45655e-05
0.000101739
6.41095e-05
7.59752e-05
8.91729e-05
4.00363e-05
0.000120736
-7.03663e-06
0.000159883
-6.63291e-05
0.000207783
-0.000139027
0.000265655
-0.000226365
0.000334706
-0.000329528
0.000416063
-0.000449533
0.000510615
-0.00058653
0.00062051
-0.000740321
-0.000887997
0.000742572
-1.20069e-07
2.01852e-05
4.4354e-09
5.33879e-05
8.4554e-07
8.0446e-05
2.89436e-06
0.000100818
6.66544e-06
0.000114022
1.27111e-05
0.000119583
2.16362e-05
0.000116994
3.41134e-05
0.000105676
5.08994e-05
8.49529e-05
7.28482e-05
5.40264e-05
0.000100922
1.19629e-05
0.000136192
-4.23067e-05
0.000179832
-0.000109969
0.00023309
-0.000192286
0.000297237
-0.000290512
0.000373479
-0.00040577
0.000462835
-0.00053889
0.000565856
-0.00068955
0.000684415
-0.000858881
-0.0010154
0.000811816
-1.04712e-07
2.02899e-05
1.11612e-07
5.31716e-05
1.1676e-06
7.939e-05
3.59806e-06
9.83877e-05
7.96677e-06
0.000109653
1.48798e-05
0.00011267
2.50022e-05
0.000106871
3.90746e-05
9.16035e-05
5.79298e-05
6.60977e-05
8.25057e-05
2.94505e-05
0.000113853
-1.93844e-05
0.000153133
-8.15871e-05
0.000201604
-0.00015844
0.000260582
-0.000251263
0.000331376
-0.000361307
0.000415179
-0.000489573
0.000512897
-0.000636608
0.000624753
-0.000801407
0.000751864
-0.000985992
-0.00114707
0.000883536
-8.27221e-08
2.03726e-05
2.46082e-07
5.28428e-05
1.55098e-06
7.80851e-05
4.41497e-06
9.55237e-05
9.45349e-06
0.000104615
1.73299e-05
0.000104794
2.87734e-05
9.54279e-05
4.45968e-05
7.57801e-05
6.57121e-05
4.49823e-05
9.31427e-05
2.01997e-06
0.000128027
-5.42682e-05
0.000171609
-0.00012517
0.00022522
-0.000212051
0.000290226
-0.000316268
0.000367953
-0.000439034
0.000459574
-0.000581194
0.000565929
-0.000742964
0.000687119
-0.000922596
0.000822451
-0.00112132
-0.00128262
0.000958004
-5.3239e-08
2.04258e-05
4.10338e-07
5.23792e-05
2.00286e-06
7.64926e-05
5.35756e-06
9.2169e-05
1.11445e-05
9.88278e-05
2.00877e-05
9.58506e-05
3.29841e-05
8.25315e-05
5.07215e-05
5.80427e-05
7.42933e-05
2.14105e-05
0.000104807
-2.8494e-05
0.000143484
-9.29449e-05
0.000191642
-0.000173328
0.000250661
-0.00027107
0.00032193
-0.000387536
0.000406756
-0.000523861
0.000506267
-0.000680704
0.00062131
-0.000858007
0.00075243
-0.00105372
0.000897744
-0.00126664
-0.00142101
0.00103613
-1.56477e-08
2.04415e-05
6.0722e-07
5.17564e-05
2.52954e-06
7.45703e-05
6.43687e-06
8.82617e-05
1.30566e-05
9.22081e-05
2.31764e-05
8.57308e-05
3.76639e-05
6.80441e-05
5.74839e-05
3.82227e-05
8.37111e-05
-4.81675e-06
0.000117534
-6.2317e-05
0.000160247
-0.000135658
0.000213223
-0.000226304
0.000277867
-0.000335715
0.000355544
-0.000465214
0.000447488
-0.000615805
0.000554703
-0.00078792
0.000677926
-0.00098123
0.00081798
-0.00119377
0.000976274
-0.00142493
-0.0016339
0.00118917
3.12258e-08
2.04103e-05
8.3989e-07
5.09477e-05
3.13743e-06
7.22727e-05
7.66358e-06
8.37356e-05
1.52055e-05
8.46662e-05
2.6617e-05
7.43192e-05
4.28385e-05
5.18226e-05
6.49126e-05
1.61486e-05
9.39931e-05
-3.38972e-05
0.000131343
-9.96668e-05
0.000178315
-0.00018263
0.000236316
-0.000284304
0.000306737
-0.000406135
0.000390867
-0.000549344
0.000489785
-0.000714723
0.000604261
-0.000902396
0.000734703
-0.00111167
0.000881708
-0.00134078
0.00104508
-0.0015883
-0.00182826
0.00123943
8.75754e-08
2.03227e-05
1.11047e-06
4.99248e-05
3.83141e-06
6.95518e-05
9.04616e-06
7.85208e-05
1.76037e-05
7.61086e-05
3.04263e-05
6.14967e-05
4.85279e-05
3.37209e-05
7.30281e-05
-8.35156e-06
0.000105155
-6.60245e-05
0.000146237
-0.000140748
0.000197667
-0.000234061
0.000260853
-0.00034749
0.000337131
-0.000482413
0.000427652
-0.000639864
0.000533257
-0.000820328
0.000654359
-0.0010235
0.00079084
-0.00124815
0.000942472
-0.00149241
0.00110739
-0.00175321
-0.0020125
0.00129163
1.54105e-07
2.01686e-05
1.42102e-06
4.86579e-05
4.61587e-06
6.63569e-05
1.0592e-05
7.25447e-05
2.0262e-05
6.64386e-05
3.46175e-05
4.71412e-05
5.47466e-05
1.35919e-05
8.18428e-05
-3.54478e-05
0.000117202
-0.000101384
0.000162202
-0.000185748
0.000218255
-0.000290114
0.000286736
-0.000415971
0.000368871
-0.000564549
0.000465612
-0.000736605
0.000577478
-0.000932194
0.00070443
-0.00115045
0.000845727
-0.00138945
0.00100021
-0.00164689
0.00116509
-0.00191809
-0.00218903
0.00134161
2.31237e-07
1.99373e-05
1.77323e-06
4.71159e-05
5.49444e-06
6.26357e-05
1.23071e-05
6.57321e-05
2.31885e-05
5.55571e-05
3.92005e-05
3.11291e-05
6.15035e-05
-8.71114e-06
9.13606e-05
-6.53048e-05
0.000130125
-0.000140149
0.000179207
-0.00023483
0.000240009
-0.000350916
0.000313831
-0.000489792
0.00040174
-0.000652458
0.000504417
-0.000839282
0.000621989
-0.00104977
0.000753896
-0.00128236
0.000898748
-0.0015343
0.00105452
-0.00180266
0.00121779
-0.00208137
-0.00235856
0.00138733
3.19333e-07
2.16849e-06
4.52667e-05
6.47002e-06
5.83342e-05
1.41959e-05
5.80062e-05
2.63892e-05
4.33639e-05
4.41811e-05
1.33373e-05
6.88015e-05
-3.33316e-05
0.000101576
-9.80794e-05
0.000143902
-0.000182475
0.000197201
-0.000288128
0.000262831
-0.000416546
0.000341973
-0.000568935
0.000435478
-0.000745963
0.000543694
-0.000947497
0.000666293
-0.00117237
0.000802155
-0.00141822
0.000949257
-0.0016814
0.00110482
-0.00195822
0.00126502
-0.00224157
-0.00252104
0.0014275
2.6079e-06
7.54481e-06
5.33973e-05
1.62618e-05
4.92892e-05
2.98675e-05
2.97582e-05
4.95609e-05
-6.35617e-06
7.66371e-05
-6.04078e-05
0.000112474
-0.000133917
0.000158498
-0.000228499
0.000216113
-0.000345743
0.000286597
-0.00048703
0.000370965
-0.000653303
0.000469792
-0.00084479
0.000583034
-0.00106074
0.000709867
-0.0012992
0.000848594
-0.00155695
0.000996612
-0.00182942
0.00115055
-0.00211217
0.00130637
-0.00239739
-0.00267597
0.00146131
8.72032e-06
1.85066e-05
3.95029e-05
3.36244e-05
1.46404e-05
5.5338e-05
-2.80697e-05
8.50006e-05
-9.00704e-05
0.000124031
-0.000172947
0.000173862
-0.00027833
0.000235852
-0.000407733
0.000311159
-0.000562337
0.000400577
-0.00074272
0.00050435
-0.000948563
0.000621997
-0.00117839
0.000752167
-0.00142937
0.000892605
-0.00169738
0.00104021
-0.00197702
0.00119119
-0.00226315
0.00134148
-0.00254768
-0.00282281
0.00148832
2.09309e-05
2.85695e-05
3.76587e-05
-2.08746e-06
6.1506e-05
-5.1917e-05
9.38756e-05
-0.00012244
0.000136212
-0.000215284
0.000189931
-0.000332049
0.00025631
-0.000474112
0.000336341
-0.000642368
0.000430549
-0.000836927
0.000538796
-0.00105681
0.000660124
-0.00129971
0.000792653
-0.0015619
0.000933612
-0.00183834
0.0010795
-0.00212291
0.00122631
-0.00240996
0.00137009
-0.00269146
-0.00296106
0.00150834
2.35338e-05
4.19666e-05
-2.05202e-05
6.80546e-05
-7.8005e-05
0.000103239
-0.000157625
0.000148972
-0.000261016
0.000206624
-0.000389701
0.000277355
-0.000544844
0.000361945
-0.000726959
0.000460597
-0.000935579
0.000572751
-0.00116896
0.000696949
-0.00142391
0.0008308
-0.00169575
0.000971088
-0.00197863
0.00111404
-0.00226586
0.0012556
-0.00255152
0.00139211
-0.00282797
-0.00309038
0.00152143
4.65418e-05
7.49689e-05
-0.000106432
0.000113061
-0.000195717
0.000162256
-0.00031021
0.000223848
-0.000451293
0.00029884
-0.000619836
0.000387751
-0.00081587
0.000490418
-0.00103825
0.000605825
-0.00128437
0.000732012
-0.0015501
0.000866119
-0.00182986
0.00100458
-0.00211709
0.00114349
-0.00240477
0.0012789
-0.00268694
0.00140758
-0.00295665
-0.00321063
0.00152783
8.223e-05
0.000123305
-0.000236792
0.000175998
-0.000362903
0.000241495
-0.00051679
0.000320598
-0.000698939
0.000413521
-0.000908792
0.000519693
-0.00114442
0.000637625
-0.0014023
0.000764875
-0.00167735
0.000898176
-0.00196316
0.00103373
-0.00225264
0.00116762
-0.00253866
0.00129618
-0.0028155
0.00141668
-0.00307715
-0.00332185
0.0015279
0.000133926
0.000190122
-0.0004191
0.000259444
-0.000586112
0.000342449
-0.000781944
0.000439002
-0.00100534
0.000548099
-0.00125352
0.000667772
-0.00152198
0.000795135
-0.00180471
0.000926603
-0.00209462
0.00105826
-0.0023843
0.00118633
-0.00266673
0.00130753
-0.0029367
0.00141969
-0.00318932
-0.00342426
0.0015221
0.000204543
0.00027756
-0.00065913
0.000364196
-0.000868579
0.000463932
-0.00110508
0.000575311
-0.00136489
0.000695904
-0.00164257
0.000822438
-0.00193125
0.000951109
-0.0022233
0.00107801
-0.0025112
0.00119963
-0.00278835
0.00131316
-0.00305023
0.00141702
-0.00329318
-0.00351822
0.00151098
0.000295699
0.000385637
-0.000958518
0.000488049
-0.00120749
0.00060102
-0.00147787
0.000721692
-0.00176324
0.000846487
-0.00205604
0.00097149
-0.0023483
0.00109293
-0.00263264
0.00120764
-0.00290306
0.00131337
-0.00315596
0.00140911
-0.00338892
-0.00360418
0.00149507
0.000406561
0.00051109
-0.00131202
0.00062493
-0.00159171
0.00074485
-0.00188316
0.000867052
-0.00217824
0.000987625
-0.00246887
0.00110304
-0.00274805
0.00121057
-0.00301059
0.00130852
-0.00325391
0.00139646
-0.00347686
-0.00368268
0.00147496
0.000532803
0.000646777
-0.00170568
0.000765139
-0.00200152
0.000883973
-0.00229708
0.000999481
-0.00258438
0.00110847
-0.00285703
0.0012087
-0.00311083
0.00129904
-0.00334425
0.00137956
-0.00355738
-0.00375429
0.00145117
0.000666328
0.000782375
0.00089716
-0.00241186
0.0010071
-0.00269432
0.0011094
-0.00295934
0.00120236
-0.00320378
0.00128536
-0.00342726
0.00135893
-0.00363095
-0.00381959
0.00142424
0.000906591
0.00101059
-0.00279832
0.00110609
-0.00305484
0.00119191
-0.0032896
0.00126793
-0.00350329
0.00133505
-0.00369806
-0.00387916
0.00139462
0.00101012
0.00109883
-0.00314355
0.00117774
-0.00336851
0.0012472
-0.00357274
0.00130837
-0.00375923
-0.00393354
0.00136274
0.00108793
0.00116024
0.00122357
-0.00363606
0.00127929
-0.00381496
-0.00398324
0.00132899
0.00119744
0.00124821
-0.00386573
-0.00402871
0.00129368
0.00121544
0.0012571
0.00121544
0.00386572
0.0040287
0.0012571
0.00119744
0.00363606
0.00124821
0.00381496
0.00398323
0.00129368
0.00108793
0.00314354
0.00116024
0.00336851
0.00122357
0.00357274
0.00127929
0.00375923
0.00393354
0.00132899
0.00101012
0.00279831
0.00109883
0.00305483
0.00117774
0.00328959
0.00124719
0.00350328
0.00130837
0.00369806
0.00387916
0.00136274
0.000796429
0.00211757
0.000906589
0.00241186
0.00101059
0.00269431
0.00110609
0.00295933
0.00119191
0.00320378
0.00126793
0.00342725
0.00133505
0.00363094
0.00381959
0.00139462
0.000666327
0.00170568
0.000782374
0.00200152
0.000897158
0.00229707
0.0010071
0.00258437
0.0011094
0.00285703
0.00120235
0.00311082
0.00128536
0.00334425
0.00135893
0.00355737
0.00375429
0.00142424
0.000532801
0.00131202
0.000646775
0.0015917
0.000765138
0.00188316
0.000883971
0.00217824
0.000999479
0.00246887
0.00110846
0.00274804
0.0012087
0.00301059
0.00129904
0.0032539
0.00137956
0.00347685
0.00368268
0.00145117
0.00040656
0.000958518
0.000511088
0.00120749
0.000624929
0.00147786
0.000744848
0.00176324
0.00086705
0.00205604
0.000987623
0.00234829
0.00110304
0.00263263
0.00121057
0.00290306
0.00130852
0.00315595
0.00139645
0.00338892
0.00360418
0.00147495
0.000295698
0.00065913
0.000385636
0.000868579
0.000488048
0.00110508
0.000601018
0.00136489
0.00072169
0.00164257
0.000846485
0.00193124
0.000971487
0.00222329
0.00109292
0.00251119
0.00120764
0.00278834
0.00131336
0.00305022
0.00140911
0.00329317
0.00351821
0.00149507
0.000204543
0.000419101
0.00027756
0.000586113
0.000364195
0.000781944
0.000463931
0.00100534
0.00057531
0.00125351
0.000695902
0.00152197
0.000822436
0.00180471
0.000951107
0.00209462
0.00107801
0.00238429
0.00119962
0.00266673
0.00131315
0.00293669
0.00141702
0.00318931
0.00342426
0.00151097
0.000133926
0.000236793
0.000190122
0.000362905
0.000259444
0.000516791
0.000342448
0.00069894
0.000439
0.000908792
0.000548097
0.00114442
0.00066777
0.0014023
0.000795133
0.00167734
0.0009266
0.00196315
0.00105825
0.00225264
0.00118632
0.00253866
0.00130752
0.00281549
0.00141969
0.00307714
0.00332184
0.0015221
8.223e-05
0.000106434
0.000123305
0.000195719
0.000175998
0.000310212
0.000241495
0.000451294
0.000320598
0.000619837
0.00041352
0.00081587