/*--------------------------------*- C++ -*----------------------------------*\
  =========                 |
  \\      /  F ield         | OpenFOAM: The Open Source CFD Toolbox
   \\    /   O peration     | Website:  https://openfoam.org
    \\  /    A nd           | Version:  7
     \\/     M anipulation  |
\*---------------------------------------------------------------------------*/
FoamFile
{
    version     2.0;
    format      ascii;
    class       surfaceScalarField;
    location    "95";
    object      phi;
}
// * * * * * * * * * * * * * * * * * * * * * * * * * * * * * * * * * * * * * //

dimensions      [0 3 -1 0 0 0 0];

internalField   nonuniform List<scalar> 
67470
(
-8.4176e-07
-3.79663e-05
3.88081e-05
-3.30632e-06
-0.000110057
0.000112522
-7.42698e-06
-0.000180345
0.000184465
-1.32322e-05
-0.000247593
0.000253398
-2.07233e-05
-0.000310865
0.000318356
-2.98605e-05
-0.000369642
0.000378779
-4.05561e-05
-0.000423868
0.000434564
-5.26764e-05
-0.000473958
0.000486079
-6.60514e-05
-0.000520731
0.000534106
-8.04896e-05
-0.000565293
0.000579731
-9.57963e-05
-0.000608894
0.000624201
-0.00011179
-0.000652779
0.000668773
-0.000128319
-0.00069806
0.000714588
-0.000145265
-0.000745628
0.000762574
-0.000162546
-0.000796108
0.000813388
-0.000180105
-0.000849832
0.000867392
-0.000197903
-0.000906847
0.000924644
-0.000215897
-0.000966904
0.000984899
-0.000234028
-0.00102944
0.00104757
-0.00109355
0.00111178
-0.00025225
-1.03605e-06
-3.69302e-05
-4.00225e-06
-0.000107091
-8.87609e-06
-0.000175471
-1.56361e-05
-0.000240833
-2.42402e-05
-0.000302261
-3.46129e-05
-0.000359269
-4.66395e-05
-0.000411842
-6.01694e-05
-0.000460428
-7.50256e-05
-0.000505875
-9.10203e-05
-0.000549298
-0.000107973
-0.000591942
-0.000125726
-0.000635026
-0.00014416
-0.000679626
-0.000163198
-0.00072659
-0.000182808
-0.000776498
-0.000202989
-0.000829651
-0.00022376
-0.000886076
-0.000245139
-0.000945526
-0.00026712
-0.00100746
-0.00107097
-0.000289702
-1.22781e-06
-3.57024e-05
-4.68599e-06
-0.000103633
-1.0294e-05
-0.000169863
-1.79788e-05
-0.000233148
-2.7654e-05
-0.000292585
-3.92079e-05
-0.000347715
-5.24987e-05
-0.000398551
-6.73587e-05
-0.000445568
-8.36039e-05
-0.000489629
-0.000101049
-0.000531853
-0.000119526
-0.000573465
-0.000138899
-0.000615653
-0.000159078
-0.000659447
-0.000180024
-0.000705644
-0.000201747
-0.000754774
-0.0002243
-0.000807098
-0.000247757
-0.000862619
-0.000272192
-0.000921091
-0.00029765
-0.000981998
-0.00104445
-0.000324175
-1.41511e-06
-3.42873e-05
-5.35092e-06
-9.96971e-05
-1.16677e-05
-0.000163546
-2.024e-05
-0.000224576
-3.09365e-05
-0.000281889
-4.36093e-05
-0.000335042
-5.80899e-05
-0.00038407
-7.41934e-05
-0.000429465
-9.17282e-05
-0.000472095
-0.000110511
-0.00051307
-0.000130384
-0.000553592
-0.00015123
-0.000594808
-0.000172982
-0.000637695
-0.000195635
-0.000682991
-0.000219239
-0.00073117
-0.000243892
-0.000782445
-0.000269719
-0.000836793
-0.000296847
-0.000893962
-0.000325372
-0.000953473
-0.00101444
-0.000355377
-1.59595e-06
-3.26914e-05
-5.99055e-06
-9.53025e-05
-1.29846e-05
-0.000156552
-2.23999e-05
-0.000215161
-3.40605e-05
-0.000270228
-4.77828e-05
-0.00032132
-6.33718e-05
-0.000368481
-8.06254e-05
-0.000412211
-9.93443e-05
-0.000453376
-0.000119346
-0.000493068
-0.000140479
-0.000532458
-0.000162641
-0.000572645
-0.000185787
-0.000614549
-0.000209937
-0.000658842
-0.000235174
-0.000705933
-0.000261636
-0.000755983
-0.000289494
-0.000808934
-0.000318926
-0.000864531
-0.000350071
-0.000922327
-0.000981461
-0.000383052
-1.76847e-06
-3.09229e-05
-6.59857e-06
-9.04724e-05
-1.42322e-05
-0.000148918
-2.44394e-05
-0.000204954
-3.70001e-05
-0.000257668
-5.16957e-05
-0.000306624
-6.83053e-05
-0.000351872
-8.661e-05
-0.000393907
-0.000106402
-0.000433584
-0.000127497
-0.000471973
-0.00014975
-0.000510205
-0.000173068
-0.000549328
-0.000197419
-0.000590197
-0.000222845
-0.000633416
-0.000249455
-0.000679323
-0.000277419
-0.000728019
-0.000306951
-0.000779403
-0.000338271
-0.00083321
-0.000371565
-0.000889033
-0.000946039
-0.000406988
-1.93079e-06
-2.89921e-05
-7.1689e-06
-8.52343e-05
-1.5399e-05
-0.000140688
-2.63404e-05
-0.000194012
-3.97307e-05
-0.000244277
-5.53172e-05
-0.000291038
-7.28538e-05
-0.000334335
-9.21051e-05
-0.000374655
-0.000112854
-0.000412835
-0.000134914
-0.000449913
-0.000158141
-0.000486978
-0.000182447
-0.000525022
-0.000207811
-0.000564833
-0.000234286
-0.000606941
-0.000261999
-0.00065161
-0.000291147
-0.00069887
-0.000321978
-0.000748572
-0.000354754
-0.000800434
-0.000389702
-0.000854086
-0.000908734
-0.000427007
-2.08115e-06
-2.6911e-05
-7.69572e-06
-7.96198e-05
-1.64736e-05
-0.00013191
-2.80859e-05
-0.0001824
-4.22291e-05
-0.000230134
-5.86181e-05
-0.000274649
-7.69829e-05
-0.00031597
-9.70715e-05
-0.000354567
-0.000118657
-0.000391249
-0.000141549
-0.000427021
-0.000165601
-0.000462926
-0.000190725
-0.000499897
-0.000216904
-0.000538655
-0.000244194
-0.000579651
-0.000272735
-0.000623069
-0.00030274
-0.000668865
-0.000334484
-0.000716827
-0.000368269
-0.00076665
-0.000404358
-0.000817996
-0.000870123
-0.000442969
-2.21786e-06
-2.46931e-05
-8.17354e-06
-7.36641e-05
-1.74456e-05
-0.000122638
-2.96596e-05
-0.000170186
-4.44735e-05
-0.00021532
-6.15715e-05
-0.000257551
-8.06604e-05
-0.000296881
-0.000101473
-0.000333755
-0.000123771
-0.000368951
-0.000147357
-0.000403435
-0.000172081
-0.000438202
-0.000197851
-0.000474127
-0.000224644
-0.000511862
-0.000252514
-0.000551781
-0.000281602
-0.000593982
-0.00031213
-0.000638337
-0.000344395
-0.000684563
-0.000378729
-0.000732316
-0.000415436
-0.000781289
-0.000830795
-0.000454764
-2.33934e-06
-2.23538e-05
-8.59723e-06
-6.74062e-05
-1.83052e-05
-0.00011293
-3.10466e-05
-0.000157445
-4.64437e-05
-0.000199923
-6.41519e-05
-0.000239843
-8.38566e-05
-0.000277177
-0.000105274
-0.000312337
-0.000128157
-0.000346068
-0.000152297
-0.000379295
-0.000177538
-0.000412961
-0.000203778
-0.000447887
-0.000230983
-0.000484657
-0.000259197
-0.000523567
-0.000288549
-0.000564629
-0.000319264
-0.000607622
-0.000351649
-0.000652178
-0.000386066
-0.000697899
-0.000422859
-0.000744496
-0.000791345
-0.000462308
-2.44415e-06
-1.99096e-05
-8.96208e-06
-6.08883e-05
-1.90433e-05
-0.000102849
-3.22331e-05
-0.000144255
-4.81211e-05
-0.000184035
-6.63363e-05
-0.000221628
-8.65436e-05
-0.000256969
-0.000108445
-0.000290436
-0.000131779
-0.000322733
-0.000156331
-0.000354743
-0.000181931
-0.000387361
-0.000208464
-0.000421354
-0.000235878
-0.000457243
-0.000264197
-0.000495249
-0.000293532
-0.000535294
-0.000324095
-0.000577059
-0.000356198
-0.000620075
-0.000390226
-0.000663871
-0.000426565
-0.000708158
-0.000752375
-0.000465535
-2.53099e-06
-1.73786e-05
-9.26387e-06
-5.41554e-05
-1.96519e-05
-9.2461e-05
-3.32068e-05
-0.0001307
-4.9489e-05
-0.000167753
-6.81034e-05
-0.000203013
-8.86961e-05
-0.000236376
-0.000110954
-0.000268178
-0.000134606
-0.000299082
-0.000159422
-0.000329926
-0.00018522
-0.000361563
-0.000211867
-0.000394707
-0.000239287
-0.000429823
-0.000267473
-0.000467062
-0.000296509
-0.000506258
-0.000326584
-0.000546985
-0.000358001
-0.000588658
-0.000391165
-0.000630707
-0.000426503
-0.000672819
-0.000714491
-0.000464387
-2.5987e-06
-1.47799e-05
-9.4989e-06
-4.72552e-05
-2.01239e-05
-8.1836e-05
-3.39567e-05
-0.000116867
-5.05323e-05
-0.000151177
-6.94341e-05
-0.000184112
-9.0291e-05
-0.00021552
-0.000112776
-0.000245693
-0.000136604
-0.000275253
-0.000161535
-0.000304996
-0.000187368
-0.00033573
-0.000213947
-0.000368128
-0.000241167
-0.000402603
-0.000268985
-0.000439244
-0.000297443
-0.000477801
-0.000326693
-0.000517734
-0.000357021
-0.00055833
-0.000388842
-0.000598886
-0.000422628
-0.000639033
-0.000678306
-0.000458813
-2.64635e-06
-1.21336e-05
-9.66406e-06
-4.02375e-05
-2.04533e-05
-7.10467e-05
-3.44736e-05
-0.000102847
-5.12383e-05
-0.000134412
-7.0312e-05
-0.000165038
-9.13076e-05
-0.000194524
-0.000113885
-0.000223117
-0.000137746
-0.000251392
-0.000162636
-0.000280106
-0.000188335
-0.00031003
-0.000214663
-0.0003418
-0.000241478
-0.000375788
-0.000268692
-0.00041203
-0.000296294
-0.000450198
-0.000324389
-0.00048964
-0.000353226
-0.000529493
-0.000383221
-0.000568891
-0.000414895
-0.00060736
-0.000644444
-0.000448757
-2.67317e-06
-9.46041e-06
-9.75691e-06
-3.31537e-05
-2.06353e-05
-6.01684e-05
-3.47499e-05
-8.87321e-05
-5.15963e-05
-0.000117566
-7.07229e-05
-0.000145911
-9.17281e-05
-0.000173519
-0.000114258
-0.000200586
-0.000138004
-0.000227646
-0.000162693
-0.000255417
-0.000188087
-0.000284636
-0.000213976
-0.000315911
-0.000240177
-0.000349587
-0.00026655
-0.000385657
-0.000293023
-0.000423725
-0.000319633
-0.00046303
-0.00034658
-0.000502545
-0.000374267
-0.000541203
-0.000403259
-0.000578368
-0.000613545
-0.000434158
-2.67865e-06
-6.78175e-06
-9.77573e-06
-2.60566e-05
-2.06665e-05
-4.92776e-05
-3.47801e-05
-7.46185e-05
-5.15983e-05
-0.000100748
-7.06557e-05
-0.000126854
-9.15377e-05
-0.000152637
-0.000113878
-0.000178246
-0.000137354
-0.000204171
-0.000161677
-0.000231093
-0.000186587
-0.000259726
-0.000211842
-0.000290656
-0.000237217
-0.000324212
-0.000262513
-0.000360362
-0.000287583
-0.000398655
-0.000312384
-0.000438229
-0.000337046
-0.000477883
-0.000361941
-0.000516308
-0.000387673
-0.000552636
-0.000586267
-0.000414951
-2.66254e-06
-4.11921e-06
-9.71961e-06
-1.89996e-05
-2.0545e-05
-3.84523e-05
-3.45608e-05
-6.06026e-05
-5.12389e-05
-8.40698e-05
-7.01025e-05
-0.00010799
-9.07252e-05
-0.000132014
-0.000112728
-0.000156243
-0.000135775
-0.000181124
-0.000159561
-0.000207308
-0.000183801
-0.000235485
-0.000208223
-0.000266235
-0.000232554
-0.000299881
-0.00025653
-0.000336385
-0.000279924
-0.000375261
-0.000302597
-0.000415556
-0.000324585
-0.000455895
-0.000346206
-0.000494688
-0.000368091
-0.000530751
-0.000563291
-0.000391067
-2.62484e-06
-1.49437e-06
-9.58848e-06
-1.20359e-05
-2.02703e-05
-2.77704e-05
-3.4091e-05
-4.67819e-05
-5.05159e-05
-6.76449e-05
-6.90591e-05
-8.94472e-05
-8.92832e-05
-0.00011179
-0.000110797
-0.000134729
-0.00013325
-0.000158671
-0.00015632
-0.000184238
-0.000179698
-0.000212107
-0.000203077
-0.000242856
-0.000226137
-0.000276821
-0.000248548
-0.000313974
-0.000269992
-0.000353817
-0.000290221
-0.000395328
-0.000309153
-0.000436963
-0.000327022
-0.000476819
-0.000344469
-0.000513304
-0.000545322
-0.000362438
-2.56585e-06
1.07148e-06
-9.38319e-06
-5.21859e-06
-1.9844e-05
-1.73096e-05
-3.33723e-05
-3.32536e-05
-4.94305e-05
-5.15867e-05
-6.75254e-05
-7.13523e-05
-8.72094e-05
-9.21057e-05
-0.000108079
-0.000113859
-0.000129768
-0.000136982
-0.000151935
-0.000162071
-0.000174248
-0.000189794
-0.000196365
-0.000220739
-0.000217919
-0.000255268
-0.00023851
-0.000293383
-0.000257726
-0.000334601
-0.000275196
-0.000377858
-0.0002907
-0.000421459
-0.000304352
-0.000463167
-0.000316773
-0.000500883
-0.000533083
-0.000329012
-2.48617e-06
3.55765e-06
-9.10555e-06
1.40079e-06
-1.9269e-05
-7.14618e-06
-3.24088e-05
-2.01139e-05
-4.79873e-05
-3.60081e-05
-6.55057e-05
-5.3834e-05
-8.45065e-05
-7.31049e-05
-0.000104573
-9.37924e-05
-0.000125323
-0.000116233
-0.000146395
-0.000140999
-0.000167431
-0.000168757
-0.000188056
-0.000200114
-0.000207854
-0.00023547
-0.000226359
-0.000274878
-0.000243062
-0.000317898
-0.000257461
-0.000363459
-0.000269175
-0.000409746
-0.000278161
-0.00045418
-0.000284982
-0.000494062
-0.000527308
-0.000290757
-2.38672e-06
5.94437e-06
-8.75839e-06
7.77245e-06
-1.85506e-05
2.64599e-06
-3.12077e-05
-7.45674e-06
-4.61951e-05
-2.10207e-05
-6.30093e-05
-3.70198e-05
-8.1183e-05
-5.49312e-05
-0.000100285
-7.46899e-05
-0.000119917
-9.66017e-05
-0.000139694
-0.000121222
-0.000159232
-0.000149219
-0.000178122
-0.000181224
-0.000195903
-0.000217689
-0.000212042
-0.000258739
-0.000225936
-0.000304003
-0.00023695
-0.000352445
-0.000244523
-0.000402173
-0.00024842
-0.000450283
-0.000249096
-0.000493386
-0.000528726
-0.000247678
-2.26873e-06
8.2131e-06
-8.3455e-06
1.38492e-05
-1.76955e-05
1.1996e-05
-2.97792e-05
4.6269e-06
-4.40666e-05
-6.73328e-06
-6.00508e-05
-2.10356e-05
-7.72541e-05
-3.77278e-05
-9.52306e-05
-5.67135e-05
-0.00011356
-7.8272e-05
-0.000131837
-0.000102946
-0.000149649
-0.000131407
-0.00016655
-0.000164322
-0.000182036
-0.000202203
-0.000195514
-0.000245261
-0.000206291
-0.000293227
-0.000213599
-0.000345137
-0.000216692
-0.00039908
-0.000215105
-0.00045187
-0.000209135
-0.000499356
-0.000538028
-0.000199833
-2.13374e-06
1.03468e-05
-7.8717e-06
1.95872e-05
-1.67129e-05
2.08372e-05
-2.81363e-05
1.60503e-05
-4.16188e-05
6.74926e-06
-5.66502e-05
-6.0043e-06
-7.27419e-05
-2.1636e-05
-8.94309e-05
-4.00245e-05
-0.000106275
-6.14275e-05
-0.000122843
-8.6378e-05
-0.000138691
-0.000115559
-0.000153339
-0.000149674
-0.00016624
-0.000189302
-0.000176744
-0.000234757
-0.000184078
-0.000285892
-0.000187352
-0.000341863
-0.000185633
-0.000400799
-0.000178204
-0.000459298
-0.000165152
-0.000512408
-0.000555828
-0.000147352
-1.98357e-06
1.23304e-05
-7.34275e-06
2.49464e-05
-1.56133e-05
2.91077e-05
-2.62952e-05
2.67322e-05
-3.8873e-05
1.9327e-05
-5.28332e-05
7.95592e-06
-6.76755e-05
-6.7937e-06
-8.29178e-05
-2.47822e-05
-9.80935e-05
-4.62518e-05
-0.000112741
-7.17306e-05
-0.000126384
-0.000101916
-0.000138507
-0.000137551
-0.000148519
-0.00017929
-0.000155721
-0.000227555
-0.000159269
-0.000282344
-0.000158166
-0.000342967
-0.000151304
-0.00040766
-0.000137711
-0.000472892
-0.000117236
-0.000532884
-0.000582582
-9.04812e-05
-1.82032e-06
1.41507e-05
-6.76528e-06
2.98913e-05
-1.44093e-05
3.67518e-05
-2.42747e-05
3.65976e-05
-3.58542e-05
3.09065e-05
-4.86309e-05
2.07326e-05
-6.20913e-05
6.66667e-06
-7.57318e-05
-1.11416e-05
-8.90583e-05
-3.29254e-05
-0.000101576
-5.92128e-05
-0.000112773
-9.07193e-05
-0.000122093
-0.00012823
-0.000128906
-0.000172478
-0.000132464
-0.000223997
-0.000131866
-0.000282942
-0.000126025
-0.000348808
-0.000113681
-0.000420004
-9.35898e-05
-0.000492984
-6.54613e-05
-0.000561012
-0.000617995
-3.00488e-05
-1.6463e-06
1.5797e-05
-6.14669e-06
3.43917e-05
-1.3115e-05
4.37202e-05
-2.20962e-05
4.55788e-05
-3.25914e-05
4.14017e-05
-4.40796e-05
3.22208e-05
-5.60323e-05
1.86194e-05
-6.79225e-05
7.48584e-07
-7.92247e-05
-2.16232e-05
-8.94077e-05
-4.90298e-05
-9.79188e-05
-8.22082e-05
-0.00010416
-0.000121989
-0.000107457
-0.00016918
-0.000107022
-0.000224432
-0.000101905
-0.000288059
-9.09534e-05
-0.000359759
-7.27864e-05
-0.000438171
-4.58034e-05
-0.000519967
-8.79025e-06
-0.000598025
-0.000661807
3.50217e-05
-1.46402e-06
1.7261e-05
-5.49501e-06
3.84227e-05
-1.17457e-05
4.99709e-05
-1.97834e-05
5.36164e-05
-2.91169e-05
5.07352e-05
-3.922e-05
4.23239e-05
-4.95479e-05
2.89473e-05
-5.95473e-05
1.0748e-05
-6.86584e-05
-1.25121e-05
-7.63092e-05
-4.1379e-05
-8.19021e-05
-7.66153e-05
-8.47929e-05
-0.000119098
-8.42631e-05
-0.00016971
-7.94837e-05
-0.000229212
-6.94689e-05
-0.000298074
-5.30231e-05
-0.000376205
-2.87008e-05
-0.000462493
5.07076e-06
-0.000553738
5.00403e-05
-0.000642995
-0.000717249
0.000105483
-1.27608e-06
1.85371e-05
-4.81868e-06
4.19653e-05
-1.03177e-05
5.54699e-05
-1.73613e-05
6.06601e-05
-2.54653e-05
5.88392e-05
-3.40968e-05
5.09554e-05
-4.26927e-05
3.75433e-05
-5.0671e-05
1.87263e-05
-5.74344e-05
-5.74872e-06
-6.23663e-05
-3.64471e-05
-6.48198e-05
-7.41619e-05
-6.41002e-05
-0.000119818
-5.94415e-05
-0.000174369
-4.99751e-05
-0.000238678
-3.46858e-05
-0.000313363
-1.23603e-05
-0.000398531
1.85062e-05
-0.00049336
5.97798e-05
-0.000595012
0.000112851
-0.000696067
-0.000782966
0.000178568
-1.08518e-06
1.96223e-05
-4.1264e-06
4.50065e-05
-8.84773e-06
6.01912e-05
-1.48564e-05
6.66688e-05
-2.16731e-05
6.56559e-05
-2.8757e-05
5.80392e-05
-3.55248e-05
4.43111e-05
-4.13635e-05
2.4565e-05
-4.5635e-05
-1.47716e-06
-4.76747e-05
-3.44075e-05
-4.67822e-05
-7.50543e-05
-4.22083e-05
-0.000124392
-3.3136e-05
-0.000183441
-1.86571e-05
-0.000253157
2.26067e-06
-0.000334281
3.0849e-05
-0.000427119
6.8588e-05
-0.000531099
0.000117379
-0.000643802
0.000178996
-0.000757684
-0.000858599
0.00025463
-8.93959e-07
2.05163e-05
-3.42687e-06
4.75394e-05
-7.35286e-06
6.41172e-05
-1.22953e-05
7.16112e-05
-1.77776e-05
7.11382e-05
-2.32491e-05
6.35107e-05
-2.81045e-05
4.91665e-05
-3.16975e-05
2.8158e-05
-3.33469e-05
1.72199e-07
-3.23364e-05
-3.5418e-05
-2.79089e-05
-7.94818e-05
-1.92567e-05
-0.000133044
-5.50914e-06
-0.000197189
1.42838e-05
-0.00027295
4.11769e-05
-0.000361174
7.63661e-05
-0.000462308
0.000121296
-0.000576029
0.000177828
-0.000700335
0.00024798
-0.000827836
-0.000943839
0.00033322
-7.04983e-07
2.12212e-05
-2.72853e-06
4.9563e-05
-5.84962e-06
6.72383e-05
-9.70405e-06
7.54656e-05
-1.38155e-05
7.52497e-05
-1.76213e-05
6.73165e-05
-2.04922e-05
5.20374e-05
-2.17466e-05
2.94123e-05
-2.06577e-05
-9.16653e-07
-1.64554e-05
-3.96203e-05
-8.32284e-06
-8.76143e-05
4.60856e-06
-0.000145976
2.32663e-05
-0.000215846
4.86412e-05
-0.000298325
8.18004e-05
-0.000394333
0.00012391
-0.000504418
0.000176321
-0.000628439
0.000240767
-0.000764781
0.000319396
-0.000906465
-0.00103823
0.000413789
-5.20644e-07
2.17419e-05
-2.03934e-06
5.10817e-05
-4.35374e-06
6.95527e-05
-7.10774e-06
7.82196e-05
-9.82221e-06
7.79642e-05
-1.192e-05
6.94142e-05
-1.2746e-05
5.28635e-05
-1.15816e-05
2.82479e-05
-7.65275e-06
-4.84555e-06
-1.3323e-07
-4.71398e-05
1.18553e-05
-9.96029e-05
2.92442e-05
-0.000163364
5.30169e-05
-0.000239619
8.42057e-05
-0.000329514
0.000123886
-0.000434013
0.00017318
-0.000553712
0.000233311
-0.000688571
0.000305793
-0.000837263
0.000392797
-0.000993469
-0.00114116
0.000495729
-3.43082e-07
2.2085e-05
-1.36646e-06
5.21051e-05
-2.87951e-06
7.10657e-05
-4.52924e-06
7.98693e-05
-5.8301e-06
7.9265e-05
-6.18799e-06
6.97721e-05
-4.91999e-06
5.15955e-05
-1.26863e-06
2.45966e-05
5.58903e-06
-1.17032e-05
1.65363e-05
-5.80871e-05
3.25135e-05
-0.00011558
5.45149e-05
-0.000185366
8.35794e-05
-0.000268684
0.000120776
-0.000366711
0.000167183
-0.00048042
0.000223865
-0.000610394
0.000291893
-0.000756599
0.000372469
-0.000917838
0.000467695
-0.00108869
-0.00125184
0.000578375
-1.74126e-07
2.22591e-05
-7.16117e-07
5.26471e-05
-1.43939e-06
7.1789e-05
-1.98858e-06
8.04185e-05
-1.86776e-06
7.91442e-05
-4.63049e-07
6.83674e-05
2.93847e-06
4.81939e-05
9.13473e-06
1.84003e-05
1.89985e-05
-2.1567e-05
3.34707e-05
-7.25593e-05
5.35538e-05
-0.000135663
8.03026e-05
-0.000212115
0.000114808
-0.000303189
0.000158171
-0.000410073
0.00021146
-0.000533709
0.000275669
-0.000674602
0.000351693
-0.000832623
0.000440344
-0.00100649
0.000543568
-0.00119192
-0.00136929
0.000661011
-1.5278e-08
2.22744e-05
-9.32691e-08
5.2725e-05
-4.34871e-08
7.17392e-05
4.97828e-07
7.98772e-05
2.04132e-06
7.76007e-05
5.2238e-06
6.51849e-05
1.07905e-05
4.26273e-05
1.95811e-05
9.60971e-06
3.25193e-05
-3.45052e-05
5.06034e-05
-9.06434e-05
7.48965e-05
-0.000159956
0.000106511
-0.000243729
0.000146582
-0.000343261
0.000196233
-0.000459724
0.000256509
-0.000593986
0.000328314
-0.000746407
0.000412344
-0.000916654
0.000508965
-0.00110311
0.000619881
-0.00130284
-0.00149229
0.000742885
1.32664e-07
2.21417e-05
4.98464e-07
5.23592e-05
1.30076e-06
7.09369e-05
2.91781e-06
7.82602e-05
5.87964e-06
7.46389e-05
1.08494e-05
6.02152e-05
1.8607e-05
3.48696e-05
3.00357e-05
-1.81899e-06
4.61105e-05
-5.05799e-05
6.78862e-05
-0.000112419
9.64835e-05
-0.000188554
0.000133066
-0.000280311
0.000178806
-0.000389001
0.000234832
-0.000515749
0.00030215
-0.000661304
0.000381546
-0.000825803
0.000473493
-0.0010086
0.000577888
-0.0012075
0.000696083
-0.00142103
-0.00161945
0.000823241
2.68879e-07
2.18728e-05
1.05704e-06
5.15711e-05
2.5889e-06
6.94051e-05
5.26392e-06
7.55852e-05
9.63642e-06
7.02664e-05
1.63996e-05
5.3452e-05
2.63708e-05
2.48985e-05
4.04781e-05
-1.59263e-05
5.9748e-05
-6.98497e-05
8.52904e-05
-0.000137962
0.000118279
-0.000221542
0.000159921
-0.000321953
0.00021141
-0.000440491
0.000273864
-0.000578202
0.000348222
-0.000735662
0.00043513
-0.000912711
0.000534796
-0.00110827
0.000646669
-0.00131938
0.000771558
-0.00154592
-0.0017493
0.000901408
3.93461e-07
2.14794e-05
1.58197e-06
5.03826e-05
3.81967e-06
6.71674e-05
7.53378e-06
7.1871e-05
1.33081e-05
6.44921e-05
2.18698e-05
4.48902e-05
3.40763e-05
1.2692e-05
5.09022e-05
-3.27522e-05
7.34252e-05
-9.23727e-05
0.000102807
-0.000167344
0.000140269
-0.000259004
0.000187048
-0.000368732
0.000244344
-0.000497787
0.000313237
-0.000647095
0.000394574
-0.000816999
0.000488832
-0.00100697
0.000595935
-0.00121537
0.000714934
-0.00143838
0.000845551
-0.00167654
-0.00188075
0.000976998
5.06835e-07
2.09725e-05
2.07446e-06
4.8815e-05
4.99503e-06
6.42468e-05
9.73017e-06
6.71359e-05
1.68985e-05
5.73238e-05
2.72652e-05
3.45235e-05
4.17306e-05
-1.77344e-06
6.13171e-05
-5.23387e-05
8.71524e-05
-0.000118208
0.000120446
-0.000200638
0.000162457
-0.000301014
0.000214438
-0.000420713
0.000277569
-0.000560919
0.000352862
-0.000722388
0.000441039
-0.000905175
0.000542389
-0.00110832
0.000656596
-0.00132957
0.000782528
-0.00156431
0.000917643
-0.00181165
-0.00201301
0.00104991
6.09923e-07
2.03626e-05
2.53725e-06
4.68876e-05
6.12011e-06
6.06639e-05
1.1861e-05
6.1395e-05
2.04187e-05
4.87661e-05
3.26005e-05
2.23417e-05
4.93525e-05
-1.85254e-05
7.17455e-05
-7.47316e-05
0.000100955
-0.000147418
0.000138233
-0.000237916
0.000184862
-0.000347642
0.00024209
-0.000477942
0.000311049
-0.000629878
0.00039264
-0.000803979
0.000487412
-0.000999947
0.000595439
-0.00121635
0.000716241
-0.00145038
0.000849039
-0.00169711
0.000989538
-0.00195215
-0.00214227
0.00111879
7.03987e-07
1.96586e-05
2.97447e-06
4.46171e-05
7.20286e-06
5.64355e-05
1.39388e-05
5.46591e-05
2.38864e-05
3.88185e-05
3.78992e-05
8.32881e-06
5.69714e-05
-3.75976e-05
8.22224e-05
-9.99826e-05
0.000114872
-0.000180068
0.000156205
-0.000279248
0.000207511
-0.000398948
0.00027001
-0.00054044
0.000344742
-0.000704611
0.000432452
-0.000891689
0.000533452
-0.00110095
0.00064753
-0.00133043
0.000773933
-0.00157678
0.000911933
-0.00183511
0.00106027
-0.00210048
-0.00233976
0.00125776
7.91006e-07
1.88676e-05
3.39204e-06
4.20161e-05
8.25443e-06
5.15731e-05
1.59808e-05
4.69327e-05
2.73256e-05
2.74738e-05
4.31924e-05
-7.53803e-06
6.46254e-05
-5.90306e-05
9.27914e-05
-0.000128149
0.00012895
-0.000216226
0.000174404
-0.000324703
0.000230433
-0.000454977
0.000298191
-0.000608198
0.000378589
-0.000785009
0.000472151
-0.000985251
0.000578884
-0.00120768
0.000698197
-0.00144974
0.000828914
-0.0017075
0.000969942
-0.00197613
0.00111929
-0.00224983
-0.00251177
0.0012913
8.72961e-07
1.79947e-05
3.7965e-06
3.90926e-05
9.28764e-06
4.6082e-05
1.80073e-05
3.8213e-05
3.07648e-05
1.47162e-05
4.85172e-05
-2.52903e-05
7.23593e-05
-8.28728e-05
0.000103503
-0.000159292
0.000143239
-0.000255962
0.000192874
-0.000374338
0.00025365
-0.000515752
0.000326619
-0.000681168
0.00041251
-0.0008709
0.000511569
-0.00108431
0.000623426
-0.00131954
0.000747036
-0.00157335
0.000880687
-0.00184115
0.00102252
-0.00211797
0.00116956
-0.00239687
-0.00266849
0.00132628
9.52192e-07
1.70425e-05
4.1954e-06
3.58494e-05
1.03172e-05
3.99602e-05
2.00414e-05
2.84888e-05
3.42363e-05
5.21374e-07
5.39144e-05
-4.49685e-05
8.02217e-05
-0.00010918
0.00011441
-0.000193481
0.00015779
-0.000299341
0.000211653
-0.000428202
0.000277172
-0.000581271
0.000355256
-0.000759252
0.000446396
-0.000962041
0.000550504
-0.00118842
0.000666777
-0.00143581
0.000793667
-0.00170024
0.000928912
-0.00197639
0.00106992
-0.00225898
0.00121324
-0.00254019
-0.00281404
0.00135879
1.03119e-06
1.60113e-05
4.59685e-06
3.22837e-05
1.13588e-05
3.31982e-05
2.21078e-05
1.77398e-05
3.77739e-05
-1.51447e-05
5.9427e-05
-6.66215e-05
8.82617e-05
-0.000138015
0.000125563
-0.000230782
0.000172647
-0.000346425
0.000230767
-0.000486322
0.000300988
-0.000651492
0.000384033
-0.000842296
0.000480102
-0.00105811
0.000588718
-0.00129703
0.000708611
-0.0015557
0.000837719
-0.00182935
0.000973276
-0.00211195
0.00111212
-0.00239782
0.0012506
-0.00267867
-0.00295021
0.00138678
1.11252e-06
1.48988e-05
5.00915e-06
2.83871e-05
1.24288e-05
2.57786e-05
2.42317e-05
5.93692e-06
4.1412e-05
-3.23251e-05
6.50968e-05
-9.03063e-05
9.65258e-05
-0.000169444
0.000137008
-0.000271264
0.000187844
-0.000397262
0.000250222
-0.000548699
0.000325062
-0.000726332
0.000412848
-0.000930082
0.000513443
-0.00115871
0.000625939
-0.00140953
0.000748581
-0.00167834
0.000878816
-0.00195958
0.00101346
-0.0022466
0.001149
-0.00253336
0.00128178
-0.00281146
-0.00307777
0.00140933
1.19872e-06
1.37e-05
5.4406e-06
2.41452e-05
1.3543e-05
1.76762e-05
2.64375e-05
-6.9576e-06
4.51835e-05
-5.10711e-05
7.0963e-05
-0.000116086
0.000105055
-0.000203536
0.000148778
-0.000314987
0.000203399
-0.000451883
0.000270003
-0.000615303
0.000349325
-0.000805655
0.000441564
-0.00102232
0.000546198
-0.00126334
0.000661863
-0.00152519
0.000786324
-0.00180281
0.000916595
-0.00208985
0.00104919
-0.00237919
0.00118042
-0.00266459
0.00130685
-0.00293788
-0.00319699
0.00142608
1.29223e-06
1.24078e-05
5.89898e-06
1.95384e-05
1.47164e-05
8.85873e-06
2.87483e-05
-2.09894e-05
4.91178e-05
-7.14406e-05
7.70592e-05
-0.000144027
0.000113881
-0.000240357
0.000160895
-0.000362001
0.000219307
-0.000510296
0.000290066
-0.000686062
0.000373677
-0.000889265
0.000470005
-0.00111865
0.000578111
-0.00137145
0.000696165
-0.00164325
0.00082148
-0.00192812
0.000950718
-0.00221909
0.00108022
-0.00250869
0.00120631
-0.00279068
0.00132589
-0.00305747
-0.00330804
0.00143694
1.39524e-06
1.10126e-05
6.39145e-06
1.45422e-05
1.59627e-05
-7.12533e-07
3.11838e-05
-3.62105e-05
5.32404e-05
-9.34972e-05
8.34119e-05
-0.000174199
0.000123025
-0.00027997
0.000173365
-0.000412341
0.000235547
-0.000572477
0.000310343
-0.000760858
0.000397983
-0.000976905
0.000497964
-0.00121863
0.000608903
-0.00148239
0.000728511
-0.00176285
0.000853705
-0.00205331
0.000980891
-0.00234628
0.00110636
-0.00263416
0.00122663
-0.00291095
0.00133905
-0.00316989
-0.00341106
0.00144206
1.5097e-06
9.50286e-06
6.92418e-06
9.12776e-06
1.72933e-05
-1.10816e-05
3.37609e-05
-5.26782e-05
5.75704e-05
-0.000117307
9.00387e-05
-0.000206667
0.000132495
-0.000322426
0.000186174
-0.00046602
0.000252068
-0.000638371
0.000330732
-0.000839522
0.000422081
-0.00106825
0.000525207
-0.00132176
0.000638277
-0.00159546
0.000758573
-0.00188315
0.000882686
-0.00217743
0.00100688
-0.00247047
0.00112752
-0.00275481
0.00124145
-0.00302487
0.00134653
-0.00327497
-0.00350625
0.00144173
1.63723e-06
7.86563e-06
7.50233e-06
3.26266e-06
1.87174e-05
-2.22966e-05
3.64919e-05
-7.04527e-05
6.21207e-05
-0.000142936
9.6947e-05
-0.000241493
0.000142284
-0.000367763
0.000199291
-0.000523027
0.0002688
-0.000707879
0.000351109
-0.000921831
0.00044578
-0.00116293
0.000551481
-0.00142746
0.000665936
-0.00170991
0.000786044
-0.00200326
0.00090816
-0.00229954
0.00102852
-0.00259083
0.00114369
-0.00286999
0.00125092
-0.00313211
0.00134864
-0.00337268
-0.00359392
0.0014363
1.77909e-06
6.08654e-06
8.12976e-06
-3.08802e-06
2.02417e-05
-3.44086e-05
3.93846e-05
-8.95956e-05
6.68967e-05
-0.000170448
0.000104134
-0.00027873
0.000152373
-0.000416002
0.000212665
-0.00058332
0.000285647
-0.000780862
0.000371324
-0.00100751
0.000468872
-0.00126047
0.000576526
-0.00153511
0.000691591
-0.00182498
0.00081065
-0.00212232
0.000929919
-0.00241881
0.00104572
-0.00270662
0.00115492
-0.00297919
0.00125526
-0.00323245
0.00134571
-0.00346312
-0.00367442
0.00142621
1.93617e-06
4.15037e-06
8.80909e-06
-9.96094e-06
2.18701e-05
-4.74696e-05
4.24421e-05
-0.000110168
7.18963e-05
-0.000199902
0.000111585
-0.000318419
0.000162724
-0.000467141
0.000226227
-0.000646823
0.000302497
-0.000857132
0.000391209
-0.00109622
0.000491136
-0.0013604
0.000600081
-0.00164405
0.000714975
-0.00193987
0.000832161
-0.0022395
0.000947823
-0.00253447
0.00105847
-0.00281727
0.00116137
-0.00308209
0.00125476
-0.00332584
0.00133815
-0.00354651
-0.00374817
0.00141191
2.10894e-06
2.04143e-06
9.54145e-06
-1.73935e-05
2.36035e-05
-6.15316e-05
4.56625e-05
-0.000132227
7.711e-05
-0.000231349
0.000119276
-0.000360584
0.000173289
-0.000521154
0.000239891
-0.000713426
0.000319218
-0.000936458
0.000410583
-0.00118759
0.000512345
-0.00146216
0.000621897
-0.00175361
0.000735851
-0.00205383
0.0008504
-0.00235405
0.000961797
-0.00264587
0.00106683
-0.00292231
0.00116322
-0.00317848
0.00124974
-0.00341235
0.00132637
-0.00362315
-0.00381566
0.00139386
2.29747e-06
-2.5604e-07
1.03266e-05
-2.54226e-05
2.544e-05
-7.66449e-05
4.90391e-05
-0.000155826
8.25211e-05
-0.000264831
0.000127172
-0.000405235
0.000184005
-0.000577988
0.000253559
-0.00078298
0.000335665
-0.00101856
0.000429258
-0.00128118
0.000532279
-0.00156518
0.000641747
-0.00186307
0.000754023
-0.0021661
0.000865247
-0.00246527
0.000971836
-0.00275246
0.00107094
-0.00302141
0.00116076
-0.0032683
0.00124057
-0.00349216
0.00131081
-0.0036934
-0.00387736
0.00137252
2.50152e-06
-2.75756e-06
1.11632e-05
-3.40843e-05
2.73749e-05
-9.28566e-05
5.25606e-05
-0.000181011
8.81059e-05
-0.000300377
0.00013523
-0.000452358
0.000194801
-0.00063756
0.00026712
-0.000855298
0.000351688
-0.00110313
0.000447044
-0.00137653
0.000550727
-0.00166887
0.000659428
-0.00197178
0.00076934
-0.00227602
0.00087664
-0.00257257
0.000977996
-0.00285382
0.00107098
-0.00311439
0.00115426
-0.00335159
0.00122763
-0.00356552
0.0012919
-0.00375766
-0.00393378
0.00134831
2.72052e-06
-5.47808e-06
1.20487e-05
-4.34125e-05
2.94014e-05
-0.000110209
5.62116e-05
-0.000207822
9.3835e-05
-0.000338
0.000143398
-0.000501921
0.000205595
-0.000699757
0.000280456
-0.000930159
0.000367129
-0.00118981
0.000463755
-0.00147316
0.000567496
-0.00177261
0.000674775
-0.00207906
0.000781699
-0.00238294
0.000884572
-0.00267545
0.000980389
-0.00294963
0.00106716
-0.00320117
0.00114407
-0.00342849
0.00121132
-0.00363277
0.00127003
-0.00381638
-0.00398538
0.00132164
2.9537e-06
-8.43178e-06
1.29795e-05
-5.34383e-05
3.15105e-05
-0.00012874
5.99734e-05
-0.000236285
9.96736e-05
-0.0003777
0.000151619
-0.000553867
0.000216299
-0.000764437
0.000293445
-0.00100731
0.000381836
-0.0012782
0.000479218
-0.00157054
0.000582418
-0.00187581
0.000687658
-0.0021843
0.000791044
-0.00248632
0.000889092
-0.00277349
0.000979172
-0.00303971
0.00105977
-0.00328176
0.00113051
-0.00349924
0.001192
-0.00369426
0.00124561
-0.00386999
-0.00403263
0.00129285
3.20006e-06
-1.16318e-05
1.39516e-05
-6.41899e-05
3.36914e-05
-0.00014848
6.38242e-05
-0.000266417
0.000105583
-0.000419459
0.00015983
-0.000608114
0.00022682