/*--------------------------------*- C++ -*----------------------------------*\
  =========                 |
  \\      /  F ield         | OpenFOAM: The Open Source CFD Toolbox
   \\    /   O peration     | Website:  https://openfoam.org
    \\  /    A nd           | Version:  7
     \\/     M anipulation  |
\*---------------------------------------------------------------------------*/
FoamFile
{
    version     2.0;
    format      ascii;
    class       surfaceScalarField;
    location    "15";
    object      phi;
}
// * * * * * * * * * * * * * * * * * * * * * * * * * * * * * * * * * * * * * //

dimensions      [0 3 -1 0 0 0 0];

internalField   nonuniform List<scalar> 
19595
(
-6.42603e-06
6.4253e-06
7.30041e-10
-2.28221e-05
1.63942e-05
1.80632e-09
-4.75984e-05
2.47737e-05
2.62923e-09
-7.92533e-05
3.16516e-05
3.22204e-09
-0.00011651
3.72527e-05
3.63551e-09
-0.000158428
4.19141e-05
3.93387e-09
-0.000204548
4.61164e-05
4.17778e-09
-0.000255086
5.05338e-05
4.40717e-09
-0.000311154
5.60625e-05
4.63879e-09
6.35549e-05
4.85308e-09
-0.000374713
-6.36433e-06
1.27896e-05
-2.26129e-05
3.26427e-05
-4.71641e-05
4.9325e-05
-7.85125e-05
6.3e-05
-0.000115363
7.41033e-05
-0.000156742
8.32926e-05
-0.000202134
9.15091e-05
-0.000251681
0.00010008
-0.000306415
0.000110796
0.00012532
-0.00036818
-6.24291e-06
1.90325e-05
-2.22004e-05
4.86002e-05
-4.63067e-05
7.34313e-05
-7.70488e-05
9.37421e-05
-0.000113097
0.000110151
-0.000153407
0.000123603
-0.00019736
0.000135461
-0.000244944
0.000147665
-0.00029704
0.000162892
0.00018353
-0.00035525
-6.06566e-06
2.50982e-05
-2.15964e-05
6.4131e-05
-4.50483e-05
9.68832e-05
-7.4897e-05
0.000123591
-0.000109761
0.000145015
-0.000148499
0.000162341
-0.000190329
0.000177291
-0.000235019
0.000192355
-0.000283225
0.000211099
0.000236495
-0.00033619
-5.83818e-06
3.09364e-05
-2.08175e-05
7.91103e-05
-4.34202e-05
0.000119486
-7.21069e-05
0.000152277
-0.00010543
0.000178339
-0.00014212
0.000199031
-0.000181189
0.00021636
-0.00022211
0.000233276
-0.00026525
0.000254239
0.00028261
-0.000311364
-5.56749e-06
3.65039e-05
-1.98847e-05
9.34274e-05
-4.1462e-05
0.000141063
-6.87405e-05
0.000179556
-0.000100195
0.000209793
-0.000134401
0.000233237
-0.000170122
0.000252081
-0.000206466
0.00026962
-0.000243452
0.000291225
0.000320361
-0.000281204
-5.26167e-06
4.17655e-05
-1.88221e-05
0.000106988
-3.92186e-05
0.00016146
-6.48683e-05
0.000205206
-9.41567e-05
0.000239082
-0.000125486
0.000264566
-0.00015733
0.000283924
-0.000188365
0.000300655
-0.000218203
0.000321063
0.000348321
-0.000246162
-4.92946e-06
4.6695e-05
-1.76557e-05
0.000119714
-3.67384e-05
0.000180542
-6.05647e-05
0.000229032
-8.74229e-05
0.00026594
-0.000115525
0.000292668
-0.000143022
0.000311421
-0.000168087
0.00032572
-0.000189872
0.000342848
0.000365121
-0.000206673
-4.57987e-06
5.12749e-05
-1.64121e-05
0.000131546
-3.407e-05
0.0001982
-5.59038e-05
0.000250866
-8.00968e-05
0.000290133
-0.000104658
0.00031723
-0.000127391
0.000334154
-0.000145894
0.000344224
-0.000158789
0.000355743
0.000369438
-0.000163106
-4.22173e-06
5.54966e-05
-1.51171e-05
0.000142442
-3.12599e-05
0.000214343
-5.09538e-05
0.00027056
-7.227e-05
0.000311449
-9.30063e-05
0.000337966
-0.000110595
0.000351742
-0.000121994
0.000355624
-0.000125194
0.000358943
0.000359992
-0.000115747
-3.86333e-06
5.93599e-05
-1.37945e-05
0.000152373
-2.83495e-05
0.000228898
-4.57722e-05
0.000287983
-6.40131e-05
0.00032969
-8.0651e-05
0.000354604
-9.27287e-05
0.00036382
-9.64995e-05
0.000359394
-8.917e-05
0.000351613
0.000335687
-6.4865e-05
-3.51205e-06
6.2872e-05
-1.24648e-05
0.000161325
-2.53725e-05
0.000241806
-4.04011e-05
0.000303011
-5.53681e-05
0.000344657
-6.76236e-05
0.000366859
-7.38038e-05
0.00037
-6.93773e-05
0.000354968
-5.04323e-05
0.000332668
0.000296914
-1.16597e-05
-3.1741e-06
6.60461e-05
-1.11445e-05
0.000169296
-2.23531e-05
0.000253014
-3.48634e-05
0.000315521
-4.63403e-05
0.000356134
-5.38911e-05
0.00037441
-5.37359e-05
0.000369845
-4.05062e-05
0.000341738
-7.10996e-06
0.000299272
0.000240602
4.92026e-05
-2.85428e-06
6.89004e-05
-9.84481e-06
0.000176286
-1.9304e-05
0.000262474
-2.91591e-05
0.000325377
-3.68924e-05
0.000363867
-3.93412e-05
0.000376859
-3.22939e-05
0.000362798
-1.00425e-05
0.000319487
3.6641e-05
0.000252589
0.000162074
0.000115168
-2.55589e-06
7.14563e-05
-8.57163e-06
0.000182302
-1.62253e-05
0.000270127
-2.3264e-05
0.000332415
-2.69415e-05
0.000367545
-2.37763e-05
0.000373694
-8.97789e-06
0.000347999
2.39071e-05
0.000286602
8.54983e-05
0.000190997
5.99023e-05
0.00018767
-2.28056e-06
7.37368e-05
-7.32487e-06
0.000187346
-1.31043e-05
0.000275907
-1.71293e-05
0.00033644
-1.63603e-05
0.000366776
-6.93465e-06
0.000364268
1.65261e-05
0.000324539
6.15509e-05
0.000241577
0.000140608
0.00011194
-6.80702e-05
0.00026858
-2.02819e-06
7.5765e-05
-6.09823e-06
0.000191416
-9.91441e-06
0.000279723
-1.06813e-05
0.000337207
-4.97805e-06
0.000361072
1.15563e-05
0.000347734
4.49669e-05
0.000291128
0.000103779
0.000182765
0.000203479
1.22405e-05
-0.000224279
0.000359688
-1.79684e-06
7.75619e-05
-4.87878e-06
0.000194498
-6.61542e-06
0.00028146
-3.82167e-06
0.000334413
7.41417e-06
0.000349837
3.21006e-05
0.000323047
7.71444e-05
0.000246084
0.000151946
0.000107963
0.000276043
-0.000111857
-0.000410929
0.000462693
-1.58253e-06
7.91444e-05
-3.6465e-06
0.000196562
-3.15271e-06
0.000280966
3.57023e-06
0.00032769
2.10593e-05
0.000332347
5.51515e-05
0.000288955
0.00011385
0.000187385
0.000207399
1.44153e-05
0.000360268
-0.000264726
-0.000629482
0.000578821
-1.37907e-06
8.05235e-05
-2.37352e-06
0.000197557
5.47093e-07
0.000278045
1.16388e-05
0.000316599
3.62311e-05
0.000307755
8.11996e-05
0.000243987
0.000155908
0.000112676
0.000271489
-0.000101165
0.0004578
-0.000451038
-0.000879997
0.000708315
-1.17776e-06
8.17012e-05
-1.02135e-06
0.0001974
4.55878e-06
0.000272465
2.05542e-05
0.000300603
5.32327e-05
0.000275077
0.00011075
0.000186469
0.000204097
1.93292e-05
0.000345498
-0.000242566
0.000569544
-0.000675084
-0.00116049
0.000850033
-9.67756e-07
8.2669e-05
4.54431e-07
0.000195978
8.99703e-06
0.000263922
3.05135e-05
0.000279087
7.23965e-05
0.000233194
0.000144319
0.000114547
0.000259107
-9.54591e-05
0.000430545
-0.000414004
0.000695182
-0.000939721
-0.00146678
0.00100147
-7.36554e-07
8.34055e-05
2.08292e-06
0.000193159
1.39788e-05
0.000252027
4.1741e-05
0.000251325
9.40847e-05
0.00018085
0.000182423
2.62078e-05
0.00032151
-0.000234546
0.000527497
-0.000619991
0.000832807
-0.00124503
-0.00179347
0.0011595
-4.67943e-07
8.38735e-05
3.9608e-06
0.00018873
1.96465e-05
0.000236341
5.4487e-05
0.000216484
0.000118682
0.000116655
0.000225559
-8.06698e-05
0.000391721
-0.000400707
0.00063671
-0.000864979
0.000979378
-0.0015877
-0.00213728
0.00132319
-1.21632e-07
8.39951e-05
6.14945e-06
0.000182459
2.61543e-05
0.000216336
6.90212e-05
0.000173617
0.000146578
3.90978e-05
0.000274152
-0.000208243
0.000469879
-0.000596435
0.000756789
-0.00115189
0.00113355
-0.00196446
-0.0025034
0.00149967
2.99936e-07
8.36952e-05
8.72243e-06
0.000174036
3.36656e-05
0.000191393
8.56203e-05
0.000121663
0.000178146
-5.34281e-05
0.000328503
-0.0003586
0.000555719
-0.000823651
0.000882997
-0.00147917
0.0012892
-0.00237067
-0.00311871
0.00190452
8.18467e-07
8.28767e-05
1.17591e-05
0.000163096
4.23462e-05
0.000160806
0.000104551
5.94575e-05
0.000213704
-0.000162581
0.000388728
-0.000533624
0.000648619
-0.00108354
0.0010121
-0.00184265
0.00145048
-0.00280905
-0.00371321
0.00204498
1.46913e-06
8.14076e-05
1.53373e-05
0.000149228
5.23522e-05
0.000123791
0.000126047
-1.42375e-05
0.000253469
-0.000290003
0.000454667
-0.000734822
0.000747289
-0.00137616
0.00114102
-0.00223637
0.00160376
-0.00327179
-0.00428077
0.00217132
2.2707e-06
7.91369e-05
1.9528e-05
0.00013197
6.38196e-05
7.94992e-05
0.000150282
-0.0001007
0.0002975
-0.00043722
0.000525785
-0.000963106
0.000849565
-0.00169994
0.00126692
-0.00265373
0.00174082
-0.00374569
-0.0048159
0.00227595
3.24195e-06
7.58949e-05
2.43919e-05
0.00011082
7.68527e-05
2.70384e-05
0.000177345
-0.000201192
0.000345638
-0.000605514
0.000601081
-0.00121855
0.000952549
-0.00205141
0.00138534
-0.00308652
0.0018568
-0.00421715
-0.00531182
0.00235272
4.39895e-06
7.1496e-05
2.99756e-05
8.52438e-05
9.15143e-05
-3.45004e-05
0.000207212
-0.00031689
0.000397458
-0.000795759
0.000679046
-0.00150014
0.00105288
-0.00242524
0.00149171
-0.00352535
0.00194874
-0.00467419
-0.0057642
0.00240113
5.75428e-06
6.57417e-05
3.63095e-05
5.46885e-05
0.000107818
-0.000106008
0.000239734
-0.000448807
0.000452238
-0.00100826
0.000757688
-0.00180559
0.00114704
-0.00281459
0.00158223
-0.00396054
0.00201541
-0.00510737
-0.00617133
0.00242254
7.31672e-06
5.8425e-05
4.34056e-05
1.85997e-05
0.00012572
-0.000188323
0.000274619
-0.000597705
0.000508957
-0.0012426
0.000834658
-0.00213129
0.00123175
-0.00321168
0.00165437
-0.00438316
0.00205715
-0.00551015
-0.00653376
0.00241958
9.09118e-06
4.93338e-05
5.12561e-05
-2.35652e-05
0.000145119
-0.000282185
0.00031142
-0.000764007
0.000566313
-0.00149749
0.000907462
-0.00247244
0.00130427
-0.00360848
0.00170689
-0.00478578
0.00207545
-0.00587872
-0.00685376
0.00239545
1.10786e-05
3.82551e-05
5.98324e-05
-7.2319e-05
0.000165847
-0.000388199
0.000349541
-0.000947701
0.000622794
-0.00177075
0.000973702
-0.00282335
0.00136266
-0.00399744
0.00173974
-0.00516286
0.00207258
-0.00621155
-0.00713468
0.00235349
1.3276e-05
2.49792e-05
6.90843e-05
-0.000128127
0.000187671
-0.000506786
0.000388239
-0.00114827
0.000676775
-0.00205928
0.00103131
-0.00317788
0.00140587
-0.004372
0.00175379
-0.00551078
0.00205117
-0.00650894
-0.00738037
0.00229686
1.56758e-05
9.30337e-06
7.89385e-05
-0.00019139
0.00021029
-0.000638137
0.000426649
-0.00136463
0.000726645
-0.00235928
0.0010787
-0.00352994
0.00143364
-0.00472694
0.00175054
-0.00582767
0.00201398
-0.00677238
-0.00759482
0.00222843
1.8266e-05
-8.96258e-06
8.92979e-05
-0.000262422
0.000233338
-0.000782177
0.000463822
-0.00159511
0.000770932
-0.00266639
0.00111488
-0.00387388
0.00144641
-0.00505847
0.00173184
-0.00611311
0.00196362
-0.00700416
-0.00778186
0.00215066
2.10292e-05
-2.99918e-05
0.000100041
-0.000341434
0.000256388
-0.000938524
0.000498781
-0.00183751
0.000808418
-0.00297603
0.00113939
-0.00420486
0.0014451
-0.00536417
0.00169972
-0.00636773
0.00190252
-0.00720697
-0.00794495
0.00206562
2.39428e-05
-5.39346e-05
0.000111022
-0.000428513
0.000278966
-0.00110647
0.000530582
-0.00208912
0.000838211
-0.00328365
0.00115232
-0.00451896
0.00143097
-0.00564283
0.00165617
-0.00659292
0.00183281
-0.00738361
-0.00808715
0.00197501
2.69781e-05
-8.09127e-05
0.000122073
-0.000523608
0.000300568
-0.00128496
0.000558378
-0.00234693
0.00085977
-0.00358505
0.0011541
-0.00481329
0.00140546
-0.00589419
0.00160308
-0.00679055
0.00175629
-0.00753681
-0.00821105
0.00188019
3.01008e-05
-0.000111013
0.000133008
-0.000626515
0.000320685
-0.00147264
0.000581472
-0.00260772
0.000872897
-0.00387647
0.00114549
-0.00508589
0.00137003
-0.00611872
0.00154219
-0.00696271
0.0016745
-0.00766912
-0.00831879
0.00178224
3.32709e-05
-0.000144284
0.000143623
-0.000736867
0.00033883
-0.00166785
0.000599347
-0.00286824
0.000877692
-0.00415482
0.00112743
-0.00533563
0.00132615
-0.00631744
0.00147502
-0.00711158
0.0015887
-0.00778281
-0.00841209
0.001682
3.64436e-05
-0.000180728
0.00015371
-0.000854134
0.000354561
-0.0018687
0.000611688
-0.00312536
0.000874494
-0.00441762
0.00110094
-0.00556208
0.00127519
-0.00649168
0.00140288
-0.00723928
0.00149991
-0.00787984
-0.00849232
0.00158014
3.95702e-05
-0.000220298
0.000163059
-0.000977623
0.000367507
-0.00207315
0.00061837
-0.00337623
0.000863819
-0.00466307
0.00106709
-0.00576535
0.00121839
-0.00664298
0.0013269
-0.00734778
0.00140894
-0.00796188
-0.00856053
0.00147715
4.2599e-05
-0.000262897
0.000171466
-0.00110649
0.000377384
-0.00227906
0.000619442
-0.00361829
0.000846303
-0.00488993
0.00102692
-0.00594597
0.00115689
-0.00677296
0.001248
-0.00743889
0.00131644
-0.00803032
-0.00861755
0.00137346
4.54771e-05
-0.000308374
0.000178747
-0.00123976
0.000383999
-0.00248432
0.0006151
-0.00384939
0.000822646
-0.00509748
0.00098141
-0.00610473
0.00109166
-0.00688321
0.00116698
-0.00751421
0.00122294
-0.00808628
-0.00866396
0.00126936
4.8152e-05
-0.000356526
0.00018474
-0.00137635
0.000387259
-0.00268683
0.000605648
-0.00406777
0.000793576
-0.00528541
0.000931484
-0.00624264
0.00102355
-0.00697528
0.00108445
-0.00757511
0.00112885
-0.00813068
-0.00870023
0.00116512
5.05727e-05
-0.000407099
0.000189314
-0.00151509
0.000387159
-0.00288468
0.000591475
-0.00427209
0.000759817
-0.00545375
0.000877968
-0.00636079
0.000953279
-0.00705059
0.00100095
-0.00762278
0.00103449
-0.00816421
-0.00872669
0.00106094
5.26916e-05
-0.000459791
0.000192372
-0.00165477
0.000383776
-0.00307608
0.000573016
-0.00446133
0.000722065
-0.0056028
0.0008216
-0.00646033
0.000881458
-0.00711045
0.000916886
-0.00765821
0.000940118
-0.00818744
-0.00874358
0.000957009
5.44692e-05
-0.00051426
0.000193858
-0.00179416
0.000377259
-0.00325948
0.000550746
-0.00463482
0.000680986
-0.00573304
0.000763041
-0.00654238
0.000808611
-0.00715602
0.000832613
-0.00768221
0.000845967
-0.0082008
-0.00875109
0.000853479
5.58629e-05
-0.000570123
0.000193738
-0.00193203
0.000367787
-0.00343353
0.000525114
-0.00479214
0.000637161
-0.00584509
0.000702832
-0.00660805
0.000735139
-0.00718832
0.000748385
-0.00769546
0.000752185
-0.0082046
-0.00874936
0.000750451
5.68455e-05
-0.000626968
0.000192023
-0.00206721
0.000355599
-0.00359711
0.000496591
-0.00493314
0.000591146
-0.00593964
0.000641472
-0.00665838
0.000661408
-0.00720826
0.00066444
-0.00769849
0.00065893
-0.00819909
-0.00873848
0.000648049
5.73944e-05
-0.000684363
0.000188755
-0.00219857
0.000340949
-0.0037493
0.000465621
-0.00505781
0.000543434
-0.00601745
0.000579377
-0.00669432
0.00058771
-0.00721659
0.000580962
-0.00769174
0.000566325
-0.00818445
-0.00871851
0.000546365
5.74949e-05
-0.000741857
0.000183997
-0.00232507
0.000324104
-0.00388941
0.000432619
-0.00516632
0.000494459
-0.00607929
0.0005169
-0.00671676
0.000514286
-0.00721398
0.000498104
-0.00767556
0.000474481
-0.00816083
-0.00868951
0.000445481
5.71398e-05
-0.000798997
0.000177837
-0.00244577
0.000305336
-0.00401691
0.000397972
-0.00525896
0.000444604
-0.00612593
0.000454342
-0.0067265
0.000441334
-0.00720097
0.000415986
-0.00765021
0.000383486
-0.00812833
-0.0086515
0.000345474
5.63295e-05
-0.000855327
0.000170377
-0.00255982
0.00028491
-0.00413144
0.000362031
-0.00533608
0.000394203
-0.0061581
0.000391958
-0.00672425
0.000369029
-0.00717804
0.000334721
-0.00761591
0.000293404
-0.00808701
-0.00860446
0.000246366
5.50712e-05
-0.000910398
0.00016173
-0.00266648
0.000263081
-0.00423279
0.000325116
-0.00539811
0.000343546
-0.00617653
0.000329963
-0.00671067
0.000297522
-0.0071456
0.000254452
-0.00757284
0.000204321
-0.00803688
-0.00854807
0.000147927
5.33785e-05
-0.000963777
0.000152015
-0.00276512
0.000240092
-0.00432087
0.00028751
-0.00544553
0.000292879
-0.0061819
0.000268534
-0.00668632
0.000226938
-0.00710401
0.000175348
-0.00752125
0.000116436
-0.00797797
-0.00848105
4.94214e-05
5.12707e-05
-0.00101505
0.000141357
-0.0028552
0.00021617
-0.00439568
0.000249468
-0.00547883
0.000242418
-0.00617485
0.000207819
-0.00665172
0.000157359
-0.00705355
9.74623e-05
-0.00746135
3.03996e-05
-0.00791091
-0.00840434
-4.63172e-05
4.87726e-05
-0.00106382
0.000129887
-0.00293632
0.000191525
-0.00445732
0.000211213
-0.00549852
0.000192345
-0.00615598
0.000147947
-0.00660733
8.88683e-05
-0.00699447
2.03705e-05
-0.00739285
-5.50582e-05
-0.00783548
-0.00832052
-0.000138879
4.59131e-05
-0.00110973
0.000117726
-0.00300813
0.000166349
-0.00450594
0.000172941
-0.00550511
0.000142813
-0.00612585
8.90205e-05
-0.00655353
2.15328e-05
-0.00692698
-5.47498e-05
-0.00731657
-0.000139205
-0.00775102
-0.00822882
-0.000230904
4.2724e-05
-0.00115246
0.000104992
-0.0030704
0.000140816
-0.00454177
0.000134824
-0.00549912
9.39498e-05
-0.00608498
3.11151e-05
-0.0064907
-4.44202e-05
-0.00685145
-0.000128691
-0.0072323
-0.000221557
-0.00765816
-0.00812865
-0.000321729
3.924e-05
-0.0011917
9.1799e-05
-0.00312296
0.000115087
-0.00456505
9.70053e-05
-0.00548104
4.58755e-05
-0.00603385
-2.5662e-05
-0.00641916
-0.000109087
-0.00676802
-0.000201316
-0.00714007
-0.000302343
-0.00755713
-0.00801991
-0.000411074
3.54976e-05
-0.00122719
7.82536e-05
-0.00316571
8.93091e-05
-0.00457611
5.9613e-05
-0.00545134
-1.41912e-06
-0.00597282
-8.12178e-05
-0.00633936
-0.000172437
-0.0066768
-0.000272466
-0.00704004
-0.000381567
-0.00744803
-0.00790269
-0.000498796
3.15344e-05
-0.00125873
6.4463e-05
-0.00319864
6.36098e-05
-0.00457526
2.28131e-05
-0.00541054
-4.75642e-05
-0.00590244
-0.000135578
-0.00625135
-0.000234404
-0.00657797
-0.000342083
-0.00693236
-0.00045917
-0.00733094
-0.00777707
-0.000584785
2.73866e-05
-0.00128612
5.05372e-05
-0.00322179
3.81143e-05
-0.00456283
-1.33614e-05
-0.00535907
-9.28004e-05
-0.005823
-0.000188682
-0.00615547
-0.000294944
-0.00647171
-0.000410121
-0.00681718
-0.000535085
-0.00720598
-0.00764319
-0.000668963
2.30901e-05
-0.00130921
3.65725e-05
-0.00323527
1.31543e-05
-0.00453942
-4.89041e-05
-0.00529701
-0.000136992
-0.00573491
-0.000240493
-0.00605197
-0.000354023
-0.00635818
-0.000476544
-0.00669466
-0.000609256
-0.00707327
-0.00750119
-0.000751258
1.86962e-05
-0.0013279
2.26338e-05
-0.00323921
-1.17967e-05
-0.00450499
-8.36234e-05
-0.00522518
-0.000180077
-0.00563846
-0.000290979
-0.00594107
-0.000411613
-0.00623755
-0.000541326
-0.00656495
-0.000681641
-0.00693295
-0.0073513
-0.000831533
1.42472e-05
-0.00134215
9.05961e-06
-0.00323402
-3.66734e-05
-0.00445925
-0.000117591
-0.00514426
-0.000222018
-0.00553403
-0.000340111
-0.00582297
-0.000467691
-0.00610997
-0.000604453
-0.00642819
-0.000752205
-0.0067852
-0.00719387
-0.00090963
9.70095e-06
-0.00135185
-4.31714e-06
-0.00322001
-6.06892e-05
-0.00440288
-0.000150701
-0.00505425
-0.000262792
-0.00542194
-0.000387862
-0.0056979
-0.000522234
-0.0059756
-0.000665909
-0.00628451
-0.000820947
-0.00663016
-0.00702912
-0.0009857
4.96276e-06
-0.00135681
-1.90376e-05
-0.00319601
-8.42605e-05
-0.00433766
-0.000182878
-0.00495564
-0.000302365
-0.00530245
-0.000434209
-0.00556606
-0.000575224
-0.00583458
-0.000725701
-0.00613404
-0.000887926
-0.00646794
-0.00685687
-0.00106018
-2.12615e-07
-0.0013566
-3.28517e-05
-0.00316337
-0.000107248
-0.00426326
-0.000214089
-0.00484879
-0.000340702
-0.00517584
-0.000479128
-0.00542763
-0.000626662
-0.00568705
-0.000783891
-0.00597681
-0.000953043
-0.00629878
-0.0066773
-0.00113261
-4.52598e-06
-0.00135207
-4.62176e-05
-0.00312167
-0.000129593
-0.00417989
-0.000244307
-0.00473408
-0.000377774
-0.00504237
-0.000522587
-0.00528282
-0.000676554
-0.00553308
-0.00084059
-0.00581277
-0.00101592
-0.00612345
-0.00649103
-0.0012022
-9.12363e-06
-0.00134295
-5.9231e-05
-0.00307157
-0.000151257
-0.00408786
-0.000273506
-0.00461183
-0.000413555
-0.00490232
-0.000564555
-0.00513182
-0.000724835
-0.0053728
-0.000895652
-0.00564195
-0.00107841
-0.0059407
-0.00630799
-0.00126145
-1.36944e-05
-0.00132926
-7.18916e-05
-0.00301337
-0.000172201
-0.00398755
-0.000301653
-0.00448238
-0.000448018
-0.00475596
-0.000605002
-0.00497484
-0.000771373
-0.00520643
-0.000947819
-0.00546551
-0.00113094
-0.00575758
-0.00609765
-0.00134127
-1.81993e-05
-0.00131106
-8.41997e-05
-0.00294737
-0.000192422
-0.00387933
-0.00032875
-0.00434605
-0.000481175
-0.00460353
-0.000643933
-0.00481208
-0.000816027
-0.00503433
-0.000997639
-0.0052839
-0.00118832
-0.0055669
-0.00588542
-0.00140055
-2.26098e-05
-0.00128845
-9.61229e-05
-0.00287386
-0.00021189
-0.00376356
-0.000354771
-0.00420317
-0.000513005
-0.0044453
-0.000681324
-0.00464376
-0.000858941
-0.00485672
-0.00104619
-0.00509665
-0.00124426
-0.00536883
-0.00567
-0.00145967
-2.69096e-05
-0.00126154
-0.000107638
-0.00279313
-0.000230587
-0.00364061
-0.000379706
-0.00405405
-0.000543497
-0.00428151
-0.00071715
-0.0044701
-0.00090008
-0.00467379
-0.00109284
-0.00490389
-0.00129708
-0.00516459
-0.00545057
-0.00151651
-3.10851e-05
-0.00123045
-0.000118725
-0.00270549
-0.000248497
-0.00351084
-0.000403544
-0.00389901
-0.000572641
-0.00411241
-0.000751406
-0.00429134
-0.000939454
-0.00448574
-0.00113754
-0.00470581
-0.00134735
-0.00495478
-0.00522678
-0.00157115
-3.51245e-05
-0.00119533
-0.000129365
-0.00261125
-0.000265608
-0.0033746
-0.000426277
-0.00373834
-0.00060043
-0.00393826
-0.000784085
-0.00410768
-0.000977048
-0.00429278
-0.00118021
-0.00450264
-0.00139519
-0.0047398
-0.00499846
-0.00162351
-3.90168e-05
-0.00115631
-0.000139541
-0.00251072
-0.000281907
-0.00323223
-0.000447899
-0.00357234
-0.00062686
-0.0037593
-0.00081518
-0.00391936
-0.00101285
-0.00409511
-0.00122085
-0.00429464
-0.0014407
-0.00451995
-0.00476559
-0.00167357
-4.2752e-05
-0.00111356
-0.000149241
-0.00240423
-0.000297386
-0.00308409
-0.000468404
-0.00340133
-0.000651924
-0.00357578
-0.000844686
-0.0037266
-0.00104684
-0.00389296
-0.00125943
-0.00408205
-0.00148391
-0.00429547
-0.00452822
-0.00172128
-4.63211e-05
-0.00106724
-0.000158451
-0.0022921
-0.000312035
-0.0029305
-0.000487787
-0.00322557
-0.00067562
-0.00338795
-0.000872596
-0.00352963
-0.00107901
-0.00368655
-0.00129596
-0.0038651
-0.00152485
-0.00406657
-0.00428645
-0.00176662
-4.97159e-05
-0.00101752
-0.000167161
-0.00217466
-0.000325848
-0.00277181
-0.000506044
-0.00304538
-0.000697944
-0.00319605
-0.000898904
-0.00332867
-0.00110935
-0.0034761
-0.00133042
-0.00364402
-0.00156351
-0.00383349
-0.00404044
-0.00180952
-5.29291e-05
-0.000964593
-0.000175362
-0.00205223
-0.000338819
-0.00260836
-0.000523174
-0.00286102
-0.000718891
-0.00300033
-0.000923604
-0.00312395
-0.00113785
-0.00326186
-0.00136282
-0.00341906
-0.00159987
-0.00359643
-0.00379036
-0.00184996
-5.5954e-05
-0.000908639
-0.000183045
-0.00192514
-0.000350942
-0.00244046
-0.000539172
-0.00267279
-0.00073846
-0.00280104
-0.000946691
-0.00291572
-0.00116451
-0.00304404
-0.00139313
-0.00319043
-0.00163393
-0.00335563
-0.0035364
-0.00188788
-5.87847e-05
-0.000849854
-0.000190204
-0.00179372
-0.000362214
-0.00226845
-0.000554037
-0.00248097
-0.000756646
-0.00259843
-0.000968158
-0.00270421
-0.0011893
-0.0028229
-0.00142134
-0.0029584
-0.00166566
-0.00311131
-0.00327881
-0.00192325
-6.14159e-05
-0.000788438
-0.000196833
-0.0016583
-0.000372631
-0.00209265
-0.000567766
-0.00228583
-0.000773448
-0.00239275
-0.000987999
-0.00248966
-0.00121224
-0.00259866
-0.00144745
-0.00272319
-0.00169503
-0.00286373
-0.00301781
-0.00195603
-6.3843e-05
-0.000724595
-0.000202926
-0.00151922
-0.00038219
-0.00191339
-0.000580358
-0.00208767
-0.000788861
-0.00218425
-0.00100621
-0.00227231
-0.00123329
-0.00237158
-0.00147143
-0.00248505
-0.00172202
-0.00261313
-0.00275366
-0.00198617
-6.60617e-05
-0.000658534
-0.000208478
-0.0013768
-0.000390887
-0.00173098
-0.000591811
-0.00188674
-0.000802883
-0.00197318
-0.00102278
-0.00205241
-0.00125247
-0.0021419
-0.00149327
-0.00224425
-0.00174663
-0.00235978
-0.00248662
-0.00201366
-6.80684e-05
-0.000590465
-0.000213486
-0.00123138
-0.000398721
-0.00154574
-0.000602123
-0.00168334
-0.000815511
-0.00175979
-0.00103772
-0.00183021
-0.00126975
-0.00190987
-0.00151297
-0.00200102
-0.00176882
-0.00210392
-0.00221697
-0.00203847
-6.98599e-05
-0.000520605
-0.000217945
-0.0010833
-0.000405689
-0.001358
-0.000611293
-0.00147773
-0.000826743
-0.00154434
-0.001051
-0.00160595
-0.00128513
-0.00167574
-0.00153051
-0.00175564
-0.00178859
-0.00184584
-0.00194499
-0.00206057
-7.14332e-05
-0.000449172
-0.000221853
-0.000932879
-0.000411789
-0.00116806
-0.00061932
-0.0012702
-0.000836576
-0.00132708
-0.00106264
-0.00137988
-0.0012986
-0.00143978
-0.00154587
-0.00150837
-0.00180591
-0.0015858
-0.00167096
-0.00207994
-7.27861e-05
-0.000376386
-0.000225208
-0.000780457
-0.000417021
-0.00097625
-0.000626202
-0.00106102
-0.000845009
-0.00110828
-0.00107262
-0.00115228
-0.00131016
-0.00120224
-0.00155906
-0.00125947
-0.00182078
-0.00132408
-0.00139517
-0.00209657
-7.39165e-05
-0.000302469
-0.000228006
-0.000626368
-0.000421383
-0.000782874
-0.000631938
-0.000850468
-0.000852039
-0.000888174
-0.00108094
-0.000923375
-0.0013198
-0.000963379
-0.00157006
-0.00100921
-0.00183319
-0.00106096
-0.00111791
-0.00211045
-7.48228e-05
-0.000227647
-0.000230247
-0.000470944
-0.000424873
-0.000588248
-0.000636528
-0.000638813
-0.000857665
-0.000667038
-0.0010876
-0.000693438
-0.00132752
-0.000723461
-0.00157887
-0.000757864
-0.00184312
-0.000796703
-0.000839462
-0.00212156
-7.55036e-05
-0.000152143
-0.000231929
-0.000314518
-0.000427491
-0.000392685
-0.000639971
-0.000426333
-0.000861885
-0.000445124
-0.0010926
-0.000462724
-0.00133331
-0.000482749
-0.00158548
-0.000505698
-0.00185058
-0.000531606
-0.000560134
-0.0021299
-7.5958e-05
-7.61851e-05
-0.000233051
-0.000157426
-0.000429237
-0.000196498
-0.000642267
-0.000213304
-0.000864699
-0.000222691
-0.00109593
-0.000231492
-0.00133717
-0.000241507
-0.00158989
-0.000252985
-0.00185555
-0.000265944
-0.000280215
-0.00213547
-7.61853e-05
1.82414e-10
-0.000233611
3.70266e-10
-0.00043011
4.55192e-10
-0.000643415
4.87603e-10
-0.000866106
5.01449e-10
-0.0010976
5.10538e-10
-0.00133911
5.18168e-10
-0.00159209
5.24956e-10
-0.00185804
5.3117e-10
5.36176e-10
-0.00213825
-7.61853e-05
7.61854e-05
-0.000233611
0.000157427
-0.00043011
0.000196499
-0.000643415
0.000213305
-0.000866106
0.000222692
-0.0010976
0.000231493
-0.00133911
0.000241508
-0.00159209
0.000252986
-0.00185804
0.000265945
0.000280216
-0.00213825
-7.5958e-05
0.000152143
-0.000233051
0.000314519
-0.000429237
0.000392686
-0.000642267
0.000426334
-0.000864699
0.000445125
-0.00109593
0.000462725
-0.00133717
0.00048275
-0.00158989
0.000505699
-0.00185555
0.000531607
0.000560135
-0.00213547
-7.55036e-05
0.000227647
-0.000231929
0.000470944
-0.000427491
0.000588249
-0.000639971
0.000638814
-0.000861885
0.000667039
-0.0010926
0.000693439
-0.00133331
0.000723462
-0.00158548
0.000757866
-0.00185058
0.000796704
0.000839463
-0.0021299
-7.48228e-05
0.00030247
-0.000230247
0.000626369
-0.000424873
0.000782875
-0.000636528
0.000850469
-0.000857665
0.000888175
-0.0010876
0.000923376
-0.00132752
0.00096338
-0.00157887
0.00100921
-0.00184312
0.00106096
0.00111791
-0.00212156
-7.39165e-05
0.000376386
-0.000228006
0.000780458
-0.000421383
0.000976251
-0.000631938
0.00106102
-0.000852039
0.00110828
-0.00108094
0.00115228
-0.0013198
0.00120224
-0.00157006
0.00125947
-0.00183319
0.00132408
0.00139517
-0.00211045
-7.27861e-05
0.000449173
-0.000225208
0.00093288
-0.000417021
0.00116806
-0.000626202
0.00127021
-0.000845009
0.00132708
-0.00107262
0.00137989
-0.00131016
0.00143978
-0.00155906
0.00150837
-0.00182078
0.0015858
0.00167096
-0.00209657
-7.14332e-05
0.000520606
-0.000221853
0.0010833
-0.000411789
0.001358
-0.00061932
0.00147774
-0.000836576
0.00154434
-0.00106264
0.00160595
-0.0012986
0.00167574
-0.00154587
0.00175564
-0.00180591
0.00184584
0.00194499
-0.00207994
-6.98599e-05
0.000590466
-0.000217945
0.00123138
-0.000405689
0.00154574
-0.000611293
0.00168334
-0.000826743
0.00175979
-0.001051
0.00183021
-0.00128513
0.00190987
-0.00153051
0.00200102
-0.00178859
0.00210392
0.00221698
-0.00206057
-6.80684e-05
0.000658534
-0.000213486
0.0013768
-0.000398721
0.00173098
-0.000602123
0.00188674
-0.000815511
0.00197318
-0.00103772
0.00205241
-0.00126975
0.0021419
-0.00151297
0.00224425
-0.00176882
0.00235978
0.00248662
-0.00203847
-6.60617e-05
0.000724596
-0.000208478
0.00151922
-0.000390887
0.00191339
-0.000591811
0.00208767
-0.000802883
0.00218425
-0.00102278
0.00227231
-0.00125247
0.00237158
-0.00149327
0.00248505
-0.00174663
0.00261314
0.00275366
-0.00201366
-6.3843e-05
0.000788439
-0.000202926
0.0016583
-0.00038219
0.00209265
-0.000580358
0.00228584
-0.000788861
0.00239275
-0.00100621
0.00248966
-0.00123329
0.00259866
-0.00147143
0.00272319
-0.00172202
0.00286373
0.00301781
-0.00198617
-6.14159e-05
0.000849855
-0.000196833
0.00179372
-0.000372631
0.00226845
-0.000567766
0.00248097
-0.000773448
0.00259843
-0.000987999
0.00270421
-0.00121224
0.0028229
-0.00144745
0.0029584
-0.00169503
0.00311131
0.00327881
-0.00195603
-5.87847e-05
0.000908639
-0.000190204
0.00192514
-0.000362214
0.00244046
-0.000554037
0.00267279
-0.000756646
0.00280104
-0.000968158
0.00291572
-0.0011893
0.00304404
-0.00142134
0.00319043
-0.00166566
0.00335563
0.00353641
-0.00192325
-5.5954e-05
0.000964593
-0.000183045
0.00205223
-0.000350942
0.00260836
-0.000539172
0.00286102
-0.00073846
0.00300033
-0.000946691
0.00312396
-0.00116451
0.00326186
-0.00139313
0.00341906
-0.00163393
0.00359643
0.00379036
-0.00188788
-5.29291e-05
0.00101752
-0.000175362
0.00217466
-0.000338819
0.00277182
-0.000523174
0.00304538
-0.000718891
0.00319605
-0.000923604
0.00332867
-0.00113785
0.00347611
-0.00136282
0.00364402
-0.00159987
0.00383349
0.00404044
-0.00184996
-4.97159e-05
0.00106724
-0.000167161
0.00229211
-0.000325848
0.0029305
-0.000506044
0.00322557
-0.000697944
0.00338795
-0.000898904
0.00352963
-0.00110935
0.00368655
-0.00133042
0.0038651
-0.00156351
0.00406658
0.00428646
-0.00180952
-4.63211e-05
0.00111356
-0.000158451
0.00240424
-0.000312035
0.00308409
-0.000487787
0.00340133
-0.00067562
0.00357578
-0.000872596
0.0037266
-0.00107901
0.00389296
-0.00129596
0.00408205
-0.00152485
0.00429547
0.00452822
-0.00176662
-4.2752e-05
0.00115631
-0.000149241
0.00251072
-0.000297386
0.00323223
-0.000468404
0.00357234
-0.000651924
0.0037593
-0.000844686
0.00391937
-0.00104684
0.00409511
-0.00125943
0.00429464
-0.00148391
0.00451995
0.00476559
-0.00172128
-3.90168e-05
0.00119533
-0.000139541
0.00261125
-0.000281907
0.0033746
-0.000447899
0.00373834
-0.00062686
0.00393826
-0.00081518
0.00410769
-0.00101285
0.00429278
-0.00122085
0.00450264
-0.0014407
0.0047398
0.00499846
-0.00167357
-3.51245e-05
0.00123045
-0.000129365
0.00270549
-0.000265608
0.00351084
-0.000426277
0.00389901
-0.00060043
0.00411241
-0.000784085
0.00429134
-0.000977048
0.00448574
-0.00118021
0.00470581
-0.00139519
0.00495478
0.00522678
-0.00162351
-3.10851e-05
0.00126154
-0.000118725
0.00279313
-0.000248497
0.00364061
-0.000403544
0.00405405
-0.000572641
0.00428151
-0.000751406
0.00447011
-0.000939455
0.00467379
-0.00113754
0.00490389
-0.00134735
0.00516459
0.00545058
-0.00157115
-2.69096e-05