/*--------------------------------*- C++ -*----------------------------------*\
  =========                 |
  \\      /  F ield         | OpenFOAM: The Open Source CFD Toolbox
   \\    /   O peration     | Website:  https://openfoam.org
    \\  /    A nd           | Version:  7
     \\/     M anipulation  |
\*---------------------------------------------------------------------------*/
FoamFile
{
    version     2.0;
    format      ascii;
    class       surfaceScalarField;
    location    "60";
    object      phi;
}
// * * * * * * * * * * * * * * * * * * * * * * * * * * * * * * * * * * * * * //

dimensions      [0 3 -1 0 0 0 0];

internalField   nonuniform List<scalar> 
16753
(
-0.000356843
-0.000151679
0.00016141
-0.000366373
-0.000171278
0.000180808
-0.000375698
-0.000191643
0.000200968
-0.000384814
-0.000212429
0.000221545
-0.00039372
-0.000233184
0.000242091
-0.000402418
-0.000253342
0.00026204
-0.000410912
-0.000272204
0.000280698
-0.000419206
-0.000288939
0.000297233
-0.000427304
-0.000302573
0.000310671
-0.00043521
-0.000311992
0.000319897
-0.000442923
-0.000315948
0.000323662
-0.000450438
-0.000313079
0.000320594
-0.000457741
-0.000301928
0.00030923
-0.000464808
-0.000280986
0.000288053
-0.000471606
-0.000248744
0.000255541
-0.000478087
-0.00020376
0.000210241
-0.000484193
-0.000144748
0.000150854
-0.000489856
-7.06833e-05
7.6346e-05
-0.000495007
1.912e-05
-1.39689e-05
-0.00049957
0.000124771
-0.000120208
-0.000503478
0.000245795
-0.000241887
-0.000506671
0.000380913
-0.000377719
-0.000509105
0.000527962
-0.000525529
-0.00051075
0.000683786
-0.000682141
-0.000511589
0.00084417
-0.000843331
-0.000511611
0.00100383
-0.00100381
-0.000510798
0.00115645
-0.00115726
-0.000509116
0.00129478
-0.00129646
-0.000506503
0.00141086
-0.00141347
-0.000502857
0.00149626
-0.00149991
-0.000498041
0.00154256
-0.00154737
-0.000491894
0.00154185
-0.001548
-0.00048424
0.00148744
-0.00149509
-0.000474946
0.00137477
-0.00138407
-0.000463905
0.00120185
-0.00121289
-0.000451163
0.000971085
-0.000983827
-0.000436773
0.000687853
-0.000702242
-0.000421085
0.000365191
-0.00038088
-0.00040421
1.66738e-05
-3.35481e-05
-0.00038674
-0.000329551
0.000312081
-0.000368173
-0.000651534
0.000632967
-0.000348784
-0.000898481
0.000879092
-0.000326003
-0.00103065
0.00100787
-0.000299883
-0.000988614
0.000962494
-0.000269744
-0.000687168
0.000657029
-0.000320951
0.000294965
-0.000358257
-0.000141777
-0.000367952
-0.000161583
-0.000377431
-0.000182164
-0.000386687
-0.000203173
-0.000395715
-0.000224156
-0.000404514
-0.000244543
-0.000413083
-0.000263636
-0.000421423
-0.0002806
-0.000429535
-0.00029446
-0.000437421
-0.000304106
-0.000445079
-0.000308291
-0.000452501
-0.000305657
-0.000459675
-0.000294754
-0.000466577
-0.000274084
-0.000473173
-0.000242147
-0.000479418
-0.000197514
-0.000485257
-0.000138909
-0.000490623
-6.53178e-05
-0.00049545
2.39468e-05
-0.000499663
0.000128985
-0.000503197
0.000249329
-0.000505993
0.000383708
-0.000508004
0.000529974
-0.000509201
0.000684983
-0.000509562
0.000844531
-0.000509071
0.00100334
-0.000507709
0.00115509
-0.000505437
0.00129251
-0.000502187
0.00140761
-0.00049786
0.00149193
-0.000492319
0.00153701
-0.000485409
0.00153494
-0.000476964
0.00147899
-0.000466867
0.00136468
-0.000455029
0.00119001
-0.00044152
0.000957576
-0.000426419
0.000672752
-0.00041011
0.000348882
-0.000392735
-7.0192e-07
-0.000374929
-0.000347357
-0.000356189
-0.000670273
-0.000336827
-0.000917844
-0.000314017
-0.00105346
-0.000287719
-0.00101491
-0.000255954
-0.000718933
-0.000348892
-0.000358123
-0.000131731
-0.000367956
-0.00015175
-0.000377563
-0.000172558
-0.000386932
-0.000193803
-0.000396057
-0.000215032
-0.000404929
-0.00023567
-0.000413546
-0.000255019
-0.000421904
-0.000272241
-0.000430004
-0.000286361
-0.000437842
-0.000296267
-0.000445415
-0.000300717
-0.000452716
-0.000298355
-0.000459731
-0.000287739
-0.000466438
-0.000267377
-0.000472804
-0.000235782
-0.000478785
-0.000191533
-0.000484329
-0.000133364
-0.000489371
-6.02766e-05
-0.000493847
2.84233e-05
-0.000497686
0.000132824
-0.000500822
0.000252465
-0.000503197
0.000386082
-0.000504764
0.000531541
-0.00050549
0.000685709
-0.000505353
0.000844393
-0.000504332
0.00100232
-0.000502403
0.00115316
-0.000499523
0.00128963
-0.000495625
0.00140371
-0.000490606
0.00148692
-0.000484333
0.00153074
-0.000476658
0.00152727
-0.000467424
0.00146976
-0.00045653
0.00135378
-0.000443903
0.00117739
-0.000429637
0.000943311
-0.000413835
0.00065695
-0.000396912
0.000331958
-0.000379034
-1.85793e-05
-0.000360886
-0.000365505
-0.000341961
-0.000689199
-0.000322623
-0.000937182
-0.000299807
-0.00107627
-0.000273416
-0.0010413
-0.000240043
-0.000752307
-0.000378848
-0.000356435
-0.000121567
-0.00036638
-0.000141805
-0.000376089
-0.000162849
-0.000385548
-0.000184344
-0.000394743
-0.000205836
-0.000403665
-0.000226749
-0.000412305
-0.000246379
-0.000420657
-0.000263889
-0.000428717
-0.000278301
-0.000436481
-0.000288503
-0.000443944
-0.000293255
-0.000451096
-0.000291203
-0.000457925
-0.00028091
-0.000464409
-0.000260894
-0.000470517
-0.000229674
-0.000476207
-0.000185842
-0.00048143
-0.000128142
-0.00048612
-5.55861e-05
-0.000490221
3.25238e-05
-0.00049366
0.000136263
-0.000496375
0.000255179
-0.000498306
0.000388013
-0.000499407
0.000532642
-0.000499643
0.000685945
-0.000498987
0.000843738
-0.000497418
0.00100075
-0.000494906
0.00115065
-0.000491405
0.00128613
-0.000486846
0.00139915
-0.000481128
0.0014812
-0.000474119
0.00152373
-0.000465679
0.00151883
-0.000455662
0.00145974
-0.00044398
0.0013421
-0.000430576
0.00116398
-0.000415567
0.000928302
-0.000399075
0.000640458
-0.000381545
0.000314428
-0.000363166
-3.69583e-05
-0.000344667
-0.000384005
-0.00032554
-0.000708326
-0.000306217
-0.000956505
-0.000283408
-0.00109908
-0.000257011
-0.0010677
-0.000222074
-0.000787243
-0.00041085
-0.000353191
-0.00011131
-0.000363223
-0.000131773
-0.000373011
-0.000153061
-0.000382535
-0.00017482
-0.000391779
-0.000196593
-0.000400727
-0.000217801
-0.000409367
-0.000237739
-0.00041769
-0.000255566
-0.000425688
-0.000270303
-0.000433354
-0.000280837
-0.000440682
-0.000285927
-0.000447661
-0.000284223
-0.000454279
-0.000274293
-0.000460514
-0.000254658
-0.000466338
-0.00022385
-0.000471711
-0.000180469
-0.000476585
-0.000123268
-0.0004809
-5.12715e-05
-0.0004846
3.62236e-05
-0.000487616
0.00013928
-0.000489886
0.000257449
-0.000491351
0.000389479
-0.000491965
0.000533256
-0.000491691
0.000685671
-0.000490499
0.000842546
-0.000488364
0.000998615
-0.000485253
0.00114754
-0.00048112
0.001282
-0.000475891
0.00139392
-0.000469468
0.00147477
-0.000461722
0.00151599
-0.000452522
0.00150963
-0.00044173
0.00144895
-0.000429272
0.00132964
-0.000415107
0.00114982
-0.00039937
0.000912565
-0.000382202
0.00062329
-0.000364073
0.000296299
-0.000345193
-5.58387e-05
-0.000326334
-0.000402864
-0.000306985
-0.000727674
-0.000287661
-0.000975829
-0.000264866
-0.00112188
-0.000238545
-0.00109402
-0.000202117
-0.000823672
-0.0004449
-0.000348392
-0.000100986
-0.000358488
-0.000121676
-0.000368333
-0.000143216
-0.000377901
-0.000165252
-0.000387172
-0.000187322
-0.000396126
-0.000208847
-0.000404746
-0.000229118
-0.00041302
-0.000247292
-0.000420935
-0.000262388
-0.000428482
-0.00027329
-0.000435653
-0.000278757
-0.000442436
-0.00027744
-0.000448819
-0.00026791
-0.000454782
-0.000248696
-0.000460298
-0.000218334
-0.00046533
-0.000175437
-0.000469832
-0.000118766
-0.000473746
-4.73571e-05
-0.000477021
3.94989e-05
-0.000479592
0.00014185
-0.000481395
0.000259252
-0.000482373
0.000390457
-0.000482479
0.000533362
-0.000481675
0.000684866
-0.000479928
0.0008408
-0.000477212
0.000995899
-0.00047349
0.00114381
-0.000468713
0.00127722
-0.000462807
0.00138802
-0.000455676
0.00146764
-0.000447197
0.00150751
-0.000437243
0.00149967
-0.000425687
0.00143739
-0.000412469
0.00131642
-0.000397561
0.00113491
-0.000381114
0.000896119
-0.000363286
0.000605461
-0.000344569
0.000277582
-0.000325188
-7.52196e-05
-0.000305958
-0.000422094
-0.000286366
-0.000747266
-0.000267019
-0.000995176
-0.000244234
-0.00114466
-0.000218065
-0.00112019
-0.000180244
-0.000861493
-0.000480964
-0.000342043
-9.06168e-05
-0.000352182
-0.000111537
-0.000362061
-0.000133337
-0.000371654
-0.000155659
-0.000380933
-0.000178043
-0.000389874
-0.000199905
-0.000398457
-0.000220535
-0.000406664
-0.000239086
-0.000414478
-0.000254574
-0.000421889
-0.000265879
-0.000428884
-0.000271762
-0.000435452
-0.000270871
-0.000441581
-0.000261781
-0.00044725
-0.000243026
-0.000452436
-0.000213149
-0.000457104
-0.000170769
-0.000461211
-0.000114658
-0.000464702
-4.3866e-05
-0.00046753
4.23268e-05
-0.000469632
0.000143952
-0.000470946
0.000260566
-0.000471417
0.000390927
-0.000470995
0.000532941
-0.000469643
0.000683514
-0.000467326
0.000838483
-0.000464014
0.000992586
-0.000459668
0.00113947
-0.000454239
0.00127179
-0.000447652
0.00138143
-0.000439813
0.0014598
-0.000430604
0.0014983
-0.000419906
0.00148897
-0.000407602
0.00142509
-0.000393642
0.00130246
-0.00037801
0.00111928
-0.000360874
0.000878983
-0.000342403
0.00058699
-0.000323109
0.000258288
-0.000303229
-9.50994e-05
-0.000283617
-0.000441706
-0.000263757
-0.000767126
-0.000244359
-0.00101457
-0.000221573
-0.00116745
-0.00019562
-0.00114614
-0.000156531
-0.000900582
-0.000518968
-0.000334151
-8.02263e-05
-0.000344311
-0.000101377
-0.000354206
-0.000123441
-0.000363805
-0.000146061
-0.000373076
-0.000168772
-0.000381989
-0.000190992
-0.00039052
-0.000212005
-0.000398644
-0.000230962
-0.000406344
-0.000246874
-0.000413603
-0.000258621
-0.000420407
-0.000264957
-0.000426744
-0.000264534
-0.000432601
-0.000255925
-0.000437959
-0.000237668
-0.000442795
-0.000208312
-0.000447079
-0.000166485
-0.000450771
-0.000110966
-0.000453817
-4.08195e-05
-0.000456177
4.46863e-05
-0.000457789
0.000145565
-0.000458594
0.000261372
-0.000458537
0.00039087
-0.00045757
0.000531973
-0.000455652
0.000681597
-0.000452749
0.00083558
-0.000448828
0.000988664
-0.000443848
0.00113449
-0.00043776
0.0012657
-0.000430489
0.00137416
-0.000421945
0.00145126
-0.000412014
0.00148837
-0.000400584
0.00147754
-0.000387548
0.00141205
-0.000372866
0.00128778
-0.000356534
0.00110295
-0.000338731
0.000861179
-0.000319635
0.000567894
-0.000299777
0.00023843
-0.0002794
-0.000115476
-0.000259396
-0.00046171
-0.000239242
-0.000787281
-0.00021976
-0.00103405
-0.000196951
-0.00119026
-0.000171263
-0.00117183
-0.000131058
-0.000940786
-0.000558791
-0.000324727
-6.98363e-05
-0.000334887
-9.12169e-05
-0.00034478
-0.000113548
-0.000354369
-0.000136472
-0.000363616
-0.000159525
-0.000372488
-0.000182119
-0.000380954
-0.000203539
-0.000388986
-0.00022293
-0.000396559
-0.000239301
-0.000403655
-0.000251524
-0.000410257
-0.000258355
-0.000416351
-0.00025844
-0.000421922
-0.000250354
-0.000426954
-0.000232637
-0.000431425
-0.000203841
-0.000435307
-0.000162603
-0.000438565
-0.000107709
-0.000441149
-3.82354e-05
-0.000443019
4.65567e-05
-0.000444123
0.000146668
-0.000444399
0.000261648
-0.000443796
0.000390267
-0.000442265
0.000530443
-0.000439766
0.000679098
-0.000436263
0.000832076
-0.00043172
0.000984121
-0.000426098
0.00112887
-0.000419345
0.00125895
-0.000411391
0.00136621
-0.000402145
0.00144202
-0.000391501
0.00147772
-0.000379355
0.0014654
-0.000365605
0.0013983
-0.000350225
0.0012724
-0.000333216
0.00108594
-0.000314769
0.000842732
-0.000295069
0.000548194
-0.00027466
0.000218021
-0.00025379
-0.000136346
-0.000233384
-0.000482117
-0.000212908
-0.000807757
-0.000193307
-0.00105366
-0.000170445
-0.00121312
-0.000145048
-0.00119723
-0.000103902
-0.000981932
-0.000600266
-0.000313779
-0.000323922
-8.10748e-05
-0.000333795
-0.000103674
-0.000343359
-0.000126909
-0.000352571
-0.000150313
-0.000361391
-0.000173299
-0.000369783
-0.000195147
-0.000377713
-0.000215
-0.000385153
-0.00023186
-0.000392079
-0.000244598
-0.000398472
-0.000251963
-0.000404313
-0.000252598
-0.00040959
-0.000245078
-0.000414284
-0.000227942
-0.000418377
-0.000199748
-0.000421844
-0.000159136
-0.000424652
-0.000104901
-0.000426756
-3.61319e-05
-0.000428121
4.79215e-05
-0.000428697
0.000147245
-0.000428428
0.000261379
-0.000427261
0.0003891
-0.00042515
0.000528332
-0.000422055
0.000676002
-0.000417938
0.000827959
-0.000412764
0.000978947
-0.000406493
0.0011226
-0.000399072
0.00125153
-0.000390435
0.00135757
-0.000380494
0.00143207
-0.000369149
0.00146638
-0.000356302
0.00145255
-0.000341861
0.00138386
-0.000325806
0.00125635
-0.000308145
0.00106828
-0.000289079
0.000823666
-0.000268796
0.000527912
-0.000247851
0.000197076
-0.000226493
-0.000157705
-0.000205674
-0.000502935
-0.000184851
-0.00082858
-0.000165091
-0.00107342
-0.000142139
-0.00123607
-0.000117035
-0.00122233
-7.51378e-05
-0.00102383
-0.000643173
-0.000311427
-7.09693e-05
-0.000321266
-9.38356e-05
-0.000330791
-0.000117383
-0.000339957
-0.000141147
-0.000348717
-0.000164539
-0.000357028
-0.000186836
-0.000364852
-0.000207176
-0.000372155
-0.000224557
-0.000378909
-0.000237845
-0.000385088
-0.000245784
-0.000390674
-0.000247012
-0.00039565
-0.000240101
-0.000400001
-0.000223591
-0.000403709
-0.000196041
-0.00040675
-0.000156094
-0.000409097
-0.000102554
-0.000410706
-3.45226e-05
-0.00041155
4.87657e-05
-0.000411584
0.000147278
-0.000410752
0.000260547
-0.000409006
0.000387354
-0.000406301
0.000525626
-0.000402595
0.000672297
-0.000397853
0.000823217
-0.000392039
0.000973133
-0.000385113
0.00111567
-0.000377024
0.00124344
-0.000367706
0.00134825
-0.000357078
0.00142145
-0.000345045
0.00145434
-0.000331515
0.00143902
-0.000316404
0.00136875
-0.000299699
0.00123964
-0.000281414
0.00104999
-0.000261753
0.000804005
-0.00024091
0.000507069
-0.000219444
0.00017561
-0.000197603
-0.000179546
-0.000176365
-0.000524173
-0.000155169
-0.000849775
-0.000135209
-0.00109338
-0.000112123
-0.00125916
-8.72875e-05
-0.00124717
-4.48111e-05
-0.00106631
-0.000687198
-0.000297416
-6.09183e-05
-0.000307205
-8.40466e-05
-0.000316681
-0.000107907
-0.000325791
-0.000132037
-0.000334484
-0.000155846
-0.000342712
-0.000178608
-0.000350429
-0.000199459
-0.000357595
-0.000217391
-0.000364176
-0.000231264
-0.000370144
-0.000239816
-0.000375476
-0.00024168
-0.000380153
-0.000235424
-0.000384158
-0.000219586
-0.000387476
-0.000192723
-0.000390086
-0.000153484
-0.000391963
-0.000100677
-0.00039307
-3.34155e-05
-0.00039338
4.90762e-05
-0.000392858
0.000146757
-0.000391451
0.000259139
-0.000389111
0.000385015
-0.000385797
0.000522312
-0.00038147
0.00066797
-0.000376093
0.00081784
-0.000369631
0.000966671
-0.000362046
0.00110809
-0.000353287
0.00123468
-0.000343294
0.00133826
-0.000331988
0.00141014
-0.000319281
0.00144164
-0.000305088
0.00142483
-0.00028933
0.00135299
-0.000271999
0.00122231
-0.000253116
0.00103111
-0.000232887
0.000783776
-0.000211507
0.000485688
-0.000189537
0.00015364
-0.000167219
-0.000201864
-0.000145555
-0.000545836
-0.000123964
-0.000871367
-0.000103763
-0.00111358
-8.04939e-05
-0.00128243
-5.58883e-05
-0.00127177
-1.27723e-05
-0.00110942
-0.000731728
-0.000281901
-5.09392e-05
-0.000291626
-7.43215e-05
-0.000301041
-9.84919e-05
-0.000310089
-0.00012299
-0.000318712
-0.000147223
-0.000326855
-0.000170465
-0.000334466
-0.000191847
-0.000341499
-0.000210358
-0.000347914
-0.000224849
-0.000353677
-0.000234053
-0.000358761
-0.000236597
-0.000363144
-0.000231041
-0.000366808
-0.000215921
-0.000369738
-0.000189793
-0.000371916
-0.000151306
-0.00037332
-9.92742e-05
-0.000373918
-3.28168e-05
-0.000373687
4.88449e-05
-0.000372599
0.000145669
-0.000370604
0.000257144
-0.00036766
0.000382071
-0.000363726
0.000518378
-0.000358767
0.00066301
-0.000352746
0.000811819
-0.00034563
0.000959555
-0.000337383
0.00109984
-0.000327956
0.00122525
-0.000317292
0.00132759
-0.000305319
0.00139817
-0.000291953
0.00142827
-0.000277115
0.00140999
-0.000260734
0.00133661
-0.000242804
0.00120438
-0.000223349
0.00101165
-0.000202578
0.000763005
-0.000180683
0.000463793
-0.000158225
0.000131183
-0.000135441
-0.000224649
-0.000113347
-0.00056793
-9.13379e-05
-0.000893376
-7.08585e-05
-0.00113406
-4.73528e-05
-0.00130593
-2.29627e-05
-0.00129616
2.02583e-05
-0.00115264
-0.000776798
-0.000264893
-4.10492e-05
-0.000274541
-6.46736e-05
-0.000283886
-8.91467e-05
-0.000292865
-0.00011401
-0.000301416
-0.000138672
-0.000309476
-0.000162405
-0.000316987
-0.000184337
-0.000323895
-0.00020345
-0.000330153
-0.00021859
-0.000335722
-0.000228485
-0.000340569
-0.00023175
-0.000344669
-0.000226941
-0.000348003
-0.000212588
-0.000350553
-0.000187242
-0.000352304
-0.000149555
-0.000353237
-9.83413e-05
-0.000353325
-3.27287e-05
-0.000352549
4.80684e-05
-0.000350889
0.000144009
-0.000348298
0.000254553
-0.00034474
0.000378512
-0.000340177
0.000513816
-0.000334576
0.000657409
-0.000327905
0.000805147
-0.00032013
0.00095178
-0.000311219
0.00109093
-0.000301126
0.00121516
-0.000289799
0.00131627
-0.000277169
0.00138554
-0.00026316
0.00141426
-0.000247697
0.00139453
-0.000230715
0.00131963
-0.000212211
0.00118588
-0.000192212
0.000991654
-0.000170923
0.000741717
-0.000148537
0.000441407
-0.00012561
0.000108255
-0.000102368
-0.000247891
-7.98421e-05
-0.000590455
-5.7397e-05
-0.000915821
-3.66025e-05
-0.00115485
-1.27685e-05
-0.00132977
1.13848e-05
-0.00132032
5.44619e-05
-0.00119572
-0.000822271
-0.000246402
-3.12636e-05
-0.00025596
-5.51161e-05
-0.000265226
-7.98806e-05
-0.000274132
-0.000105104
-0.00028261
-0.000130194
-0.000290591
-0.000154424
-0.000298009
-0.000176919
-0.000304803
-0.000196656
-0.00031092
-0.000212474
-0.000316311
-0.000223093
-0.000320939
-0.000227122
-0.000324774
-0.000223106
-0.000327792
-0.000209569
-0.000329977
-0.000185057
-0.000331313
-0.000148219
-0.000331783
-9.78711e-05
-0.000331366
-3.31455e-05
-0.000330045
4.67468e-05
-0.00032781
0.000141774
-0.00032462
0.000251363
-0.000320441
0.000374334
-0.000315243
0.000508617
-0.000308994
0.000651161
-0.000301667
0.00079782
-0.00029323
0.000943343
-0.000283655
0.00108135
-0.000272899
0.00120441
-0.000260914
0.00130428
-0.00024764
0.00137227
-0.000233002
0.00139962
-0.000216934
0.00137846
-0.000199373
0.00130207
-0.000180321
0.00116683
-0.000159802
0.000971135
-0.000138021
0.000719936
-0.000115166
0.000418552
-9.17866e-05
8.48761e-05
-6.80989e-05
-0.000271579
-4.51418e-05
-0.000613412
-2.22429e-05
-0.00093872
-1.14748e-06
-0.00117595
2.30225e-05
-0.00135394
4.72465e-05
-0.00134454
8.99996e-05
-0.00123847
-0.00086783
-0.000226439
-2.15986e-05
-0.000235892
-4.56627e-05
-0.00024507
-7.07021e-05
-0.0002539
-9.62738e-05
-0.000262306
-0.000121788
-0.000270214
-0.000146517
-0.000277549
-0.000169583
-0.000284244
-0.000189961
-0.000290237
-0.000206481
-0.000295471
-0.000217859
-0.000299903
-0.00022269
-0.000303496
-0.000219513
-0.000306223
-0.000206842
-0.000308063
-0.000183217
-0.000309002
-0.000147281
-0.000309024
-9.78488e-05
-0.000308114
-3.40555e-05
-0.000306254
4.48862e-05
-0.000303448
0.000138968
-0.000299657
0.000247572
-0.000294856
0.000369533
-0.000289018
0.000502779
-0.000282117
0.000644261
-0.00027413
0.000789832
-0.000265029
0.000934242
-0.000254791
0.00107111
-0.000243376
0.00119299
-0.000230741
0.00129165
-0.000216833
0.00135836
-0.000201582
0.00138437
-0.000184927
0.0013618
-0.00016681
0.00128395
-0.000147232
0.00114725
-0.000126217
0.000950121
-0.000103968
0.000697687
-8.0667e-05
0.00039525
-5.68537e-05
6.10628e-05
-3.27319e-05
-0.000295701
-9.34385e-06
-0.0006368
1.40156e-05
-0.00096208
3.55292e-05
-0.00119746
5.99924e-05
-0.0013784
8.42324e-05
-0.00136878
0.000126671
-0.00128091
-0.000913307
-0.000205007
-1.20799e-05
-0.000214344
-3.63253e-05
-0.000223426
-6.16197e-05
-0.000232176
-8.75241e-05
-0.000240512
-0.000113452
-0.000248354
-0.000138676
-0.000255619
-0.000162318
-0.000262233
-0.000183348
-0.000268123
-0.00020059
-0.000273227
-0.000212755
-0.00027749
-0.000218426
-0.000280871
-0.000216132
-0.000283336
-0.000204378
-0.00028486
-0.000181692
-0.000285428
-0.000146713
-0.000285024
-9.82527e-05
-0.00028364
-3.54399e-05
-0.000281253
4.24991e-05
-0.000277884
0.0001356
-0.000273498
0.000243186
-0.000268076
0.000364111
-0.000261597
0.0004963
-0.000254044
0.000636707
-0.000245395
0.000781184
-0.00023563
0.000924477
-0.00022473
0.00106021
-0.00021266
0.00118092
-0.000199384
0.00127837
-0.000184852
0.00134382
-0.000169003
0.00136852
-0.000151779
0.00134458
-0.000133125
0.0012653
-0.000113043
0.00112716
-9.15566e-05
0.000928635
-6.8861e-05
0.000674992
-4.51342e-05
0.000371524
-2.09025e-05
3.6831e-05
3.65462e-06
-0.000320258
2.74426e-05
-0.000660588
5.12622e-05
-0.000985899
7.31882e-05
-0.00121939
9.80486e-05
-0.00140326
0.000122313
-0.00139304
0.000164377
-0.00132298
-0.000958583
-0.000182112
-2.71644e-06
-0.000191321
-2.71169e-05
-0.000200299
-5.26418e-05
-0.000208965
-7.88574e-05
-0.000217235
-0.000105183
-0.000225018
-0.000130892
-0.000232228
-0.000155108
-0.00023878
-0.000176797
-0.000244594
-0.000194776
-0.000249596
-0.000207753
-0.000253725
-0.000214298
-0.000256929
-0.000212928
-0.000259168
-0.000202139
-0.000260412
-0.000180447
-0.000260642
-0.000146483
-0.000259844
-9.9051e-05
-0.000258009
-3.72756e-05
-0.000255116
3.96067e-05
-0.0002512
0.000131683
-0.000246229
0.000238215
-0.000240193
0.000358075
-0.000233078
0.000489185
-0.000224872
0.000628501
-0.000215564
0.000771876
-0.000205136
0.000914049
-0.000193576
0.00104865
-0.000180856
0.0011682
-0.000166946
0.00126446
-0.000151801
0.00132868
-0.000135368
0.00135209
-0.00011759
0.0013268
-9.84191e-05
0.00124613
-7.78521e-05
0.0011066
-5.5915e-05
0.000906697
-3.27915e-05
0.000651868
-8.64575e-06
0.000347378
1.59642e-05
1.22211e-05
4.09034e-05
-0.000345197
6.51293e-05
-0.000684814
8.94178e-05
-0.00101019
0.000111766
-0.00124173
0.000137063
-0.00142856
0.000161387
-0.00141737
0.000203027
-0.00136462
-0.00100357
-0.00015776
6.47915e-06
-0.000166824
-1.80534e-05
-0.000175689
-4.37763e-05
-0.000184271
-7.02761e-05
-0.000192476
-9.69773e-05
-0.000200211
-0.000123156
-0.000207382
-0.000147937
-0.000213893
-0.000170285
-0.000219659
-0.000189011
-0.000224593
-0.000202818
-0.000228625
-0.000210265
-0.000231694
-0.00020986
-0.00023375
-0.000200083
-0.000234757
-0.00017944
-0.000234691
-0.000146549
-0.000233536
-0.000100207
-0.000231285
-3.95261e-05
-0.000227914
3.62354e-05
-0.000223473
0.000127243
-0.000217934
0.000232676
-0.000211296
0.000351437
-0.000203552
0.000481441
-0.000194699
0.000619649
-0.000184735
0.000761912
-0.000173647
0.000902961
-0.000161432
0.00103644
-0.000148068
0.00115484
-0.000133531
0.00124992
-0.000117784
0.00131293
-0.000100778
0.00133508
-8.24621e-05
0.00130849
-6.27896e-05
0.00122645
-4.17553e-05
0.00108556
-1.93811e-05
0.000884323
4.17112e-06
0.000628316
2.86584e-05
0.000322891
5.36471e-05
-1.27676e-05
7.89871e-05
-0.000370537
0.000103621
-0.000709448
0.000128378
-0.00103494
0.000151161
-0.00126452
0.000176925
-0.00145432
0.000201348
-0.00144179
0.000242535
-0.0014058
-0.00104819
-0.000131946
1.54877e-05
-0.000140849
-9.14997e-06
-0.000149599
-3.50264e-05
-0.000158093
-6.17827e-05
-0.000166237
-8.88327e-05
-0.000173934
-0.000115459
-0.000181081
-0.000140791
-0.000187576
-0.00016379
-0.000193323
-0.000183264
-0.000198227
-0.000197915
-0.000202204
-0.000206288
-0.000205183
-0.00020688
-0.000207105
-0.000198161
-0.000207926
-0.00017862
-0.000207613
-0.000146861
-0.000206147
-0.000101672
-0.000203523
-4.21501e-05
-0.00019971
3.24225e-05
-0.000194775
0.000122307
-0.000188693
0.000226594
-0.00018147
0.000344214
-0.000173111
0.000473082
-0.000163621
0.000610159
-0.000153008
0.000751298
-0.000141266
0.000891219
-0.000128401
0.00102357
-0.000114398
0.00114083
-9.92419e-05
0.00123477
-8.29014e-05
0.00129659
-6.53343e-05
0.00131752
-4.64927e-05
0.00128965
-2.63307e-05
0.00120629
-4.79811e-06
0.00106403
1.79367e-05
0.000861588
4.1845e-05
0.000604408
6.67285e-05
0.000298007
9.20815e-05
-3.81206e-05
0.000117797
-0.000396252
0.000142827
-0.000734479
0.000168047
-0.00106016
0.000191273
-0.00128774
0.000217526
-0.00148057
0.000242092
-0.00146636
0.000282813
-0.00144652
-0.0010924
-0.00010467
-0.0001134
-4.19324e-07
-0.000122029
-2.63974e-05
-0.000130431
-5.33815e-05
-0.000138518
-8.07455e-05
-0.000146187
-0.000107791
-0.000153327
-0.00013365
-0.00015983
-0.000157287
-0.00016559
-0.000177503
-0.000170501
-0.000193004
-0.000174469
-0.000202321
-0.00017741
-0.00020394
-0.000179253
-0.000196318
-0.000179942
-0.00017793
-0.00017944
-0.000147364
-0.000177719
-0.000103393
-0.000174773
-4.50956e-05
-0.000170563
2.82122e-05
-0.000165172
0.000116916
-0.000158579
0.000220001
-0.000150798
0.000336434
-0.000141843
0.000464126
-0.00013173
0.000600046
-0.000120478
0.000740046
-0.00010809
0.000878831
-9.45822e-05
0.00101007
-7.99484e-05
0.0011262
-6.418e-05
0.001219
-4.72545e-05
0.00127967
-2.91351e-05
0.0012994
-9.76846e-06
0.00127028
1.08603e-05
0.00118566
3.27727e-05
0.00104212
5.59519e-05
0.000838409
8.02376e-05
0.000580122
0.000105472
0.000272772
0.000131172
-6.382e-05
0.000157246
-0.000422326
0.000182659
-0.000759892
0.000208334
-0.00108584
0.000232005
-0.00131141
0.000258764
-0.00150733
0.000283516
-0.00149111
0.000323774
-0.00148678
-0.00113617
-8.44987e-05
8.17841e-06
-9.2974e-05
-1.79222e-05
-0.000101282
-4.50731e-05
-0.000109316
-7.27118e-05
-0.000116966
-0.00010014
-0.000124118
-0.000126499
-0.000130653
-0.000150752
-0.00013646
-0.000171696
-0.000141419
-0.000188045
-0.000145424
-0.000198315
-0.00014838
-0.000200983
-0.000150203
-0.000194495
-0.000150825
-0.000177308
-0.000150196
-0.000147993
-0.000148284
-0.000105306
-0.000145076
-4.83033e-05
-0.000140523
2.36593e-05
-0.000134725
0.000111118
-0.000127661
0.000212936
-0.000119355
0.000328128
-0.00010983
0.000454601
-9.91131e-05
0.000589329
-8.72375e-05
0.000728171
-7.42154e-05
0.000865809
-6.00732e-05
0.000995924
-4.4816e-05
0.00111094
-2.84431e-05
0.00120262
-1.0939e-05
0.00126216
7.7246e-06
0.00128073
2.75822e-05
0.00125042
4.86773e-05
0.00116457
7.1021e-05
0.00101977
9.45897e-05
0.000814841
0.000119235
0.000555477
0.000144806
0.000247202
0.000170835
-8.98493e-05
0.000197251
-0.000448742
0.000223033
-0.000785673
0.000249152
-0.00111196
0.000273267
-0.00133553
0.00030054
-0.00153461
0.000325519
-0.00151609
0.00036533
-0.00152659
-0.00117947
-5.40896e-05
1.6586e-05
-6.24267e-05
-9.58508e-06
-7.06455e-05
-3.68542e-05
-7.86299e-05
-6.47275e-05
-8.62723e-05
-9.24979e-05
-9.3452e-05
-0.000119319
-0.000100044
-0.00014416
-0.00010593
-0.000165811
-0.000110978
-0.000182997
-0.000115071
-0.000194223
-0.000118099
-0.000197955
-0.000119964
-0.00019263
-0.000120586
-0.000176687
-0.000119901
-0.000148678
-0.000117866
-0.000107341
-0.000114466
-5.1704e-05
-0.000109632
1.8826e-05
-0.000103484
0.00010497
-9.59981e-05
0.000205451
-8.72088e-05
0.000319339
-7.71471e-05
0.000444539
-6.5853e-05
0.000578035
-5.3374e-05
0.000715692
-3.97326e-05
0.000852168
-2.49687e-05
0.00098116
-9.0983e-06
0.00109507
7.87396e-06
0.00118565
2.59464e-05
0.00124409
4.51434e-05
0.00126154
6.55005e-05
0.00123007
8.70532e-05
0.00114302
0.000109814
0.000997014
0.000133761
0.000790893
0.000158754
0.000530484
0.000184647
0.000221309
0.000210991
-0.000116194
0.000237733
-0.000475484
0.000263868
-0.000811808
0.000290417
-0.00113851
0.00031497
-0.00136008
0.000342759
-0.0015624
0.000368002
-0.00154133
0.000407394
-0.00156598
-0.00122229
-2.21954e-05
2.48022e-05
-3.03867e-05
-1.39384e-06
-3.85198e-05
-2.87211e-05
-4.64582e-05
-5.67891e-05
-5.41032e-05
-8.48529e-05
-6.13283e-05
-0.000112094
-6.80026e-05
-0.000137485
-7.39996e-05
-0.000159814
-7.91784e-05
-0.000177818
-8.34079e-05
-0.000189993
-8.6566e-05
-0.000194797
-8.85393e-05
-0.000190657
-8.9231e-05
-0.000175996
-8.85645e-05
-0.000149344
-8.6485e-05
-0.00010942
-8.2967e-05
-5.5222e-05
-7.79253e-05
1.37843e-05
-7.14929e-05
9.85376e-05
-6.36444e-05
0.000197602
-5.44223e-05
0.000310117
-4.38657e-05
0.000433983
-3.20284e-05
0.000566198
-1.89759e-05
0.000702639
-4.77413e-06
0.000837966
1.06443e-05
0.000965742
2.71235e-05
0.00107859
4.46809e-05
0.0011681
6.33158e-05
0.00122546
8.30426e-05
0.00124181
0.000103892
0.00120922
0.000125896
0.00112101
0.000149067
0.000973842
0.000173384
0.000766576
0.000198716
0.000505152
0.000224918
0.000195107
0.000251564
-0.000142839
0.000278616
-0.000502536
0.000305087
-0.000838279
0.00033205
-0.00116547
0.000357032
-0.00138506
0.000385331
-0.00159069
0.000410874
-0.00156688
0.00044988
-0.00160499
-0.00126464
1.12175e-05
3.28024e-05
3.12847e-06
6.69517e-06
-4.90132e-06
-2.06913e-05
-1.28017e-05
-4.88886e-05
-2.04605e-05
-7.71941e-05
-2.77484e-05
-0.000104806
-3.45282e-05
-0.000130705
-4.06704e-05
-0.000153672
-4.602e-05
-0.000172468
-5.04359e-05
-0.000185577
-5.37821e-05
-0.000191451
-5.59296e-05
-0.000188509
-5.6765e-05
-0.00017516
-5.61955e-05
-0.000149914
-5.41527e-05
-0.000111463
-5.06e-05
-5.87747e-05
-4.54302e-05
8.61447e-06
-3.8789e-05
9.18964e-05
-3.06486e-05
0.000189462
-2.10585e-05
0.000300527
-1.00784e-05
0.000423003
2.2438e-06
0.000553876
1.59038e-05
0.000688979
3.07287e-05
0.000823141
4.66921e-05
0.000949778
6.37569e-05
0.00106153
8.18919e-05
0.00114996
0.000101082
0.00120626
0.000121334
0.00122156
0.000142671
0.00118788
0.000165122
0.00109856
0.0001887
0.000950265
0.000213382
0.000741894
0.000239044
0.00047949
0.000265546
0.000168605
0.000292479
-0.000169772
0.000319824
-0.000529882
0.000346616
-0.000865071
0.000373975
-0.00119283
0.000399375
-0.00141047
0.000428171
-0.00161949
0.000454042
-0.00159275
0.000492703
-0.00164365
-0.00130651
4.61082e-05
4.06137e-05
3.81527e-05
1.46507e-05
3.02082e-05
-1.27468e-05
2.23366e-05
-4.1017e-05
1.46512e-05
-6.95088e-05
7.2809e-06
-9.74357e-05
3.35678e-07
-0.00012376
-5.95268e-06
-0.000147384
-1.15106e-05
-0.00016691
-1.6161e-05
-0.000180927
-1.97527e-05
-0.000187859
-2.21408e-05
-0.000186121
-2.31947e-05
-0.000174106
-2.2804e-05
-0.000150304
-2.08853e-05
-0.000113382
-1.7389e-05
-6.2271e-05
-1.21929e-05
3.41839e-06
-5.47963e-06
8.51831e-05
2.89457e-06
0.000181087
1.28645e-05
0.000290557
2.42737e-05
0.000411593
3.70794e-05
0.00054107
5.11953e-05
0.000674863
6.65581e-05
0.000807778
8.30871e-05
0.000933249
0.000100725
0.00104389
0.000119427
0.00113126
0.000139166
0.00118653
0.000159937
0.00120079
0.00018176
0.00116606
0.000204656
0.00107567
0.000228638
0.000926283
0.00025368
0.000716852
0.000279666
0.000453504
0.000306457
0.000141814
0.000333665
-0.00019698
0.000361289
-0.000557506