/*--------------------------------*- C++ -*----------------------------------*\
  =========                 |
  \\      /  F ield         | OpenFOAM: The Open Source CFD Toolbox
   \\    /   O peration     | Website:  https://openfoam.org
    \\  /    A nd           | Version:  7
     \\/     M anipulation  |
\*---------------------------------------------------------------------------*/
FoamFile
{
    version     2.0;
    format      ascii;
    class       volScalarField;
    location    "55";
    object      p;
}
// * * * * * * * * * * * * * * * * * * * * * * * * * * * * * * * * * * * * * //

dimensions      [0 2 -2 0 0 0 0];

internalField   nonuniform List<scalar> 
8500
(
-0.138725
-0.139747
-0.140371
-0.140905
-0.141373
-0.141777
-0.142133
-0.142454
-0.142747
-0.143021
-0.143279
-0.143525
-0.14376
-0.143987
-0.144207
-0.144422
-0.144633
-0.144846
-0.14506
-0.14528
-0.138764
-0.139781
-0.140401
-0.140933
-0.141398
-0.141799
-0.142153
-0.142471
-0.142762
-0.143033
-0.143289
-0.143532
-0.143765
-0.14399
-0.144207
-0.14442
-0.14463
-0.144841
-0.145055
-0.145272
-0.138846
-0.139855
-0.14047
-0.140998
-0.141459
-0.141856
-0.142206
-0.14252
-0.142807
-0.143074
-0.143326
-0.143565
-0.143794
-0.144015
-0.144228
-0.144437
-0.144644
-0.144852
-0.145063
-0.145275
-0.138972
-0.13997
-0.140578
-0.1411
-0.141555
-0.141947
-0.142291
-0.1426
-0.142882
-0.143144
-0.14339
-0.143623
-0.143847
-0.144061
-0.144269
-0.144472
-0.144674
-0.144879
-0.145085
-0.145289
-0.13914
-0.140125
-0.140725
-0.141238
-0.141687
-0.142072
-0.142409
-0.142711
-0.142986
-0.14324
-0.143479
-0.143706
-0.143921
-0.144129
-0.144329
-0.144525
-0.144719
-0.144919
-0.145119
-0.145311
-0.13935
-0.140318
-0.140909
-0.141413
-0.141853
-0.142229
-0.142558
-0.142852
-0.143118
-0.143364
-0.143594
-0.143811
-0.144018
-0.144216
-0.144407
-0.144594
-0.144779
-0.144971
-0.145163
-0.145341
-0.139601
-0.140551
-0.141129
-0.141623
-0.142053
-0.142419
-0.142738
-0.143022
-0.143278
-0.143514
-0.143733
-0.14394
-0.144135
-0.144322
-0.144502
-0.144677
-0.144852
-0.145035
-0.145217
-0.145376
-0.139891
-0.14082
-0.141386
-0.141868
-0.142286
-0.142641
-0.142949
-0.14322
-0.143465
-0.143689
-0.143896
-0.14409
-0.144272
-0.144445
-0.144612
-0.144774
-0.144935
-0.145107
-0.145278
-0.145416
-0.14022
-0.141126
-0.141678
-0.142146
-0.142551
-0.142893
-0.143188
-0.143447
-0.143678
-0.143887
-0.14408
-0.14426
-0.144427
-0.144585
-0.144735
-0.144882
-0.145028
-0.145187
-0.145344
-0.145456
-0.140585
-0.141468
-0.142004
-0.142458
-0.142848
-0.143175
-0.143455
-0.143699
-0.143915
-0.144109
-0.144286
-0.144449
-0.144599
-0.144739
-0.144871
-0.144999
-0.145128
-0.145272
-0.145413
-0.145496
-0.140987
-0.141843
-0.142362
-0.1428
-0.143174
-0.143486
-0.14375
-0.143978
-0.144176
-0.144353
-0.144511
-0.144655
-0.144786
-0.144906
-0.145018
-0.145125
-0.145233
-0.14536
-0.145483
-0.145532
-0.141423
-0.142252
-0.142753
-0.143174
-0.143531
-0.143825
-0.144071
-0.14428
-0.14446
-0.144617
-0.144755
-0.144878
-0.144986
-0.145084
-0.145172
-0.145256
-0.14534
-0.145447
-0.14555
-0.145561
-0.141893
-0.142693
-0.143175
-0.143577
-0.143915
-0.144191
-0.144417
-0.144606
-0.144765
-0.1449
-0.145016
-0.145115
-0.145199
-0.145271
-0.145333
-0.14539
-0.145448
-0.145533
-0.145612
-0.145579
-0.142394
-0.143165
-0.143627
-0.144009
-0.144327
-0.144582
-0.144788
-0.144954
-0.14509
-0.145202
-0.145293
-0.145366
-0.145423
-0.145467
-0.145499
-0.145526
-0.145554
-0.145613
-0.145666
-0.145584
-0.142926
-0.143666
-0.144108
-0.144469
-0.144766
-0.144999
-0.145181
-0.145324
-0.145435
-0.14552
-0.145584
-0.145629
-0.145656
-0.145668
-0.145668
-0.145661
-0.145656
-0.145685
-0.14571
-0.14557
-0.143487
-0.144197
-0.144617
-0.144956
-0.14523
-0.145439
-0.145597
-0.145714
-0.145798
-0.145855
-0.145889
-0.145902
-0.145897
-0.145875
-0.145838
-0.145794
-0.14575
-0.145746
-0.14574
-0.145535
-0.144077
-0.144756
-0.145153
-0.14547
-0.145719
-0.145903
-0.146034
-0.146123
-0.146177
-0.146204
-0.146206
-0.146186
-0.146145
-0.146084
-0.146008
-0.145922
-0.145836
-0.145794
-0.145755
-0.145471
-0.144694
-0.145342
-0.145716
-0.146009
-0.146232
-0.146389
-0.146492
-0.146551
-0.146574
-0.146567
-0.146535
-0.146478
-0.146398
-0.146297
-0.146177
-0.146045
-0.145911
-0.145826
-0.145751
-0.145374
-0.145338
-0.145954
-0.146305
-0.146572
-0.146769
-0.146897
-0.146969
-0.146996
-0.146985
-0.146944
-0.146874
-0.146778
-0.146657
-0.146511
-0.146343
-0.14616
-0.145973
-0.145839
-0.145726
-0.145224
-0.146009
-0.146593
-0.146919
-0.147161
-0.147329
-0.147426
-0.147466
-0.147459
-0.147412
-0.147332
-0.147223
-0.147086
-0.14692
-0.146726
-0.146506
-0.146268
-0.146021
-0.145833
-0.145679
-0.145001
-0.146705
-0.147259
-0.147559
-0.147773
-0.147911
-0.147977
-0.147982
-0.147938
-0.147853
-0.147733
-0.147582
-0.1474
-0.147187
-0.146941
-0.146666
-0.146367
-0.146055
-0.145805
-0.145612
-0.144807
-0.147428
-0.14795
-0.148225
-0.14841
-0.148516
-0.148547
-0.148516
-0.148433
-0.148308
-0.148146
-0.14795
-0.147721
-0.147457
-0.147157
-0.146822
-0.146457
-0.146074
-0.145753
-0.145481
-0.144579
-0.148176
-0.148667
-0.148916
-0.149071
-0.149144
-0.149139
-0.149068
-0.148945
-0.148776
-0.14857
-0.148327
-0.148049
-0.147732
-0.147375
-0.146976
-0.14654
-0.146078
-0.145679
-0.145326
-0.144272
-0.148951
-0.149411
-0.149632
-0.149756
-0.149794
-0.14975
-0.149639
-0.149472
-0.149258
-0.149005
-0.148713
-0.148383
-0.148011
-0.147594
-0.147128
-0.146617
-0.146068
-0.145582
-0.145146
-0.143891
-0.149753
-0.150182
-0.150375
-0.150467
-0.150467
-0.150383
-0.150228
-0.150015
-0.149754
-0.149451
-0.149108
-0.148724
-0.148296
-0.147816
-0.14728
-0.146688
-0.146046
-0.145463
-0.144936
-0.143436
-0.150584
-0.150982
-0.151146
-0.151202
-0.151164
-0.151037
-0.150836
-0.150575
-0.150263
-0.149908
-0.149512
-0.149073
-0.148586
-0.148041
-0.147433
-0.146757
-0.146015
-0.145324
-0.144699
-0.142899
-0.151444
-0.151811
-0.151944
-0.151965
-0.151885
-0.151712
-0.151463
-0.15115
-0.150786
-0.150377
-0.149926
-0.14943
-0.148882
-0.148271
-0.147588
-0.146826
-0.145978
-0.145167
-0.144436
-0.142277
-0.152336
-0.152671
-0.152772
-0.152755
-0.152631
-0.15241
-0.152109
-0.151743
-0.151323
-0.150858
-0.15035
-0.149795
-0.149185
-0.148508
-0.147749
-0.146897
-0.145938
-0.144997
-0.144153
-0.141563
-0.153261
-0.153564
-0.153632
-0.153574
-0.153403
-0.153131
-0.152776
-0.152353
-0.151875
-0.151351
-0.150784
-0.150168
-0.149496
-0.148752
-0.147917
-0.146974
-0.145901
-0.144817
-0.143855
-0.140756
-0.154222
-0.154491
-0.154524
-0.154423
-0.154204
-0.153877
-0.153464
-0.152981
-0.152443
-0.151857
-0.151228
-0.150551
-0.149816
-0.149003
-0.148093
-0.14706
-0.145869
-0.144634
-0.143551
-0.139855
-0.155221
-0.155456
-0.155452
-0.155306
-0.155033
-0.15465
-0.154175
-0.153629
-0.153026
-0.152377
-0.151684
-0.150944
-0.150144
-0.149264
-0.148278
-0.147156
-0.145847
-0.144454
-0.143247
-0.138864
-0.156262
-0.156462
-0.156418
-0.156223
-0.155895
-0.15545
-0.154911
-0.154298
-0.153628
-0.152911
-0.152152
-0.151347
-0.150482
-0.149535
-0.148475
-0.147265
-0.14584
-0.144281
-0.142952
-0.137792
-0.157349
-0.15751
-0.157424
-0.157177
-0.15679
-0.15628
-0.155672
-0.154988
-0.154247
-0.153461
-0.152633
-0.151761
-0.15083
-0.149816
-0.148683
-0.147389
-0.145851
-0.144123
-0.14267
-0.136656
-0.158484
-0.158605
-0.158474
-0.158172
-0.157721
-0.157142
-0.156461
-0.155703
-0.154887
-0.154027
-0.153128
-0.152187
-0.151189
-0.150107
-0.148904
-0.147529
-0.145882
-0.143989
-0.142403
-0.135481
-0.159673
-0.15975
-0.159571
-0.15921
-0.158691
-0.158039
-0.157281
-0.156444
-0.15555
-0.154613
-0.153639
-0.152626
-0.151559
-0.150411
-0.149139
-0.147687
-0.145938
-0.14389
-0.142151
-0.134316
-0.160921
-0.16095
-0.160719
-0.160295
-0.159704
-0.158974
-0.158134
-0.157214
-0.156237
-0.155219
-0.154167
-0.15308
-0.151943
-0.150728
-0.149389
-0.147867
-0.146024
-0.143844
-0.141915
-0.133245
-0.162231
-0.162209
-0.161922
-0.16143
-0.160762
-0.159949
-0.159023
-0.158016
-0.156952
-0.155849
-0.154716
-0.153552
-0.152343
-0.151061
-0.149658
-0.148073
-0.146146
-0.143873
-0.141663
-0.132318
-0.163609
-0.163532
-0.163184
-0.16262
-0.16187
-0.160969
-0.159952
-0.158853
-0.157697
-0.156506
-0.155289
-0.154045
-0.152763
-0.151413
-0.149951
-0.148314
-0.146323
-0.14402
-0.1413
-0.131425
-0.165062
-0.164923
-0.16451
-0.163868
-0.163031
-0.162037
-0.160925
-0.159728
-0.158478
-0.157194
-0.155889
-0.154563
-0.153205
-0.151789
-0.150273
-0.148601
-0.146593
-0.144392
-0.140911
-0.130982
-0.166596
-0.166389
-0.165905
-0.16518
-0.164251
-0.163159
-0.161945
-0.160647
-0.159297
-0.157917
-0.156521
-0.15511
-0.153674
-0.152192
-0.150628
-0.148942
-0.146981
-0.145093
-0.141273
-0.134904
-0.168215
-0.167934
-0.167374
-0.16656
-0.165533
-0.164337
-0.163017
-0.161614
-0.16016
-0.158681
-0.15719
-0.155691
-0.154176
-0.152628
-0.151017
-0.149329
-0.147445
-0.145972
-0.142901
-0.149719
-0.169928
-0.169565
-0.168923
-0.168013
-0.166882
-0.165578
-0.164147
-0.162634
-0.161073
-0.15949
-0.157901
-0.156312
-0.154716
-0.153098
-0.151439
-0.149744
-0.147923
-0.146802
-0.143936
-0.153327
-0.171741
-0.171287
-0.170556
-0.169546
-0.168304
-0.166886
-0.16534
-0.163712
-0.16204
-0.160351
-0.158662
-0.156979
-0.155297
-0.153606
-0.151891
-0.150177
-0.148376
-0.147438
-0.14452
-0.153862
-0.17366
-0.173106
-0.17228
-0.171162
-0.169805
-0.168266
-0.1666
-0.164855
-0.163068
-0.161269
-0.159477
-0.157697
-0.155926
-0.154155
-0.152374
-0.150619
-0.148796
-0.147893
-0.144891
-0.153562
-0.175693
-0.175029
-0.174101
-0.172868
-0.171389
-0.169726
-0.167935
-0.166067
-0.164163
-0.162252
-0.160353
-0.158472
-0.156607
-0.154749
-0.152888
-0.151065
-0.149176
-0.148187
-0.145061
-0.152613
-0.177847
-0.177062
-0.176024
-0.17467
-0.173062
-0.171269
-0.16935
-0.167356
-0.165331
-0.163305
-0.161296
-0.15931
-0.157344
-0.155388
-0.15343
-0.151511
-0.149512
-0.148336
-0.145041
-0.151214
-0.179211
-0.178055
-0.176573
-0.174831
-0.172903
-0.17085
-0.168728
-0.166579
-0.164434
-0.162311
-0.160216
-0.158141
-0.156074
-0.154
-0.151952
-0.1498
-0.148355
-0.144858
-0.149556
-0.1802
-0.178583
-0.176701
-0.174633
-0.172443
-0.170188
-0.167912
-0.165646
-0.163405
-0.161192
-0.158998
-0.156806
-0.154594
-0.152384
-0.150038
-0.148262
-0.144539
-0.147767
-0.180706
-0.178678
-0.176465
-0.174134
-0.171744
-0.169338
-0.166945
-0.164581
-0.162244
-0.159919
-0.157584
-0.155209
-0.152804
-0.150226
-0.148072
-0.144105
-0.145932
-0.182948
-0.180767
-0.178405
-0.17593
-0.1734
-0.170861
-0.168339
-0.165844
-0.163372
-0.160902
-0.158404
-0.15584
-0.153208
-0.150362
-0.147799
-0.143572
-0.144101
-0.182976
-0.18046
-0.177836
-0.175164
-0.172487
-0.16983
-0.167197
-0.164578
-0.161946
-0.159263
-0.156483
-0.153591
-0.150447
-0.147454
-0.142953
-0.142307
-0.182634
-0.179859
-0.177041
-0.174222
-0.171422
-0.168641
-0.165862
-0.163048
-0.160156
-0.157131
-0.153948
-0.150477
-0.147043
-0.142258
-0.140562
-0.182003
-0.179036
-0.176069
-0.173118
-0.170178
-0.167221
-0.164204
-0.161075
-0.157776
-0.154273
-0.150451
-0.146572
-0.141492
-0.138872
-0.181153
-0.178031
-0.174921
-0.171806
-0.168652
-0.165408
-0.162014
-0.158411
-0.154561
-0.150366
-0.146041
-0.140659
-0.13723
-0.180112
-0.176829
-0.173523
-0.17015
-0.166651
-0.162964
-0.159026
-0.154804
-0.150218
-0.145452
-0.139762
-0.135628
-0.178842
-0.175325
-0.171708
-0.167925
-0.163913
-0.159612
-0.154995
-0.150003
-0.144801
-0.138799
-0.13405
-0.177206
-0.173317
-0.16922
-0.16485
-0.160158
-0.155125
-0.149717
-0.144085
-0.13777
-0.132483
-0.174966
-0.170522
-0.165765
-0.160654
-0.155188
-0.149354
-0.1433
-0.136673
-0.13091
-0.166642
-0.161089
-0.155174
-0.148909
-0.142442
-0.135503
-0.129317
-0.161452
-0.155075
-0.148376
-0.141504
-0.134256
-0.12769
-0.154884
-0.14775
-0.140481
-0.132928
-0.126014
-0.139368
-0.131514
-0.124278
-0.130009
-0.122472
-0.130853
-0.123237
-0.140313
-0.132382
-0.125067
-0.155984
-0.148791
-0.141455
-0.133823
-0.126827
-0.16263
-0.156205
-0.149448
-0.142507
-0.13518
-0.12853
-0.173085
-0.167884
-0.162296
-0.156335
-0.150013
-0.143477
-0.136457
-0.130187
-0.176268
-0.171811
-0.167033
-0.161891
-0.156381
-0.150492
-0.14437
-0.137661
-0.131811
-0.178529
-0.174637
-0.170532
-0.166145
-0.161425
-0.156352
-0.15089
-0.145191
-0.138794
-0.133418
-0.180175
-0.176663
-0.173047
-0.16926
-0.165235
-0.16091
-0.156256
-0.151213
-0.145945
-0.139861
-0.135021
-0.181448
-0.178174
-0.174876
-0.171508
-0.168009
-0.164313
-0.160355
-0.156101
-0.151466
-0.146636
-0.140864
-0.136638
-0.182488
-0.179376
-0.176277
-0.173174
-0.170029
-0.166788
-0.163391
-0.159772
-0.155894
-0.151653
-0.147267
-0.141804
-0.138282
-0.183336
-0.180378
-0.177423
-0.174487
-0.171561
-0.168616
-0.165608
-0.162479
-0.15917
-0.155642
-0.151778
-0.14784
-0.142681
-0.139967
-0.183966
-0.181197
-0.17839
-0.175585
-0.172802
-0.170039
-0.167276
-0.164475
-0.161587
-0.158557
-0.155354
-0.151845
-0.148356
-0.143494
-0.141703
-0.184307
-0.181795
-0.179179
-0.17652
-0.173859
-0.171221
-0.16861
-0.166011
-0.163395
-0.160722
-0.157941
-0.155034
-0.151857
-0.148811
-0.144237
-0.143495
-0.184282
-0.182102
-0.179744
-0.177278
-0.174763
-0.172242
-0.169742
-0.167272
-0.164824
-0.162374
-0.15989
-0.157331
-0.154688
-0.151815
-0.149203
-0.144906
-0.145338
-0.183805
-0.182042
-0.180015
-0.177807
-0.175487
-0.173112
-0.170727
-0.16836
-0.166023
-0.163714
-0.161413
-0.159097
-0.156731
-0.154321
-0.15172
-0.149522
-0.145489
-0.147219
-0.181541
-0.17992
-0.178039
-0.175978
-0.1738
-0.171563
-0.16931
-0.167071
-0.164861
-0.16268
-0.160515
-0.158346
-0.156147
-0.153937
-0.151574
-0.149758
-0.145974
-0.149106
-0.180559
-0.179395
-0.17791
-0.17617
-0.17425
-0.172211
-0.170108
-0.167985
-0.165871
-0.163782
-0.161721
-0.159678
-0.157639
-0.155583
-0.15354
-0.151376
-0.149896
-0.146344
-0.150947
-0.179212
-0.178408
-0.177362
-0.176006
-0.174401
-0.172617
-0.170713
-0.168742
-0.166745
-0.164752
-0.16278
-0.160832
-0.158903
-0.156978
-0.155042
-0.153133
-0.151127
-0.149922
-0.146577
-0.152658
-0.177056
-0.176372
-0.175436
-0.174202
-0.172726
-0.171074
-0.169301
-0.167457
-0.165583
-0.163709
-0.161849
-0.16001
-0.158185
-0.156362
-0.154527
-0.152719
-0.150828
-0.149815
-0.146646
-0.154109
-0.175019
-0.174444
-0.173611
-0.172491
-0.171139
-0.169613
-0.167967
-0.166247
-0.164494
-0.162734
-0.160985
-0.159249
-0.157522
-0.15579
-0.15404
-0.152303
-0.150482
-0.149561
-0.146522
-0.155109
-0.173093
-0.172617
-0.17188
-0.170869
-0.169634
-0.168229
-0.166705
-0.165106
-0.16347
-0.161823
-0.16018
-0.158544
-0.156909
-0.15526
-0.15358
-0.151888
-0.150094
-0.149143
-0.146193
-0.155457
-0.171271
-0.170886
-0.170238
-0.169329
-0.168205
-0.166916
-0.16551
-0.164028
-0.162505
-0.160967
-0.159427
-0.157888
-0.156341
-0.154769
-0.153148
-0.15148
-0.149669
-0.148541
-0.145647
-0.154964
-0.169546
-0.169243
-0.168678
-0.167865
-0.166847
-0.165669
-0.164375
-0.163005
-0.161593
-0.16016
-0.158721
-0.157275
-0.155813
-0.154313
-0.152744
-0.151085
-0.149215
-0.14774
-0.144645
-0.151395
-0.167911
-0.167684
-0.167195
-0.166473
-0.165554
-0.164481
-0.163295
-0.162034
-0.160727
-0.159397
-0.158054
-0.156699
-0.155319
-0.153889
-0.152368
-0.150715
-0.148772
-0.146884
-0.143048
-0.136631
-0.166359
-0.166201
-0.165784
-0.165146
-0.164321
-0.163348
-0.162265
-0.161107
-0.159902
-0.15867
-0.157422
-0.156154
-0.154854
-0.153492
-0.152023
-0.150386
-0.148399
-0.146201
-0.142708
-0.13273
-0.164884
-0.16479
-0.164438
-0.16388
-0.163144
-0.162266
-0.16128
-0.160221
-0.159113
-0.157976
-0.156818
-0.155635
-0.154412
-0.153118
-0.151705
-0.150106
-0.148138
-0.145842
-0.143114
-0.133184
-0.16348
-0.163443
-0.163155
-0.16267
-0.162018
-0.161229
-0.160336
-0.159371
-0.158356
-0.157309
-0.156237
-0.155136
-0.153989
-0.152764
-0.151412
-0.149867
-0.147965
-0.145701
-0.143486
-0.13408
-0.162142
-0.162158
-0.161927
-0.161512
-0.160938
-0.160233
-0.159429
-0.158553
-0.157627
-0.156666
-0.155677
-0.154654
-0.15358
-0.152424
-0.151138
-0.149658
-0.147841
-0.145671
-0.14374
-0.135003
-0.160863
-0.160929
-0.160752
-0.160401
-0.159901
-0.159276
-0.158555
-0.157763
-0.156921
-0.156042
-0.155132
-0.154184
-0.153182
-0.152095
-0.150876
-0.149468
-0.147747
-0.145711
-0.143971
-0.136063
-0.159639
-0.159752
-0.159625
-0.159335
-0.158904
-0.158354
-0.157711
-0.156999
-0.156237
-0.155436
-0.154601
-0.153726
-0.152793
-0.151774
-0.150625
-0.149294
-0.147677
-0.145797
-0.14421
-0.137212
-0.158466
-0.158623
-0.158543
-0.15831
-0.157944
-0.157464
-0.156894
-0.156258
-0.155571
-0.154845
-0.154082
-0.153276
-0.152411
-0.151459
-0.150382
-0.149133
-0.147625
-0.145912
-0.144458
-0.138366
-0.157339
-0.157538
-0.157502
-0.157322
-0.157017
-0.156603
-0.156103
-0.155538
-0.154922
-0.154266
-0.153572
-0.152834
-0.152035
-0.15115
-0.150146
-0.148981
-0.147587
-0.146044
-0.144715
-0.139477
-0.156254
-0.156493
-0.156499
-0.15637
-0.156122
-0.15577
-0.155335
-0.154837
-0.154289
-0.1537
-0.153072
-0.152398
-0.151664
-0.150846
-0.149916
-0.148839
-0.147562
-0.146185
-0.144979
-0.140519
-0.15521
-0.155487
-0.155532
-0.15545
-0.155256
-0.154962
-0.154589
-0.154154
-0.15367
-0.153145
-0.15258
-0.151968
-0.151298
-0.150547
-0.149691
-0.148704
-0.147544
-0.146328
-0.145246
-0.141476
-0.154202
-0.154517
-0.154599
-0.154561
-0.154417
-0.154178
-0.153863
-0.153488
-0.153065
-0.1526
-0.152095
-0.151545
-0.150937
-0.150253
-0.149472
-0.148575
-0.147532
-0.146468
-0.145508
-0.142339
-0.153228
-0.153579
-0.153697
-0.153701
-0.153605
-0.153418
-0.153157
-0.152838
-0.152472
-0.152065
-0.151619
-0.151127
-0.15058
-0.149962
-0.149257
-0.148449
-0.147522
-0.1466
-0.145758
-0.143103
-0.152287
-0.152674
-0.152826
-0.152869
-0.152817
-0.152679
-0.152469
-0.152204
-0.151892
-0.15154
-0.151149
-0.150715
-0.150228
-0.149675
-0.149044
-0.148325
-0.147508
-0.146717
-0.145989
-0.14377
-0.151376
-0.151799
-0.151983
-0.152064
-0.152054
-0.151961
-0.1518
-0.151585
-0.151324
-0.151025
-0.150688
-0.150309
-0.14988
-0.149392
-0.148834
-0.1482
-0.147489
-0.146817
-0.146196
-0.14434
-0.150494
-0.150952
-0.151167
-0.151284
-0.151314
-0.151264
-0.151148
-0.15098
-0.150769
-0.15052
-0.150233
-0.149908
-0.149536
-0.14911
-0.148623
-0.148072
-0.14746
-0.146896
-0.146374
-0.14482
-0.149641
-0.150134
-0.150379
-0.150529
-0.150597
-0.150587
-0.150514
-0.150391
-0.150226
-0.150024
-0.149787
-0.149512
-0.149195
-0.14883
-0.148411
-0.147938
-0.147419
-0.146952
-0.146521
-0.145215
-0.148816
-0.149342
-0.149617
-0.149799
-0.149902
-0.14993
-0.149898
-0.149817
-0.149695
-0.149538
-0.149348
-0.149123
-0.148858
-0.14855
-0.148196
-0.147798
-0.147363
-0.146981
-0.14664
-0.145529
-0.148018
-0.148578
-0.14888
-0.149094
-0.14923
-0.149294
-0.1493
-0.149258
-0.149177
-0.149063
-0.148917
-0.148739
-0.148525
-0.148272
-0.147979
-0.147649
-0.147292
-0.146983
-0.146733
-0.145759
-0.147247
-0.147841
-0.14817
-0.148412
-0.148581
-0.148678
-0.148719
-0.148715
-0.148673
-0.148599
-0.148495
-0.148361
-0.148194
-0.147993
-0.147758
-0.147492
-0.147205
-0.14697
-0.146778
-0.145919
-0.146503
-0.147131
-0.147486
-0.147756
-0.147954
-0.148083
-0.148158
-0.148188
-0.148182
-0.148146
-0.148082
-0.147989
-0.147867
-0.147715
-0.147533
-0.147326
-0.147103
-0.146929
-0.146772
-0.146114
-0.145787
-0.146448
-0.146828
-0.147125
-0.147351
-0.14751
-0.147615
-0.147678
-0.147707
-0.147706
-0.147678
-0.147625
-0.147545
-0.147438
-0.147305
-0.147151
-0.146985
-0.146865
-0.146748
-0.146246
-0.145099
-0.145793
-0.146197
-0.146519
-0.146772
-0.146958
-0.147093
-0.147186
-0.147246
-0.147278
-0.147285
-0.147268
-0.147227
-0.147162
-0.147074
-0.146969
-0.146854
-0.14678
-0.146702
-0.146314
-0.14444
-0.145166
-0.145594
-0.145939
-0.146217
-0.146429
-0.146591
-0.146713
-0.146802
-0.146864
-0.146903
-0.14692
-0.146915
-0.146888
-0.146842
-0.14678
-0.146711
-0.146678
-0.146636
-0.14634
-0.143811
-0.144569
-0.145018
-0.145386
-0.145687
-0.145924
-0.146111
-0.146258
-0.146375
-0.146465
-0.146534
-0.146582
-0.146609
-0.146618
-0.146609
-0.146586
-0.146558
-0.146561
-0.146552
-0.146333
-0.143213
-0.144001
-0.144472
-0.144861
-0.145184
-0.145443
-0.145653
-0.145825
-0.145966
-0.146082
-0.146178
-0.146254
-0.146312
-0.146352
-0.146377
-0.14639
-0.146398
-0.146433
-0.146453
-0.1463
-0.142646
-0.143464
-0.143955
-0.144364
-0.144708
-0.144988
-0.145219
-0.145412
-0.145576
-0.145716
-0.145837
-0.145939
-0.146024
-0.146093
-0.146148
-0.146192
-0.146232
-0.146295
-0.146343
-0.146247
-0.142113
-0.14296
-0.14347
-0.143897
-0.144259
-0.144558
-0.144809
-0.145023
-0.145207
-0.145369
-0.145511
-0.145637
-0.145746
-0.145841
-0.145924
-0.145996
-0.146064
-0.146151
-0.146224
-0.146178
-0.141615
-0.142488
-0.143016
-0.14346
-0.14384
-0.144156
-0.144425
-0.144657
-0.14486
-0.145041
-0.145204
-0.14535
-0.145482
-0.145599
-0.145706
-0.145803
-0.145896
-0.146004
-0.1461
-0.146097
-0.141152
-0.14205
-0.142595
-0.143055
-0.14345
-0.143783
-0.144067
-0.144315
-0.144536
-0.144734
-0.144914
-0.145079
-0.14523
-0.145369
-0.145496
-0.145615
-0.14573
-0.145858
-0.145973
-0.146009
-0.140726
-0.141648
-0.142207
-0.142682
-0.143092
-0.143438
-0.143737
-0.144
-0.144235
-0.144449
-0.144645
-0.144827
-0.144995
-0.145151
-0.145297
-0.145436
-0.14557
-0.145713
-0.145847
-0.145917
-0.140338
-0.141281
-0.141855
-0.142343
-0.142765
-0.143124
-0.143436
-0.143711
-0.14396
-0.144187
-0.144397
-0.144593
-0.144776
-0.144948
-0.145111
-0.145266
-0.145416
-0.145574
-0.145723
-0.145823
-0.13999
-0.140952
-0.141538
-0.142037
-0.142471
-0.142841
-0.143164
-0.143451
-0.14371
-0.143949
-0.144171
-0.14438
-0.144576
-0.144761
-0.144938
-0.145107
-0.145272
-0.145442
-0.145605
-0.145732
-0.139682
-0.140662
-0.141258
-0.141767
-0.14221
-0.14259
-0.142922
-0.143219
-0.143488
-0.143737
-0.143969
-0.144188
-0.144395
-0.144592
-0.14478
-0.144962
-0.145139
-0.14532
-0.145495
-0.145644
-0.139416
-0.14041
-0.141015
-0.141532
-0.141984
-0.142372
-0.142712
-0.143016
-0.143293
-0.14355
-0.143791
-0.144019
-0.144236
-0.144442
-0.14464
-0.144831
-0.145019
-0.145209
-0.145395
-0.145563
-0.139192
-0.140197
-0.14081
-0.141334
-0.141793
-0.142187
-0.142533
-0.142844
-0.143128
-0.143391
-0.143639
-0.143874
-0.144098
-0.144312
-0.144518
-0.144717
-0.144913
-0.14511
-0.145305
-0.14549
-0.139011
-0.140025
-0.140644
-0.141173
-0.141637
-0.142036
-0.142387
-0.142703
-0.142992
-0.14326
-0.143513
-0.143753
-0.143983
-0.144203
-0.144415
-0.144621
-0.144823
-0.145026
-0.145228
-0.145426
-0.138873
-0.139894
-0.140516
-0.14105
-0.141516
-0.141919
-0.142274
-0.142593
-0.142885
-0.143157
-0.143414
-0.143658
-0.143891
-0.144115
-0.144332
-0.144542
-0.144749
-0.144957
-0.145164
-0.145372
-0.138779
-0.139804
-0.140428
-0.140964
-0.141432
-0.141837
-0.142193
-0.142514
-0.142809
-0.143083
-0.143341
-0.143587
-0.143823
-0.14405
-0.144269
-0.144483
-0.144693
-0.144903
-0.145115
-0.14533
-0.13873
-0.139755
-0.14038
-0.140915
-0.141385
-0.141789
-0.142147
-0.142468
-0.142763
-0.143037
-0.143297
-0.143543
-0.14378
-0.144007
-0.144228
-0.144442
-0.144654
-0.144866
-0.14508
-0.145299
-0.145548
-0.145775
-0.146015
-0.146248
-0.146478
-0.146705
-0.146928
-0.147144
-0.147352
-0.147551
-0.147737
-0.147908
-0.148063
-0.148196
-0.145557
-0.145781
-0.146026
-0.146264
-0.146501
-0.146736
-0.146969
-0.147197
-0.14742
-0.147636
-0.147842
-0.148037
-0.148217
-0.14838
-0.145587
-0.145804
-0.146052
-0.146294
-0.146537
-0.14678
-0.147022
-0.147263
-0.1475
-0.147732
-0.147958
-0.148175
-0.14838
-0.148572
-0.145638
-0.145842
-0.146093
-0.146338
-0.146586
-0.146836
-0.147087
-0.147339
-0.14759
-0.147838
-0.148083
-0.148322
-0.148553
-0.148773
-0.145708
-0.145894
-0.146147
-0.146394
-0.146646
-0.146903
-0.147162
-0.147425
-0.147688
-0.147953
-0.148216
-0.148476
-0.148732
-0.14898
-0.145796
-0.14596
-0.146214
-0.146462
-0.146718
-0.146979
-0.147247
-0.147519
-0.147795
-0.148075
-0.148356
-0.148637
-0.148917
-0.149193
-0.145902
-0.146037
-0.146292
-0.146541
-0.146798
-0.147065
-0.147339
-0.147621
-0.147909
-0.148203
-0.148501
-0.148803
-0.149106
-0.149409
-0.146022
-0.146125
-0.146379
-0.146627
-0.146887
-0.147157
-0.147438
-0.147728
-0.148028
-0.148336
-0.148651
-0.148972
-0.149298
-0.149627
-0.146155
-0.14622
-0.146475
-0.146721
-0.146981
-0.147255
-0.147542
-0.14784
-0.14815
-0.148471
-0.148802
-0.149143
-0.149491
-0.149845
-0.146299
-0.146323
-0.146576
-0.14682
-0.147081
-0.147358
-0.147649
-0.147955
-0.148275
-0.148608
-0.148955
-0.149313
-0.149683
-0.150062
-0.146452
-0.14643
-0.146682
-0.146924
-0.147183
-0.147462
-0.147758
-0.148071
-0.1484
-0.148745
-0.149106
-0.149482
-0.149873
-0.150276
-0.150689
-0.146613
-0.146541
-0.14679
-0.147029
-0.147287
-0.147568
-0.147867
-0.148186
-0.148524
-0.14888
-0.149255
-0.149648
-0.150058
-0.150484
-0.150925
-0.14678
-0.146652
-0.1469
-0.147134
-0.14739
-0.147672
-0.147975
-0.148299
-0.148645
-0.149012
-0.1494
-0.149809
-0.150238
-0.150686
-0.151152
-0.146951
-0.146762
-0.147008
-0.147238
-0.147492
-0.147774
-0.148079
-0.148409
-0.148762
-0.149138
-0.149539
-0.149963
-0.15041
-0.15088
-0.151371
-0.147126
-0.14687
-0.147114
-0.14734
-0.14759
-0.147872
-0.148179
-0.148513
-0.148872
-0.149258
-0.14967
-0.150108
-0.150573
-0.151063
-0.151578
-0.147305
-0.146973
-0.147216
-0.147436
-0.147682
-0.147964
-0.148273
-0.14861
-0.148975
-0.149369
-0.149792
-0.150244
-0.150725
-0.151235
-0.151773
-0.147487
-0.147069
-0.147313
-0.147528
-0.147769
-0.148049
-0.148358
-0.148698
-0.149069
-0.14947
-0.149903
-0.150368
-0.150864
-0.151393
-0.151953
-0.147675
-0.147158
-0.147403
-0.147612
-0.147847
-0.148126
-0.148435
-0.148777
-0.149152
-0.14956
-0.150002
-0.150478
-0.15099
-0.151536
-0.152117
-0.147884
-0.147237
-0.147485
-0.147689
-0.147917
-0.148193
-0.148502
-0.148845
-0.149223
-0.149637
-0.150087
-0.150575
-0.1511
-0.151663
-0.152264
-0.14813
-0.147303
-0.147558
-0.147757
-0.147977
-0.148249
-0.148557
-0.148901
-0.149282
-0.149701
-0.150158
-0.150655
-0.151193
-0.151772
-0.152392
-0.148282
-0.147386
-0.147623
-0.147816
-0.148027
-0.148293
-0.148599
-0.148943
-0.149326
-0.149749
-0.150213
-0.150719
-0.151268
-0.151863
-0.1525
-0.148451
-0.147468
-0.147676
-0.147866
-0.148065
-0.148327
-0.148628
-0.148971
-0.149355
-0.149781
-0.15025
-0.150766
-0.151324
-0.151933
-0.152587
-0.153287
-0.148651
-0.147538
-0.147719
-0.147906
-0.148091
-0.148347
-0.148643
-0.148983
-0.149367
-0.149796
-0.15027
-0.150792
-0.151362
-0.151982
-0.152652
-0.153371
-0.148872
-0.147602
-0.147754
-0.147937
-0.148106
-0.148353
-0.148644
-0.14898
-0.149363
-0.149793
-0.150271
-0.150799
-0.151378
-0.15201
-0.152695
-0.153431
-0.149116
-0.147663
-0.14778
-0.147959
-0.148109
-0.148346
-0.148629
-0.148961
-0.149341
-0.149771
-0.150252
-0.150785
-0.151372
-0.152015
-0.152713
-0.153466
-0.149386
-0.147727
-0.147797
-0.147971
-0.1481
-0.148324
-0.148598
-0.148923
-0.149301
-0.14973
-0.150212
-0.15075
-0.151344
-0.151996
-0.152707
-0.153476
-0.149687
-0.147795
-0.147808
-0.147976
-0.148079
-0.148287
-0.148551
-0.148868
-0.149241
-0.149668
-0.150151
-0.150693
-0.151293
-0.151954
-0.152677
-0.153459
-0.150022
-0.147873
-0.147812
-0.147972
-0.148045
-0.148236
-0.148486
-0.148794
-0.149161
-0.149586
-0.150069
-0.150613
-0.151218
-0.151887
-0.15262
-0.153416
-0.150392
-0.147963
-0.147812
-0.14796
-0.147999
-0.148168
-0.148404
-0.1487
-0.14906
-0.149481
-0.149964
-0.150509
-0.151119
-0.151795
-0.152538
-0.153346
-0.154218
-0.150794
-0.14807
-0.147808
-0.147941
-0.14794
-0.148084
-0.148302
-0.148586
-0.148937
-0.149354
-0.149835
-0.150382
-0.150996
-0.151678
-0.152429
-0.153249
-0.154134
-0.151222
-0.148194
-0.147803
-0.147912
-0.147866
-0.147981
-0.14818
-0.148449
-0.148791
-0.149203
-0.149682
-0.150229
-0.150847
-0.151534
-0.152294
-0.153123
-0.154021
-0.151662
-0.148333
-0.147795
-0.147873
-0.147774
-0.147858
-0.148035
-0.148289
-0.148621
-0.149026
-0.149503
-0.150051
-0.150671
-0.151364
-0.152131
-0.15297
-0.153879
-0.152092
-0.148478
-0.147786
-0.147821
-0.147663
-0.147711
-0.147866
-0.148103
-0.148425
-0.148824
-0.149298
-0.149847
-0.150469
-0.151167
-0.15194
-0.152787
-0.153707
-0.152475
-0.148612
-0.14777
-0.14775
-0.147527
-0.147537
-0.147668
-0.147889
-0.1482
-0.148594
-0.149066
-0.149614
-0.150239
-0.150941
-0.15172
-0.152575
-0.153504
-0.152762
-0.148702
-0.147737
-0.147652
-0.147358
-0.147329
-0.147439
-0.147644
-0.147945
-0.148333
-0.148803
-0.149353
-0.14998
-0.150686
-0.15147
-0.152332
-0.15327
-0.154278
-0.152868
-0.148683
-0.147663
-0.147511
-0.147146
-0.14708
-0.147171
-0.147364
-0.147656
-0.148041
-0.14851
-0.14906
-0.149691
-0.150401
-0.15119
-0.152059
-0.153005
-0.154023
-0.152678
-0.148496
-0.147543
-0.147331
-0.146893
-0.146794
-0.146871
-0.147054
-0.147341
-0.147722
-0.148191
-0.148743
-0.149376
-0.15009
-0.150884
-0.151759
-0.152712
-0.153738
-0.152156
-0.14815
-0.147394
-0.147129
-0.146619
-0.146486
-0.146551
-0.146726
-0.147005
-0.147381
-0.147848
-0.148399
-0.149034
-0.14975
-0.150547
-0.151425
-0.152382
-0.153414
-0.151119
-0.147279
-0.146985
-0.146768
-0.146218
-0.146062
-0.146126
-0.1463
-0.146577
-0.146952
-0.147419
-0.147972
-0.14861
-0.149329
-0.150131
-0.151014
-0.151977
-0.153015
-0.147348
-0.144403
-0.145717
-0.145877
-0.145397
-0.145283
-0.145403
-0.145624
-0.145933
-0.146336
-0.14683
-0.14741
-0.148073
-0.148816
-0.149641
-0.150547
-0.15153
-0.152589
-0.133067
-0.137658
-0.143603
-0.144737
-0.144411
-0.144373
-0.144598
-0.144901
-0.145266
-0.145714
-0.14625
-0.146869
-0.14757
-0.14835
-0.149211
-0.150152
-0.151171
-0.152264
-0.153425
-0.131463
-0.134672
-0.141512
-0.143137
-0.142768
-0.142726
-0.143086
-0.143533
-0.144
-0.144528
-0.145134
-0.145819
-0.146579
-0.147414
-0.148323
-0.149306
-0.150362
-0.151485
-0.15267
-0.131286
-0.132801
-0.138798
-0.140766
-0.140617
-0.140648
-0.141129
-0.141724
-0.142316
-0.142943
-0.143639
-0.144406
-0.145241
-0.146142
-0.14711
-0.148145
-0.149244
-0.150401
-0.15161
-0.130778
-0.130997
-0.135574
-0.137632
-0.137842
-0.138034
-0.138627
-0.139362
-0.140094
-0.140843
-0.141646
-0.142513
-0.143439
-0.144422
-0.145463
-0.146561
-0.147712
-0.148912
-0.150151
-0.129049
-0.128823
-0.13198
-0.133843
-0.13438
-0.134792
-0.135506
-0.136374
-0.137255
-0.138144
-0.139073
-0.140055
-0.141087
-0.142166
-0.143292
-0.144464
-0.145678
-0.146928
-0.148206
-0.125835
-0.125825
-0.127883
-0.129432
-0.130224
-0.130892
-0.131755
-0.132755
-0.133783
-0.13482
-0.135886
-0.136993
-0.13814
-0.139325