/*--------------------------------*- C++ -*----------------------------------*\
  =========                 |
  \\      /  F ield         | OpenFOAM: The Open Source CFD Toolbox
   \\    /   O peration     | Website:  https://openfoam.org
    \\  /    A nd           | Version:  7
     \\/     M anipulation  |
\*---------------------------------------------------------------------------*/
FoamFile
{
    version     2.0;
    format      ascii;
    class       volScalarField;
    location    "5";
    object      p;
}
// * * * * * * * * * * * * * * * * * * * * * * * * * * * * * * * * * * * * * //

dimensions      [0 2 -2 0 0 0 0];

internalField   nonuniform List<scalar> 
8500
(
0.0077928
0.0109193
0.0187281
0.0144572
0.0224801
0.0297103
0.018791
0.0266564
0.0340987
0.0407085
0.0317045
0.0389218
0.0457574
0.0516909
0.0368607
0.0446837
0.0512416
0.0574476
0.0626367
0.0421206
0.0506216
0.0577143
0.0636128
0.0691694
0.0734827
0.056708
0.0644351
0.0707883
0.076047
0.0808948
0.0839836
0.0629387
0.0713455
0.0782872
0.0839085
0.08856
0.0925259
0.093796
0.0784337
0.0860135
0.0921656
0.0970775
0.101127
0.103938
0.103222
0.0856618
0.0939469
0.100692
0.106056
0.110275
0.113651
0.115033
0.114349
0.092974
0.102061
0.109455
0.11536
0.119939
0.123452
0.126109
0.126598
0.126262
0.110304
0.118438
0.124935
0.129996
0.133788
0.136578
0.138503
0.138301
0.137917
0.11861
0.127593
0.134768
0.140363
0.144577
0.14758
0.149638
0.150842
0.150035
0.149413
0.136854
0.144813
0.151025
0.155715
0.15908
0.161292
0.162611
0.163104
0.161714
0.160742
0.155005
0.161938
0.167184
0.170967
0.173482
0.174902
0.175479
0.175266
0.173292
0.171895
0.165263
0.173033
0.178939
0.183219
0.186096
0.18776
0.188387
0.188221
0.187305
0.18474
0.182867
0.184229
0.19091
0.195789
0.199105
0.201076
0.201892
0.201727
0.200818
0.199199
0.196037
0.193655
0.195443
0.203012
0.208606
0.212462
0.214816
0.215886
0.215857
0.214901
0.213251
0.210932
0.207168
0.204252
0.215154
0.221578
0.226091
0.228929
0.230328
0.230501
0.229632
0.22789
0.225501
0.222484
0.218118
0.214652
0.227278
0.234611
0.239898
0.243337
0.245166
0.245616
0.244899
0.243197
0.240674
0.237552
0.233841
0.228873
0.224846
0.247633
0.253781
0.25794
0.260315
0.261144
0.260656
0.259058
0.25653
0.253235
0.249385
0.244987
0.239422
0.234828
0.267655
0.272629
0.275674
0.276998
0.276839
0.275423
0.272956
0.269612
0.265554
0.260984
0.255908
0.249751
0.244587
0.281514
0.287309
0.291124
0.293069
0.293357
0.292224
0.289895
0.286571
0.282424
0.277612
0.272333
0.266588
0.259848
0.254114
0.301951
0.30656
0.309234
0.310097
0.309366
0.307275
0.304048
0.299881
0.294944
0.289393
0.283416
0.277013
0.269701
0.263399
0.321933
0.325374
0.326928
0.326729
0.324998
0.321968
0.317859
0.312866
0.307155
0.300878
0.294217
0.28717
0.279297
0.272431
0.337342
0.341422
0.343718
0.344174
0.342936
0.340227
0.336278
0.331308
0.325507
0.319038
0.312051
0.304721
0.297044
0.288624
0.281201
0.357444
0.360383
0.36156
0.360944
0.358691
0.355027
0.350182
0.344371
0.337782
0.330575
0.322896
0.314912
0.306623
0.297668
0.289696
0.376957
0.378782
0.378868
0.377208
0.373968
0.369374
0.363658
0.357029
0.349673
0.341748
0.333395
0.324777
0.315891
0.306419
0.297908
0.395845
0.396586
0.395612
0.392938
0.388739
0.383245
0.376682
0.369261
0.361162
0.352539
0.343534
0.3343
0.324838
0.314863
0.305825
0.412972
0.414074
0.413763
0.411762
0.408107
0.402981
0.396615
0.389235
0.381046
0.372229
0.362933
0.353297
0.343467
0.333449
0.32299
0.313438
0.431508
0.431609
0.430282
0.42729
0.422689
0.416669
0.409463
0.401295
0.392368
0.382858
0.372913
0.362669
0.352266
0.341712
0.330788
0.320736
0.449282
0.448418
0.446114
0.442168
0.436658
0.42978
0.421767
0.412842
0.403206
0.393031
0.382464
0.371636
0.360683
0.349615
0.338245
0.32771
0.466262
0.464471
0.461229
0.456371
0.44999
0.442291
0.433506
0.423858
0.413543
0.402733
0.391571
0.380185
0.368706
0.357147
0.345351
0.334352
0.482415
0.479738
0.475601
0.469873
0.462662
0.454181
0.444661
0.434324
0.423363
0.411948
0.400219
0.388302
0.376322
0.364297
0.352095
0.340651
0.500297
0.49771
0.494191
0.489204
0.48265
0.474653
0.46543
0.455213
0.444222
0.43265
0.420661
0.408395
0.395975
0.38352
0.371054
0.358469
0.346599
0.515447
0.512119
0.507803
0.502014
0.49468
0.485941
0.476018
0.465145
0.453538
0.441388
0.428859
0.416087
0.403192
0.39029
0.377408
0.364461
0.352189
0.529641
0.525614
0.52055
0.514007
0.505941
0.496507
0.485928
0.474438
0.462254
0.449564
0.436528
0.423281
0.409942
0.39662
0.383349
0.370064
0.357412
0.54285
0.538171
0.532408
0.525161
0.516414
0.506332
0.495142
0.483079
0.470357
0.457163
0.443655
0.429967
0.416214
0.402502
0.388869
0.37527
0.362262
0.555049
0.549766
0.543356
0.535458
0.526081
0.515399
0.503644
0.491052
0.477833
0.464174
0.45023
0.436134
0.421998
0.407926
0.393959
0.380069
0.366732
0.566215
0.560377
0.553373
0.544879
0.534924
0.523693
0.511421
0.498343
0.48467
0.470585
0.456242
0.441772
0.427286
0.412884
0.398612
0.384456
0.370816
0.576327
0.569984
0.562441
0.553406
0.542928
0.531199
0.518459
0.504941
0.490856
0.476385
0.461681
0.446872
0.43207
0.417369
0.402819
0.388423
0.374507
0.585365
0.57857
0.570543
0.561025
0.550078
0.537905
0.524746
0.510835
0.496381
0.481565
0.466537
0.451427
0.436341
0.421372
0.406576
0.391965
0.377802
0.593311
0.586117
0.577666
0.567721
0.556362
0.543798
0.53027
0.516014
0.501236
0.486116
0.470805
0.455428
0.440093
0.42489
0.409876
0.395076
0.380694
0.606835
0.60015
0.592613
0.583795
0.573483
0.56177
0.548868
0.535023
0.520469
0.505412
0.490031
0.474475
0.45887
0.44332
0.427914
0.412714
0.397751
0.383181
0.612796
0.60587
0.598045
0.58892
0.578301
0.56629
0.553107
0.538997
0.524193
0.508903
0.493304
0.477543
0.461746
0.446017
0.430442
0.415085
0.399987
0.385259
0.617579
0.610459
0.602402
0.593031
0.582165
0.569917
0.556507
0.542184
0.52718
0.511703
0.495928
0.480004
0.464053
0.44818
0.432469
0.416987
0.401779
0.386925
0.621175
0.613909
0.605678
0.596121
0.58507
0.572642
0.559062
0.544579
0.529425
0.513807
0.497901
0.481852
0.465786
0.449805
0.433992
0.418416
0.403126
0.388177
0.623576
0.616212
0.607865
0.598184
0.587009
0.574461
0.560768
0.546178
0.530924
0.515212
0.499217
0.483087
0.466943
0.45089
0.435009
0.41937
0.404025
0.389012
0.624778
0.617365
0.608959
0.599216
0.58798
0.575372
0.561622
0.546978
0.531674
0.515915
0.499876
0.483704
0.467522
0.451432
0.435518
0.419847
0.404475
0.38943
0.624778
0.617365
0.608959
0.599216
0.58798
0.575372
0.561622
0.546978
0.531674
0.515915
0.499876
0.483704
0.467522
0.451432
0.435518
0.419847
0.404475
0.38943
0.623576
0.616212
0.607865
0.598184
0.587009
0.574461
0.560768
0.546178
0.530924
0.515212
0.499217
0.483087
0.466943
0.45089
0.435009
0.41937
0.404025
0.389012
0.621175
0.613909
0.605678
0.596121
0.58507
0.572642
0.559062
0.544579
0.529425
0.513807
0.4979
0.481852
0.465786
0.449805
0.433992
0.418416
0.403126
0.388177
0.617579
0.610459
0.602402
0.593031
0.582165
0.569917
0.556507
0.542184
0.52718
0.511703
0.495928
0.480003
0.464053
0.44818
0.432469
0.416987
0.401779
0.386925
0.612796
0.60587
0.598045
0.58892
0.578301
0.56629
0.553107
0.538997
0.524193
0.508903
0.493304
0.477543
0.461746
0.446017
0.430442
0.415085
0.399987
0.385259
0.606834
0.60015
0.592613
0.583795
0.573483
0.56177
0.548868
0.535023
0.520469
0.505412
0.490031
0.474475
0.45887
0.44332
0.427914
0.412714
0.397751
0.383181
0.593311
0.586117
0.577666
0.567721
0.556362
0.543798
0.53027
0.516014
0.501236
0.486116
0.470804
0.455428
0.440093
0.424889
0.409876
0.395076
0.380694
0.585365
0.57857
0.570543
0.561025
0.550078
0.537905
0.524746
0.510835
0.496381
0.481564
0.466537
0.451427
0.436341
0.421372
0.406576
0.391965
0.377801
0.576327
0.569984
0.56244
0.553406
0.542928
0.531199
0.518459
0.504941
0.490856
0.476384
0.46168
0.446872
0.43207
0.417368
0.402819
0.388423
0.374507
0.566215
0.560377
0.553372
0.544879
0.534924
0.523693
0.511421
0.498343
0.48467
0.470584
0.456242
0.441772
0.427286
0.412884
0.398611
0.384456
0.370815
0.555049
0.549766
0.543355
0.535458
0.526081
0.515399
0.503644
0.491052
0.477833
0.464174
0.45023
0.436134
0.421998
0.407926
0.393959
0.380069
0.366732
0.54285
0.538171
0.532408
0.525161
0.516414
0.506331
0.495141
0.483079
0.470357
0.457163
0.443655
0.429967
0.416214
0.402502
0.388869
0.375269
0.362262
0.529641
0.525614
0.52055
0.514006
0.505941
0.496506
0.485927
0.474438
0.462254
0.449563
0.436527
0.423281
0.409942
0.39662
0.383349
0.370064
0.357412
0.515447
0.512119
0.507803
0.502013
0.494679
0.485941
0.476018
0.465144
0.453538
0.441388
0.428859
0.416086
0.403192
0.390289
0.377408
0.364461
0.352189
0.500297
0.49771
0.494191
0.489204
0.482649
0.474653
0.465429
0.455213
0.444222
0.43265
0.420661
0.408395
0.395975
0.38352
0.371054
0.358468
0.346599
0.482414
0.479738
0.475601
0.469872
0.462662
0.454181
0.444661
0.434323
0.423363
0.411948
0.400219
0.388302
0.376322
0.364297
0.352095
0.34065
0.466262
0.464471
0.461229
0.456371
0.44999
0.442291
0.433506
0.423858
0.413543
0.402733
0.391571
0.380185
0.368705
0.357147
0.34535
0.334351
0.449282
0.448418
0.446114
0.442168
0.436658
0.42978
0.421767
0.412842
0.403205
0.393031
0.382464
0.371636
0.360683
0.349615
0.338244
0.32771
0.431508
0.431608
0.430282
0.42729
0.422688
0.416669
0.409463
0.401294
0.392367
0.382857
0.372913
0.362669
0.352266
0.341711
0.330787
0.320736
0.412972
0.414073
0.413763
0.411762
0.408107
0.402981
0.396615
0.389235
0.381046
0.372229
0.362933
0.353296
0.343467
0.333448
0.32299
0.313437
0.395845
0.396586
0.395612
0.392938
0.388739
0.383244
0.376682
0.36926
0.361161
0.352539
0.343533
0.334299
0.324837
0.314863
0.305825
0.376957
0.378782
0.378868
0.377208
0.373967
0.369374
0.363657
0.357029
0.349673
0.341747
0.333395
0.324776
0.315891
0.306419
0.297907
0.357443
0.360382
0.361559
0.360944
0.358691
0.355027
0.350182
0.344371
0.337782
0.330574
0.322895
0.314912
0.306622
0.297668
0.289696
0.341421
0.343717
0.344174
0.342936
0.340226
0.336278
0.331307
0.325506
0.319038
0.312051
0.304721
0.297044
0.288623
0.2812
0.321932
0.325373
0.326927
0.326729
0.324997
0.321968
0.317859
0.312866
0.307155
0.300878
0.294217
0.28717
0.279297
0.272431
0.301951
0.306559
0.309234
0.310097
0.309366
0.307275
0.304047
0.299881
0.294944
0.289392
0.283416
0.277013
0.269701
0.263399
0.281513
0.287308
0.291124
0.293069
0.293357
0.292224
0.289894
0.28657
0.282423
0.277612
0.272333
0.266587
0.259848
0.254114
0.267654
0.272628
0.275673
0.276998
0.276838
0.275423
0.272956
0.269612
0.265553
0.260984
0.255907
0.249751
0.244587
0.247633
0.25378
0.257939
0.260315
0.261143
0.260655
0.259058
0.25653
0.253235
0.249384
0.244987
0.239421
0.234828
0.227278
0.234611
0.239898
0.243337
0.245165
0.245616
0.244899
0.243196
0.240674
0.237551
0.233841
0.228873
0.224846
0.215154
0.221578
0.22609
0.228929
0.230328
0.230501
0.229631
0.22789
0.225501
0.222484
0.218117
0.214651
0.195443
0.203011
0.208605
0.212461
0.214816
0.215885
0.215856
0.2149
0.21325
0.210931
0.207168
0.204251
0.184229
0.19091
0.195789
0.199104
0.201076
0.201892
0.201726
0.200817
0.199199
0.196037
0.193654
0.165262
0.173033
0.178938
0.183218
0.186095
0.18776
0.188386
0.18822
0.187304
0.184739
0.182867
0.155004
0.161937
0.167183
0.170967
0.173481
0.174901
0.175478
0.175266
0.173291
0.171894
0.136853
0.144813
0.151024
0.155715
0.159079
0.161292
0.162611
0.163104
0.161714
0.160742
0.118609
0.127592
0.134767
0.140363
0.144576
0.14758
0.149637
0.150842
0.150035
0.149413
0.110303
0.118437
0.124935
0.129995
0.133787
0.136578
0.138503
0.138301
0.137917
0.10206
0.109455
0.11536
0.119938
0.123451
0.126109
0.126597
0.126261
0.0856611
0.0939462
0.100691
0.106056
0.110274
0.113651
0.115032
0.114348
0.078433
0.0860129
0.0921649
0.0970769
0.101127
0.103938
0.103221
0.062938
0.0713448
0.0782865
0.0839078
0.0885594
0.0925253
0.0937953
0.0567073
0.0644344
0.0707876
0.0760463
0.0808941
0.0839829
0.0421198
0.0506209
0.0577136
0.0636121
0.0691687
0.0734821
0.0368599
0.044683
0.0512409
0.0574469
0.0626361
0.0317037
0.0389211
0.0457567
0.0516902
0.0266557
0.034098
0.0407078
0.0144564
0.0224794
0.0297095
0.0109185
0.0187273
0.00779207
0.0986358
0.0885038
0.0784185
0.0684469
0.0581337
0.0476917
0.0372696
0.0268669
0.0164936
0.0061782
-0.00405986
0.0934548
0.0831966
0.0725351
0.0627681
0.0528761
0.0428158
0.0328185
0.0229001
0.0130369
0.00324386
-0.00646186
0.0870535
0.0768067
0.0659957
0.0564942
0.0471183
0.0375492
0.0280299
0.0186227
0.00928782
2.37655e-05
-0.009153
0.0802808
0.0703573
0.0598157
0.0507009
0.0418541
0.0328012
0.0237609
0.0148403
0.00600452
-0.00276091
-0.0114421
0.0735759
0.0641115
0.0539858
0.0452768
0.0369124
0.0283511
0.0197757
0.0113192
0.00295814
-0.00533091
-0.013539
0.0671531
0.0581619
0.0485027
0.0401991
0.0322804
0.0241863
0.0160637
0.00805422
0.000145732
-0.00768937
-0.0154473
0.0610478
0.0525084
0.0433383
0.0354431
0.0279464
0.0202982
0.0126145
0.00503568
-0.00244135
-0.00984497
-0.0171755
0.0552617
0.047156
0.0384816
0.0309947
0.0239011
0.0166771
0.00941527
0.00224939
-0.00481728
-0.0118119
-0.0187376
0.0498007
0.042114
0.0339288
0.0268434
0.0201347
0.013313
0.00645387
-0.000317931
-0.006995
-0.0136025
-0.0201453
0.0446668
0.0373833
0.0296728
0.0229764
0.0166343
0.0101939
0.00371755
-0.00267936
-0.00898707
-0.0152285
-0.0214096
0.0398544
0.0329574
0.0257027
0.0193802
0.0133868
0.00730713
0.00119388
-0.00484729
-0.0108053
-0.016701
-0.0225406
0.0353536
0.0288261
0.0220063
0.0160412
0.0103788
0.00464038
-0.0011292
-0.0068335
-0.012461
-0.0180303
-0.0235479
0.0311525
0.0249777
0.018571
0.0129461
0.00759754
0.0021814
-0.00326335
-0.00864918
-0.0139644
-0.0192259
-0.02444
0.0272381
0.0213994
0.0153838
0.0100818
0.00503028
-8.16613e-05
-0.00521981
-0.0103049
-0.0153256
-0.0202969
-0.0252251
0.0235972
0.0180782
0.0124319
0.00743563
0.00266485
-0.00216025
-0.00700929
-0.0118107
-0.0165537
-0.0212517
-0.0259105
0.0202162
0.0150008
0.00970252
0.00499522
0.000489533
-0.00406533
-0.008642
-0.0131761
-0.0176574
-0.022098
-0.0265032
0.0170818
0.0121544
0.00718342
0.0027487
-0.0015069
-0.0058073
-0.0101276
-0.0144099
-0.0186448
-0.022843
-0.0270095
0.0141808
0.0095263
0.00486265
0.000684736
-0.00333512
-0.00739607
-0.0114751
-0.0155204
-0.0195233
-0.0234934
-0.0274352
0.0115004
0.00710423
0.00272878
-0.00120749
-0.00500526
-0.00884098
-0.0126931
-0.0165154
-0.0203001
-0.0240554
-0.0277857
0.00902838
0.00487642
0.000770882
-0.00293825
-0.00652692
-0.0101509
-0.0137897
-0.0174023
-0.0209815
-0.0245348
-0.028066
0.00675277
0.00283157
-0.00102145
-0.00451727
-0.00790915
-0.011334
-0.0147724
-0.0181877
-0.0215736
-0.0249368
-0.0282806
0.00466221
0.000958888
-0.0026581
-0.00595376
-0.0091605
-0.0123982
-0.0156483
-0.0188781
-0.0220822
-0.0252664
-0.0284338
0.00274584
-0.000751904
-0.00414844
-0.00725639
-0.010289
-0.0133509
-0.0164241
-0.0194795
-0.0225125
-0.0255283
-0.0285296
0.000993293
-0.00231058
-0.00550134
-0.00843336
-0.0113023
-0.0141989
-0.0171058
-0.0199974
-0.0228694
-0.0257267
-0.0285715
-0.000605266
-0.00372639
-0.0067252
-0.0094924
-0.0122074
-0.0149487
-0.0176995
-0.0204369
-0.0231576
-0.0258657
-0.0285631
-0.00205919
-0.00500814
-0.00782796
-0.0104408
-0.0130111
-0.0156065
-0.0182106
-0.0208032
-0.0233815
-0.025949
-0.0285076
-0.00337734
-0.00616414
-0.0088171
-0.0112854
-0.0137197
-0.016178
-0.0186443
-0.0211008
-0.023545
-0.0259803
-0.0284082
-0.00456813
-0.00720226
-0.00969975
-0.0120328
-0.0143393
-0.0166687
-0.0190056
-0.021334
-0.0236522
-0.025963
-0.0282676
-0.00563954
-0.00812998
-0.0104826
-0.0126891
-0.0148756
-0.0170839
-0.0192991
-0.0215073
-0.0237068
-0.0259003
-0.0280889
-0.00659914
-0.00895439
-0.0111721
-0.0132602
-0.0153339
-0.0174284
-0.0195294
-0.0216244
-0.0237123
-0.0257955
-0.0278747
-0.00745412
-0.00968222
-0.0117743
-0.0137516
-0.0157194
-0.017707
-0.0197007
-0.0216894
-0.0236723
-0.0256515
-0.0276277
-0.00821134
-0.0103199
-0.0122951
-0.0141688
-0.016037
-0.0179242
-0.0198171
-0.0217059
-0.0235901
-0.0254714
-0.00887734
-0.0108735
-0.0127399
-0.0145167
-0.0162916
-0.0180844
-0.0198826
-0.0216776
-0.0234689
-0.0252582
-0.00945836
-0.0113489
-0.013114
-0.0148004
-0.0164876
-0.0181918
-0.0199012
-0.021608
-0.0233119
-0.0250146
-0.00996038
-0.0117518
-0.0134227
-0.0150245
-0.0166294
-0.0182505
-0.0198765
-0.0215005
-0.0231224
-0.0247435
-0.0103891
-0.0120875
-0.0136708
-0.0151937
-0.0167214
-0.0182645
-0.0198122
-0.0213585
-0.0229033
-0.0244478
-0.0107501
-0.0123612
-0.0138632
-0.0153123
-0.0167678
-0.0182377
-0.019712
-0.0211853
-0.0226577
-0.0241302
-0.0110487
-0.0125779
-0.0140043
-0.0153847
-0.0167725
-0.0181738
-0.0195793
-0.0209843
-0.0223888
-0.0237937
-0.01129
-0.0127426
-0.0140988
-0.0154151
-0.0167395
-0.0180766
-0.0194177
-0.0207586
-0.0220994
-0.0234409
-0.011479
-0.0128598
-0.0141509
-0.0154075
-0.0166727
-0.0179497
-0.0192306
-0.0205115
-0.0217926
-0.0230746
-0.0116204
-0.0129342
-0.014165
-0.0153661
-0.0165759
-0.0177968
-0.0190213
-0.0202461
-0.0214714
-0.0226977
-0.011719
-0.0129701
-0.0141451
-0.0152946
-0.0164528
-0.0176213
-0.0187932
-0.0199657
-0.0211388
-0.022313
-0.0117792
-0.012972
-0.0140953
-0.0151969
-0.0163071
-0.0174267
-0.0185497
-0.0196733
-0.0207976
-0.0219233
-0.0118054
-0.0129439
-0.0140196
-0.0150768
-0.0161423
-0.0172166
-0.0182939
-0.019372
-0.020451
-0.0215314
-0.0118019
-0.01289
-0.0139218
-0.014938
-0.0159621
-0.0169942
-0.0180292
-0.019065
-0.0201019
-0.0211401
-0.0117728
-0.0128143
-0.0138057
-0.0147841
-0.0157699
-0.0167629
-0.0177587
-0.0187554
-0.0197532
-0.0207522
-0.0117221
-0.0127206
-0.013675
-0.0146186
-0.0155691
-0.0165261
-0.0174857
-0.0184462
-0.0194079
-0.0203707
-0.0116537
-0.0126126
-0.0135333
-0.0144451
-0.0153631
-0.016287
-0.0172133
-0.0181406
-0.0190689
-0.0199984
-0.0115713
-0.0124942
-0.0133842
-0.0142669
-0.0151553
-0.0160489
-0.0169447
-0.0178415
-0.0187393
-0.0196382
-0.0114788
-0.0123687
-0.013231
-0.0140875
-0.0149489
-0.015815
-0.016683
-0.0175521
-0.0184221
-0.0192931
-0.0113795
-0.0122398
-0.0130773
-0.0139101
-0.0147473
-0.0155884
-0.0164314
-0.0172753
-0.0181202
-0.0189659
-0.0112769
-0.0121109
-0.0129262
-0.013738
-0.0145535
-0.0153724
-0.016193
-0.0170144
-0.0178367
-0.0186597
-0.0111745
-0.0119851
-0.0127812
-0.0135745
-0.0143709
-0.0151702
-0.0159709
-0.0167724
-0.0175746
-0.0183775
-0.0110753
-0.0118658
-0.0126452
-0.0134226
-0.0142026
-0.0149848
-0.0157683
-0.0165525
-0.0173373
-0.0181225
-0.0109824
-0.011756
-0.0125215
-0.0132856
-0.0140515
-0.0148194
-0.0155883
-0.0163577
-0.0171276
-0.0178978
-0.0108989
-0.0116588
-0.0124132
-0.0131665
-0.0139212
-0.0146773
-0.0154343
-0.0161916
-0.0169492
-0.017707
-0.0108273
-0.0115768
-0.0123228
-0.0130679
-0.013814
-0.014561
-0.0153086
-0.0160564
-0.0168044
-0.0175523
-0.010771
-0.0115137
-0.0122543
-0.0129942
-0.0137345
-0.0144755
-0.0152168
-0.0159582
-0.0166994
-0.0174404
-0.0107306
-0.0114695
-0.0122073
-0.0129444
-0.0136815
-0.0144188
-0.0151561
-0.0158932
-0.01663
-0.0173663
-0.010712
-0.0114521
-0.0121916
-0.0129302
-0.0136686
-0.0144069
-0.0151449
-0.0158825
-0.0166194
-0.0173556
0.113689
0.114266
0.115419
0.11706
0.119164
0.121692
0.124617
0.12791
0.131547
0.135492
0.139712
0.14416
0.148786
0.153522
0.158295
0.163002
0.167541
0.171764
0.175535
0.178645
0.180931
0.182098
0.181987
0.180162
0.176581
0.170484
0.162301
0.150238
0.136391
0.113935
0.113322
0.113886
0.115012
0.116615
0.118668
0.12113
0.123975
0.127171
0.13069
0.134497
0.138553
0.142809
0.147212
0.151689
0.156162
0.160526
0.164674
0.168454
0.171728
0.174286
0.175964
0.176472
0.175657
0.173096
0.168754
0.161915
0.152978
0.140329
0.125732
0.105069
0.112937
0.113487
0.114585
0.116146
0.118142
0.120532
0.123288
0.126378
0.129771
0.133428
0.137309
0.141363
0.145531
0.149739
0.153906
0.157923
0.161681
0.165029
0.167829
0.169872
0.171002
0.170935
0.169534
0.166393
0.161505
0.154185
0.144865
0.132093
0.117635
0.0986261
0.112532
0.113067
0.114134
0.115651
0.117587
0.119902
0.122565
0.125543
0.128803
0.132304
0.136003
0.139845
0.14377
0.1477
0.151551
0.155212
0.158573
0.161483
0.163804
0.165332
0.165917
0.165287
0.163318
0.159626
0.154226
0.146486
0.136846
0.124068
0.109759
0.0916697
0.112106
0.112626
0.113661
0.115131
0.117005
0.119242
0.121809
0.124672
0.127795
0.131136
0.134648
0.138274
0.141951
0.145598
0.149129
0.152432
0.155395
0.157867
0.159713
0.160733
0.160785
0.159608
0.157092
0.152878
0.146997
0.138884
0.128961
0.1162
0.101979
0.0845372
0.111659
0.112163
0.113165
0.114587
0.116397
0.118552
0.121021
0.123765
0.126747
0.129923
0.133244
0.13665
0.140076
0.143437
0.146647
0.149591
0.152158
0.154198
0.155579
0.156106
0.155646
0.153949
0.150921
0.146232
0.139923
0.1315
0.121356
0.10865
0.0945595
0.0777205
0.11119
0.111677
0.112645
0.114017
0.11576
0.117832
0.120198
0.12282
0.125658
0.128665
0.131791
0.134973
0.138143
0.141216
0.144103
0.14669
0.148864
0.150479
0.151406
0.151458
0.150508
0.148325
0.144824
0.139709
0.133027
0.124358
0.114058
0.101455
0.087556
0.0712985
0.110699
0.111168
0.1121
0.113421
0.115095
0.11708
0.119341
0.121836
0.124526
0.12736
0.130287
0.133241
0.136153
0.138936
0.1415
0.143731
0.145517
0.146715
0.1472
0.146795
0.14538
0.142742
0.138807
0.133314
0.126313
0.117453
0.107057
0.0945946
0.0809298
0.0652274
0.110184
0.110636
0.111531
0.112798
0.114401
0.116297
0.118448
0.120814
0.123352
0.12601
0.128734
0.131457
0.134109
0.1366
0.138841
0.140718
0.142122
0.142913
0.142971
0.142128
0.140273
0.137212
0.132882
0.127055
0.119784
0.110785
0.100344
0.0880537
0.0746517
0.0594849
0.109646
0.110079
0.110936
0.112147
0.113676
0.11548
0.11752
0.119754
0.122135
0.124614
0.127132
0.129622
0.132011
0.134211
0.13613
0.137657
0.138686
0.13908
0.138726
0.137465
0.135197
0.131747
0.127059
0.120942
0.113449
0.104356
0.0939162
0.081824
0.0687091
0.0540666
0.109083
0.109497
0.110314
0.111469
0.112922
0.114631
0.116557
0.118654
0.120877
0.123172
0.125482
0.127736
0.129862
0.13177
0.13337
0.134553
0.135214
0.135224
0.134474
0.132818
0.130164
0.126356
0.12135
0.114985
0.107314
0.0981678
0.0877708
0.0758997
0.063093
0.048967
0.108495
0.108889
0.109666
0.110762
0.112137
0.113749
0.115556
0.117515
0.119576
0.121686
0.123784
0.125802
0.127663
0.129281
0.130566
0.13141
0.131713
0.131352
0.130224
0.128196
0.125183
0.121051
0.115762
0.109189
0.101383
0.0922217
0.0819037
0.0702741
0.0577933
0.0441768
0.107882
0.108255
0.10899
0.110025
0.11132
0.112832
0.11452
0.116337
0.118234
0.120155
0.122041
0.12382
0.125419
0.126748
0.127722
0.128234
0.12819
0.127472
0.125985
0.123607
0.120264
0.115841
0.110306
0.103563
0.0956606
0.0865172
0.0763103
0.0649395
0.0527987
0.0396846
0.107242
0.107594
0.108286
0.109259
0.110472
0.111882
0.113447
0.11512
0.11685
0.118582
0.120254
0.121794
0.12313
0.124175
0.124842
0.125032
0.124651
0.123591
0.121765
0.119062
0.115417
0.110733
0.104989
0.0981097
0.0901478
0.0810533
0.0709854
0.0598883
0.0480982
0.035479
0.106576
0.106906
0.107554
0.108463
0.109592
0.110898
0.112338
0.113864
0.115426
0.116966
0.118423
0.119726
0.120801
0.121565
0.121932
0.121807
0.121103
0.119718
0.117572
0.114569
0.11065
0.105737
0.0998157
0.0928349
0.0848462
0.0758281
0.0659233
0.0551121
0.0436807
0.0315477
0.105883
0.106191
0.106794
0.107637
0.10868
0.10988
0.111193
0.112571
0.113962
0.11531
0.116552
0.117618
0.118435
0.118922
0.118996
0.118568
0.117553
0.115861
0.113416
0.110136
0.105971
0.10086
0.0947931
0.0877414
0.0797563
0.070839
0.061118
0.0506024
0.0395348
0.0278787
0.105162
0.105447
0.106004
0.106781
0.107736
0.108828
0.110012
0.11124
0.11246
0.113614
0.114641
0.115472
0.116035
0.11625
0.11604
0.115319
0.114008
0.112026
0.109304
0.105772
0.101388
0.0961066
0.0899255
0.0828318
0.0748776
0.0660826
0.056563
0.0463503
0.0356493
0.0244596
0.104414
0.104675
0.105185
0.105894
0.10676
0.107742
0.108796
0.109872
0.11092
0.111881
0.112694
0.113292
0.113605
0.113556
0.113069
0.112067
0.110476
0.108221
0.105243
0.101483
0.0969078
0.0914839
0.0852166
0.0781074
0.0702087
0.061555
0.0522512
0.0423467
0.0320128
0.0212782
0.103637
0.103875
0.104337
0.104976
0.105752
0.106623
0.107545
0.108469
0.109344
0.110112
0.110713
0.111082
0.111149
0.110842
0.110089
0.108818
0.106962
0.104453
0.101241
0.0972771
0.0925356
0.0869961
0.0806694
0.0735691
0.0657478
0.0572516
0.0481756
0.0385824
0.0286142
0.0183227
0.102833
0.103046
0.103459
0.104028
0.104712
0.105471
0.10626
0.107031
0.107733
0.108309
0.108701
0.108843
0.10867
0.108114
0.107106
0.105579
0.103473
0.100729
0.0973047
0.0931599
0.0882774
0.0826473
0.0762858
0.0692165
0.0614922
0.0531675
0.0443285
0.035048
0.0254424
0.0155812
0.102
0.102189
0.102552
0.10305
0.103641
0.104286
0.104942
0.10556
0.106089
0.106475
0.10666
0.10658
0.106174
0.105376
0.104124
0.102355
0.100016
0.0970567
0.0934402
0.0891375
0.0841377
0.0784407
0.0720671
0.065049
0.0574386
0.0492971
0.0407023
0.0317341
0.0224866
0.0130426
0.101139
0.101303
0.101616
0.102041
0.102539
0.10307
0.103592
0.104056
0.104415
0.104612
0.104593
0.104297
0.103665
0.102635
0.101149
0.0991529
0.0965975
0.093441
0.0896535
0.0852149
0.0801206
0.0743788
0.0680141
0.061065
0.0535833
0.0456345
0.0372891
0.0286315
0.0197363
0.0106958
0.10025
0.100388
0.100651
0.101003
0.101407
0.101823
0.102211
0.102523
0.102711
0.102723
0.102504
0.101998
0.101146
0.0998941
0.0981879
0.0959782
0.0932232
0.0898882
0.0859501
0.0813967
0.0762294
0.0704633
0.0641264
0.0572624
0.0499221
0.0421737
0.034081
0.0257309
0.017181
0.00853027
0.0993332
0.0994453
0.0996572
0.0999355
0.100245
0.100547
0.1008
0.100961
0.100982
0.100811
0.100397
0.0996853
0.0986236
0.0971595
0.095245
0.0928367
0.0898988
0.0864038
0.0823349
0.077687
0.0724667
0.0666953
0.0604036
0.0536386
0.0464504
0.0389083
0.0310699
0.0230231
0.014811
0.00653603
0.0983887
0.0984748
0.0986354
0.0988398
0.099054
0.0992414
0.0993623
0.099373
0.0992278
0.0988779
0.0982737
0.0973646
0.0961011
0.0944359
0.092326
0.0897339
0.0866298
0.0829929
0.0788122
0.074089
0.0688347
0.0630754
0.0568442
0.0501905
0.0431632
0.0358317
0.0282479
0.0204993
0.0126164
0.00470338
0.0974171
0.097477
0.0975861
0.0977165
0.0978358
0.0979091
0.097898
0.0977605
0.0974525
0.0969277
0.0961391
0.0950395
0.0935835
0.0917284
0.0894362
0.0866753
0.0834214
0.0796601
0.0753859
0.0706056
0.0653349
0.0596035
0.0534465
0.0469147
0.0400553
0.0329373
0.025607
0.0181507
0.010588
0.00302309
0.096419
0.0964527
0.0965102
0.0965666
0.0965914
0.0965513
0.0964096
0.096126
0.0956586
0.0949635
0.0939966
0.0927145
0.0910755
0.0890419
0.0865807
0.0836657
0.0802784
0.0764097
0.0720593
0.067239
0.061968
0.056279
0.0502082
0.0438072
0.0371214
0.0302184
0.0231395
0.0159688
0.00871683
0.00148636
0.0953952
0.0954026
0.0954087
0.0953912
0.0953221
0.0951697
0.0948991
0.0944721
0.093849
0.0929887
0.0918502
0.0903937
0.0885818
0.0863814
0.0837644
0.0807101
0.077205
0.0732454
0.0688355
0.0639911
0.0587345
0.0531007
0.0471266
0.0408638
0.0343558
0.027668
0.0208376
0.0139454
0.00699433
8.4803e-05
0.0943466
0.0943277
0.0942826
0.0941917
0.0940294
0.0937661
0.0933687
0.0928015
0.0920269
0.091007
0.0897039
0.0880816
0.086107
0.0837516
0.0809921
0.077813
0.0742054
0.0701706
0.0657166
0.0608629
0.0556342
0.0500672
0.0441988
0.0380802
0.0317528
0.0252796
0.0186936
0.0120723
0.00541222
-0.0011896
0.0932743
0.0932292
0.0931332
0.0929696
0.0927153
0.0923427
0.0918211
0.0911169
0.0901956
0.0890219
0.0875616
0.0857825
0.0836556
0.0811571
0.0782684
0.0749785
0.0712833
0.067188
0.0627046
0.0578553
0.0526666
0.0471764
0.0414214
0.0354517
0.0293066
0.0230464
0.0167002
0.0103418
0.00396257
-0.0023445
0.0921796
0.0921085
0.0919621
0.0917266
0.0913815
0.0909017
0.0902586
0.0894215
0.0883583
0.0870373
0.0854275
0.0835007
0.0812322
0.0786024
0.0755973
0.0722105
0.0684418
0.0643003
0.059801
0.0549684
0.0498307
0.044426
0.0387907
0.0329734
0.0270113
0.0209616
0.01485
0.00874643
0.00263779
-0.00338718
0.0910638
0.090967
0.0907709
0.0904646
0.0900303
0.0894455
0.0886843
0.0877183
0.0865187
0.0850569
0.0833056
0.0812405
0.078841
0.0760918
0.0729831
0.0695125
0.0656839
0.0615094
0.0570067
0.0522022
0.047125
0.0418133
0.0363029
0.0306405
0.0248611
0.0190187
0.013136
0.00727881
0.00143057
-0.00432461
0.0899287
0.0898065
0.0895615
0.0891855
0.088664
0.0879769
0.0871009
0.0860107
0.0846804
0.0830848
0.0812002
0.0790063
0.0764863
0.0736293
0.0704294
0.0668879
0.063012
0.0588169
0.0543223
0.0495561
0.0445479
0.0393356
0.033954
0.0284479
0.02285
0.0172111
0.0115513
0.00593191
0.000333921
-0.00516346
0.0887762
0.0886289
0.0883359
0.0878918
0.0872851
0.0864986
0.0855116
0.084302
0.082847
0.0811247
0.0791153
0.076802
0.0741723
0.0712189
0.0679396
0.0643394
0.0604284
0.0562241
0.0517481
0.0470292
0.0420972
0.0369896
0.0317397
0.0263904
0.0209723
0.0155326
0.0100891
0.00469893
-0.000658884
-0.00591012
0.0876082
0.0874364
0.0870964
0.0865859
0.0858963
0.0850135
0.0839198
0.0825959
0.0810224
0.0791808
0.077055
0.074632
0.0719029
0.0688641
0.0655171
0.0618698
0.0579349
0.0537319
0.049284
0.0446202
0.0397708
0.0347719
0.0296558
0.024463
0.019222
0.0139768
0.00874292
0.00357331
-0.00155431
-0.00657072
0.086427
0.0862313
0.0858456
0.0852705
0.0845006
0.083525
0.0823288
0.080896
0.0792104
0.0772571
0.0750234
0.0725001
0.0696819
0.0665686
0.0631648
0.0594811
0.0555328
0.0513408
0.0469293
0.0423278
0.037566
0.0326791
0.0276979
0.0226605
0.0175935
0.0125377
0.00750638
0.00254869
-0.00235857
-0.00715115
0.0852353
0.0850163
0.0845861
0.0839484
0.0831011
0.0820363
0.0807422
0.0792061
0.077415
0.0753576
0.0730246
0.0704104
0.0675129
0.0643354
0.0608852
0.0571755
0.0532233
0.0490511
0.0446835
0.0401501
0.0354801
0.0307074
0.0258614
0.0209778
0.0160812
0.0112091
0.00637334
0.00161892
-0.00307766
-0.00765708
0.0840357
0.083794
0.0833209
0.0826229
0.0817011
0.0805509
0.0791638
0.0775301
0.0756402
0.0734863
0.0710625
0.0683665
0.0653995
0.0621676
0.058681
0.0549546
0.0510074
0.0468625
0.0425454
0.0380851
0.0335103
0.0288532
0.0241419
0.0194098
0.0146793
0.00998535
0.00533782
0.000778095
-0.00371735
-0.00809396
0.0828313
0.0825677
0.0820532
0.0812972
0.0803042
0.0790726
0.0775974
0.075872
0.0738902
0.0716474
0.0691411
0.0663721
0.0633449
0.0600681
0.0565541
0.0528199
0.0488855
0.044775
0.0405138
0.0361307
0.0316533
0.0271126
0.0225349
0.0179513
0.0133826
0.00886065
0.00439403
2.04696e-05
-0.0042832
-0.00846708
0.0816252
0.0813406
0.0807864
0.0799749
0.0789139
0.0776053
0.076047
0.0742358
0.0721689
0.0698447
0.0672641
0.064431
0.0613523