/*--------------------------------*- C++ -*----------------------------------*\
  =========                 |
  \\      /  F ield         | OpenFOAM: The Open Source CFD Toolbox
   \\    /   O peration     | Website:  https://openfoam.org
    \\  /    A nd           | Version:  7
     \\/     M anipulation  |
\*---------------------------------------------------------------------------*/
FoamFile
{
    version     2.0;
    format      ascii;
    class       surfaceScalarField;
    location    "5";
    object      phi;
}
// * * * * * * * * * * * * * * * * * * * * * * * * * * * * * * * * * * * * * //

dimensions      [0 3 -1 0 0 0 0];

internalField   nonuniform List<scalar> 
16730
(
-0.00369219
-0.000585431
-0.000563708
-0.00354086
-0.00364097
-0.000614934
-0.000539385
-0.00339725
-0.000591135
-0.00348911
-0.00358815
-0.000643951
-0.000513478
-0.00326294
-0.000564789
-0.00334594
-0.000618046
-0.00343585
-0.00353373
-0.000672468
-0.000537105
-0.00321227
-0.000589698
-0.00329335
-0.000644431
-0.00338111
-0.00347771
-0.000700453
-0.000508421
-0.00308642
-0.000560297
-0.00316039
-0.000614117
-0.00323953
-0.000670284
-0.00332495
-0.00342009
-0.000727907
-0.000478533
-0.00296688
-0.000530007
-0.00303495
-0.000583062
-0.00310734
-0.000638064
-0.00318453
-0.00069562
-0.00326739
-0.0033608
-0.000754904
-0.000498509
-0.00291562
-0.000551191
-0.00298227
-0.00060542
-0.00305311
-0.000661573
-0.00312838
-0.000720442
-0.00320852
-0.00329984
-0.000781406
-0.000465615
-0.00280178
-0.000518083
-0.00286315
-0.000571971
-0.00292838
-0.000627391
-0.00299769
-0.000684712
-0.00307105
-0.000744668
-0.00314857
-0.00323718
-0.000807327
-0.000483589
-0.00274949
-0.000537246
-0.00280949
-0.000592337
-0.00287329
-0.000648984
-0.00294104
-0.00070753
-0.00301251
-0.000768781
-0.00308732
-0.00317418
-0.000831781
-0.000447712
-0.00264099
-0.000501154
-0.00269605
-0.000555978
-0.00275467
-0.000612265
-0.002817
-0.000670164
-0.00288314
-0.000729748
-0.00295292
-0.000790079
-0.00302698
-0.00310826
-0.000856001
-0.000410503
-0.00253724
-0.000463746
-0.00258774
-0.000518315
-0.00264148
-0.00057428
-0.0026987
-0.000631736
-0.00275955
-0.000690817
-0.00282406
-0.000751538
-0.0028922
-0.000813851
-0.00296467
-0.0030419
-0.000880207
-0.000425056
-0.00248419
-0.000479391
-0.00253341
-0.000535061
-0.00258581
-0.00059214
-0.00264162
-0.000650726
-0.00270096
-0.000710936
-0.00276385
-0.00077282
-0.00283032
-0.000836606
-0.00290088
-0.00297507
-0.000903435
-0.000385125
-0.0023847
-0.000439241
-0.00243007
-0.000494644
-0.00247801
-0.000551388
-0.00252906
-0.000609553
-0.00258346
-0.000669234
-0.00264128
-0.000730538
-0.00270255
-0.000793547
-0.00276731
-0.000858518
-0.00283591
-0.00290758
-0.000926015
-0.000397902
-0.00233082
-0.000453057
-0.00237492
-0.000509502
-0.00242156
-0.000567295
-0.00247127
-0.000626516
-0.00252424
-0.000687259
-0.00258054
-0.000749623
-0.00264018
-0.000813708
-0.00270323
-0.000879727
-0.00276989
-0.00283933
-0.000947973
-0.000410334
-0.00227591
-0.000466504
-0.00231875
-0.000523965
-0.0023641
-0.000582779
-0.00241246
-0.000643027
-0.00246399
-0.0007048
-0.00251876
-0.000768194
-0.00257679
-0.000833307
-0.00263811
-0.000900309
-0.00270289
-0.00277028
-0.000969357
-0.000366526
-0.00217981
-0.000422421
-0.00222002
-0.000479579
-0.00226159
-0.00053803
-0.00230565
-0.000597839
-0.00235265
-0.000659086
-0.00240274
-0.00072186
-0.00245599
-0.000786252
-0.0025124
-0.000852357
-0.00257201
-0.000920308
-0.00263494
-0.00270039
-0.000990195
-0.0003773
-0.00212425
-0.000434161
-0.00216316
-0.000492282
-0.00220347
-0.000551697
-0.00224623
-0.000612473
-0.00229187
-0.000674691
-0.00234052
-0.000738438
-0.00239224
-0.000803801
-0.00244703
-0.000870869
-0.00250494
-0.000939749
-0.00256606
-0.00262964
-0.0010105
-0.000331241
-0.00202919
-0.000387754
-0.00206773
-0.000445554
-0.00210536
-0.000504612
-0.00214441
-0.000564965
-0.00218588
-0.000626682
-0.00223015
-0.000689844
-0.00227736
-0.000754537
-0.00232755
-0.000820845
-0.00238072
-0.000888849
-0.00243694
-0.000958645
-0.00249627
-0.00255801
-0.00103028
-0.000340449
-0.00197318
-0.000397886
-0.0020103
-0.0004566
-0.00204664
-0.000516568
-0.00208444
-0.000577832
-0.00212462
-0.000640464
-0.00216752
-0.000704545
-0.00221328
-0.000770157
-0.00226194
-0.000837384
-0.0023135
-0.000906305
-0.00236802
-0.000977003
-0.00242557
-0.00248549
-0.00104952
-0.000292432
-0.00187554
-0.000349363
-0.00191625
-0.000407697
-0.00195196
-0.000467298
-0.00198704
-0.000528149
-0.00202359
-0.000590299
-0.00206247
-0.00065382
-0.002104
-0.000718792
-0.00214831
-0.000785299
-0.00219543
-0.000853422
-0.00224537
-0.000923237
-0.0022982
-0.000994825
-0.00235398
-0.00241209
-0.00106823
-0.000300161
-0.00181943
-0.000357984
-0.00185842
-0.000417187
-0.00189276
-0.000477647
-0.00192659
-0.000539356
-0.00196188
-0.000602365
-0.00199946
-0.000666748
-0.00203962
-0.000732586
-0.00208247
-0.000799962
-0.00212805
-0.000868957
-0.00217638
-0.000939647
-0.00222751
-0.00101211
-0.00228152
-0.0023378
-0.0010864
-0.000307626
-0.00176242
-0.000366311
-0.00179974
-0.000426355
-0.00183271
-0.000487647
-0.00186529
-0.000550186
-0.00189934
-0.000614028
-0.00193562
-0.000679247
-0.0019744
-0.000745925
-0.00201579
-0.000814146
-0.00205983
-0.00088399
-0.00210654
-0.000955533
-0.00215597
-0.00102886
-0.00220819
-0.00226265
-0.00110401
-0.000256946
-0.00165783
-0.000314827
-0.00170454
-0.000374344
-0.00174022
-0.000435201
-0.00177186
-0.000497297
-0.0018032
-0.000560641
-0.001836
-0.000625289
-0.00187097
-0.000691318
-0.00190837
-0.00075881
-0.0019483
-0.000827851
-0.00199079
-0.00089852
-0.00203587
-0.000970895
-0.00208359
-0.00104506
-0.00213403
-0.00218664
-0.00112107
-0.000263047
-0.0016013
-0.000321764
-0.00164582
-0.000382083
-0.0016799
-0.000443724
-0.00171022
-0.000506598
-0.00174032
-0.000570719
-0.00177187
-0.000636146
-0.00180554
-0.000702958
-0.00184156
-0.000771239
-0.00188002
-0.000841073
-0.00192096
-0.000912543
-0.0019644
-0.000985728
-0.00201041
-0.00106071
-0.00205905
-0.0021098
-0.00113755
-0.000268916
-0.00154391
-0.000328436
-0.0015863
-0.000389527
-0.00161881
-0.000451924
-0.00164782
-0.000515548
-0.0016767
-0.000580419
-0.001707
-0.000646598
-0.00173936
-0.000714167
-0.00177399
-0.00078321
-0.00181098
-0.000853813
-0.00185035
-0.000926059
-0.00189215
-0.00100003
-0.00193644
-0.00107581
-0.00198326
-0.00203214
-0.00115347
-0.000216347
-0.00142608
-0.000274552
-0.00148571
-0.000334844
-0.00152601
-0.000396677
-0.00155698
-0.000459801
-0.0015847
-0.000524148
-0.00161235
-0.00058974
-0.00164141
-0.000656645
-0.00167246
-0.000724944
-0.00170569
-0.000794723
-0.0017412
-0.000866068
-0.00177901
-0.000939065
-0.00181915
-0.0010138
-0.00186171
-0.00109035
-0.00190671
-0.00195369
-0.0011688
-0.000220966
-0.00137009
-0.000279955
-0.00142672
-0.000340987
-0.00146497
-0.000403532
-0.00149443
-0.000467355
-0.00152087
-0.000532395
-0.00154731
-0.000598683
-0.00157512
-0.000666286
-0.00160485
-0.000735287
-0.00163669
-0.000805774
-0.00167071
-0.000877835
-0.00170695
-0.000951557
-0.00174543
-0.00102702
-0.00178624
-0.00110433
-0.0018294
-0.00187448
-0.00118354
-0.000225387
-0.0013133
-0.000285125
-0.00136698
-0.000346865
-0.00140323
-0.000410092
-0.00143121
-0.000474585
-0.00145638
-0.000540291
-0.0014816
-0.000607246
-0.00150817
-0.000675519
-0.00153658
-0.000745195
-0.00156701
-0.000816363
-0.00159954
-0.000889113
-0.0016342
-0.000963532
-0.00167101
-0.00103971
-0.00171006
-0.00111774
-0.00175137
-0.00179452
-0.00119769
-0.000229609
-0.00125574
-0.000290062
-0.00130653
-0.000352477
-0.00134082
-0.000416356
-0.00136733
-0.00048149
-0.00139125
-0.000547834
-0.00141526
-0.000615428
-0.00144058
-0.000684343
-0.00146766
-0.000754666
-0.00149669
-0.000826488
-0.00152772
-0.000899899
-0.00156079
-0.000974989
-0.00159592
-0.00105185
-0.0016332
-0.00113057
-0.00167265
-0.00171386
-0.00121124
-0.000175338
-0.00112172
-0.000233632
-0.00119744
-0.000294766
-0.00124539
-0.000357824
-0.00127776
-0.000422325
-0.00130283
-0.000488071
-0.0013255
-0.000555024
-0.00134831
-0.000623228
-0.00137237
-0.000692757
-0.00139813
-0.0007637
-0.00142575
-0.000836147
-0.00145527
-0.00091019
-0.00148674
-0.000985922
-0.00152019
-0.00106344
-0.00155569
-0.00114283
-0.00159325
-0.00163251
-0.00122418
-0.000178468
-0.00106702
-0.000237456
-0.00113846
-0.000299236
-0.00118361
-0.000362906
-0.00121409
-0.000427998
-0.00123773
-0.000494326
-0.00125917
-0.00056186
-0.00128077
-0.000630645
-0.00130359
-0.00070076
-0.00132802
-0.000772293
-0.00135422
-0.000845337
-0.00138223
-0.000919985
-0.0014121
-0.000996331
-0.00144385
-0.00107447
-0.00147755
-0.0011545
-0.00151322
-0.0015505
-0.00123651
-0.000181436
-0.00101161
-0.00024108
-0.00107881
-0.000303472
-0.00112122
-0.000367722
-0.00114984
-0.000433375
-0.00117208
-0.000500256
-0.00119229
-0.000568341
-0.00121269
-0.000637679
-0.00123425
-0.00070835
-0.00125735
-0.000780445
-0.00128212
-0.000854056
-0.00130862
-0.00092928
-0.00133687
-0.00100621
-0.00136692
-0.00108495
-0.00139881
-0.00116559
-0.00143258
-0.00146788
-0.00124821
-0.000184241
-0.000955533
-0.000244505
-0.00101855
-0.000307474
-0.00105825
-0.000372271
-0.00108504
-0.000438456
-0.0011059
-0.00050586
-0.00112489
-0.000574467
-0.00114408
-0.000644329
-0.00116439
-0.000715527
-0.00118615
-0.000788154
-0.00120949
-0.000862304
-0.00123447
-0.000938073
-0.0012611
-0.00101556
-0.00128943
-0.00109486
-0.00131951
-0.00117608
-0.00135136
-0.00138466
-0.0012593
-0.000186883
-0.000898832
-0.00024773
-0.000957701
-0.000311242
-0.00099474
-0.000376555
-0.00101973
-0.000443239
-0.00103921
-0.000511137
-0.00105699
-0.000580236
-0.00107498
-0.000650593
-0.00109403
-0.000722289
-0.00111445
-0.000795418
-0.00113636
-0.000870077
-0.00115981
-0.000946362
-0.00118482
-0.00102437
-0.00121142
-0.00110421
-0.00123968
-0.00118597
-0.00126959
-0.00130088
-0.00126975
-0.000132075
-0.000754467
-0.000189362
-0.000841545
-0.000250754
-0.000896309
-0.000314776
-0.000930719
-0.000380572
-0.000953935
-0.000447726
-0.000972059
-0.000516087
-0.000988628
-0.000585649
-0.00100542
-0.00065647
-0.00102321
-0.000728635
-0.00104229
-0.000802237
-0.00106276
-0.000877374
-0.00108467
-0.000954145
-0.00110805
-0.00103265
-0.00113292
-0.00111299
-0.00115934
-0.00119527
-0.00118731
-0.00121657
-0.00127958
-0.000133844
-0.000702956
-0.000191677
-0.000783712
-0.000253578
-0.000834408
-0.000318075
-0.000866222
-0.000384323
-0.000887687
-0.000451915
-0.000904466
-0.00052071
-0.000919833
-0.000590705
-0.000935426
-0.000661961
-0.000951954
-0.000734563
-0.000969686
-0.000808608
-0.000988718
-0.000884193
-0.00100909
-0.000961419
-0.00103082
-0.00104039
-0.00105395
-0.0011212
-0.00107853
-0.00120396
-0.00110455
-0.00113177
-0.00128877
-0.000135488
-0.000650916
-0.000193828
-0.000725372
-0.000256201
-0.000772035
-0.000321139
-0.000801285
-0.000387807
-0.000821019
-0.000455807
-0.000836466
-0.000525005
-0.000850635
-0.000595402
-0.000865028
-0.000667063
-0.000880294
-0.000740074
-0.000896676
-0.000814531
-0.000914261
-0.000890533
-0.000933085
-0.000968182
-0.000953173
-0.00104758
-0.000974552
-0.00112883
-0.000997273
-0.00121205
-0.00102133
-0.0010465
-0.00129731
-0.000137008
-0.000598388
-0.000195815
-0.000666564
-0.000258624
-0.000709226
-0.000323968
-0.00073594
-0.000391023
-0.000753964
-0.0004594
-0.000768088
-0.000528971
-0.000781064
-0.000599741
-0.000794258
-0.000671776
-0.000808259
-0.000745164
-0.000823288
-0.000820003
-0.000839422
-0.000896392
-0.000856696
-0.000974433
-0.000875132
-0.00105423
-0.000894754
-0.00113589
-0.000915612
-0.00121952
-0.0009377
-0.00096081
-0.00130522
-0.000138402
-0.000545412
-0.000197638
-0.000607328
-0.000260845
-0.000646019
-0.000326562
-0.000670223
-0.000393973
-0.000686554
-0.000462696
-0.000699365
-0.000532609
-0.000711151
-0.000603721
-0.000723146
-0.000676099
-0.00073588
-0.000749834
-0.000749553
-0.000825024
-0.000764233
-0.000901768
-0.000779952
-0.00098017
-0.000796729
-0.00106033
-0.000814589
-0.00114237
-0.000833577
-0.00122639
-0.000853684
-0.000874724
-0.00131247
-0.00013967
-0.00049203
-0.000199295
-0.000547703
-0.000262865
-0.000582449
-0.000328921
-0.000604166
-0.000396655
-0.00061882
-0.000465692
-0.000630328
-0.000535917
-0.000640926
-0.000607341
-0.000651722
-0.000680032
-0.000663189
-0.000754083
-0.000675502
-0.000829592
-0.000688724
-0.00090666
-0.000702884
-0.000985391
-0.000717998
-0.00106589
-0.00073409
-0.00114827
-0.000751199
-0.00123263
-0.000769319
-0.00078828
-0.00131908
-0.000140812
-0.000438281
-0.000200787
-0.000487728
-0.000264683
-0.000518553
-0.000331045
-0.000537805
-0.000399069
-0.000550796
-0.00046839
-0.000561006
-0.000538896
-0.000570421
-0.0006106
-0.000580018
-0.000683574
-0.000590214
-0.00075791
-0.000601166
-0.000833706
-0.000612928
-0.000911066
-0.000625524
-0.000990094
-0.000638971
-0.0010709
-0.000653289
-0.00115358
-0.000668513
-0.00123826
-0.000684638
-0.000701513
-0.00132503
-0.000141828
-0.000384207
-0.000202114
-0.000427442
-0.0002663
-0.000454367
-0.000332932
-0.000471172
-0.000401216
-0.000482513
-0.000470789
-0.000491433
-0.000541544
-0.000499666
-0.000613498
-0.000508064
-0.000686724
-0.000516989
-0.000761313
-0.000526577
-0.000837366
-0.000536875
-0.000914986
-0.000547904
-0.000994278
-0.000559679
-0.00107535
-0.000572218
-0.00115831
-0.000585553
-0.00124327
-0.000599675
-0.000614457
-0.00133033
-0.000142717
-0.000329849
-0.000203276
-0.000366884
-0.000267715
-0.000389928
-0.000334585
-0.000404303
-0.000403094
-0.000414003
-0.000472888
-0.000421639
-0.000543862
-0.000428692
-0.000616036
-0.00043589
-0.000689481
-0.000443543
-0.000764293
-0.000451765
-0.000840571
-0.000460597
-0.000918418
-0.000470056
-0.000997942
-0.000480156
-0.00107925
-0.000490912
-0.00116245
-0.000502351
-0.00124766
-0.000514467
-0.000527148
-0.00133497
-8.88779e-05
-0.000227606
-0.00014348
-0.000275247
-0.000204271
-0.000306092
-0.000268928
-0.000325272
-0.000336001
-0.000337229
-0.000404705
-0.000345299
-0.000474688
-0.000351655
-0.00054585
-0.00035753
-0.000618211
-0.000363529
-0.000691846
-0.000369909
-0.000766848
-0.000376763
-0.000843319
-0.000384126
-0.000921362
-0.000392013
-0.00100108
-0.000400435
-0.00108259
-0.000409403
-0.001166
-0.000418943
-0.00125142
-0.000429046
-0.000439623
-0.00133895
-8.93105e-05
-0.000182322
-0.000144116
-0.000220441
-0.000205102
-0.000245107
-0.000269939
-0.000260434
-0.000337181
-0.000269987
-0.000406047
-0.000276434
-0.000476189
-0.000281514
-0.000547507
-0.000286212
-0.000620024
-0.000291012
-0.000693817
-0.000296116
-0.000768978
-0.000301601
-0.00084561
-0.000307494
-0.000923816
-0.000313806
-0.0010037
-0.000320547
-0.00108538
-0.000327726
-0.00116896
-0.000335362
-0.00125456
-0.000343449
-0.000351916
-0.00134227
-8.96568e-05
-0.000136879
-0.000144625
-0.000165473
-0.000205766
-0.000183966
-0.000270748
-0.000195452
-0.000338126
-0.000202609
-0.000407121
-0.000207438
-0.000477389
-0.000211246
-0.000548832
-0.000214769
-0.000621475
-0.000218369
-0.000695394
-0.000222198
-0.000770683
-0.000226313
-0.000847444
-0.000230733
-0.000925781
-0.000235469
-0.0010058
-0.000240526
-0.00108761
-0.000245913
-0.00117133
-0.000251642
-0.00125707
-0.000257711
-0.000264064
-0.00134492
-8.99166e-05
-9.13184e-05
-0.000145007
-0.000110383
-0.000206264
-0.000122709
-0.000271354
-0.000130362
-0.000338834
-0.000135129
-0.000407926
-0.000138346
-0.000478289
-0.000140883
-0.000549827
-0.000143231
-0.000622564
-0.000145631
-0.000696577
-0.000148184
-0.000771962
-0.000150928
-0.000848819
-0.000153876
-0.000927254
-0.000157034
-0.00100737
-0.000160406
-0.00108929
-0.000163998
-0.00117311
-0.000167819
-0.00125896
-0.000171866
-0.000176103
-0.00134692
-9.00898e-05
-4.56789e-05
-0.000145261
-5.52118e-05
-0.000206596
-6.13736e-05
-0.000271759
-6.51989e-05
-0.000339306
-6.75813e-05
-0.000408464
-6.91892e-05
-0.000478889
-7.04573e-05
-0.00055049
-7.16312e-05
-0.00062329
-7.28312e-05
-0.000697366
-7.41078e-05
-0.000772814
-7.54798e-05
-0.000849736
-7.69539e-05
-0.000928237
-7.85332e-05
-0.00100842
-8.02196e-05
-0.00109041
-8.20159e-05
-0.0011743
-8.39268e-05
-0.00126021
-8.59507e-05
-8.80696e-05
-0.00134825
-9.01764e-05
6.17978e-11
-0.000145388
9.56199e-11
-0.000206762
1.31579e-10
-0.000271961
1.68053e-10
-0.000339543
2.03176e-10
-0.000408732
2.3428e-10
-0.00047919
2.59129e-10
-0.000550821
2.76652e-10
-0.000623652
2.8697e-10
-0.000697761
2.90969e-10
-0.000773241
2.89857e-10
-0.000850195
2.84875e-10
-0.000928728
2.77099e-10
-0.00100895
2.67445e-10
-0.00109096
2.56648e-10
-0.00117489
2.45349e-10
-0.00126084
2.3416e-10
2.22886e-10
-0.00134891
-9.01764e-05
4.5679e-05
-0.000145388
5.5212e-05
-0.000206762
6.13739e-05
-0.000271961
6.51992e-05
-0.000339543
6.75817e-05
-0.000408732
6.91896e-05
-0.00047919
7.04578e-05
-0.000550821
7.16318e-05
-0.000623652
7.28318e-05
-0.000697761
7.41084e-05
-0.000773241
7.54804e-05
-0.000850195
7.69545e-05
-0.000928728
7.85337e-05
-0.00100895
8.02202e-05
-0.00109096
8.20165e-05
-0.00117489
8.39272e-05
-0.00126084
8.59512e-05
8.807e-05
-0.00134891
-9.00898e-05
9.13185e-05
-0.000145261
0.000110383
-0.000206596
0.000122709
-0.000271759
0.000130362
-0.000339306
0.000135129
-0.000408464
0.000138347
-0.000478889
0.000140884
-0.00055049
0.000143232
-0.00062329
0.000145632
-0.000697366
0.000148185
-0.000772814
0.000150929
-0.000849736
0.000153876
-0.000928237
0.000157034
-0.00100842
0.000160407
-0.00109041
0.000163999
-0.0011743
0.00016782
-0.00126021
0.000171867
0.000176103
-0.00134825
-8.99166e-05
0.000136879
-0.000145007
0.000165473
-0.000206264
0.000183966
-0.000271354
0.000195453
-0.000338834
0.000202609
-0.000407927
0.000207439
-0.000478289
0.000211246
-0.000549827
0.000214769
-0.000622564
0.000218369
-0.000696577
0.000222198
-0.000771962
0.000226313
-0.000848819
0.000230734
-0.000927254
0.00023547
-0.00100737
0.000240527
-0.00108929
0.000245913
-0.00117311
0.000251643
-0.00125896
0.000257711
0.000264064
-0.00134692
-8.96568e-05
0.000182322
-0.000144625
0.000220441
-0.000205766
0.000245107
-0.000270748
0.000260435
-0.000338126
0.000269987
-0.000407121
0.000276434
-0.000477389
0.000281514
-0.000548832
0.000286213
-0.000621475
0.000291012
-0.000695394
0.000296117
-0.000770683
0.000301602
-0.000847444
0.000307495
-0.000925781
0.000313807
-0.0010058
0.000320547
-0.00108761
0.000327726
-0.00117133
0.000335362
-0.00125707
0.00034345
0.000351916
-0.00134492
-8.93105e-05
0.000227606
-0.000144116
0.000275247
-0.000205102
0.000306093
-0.000269939
0.000325272
-0.000337181
0.00033723
-0.000406047
0.0003453
-0.000476189
0.000351656
-0.000547507
0.000357531
-0.000620024
0.00036353
-0.000693817
0.000369909
-0.000768978
0.000376763
-0.00084561
0.000384126
-0.000923817
0.000392013
-0.0010037
0.000400435
-0.00108538
0.000409404
-0.00116896
0.000418943
-0.00125456
0.000429047
0.000439623
-0.00134227
-8.88779e-05
-0.00014348
0.000329849
-0.000204272
0.000366884
-0.000268928
0.000389928
-0.000336001
0.000404303
-0.000404705
0.000414003
-0.000474688
0.000421639
-0.00054585
0.000428693
-0.000618211
0.000435891
-0.000691846
0.000443544
-0.000766848
0.000451766
-0.000843319
0.000460597
-0.000921362
0.000470057
-0.00100108
0.000480157
-0.00108259
0.000490913
-0.001166
0.000502352
-0.00125142
0.000514467
0.000527149
-0.00133895
-0.000142717
0.000384208
-0.000203276
0.000427442
-0.000267715
0.000454367
-0.000334585
0.000471173
-0.000403094
0.000482513
-0.000472889
0.000491434
-0.000543862
0.000499666
-0.000616036
0.000508064
-0.000689481
0.00051699
-0.000764293
0.000526577
-0.000840571
0.000536875
-0.000918419
0.000547904
-0.000997942
0.00055968
-0.00107925
0.000572219
-0.00116245
0.000585553
-0.00124766
0.000599676
0.000614457
-0.00133497
-0.000141828
0.000438281
-0.000202114
0.000487728
-0.0002663
0.000518553
-0.000332933
0.000537805
-0.000401216
0.000550796
-0.000470789
0.000561007
-0.000541544
0.000570422
-0.000613498
0.000580019
-0.000686724
0.000590215
-0.000761313
0.000601167
-0.000837366
0.000612928
-0.000914986
0.000625524
-0.000994278
0.000638972
-0.00107535
0.000653289
-0.00115831
0.000668514
-0.00124327
0.000684638
0.000701513
-0.00133033
-0.000140812
0.00049203
-0.000200787
0.000547704
-0.000264683
0.000582449
-0.000331045
0.000604167
-0.000399069
0.000618821
-0.00046839
0.000630328
-0.000538896
0.000640927
-0.0006106
0.000651723
-0.000683574
0.000663189
-0.00075791
0.000675502
-0.000833707
0.000688725
-0.000911066
0.000702884
-0.000990094
0.000717999
-0.0010709
0.000734091
-0.00115358
0.0007512
-0.00123826
0.000769319
0.000788281
-0.00132503
-0.00013967
0.000545412
-0.000199295
0.000607329
-0.000262865
0.000646019
-0.000328921
0.000670223
-0.000396655
0.000686554
-0.000465693
0.000699366
-0.000535917
0.000711151
-0.000607341
0.000723147
-0.000680033
0.000735881
-0.000754083
0.000749553
-0.000829592
0.000764233
-0.00090666
0.000779952
-0.000985391
0.00079673
-0.00106589
0.00081459
-0.00114827
0.000833577
-0.00123263
0.000853685
0.000874725
-0.00131908
-0.000138402
0.000598388
-0.000197638
0.000666565
-0.000260845
0.000709227
-0.000326562
0.000735941
-0.000393973
0.000753965
-0.000462696
0.000768089
-0.000532609
0.000781064
-0.000603721
0.000794259
-0.0006761
0.00080826
-0.000749835
0.000823288
-0.000825024
0.000839423
-0.000901768
0.000856697
-0.00098017
0.000875132
-0.00106033
0.000894755
-0.00114237
0.000915613
-0.00122639
0.0009377
0.00096081
-0.00131247
-0.000137008
0.000650917
-0.000195815
0.000725372
-0.000258624
0.000772035
-0.000323968
0.000801285
-0.000391023
0.00082102
-0.000459401
0.000836466
-0.000528971
0.000850635
-0.000599741
0.000865029
-0.000671776
0.000880294
-0.000745164
0.000896676
-0.000820003
0.000914261
-0.000896392
0.000933086
-0.000974434
0.000953174
-0.00105423
0.000974552
-0.00113589
0.000997273
-0.00121952
0.00102133
0.0010465
-0.00130522
-0.000135489
0.000702956
-0.000193829
0.000783712
-0.000256202
0.000834408
-0.000321139
0.000866223
-0.000387807
0.000887687
-0.000455807
0.000904467
-0.000525005
0.000919833
-0.000595403
0.000935426
-0.000667063
0.000951955
-0.000740074
0.000969687
-0.000814531
0.000988718
-0.000890533
0.00100909
-0.000968183
0.00103082
-0.00104758
0.00105395
-0.00112883
0.00107853
-0.00121205
0.00110455
0.00113177
-0.00129731
-0.000133844
0.000754467
-0.000191677
0.000841545
-0.000253578
0.000896309
-0.000318075
0.000930719
-0.000384323
0.000953935
-0.000451915
0.000972059
-0.00052071
0.000988628
-0.000590705
0.00100542
-0.000661961
0.00102321
-0.000734564
0.00104229
-0.000808608
0.00106276
-0.000884194
0.00108467
-0.000961419
0.00110805
-0.00104039
0.00113292
-0.0011212
0.00115934
-0.00120396
0.00118731
0.00121657
-0.00128877
-0.000132076
-0.000189362
0.000898832
-0.000250754
0.000957701
-0.000314776
0.000994741
-0.000380572
0.00101973
-0.000447726
0.00103921
-0.000516088
0.00105699
-0.00058565
0.00107498
-0.00065647
0.00109403
-0.000728635
0.00111445
-0.000802237
0.00113637
-0.000877374
0.00115981
-0.000954145
0.00118482
-0.00103265
0.00121142
-0.00111299
0.00123968
-0.00119527
0.00126959
0.00130088
-0.00127958
-0.000186883
0.000955533
-0.00024773
0.00101855
-0.000311242
0.00105825
-0.000376555
0.00108504
-0.00044324
0.0011059
-0.000511137
0.00112489
-0.000580237
0.00114408
-0.000650593
0.00116439
-0.000722289
0.00118615
-0.000795419
0.00120949
-0.000870077
0.00123447
-0.000946362
0.0012611
-0.00102437
0.00128943
-0.00110421
0.00131951
-0.00118597
0.00135136
0.00138466
-0.00126975
-0.000184241
0.00101161
-0.000244505
0.00107881
-0.000307474
0.00112122
-0.000372272
0.00114984
-0.000438456
0.00117208
-0.00050586
0.00119229
-0.000574467
0.00121269
-0.000644329
0.00123425
-0.000715527
0.00125735
-0.000788154
0.00128212
-0.000862304
0.00130862
-0.000938073
0.00133687
-0.00101556
0.00136692
-0.00109486
0.00139881
-0.00117608
0.00143258
0.00146788
-0.0012593
-0.000181436
0.00106702
-0.00024108
0.00113846
-0.000303472
0.00118361
-0.000367722
0.00121409
-0.000433375
0.00123773
-0.000500256
0.00125917
-0.000568341
0.00128077
-0.000637679
0.00130359
-0.000708351
0.00132802
-0.000780445
0.00135422
-0.000854056
0.00138223
-0.00092928
0.0014121
-0.00100621
0.00144385
-0.00108495
0.00147755
-0.00116559
0.00151322
0.0015505
-0.00124821
-0.000178468
0.00112172
-0.000237456
0.00119744
-0.000299236
0.0012454
-0.000362906
0.00127776
-0.000427998
0.00130283
-0.000494326
0.0013255
-0.00056186
0.00134831
-0.000630645
0.00137237
-0.00070076
0.00139814
-0.000772293
0.00142575
-0.000845337
0.00145527
-0.000919985
0.00148674
-0.000996331
0.00152019
-0.00107447
0.00155569
-0.0011545
0.00159325
0.00163251
-0.00123651
-0.000175338
-0.000233632
0.00125574
-0.000294766
0.00130653
-0.000357825
0.00134082
-0.000422325
0.00136733
-0.000488071
0.00139125
-0.000555024
0.00141526
-0.000623228
0.00144058
-0.000692757
0.00146766
-0.0007637
0.00149669
-0.000836147
0.00152772
-0.00091019
0.00156079
-0.000985923
0.00159592
-0.00106344
0.0016332
-0.00114283
0.00167265
0.00171386
-0.00122418
-0.000229609
0.0013133
-0.000290063
0.00136698
-0.000352477
0.00140323
-0.000416356
0.00143121
-0.00048149
0.00145638
-0.000547835
0.00148161
-0.000615428
0.00150817
-0.000684343
0.00153658
-0.000754667
0.00156701
-0.000826488
0.00159954
-0.000899899
0.0016342
-0.000974989
0.00167101
-0.00105185
0.00171006
-0.00113057
0.00175137
0.00179452
-0.00121124
-0.000225387
0.00137009
-0.000285126
0.00142672
-0.000346865
0.00146497
-0.000410092
0.00149443
-0.000474585
0.00152087
-0.000540292
0.00154731
-0.000607246
0.00157512
-0.000675519
0.00160485
-0.000745195
0.00163669
-0.000816364
0.00167071
-0.000889113
0.00170695
-0.000963532
0.00174543
-0.00103971
0.00178624
-0.00111774
0.0018294
0.00187448
-0.00119769
-0.000220966
-0.000279955
0.00148571
-0.000340987
0.00152601
-0.000403532
0.00155698
-0.000467355
0.0015847
-0.000532396
0.00161235
-0.000598683
0.00164141
-0.000666286
0.00167246
-0.000735288
0.00170569
-0.000805775
0.0017412
-0.000877836
0.00177901
-0.000951557
0.00181916
-0.00102702
0.00186171
-0.00110433
0.00190671
0.00195369
-0.00118354
-0.000274552
0.00154392
-0.000334844
0.0015863
-0.000396677
0.00161881
-0.000459801
0.00164782
-0.000524148
0.0016767
-0.000589741
0.001707
-0.000656646
0.00173936
-0.000724944
0.00177399
-0.000794723
0.00181098
-0.000866068
0.00185035
-0.000939065
0.00189215
-0.0010138
0.00193644
-0.00109035
0.00198326
0.00203214
-0.0011688
-0.000268916
0.0016013
-0.000328437
0.00164582
-0.000389527
0.0016799
-0.000451924
0.00171022
-0.000515549
0.00174032
-0.000580419
0.00177188
-0.000646599
0.00180554
-0.000714168
0.00184156
-0.000783211
0.00188002
-0.000853813
0.00192096
-0.000926059
0.0019644
-0.00100003
0.00201041
-0.00107581
0.00205905
0.0021098
-0.00115347
-0.000263047
0.00165783
-0.000321764
0.00170454
-0.000382083
0.00174022
-0.000443724
0.00177186
-0.000506598
0.0018032
-0.000570719
0.001836
-0.000636146
0.00187097
-0.000702958
0.00190837
-0.000771239
0.0019483
-0.000841074
0.00199079
-0.000912544
0.00203587
-0.000985728
0.00208359
-0.00106071
0.00213403
0.00218664
-0.00113755
-0.000256947
-0.000314828
0.00176242
-0.000374344
0.00179974
-0.000435201
0.00183271
-0.000497298
0.00186529
-0.000560641
0.00189934
-0.000625289
0.00193562
-0.000691318
0.0019744
-0.000758811
0.00201579
-0.000827851
0.00205983
-0.00089852
0.00210654
-0.000970895
0.00215597
-0.00104506
0.00220819
0.00226265
-0.00112107
-0.000307626
0.00181943
-0.000366311
0.00185842
-0.000426355
0.00189276
-0.000487647
0.00192659
-0.000550187
0.00196188
-0.000614029
0.00199946
-0.000679247
0.00203962
-0.000745926
0.00208247
-0.000814147
0.00212805
-0.000883991
0.00217638
-0.000955534
0.00222751
-0.00102886
0.00228152
0.0023378
-0.00110401
-0.000300161
0.00187554
-0.000357984
0.00191625
-0.000417188
0.00195196
-0.000477647
0.00198705
-0.000539356
0.00202359
-0.000602365
0.00206247
-0.000666748
0.002104
-0.000732586
0.00214831
-0.000799962
0.00219543
-0.000868958
0.00224538
-0.000939647
0.0022982
-0.00101211
0.00235398
0.00241209
-0.0010864
-0.000292432
-0.000349363
0.00197318
-0.000407698
0.0020103
-0.000467298
0.00204665
-0.00052815
0.00208444
-0.0005903
0.00212462
-0.00065382
0.00216752
-0.000718792
0.00221328
-0.000785299
0.00226194
-0.000853422
0.0023135
-0.000923237
0.00236802
-0.000994825
0.00242557
0.00248549
-0.00106823
-0.000340449
0.00202919
-0.000397887
0.00206773
-0.0004566
0.00210536
-0.000516568
0.00214441
-0.000577833
0.00218588
-0.000640465
0.00223015
-0.000704545
0.00227736
-0.000770158
0.00232755
-0.000837385
0.00238073
-0.000906305
0.00243694
-0.000977003
0.00249627
0.00255801
-0.00104952
-0.000331241
-0.000387754
0.00212425
-0.000445555
0.00216316
-0.000504612
0.00220347
-0.000564965
0.00224623
-0.000626683
0.00229187
-0.000689845
0.00234052
-0.000754538
0.00239224
-0.000820845
0.00244703
-0.00088885
0.00250494
-0.000958645
0.00256606
0.00262964
-0.00103028
-0.0003773
0.00217981
-0.000434161
0.00222002
-0.000492283
0.00226159
-0.000551698
0.00230565
-0.000612474
0.00235265
-0.000674692
0.00240274
-0.000738439
0.00245599
-0.000803802
0.0025124
-0.000870869
0.00257201
-0.000939749
0.00263494
0.0027004
-0.0010105
-0.000366527
-0.000422421
0.00227592
-0.00047958
0.00231875
-0.000538031
0.0023641
-0.000597839
0.00241246
-0.000659086
0.00246399
-0.00072186
0.00251876
-0.000786253
0.00257679
-0.000852358
0.00263811
-0.000920308
0.00270289
0.00277028
-0.000990195
-0.000410334
0.00233082
-0.000466504
0.00237492
-0.000523966
0.00242156
-0.00058278
0.00247127
-0.000643027
0.00252424
-0.000704801
0.00258054
-0.000768194
0.00264018
-0.000833308
0.00270323
-0.000900309
0.00276989
0.00283933
-0.000969357
-0.000397902
0.0023847
-0.000453058
0.00243007
-0.000509503
0.00247801
-0.000567296
0.00252906
-0.000626516
0.00258346
-0.000687259
0.00264128
-0.000749624
0.00270255
-0.000813708
0.00276731
-0.000879727
0.00283591
0.00290758
-0.000947974
-0.000385125
-0.000439241
0.00248419
-0.000494644
0.00253341
-0.000551389
0.00258581
-0.000609554
0.00264162
-0.000669235
0.00270096
-0.000730538
0.00276385
-0.000793548
0.00283032
-0.000858518
0.00290088
0.00297507
-0.000926015
-0.000425056
-0.000479391
0.00258774
-0.000535061
0.00264148
-0.000592141
0.0026987
-0.000650727
0.00275955
-0.000710937
0.00282406
-0.000772821
0.0028922
-0.000836606
0.00296467
0.0030419
-0.000903435
-0.000463746
0.00264099
-0.000518315
0.00269605
-0.000574281
0.00275467
-0.000631736
0.002817
-0.000690818