/*--------------------------------*- C++ -*----------------------------------*\
  =========                 |
  \\      /  F ield         | OpenFOAM: The Open Source CFD Toolbox
   \\    /   O peration     | Website:  https://openfoam.org
    \\  /    A nd           | Version:  7
     \\/     M anipulation  |
\*---------------------------------------------------------------------------*/
FoamFile
{
    version     2.0;
    format      ascii;
    class       volVectorField;
    location    "5";
    object      U;
}
// * * * * * * * * * * * * * * * * * * * * * * * * * * * * * * * * * * * * * //

dimensions      [0 1 -1 0 0 0 0];

internalField   nonuniform List<vector> 
8500
(
(1.05074 0.367123 1.7039e-21)
(1.039 0.384519 1.62626e-21)
(1.04007 0.367108 2.74775e-20)
(1.02562 0.404087 -1.00453e-20)
(1.02747 0.384266 4.62892e-20)
(1.02929 0.366749 -5.15375e-20)
(1.01156 0.425488 -1.51488e-20)
(1.01342 0.403634 6.97971e-20)
(1.01583 0.383658 -3.30079e-20)
(1.01842 0.366034 9.23898e-21)
(0.998741 0.424809 3.15623e-20)
(1.00116 0.402818 5.39147e-20)
(1.00409 0.382689 -1.55706e-19)
(1.00745 0.364943 3.59758e-20)
(0.983491 0.44712 5.26767e-20)
(0.985888 0.423729 -6.51952e-20)
(0.988857 0.401635 3.93235e-20)
(0.992254 0.381349 1.83428e-19)
(0.996396 0.363446 1.17615e-19)
(0.967075 0.470583 -2.15803e-20)
(0.969919 0.44572 -8.70287e-20)
(0.973021 0.422241 -3.51168e-20)
(0.976538 0.400079 -1.12439e-19)
(0.980351 0.379624 7.04786e-20)
(0.985271 0.361502 -1.40367e-19)
(0.952663 0.468805 -2.20241e-20)
(0.956324 0.443871 -1.83365e-20)
(0.960161 0.420336 6.72367e-20)
(0.964221 0.398147 1.39692e-19)
(0.968414 0.377506 -2.3463e-19)
(0.974194 0.359082 1.65742e-19)
(0.933783 0.49301 -4.26444e-21)
(0.938221 0.46654 -3.80653e-21)
(0.94272 0.441565 1.2623e-19)
(0.947313 0.418004 -4.94257e-20)
(0.951919 0.395822 -1.02829e-19)
(0.956548 0.37497 -4.97692e-21)
(0.963411 0.356198 -2.40731e-19)
(0.918427 0.490274 -6.97147e-20)
(0.923767 0.463785 4.06898e-20)
(0.929115 0.438796 1.12254e-19)
(0.934473 0.415239 3.71528e-20)
(0.939654 0.393082 -2.08107e-19)
(0.944937 0.37195 -7.48536e-21)
(0.952935 0.352805 7.34728e-20)
(0.896746 0.51508 -4.1265e-20)
(0.903069 0.487009 -1.20036e-20)
(0.909316 0.460537 -1.2402e-19)
(0.915517 0.435567 -6.54294e-20)
(0.921639 0.412041 -7.36206e-20)
(0.927476 0.389932 2.49146e-19)
(0.933769 0.368451 -5.92576e-20)
(0.942001 0.347735 2.24716e-19)
(0.872955 0.540916 -1.2811e-19)
(0.880433 0.51124 5.85383e-20)
(0.887728 0.483215 9.73044e-20)
(0.894886 0.456796 3.93246e-20)
(0.901936 0.431879 1.12523e-19)
(0.908826 0.408411 5.6356e-20)
(0.915414 0.386366 -1.37327e-20)
(0.922728 0.364918 1.26945e-19)
(0.931203 0.344132 2.21737e-20)
(0.855639 0.53643 -6.32239e-20)
(0.864157 0.506828 -1.87941e-19)
(0.872427 0.47889 -1.13662e-20)
(0.880496 0.452561 -8.5257e-20)
(0.888391 0.427735 1.34885e-19)
(0.89605 0.404356 -2.09994e-19)
(0.903384 0.382384 -5.3536e-20)
(0.911454 0.360969 -8.22807e-20)
(0.920082 0.340131 -3.00323e-19)
(0.828382 0.56242 -1.94668e-20)
(0.838382 0.531327 -9.84004e-21)
(0.847941 0.501844 -3.48366e-20)
(0.857188 0.474034 -6.77098e-20)
(0.866168 0.447834 -9.90482e-20)
(0.874906 0.423136 5.55026e-20)
(0.883338 0.399882 1.70398e-19)
(0.891415 0.378017 -9.44381e-20)
(0.900156 0.356702 1.24404e-19)
(0.909054 0.336016 3.53774e-19)
(0.810106 0.556553 -3.05008e-19)
(0.821208 0.525605 -1.52318e-19)
(0.831811 0.496287 3.83276e-20)
(0.842033 0.468646 5.68771e-20)
(0.851922 0.442614 2.0409e-19)
(0.8615 0.418082 -2.88074e-19)
(0.870707 0.39499 8.57716e-20)
(0.879517 0.373267 5.09077e-20)
(0.888895 0.352108 -7.28584e-20)
(0.898151 0.331672 -2.66553e-19)
(0.791939 0.550018 1.61302e-19)
(0.804144 0.519267 2.66586e-19)
(0.815789 0.490158 2.21721e-19)
(0.826985 0.462729 1.65643e-19)
(0.837779 0.436905 -3.58624e-19)
(0.848196 0.412576 -4.44975e-21)
(0.858177 0.389681 -9.77799e-20)
(0.867713 0.368139 3.81433e-19)
(0.877717 0.347187 -1.49763e-20)
(0.887389 0.327053 -1.89625e-19)
(0.759698 0.574676 -2.30598e-19)
(0.773909 0.542818 5.10831e-21)
(0.787216 0.512313 9.20154e-20)
(0.7999 0.48346 -1.45456e-19)
(0.812067 0.456284 -1.82707e-19)
(0.823763 0.430707 4.6626e-19)
(0.835014 0.406619 1.8931e-19)
(0.845766 0.383957 -1.97948e-19)
(0.856025 0.362633 -2.26691e-19)
(0.866654 0.341932 -2.57421e-19)
(0.876783 0.322135 -2.48133e-20)
(0.74069 0.566547 1.25224e-19)
(0.756045 0.534956 4.99686e-20)
(0.770451 0.504747 -2.5406e-19)
(0.784169 0.476194 2.71324e-19)
(0.7973 0.449313 1.68445e-19)
(0.809893 0.424022 -6.47571e-20)
(0.821974 0.400212 -1.27893e-19)
(0.833495 0.377819 1.12196e-19)
(0.844472 0.356749 -1.97719e-19)
(0.855729 0.336338 -2.76648e-19)
(0.866345 0.3169 2.65503e-19)
(0.703818 0.589554 4.01088e-19)
(0.721879 0.557704 -2.03747e-19)
(0.738376 0.526437 2.52621e-19)
(0.753875 0.496573 -2.9342e-19)
(0.768619 0.468366 3.87928e-20)
(0.782708 0.441821 -1.17537e-19)
(0.796191 0.416855 8.71741e-20)
(0.809097 0.393359 8.30206e-20)
(0.821383 0.371269 -5.15415e-20)
(0.833075 0.350488 4.94558e-19)
(0.844961 0.330399 -6.83356e-20)
(0.856085 0.31134 -2.27997e-19)
(0.684089 0.579688 -2.9204e-19)
(0.703296 0.548155 4.27023e-19)
(0.720929 0.517265 -4.41395e-20)
(0.737512 0.487796 1.22128e-19)
(0.753275 0.459979 1.51789e-19)
(0.768314 0.433811 6.13962e-20)
(0.782678 0.409208 -4.18962e-19)
(0.796403 0.386063 9.62165e-20)
(0.809447 0.364309 8.88517e-20)
(0.82185 0.34385 -3.0029e-19)
(0.834364 0.324114 1.11478e-19)
(0.846013 0.305447 4.35605e-20)
(0.641663 0.599124 -4.36865e-20)
(0.664622 0.569061 -5.84678e-21)
(0.684972 0.537907 7.15758e-20)
(0.703733 0.507449 -1.18852e-19)
(0.72139 0.478422 -1.76675e-20)
(0.738161 0.451038 -4.71934e-19)
(0.754138 0.425289 -3.65865e-19)
(0.769375 0.401087 -6.25142e-20)
(0.783909 0.378327 -5.25296e-20)
(0.797707 0.356943 -5.90808e-20)
(0.810815 0.336836 -1.21346e-19)
(0.823955 0.31748 -1.41408e-19)
(0.836137 0.299221 -1.89751e-19)
(0.621412 0.58743 -8.6185e-20)
(0.645451 0.557684 -4.05417e-20)
(0.666938 0.526969 -4.17612e-19)
(0.686814 0.496995 -3.99178e-19)
(0.705534 0.468458 7.3653e-20)
(0.723299 0.441552 6.55003e-19)
(0.740203 0.41626 9.70592e-20)
(0.756302 0.392496 2.65776e-19)
(0.771636 0.370156 -4.17901e-19)
(0.786178 0.349173 -9.93248e-20)
(0.799986 0.329449 4.97251e-19)
(0.813746 0.310499 2.20849e-19)
(0.826466 0.29266 9.1436e-19)
(0.60149 0.574928 -5.60256e-20)
(0.626609 0.545568 2.87107e-19)
(0.649222 0.51535 -1.82504e-19)
(0.670201 0.485913 1.32956e-19)
(0.689967 0.457913 3.08086e-19)
(0.708713 0.431526 -2.10662e-19)
(0.72653 0.406731 5.34617e-20)
(0.743479 0.383441 2.65713e-19)
(0.759601 0.361555 3.35597e-19)
(0.774879 0.341004 -1.77112e-19)
(0.789376 0.321692 -1.00788e-19)
(0.803749 0.303173 1.5551e-19)
(0.817011 0.285769 -4.53083e-19)
(0.551779 0.586572 6.47237e-20)
(0.581935 0.561635 1.83243e-19)
(0.608127 0.532725 -2.74306e-19)
(0.631854 0.503063 6.56026e-19)
(0.65392 0.474214 2.77684e-19)
(0.674716 0.446797 -9.25332e-20)
(0.694426 0.420971 -2.92063e-20)
(0.713141 0.396711 1.26461e-19)
(0.730924 0.373931 -3.53185e-19)
(0.747823 0.35253 2.94976e-20)
(0.763824 0.332442 -2.31343e-19)
(0.779002 0.31357 -1.0275e-19)
(0.793979 0.295505 -4.58192e-19)
(0.807782 0.27855 -1.99467e-19)
(0.531716 0.572202 -2.30028e-19)
(0.562781 0.547564 1.26004e-19)
(0.590038 0.519169 -7.6913e-20)
(0.614863 0.49012 -2.39021e-19)
(0.637997 0.461908 2.64426e-19)
(0.659804 0.435118 2.84593e-19)
(0.680459 0.409894 -5.85229e-22)
(0.700055 0.386208 -6.57555e-20)
(0.718658 0.363972 -3.74908e-20)
(0.736319 0.343089 2.81318e-19)
(0.753031 0.323493 2.51507e-19)
(0.768878 0.305088 7.09488e-20)
(0.784447 0.2875 4.8437e-19)
(0.798787 0.271009 1.58652e-19)
(0.51209 0.557003 -8.51254e-20)
(0.544063 0.532733 -1.43513e-19)
(0.572372 0.504916 -5.52638e-20)
(0.598276 0.476533 -8.7083e-21)
(0.622458 0.449009 -5.755e-19)
(0.645255 0.42289 -7.37239e-19)
(0.666835 0.398308 -1.14816e-19)
(0.687294 0.375231 2.605e-19)
(0.706699 0.353573 -1.03217e-19)
(0.725105 0.33324 -5.27677e-19)
(0.742515 0.314164 4.99098e-19)
(0.759016 0.296252 7.21641e-20)
(0.775166 0.279164 -2.02811e-19)
(0.790038 0.263152 3.20336e-19)
(0.454634 0.556342 9.75039e-20)
(0.492937 0.540994 3.41669e-19)
(0.525813 0.517159 -1.19988e-19)
(0.555159 0.489981 1.83849e-19)
(0.582121 0.462319 3.53369e-19)
(0.607327 0.435529 1.94915e-19)
(0.631091 0.410123 8.25474e-19)
(0.653576 0.386223 3.8237e-19)
(0.674876 0.363792 -3.11707e-20)
(0.695064 0.342745 -2.06047e-20)
(0.714199 0.322991 6.71872e-20)
(0.73229 0.304463 -5.53579e-19)
(0.749431 0.287071 -2.97689e-19)
(0.766147 0.270503 1.28453e-19)
(0.781544 0.254985 -4.45872e-19)
(0.435404 0.539425 7.40542e-20)
(0.474295 0.524196 -4.38017e-19)
(0.508065 0.500862 3.34425e-19)
(0.538428 0.474382 -1.55724e-19)
(0.566425 0.447494 -3.62962e-19)
(0.592629 0.421483 -8.86343e-20)
(0.617335 0.396833 -3.41114e-19)
(0.6407 0.373652 -7.17333e-19)
(0.66282 0.351901 6.22767e-20)
(0.683772 0.331497 5.77409e-19)
(0.703617 0.312352 -2.54002e-19)
(0.722372 0.294399 3.10065e-19)
(0.740136 0.277551 4.20525e-19)
(0.757402 0.261524 2.71263e-19)
(0.773316 0.246518 2.07768e-19)
(0.416714 0.521678 2.67088e-19)
(0.456198 0.506632 4.66769e-19)
(0.49085 0.483864 -5.70213e-19)
(0.522208 0.458139 4.54119e-19)
(0.551213 0.432073 3.65125e-19)
(0.578388 0.406887 -1.06654e-19)
(0.60401 0.383033 -5.65562e-20)
(0.62823 0.360608 2.0941e-19)
(0.651146 0.339571 -3.63666e-19)
(0.672839 0.319841 -4.89429e-19)
(0.693374 0.301334 1.86798e-19)
(0.712774 0.283982 -1.91551e-19)
(0.731143 0.267702 -2.27878e-19)
(0.748944 0.252237 -1.99289e-19)
(0.765364 0.237757 2.02554e-20)
(0.398602 0.503125 -4.6354e-19)
(0.43868 0.488327 -3.63307e-20)
(0.474199 0.466185 2.70255e-20)
(0.506527 0.44127 -4.70739e-20)
(0.536511 0.416077 -4.59438e-19)
(0.564628 0.391759 -2.10681e-20)
(0.591136 0.368739 -7.60025e-20)
(0.616184 0.347105 4.62918e-19)
(0.639872 0.326815 -1.45229e-19)
(0.662282 0.30779 -4.18527e-20)
(0.683485 0.289947 2.47368e-19)
(0.703511 0.273222 7.25277e-19)
(0.722466 0.257533 -7.32572e-20)
(0.740783 0.24265 -8.83487e-20)
(0.757698 0.228712 1.51426e-19)
(0.334439 0.484312 3.33739e-19)
(0.381105 0.483794 -1.98571e-19)
(0.421773 0.469305 -3.2187e-19)
(0.45814 0.447849 3.1981e-19)
(0.49141 0.423798 -1.07519e-19)
(0.522342 0.399523 3.02211e-19)
(0.551369 0.376115 1.39164e-19)
(0.578734 0.353967 -8.22309e-20)
(0.604581 0.333158 -3.14747e-19)
(0.629013 0.313647 3.93537e-19)
(0.652117 0.295355 -9.95097e-20)
(0.673965 0.278204 -4.35077e-19)
(0.694596 0.26213 -1.49164e-19)
(0.714117 0.247056 -4.74014e-20)
(0.732931 0.232772 7.50373e-19)
(0.750326 0.219393 -4.84893e-19)
(0.317493 0.464532 -2.47086e-19)
(0.364258 0.463714 4.9101e-19)
(0.40551 0.449593 8.88793e-20)
(0.442702 0.42888 2.44153e-19)
(0.476884 0.405744 1.82496e-19)
(0.50873 0.382433 -5.01895e-19)
(0.538633 0.359974 -2.64791e-19)
(0.566823 0.338735 4.94661e-19)
(0.59344 0.318784 -1.58992e-20)
(0.618589 0.300082 -4.07768e-19)
(0.642359 0.282552 1.04797e-19)
(0.664829 0.266118 5.08858e-19)
(0.686041 0.250718 -4.14113e-19)
(0.706106 0.23628 -1.69064e-19)
(0.725398 0.222614 -1.48193e-19)
(0.74326 0.20981 3.32443e-19)
(0.301216 0.443985 -3.36133e-19)
(0.348095 0.442915 -1.46685e-19)
(0.389921 0.429219 -6.2423e-20)
(0.427912 0.409304 -4.87153e-19)
(0.462973 0.387131 -3.73068e-19)
(0.495697 0.364827 4.98556e-19)
(0.526442 0.343356 2.78033e-19)
(0.555422 0.32306 -2.18695e-19)
(0.582778 0.304 -2.55129e-19)
(0.608614 0.286135 2.77383e-19)
(0.633024 0.269393 -1.58367e-19)
(0.656089 0.253701 2.29246e-19)
(0.677859 0.238999 1.1029e-19)
(0.698446 0.225217 4.31406e-19)
(0.718196 0.212187 8.7101e-20)
(0.736507 0.199973 -3.93462e-19)
(0.285643 0.422704 -6.9335e-20)
(0.332648 0.421428 -1.97846e-19)
(0.375034 0.408212 1.73743e-19)
(0.413795 0.389146 6.48487e-20)
(0.4497 0.367984 -1.95393e-19)
(0.483266 0.346728 1.3142e-19)
(0.514815 0.326281 -3.50349e-19)
(0.544551 0.306961 -7.8219e-20)
(0.572611 0.288822 3.23398e-19)
(0.599104 0.271823 1.1589e-19)
(0.624125 0.255895 1.82449e-19)
(0.64776 0.240969 -3.46785e-19)
(0.670063 0.226985 -1.34409e-19)
(0.691148 0.21388 -4.54269e-20)
(0.711334 0.201503 6.37459e-20)
(0.730078 0.189893 3.62056e-19)
(0.270806 0.400722 -1.55152e-19)
(0.317946 0.399287 3.41845e-19)
(0.360876 0.386601 5.47941e-19)
(0.400378 0.368436 1.57266e-19)
(0.437088 0.348328 2.14513e-19)
(0.471455 0.328158 -2.61106e-21)
(0.503771 0.308771 1.03267e-19)
(0.534225 0.290459 3.64939e-19)
(0.562956 0.273269 -5.36633e-20)
(0.590074 0.257163 -6.59481e-19)
(0.615677 0.242073 5.84205e-21)
(0.639853 0.227935 3.72459e-20)
(0.662663 0.21469 3.46535e-20)
(0.684222 0.202281 -2.14611e-19)
(0.704822 0.190572 -1.99049e-19)
(0.72398 0.179582 -3.90063e-19)
(0.205215 0.361256 -1.04221e-19)
(0.256739 0.378077 2.07324e-19)
(0.30402 0.376524 2.04785e-19)
(0.347474 0.364419 -2.03818e-19)
(0.387682 0.3472 2.5007e-20)
(0.425159 0.328189 -1.35072e-19)
(0.460286 0.309143 3.41118e-20)
(0.493327 0.290848 -4.12598e-21)
(0.524463 0.273573 -1.6318e-19)
(0.553829 0.257361 -7.34218e-20)
(0.581538 0.242172 4.38574e-19)
(0.607691 0.227944 -3.3077e-19)
(0.63238 0.214614 2.22147e-19)
(0.655671 0.202129 9.08351e-20)
(0.677678 0.190434 -2.09071e-20)
(0.69867 0.179408 6.82043e-21)
(0.718221 0.169053 2.15008e-19)
(0.192437 0.339229 2.89959e-19)
(0.24347 0.354805 -1.6088e-19)
(0.290896 0.353175 -2.8462e-19)
(0.334853 0.341697 -1.73098e-19)
(0.375731 0.325469 -3.37736e-19)
(0.413931 0.307593 2.78052e-19)
(0.449776 0.289707 -2.28454e-19)
(0.483501 0.272535 4.91469e-20)
(0.515278 0.256326 3.47946e-20)
(0.545243 0.241116 -1.51445e-19)
(0.573509 0.226869 1.76917e-19)
(0.600181 0.213524 2.68106e-19)
(0.625353 0.201024 -2.39701e-19)
(0.649097 0.189317 -2.7469e-19)
(0.671525 0.178351 5.28201e-19)
(0.692885 0.168023 -4.76762e-19)
(0.71281 0.158317 1.74643e-19)
(0.180444 0.316597 -2.42285e-19)
(0.231029 0.330945 5.15321e-20)
(0.278601 0.329276 1.12958e-19)
(0.323035 0.318469 -3.97016e-19)
(0.364545 0.303273 6.49458e-20)
(0.403425 0.28657 -2.71559e-19)
(0.439942 0.269875 2.3231e-19)
(0.474308 0.253856 5.54575e-20)
(0.506686 0.238739 -2.54069e-19)
(0.537211 0.224556 -5.77299e-20)
(0.565999 0.211272 1.37995e-19)
(0.593157 0.198831 6.54562e-20)
(0.618782 0.187179 -1.92627e-20)
(0.64295 0.176267 1.59395e-20)
(0.665773 0.166049 -4.65124e-19)
(0.687478 0.156431 3.3229e-19)
(0.707754 0.147386 3.09861e-19)
(0.169263 0.293398 2.21766e-19)
(0.219442 0.306534 1.51944e-19)
(0.267158 0.304863 2.89324e-19)
(0.312041 0.294767 4.02077e-20)
(0.354143 0.280642 2.82159e-20)
(0.393657 0.265147 -2.06019e-21)
(0.430801 0.249674 -2.97008e-19)
(0.465763 0.234834 1.56679e-19)
(0.498701 0.220834 -2.53796e-19)
(0.529748 0.207701 1.68281e-19)
(0.559022 0.195401 -2.71491e-19)
(0.586631 0.183884 -1.60172e-19)
(0.612677 0.173098 3.25678e-19)
(0.637239 0.162997 2.90626e-20)
(0.66043 0.15354 7.34507e-20)
(0.682455 0.144645 2.99732e-20)
(0.703059 0.136275 -3.41378e-19)
(0.158921 0.269676 -1.48673e-19)
(0.208733 0.281615 9.45618e-20)
(0.256589 0.279974 -2.13467e-19)
(0.301893 0.270628 1.63274e-19)
(0.344543 0.257609 2.31541e-20)
(0.384645 0.243353 1.39108e-19)
(0.422368 0.22913 -5.33292e-21)
(0.457882 0.215495 -1.37984e-19)
(0.491336 0.202635 1.36442e-19)
(0.522864 0.190572 -3.54034e-19)
(0.552586 0.179277 4.96579e-19)
(0.580613 0.1687 1.9094e-19)
(0.607048 0.158796 -4.01796e-19)
(0.631975 0.149522 4.06369e-20)
(0.655504 0.14084 2.64077e-19)
(0.677824 0.13268 -3.75211e-19)
(0.698732 0.124996 -1.82745e-21)
(0.149442 0.245471 9.78333e-20)
(0.198925 0.256228 -8.04867e-20)
(0.246915 0.254648 -4.04088e-20)
(0.292607 0.246086 -8.19877e-20)
(0.335762 0.234207 -1.05053e-19)
(0.376403 0.221219 -2.93169e-19)
(0.414657 0.208272 1.28597e-19)
(0.450675 0.195865 -1.80498e-19)
(0.484602 0.184165 3.33179e-19)
(0.516571 0.173193 2.26196e-19)
(0.546703 0.162918 -4.00894e-19)
(0.575112 0.153299 -4.05037e-19)
(0.601902 0.144292 1.94e-19)
(0.627163 0.135859 -2.17512e-19)
(0.651003 0.127965 -2.69665e-20)
(0.673592 0.120549 2.14909e-19)
(0.69478 0.113563 -3.99626e-19)
(0.140847 0.220827 -1.5742e-19)
(0.190039 0.230414 -2.2685e-19)
(0.238154 0.228925 3.34418e-19)
(0.284202 0.221177 4.65106e-20)
(0.327816 0.210468 1.69043e-19)
(0.368945 0.198775 1.79199e-19)
(0.40768 0.187127 -4.26062e-20)
(0.444155 0.17597 2.53365e-19)
(0.47851 0.165449 -1.50174e-19)
(0.510878 0.155584 -1.95627e-19)
(0.541382 0.146347 3.13466e-19)
(0.570137 0.1377 3.57982e-19)
(0.597249 0.129604 -4.131e-19)
(0.622811 0.122024 5.69378e-20)
(0.646932 0.11493 -3.8128e-20)
(0.669765 0.108269 -1.34558e-19)
(0.691206 0.10199 5.36257e-20)
(0.133157 0.195787 1.73311e-19)
(0.182092 0.204218 1.25692e-19)
(0.230324 0.202843 -1.80727e-19)
(0.276692 0.195939 8.52961e-20)
(0.320717 0.186426 9.68131e-20)
(0.362285 0.176053 -3.05912e-19)
(0.401449 0.165725 1.50692e-19)
(0.438332 0.155835 1.71265e-20)
(0.47307 0.146512 1.45792e-19)
(0.505795 0.13777 -1.89954e-19)
(0.53663 0.129585 2.39471e-20)
(0.565694 0.121924 -1.50727e-20)
(0.593094 0.114751 2.09983e-20)
(0.618926 0.108035 1.28793e-19)
(0.643297 0.101751 2.31044e-20)
(0.666348 0.095853 -2.86317e-20)
(0.688017 0.0902903 3.54242e-21)
(0.126389 0.170397 -2.60237e-20)
(0.175103 0.177681 1.54487e-19)
(0.22344 0.176444 -1.96099e-19)
(0.270091 0.170409 4.91743e-20)
(0.314479 0.162116 -1.74895e-19)
(0.356432 0.153083 4.30327e-22)
(0.395974 0.144094 -2.83402e-19)
(0.433217 0.135489 -2.07362e-19)
(0.468291 0.127378 1.11545e-19)
(0.501329 0.119773 2.95267e-20)
(0.532456 0.112653 -7.88069e-20)
(0.561792 0.105989 1.06046e-19)
(0.589445 0.0997503 7.78877e-20)
(0.615514 0.0939097 1.31128e-19)
(0.640105 0.0884443 6.48078e-20)
(0.663347 0.0833173 1.49441e-19)
(0.685217 0.0784793 6.05722e-20)
(0.0742496 0.12725 2.52604e-19)
(0.120559 0.144702 -9.90994e-20)
(0.169084 0.150849 -4.56726e-20)
(0.217514 0.149769 -8.73337e-20)
(0.264411 0.144625 8.48387e-21)
(0.309112 0.137573 6.22842e-20)
(0.351396 0.129898 1.93843e-19)
(0.391265 0.122265 2.38682e-19)
(0.428816 0.114958 9.30476e-20)
(0.46418 0.108073 -2.24979e-20)
(0.497488 0.101617 -4.87741e-20)
(0.528867 0.0955736 -1.23551e-19)
(0.558436 0.0899171 1.50406e-20)
(0.586306 0.0846219 -1.46648e-20)
(0.61258 0.0796648 -1.07214e-19)
(0.637361 0.0750267 -1.10538e-20)
(0.660767 0.0706771 -2.1578e-19)
(0.68281 0.066571 4.21858e-21)
(0.0699055 0.104453 -1.0336e-19)
(0.115681 0.118748 -5.47291e-21)
(0.16405 0.123766 -1.1799e-20)
(0.212559 0.122859 5.83264e-20)
(0.259661 0.118625 -1.83773e-19)
(0.304625 0.112831 -7.23487e-20)
(0.347187 0.106531 -1.24099e-19)
(0.387328 0.100266 4.96154e-21)
(0.425138 0.0942714 4.17698e-20)
(0.460744 0.0886221 9.39911e-20)
(0.494277 0.0833261 -1.87126e-20)
(0.525866 0.0783685 8.29468e-20)
(0.555631 0.0737284 -4.08509e-20)
(0.583684 0.0693849 -1.4857e-19)
(0.610128 0.0653189 -1.57713e-20)
(0.635067 0.0615147 -3.45537e-20)
(0.658611 0.0579483 1.64718e-19)
(0.680799 0.0545803 -2.83611e-20)
(0.066417 0.0814522 -2.41837e-20)
(0.111764 0.0925808 5.34172e-20)
(0.160009 0.096477 4.18012e-20)
(0.208583 0.0957571 1.1933e-20)
(0.255851 0.0924483 1.41832e-19)
(0.301027 0.0879269 -3.84987e-20)
(0.343812 0.083013 3.4505e-20)
(0.384171 0.0781289 4.11938e-20)
(0.422189 0.0734559 2.87523e-20)
(0.457988 0.0690523 -7.84172e-20)
(0.491703 0.0649245 1.0381e-19)
(0.52346 0.0610604 7.85073e-20)
(0.553382 0.057444 -3.10415e-20)
(0.581581 0.0540588 1.26608e-19)
(0.608162 0.0508899 1.99408e-19)
(0.633228 0.0479253 -2.94416e-20)
(0.656882 0.0451466 7.47626e-20)
(0.679186 0.0425217 -3.39628e-20)
(0.0637928 0.0582935 1.64221e-20)
(0.108819 0.0662479 -8.45085e-20)
(0.156972 0.0690271 4.38028e-20)
(0.205594 0.0685053 1.29381e-19)
(0.252988 0.0661333 -1.04452e-19)
(0.298322 0.0628957 -6.0621e-21)
(0.341275 0.0593786 2.71908e-20)
(0.381799 0.0558837 6.0882e-20)
(0.419972 0.0525402 5.74752e-21)
(0.455918 0.0493896 -1.97244e-20)
(0.489769 0.0464364 -3.21617e-20)
(0.521653 0.043672 -3.41481e-20)
(0.551692 0.0410849 1.314e-20)
(0.580001 0.0386632 1.32641e-20)
(0.606685 0.0363963 -6.7124e-20)
(0.631846 0.0342756 -6.60212e-21)
(0.655583 0.0322882 -1.61471e-19)
(0.677975 0.0304104 6.76368e-20)
(0.0620397 0.0350215 -7.80251e-21)
(0.106851 0.0397963 3.58209e-20)
(0.154943 0.0414623 -2.10087e-20)
(0.203599 0.0411461 -6.63044e-20)
(0.251076 0.0397195 3.22296e-20)
(0.296517 0.0377737 -7.53694e-22)
(0.339582 0.0356606 -9.38932e-20)
(0.380215 0.0335611 5.72429e-20)
(0.418493 0.0315528 -3.87933e-20)
(0.454536 0.0296604 3.08853e-20)
(0.488477 0.0278866 -2.55196e-20)
(0.520446 0.0262262 1.34687e-20)
(0.550564 0.0246723 2.45506e-20)
(0.578946 0.0232178 -7.22696e-20)
(0.605699 0.0218563 6.85696e-21)
(0.630924 0.0205826 -3.24858e-21)
(0.654716 0.0193892 4.10064e-20)
(0.677166 0.0182614 9.25118e-22)
(0.061162 0.0116814 5.38341e-21)
(0.105867 0.0132733 6.74271e-21)
(0.153928 0.0138284 -1.34244e-20)
(0.2026 0.0137225 2.58827e-20)
(0.25012 0.0132464 -1.02522e-20)
(0.295613 0.0125972 3.20862e-20)
(0.338734 0.0118924 2.95255e-20)
(0.379423 0.0111921 -3.69362e-20)
(0.417752 0.0105223 -1.36633e-20)
(0.453844 0.00989116 1.87063e-20)
(0.487831 0.00929957 -1.31546e-20)
(0.519842 0.00874582 -1.69013e-20)
(0.55 0.00822759 1.51417e-21)
(0.578418 0.00774252 1.75415e-20)
(0.605205 0.00728846 3.43339e-20)
(0.630462 0.0068637 2.56783e-21)
(0.654282 0.00646572 3.83362e-21)
(0.676762 0.00608959 1.69355e-20)
(0.061162 -0.0116814 4.28523e-21)
(0.105867 -0.0132734 7.98696e-21)
(0.153928 -0.0138285 -6.76103e-21)
(0.2026 -0.0137226 2.44744e-20)
(0.25012 -0.0132465 -1.36059e-20)
(0.295613 -0.0125974 3.54092e-20)
(0.338734 -0.0118926 2.17596e-20)
(0.379423 -0.0111924 -2.92644e-20)
(0.417752 -0.0105225 -1.07432e-20)
(0.453844 -0.00989138 1.33754e-20)
(0.487831 -0.00929979 -1.11426e-20)
(0.519842 -0.00874603 -2.17347e-20)
(0.55 -0.00822778 5.78936e-21)
(0.578418 -0.0077427 1.56006e-20)
(0.605205 -0.00728862 3.52425e-20)
(0.630462 -0.00686385 3.02532e-21)
(0.654282 -0.00646586 2.67352e-21)
(0.676762 -0.00608972 1.8042e-20)
(0.0620397 -0.0350216 2.91013e-20)
(0.106851 -0.0397964 2.23923e-20)
(0.154943 -0.0414624 -1.81771e-20)
(0.203599 -0.0411462 -1.08413e-19)
(0.251076 -0.0397197 6.58207e-20)
(0.296517 -0.0377739 -1.0909e-20)
(0.339582 -0.0356609 -5.13564e-20)
(0.380215 -0.0335614 1.79147e-23)
(0.418493 -0.031553 -2.84379e-20)
(0.454536 -0.0296606 3.72121e-20)
(0.488477 -0.0278868 -3.73844e-20)
(0.520446 -0.0262264 3.1604e-20)
(0.550564 -0.0246725 1.19206e-20)
(0.578946 -0.023218 -5.73618e-20)
(0.605699 -0.0218564 1.72312e-20)
(0.630924 -0.0205828 -2.82953e-21)
(0.654716 -0.0193893 3.02645e-20)
(0.677166 -0.0182615 3.11129e-21)
(0.0637928 -0.0582936 -4.39934e-20)
(0.108819 -0.066248 -6.87063e-20)
(0.156972 -0.0690273 7.90749e-20)
(0.205594 -0.0685054 1.2119e-19)
(0.252988 -0.0661335 -1.08508e-19)
(0.298322 -0.0628959 2.86497e-20)
(0.341275 -0.0593789 1.39405e-20)
(0.381799 -0.0558839 6.975e-20)
(0.419972 -0.0525404 -1.88518e-20)
(0.455918 -0.0493899 -6.5086e-20)
(0.489769 -0.0464366 1.33645e-20)
(0.521653 -0.0436722 -5.00992e-20)
(0.551692 -0.041085 3.99466e-20)
(0.580001 -0.0386633 1.13532e-20)
(0.606685 -0.0363964 -8.91994e-20)
(0.631846 -0.0342757 5.3146e-21)
(0.655583 -0.0322884 -1.30125e-19)
(0.677975 -0.0304106 2.9251e-20)
(0.066417 -0.0814523 2.22129e-20)
(0.111764 -0.0925809 3.01057e-20)
(0.160009 -0.0964772 -5.55096e-20)
(0.208583 -0.0957573 1.03683e-20)
(0.255851 -0.0924485 1.80648e-19)
(0.301027 -0.0879271 1.84306e-20)
(0.343812 -0.0830133 3.74175e-20)
(0.384171 -0.0781291 5.11558e-21)
(0.422189 -0.0734561 6.27529e-20)
(0.457988 -0.0690526 -6.96692e-20)
(0.491703 -0.0649247 9.87139e-20)
(0.52346 -0.0610606 2.92555e-21)
(0.553382 -0.0574442 -2.4877e-20)
(0.581581 -0.054059 1.90263e-19)
(0.608162 -0.0508901 1.47914e-19)
(0.633228 -0.0479255 -7.66207e-20)
(0.656882 -0.0451468 1.01416e-19)
(0.679186 -0.0425219 -2.24391e-21)
(0.0699055 -0.104453 -1.56197e-19)
(0.115681 -0.118748 6.86936e-21)
(0.16405 -0.123766 -2.8134e-20)
(0.212559 -0.122859 -4.56926e-21)
(0.259661 -0.118626 -9.16426e-20)
(0.304625 -0.112831 -1.06173e-19)
(0.347188 -0.106531 -4.43162e-20)
(0.387328 -0.100266 -1.52519e-19)
(0.425138 -0.0942716 1.7068e-19)
(0.460744 -0.0886223 3.50453e-20)
(0.494277 -0.0833263 -7.08875e-20)
(0.525866 -0.0783687 1.20844e-19)
(0.555631 -0.0737286 -5.24533e-20)
(0.583684 -0.0693851 -1.1911e-19)
(0.610128 -0.0653191 -2.80993e-20)
(0.635067 -0.0615149 -3.73854e-20)
(0.658611 -0.0579484 6.00944e-20)
(0.680799 -0.0545804 -4.23104e-21)
(0.0742496 -0.12725 9.89006e-21)
(0.120559 -0.144702 -2.42521e-20)
(0.169084 -0.15085 -6.82903e-20)
(0.217514 -0.149769 -3.16915e-20)
(0.264411 -0.144625 -5.66988e-20)
(0.309112 -0.137573 3.9945e-20)
(0.351396 -0.129898 2.3666e-19)
(0.391265 -0.122265 2.05695e-19)
(0.428816 -0.114959 1.29186e-19)
(0.46418 -0.108073 -4.81738e-20)
(0.497488 -0.101617 2.68333e-20)
(0.528867 -0.0955738 -1.97621e-19)
(0.558436 -0.0899173 6.85559e-20)
(0.586307 -0.0846221 -5.42988e-20)
(0.61258 -0.079665 -7.67371e-20)
(0.637361 -0.0750269 4.07835e-20)
(0.660767 -0.0706773 -3.46705e-19)
(0.68281 -0.0665712 1.24948e-19)
(0.126389 -0.170397 4.94292e-20)
(0.175103 -0.177682 -2.1555e-20)
(0.22344 -0.176444 -3.27335e-20)
(0.270091 -0.17041 -1.07865e-19)
(0.314479 -0.162117 -2.26995e-20)
(0.356432 -0.153083 -1.00483e-20)
(0.395974 -0.144094 -3.68413e-19)
(0.433217 -0.135489 -2.68711e-19)
(0.468291 -0.127378 1.56828e-19)
(0.501329 -0.119773 2.29141e-20)
(0.532457 -0.112653 5.88077e-20)
(0.561792 -0.105989 -5.62478e-20)
(0.589445 -0.0997504 2.86361e-19)
(0.615514 -0.0939098 5.58146e-20)
(0.640106 -0.0884445 8.32134e-20)
(0.663347 -0.0833174 1.94957e-19)
(0.685217 -0.0784794 -1.0409e-19)
(0.133157 -0.195787 6.38548e-20)
(0.182092 -0.204218 5.71739e-20)
(0.230324 -0.202843 -8.75069e-20)
(0.276692 -0.19594 1.51074e-19)
(0.320718 -0.186426 2.14843e-20)
(0.362285 -0.176053 -2.73555e-19)
(0.401449 -0.165725 1.72018e-19)
(0.438332 -0.155835 6.85899e-20)
(0.47307 -0.146512 -7.96189e-20)
(0.505795 -0.13777 2.14296e-20)
(0.536631 -0.129585 9.91043e-21)
(0.565694 -0.121924 -8.11358e-20)
(0.593094 -0.114751 2.05831e-19)
(0.618926 -0.108036 -7.24965e-20)
(0.643297 -0.101751 5.22032e-20)
(0.666348 -0.0958532 1.1093e-19)
(0.688017 -0.0902905 -4.11784e-20)
(0.140847 -0.220827 -8.72579e-20)
(0.190039 -0.230415 -3.14289e-19)
(0.238154 -0.228925 2.1164e-19)
(0.284202 -0.221177 1.01522e-19)
(0.327816 -0.210468 1.74045e-19)
(0.368946 -0.198776 1.87465e-19)
(0.40768 -0.187128 1.18878e-19)
(0.444155 -0.17597 1.5647e-19)
(0.47851 -0.16545 -2.8158e-19)
(0.510878 -0.155584 3.13942e-20)
(0.541382 -0.146348 6.10973e-20)
(0.570137 -0.137701 3.14638e-19)
(0.597249 -0.129604 -1.70975e-19)
(0.622811 -0.122024 -4.30872e-20)
(0.646932 -0.11493 -9.86062e-20)
(0.669765 -0.108269 -6.40977e-20)
(0.691206 -0.10199 1.66497e-19)
(0.149442 -0.245471 2.31945e-21)
(0.198925 -0.256228 -3.47928e-20)
(0.246915 -0.254649 1.36858e-19)
(0.292607 -0.246086 -2.95414e-19)
(0.335762 -0.234207 -1.68598e-20)
(0.376403 -0.22122 -2.62594e-19)
(0.414657 -0.208272 1.48358e-19)
(0.450675 -0.195865 -2.38093e-19)
(0.484602 -0.184165 2.28963e-19)
(0.516571 -0.173193 2.03397e-19)
(0.546703 -0.162918 -1.65729e-19)
(0.575112 -0.153299 -5.72782e-19)
(0.601902 -0.144292 3.0523e-19)
(0.627163 -0.135859 -2.45102e-19)
(0.651003 -0.127965 -5.33447e-20)
(0.673592 -0.120549 1.97529e-19)
(0.69478 -0.113563 -1.61425e-19)
(0.158921 -0.269676 -1.31441e-19)
(0.208733 -0.281615 1.65857e-19)
(0.256589 -0.279975 -3.15455e-19)
(0.301893 -0.270628 5.83338e-20)
(0.344543 -0.25761 -6.34194e-21)
(0.384645 -0.243354 3.60984e-19)
(0.422368 -0.22913 -2.24135e-19)
(0.457882 -0.215496 -4.73189e-20)
(0.491336 -0.202635 6.17361e-20)
(0.522864 -0.190573 -7.78111e-20)
(0.552586 -0.179277 3.01108e-19)
(0.580613 -0.1687 1.66506e-19)
(0.607048 -0.158796 -3.33762e-19)
(0.631975 -0.149522 1.80434e-19)
(0.655504 -0.14084 2.47565e-19)
(0.677824 -0.13268 -4.51809e-19)
(0.698732 -0.124996 1.70801e-21)
(0.169263 -0.293399 1.29932e-19)
(0.219442 -0.306535 1.79645e-19)
(0.267158 -0.304863 1.02829e-19)
(0.312041 -0.294767 4.17496e-19)
(0.354143 -0.280642 -5.2938e-20)
(0.393658 -0.265147 1.69899e-19)
(0.430801 -0.249674 -5.92707e-19)
(0.465764 -0.234834 3.37585e-19)
(0.498701 -0.220834 -2.07993e-19)
(0.529748 -0.207701 6.07703e-20)
(0.559022 -0.195401 -3.26036e-19)
(0.586632 -0.183884 -2.57949e-20)
(0.612677 -0.173098 2.61829e-19)
(0.63724 -0.162997 4.36151e-20)
(0.66043 -0.15354 -1.28544e-20)
(0.682455 -0.144645 2.16883e-20)
(0.703059 -0.136275 -2.86991e-19)
(0.180444 -0.316597 -1.80737e-19)
(0.231029 -0.330945 1.47771e-20)
(0.278601 -0.329276 1.61311e-19)
(0.323035 -0.318469 -3.63012e-19)
(0.364545 -0.303273 3.81027e-20)
(0.403425 -0.28657 -4.25178e-19)
(0.439942 -0.269875 4.69907e-19)
(0.474308 -0.253856 -1.23136e-19)
(0.506686 -0.238739 -1.39014e-19)
(0.537212 -0.224556 3.9742e-21)
(0.566 -0.211272 1.54411e-21)
(0.593157 -0.198832 2.44929e-19)
(0.618782 -0.18718 -3.59749e-20)
(0.64295 -0.176268 -3.09611e-19)
(0.665773 -0.166049 -3.82525e-19)
(0.687478 -0.156431 4.44688e-19)
(0.707754 -0.147386 2.79756e-19)
(0.192437 -0.33923 2.09618e-19)
(0.24347 -0.354805 -3.23491e-19)
(0.290897 -0.353175 -3.06711e-19)
(0.334853 -0.341698 1.22681e-19)
(0.375731 -0.325469 -5.11236e-19)
(0.413931 -0.307594 5.12561e-19)
(0.449776 -0.289707 -2.23169e-19)
(0.483501 -0.272535 -2.24973e-19)
(0.515278 -0.256326 2.01309e-20)
(0.545243 -0.241117 -4.47054e-22)
(0.573509 -0.226869 -2.8182e-20)
(0.600181 -0.213524 1.88322e-19)
(0.625353 -0.201024 -1.78308e-19)
(0.649097 -0.189317 9.1919e-20)
(0.671525 -0.178352 1.98604e-19)
(0.692885 -0.168023 -2.48272e-19)
(0.71281 -0.158317 -5.08504e-20)
(0.205215 -0.361257 -3.01335e-20)
(0.256739 -0.378077 2.28206e-19)
(0.30402 -0.376524 2.04619e-19)
(0.347475 -0.36442 -3.21101e-19)
(0.387683 -0.3472 1.73414e-19)
(0.425159 -0.328189 -1.33121e-19)
(0.460286 -0.309143 -8.87982e-21)
(0.493327 -0.290848 3.35485e-20)
(0.524463 -0.273574 -7.98362e-20)
(0.553829 -0.257361 1.58753e-19)
(0.581538 -0.242172 -8.64988e-20)
(0.607691 -0.227944 -2.55501e-19)
(0.63238 -0.214615 3.62999e-19)
(0.655671 -0.20213 2.2479e-19)
(0.677678 -0.190434 -2.87545e-19)
(0.69867 -0.179408 1.66679e-19)
(0.718221 -0.169053 2.41788e-19)
(0.270806 -0.400723 4.38833e-20)
(0.317946 -0.399287 1.61967e-19)
(0.360876 -0.386602 3.2157e-19)
(0.400378 -0.368436 2.42009e-19)
(0.437089 -0.348328 4.65274e-19)
(0.471456 -0.328159 -4.2175e-20)