/*--------------------------------*- C++ -*----------------------------------*\
  =========                 |
  \\      /  F ield         | OpenFOAM: The Open Source CFD Toolbox
   \\    /   O peration     | Website:  https://openfoam.org
    \\  /    A nd           | Version:  7
     \\/     M anipulation  |
\*---------------------------------------------------------------------------*/
FoamFile
{
    version     2.0;
    format      ascii;
    class       surfaceScalarField;
    location    "35";
    object      phi;
}
// * * * * * * * * * * * * * * * * * * * * * * * * * * * * * * * * * * * * * //

dimensions      [0 3 -1 0 0 0 0];

internalField   nonuniform List<scalar> 
16712
(
-8.90584e-07
8.69556e-07
2.10277e-08
-3.35234e-06
2.40304e-06
5.87199e-08
-7.25243e-06
3.80631e-06
9.37808e-08
-1.2459e-05
5.08044e-06
1.26163e-07
-1.88428e-05
6.2279e-06
1.55909e-07
-2.6279e-05
7.25303e-06
1.83161e-07
-3.46492e-05
8.16201e-06
2.08159e-07
-4.38436e-05
8.9631e-06
2.31235e-07
-5.37632e-05
9.66688e-06
2.52802e-07
-6.43229e-05
1.02864e-05
2.73335e-07
-7.54535e-05
1.08372e-05
2.93344e-07
-8.71048e-05
1.1338e-05
3.13345e-07
-9.92485e-05
1.18098e-05
3.33839e-07
-0.00011188
1.22765e-05
3.5529e-07
-0.000125022
1.27639e-05
3.78107e-07
-0.000138724
1.3299e-05
4.02637e-07
-0.000153061
1.39079e-05
4.2916e-07
-0.000168133
1.46143e-05
4.57887e-07
-0.000184055
1.54334e-05
4.88949e-07
1.63829e-05
5.22383e-07
-0.000200961
-8.88008e-07
1.75756e-06
-3.34287e-06
4.8579e-06
-7.23214e-06
7.69558e-06
-1.24242e-05
1.02725e-05
-1.87899e-05
1.25936e-05
-2.62043e-05
1.46674e-05
-3.45488e-05
1.65065e-05
-4.37132e-05
1.81275e-05
-5.35981e-05
1.95518e-05
-6.41177e-05
2.08059e-05
-7.52018e-05
2.19214e-05
-8.67993e-05
2.29355e-05
-9.88808e-05
2.38912e-05
-0.000111441
2.48366e-05
-0.000124501
2.58237e-05
-0.000138109
2.69069e-05
-0.00015234
2.81394e-05
-0.000167295
2.95689e-05
-0.000183088
3.12263e-05
3.31471e-05
-0.000199852
-8.82807e-07
2.64037e-06
-3.32375e-06
7.29885e-06
-7.19117e-06
1.1563e-05
-1.23539e-05
1.54353e-05
-1.8683e-05
1.89227e-05
-2.60534e-05
2.20378e-05
-3.43461e-05
2.47992e-05
-4.34502e-05
2.72316e-05
-5.32653e-05
2.9367e-05
-6.37041e-05
3.12446e-05
-7.46947e-05
3.2912e-05
-8.61842e-05
3.4425e-05
-9.81407e-05
3.58477e-05
-0.000110557
3.72526e-05
-0.000123451
3.87182e-05
-0.000136871
4.03267e-05
-0.00015089
4.21588e-05
-0.000165609
4.42871e-05
-0.000181141
4.67591e-05
4.96281e-05
-0.000197622
-8.75039e-07
3.51541e-06
-3.29517e-06
9.71898e-06
-7.12991e-06
1.53977e-05
-1.22488e-05
2.05542e-05
-1.85232e-05
2.5197e-05
-2.58277e-05
2.93424e-05
-3.40429e-05
3.30143e-05
-4.30567e-05
3.62454e-05
-5.27672e-05
3.90774e-05
-6.30849e-05
4.15624e-05
-7.39356e-05
4.37628e-05
-8.52632e-05
4.57525e-05
-9.70325e-05
4.7617e-05
-0.000109232
4.94526e-05
-0.000121879
5.13647e-05
-0.000135016
5.34638e-05
-0.000148717
5.58593e-05
-0.00016308
5.86501e-05
-0.000178221
6.1901e-05
6.56835e-05
-0.000194277
-8.64795e-07
4.3802e-06
-3.25745e-06
1.21116e-05
-7.04899e-06
1.91893e-05
-1.21099e-05
2.56151e-05
-1.83117e-05
3.13988e-05
-2.5529e-05
3.65597e-05
-3.36414e-05
4.11267e-05
-4.25355e-05
4.51394e-05
-5.21072e-05
4.86491e-05
-6.22643e-05
5.17195e-05
-7.29293e-05
5.44277e-05
-8.40418e-05
5.6865e-05
-9.55622e-05
5.91375e-05
-0.000107475
6.13653e-05
-0.000119791
6.3681e-05
-0.000132552
6.62242e-05
-0.000145827
6.91345e-05
-0.000159715
7.25387e-05
-0.000174335
7.65209e-05
8.11714e-05
-0.000189823
-8.52191e-07
5.2324e-06
-3.21097e-06
1.44704e-05
-6.94917e-06
2.29275e-05
-1.19384e-05
3.06043e-05
-1.80505e-05
3.75109e-05
-2.51597e-05
4.3669e-05
-3.31447e-05
4.91117e-05
-4.18903e-05
5.3885e-05
-5.12898e-05
5.80487e-05
-6.12477e-05
6.16774e-05
-7.16819e-05
6.4862e-05
-8.25272e-05
6.77103e-05
-9.37381e-05
7.03484e-05
-0.000105293
7.29203e-05
-0.000117198
7.55856e-05
-0.000129488
7.85143e-05
-0.000142231
8.18778e-05
-0.000155526
8.58337e-05
-0.000169493
9.04877e-05
9.59497e-05
-0.000184271
-8.37368e-07
6.06976e-06
-3.15621e-06
1.67892e-05
-6.83142e-06
2.66027e-05
-1.17358e-05
3.55087e-05
-1.77416e-05
4.35167e-05
-2.47227e-05
5.06501e-05
-3.25565e-05
5.69454e-05
-4.11256e-05
6.24541e-05
-5.03205e-05
6.72435e-05
-6.00413e-05
7.13983e-05
-7.0201e-05
7.50217e-05
-8.0728e-05
7.82373e-05
-9.157e-05
8.11904e-05
-0.000102698
8.40481e-05
-0.00011411
8.69977e-05
-0.000125836
9.02407e-05
-0.000137941
9.39827e-05
-0.000150523
9.84153e-05
-0.000163704
0.000103669
0.000109876
-0.000177631
-8.20489e-07
6.89025e-06
-3.09372e-06
1.90625e-05
-6.69684e-06
3.02058e-05
-1.15039e-05
4.03158e-05
-1.73876e-05
4.94004e-05
-2.42213e-05
5.74838e-05
-3.18809e-05
6.4605e-05
-4.02467e-05
7.08199e-05
-4.92055e-05
7.62023e-05
-5.86527e-05
8.08455e-05
-6.84953e-05
8.48642e-05
-7.86543e-05
8.83963e-05
-8.9069e-05
9.16051e-05
-9.97014e-05
9.46805e-05
-0.000110541
9.78375e-05
-0.000121611
0.000101311
-0.000132971
0.000105343
-0.000144719
0.000110163
-0.000156982
0.000115932
0.000122808
-0.000169914
-8.01736e-07
7.69199e-06
-3.02411e-06
2.12848e-05
-6.54663e-06
3.37283e-05
-1.12447e-05
4.50138e-05
-1.69913e-05
5.51471e-05
-2.36592e-05
6.41518e-05
-3.11227e-05
7.20685e-05
-3.92592e-05
7.89564e-05
-4.79516e-05
8.48947e-05
-5.709e-05
8.99839e-05
-6.65742e-05
9.43484e-05
-7.63169e-05
9.8139e-05
-8.62477e-05
0.000101536
-9.6318e-05
0.000104751
-0.000106507
0.000108026
-0.000116828
0.000111632
-0.000127336
0.000115851
-0.000138129
0.000120955
-0.000149339
0.000127143
0.000134599
-0.000161131
-7.81306e-07
8.47329e-06
-2.94805e-06
2.34516e-05
-6.38213e-06
3.71624e-05
-1.09602e-05
4.95919e-05
-1.65556e-05
6.07425e-05
-2.30404e-05
7.06365e-05
-3.02868e-05
7.93149e-05
-3.81693e-05
8.6839e-05
-4.65663e-05
9.32916e-05
-5.53617e-05
9.87794e-05
-6.44478e-05
0.000103434
-7.37276e-05
0.000107419
-8.31195e-05
0.000110928
-9.25623e-05
0.000114194
-0.000102023
0.000117487
-0.000111504
0.000121113
-0.000121053
0.000125399
-0.000130767
0.000130669
-0.000140787
0.000137163
0.000145104
-0.000151292
-7.59406e-07
9.2327e-06
-2.86623e-06
2.55584e-05
-6.20472e-06
4.05009e-05
-1.06527e-05
5.40399e-05
-1.60838e-05
6.61735e-05
-2.23689e-05
7.69216e-05
-2.93783e-05
8.63243e-05
-3.69832e-05
9.44438e-05
-4.50569e-05
0.000101365
-5.34768e-05
0.000107199
-6.21265e-05
0.000112084
-7.08984e-05
0.000116191
-7.96979e-05
0.000119727
-8.84498e-05
0.000122945
-9.71058e-05
0.000126143
-0.000105656
0.000129663
-0.000114137
0.000133881
-0.000122647
0.000139179
-0.000131337
0.000145852
0.000154171
-0.000140404
-7.36251e-07
9.96895e-06
-2.77938e-06
2.76015e-05
-6.01582e-06
4.37373e-05
-1.03245e-05
5.83486e-05
-1.55789e-05
7.14279e-05
-2.16489e-05
8.29916e-05
-2.84025e-05
9.30779e-05
-3.57071e-05
0.000101748
-4.34309e-05
0.000109089
-5.14441e-05
0.000115212
-5.96206e-05
0.000120261
-6.78411e-05
0.000124411
-7.59967e-05
0.000127883
-8.39956e-05
0.000130944
-9.17724e-05
0.00013392
-9.93006e-05
0.000137191
-0.000106607
0.000141187
-0.000113785
0.000146358
-0.000120998
0.000153065
0.000161643
-0.00012847
-7.12059e-07
1.0681e-05
-2.68821e-06
2.95777e-05
-5.81686e-06
4.6866e-05
-9.97776e-06
6.25095e-05
-1.50441e-05
7.64943e-05
-2.08846e-05
8.88321e-05
-2.73645e-05
9.95578e-05
-3.43473e-05
0.000108731
-4.16955e-05
0.000116437
-4.92717e-05
0.000122789
-5.69397e-05
0.000127929
-6.4567e-05
0.000132038
-7.20287e-05
0.000135345
-7.92145e-05
0.00013813
-8.60386e-05
0.000140744
-9.2455e-05
0.000143608
-9.84758e-05
0.000147208
-0.000104192
0.000152073
-0.000109778
0.000158652
0.000167355
-0.00011549
-6.87044e-07
1.13681e-05
-2.59346e-06
3.14841e-05
-5.60925e-06
4.98818e-05
-9.61471e-06
6.65149e-05
-1.44825e-05
8.13621e-05
-2.00797e-05
9.44292e-05
-2.62689e-05
0.000105747
-3.29093e-05
0.000115372
-3.98573e-05
0.000123385
-4.69674e-05
0.000129899
-5.40924e-05
0.000135054
-6.10859e-05
0.000139032
-6.78053e-05
0.000142064
-7.41192e-05
0.000144444
-7.99185e-05
0.000146543
-8.51338e-05
0.000148823
-8.97585e-05
0.000151833
-9.38767e-05
0.000156192
-9.76788e-05
0.000162454
0.000171131
-0.000101455
-6.61417e-07
1.20295e-05
-2.4958e-06
3.33185e-05
-5.39435e-06
5.27803e-05
-9.23747e-06
7.03581e-05
-1.3897e-05
8.60217e-05
-1.92381e-05
9.97703e-05
-2.51202e-05
0.000111629
-3.1398e-05
0.000121649
-3.79219e-05
0.000129909
-4.45373e-05
0.000136514
-5.10858e-05
0.000141602
-5.74058e-05
0.000145352
-6.33355e-05
0.000147994
-6.87201e-05
0.000149829
-7.34236e-05
0.000151247
-7.73486e-05
0.000152748
-8.04649e-05
0.000154949
-8.28464e-05
0.000158573
-8.4698e-05
0.000164306
0.000172783
-8.635e-05
-6.35377e-07
1.26648e-05
-2.3959e-06
3.5079e-05
-5.1734e-06
5.55578e-05
-8.84796e-06
7.40326e-05
-1.32901e-05
9.04639e-05
-1.83628e-05
0.000104843
-2.3922e-05
0.000117188
-2.98177e-05
0.000127545
-3.58935e-05
0.000135985
-4.19861e-05
0.000142607
-4.79248e-05
0.000147541
-5.35319e-05
0.000150959
-5.86252e-05
0.000153087
-6.30238e-05
0.000154227
-6.65611e-05
0.000154784
-6.91068e-05
0.000155294
-7.06008e-05
0.000156443
-7.11012e-05
0.000159073
-7.0827e-05
0.000164031
0.000172107
-7.01505e-05
-6.09112e-07
1.3274e-05
-2.29436e-06
3.67643e-05
-4.94758e-06
5.82111e-05
-8.44791e-06
7.7533e-05
-1.26642e-05
9.46801e-05
-1.74565e-05
0.000109635
-2.26772e-05
0.000122409
-2.81712e-05
0.000133039
-3.37751e-05
0.000141589
-3.93163e-05
0.000148148
-4.46114e-05
0.000152836
-4.94662e-05
0.000155814
-5.3676e-05
0.000157297
-5.70319e-05
0.000157583
-5.93328e-05
0.000157085
-6.04096e-05
0.000156371
-6.01653e-05
0.000156199
-5.86352e-05
0.000157543
-5.60497e-05
0.000161446
0.000168881
-5.28246e-05
-5.82792e-07
1.38568e-05
-2.19173e-06
3.83732e-05
-4.71788e-06
6.07372e-05
-8.03879e-06
8.08539e-05
-1.20209e-05
9.86622e-05
-1.65212e-05
0.000114135
-2.13878e-05
0.000127276
-2.64602e-05
0.000138112
-3.15676e-05
0.000146696
-3.65278e-05
0.000153108
-4.11445e-05
0.000157453
-4.52059e-05
0.000159875
-4.8484e-05
0.000160575
-5.07395e-05
0.000159838
-5.17327e-05
0.000158078
-5.125e-05
0.000155888
-4.91487e-05
0.000154098
-4.54326e-05
0.000153827
-4.03416e-05
0.000156355
0.000162875
-3.43349e-05
-5.56568e-07
1.44133e-05
-2.08847e-06
3.99051e-05
-4.48515e-06
6.31339e-05
-7.62178e-06
8.39905e-05
-1.13618e-05
0.000102402
-1.55582e-05
0.000118332
-2.00547e-05
0.000131772
-2.46846e-05
0.000142741
-2.92697e-05
0.000151281
-3.36176e-05
0.000157456
-3.75188e-05
0.000161354
-4.07433e-05
0.0001631
-4.30389e-05
0.000162871
-4.41336e-05
0.000160933
-4.37458e-05
0.00015769
-4.16103e-05
0.000153752
-3.75291e-05
0.000150016
-3.14614e-05
0.00014776
-2.36648e-05
0.000148558
0.000153902
-1.46916e-05
-5.3057e-07
1.49439e-05
-1.98499e-06
4.13595e-05
-4.25007e-06
6.5399e-05
-7.19772e-06
8.69382e-05
-1.06875e-05
0.000105892
-1.4568e-05
0.000122213
-1.86775e-05
0.000135882
-2.28429e-05
0.000146907
-2.68778e-05
0.000155316
-3.05794e-05
0.000161158
-3.37246e-05
0.000164499
-3.60647e-05
0.00016544
-3.73226e-05
0.000164129
-3.7192e-05
0.000160802
-3.53455e-05
0.000155844
-3.146e-05
0.000149867
-2.52714e-05
0.000143828
-1.66693e-05
0.000139157
-5.84452e-06
0.000137734
0.000141949
6.10788e-06
-5.04905e-07
1.54488e-05
-1.88157e-06
4.27362e-05
-4.0131e-06
6.75305e-05
-6.76712e-06
8.96922e-05
-9.99839e-06
0.000109123
-1.35502e-05
0.000125764
-1.72546e-05
0.000139586
-2.09314e-05
0.000150584
-2.43855e-05
0.00015877
-2.74032e-05
0.000164175
-2.9747e-05
0.000166843
-3.11497e-05
0.000166842
-3.13083e-05
0.000164287
-2.98809e-05
0.000159375
-2.64917e-05
0.000152455
-2.07532e-05
0.000144128
-1.23237e-05
0.000135398
-1.02839e-06
0.000127862
1.29834e-05
0.000123722
0.000126049
2.88835e-05
-4.79658e-07
1.59285e-05
-1.77844e-06
4.4035e-05
-3.77451e-06
6.95266e-05
-6.33008e-06
9.22478e-05
-9.29406e-06
0.000112087
-1.25034e-05
0.000128974
-1.5783e-05
0.000142866
-1.89446e-05
0.000153745
-2.17837e-05
0.00016161
-2.40749e-05
0.000166467
-2.55661e-05
0.000168334
-2.59706e-05
0.000167247
-2.49594e-05
0.000163276
-2.21543e-05
0.00015657
-1.71288e-05
0.000147429
-9.42574e-06
0.000136425
1.38779e-06
0.000124585
1.55886e-05
0.000113661
3.3045e-05
0.000106265
0.000106131
5.2963e-05
-4.54886e-07
1.63833e-05
-1.67572e-06
4.52558e-05
-3.53436e-06
7.13852e-05
-5.88635e-06
9.45997e-05
-8.5735e-06
0.000114774
-1.14252e-05
0.000131825
-1.42582e-05
0.000145699
-1.68751e-05
0.000156362
-1.90606e-05
0.000163795
-2.05768e-05
0.000167983
-2.11561e-05
0.000168914
-2.0492e-05
0.000166583
-1.8229e-05
0.000161013
-1.39525e-05
0.000152293
-7.184e-06
0.000140661
2.60765e-06
0.000126634
1.59559e-05
0.000111236
3.32561e-05
9.63612e-05
5.44704e-05
8.50512e-05
8.18405e-05
7.87609e-05
-4.30624e-07
1.6814e-05
-1.57341e-06
4.63986e-05
-3.29248e-06
7.31043e-05
-5.43525e-06
9.67425e-05
-7.83509e-06
0.000117174
-1.03125e-05
0.000134303
-1.26745e-05
0.000148061
-1.47132e-05
0.000158401
-1.62013e-05
0.000165283
-1.68869e-05
0.000168669
-1.64858e-05
0.000168512
-1.46708e-05
0.000164768
-1.10596e-05
0.000157402
-5.20138e-06
0.000146435
3.43447e-06
0.000132025
1.54549e-05
0.000114613
3.15027e-05
9.51887e-05
5.21141e-05
7.57498e-05
7.73773e-05
5.9788e-05
5.27699e-05
0.000106448
-4.06881e-07
1.72208e-05
-1.47144e-06
4.74632e-05
-3.04846e-06
7.46813e-05
-4.9757e-06
9.86697e-05
-7.07651e-06
0.000119275
-9.16086e-06
0.000136387
-1.10247e-05
0.000149925
-1.24474e-05
0.000159824
-1.31882e-05
0.000166024
-1.29795e-05
0.00016846
-1.15185e-05
0.000167051
-8.45622e-06
0.000161706
-3.38322e-06
0.000152329
4.18761e-06
0.000138864
1.48376e-05
0.000121375
2.92494e-05
0.000100201
4.81797e-05
7.62585e-05
7.23245e-05
5.16049e-05
0.000101936
3.0176e-05
1.84863e-05
0.00013622
-3.83639e-07
1.76045e-05
-1.36963e-06
4.84491e-05
-2.80169e-06
7.61134e-05
-4.50622e-06
0.000100374
-6.29485e-06
0.000121064
-7.96521e-06
0.000138057
-9.30002e-06
0.000151259
-1.00644e-05
0.000160588
-1.00013e-05
0.000165961
-8.82503e-06
0.000167284
-6.21242e-06
0.000164439
-1.79066e-06
0.000157284
4.87817e-06
0.00014566
1.43169e-05
0.000129426
2.71556e-05
0.000108536
4.41495e-05
8.32074e-05
6.61692e-05
5.42388e-05
9.40847e-05
2.36894e-05
0.000128352
-4.09163e-06
-2.14613e-05
0.0001683
-3.60853e-07
1.79653e-05
-1.26767e-06
4.9356e-05
-2.5513e-06
7.7397e-05
-4.02491e-06
0.000101848
-5.4865e-06
0.000122525
-6.71934e-06
0.00013929
-7.49071e-06
0.000152031
-7.5488e-06
0.000160646
-6.61779e-06
0.00016503
-4.391e-06
0.000165057
-5.21577e-07
0.000160569
5.38975e-06
0.000151372
1.38111e-05
0.000137239
2.53009e-05
0.000117936
4.05356e-05
9.33016e-05
6.03372e-05
6.34058e-05
8.56846e-05
2.88914e-05
0.000117628
-8.25368e-06
0.000156862
-4.3326e-05
-6.75273e-05
0.000202928
-3.38452e-07
1.83038e-05
-1.16518e-06
5.01827e-05
-2.29617e-06
7.8528e-05
-3.52942e-06
0.000103081
-4.64719e-06
0.000123643
-5.41613e-06
0.000140059
-5.58553e-06
0.0001522
-4.88379e-06
0.000159944
-3.01302e-06
0.000163159
3.58122e-07
0.000161686
5.60389e-06
0.000155324
1.31537e-05
0.000143823
2.35087e-05
0.000126884
3.7264e-05
0.000104181
5.5139e-05
7.54265e-05
7.80148e-05
4.05299e-05
0.000106967
-6.0529e-08
0.000143219
-4.45063e-05
0.000187734
-8.78405e-05
-0.000120151
0.000240357
-3.16333e-07
1.86201e-05
-1.06162e-06
5.0928e-05
-2.03493e-06
7.95013e-05
-3.01697e-06
0.000104063
-3.77199e-06
0.000124398
-4.04752e-06
0.000140335
-3.57205e-06
0.000151725
-2.05087e-06
0.000158423
8.39763e-07
0.000160268
5.46014e-06
0.000157065
1.22166e-05
0.000148567
2.15735e-05
0.000134466
3.40689e-05
0.000114388
5.03363e-05
8.79131e-05
7.11363e-05
5.46266e-05
9.7399e-05
1.42672e-05
0.000130278
-3.29393e-05
0.000171153
-8.53814e-05
0.000221262
-0.00013795
-0.000179733
0.000280844
-2.94359e-07
1.89145e-05
-9.56344e-07
5.159e-05
-1.76594e-06
8.03109e-05
-2.48428e-06
0.000104782
-2.85524e-06
0.000124769
-2.60449e-06
0.000140084
-1.43658e-06
0.000150557
9.69971e-07
0.000156016
4.96902e-06
0.000156269
1.09548e-05
0.000151079
1.93711e-05
0.000140151
3.07231e-05
0.000123114
4.55911e-05
9.95202e-05
6.46505e-05
6.88537e-05
8.87011e-05
3.05761e-05
0.000118712
-1.57439e-05
0.000155891
-7.0118e-05
0.000201738
-0.000131229
0.000257759
-0.00019397
-0.000246611
0.000324638
-2.72354e-07
1.91868e-05
-8.48556e-07
5.21662e-05
-1.48722e-06
8.09496e-05
-1.92759e-06
0.000105222
-1.89053e-06
0.000124732
-1.077e-06
0.00013927
8.35836e-07
0.000148644
4.20019e-06
0.000152652
9.40479e-06
0.000151065
1.68832e-05
0.000143601
2.71232e-05
0.000129911
4.06772e-05
0.00010956
5.81743e-05
8.20231e-05
8.03366e-05
4.66915e-05
0.000108003
2.90939e-06
0.000142173
-4.99134e-05
0.000184078
-0.000112023
0.000235289
-0.00018244
0.000297543
-0.000256224
-0.000321029
0.00037196
-2.50103e-07
1.94369e-05
-7.37307e-07
5.26534e-05
-1.1965e-06
8.14087e-05
-1.34255e-06
0.000105368
-8.7066e-07
0.00012426
5.46076e-07
0.000137854
3.26144e-06
0.000145929
7.66271e-06
0.000148251
1.41785e-05
0.000144549
2.32878e-05
0.000134492
3.5529e-05
0.00011767
5.15091e-05
9.35797e-05
7.19138e-05
6.16184e-05
9.75177e-05
2.10875e-05
0.000129201
-2.87744e-05
0.000167984
-8.86957e-05
0.000215094
-0.000159133
0.000272104
-0.00023945
0.000340921
-0.000325041
-0.000403099
0.000422991
-2.27339e-07
1.96643e-05
-6.21468e-07
5.30475e-05
-8.91112e-07
8.16784e-05
-7.24238e-07
0.000105201
2.12476e-07
0.000123323
2.27698e-06
0.000135789
5.85788e-06
0.000142348
1.1382e-05
0.000142727
1.93233e-05
0.000136608
3.02121e-05
0.000123603
4.46445e-05
0.000103237
6.32903e-05
7.49338e-05
8.68994e-05
3.80093e-05
0.000116306
-8.31946e-06
0.000152437
-6.49046e-05
0.000196322
-0.000132582
0.00024916
-0.000211971
0.000312444
-0.000302734
0.000388171
-0.000400768
-0.000492768
0.00047784
-2.03745e-07
1.9868e-05
-4.99725e-07
5.33435e-05
-5.68019e-07
8.17467e-05
-6.70443e-08
0.0001047
1.36785e-06
0.000121888
4.12919e-06
0.000133028
8.64424e-06
0.000137833
1.53841e-05
0.000135987
2.48733e-05
0.000127118
3.77001e-05
0.000110776
5.45252e-05
8.64121e-05
7.60888e-05
5.33702e-05
0.000103213
1.0885e-05
0.0001368
-4.19065e-05
0.000177825
-0.000105929
0.000227329
-0.000182086
0.000286451
-0.000271093
0.000356519
-0.000372801
0.000439525
-0.000483775
-0.000589777
0.000536534
-1.78942e-07
2.0047e-05
-3.7056e-07
5.35351e-05
-2.2376e-07
8.15999e-05
6.35209e-07
0.000103841
2.6055e-06
0.000119918
6.11746e-06
0.000129516
1.16412e-05
0.000132309
1.96966e-05
0.000127931
3.08645e-05
0.000115951
4.57968e-05
9.58438e-05
6.52258e-05
6.69831e-05
8.99689e-05
2.86271e-05
0.000120928
-2.00742e-05
0.000159079
-8.0058e-05
0.000205452
-0.000152302
0.000261098
-0.000237731
0.000327076
-0.000337072
0.000404467
-0.000450192
0.000495156
-0.000574464
-0.000693616
0.000598995
-1.52491e-07
2.01995e-05
-2.32237e-07
5.36148e-05
1.45573e-07
8.12221e-05
1.38959e-06
0.000102597
3.93644e-06
0.000117371
8.2579e-06
0.000125194
1.48709e-05
0.000125696
2.4349e-05
0.000118453
3.73341e-05
0.000102965
5.45478e-05
7.86301e-05
7.67995e-05
4.47315e-05
0.00010499
4.36803e-07
0.000140106
-5.51903e-05
0.000183203
-0.000123155
0.00023537
-0.000204468
0.000297668
-0.000300029
0.000371069
-0.000410473
0.000456341
-0.000535463
0.000555164
-0.000673287
-0.000803494
0.000665042
-1.23885e-07
2.03233e-05
-8.27671e-08
5.35737e-05
5.44302e-07
8.0595e-05
2.20375e-06
0.000100938
5.37271e-06
0.000114202
1.05679e-05
0.000119999
1.83572e-05
0.000117907
2.93721e-05
0.000107438
4.43208e-05
8.80168e-05
6.39989e-05
5.8952e-05
8.92976e-05
1.94327e-05
0.000121205
-3.14703e-05
0.000160795
-9.47809e-05
0.000209207
-0.000171567
0.000267588
-0.00026285
0.000337016
-0.000369458
0.000418372
-0.000491829
0.000512082
-0.000629174
0.000619523
-0.000780728
-0.000918444
0.000734473
-9.25633e-08
2.04159e-05
7.99308e-08
5.34012e-05
9.77227e-07
7.96977e-05
3.0861e-06
9.88288e-05
6.92734e-06
0.000110361
1.30662e-05
0.00011386
2.21252e-05
0.000108848
3.47983e-05
9.47654e-05
5.18638e-05
7.09513e-05
7.41954e-05
3.66204e-05
0.000102769
-9.14051e-06
0.000138659
-6.7361e-05
0.000183029
-0.000139151
0.000237096
-0.000225633
0.000302069
-0.000327823
0.00037905
-0.000446438
0.000468849
-0.000581628
0.000571583
-0.000731908
0.000687982
-0.000897126
-0.00103779
0.000807326
-5.78893e-08
2.04738e-05
2.58264e-07
5.30851e-05
1.44953e-06
7.85064e-05
4.04568e-06
9.62326e-05
8.61426e-06
0.000105793
1.57724e-05
0.000106702
2.62014e-05
9.84187e-05
4.06609e-05
8.03058e-05
6.00029e-05
5.16093e-05
8.51814e-05
1.14419e-05
0.000117257
-4.12157e-05
0.000157389
-0.000107494
0.000206822
-0.000188584
0.00026684
-0.000285651
0.000338711
-0.000399694
0.000423576
-0.000531304
0.000522279
-0.000680331
0.000634889
-0.000844517
0.000760536
-0.00102277
-0.00116123
0.000883977
-1.91729e-08
2.0493e-05
4.54863e-07
5.2611e-05
1.96677e-06
7.69945e-05
5.0921e-06
9.31073e-05
1.04481e-05
0.000100436
1.87073e-05
9.8443e-05
3.06128e-05
8.65132e-05
4.69936e-05
6.39251e-05
6.87773e-05
2.98256e-05
9.69987e-05
-1.67795e-05
0.0001328
-7.70165e-05
0.000177418
-0.000152112
0.000232163
-0.000243328
0.000298368
-0.000351857
0.000377333
-0.000478659
0.000470238
-0.000624209
0.000578098
-0.00078819
0.000701727
-0.000968147
0.000839648
-0.00116069
-0.001285
0.000963415
2.42406e-08
2.04687e-05
6.72192e-07
5.19631e-05
2.5345e-06
7.51322e-05
6.23507e-06
8.94067e-05
1.24439e-05
9.42277e-05
2.18917e-05
8.89952e-05
3.53867e-05
7.30182e-05
5.38295e-05
4.54823e-05
7.82244e-05
5.43066e-06
0.000109685
-4.82398e-05
0.000149427
-0.000116759
0.000198755
-0.000201439
0.000259018
-0.000303592
0.000331566
-0.000424404
0.000417676
-0.000564769
0.000518503
-0.000725035
0.000635111
-0.000904799
0.000768902
-0.00110194
0.000923413
-0.00131521
-0.00150469
0.0011431
7.33027e-08
2.03954e-05
9.135e-07
5.11229e-05
3.1593e-06
7.28864e-05
7.48548e-06
8.50805e-05
1.46174e-05
8.70957e-05
2.53472e-05
7.82654e-05
4.05505e-05
5.78149e-05
6.12008e-05
2.4832e-05
8.83784e-05
-2.17469e-05
0.00012327
-8.31319e-05
0.000167159
-0.000160648
0.00022139
-0.000255671
0.000287327
-0.000369529
0.000366281
-0.000503358
0.000459433
-0.000657922
0.00056778
-0.000833382
0.000692168
-0.00102919
0.00083393
-0.0012437
0.000994819
-0.00147609
-0.00170198
0.00119212
1.28727e-07
2.02667e-05
1.18146e-06
5.00702e-05
3.847e-06
7.02209e-05
8.85334e-06
8.00742e-05
1.69839e-05
7.89652e-05
2.90944e-05
6.61549e-05
4.61298e-05
4.07795e-05
6.91367e-05
1.82512e-06
9.92685e-05
-5.18787e-05
0.000137779
-0.000121642
0.000185999
-0.000208868
0.000245295
-0.000314967
0.000317001
-0.000441235
0.000402332
-0.000588689
0.000502286
-0.000757876
0.000617564
-0.000948659
0.000748527
-0.00116015
0.000895659
-0.00139083
0.0010583
-0.00163873
-0.00188744
0.00124375
1.91321e-07
2.00754e-05
1.47898e-06
4.87825e-05
4.60369e-06
6.70962e-05
1.03488e-05
7.43291e-05
1.9558e-05
6.9756e-05
3.31527e-05
5.25602e-05
5.2148e-05
2.17841e-05
7.76624e-05
-2.36892e-05
0.000110917
-8.51335e-05
0.000153221
-0.000163947
0.000205937
-0.000261583
0.000270417
-0.000379447
0.000347921
-0.000518739
0.000439505
-0.000680273
0.000545897
-0.000864268
0.00066739
-0.00107015
0.000803732
-0.00129649
0.000954409
-0.00154151
0.00111738
-0.0018017
-0.00206449
0.00129443
2.61888e-07
1.98135e-05
1.8089e-06
4.72355e-05
5.43527e-06
6.34698e-05
1.19816e-05
6.77827e-05
2.23537e-05
5.93839e-05
3.75401e-05
3.73739e-05
5.86256e-05
6.98573e-07
8.67977e-05
-5.18613e-05
0.000123338
-0.000121674
0.000169596
-0.000210205
0.000226939
-0.000318926
0.000296673
-0.00044918
0.000379932
-0.000601998
0.000477545
-0.000777887
0.000589895
-0.000976617
0.000716787
-0.00119705
0.000857311
-0.00143702
0.00101001
-0.00169421
0.00117195
-0.00196364
-0.00223457
0.00134204
3.41209e-07
2.17395e-06
4.54027e-05
6.34733e-06
5.92964e-05
1.37608e-05
6.03693e-05
2.53837e-05
4.7761e-05
4.2272e-05
2.04856e-05
6.5579e-05
-2.26084e-05
9.65557e-05
-8.2838e-05
0.000136534
-0.000161652
0.000186884
-0.000260555
0.000248952
-0.000380994
0.000323951
-0.00052418
0.000412838
-0.000690885
0.000516153
-0.000881202
0.000633864
-0.00109433
0.00076524
-0.00132842
0.000908716
-0.00158049
0.00106201
-0.0018475
0.0012216
-0.00212323
-0.00239802
0.00138504
2.57668e-06
7.34501e-06
5.45281e-05
1.56945e-05
5.20198e-05
2.86588e-05
3.47967e-05
4.73607e-05
1.78372e-06
7.30191e-05
-4.82668e-05
0.000106941
-0.00011676
0.000150494
-0.000205204
0.000205048
-0.00031511
0.000271892
-0.000447837
0.000352104
-0.000604392
0.000446404
-0.000785185
0.000554984
-0.000989782
0.000677349
-0.00121669
0.0008122
-0.00146327
0.000957361
-0.00172565
0.00110987
-0.00200002
0.00126587
-0.00227922
-0.00255453
0.00142238
8.43288e-06
1.77896e-05
4.26631e-05
3.21876e-05
2.03986e-05
5.2815e-05
-1.88437e-05
8.0951e-05
-7.64028e-05
0.000117949
-0.000153758
0.000165194
-0.00025245
0.000224031
-0.000373946
0.00029565
-0.000519456
0.000380947
-0.000689689
0.000480352
-0.00088459
0.000593654
-0.00110308
0.000719856
-0.00134289
0.000857099
-0.00160052
0.00100266
-0.00187121
0.00115307
-0.00215043
0.00130432
-0.00243047
-0.0027036
0.00145339
2.00516e-05
3.22263e-05
3.59763e-05
4.47392e-06
5.86391e-05
-4.15064e-05
8.93727e-05
-0.000107136
0.000129564
-0.000193949
0.000180595
-0.000303481
0.000243751
-0.000437102
0.000320087
-0.000595792
0.000410264
-0.000779866
0.000514368
-0.000988694
0.000631743
-0.00122046
0.000760875
-0.00147203
0.00089937
-0.00173901
0.00104405
-0.00201589
0.00119112
-0.0022975
0.00133661
-0.00257596
-0.00284469
0.0014777
2.24846e-05
4.00283e-05
-1.30698e-05
6.48328e-05
-6.63109e-05
9.82749e-05
-0.000140579
0.000141759
-0.000237433
0.000196639
-0.000358362
0.000264107
-0.00050457
0.000345037
-0.000676721
0.000439805
-0.000874633
0.000548107
-0.001097
0.000668813
-0.00134117
0.000799894
-0.00160311
0.00093848
-0.0018776
0.00108105
-0.00215846
0.00122366
-0.0024401
0.00136253
-0.00271484
-0.00297736
0.0014952
4.43438e-05
7.13904e-05
-9.33575e-05
0.00010764
-0.000176828
0.000154495
-0.000284288
0.000213253
-0.00041712
0.000284975
-0.000576292
0.000370307
-0.000762053
0.000469293
-0.00097362
0.000581203
-0.00120891
0.000704416
-0.00146438
0.000836419
-0.00173511
0.000973942
-0.00201512
0.00111325
-0.00229777
0.00125041
-0.00257727
0.00138201
-0.00284644
-0.00310133
0.00150598
7.83007e-05
0.000117441
-0.000215969
0.00016772
-0.000334566
0.000230347
-0.000479747
0.000306209
-0.000652154
0.00039568
-0.000851524
0.000498431
-0.00107637
0.000613276
-0.00132375
0.000738113
-0.00158922
0.000869993
-0.00186699
0.00100535
-0.00215047
0.00114035
-0.00243278
0.00127127
-0.00270818
0.00139511
-0.00297027
-0.00321653
0.0015103
0.000127645
0.00018137
-0.000388291
0.000247812
-0.000546189
0.000327643
-0.000731985
0.00042092
-0.000944802
0.000526906
-0.00118236
0.000643949
-0.0014408
0.000769489
-0.00171476
0.000900214
-0.00199771
0.00103237
-0.00228263
0.00116219
-0.00256259
0.00128623
-0.00283223
0.00140204
-0.00308608
-0.00332304
0.00150855
0.00019537
0.000265528
-0.000616347
0.000349096
-0.000815553
0.000445778
-0.00104148
0.000554401
-0.00129098
0.000672854
-0.00155925
0.000798165
-0.00184007
0.000926748
-0.0021263
0.00105478
-0.00241066
0.00117868
-0.0026865
0.00129543
-0.00294897
0.00140312
-0.00319377
-0.00342111
0.00150119
0.000283358
0.000370374
-0.00090257
0.000469994
-0.0011411
0.000580601
-0.00140159
0.000699647
-0.00167829
0.000823812
-0.00196423
0.000949339
-0.00225182
0.00107246
-0.00253379
0.00118989
-0.00280392
0.00129909
-0.00305817
0.00139874
-0.00329342
-0.00351111
0.00148874
0.000391271
0.000493307
-0.00124314
0.000605206
-0.00151349
0.000724019
-0.00179711
0.000846163
-0.00208638
0.000967815
-0.00237347
0.00108538
-0.00265135
0.00119595
-0.00291449
0.00129753
-0.00315974
0.00138935
-0.00338525
-0.00359351
0.00147175
0.000515463
0.000627934
-0.00162596
0.000745704
-0.00191488
0.000865014
-0.00220569
0.000982087
-0.00249055
0.0010936
-0.00276287
0.0011971
-0.00301799
0.00129112
-0.00325377
0.00137545
-0.00346958
-0.00366883
0.00145077
0.000648536
0.000764486
0.000880233
-0.00232143
0.000992147
-0.00260246
0.00109727
-0.00286799
0.00119361
-0.00311433
0.00128029
-0.00334044
0.00135752
-0.00354682
-0.00373763
0.00142632
0.000891754
0.000998062
-0.00270877
0.00109658
-0.00296651
0.00118584
-0.00320359
0.00126545
-0.00342005
0.00133606
-0.00361742
-0.00380046
0.00139889
0.000999959
0.0010918
-0.00305835
0.00117414
-0.00328593
0.00124705
-0.00349296
0.00131151
-0.00368189
-0.00385788
0.00136893
0.00108323
0.0011589
0.00122552
-0.00355958
0.00128432
-0.00374069
-0.00391038
0.00133683
0.00120125
0.00125489
-0.00379433
-0.00395846
0.00130296
0.00122355
0.00126762
0.00122358
0.00379442
0.00395856
0.00126765
0.00120129
0.00355966
0.00125492
0.00374079
0.00391048
0.001303
0.00108326
0.00305843
0.00115894
0.00328601
0.00122555
0.00349305
0.00128436
0.00368198
0.00385798
0.00133687
0.000999996
0.00270884
0.00109184
0.00296658
0.00117418
0.00320367
0.00124709
0.00342014
0.00131155
0.00361752
0.00380056
0.00136897
0.000780236
0.00203088
0.00089179
0.00232149
0.000998101
0.00260253
0.00109662
0.00286806
0.00118588
0.00311441
0.00126549
0.00334053
0.0013361
0.00354691
0.00373773
0.00139893
0.000648564
0.00162599
0.00076452
0.00191492
0.00088027
0.00220574
0.000992189
0.00249061
0.00109731
0.00276294
0.00119366
0.00301806
0.00128033
0.00325385
0.00135757
0.00346967
0.00366893
0.00142637
0.000515486
0.00124316
0.000627963
0.00151351
0.000745738
0.00179715
0.000865053
0.00208642
0.00098213
0.00237353
0.00109365
0.00265142
0.00119715
0.00291457
0.00129117
0.00315982
0.0013755
0.00338534
0.00359361
0.00145083
0.000391288
0.000902576
0.00049333
0.00114112
0.000605234
0.00140161
0.000724053
0.00167833
0.000846202
0.00196428
0.000967859
0.00225188
0.00108543
0.00253385
0.001196
0.00280399
0.00129758
0.00305825
0.00138941
0.00329351
0.00351121
0.00147181
0.000283369
0.000616343
0.00037039
0.000815555
0.000470015
0.00104149
0.000580628
0.001291
0.00069968
0.00155928
0.000823852
0.0018401
0.000949384
0.00212634
0.00107251
0.00241072
0.00118995
0.00268656
0.00129915
0.00294904
0.0013988
0.00319386
0.00342121
0.0014888
0.000195376
0.00038828
0.000265538
0.000546181
0.000349111
0.000731982
0.000445798
0.000944805
0.000554427
0.00118237
0.000672887
0.00144082
0.000798204
0.00171479
0.000926794
0.00199775
0.00105483
0.00228268
0.00117874
0.00256266
0.00129549
0.0028323
0.00140318
0.00308616
0.00332313
0.00150125
0.000127648
0.000215953
0.000181376
0.000334552
0.000247821
0.000479736
0.000327657
0.000652147
0.000420939
0.000851522
0.000526931
0.00107638
0.000643981
0.00132377
0.000769529
0.00158924
0.00090026
0.00186702
0.00103242
0.00215052
0.00116225
0.00243283
0.0012863
0.00270825
0.00140211
0.00297035
0.00321662
0.00150862
7.83012e-05
9.33407e-05
0.000117444
0.000176811
0.000167724
0.000284271