/*--------------------------------*- C++ -*----------------------------------*\
  =========                 |
  \\      /  F ield         | OpenFOAM: The Open Source CFD Toolbox
   \\    /   O peration     | Website:  https://openfoam.org
    \\  /    A nd           | Version:  7
     \\/     M anipulation  |
\*---------------------------------------------------------------------------*/
FoamFile
{
    version     2.0;
    format      ascii;
    class       volVectorField;
    location    "35";
    object      U;
}
// * * * * * * * * * * * * * * * * * * * * * * * * * * * * * * * * * * * * * //

dimensions      [0 1 -1 0 0 0 0];

internalField   nonuniform List<vector> 
3025
(
(-0.000370167 0.000361291 1.10475e-21)
(-0.00204218 0.000863658 4.48329e-22)
(-0.00522403 0.00119054 -4.99341e-21)
(-0.00915059 0.00137653 2.80718e-21)
(-0.0134367 0.00144778 -3.27004e-21)
(-0.017797 0.00142789 -5.56174e-21)
(-0.0219889 0.00133878 -1.75539e-21)
(-0.025832 0.00120083 7.55185e-22)
(-0.0292051 0.00103315 6.02064e-21)
(-0.0320418 0.000853762 -5.36115e-21)
(-0.0343299 0.000679602 -1.52539e-21)
(-0.03611 0.000525602 -6.8779e-21)
(-0.0374485 0.000402388 -6.15093e-21)
(-0.0384522 0.000323946 3.11747e-21)
(-0.000413623 0.00107832 -5.28715e-21)
(-0.00213088 0.0025768 -2.18838e-20)
(-0.00531157 0.00355106 3.44305e-22)
(-0.00920019 0.00410433 9.78991e-21)
(-0.013416 0.00431475 8.64289e-21)
(-0.0176773 0.00425283 -1.19113e-20)
(-0.0217444 0.0039842 -1.31241e-20)
(-0.0254395 0.00356975 9.16178e-21)
(-0.0286435 0.00306669 5.80418e-21)
(-0.0312921 0.00252912 -4.30481e-21)
(-0.0333752 0.00200788 -8.2323e-22)
(-0.034937 0.00154793 2.40591e-20)
(-0.0360431 0.00118161 3.13775e-20)
(-0.0367901 0.0009518 1.08088e-20)
(-0.000499318 0.0017788 -1.66204e-21)
(-0.00230519 0.00424764 2.95855e-20)
(-0.0054822 0.00585023 -1.9294e-20)
(-0.00929391 0.00675674 1.06441e-20)
(-0.0133686 0.00709636 1.42093e-21)
(-0.0174312 0.0069858 -5.03011e-22)
(-0.0212484 0.00653371 -5.40292e-21)
(-0.0246474 0.00584098 -3.50529e-20)
(-0.0275134 0.00500259 -5.80216e-22)
(-0.0297859 0.00410859 3.07313e-20)
(-0.0314591 0.00324396 -1.76916e-20)
(-0.0325846 0.00248413 5.74379e-20)
(-0.0332263 0.00188457 -4.65942e-20)
(-0.0334599 0.0015197 -6.07482e-20)
(-0.000624841 0.002452 1.05694e-20)
(-0.00255893 0.00584872 -1.11847e-20)
(-0.00572699 0.00804822 2.4356e-20)
(-0.0094208 0.00928479 -3.10864e-20)
(-0.0132819 0.00973721 -4.04537e-20)
(-0.0170454 0.00956716 6.57752e-20)
(-0.020487 0.00892518 1.96073e-20)
(-0.0234416 0.0079513 2.6029e-21)
(-0.0258007 0.00677767 2.91567e-20)
(-0.0275094 0.00553014 -3.73284e-20)
(-0.0285682 0.00432817 -5.83999e-20)
(-0.0290398 0.00327843 3.15196e-20)
(-0.0289864 0.00246164 -1.60811e-20)
(-0.02845 0.0019882 4.74096e-20)
(-0.000786627 0.00308767 -5.10468e-20)
(-0.00288295 0.00735372 3.54908e-20)
(-0.0060327 0.0101067 -1.61462e-20)
(-0.00956453 0.0116414 5.88353e-20)
(-0.0131374 0.0121841 -4.49109e-20)
(-0.0164997 0.0119397 -8.25028e-20)
(-0.0194392 0.0110991 -1.94561e-20)
(-0.0218007 0.00984031 2.09172e-20)
(-0.023484 0.00833169 -7.28963e-20)
(-0.0244416 0.00673466 3.87911e-21)
(-0.0246822 0.00520367 1.05775e-20)
(-0.0242834 0.0038776 -8.14484e-20)
(-0.0233059 0.00286518 2.57994e-20)
(-0.0217416 0.00231912 4.75953e-20)
(-0.000980017 0.00367617 2.04415e-20)
(-0.00326524 0.00873777 -2.53648e-21)
(-0.00638181 0.0119896 7.11552e-22)
(-0.00970342 0.0137822 -8.91986e-21)
(-0.0129103 0.0143868 7.81642e-20)
(-0.0157673 0.0140496 8.03187e-20)
(-0.0180769 0.0129998 1.73381e-20)
(-0.0196961 0.0114516 -2.10579e-20)
(-0.0205348 0.00960852 4.15378e-20)
(-0.0205545 0.00766717 5.31914e-20)
(-0.0197735 0.0058176 -2.1802e-20)
(-0.0182889 0.00423221 2.59201e-20)
(-0.0161616 0.0030523 -1.53918e-20)
(-0.0133091 0.0024834 -1.04305e-19)
(-0.00119933 0.0042086 1.88307e-20)
(-0.00369102 0.00997784 -4.50632e-20)
(-0.00675271 0.0136634 3.91771e-20)
(-0.0098106 0.015666 -7.20536e-20)
(-0.0125699 0.0162991 1.2101e-20)
(-0.0148147 0.0158474 -1.25413e-19)
(-0.016365 0.0145762 8.91259e-20)
(-0.0170919 0.0127338 -3.44162e-21)
(-0.0169171 0.0105574 1.03369e-19)
(-0.0158124 0.00827805 -1.83103e-20)
(-0.0138075 0.00612221 1.39264e-19)
(-0.0110218 0.00429759 3.87366e-22)
(-0.00752116 0.00298742 6.71823e-21)
(-0.00313154 0.00248017 3.04143e-20)
(-0.00143793 0.00467696 -5.77461e-20)
(-0.00414296 0.011053 4.00406e-20)
(-0.00711983 0.0150975 -6.65227e-20)
(-0.00985411 0.0172555 -2.15266e-21)
(-0.0120794 0.0178792 -2.42724e-20)
(-0.0136017 0.0172889 1.5051e-19)
(-0.014261 0.0157832 -1.38068e-19)
(-0.0139445 0.013642 7.78312e-20)
(-0.0125872 0.0111341 5.45206e-20)
(-0.0101722 0.00852437 -9.18496e-20)
(-0.00674166 0.00607596 -3.29359e-20)
(-0.00243853 0.00403422 -7.48386e-20)
(0.00267272 0.00263311 -5.22156e-20)
(0.0088107 0.00225972 9.85851e-20)
(-0.00168833 0.00507412 4.07437e-20)
(-0.00460128 0.0119447 -4.17188e-20)
(-0.0074538 0.0162649 2.5304e-20)
(-0.00979701 0.0185178 -1.52622e-20)
(-0.011396 0.0190904 7.56196e-20)
(-0.0120814 0.0183358 -5.32355e-20)
(-0.0117152 0.0165822 1.38217e-20)
(-0.0102028 0.0141385 -2.01432e-20)
(-0.00749377 0.0113026 -6.00299e-20)
(-0.00358319 0.00837142 1.91493e-20)
(0.00147337 0.00564534 5.50877e-20)
(0.00750657 0.00340939 3.57896e-20)
(0.0144567 0.00195509 1.47393e-19)
(0.0225944 0.0017777 1.09329e-20)
(-0.00194226 0.00539396 -2.86824e-20)
(-0.00504395 0.0126368 3.0029e-21)
(-0.00772166 0.0171424 -7.36695e-21)
(-0.00959761 0.0194247 -9.9664e-21)
(-0.0104713 0.0199021 -1.63401e-19)
(-0.0102002 0.0189565 5.16926e-20)
(-0.00867082 0.0169426 -5.25072e-20)
(-0.00580812 0.0141944 2.06893e-20)
(-0.00157752 0.0110361 4.14222e-20)
(0.00401322 0.0077945 -3.77019e-20)
(0.0108948 0.00480698 -2.31291e-19)
(0.0188692 0.00240091 9.15238e-20)
(0.0278803 0.000936658 -1.80755e-19)
(0.0382708 0.00104206 4.65719e-20)
(-0.0021907 0.00563132 -2.59459e-20)
(-0.00544682 0.0131158 7.26788e-20)
(-0.007887 0.0177105 -3.2367e-20)
(-0.00920958 0.0199533 8.70863e-20)
(-0.00925106 0.0202898 1.10186e-19)
(-0.0078981 0.019127 1.4824e-20)
(-0.00506359 0.0168422 -1.31548e-19)
(-0.000693887 0.0137905 -2.69026e-20)
(0.00522871 0.0103186 -5.80827e-20)
(0.0126834 0.00678048 1.32792e-19)
(0.0215875 0.00354935 1.22777e-19)
(0.0317126 0.000996906 -3.63231e-19)
(0.0430051 -0.000434777 2.75793e-19)
(0.0558969 5.21467e-05 -1.69537e-19)
(-0.00242401 0.00578201 1.56788e-20)
(-0.00578379 0.0133707 2.16759e-20)
(-0.00791024 0.0179538 -1.22012e-19)
(-0.00858227 0.0200859 1.11782e-19)
(-0.00767581 0.0202355 -1.59497e-19)
(-0.00510873 0.018831 6.34139e-20)
(-0.000822335 0.0162677 7.53111e-20)
(0.005214 0.0129179 2.0175e-20)
(0.013 0.00914619 -1.23811e-19)
(0.0225016 0.0053295 -2.48524e-19)
(0.0336233 0.0018748 1.49374e-19)
(0.0461061 -0.000801198 8.34779e-20)
(0.059899 -0.00216102 -2.03942e-20)
(0.0755393 -0.00119217 1.19143e-20)
(-0.0026319 0.00584277 -1.31005e-21)
(-0.00602693 0.0133932 6.45673e-20)
(-0.00774878 0.0178613 1.92752e-19)
(-0.00766093 0.0198106 -8.86916e-20)
(-0.00568094 0.0197283 -1.24308e-19)
(-0.00175977 0.0180604 -1.30839e-20)
(0.00413092 0.0152159 1.17688e-19)
(0.0119971 0.0115793 -6.14763e-20)
(0.0218193 0.00752798 2.75103e-19)
(0.0335498 0.0034567 1.79577e-19)
(0.0470813 -0.000198074 -2.88302e-20)
(0.0621252 -0.00297582 1.09528e-19)
(0.0786344 -0.0042299 -2.54576e-19)
(0.0972675 -0.00267965 7.88551e-20)
(-0.00280352 0.00581123 -3.64127e-20)
(-0.00614666 0.0131777 -1.22396e-19)
(-0.00735731 0.017426 -8.77075e-20)
(-0.00638717 0.0191209 -1.86499e-20)
(-0.00319726 0.0187643 6.03008e-20)
(0.00222654 0.0168156 7.46717e-20)
(0.00988044 0.0136932 1.30892e-20)
(0.019744 0.00978895 1.72609e-19)
(0.031777 0.00548714 -1.61697e-19)
(0.0459173 0.00119362 2.54552e-19)
(0.0620475 -0.00263218 -1.3383e-19)
(0.0798508 -0.00549042 6.63606e-20)
(0.0992891 -0.00661266 1.7058e-19)
(0.121165 -0.00438579 1.46661e-19)
(-0.00292743 0.00568595 3.5494e-20)
(-0.00611185 0.0127212 -4.92904e-20)
(-0.00668818 0.0166452 2.35175e-19)
(-0.00469937 0.0180161 -4.76284e-21)
(-0.000151645 0.0173465 -9.74661e-20)
(0.00693272 0.0151053 -1.09082e-19)
(0.016516 0.011716 2.75736e-20)
(0.0285495 0.00757299 -3.32543e-19)
(0.0429702 0.00306113 2.54176e-20)
(0.0597006 -0.00141068 -3.28192e-19)
(0.0786137 -0.00536967 9.72169e-20)
(0.099368 -0.00828616 8.5172e-20)
(0.121942 -0.00926171 -5.03968e-20)
(0.147313 -0.00627989 -2.7466e-19)
(-0.00299178 0.00546636 6.4825e-20)
(-0.00589012 0.0120232 3.94654e-20)
(-0.00569174 0.0155203 -2.03511e-19)
(-0.00253341 0.0165012 2.16828e-20)
(0.00353214 0.0154848 1.10967e-19)
(0.012445 0.0129462 1.23552e-19)
(0.0241319 0.00931016 9.75921e-20)
(0.0385136 0.0049687 2.51818e-19)
(0.0555023 0.000301315 -1.43589e-20)
(0.0750024 -0.00428932 -1.74783e-20)
(0.0968776 -0.00833007 -8.12573e-20)
(0.120765 -0.0112778 -4.83585e-20)
(0.146672 -0.0121044 -1.05013e-19)
(0.175788 -0.00831331 9.28466e-20)
(-0.00298419 0.00515269 -9.70098e-20)
(-0.00544804 0.0110859 -4.32039e-20)
(-0.00431695 0.0140571 1.46095e-19)
(0.000176526 0.0145868 -4.69856e-20)
(0.00793226 0.013196 -2.50105e-20)
(0.0188518 0.0103628 -7.78945e-20)
(0.032825 0.00650992 5.43173e-20)
(0.0497402 0.00202337 -1.72887e-19)
(0.0694811 -0.00272844 -1.07979e-19)
(0.091931 -0.0073585 2.8829e-19)
(0.116942 -0.0114093 -7.94587e-20)
(0.144134 -0.0143496 -2.01957e-19)
(0.173555 -0.0150358 3.05103e-20)
(0.206667 -0.0104168 8.74023e-20)
(-0.00289194 0.00474617 -9.52751e-20)
(-0.00475148 0.00991439 1.23112e-19)
(-0.00251201 0.0122659 1.80402e-19)
(0.0034969 0.0122889 -1.70129e-19)
(0.0131274 0.0105031 4.9255e-20)
(0.0262421 0.00738647 -1.67478e-19)
(0.042693 0.003357 -1.24298e-19)
(0.0623339 -0.00120773 -7.90767e-20)
(0.0850168 -0.00595445 1.12757e-19)
(0.110599 -0.0105202 3.81681e-21)
(0.138915 -0.0144809 -9.31669e-20)
(0.16957 -0.0173516 1.28501e-19)
(0.202667 -0.0179095 7.45301e-20)
(0.240018 -0.0124918 1.14492e-19)
(-0.00270206 0.00424904 3.0003e-20)
(-0.00376605 0.00851663 1.2264e-19)
(-0.000225216 0.0101611 -2.80657e-19)
(0.00749359 0.00962926 1.48573e-19)
(0.019195 0.00743532 -2.05527e-19)
(0.0347029 0.00405469 -4.75522e-20)
(0.0538313 -0.000101131 2.75428e-20)
(0.0763977 -0.0046641 9.22086e-20)
(0.102219 -0.0092975 -2.68313e-20)
(0.13112 -0.0136676 5.57693e-20)
(0.162911 -0.0174001 1.25743e-19)
(0.197174 -0.0200985 9.22784e-20)
(0.234083 -0.0205261 -1.27224e-19)
(0.275899 -0.0143979 1.6455e-19)
(-0.00240152 0.00366469 -1.70164e-20)
(-0.00245762 0.00690378 -8.58679e-20)
(0.00259412 0.0077621 2.38877e-19)
(0.0122304 0.00663533 3.38265e-20)
(0.0262093 0.00402801 1.00672e-19)
(0.0443168 0.000410647 1.75639e-19)
(0.0663293 -0.00381285 -2.17163e-19)
(0.0920281 -0.00828332 -5.98698e-20)
(0.121192 -0.0126787 2.10653e-19)
(0.153606 -0.016694 -1.88483e-19)
(0.189046 -0.0200145 3.56049e-21)
(0.227061 -0.0223757 4.50667e-20)
(0.267896 -0.0226272 5.73797e-20)
(0.314369 -0.0159387 1.46978e-20)
(-0.00197741 0.00299778 -2.83753e-20)
(-0.000792956 0.00509039 1.60077e-19)
(0.00599462 0.00509317 -1.00228e-19)
(0.0177675 0.00334037 1.20937e-19)
(0.0342387 0.000322485 8.01238e-20)
(0.0551582 -0.00349737 1.40243e-19)
(0.0802664 -0.00772372 -3.97836e-20)
(0.109309 -0.0120044 2.41e-20)
(0.142028 -0.0160266 -6.65182e-20)
(0.178162 -0.0195051 8.70313e-20)
(0.21744 -0.022181 6.72716e-20)
(0.25936 -0.0239535 1.3324e-19)
(0.304221 -0.0238822 -1.48973e-19)
(0.355507 -0.0168046 -1.4833e-19)
(-0.00141724 0.00225441 1.77245e-19)
(0.00125962 0.00309471 -2.4382e-19)
(0.0100217 0.00218385 9.17844e-20)
(0.0241598 -0.000216085 -2.47511e-19)
(0.0433442 -0.00363351 1.6386e-19)
(0.0672906 -0.00761575 -1.63324e-19)
(0.0957064 -0.0117771 3.41089e-20)
(0.128305 -0.0157705 -1.47725e-19)
(0.164795 -0.0192839 -2.92003e-20)
(0.204871 -0.0220347 1.47934e-19)
(0.248204 -0.0237937 -6.8329e-20)
(0.294214 -0.0246084 -1.22688e-19)
(0.343177 -0.0238092 -6.21648e-20)
(0.399294 -0.0163061 -2.2161e-19)
(-0.000709205 0.00144222 -6.40581e-20)
(0.00372954 0.000938934 1.67086e-19)
(0.0147165 -0.00093074 -3.69365e-19)
(0.0314554 -0.00398779 -2.31058e-20)
(0.0535761 -0.00778518 -4.97423e-20)
(0.0807628 -0.0118848 -9.02437e-21)
(0.112693 -0.0159136 -1.64992e-19)
(0.149054 -0.0195294 1.00476e-19)
(0.189528 -0.0224143 9.85167e-20)
(0.233784 -0.024266 -3.26638e-19)
(0.281442 -0.0248359 2.36084e-19)
(0.331847 -0.0241925 -2.89437e-19)
(0.385021 -0.0217272 2.2736e-19)
(0.445426 -0.0130509 6.37778e-20)
(0.000157579 0.000570491 -1.17154e-19)
(0.00664332 -0.00135069 2.18632e-20)
(0.0201149 -0.00420953 1.81741e-19)
(0.0396943 -0.00792124 9.409e-20)
(0.064973 -0.0120697 -6.90989e-20)
(0.0956059 -0.0162369 -2.2767e-19)
(0.131244 -0.0200681 2.56713e-19)
(0.171554 -0.0232306 -3.14131e-20)
(0.216209 -0.0254018 -2.07682e-19)
(0.26488 -0.0262514 9.00857e-20)
(0.317216 -0.0254629 -9.65434e-20)
(0.372686 -0.0228842 4.70413e-19)
(0.43104 -0.0174768 1.71716e-19)
(0.495269 -0.0065741 -3.52774e-20)
(0.0011928 -0.000349896 -5.1181e-20)
(0.0100241 -0.00374377 2.00479e-19)
(0.0262471 -0.00760539 5.10213e-20)
(0.0489076 -0.0119552 4.70198e-20)
(0.0775605 -0.0164149 1.06358e-19)
(0.111832 -0.020594 2.44738e-19)
(0.151348 -0.0241644 -1.72161e-19)
(0.195759 -0.0268144 5.09273e-19)
(0.244738 -0.028233 1.7037e-19)
(0.29799 -0.0280886 -9.19792e-20)
(0.355301 -0.026022 -3.15565e-20)
(0.416705 -0.02156 -1.86459e-19)
(0.483154 -0.0132368 -2.92342e-19)
(0.559308 -0.00215608 -3.52042e-19)
(0.00240478 -0.00130648 -1.07588e-19)
(0.0138911 -0.00620596 -9.32992e-20)
(0.0331367 -0.0110652 4.57307e-21)
(0.0591168 -0.0160203 7.01923e-20)
(0.0913508 -0.0207387 6.07187e-20)
(0.129435 -0.0248652 -8.62416e-21)
(0.172968 -0.0281091 -1.16051e-19)
(0.221579 -0.0301957 -2.33991e-19)
(0.274934 -0.0308538 1.04196e-19)
(0.332765 -0.0298073 -1.23023e-19)
(0.394952 -0.0267872 -1.26665e-19)
(0.461863 -0.0214373 6.24816e-20)
(0.534805 -0.0133337 5.00815e-20)
(0.615506 -0.00772086 5.08146e-19)
(0.00380039 -0.0022854 5.40439e-20)
(0.0182596 -0.00869918 2.07658e-19)
(0.0408007 -0.01453 -2.4891e-19)
(0.0703343 -0.0200398 4.03412e-20)
(0.106344 -0.0249487 1.40718e-20)
(0.148393 -0.0289453 -5.87421e-20)
(0.196046 -0.0317875 -1.55637e-19)
(0.248898 -0.0332526 6.34304e-20)
(0.306591 -0.0331345 -1.14712e-19)
(0.368831 -0.0312547 1.90323e-19)
(0.43548 -0.0275093 -2.41654e-19)
(0.506873 -0.0218131 3.36912e-20)
(0.583924 -0.0145859 3.03133e-19)
(0.665459 -0.0123851 -6.95772e-19)
(0.005385 -0.00327161 -2.54822e-19)
(0.0231407 -0.0111822 6.46911e-20)
(0.0492497 -0.0179361 -9.15557e-20)
(0.0825636 -0.0239297 -5.81433e-20)
(0.122528 -0.0289434 -8.34478e-20)
(0.16867 -0.0327171 7.84653e-20)
(0.22051 -0.0350665 1.18531e-19)
(0.277596 -0.0358329 -7.7774e-20)
(0.339511 -0.0348897 -2.35906e-19)
(0.405892 -0.0321704 8.33778e-20)
(0.476478 -0.0277366 -8.96869e-20)
(0.551362 -0.0217246 6.73079e-20)
(0.63084 -0.0149446 6.15571e-20)
(0.712054 -0.0139947 4.54589e-19)
(0.00716253 -0.00424913 1.77092e-19)
(0.0285413 -0.0136113 -2.19533e-19)
(0.0584876 -0.0212155 2.07226e-19)
(0.0957992 -0.0276011 -1.60387e-20)
(0.139883 -0.0326148 1.09544e-19)
(0.190222 -0.0360549 -2.53197e-19)
(0.246283 -0.0378018 9.06801e-21)
(0.307551 -0.0377689 -4.07952e-20)
(0.373527 -0.0359146 1.13917e-19)
(0.443735 -0.0322816 -5.90428e-20)
(0.51774 -0.0270693 3.68875e-19)
(0.595324 -0.0205613 -2.5409e-19)
(0.676228 -0.0137114 3.37712e-19)
(0.756838 -0.0127859 -3.41067e-19)
(0.00913546 -0.00520133 -9.98982e-20)
(0.0344643 -0.0159408 3.41713e-19)
(0.0685119 -0.0242978 9.98875e-21)
(0.110027 -0.0309615 -1.44937e-19)
(0.158376 -0.035851 1.02884e-19)
(0.212991 -0.0388287 1.46286e-19)
(0.273278 -0.0398457 -5.63128e-19)
(0.338643 -0.0388914 3.31648e-19)
(0.408485 -0.0360104 -6.22361e-20)
(0.482192 -0.0313451 1.72025e-19)
(0.559136 -0.0252031 -3.18876e-19)
(0.638795 -0.0179593 -1.10708e-19)
(0.720475 -0.0105955 -2.03015e-19)
(0.800308 -0.0089437 -2.08915e-19)
(0.0113049 -0.00611113 1.85408e-19)
(0.0409083 -0.0181239 -3.56402e-21)
(0.0793132 -0.0271107 -1.42276e-19)
(0.125225 -0.0339167 3.7495e-20)
(0.177966 -0.038539 1.03368e-19)
(0.236914 -0.040909 2.11319e-19)
(0.301403 -0.0410533 2.32664e-19)
(0.370749 -0.03904 -3.80714e-20)
(0.444238 -0.0349985 -9.75678e-20)
(0.521112 -0.0291611 -2.66103e-19)
(0.600547 -0.0219199 2.36184e-19)
(0.681756 -0.0137076 -2.37256e-19)
(0.763722 -0.00548615 -4.63179e-20)
(0.842579 -0.00264511 5.29363e-19)
(0.0136706 -0.00696123 -4.58019e-20)
(0.0478677 -0.0201133 -1.34331e-19)
(0.0908756 -0.0295817 -1.97535e-20)
(0.141362 -0.036373 -5.31441e-20)
(0.198601 -0.0405676 -1.13392e-19)
(0.261912 -0.0421708 -2.33769e-19)
(0.330552 -0.0412884 2.82345e-19)
(0.403739 -0.0380695 -1.21293e-19)
(0.480637 -0.032727 6.10087e-20)
(0.56034 -0.0255759 5.65544e-20)
(0.641844 -0.0170778 1.99808e-20)
(0.724134 -0.00770605 6.31743e-20)
(0.805961 0.00160738 4.03789e-20)
(0.883598 0.00589457 3.60316e-20)
(0.0553326 -0.0218617 -2.43382e-19)
(0.103176 -0.0316386 3.29321e-19)
(0.158395 -0.0382386 -8.87466e-20)
(0.220218 -0.0418298 1.20448e-19)
(0.287898 -0.0424961 1.61435e-19)
(0.36061 -0.0404266 -2.11589e-19)
(0.43747 -0.035854 2.06792e-19)
(0.51752 -0.0290742 9.28705e-20)
(0.599707 -0.0204808 1.59849e-19)
(0.682868 -0.0105969 -3.39062e-19)
(0.7658 6.76797e-05 3.24351e-19)
(0.847092 0.0106057 -1.72441e-19)
(0.923223 0.0164484 -5.63032e-19)
(0.116183 -0.0332113 -4.1811e-20)
(0.176274 -0.0394249 -7.55493e-20)
(0.242741 -0.0422244 1.38802e-20)
(0.314769 -0.0417768 1.56879e-19)
(0.391447 -0.0383586 -1.05785e-19)
(0.471788 -0.0322889 1.14933e-19)
(0.554712 -0.0239482 -4.39384e-20)
(0.63903 -0.0138069 2.59856e-19)
(0.723439 -0.00244742 1.16171e-19)
(0.806589 0.00958271 -2.04008e-19)
(0.886957 0.0213903 4.20253e-21)
(0.961272 0.0287889 4.3981e-19)
(0.266083 -0.041658 -1.58569e-19)
(0.34241 -0.0399162 -2.70231e-19)
(0.422921 -0.0349911 8.67141e-20)
(0.506524 -0.0272921 -6.82338e-20)
(0.592022 -0.0172858 -1.19675e-19)
(0.678107 -0.00552088 1.93402e-19)
(0.763355 0.00736125 -1.39056e-19)
(0.846305 0.0207711 3.09238e-20)
(0.92537 0.0338202 4.56163e-20)
(0.997546 0.0426912 -9.44121e-20)
(0.370692 -0.0368304 -2.12617e-20)
(0.454872 -0.0302483 1.09179e-19)
(0.541493 -0.020803 -1.80339e-19)
(0.62925 -0.00905087 -7.87939e-20)
(0.716724 0.00438029 -1.2696e-19)
(0.802401 0.0187883 -3.01168e-19)
(0.884741 0.0335383 -1.4319e-19)
(0.962135 0.0477402 8.85123e-20)
(1.03186 0.0579351 4.39665e-20)
(0.576502 -0.0127833 6.89895e-20)
(0.66618 0.000767871 1.31191e-19)
(0.75466 0.0158727 4.37751e-20)
(0.840356 0.0317676 1.00215e-19)
(0.921688 0.0477704 1.43605e-19)
(0.997059 0.062987 -6.44224e-20)
(1.06403 0.0743078 1.07072e-19)
(0.702595 0.0121585 2.60541e-20)
(0.791688 0.0289092 1.27689e-19)
(0.877 0.0462122 1.10617e-19)
(0.956939 0.063339 -1.87299e-19)
(1.02996 0.0793934 2.47437e-19)
(1.09391 0.0916055 -8.95403e-20)
(0.912118 0.0620184 1.57498e-19)
(0.990305 0.0801053 4.82182e-20)
(1.06068 0.0967908 6.14736e-20)
(1.12138 0.109635 7.44156e-20)
(1.08908 0.115012 -2.43662e-22)
(1.14635 0.128215 5.58649e-20)
(1.08908 -0.115012 -2.90059e-19)
(1.14635 -0.128215 -6.20854e-20)
(0.912118 -0.0620184 -1.91096e-19)
(0.990305 -0.0801053 9.96573e-20)
(1.06068 -0.0967908 1.19553e-19)
(1.12138 -0.109635 1.0634e-19)
(0.702595 -0.0121585 -6.62556e-20)
(0.791688 -0.0289092 -3.50728e-21)
(0.877 -0.0462122 6.96196e-20)
(0.956939 -0.0633389 3.36015e-20)
(1.02996 -0.0793934 3.76188e-20)
(1.09391 -0.0916055 -5.07129e-20)
(0.576502 0.0127833 -9.81454e-20)
(0.66618 -0.000767869 1.58642e-19)
(0.75466 -0.0158727 -5.10014e-20)
(0.840356 -0.0317676 1.48992e-19)
(0.921688 -0.0477704 9.9733e-20)
(0.997059 -0.062987 2.41275e-20)
(1.06403 -0.0743078 -1.08288e-20)
(0.370692 0.0368304 9.82701e-20)
(0.454872 0.0302483 -1.97201e-19)
(0.541493 0.020803 9.74692e-21)
(0.62925 0.00905087 -8.69912e-20)
(0.716724 -0.00438029 -2.23488e-19)
(0.802401 -0.0187883 -7.70005e-20)
(0.884741 -0.0335383 -1.342e-19)
(0.962135 -0.0477402 2.31568e-20)
(1.03186 -0.0579351 -8.68784e-20)
(0.194938 0.0398483 2.32996e-19)
(0.266083 0.041658 -7.36865e-20)
(0.34241 0.0399162 -1.54486e-20)
(0.422921 0.0349911 -1.76374e-20)
(0.506524 0.0272921 -7.70531e-20)
(0.592022 0.0172858 -1.87978e-19)
(0.678107 0.00552088 5.09544e-20)
(0.763355 -0.00736125 1.61847e-19)
(0.846305 -0.0207711 1.9105e-20)
(0.92537 -0.0338202 -1.99814e-20)
(0.997546 -0.0426912 -1.69813e-19)
(0.116183 0.0332113 -1.28439e-19)
(0.176274 0.0394249 9.86893e-20)
(0.242741 0.0422244 -1.35053e-19)
(0.314769 0.0417768 1.43711e-19)
(0.391447 0.0383586 4.10134e-20)
(0.471788 0.0322889 -4.10203e-21)
(0.554712 0.0239482 1.64096e-19)
(0.63903 0.0138069 -7.91229e-20)
(0.723439 0.00244743 2.13508e-19)
(0.806589 -0.00958271 -9.95605e-20)
(0.886957 -0.0213903 5.90008e-20)
(0.961272 -0.0287889 4.03729e-19)
(0.0553326 0.0218617 3.14097e-20)
(0.103176 0.0316386 3.75191e-19)
(0.158395 0.0382386 -1.23707e-19)
(0.220218 0.0418298 2.91976e-19)
(0.287898 0.0424961 -7.77312e-20)
(0.36061 0.0404266 -1.18844e-19)
(0.43747 0.035854 2.48202e-19)
(0.51752 0.0290742 1.44386e-19)
(0.599707 0.0204808 -1.0048e-19)
(0.682868 0.0105969 -1.21267e-19)
(0.7658 -6.76769e-05 1.57743e-19)
(0.847092 -0.0106056 -2.38718e-19)
(0.923223 -0.0164484 -3.60252e-19)
(0.0136706 0.00696123 2.23838e-20)
(0.0478677 0.0201133 1.64028e-19)
(0.0908756 0.0295817 -9.83958e-20)
(0.141362 0.036373 -3.11395e-20)
(0.198601 0.0405676 -1.40048e-19)
(0.261912 0.0421708 -2.2336e-19)
(0.330552 0.0412884 2.35217e-19)
(0.403739 0.0380695 -2.03069e-19)
(0.480637 0.032727 1.29393e-19)
(0.56034 0.0255759 1.28332e-20)
(0.641844 0.0170778 9.32928e-20)
(0.724134 0.00770605 -6.19003e-20)
(0.805961 -0.00160738 1.48992e-19)
(0.883598 -0.00589456 -9.7115e-20)
(0.0113049 0.00611113 -2.29819e-20)
(0.0409083 0.0181239 1.5259e-19)
(0.0793132 0.0271107 -2.28152e-19)
(0.125225 0.0339167 3.01271e-19)
(0.177966 0.038539 -1.44441e-19)
(0.236914 0.040909 2.81964e-19)
(0.301403 0.0410533 1.49726e-19)
(0.370749 0.03904 1.62631e-19)
(0.444238 0.0349985 -1.34024e-19)
(0.521112 0.0291611 -2.36967e-19)
(0.600547 0.02192 4.95713e-22)
(0.681756 0.0137076 4.90624e-20)
(0.763722 0.00548615 -1.78094e-19)
(0.842579 0.00264511 5.39329e-19)
(0.00913546 0.00520133 -1.37015e-19)
(0.0344643 0.0159408 4.86784e-20)
(0.0685119 0.0242978 5.96811e-20)
(0.110027 0.0309615 -2.55881e-21)
(0.158376 0.035851 -6.92848e-21)
(0.212991 0.0388287 1.28899e-19)
(0.273278 0.0398457 -2.51952e-19)
(0.338643 0.0388914 2.56988e-20)
(0.408485 0.0360105 2.99441e-20)
(0.482192 0.0313451 5.48899e-20)
(0.559136 0.0252031 -3.52223e-19)
(0.638795 0.0179593 9.08786e-20)
(0.720475 0.0105955 -3.05641e-19)
(0.800308 0.0089437 -1.98866e-19)
(0.00716253 0.00424913 2.05779e-20)
(0.0285413 0.0136113 -9.84578e-20)
(0.0584876 0.0212155 -1.70229e-21)
(0.0957992 0.0276011 4.90596e-20)
(0.139883 0.0326148 1.27305e-19)
(0.190222 0.0360549 -2.04826e-19)
(0.246283 0.0378018 1.75168e-19)
(0.307551 0.0377689 -2.00664e-19)
(0.373527 0.0359146 1.07897e-20)
(0.443735 0.0322816 -1.67552e-20)
(0.51774 0.0270694 2.06407e-19)
(0.595324 0.0205613 4.62148e-20)
(0.676228 0.0137114 1.15074e-19)
(0.756838 0.0127859 -2.72306e-19)
(0.005385 0.00327161 2.98902e-20)
(0.0231407 0.0111822 8.65898e-21)
(0.0492497 0.0179361 -1.62589e-19)
(0.0825636 0.0239297 -1.34952e-19)
(0.122528 0.0289434 -9.13019e-20)
(0.16867 0.0327171 1.48344e-19)
(0.22051 0.0350665 1.82091e-19)
(0.277596 0.0358329 -1.59487e-19)
(0.339511 0.0348897 -1.69069e-19)
(0.405892 0.0321704 -9.4583e-20)
(0.476478 0.0277366 1.33635e-19)
(0.551362 0.0217246 -5.05084e-20)
(0.63084 0.0149446 7.8403e-20)
(0.712054 0.0139947 5.16291e-19)
(0.00380039 0.0022854 2.5986e-19)
(0.0182596 0.00869918 -1.74201e-20)
(0.0408007 0.01453 -6.27142e-21)
(0.0703343 0.0200398 1.00091e-19)
(0.106344 0.0249487 -9.87047e-20)
(0.148393 0.0289453 -1.96179e-19)
(0.196046 0.0317875 -1.75544e-19)
(0.248898 0.0332526 2.88857e-19)
(0.306591 0.0331345 -8.80439e-20)
(0.368831 0.0312547 -4.73148e-20)
(0.43548 0.0275093 -3.08718e-20)
(0.506873 0.0218131 3.87883e-20)
(0.583924 0.0145859 6.46639e-20)
(0.665459 0.0123851 -4.15944e-19)
(0.00240478 0.00130649 6.68144e-20)
(0.0138911 0.00620596 -2.71312e-19)
(0.0331367 0.0110652 2.15338e-19)
(0.0591168 0.0160203 -6.05249e-20)
(0.0913508 0.0207387 5.39761e-20)
(0.129435 0.0248652 8.43247e-20)
(0.172968 0.0281091 -1.03161e-19)
(0.221579 0.0301957 -2.34015e-19)
(0.274934 0.0308538 1.33855e-19)
(0.332765 0.0298073 9.91172e-21)
(0.394952 0.0267872 -1.43377e-19)
(0.461863 0.0214373 -7.36577e-20)
(0.534805 0.0133337 6.74876e-21)
(0.615506 0.00772086 5.81329e-19)
(0.0011928 0.000349897 -6.1335e-20)
(0.0100241 0.00374377 6.88316e-20)
(0.0262471 0.00760539 -1.17278e-20)
(0.0489076 0.0119552 6.66313e-20)
(0.0775605 0.0164149 6.78721e-20)
(0.111832 0.020594 2.2757e-19)
(0.151348 0.0241644 1.19602e-20)
(0.195759 0.0268144 1.57903e-19)
(0.244738 0.028233 2.1345e-19)
(0.29799 0.0280886 1.9175e-20)
(0.355301 0.026022 1.02474e-19)
(0.416705 0.02156 -1.07858e-19)
(0.483154 0.0132368 -5.92248e-19)
(0.559308 0.00215608 -2.20843e-19)
(0.000157579 -0.00057049 -1.24892e-19)
(0.00664332 0.00135069 7.55346e-20)
(0.0201149 0.00420953 1.20161e-19)
(0.0396943 0.00792124 1.1334e-19)
(0.064973 0.0120697 -1.06999e-19)
(0.0956059 0.0162369 -2.44635e-19)
(0.131244 0.0200681 4.38279e-19)
(0.171554 0.0232306 -1.32649e-19)
(0.216209 0.0254018 -1.71432e-19)
(0.26488 0.0262514 -1.69432e-20)
(0.317216 0.0254629 3.5342e-20)
(0.372686 0.0228842 5.45524e-19)
(0.43104 0.0174768 4.511e-20)
(0.495269 0.0065741 -2.06234e-19)
(-0.000709204 -0.00144222 1.42035e-20)
(0.00372954 -0.000938932 -8.98791e-20)
(0.0147165 0.000930742 -1.70162e-19)
(0.0314554 0.0039878 9.80272e-21)
(0.0535761 0.00778518 -5.9617e-20)
(0.0807628 0.0118848 -6.22744e-20)
(0.112693 0.0159136 -1.52507e-19)
(0.149054 0.0195294 -1.41802e-19)
(0.189528 0.0224143 1.33196e-19)
(0.233784 0.024266 1.48156e-20)
(0.281442 0.0248359 2.77886e-20)
(0.331847 0.0241925 -4.12428e-19)
(0.385021 0.0217272 3.50942e-19)
(0.445426 0.0130509 1.2939e-19)
(-0.00141724 -0.00225441 1.15772e-19)
(0.00125962 -0.00309471 -1.88633e-19)
(0.0100217 -0.00218384 1.46608e-19)
(0.0241598 0.000216088 -1.92033e-19)
(0.0433442 0.00363351 -1.25351e-20)
(0.0672906 0.00761576 -2.21062e-19)
(0.0957064 0.0117771 1.43345e-19)
(0.128305 0.0157705 -5.94594e-20)
(0.164795 0.0192839 -2.26465e-19)
(0.204871 0.0220347 1.36763e-19)
(0.248204 0.0237937 -6.05868e-20)
(0.294214 0.0246084 5.90237e-20)
(0.343177 0.0238092 -2.70116e-19)
(0.399294 0.0163061 2.78101e-20)
(-0.00197741 -0.00299778 -1.03748e-19)
(-0.000792955 -0.00509038 2.0019e-19)
(0.00599462 -0.00509317 -8.0414e-20)
(0.0177675 -0.00334037 5.29851e-20)
(0.0342387 -0.000322482 7.29049e-20)
(0.0551582 0.00349737 2.03226e-19)
(0.0802664 0.00772372 -2.35003e-19)
(0.109309 0.0120044 1.92031e-19)
(0.142028 0.0160266 -5.22389e-21)
(0.178162 0.0195051 -7.59932e-20)
(0.21744 0.022181 2.7119e-19)
(0.25936 0.0239535 -5.95588e-20)
(0.304221 0.0238822 -5.43837e-20)
(0.355507 0.0168046 -8.92368e-20)
(-0.00240151 -0.00366469 -1.45364e-19)
(-0.00245762 -0.00690378 1.62767e-20)
(0.00259413 -0.00776209 1.4099e-19)
(0.0122304 -0.00663533 1.33062e-20)
(0.0262093 -0.004028 -2.52151e-20)
(0.0443168 -0.000410642 2.20903e-19)
(0.0663293 0.00381285 5.82297e-20)
(0.0920281 0.00828332 -2.01267e-19)
(0.121192 0.0126787 1.18428e-19)
(0.153606 0.016694 -1.50584e-19)
(0.189046 0.0200145 -4.88756e-20)
(0.227061 0.0223757 1.39397e-19)
(0.267896 0.0226272 2.05229e-20)
(0.314369 0.0159387 4.56553e-23)
(-0.00270206 -0.00424904 7.89016e-20)
(-0.00376605 -0.00851663 -3.17203e-20)
(-0.000225214 -0.0101611 -2.42568e-19)
(0.00749359 -0.00962926 4.47324e-20)
(0.019195 -0.00743532 -1.56165e-19)
(0.0347029 -0.00405469 -1.2871e-19)
(0.0538313 0.000101136 1.11718e-19)
(0.0763977 0.00466411 6.35922e-20)
(0.102219 0.0092975 5.365e-20)
(0.13112 0.0136676 1.52733e-19)
(0.162911 0.0174001 9.12201e-20)
(0.197174 0.0200985 9.95378e-21)
(0.234083 0.0205261 -1.36324e-19)
(0.275899 0.0143979 1.71889e-19)
(-0.00289194 -0.00474617 -6.69012e-20)
(-0.00475148 -0.00991439 8.10549e-20)
(-0.00251201 -0.0122659 1.11518e-19)
(0.00349691 -0.0122889 -1.03034e-19)
(0.0131274 -0.0105031 -1.31183e-20)
(0.0262421 -0.00738647 1.9968e-20)
(0.042693 -0.003357 -1.96849e-19)
(0.0623339 0.00120774 -2.5833e-20)
(0.0850168 0.00595446 8.20492e-20)
(0.110599 0.0105202 2.92803e-20)
(0.138915 0.0144809 -1.14068e-19)
(0.16957 0.0173516 3.46072e-20)
(0.202667 0.0179095 1.19615e-19)
(0.240018 0.0124918 1.23318e-19)
(-0.00298419 -0.00515269 -4.15082e-20)
(-0.00544804 -0.0110859 2.03988e-20)
(-0.00431695 -0.0140571 1.2023e-20)
(0.000176528 -0.0145868 4.25019e-20)
(0.00793226 -0.013196 -4.59713e-20)
(0.0188518 -0.0103628 -6.94801e-20)
(0.032825 -0.00650992 1.55953e-20)
(0.0497402 -0.00202336 -1.47084e-20)
(0.0694811 0.00272845 -5.57549e-20)
(0.091931 0.00735851 4.90639e-20)
(0.116942 0.0114093 -1.70822e-20)
(0.144134 0.0143496 -1.41524e-19)
(0.173555 0.0150358 1.18671e-19)
(0.206667 0.0104168 -3.66417e-20)
(-0.00299177 -0.00546636 1.37492e-19)
(-0.00589012 -0.0120232 -3.46968e-20)
(-0.00569174 -0.0155203 -3.16796e-19)
(-0.00253341 -0.0165012 1.37374e-19)
(0.00353214 -0.0154848 1.10377e-19)
(0.012445 -0.0129462 6.48618e-20)
(0.0241319 -0.00931015 1.71109e-19)
(0.0385136 -0.00496869 2.85756e-19)
(0.0555023 -0.000301308 -1.81398e-19)
(0.0750024 0.00428933 -3.49859e-20)
(0.0968776 0.00833007 1.02177e-19)
(0.120765 0.0112778 -2.29625e-20)
(0.146672 0.0121044 -1.6586e-19)
(0.175788 0.00831331 1.26464e-19)
(-0.00292743 -0.00568595 -2.8061e-21)
(-0.00611185 -0.0127212 -9.98036e-20)
(-0.00668818 -0.0166452 2.27234e-19)
(-0.00469937 -0.0180161 -1.54838e-20)
(-0.000151643 -0.0173465 -7.52668e-20)
(0.00693272 -0.0151052 -1.20087e-19)
(0.016516 -0.011716 2.39132e-20)
(0.0285495 -0.00757298 -2.02323e-19)
(0.0429702 -0.00306113 -1.20385e-19)
(0.0597006 0.00141068 -2.13649e-19)
(0.0786137 0.00536968 -7.85595e-21)
(0.0993681 0.00828617 1.73589e-19)
(0.121942 0.00926172 -3.53357e-21)
(0.147313 0.00627989 -4.49785e-19)
(-0.00280352 -0.00581122 -6.22669e-20)
(-0.00614666 -0.0131777 -6.65283e-20)
(-0.00735731 -0.017426 -2.61786e-19)
(-0.00638716 -0.0191209 3.33125e-20)
(-0.00319726 -0.0187643 1.69062e-19)
(0.00222654 -0.0168156 1.40177e-19)
(0.00988044 -0.0136932 -6.50419e-20)
(0.019744 -0.00978895 1.66332e-19)
(0.031777 -0.00548713 -8.84967e-21)
(0.0459173 -0.00119362 -5.9736e-20)
(0.0620475 0.00263219 1.14756e-19)