/*--------------------------------*- C++ -*----------------------------------*\
  =========                 |
  \\      /  F ield         | OpenFOAM: The Open Source CFD Toolbox
   \\    /   O peration     | Website:  https://openfoam.org
    \\  /    A nd           | Version:  7
     \\/     M anipulation  |
\*---------------------------------------------------------------------------*/
FoamFile
{
    version     2.0;
    format      ascii;
    class       volScalarField;
    location    "30";
    object      p;
}
// * * * * * * * * * * * * * * * * * * * * * * * * * * * * * * * * * * * * * //

dimensions      [0 2 -2 0 0 0 0];

internalField   nonuniform List<scalar> 
8500
(
-0.324963
-0.327584
-0.326373
-0.330356
-0.328975
-0.3274
-0.333287
-0.331721
-0.329993
-0.336383
-0.334618
-0.332728
-0.33046
-0.339649
-0.337672
-0.33561
-0.333168
-0.330439
-0.343091
-0.340886
-0.338645
-0.336022
-0.333114
-0.330039
-0.346714
-0.344265
-0.341838
-0.339027
-0.335935
-0.332683
-0.329344
-0.350519
-0.347814
-0.345191
-0.342187
-0.338906
-0.335473
-0.331959
-0.328414
-0.354511
-0.351535
-0.34871
-0.345507
-0.342033
-0.338415
-0.33472
-0.330992
-0.32724
-0.358691
-0.355429
-0.352395
-0.348989
-0.345318
-0.34151
-0.337629
-0.333707
-0.329746
-0.32571
-0.363059
-0.359499
-0.35625
-0.352636
-0.348763
-0.344761
-0.340686
-0.336559
-0.332371
-0.328072
-0.323591
-0.367614
-0.363744
-0.360274
-0.356448
-0.35237
-0.348169
-0.34389
-0.339545
-0.335108
-0.330518
-0.325694
-0.320546
-0.315001
-0.372354
-0.368162
-0.364467
-0.360426
-0.356139
-0.351733
-0.34724
-0.342659
-0.33795
-0.333037
-0.327832
-0.322247
-0.316215
-0.309709
-0.377276
-0.372752
-0.368827
-0.364569
-0.360069
-0.355449
-0.350731
-0.345895
-0.340885
-0.335615
-0.32999
-0.323927
-0.317372
-0.31032
-0.302811
-0.382374
-0.377509
-0.373351
-0.368873
-0.364155
-0.359315
-0.354355
-0.349241
-0.3439
-0.338235
-0.332149
-0.325568
-0.318457
-0.310835
-0.302769
-0.294364
-0.285729
-0.38764
-0.382426
-0.378035
-0.373334
-0.368394
-0.363323
-0.358105
-0.352686
-0.346979
-0.340879
-0.33429
-0.327151
-0.319452
-0.311239
-0.302605
-0.29368
-0.284585
-0.275497
-0.393067
-0.387497
-0.38287
-0.377945
-0.372778
-0.367464
-0.361968
-0.356215
-0.350105
-0.343526
-0.336391
-0.328657
-0.32034
-0.311518
-0.302312
-0.292866
-0.283319
-0.273841
-0.264374
-0.255615
-0.398642
-0.392712
-0.387849
-0.382697
-0.377297
-0.371727
-0.365929
-0.35981
-0.353256
-0.346154
-0.33843
-0.330065
-0.321106
-0.311662
-0.301878
-0.291918
-0.281927
-0.27207
-0.262303
-0.253259
-0.404351
-0.398059
-0.39296
-0.387581
-0.381939
-0.376097
-0.369972
-0.36345
-0.356409
-0.34874
-0.340385
-0.331355
-0.321732
-0.311656
-0.301295
-0.290827
-0.280402
-0.270175
-0.260117
-0.250796
-0.41018
-0.403524
-0.398191
-0.392583
-0.386691
-0.380558
-0.374076
-0.367113
-0.35954
-0.351257
-0.342231
-0.332507
-0.322203
-0.311488
-0.300555
-0.289587
-0.278738
-0.268153
-0.25781
-0.24822
-0.41611
-0.409091
-0.403526
-0.397686
-0.391534
-0.38509
-0.378218
-0.370773
-0.362621
-0.35368
-0.343946
-0.333502
-0.322503
-0.311149
-0.299647
-0.288189
-0.276929
-0.265995
-0.255377
-0.245524
-0.422121
-0.414741
-0.408947
-0.402873
-0.396449
-0.38967
-0.382374
-0.374401
-0.365624
-0.355981
-0.345506
-0.33432
-0.322618
-0.310625
-0.298563
-0.286628
-0.274967
-0.263696
-0.252809
-0.242702
-0.428189
-0.420453
-0.414433
-0.408122
-0.401413
-0.394272
-0.386514
-0.377969
-0.368519
-0.358134
-0.346886
-0.334942
-0.322532
-0.309905
-0.297295
-0.284894
-0.272845
-0.261249
-0.250103
-0.239747
-0.434289
-0.426204
-0.419963
-0.41341
-0.406399
-0.398868
-0.390608
-0.381444
-0.371276
-0.360111
-0.348065
-0.33535
-0.322232
-0.30898
-0.295833
-0.282981
-0.270557
-0.258647
-0.24725
-0.236653
-0.440392
-0.431968
-0.425508
-0.418709
-0.411379
-0.403427
-0.394622
-0.384793
-0.373864
-0.361883
-0.349018
-0.335526
-0.321704
-0.307837
-0.294169
-0.280881
-0.268096
-0.255883
-0.244245
-0.233414
-0.446469
-0.437716
-0.431043
-0.423991
-0.416323
-0.407916
-0.398523
-0.387982
-0.376251
-0.363425
-0.349725
-0.335453
-0.320934
-0.306467
-0.292293
-0.278585
-0.265453
-0.25295
-0.241081
-0.230024
-0.452486
-0.443418
-0.436535
-0.429224
-0.421195
-0.412298
-0.402274
-0.390977
-0.378405
-0.364708
-0.350163
-0.335114
-0.31991
-0.304859
-0.290197
-0.276085
-0.262621
-0.249841
-0.237752
-0.226478
-0.458408
-0.449039
-0.441952
-0.434373
-0.42596
-0.416537
-0.405838
-0.393741
-0.380295
-0.365708
-0.350313
-0.334492
-0.318619
-0.303002
-0.287871
-0.273374
-0.259592
-0.246549
-0.234251
-0.222769
-0.464198
-0.454545
-0.447257
-0.439401
-0.430579
-0.420592
-0.409175
-0.39624
-0.38189
-0.366399
-0.350153
-0.333574
-0.317048
-0.300886
-0.285307
-0.270442
-0.256359
-0.243067
-0.230572
-0.218892
-0.469816
-0.459897
-0.452414
-0.444269
-0.435012
-0.424423
-0.412247
-0.398437
-0.38316
-0.366757
-0.349667
-0.332344
-0.315187
-0.298502
-0.282495
-0.267282
-0.252915
-0.239389
-0.226709
-0.214842
-0.475222
-0.465058
-0.457382
-0.448937
-0.439218
-0.427989
-0.415014
-0.400297
-0.384076
-0.366758
-0.348834
-0.330787
-0.313022
-0.295839
-0.279426
-0.263886
-0.249251
-0.235507
-0.222656
-0.210614
-0.480374
-0.469984
-0.46212
-0.453362
-0.443153
-0.431248
-0.417438
-0.401788
-0.384609
-0.36638
-0.347638
-0.32889
-0.310544
-0.292887
-0.276093
-0.260245
-0.245361
-0.231415
-0.218406
-0.206202
-0.485226
-0.474635
-0.466585
-0.4575
-0.446773
-0.434157
-0.419479
-0.402874
-0.384734
-0.365602
-0.346063
-0.32664
-0.307741
-0.289638
-0.272486
-0.256351
-0.241238
-0.227107
-0.213955
-0.201601
-0.489737
-0.478967
-0.470733
-0.461308
-0.450035
-0.436674
-0.4211
-0.403526
-0.384423
-0.364405
-0.344093
-0.324025
-0.304602
-0.286081
-0.268597
-0.252198
-0.236874
-0.222577
-0.209297
-0.196808
-0.493858
-0.482934
-0.474519
-0.464738
-0.452893
-0.438757
-0.422265
-0.403711
-0.383654
-0.362769
-0.341713
-0.321033
-0.301119
-0.282208
-0.264418
-0.247778
-0.232264
-0.217819
-0.204427
-0.191819
-0.497545
-0.486493
-0.477898
-0.467747
-0.455303
-0.440367
-0.422937
-0.403402
-0.382403
-0.360677
-0.338911
-0.317653
-0.29728
-0.278011
-0.259942
-0.243085
-0.227401
-0.212828
-0.199341
-0.186628
-0.500751
-0.489597
-0.480825
-0.470288
-0.457223
-0.441462
-0.423084
-0.402571
-0.38065
-0.358114
-0.335673
-0.313874
-0.293078
-0.273482
-0.255161
-0.238111
-0.22228
-0.207598
-0.194033
-0.181234
-0.503433
-0.492202
-0.483253
-0.472317
-0.45861
-0.442007
-0.422674
-0.401193
-0.378375
-0.355064
-0.331988
-0.309688
-0.288504
-0.268613
-0.250068
-0.232851
-0.216896
-0.202127
-0.188501
-0.175633
-0.505544
-0.494263
-0.485139
-0.473791
-0.459422
-0.441964
-0.421677
-0.399245
-0.375562
-0.351514
-0.327845
-0.305084
-0.283551
-0.263397
-0.244658
-0.2273
-0.211243
-0.196408
-0.182741
-0.169822
-0.507042
-0.495737
-0.486438
-0.474666
-0.459621
-0.441299
-0.420065
-0.396706
-0.372193
-0.347453
-0.323235
-0.300056
-0.27821
-0.257829
-0.238926
-0.221452
-0.205318
-0.19044
-0.176751
-0.163799
-0.507883
-0.49658
-0.487109
-0.474902
-0.459169
-0.439982
-0.417813
-0.393557
-0.368254
-0.342869
-0.31815
-0.294595
-0.272477
-0.251902
-0.232865
-0.215303
-0.199117
-0.184218
-0.170527
-0.157563
-0.508027
-0.496753
-0.48711
-0.47446
-0.458032
-0.437983
-0.4149
-0.38978
-0.363735
-0.337753
-0.312581
-0.288696
-0.266346
-0.245612
-0.226473
-0.208851
-0.192637
-0.177741
-0.164068
-0.151112
-0.507435
-0.496216
-0.486403
-0.473304
-0.456177
-0.435275
-0.411304
-0.385362
-0.358623
-0.332097
-0.306523
-0.282355
-0.259812
-0.238956
-0.219746
-0.202092
-0.185876
-0.171007
-0.157373
-0.144445
-0.50607
-0.494931
-0.48495
-0.471398
-0.453575
-0.431835
-0.407007
-0.38029
-0.35291
-0.325896
-0.299971
-0.275565
-0.252872
-0.231929
-0.21268
-0.195023
-0.178832
-0.164015
-0.150443
-0.137566
-0.503898
-0.492864
-0.482718
-0.468712
-0.450199
-0.427643
-0.401997
-0.374553
-0.34659
-0.319144
-0.292921
-0.268325
-0.245523
-0.22453
-0.205275
-0.187644
-0.171504
-0.156763
-0.143281
-0.130479
-0.500888
-0.489983
-0.479677
-0.465218
-0.446025
-0.42268
-0.396259
-0.368144
-0.339657
-0.311837
-0.285371
-0.260632
-0.237763
-0.216757
-0.197529
-0.179953
-0.16389
-0.149251
-0.135882
-0.12317
-0.497011
-0.486258
-0.475796
-0.460891
-0.441035
-0.416932
-0.389784
-0.361057
-0.332109
-0.303974
-0.277319
-0.252486
-0.229592
-0.208611
-0.189442
-0.171952
-0.155992
-0.141479
-0.12823
-0.115573
-0.492242
-0.481664
-0.471053
-0.455708
-0.43521
-0.410388
-0.382566
-0.353289
-0.323942
-0.295555
-0.268765
-0.243887
-0.221011
-0.200091
-0.181015
-0.163641
-0.147813
-0.133451
-0.120317
-0.10765
-0.486558
-0.476179
-0.465424
-0.449652
-0.428537
-0.40304
-0.374601
-0.344838
-0.315159
-0.28658
-0.259711
-0.234836
-0.21202
-0.1912
-0.172251
-0.155022
-0.139355
-0.125169
-0.11219
-0.0997406
-0.479942
-0.469781
-0.458893
-0.442707
-0.421006
-0.394881
-0.365886
-0.335705
-0.305761
-0.277052
-0.25016
-0.225336
-0.202623
-0.18194
-0.163152
-0.146099
-0.130619
-0.116637
-0.103833
-0.0916273
-0.472378
-0.462457
-0.451444
-0.434864
-0.412611
-0.385909
-0.356424
-0.325894
-0.295752
-0.266976
-0.240115
-0.215392
-0.192824
-0.172316
-0.153722
-0.136876
-0.121614
-0.107857
-0.0952594
-0.0832931
-0.463854
-0.454193
-0.443067
-0.426114
-0.403349
-0.376126
-0.346217
-0.315409
-0.285138
-0.256357
-0.229582
-0.205007
-0.182627
-0.162331
-0.143965
-0.127357
-0.112341
-0.0988347
-0.0864681
-0.0747473
-0.454364
-0.444981
-0.433756
-0.416454
-0.393219
-0.365535
-0.335272
-0.304258
-0.273927
-0.245203
-0.218568
-0.194189
-0.172038
-0.151992
-0.133887
-0.117547
-0.102804
-0.089576
-0.0774619
-0.0660007
-0.443904
-0.434817
-0.423506
-0.405884
-0.382226
-0.354144
-0.323597
-0.292451
-0.262127
-0.233521
-0.207081
-0.182945
-0.161065
-0.141306
-0.123496
-0.107453
-0.0930104
-0.080086
-0.0682452
-0.0570617
-0.432472
-0.4237
-0.412319
-0.394407
-0.370376
-0.34196
-0.311204
-0.279997
-0.249749
-0.221323
-0.195131
-0.171284
-0.149717
-0.13028
-0.112798
-0.0970825
-0.082967
-0.0703708
-0.0588241
-0.047938
-0.420074
-0.411633
-0.400199
-0.382032
-0.357679
-0.328997
-0.298105
-0.266912
-0.236807
-0.20862
-0.182728
-0.159217
-0.138001
-0.118924
-0.101801
-0.0864429
-0.0726815
-0.0604376
-0.0492054
-0.0386368
-0.406717
-0.398622
-0.387155
-0.368767
-0.344149
-0.31527
-0.284316
-0.253209
-0.223314
-0.195425
-0.169885
-0.146753
-0.12593
-0.107248
-0.0905167
-0.0755435
-0.0621624
-0.0502944
-0.0393969
-0.0291662
-0.392411
-0.384678
-0.373197
-0.354628
-0.329802
-0.300796
-0.269855
-0.238906
-0.209287
-0.181752
-0.156615
-0.133907
-0.113515
-0.0952618
-0.0789537
-0.0643943
-0.0514192
-0.03995
-0.0294072
-0.0195342
-0.377172
-0.369816
-0.358342
-0.339631
-0.314656
-0.285594
-0.254742
-0.224022
-0.194741
-0.167619
-0.142932
-0.120691
-0.100768
-0.0829785
-0.067124
-0.0530058
-0.040462
-0.029414
-0.0192453
-0.00974977
-0.361018
-0.354051
-0.342607
-0.323798
-0.298734
-0.269688
-0.238997
-0.208576
-0.179697
-0.153041
-0.128852
-0.107121
-0.0877041
-0.0704107
-0.0550397
-0.0413898
-0.0293018
-0.0186969
-0.0089215
0.000177388
-0.34397
-0.337407
-0.326016
-0.307151
-0.282061
-0.253104
-0.222644
-0.19259
-0.164175
-0.138037
-0.114393
-0.0932111
-0.0743366
-0.0575722
-0.0427138
-0.0295587
-0.0179506
-0.00780988
0.00155354
0.0102368
-0.326054
-0.319906
-0.308592
-0.289717
-0.264665
-0.235868
-0.205706
-0.176089
-0.148196
-0.122628
-0.0995732
-0.0789792
-0.0606817
-0.0444776
-0.0301602
-0.0175255
-0.00642089
0.00323514
0.0121681
0.0204168
-0.307299
-0.301576
-0.290365
-0.271526
-0.246573
-0.217999
-0.188219
-0.159097
-0.131782
-0.106834
-0.0844108
-0.0644428
-0.0467559
-0.0311424
-0.0173934
-0.00530423
0.005274
0.0144254
0.0229098
0.0307044
-0.287733
-0.282449
-0.271365
-0.252611
-0.227816
-0.199536
-0.170204
-0.141641
-0.114959
-0.0906771
-0.0689265
-0.0496206
-0.0325764
-0.0175826
-0.00442855
0.00709076
0.0171201
0.0257477
0.0337653
-0.267392
-0.262556
-0.251627
-0.233006
-0.208423
-0.180515
-0.151692
-0.123749
-0.0977506
-0.0741805
-0.0531415
-0.034532
-0.0181614
-0.00381517
0.0087186
0.0196445
0.0291028
0.037188
-0.246311
-0.241936
-0.231187
-0.212736
-0.188442
-0.160965
-0.132716
-0.105449
-0.0801845
-0.0573683
-0.0370779
-0.0191974
-0.00352951
0.0101427
0.0220319
0.0323415
0.0412071
-0.224528
-0.220626
-0.210087
-0.191844
-0.167904
-0.140923
-0.113308
-0.0867711
-0.0622878
-0.0402657
-0.0207587
-0.00363785
0.0112998
0.024273
0.0354948
0.0451663
-0.202082
-0.198669
-0.18835
-0.170389
-0.146849
-0.120424
-0.0935015
-0.0677472
-0.0440889
-0.0228986
-0.00420769
0.0121248
0.0263065
0.0385575
0.0490907
0.0581034
-0.179009
-0.176116
-0.166038
-0.148398
-0.125317
-0.0995078
-0.073333
-0.0484092
-0.0256172
-0.00529395
0.0125506
0.028068
0.0414701
0.0529776
0.0628026
-0.155355
-0.153017
-0.143197
-0.125917
-0.10335
-0.0782133
-0.0528382
-0.0287902
-0.0069029
0.0125207
0.0294907
0.0441686
0.0567695
0.0675142
-0.131218
-0.129381
-0.119869
-0.102991
-0.0809907
-0.0565806
-0.0320541
-0.00892416
0.012023
0.030517
0.0465869
0.0604029
0.0721829
0.0821479
-0.106629
-0.105265
-0.0961013
-0.0796683
-0.0582843
-0.0346511
-0.0110188
0.0111543
0.0311288
0.0486659
0.0638124
0.0767464
0.0876881
-0.0816135
-0.0807381
-0.0719441
-0.0559957
-0.0352759
-0.0124668
0.0102292
0.0314099
0.0503822
0.0669377
0.08114
0.0931741
0.103262
-0.0562277
-0.0558532
-0.0474479
-0.0320224
-0.0120116
0.00992966
0.0316506
0.0518067
0.0697502
0.0853023
0.0985419
0.10966
-0.030526
-0.0306595
-0.0226633
-0.0077974
0.0114621
0.0324949
0.0532058
0.0723082
0.0891996
0.103729
0.11599
-0.0045645
-0.00521092
0.0023565
0.0166284
0.0350978
0.0551852
0.0748544
0.0928777
0.108697
0.122187
0.133455
0.0216006
0.0204383
0.0275581
0.0412041
0.0588476
0.0779564
0.096556
0.113478
0.128207
0.140644
0.0479129
0.0462333
0.0528876
0.0658783
0.0826635
0.100764
0.11827
0.134072
0.147697
0.15907
0.0743159
0.0721184
0.0782909
0.0905994
0.106497
0.123564
0.139955
0.154622
0.167131
0.177432
0.100752
0.0980378
0.103713
0.115316
0.130301
0.146311
0.161571
0.175091
0.186476
0.127165
0.123935
0.129101
0.139975
0.154026
0.168961
0.183077
0.195441
0.205698
0.153498
0.149755
0.154399
0.164527
0.177624
0.19147
0.204432
0.215635
0.179693
0.175441
0.179553
0.188919
0.201048
0.213795
0.225597
0.235636
0.205694
0.200937
0.20451
0.213101
0.224251
0.23589
0.24653
0.231444
0.226189
0.229215
0.237023
0.247185
0.257714
0.267193
0.256889
0.251141
0.253617
0.260634
0.269804
0.279223
0.287546
0.281972
0.27574
0.277663
0.283885
0.292064
0.300377
0.306641
0.299932
0.301303
0.306729
0.313918
0.321133
0.330842
0.323666
0.324485
0.329118
0.335325
0.341452
0.354522
0.346889
0.347161
0.351006
0.35624
0.377632
0.369553
0.369282
0.372347
0.376621
0.400121
0.391608
0.390802
0.393099
0.39643
0.421941
0.413008
0.411676
0.413218
0.415625
0.443046
0.433705
0.43186
0.432662
0.46339
0.453657
0.451311
0.451394
0.482931
0.472821
0.469988
0.469373
0.501625
0.491155
0.487852
0.486564
0.519435
0.50862
0.504866
0.502931
0.536321
0.52518
0.520995
0.552249
0.5408
0.536205
0.567183
0.555446
0.550464
0.581094
0.569088
0.563742
0.593951
0.581696
0.576013
0.605726
0.593244
0.587251
0.616396
0.603707
0.597431
0.625938
0.613064
0.606535
0.634332
0.621295
0.614541
0.641559
0.628382
0.647606
0.634312
0.652458
0.63907
0.656106
0.642648
0.658543
0.645037
0.659762
0.646233
0.659762
0.646233
0.658543
0.645037
0.656107
0.642648
0.652459
0.639071
0.647607
0.634313
0.641561
0.628384
0.634334
0.621297
0.614543
0.625941
0.613066
0.606537
0.616399
0.60371
0.597434
0.605729
0.593247
0.587254
0.593954
0.581699
0.576016
0.581098
0.569091
0.563746
0.567187
0.55545
0.550468
0.552253
0.540805
0.536209
0.536326
0.525185
0.521
0.51944
0.508625
0.504871
0.502936
0.501631
0.49116
0.487857
0.486569
0.482936
0.472826
0.469993
0.469379
0.463396
0.453663
0.451317
0.4514
0.443052
0.433712
0.431866
0.432669
0.421948
0.413015
0.411683
0.413224
0.415631
0.400128
0.391616
0.39081
0.393106
0.396436
0.377639
0.369561
0.36929
0.372355
0.376628
0.35453
0.346897
0.347168
0.351013
0.356247
0.361301
0.33085
0.323674
0.324493
0.329126
0.335332
0.34146
0.30665
0.299941
0.301311
0.306737
0.313926
0.321141
0.281981
0.275749
0.277672
0.283894
0.292072
0.300385
0.256898
0.251151
0.253627
0.260643
0.269813
0.279232
0.287554
0.231454
0.226199
0.229225
0.237032
0.247194
0.257723
0.267201
0.205704
0.200948
0.20452
0.213111
0.22426
0.235899
0.246539
0.179704
0.175452
0.179564
0.18893
0.201058
0.213804
0.225606
0.235645
0.153509
0.149766
0.15441
0.164538
0.177634
0.19148
0.204442
0.215644
0.127177
0.123947
0.129112
0.139987
0.154036
0.168972
0.183087
0.19545
0.205707
0.100764
0.0980499
0.103725
0.115327
0.130312
0.146322
0.161582
0.175101
0.186486
0.0743284
0.0721309
0.0783032
0.0906114
0.106509
0.123575
0.139966
0.154632
0.167141
0.177441
0.0479259
0.0462463
0.0529004
0.0658907
0.0826755
0.100776
0.118281
0.134083
0.147707
0.15908
0.021614
0.0204518
0.0275713
0.041217
0.05886
0.0779683
0.0965674
0.113489
0.128218
0.140654
-0.00455058
-0.005197
0.0023702
0.0166417
0.0351106
0.0551976
0.0748662
0.0928891
0.108707
0.122197
0.133465
-0.0305116
-0.0306451
-0.0226491
-0.00778363
0.0114754
0.0325077
0.053218
0.07232
0.0892109
0.10374
0.116
0.126189
-0.0562129
-0.0558383
-0.0474332
-0.0320081
-0.0119979
0.00994284
0.0316633
0.0518188
0.0697619
0.0853135
0.0985526
0.109671
-0.0815981
-0.0807228
-0.071929
-0.055981
-0.0352617
-0.0124531
0.0102423
0.0314224
0.0503942
0.0669493
0.0811511
0.0931849
0.103273
-0.106613
-0.105249
-0.0960857
-0.0796531
-0.0582697
-0.0346371
-0.0110053
0.0111672
0.0311412
0.0486778
0.0638238
0.0767575
0.0876988
-0.131202
-0.129364
-0.119853
-0.102976
-0.0809756
-0.0565662
-0.0320402
-0.00891086
0.0120358
0.0305293
0.0465987
0.0604143
0.0721938
0.0821584
-0.155338
-0.153
-0.14318
-0.125901
-0.103334
-0.0781984
-0.0528239
-0.0287765
-0.00688976
0.0125333
0.0295029
0.0441803
0.0567807
0.067525
-0.178992
-0.176098
-0.166021
-0.148381
-0.125301
-0.0994925
-0.0733183
-0.0483951
-0.0256037
-0.00528096
0.012563
0.02808
0.0414817
0.0529887
0.0628134
-0.202064
-0.198651
-0.188332
-0.170372
-0.146833
-0.120408
-0.0934863
-0.0677327
-0.044075
-0.0228853
-0.00419485
0.0121371
0.0263184
0.038569
0.0491017
0.058114
-0.22451
-0.220608
-0.210069
-0.191826
-0.167888
-0.140906
-0.113292
-0.0867562
-0.0622735
-0.040252
-0.0207455
-0.00362516
0.011312
0.0242848
0.0355061
0.0451773
0.0534286
-0.246292
-0.241917
-0.231169
-0.212717
-0.188425
-0.160948
-0.1327
-0.105433
-0.0801698
-0.0573542
-0.0370643
-0.0191843
-0.00351698
0.0101547
0.0220435
0.0323527
0.0412179
-0.267373
-0.262537
-0.251608
-0.232988
-0.208405
-0.180498
-0.151676
-0.123733
-0.0977355
-0.074166
-0.0531276
-0.0345186
-0.0181485
-0.00380279
0.00873052
0.0196559
0.0291138
0.0371987
-0.287713
-0.282429
-0.271345
-0.252592
-0.227798
-0.199519
-0.170187
-0.141625
-0.114943
-0.0906622
-0.0689122
-0.0496069
-0.0325632
-0.0175699
-0.00441633
0.00710253
0.0171314
0.0257586
0.0337758
-0.307278
-0.301556
-0.290345
-0.271506
-0.246554
-0.217981
-0.188201
-0.159081
-0.131766
-0.106819
-0.0843962
-0.0644288
-0.0467424
-0.0311294
-0.0173809
-0.00529218
0.00528561
0.0144366
0.0229206
0.0307147
-0.326033
-0.319885
-0.308572
-0.289697
-0.264645
-0.23585
-0.205688
-0.176072
-0.148179
-0.122612
-0.0995582
-0.0789648
-0.0606679
-0.0444643
-0.0301474
-0.0175132
-0.00640901
0.00324658
0.0121791
0.0204273
-0.343949
-0.337385
-0.325995
-0.30713
-0.282041
-0.253085
-0.222626
-0.192573
-0.164158
-0.138021
-0.114378
-0.0931964
-0.0743224
-0.0575585
-0.0427007
-0.0295461
-0.0179385
-0.00779818
0.00156479
0.0102476
-0.360996
-0.354029
-0.342586
-0.323776
-0.298714
-0.269669
-0.238979
-0.208558
-0.17968
-0.153024
-0.128837
-0.107106
-0.0876896
-0.0703967
-0.0550263
-0.0413769
-0.0292894
-0.018685
-0.00891001
0.00018842
-0.377149
-0.369793
-0.35832
-0.339609
-0.314635
-0.285574
-0.254722
-0.224004
-0.194724
-0.167602
-0.142916
-0.120676
-0.100754
-0.0829642
-0.0671103
-0.0529926
-0.0404493
-0.0294018
-0.0192336
-0.0097385
-0.392388
-0.384655
-0.373174
-0.354605
-0.32978
-0.300775
-0.269835
-0.238887
-0.209269
-0.181735
-0.156598
-0.133891
-0.1135
-0.0952472
-0.0789397
-0.0643808
-0.0514062
-0.0399375
-0.0293952
-0.0195227
-0.406693
-0.398599
-0.387131
-0.368744
-0.344127
-0.315249
-0.284296
-0.25319
-0.223296
-0.195407
-0.169868
-0.146737
-0.125915
-0.107233
-0.0905023
-0.0755298
-0.0621492
-0.0502817
-0.0393847
-0.0291544
-0.42005
-0.411609
-0.400176
-0.382008
-0.357657
-0.328976
-0.298084
-0.266892
-0.236788
-0.208602
-0.182711
-0.1592
-0.137986
-0.118909
-0.101787
-0.0864288
-0.072668
-0.0604246
-0.0491929
-0.0386249
-0.432448
-0.423676
-0.412295
-0.394384
-0.370353
-0.341938
-0.311183
-0.279977
-0.24973
-0.221304
-0.195114
-0.171267
-0.1497
-0.130265
-0.112783
-0.0970681
-0.0829532
-0.0703575
-0.0588114
-0.0479258
-0.443879
-0.434792
-0.423481
-0.40586
-0.382202
-0.354121
-0.323576
-0.29243
-0.262107
-0.233502
-0.207063
-0.182928
-0.161049
-0.14129
-0.123481
-0.107439
-0.0929963
-0.0800725
-0.0682323
-0.0570493
-0.454339
-0.444956
-0.43373
-0.41643
-0.393195
-0.365513
-0.33525
-0.304237
-0.273907
-0.245183
-0.21855
-0.194171
-0.172021
-0.151976
-0.133872
-0.117532
-0.10279
-0.0895622
-0.0774486
-0.065988
-0.463829
-0.454167
-0.443042
-0.426089
-0.403325
-0.376103
-0.346195
-0.315388
-0.285118
-0.256338
-0.229563
-0.204989
-0.18261
-0.162314
-0.143949
-0.127341
-0.112326
-0.0988206
-0.0864546
-0.0747344
-0.472351
-0.46243
-0.451418
-0.434838
-0.412587
-0.385885
-0.356401
-0.325872
-0.295731
-0.266956
-0.240096
-0.215373
-0.192806
-0.172299
-0.153705
-0.13686
-0.121599
-0.107842
-0.0952456
-0.0832799
-0.479915
-0.469754
-0.458866
-0.442681
-0.420981
-0.394856
-0.365863
-0.335683
-0.30574
-0.277032
-0.25014
-0.225318
-0.202605
-0.181923
-0.163135
-0.146083
-0.130604
-0.116622
-0.103819
-0.091614
-0.486531
-0.476151
-0.465397
-0.449625
-0.428511
-0.403015
-0.374577
-0.344815
-0.315137
-0.286559
-0.259691
-0.234817
-0.212002
-0.191183
-0.172234
-0.155006
-0.139339
-0.125154
-0.112176
-0.0997272
-0.492214
-0.481637
-0.471025
-0.455681
-0.435184
-0.410363
-0.382542
-0.353266
-0.32392
-0.295534
-0.268745
-0.243868
-0.220992
-0.200073
-0.180998
-0.163624
-0.147797
-0.133436
-0.120303
-0.107637
-0.496983
-0.48623
-0.475769
-0.460863
-0.441008
-0.416907
-0.38976
-0.361034
-0.332086
-0.303953
-0.277298
-0.252467
-0.229574
-0.208593
-0.189424
-0.171935
-0.155976
-0.141464
-0.128215
-0.115559
-0.50086
-0.489954
-0.479649
-0.465191
-0.445999
-0.422654
-0.396234
-0.36812
-0.339635
-0.311815
-0.28535
-0.260612
-0.237744
-0.216739
-0.197511
-0.179936
-0.163874
-0.149235
-0.135867
-0.123156
-0.503869
-0.492835
-0.48269
-0.468684
-0.450171
-0.427616
-0.401971
-0.374529
-0.346567
-0.319121
-0.2929
-0.268305
-0.245503
-0.224511
-0.205257
-0.187627
-0.171487
-0.156747
-0.143265
-0.130465
-0.506041
-0.494902
-0.484921
-0.47137
-0.453547
-0.431808
-0.406982
-0.380265
-0.352887
-0.325873
-0.29995
-0.275544
-0.252852
-0.23191
-0.212662
-0.195006
-0.178815
-0.163998
-0.150427
-0.137551
-0.507405
-0.496186
-0.486373
-0.473275
-0.456149
-0.435248
-0.411277
-0.385337
-0.358599
-0.332074
-0.306501
-0.282333
-0.259792
-0.238936
-0.219727
-0.202074
-0.185859
-0.170991
-0.157357
-0.144429
-0.507997
-0.496723
-0.487081
-0.474431
-0.458004
-0.437955
-0.414873
-0.389755
-0.36371
-0.33773
-0.312559
-0.288675
-0.266326
-0.245593
-0.226454
-0.208833
-0.192619
-0.177725
-0.164052
-0.151096
-0.507853
-0.49655
-0.487079
-0.474873
-0.45914
-0.439954
-0.417786
-0.393531
-0.36823
-0.342845
-0.318127
-0.294573
-0.272457
-0.251882
-0.232846
-0.215285
-0.199099
-0.184201
-0.170511
-0.157547
-0.507011
-0.495706
-0.486408
-0.474637
-0.459592
-0.441271
-0.420038
-0.39668
-0.372167
-0.347429
-0.323212
-0.300033
-0.278189
-0.257808
-0.238906
-0.221433
-0.205299
-0.190422
-0.176734
-0.163783
-0.505514
-0.494232
-0.485109
-0.473761
-0.459393
-0.441935
-0.421649
-0.399219
-0.375536
-0.35149
-0.327822
-0.305061
-0.283529
-0.263376
-0.244639
-0.22728
-0.211224
-0.19639
-0.182724
-0.169805
-0.503402
-0.492171
-0.483223
-0.472287
-0.45858
-0.441978
-0.422646
-0.401166
-0.37835
-0.355039
-0.331964
-0.309665
-0.288482
-0.268592
-0.250048
-0.232831
-0.216877
-0.202109
-0.188484
-0.175616
-0.50072
-0.489566
-0.480794
-0.470258
-0.457193
-0.441433
-0.423056
-0.402544
-0.380624
-0.358089
-0.335649
-0.313851
-0.293056
-0.27346
-0.25514
-0.238091
-0.222261
-0.20758
-0.194016
-0.181217
-0.497513
-0.486462
-0.477868
-0.467716
-0.455273
-0.440337
-0.422909
-0.403374
-0.382377
-0.360652
-0.338887
-0.31763
-0.297258
-0.277989
-0.259921
-0.243065
-0.227382
-0.212809
-0.199323
-0.186611
-0.493826
-0.482903
-0.474488
-0.464707
-0.452862
-0.438728
-0.422236
-0.403683
-0.383627
-0.362743
-0.341689
-0.321009
-0.301096
-0.282186
-0.264397
-0.247758
-0.232245
-0.2178
-0.204409
-0.191801
-0.489705
-0.478936
-0.470702
-0.461277
-0.450004
-0.436644
-0.421071
-0.403498
-0.384396
-0.364378
-0.344068
-0.324001
-0.304579
-0.286058
-0.268575
-0.252178
-0.236854
-0.222558
-0.209279
-0.196791
-0.485195
-0.474604
-0.466553
-0.457469
-0.446742
-0.434127
-0.41945
-0.402846
-0.384706
-0.365576
-0.346037
-0.326616
-0.307717
-0.289615
-0.272464
-0.25633
-0.241218
-0.227088
-0.213937
-0.201583
-0.480342
-0.469953
-0.462088
-0.453331
-0.443122
-0.431218
-0.417408
-0.401759
-0.384582
-0.366353
-0.347612
-0.328865
-0.31052
-0.292864
-0.276071
-0.260223
-0.245341
-0.231396
-0.218387
-0.206183
-0.475191
-0.465026
-0.45735
-0.448906
-0.439187
-0.427959
-0.414984
-0.400268
-0.384048
-0.366731
-0.348808
-0.330762
-0.312998
-0.295815
-0.279404
-0.263864
-0.24923
-0.235487
-0.222636
-0.210595
-0.469784
-0.459866
-0.452382
-0.444238
-0.434981
-0.424393
-0.412217
-0.398408
-0.383132
-0.366729
-0.34964
-0.332318
-0.315162
-0.298478
-0.282472
-0.26726
-0.252894
-0.239369
-0.22669
-0.214823
-0.464166
-0.454513
-0.447226
-0.439369
-0.430548
-0.420561
-0.409145
-0.39621
-0.381861
-0.366372
-0.350127
-0.333548
-0.317023
-0.300862
-0.285283
-0.27042
-0.256338
-0.243047
-0.230552
-0.218873
-0.458376
-0.449007
-0.44192
-0.434341
-0.425929
-0.416506
-0.405808
-0.393712
-0.380266
-0.36568
-0.350286
-0.334466
-0.318593
-0.302977
-0.287848
-0.273351
-0.25957
-0.246528
-0.234231
-0.222749
-0.452454
-0.443386
-0.436504
-0.429193
-0.421164
-0.412267
-0.402244
-0.390948
-0.378376
-0.36468
-0.350136
-0.335087
-0.319884
-0.304834
-0.290173
-0.276062
-0.262598
-0.249819
-0.237731
-0.226458
-0.446437
-0.437685
-0.431011
-0.42396
-0.416291
-0.407885
-0.398493
-0.387953
-0.376222
-0.363396
-0.349697
-0.335426
-0.320908
-0.306442
-0.292269
-0.278562
-0.26543
-0.252928
-0.24106
-0.230004
-0.44036
-0.431937
-0.425477
-0.418678
-0.411348
-0.403397
-0.394592
-0.384763
-0.373835
-0.361855
-0.34899
-0.335499
-0.321678
-0.307812
-0.294145
-0.280857
-0.268073
-0.25586
-0.244223
-0.233393
-0.434257
-0.426173
-0.419931
-0.413379
-0.406368
-0.398837
-0.390577
-0.381414
-0.371247
-0.360082
-0.348037
-0.335323
-0.322206
-0.308954
-0.295809
-0.282957
-0.270534
-0.258624
-0.247228
-0.236632
-0.428157
-0.420422
-0.414402
-0.408091
-0.401382
-0.394241
-0.386483
-0.377939
-0.36849
-0.358105
-0.346858
-0.334915
-0.322506
-0.309879
-0.29727
-0.28487
-0.272822
-0.261226
-0.25008
-0.239725
-0.422089
-0.414709
-0.408916
-0.402842
-0.396418
-0.389639
-0.382343
-0.374371
-0.365594
-0.355953
-0.345478
-0.334293
-0.322591
-0.310598
-0.298538
-0.286603
-0.274943
-0.263673
-0.252787
-0.24268
-0.416079
-0.409059
-0.403495
-0.397655
-0.391503
-0.38506
-0.378188
-0.370743
-0.362591
-0.353651
-0.343918
-0.333475
-0.322476
-0.311122
-0.299621
-0.288164
-0.276904
-0.265971
-0.255354
-0.245502
-0.410149
-0.403493
-0.39816
-0.392552
-0.38666
-0.380528
-0.374046
-0.367083
-0.35951
-0.351228
-0.342203
-0.332479
-0.322176
-0.311462
-0.300529
-0.289561
-0.278713
-0.268129
-0.257787
-0.248197
-0.40432
-0.398028
-0.392929
-0.38755
-0.381909
-0.376067
-0.369941
-0.36342
-0.356379
-0.348711
-0.340356
-0.331327
-0.321705
-0.311629
-0.301269
-0.290801
-0.280377
-0.270151
-0.260094
-0.250773
-0.39861
-0.392681
-0.387818
-0.382667
-0.377266
-0.371697
-0.365899
-0.35978
-0.353226
-0.346125
-0.338401
-0.330036
-0.321078
-0.311634
-0.301851
-0.291892
-0.281902
-0.272045
-0.262279
-0.253235
-0.393036
-0.387466
-0.382839
-0.377914
-0.372747
-0.367434
-0.361937
-0.356185
-0.350075
-0.343497
-0.336362
-0.328628
-0.320312
-0.311491
-0.302285
-0.29284
-0.283293
-0.273816
-0.264349
-0.255591
-0.387609
-0.382396
-0.378004
-0.373303
-0.368364
-0.363293
-0.358075
-0.352656
-0.34695
-0.34085
-0.334261
-0.327122
-0.319424
-0.311211
-0.302578
-0.293653
-0.284558
-0.275471
-0.382343
-0.377478
-0.373321
-0.368842
-0.364125
-0.359285
-0.354325
-0.349211
-0.34387
-0.338206
-0.33212
-0.325539
-0.318428
-0.310807
-0.302741
-0.294337
-0.285702
-0.377245
-0.372722
-0.368797
-0.364539
-0.360038
-0.355419
-0.350701
-0.345865
-0.340855
-0.335586
-0.329961
-0.323898
-0.317344
-0.310292
-0.302783
-0.372323
-0.368132
-0.364437
-0.360396
-0.356109
-0.351703
-0.34721
-0.34263
-0.33792
-0.333008
-0.327803
-0.322218
-0.316186
-0.30968
-0.367583
-0.363714
-0.360244
-0.356418
-0.35234
-0.348139
-0.343861
-0.339516
-0.335079
-0.330489
-0.325664
-0.320517
-0.363028
-0.359469
-0.35622
-0.352606
-0.348733
-0.344732
-0.340656
-0.33653
-0.332341
-0.328043
-0.323562
-0.358661
-0.355399
-0.352365
-0.348959
-0.345288
-0.341481
-0.337599
-0.333678
-0.329717
-0.325681
-0.354481
-0.351505
-0.34868
-0.345477
-0.342003
-0.338386
-0.334691
-0.330962
-0.327211
-0.350489
-0.347784
-0.345162
-0.342158
-0.338877
-0.335444
-0.33193
-0.328385
-0.346684
-0.344236
-0.341808
-0.338997
-0.335906
-0.332653
-0.329315
-0.343062
-0.340856
-0.338616
-0.335992
-0.333085
-0.330009
-0.339619
-0.337642
-0.335581
-0.333138
-0.33041
-0.336353
-0.334589
-0.332699
-0.330431
-0.333257
-0.331692
-0.329964
-0.330326
-0.328945
-0.327554
-0.326344
-0.324934
-0.192204
-0.196783
-0.201192
-0.205436
-0.209518
-0.213442
-0.217213
-0.220835
-0.224312
-0.227648
-0.230848
-0.233914
-0.236852
-0.239663
-0.242353
-0.244922
-0.18515
-0.189672
-0.194041
-0.198259
-0.202331
-0.20626
-0.210048
-0.213701
-0.217221
-0.220612
-0.223878
-0.227022
-0.230047
-0.232956
-0.235753
-0.238441
-0.178417
-0.182866
-0.187178
-0.191356
-0.195403
-0.199321
-0.203115
-0.206785
-0.210337
-0.213773
-0.217097
-0.220311
-0.22342
-0.226426
-0.229333
-0.232144
-0.171989
-0.176364
-0.180617