/*--------------------------------*- C++ -*----------------------------------*\
  =========                 |
  \\      /  F ield         | OpenFOAM: The Open Source CFD Toolbox
   \\    /   O peration     | Website:  https://openfoam.org
    \\  /    A nd           | Version:  7
     \\/     M anipulation  |
\*---------------------------------------------------------------------------*/
FoamFile
{
    version     2.0;
    format      ascii;
    class       surfaceScalarField;
    location    "55";
    object      phi;
}
// * * * * * * * * * * * * * * * * * * * * * * * * * * * * * * * * * * * * * //

dimensions      [0 3 -1 0 0 0 0];

internalField   nonuniform List<scalar> 
16608
(
1.85859e-05
4.46369e-07
1.81395e-05
4.08651e-05
5.46961e-07
1.75925e-05
3.06367e-06
3.83484e-05
4.55227e-05
6.57982e-07
1.69346e-05
3.54918e-06
3.54572e-05
3.94107e-05
7.7988e-07
1.61547e-05
4.07666e-06
3.21604e-05
1.09306e-05
3.25568e-05
1.63733e-05
9.13034e-07
1.52416e-05
4.64719e-06
2.84263e-05
1.22946e-05
2.49094e-05
2.50123e-05
3.65564e-06
-3.65186e-05
1.05774e-06
1.41839e-05
5.26151e-06
2.42225e-05
1.37539e-05
1.64169e-05
2.77442e-05
-1.03347e-05
4.85129e-05
-5.72872e-05
-0.000125821
1.21423e-06
1.29697e-05
5.92001e-06
1.95167e-05
1.53085e-05
7.02849e-06
3.06378e-05
-2.5664e-05
5.32318e-05
-7.98812e-05
8.44543e-05
-0.000157044
-0.000258587
1.38264e-06
1.1587e-05
6.6227e-06
1.42766e-05
1.69571e-05
-3.3059e-06
3.36888e-05
-4.23957e-05
5.81774e-05
-0.00010437
9.18018e-05
-0.000190668
0.00013589
-0.000302675
-0.000441494
1.56302e-06
1.0024e-05
7.36921e-06
8.47045e-06
1.86978e-05
-1.46345e-05
3.68911e-05
-6.0589e-05
6.33355e-05
-0.000130814
9.94106e-05
-0.000226743
0.000146401
-0.000349666
0.000205366
-0.000500459
-0.000679262
1.75534e-06
8.26867e-06
8.15875e-06
2.06704e-06
2.05274e-05
-2.70031e-05
4.02363e-05
-8.0298e-05
6.86882e-05
-0.000159266
0.000107247
-0.000265302
0.000157129
-0.000399548
0.000219256
-0.000562586
0.000294068
-0.000754074
-0.000972391
1.95948e-06
6.30918e-06
8.99015e-06
-4.96362e-06
2.24418e-05
-4.04548e-05
4.37144e-05
-0.000101571
7.42143e-05
-0.000189766
0.000115271
-0.000306358
0.000168008
-0.000452285
0.000233177
-0.000627754
0.000310959
-0.000831856
0.00040078
-0.00106221
-0.00131476
2.17522e-06
4.13397e-06
9.86175e-06
-1.26502e-05
2.44358e-05
-5.50289e-05
4.73129e-05
-0.000124448
7.98891e-05
-0.000222342
0.000123438
-0.000349907
0.000178965
-0.000507812
0.000247017
-0.000695807
0.000327488
-0.000912326
0.000419437
-0.00115416
0.000521011
-0.00141634
0.000629493
-0.00169228
-0.00197437
2.40222e-06
1.73175e-06
1.07715e-05
-2.10194e-05
2.65031e-05
-7.07605e-05
5.10174e-05
-0.000148962
8.56842e-05
-0.000257009
0.0001317
-0.000395923
0.000189921
-0.000566033
0.000260662
-0.000766548
0.000343498
-0.000995162
0.000437112
-0.00124778
0.000539264
-0.00151849
0.000646918
-0.00179994
0.000756541
-0.00208399
-0.00236269
2.64005e-06
-9.083e-07
1.17168e-05
-3.00962e-05
2.86363e-05
-8.768e-05
5.48114e-05
-0.000175137
9.15683e-05
-0.000293766
0.000140002
-0.000444357
0.000200793
-0.000626823
0.000273992
-0.000839747
0.000358833
-0.00108
0.00045362
-0.00134256
0.000555751
-0.00162062
0.000661925
-0.00190611
0.000768514
-0.00219058
0.000872019
-0.0024662
-0.00272676
2.88816e-06
-3.79646e-06
1.26947e-05
-3.99027e-05
3.08267e-05
-0.000105812
5.86764e-05
-0.000202987
9.75069e-05
-0.000332596
0.000148288
-0.000495139
0.000211493
-0.000690028
0.000286885
-0.000915138
0.000373342
-0.00116646
0.000468792
-0.00143801
0.000570308
-0.00172214
0.000674391
-0.0020102
0.000777396
-0.00229358
0.000876011
-0.00256481
0.00096767
-0.00281842
0.0010508
-0.00305146
-0.00326351
3.14589e-06
-6.94235e-06
1.37016e-05
-5.04584e-05
3.30647e-05
-0.000125175
6.25918e-05
-0.000232514
0.000103463
-0.000373467
0.000156496
-0.000548172
0.000221932
-0.000755464
0.000299221
-0.000992428
0.000386879
-0.00125412
0.000482475
-0.00153361
0.000582802
-0.00182246
0.000684233
-0.00211163
0.00078319
-0.00239254
0.000876615
-0.00265824
0.000962332
-0.00290414
0.00103922
-0.00312834
0.00110719
-0.00333148
-0.0035162
3.41242e-06
-1.03548e-05
1.47335e-05
-6.17795e-05
3.53396e-05
-0.000145781
6.65355e-05
-0.00026371
0.000109396
-0.000416328
0.000164564
-0.00060334
0.00023202
-0.00082292
0.000310885
-0.00107129
0.000399312
-0.00134254
0.000494537
-0.00162883
0.00059313
-0.00192106
0.000691411
-0.00220991
0.00078594
-0.00248707
0.000873973
-0.00274627
0.000953748
-0.00298391
0.00102458
-0.00319918
0.00108675
-0.00339365
0.00114127
-0.00357072
0.00118962
-0.00373447
-0.00389007
3.68684e-06
-1.40416e-05
1.57859e-05
-7.38786e-05
3.76397e-05
-0.000167635
7.04835e-05
-0.000296554
0.000115266
-0.000461111
0.000172427
-0.000660501
0.000241667
-0.00089216
0.000321765
-0.00115139
0.000410519
-0.0014313
0.00050487
-0.00172318
0.000601225
-0.00201741
0.000695922
-0.0023046
0.000785733
-0.00257688
0.000868262
-0.0028288
0.000942173
-0.00305782
0.00100719
-0.00326419
0.00106392
-0.00345038
0.00111358
-0.00362039
0.00115772
-0.00377861
-0.00393016
0.00119782
3.96809e-06
-1.80097e-05
1.6854e-05
-8.67644e-05
3.99521e-05
-0.000190733
7.44106e-05
-0.000331012
0.000121029
-0.000507729
0.000180021
-0.000719492
0.000250786
-0.000962925
0.000331756
-0.00123236
0.000420395
-0.00151994
0.00051339
-0.00181618
0.000607051
-0.00211107
0.000697804
-0.00239536
0.000782686
-0.00266176
0.000859683
-0.0029058
0.000927873
-0.00312601
0.000987351
-0.00332367
0.001039
-0.00350203
0.0010842
-0.00366558
0.00112452
-0.00381893
-0.00396702
0.00116137
4.25498e-06
-2.22647e-05
1.79321e-05
-0.000100442
4.22633e-05
-0.000215064
7.82902e-05
-0.000367039
0.000126641
-0.00055608
0.00018728
-0.000780132
0.000259293
-0.00103494
0.000340767
-0.00131384
0.000428853
-0.00160802
0.00052004
-0.00190737
0.000610602
-0.00220164
0.000697123
-0.00248188
0.000776945
-0.00274158
0.000848451
-0.0029773
0.000911116
-0.00318868
0.000965364
-0.00337791
0.0010123
-0.00354897
0.0010534
-0.00370668
0.00109023
-0.00385575
-0.00400091
0.00112411
4.5462e-06
-2.68109e-05
1.90146e-05
-0.00011491
4.45589e-05
-0.000240609
8.20952e-05
-0.000404575
0.000132057
-0.000606042
0.000194143
-0.000842217
0.000267111
-0.00110791
0.000348713
-0.00139544
0.000435824
-0.00169513
0.000524786
-0.00199633
0.000611905
-0.00228875
0.000693974
-0.00256395
0.000768677
-0.00281629
0.000834792
-0.00304342
0.000892164
-0.00324605
0.000941501
-0.00342725
0.000984079
-0.00359155
0.00102142
-0.00374403
0.00105505
-0.00388938
-0.00403206
0.00108621
4.84032e-06
-3.16512e-05
2.00952e-05
-0.000130165
4.68241e-05
-0.000267337
8.57976e-05
-0.000443549
0.000137235
-0.000657479
0.000200549
-0.000905531
0.000274169
-0.00118153
0.000355527
-0.0014768
0.000441259
-0.00178087
0.00052762
-0.00208269
0.000611008
-0.00237214
0.000688474
-0.00264141
0.000758062
-0.00288588
0.000818934
-0.00310429
0.00087127
-0.00329838
0.000916016
-0.003472
0.000954569
-0.0036301
0.000988463
-0.00377792
0.00101915
-0.00392007
-0.00406069
0.00104777
5.13579e-06
-3.6787e-05
2.11674e-05
-0.000146197
4.90435e-05
-0.000295213
8.93695e-05
-0.000483875
0.000142131
-0.000710241
0.000206441
-0.000969842
0.000280403
-0.00125549
0.00036115
-0.00155754
0.000445127
-0.00186484
0.000528557
-0.00216612
0.000607987
-0.00245157
0.000680759
-0.00271419
0.000745287
-0.0029504
0.0008011
-0.0031601
0.000848674
-0.00334596
0.000889144
-0.00351247
0.000923982
-0.00366494
0.000954704
-0.00380864
0.000982673
-0.00394803
-0.00408694
0.00100892
5.43096e-06
-4.2218e-05
2.22245e-05
-0.00016299
5.12013e-05
-0.00032419
9.27832e-05
-0.000525457
0.000146703
-0.000764161
0.000211769
-0.00103491
0.00028576
-0.00132948
0.000365543
-0.00163733
0.000447418
-0.00194672
0.000527633
-0.00224633
0.000602932
-0.00252687
0.000670975
-0.00278223
0.000730545
-0.00300997
0.00078151
-0.00321107
0.000824599
-0.00338905
0.000861094
-0.00354896
0.000892503
-0.00369635
0.000920295
-0.00383643
0.000945735
-0.00397347
-0.00411095
0.000969746
5.72413e-06
-4.79421e-05
2.32594e-05
-0.000180525
5.32821e-05
-0.000354213
9.60115e-05
-0.000568186
0.000150914
-0.000819063
0.000216484
-0.00110048
0.000290195
-0.00140319
0.000368678
-0.00171581
0.000448138
-0.00202618
0.000524902
-0.0023231
0.00059595
-0.00259792
0.000659278
-0.00284556
0.000714027
-0.00306472
0.00076037
-0.00325741
0.000799251
-0.00342793
0.000832055
-0.00358177
0.000860293
-0.00372459
0.000885367
-0.00386151
0.000908437
-0.00399654
-0.00413282
0.000930315
6.01347e-06
-5.39556e-05
2.42651e-05
-0.000198777
5.52701e-05
-0.000385218
9.90283e-05
-0.000611944
0.000154727
-0.000874762
0.000220548
-0.0011663
0.000293674
-0.00147632
0.000370541
-0.00179268
0.000447309
-0.00210295
0.000520433
-0.00239622
0.000587159
-0.00266464
0.000645828
-0.00290423
0.000695917
-0.00311481
0.000737876
-0.00329937
0.000772818
-0.00346287
0.000802193
-0.00361114
0.00082749
-0.00374989
0.000850029
-0.00388405
0.000870861
-0.00401738
-0.00415266
0.000890693
6.29716e-06
-6.02527e-05
2.52346e-05
-0.000217714
5.71501e-05
-0.000417133
0.000101809
-0.000656603
0.000158109
-0.000931062
0.000223925
-0.00123211
0.000296173
-0.00154856
0.000371133
-0.00186764
0.00044497
-0.00217678
0.000514309
-0.00246556
0.000576686
-0.00272702
0.000630784
-0.00295832
0.000676397
-0.00316043
0.000714209
-0.00333718
0.000745469
-0.00349413
0.000771656
-0.00363733
0.000794215
-0.00377245
0.000814374
-0.00390421
0.000833076
-0.00403608
-0.00417051
0.000850931
6.57332e-06
-6.6826e-05
2.61608e-05
-0.000237302
5.89076e-05
-0.00044988
0.00010433
-0.000702026
0.000161032
-0.000987764
0.00022659
-0.00129767
0.000297678
-0.00161965
0.000370467
-0.00194042
0.000441171
-0.00224749
0.000506621
-0.00253101
0.000564661
-0.00278506
0.000614305
-0.00300797
0.000655635
-0.00320176
0.000689537
-0.00337108
0.000717355
-0.00352195
0.000740572
-0.00366054
0.00076057
-0.00379244
0.00077848
-0.00392212
0.000795141
-0.00405274
-0.00418644
0.000811072
6.84005e-06
-7.36661e-05
2.70369e-05
-0.000257499
6.05284e-05
-0.000483372
0.000106571
-0.000748069
0.000163472
-0.00104467
0.000228521
-0.00136272
0.000298186
-0.00168932
0.000368567
-0.0020108
0.000435973
-0.0023149
0.000497471
-0.00259251
0.000551217
-0.00283881
0.000596543
-0.00305329
0.000633792
-0.003239
0.000664013
-0.0034013
0.000688612
-0.00354655
0.000709053
-0.00368099
0.000726642
-0.00381003
0.000742414
-0.00393789
0.000757105
-0.00406743
-0.00420049
0.000771153
7.09549e-06
-8.07616e-05
2.78561e-05
-0.000278259
6.19995e-05
-0.000517515
0.000108513
-0.000794582
0.000165408
-0.00110156
0.000229706
-0.00142702
0.000297702
-0.00175731
0.000365468
-0.00207857
0.000429447
-0.00237887
0.000486961
-0.00265002
0.000536484
-0.00288833
0.000577646
-0.00309445
0.000611016
-0.00327237
0.000637772
-0.00342806
0.000659358
-0.00356813
0.000677195
-0.00369882
0.000692508
-0.00382535
0.000706232
-0.00395161
0.000719011
-0.00408021
-0.00421269
0.000731207
7.3378e-06
-8.80994e-05
2.86123e-05
-0.000299534
6.3309e-05
-0.000552212
0.00011014
-0.000841412
0.000166825
-0.00115825
0.00023014
-0.00149033
0.000296241
-0.00182341
0.000361214
-0.00214354
0.000421669
-0.00243933
0.000475201
-0.00270355
0.000520593
-0.00293372
0.000557752
-0.00313161
0.000587442
-0.00330207
0.000610941
-0.00345156
0.000629698
-0.00358689
0.000645083
-0.00371421
0.000658231
-0.00383849
0.000669981
-0.00396336
0.000680894
-0.00409112
-0.00422306
0.000691262
7.56518e-06
-9.56645e-05
2.92993e-05
-0.000321268
6.44461e-05
-0.000587359
0.000111437
-0.000888404
0.000167713
-0.00121452
0.000229824
-0.00155245
0.000293825
-0.00188742
0.000355856
-0.00220557
0.00041272
-0.00249619
0.000462297
-0.00275313
0.000503669
-0.0029751
0.000536992
-0.00316494
0.000563197
-0.00332827
0.000583628
-0.00347199
0.000599724
-0.00360299
0.000612788
-0.00372727
0.000623865
-0.00384957
0.000633703
-0.0039732
0.000642784
-0.0041002
-0.00423162
0.000651344
7.77593e-06
-0.00010344
2.99119e-05
-0.000343404
6.54013e-05
-0.000622848
0.000112395
-0.000935398
0.000168065
-0.00127019
0.000228765
-0.00161315
0.000290484
-0.00194914
0.00034945
-0.00226454
0.000402686
-0.00254943
0.000448358
-0.0027988
0.000485831
-0.00301257
0.000515487
-0.00319459
0.000538392
-0.00335117
0.000555932
-0.00348953
0.000569516
-0.00361657
0.000580373
-0.00373813
0.000589458
-0.00385866
0.000597433
-0.00398117
0.00060471
-0.00410748
-0.00423838
0.000611474
7.96927e-06
-0.00011141
3.04467e-05
-0.000365881
6.61691e-05
-0.000658571
0.000113009
-0.000982238
0.000167884
-0.00132507
0.00022698
-0.00167224
0.000286258
-0.00200841
0.000342065
-0.00232035
0.00039166
-0.00259903
0.000433494
-0.00284064
0.0004672
-0.00304628
0.000493357
-0.00322075
0.000513137
-0.00337095
0.000527947
-0.00350434
0.000539151
-0.00362777
0.000547898
-0.00374688
0.000555056
-0.00386581
0.000561207
-0.00398732
0.000566702
-0.00411298
-0.00424336
0.000571681
8.14213e-06
-0.000119552
3.0896e-05
-0.000388635
6.67381e-05
-0.000694413
0.000113268
-0.00102877
0.000167164
-0.00137896
0.00022448
-0.00172956
0.000281178
-0.00206511
0.000333754
-0.00237292
0.000379716
-0.00264499
0.000417794
-0.00287871
0.000447868
-0.00307635
0.00047069
-0.00324357
0.00048751
-0.00338777
0.000499736
-0.00351657
0.000508675
-0.00363671
0.000515396
-0.0037536
0.00052068
-0.0038711
0.00052504
-0.00399168
0.000528769
-0.00411671
-0.00424656
0.00053197
8.29393e-06
-0.000127846
3.12576e-05
-0.000411599
6.71055e-05
-0.000730261
0.000113171
-0.00107483
0.000165918
-0.00143171
0.00022129
-0.00178493
0.000275292
-0.00211911
0.000324589
-0.00242222
0.000366945
-0.00268734
0.000401361
-0.00291313
0.000427943
-0.00310293
0.000447587
-0.00326322
0.0004616
-0.00340179
0.000471372
-0.00352634
0.000478147
-0.00364349
0.000482912
-0.00375836
0.000486368
-0.00387455
0.000488962
-0.00399428
0.000490938
-0.00411868
-0.00424799
0.000492367
8.42342e-06
-0.000136269
3.15285e-05
-0.000434704
6.7268e-05
-0.000766
0.00011272
-0.00112028
0.000164154
-0.00148314
0.00021744
-0.00183822
0.000268648
-0.00217032
0.000314638
-0.00246821
0.000353431
-0.00272614
0.000384287
-0.00294399
0.000407516
-0.00312616
0.000424133
-0.00327983
0.000435479
-0.00341313
0.000442915
-0.00353377
0.000447614
-0.00364819
0.000450482
-0.00376123
0.000452146
-0.00387622
0.000452993
-0.00399512
0.000453226
-0.00411892
-0.00424765
0.000452888
8.5295e-06
-0.000144799
3.1706e-05
-0.00045788
6.72235e-05
-0.000801518
0.000111917
-0.00116498
0.000161887
-0.00153311
0.000212959
-0.00188929
0.000261298
-0.00221866
0.00030397
-0.00251088
0.000339257
-0.00276142
0.00036666
-0.00297139
0.000386672
-0.00314617
0.000400403
-0.00329356
0.000409212
-0.00342194
0.000414416
-0.00353898
0.000417116
-0.00365089
0.000418137
-0.00376225
0.000418038
-0.00387612
0.000417153
-0.00399424
0.000415651
-0.00411741
-0.00424555
0.000413551
8.61124e-06
-0.00015341
3.17883e-05
-0.000481057
6.69715e-05
-0.000836701
0.000110768
-0.00120877
0.000159134
-0.00158148
0.00020788
-0.00193803
0.000253291
-0.00226407
0.000292653
-0.00255024
0.000324499
-0.00279327
0.000348561
-0.00299545
0.00036549
-0.0031631
0.000376469
-0.00330454
0.000382857
-0.00342833
0.000385921
-0.00354204
0.000386686
-0.00365165
0.000385903
-0.00376147
0.000384064
-0.00387428
0.00038146
-0.00399164
0.000378228
-0.00411418
-0.00424169
0.00037437
8.66789e-06
-0.000162078
3.17742e-05
-0.000504164
6.65129e-05
-0.00087144
0.00010928
-0.00125154
0.000155915
-0.00162811
0.000202239
-0.00198436
0.00024468
-0.00230651
0.000280751
-0.00258631
0.000309232
-0.00282175
0.000330066
-0.00301629
0.000344039
-0.00317708
0.000352391
-0.00331289
0.000356465
-0.00343241
0.00035747
-0.00354305
0.000356357
-0.00365054
0.000353803
-0.00375891
0.000350244
-0.00387072
0.000345931
-0.00398732
0.000340974
-0.00410922
-0.00423608
0.000335361
8.69883e-06
-0.000170777
3.16632e-05
-0.000527128
6.585e-05
-0.000905627
0.000107463
-0.00129315
0.00015225
-0.0016729
0.000196072
-0.00202818
0.000235518
-0.00234596
0.000268329
-0.00261912
0.000293527
-0.00284695
0.000311245
-0.003034
0.000322385
-0.00318822
0.000328224
-0.00331873
0.000330079
-0.00343426
0.000329097
-0.00354206
0.000326154
-0.0036476
0.000321859
-0.00375462
0.000316595
-0.00386546
0.00031058
-0.00398131
0.000303902
-0.00410255
-0.00422872
0.000296538
8.70364e-06
-0.00017948
3.14553e-05
-0.00054988
6.49863e-05
-0.000939158
0.000105328
-0.0013335
0.000148164
-0.00171574
0.000189418
-0.00206943
0.000225855
-0.0023824
0.000255449
-0.00264872
0.000277449
-0.00286895
0.000292162
-0.00304872
0.000300586
-0.00319664
0.000304018
-0.00332216
0.000303741
-0.00343398
0.000300834
-0.00353916
0.000296102
-0.00364287
0.000290089
-0.00374861
0.000283133
-0.0038585
0.000275421
-0.00397359
0.000267026
-0.00409415
-0.00421961
0.000257916
8.68206e-06
-0.000188162
3.11513e-05
-0.000572349
6.39264e-05
-0.000971933
0.000102889
-0.00137246
0.00014368
-0.00175653
0.000182315
-0.00210807
0.000215743
-0.00241582
0.00024217
-0.00267515
0.00026106
-0.00288784
0.000272876
-0.00306053
0.000278694
-0.00320246
0.000279816
-0.00332329
0.000277484
-0.00343165
0.000272707
-0.00353438
0.000266221
-0.00363638
0.000258511
-0.0037409
0.000249874
-0.00384987
0.00024047
-0.00396419
0.000230359
-0.00408404
-0.00420876
0.000219508
8.63399e-06
-0.000196796
3.07524e-05
-0.000594467
6.26762e-05
-0.00100386
0.000100158
-0.00140994
0.000138826
-0.0017952
0.000174801
-0.00214404
0.00020523
-0.00244625
0.000228547
-0.00269846
0.000244418
-0.00290371
0.000253442
-0.00306956
0.000256756
-0.00320577
0.000255658
-0.00332219
0.000251339
-0.00342733
0.000244741
-0.00352778
0.000236531
-0.00362817
0.000227141
-0.00373151
0.00021683
-0.00383955
0.000205737
-0.0039531
0.000193914
-0.00407222
-0.00419617
0.000181326
8.55948e-06
-0.000205356
3.02604e-05
-0.000616168
6.12421e-05
-0.00103484
9.71518e-05
-0.00144585
0.000133627
-0.00183167
0.000166914
-0.00217733
0.000194364
-0.0024737
0.000214634
-0.00271873
0.000227575
-0.00291665
0.000233909
-0.00307589
0.000234816
-0.00320668
0.000231579
-0.00331895
0.000225334
-0.00342109
0.000216957
-0.0035194
0.000207049
-0.00361826
0.000195994
-0.00372045
0.000184015
-0.00382758
0.000171237
-0.00394032
0.000157703
-0.00405868
-0.00418185
0.000143382
8.45876e-06
-0.000213815
2.96775e-05
-0.000637387
5.96317e-05
-0.00106479
9.38857e-05
-0.0014801
0.000128109
-0.00186589
0.000158691
-0.00220791
0.000183191
-0.0024982
0.000200479
-0.00273602
0.000210581
-0.00292675
0.00021432
-0.00307963
0.00021291
-0.00320527
0.000207608
-0.00331365
0.000199493
-0.00341297
0.000189374
-0.00350928
0.000177792
-0.00360668
0.000165082
-0.00370774
0.000151442
-0.00381394
0.000136979
-0.00392586
0.000121737
-0.00404344
-0.00416579
0.000105684
8.33216e-06
-0.000222147
2.90065e-05
-0.000658061
5.78531e-05
-0.00109364
9.03763e-05
-0.00151263
0.0001223
-0.00189782
0.00015017
-0.00223578
0.000171753
-0.00251979
0.000186129
-0.0027504
0.00019348
-0.0029341
0.000194718
-0.00308087
0.000191074
-0.00320162
0.000183774
-0.00330635
0.000173838
-0.00340304
0.000162009
-0.00349746
0.000148773
-0.00359344
0.000134421
-0.00369339
0.000119124
-0.00379864
0.000102977
-0.00390971
8.60261e-05
-0.00402649
-0.004148
6.82317e-05
8.18017e-06
-0.000230327
2.82504e-05
-0.000678132
5.59148e-05
-0.0011213
8.66408e-05
-0.00154335
0.000116227
-0.0019274
0.000141385
-0.00226094
0.000160093
-0.00253849
0.000171627
-0.00276193
0.000176314
-0.00293879
0.000175137
-0.00307969
0.000169336
-0.00319582
0.0001601
-0.00329711
0.000148387
-0.00339133
0.000134879
-0.00348395
0.000120006
-0.00357857
0.000104024
-0.00367741
8.70769e-05
-0.00378169
6.92521e-05
-0.00389188
5.05799e-05
-0.00400782
-0.0041284
3.09837e-05
8.0034e-06
-0.00023833
2.74127e-05
-0.000697541
5.38261e-05
-0.00114772
8.26963e-05
-0.00157222
0.000109915
-0.00195462
0.00013237
-0.00228339
0.000148249
-0.00255437
0.000157013
-0.0027707
0.000159119
-0.0029409
0.00015561
-0.00307618
0.000147725
-0.00318794
0.000136608
-0.003286
0.000123158
-0.00337788
0.000107997
-0.00346879
9.15048e-05
-0.00356208
7.39016e-05
-0.0036598
5.53144e-05
-0.0037631
3.58279e-05
-0.0038724
1.54373e-05
-0.00398743
-0.0041067
-6.26733e-06
7.80256e-06
-0.000246133
2.6497e-05
-0.000716235
5.15963e-05
-0.00117282
7.85602e-05
-0.00159919
0.00010339
-0.00197945
0.000123159
-0.00230316
0.000136257
-0.00256747
0.000142323
-0.00277676
0.00014193
-0.0029405
0.000136168
-0.00307042
0.000126263
-0.00317803
0.000113316
-0.00327305
9.81664e-05
-0.00336273
8.13757e-05
-0.003452
6.32798e-05
-0.00354398
4.40663e-05
-0.00364059
2.38456e-05
-0.00374288
2.69324e-06
-0.00385125
-1.93521e-05
-0.00396538
-0.00408376
-4.22891e-05
7.57845e-06
-0.000253711
2.55074e-05
-0.000734164
4.92352e-05
-0.00119654
7.42496e-05
-0.0016242
9.66779e-05
-0.00200188
0.000113781
-0.00232027
0.000124151
-0.00257784
0.000127592
-0.0027802
0.000124778
-0.00293769
0.000116835
-0.00306248
0.000104973
-0.00316617
9.02426e-05
-0.00325832
7.34249e-05
-0.00334591
5.50271e-05
-0.0034336
3.53422e-05
-0.0035243
1.4528e-05
-0.00361978
-7.32017e-06
-0.00372104
-3.01252e-05
-0.00382844
-5.3855e-05
-0.00394165
-0.00405916
-7.84547e-05
7.33199e-06
-0.000261043
2.4448e-05
-0.00075128
4.67526e-05
-0.00121885
6.97815e-05
-0.00164723
8.98014e-05
-0.0020219
0.000104266
-0.00233473
0.000111963
-0.00258554
0.00011285
-0.00278109
0.000107691
-0.00293253
9.76362e-05
-0.00305242
8.3873e-05
-0.00315241
6.74019e-05
-0.00324185
4.89462e-05
-0.00332745
2.8962e-05
-0.00341361
7.70193e-06
-0.00350304
-1.47028e-05
-0.00359737
-3.81715e-05
-0.00369757
-6.26307e-05
-0.00380398
-8.80253e-05
-0.00391626
-0.00403286
-0.000114331
7.06413e-06
-0.000268107
2.3323e-05
-0.000767539
4.41582e-05
-0.00123968
6.51728e-05
-0.00166825
8.27843e-05
-0.00203951
9.4642e-05
-0.00234659
9.97226e-05
-0.00259062
9.81261e-05
-0.00277949
9.06936e-05
-0.0029251
7.8592e-05
-0.00304032
6.29802e-05
-0.0031368
4.48073e-05
-0.00322368
2.47415e-05
-0.00330739
3.18973e-06
-0.00339206
-1.96308e-05
-0.00348022
-4.36162e-05
-0.00357339
-6.86994e-05
-0.00367248
-9.48072e-05
-0.00377787
-0.00012187
-0.00388919
-0.00400485
-0.000149873
6.77592e-06
-0.000274883
2.21368e-05
-0.0007829
4.1462e-05
-0.00125901
6.04395e-05
-0.00168722
7.56485e-05
-0.00205472
8.49347e-05
-0.00235587
8.74565e-05
-0.00259314
8.34453e-05
-0.00277548
7.38086e-05
-0.00291546
5.97212e-05
-0.00302623
4.23093e-05
-0.00311938
2.24709e-05
-0.00320384
8.19358e-07
-0.00328574
-2.22794e-05
-0.00336896
-4.6647e-05
-0.00345585
-7.22022e-05
-0.00354783
-9.88923e-05
-0.00364579
-0.000126644
-0.00375012
-0.000155375
-0.00386046
-0.00397516
-0.000185065
6.46845e-06
-0.000281352
2.0894e-05
-0.000797326
3.86738e-05
-0.00127679
5.55975e-05
-0.00170415
6.84152e-05
-0.00206754
7.51684e-05
-0.00236263
7.51899e-05
-0.00259316
6.88314e-05
-0.00276913
5.70565e-05
-0.00290368
4.10405e-05
-0.00301022
2.18737e-05
-0.00310022
4.0162e-07
-0.00318237
-2.28075e-05
-0.00326253
-4.74376e-05
-0.00334433
-7.33378e-05
-0.00342995
-0.000100451
-0.00352072
-0.000128739
-0.00361751
-0.00015813
-0.00372073
-0.000188528
-0.00383006
-0.0039438
-0.000219894
6.14284e-06
-0.000287495
1.95991e-05
-0.000810782
3.5803e-05
-0.00129299
5.06621e-05
-0.00171901
6.11043e-05
-0.00207798
6.53659e-05
-0.00236689
6.29459e-05
-0.00259074
5.43057e-05
-0.00276049
4.04555e-05
-0.00288983
2.25646e-05
-0.00299232
1.68512e-06
-0.00307934
-2.1386e-05
-0.00315929
-4.61341e-05
-0.00323778
-7.22769e-05
-0.00331819
-9.96948e-05
-0.00340253
-0.000128353
-0.00349206
-0.000158229
-0.00358763
-0.000189253
-0.00368971
-0.000221314
-0.003798
-0.00391076
-0.000254348
5.80025e-06
-0.000293295
1.82565e-05
-0.000823238
3.28592e-05
-0.0013076
4.56478e-05
-0.00173179
5.37347e-05
-0.00208607
5.55482e-05
-0.0023687
5.07454e-05
-0.00258594
3.98874e-05
-0.00274963
2.40219e-05
-0.00287397
4.30676e-06
-0.00297261
-1.82457e-05
-0.00305679
-4.28888e-05
-0.00313465
-6.91521e-05
-0.00321152
-9.679e-05
-0.00329055
-0.00012571
-0.00337361
-0.000155899
-0.00346187
-0.00018735
-0.00355618
-0.00022
-0.00365706
-0.000253721
-0.00376428
-0.00387607
-0.000288416
5.44187e-06
-0.000298737
1.68706e-05
-0.000834667
2.98515e-05
-0.00132058
4.05687e-05
-0.00174251
4.6324e-05
-0.00209182
4.57348e-05
-0.00236811
3.86079e-05
-0.00257881
2.5594e-05
-0.00273661
7.77028e-06
-0.00285615
-1.37213e-05
-0.00295112
-3.791e-05
-0.0030326
-6.40972e-05
-0.00310846
-9.18548e-05
-0.00318376
-0.00012097
-0.00326144
-0.000151375
-0.00334321
-0.000183079
-0.00343017
-0.000216092
-0.00352317
-0.000250358
-0.00362279
-0.000285736
-0.0037289
-0.00383972
-0.000322086
5.06891e-06
-0.000303806
1.5446e-05
-0.000845044
2.67887e-05
-0.00133192
3.54382e-05
-0.00175116
3.8889e-05
-0.00209528
3.59439e-05
-0.00236517
2.65509e-05
-0.00256942
1.14411e-05
-0.0027215
-8.28621e-06
-0.00283642
-3.15093e-05
-0.00292789
-5.72995e-05
-0.00300681
-8.50045e-05
-0.00308076
-0.000114236
-0.00315453
-0.000144811
-0.00323086
-0.000176685
-0.00331133
-0.000209885
-0.00339697
-0.000244444
-0.00348861
-0.000280316
-0.00358692
-0.000317346
-0.00369187
-0.00380172
-0.000355346
4.68257e-06
-0.000308488
1.3987e-05
-0.000854348
2.36795e-05
-0.00134161
3.02689e-05
-0.00175775
3.14454e-05
-0.00209645
2.61923e-05
-0.00235992
1.45905e-05
-0.00255782
-2.55667e-06
-0.00270436
-2.4136e-05
-0.00281484
-4.9048e-05
-0.00290298
-7.64067e-05
-0.00297945
-0.000105605
-0.00305156
-0.00013629
-0.00312384
-0.000168307
-0.00319884
-0.000201631
-0.00327801
-0.000236309
-0.00336229
-0.000272395
-0.00345252
-0.000309858
-0.00354946
-0.000348536
-0.0036532
-0.00376207
-0.000388183
4.28411e-06
-0.000312772
1.24979e-05
-0.000862562
2.05322e-05
-0.00134965
2.50728e-05
-0.00176229
2.40075e-05
-0.00209539
1.64953e-05
-0.0023524
2.74275e-06
-0.00254406
-1.63881e-05
-0.00268523
-3.97689e-05
-0.00279146
-6.63292e-05
-0.00287642
-9.52253e-05
-0.00295055
-0.000125892
-0.00302089
-0.000158012
-0.00309172
-0.000191453
-0.0031654
-0.000226209
-0.00324325
-0.000262344
-0.00332615
-0.000299934
-0.00341493
-0.000338972
-0.00351042
-0.000379291
-0.00361288
-0.00372078
-0.000420585
3.87478e-06
-0.000316647
1.09829e-05
-0.00086967
1.73547e-05
-0.00135602
1.98614e-05
-0.0017648
1.65892e-05
-0.00209211
6.86725e-06
-0.00234268
-8.98349e-06
-0.00252821
-3.00405e-05
-0.00266417
-5.51756e-05
-0.00276632
-8.33457e-05
-0.00284825
-0.000113749
-0.00292015
-0.000145862
-0.00298878
-0.000179398
-0.00305819
-0.000214246
-0.00313056
-0.000250413
-0.00320709
-0.000287983
-0.00328858
-0.000327053
-0.00337586
-0.000367645
-0.00346983
-0.000409598
-0.00357092
-0.00367784
-0.000452536
3.4559e-06
-0.000320103
9.44612e-06
-0.00087566
1.41546e-05
-0.00136073
1.46457e-05
-0.00176529
9.20288e-06
-0.00208667
-2.67717e-06
-0.0023308
-2.05719e-05
-0.00251032
-4.3504e-05
-0.00264124
-7.03477e-05
-0.00273948
-0.000100091
-0.00281851
-0.000131974
-0.00288827
-0.00016551
-0.00295525
-0.000200443
-0.00302325
-0.00023668
-0.00309432
-0.000274241
-0.00316952
-0.00031322
-0.0032496
-0.000353742
-0.00333534
-0.000395862
-0.00342771
-0.000439439
-0.00352735
3.02894e-06
-0.000323132
7.89151e-06
-0.000880523
1.09391e-05
-0.00136377
9.43571e-06
-0.00176379
1.86578e-06
-0.0020791
-1.21328e-05
-0.0023168
-3.20135e-05
-0.00249044
-5.67695e-05
-0.00261648
-8.52781e-05
-0.00271097
-0.000116559
-0.00278723
-0.000149894
-0.00285493
-0.000184832
-0.00292031
-0.000221144
-0.00298694
-0.000258753
-0.00305671
-0.000297688
-0.00313059
-0.000338053
-0.00320924
-0.000379995
-0.0032934
-0.000423612
-0.00338409
2.59504e-06
-0.000325727
6.32297e-06
-0.000884251
7.71559e-06
-0.00136517
4.24003e-06
-0.00176031
-5.4275e-06
-0.00206943
-2.14822e-05
-0.00230075
-4.32981e-05
-0.00246862
-6.98287e-05
-0.00258995
-9.99601e-05
-0.00268084
-0.000132745
-0.00275444
-0.000167505
-0.00282017
-0.000203824
-0.00288399
-0.000241498
-0.00294927
-0.000280462
-0.00301774
-0.000320752
-0.0030903
-0.000362479
-0.00316751
-0.000405808
-0.00325007
2.1552e-06
-0.000327882
4.74406e-06
-0.00088684
4.4908e-06
-0.00136491
-9.20829e-07
-0.0017549
-1.26511e-05
-0.0020577
-3.07174e-05
-0.00228268
-5.44167e-05
-0.00244492
-8.26742e-05
-0.00256169
-0.000114388
-0.00264913
-0.000148644
-0.00272019
-0.000184803
-0.00278401
-0.000222483
-0.00284631
-0.000261501
-0.00291025
-0.000301805
-0.00297744
-0.000343434
-0.00304867
-0.000386499
-0.00312445
1.71059e-06
-0.000329593
3.15844e-06
-0.000888288
1.27141e-06
-0.00136303
-6.07355e-06
-0.00174755
-1.98027e-05
-0.00204397
-3.98293e-05
-0.00226265
-6.53614e-05
-0.00241939
-9.52993e-05
-0.00253175
-0.000128556
-0.00261587
-0.000164252
-0.00268449
-0.000201785
-0.00274648
-0.000240806
-0.00280729
-0.000281151
-0.0028699
-0.000322779
-0.00293581
-0.000365731
-0.00300572
-0.00308006
1.26197e-06
-0.000330855
1.56855e-06
-0.000888594
-1.94328e-06
-0.00135951
-1.11745e-05
-0.00173832
-2.68715e-05
-0.00202828
-4.88096e-05
-0.00224072
-7.61249e-05
-0.00239208
-0.000107698
-0.00250018
-0.000142459
-0.00258111
-0.000179564
-0.00264739
-0.000218447
-0.0027076
-0.000258788
-0.00276695
-0.000300443
-0.00282825
-0.000343382
-0.00289287
-0.000387643
-0.00296146
8.08833e-07
-0.000331664
-2.50985e-08
-0.00088776
-5.1433e-06
-0.0013544
-1.62291e-05
-0.00172724
-3.38502e-05
-0.00201066
-5.76509e-05
-0.00221692
-8.67004e-05
-0.00236303
-0.000119865
-0.00246702
-0.000156094
-0.00254488
-0.000194578
-0.0026089
-0.000234785
-0.00266739
-0.000276426
-0.00272531
-0.000319375
-0.0027853
-0.00036361
-0.00284864
3.37217e-07
-0.000332001
-1.6155e-06
-0.000885808
-8.32072e-06
-0.00134769
-2.12303e-05
-0.00171433
-4.07315e-05
-0.00199116
-6.6346e-05
-0.0021913
-9.70821e-05
-0.00233229
-0.000131795
-0.0024323
-0.000169456
-0.00250722
-0.000209288
-0.00256907
-0.000250797
-0.00262588
-0.000293716
-0.00268239
-0.000337941
-0.00274107
-0.00280312
-1.43367e-07
-0.000331857
-3.20369e-06
-0.000882747
-1.14725e-05
-0.00133942
-2.61716e-05
-0.00169963
-4.75087e-05
-0.00196982
-7.48887e-05
-0.00216392
-0.000107264
-0.00229991
-0.000143484
-0.00239608
-0.000182541
-0.00246816
-0.000223693
-0.00252792
-0.000266477
-0.0025831
-0.000310655
-0.00263821
-0.000356138
-0.00269559
-5.7571e-07
-0.000331282
-4.77806e-06
-0.000878545
-1.4594e-05
-0.00132961
-3.10473e-05
-0.00168317
-5.41758e-05
-0.00194669
-8.32734e-05
-0.00213482
-0.000117243
-0.00226595
-0.000154928
-0.0023584
-0.000195346
-0.00242774
-0.000237788
-0.00248547
-0.000281824
-0.00253906
-0.000327238
-0.00259279
-0.00264887
-1.02742e-06
-0.000330254
-6.34232e-06
-0.00087323
-1.76807e-05