/*--------------------------------*- C++ -*----------------------------------*\
  =========                 |
  \\      /  F ield         | OpenFOAM: The Open Source CFD Toolbox
   \\    /   O peration     | Website:  https://openfoam.org
    \\  /    A nd           | Version:  7
     \\/     M anipulation  |
\*---------------------------------------------------------------------------*/
FoamFile
{
    version     2.0;
    format      ascii;
    class       surfaceScalarField;
    location    "5";
    object      phi;
}
// * * * * * * * * * * * * * * * * * * * * * * * * * * * * * * * * * * * * * //

dimensions      [0 3 -1 0 0 0 0];

internalField   nonuniform List<scalar> 
20151
(
-2.88788e-06
2.88784e-06
3.38797e-11
-1.01229e-05
7.2349e-06
8.9161e-11
-2.0764e-05
1.0641e-05
1.35696e-10
-3.39087e-05
1.31445e-05
1.77014e-10
-4.86998e-05
1.47909e-05
2.17282e-10
-6.43489e-05
1.56488e-05
2.5869e-10
-8.01649e-05
1.58158e-05
3.02742e-10
-9.55951e-05
1.54298e-05
3.49085e-10
-0.000110278
1.46829e-05
3.96818e-10
-0.000124104
1.38248e-05
4.44942e-10
-0.00013722
1.3116e-05
4.91183e-10
1.29279e-05
5.3468e-10
-0.000150148
-2.84154e-06
5.72938e-06
-9.94373e-06
1.43371e-05
-2.03612e-05
2.10584e-05
-3.31835e-05
2.59669e-05
-4.75423e-05
2.91497e-05
-6.26339e-05
3.07404e-05
-7.77477e-05
3.09295e-05
-9.23069e-05
2.9989e-05
-0.000105924
2.82996e-05
-0.00011846
2.6361e-05
-0.000130043
2.4699e-05
2.40602e-05
-0.000141175
-2.7496e-06
8.47898e-06
-9.58798e-06
2.11755e-05
-1.95607e-05
3.10312e-05
-3.17421e-05
3.81483e-05
-4.52413e-05
4.26488e-05
-5.92243e-05
4.47234e-05
-7.29416e-05
4.46469e-05
-8.57691e-05
4.28165e-05
-9.72647e-05
3.97952e-05
-0.000107237
3.63329e-05
-0.000115768
3.32302e-05
3.16144e-05
-0.000123322
-2.6135e-06
1.10925e-05
-9.06049e-06
2.76225e-05
-1.83729e-05
4.03436e-05
-2.9602e-05
4.93773e-05
-4.18238e-05
5.48706e-05
-5.41596e-05
5.70593e-05
-6.58024e-05
5.62897e-05
-7.60571e-05
5.30711e-05
-8.4401e-05
4.81391e-05
-9.05609e-05
4.24929e-05
-9.45533e-05
3.72226e-05
3.38447e-05
-9.67837e-05
-2.43528e-06
1.35278e-05
-8.36817e-06
3.35554e-05
-1.68121e-05
4.87875e-05
-2.67879e-05
5.93531e-05
-3.73284e-05
6.54111e-05
-4.74967e-05
6.72276e-05
-5.64099e-05
6.52029e-05
-6.32797e-05
5.99409e-05
-6.7476e-05
5.23354e-05
-6.86172e-05
4.36341e-05
-6.66372e-05
3.52425e-05
2.90606e-05
-6.1853e-05
-2.21743e-06
1.57452e-05
-7.51949e-06
3.88574e-05
-1.4896e-05
5.6164e-05
-2.33305e-05
6.77876e-05
-3.18031e-05
7.38837e-05
-3.9306e-05
7.47305e-05
-4.48641e-05
7.07609e-05
-4.75738e-05
6.26506e-05
-4.66707e-05
5.14324e-05
-4.16335e-05
3.85969e-05
-3.2312e-05
2.5921e-05
1.57972e-05
-1.90487e-05
-1.9627e-06
1.77079e-05
-6.52392e-06
4.34186e-05
-1.26446e-05
6.22847e-05
-1.92642e-05
7.44072e-05
-2.53021e-05
7.99216e-05
-2.96682e-05
7.90966e-05
-3.128e-05
7.23728e-05
-2.90986e-05
6.04692e-05
-2.21992e-05
4.4533e-05
-9.87977e-06
2.62774e-05
8.25034e-06
7.79088e-06
-7.47885e-06
3.15264e-05
-1.67394e-06
1.93818e-05
-5.39125e-06
4.71359e-05
-1.00785e-05
6.69719e-05
-1.46254e-05
7.89541e-05
-1.78827e-05
8.3179e-05
-1.86691e-05
7.9883e-05
-1.57819e-05
6.94855e-05
-8.02833e-06
5.27157e-05
5.70205e-06
3.08026e-05
2.63015e-05
5.67798e-06
5.42408e-05
-2.01484e-05
-4.25629e-05
8.93248e-05
-1.35387e-06
2.07357e-05
-4.13098e-06
4.99131e-05
-7.21812e-06
7.00591e-05
-9.4496e-06
8.11856e-05
-9.60204e-06
8.33314e-05
-6.39504e-06
7.6676e-05
1.5045e-06
6.15859e-05
1.5458e-05
3.87621e-05
3.67863e-05
9.47427e-06
6.6615e-05
-2.41507e-05
0.000105635
-5.91686e-05
-9.06218e-05
0.000153694
-1.00489e-06
2.17406e-05
-2.75168e-06
5.16599e-05
-4.08197e-06
7.13894e-05
-3.76992e-06
8.08735e-05
-5.13162e-07
8.00747e-05
7.07247e-06
6.90904e-05
2.04576e-05
4.82008e-05
4.11846e-05
1.80352e-05
7.08055e-05
-2.01467e-05
0.000110718
-6.40631e-05
0.000161869
-0.000110319
-0.000152941
0.000224188
-6.28942e-07
2.23695e-05
-1.26049e-06
5.22914e-05
-6.85795e-07
7.08147e-05
2.38515e-06
7.78026e-05
9.33708e-06
7.31227e-05
2.1661e-05
5.67665e-05
4.09679e-05
2.8894e-05
6.89872e-05
-9.98415e-06
0.000107519
-5.86789e-05
0.00015827
-0.000114813
0.000222497
-0.000174547
-0.000230712
0.000300268
-2.2747e-07
2.2597e-05
3.37169e-07
5.17268e-05
2.95787e-06
6.8194e-05
8.99292e-06
7.17675e-05
1.99114e-05
6.22042e-05
3.73114e-05
3.93665e-05
6.2943e-05
3.26243e-06
9.87229e-05
-4.57641e-05
0.000146709
-0.000106665
0.000208946
-0.000177051
0.000287078
-0.000252679
-0.000325024
0.00038139
1.99069e-07
2.23979e-05
2.03757e-06
4.98883e-05
6.84047e-06
6.33911e-05
1.60369e-05
6.25711e-05
3.11821e-05
4.7059e-05
5.39796e-05
1.65691e-05
8.63128e-05
-2.90709e-05
0.000130278
-8.9729e-05
0.000188186
-0.000164573
0.00026245
-0.000251315
0.000355177
-0.000345405
-0.000436852
0.000467005
6.49975e-07
2.1748e-05
3.83903e-06
4.66992e-05
1.09565e-05
5.62736e-05
2.35064e-05
5.00211e-05
4.31312e-05
2.74343e-05
7.1637e-05
-1.19367e-05
0.000111032
-6.84655e-05
0.000163573
-0.00014227
0.000231809
-0.000232809
0.000318526
-0.000338032
0.000426379
-0.000453258
-0.00056703
0.000556557
1.12574e-06
2.06222e-05
5.74053e-06
4.20844e-05
1.53025e-05
4.67116e-05
3.13943e-05
3.39294e-05
5.57474e-05
3.08116e-06
9.02679e-05
-4.64573e-05
0.000137076
-0.000115274
0.000198567
-0.000203761
0.000277486
-0.000311729
0.000376973
-0.000437519
0.000500304
-0.000576588
-0.00071621
0.000649483
1.62659e-06
1.89956e-05
7.74146e-06
3.59695e-05
1.98756e-05
3.45775e-05
3.96943e-05
1.41107e-05
6.90217e-05
-2.62463e-05
0.000109863
-8.72986e-05
0.00016444
-0.000169851
0.000235252
-0.000274573
0.000325187
-0.000401664
0.000437672
-0.000550004
0.000576629
-0.000715545
-0.000884796
0.000745215
2.15267e-06
1.6843e-05
9.84042e-06
2.82818e-05
2.46705e-05
1.97474e-05
4.83964e-05
-9.61518e-06
8.29402e-05
-6.079e-05
0.000130409
-0.000134767
0.000193119
-0.000232561
0.000273645
-0.000355099
0.000374943
-0.000502962
0.000500607
-0.000675667
0.000655137
-0.000870076
-0.00107285
0.000843191
2.70359e-06
1.41394e-05
1.2034e-05
1.89514e-05
2.96777e-05
2.10362e-06
5.7482e-05
-3.74195e-05
9.74747e-05
-0.000100783
0.000151873
-0.000189165
0.000223091
-0.000303779
0.000313761
-0.000445769
0.000426829
-0.00061603
0.000565891
-0.000814729
0.00073579
-0.00103997
-0.00127996
0.000942896
3.27812e-06
1.08613e-05
1.43155e-05
7.91399e-06
3.48802e-05
-1.84611e-05
6.69184e-05
-6.94577e-05
0.000112573
-0.000146437
0.000174184
-0.000250777
0.000254283
-0.000383877
0.000355566
-0.000547052
0.000480926
-0.00074139
0.000633765
-0.000967568
0.000818819
-0.00122503
-0.00150515
0.00104401
3.87394e-06
6.98732e-06
1.66747e-05
-4.88678e-06
4.02518e-05
-4.20381e-05
7.6654e-05
-0.00010586
0.000128148
-0.000197931
0.000197216
-0.000319845
0.000286537
-0.000473199
0.000398927
-0.000659442
0.000537259
-0.000879722
0.0007046
-0.00113491
0.000904786
-0.00142521
-0.00174726
0.0011469
4.48759e-06
2.49973e-06
1.90968e-05
-1.9496e-05
4.57561e-05
-6.86974e-05
8.66165e-05
-0.00014672
0.000144072
-0.000255386
0.000220762
-0.000396535
0.000319561
-0.000571998
0.000443515
-0.000783396
0.000595721
-0.00103193
0.000779111
-0.0013183
0.000995315
-0.00164142
-0.00200512
0.00125317
5.11463e-06
-2.6149e-06
2.15636e-05
-3.5945e-05
5.13479e-05
-9.84816e-05
9.67135e-05
-0.000192086
0.000160174
-0.000318846
0.000244528
-0.000480889
0.000352874
-0.000680344
0.00048863
-0.000919152
0.000655593
-0.00119889
0.000857943
-0.00152065
0.00109698
-0.00188046
-0.00227145
0.00136331
5.75013e-06
-8.36503e-06
2.40549e-05
-5.42498e-05
5.69764e-05
-0.000131403
0.00010684
-0.000241949
0.000176255
-0.000388262
0.000268145
-0.000572779
0.000385797
-0.000797995
0.000532995
-0.00106635
0.000714387
-0.00138028
0.000936596
-0.00174286
0.00121456
-0.00215842
-0.00265974
0.00160285
6.38882e-06
-1.47539e-05
2.65492e-05
-7.44102e-05
6.25885e-05
-0.000167442
0.000116885
-0.000296246
0.000192104
-0.000463481
0.000291221
-0.000671897
0.000417578
-0.000924353
0.000575031
-0.0012238
0.000768322
-0.00157357
0.00100399
-0.00197853
0.00129325
-0.00244767
-0.00301096
0.00164447
7.02621e-06
-2.17801e-05
2.90275e-05
-9.64115e-05
6.81364e-05
-0.000206551
0.000126752
-0.000354861
0.00020754
-0.000544269
0.000313438
-0.000777795
0.00044767
-0.00105858
0.000613812
-0.00138994
0.000815918
-0.00177568
0.00105862
-0.00222122
0.00134695
-0.00273601
-0.00334192
0.0016779
7.65857e-06
-2.94386e-05
3.14736e-05
-0.000120226
7.35795e-05
-0.000248657
0.000136359
-0.00041764
0.000222423
-0.000630333
0.000334577
-0.000889949
0.000475779
-0.00119979
0.000649078
-0.00156324
0.000857485
-0.00198409
0.0011035
-0.00246724
0.00138787
-0.00302037
-0.00365776
0.00170371
8.28312e-06
-3.77218e-05
3.38744e-05
-0.000145818
7.88851e-05
-0.000293668
0.000145644
-0.000484399
0.000236652
-0.00072134
0.000354504
-0.0010078
0.000501783
-0.00134707
0.000680885
-0.00174234
0.000893708
-0.00219691
0.00114094
-0.00271448
0.00142066
-0.00330009
-0.00396164
0.00172454
8.89783e-06
-4.66196e-05
3.62194e-05
-0.000173139
8.40267e-05
-0.000341475
0.000154558
-0.000554931
0.000250154
-0.000816935
0.000373135
-0.00113078
0.000525638
-0.00149957
0.000709359
-0.00192607
0.000925141
-0.00241269
0.00117223
-0.00296156
0.00144703
-0.00357489
-0.00425549
0.00174089
9.50102e-06
-5.61206e-05
3.84996e-05
-0.000202138
8.89813e-05
-0.000391957
0.000163059
-0.000629009
0.000262867
-0.000916743
0.000390404
-0.00125832
0.000547317
-0.00165648
0.000734592
-0.00211334
0.000952116
-0.00263022
0.00119799
-0.00320744
0.00146759
-0.00384449
-0.00454015
0.00175225
1.0091e-05
-6.62116e-05
4.0706e-05
-0.000232753
9.37266e-05
-0.000444977
0.000171106
-0.000706389
0.000274734
-0.00102037
0.000406245
-0.00138983
0.000566769
-0.001817
0.000756599
-0.00230317
0.00097476
-0.00284838
0.00121844
-0.00345112
0.00148233
-0.00410838
-0.00481569
0.00175787
1.06657e-05
-7.68773e-05
4.28284e-05
-0.000264916
9.82379e-05
-0.000500387
0.000178655
-0.000786807
0.000285688
-0.0011274
0.000420576
-0.00152472
0.000583912
-0.00198034
0.000775316
-0.00249457
0.000993039
-0.0030661
0.00123352
-0.00369161
0.00149097
-0.00436583
-0.00508169
0.00175697
1.12224e-05
-8.80997e-05
4.4855e-05
-0.000298548
0.000102487
-0.000558019
0.000185656
-0.000869975
0.000295654
-0.0012374
0.000433296
-0.00166236
0.000598629
-0.00214567
0.000790619
-0.00268656
0.00100681
-0.00328229
0.00124303
-0.00392782
0.00149314
-0.00461594
-0.00533744
0.00174889
1.17577e-05
-9.98574e-05
4.67713e-05
-0.000333562
0.000106442
-0.000617689
0.000192049
-0.000955583
0.000304543
-0.0013499
0.000444286
-0.0018021
0.000610773
-0.00231216
0.000802337
-0.00287813
0.00101589
-0.00349584
0.00124672
-0.00415866
0.00148846
-0.00485768
-0.00558208
0.00173309
1.22671e-05
-0.000112125
4.85607e-05
-0.000369855
0.000110064
-0.000679192
0.000197771
-0.00104329
0.000312258
-0.00146438
0.000453416
-0.00194326
0.000620183
-0.00247893
0.000810283
-0.00306823
0.00102004
-0.0037056
0.00124433
-0.00438294
0.00147662
-0.00508997
-0.00581465
0.0017092
1.27458e-05
-0.00012487
5.02043e-05
-0.000407314
0.000113313
-0.000742301
0.000202751
-0.00113273
0.000318695
-0.00158033
0.000460549
-0.00208512
0.000626692
-0.00264507
0.000814271
-0.00325581
0.00101909
-0.00391042
0.00123567
-0.00459952
0.00145744
-0.00531174
-0.00603424
0.00167703
1.31881e-05
-0.000138058
5.16814e-05
-0.000445807
0.000116144
-0.000806764
0.000206916
-0.0012235
0.000323748
-0.00169716
0.000465547
-0.00222691
0.000630141
-0.00280967
0.000814132
-0.0034398
0.00101287
-0.00410916
0.00122061
-0.00480726
0.00143081
-0.00552195
-0.00623996
0.00163653
1.3588e-05
-0.000151646
5.29705e-05
-0.00048519
0.000118514
-0.000872308
0.000210192
-0.00131518
0.000327314
-0.00181428
0.000468281
-0.00236788
0.000630387
-0.00297177
0.00080973
-0.00361914
0.00100127
-0.0043007
0.00119908
-0.00500507
0.00139676
-0.00571963
-0.00643104
0.00158785
1.39392e-05
-0.000165586
5.40494e-05
-0.0005253
0.000120377
-0.000938635
0.000212506
-0.00140731
0.000329294
-0.00193107
0.000468636
-0.00250722
0.000627314
-0.00313045
0.000800968
-0.0037928
0.000984245
-0.00448398
0.00117113
-0.00519195
0.00135543
-0.00590393
-0.00660684
0.00153122
1.42353e-05
-0.000179821
5.48965e-05
-0.000565961
0.000121688
-0.00100543
0.000213793
-0.00149941
0.000329602
-0.00204688
0.000466516
-0.00264414
0.000620833
-0.00328477
0.000787795
-0.00395976
0.000961809
-0.00465799
0.00113686
-0.00536701
0.00130704
-0.00607411
-0.00676682
0.00146702
1.44701e-05
-0.000194291
5.54907e-05
-0.000606982
0.000122409
-0.00107235
0.000213991
-0.00159099
0.000328164
-0.00216105
0.000461846
-0.00277782
0.000610894
-0.00343381
0.000770209
-0.00411907
0.000934042
-0.00482183
0.00109646
-0.00552943
0.00125192
-0.00622956
-0.00691061
0.00139571
1.46375e-05
-0.000208929
5.58127e-05
-0.000648157
0.000122502
-0.00113903
0.000213049
-0.00168154
0.000324921
-0.00227292
0.00045458
-0.00290748
0.000597481
-0.00357672
0.000748258
-0.00426985
0.000901085
-0.00497465
0.0010502
-0.00567854
0.00119046
-0.00636982
-0.00703796
0.00131781
1.47322e-05
-0.000223661
5.58449e-05
-0.00068927
0.000121937
-0.00120513
0.000210927
-0.00177053
0.000319835
-0.00238183
0.000444695
-0.00303234
0.000580619
-0.00371264
0.000722038
-0.00441127
0.000863132
-0.00511575
0.000998375
-0.00581378
0.0011231
-0.00649455
-0.00714876
0.0012339
1.4749e-05
-0.00023841
5.55722e-05
-0.000730093
0.000120687
-0.00127024
0.000207593
-0.00185744
0.000312882
-0.00248712
0.000432199
-0.00315166
0.000560366
-0.00384081
0.000691688
-0.00454259
0.000820428
-0.00524449
0.000941365
-0.00593472
0.00105033
-0.00660352
-0.00724301
0.00114458
1.46836e-05
-0.000253093
5.49824e-05
-0.000770392
0.000118735
-0.00133399
0.000203031
-0.00194173
0.000304062
-0.00258815
0.000417127
-0.00326472
0.000536819
-0.0039605
0.000657391
-0.00466316
0.000773259
-0.00536035
0.000879567
-0.00604103
0.000972677
-0.00669663
-0.0073208
0.00105046
1.45345e-05
-0.000267628
5.40701e-05
-0.000809927
0.000116073
-0.001396
0.000197243
-0.0020229
0.0002934
-0.00268431
0.000399548
-0.00337087
0.000510116
-0.00407107
0.000619373
-0.00477242
0.000721957
-0.00546294
0.000813421
-0.00613249
0.000890671
-0.00677388
-0.00738231
0.000952185
1.42952e-05
-0.000281923
5.28219e-05
-0.000848454
0.000112687
-0.00145586
0.000190224
-0.00210044
0.000280917
-0.002775
0.000379531
-0.00346948
0.000480394
-0.00417193
0.000577859
-0.00486988
0.000666844
-0.00555192
0.000743348
-0.006209
0.000804824
-0.00683535
-0.00742781
0.000850319
1.39658e-05
-0.000295889
5.12388e-05
-0.000885727
0.000108586
-0.00151321
0.000181999
-0.00217385
0.000266677
-0.00285968
0.000357194
-0.00356
0.000447846
-0.00426258
0.000533132
-0.00495517
0.000608297
-0.00562709
0.000669812
-0.00627051
0.000715675
-0.00688121
-0.00745759
0.000745462
1.35452e-05
-0.000309434
4.93217e-05
-0.000921503
0.000103778
-0.00156767
0.000172604
-0.00224268
0.000250752
-0.00293783
0.00033267
-0.00364192
0.000412678
-0.00434259
0.000485481
-0.00502797
0.000546693
-0.0056883
0.000593269
-0.00631709
0.000623739
-0.00691168
-0.00747202
0.000638169
1.30335e-05
-0.000322468
4.70746e-05
-0.000955544
9.82829e-05
-0.00161887
0.000162081
-0.00230648
0.00023323
-0.00300898
0.000306105
-0.00371479
0.000375114
-0.0044116
0.000435213
-0.00508807
0.000482415
-0.0057355
0.000514168
-0.00634884
0.000529513
-0.00692703
-0.00747147
0.000528965
1.24316e-05
-0.000334899
4.45053e-05
-0.000987618
9.21238e-05
-0.00166649
0.000150486
-0.00236484
0.000214214
-0.0030727
0.000277667
-0.00377825
0.000335394
-0.00446933
0.000382643
-0.00513532
0.000415848
-0.00576871
0.000432949
-0.00636594
0.00043347
-0.00692755
-0.00745634
0.00041834
1.17412e-05
-0.000346641
4.16245e-05
-0.0010175
8.5332e-05
-0.0017102
0.000137885
-0.00241739
0.000193818
-0.00312864
0.000247533
-0.00383196
0.000293766
-0.00451556
0.000328093
-0.00516965
0.000347377
-0.00578799
0.000350037
-0.0063686
0.000336059
-0.00691357
-0.00742703
0.000306744
1.09653e-05
-0.000357606
3.84463e-05
-0.00104498
7.79444e-05
-0.0017497
0.000124351
-0.0024638
0.000172169
-0.00317645
0.000215892
-0.00387568
0.000250488
-0.00455015
0.000271885
-0.00519105
0.000277378
-0.00579348
0.000265844
-0.00635707
0.000237698
-0.00688543
-0.00738392
0.000194586
1.01074e-05
-0.000367713
3.49874e-05
-0.00106986
7.0003e-05
-0.00178471
0.000109967
-0.00250376
0.000149399
-0.00321589
0.000182941
-0.00390923
0.000205825
-0.00457304
0.000214347
-0.00519957
0.000206226
-0.00578536
0.000180776
-0.00633162
0.000138777
-0.00684343
-0.00732727
8.2133e-05
9.17201e-06
-0.000376885
3.12671e-05
-0.00109196
6.15548e-05
-0.001815
9.48185e-05
-0.00253703
0.000125651
-0.00324672
0.000148881
-0.00393246
0.00016004
-0.0045842
0.000155798
-0.00519533
0.000134287
-0.00576385
9.52343e-05
-0.00629257
3.97898e-05
-0.00678798
-0.007257
-3.04839e-05
8.16426e-06
-0.00038505
2.7307e-05
-0.0011111
5.26504e-05
-0.00184035
7.89995e-05
-0.00256338
0.000101069
-0.00326879
0.000113918
-0.0039453
0.000113398
-0.00458368
9.65566e-05
-0.00517849
6.19125e-05
-0.00572921
9.5563e-06
-0.00624021
-5.90018e-05
-0.00671942
-0.00717468
-0.000141318
7.09e-06
-0.00039214
2.31305e-05
-0.00112714
4.33432e-05
-0.00186056
6.26054e-05
-0.00258264
7.58012e-05
-0.00328198
7.82558e-05
-0.00394776
6.61608e-05
-0.00457158
3.69325e-05
-0.00514926
-1.05545e-05
-0.00568172
-7.58911e-05
-0.00617487
-0.000157296
-0.00663802
-0.00708003
-0.000251951
5.95559e-06
-0.000398095
1.87626e-05
-0.00113995
3.3689e-05
-0.00187548
4.57337e-05
-0.00259468
4.99949e-05
-0.00328625
4.20969e-05
-0.00393986
1.85844e-05
-0.00454807
-2.27715e-05
-0.0051079
-8.2779e-05
-0.00562171
-0.000160763
-0.00609689
-0.000254684
-0.0065441
-0.00697325
-0.000361462
4.76791e-06
-0.000402863
1.4229e-05
-0.00114941
2.37446e-05
-0.001885
2.84823e-05
-0.00259942
2.37961e-05
-0.00328156
5.64093e-06
-0.00392171
-2.90844e-05
-0.00451334
-8.22629e-05
-0.00505472
-0.000154433
-0.00554954
-0.000244721
-0.0060066
-0.000350891
-0.00643793
-0.00685457
-0.000469567
3.53422e-06
-0.000406397
9.55647e-06
-0.00115543
1.35668e-05
-0.00188901
1.09481e-05
-0.0025968
-2.64979e-06
-0.00326796
-3.09291e-05
-0.00389343
-7.66087e-05
-0.00446766
-0.000141258
-0.00499007
-0.000225194
-0.00546561
-0.000327426
-0.00590437
-0.000445601
-0.00631975
-0.00672416
-0.000576009
2.26267e-06
-0.00040866
4.7723e-06
-0.00115794
3.21187e-06
-0.00188745
-6.77644e-06
-0.00258681
-2.92182e-05
-0.00324552
-6.74289e-05
-0.00385522
-0.000123765
-0.00441133
-0.000199491
-0.00491435
-0.000294751
-0.00537035
-0.000408531
-0.00579059
-0.00053849
-0.00618979
-0.00658211
-0.000680541
9.61485e-07
-0.000409621
-1.1225e-07
-0.00115687
-7.26699e-06
-0.0018803
-2.46013e-05
-0.00256948
-5.577e-05
-0.00321435
-0.000103694
-0.00380729
-0.00017035
-0.00434467
-0.000256712
-0.00482799
-0.0003628
-0.00526426
-0.000487681
-0.00566571
-0.000629208
-0.00604827
-0.0064284
-0.000782921
-3.92722e-07
-0.000409229
-5.03561e-06
-0.00115222
-1.78118e-05
-0.00186752
-4.24397e-05
-0.00254485
-8.2191e-05
-0.0031746
-0.000139575
-0.00374991
-0.000216183
-0.00426806
-0.000312703
-0.00473147
-0.000429057
-0.00514791
-0.000564504
-0.00553026
-0.000717362
-0.00589541
-0.00626284
-0.000882928
-1.72496e-06
-0.000407504
-1.00044e-05
-0.00114394
-2.83761e-05
-0.00184915
-6.02128e-05
-0.00251301
-0.000108374
-0.00312644
-0.000174941
-0.00368334
-0.000261112
-0.00418189
-0.000367279
-0.0046253
-0.000493271
-0.00502191
-0.000638625
-0.00538491
-0.000802503
-0.00573153
-0.00608498
-0.000980358
-3.08374e-06
-0.00040442
-1.49847e-05
-0.00113204
-3.89107e-05
-0.00182522
-7.78465e-05
-0.00247408
-0.000134221
-0.00307006
-0.000209679
-0.00360788
-0.000305014
-0.00408656
-0.000420303
-0.00451001
-0.00055524
-0.00488698
-0.000709674
-0.00523047
-0.000884051
-0.00555716
-0.00589427
-0.00107476
-4.44723e-06
-0.000399973
-1.99529e-05
-0.00111654
-4.93695e-05
-0.0017958
-9.52718e-05
-0.00242818
-0.000159646
-0.00300569
-0.000243693
-0.00352384
-0.000347801
-0.00398245
-0.000471698
-0.00438611
-0.000614848
-0.00474383
-0.000777281
-0.00506804
-0.000960921
-0.00537352
-0.00568947
-0.00116572
-5.80793e-06
-0.000394165
-2.4886e-05
-0.00109746
-5.97084e-05
-0.00176098
-0.000112423
-0.00237546
-0.000184568
-0.00293355
-0.000276904
-0.0034315
-0.000389416
-0.00386994
-0.000521465
-0.00425406
-0.000672161
-0.00459313
-0.000841239
-0.00489896
-0.00103174
-0.00518301
-0.0054668
-0.00125441
-7.15641e-06
-0.000387008
-2.97565e-05
-0.00107486
-6.9878e-05
-0.00172086
-0.000129231
-0.00231611
-0.000208902
-0.00285388
-0.000309228
-0.00333117
-0.00042981
-0.00374936
-0.000569674
-0.0041142
-0.000727576
-0.00443523
-0.000902289
-0.00472425
-0.00109144
-0.00499386
-0.00525872
-0.00129953
-8.49121e-06
-0.000378517
-3.45525e-05
-0.0010488
-7.98503e-05
-0.00167556
-0.000145649
-0.00225031
-0.00023259
-0.00276693
-0.0003406
-0.00322316
-0.000468938
-0.00362102
-0.00061637
-0.00396677
-0.000781458
-0.00427014
-0.000962813
-0.00454289
-0.00115912
-0.00479754
-0.00504478
-0.00137307
-9.80315e-06
-0.000368714
-3.92478e-05
-0.00101935
-8.95782e-05
-0.00162523
-0.00016161
-0.00217828
-0.000255545
-0.002673
-0.000370917
-0.00310779
-0.000506673
-0.00348526
-0.000661363
-0.00381208
-0.000833434
-0.00409807
-0.0010215
-0.00435483
-0.00122462
-0.00459442
-0.004826
-0.0014434
-1.1086e-05
-0.000357628
-4.38219e-05
-0.000986618
-9.90234e-05
-0.00157003
-0.000177057
-0.00210024
-0.000277692
-0.00257237
-0.000400086
-0.0029854
-0.000542889
-0.00334246
-0.000704457
-0.00365051
-0.000883122
-0.0039194
-0.00107745
-0.0041605
-0.00128649
-0.00438539
-0.00460249
-0.00150999
-1.23339e-05
-0.000345294
-4.82556e-05
-0.000950696
-0.00010815
-0.00151014
-0.000191936
-0.00201646
-0.000298963
-0.00246534
-0.000428022
-0.00285634
-0.000577486
-0.00319299
-0.00074552
-0.00348248
-0.000930343
-0.00373458
-0.00113045
-0.00396039
-0.00134479
-0.00417105
-0.00437454
-0.00157274
-1.35411e-05
-0.000331753
-5.25311e-05
-0.000911706
-0.000116924
-0.00144574
-0.0002062
-0.00192718
-0.000319296
-0.00235224
-0.000454656
-0.00272098
-0.000610385
-0.00303727
-0.000784472
-0.00330839
-0.000975027
-0.00354403
-0.00118047
-0.00375495
-0.00139969
-0.00395183
-0.00414236
-0.00163188
-1.47024e-05
-0.000317051
-5.66317e-05
-0.000869777
-0.000125316
-0.00137706
-0.000219806
-0.00183269
-0.000338641
-0.00223341
-0.000479931
-0.00257969
-0.000641533
-0.00287566
-0.000821269
-0.00312865
-0.00101715
-0.00334814
-0.00122756
-0.00354454
-0.00145132
-0.00372807
-0.00390609
-0.00168759
-1.58131e-05
-0.000301238
-6.05424e-05
-0.000825047
-0.000133299
-0.0013043
-0.000232717
-0.00173327
-0.000356952
-0.00210917
-0.000503801
-0.00243284
-0.000670888
-0.00270858
-0.000855884
-0.00294366
-0.00105672
-0.0031473
-0.00127174
-0.00332952
-0.00149978
-0.00350004
-0.00366587
-0.00174
-1.68687e-05
-0.000284369
-6.42497e-05
-0.000777666
-0.000140849
-0.0012277
-0.000244898
-0.00162922
-0.000374191
-0.00197988
-0.000526229
-0.0022808
-0.000698419
-0.00253639
-0.000888301
-0.00275377
-0.00109374
-0.00294186
-0.00131307
-0.00311019
-0.00154514
-0.00326797
-0.00342183
-0.00178917
-1.78652e-05
-0.000266504
-6.77412e-05
-0.00072779
-0.000147944
-0.0011475
-0.000256322
-0.00152085
-0.000390326
-0.00184588
-0.000547182
-0.00212394
-0.000724101
-0.00235947
-0.000918506
-0.00255937
-0.00112821
-0.00273215
-0.00135155
-0.00288685
-0.00158742
-0.0030321
-0.00317414
-0.00183511
-1.8799e-05
-0.000247705
-7.10057e-05
-0.000675584
-0.000154565
-0.00106394
-0.000266962
-0.00140845
-0.000405327
-0.00170751
-0.000566633
-0.00196264
-0.000747912
-0.00217819
-0.000946486
-0.0023608
-0.00116013
-0.00251851
-0.0013872
-0.00265978
-0.00162664
-0.00279267
-0.00292295
-0.00187783
-1.96668e-05
-0.000228038
-7.40332e-05
-0.000621217
-0.000160694
-0.000977279
-0.000276795
-0.00129235
-0.00041917
-0.00156514
-0.000584557
-0.00179725
-0.000769831
-0.00199291
-0.000972226
-0.0021584
-0.0011895
-0.00230123
-0.00142002
-0.00242927
-0.00166278
-0.0025499
-0.00266847
-0.00191726
-2.04654e-05
-0.000207573
-7.68146e-05
-0.000564868
-0.000166316
-0.000887778
-0.000285801
-0.00117286
-0.00043183
-0.00141911
-0.000600931
-0.00162815
-0.000789838
-0.00180401
-0.000995711
-0.00195253
-0.00121629
-0.00208066
-0.00144997
-0.00219558
-0.00169582
-0.00230405
-0.00241091
-0.00195338
-2.11922e-05
-0.00018638
-7.93415e-05
-0.000506719
-0.000171416
-0.000795703
-0.00029396
-0.00105032
-0.000443287
-0.00126978
-0.000615735
-0.0014557
-0.000807914
-0.00161183
-0.00101692
-0.00174352
-0.00124049
-0.00185709
-0.00147704
-0.00195903
-0.00172571
-0.00205539
-0.00215051
-0.00198611
-2.18447e-05
-0.000164536
-8.16067e-05
-0.000446957
-0.000175982
-0.000701327
-0.000301256
-0.000925048
-0.000453521
-0.00111752
-0.000628948
-0.00128028
-0.000824038
-0.00141674
-0.00103584
-0.00153172
-0.00126207
-0.00163085
-0.00150121
-0.00171989
-0.00175242
-0.00180418
-0.00188754
-0.00201539
-2.24206e-05
-0.000142115
-8.36035e-05
-0.000385774
-0.000180003
-0.000604927
-0.000307674
-0.000797377
-0.000462516
-0.000962675
-0.000640553
-0.00110224
-0.000838194
-0.00121909
-0.00105244
-0.00131747
-0.00128103
-0.00140227
-0.00152244
-0.00147848
-0.0017759
-0.00155072
-0.00162227
-0.00204117
-2.29179e-05
-0.000119197
-8.53261e-05
-0.000323366
-0.000183468
-0.000506785
-0.000313201
-0.000667644
-0.000470255
-0.00080562
-0.000650532
-0.000921962
-0.000850363
-0.00101926
-0.00106672
-0.00110112
-0.00129732
-0.00117167
-0.0015407
-0.00123511
-0.00179611
-0.0012953
-0.001355
-0.00206338
-2.33351e-05
-9.58621e-05
-8.67694e-05
-0.000259931
-0.000186369
-0.000407186
-0.000317824
-0.000536189
-0.000476726
-0.000646718
-0.000658872
-0.000739816
-0.000860529
-0.000817607
-0.00107864
-0.000883012
-0.00131093
-0.000939372
-0.00155596
-0.00099008
-0.00181302
-0.00103824
-0.00108605
-0.00208197
-2.36705e-05
-7.21916e-05
-8.79291e-05
-0.000195673
-0.000188699
-0.000306416
-0.000321535
-0.000403353
-0.000481917
-0.000486335
-0.00066556
-0.000556173
-0.00086868
-0.000614487
-0.0010882
-0.000663493
-0.00132185
-0.00070572
-0.0015682
-0.000743727
-0.00182659
-0.000779849
-0.000815742
-0.0020969
-2.39231e-05
-4.82685e-05
-8.88019e-05
-0.000130794
-0.000190451
-0.000204767
-0.000324325
-0.000269479
-0.000485819
-0.000324842
-0.000670585
-0.000371407
-0.000874804
-0.000410269
-0.00109538
-0.000442917
-0.00133005
-0.000471048
-0.0015774
-0.000496375
-0.00183679
-0.000520458
-0.000544403
-0.00210813
-2.4092e-05
-2.41765e-05
-8.93852e-05
-6.55006e-05
-0.000191622
-0.00010253
-0.000326188
-0.000134913
-0.000488424
-0.000162606
-0.00067394
-0.000185891
-0.000878891
-0.000205317
-0.00110017
-0.000221635
-0.00133553
-0.000235695
-0.00158355
-0.000248355
-0.00184361
-0.000260397
-0.000272374
-0.00211564
-2.41765e-05
4.51365e-11
-8.96772e-05
1.27078e-10
-0.000192208
2.06349e-10
-0.000327121
2.78927e-10
-0.000489727
3.40838e-10
-0.000675618
3.90227e-10
-0.000880936
4.27162e-10
-0.00110257
4.5313e-10
-0.00133827
4.70062e-10
-0.00158662
4.80197e-10
-0.00184702
4.85453e-10
4.87369e-10
-0.00211939
-2.41765e-05
2.41766e-05
-8.96772e-05
6.55008e-05
-0.000192208
0.000102531
-0.000327121
0.000134913
-0.000489727
0.000162607
-0.000675618
0.000185892
-0.000880936
0.000205318
-0.00110257
0.000221636
-0.00133827
0.000235696
-0.00158662
0.000248356
-0.00184702
0.000260398
0.000272375
-0.00211939
-2.4092e-05
4.82686e-05
-8.93852e-05
0.000130794
-0.000191622
0.000204767
-0.000326188
0.00026948
-0.000488424
0.000324842
-0.00067394
0.000371408
-0.000878891
0.00041027
-0.00110017
0.000442918
-0.00133553
0.000471049
-0.00158355
0.000496376
-0.00184361
0.000520459
0.000544404
-0.00211564
-2.39231e-05
7.21917e-05
-8.88019e-05
0.000195673
-0.000190451
0.000306416
-0.000324325
0.000403353
-0.000485819
0.000486336
-0.000670585
0.000556174
-0.000874804
0.000614488
-0.00109538
0.000663494
-0.00133005
0.000705721
-0.0015774
0.000743728
-0.00183679
0.00077985
0.000815743
-0.00210813
-2.36705e-05
9.58622e-05
-8.79291e-05
0.000259932
-0.000188699
0.000407186
-0.000321535
0.00053619
-0.000481917
0.000646719
-0.00066556
0.000739817
-0.00086868
0.000817608
-0.0010882
0.000883012
-0.00132185
0.000939373
-0.0015682
0.000990081
-0.00182659
0.00103824
0.00108605
-0.0020969
-2.33351e-05
0.000119197
-8.67694e-05
0.000323366
-0.000186369
0.000506786
-0.000317824
0.000667645
-0.000476726
0.000805621
-0.000658872
0.000921963
-0.000860529
0.00101927
-0.00107864
0.00110112
-0.00131093
0.00117167
-0.00155596
0.00123511
-0.00181302
0.0012953
0.001355
-0.00208197
-2.29179e-05
0.000142115
-8.53261e-05
0.000385774
-0.000183468
0.000604928
-0.000313201
0.000797377
-0.000470255
0.000962675
-0.000650532
0.00110224
-0.000850363
0.0012191
-0.00106672
0.00131747
-0.00129732
0.00140227
-0.0015407
0.00147848
-0.00179611
0.00155072
0.00162227
-0.00206338
-2.24206e-05
0.000164536
-8.36035e-05
0.000446957
-0.000180003
0.000701327
-0.000307674
0.000925048
-0.000462516
0.00111752
-0.000640553
0.00128028
-0.000838194
0.00141674
-0.00105244
0.00153172
-0.00128103
0.00163085
-0.00152244
0.00171989
-0.0017759
0.00180418
0.00188754
-0.00204117
-2.18447e-05
0.00018638
-8.16067e-05
0.000506719
-0.000175982
0.000795703
-0.000301256
0.00105032
-0.000453521
0.00126978
-0.000628948
0.0014557
-0.000824038
0.00161183
-0.00103584
0.00174352
-0.00126207
0.00185709
-0.00150121
0.00195903
-0.00175242
0.00205539
0.00215051
-0.00201539
-2.11922e-05
0.000207573
-7.93415e-05
0.000564868
-0.000171416
0.000887778
-0.00029396
0.00117287
-0.000443287
0.00141911
-0.000615735
0.00162815
-0.000807914
0.00180401
-0.00101692
0.00195253
-0.00124049
0.00208066
-0.00147704
0.00219559
-0.00172571
0.00230406
0.00241091
-0.00198611
-2.04654e-05
0.000228038
-7.68146e-05
0.000621217
-0.000166316
0.000977279
-0.000285801
0.00129235
-0.00043183
0.00156514
-0.000600931
0.00179725
-0.000789838
0.00199291
-0.000995711
0.0021584
-0.00121629
0.00230123
-0.00144997
0.00242927
-0.00169582
0.0025499
0.00266847
-0.00195338
-1.96668e-05
0.000247705
-7.40332e-05
0.000675584
-0.000160694
0.00106394
-0.000276795
0.00140845
-0.00041917
0.00170751
-0.000584557
0.00196264
-0.000769831
0.00217819
-0.000972226
0.0023608
-0.0011895
0.00251851
-0.00142002
0.00265978
-0.00166278
0.00279267
0.00292295
-0.00191726
-1.8799e-05
0.000266504
-7.10057e-05
0.000727791
-0.000154565
0.0011475
-0.000266962
0.00152085
-0.000405327
0.00184588
-0.000566633
0.00212395
-0.000747912
0.00235947
-0.000946486
0.00255937
-0.00116013
0.00273215
-0.0013872
0.00288685
-0.00162664
0.0030321
0.00317414
-0.00187783
-1.78652e-05