/*--------------------------------*- C++ -*----------------------------------*\
  =========                 |
  \\      /  F ield         | OpenFOAM: The Open Source CFD Toolbox
   \\    /   O peration     | Website:  https://openfoam.org
    \\  /    A nd           | Version:  7
     \\/     M anipulation  |
\*---------------------------------------------------------------------------*/
FoamFile
{
    version     2.0;
    format      ascii;
    class       volVectorField;
    location    "5";
    object      U;
}
// * * * * * * * * * * * * * * * * * * * * * * * * * * * * * * * * * * * * * //

dimensions      [0 1 -1 0 0 0 0];

internalField   nonuniform List<vector> 
10220
(
(-0.00055546 0.000493892 1.05049e-21)
(-0.00294346 0.00113322 1.07629e-20)
(-0.00734348 0.00150724 1.28206e-20)
(-0.0125604 0.00167722 -5.74432e-21)
(-0.0180307 0.00168881 -3.91214e-21)
(-0.0233418 0.00158307 3.95599e-21)
(-0.02817 0.00139783 3.80954e-21)
(-0.0323086 0.00116813 -3.92579e-21)
(-0.0356605 0.00092692 5.18358e-21)
(-0.0382389 0.000704561 -1.69742e-20)
(-0.0401295 0.000524161 3.77783e-21)
(-0.0414729 0.000411483 -4.60972e-21)
(-0.000618567 0.00147213 -9.42229e-21)
(-0.00305973 0.00337613 -4.498e-21)
(-0.00743273 0.00448856 9.49365e-21)
(-0.0125613 0.00499187 -1.14689e-20)
(-0.0178901 0.00502234 -8.05256e-21)
(-0.0230123 0.00470262 -1.19668e-20)
(-0.0276094 0.00414575 3.05596e-21)
(-0.0314783 0.00345652 -8.61982e-21)
(-0.0345251 0.00273379 1.71456e-20)
(-0.0367684 0.00206876 4.08267e-20)
(-0.0382945 0.00153158 -2.05636e-20)
(-0.0392205 0.00120137 -5.285e-21)
(-0.000742516 0.00242187 3.04322e-20)
(-0.00328676 0.00554876 -4.68574e-20)
(-0.00760373 0.00737077 -1.02215e-20)
(-0.0125545 0.00818762 -1.12529e-20)
(-0.0175995 0.00822416 -2.37301e-21)
(-0.022344 0.007683 -1.89833e-20)
(-0.0264792 0.00675102 -4.85267e-20)
(-0.0298094 0.00560193 -6.79836e-21)
(-0.0322471 0.00440028 -1.76542e-20)
(-0.0338218 0.00329861 -3.08228e-21)
(-0.0346211 0.00241645 4.65224e-20)
(-0.0347134 0.00189178 7.05418e-20)
(-0.000922826 0.00332485 -1.01434e-20)
(-0.00361368 0.00760592 2.94074e-20)
(-0.00784152 0.0100901 -2.19577e-21)
(-0.0125224 0.0111879 5.05554e-20)
(-0.0171403 0.0112095 -4.67056e-20)
(-0.0213178 0.0104347 3.14824e-20)
(-0.024761 0.00912201 3.57864e-20)
(-0.0272853 0.00751259 6.32164e-20)
(-0.0288121 0.00583633 3.22878e-20)
(-0.0293873 0.00430786 -4.70011e-20)
(-0.0291019 0.00309983 8.19558e-21)
(-0.027947 0.0024177 -7.83771e-20)
(-0.00115292 0.00416387 5.39169e-21)
(-0.00402438 0.00950483 -3.12404e-20)
(-0.0081239 0.0125859 4.33121e-20)
(-0.012439 0.01392 -2.50687e-20)
(-0.0164842 0.013898 -9.16917e-21)
(-0.0199052 0.0128731 -3.95167e-20)
(-0.0224273 0.0111723 -8.64543e-20)
(-0.0238803 0.0091021 5.92071e-20)
(-0.0241976 0.00695722 -3.68649e-20)
(-0.0234466 0.00501546 3.57937e-20)
(-0.0217262 0.00350814 -5.37846e-21)
(-0.0189169 0.00272089 -1.11397e-19)
(-0.00142425 0.00492311 -7.66502e-20)
(-0.00449781 0.0112059 -2.14391e-20)
(-0.00842161 0.0148022 2.2294e-20)
(-0.0122696 0.0163167 -6.32049e-20)
(-0.0155937 0.0162154 -4.25067e-20)
(-0.0180677 0.0149203 7.71509e-20)
(-0.0194406 0.0128227 -3.98079e-21)
(-0.0195596 0.0102916 -1.63938e-20)
(-0.0183728 0.00768571 2.22145e-20)
(-0.0159734 0.00534702 -1.67452e-19)
(-0.0124756 0.00357354 3.84725e-20)
(-0.00761708 0.00276211 1.91918e-19)
(-0.00172652 0.00558847 1.05117e-19)
(-0.00500832 0.0126736 1.01666e-19)
(-0.00869867 0.0166883 -1.77893e-19)
(-0.0119715 0.0183174 5.68449e-20)
(-0.014422 0.0180952 1.44152e-19)
(-0.0157571 0.016507 -1.77984e-19)
(-0.0157533 0.0140034 1.14586e-19)
(-0.0142787 0.0110122 -1.05749e-19)
(-0.0112977 0.00795434 3.59029e-20)
(-0.00693284 0.00523603 6.58117e-22)
(-0.0013154 0.00322797 -1.35613e-19)
(0.00595778 0.00250432 6.25704e-20)
(-0.00204784 0.00614771 -6.52463e-20)
(-0.00552596 0.0138766 5.64007e-20)
(-0.00891264 0.0182 1.51583e-19)
(-0.0114935 0.0198692 5.53527e-20)
(-0.0129128 0.0194799 -1.05163e-19)
(-0.0129146 0.0175742 1.59284e-19)
(-0.0113075 0.0146561 -6.21571e-20)
(-0.00798254 0.0112071 1.55718e-19)
(-0.00292322 0.00770828 -1.08676e-19)
(0.00371341 0.00463018 -1.33838e-19)
(0.0117936 0.00242986 1.68153e-20)
(0.0218455 0.00188901 -4.19653e-20)
(-0.00237495 0.0065906 -1.55604e-19)
(-0.00601694 0.0147888 -7.85881e-20)
(-0.00901505 0.0192999 -9.35212e-20)
(-0.0107768 0.0209281 6.65498e-20)
(-0.0110004 0.0203226 -4.07574e-21)
(-0.00947159 0.0180749 1.3561e-19)
(-0.00603403 0.0147355 -1.12546e-19)
(-0.0006049 0.0108342 -1.17107e-19)
(0.00681196 0.00690837 9.15084e-20)
(0.0160217 0.00349418 1.83706e-19)
(0.0268847 0.00115052 2.59809e-19)
(0.0400843 0.000880128 2.19504e-20)
(-0.00269338 0.00690892 2.47595e-20)
(-0.0064439 0.0153888 1.34099e-20)
(-0.00895176 0.0199583 -6.51014e-20)
(-0.00975511 0.0214597 -1.58048e-19)
(-0.00861038 0.0205875 -3.89306e-20)
(-0.00534885 0.0179752 -3.19852e-19)
(0.000147039 0.0142118 2.75224e-19)
(0.00793178 0.00986826 -2.42059e-19)
(0.01798 0.00553305 2.43628e-19)
(0.030057 0.00180663 -1.12759e-19)
(0.0440115 -0.000638374 -2.80788e-19)
(0.0607146 -0.00052029 4.68999e-20)
(-0.00298762 0.00709647 1.47966e-20)
(-0.00676632 0.0156606 1.84068e-20)
(-0.00866339 0.020153 2.47288e-19)
(-0.00835481 0.0214394 -1.01354e-19)
(-0.00565926 0.0202512 2.2276e-19)
(-0.000457122 0.0172556 2.62154e-20)
(0.00732702 0.0130716 -1.26881e-19)
(0.0177168 0.00830291 1.70211e-19)
(0.0306641 0.00358175 -4.50238e-19)
(0.0458936 -0.000431699 1.35898e-19)
(0.063239 -0.00293985 -3.33223e-20)
(0.0837901 -0.00230668 2.11739e-19)
(-0.00324127 0.00714898 1.16525e-19)
(-0.00694088 0.0155932 3.52559e-20)
(-0.00808578 0.0198699 -7.40087e-20)
(-0.00649588 0.0208532 1.2666e-19)
(-0.00205546 0.0193028 -1.43901e-19)
(0.00530259 0.0159117 3.44885e-19)
(0.0156081 0.0113196 2.59576e-19)
(0.0288509 0.00615292 -2.2511e-19)
(0.0449594 0.00107793 2.06586e-19)
(0.0636166 -0.00319401 4.50354e-20)
(0.0846405 -0.00573207 4.32944e-19)
(0.109375 -0.00446026 -1.62274e-19)
(-0.00343709 0.00706394 9.05398e-20)
(-0.00692177 0.0151808 -8.4138e-20)
(-0.00715059 0.0191027 8.42018e-20)
(-0.00409239 0.0196973 2.52776e-20)
(0.00230004 0.0177445 -2.17018e-19)
(0.0120382 0.0139546 4.37171e-20)
(0.0251028 0.00897895 -1.41449e-19)
(0.0414463 0.00345541 -9.92835e-20)
(0.0609718 -0.00192841 9.50153e-20)
(0.0833209 -0.00642407 -4.30138e-20)
(0.108297 -0.00896565 -3.35146e-19)
(0.137543 -0.00694253 8.20647e-20)
(-0.00355708 0.00684057 -4.89286e-21)
(-0.00666104 0.0144224 -7.66295e-20)
(-0.005786 0.017853 -1.19825e-19)
(-0.00105359 0.0179783 -1.74067e-19)
(0.00751249 0.0155909 1.556e-19)
(0.0198653 0.0114107 -5.06594e-20)
(0.0359325 0.0060912 -4.80116e-20)
(0.0556253 0.000270299 8.61126e-20)
(0.0788179 -0.00535883 -5.43524e-20)
(0.105111 -0.0100321 5.22465e-20)
(0.134296 -0.0125578 3.06708e-20)
(0.168369 -0.00969118 -1.17289e-19)
(-0.00358266 0.00647972 -2.63523e-20)
(-0.00610906 0.0133219 -4.47363e-20)
(-0.0039175 0.0161298 -8.7467e-20)
(0.00271488 0.0157131 4.36959e-19)
(0.0136917 0.0128692 1.71028e-19)
(0.0289051 0.00832068 1.76285e-19)
(0.048226 0.00271533 -2.21805e-20)
(0.0715187 -0.00332046 2.52852e-21)
(0.0986234 -0.00910585 -3.48609e-19)
(0.129097 -0.0138909 -1.88993e-19)
(0.162728 -0.0163848 2.20228e-20)
(0.201928 -0.0126142 -1.45147e-19)
(-0.00349469 0.00598376 -5.73396e-20)
(-0.00521503 0.0118879 8.32725e-20)
(-0.00146903 0.0139499 -6.30998e-20)
(0.00730926 0.0129279 -4.16997e-19)
(0.0209498 0.00961751 1.02868e-19)
(0.039282 0.00473827 -2.6972e-19)
(0.0621161 -0.00107459 9.33114e-21)
(0.0892632 -0.00721561 -5.15602e-21)
(0.120521 -0.0130345 5.62456e-19)
(0.155399 -0.0178335 1.19819e-19)
(0.193685 -0.0202723 -1.68232e-19)
(0.238289 -0.0155796 3.86409e-19)
(-0.00327365 0.00535672 9.7728e-20)
(-0.0039277 0.0101337 5.56061e-20)
(0.0016357 0.0113373 1.97263e-19)
(0.0128256 0.00965846 9.29567e-20)
(0.0293984 0.00588464 -2.87605e-19)
(0.0511196 0.000727943 3.56549e-19)
(0.0777358 -0.00519303 -7.49346e-20)
(0.108998 -0.0112998 1.02096e-19)
(0.144649 -0.0169878 4.14212e-20)
(0.184142 -0.0216539 -8.48065e-20)
(0.227263 -0.0239864 2.3741e-19)
(0.277506 -0.0184045 -1.61689e-19)
(-0.00289989 0.00460432 -5.22755e-20)
(-0.00219613 0.00807771 7.85671e-20)
(0.00547157 0.00832336 -3.77717e-19)
(0.0193572 0.00594917 1.4835e-19)
(0.0391447 0.00172848 -9.51048e-20)
(0.064536 -0.00363742 1.51712e-20)
(0.0952122 -0.00954774 2.01815e-19)
(0.130857 -0.0154514 2.15346e-20)
(0.171147 -0.020797 -5.15023e-19)
(0.21546 -0.0251159 4.13413e-19)
(0.263573 -0.0272316 -1.98239e-19)
(0.319632 -0.0208439 -1.3278e-20)
(-0.00235395 0.0037342 2.51219e-20)
(2.9217e-05 0.00574343 -9.00787e-21)
(0.0101102 0.00494702 -1.32648e-20)
(0.0269918 0.00185326 1.01924e-20)
(0.0502877 -0.00278474 -8.43334e-20)
(0.0796381 -0.00827903 1.52406e-19)
(0.114659 -0.0140453 -2.25763e-19)
(0.154962 -0.0195532 1.07993e-19)
(0.200145 -0.0242985 3.08713e-19)
(0.249491 -0.0279703 -3.86845e-19)
(0.302742 -0.0296409 -2.68691e-19)
(0.364719 -0.0225312 -5.23882e-20)
(-0.00161693 0.00275614 1.37826e-19)
(0.00279539 0.00315995 3.17156e-20)
(0.0156181 0.001255 1.86072e-19)
(0.0358083 -0.00256727 2.19192e-19)
(0.0629131 -0.0075808 -3.80781e-19)
(0.0965143 -0.013114 1.17651e-20)
(0.136166 -0.0185965 -2.95455e-20)
(0.181412 -0.0235054 2.01675e-20)
(0.231758 -0.0273591 3.51031e-19)
(0.28637 -0.0299796 -4.92476e-20)
(0.344888 -0.0307063 2.65926e-19)
(0.412686 -0.0227076 3.29062e-20)
(-0.000671042 0.00168221 -3.9945e-20)
(0.00614571 0.000362243 1.12392e-19)
(0.0220544 -0.00269772 -4.02283e-19)
(0.0458738 -0.00724103 -7.23893e-20)
(0.0770886 -0.0125771 1.37568e-19)
(0.115227 -0.0180559 7.08059e-21)
(0.159789 -0.0231204 -3.38146e-19)
(0.210263 -0.0272417 -6.88959e-19)
(0.266076 -0.0299211 -1.77437e-19)
(0.326294 -0.0309886 5.30682e-19)
(0.390264 -0.0297612 -3.77214e-19)
(0.463142 -0.0199826 1.7986e-19)
(0.000500017 0.00052702 -2.22772e-19)
(0.0101186 -0.00260853 -7.90704e-20)
(0.0294691 -0.00684737 5.60623e-19)
(0.0572408 -0.0120863 -1.83527e-19)
(0.0928591 -0.0176807 1.5327e-19)
(0.135803 -0.0230117 -8.181e-20)
(0.185531 -0.0275434 2.16691e-19)
(0.241499 -0.0307418 5.75797e-19)
(0.303127 -0.0320642 -1.079e-19)
(0.369586 -0.0311362 -7.04035e-19)
(0.440053 -0.02669 3.99609e-19)
(0.517444 -0.0142074 1.50444e-20)
(0.00191058 -0.000692303 3.77021e-19)
(0.0147468 -0.00570488 3.69118e-20)
(0.0379021 -0.011121 -1.01877e-19)
(0.0699452 -0.0170099 -1.02587e-19)
(0.110244 -0.0227858 4.26675e-19)
(0.15823 -0.0278755 9.9661e-21)
(0.213323 -0.031785 -1.73714e-19)
(0.274971 -0.034008 -5.21706e-19)
(0.342668 -0.0340013 -1.57656e-19)
(0.416085 -0.0311232 5.43308e-19)
(0.49575 -0.0235162 -2.88796e-19)
(0.585798 -0.0110153 5.35376e-19)
(0.00357272 -0.00195616 -1.90396e-19)
(0.0200564 -0.00887315 -2.73532e-21)
(0.0473818 -0.0154364 -3.62676e-19)
(0.084006 -0.021906 -5.79493e-20)
(0.129238 -0.0277693 -4.06101e-19)
(0.182456 -0.0325176 1.56564e-19)
(0.243031 -0.0357278 2.52374e-19)
(0.310386 -0.0369784 7.09786e-19)
(0.384045 -0.0358546 2.85271e-19)
(0.463954 -0.0318693 -7.66992e-19)
(0.551118 -0.0241678 1.97846e-19)
(0.646552 -0.0179647 5.09241e-21)
(0.00549607 -0.00324273 -7.95092e-20)
(0.0260668 -0.0120539 8.3837e-20)
(0.0579257 -0.0197023 1.9042e-19)
(0.099426 -0.0266563 1.45697e-19)
(0.149813 -0.0324908 -2.67394e-19)
(0.208399 -0.0367793 2.25541e-19)
(0.274483 -0.0391971 -3.01685e-20)
(0.347415 -0.0394514 -5.0156e-19)
(0.426636 -0.037333 1.53669e-19)
(0.512002 -0.0326748 7.39431e-19)
(0.604145 -0.0255308 -4.23987e-19)
(0.70088 -0.0233167 -1.17193e-19)
(0.00768781 -0.00452838 3.46259e-19)
(0.0327906 -0.0151831 -8.87502e-20)
(0.0695403 -0.0238203 3.60073e-19)
(0.116194 -0.0311324 -8.22801e-20)
(0.171925 -0.0367949 1.06734e-19)
(0.235964 -0.040479 8.93817e-20)
(0.307508 -0.0419769 -1.74456e-19)
(0.385779 -0.0411445 2.71468e-19)
(0.470036 -0.0379862 -8.03209e-19)
(0.559817 -0.0326189 -3.46825e-19)
(0.655067 -0.0255824 -5.83615e-20)
(0.751654 -0.0248234 -3.26413e-19)
(0.0101527 -0.00578811 -2.33156e-19)
(0.0402332 -0.018193 -6.76898e-20)
(0.0822212 -0.0276864 -3.43054e-19)
(0.134283 -0.0351987 -1.32283e-19)
(0.195514 -0.0405178 -1.72199e-20)
(0.265043 -0.0434243 -3.6318e-20)
(0.341939 -0.0438389 1.68313e-19)
(0.425251 -0.0417705 -1.54672e-20)
(0.513991 -0.0374163 5.94179e-19)
(0.607302 -0.0311087 4.15467e-19)
(0.704446 -0.0236266 3.76977e-21)
(0.800379 -0.0228157 8.56332e-20)
(0.0128933 -0.00699603 -6.30611e-20)
(0.0483936 -0.0210133 -4.52368e-20)
(0.0959533 -0.0311934 5.11366e-20)
(0.153655 -0.0387166 3.21617e-19)
(0.220505 -0.0434935 7.49497e-20)
(0.295519 -0.0454239 1.20599e-19)
(0.37761 -0.0445637 1.72998e-20)
(0.465626 -0.0410732 2.40465e-19)
(0.558305 -0.0353177 -6.78027e-19)
(0.65439 -0.0277913 -4.93053e-20)
(0.75257 -0.0193889 -1.3306e-19)
(0.847474 -0.0175878 6.86675e-20)
(0.0159095 -0.00812568 5.87084e-20)
(0.0572633 -0.0235729 -7.31501e-20)
(0.11071 -0.0342333 -3.77756e-20)
(0.174256 -0.0415479 -2.32183e-19)
(0.24681 -0.0455597 -6.90172e-20)
(0.32726 -0.0462959 -1.98571e-19)
(0.414348 -0.043953 -3.59091e-19)
(0.506701 -0.0388398 -1.00167e-19)
(0.602781 -0.0314711 3.55683e-20)
(0.700963 -0.0224677 -2.47797e-19)
(0.799483 -0.0127865 2.93256e-19)
(0.892967 -0.00942879 -3.83575e-20)
(0.0191991 -0.0091504 6.69422e-20)
(0.0668267 -0.0258004 -2.31823e-19)
(0.126454 -0.0366992 4.62081e-20)
(0.196017 -0.0435585 1.64446e-19)
(0.274322 -0.0465626 7.48445e-20)
(0.360117 -0.0458743 1.24196e-19)
(0.451962 -0.0418365 4.22774e-19)
(0.548261 -0.0349053 -3.05131e-19)
(0.647205 -0.0257338 4.08373e-19)
(0.746851 -0.0150527 1.28518e-19)
(0.845086 -0.00386515 6.42257e-20)
(0.936724 0.00133839 -1.24874e-19)
(0.0227574 -0.0100435 3.35654e-21)
(0.0770607 -0.0276253 2.78311e-19)
(0.143135 -0.0384874 1.49983e-19)
(0.218854 -0.0446206 8.44101e-20)
(0.302917 -0.0463602 -4.34098e-19)
(0.393924 -0.0440134 -1.40839e-19)
(0.490248 -0.0380752 1.38606e-19)
(0.59007 -0.0291514 8.32674e-20)
(0.691336 -0.0180289 -1.51477e-20)
(0.791833 -0.0055433 -1.27117e-19)
(0.889195 0.00725365 -4.19709e-20)
(0.978532 0.0143892 2.91862e-19)
(0.0265766 -0.0107787 -1.08963e-19)
(0.087934 -0.028979 -7.74154e-20)
(0.16069 -0.0394986 -9.82495e-20)
(0.242666 -0.0446157 -1.80634e-19)
(0.332452 -0.0448258 -1.13107e-19)
(0.428493 -0.0405898 1.14249e-19)
(0.528978 -0.0325625 1.39298e-19)
(0.631875 -0.0215035 -1.17521e-19)
(0.73491 -0.00833375 -1.99524e-20)
(0.835655 0.00600541 -6.74696e-20)
(0.93158 0.0204058 2.43765e-20)
(1.01815 0.0294096 -1.84375e-19)
(0.0306464 -0.0113297 -3.27769e-19)
(0.0994069 -0.0297951 3.21306e-20)
(0.179044 -0.0396397 -7.70969e-20)
(0.267336 -0.0434358 2.49999e-19)
(0.362763 -0.0418492 -2.93802e-20)
(0.463618 -0.0355044 1.06812e-19)
(0.567908 -0.025224 -2.10315e-19)
(0.673403 -0.0119268 -7.37472e-20)
(0.777645 0.00332973 1.38886e-19)
(0.878048 0.0194962 1.69855e-19)
(0.971993 0.0354026 3.34658e-19)
(1.05535 0.046099 -9.9328e-20)
(0.034953 -0.0116712 2.20693e-19)
(0.111431 -0.0300107 -1.63613e-19)
(0.198107 -0.0388248 -2.39188e-20)
(0.292731 -0.0409853 9.73923e-20)
(0.393673 -0.0373388 -1.16264e-19)
(0.499076 -0.0286829 -1.14281e-19)
(0.606777 -0.0160163 1.21473e-19)
(0.71437 -0.000422646 6.25039e-20)
(0.819251 0.0169023 2.87075e-19)
(0.918736 0.0348008 -7.40729e-20)
(1.01019 0.0520409 -4.45065e-19)
(1.08991 0.0641718 5.85664e-20)
(0.0394791 -0.0117786 -2.87371e-19)
(0.123949 -0.0295666 4.27023e-20)
(0.217777 -0.0369761 7.72807e-20)
(0.318702 -0.0371825 -1.25562e-19)
(0.424985 -0.0312223 1.02156e-19)
(0.534628 -0.0200761 3.51653e-19)
(0.645312 -0.00492629 -2.41006e-19)
(0.754486 0.012975 -4.22958e-19)
(0.85944 0.032294 2.37814e-19)
(0.957452 0.0517677 7.74831e-20)
(1.04595 0.0701099 4.55793e-20)
(1.12167 0.0833588 9.25599e-20)
(0.0442039 -0.0116284 1.43213e-19)
(0.136894 -0.0284085 -9.42722e-20)
(0.23794 -0.0340258 7.31022e-20)
(0.345084 -0.0319602 4.74495e-21)
(0.456488 -0.0234477 -4.42668e-20)
(0.570023 -0.00966022 -1.64335e-19)
(0.683235 0.00803071 4.21647e-19)
(0.79346 0.028203 2.53524e-19)
(0.89793 0.0493885 -1.39858e-19)
(0.993946 0.0702283 -1.14955e-19)
(1.07906 0.0893957 -2.44362e-20)
(1.15048 0.103408 1.16358e-21)
(0.0491029 -0.0111988 -7.25497e-20)
(0.150191 -0.0264879 9.18064e-20)
(0.258469 -0.0299163 1.8739e-20)
(0.3717 -0.0252674 -1.2916e-19)
(0.487959 -0.013984 -1.22365e-19)
(0.605002 0.00256382 3.86027e-20)
(0.720265 0.0228123 -4.93344e-20)
(0.831007 0.0451716 -1.64199e-19)
(0.934455 0.0680484 -1.36805e-19)
(1.02799 0.0900016 7.42923e-20)
(1.10936 0.109685 5.7505e-20)
(1.17624 0.124087 -2.395e-19)
(0.0541477 -0.0104697 1.30622e-19)
(0.163755 -0.0237626 4.94498e-20)
(0.279225 -0.0246021 -5.15691e-20)
(0.398363 -0.0170699 1.09607e-19)
(0.519169 -0.00282147 9.76909e-20)
(0.639303 0.0165705 -1.0502e-19)
(0.756122 0.0393506 -5.12566e-20)
(0.866854 0.0637683 1.23256e-19)
(0.96877 0.0881183 1.96316e-19)
(1.0594 0.110898 1.68809e-19)
(1.13672 0.130769 1.01288e-19)
(1.19891 0.145181 1.34865e-19)
(0.0593063 -0.00942357 -3.62793e-20)
(0.177494 -0.0201983 1.14767e-19)
(0.30006 -0.0180503 6.95095e-20)
(0.424874 -0.0073513 -2.20321e-19)
(0.549878 0.0100278 1.44184e-19)
(0.672661 0.0323103 -1.51452e-19)
(0.790537 0.0575541 7.3332e-20)
(0.900744 0.0838596 -1.68435e-19)
(1.00065 0.109429 1.13251e-19)
(1.08799 0.132724 -5.28292e-21)
(1.16104 0.152443 -9.77313e-20)
(1.21846 0.166494 -1.511e-19)
(0.064543 -0.00804553 -5.93871e-20)
(0.191308 -0.0157688 -1.33338e-20)
(0.320818 -0.0102422 -1.79535e-20)
(0.451028 0.00388632 1.33573e-19)
(0.579846 0.0245299 -3.64118e-20)
(0.704818 0.0497109 1.27853e-19)
(0.823249 0.0773096 6.04965e-20)
(0.932441 0.105295 1.44937e-19)
(1.02992 0.131801 -3.44242e-20)
(1.11365 0.155283 -2.18093e-19)
(1.18228 0.174513 4.57105e-21)
(1.2349 0.187847 1.22285e-19)
(0.0698191 -0.00632407 1.13817e-19)
(0.205091 -0.0104578 -1.73795e-19)
(0.341335 -0.00117352 1.30652e-20)
(0.476618 0.0166219 1.0506e-19)
(0.608835 0.0406296 -9.84549e-20)
(0.73552 0.0686778 -1.44336e-20)
(0.854016 0.0984843 -1.11481e-20)
(0.961732 0.127908 -1.51515e-20)
(1.0564 0.155046 -2.98945e-20)
(1.13628 0.178381 9.75745e-20)
(1.20039 0.196792 3.42021e-20)
(1.24829 0.20908 1.96643e-21)
(0.0750929 -0.00425132 4.27121e-21)
(0.21873 -0.00425876 2.10216e-20)
(0.361442 0.0091443 5.93383e-20)
(0.501432 0.0308149 -9.43172e-20)
(0.636607 0.0582502 8.33616e-21)
(0.764527 0.0890961 3.20485e-20)
(0.882612 0.120928 -1.35178e-19)
(0.98843 0.151523 1.73349e-20)
(1.07996 0.178974 -2.46785e-20)
(1.15582 0.201826 1.39664e-20)
(1.21539 0.219105 -7.79351e-20)
(1.2587 0.230048 4.49369e-20)
(0.0803202 -0.00182352 -2.26137e-20)
(0.23211 0.0028237 -2.2187e-20)
(0.38097 0.0206838 -8.73385e-21)
(0.525262 0.0464057 1.09416e-20)
(0.662936 0.0772947 2.80519e-20)
(0.791612 0.110831 2.12852e-20)
(0.908834 0.144474 5.83441e-20)
(1.01238 0.175951 -9.22645e-21)
(1.10051 0.203388 4.28205e-20)
(1.17223 0.225432 -5.36188e-20)
(1.22731 0.241286 1.7864e-20)
(1.26621 0.250623 -8.91695e-21)
(0.0854549 0.000958655 -1.9812e-21)
(0.245112 0.0107735 1.19366e-20)
(0.399746 0.0334012 6.33304e-21)
(0.547903 0.0633152 1.51677e-20)
(0.687603 0.0976465 -1.2817e-20)
(0.816566 0.133733 -2.34759e-20)
(0.932505 0.168944 5.77027e-21)
(1.03344 0.201 -2.95404e-20)
(1.11799 0.228095 6.66087e-21)
(1.18551 0.249018 1.638e-20)
(1.23622 0.263182 -1.22839e-20)
(1.27094 0.270688 5.79953e-21)
(0.0904501 0.00408985 -4.21914e-21)
(0.257617 0.0195629 1.31276e-20)
(0.417603 0.0472362 -5.67242e-22)
(0.569156 0.081446 1.81085e-20)
(0.710403 0.119171 -6.8647e-21)
(0.8392 0.157632 -1.92217e-20)
(0.95347 0.19415 7.61239e-22)
(1.05153 0.226471 -2.37665e-20)
(1.13234 0.252904 3.41322e-22)
(1.19569 0.272411 1.20638e-20)
(1.2422 0.284651 -1.2152e-20)
(1.27302 0.290139 7.52487e-21)
(0.0952577 0.00755985 1.56564e-20)
(0.269506 0.0291519 -2.22211e-20)
(0.434374 0.0621124 -2.79256e-20)
(0.588835 0.100683 4.41455e-21)
(0.731148 0.141716 2.22341e-20)
(0.859346 0.182351 6.49891e-21)
(0.971604 0.219895 6.50125e-20)
(1.06656 0.252164 -1.85457e-20)
(1.14357 0.277624 5.86386e-20)
(1.20282 0.295448 -5.13944e-20)
(1.24533 0.305559 2.67963e-20)
(1.27256 0.308884 -3.27266e-20)
(0.0998296 0.0113534 -3.53133e-20)
(0.280664 0.0394887 7.32632e-20)
(0.449903 0.0779372 1.52612e-20)
(0.606762 0.120893 -7.73454e-20)
(0.749667 0.165116 3.39684e-21)
(0.876862 0.207697 2.45681e-20)
(0.986806 0.245974 -7.59454e-20)
(1.07849 0.27788 8.13057e-21)
(1.15168 0.302074 -3.30593e-20)
(1.20697 0.317972 -1.55151e-20)
(1.24574 0.325784 -2.22569e-20)
(1.26971 0.326837 3.08351e-20)
(0.104118 0.01545 7.15574e-20)
(0.290978 0.0505094 -9.84645e-20)
(0.464041 0.0946035 -4.76754e-20)
(0.622779 0.141929 4.73776e-20)
(0.765811 0.18919 -6.08742e-20)
(0.891629 0.233469 -1.74755e-21)
(0.999004 0.272182 2.51625e-20)
(1.08731 0.30342 -3.79565e-20)
(1.15671 0.326076 -7.76277e-21)
(1.20821 0.339835 1.21366e-19)
(1.24353 0.345214 -6.72862e-21)
(1.2646 0.343922 2.00155e-21)
(0.108079 0.0198245 -1.15179e-19)
(0.300341 0.062139 2.19696e-20)
(0.476649 0.11199 3.65493e-20)
(0.636739 0.163631 3.2068e-20)
(0.779453 0.213748 5.34497e-20)
(0.903553 0.259463 4.41981e-20)
(1.00815 0.298312 6.57971e-20)
(1.09302 0.32859 1.262e-19)
(1.15872 0.349459 -9.90125e-20)
(1.20666 0.3609 -1.04025e-19)
(1.23885 0.363743 4.797e-21)
(1.25738 0.36007 7.07162e-20)
(0.111667 0.0244466 -3.94457e-20)
(0.308655 0.0742916 3.22709e-20)
(0.487603 0.129961 1.11059e-19)
(0.648519 0.185824 -1.77869e-19)
(0.790487 0.23859 9.08771e-20)
(0.912568 0.285466 -5.59079e-20)
(1.01424 0.324156 2.16927e-21)
(1.09565 0.3532 -8.6402e-20)
(1.15779 0.372063 6.72105e-20)
(1.20241 0.381038 -3.16354e-21)
(1.23181 0.381275 -5.2947e-20)
(1.24819 0.375215 -9.82345e-20)
(0.114842 0.0292815 5.23896e-20)
(0.315831 0.0868716 1.12494e-19)
(0.496794 0.148373 -1.38505e-19)
(0.658014 0.208325 1.38793e-19)
(0.798835 0.263511 -2.0171e-20)
(0.918635 0.311266 6.21597e-20)
(1.01726 0.34951 -6.18919e-20)
(1.09526 0.377067 4.84995e-20)
(1.15401 0.393732 1.2623e-19)
(1.19561 0.400126 1.01137e-19)
(1.22257 0.39772 1.16167e-19)
(1.23716 0.389299 4.46053e-20)
(0.117567 0.0342902 3.72076e-20)
(0.321788 0.0997745 2.11471e-20)
(0.504129 0.167069 -8.95583e-21)
(0.665141 0.230944 -6.27902e-20)
(0.804442 0.2883 -3.0378e-20)
(0.921738 0.336651 -3.96455e-20)
(1.01725 0.374174 -4.70155e-20)
(1.09192 0.400017 -1.29193e-19)
(1.14749 0.414324 -7.26977e-20)
(1.18636 0.418053 8.39023e-20)
(1.21124 0.41299 -5.91499e-20)
(1.22442 0.402264 1.84457e-20)
(0.11981 0.0394299 1.40545e-19)
(0.326459 0.112888 -4.36392e-20)
(0.509534 0.185886 2.31889e-20)
(0.66984 0.253483 -6.51625e-20)
(0.807278 0.312746 5.77609e-21)
(0.921888 0.36141 -9.54631e-21)
(1.01426 0.397957 1.41675e-19)
(1.08572 0.421882 2.58277e-19)
(1.13834 0.433702 -6.76132e-20)
(1.1748 0.434714 -1.18188e-19)
(1.19798 0.42701 -1.35444e-20)
(1.21009 0.414052 -4.7076e-20)
(0.121542 0.0446544 -1.59373e-19)
(0.329789 0.126095 -1.6784e-20)
(0.512952 0.204656 6.32859e-20)
(0.672074 0.275743 -4.36641e-20)
(0.80734 0.336636 -2.46697e-20)
(0.919123 0.385338 2.233e-19)
(1.00837 0.42067 -1.77867e-19)
(1.07676 0.442506 -2.04187e-19)
(1.12669 0.451742 -8.18297e-20)
(1.16107 0.450017 6.48132e-20)
(1.18289 0.43972 4.69208e-20)
(1.19425 0.424606 -2.39094e-20)
(0.122739 0.0499147 1.72219e-19)
(0.331737 0.13927 -1.76982e-20)
(0.514347 0.223205 -3.02438e-20)
(0.67183 0.297523 3.32849e-20)
(0.804649 0.359762 -7.45543e-20)
(0.9135 0.408236 -3.51358e-20)
(0.999675 0.442139 -7.48939e-20)
(1.06518 0.461742 1.70731e-19)
(1.11268 0.468327 9.6612e-20)
(1.14531 0.463873 -1.50472e-20)
(1.16613 0.451074 -1.10306e-19)
(1.1771 0.433851 1.8396e-20)
(0.123386 0.0551596 -1.12868e-19)
(0.332276 0.152288 1.10678e-19)
(0.513704 0.241357 -7.09401e-20)
(0.669119 0.318621 1.33373e-20)
(0.799249 0.381919 1.15625e-19)
(0.905103 0.429913 -2.45341e-19)
(0.988285 0.462197 -1.43072e-20)
(1.05109 0.479453 -9.48606e-21)
(1.09645 0.483353 3.40089e-20)
(1.12766 0.476202 1.54914e-20)
(1.14782 0.460988 1.0479e-19)
(1.15879 0.441798 -5.64701e-20)
(0.12347 0.0603365 -3.9406e-21)
(0.331392 0.16502 -1.22042e-19)
(0.511027 0.258939 -5.99343e-20)
(0.663973 0.338841 3.27019e-20)
(0.791211 0.402909 9.30292e-20)
(0.894035 0.450185 1.02939e-19)
(0.974333 0.480687 1.9043e-20)
(1.03466 0.495516 3.71614e-20)
(1.07815 0.496724 -8.1504e-20)
(1.10824 0.486931 -1.43434e-20)
(1.12807 0.469398 -2.44044e-21)
(1.13937 0.448385 -8.69746e-21)
(0.122985 0.0653917 1.25428e-20)
(0.329089 0.177338 -1.46788e-21)
(0.50634 0.275776 3.52774e-20)
(0.65645 0.357991 -2.38147e-20)
(0.780626 0.422543 -2.59435e-19)
(0.880419 0.468883 1.00205e-19)
(0.957966 0.497468 -3.38328e-20)
(1.01604 0.509819 -2.76422e-22)
(1.05793 0.508358 -1.3218e-20)
(1.08721 0.496001 -5.85119e-21)
(1.10701 0.476256 -8.37688e-21)
(1.11895 0.453557 1.46686e-20)
(0.121934 0.0702717 2.37663e-20)
(0.325383 0.189113 7.0139e-20)
(0.499688 0.291699 5.26288e-21)
(0.646628 0.375886 8.87665e-20)
(0.767607 0.44064 6.16067e-20)
(0.864398 0.485846 3.77331e-20)
(0.939346 0.512407 4.81476e-20)
(0.995395 0.522262 -2.70072e-22)
(1.03596 0.518183 4.07961e-20)
(1.06469 0.503358 4.50721e-20)
(1.08474 0.481517 -1.3023e-20)
(1.0976 0.457265 -4.53628e-21)
(0.120323 0.0749235 2.80592e-20)
(0.320305 0.20022 -4.32817e-20)
(0.491134 0.306545 2.66471e-20)
(0.634605 0.392349 -1.0834e-19)
(0.752285 0.457032 -4.97121e-21)
(0.846131 0.500926 -8.05835e-20)
(0.91865 0.525387 -4.84778e-20)
(0.972905 0.532758 -1.4009e-20)
(1.01239 0.526138 -4.90323e-20)
(1.04081 0.50896 -8.34917e-21)
(1.06135 0.485144 -1.08977e-21)
(1.07542 0.459461 -7.35886e-21)
(0.118164 0.0792954 -3.82591e-20)
(0.313899 0.210538 4.38055e-20)
(0.480762 0.320157 1.17741e-20)
(0.620501 0.407214 7.96552e-20)
(0.734811 0.471563 8.79473e-20)
(0.825793 0.513991 -1.02601e-20)
(0.896066 0.536305 1.61106e-20)
(0.948761 0.541233 2.57787e-20)
(0.9874 0.532178 -3.14319e-20)
(1.01572 0.512781 1.32897e-20)
(1.03693 0.487109 -1.53393e-20)
(1.05247 0.460088 3.53989e-20)
(0.115474 0.0833354 -4.3656e-22)
(0.306229 0.219954 -2.03716e-20)
(0.46867 0.332386 -8.87887e-20)
(0.60445 0.420327 6.50148e-22)
(0.715352 0.484088 -6.01622e-21)
(0.803574 0.52492 6.07817e-21)
(0.871794 0.545067 4.96549e-21)
(0.923161 0.547627 3.45798e-21)
(0.961176 0.536269 -1.15084e-20)
(0.989561 0.514807 -1.94732e-20)
(1.01155 0.487394 -4.23516e-20)
(1.02879 0.459086 -3.05372e-20)
(0.11228 0.0869923 3.76121e-20)
(0.297368 0.228356 -7.32044e-21)
(0.454972 0.343097 5.69008e-20)
(0.586605 0.431545 1.48501e-20)
(0.69409 0.494479 -1.70257e-20)
(0.779674 0.533606 8.89886e-21)
(0.846045 0.551595 5.75655e-21)
(0.896315 0.551888 -1.52517e-20)
(0.933911 0.538388 7.1375e-20)
(0.962476 0.515042 6.4428e-20)
(0.985268 0.486001 5.76989e-23)
(1.00439 0.456382 3.25241e-20)
(0.108616 0.0902245 -1.53646e-20)
(0.287395 0.235642 9.56582e-21)
(0.439797 0.352163 4.23669e-21)
(0.567132 0.440741 6.18473e-21)
(0.671218 0.502621 -9.55581e-21)
(0.754303 0.539956 4.66051e-21)
(0.819036 0.555822 4.82272e-21)
(0.868444 0.553977 3.00486e-20)
(0.90582 0.538525 3.56536e-20)
(0.934636 0.513507 -1.03725e-19)
(0.958126 0.482944 1.37674e-19)
(0.97925 0.451861 -2.7158e-20)
(0.104515 0.0929897 1.36999e-20)
(0.276406 0.241721 1.13678e-20)
(0.423288 0.359472 3.17749e-21)
(0.54621 0.447802 1.2097e-20)
(0.646939 0.508414 2.72319e-20)
(0.727677 0.543892 -3.0616e-21)
(0.79099 0.557692 -5.9043e-20)
(0.839775 0.55386 -1.37903e-19)
(0.877134 0.536678 -5.81869e-20)
(0.906251 0.510252 1.68446e-19)
(0.930217 0.47829 -1.39393e-19)
(0.953247 0.445404 2.35494e-20)
(0.100014 0.095249 -1.98616e-20)
(0.264505 0.24651 7.89444e-21)
(0.405598 0.364923 3.21809e-20)
(0.524028 0.452631 -2.52681e-20)
(0.621463 0.511775 -1.116e-20)
(0.700017 0.545348 -6.31032e-20)
(0.76213 0.557157 8.72058e-20)
(0.810536 0.551508 1.62446e-19)
(0.848106 0.532844 -3.01654e-20)
(0.87762 0.50535 -2.81877e-19)
(0.901891 0.472284 1.00587e-19)
(0.926043 0.437379 1.31347e-20)
(0.0951581 0.0969689 7.16527e-20)
(0.251805 0.24994 -7.67004e-21)
(0.386891 0.368434 -8.57003e-20)
(0.500782 0.455147 -2.30025e-20)
(0.595005 0.512638 3.10052e-20)
(0.671542 0.544275 3.2168e-20)
(0.732673 0.554181 -1.04155e-19)
(0.780945 0.546887 -2.13666e-19)
(0.818982 0.526984 -5.99199e-20)
(0.849169 0.498774 2.51075e-19)
(0.874058 0.465223 -5.14838e-20)
(0.897108 0.428245 -7.24425e-20)
(0.0899954 0.0981201 1.53545e-20)
(0.238426 0.251948 -6.4883e-20)
(0.367338 0.369935 1.7638e-19)
(0.476675 0.45529 7.65835e-20)
(0.567783 0.510955 -1.57259e-19)
(0.642473 0.540639 1.11787e-19)
(0.702828 0.54874 4.78101e-20)
(0.75119 0.539972 2.60535e-19)
(0.789955 0.519017 2.14977e-19)
(0.821285 0.490218 -4.11554e-19)
(0.847797 0.456542 1.17608e-19)
(0.872357 0.419598 8.47708e-20)
(0.0845759 0.0986781 -2.37762e-20)
(0.224495 0.252486 -1.71969e-20)
(0.347115 0.369374 -1.01194e-19)
(0.451916 0.453013 -1.96929e-22)
(0.540019 0.506696 -6.80053e-20)
(0.613025 0.534427 3.6076e-20)
(0.672791 0.540834 -1.14985e-20)
(0.72143 0.530767 1.44704e-19)
(0.761102 0.508955 -2.22872e-19)
(0.793767 0.479702 1.83946e-19)
(0.821907 0.445953 -3.7404e-19)
(0.847702 0.409362 2.29295e-20)
(0.0789531 0.098624 -8.12522e-20)
(0.210141 0.25152 1.55966e-19)
(0.326405 0.366715 -1.08814e-19)
(0.426716 0.448292 7.24819e-21)
(0.511934 0.49985 -3.94712e-20)
(0.583415 0.525643 1.37592e-19)
(0.642761 0.530481 7.25962e-20)
(0.69183 0.519307 -2.00335e-19)
(0.732537 0.496859 -1.65192e-19)
(0.766625 0.467372 3.21972e-19)
(0.796352 0.433753 2.1369e-19)
(0.823395 0.397789 1.24987e-19)
(0.0731822 0.0979444 4.44526e-20)
(0.195501 0.249025 -3.79676e-20)
(0.305393 0.361939 1.97971e-19)
(0.401289 0.441121 -2.44011e-20)
(0.483751 0.490425 -1.8308e-20)
(0.55386 0.514311 7.78491e-20)
(0.612936 0.517717 -1.51393e-19)
(0.662565 0.505639 -7.03042e-21)
(0.704405 0.482791 4.20141e-19)
(0.739981 0.453322 -2.97505e-19)
(0.771311 0.420104 1.60852e-20)
(0.799706 0.385015 1.91168e-19)
(0.0673203 0.0966318 -4.22902e-20)
(0.18071 0.244993 1.08823e-19)
(0.284267 0.355046 -2.7424e-19)
(0.375848 0.43151 -3.58638e-20)
(0.455692 0.478447 5.08229e-20)
(0.524575 0.500467 -2.44828e-20)
(0.583515 0.502589 -8.93313e-20)
(0.633813 0.489816 -1.15485e-20)
(0.676864 0.466807 -1.52045e-19)
(0.713975 0.437609 2.89282e-19)
(0.746928 0.40505 -4.05628e-19)
(0.77675 0.371045 2.14021e-19)
(0.0614251 0.0946841 1.40257e-19)
(0.165908 0.239426 -9.54826e-20)
(0.263215 0.346049 -2.9673e-20)
(0.350607 0.419488 3.05497e-19)
(0.427975 0.463959 1.87332e-20)