/*--------------------------------*- C++ -*----------------------------------*\
  =========                 |
  \\      /  F ield         | OpenFOAM: The Open Source CFD Toolbox
   \\    /   O peration     | Website:  https://openfoam.org
    \\  /    A nd           | Version:  7
     \\/     M anipulation  |
\*---------------------------------------------------------------------------*/
FoamFile
{
    version     2.0;
    format      ascii;
    class       volScalarField;
    location    "25";
    object      p;
}
// * * * * * * * * * * * * * * * * * * * * * * * * * * * * * * * * * * * * * //

dimensions      [0 2 -2 0 0 0 0];

internalField   nonuniform List<scalar> 
34000
(
-0.290576
-0.291656
-0.292311
-0.29287
-0.293359
-0.293778
-0.294147
-0.294478
-0.29478
-0.29506
-0.295321
-0.295568
-0.295802
-0.296024
-0.296236
-0.29644
-0.296638
-0.296836
-0.29703
-0.297225
-0.290623
-0.2917
-0.292353
-0.292911
-0.293398
-0.293816
-0.294183
-0.294513
-0.294813
-0.295091
-0.295351
-0.295596
-0.295828
-0.296048
-0.296258
-0.29646
-0.296657
-0.296854
-0.297045
-0.297238
-0.290718
-0.291789
-0.292438
-0.292993
-0.293476
-0.293891
-0.294255
-0.294581
-0.294878
-0.295153
-0.29541
-0.295652
-0.29588
-0.296096
-0.296303
-0.296501
-0.296694
-0.296887
-0.297076
-0.297262
-0.290861
-0.291922
-0.292566
-0.293115
-0.293593
-0.294003
-0.294363
-0.294684
-0.294976
-0.295246
-0.295498
-0.295734
-0.295957
-0.296168
-0.296369
-0.296561
-0.296748
-0.296937
-0.29712
-0.297297
-0.291049
-0.292098
-0.292735
-0.293277
-0.293749
-0.294152
-0.294505
-0.29482
-0.295106
-0.295369
-0.295614
-0.295843
-0.296059
-0.296262
-0.296455
-0.29664
-0.29682
-0.297002
-0.297178
-0.297343
-0.291283
-0.292317
-0.292944
-0.293478
-0.293942
-0.294337
-0.294682
-0.294989
-0.295267
-0.295521
-0.295758
-0.295978
-0.296185
-0.296378
-0.296561
-0.296736
-0.296906
-0.29708
-0.297247
-0.297397
-0.291562
-0.292579
-0.293195
-0.293718
-0.294172
-0.294558
-0.294893
-0.29519
-0.295458
-0.295702
-0.295928
-0.296138
-0.296333
-0.296515
-0.296686
-0.296848
-0.297006
-0.297171
-0.297326
-0.297458
-0.291885
-0.292881
-0.293485
-0.293996
-0.294438
-0.294813
-0.295137
-0.295423
-0.295678
-0.295911
-0.296124
-0.296321
-0.296503
-0.296671
-0.296827
-0.296975
-0.297118
-0.297271
-0.297412
-0.297523
-0.29225
-0.293224
-0.293813
-0.294312
-0.29474
-0.295102
-0.295413
-0.295685
-0.295928
-0.296146
-0.296345
-0.296527
-0.296692
-0.296844
-0.296983
-0.297113
-0.29724
-0.297378
-0.297504
-0.297589
-0.292656
-0.293606
-0.294179
-0.294663
-0.295077
-0.295424
-0.29572
-0.295977
-0.296204
-0.296407
-0.296589
-0.296753
-0.296901
-0.297033
-0.297153
-0.297263
-0.297369
-0.297491
-0.297599
-0.297654
-0.293103
-0.294026
-0.294582
-0.295049
-0.295447
-0.295778
-0.296057
-0.296298
-0.296507
-0.296691
-0.296855
-0.296999
-0.297126
-0.297236
-0.297333
-0.29742
-0.297504
-0.297606
-0.297693
-0.297715
-0.293588
-0.294483
-0.29502
-0.29547
-0.29585
-0.296162
-0.296424
-0.296645
-0.296835
-0.296999
-0.297141
-0.297263
-0.297366
-0.297452
-0.297523
-0.297583
-0.29764
-0.29772
-0.297784
-0.297767
-0.29411
-0.294975
-0.295493
-0.295923
-0.296284
-0.296577
-0.296818
-0.297018
-0.297186
-0.297328
-0.297446
-0.297544
-0.297621
-0.297679
-0.29772
-0.29775
-0.297776
-0.29783
-0.297868
-0.297806
-0.294668
-0.295502
-0.295999
-0.296409
-0.296748
-0.29702
-0.297238
-0.297416
-0.29756
-0.297677
-0.297769
-0.297839
-0.297887
-0.297914
-0.297922
-0.297917
-0.297909
-0.297932
-0.297941
-0.297828
-0.29526
-0.296063
-0.296538
-0.296925
-0.297242
-0.29749
-0.297685
-0.297838
-0.297956
-0.298045
-0.298109
-0.298149
-0.298164
-0.298156
-0.298127
-0.298084
-0.298036
-0.298024
-0.298
-0.297826
-0.295886
-0.296655
-0.297107
-0.297472
-0.297764
-0.297987
-0.298156
-0.298282
-0.298372
-0.298431
-0.298464
-0.29847
-0.29845
-0.298404
-0.298334
-0.298247
-0.298154
-0.298103
-0.298041
-0.297795
-0.296544
-0.29728
-0.297707
-0.298047
-0.298314
-0.29851
-0.298651
-0.298747
-0.298807
-0.298834
-0.298833
-0.298803
-0.298744
-0.298656
-0.298541
-0.298405
-0.298261
-0.298163
-0.298061
-0.297729
-0.297233
-0.297934
-0.298337
-0.298651
-0.29889
-0.299058
-0.299169
-0.299233
-0.29926
-0.299253
-0.299215
-0.299146
-0.299046
-0.298912
-0.298747
-0.298556
-0.298355
-0.298204
-0.298057
-0.297614
-0.297952
-0.298619
-0.298996
-0.299282
-0.299492
-0.29963
-0.299708
-0.299739
-0.29973
-0.299686
-0.29961
-0.299499
-0.299353
-0.29917
-0.29895
-0.2987
-0.298434
-0.298222
-0.298027
-0.297428
-0.298701
-0.299333
-0.299683
-0.29994
-0.30012
-0.300225
-0.300269
-0.300264
-0.300217
-0.300134
-0.300016
-0.299861
-0.299667
-0.29943
-0.299152
-0.298836
-0.298497
-0.298216
-0.297973
-0.297181
-0.299478
-0.300075
-0.300397
-0.300625
-0.300772
-0.300843
-0.30085
-0.300807
-0.30072
-0.300595
-0.300432
-0.300231
-0.299986
-0.299693
-0.299351
-0.298963
-0.298544
-0.29818
-0.297861
-0.296973
-0.300285
-0.300847
-0.30114
-0.301337
-0.301449
-0.301483
-0.301452
-0.301367
-0.301238
-0.301069
-0.30086
-0.300609
-0.30031
-0.299958
-0.299548
-0.299083
-0.298576
-0.298124
-0.297702
-0.296687
-0.301121
-0.301647
-0.30191
-0.302074
-0.302151
-0.302145
-0.302072
-0.301945
-0.301771
-0.301555
-0.301298
-0.300995
-0.30064
-0.300225
-0.299744
-0.299196
-0.298593
-0.29804
-0.297512
-0.296311
-0.301986
-0.302476
-0.302709
-0.302838
-0.302876
-0.302829
-0.302713
-0.30254
-0.302318
-0.302053
-0.301745
-0.301389
-0.300977
-0.300497
-0.299941
-0.299306
-0.298597
-0.29793
-0.297287
-0.295848
-0.30288
-0.303334
-0.303536
-0.303629
-0.303626
-0.303535
-0.303373
-0.303151
-0.30288
-0.302564
-0.302203
-0.301792
-0.301319
-0.300773
-0.30014
-0.299413
-0.298591
-0.297798
-0.297027
-0.295295
-0.303806
-0.304224
-0.304392
-0.304446
-0.304401
-0.304264
-0.304052
-0.303779
-0.303455
-0.303086
-0.30267
-0.302202
-0.301669
-0.301055
-0.300344
-0.299521
-0.29858
-0.297645
-0.296734
-0.294644
-0.304763
-0.305144
-0.305278
-0.305292
-0.305201
-0.305015
-0.304751
-0.304424
-0.304045
-0.303619
-0.303147
-0.30262
-0.302026
-0.301343
-0.300552
-0.299632
-0.298566
-0.297478
-0.296415
-0.293893
-0.305754
-0.306098
-0.306195
-0.306167
-0.306028
-0.305789
-0.30547
-0.305086
-0.304648
-0.304165
-0.303633
-0.303047
-0.30239
-0.301639
-0.300768
-0.29975
-0.298555
-0.297301
-0.296077
-0.293038
-0.306781
-0.307087
-0.307146
-0.307073
-0.306882
-0.306588
-0.30621
-0.305765
-0.305266
-0.304721
-0.304129
-0.303482
-0.302761
-0.301942
-0.300992
-0.299876
-0.29855
-0.297119
-0.295728
-0.292078
-0.307846
-0.308112
-0.308132
-0.30801
-0.307766
-0.307412
-0.306971
-0.306462
-0.305899
-0.30529
-0.304634
-0.303924
-0.303139
-0.302252
-0.301224
-0.300012
-0.298556
-0.296939
-0.295377
-0.291017
-0.308951
-0.309177
-0.309154
-0.308982
-0.308679
-0.308263
-0.307756
-0.307179
-0.306547
-0.305871
-0.305149
-0.304374
-0.303524
-0.302569
-0.301465
-0.300159
-0.298574
-0.296763
-0.295033
-0.28986
-0.310101
-0.310284
-0.310217
-0.309991
-0.309626
-0.309142
-0.308564
-0.307915
-0.307212
-0.306464
-0.305674
-0.304831
-0.303916
-0.302892
-0.301713
-0.300316
-0.298605
-0.296597
-0.294702
-0.288618
-0.311298
-0.311437
-0.311322
-0.311038
-0.310607
-0.310052
-0.309399
-0.308674
-0.307894
-0.307072
-0.306209
-0.305297
-0.304313
-0.303221
-0.301968
-0.300484
-0.298651
-0.296444
-0.294388
-0.287307
-0.312546
-0.312639
-0.312473
-0.312127
-0.311627
-0.310995
-0.310263
-0.309456
-0.308596
-0.307694
-0.306756
-0.30577
-0.304717
-0.303556
-0.302229
-0.300661
-0.298712
-0.296308
-0.294087
-0.285952
-0.313852
-0.313894
-0.313674
-0.313262
-0.312687
-0.311974
-0.311157
-0.310265
-0.309319
-0.308334
-0.307316
-0.306254
-0.305128
-0.303897
-0.302498
-0.300849
-0.298791
-0.296202
-0.293802
-0.284602
-0.315218
-0.315207
-0.314929
-0.314447
-0.313791
-0.312993
-0.312086
-0.311102
-0.310066
-0.308994
-0.307891
-0.306751
-0.30555
-0.304247
-0.302777
-0.301052
-0.29889
-0.296141
-0.293534
-0.283349
-0.316652
-0.316582
-0.316242
-0.315684
-0.314944
-0.314054
-0.313052
-0.311973
-0.310842
-0.309677
-0.308486
-0.307262
-0.305983
-0.304608
-0.303069
-0.301276
-0.299021
-0.296152
-0.293258
-0.282222
-0.318158
-0.318026
-0.317617
-0.31698
-0.316149
-0.315162
-0.31406
-0.31288
-0.311649
-0.310388
-0.309105
-0.307794
-0.306434
-0.304986
-0.303382
-0.301534
-0.299209
-0.296295
-0.292886
-0.280948
-0.319743
-0.319542
-0.319062
-0.318338
-0.317411
-0.316322
-0.315115
-0.313828
-0.312493
-0.31113
-0.309751
-0.30835
-0.306908
-0.305386
-0.303724
-0.301842
-0.299506
-0.296727
-0.292582
-0.279738
-0.321414
-0.321138
-0.320579
-0.319764
-0.318734
-0.317538
-0.31622
-0.314822
-0.313378
-0.31191
-0.310431
-0.308936
-0.307409
-0.305815
-0.304101
-0.30221
-0.299943
-0.297593
-0.293309
-0.283425
-0.323177
-0.322819
-0.322177
-0.321263
-0.320126
-0.318816
-0.317382
-0.315868
-0.314311
-0.312734
-0.311151
-0.309559
-0.307945
-0.306277
-0.304513
-0.302626
-0.300466
-0.298655
-0.295467
-0.301427
-0.325041
-0.324592
-0.323859
-0.322841
-0.32159
-0.320161
-0.318606
-0.316972
-0.315297
-0.313608
-0.311917
-0.310226
-0.30852
-0.306775
-0.304957
-0.303069
-0.300996
-0.299629
-0.296875
-0.305547
-0.327012
-0.326463
-0.325633
-0.324504
-0.323133
-0.321579
-0.319898
-0.31814
-0.316344
-0.314538
-0.312738
-0.310943
-0.309142
-0.307314
-0.305432
-0.303523
-0.301484
-0.30033
-0.297548
-0.306022
-0.329098
-0.32844
-0.327505
-0.326259
-0.324761
-0.323076
-0.321265
-0.319378
-0.317458
-0.315533
-0.313618
-0.311716
-0.309815
-0.307895
-0.305937
-0.303977
-0.301913
-0.300783
-0.297867
-0.30553
-0.331307
-0.330528
-0.329482
-0.328111
-0.32648
-0.32466
-0.322713
-0.320694
-0.318646
-0.316598
-0.314567
-0.312552
-0.310543
-0.308522
-0.306467
-0.304423
-0.302277
-0.301023
-0.2979
-0.304305
-0.333646
-0.332736
-0.331569
-0.330066
-0.328296
-0.326336
-0.32425
-0.322095
-0.319916
-0.317742
-0.315589
-0.313457
-0.311332
-0.309194
-0.307022
-0.304855
-0.30257
-0.301073
-0.297684
-0.302596
-0.336124
-0.335069
-0.333774
-0.332132
-0.330217
-0.328111
-0.325881
-0.323587
-0.321273
-0.31897
-0.316691
-0.314434
-0.312182
-0.309912
-0.307597
-0.305268
-0.30279
-0.300959
-0.297263
-0.30063
-0.338746
-0.337534
-0.336103
-0.334314
-0.332248
-0.329991
-0.327614
-0.325177
-0.322726
-0.320289
-0.317879
-0.315488
-0.313095
-0.310674
-0.308188
-0.305656
-0.302936
-0.300706
-0.296679
-0.29855
-0.34152
-0.340138
-0.338562
-0.33662
-0.334396
-0.331983
-0.329455
-0.326872
-0.32428
-0.321705
-0.319156
-0.31662
-0.314072
-0.311476
-0.30879
-0.306016
-0.30301
-0.300334
-0.295963
-0.296442
-0.344454
-0.342887
-0.341157
-0.339054
-0.336667
-0.334095
-0.331411
-0.328679
-0.325942
-0.323223
-0.320525
-0.317832
-0.31511
-0.312315
-0.309396
-0.306343
-0.303011
-0.299862
-0.295139
-0.294357
-0.347552
-0.345786
-0.343894
-0.341624
-0.339067
-0.336331
-0.333489
-0.330604
-0.327716
-0.324846
-0.32199
-0.319124
-0.316206
-0.313185
-0.310001
-0.306633
-0.302941
-0.299304
-0.294224
-0.292319
-0.350821
-0.348842
-0.346779
-0.344334
-0.341603
-0.338698
-0.335694
-0.332651
-0.329608
-0.326578
-0.323551
-0.320493
-0.317356
-0.314078
-0.310596
-0.306879
-0.3028
-0.298667
-0.293229
-0.290337
-0.354266
-0.352059
-0.349816
-0.34719
-0.34428
-0.341203
-0.338032
-0.334827
-0.33162
-0.32842
-0.325206
-0.321936
-0.318552
-0.314987
-0.311173
-0.307076
-0.302585
-0.297957
-0.292162
-0.288406
-0.357891
-0.355441
-0.353011
-0.350198
-0.347104
-0.343849
-0.340508
-0.337135
-0.333757
-0.330372
-0.326953
-0.323448
-0.319787
-0.315902
-0.311723
-0.307217
-0.302296
-0.297177
-0.291026
-0.286518
-0.3617
-0.358992
-0.356367
-0.353361
-0.350078
-0.346642
-0.343126
-0.339578
-0.336018
-0.332435
-0.328789
-0.325019
-0.321051
-0.316811
-0.312235
-0.307297
-0.301928
-0.296327
-0.289822
-0.284658
-0.365695
-0.362716
-0.359888
-0.356684
-0.353207
-0.349586
-0.345889
-0.342158
-0.338403
-0.334603
-0.330707
-0.326643
-0.322333
-0.317704
-0.312701
-0.307306
-0.30148
-0.295405
-0.288549
-0.28281
-0.369878
-0.366613
-0.363577
-0.360168
-0.356494
-0.352684
-0.3488
-0.344876
-0.340912
-0.336873
-0.332697
-0.328306
-0.323619
-0.318567
-0.313108
-0.307238
-0.300946
-0.294407
-0.287204
-0.280957
-0.374249
-0.370686
-0.367434
-0.363818
-0.359942
-0.355938
-0.35186
-0.347731
-0.343539
-0.339236
-0.334751
-0.329998
-0.324896
-0.319388
-0.313446
-0.307086
-0.300323
-0.293331
-0.285786
-0.279085
-0.378807
-0.374934
-0.371461
-0.367633
-0.363553
-0.359349
-0.355067
-0.350719
-0.346278
-0.341684
-0.336855
-0.331701
-0.326149
-0.320153
-0.313704
-0.306841
-0.299605
-0.29217
-0.284288
-0.277177
-0.383551
-0.379356
-0.375658
-0.371615
-0.367325
-0.362915
-0.35842
-0.353836
-0.349122
-0.344205
-0.338994
-0.333402
-0.327363
-0.320848
-0.313872
-0.306497
-0.298787
-0.290921
-0.282707
-0.275221
-0.388476
-0.383949
-0.380021
-0.37576
-0.371257
-0.366635
-0.361913
-0.357073
-0.352059
-0.346784
-0.341153
-0.335082
-0.32852
-0.321458
-0.313939
-0.306045
-0.297865
-0.289578
-0.281038
-0.273204
-0.393578
-0.388709
-0.384549
-0.380067
-0.375347
-0.370504
-0.36554
-0.360422
-0.355076
-0.349406
-0.343313
-0.336724
-0.329603
-0.321972
-0.313895
-0.305479
-0.296834
-0.288135
-0.279276
-0.271115
-0.398848
-0.39363
-0.389235
-0.384531
-0.379589
-0.374514
-0.369293
-0.36387
-0.358158
-0.352051
-0.345455
-0.338307
-0.330598
-0.322374
-0.313729
-0.304792
-0.295687
-0.286588
-0.277416
-0.268945
-0.404278
-0.398704
-0.394074
-0.389146
-0.383976
-0.378659
-0.373158
-0.367401
-0.361285
-0.354699
-0.347556
-0.339812
-0.331485
-0.322652
-0.313434
-0.303977
-0.294419
-0.28493
-0.275452
-0.266684
-0.409856
-0.403922
-0.399056
-0.393902
-0.388498
-0.382924
-0.377122
-0.370998
-0.364437
-0.357329
-0.349595
-0.341219
-0.332249
-0.322793
-0.312998
-0.303026
-0.293024
-0.283155
-0.273378
-0.264324
-0.415569
-0.409273
-0.404171
-0.398789
-0.393144
-0.387298
-0.381168
-0.374641
-0.367592
-0.359914
-0.35155
-0.342509
-0.332874
-0.322785
-0.312413
-0.301932
-0.291496
-0.281258
-0.271189
-0.261858
-0.421401
-0.414741
-0.409405
-0.403793
-0.397898
-0.391762
-0.385274
-0.378305
-0.370724
-0.362432
-0.353396
-0.34366
-0.333343
-0.322616
-0.31167
-0.300689
-0.289829
-0.279232
-0.268879
-0.259279
-0.427335
-0.420311
-0.414743
-0.4089
-0.402744
-0.396296
-0.389419
-0.381966
-0.373806
-0.364855
-0.35511
-0.344653
-0.333642
-0.322274
-0.310759
-0.299289
-0.288017
-0.277072
-0.266442
-0.25658
-0.433349
-0.425964
-0.420167
-0.41409
-0.407662
-0.400878
-0.393576
-0.385596
-0.376809
-0.367156
-0.356668
-0.34547
-0.333754
-0.321747
-0.309673
-0.297725
-0.286052
-0.27477
-0.263872
-0.253754
-0.43942
-0.43168
-0.425657
-0.419342
-0.412628
-0.405483
-0.397718
-0.389164
-0.379705
-0.369308
-0.358047
-0.34609
-0.333666
-0.321025
-0.308402
-0.295989
-0.283927
-0.272319
-0.261162
-0.250796
-0.445522
-0.437434
-0.431189
-0.424632
-0.417617
-0.410081
-0.401813
-0.39264
-0.382462
-0.371284
-0.359224
-0.346496
-0.333363
-0.320097
-0.306937
-0.294073
-0.281637
-0.269714
-0.258306
-0.247699
-0.451628
-0.4432
-0.436737
-0.429934
-0.4226
-0.414642
-0.405829
-0.39599
-0.385049
-0.373055
-0.360176
-0.34667
-0.332833
-0.318952
-0.30527
-0.291969
-0.279172
-0.266947
-0.255298
-0.244457
-0.457708
-0.448951
-0.442274
-0.435219
-0.427545
-0.419132
-0.409731
-0.399179
-0.387435
-0.374595
-0.360881
-0.346594
-0.33206
-0.317579
-0.303391
-0.28967
-0.276526
-0.264011
-0.252131
-0.241064
-0.463727
-0.454654
-0.447769
-0.440454
-0.432419
-0.423515
-0.413483
-0.402174
-0.389588
-0.375877
-0.361317
-0.346252
-0.331033
-0.315967
-0.301292
-0.287168
-0.27369
-0.260899
-0.248799
-0.237514
-0.469651
-0.460278
-0.453187
-0.445604
-0.437186
-0.427755
-0.417046
-0.404938
-0.391477
-0.376875
-0.361464
-0.345628
-0.329739
-0.314108
-0.298963
-0.284453
-0.270659
-0.257604
-0.245295
-0.233802
-0.475442
-0.465785
-0.458495
-0.450634
-0.441806
-0.431811
-0.420383
-0.407435
-0.39307
-0.377564
-0.361302
-0.344707
-0.328165
-0.311989
-0.296395
-0.281518
-0.267423
-0.254119
-0.241613
-0.229922
-0.481062
-0.471139
-0.463653
-0.455503
-0.44624
-0.435642
-0.423454
-0.409631
-0.394338
-0.377919
-0.360812
-0.343473
-0.326301
-0.309601
-0.29358
-0.278355
-0.263975
-0.250437
-0.237746
-0.225869
-0.486469
-0.476301
-0.468622
-0.460172
-0.450446
-0.439208
-0.426221
-0.411489
-0.395252
-0.377917
-0.359976
-0.341913
-0.324133
-0.306935
-0.290509
-0.274955
-0.260308
-0.246552
-0.23369
-0.221637
-0.491621
-0.481228
-0.47336
-0.464597
-0.454381
-0.442466
-0.428643
-0.412978
-0.395783
-0.377536
-0.358777
-0.340013
-0.321651
-0.30398
-0.287172
-0.27131
-0.256415
-0.242457
-0.229437
-0.217222
-0.496475
-0.48588
-0.477826
-0.468736
-0.458001
-0.445374
-0.430682
-0.414062
-0.395904
-0.376755
-0.357199
-0.33776
-0.318844
-0.300727
-0.283561
-0.267414
-0.252288
-0.238146
-0.224983
-0.212618
-0.500985
-0.490212
-0.481974
-0.472543
-0.461262
-0.44789
-0.432302
-0.414711
-0.395591
-0.375554
-0.355225
-0.335141
-0.315702
-0.297166
-0.279669
-0.263257
-0.247921
-0.233612
-0.220322
-0.207822
-0.505105
-0.494179
-0.48576
-0.475973
-0.464119
-0.449971
-0.433464
-0.414893
-0.394818
-0.373915
-0.352842
-0.332145
-0.312215
-0.29329
-0.275486
-0.258834
-0.243308
-0.228851
-0.215448
-0.202829
-0.508791
-0.497736
-0.489138
-0.47898
-0.466528
-0.451578
-0.434133
-0.41458
-0.393564
-0.371819
-0.350035
-0.328761
-0.308373
-0.289089
-0.271006
-0.254137
-0.238441
-0.223856
-0.210358
-0.197635
-0.511997
-0.500839
-0.492063
-0.48152
-0.468445
-0.452671
-0.434277
-0.413746
-0.391806
-0.369252
-0.346793
-0.324978
-0.304167
-0.284556
-0.266221
-0.249159
-0.233317
-0.218624
-0.205048
-0.192238
-0.514676
-0.503442
-0.49449
-0.483547
-0.469829
-0.453212
-0.433863
-0.412364
-0.389528
-0.366198
-0.343104
-0.320787
-0.299589
-0.279683
-0.261125
-0.243896
-0.227928
-0.213148
-0.199512
-0.186633
-0.516785
-0.505501
-0.496374
-0.485019
-0.470639
-0.453166
-0.432862
-0.410412
-0.386709
-0.362644
-0.338957
-0.316179
-0.294631
-0.274463
-0.255712
-0.23834
-0.222272
-0.207427
-0.193749
-0.180819
-0.51828
-0.506973
-0.497671
-0.485891
-0.470834
-0.452497
-0.431246
-0.407868
-0.383335
-0.358577
-0.334343
-0.311146
-0.289287
-0.268891
-0.249975
-0.232489
-0.216343
-0.201455
-0.187756
-0.174794
-0.519118
-0.507813
-0.498338
-0.486124
-0.470379
-0.451176
-0.42899
-0.404714
-0.379392
-0.353989
-0.329252
-0.305682
-0.283549
-0.26296
-0.243911
-0.226337
-0.210139
-0.19523
-0.181529
-0.168554
-0.519259
-0.507983
-0.498336
-0.485678
-0.469237
-0.449172
-0.426071
-0.400932
-0.374868
-0.348868
-0.323679
-0.299778
-0.277414
-0.256666
-0.237515
-0.219881
-0.203655
-0.18875
-0.175066
-0.1621
-0.518663
-0.507441
-0.497624
-0.484517
-0.467378
-0.446459
-0.422469
-0.396509
-0.369751
-0.343207
-0.317616
-0.293432
-0.270875
-0.250005
-0.230783
-0.213118
-0.196891
-0.182012
-0.168368
-0.15543
-0.517293
-0.506152
-0.496167
-0.482607
-0.46477
-0.443014
-0.418168
-0.391431
-0.364033
-0.337
-0.311059
-0.286638
-0.263931
-0.242974
-0.223713
-0.206045
-0.189843
-0.175016
-0.161435
-0.148548
-0.515117
-0.504081
-0.493931
-0.479916
-0.461389
-0.438816
-0.413151
-0.385688
-0.357707
-0.330243
-0.304004
-0.279393
-0.256577
-0.235571
-0.216304
-0.198662
-0.182511
-0.167761
-0.154271
-0.141459
-0.512101
-0.501194
-0.490884
-0.476416
-0.45721
-0.433847
-0.407407
-0.379273
-0.350768
-0.322931
-0.296448
-0.271695
-0.248813
-0.227794
-0.208554
-0.190968
-0.174894
-0.160246
-0.14687
-0.134147
-0.508219
-0.497465
-0.486998
-0.472083
-0.452213
-0.428094
-0.400927
-0.37218
-0.343214
-0.315062
-0.288391
-0.263544
-0.240637
-0.219643
-0.200463
-0.182962
-0.166992
-0.15247
-0.139214
-0.126542
-0.503444
-0.492865
-0.482248
-0.466894
-0.446382
-0.421543
-0.393702
-0.364406
-0.335042
-0.306637
-0.279832
-0.25494
-0.232051
-0.211119
-0.192032
-0.174647
-0.158809
-0.144438
-0.131295
-0.118603
-0.497754
-0.487373
-0.476614
-0.460831
-0.439702
-0.414188
-0.38573
-0.355949
-0.326252
-0.297657
-0.270773
-0.245884
-0.223055
-0.202223
-0.183263
-0.166024
-0.150347
-0.136153
-0.123163
-0.110699
-0.491131
-0.480969
-0.470075
-0.45388
-0.432164
-0.406022
-0.377009
-0.34681
-0.316848
-0.288123
-0.261216
-0.236379
-0.213654
-0.192959
-0.17416
-0.157097
-0.141607
-0.127618
-0.114803
-0.102587
-0.483559
-0.473637
-0.46262
-0.44603
-0.423762
-0.397043
-0.36754
-0.336992
-0.306833
-0.278041
-0.251165
-0.226429
-0.203849
-0.18333
-0.164725
-0.14787
-0.132599
-0.118833
-0.106226
-0.0942516
-0.475029
-0.465366
-0.454236
-0.437272
-0.414493
-0.387253
-0.357326
-0.3265
-0.296213
-0.267416
-0.240627
-0.216039
-0.193647
-0.173341
-0.154965
-0.138347
-0.123322
-0.109808
-0.0974323
-0.0857037
-0.465531
-0.456147
-0.444916
-0.427605
-0.404355
-0.376655
-0.346373
-0.315343
-0.284995
-0.256256
-0.229608
-0.205216
-0.183054
-0.162997
-0.144883
-0.128533
-0.113781
-0.100545
-0.0884231
-0.0769544
-0.455063
-0.445975
-0.434659
-0.417027
-0.393354
-0.365255
-0.334691
-0.303528
-0.273188
-0.244568
-0.218116
-0.193967
-0.172076
-0.152307
-0.134487
-0.118435
-0.103984
-0.091052
-0.0792035
-0.0680127
-0.443623
-0.43485
-0.423464
-0.405542
-0.381496
-0.353064
-0.322291
-0.291068
-0.260805
-0.232364
-0.20616
-0.182301
-0.160723
-0.141276
-0.123785
-0.108061
-0.0939373
-0.0813335
-0.0697793
-0.0588861
-0.431217
-0.422775
-0.411336
-0.393158
-0.368792
-0.340094
-0.309185
-0.277976
-0.247856
-0.219655
-0.193751
-0.170228
-0.149003
-0.129916
-0.112784
-0.0974174
-0.0836482
-0.071397
-0.0601576
-0.0495822
-0.417851
-0.409756
-0.398283
-0.379885
-0.355253
-0.326359
-0.295388
-0.264266
-0.234357
-0.206454
-0.180902
-0.15776
-0.136927
-0.118235
-0.101495
-0.0865142
-0.0731256
-0.0612505
-0.0503461
-0.0401087
-0.403537
-0.395804
-0.384317
-0.365738
-0.340898
-0.311876
-0.28092
-0.249956
-0.220323
-0.192776
-0.167626
-0.144908
-0.124507
-0.106245
-0.0899283
-0.0753611
-0.0623788
-0.0509028
-0.0403533
-0.0304739
-0.388289
-0.380933
-0.369453
-0.350733
-0.325744
-0.296667
-0.265799
-0.235065
-0.205771
-0.178636
-0.153938
-0.131688
-0.111755
-0.0939569
-0.0780945
-0.0639689
-0.0514181
-0.0403636
-0.0301885
-0.0206868
-0.372126
-0.36516
-0.35371
-0.334891
-0.309814
-0.280753
-0.250048
-0.219612
-0.190721
-0.164052
-0.139853
-0.118112
-0.0986863
-0.0813847
-0.0660061
-0.0523491
-0.0402545
-0.0296433
-0.0198617
-0.0107569
-0.35507
-0.348506
-0.33711
-0.318235
-0.293133
-0.264161
-0.233687
-0.20362
-0.175192
-0.149043
-0.125389
-0.104197
-0.0853141
-0.0685418
-0.0536761
-0.0405142
-0.0288998
-0.0187531
-0.00938369
-0.000694794
-0.337145
-0.330997
-0.319678
-0.300793
-0.275728
-0.246918
-0.216741
-0.187111
-0.159206
-0.133628
-0.110563
-0.0899602
-0.0716545
-0.0554429
-0.0411185
-0.0284774
-0.0173666
-0.00770491
0.00123381
0.00948786
-0.31838
-0.312658
-0.301442
-0.282593
-0.257628
-0.229041
-0.199246
-0.170113
-0.142786
-0.117828
-0.0953952
-0.0754188
-0.0577241
-0.0421034
-0.0283477
-0.0162524
-0.00566836
0.0034885
0.0119784
0.0197781
-0.298806
-0.293521
-0.282433
-0.263669
-0.238863
-0.21057
-0.181225
-0.15265
-0.125956
-0.101665
-0.0799055
-0.0605915
-0.04354
-0.0285394
-0.015379
-0.00385378
0.00618104
0.0148138
0.0228366
0.0301613
-0.278456
-0.27362
-0.262686
-0.244056
-0.219461
-0.191541
-0.162706
-0.134751
-0.108742
-0.0851627
-0.0641152
-0.045498
-0.0291204
-0.0147677
-0.00222797
0.00870349
0.018167
0.0262572
0.0337944
0.0406206
-0.257365
-0.252991
-0.242237
-0.223777
-0.199472
-0.171983
-0.143722
-0.116444
-0.09117
-0.0683448
-0.0480464
-0.0301586
-0.0144841
-0.000805763
0.0110891
0.0214041
0.0302746
0.0378043
0.0448359
0.0511343
-0.235574
-0.231672
-0.221128
-0.202877
-0.178927
-0.151933
-0.124307
-0.0977599
-0.0732672
-0.0512366
-0.031722
-0.0145943
0.00034966
0.0133287
0.0245558
0.0342324
0.0424888
0.0494406
0.0559434
0.0616724
-0.213119
-0.209706
-0.199383
-0.181413
-0.157863
-0.131427
-0.104494
-0.0787295
-0.0550623
-0.033864
-0.0151659
0.00117305
0.0153608
0.0276172
0.0381554
0.0471728
0.0547943
0.0611519
0.0670998
0.0722044
-0.190037
-0.187144
-0.177062
-0.159414
-0.136323
-0.110503
-0.0843183
-0.0593852
-0.0365847
-0.0162539
0.00159736
0.0171209
0.0305286
0.0420412
0.051871
0.0602096
0.0671757
0.0729266
0.0782968
0.0827092
-0.166374
-0.164037
-0.154212
-0.136925
-0.114348
-0.0892015
-0.0638167
-0.0397599
-0.0178646
0.00156609
0.0185425
0.0332261
0.0458322
0.0565817
0.0656856
0.0733267
0.0796189
0.084761
0.0895325
0.0931222
-0.142229
-0.140392
-0.130876
-0.113991
-0.0919814
-0.0675617
-0.043026
-0.0198877
0.00106698
0.0195676
0.0356435
0.0494649
0.0612498
0.0712193
0.0795818
0.0865084
0.092116
0.0966647
0.100776
0.103204
-0.117631
-0.116268
-0.1071
-0.0906602
-0.0692675
-0.0456251
-0.0219841
0.000196892
0.0201784
0.0377217
0.0528738
0.0658128
0.0767591
0.0859338
0.0935414
0.0997411
0.104669
0.108653
0.111936
0.112635
-0.0926072
-0.0917326
-0.0829349
-0.0669797
-0.0462516
-0.0234338
-0.000729692
0.0204584
0.0394372
0.0559986
0.070206
0.0822449
0.0923373
0.100704
0.107546
0.113013
0.117281
0.120705
0.122909
0.121723
-0.0672132
-0.0668395
-0.0584306
-0.0429987
-0.0229801
-0.00103064
0.020698
0.040861
0.0588107
0.0743682
0.0876125
0.0987354
0.107961
0.115509
0.121575
0.12631
0.129933
0.132733
0.133613
0.132491
-0.0415034
-0.0416378
-0.0336382
-0.0187662
0.000500814
0.0215413
0.0422593
0.0613682
0.0782653
0.0927997
0.105065
0.115258
0.123605
0.130324
0.135608
0.139611
0.142577
0.14471
0.144771
0.144015
-0.015534
-0.0161813
-0.00861069
0.00566702
0.0241434
0.0442381
0.063914
0.0819433
0.0977674
0.111262
0.122535
0.131787
0.139245
0.145128
0.149623
0.152892
0.155183
0.156635
0.15606
0.155277
0.0106389
0.00947568
0.0165984
0.0302499
0.0479001
0.0670156
0.0856214
0.102549
0.117283
0.129724
0.139993
0.148295
0.154857
0.159896
0.163599
0.166129
0.167735
0.168514
0.167377
0.166377
0.0369588
0.0352782
0.0419353
0.0549312
0.0717226
0.0898294
0.107341
0.123148
0.136777
0.148154
0.15741
0.164754
0.170414
0.174605
0.177512
0.1793
0.180214
0.180327
0.178643
0.177316
0.0633691
0.0611706
0.0673458
0.0796592
0.0955629
0.112635
0.129032
0.143703
0.156217
0.166521
0.174757
0.181139
0.185892
0.189231
0.191339
0.192383
0.1926
0.19205
0.189815
0.188087
0.0898129
0.0870972
0.0927754
0.104382
0.119373
0.135388
0.150653
0.164177
0.175567
0.184792
0.192004
0.19742
0.201266
0.203751
0.205059
0.205355
0.204873
0.20366
0.200867
0.19869
0.116233
0.113002
0.11817
0.129048
0.143104
0.158044
0.172165
0.184532
0.194792
0.202936
0.209123
0.213573
0.216509
0.218141
0.218649
0.218197
0.217014
0.215138
0.211779
0.20912
0.142572
0.138828
0.143474
0.153606
0.166708
0.180559
0.193525
0.204731
0.21386
0.220922
0.226084
0.229569
0.231598
0.232378
0.232087
0.230889
0.229004
0.226466
0.222536
0.219372
0.168774
0.164521
0.168635
0.178005
0.190138
0.202888
0.214694
0.224737
0.232735
0.238717
0.242859
0.245381
0.246506
0.246438
0.245352
0.24341
0.240826
0.237626
0.233123
0.229439
0.194781
0.190024
0.193598
0.202193
0.213346
0.224989
0.235632
0.244513
0.251384
0.256292
0.259418
0.260984
0.261211
0.2603
0.258424
0.255742
0.252462
0.248604
0.243528
0.239312
0.220538
0.215281
0.218309
0.22612
0.236285
0.246818
0.256299
0.264023
0.269773
0.273614
0.275733
0.276351
0.275688
0.273941
0.271281
0.267865
0.263895
0.259383
0.253739
0.248985
0.245988
0.24024
0.242717
0.249736
0.25891
0.268332
0.276657
0.283231
0.287871
0.290655
0.291776
0.291456
0.289912
0.287339
0.283904
0.279762
0.275107
0.26995
0.263742
0.258446
0.271078
0.264844
0.266769
0.272993
0.281174
0.28949
0.296667
0.302102
0.305643
0.307384
0.30752
0.306274
0.30386
0.300472
0.296272
0.291414
0.286084
0.280289
0.273525
0.267687
0.295752
0.289042
0.290413
0.295842
0.303034
0.310251
0.31629
0.320601
0.323059
0.323771
0.322937
0.32078
0.31751
0.313319
0.308367
0.302803
0.296809
0.290387
0.283075
0.276697
0.319958
0.312781
0.313601
0.318236
0.324445
0.330574
0.335491
0.338694
0.340087
0.339787
0.338001
0.334948
0.330839
0.32586
0.320169
0.313913
0.307265
0.300228
0.292381
0.285466
0.343644
0.336009
0.336281
0.340128
0.345364
0.35042
0.354233
0.356348
0.356695
0.355406
0.352686
0.348757
0.343825
0.338074
0.33166
0.324726
0.317439
0.309801
0.301429
0.293982
0.366758
0.358678
0.358408
0.361474
0.36575
0.369751
0.372481
0.37353
0.372856
0.370598
0.366966
0.362181
0.356446
0.349942
0.342822
0.335226
0.327315
0.31909
0.310207
0.302236
0.389252
0.380738
0.379932
0.38223
0.385562
0.388529
0.3902
0.390209
0.388539
0.385337
0.380817
0.375198
0.368682
0.361444
0.353637
0.345396
0.336877
0.328083
0.318703
0.310217
0.411076
0.402142
0.400811
0.402353
0.404761
0.406718
0.407356
0.406355
0.403715
0.399597
0.394215
0.387787
0.380511
0.372562
0.364087
0.355221
0.346113
0.336765
0.326905
0.317915
0.432185
0.422843
0.420998
0.421802
0.423308
0.424282
0.423919
0.421937
0.418359
0.413353
0.407137
0.399925
0.391914
0.383277
0.374157
0.364686
0.355007
0.345126
0.334801
0.325319
0.452534
0.442799
0.440453
0.440536
0.441167
0.441189
0.439856
0.436926
0.432443
0.426581
0.419559
0.411592
0.402873
0.393571
0.383829
0.373775
0.363546
0.353151
0.342379
0.332419
0.472078
0.461966
0.459133
0.458519
0.458303
0.457404
0.455138
0.451296
0.445941
0.439257
0.431461
0.422768
0.413368
0.403429
0.393089
0.382475
0.371718
0.36083
0.349629
0.339206
0.490776
0.480304
0.477001
0.475713
0.474681
0.472899
0.469736
0.46502
0.458831
0.451358
0.442822
0.433434
0.423383
0.412833
0.401921
0.390772
0.379509
0.36815
0.35654
0.345671
0.508589
0.497773
0.494019
0.492084
0.490269
0.487641
0.483622
0.478072
0.471087
0.462863
0.453621
0.443571
0.432899
0.421768
0.410312
0.398652
0.386908
0.3751
0.3631
0.351804
0.525479
0.514336
0.510151
0.507598
0.505037
0.501604
0.496771
0.490429
0.482689
0.473752
0.46384
0.453162
0.441902
0.430219
0.418247
0.406103
0.393903
0.38167
0.369301
0.357597
0.541409
0.529959
0.525363
0.522223
0.518955
0.514761
0.509158
0.502068
0.493615
0.484005
0.473462
0.462191
0.450376
0.438173
0.425713
0.413113
0.400482
0.38785
0.375134
0.363042
0.556346
0.544607
0.539625
0.535931
0.531996
0.527085
0.52076
0.512967
0.503845
0.493605
0.482469
0.470642
0.458306
0.445615
0.432699
0.419671
0.406637
0.39363
0.380588
0.368131
0.570259
0.558251
0.552906
0.548693
0.544135
0.538555
0.531555
0.523107
0.513361
0.502533
0.490845
0.478501
0.46568
0.452535
0.439193
0.425766
0.412356
0.399001
0.385656
0.372857
0.583118
0.570861
0.565178
0.560483
0.555347
0.549147
0.541522
0.532469
0.522146
0.510774
0.498575
0.485753
0.472484
0.458919
0.445184
0.431389
0.417632
0.403954
0.390329
0.377214