/*--------------------------------*- C++ -*----------------------------------*\
  =========                 |
  \\      /  F ield         | OpenFOAM: The Open Source CFD Toolbox
   \\    /   O peration     | Website:  https://openfoam.org
    \\  /    A nd           | Version:  7
     \\/     M anipulation  |
\*---------------------------------------------------------------------------*/
FoamFile
{
    version     2.0;
    format      ascii;
    class       surfaceScalarField;
    location    "80";
    object      phi;
}
// * * * * * * * * * * * * * * * * * * * * * * * * * * * * * * * * * * * * * //

dimensions      [0 3 -1 0 0 0 0];

internalField   nonuniform List<scalar> 
16730
(
-0.00370161
-0.000598549
-0.000576128
-0.00355127
-0.00365003
-0.000627712
-0.000551086
-0.00340854
-0.000603222
-0.00349913
-0.00359685
-0.000656395
-0.000524457
-0.00327499
-0.000576172
-0.00335683
-0.000629808
-0.0034455
-0.00354208
-0.000684581
-0.000547785
-0.00322389
-0.000600771
-0.00330384
-0.000655874
-0.00339039
-0.00348571
-0.00071224
-0.000518392
-0.00309868
-0.000570685
-0.0031716
-0.000624892
-0.00324964
-0.000681416
-0.00333387
-0.00342776
-0.000739368
-0.000487788
-0.00297971
-0.000539701
-0.00304677
-0.000593169
-0.00311813
-0.000648549
-0.00319426
-0.000706453
-0.00327597
-0.00336817
-0.000766047
-0.000507501
-0.00292799
-0.000560616
-0.00299365
-0.000615253
-0.00306349
-0.000671782
-0.00313773
-0.000730992
-0.00321676
-0.00330691
-0.00079225
-0.000473903
-0.00281465
-0.000526817
-0.00287507
-0.000581132
-0.00293934
-0.000636959
-0.00300766
-0.000694662
-0.00308002
-0.00075496
-0.00315646
-0.003244
-0.000817868
-0.000491633
-0.00276191
-0.000545726
-0.00282098
-0.000601238
-0.00288383
-0.000658292
-0.00295061
-0.000717235
-0.00302108
-0.000778855
-0.00309484
-0.00318096
-0.000841892
-0.000455072
-0.00265384
-0.000508957
-0.00270802
-0.000564208
-0.00276573
-0.000620908
-0.00282713
-0.000679211
-0.00289231
-0.000739189
-0.0029611
-0.000799846
-0.00303418
-0.0031146
-0.000866207
-0.000417189
-0.00255048
-0.00047088
-0.00260015
-0.000525882
-0.00265302
-0.000582265
-0.00270935
-0.000640124
-0.00276927
-0.000699599
-0.00283283
-0.000760697
-0.00290001
-0.000823363
-0.00297151
-0.00304783
-0.000890136
-0.000431531
-0.00249698
-0.000486303
-0.00254538
-0.000542395
-0.00259693
-0.000599882
-0.00265186
-0.000658863
-0.00271029
-0.000719455
-0.00277224
-0.000781707
-0.00283775
-0.000845849
-0.00290737
-0.00298062
-0.000913063
-0.000390952
-0.00239784
-0.000445509
-0.00244242
-0.000501338
-0.00248955
-0.000558494
-0.00253977
-0.000617056
-0.0025933
-0.000677122
-0.00265022
-0.000738797
-0.00271056
-0.000802165
-0.00277439
-0.000867488
-0.00284205
-0.00291276
-0.000935347
-0.000403538
-0.00234351
-0.000459123
-0.00238683
-0.000515982
-0.00243269
-0.000574176
-0.00248158
-0.000633784
-0.00253369
-0.000694901
-0.0025891
-0.000757627
-0.00264784
-0.00082206
-0.00270995
-0.000888422
-0.00277569
-0.00284417
-0.000957011
-0.000415782
-0.00228817
-0.00047237
-0.00233025
-0.000530234
-0.00237483
-0.000589438
-0.00242237
-0.000650063
-0.00247306
-0.0007122
-0.00252697
-0.000775945
-0.00258409
-0.000841397
-0.0026445
-0.00090873
-0.00270836
-0.00277479
-0.000978104
-0.000371371
-0.00219239
-0.000427685
-0.00223186
-0.000485249
-0.00227268
-0.000544092
-0.00231598
-0.000604279
-0.00236219
-0.000665893
-0.00241145
-0.000729021
-0.00246384
-0.000793754
-0.00251936
-0.000860188
-0.00257807
-0.000928458
-0.00264009
-0.0027046
-0.000998655
-0.000381976
-0.00213641
-0.000439244
-0.00217459
-0.000497758
-0.00221417
-0.000557554
-0.00225619
-0.000618699
-0.00230104
-0.000681273
-0.00234888
-0.000745363
-0.00239975
-0.000811057
-0.00245366
-0.000878442
-0.00251068
-0.00094763
-0.0025709
-0.00263355
-0.00101868
-0.000335342
-0.00204169
-0.000392264
-0.00207948
-0.000450459
-0.0021164
-0.000509898
-0.00215473
-0.00057062
-0.00219546
-0.000632695
-0.00223897
-0.000696203
-0.00228537
-0.000761229
-0.00233472
-0.000827857
-0.00238704
-0.000896169
-0.00244237
-0.000966261
-0.00250081
-0.00256163
-0.00103818
-0.000344401
-0.00198526
-0.000402234
-0.00202165
-0.00046133
-0.0020573
-0.000521667
-0.00209439
-0.000583289
-0.00213384
-0.000646268
-0.00217599
-0.000710683
-0.00222095
-0.000776618
-0.00226879
-0.000844156
-0.0023195
-0.000913374
-0.00237315
-0.000984357
-0.00242982
-0.00248884
-0.00105715
-0.000295836
-0.001888
-0.000353168
-0.00192793
-0.000411886
-0.00196293
-0.000471855
-0.00199733
-0.000533064
-0.00203318
-0.00059556
-0.00207135
-0.000659416
-0.00211213
-0.000724713
-0.00215566
-0.000791532
-0.00220197
-0.000859955
-0.00225108
-0.000930058
-0.00230305
-0.00100192
-0.00235796
-0.00241517
-0.00107559
-0.000303435
-0.00183148
-0.000361645
-0.00186972
-0.000421218
-0.00190336
-0.000482033
-0.00193652
-0.000544088
-0.00197113
-0.000607432
-0.002008
-0.00067214
-0.00204742
-0.000738292
-0.00208951
-0.00080597
-0.00213429
-0.000875256
-0.00218179
-0.000946223
-0.00223208
-0.00101895
-0.00228523
-0.00234064
-0.00109349
-0.000310773
-0.00177407
-0.00036983
-0.00181066
-0.00043023
-0.00184296
-0.000491866
-0.00187488
-0.000554739
-0.00190826
-0.000618905
-0.00194384
-0.000684437
-0.00198189
-0.000751419
-0.00202252
-0.000819932
-0.00206577
-0.000890057
-0.00211167
-0.000961868
-0.00216027
-0.00103545
-0.00221165
-0.00226524
-0.00111084
-0.000259589
-0.0016699
-0.000317848
-0.00171582
-0.000377723
-0.00175079
-0.000438922
-0.00178176
-0.000501351
-0.00181245
-0.000565016
-0.00184459
-0.000629976
-0.00187888
-0.000696308
-0.00191556
-0.000764094
-0.00195474
-0.000833416
-0.00199645
-0.000904356
-0.00204073
-0.00097699
-0.00208763
-0.0010514
-0.00213724
-0.002189
-0.00112764
-0.000265582
-0.00161299
-0.000324661
-0.00165674
-0.000385323
-0.00169012
-0.000447294
-0.00171979
-0.000510488
-0.00174926
-0.000574918
-0.00178016
-0.000640647
-0.00181315
-0.000707751
-0.00184846
-0.000776314
-0.00188618
-0.000846421
-0.00192635
-0.000918152
-0.001969
-0.000991586
-0.0020142
-0.00106681
-0.00206202
-0.00211193
-0.00114388
-0.000271343
-0.00155523
-0.000331211
-0.00159687
-0.000392631
-0.0016287
-0.000455345
-0.00165708
-0.000519276
-0.00168533
-0.000584445
-0.00171499
-0.000650915
-0.00174668
-0.000718765
-0.00178061
-0.00078808
-0.00181686
-0.000858945
-0.00185548
-0.000931443
-0.0018965
-0.00100565
-0.00193999
-0.00108166
-0.00198601
-0.00203406
-0.00115954
-0.000218315
-0.00143779
-0.000276873
-0.00149667
-0.000337498
-0.00153624
-0.000399646
-0.00156655
-0.000463075
-0.00159365
-0.000527716
-0.00162069
-0.000593595
-0.00164911
-0.000660779
-0.00167949
-0.000729348
-0.00171204
-0.000799388
-0.00174682
-0.000870986
-0.00178388
-0.000944225
-0.00182326
-0.00101919
-0.00186503
-0.00109597
-0.00190923
-0.0019554
-0.00117462
-0.000222845
-0.00138145
-0.000282172
-0.00143735
-0.000343521
-0.00147489
-0.000406368
-0.00150371
-0.000470482
-0.00152953
-0.000535805
-0.00155536
-0.000602368
-0.00158255
-0.000670238
-0.00161162
-0.000739499
-0.00164278
-0.000810237
-0.00167608
-0.000882541
-0.00171158
-0.000956495
-0.0017493
-0.00103219
-0.00178933
-0.0011097
-0.00183171
-0.00187599
-0.00118912
-0.000227178
-0.00132431
-0.000287238
-0.00137729
-0.00034928
-0.00141285
-0.000412796
-0.00144019
-0.000477567
-0.00146476
-0.000543544
-0.00148939
-0.000610762
-0.00151533
-0.000679291
-0.00154309
-0.000749217
-0.00157285
-0.000820626
-0.00160467
-0.000893608
-0.0016386
-0.000968251
-0.00167466
-0.00104464
-0.00171294
-0.00112288
-0.00175348
-0.00179584
-0.00120302
-0.000231314
-0.00126642
-0.000292073
-0.00131653
-0.000354776
-0.00135015
-0.00041893
-0.00137604
-0.00048433
-0.00139936
-0.000550932
-0.00142278
-0.000618777
-0.00144749
-0.000687937
-0.00147393
-0.000758499
-0.00150229
-0.000830551
-0.00153262
-0.000904185
-0.00156496
-0.000979489
-0.00159936
-0.00105655
-0.00163588
-0.00113548
-0.00167456
-0.00171499
-0.00121633
-0.000176648
-0.00113266
-0.000235251
-0.00120782
-0.000296675
-0.0012551
-0.000360007
-0.00128682
-0.00042477
-0.00131127
-0.000490768
-0.00133336
-0.000557968
-0.00135558
-0.000626411
-0.00137904
-0.000696174
-0.00140417
-0.000767344
-0.00143112
-0.000840011
-0.00145995
-0.000914268
-0.00149071
-0.000990205
-0.00152342
-0.00106792
-0.00155817
-0.0011475
-0.00159498
-0.00163346
-0.00122903
-0.00017971
-0.00107765
-0.00023899
-0.00114854
-0.000301044
-0.00119305
-0.000364974
-0.00122289
-0.000430315
-0.00124593
-0.000496883
-0.0012668
-0.000564651
-0.00128782
-0.000633664
-0.00131003
-0.000704001
-0.00133383
-0.000775751
-0.00135937
-0.000849005
-0.0013867
-0.000923856
-0.00141586
-0.0010004
-0.00144688
-0.00107872
-0.00147984
-0.00115894
-0.00151476
-0.00155128
-0.00124111
-0.00018261
-0.00102195
-0.00024253
-0.00108862
-0.000305181
-0.0011304
-0.000369676
-0.00115839
-0.000435564
-0.00118005
-0.000502673
-0.00119969
-0.00057098
-0.00121951
-0.000640535
-0.00124048
-0.000711417
-0.00126295
-0.000783717
-0.00128707
-0.000857528
-0.00131289
-0.000932945
-0.00134044
-0.00101006
-0.00136976
-0.00108898
-0.00140093
-0.00116979
-0.00143395
-0.00146849
-0.00125258
-0.000185347
-0.0009656
-0.000245871
-0.0010281
-0.000309084
-0.00106718
-0.000374113
-0.00109336
-0.000440519
-0.00111364
-0.000508138
-0.00113207
-0.000576955
-0.00115069
-0.000647021
-0.00117041
-0.00071842
-0.00119155
-0.000791242
-0.00121425
-0.000865581
-0.00123855
-0.000941534
-0.00126449
-0.0010192
-0.0012921
-0.00109867
-0.00132145
-0.00118005
-0.00135257
-0.00138512
-0.00126343
-0.000187922
-0.000908643
-0.000249012
-0.000967009
-0.000312754
-0.00100344
-0.000378284
-0.00102783
-0.000445177
-0.00104675
-0.000513277
-0.00106397
-0.000582574
-0.0010814
-0.000653124
-0.00109986
-0.000725009
-0.00111967
-0.000798322
-0.00114094
-0.00087316
-0.00116371
-0.000949619
-0.00118803
-0.0010278
-0.00121392
-0.00110779
-0.00124146
-0.00118972
-0.00127065
-0.00130119
-0.00127365
-0.000132809
-0.000764183
-0.000190334
-0.000851117
-0.000251954
-0.00090539
-0.000316189
-0.000939207
-0.000382189
-0.000961835
-0.000449539
-0.000979397
-0.00051809
-0.000995416
-0.000587837
-0.00101165
-0.00065884
-0.00102886
-0.000731182
-0.00104733
-0.000804958
-0.00106716
-0.000880263
-0.00108841
-0.000957198
-0.00111109
-0.00103586
-0.00113526
-0.00111635
-0.00116096
-0.00119878
-0.00118822
-0.00121674
-0.00128323
-0.000134528
-0.000712446
-0.000192583
-0.000793062
-0.000254695
-0.000843278
-0.000319391
-0.000874511
-0.000385829
-0.000895397
-0.000453603
-0.000911622
-0.000522576
-0.000926444
-0.000592744
-0.000941481
-0.00066417
-0.000957431
-0.000736939
-0.000974556
-0.000811146
-0.000992952
-0.000886889
-0.00101266
-0.000964269
-0.00103371
-0.00104338
-0.00105614
-0.00112434
-0.00108001
-0.00120725
-0.00110531
-0.0011318
-0.00129218
-0.000136122
-0.000660196
-0.000194668
-0.000734516
-0.000257236
-0.00078071
-0.000322358
-0.000809389
-0.000389201
-0.000828554
-0.000457371
-0.000843452
-0.000526734
-0.000857081
-0.000597293
-0.000870922
-0.000669112
-0.000885612
-0.000742277
-0.00090139
-0.000816886
-0.000918344
-0.000893036
-0.000936511
-0.000970829
-0.000955921
-0.00105037
-0.000976604
-0.00113176
-0.000998619
-0.0012151
-0.00102197
-0.00104641
-0.00130049
-0.000137592
-0.000607475
-0.000196589
-0.000675519
-0.000259577
-0.000717722
-0.000325091
-0.000743875
-0.000392308
-0.000761337
-0.000460841
-0.000774919
-0.000530564
-0.000787357
-0.000601484
-0.000800003
-0.000673665
-0.000813431
-0.000747197
-0.000827859
-0.000822176
-0.000843365
-0.000898702
-0.000859985
-0.000976878
-0.000877746
-0.00105681
-0.000896677
-0.00113859
-0.000916832
-0.00122235
-0.000938212
-0.0009606
-0.00130816
-0.000138937
-0.000554324
-0.000198345
-0.000616111
-0.000261716
-0.00065435
-0.000327589
-0.000678003
-0.000395147
-0.000693778
-0.000464013
-0.000706052
-0.000534066
-0.000717305
-0.000605315
-0.000728753
-0.000677829
-0.000740918
-0.000751696
-0.000753991
-0.000827015
-0.000768046
-0.000903886
-0.000783114
-0.000982412
-0.00079922
-0.0010627
-0.000816392
-0.00114485
-0.00083468
-0.00122898
-0.000854082
-0.000874404
-0.00131518
-0.000140156
-0.000500782
-0.000199937
-0.00055633
-0.000263655
-0.000590632
-0.000329851
-0.000611806
-0.000397719
-0.000625911
-0.000466887
-0.000636885
-0.000537239
-0.000646953
-0.000608787
-0.000657205
-0.000681602
-0.000668103
-0.000755774
-0.00067982
-0.000831401
-0.000692419
-0.000908585
-0.00070593
-0.000987429
-0.000720375
-0.00106804
-0.000735781
-0.00115053
-0.000752194
-0.001235
-0.000769611
-0.000787858
-0.00132154
-0.000141248
-0.000446891
-0.000201363
-0.000496216
-0.000265391
-0.000526604
-0.000331879
-0.000545319
-0.000400024
-0.000557766
-0.000469462
-0.000567446
-0.000540082
-0.000576333
-0.000611899
-0.000585388
-0.000684984
-0.000595018
-0.000759429
-0.000605375
-0.000835333
-0.000616515
-0.000912799
-0.000628465
-0.000991929
-0.000641245
-0.00107283
-0.000654879
-0.00115562
-0.000669409
-0.00124039
-0.000684833
-0.000700996
-0.00132726
-0.000142215
-0.000392691
-0.000202624
-0.000435806
-0.000266927
-0.000462301
-0.00033367
-0.000478575
-0.00040206
-0.000489376
-0.000471738
-0.000497769
-0.000542595
-0.000505476
-0.00061465
-0.000513333
-0.000687974
-0.000521693
-0.000762661
-0.000530688
-0.000838811
-0.000540365
-0.000916525
-0.00055075
-0.00099591
-0.00056186
-0.00107707
-0.000573717
-0.00116012
-0.000586359
-0.00124517
-0.000599783
-0.000613853
-0.00133231
-0.000143054
-0.000338223
-0.000203719
-0.000375141
-0.00026826
-0.00039776
-0.000335226
-0.000411608
-0.000403829
-0.000420773
-0.000473714
-0.000427884
-0.000544777
-0.000434413
-0.000617039
-0.000441072
-0.000690572
-0.00044816
-0.00076547
-0.00045579
-0.000841832
-0.000464002
-0.000919764
-0.000472818
-0.00099937
-0.000482254
-0.00108076
-0.000492329
-0.00116404
-0.000503077
-0.00124933
-0.000514495
-0.000526466
-0.00133671
-8.90722e-05
-0.000235355
-0.000143767
-0.000283528
-0.000204649
-0.00031426
-0.000269391
-0.000333018
-0.000336547
-0.000344453
-0.00040533
-0.00035199
-0.000475391
-0.000357823
-0.000546629
-0.000363174
-0.000619066
-0.000368635
-0.000692776
-0.00037445
-0.000767853
-0.000380713
-0.000844397
-0.000387458
-0.000922514
-0.000394702
-0.00100231
-0.00040246
-0.00108389
-0.000410749
-0.00116737
-0.000419598
-0.00125286
-0.000429005
-0.000438871
-0.00134045
-8.94716e-05
-0.000189997
-0.000144353
-0.000228647
-0.000205412
-0.0002532
-0.00027032
-0.00026811
-0.000337631
-0.000277143
-0.000406562
-0.000283059
-0.000476768
-0.000287617
-0.00054815
-0.000291793
-0.000620731
-0.000296053
-0.000694586
-0.000300595
-0.000769811
-0.000305489
-0.000846505
-0.000310764
-0.000924773
-0.000316434
-0.00100472
-0.000322511
-0.00108646
-0.00032901
-0.0011701
-0.000335956
-0.00125576
-0.000343346
-0.000351103
-0.00134353
-8.97847e-05
-0.000144498
-0.000144812
-0.00017362
-0.00020601
-0.000192002
-0.000271047
-0.000203073
-0.000338479
-0.000209711
-0.000407525
-0.000214012
-0.000477844
-0.000217298
-0.000549339
-0.000220298
-0.000622033
-0.000223359
-0.000696003
-0.000226625
-0.000771342
-0.000230149
-0.000848154
-0.000233952
-0.000926542
-0.000238045
-0.00100661
-0.00024244
-0.00108848
-0.000247146
-0.00117225
-0.000252185
-0.00125804
-0.000257556
-0.000263198
-0.00134594
-9.00113e-05
-9.88955e-05
-0.000145144
-0.000118487
-0.000206442
-0.000130703
-0.000271572
-0.000137943
-0.00033909
-0.000142193
-0.00040822
-0.000144882
-0.000478621
-0.000146897
-0.000550196
-0.000148723
-0.000622972
-0.000150584
-0.000697024
-0.000152573
-0.000772448
-0.000154726
-0.000849344
-0.000157055
-0.00092782
-0.00015957
-0.00100798
-0.000162279
-0.00108994
-0.000165191
-0.0011738
-0.00016832
-0.00125969
-0.000171669
-0.000175193
-0.00134769
-9.01513e-05
-5.32299e-05
-0.000145348
-6.32906e-05
-0.000206708
-6.93439e-05
-0.000271894
-7.27562e-05
-0.000339465
-7.46224e-05
-0.000408646
-7.57008e-05
-0.000479096
-7.6447e-05
-0.000550722
-7.70973e-05
-0.000623548
-7.77577e-05
-0.000697651
-7.84701e-05
-0.000773126
-7.92501e-05
-0.000850076
-8.01053e-05
-0.000928605
-8.10412e-05
-0.00100882
-8.20632e-05
-0.00109083
-8.31781e-05
-0.00117476
-8.43962e-05
-0.00126071
-8.57199e-05
-8.7125e-05
-0.00134877
-9.02045e-05
-7.54064e-06
-0.000145425
-8.06988e-06
-0.000206807
-7.9623e-06
-0.000272014
-7.5494e-06
-0.000339604
-7.03229e-06
-0.000408803
-6.50164e-06
-0.000479271
-5.97846e-06
-0.000550915
-5.45362e-06
-0.00062376
-4.91306e-06
-0.000697882
-4.34784e-06
-0.000773377
-3.75491e-06
-0.000850347
-3.13495e-06
-0.000928898
-2.4905e-06
-0.00100914
-1.82486e-06
-0.00109117
-1.14207e-06
-0.00117512
-4.47662e-07
-0.0012611
2.54617e-07
9.70715e-07
-0.00134919
-9.01709e-05
3.8133e-05
-0.000145375
4.71339e-05
-0.00020674
5.34025e-05
-0.00027193
5.76415e-05
-0.000339506
6.05428e-05
-0.000408691
6.26834e-05
-0.000479146
6.44765e-05
-0.000550776
6.61769e-05
-0.000623608
6.79188e-05
-0.000697718
6.9762e-05
-0.000773201
7.17282e-05
-0.00085016
7.38236e-05
-0.000928699
7.60487e-05
-0.00100893
7.84024e-05
-0.00109095
8.08834e-05
-0.00117489
8.34907e-05
-0.00126085
8.62195e-05
8.90574e-05
-0.00134894
-9.00506e-05
8.37513e-05
-0.000145197
0.00010228
-0.000206506
0.000114712
-0.000271645
0.00012278
-0.000339171
0.000128069
-0.000408309
0.000131822
-0.000478719
0.000134886
-0.000550305
0.000137763
-0.000623093
0.000140706
-0.000697158
0.000143828
-0.000772597
0.000147167
-0.000849512
0.000150738
-0.000928007
0.000154544
-0.00100819
0.000158585
-0.00109017
0.000162864
-0.00117406
0.000167384
-0.00125998
0.000172139
0.000177098
-0.00134802
-8.98434e-05
0.000129275
-0.000144891
0.000157328
-0.000206106
0.000175926
-0.000271156
0.000187831
-0.000338599
0.000195512
-0.000407659
0.000200881
-0.000477992
0.000205219
-0.000549502
0.000209273
-0.000622214
0.000213418
-0.000696204
0.000217818
-0.000771566
0.00022253
-0.000848404
0.000227576
-0.000926822
0.000232962
-0.00100693
0.00023869
-0.00108883
0.000244766
-0.00117264
0.000251198
-0.00125848
0.000257978
0.000265057
-0.00134644
-8.95493e-05
0.000174664
-0.000144458
0.000212236
-0.000205539
0.000237007
-0.000270465
0.000252756
-0.000337791
0.000262839
-0.000406739
0.000269829
-0.000476963
0.000275443
-0.000548366
0.000280676
-0.000620971
0.000286023
-0.000694853
0.0002917
-0.000770108
0.000297785
-0.000846837
0.000304305
-0.000925145
0.00031127
-0.00100514
0.000318685
-0.00108693
0.000326556
-0.00117063
0.000334897
-0.00125635
0.0003437
0.000352897
-0.00134419
-8.91685e-05
0.00021988
-0.000143897
0.000266965
-0.000204806
0.000297916
-0.00026957
0.000317521
-0.000336746
0.000330015
-0.00040555
0.000338633
-0.000475634
0.000345527
-0.000546898
0.00035194
-0.000619364
0.00035849
-0.000693108
0.000365443
-0.000768223
0.0003729
-0.000844811
0.000380893
-0.000922976
0.000389435
-0.00100283
0.000398534
-0.00108447
0.000408199
-0.00116802
0.000418448
-0.00125359
0.000429271
0.000440583
-0.00134128
-8.87009e-05
-0.000143209
0.000321473
-0.000203906
0.000358613
-0.000268473
0.000382088
-0.000335464
0.000397005
-0.000404092
0.00040726
-0.000474004
0.000415439
-0.000545098
0.000423033
-0.000617394
0.000430786
-0.000690967
0.000439016
-0.00076591
0.000447843
-0.000842325
0.000457308
-0.000920316
0.000467426
-0.000999988
0.000478207
-0.00108145
0.000489662
-0.00116482
0.000501815
-0.0012502
0.000514654
0.000528077
-0.0013377
-0.000142393
0.000375719
-0.00020284
0.00041906
-0.000267174
0.000446422
-0.000333946
0.000463777
-0.000402364
0.000475679
-0.000472073
0.000485148
-0.000542965
0.000493926
-0.000615061
0.000502881
-0.000688432
0.000512387
-0.000763172
0.000522583
-0.000839381
0.000533517
-0.000917164
0.000545208
-0.000996626
0.000557668
-0.00107787
0.000570911
-0.00116102
0.000584964
-0.00124619
0.000599816
0.000615344
-0.00133345
-0.00014145
0.000429663
-0.000201607
0.000479217
-0.000265671
0.000510486
-0.00033219
0.000530297
-0.000400368
0.000543857
-0.000469841
0.000554622
-0.000540501
0.000564586
-0.000612364
0.000574744
-0.000685502
0.000585525
-0.000760007
0.000597088
-0.000835979
0.000609489
-0.000913522
0.000622751
-0.00099274
0.000636887
-0.00107374
0.000651913
-0.00115664
0.000667861
-0.00124154
0.00068472
0.000702348
-0.00132855
-0.000140381
0.000483263
-0.000200209
0.000539045
-0.000263966
0.000574243
-0.000330198
0.000596529
-0.000398102
0.00061176
-0.000467309
0.000623829
-0.000537706
0.000634982
-0.000609305
0.000646344
-0.000682178
0.000658398
-0.000756417
0.000671326
-0.00083212
0.000685192
-0.00090939
0.000700021
-0.000988332
0.000715829
-0.00106905
0.000732634
-0.00115166
0.000750472
-0.00123628
0.000769332
0.000789053
-0.00132298
-0.000139185
0.000536479
-0.000198645
0.000598506
-0.000262059
0.000637657
-0.00032797
0.00066244
-0.000395567
0.000679358
-0.000464477
0.000692738
-0.000534578
0.000705084
-0.000605884
0.000717649
-0.000678461
0.000730975
-0.000752401
0.000745267
-0.000827804
0.000760595
-0.00090477
0.000776987
-0.000983403
0.000794463
-0.00106381
0.000813041
-0.0011461
0.000832763
-0.00123039
0.000853617
0.000875424
-0.00131676
-0.000137862
0.00058927
-0.000196915
0.000657558
-0.000259949
0.000700691
-0.000325505
0.000727996
-0.000392764
0.000746617
-0.000461344
0.000761319
-0.00053112
0.00077486
-0.0006021
0.000788629
-0.000674351
0.000803226
-0.000747962
0.000818878
-0.000823032
0.000835665
-0.000899662
0.000853617
-0.000977955
0.000872756
-0.00105802
0.000893102
-0.00113995
0.0009147
-0.00122388
0.000937541
0.000961426
-0.00130988
-0.000136414
0.000641594
-0.000195019
0.000716164
-0.000257637
0.000763308
-0.000322803
0.000793162
-0.000389692
0.000813506
-0.000457912
0.000829538
-0.000527331
0.00084428
-0.000597955
0.000859253
-0.000669849
0.000875119
-0.0007431
0.00089213
-0.000817806
0.000910371
-0.000894068
0.000929879
-0.000971988
0.000950675
-0.00105167
0.000972783
-0.00113322
0.000996251
-0.00121675
0.00102107
0.00104702
-0.00130235
-0.000134839
0.000693412
-0.000192959
0.000774284
-0.000255123
0.000825473
-0.000319866
0.000857905
-0.000386351
0.000879991
-0.000454179
0.000897366
-0.000523212
0.000913313
-0.000593449
0.000929491
-0.000664955
0.000946625
-0.000737815
0.00096499
-0.000812127
0.000984683
-0.00088799
0.00100574
-0.000965504
0.00102819
-0.00104477
0.00105205
-0.0011259
0.00107738
-0.00120901
0.00110417
0.00113218
-0.00129416
-0.000133139
0.000744681
-0.000190733
0.000831877
-0.000252407
0.000887147
-0.000316692
0.00092219
-0.000382742
0.000946042
-0.000450147
0.000964771
-0.000518762
0.000981928
-0.000588583
0.000999311
-0.00065967
0.00101771
-0.000732109
0.00103743
-0.000805995
0.00105857
-0.000881427
0.00108117
-0.000958506
0.00110527
-0.00103733
0.00113088
-0.00111801
0.00115806
-0.00120065
0.00118681
0.00121687
-0.00128533
-0.000131314
-0.000188343
0.000888905
-0.00024949
0.000948294
-0.000313283
0.000985983
-0.000378865
0.00101162
-0.000445816
0.00103172
-0.000513983
0.00105009
-0.000583357
0.00106869
-0.000653995
0.00108835
-0.000725982
0.00110942
-0.000799413
0.001132
-0.000874383
0.00115614
-0.000950994
0.00118188
-0.00102934
0.00120923
-0.00110954
0.00123825
-0.00119168
0.00126895
0.00130105
-0.00127586
-0.000185788
0.000945328
-0.00024637
0.00100888
-0.000309637
0.00104925
-0.00037472
0.00107671
-0.000441186
0.00109819
-0.000508875
0.00111778
-0.000577772
0.00113758
-0.000647931
0.00115851
-0.000719436
0.00118092
-0.00079238
0.00120494
-0.000866859
0.00123062
-0.000942971
0.00125799
-0.00102082
0.00128707
-0.00110049
0.00131793
-0.00118211
0.00135057
0.00138469
-0.00126575
-0.000183068
0.00100111
-0.00024305
0.00106886
-0.000305756
0.00111196
-0.000370307
0.00114126
-0.000436258
0.00116414
-0.000503438
0.00118496
-0.000571828
0.00120597
-0.000641479
0.00122816
-0.000712472
0.00125191
-0.0007849
0.00127737
-0.000858856
0.00130458
-0.000934439
0.00133357
-0.00101175
0.00136438
-0.00109088
0.00139706
-0.00117193
0.00143163
0.00146775
-0.001255
-0.000180185
0.0010562
-0.000239528
0.0011282
-0.000301639
0.00117407
-0.000365626
0.00120524
-0.00043103
0.00122954
-0.000497672
0.00125161
-0.000565525
0.00127383
-0.000634639
0.00129727
-0.000705091
0.00132237
-0.000776972
0.00134925
-0.000850377
0.00137799
-0.000925401
0.0014086
-0.00100214
0.00144112
-0.00108069
0.00147561
-0.00116116
0.00151209
0.00155021
-0.00124362
-0.000177139
0.00111056
-0.000235806
0.00118687
-0.000297287
0.00123555
-0.000360677
0.00126863
-0.000425505
0.00129437
-0.000491578
0.00131768
-0.000558866
0.00134111
-0.000627412
0.00136582
-0.000697293
0.00139225
-0.000768599
0.00142056
-0.000841423
0.00145081
-0.000915858
0.00148303
-0.000991998
0.00151726
-0.00106994
0.00155355
-0.00114978
0.00159194
0.00163204
-0.00123161
-0.00017393
-0.000231883
0.00124482
-0.0002927
0.00129637
-0.000355461
0.0013314
-0.000419681
0.00135859
-0.000485157
0.00138315
-0.00055185
0.0014078
-0.000619799
0.00143377
-0.000689081
0.00146153
-0.000759782
0.00149126
-0.000831995
0.00152302
-0.000905812
0.00155685
-0.000981325
0.00159277
-0.00105863
0.00163086
-0.00113782
0.00167113
0.0017132
-0.00121898
-0.00022776
0.00130202
-0.000287877
0.00135648
-0.000349978
0.0013935
-0.00041356
0.00142217
-0.000478409
0.001448
-0.000544477
0.00147387
-0.000611802
0.00150109
-0.000680455
0.00153018
-0.000750523
0.00156133
-0.000822097
0.0015946
-0.000895267
0.00163002
-0.000970124
0.00166763
-0.00104676
0.00170749
-0.00112527
0.00174964
0.00179366
-0.00120573
-0.000223436
0.00135844
-0.00028282
0.00141587
-0.000344228
0.0014549
-0.000407141
0.00148509
-0.000471334
0.0015122
-0.000536749
0.00153929
-0.00060342
0.00156776
-0.000671417
0.00159818
-0.000740823
0.00163073
-0.000811729
0.0016655
-0.000884224
0.00170251
-0.000958397
0.0017418
-0.00103434
0.00178343
-0.00111214
0.00182744
0.0018734
-0.00119187
-0.000218913
-0.000277528
0.00147448
-0.000338211
0.00151559
-0.000400425
0.0015473
-0.000463932
0.0015757
-0.000528666
0.00160402
-0.000594655
0.00163375
-0.000661967
0.00166549
-0.000730684
0.00169945
-0.000800894
0.00173571
-0.000872686
0.00177431
-0.000946147
0.00181526
-0.00102136
0.00185865
-0.00109843
0.00190451
0.00195238
-0.00117741
-0.000272002
0.00153229
-0.000331927
0.00157551
-0.000393412
0.00160879
-0.000456204
0.00163849
-0.000520229
0.00166805
-0.000585508
0.00169903
-0.000652107
0.00173209
-0.000720107
0.00176745
-0.000789594
0.0018052
-0.000860656
0.00184537
-0.000933377
0.00188798
-0.00100784
0.00193312
-0.00108414
0.00198081
0.00203058
-0.00116235
-0.000266241
0.00158926
-0.000325376
0.00163465
-0.000386103
0.00166951
-0.000448151
0.00170054
-0.000511438
0.00173133
-0.000575979
0.00176357
-0.000641838
0.00179795
-0.000709093
0.00183471
-0.00077783
0.00187394
-0.000848135
0.00191567
-0.000920091
0.00195994
-0.000993781
0.0020068
-0.00106929
0.00205632
0.00210798
-0.00114669
-0.000260246
0.00164536
-0.000318559
0.00169296
-0.000378496
0.00172945
-0.000439772
0.00176182
-0.000502293
0.00179386
-0.00056607
0.00182735
-0.000631161
0.00186304
-0.000697644
0.00190119
-0.000765604
0.0019419
-0.000835126
0.00198519
-0.000906291
0.00203111
-0.00097918
0.00207969
-0.00105388
0.00213101
0.00218455
-0.00113045
-0.000254017
-0.000311475
0.00175042
-0.000370593
0.00178857
-0.000431068
0.00182229
-0.000492796
0.00185558
-0.00055578
0.00189033
-0.000620077
0.00192734
-0.000685762
0.00196688
-0.000752918
0.00200905
-0.000821631
0.00205391
-0.00089198
0.00210146
-0.000964044
0.00215176
-0.00103791
0.00220488
0.00226026
-0.00111362
-0.000304125
0.00180699
-0.000362394
0.00184684
-0.00042204
0.00188194
-0.000482946
0.00191649
-0.000545111
0.0019525
-0.000608586
0.00199081
-0.000673446
0.00203174
-0.000739773
0.00207538
-0.000807651
0.00212178
-0.00087716
0.00217096
-0.000948377
0.00222298
-0.00102138
0.00227788
0.00233511
-0.00109623
-0.000296509
0.00186264
-0.000353898
0.00190423
-0.000412687
0.00194073
-0.000472745
0.00197655
-0.000534063
0.00201382
-0.00059669
0.00205344
-0.000660698
0.00209574
-0.00072617
0.00214085
-0.000793188
0.0021888
-0.000861833
0.00223961
-0.00093218
0.00229332
-0.00100431
0.00235001
0.00240907
-0.00107827
-0.000288628
-0.000345107
0.0019607
-0.000403009
0.00199863
-0.000462192
0.00203573
-0.000522637
0.00207426
-0.000584389
0.00211519
-0.00064752
0.00215887
-0.00071211
0.00220544
-0.000778243
0.00225494
-0.000846
0.00230737
-0.000915456
0.00236278
-0.000986694
0.00242125
0.00248214
-0.00105976
-0.00033602
0.00201624
-0.000393008
0.00205562
-0.000451288
0.00209401
-0.000510833
0.00213381
-0.000571684
0.00217604
-0.000633911
0.0022211
-0.000697594
0.00226912
-0.000762816
0.00232016
-0.000829661
0.00237421
-0.000898207
0.00243132
-0.000968537
0.00249158
0.0025543
-0.0010407
-0.000326637
-0.000382683
0.00211167
-0.000440033
0.00215136
-0.000498653
0.00219243
-0.000558576
0.00223597
-0.000619872
0.0022824
-0.000682621
0.00233187
-0.000746908
0.00238444
-0.000812818
0.00244012
-0.000880431
0.00249894
-0.000949841
0.00256099
0.00262555
-0.00102109
-0.000372035
0.00216674
-0.000428429
0.00220776
-0.000486095
0.00225009
-0.000545065
0.00229493
-0.000605404
0.00234274
-0.000667193
0.00239366
-0.000730519
0.00244777
-0.000795467
0.00250507
-0.000862127
0.0025656
-0.000930603
0.00262947
0.0026959
-0.00100095
-0.000361064
-0.000416475
0.00226317
-0.000473162
0.00230678
-0.000531152
0.00235292
-0.000590508
0.00240209
-0.00065131
0.00245446
-0.000713646
0.00251011
-0.000777608
0.00256903
-0.000843289
0.00263128
-0.000910818
0.00269699
0.00276536
-0.000980282
-0.000404171
0.00231757
-0.000459854
0.00236246
-0.000516838
0.00240991
-0.000575183
0.00246044
-0.000634971
0.00251425
-0.00069629
0.00257143
-0.000759237
0.00263198
-0.00082391
0.00269595
-0.000890472
0.00276356
0.00283397
-0.000959075
-0.00039152
0.00237093
-0.000446172
0.00241712
-0.000502124
0.00246586
-0.000559432
0.00251775
-0.000618176
0.002573
-0.000678449
0.0026317
-0.000740351
0.00269388
-0.000803979
0.00275958
-0.000869542
0.00282912
0.00290175
-0.000937323
-0.000378522
-0.000432118
0.00247071
-0.000487011
0.00252075
-0.000543255
0.00257399
-0.000600927
0.00263067
-0.000660123
0.0026909
-0.000720947
0.0027547
-0.000783486
0.00282212
-0.000847988
0.00289362
0.00296876
-0.000914999
-0.000417692
-0.000471501
0.00257456
-0.000526654
0.00262914
-0.000583225
0.00268724
-0.00064131
0.00274898
-0.000701024
0.00281442
-0.000762424
0.00288352
-0.000825735
0.00295693
0.00303509
-0.000892062
-0.000455597
0.00262726
-0.000509633
0.00268318
-0.000565073
0.00274268
-0.000622012
0.00280592
-0.000680581