/*--------------------------------*- C++ -*----------------------------------*\
  =========                 |
  \\      /  F ield         | OpenFOAM: The Open Source CFD Toolbox
   \\    /   O peration     | Website:  https://openfoam.org
    \\  /    A nd           | Version:  7
     \\/     M anipulation  |
\*---------------------------------------------------------------------------*/
FoamFile
{
    version     2.0;
    format      ascii;
    class       surfaceScalarField;
    location    "20";
    object      phi;
}
// * * * * * * * * * * * * * * * * * * * * * * * * * * * * * * * * * * * * * //

dimensions      [0 3 -1 0 0 0 0];

internalField   nonuniform List<scalar> 
16735
(
-4.23298e-06
4.23298e-06
-2.63727e-13
-1.45035e-05
1.02705e-05
-1.02956e-12
-2.92271e-05
1.47237e-05
-2.08613e-12
-4.68615e-05
1.76344e-05
-3.53508e-12
-6.59515e-05
1.90899e-05
-5.43881e-12
-8.52056e-05
1.92542e-05
-7.54356e-12
-0.000103597
1.83918e-05
-9.7826e-12
-0.000120509
1.69117e-05
-1.25599e-11
-0.000135824
1.53149e-05
-1.56223e-11
1.42399e-05
-1.8653e-11
-0.000150064
-4.15619e-06
8.38917e-06
-1.42041e-05
2.03185e-05
-2.85466e-05
2.90661e-05
-4.56216e-05
3.47094e-05
-6.39463e-05
3.74147e-05
-8.2193e-05
3.75008e-05
-9.92893e-05
3.54881e-05
-0.000114567
3.21889e-05
-0.000127864
2.86119e-05
2.60306e-05
-0.000139654
-4.00377e-06
1.23929e-05
-1.36093e-05
2.9924e-05
-2.71935e-05
4.26503e-05
-4.31553e-05
5.06712e-05
-5.99576e-05
5.4217e-05
-7.61997e-05
5.37429e-05
-9.07177e-05
5.00061e-05
-0.000102741
4.42121e-05
-0.000112017
3.7888e-05
3.29391e-05
-0.000118925
-3.77797e-06
1.61709e-05
-1.27263e-05
3.88723e-05
-2.51831e-05
5.51071e-05
-3.94893e-05
6.49775e-05
-5.40271e-05
6.87547e-05
-6.72873e-05
6.70031e-05
-7.797e-05
6.06889e-05
-8.51501e-05
5.13921e-05
-8.84351e-05
4.1173e-05
3.25548e-05
-8.80508e-05
-3.48189e-06
1.96528e-05
-1.15654e-05
4.69558e-05
-2.25368e-05
6.60784e-05
-3.46607e-05
7.71015e-05
-4.62136e-05
8.03076e-05
-5.5544e-05
7.63336e-05
-6.11711e-05
6.63159e-05
-6.19615e-05
5.21825e-05
-5.73622e-05
3.65738e-05
2.24676e-05
-4.7275e-05
-3.11923e-06
2.2772e-05
-1.0139e-05
5.39756e-05
-1.92804e-05
7.52198e-05
-2.87148e-05
8.65359e-05
-3.65893e-05
8.81821e-05
-4.10785e-05
8.08228e-05
-4.04762e-05
6.57136e-05
-3.33637e-05
4.507e-05
-1.90086e-05
2.22187e-05
1.92109e-06
1.53792e-06
-2.69398e-06
2.5466e-05
-8.46038e-06
5.9742e-05
-1.5442e-05
8.22014e-05
-2.17011e-05
9.2795e-05
-2.52345e-05
9.17154e-05
-2.40124e-05
7.96007e-05
-1.60661e-05
5.77673e-05
2.83665e-07
2.87203e-05
2.64186e-05
-3.9163e-06
-3.38545e-05
6.21943e-05
-2.21e-06
2.7676e-05
-6.54267e-06
6.40747e-05
-1.10499e-05
8.67087e-05
-1.36702e-05
9.54153e-05
-1.22322e-05
9.02774e-05
-4.47602e-06
7.18446e-05
1.18807e-05
4.14106e-05
3.89599e-05
1.64106e-06
7.82716e-05
-4.3228e-05
-8.57932e-05
0.00013021
-1.67069e-06
2.93467e-05
-4.39776e-06
6.68017e-05
-6.12992e-06
8.84409e-05
-4.66936e-06
9.39547e-05
2.3382e-06
8.32698e-05
1.74015e-05
5.67812e-05
4.31446e-05
1.56675e-05
8.21178e-05
-3.73322e-05
0.000136343
-9.74532e-05
-0.000155955
0.000206505
-1.07872e-06
3.04254e-05
-2.03522e-06
6.77582e-05
-7.03392e-07
8.7109e-05
5.26098e-06
8.79904e-05
1.84063e-05
7.01244e-05
4.15037e-05
3.36838e-05
7.75396e-05
-2.03683e-05
0.000129557
-8.93497e-05
0.000200172
-0.000168068
-0.000246281
0.000290498
-4.35991e-07
3.08614e-05
5.38152e-07
6.67841e-05
5.21279e-06
8.24344e-05
1.60898e-05
7.71133e-05
3.59174e-05
5.02969e-05
6.7734e-05
1.86723e-06
0.000114899
-6.75334e-05
0.000180989
-0.00015544
0.00026932
-0.000256399
-0.000358566
0.000381605
2.58355e-07
3.06031e-05
3.31803e-06
6.37244e-05
1.16094e-05
7.4143e-05
2.77971e-05
6.09257e-05
5.48337e-05
2.32602e-05
9.60222e-05
-3.93212e-05
0.000155088
-0.000126599
0.000236157
-0.000236509
0.000343348
-0.000363591
-0.000494428
0.000479211
1.00214e-06
2.96009e-05
6.3042e-06
5.84224e-05
1.84814e-05
6.19658e-05
4.03719e-05
3.90352e-05
7.51353e-05
-1.15031e-05
0.000126328
-9.05141e-05
0.000198015
-0.000198286
0.000294852
-0.000333346
0.000421838
-0.000490576
-0.000655237
0.000582647
1.79802e-06
2.78029e-05
9.49624e-06
5.07241e-05
2.58263e-05
4.56357e-05
5.38091e-05
1.10525e-05
9.68146e-05
-5.45086e-05
0.000158639
-0.000152339
0.000243641
-0.000283288
0.000356936
-0.000446641
0.000504414
-0.000638054
-0.000842018
0.000691195
2.64639e-06
2.51565e-05
1.28936e-05
4.04769e-05
3.364e-05
2.48892e-05
6.81014e-05
-2.34089e-05
0.000119866
-0.000106274
0.00019296
-0.000225433
0.000291974
-0.000382302
0.000422365
-0.000577032
0.000590799
-0.000806488
-0.00105532
0.0008041
3.54725e-06
2.16093e-05
1.64924e-05
2.75317e-05
4.19109e-05
-5.29197e-07
8.32288e-05
-6.47269e-05
0.000144269
-0.000167314
0.000229288
-0.000310451
0.000343056
-0.000496071
0.000491204
-0.00072518
0.000680887
-0.000996171
-0.00129505
0.000920616
4.49903e-06
1.71102e-05
2.02828e-05
1.1748e-05
5.0613e-05
-3.08593e-05
9.91446e-05
-0.000113259
0.000169962
-0.000238131
0.000267573
-0.000408063
0.000396913
-0.000625411
0.000563616
-0.000891883
0.000774818
-0.00120737
-0.00156039
0.00104016
5.49779e-06
1.16124e-05
2.42461e-05
-7.00036e-06
5.96997e-05
-6.63129e-05
0.000115761
-0.000169319
0.000196808
-0.000319179
0.000307667
-0.000518922
0.000453499
-0.000771242
0.000639855
-0.00107824
0.00087301
-0.00144053
-0.00185021
0.00116283
6.53682e-06
5.07561e-06
2.83535e-05
-2.88171e-05
6.90988e-05
-0.000107058
0.000132933
-0.000233153
0.000224567
-0.000410813
0.000349243
-0.000643598
0.000512603
-0.000934602
0.000720443
-0.00128608
0.000976903
-0.00169699
-0.00216341
0.0012901
7.60674e-06
-2.53113e-06
3.25661e-05
-5.37765e-05
7.87111e-05
-0.000153203
0.000150453
-0.000304895
0.000252848
-0.000513208
0.000391652
-0.000782402
0.000573417
-0.00111637
0.000805628
-0.00151829
0.001093
-0.00198436
-0.00249302
0.00142261
8.69658e-06
-1.12277e-05
3.68385e-05
-8.19183e-05
8.84185e-05
-0.000204783
0.000168061
-0.000384538
0.000281111
-0.000626258
0.000433789
-0.000935079
0.000633597
-0.00131618
0.000890588
-0.00177528
0.00122501
-0.00231878
-0.00297977
0.00171175
9.79477e-06
-2.10225e-05
4.11225e-05
-0.000113246
9.80959e-05
-0.000261757
0.00018548
-0.000471922
0.000308765
-0.000749544
0.000474324
-0.00110064
0.000689821
-0.00153167
0.000965295
-0.00205075
0.00131718
-0.00267067
-0.0034275
0.00176491
1.08914e-05
-3.19139e-05
4.5376e-05
-0.000147731
0.000107634
-0.000324014
0.000202473
-0.000566762
0.000335349
-0.00088242
0.000512405
-0.00127769
0.000740596
-0.00175986
0.0010278
-0.00233796
0.001383
-0.00302586
-0.00385332
0.00180882
1.19789e-05
-4.38928e-05
4.95648e-05
-0.000185317
0.000116945
-0.000391395
0.000218871
-0.000668687
0.000360582
-0.00102413
0.000547691
-0.0014648
0.000785953
-0.00199813
0.00108062
-0.00263263
0.00143485
-0.00338009
-0.00426206
0.00184359
1.3052e-05
-5.69448e-05
5.36629e-05
-0.000225927
0.000125966
-0.000463698
0.000234552
-0.000777273
0.000384304
-0.00117388
0.000580095
-0.00166059
0.000826286
-0.00224432
0.00112566
-0.002932
0.00147731
-0.00373175
-0.0046568
0.00187206
1.4107e-05
-7.10519e-05
5.76499e-05
-0.00026947
0.000134643
-0.000540691
0.00024943
-0.00089206
0.000406408
-0.00133086
0.000609589
-0.00186377
0.000861889
-0.00249662
0.0011639
-0.00323401
0.00151187
-0.00407971
-0.00503938
0.00189444
1.51408e-05
-8.61927e-05
6.15075e-05
-0.000315837
0.000142932
-0.000622116
0.000263424
-0.00101255
0.000426798
-0.00149423
0.000636117
-0.00207309
0.00089287
-0.00275337
0.00119574
-0.00353689
0.00153889
-0.00442286
-0.00541023
0.00190974
1.61495e-05
-0.000102342
6.52155e-05
-0.000364903
0.000150783
-0.000707683
0.000276446
-0.00113822
0.000445354
-0.00166314
0.000659561
-0.0022873
0.000919162
-0.00301297
0.00122116
-0.00383889
0.00155813
-0.00475982
-0.00576887
0.00191677
1.71281e-05
-0.00011947
6.87503e-05
-0.000416525
0.000158138
-0.000797071
0.000288395
-0.00126847
0.000461927
-0.00183667
0.000679735
-0.00250511
0.000940558
-0.00327379
0.0012399
-0.00413824
0.00156909
-0.00508901
-0.00611419
0.00191441
1.80699e-05
-0.00013754
7.20825e-05
-0.000470538
0.000164929
-0.000889917
0.00029915
-0.00140269
0.000476337
-0.00201386
0.000696402
-0.00272517
0.000956766
-0.00353416
0.00125159
-0.00443306
0.00157121
-0.00540863
-0.00644472
0.00190174
1.89661e-05
-0.000156506
7.51773e-05
-0.000526749
0.000171079
-0.000985819
0.000308575
-0.00154019
0.000488381
-0.00219367
0.000709293
-0.00294609
0.00096746
-0.00379233
0.00125584
-0.00472144
0.001564
-0.00571679
-0.00675885
0.00187813
1.98061e-05
-0.000176312
7.79951e-05
-0.000584938
0.000176499
-0.00108432
0.00031652
-0.00168021
0.000497842
-0.00237499
0.000718132
-0.00316638
0.000972322
-0.00404652
0.00125231
-0.00500143
0.00154711
-0.00601159
-0.00705495
0.00184321
2.05781e-05
-0.000196891
8.04923e-05
-0.000644852
0.000181099
-0.00118493
0.000322833
-0.00182194
0.000504508
-0.00255667
0.000722659
-0.00338453
0.000971077
-0.00429493
0.00124075
-0.0052711
0.00152036
-0.00629119
-0.00733148
0.00179689
2.12692e-05
-0.00021816
8.26232e-05
-0.000706206
0.000184783
-0.00128709
0.000327363
-0.00196452
0.000508176
-0.00273748
0.000722647
-0.003599
0.000963516
-0.0045358
0.00122103
-0.00552862
0.00148374
-0.0065539
-0.00758708
0.00173934
2.18658e-05
-0.000240026
8.43413e-05
-0.000768682
0.000187459
-0.00139021
0.00032997
-0.00210704
0.00050867
-0.00291618
0.000717915
-0.00380824
0.000949508
-0.0047674
0.00119314
-0.00577226
0.00143743
-0.00679819
-0.00782062
0.00167096
2.23545e-05
-0.00026238
8.56018e-05
-0.000831929
0.00018904
-0.00149364
0.000330527
-0.00224852
0.000505845
-0.0030915
0.000708342
-0.00401074
0.000929017
-0.00498807
0.0011572
-0.00600044
0.00138176
-0.00702275
-0.00803118
0.00159232
2.2722e-05
-0.000285102
8.63622e-05
-0.000895569
0.000189449
-0.00159673
0.000328928
-0.002388
0.000499593
-0.00326216
0.000693868
-0.00420501
0.000902093
-0.0051963
0.00111342
-0.00621177
0.00131718
-0.00722651
-0.00821814
0.00150414
2.29562e-05
-0.000308058
8.65844e-05
-0.000959197
0.000188619
-0.00169877
0.000325093
-0.00252448
0.000489853
-0.00342692
0.000674501
-0.00438966
0.00086888
-0.00539068
0.00106216
-0.00640504
0.00124428
-0.00740864
-0.00838109
0.00140723
2.30457e-05
-0.000331104
8.62353e-05
-0.00102239
0.000186498
-0.00179903
0.000318968
-0.00265695
0.000476607
-0.00358456
0.000650313
-0.00456337
0.000829601
-0.00556996
0.00100383
-0.00657927
0.00116372
-0.00756853
-0.00851985
0.00130248
2.29807e-05
-0.000354085
8.52884e-05
-0.00108469
0.000183048
-0.00189679
0.000310528
-0.00278443
0.000459884
-0.00373392
0.000621441
-0.00472493
0.000784554
-0.00573308
0.000938947
-0.00673367
0.00107621
-0.00770579
-0.00863446
0.00119081
2.27558e-05
-0.00037684
8.37289e-05
-0.00114567
0.000178256
-0.00199131
0.000299787
-0.00290596
0.000439767
-0.0038739
0.000588089
-0.00487325
0.000734112
-0.0058791
0.000868073
-0.00686763
0.000982517
-0.00782023
-0.0087251
0.00107316
2.23601e-05
-0.000399201
8.15354e-05
-0.00120484
0.000172104
-0.00208188
0.000286763
-0.00302062
0.000416352
-0.00400349
0.00055048
-0.00500738
0.000678664
-0.00600728
0.000791781
-0.00698074
0.000883394
-0.00791185
-0.00879213
0.000950419
2.17919e-05
-0.000420992
7.87082e-05
-0.00126176
0.000164613
-0.00216779
0.000271527
-0.00312753
0.000389805
-0.00412176
0.000508913
-0.00512648
0.000618673
-0.00611704
0.000710706
-0.00707278
0.000779621
-0.00798076
-0.00883598
0.000823476
2.10491e-05
-0.000442042
7.52512e-05
-0.00131596
0.000155813
-0.00224835
0.000254169
-0.00322589
0.000360315
-0.00422791
0.000463714
-0.00522988
0.000554623
-0.00620795
0.000625482
-0.00714364
0.000671954
-0.00802723
-0.0088572
0.000693172
2.01319e-05
-0.000462173
7.11758e-05
-0.00136701
0.00014575
-0.00232292
0.000234806
-0.00331494
0.000328103
-0.00432121
0.000415241
-0.00531702
0.000487015
-0.00627973
0.000536741
-0.00719336
0.000561123
-0.00805161
-0.00885637
0.000560294
1.90428e-05
-0.000481216
6.65015e-05
-0.00141446
0.000134486
-0.00239091
0.000213573
-0.00339403
0.000293416
-0.00440105
0.000363872
-0.00538748
0.000416362
-0.00633222
0.00044511
-0.00722211
0.000447828
-0.00805433
-0.00883411
0.000425565
1.77863e-05
-0.000499003
6.12549e-05
-0.00145793
0.000122098
-0.00245175
0.000190628
-0.00346256
0.00025652
-0.00446694
0.00031
-0.00544096
0.000343181
-0.0063654
0.000351194
-0.00723012
0.000332725
-0.00803586
-0.00879104
0.000289658
1.63692e-05
-0.000515372
5.54695e-05
-0.00149703
0.000108671
-0.00250495
0.000166143
-0.00352003
0.000217701
-0.0045185
0.000254034
-0.00547729
0.000267991
-0.00637935
0.000255588
-0.00721772
0.000216388
-0.00799666
-0.00872786
0.000153201
1.48e-05
-0.000530172
4.91846e-05
-0.00153142
9.43053e-05
-0.00255007
0.000140304
-0.00356603
0.000177253
-0.00455545
0.000196385
-0.00549642
0.000191313
-0.00637428
0.000158915
-0.00718532
9.93619e-05
-0.00793711
-0.00864325
1.47588e-05
1.30893e-05
-0.000543261
4.24452e-05
-0.00156077
7.91068e-05
-0.00258673
0.000113307
-0.00360023
0.000135476
-0.00457762
0.000137461
-0.00549841
0.000113644
-0.00635046
6.17418e-05
-0.00713342
-1.6839e-05
-0.00785853
-0.0085408
-0.00011929
1.1249e-05
-0.00055451
3.53003e-05
-0.00158482
6.31888e-05
-0.00261462
8.5351e-05
-0.00362239
9.2674e-05
-0.00458494
7.76663e-05
-0.0054834
3.54649e-05
-0.00630826
-3.5528e-05
-0.00706243
-0.00013365
-0.00776041
-0.00842039
-0.000254065
9.29279e-06
-0.000563803
2.78022e-05
-0.00160333
4.66683e-05
-0.00263349
5.664e-05
-0.00363236
4.91467e-05
-0.00457745
1.74015e-05
-0.00545166
-4.27467e-05
-0.00624812
-0.000132265
-0.00697291
-0.00024893
-0.00764374
-0.00828184
-0.000387477
7.23513e-06
-0.000571038
2.00058e-05
-0.0016161
2.96647e-05
-0.00264315
2.73755e-05
-0.00363007
5.19949e-06
-0.00455527
-4.29587e-05
-0.0054035
-0.000120528
-0.00617055
-0.000227979
-0.00686546
-0.000362717
-0.00750901
-0.00812553
-0.000519027
5.09217e-06
-0.00057613
1.19668e-05
-0.00162298
1.22975e-05
-0.00264348
-2.2279e-06
-0.00361555
-3.89191e-05
-0.00451858
-0.000103045
-0.00533937
-0.000197436
-0.00607615
-0.000322179
-0.00674071
-0.000474528
-0.00735666
-0.00795173
-0.00064833
2.88532e-06
-0.000579015
3.73987e-06
-0.00162383
-5.32145e-06
-0.00263442
-3.20388e-05
-0.00358883
-8.29171e-05
-0.0044677
-0.000162515
-0.00525977
-0.000273052
-0.00596562
-0.000414369
-0.0065994
-0.000583857
-0.00718717
-0.00776057
-0.000775011
5.84411e-07
-0.0005796
-4.62343e-06
-0.00161863
-2.30818e-05
-0.00261596
-6.18218e-05
-0.00355009
-0.000126558
-0.00440296
-0.00022106
-0.00516527
-0.000346983
-0.0058397
-0.000504053
-0.00644233
-0.000690163
-0.00700106
-0.007552
-0.000898737
-1.73032e-06
-0.000577869
-1.30648e-05
-0.00160729
-4.08719e-05
-0.00258815
-9.14352e-05
-0.00349953
-0.000169626
-0.00432477
-0.000278413
-0.00505649
-0.000418884
-0.00569922
-0.000590749
-0.00627046
-0.000792861
-0.00679895
-0.00732566
-0.0010192
-4.06198e-06
-0.000573807
-2.1533e-05
-0.00158982
-5.85953e-05
-0.00255109
-0.000120731
-0.00343739
-0.000211936
-0.00423357
-0.00033435
-0.00493407
-0.000488467
-0.00554511
-0.000674006
-0.00608492
-0.000891243
-0.00658171
-0.00708113
-0.00113577
-6.41448e-06
-0.000567393
-2.99821e-05
-0.00156625
-7.61603e-05
-0.00250491
-0.000149579
-0.00336397
-0.00025333
-0.00412982
-0.000388707
-0.00479869
-0.000555532
-0.00537828
-0.000753385
-0.00588707
-0.000984048
-0.00635105
-0.00681731
-0.00124786
-8.7657e-06
-0.000558627
-3.83649e-05
-0.00153665
-9.3481e-05
-0.0024498
-0.00017786
-0.00327959
-0.000293684
-0.00401399
-0.000441393
-0.00465099
-0.000620049
-0.00519963
-0.000828634
-0.00567848
-0.00106984
-0.00610984
-0.00653026
-0.00135689
-1.10972e-05
-0.00054753
-4.66298e-05
-0.00150112
-0.000110468
-0.00238596
-0.000205455
-0.00318461
-0.00033288
-0.00388657
-0.000492371
-0.00449149
-0.000682281
-0.00500972
-0.000900384
-0.00546038
-0.00114273
-0.0058675
-0.00625988
-0.0014131
-1.34015e-05
-0.000534129
-5.4745e-05
-0.00145978
-0.000127057
-0.00231365
-0.000232275
-0.00307939
-0.000370823
-0.00374802
-0.000541606
-0.00432071
-0.000742438
-0.00480888
-0.000970693
-0.00523213
-0.00122352
-0.00561468
-0.00598035
-0.00150305
-1.56615e-05
-0.000518467
-6.26614e-05
-0.00141278
-0.000143163
-0.00223314
-0.000258199
-0.00296435
-0.00040736
-0.00359886
-0.000588889
-0.00413918
-0.000800163
-0.00459761
-0.00103837
-0.00499392
-0.00130112
-0.00535193
-0.00569305
-0.00158841
-1.78641e-05
-0.000500603
-7.03383e-05
-0.0013603
-0.000158711
-0.00214477
-0.000283122
-0.00283994
-0.000442352
-0.00343963
-0.000634022
-0.00394751
-0.000855104
-0.00437653
-0.00110258
-0.00474644
-0.00137407
-0.00508044
-0.00539841
-0.00166871
-1.9997e-05
-0.000480606
-7.77376e-05
-0.00130256
-0.000173635
-0.00204887
-0.000306947
-0.00270663
-0.000475678
-0.0032709
-0.000676858
-0.00374633
-0.000907077
-0.00414631
-0.00116311
-0.0044904
-0.0014425
-0.00480105
-0.005097
-0.00174391
-2.20485e-05
-0.000458557
-8.48244e-05
-0.00123979
-0.000187873
-0.00194583
-0.000329592
-0.00256491
-0.000507244
-0.00309325
-0.000717299
-0.00353628
-0.000955997
-0.00390761
-0.00121993
-0.00422647
-0.00150657
-0.00451442
-0.00478921
-0.00181435
-2.40081e-05
-0.000434549
-9.15671e-05
-0.00117223
-0.00020137
-0.00183602
-0.000350987
-0.00241529
-0.000536971
-0.00290726
-0.000755275
-0.00331797
-0.00100182
-0.00366106
-0.00127306
-0.00395523
-0.0015664
-0.00422108
-0.00447537
-0.00188025
-2.58663e-05
-0.000408683
-9.79375e-05
-0.00110016
-0.000214081
-0.00171988
-0.000371072
-0.0022583
-0.000564798
-0.00271354
-0.000790736
-0.00309204
-0.00104453
-0.00340727
-0.00132251
-0.00367725
-0.0016221
-0.00392149
-0.00415574
-0.00194173
-2.76143e-05
-0.000381069
-0.00010391
-0.00102386
-0.000225962
-0.00159783
-0.000389794
-0.00209447
-0.000590674
-0.00251266
-0.000823641
-0.00285907
-0.0010841
-0.00314682
-0.0013683
-0.00339305
-0.0016737
-0.00361608
-0.00383061
-0.00199883
-2.92441e-05
-0.000351825
-0.000109463
-0.000943643
-0.000236978
-0.00147031
-0.000407109
-0.00192434
-0.000614552
-0.00230521
-0.000853956
-0.00261967
-0.00112051
-0.00288026
-0.00141043
-0.00310313
-0.00172123
-0.00330528
-0.00350028
-0.00205156
-3.07487e-05
-0.000321076
-0.000114574
-0.000859817
-0.000247095
-0.00133779
-0.000422977
-0.00174846
-0.000636394
-0.0020918
-0.000881647
-0.00237441
-0.00115375
-0.00260816
-0.0014489
-0.00280798
-0.00176467
-0.00298951
-0.00316508
-0.00209987
-3.21216e-05
-0.000288954
-0.000119227
-0.000772712
-0.000256284
-0.00120073
-0.000437362
-0.00156738
-0.000656164
-0.00187299
-0.000906683
-0.0021239
-0.00118379
-0.00233105
-0.00148367
-0.00250811
-0.00180399
-0.00266918
-0.00282538
-0.00214369
-3.3357e-05
-0.000255597
-0.000123404
-0.000682665
-0.000264519
-0.00105962
-0.000450232
-0.00138167
-0.000673829
-0.0016494
-0.000929033
-0.00186869
-0.0012106
-0.00204949
-0.00151471
-0.002204
-0.00183913
-0.00234476
-0.00248157
-0.00218294
-3.44496e-05
-0.000221148
-0.000127092
-0.000590023
-0.000271777
-0.000914933
-0.000461559
-0.00119189
-0.000689358
-0.0014216
-0.000948667
-0.00160938
-0.00123414
-0.00176401
-0.00154198
-0.00189616
-0.00187004
-0.0020167
-0.0021341
-0.00221751
-3.53949e-05
-0.000185753
-0.000130277
-0.000495141
-0.000278036
-0.000767174
-0.000471317
-0.000998605
-0.000702723
-0.00119019
-0.000965556
-0.00134655
-0.00125439
-0.00147517
-0.00156545
-0.0015851
-0.00189667
-0.00168548
-0.00178343
-0.00224734
-3.61888e-05
-0.000149564
-0.000132948
-0.000398381
-0.00028328
-0.000616842
-0.000479483
-0.000802402
-0.000713901
-0.000955774
-0.000979675
-0.00108078
-0.00127132
-0.00118352
-0.00158508
-0.00127134
-0.00191895
-0.00135161
-0.00143005
-0.00227233
-3.68281e-05
-0.000112736
-0.000135097
-0.000300113
-0.000287494
-0.000464444
-0.00048604
-0.000603856
-0.00072287
-0.000718944
-0.000990999
-0.000812648
-0.0012849
-0.000889619
-0.00160083
-0.000955414
-0.00193684
-0.0010156
-0.00107448
-0.00229241
-3.73099e-05
-7.54259e-05
-0.000136715
-0.000200708
-0.000290665
-0.000310494
-0.000490971
-0.00040355
-0.000729612
-0.000480303
-0.00099951
-0.000542749
-0.00129511
-0.000594022
-0.00161267
-0.000637853
-0.0019503
-0.000677972
-0.000717247
-0.00230753
-3.76322e-05
-3.77937e-05
-0.000137796
-0.000100544
-0.000292784
-0.000155507
-0.000494265
-0.000202069
-0.000734114
-0.000240454
-0.00100519
-0.00027167
-0.00130192
-0.000297294
-0.00162057
-0.0003192
-0.00195929
-0.000339258
-0.000358903
-0.00231763
-3.77937e-05
1.71187e-12
-0.000138338
4.6513e-12
-0.000293845
7.33754e-12
-0.000495913
9.63959e-12
-0.000736367
1.14867e-11
-0.00100804
1.28879e-11
-0.00130533
1.38847e-11
-0.00162453
1.45678e-11
-0.00196379
1.50206e-11
1.53041e-11
-0.00232269
-3.77937e-05
3.77937e-05
-0.000138338
0.000100544
-0.000293845
0.000155507
-0.000495913
0.000202069
-0.000736367
0.000240454
-0.00100804
0.00027167
-0.00130533
0.000297294
-0.00162453
0.0003192
-0.00196379
0.000339258
0.000358903
-0.00232269
-3.76322e-05
7.5426e-05
-0.000137796
0.000200708
-0.000292784
0.000310494
-0.000494265
0.00040355
-0.000734114
0.000480303
-0.00100519
0.000542749
-0.00130192
0.000594022
-0.00162057
0.000637853
-0.00195929
0.000677972
0.000717247
-0.00231763
-3.73099e-05
0.000112736
-0.000136715
0.000300113
-0.000290665
0.000464444
-0.000490971
0.000603856
-0.000729612
0.000718944
-0.00099951
0.000812648
-0.00129511
0.000889619
-0.00161267
0.000955414
-0.0019503
0.0010156
0.00107448
-0.00230753
-3.68281e-05
0.000149564
-0.000135097
0.000398381
-0.000287494
0.000616842
-0.00048604
0.000802402
-0.00072287
0.000955774
-0.000990999
0.00108078
-0.0012849
0.00118352
-0.00160083
0.00127134
-0.00193684
0.00135161
0.00143005
-0.00229241
-3.61888e-05
0.000185753
-0.000132948
0.000495141
-0.00028328
0.000767174
-0.000479483
0.000998605
-0.000713901
0.00119019
-0.000979675
0.00134655
-0.00127132
0.00147517
-0.00158508
0.0015851
-0.00191895
0.00168548
0.00178343
-0.00227233
-3.53949e-05
0.000221148
-0.000130277
0.000590023
-0.000278036
0.000914933
-0.000471317
0.00119189
-0.000702723
0.0014216
-0.000965556
0.00160938
-0.00125439
0.00176401
-0.00156545
0.00189616
-0.00189667
0.0020167
0.0021341
-0.00224734
-3.44496e-05
0.000255597
-0.000127092
0.000682665
-0.000271777
0.00105962
-0.000461559
0.00138167
-0.000689358
0.0016494
-0.000948667
0.00186869
-0.00123414
0.00204949
-0.00154198
0.002204
-0.00187004
0.00234476
0.00248157
-0.00221751
-3.3357e-05
0.000288954
-0.000123404
0.000772712
-0.000264519
0.00120073
-0.000450232
0.00156738
-0.000673829
0.00187299
-0.000929033
0.0021239
-0.0012106
0.00233105
-0.00151471
0.00250811
-0.00183913
0.00266918
0.00282538
-0.00218294
-3.21216e-05
0.000321076
-0.000119227
0.000859817
-0.000256284
0.00133779
-0.000437362
0.00174846
-0.000656164
0.0020918
-0.000906683
0.00237441
-0.00118379
0.00260816
-0.00148367
0.00280798
-0.00180399
0.00298951
0.00316508
-0.00214369
-3.07487e-05
0.000351825
-0.000114574
0.000943643
-0.000247095
0.00147031
-0.000422977
0.00192434
-0.000636394
0.00230521
-0.000881647
0.00261967
-0.00115375
0.00288026
-0.0014489
0.00310313
-0.00176467
0.00330528
0.00350028
-0.00209987
-2.92441e-05
0.000381069
-0.000109463
0.00102386
-0.000236978
0.00159783
-0.000407109
0.00209447
-0.000614552
0.00251266
-0.000853956
0.00285907
-0.00112051
0.00314682
-0.00141043
0.00339305
-0.00172123
0.00361608
0.00383061
-0.00205156
-2.76143e-05
0.000408683
-0.00010391
0.00110016
-0.000225962
0.00171988
-0.000389794
0.0022583
-0.000590674
0.00271354
-0.000823641
0.00309204
-0.0010841
0.00340727
-0.0013683
0.00367725
-0.0016737
0.00392149
0.00415574
-0.00199883
-2.58663e-05
0.000434549
-9.79375e-05
0.00117223
-0.000214081
0.00183602
-0.000371072
0.00241529
-0.000564798
0.00290726
-0.000790736
0.00331797
-0.00104453
0.00366106
-0.00132251
0.00395523
-0.0016221
0.00422108
0.00447537
-0.00194173
-2.40081e-05
0.000458557
-9.15671e-05
0.00123979
-0.00020137
0.00194583
-0.000350987
0.00256491
-0.000536971
0.00309325
-0.000755275
0.00353628
-0.00100182
0.00390761
-0.00127306
0.00422647
-0.0015664
0.00451442
0.00478921
-0.00188025
-2.20485e-05
0.000480606
-8.48244e-05
0.00130256
-0.000187873
0.00204887
-0.000329592
0.00270663
-0.000507244
0.0032709
-0.000717299
0.00374633
-0.000955997
0.00414631
-0.00121993
0.00449041
-0.00150657
0.00480105
0.005097
-0.00181435
-1.9997e-05
0.000500603
-7.77376e-05
0.0013603
-0.000173635
0.00214477
-0.000306947
0.00283994
-0.000475678
0.00343963
-0.000676858
0.00394751
-0.000907077
0.00437653
-0.00116311
0.00474644
-0.0014425
0.00508044
0.00539841
-0.00174391
-1.78641e-05
0.000518467
-7.03383e-05
0.00141278
-0.000158711
0.00223314
-0.000283122
0.00296435
-0.000442352
0.00359886
-0.000634022
0.00413918
-0.000855104
0.00459761
-0.00110258
0.00499392
-0.00137407
0.00535193
0.00569305
-0.00166871
-1.56615e-05
0.000534129
-6.26614e-05
0.00145978
-0.000143163
0.00231365
-0.000258199
0.00307939
-0.00040736
0.00374802
-0.000588889
0.00432071
-0.000800163
0.00480888
-0.00103837
0.00523213
-0.00130112
0.00561468
0.00598035
-0.00158841
-1.34015e-05
0.00054753
-5.4745e-05
0.00150112
-0.000127057
0.00238596
-0.000232275
0.00318461
-0.000370823
0.00388657
-0.000541606
0.00449149
-0.000742438
0.00500972
-0.000970693
0.00546038
-0.00122352
0.0058675
0.00625988
-0.00150305
-1.10972e-05
0.000558627
-4.66298e-05
0.00153665
-0.000110468
0.0024498
-0.000205455
0.00327959
-0.00033288
0.00401399
-0.000492371
0.00465099
-0.000682281
0.00519963
-0.000900384
0.00567848
-0.00114273
0.00610984
0.00653026
-0.0014131
-8.7657e-06
0.000567393
-3.83649e-05
0.00156625
-9.3481e-05
0.00250491
-0.00017786
0.00336397
-0.000293684
0.00412982
-0.000441393
0.00479869
-0.000620049
0.00537828
-0.000828634
0.00588707
-0.00106984
0.00635105
0.00681731
-0.00135689
-6.41448e-06
0.000573807
-2.99821e-05
0.00158982
-7.61603e-05
0.00255109
-0.000149579
0.00343739
-0.00025333
0.00423357
-0.000388707
0.00493407
-0.000555532
0.00554511
-0.000753385
0.00608492
-0.000984048
0.00658171
0.00708113
-0.00124786
-4.06198e-06
0.000577869
-2.1533e-05
0.00160729
-5.85953e-05
0.00258815
-0.000120731
0.00349953
-0.000211936
0.00432477
-0.00033435
0.00505649
-0.000488467
0.00569922
-0.000674006
0.00627046
-0.000891243
0.00679895
0.00732566
-0.00113577
-1.73032e-06
0.0005796
-1.30648e-05
0.00161863
-4.08719e-05
0.00261596
-9.14352e-05
0.00355009
-0.000169626
0.00440296
-0.000278413
0.00516527
-0.000418884
0.0058397
-0.000590749
0.00644233
-0.000792861
0.00700106
0.007552
-0.0010192
5.84412e-07
0.000579015
-4.62343e-06
0.00162383
-2.30818e-05
0.00263442
-6.18218e-05
0.00358883
-0.000126558
0.0044677
-0.00022106
0.00525977
-0.000346983
0.00596562
-0.000504053
0.0065994
-0.000690163
0.00718717
0.00776057
-0.000898737
2.88532e-06
0.00057613
3.73987e-06
0.00162298
-5.32144e-06
0.00264348
-3.20388e-05
0.00361555
-8.29171e-05
0.00451858
-0.000162515
0.00533937
-0.000273052
0.00607615
-0.000414369
0.00674071
-0.000583857
0.00735666
0.00795173
-0.000775011
5.09217e-06
0.000571038
1.19668e-05
0.0016161
1.22975e-05
0.00264315
-2.2279e-06
0.00363007
-3.89191e-05
0.00455527
-0.000103045
0.0054035
-0.000197436
0.00617055
-0.000322179
0.00686546
-0.000474528
0.00750901
0.00812553
-0.00064833
7.23513e-06
0.000563803
2.00058e-05
0.00160333
2.96647e-05
0.00263349
2.73755e-05
0.00363236
5.19949e-06
0.00457745
-4.29587e-05
0.00545166
-0.000120528
0.00624812
-0.000227979
0.00697291
-0.000362717
0.00764374
0.00828184
-0.000519027
9.29279e-06
0.00055451
2.78022e-05
0.00158482
4.66683e-05
0.00261462
5.664e-05
0.00362239
4.91467e-05
0.00458494
1.74015e-05
0.0054834
-4.27467e-05
0.00630826
-0.000132265
0.00706243
-0.00024893
0.00776041
0.00842039
-0.000387477
1.1249e-05
0.000543261
3.53003e-05
0.00156077
6.31888e-05
0.00258673
8.5351e-05
0.00360023
9.2674e-05
0.00457762
7.76663e-05
0.00549841
3.54649e-05
0.00635047
-3.5528e-05
0.00713342
-0.00013365
0.00785853
0.0085408
-0.000254065
1.30893e-05
0.000530172
4.24452e-05
0.00153142
7.91068e-05
0.00255007
0.000113307
0.00356603
0.000135476
0.00455545
0.000137461
0.00549642
0.000113644
0.00637428
6.17418e-05
0.00718532
-1.6839e-05
0.00793711
0.00864325
-0.00011929
1.48e-05
0.000515372
4.91846e-05
0.00149703
9.43053e-05
0.00250495
0.000140304
0.00352003
0.000177253
0.0045185
0.000196385
0.00547729
0.000191313
0.00637935
0.000158915
0.00721772
9.93619e-05
0.00799666
0.00872786
1.47588e-05
1.63692e-05
0.000499003
5.54695e-05
0.00145793
0.000108671
0.00245175
0.000166143
0.00346256
0.000217701
0.00446694
0.000254034
0.00544096
0.000267991
0.0063654
0.000255588
0.00723012
0.000216388
0.00803586
0.00879104
0.000153201
1.77863e-05
0.000481216
6.12549e-05
0.00141446
0.000122098
0.00239091
0.000190628
0.00339403
0.00025652
0.00440105
0.00031
0.00538748
0.000343181
0.00633222
0.000351194
0.00722211
0.000332725
0.00805433
0.00883411
0.000289658
1.90428e-05
0.000462173
6.65015e-05
0.00136701
0.000134486
0.00232292
0.000213573
0.00331494
0.000293416
0.00432121
0.000363872
0.00531702
0.000416362
0.00627973
0.00044511
0.00719336
0.000447828
0.00805161
0.00885637
0.000425565
2.01319e-05
0.000442042
7.11758e-05
0.00131596
0.00014575
0.00224835
0.000234806
0.00322589
0.000328103
0.00422791
0.000415241
0.00522988
0.000487015
0.00620795
0.000536741
0.00714364
0.000561123
0.00802723
0.0088572
0.000560294
2.10491e-05
0.000420992
7.52512e-05
0.00126176
0.000155813
0.00216779
0.000254169
0.00312753
0.000360315
0.00412176
0.000463714
0.00512648
0.000554623
0.00611704
0.000625482
0.00707278
0.000671954
0.00798076
0.00883598
0.000693172
2.17919e-05
0.000399201
7.87082e-05
0.00120484
0.000164613
0.00208188
0.000271527
0.00302062
0.000389805
0.00400349
0.000508913
0.00500738
0.000618673
0.00600728
0.000710706
0.00698074
0.000779621
0.00791185
0.00879213
0.000823476
2.23601e-05
0.00037684
8.15354e-05
0.00114567
0.000172104
0.00199131
0.000286763
0.00290596
0.000416352
0.0038739
0.00055048
0.00487325
0.000678664
0.0058791
0.000791781
0.00686763
0.000883394
0.00782023
0.0087251
0.000950419
2.27558e-05
0.000354085
8.37289e-05
0.00108469
0.000178256
0.00189679
0.000299787
0.00278443
0.000439767
0.00373392
0.000588089
0.00472493
0.000734112
0.00573308
0.000868073
0.00673367
0.000982517
0.00770579
0.00863446
0.00107316
2.29807e-05
0.000331104
8.52884e-05
0.00102239
0.000183048
0.00179903
0.000310528
0.00265695
0.000459884
0.00358456
0.000621441
0.00456337
0.000784554
0.00556996
0.000938947
0.00657927
0.00107621
0.00756853
0.00851985
0.00119081
2.30457e-05
0.000308058
8.62353e-05
0.000959197
0.000186498
0.00169877
0.000318968
0.00252448
0.000476607
0.00342692
0.000650313