/*--------------------------------*- C++ -*----------------------------------*\
  =========                 |
  \\      /  F ield         | OpenFOAM: The Open Source CFD Toolbox
   \\    /   O peration     | Website:  https://openfoam.org
    \\  /    A nd           | Version:  7
     \\/     M anipulation  |
\*---------------------------------------------------------------------------*/
FoamFile
{
    version     2.0;
    format      ascii;
    class       volVectorField;
    location    "20";
    object      U;
}
// * * * * * * * * * * * * * * * * * * * * * * * * * * * * * * * * * * * * * //

dimensions      [0 1 -1 0 0 0 0];

internalField   nonuniform List<vector> 
8500
(
(-0.000760322 0.00060131 -1.20151e-21)
(-0.00384266 0.00131002 1.10568e-20)
(-0.00929135 0.00165799 2.27118e-20)
(-0.0153867 0.00174096 -5.85812e-22)
(-0.0213861 0.00163099 -8.32835e-21)
(-0.0267533 0.00139419 -8.30517e-21)
(-0.0311291 0.0010919 1.49496e-21)
(-0.0343785 0.000781599 2.41677e-20)
(-0.0365522 0.00051087 -1.36348e-20)
(-0.0377523 0.000322953 4.95216e-21)
(-0.000843814 0.00179063 -1.88104e-20)
(-0.00398082 0.00389809 1.08951e-20)
(-0.0093642 0.00493009 -3.85036e-20)
(-0.0153048 0.00517162 -3.67132e-20)
(-0.0210724 0.00483787 8.05442e-21)
(-0.0261407 0.00412623 6.61209e-21)
(-0.0301584 0.00322023 -9.62446e-21)
(-0.0330002 0.00229212 8.35916e-21)
(-0.0347251 0.00148546 1.71954e-20)
(-0.0353894 0.000932829 1.06856e-20)
(-0.00100734 0.00294037 -1.88467e-20)
(-0.0042488 0.00639101 -1.98553e-20)
(-0.00949847 0.00807148 1.96983e-20)
(-0.0151277 0.0084497 6.24128e-20)
(-0.0204306 0.00788074 3.17072e-20)
(-0.0249007 0.0066907 1.44789e-20)
(-0.0282026 0.00518359 -1.00982e-20)
(-0.0302297 0.00364598 -4.002e-20)
(-0.031059 0.00231929 1.86503e-20)
(-0.0306505 0.00143391 -1.27855e-19)
(-0.00124408 0.00402523 -4.72283e-24)
(-0.00463007 0.00872768 5.75269e-21)
(-0.00967141 0.0109983 -3.91288e-20)
(-0.0148286 0.0114773 -2.22406e-20)
(-0.0194318 0.0106546 -2.98931e-20)
(-0.0230038 0.00898054 -2.85743e-20)
(-0.0252326 0.00687685 8.14687e-20)
(-0.0260393 0.00474331 -5.67286e-20)
(-0.0255305 0.00292182 -7.6438e-20)
(-0.0235079 0.00175489 6.38007e-20)
(-0.00154397 0.00502141 2.92762e-20)
(-0.00510012 0.0108505 -1.9327e-20)
(-0.00984912 0.0136312 -5.22147e-21)
(-0.0143674 0.0141622 3.47881e-21)
(-0.0180325 0.0130608 2.9278e-20)
(-0.0204053 0.0108958 5.61568e-20)
(-0.0212043 0.00820218 -2.16976e-20)
(-0.0203868 0.00549127 6.82902e-20)
(-0.0181052 0.00321172 6.51768e-20)
(-0.0139214 0.00185185 -4.14909e-20)
(-0.00189396 0.00590719 8.53514e-20)
(-0.00562684 0.0127064 -5.44165e-21)
(-0.00998679 0.0158974 4.95154e-20)
(-0.0136909 0.0164199 -4.33629e-20)
(-0.0161746 0.0150098 -9.57198e-20)
(-0.0170452 0.0123463 6.29515e-20)
(-0.0160584 0.00907216 1.43177e-19)
(-0.0132133 0.00580761 2.90352e-20)
(-0.00872558 0.00311973 7.98757e-21)
(-0.00186746 0.00175376 4.49246e-20)
(-0.00227824 0.00666325 -1.5352e-19)
(-0.00617091 0.0142481 2.99792e-20)
(-0.0100291 0.017732 -1.96092e-20)
(-0.012733 0.0181758 -7.17283e-20)
(-0.0137852 0.0164233 3.23746e-21)
(-0.0128478 0.0132546 -2.34391e-19)
(-0.00971959 0.00941318 -2.20999e-19)
(-0.00444447 0.00562694 -1.69938e-19)
(0.0027187 0.00257317 9.74274e-20)
(0.0126723 0.00132972 -8.80533e-21)
(-0.00267848 0.00727298 1.0102e-19)
(-0.00668628 0.0154346 -9.16749e-20)
(-0.00991053 0.0190793 5.45894e-20)
(-0.0114145 0.0193668 1.22575e-19)
(-0.010777 0.0172367 -5.91588e-20)
(-0.00772136 0.0135587 4.73752e-20)
(-0.00209443 0.00916756 2.07375e-20)
(0.00600132 0.0048906 1.58795e-19)
(0.0162754 0.00151897 -1.45206e-20)
(0.0298676 0.000481363 -4.21909e-20)
(-0.00307416 0.00772263 2.73905e-20)
(-0.00712061 0.0162319 1.05816e-19)
(-0.00955594 0.0198938 -1.73961e-19)
(-0.00964401 0.0199428 8.78743e-20)
(-0.00704781 0.0174013 9.78584e-20)
(-0.00155908 0.0132151 1.69329e-19)
(0.00692296 0.00829755 1.08392e-19)
(0.0182333 0.00356475 1.33734e-19)
(0.0320351 -5.49078e-05 6.88293e-21)
(0.0497985 -0.000734565 1.99876e-20)
(-0.0034427 0.00800132 -1.09566e-19)
(-0.00741581 0.0166135 -9.13792e-20)
(-0.00888101 0.020141 1.65397e-19)
(-0.00731812 0.0198681 -2.01701e-20)
(-0.00248163 0.0168857 -1.34179e-19)
(0.00576191 0.0122013 4.22502e-20)
(0.0174561 0.00679184 9.93392e-20)
(0.0323715 0.00164955 -1.97997e-19)
(0.0501131 -0.00215956 1.44064e-19)
(0.0725604 -0.00230219 1.00033e-19)
(-0.00375974 0.00810106 4.43574e-20)
(-0.00750849 0.0165601 8.02702e-20)
(-0.00779302 0.0197982 2.7222e-19)
(-0.00432224 0.0191224 -2.21902e-19)
(0.00305127 0.0156779 6.67745e-20)
(0.0143798 0.010518 9.43794e-20)
(0.0296451 0.00466615 -7.66122e-20)
(0.0485505 -0.000828164 1.98523e-19)
(0.0706354 -0.00477213 -1.70177e-19)
(0.098267 -0.00419698 1.1167e-19)
(-0.0039992 0.00801646 1.09413e-20)
(-0.00733061 0.0160607 -3.34234e-19)
(-0.0061917 0.0188544 -2.14271e-19)
(-0.000531758 0.017701 1.78541e-19)
(0.00969288 0.0137855 1.30511e-19)
(0.0244471 0.0081904 -2.87483e-20)
(0.0436447 0.00196624 -1.2719e-19)
(0.066919 -0.00380612 -3.81747e-20)
(0.0937374 -0.00782958 2.18704e-19)
(0.12704 -0.00636395 -2.88009e-20)
(-0.00413338 0.00774502 -1.47077e-19)
(-0.00680993 0.0151117 3.55095e-19)
(-0.00397054 0.0173108 6.45108e-20)
(0.00418632 0.0156154 -3.23156e-19)
(0.0175955 0.0112358 5.63869e-20)
(0.0361283 0.00526851 -3.69761e-19)
(0.0596233 -0.00123023 2.98246e-19)
(0.087638 -0.00718109 -7.74453e-20)
(0.119563 -0.0112228 -4.87953e-19)
(0.158997 -0.00871134 -1.4291e-19)
(-0.00413341 0.00728683 5.34198e-20)
(-0.00587097 0.0137168 -2.2786e-19)
(-0.00101824 0.0151806 6.81256e-21)
(0.00997102 0.0128923 6.93005e-20)
(0.0269191 0.00807537 -3.55204e-19)
(0.0495973 0.00182596 3.83334e-20)
(0.0777597 -0.00481409 -4.38821e-19)
(0.110879 -0.0108061 -6.09166e-20)
(0.148262 -0.0147865 3.91988e-19)
(0.194249 -0.0110997 1.56711e-19)
(-0.00396922 0.00664454 4.53736e-20)
(-0.00443615 0.0118881 1.09333e-19)
(0.00277908 0.0124887 1.018e-20)
(0.0169642 0.00957357 7.61162e-20)
(0.0378267 0.00436789 2.45521e-19)
(0.0650328 -0.00204319 3.54206e-19)
(0.0982402 -0.00864861 -1.48301e-20)
(0.136823 -0.0144911 2.97554e-20)
(0.179993 -0.0182907 -7.05435e-20)
(0.232884 -0.0133311 1.42708e-19)
(-0.00361001 0.00582368 -9.13821e-20)
(-0.00242709 0.00964557 1.22299e-19)
(0.0075352 0.00927209 2.98301e-20)
(0.0253065 0.00571489 1.89426e-19)
(0.0504794 0.000191547 -1.82925e-19)
(0.0826114 -0.00622981 -3.59491e-19)
(0.121251 -0.0125776 1.63843e-19)
(0.165656 -0.0180117 -8.26057e-20)
(0.214929 -0.0214387 -1.46928e-19)
(0.274982 -0.0151413 3.21285e-19)
(-0.00302476 0.0048329 1.85074e-19)
(0.000233583 0.00701753 -1.62801e-19)
(0.0133604 0.00557931 -3.99831e-21)
(0.0351319 0.00138476 -2.52316e-20)
(0.0650285 -0.0043641 1.98487e-19)
(0.102499 -0.010617 3.00396e-19)
(0.14697 -0.0164388 -9.18964e-20)
(0.197562 -0.0211244 5.98224e-20)
(0.253256 -0.0238586 9.11015e-20)
(0.3206 -0.0161368 -4.66854e-19)
(-0.00218299 0.00368441 1.36493e-20)
(0.00362007 0.00404145 4.38927e-19)
(0.0203579 0.00147108 -3.28447e-20)
(0.0465618 -0.00333599 -5.8842e-20)
(0.0816068 -0.00920137 -1.93129e-19)
(0.124836 -0.0150894 2.19161e-19)
(0.175552 -0.0200844 -2.09274e-19)
(0.232714 -0.0235919 1.59935e-19)
(0.29514 -0.0250386 -4.26839e-20)
(0.369622 -0.0155212 3.02759e-19)
(-0.00105564 0.00239439 -2.51612e-19)
(0.00780105 0.000764482 -3.20204e-19)
(0.028619 -0.00297918 -1.82121e-19)
(0.0596985 -0.00835419 4.35152e-19)
(0.100317 -0.0142167 -1.8036e-19)
(0.149728 -0.019544 -1.36862e-19)
(0.20712 -0.0234169 -1.14992e-19)
(0.271318 -0.025246 2.29648e-19)
(0.34087 -0.0243251 -5.3908e-19)
(0.421598 -0.0119557 3.57222e-19)
(0.000383961 0.00098337 -2.6008e-20)
(0.0128373 -0.00275582 2.43634e-20)
(0.0382201 -0.00768416 5.27882e-21)
(0.0746171 -0.0135626 -2.59434e-19)
(0.12122 -0.0192993 1.1463e-19)
(0.177211 -0.0238979 2.49722e-20)
(0.241723 -0.0264318 2.30278e-19)
(0.313647 -0.0261519 -2.89667e-19)
(0.391526 -0.0215826 3.0352e-19)
(0.477828 -0.00565205 -1.68302e-19)
(0.00215923 -0.000523543 -1.09018e-19)
(0.0187798 -0.00645096 -1.09241e-19)
(0.0492185 -0.0125412 1.67026e-19)
(0.0913608 -0.0188357 1.38318e-19)
(0.144316 -0.0243225 -8.14397e-20)
(0.207211 -0.0280702 -1.41794e-19)
(0.27918 -0.0292048 -3.76749e-19)
(0.359511 -0.0267947 3.28299e-19)
(0.448264 -0.018574 -2.18816e-19)
(0.548291 -0.0025424 2.65344e-20)
(0.00428966 -0.00209672 -1.40231e-19)
(0.0256681 -0.0102413 3.00418e-19)
(0.0616516 -0.0174307 -2.78522e-19)
(0.10994 -0.0240247 -8.02784e-20)
(0.169551 -0.0291254 1.97266e-19)
(0.239538 -0.031924 -3.21269e-19)
(0.318993 -0.0317236 1.25027e-19)
(0.407389 -0.0278027 -4.37284e-20)
(0.505459 -0.0187532 1.65427e-19)
(0.612917 -0.0095203 -6.52965e-19)
(0.00679059 -0.00370246 1.99815e-19)
(0.0335306 -0.014037 3.24815e-20)
(0.0755378 -0.0222169 7.0109e-20)
(0.130335 -0.0289555 -1.08065e-19)
(0.196832 -0.0335022 -2.80402e-19)
(0.273955 -0.0352205 -2.0915e-19)
(0.360654 -0.0336739 1.48695e-19)
(0.456231 -0.0285307 6.10693e-20)
(0.56112 -0.0192917 2.42159e-19)
(0.671695 -0.014407 4.26631e-20)
(0.00967318 -0.00530378 -1.70666e-19)
(0.0423839 -0.0177395 2.67601e-19)
(0.0908775 -0.0267502 9.94166e-21)
(0.152507 -0.0334339 1.61779e-19)
(0.226045 -0.0372146 -2.57597e-20)
(0.310238 -0.0376596 7.04688e-20)
(0.403783 -0.0346173 1.41335e-19)
(0.505575 -0.0281362 -1.35651e-19)
(0.615278 -0.0182911 -7.10201e-20)
(0.727117 -0.0149072 6.79367e-19)
(0.0129446 -0.00686136 1.90692e-19)
(0.0522333 -0.0212442 4.35147e-20)
(0.107654 -0.0308723 1.59035e-19)
(0.176395 -0.0372548 1.31255e-20)
(0.257063 -0.0400123 6.54609e-20)
(0.348177 -0.0389348 2.04834e-19)
(0.448097 -0.0341531 -4.6762e-19)
(0.555205 -0.0260457 1.39399e-19)
(0.668297 -0.015057 -9.56186e-20)
(0.780518 -0.0113886 -2.22186e-19)
(0.016608 -0.00833442 1.03224e-19)
(0.0630727 -0.0244429 -3.42821e-20)
(0.125832 -0.0344208 -7.18884e-20)
(0.201918 -0.0402113 -3.13227e-19)
(0.289744 -0.0416502 1.07785e-19)
(0.387557 -0.0387636 3.88583e-19)
(0.493339 -0.0319575 -3.9736e-20)
(0.604924 -0.0218977 8.43658e-20)
(0.720296 -0.00929707 2.62086e-19)
(0.832176 -0.0042 -6.24397e-20)
(0.0206628 -0.00968141 -1.24306e-19)
(0.0748838 -0.0272263 -1.20203e-20)
(0.14536 -0.0372341 -3.26801e-19)
(0.228971 -0.0421022 4.16468e-20)
(0.32392 -0.0418996 -3.68507e-19)
(0.428149 -0.0369011 -3.63782e-19)
(0.539238 -0.027784 2.13824e-20)
(0.654488 -0.0154758 2.07398e-19)
(0.771173 -0.00091514 -5.07441e-19)
(0.881979 0.00629668 -1.18592e-19)
(0.025104 -0.0108606 -1.15367e-19)
(0.0876357 -0.0294859 -1.00061e-19)
(0.166163 -0.0391551 3.18834e-19)
(0.257427 -0.0427384 -6.00441e-20)
(0.359396 -0.040556 1.12398e-19)
(0.469693 -0.033146 4.5064e-20)
(0.585493 -0.0214603 3.55972e-19)
(0.703598 -0.00667802 -2.07576e-19)
(0.820693 0.0100446 7.14769e-21)
(0.929666 0.0196946 3.05371e-19)
(0.0299221 -0.0118303 2.1868e-19)
(0.101284 -0.0311157 -2.53446e-19)
(0.188149 -0.0400347 3.16051e-20)
(0.287128 -0.0419469 -3.68638e-20)
(0.395947 -0.0374438 1.77152e-19)
(0.511902 -0.0273438 -2.67832e-20)
(0.631768 -0.0128822 1.51031e-19)
(0.751909 0.00450859 6.31338e-20)
(0.868543 0.0234476 9.40292e-20)
(0.974915 0.0355826 -4.60034e-20)
(0.0351027 -0.0125497 -2.04227e-19)
(0.11577 -0.0320141 3.86315e-20)
(0.2112 -0.0397342 -1.0185e-20)
(0.317891 -0.0395749 3.20628e-19)
(0.433321 -0.0324198 2.75933e-19)
(0.554455 -0.0193865 1.26108e-19)
(0.677699 -0.00200645 -5.96259e-19)
(0.799046 0.0180281 2.03218e-19)
(0.914377 0.039104 2.79382e-20)
(1.01739 0.0535624 3.30282e-20)
(0.0406258 -0.0129785 -2.23453e-19)
(0.131019 -0.0320847 2.17658e-19)
(0.235179 -0.0381283 2.10305e-19)
(0.349508 -0.0354923 -4.10639e-19)
(0.471235 -0.0253746 -5.57195e-20)
(0.597009 -0.00921144 1.79811e-20)
(0.722904 0.0111561 2.86527e-19)
(0.844622 0.0337712 -1.47378e-19)
(0.95784 0.0567881 9.04574e-20)
(1.0568 0.0732543 -8.00589e-20)
(0.0464656 -0.0130783 2.37591e-19)
(0.146944 -0.0312384 -1.47718e-20)
(0.259924 -0.0351065 -1.72261e-20)
(0.381742 -0.0295937 9.18922e-20)
(0.509381 -0.0162336 -1.06972e-19)
(0.6392 0.00320003 2.98753e-20)
(0.76699 0.0265469 -2.68666e-19)
(0.888252 0.051586 1.8549e-19)
(0.998598 0.0762517 -4.06385e-20)
(1.09288 0.0943003 6.93777e-20)
(0.0525897 -0.0128122 9.05038e-21)
(0.163439 -0.0293945 -8.68509e-20)
(0.285256 -0.0305756 -1.04487e-19)
(0.414336 -0.0218005 1.09822e-19)
(0.547436 -0.00495824 3.80191e-19)
(0.680654 0.017825 -3.17815e-19)
(0.809565 0.0440653 -6.53068e-20)
(0.929569 0.0712873 -1.80248e-19)
(1.03635 0.0972331 -1.34333e-19)
(1.12543 0.116367 -5.0847e-21)
(0.0589594 -0.0121462 -9.5147e-20)
(0.180385 -0.0264826 4.26956e-21)
(0.310974 -0.0244617 3.08266e-20)
(0.447013 -0.012062 -5.22041e-20)
(0.585059 0.00845485 -2.42028e-19)
(0.720994 0.034601 6.09408e-20)
(0.850251 0.0635736 1.70506e-19)
(0.968238 0.0926639 3.03915e-20)
(1.07085 0.119464 -1.54965e-19)
(1.1543 0.139145 -1.85954e-19)
(0.0655294 -0.0110498 1.15176e-19)
(0.197647 -0.0224438 -1.44094e-19)
(0.33686 -0.0167114 -7.90567e-20)
(0.479483 -0.000357108 -4.56779e-20)
(0.621904 0.0239736 1.04812e-19)
(0.759847 0.053429 1.64972e-19)
(0.888689 0.0849024 -1.47305e-21)
(1.00396 0.115485 7.72516e-20)
(1.10188 0.142676 1.72188e-19)
(1.17942 0.162356 1.73784e-19)
(0.0722478 -0.00949654 -2.44214e-20)
(0.215079 -0.0172332 1.72912e-19)
(0.362682 -0.00729423 2.82403e-20)
(0.511442 0.0133054 -3.6255e-20)
(0.657623 0.0415315 -2.50127e-20)
(0.796855 0.074176 -7.35333e-20)
(0.924553 0.107856 1.3265e-19)
(1.03647 0.139508 -1.58897e-19)
(1.12929 0.166605 -4.90282e-20)
(1.20076 0.185742 -5.43071e-20)
(0.0790568 -0.00746523 -9.56785e-20)
(0.232522 -0.0108206 -3.89144e-20)
(0.388196 0.00379628 1.2068e-19)
(0.542584 0.0288859 -2.17886e-20)
(0.691873 0.0610287 5.29021e-20)
(0.831678 0.0966786 5.32307e-20)
(0.957547 0.132215 -9.7913e-20)
(1.06558 0.16448 1.65793e-19)
(1.153 0.190994 6.18666e-21)
(1.21834 0.209078 1.2691e-19)
(0.0858934 -0.0049406 6.36998e-21)
(0.249806 -0.00319282 7.71361e-20)
(0.413151 0.0165413 -4.6877e-20)
(0.572601 0.0463142 -9.8237e-20)
(0.724325 0.0823338 -4.82197e-20)
(0.864003 0.120746 -4.10009e-20)
(0.987419 0.157745 8.39791e-20)
(1.09111 0.190146 -2.38531e-20)
(1.17294 0.215598 -1.25275e-19)
(1.23224 0.232157 -5.80608e-21)
(0.0926896 -0.00191416 2.63306e-20)
(0.266756 0.0056453 -1.52529e-20)
(0.437293 0.0308961 5.14853e-20)
(0.60119 0.0654897 5.06371e-20)
(0.754665 0.105286 9.31901e-21)
(0.893547 0.146165 -2.40104e-20)
(1.01396 0.184199 -5.41588e-20)
(1.11297 0.216251 2.22846e-22)
(1.18913 0.240184 5.22038e-20)
(1.24255 0.2548 -3.50784e-20)
(0.0993739 0.00161512 1.32065e-21)
(0.283192 0.01567 -8.04909e-21)
(0.460367 0.0467892 -4.58791e-20)
(0.628059 0.0862825 3.52172e-21)
(0.782601 0.129697 9.22548e-21)
(0.920064 0.172701 9.7552e-21)
(1.03699 0.211319 2.40257e-20)
(1.13108 0.242545 -1.84221e-20)
(1.2016 0.264535 4.61268e-21)
(1.24941 0.276846 -1.77517e-21)
(0.105873 0.00564028 -9.77135e-21)
(0.298933 0.0268377 -8.02878e-21)
(0.482125 0.0641229 -3.96032e-20)
(0.65293 0.108535 7.64609e-21)
(0.807871 0.155355 7.02008e-21)
(0.943343 0.200105 1.49488e-20)
(1.05641 0.238845 1.57632e-20)
(1.14542 0.268784 -1.71604e-20)
(1.21044 0.288447 4.56007e-21)
(1.25297 0.298152 -1.54731e-21)
(0.11211 0.010146 4.4729e-20)
(0.313797 0.039085 -2.82298e-20)
(0.502326 0.0827742 6.04457e-20)
(0.675546 0.132064 3.66883e-20)
(0.830241 0.182027 3.10557e-21)
(0.963215 0.228118 -8.39969e-21)
(1.07211 0.266517 -4.9327e-20)
(1.15601 0.294733 -7.37892e-21)
(1.21573 0.311733 3.43817e-20)
(1.2534 0.318593 -7.50189e-21)
(0.118011 0.0151081 3.08149e-20)
(0.327609 0.0523285 3.17614e-20)
(0.520743 0.102595 -3.00173e-20)
(0.695672 0.156662 -8.87708e-20)
(0.849512 0.209464 -6.91095e-20)
(0.979548 0.25647 2.93137e-20)
(1.08407 0.294075 1.12468e-20)
(1.16291 0.320168 -1.88808e-20)
(1.21762 0.334217 -7.57698e-20)
(1.25088 0.338056 3.77222e-21)
(0.123501 0.0204939 -6.57e-20)
(0.340201 0.0664653 -9.05179e-21)
(0.537167 0.123415 5.59126e-20)
(0.713103 0.182102 6.30242e-20)
(0.865521 0.237402 3.65208e-20)
(0.992254 0.284889 9.23964e-21)
(1.09228 0.321265 -4.80278e-20)
(1.1662 0.344876 7.96619e-20)
(1.21626 0.355739 3.99114e-20)
(1.24558 0.35644 5.50612e-20)
(0.128509 0.0262619 -8.68663e-20)
(0.351416 0.0813744 1.81119e-19)
(0.551408 0.145042 -3.1165e-20)
(0.727663 0.20814 2.66049e-20)
(0.878143 0.265567 1.319e-20)
(1.00128 0.313101 -1.05107e-19)
(1.09678 0.347841 2.40321e-20)
(1.16598 0.368655 -3.18704e-20)
(1.21179 0.376152 -6.45826e-20)
(1.23771 0.373654 -3.63392e-20)
(0.132967 0.0323623 7.03867e-20)
(0.361112 0.0969175 -1.81721e-19)
(0.563303 0.167267 -3.37734e-20)
(0.739208 0.234515 -2.41354e-21)
(0.88729 0.293681 1.03047e-20)
(1.00662 0.340837 1.00491e-19)
(1.09763 0.373566 3.29251e-20)
(1.16239 0.391319 7.53925e-20)
(1.20441 0.395318 7.11685e-20)
(1.22744 0.389615 5.14201e-20)
(0.136813 0.0387377 -7.98142e-20)
(0.369162 0.112942 -3.7507e-20)
(0.572713 0.189865 2.36156e-20)
(0.747631 0.260961 -2.13163e-20)
(0.892915 0.321462 -2.24742e-19)
(1.0083 0.367832 6.95009e-20)
(1.09493 0.398214 3.47857e-20)
(1.15558 0.41269 3.01389e-20)
(1.19428 0.41311 9.64726e-21)
(1.21497 0.404249 -1.12557e-19)
(0.139993 0.0453238 8.04375e-20)
(0.375458 0.12928 -8.38037e-20)
(0.57953 0.2126 -6.28531e-20)
(0.752859 0.287202 7.28455e-20)
(0.895007 0.348629 1.87543e-19)
(1.00637 0.393828 -1.41985e-19)
(1.0888 0.421571 -7.36642e-20)
(1.1457 0.432606 -6.00499e-20)
(1.18157 0.429408 -9.44912e-20)
(1.20044 0.41748 3.86461e-20)
(0.142458 0.0520497 3.13526e-20)
(0.379915 0.145756 7.52692e-20)
(0.583676 0.235225 2.03633e-20)
(0.754859 0.312959 5.16123e-20)
(0.893591 0.374907 -1.24056e-19)
(1.00093 0.41858 -2.27412e-20)
(1.07938 0.443441 -1.89499e-20)
(1.13293 0.450924 5.88082e-20)
(1.16647 0.444116 1.19895e-20)
(1.18392 0.429192 5.9364e-21)
(0.14417 0.0588399 -6.63251e-21)
(0.382467 0.162184 8.79786e-20)
(0.585104 0.257491 3.94313e-20)
(0.75363 0.337956 -1.42241e-19)
(0.888731 0.400027 -3.07851e-20)
(0.99209 0.441856 -1.71236e-20)
(1.06683 0.463637 1.40264e-19)
(1.11745 0.467515 -6.03115e-20)
(1.14917 0.457201 5.5953e-20)
(1.16571 0.439264 -4.50247e-20)
(0.1451 0.0656146 -8.49623e-20)
(0.383076 0.178373 7.12118e-20)
(0.583802 0.279144 3.20526e-20)
(0.74921 0.361921 1.34181e-19)
(0.880523 0.423732 7.66968e-20)
(0.980009 0.463437 9.52859e-20)
(1.05134 0.48199 -1.86426e-19)
(1.09946 0.482238 1.88788e-20)
(1.12983 0.468541 4.3295e-20)
(1.14606 0.447788 1.40468e-21)
(0.145229 0.0722912 8.77461e-20)
(0.381724 0.194131 -1.06485e-19)
(0.579789 0.299935 -8.18514e-20)
(0.741671 0.384589 9.63049e-20)
(0.869096 0.445778 -3.64752e-20)
(0.964856 0.48312 1.36535e-20)
(1.0331 0.498349 6.53777e-20)
(1.07914 0.494996 -5.35692e-21)
(1.10861 0.478022 3.9188e-22)
(1.12505 0.454667 1.7449e-20)
(0.144548 0.0787857 -5.55786e-20)
(0.378421 0.209263 -2.89755e-20)
(0.573115 0.319617 4.5558e-20)
(0.73112 0.405705 4.30524e-20)
(0.854607 0.465936 -4.23515e-20)
(0.946828 0.50072 3.4137e-20)
(1.01232 0.512577 5.4836e-20)
(1.05669 0.505699 -3.4199e-20)
(1.08568 0.485585 -9.61376e-21)
(1.10277 0.45981 -1.21844e-20)
(0.14306 0.0850145 -1.26212e-20)
(0.373199 0.22358 5.06356e-21)
(0.563864 0.337953 -1.12669e-19)
(0.717694 0.425029 -4.62032e-20)
(0.837242 0.483992 -9.28945e-20)
(0.92614 0.516073 -5.60361e-20)
(0.989222 0.52456 2.74055e-21)
(1.03231 0.514269 4.67847e-21)
(1.0612 0.491179 2.3354e-20)
(1.07934 0.463149 1.12542e-20)
(0.140778 0.0908951 6.43475e-20)
(0.366115 0.236897 1.92452e-20)
(0.552147 0.354715 -1.19619e-20)
(0.701558 0.442337 -7.89735e-20)
(0.817212 0.499755 1.81056e-20)
(0.903033 0.529029 4.81034e-20)
(0.964046 0.534196 -1.9236e-20)
(1.00619 0.520646 7.07336e-21)
(1.03531 0.494758 -2.81667e-20)
(1.05489 0.464613 2.00424e-20)
(0.137722 0.0963449 1.82834e-20)
(0.357251 0.249039 3.89284e-20)
(0.538104 0.369691 6.25664e-21)
(0.682906 0.45742 3.66759e-20)
(0.794754 0.51305 5.35378e-21)
(0.877759 0.539463 -3.28126e-20)
(0.937041 0.541407 2.91945e-20)
(0.978556 0.524789 -3.43282e-20)
(1.00814 0.496296 1.96458e-20)
(1.02948 0.464131 1.46928e-19)
(0.133926 0.101282 -9.83362e-21)
(0.346712 0.259838 3.95862e-21)
(0.521899 0.382685 8.28696e-21)
(0.661956 0.470091 1.05304e-20)
(0.77012 0.523723 -1.69734e-20)
(0.850589 0.547265 -3.4061e-20)
(0.908471 0.546129 -1.09418e-20)
(0.949625 0.526677 -5.27277e-20)
(0.97981 0.495781 8.64308e-20)
(1.00318 0.461619 -2.30483e-19)
(0.129439 0.105636 -2.08388e-20)
(0.334616 0.269136 -2.80512e-21)
(0.503719 0.393517 -1.87141e-20)
(0.638947 0.480183 1.11208e-20)
(0.743579 0.53164 4.85915e-20)
(0.821806 0.552344 2.42931e-20)
(0.878617 0.548317 -8.03541e-20)
(0.919636 0.526309 -6.26474e-20)
(0.950416 0.493218 -1.16866e-20)
(0.976016 0.45695 -1.32267e-19)
(0.124313 0.109339 -2.58516e-20)
(0.321104 0.276795 -2.40925e-20)
(0.483773 0.402028 3.3936e-20)
(0.614133 0.487551 3.94579e-20)
(0.715415 0.53669 -3.92527e-20)
(0.791705 0.554628 3.85901e-20)
(0.847775 0.547942 3.19528e-20)
(0.888856 0.523715 3.61678e-20)
(0.920128 0.488663 -3.3652e-19)
(0.947934 0.450012 5.22526e-19)
(0.118605 0.112332 1.71612e-21)
(0.30633 0.282691 2.85876e-20)
(0.462286 0.40808 1.04619e-20)
(0.587784 0.492074 -1.17787e-19)
(0.685918 0.538779 5.1749e-20)
(0.760584 0.554056 1.79003e-20)
(0.816254 0.544983 1.10763e-19)
(0.857629 0.518946 6.49273e-20)
(0.889364 0.482337 1.10958e-19)
(0.918689 0.44121 -1.20368e-19)
(0.112385 0.114558 -5.86358e-20)
(0.290466 0.286719 -1.19523e-19)
(0.439496 0.411558 7.81414e-20)
(0.560178 0.493653 1.20998e-19)
(0.655381 0.537836 -3.39556e-20)
(0.728736 0.550579 -7.38352e-20)
(0.784356 0.539397 -2.50492e-19)
(0.826392 0.511976 3.29889e-19)
(0.859055 0.474516 -8.67949e-20)
(0.887902 0.430971 2.70368e-20)
(0.105725 0.115972 1.30375e-19)
(0.273694 0.288791 2.3419e-19)
(0.415653 0.412373 8.51202e-21)
(0.5316 0.492217 -1.08649e-19)
(0.624095 0.533814 6.64658e-20)
(0.696435 0.544163 1.8056e-19)
(0.752342 0.531127 -1.11767e-19)
(0.795551 0.502559 1.01146e-19)
(0.830183 0.46471 1.28774e-19)
(0.861125 0.421242 -1.30872e-19)
(0.0987063 0.116537 -5.7959e-20)
(0.256204 0.288839 -1.57429e-19)
(0.391015 0.41046 -1.13295e-19)
(0.502339 0.487721 1.61864e-19)
(0.592347 0.526693 5.67579e-20)
(0.663936 0.534809 -1.4287e-19)
(0.720394 0.520186 1.10977e-19)
(0.76504 0.490724 -2.04966e-19)
(0.80171 0.452648 2.28673e-19)
(0.834392 0.409678 -2.844e-19)
(0.0914121 0.116223 -1.273e-19)
(0.238195 0.286817 1.90251e-19)
(0.365847 0.405781 1.43426e-20)
(0.472686 0.48015 1.31655e-19)
(0.560426 0.516481 -3.59485e-19)
(0.631499 0.522549 -3.71223e-19)
(0.688714 0.506632 2.1129e-19)
(0.734957 0.476601 5.41248e-21)
(0.773666 0.438603 -1.96337e-19)
(0.808069 0.396474 6.79412e-19)
(0.0839303 0.115012 1.58664e-19)
(0.219871 0.282698 -2.26933e-19)
(0.340416 0.398324 1.41779e-19)
(0.442935 0.469514 -9.39401e-20)
(0.528619 0.503212 -4.23067e-20)
(0.599384 0.507434 5.63154e-19)
(0.657527 0.490531 -4.66592e-19)
(0.705486 0.460286 1.39502e-19)
(0.746272 0.422735 1.91685e-19)
(0.782494 0.381768 -2.09336e-19)
(0.0763509 0.112896 -2.92342e-19)
(0.201438 0.276478 2.40147e-20)
(0.314992 0.388104 -5.73337e-20)
(0.413377 0.45585 -1.85482e-19)
(0.497211 0.486942 -3.51719e-19)
(0.567853 0.489532 -2.20342e-19)
(0.627063 0.471959 -6.06572e-20)
(0.676824 0.44185 7.31677e-21)
(0.719717 0.405101 -1.4471e-19)
(0.757834 0.36558 7.68028e-20)
(0.0687646 0.109876 -1.45632e-19)
(0.183104 0.268175 3.03806e-19)
(0.289842 0.37516 -2.86602e-20)
(0.384299 0.439219 2.72213e-20)
(0.466482 0.467747 2.1246e-19)
(0.53716 0.468929 1.49477e-19)
(0.597545 0.450996 4.38199e-19)
(0.649164 0.421366 2.49571e-19)
(0.694174 0.385744 -7.82217e-19)
(0.734229 0.347916 1.47681e-19)
(0.0612624 0.105963 2.38052e-19)
(0.165073 0.257826 -3.79486e-19)
(0.265228 0.359557 -5.40987e-20)
(0.355983 0.419706 2.21306e-19)
(0.436702 0.445725 1.33922e-19)
(0.507552 0.445722 6.71247e-19)
(0.569188 0.427737 -5.5374e-19)
(0.622691 0.39891 4.49332e-20)
(0.669806 0.364715 4.46327e-19)
(0.711813 0.328801 3.97069e-19)
(0.0539338 0.101177 4.23452e-20)
(0.147545 0.245491 4.64992e-19)
(0.241405 0.341383 2.16581e-19)
(0.328697 0.397421 -1.20035e-19)
(0.408132 0.420994 -2.18307e-19)
(0.479263 0.42003 -1.38454e-21)
(0.542197 0.402285 1.83255e-19)
(0.597579 0.374569 9.50533e-20)
(0.64676 0.342079 -2.32465e-19)
(0.690703 0.308275 -4.92553e-20)
(0.0468661 0.0955488 7.74994e-20)
(0.130714 0.231246 -4.5823e-19)
(0.218617 0.32075 -2.80921e-19)
(0.302701 0.372495 3.99779e-19)
(0.381017 0.393691 3.64454e-20)
(0.452514 0.391982 -5.01111e-19)
(0.516762 0.37476 3.16955e-19)
(0.573988 0.348441 -1.49569e-19)
(0.625171 0.317911 2.33271e-19)
(0.671003 0.2864 -1.04927e-19)
(0.040143 0.0891179 -4.72342e-20)
(0.114766 0.215188 2.72362e-19)
(0.197098 0.297792 -1.38787e-19)
(0.278238 0.34508 -1.59291e-19)
(0.35559 0.363973 2.43018e-19)
(0.427512 0.361727 3.21145e-20)
(0.493061 0.345291 1.89898e-20)
(0.552066 0.320638 1.34489e-19)
(0.60516 0.292299 -1.65366e-19)
(0.652805 0.263249 -3.73946e-19)
(0.0338442 0.0819318 -4.63965e-20)
(0.0998743 0.197433 -1.301e-19)
(0.177067 0.272663 4.85194e-19)
(0.255535 0.315348 -3.40014e-19)
(0.332065 0.332011 -2.31409e-19)
(0.404448 0.329425 -3.31333e-19)
(0.471255 0.314021 -2.50542e-19)
(0.531949 0.291279 -7.7364e-20)
(0.586836 0.265344 -1.69952e-19)
(0.636193 0.238909 1.98055e-19)
(0.0280439 0.0740465 -1.22206e-19)
(0.0862023 0.178111 -3.62546e-21)
(0.158724 0.245536 -1.4282e-19)
(0.234804 0.283491 -2.45002e-19)
(0.31064 0.297995 9.72028e-20)
(0.383496 0.295253 -7.38334e-20)
(0.451494 0.281106 -2.4038e-19)
(0.513756 0.260499 -1.561e-19)
(0.570299 0.237157 2.14471e-19)
(0.621239 0.21348 8.6092e-20)
(0.0228104 0.0655256 3.9867e-19)
(0.073898 0.157369 6.72299e-21)
(0.142254 0.216603 4.24899e-20)
(0.216233 0.249716 1.21804e-19)
(0.291493 0.262131 -8.08908e-20)
(0.364813 0.259398 4.22474e-19)
(0.43391 0.246712 4.87237e-19)
(0.497598 0.228438 3.09482e-19)
(0.555635 0.20786 -3.81129e-20)
(0.608009 0.187069 -4.25187e-20)
(0.0182052 0.0564393 -3.11322e-19)
(0.0630945 0.135366 -1.0273e-20)
(0.127821 0.186072 -5.61754e-20)
(0.199992 0.214248 2.44557e-19)
(0.274781 0.224636 -3.17092e-20)
(0.348538 0.222061 -7.1037e-20)
(0.418618 0.211015 -2.19106e-19)
(0.483569 0.19525 -1.29913e-19)
(0.542921 0.177583 7.31641e-20)
(0.596562 0.159791 -1.64362e-19)
(0.0142823 0.0468638 -1.07934e-19)
(0.0539084 0.112276 -1.1727e-20)
(0.115569 0.154163 -1.97336e-20)
(0.186228 0.177323 1.04968e-21)
(0.260641 0.18574 5.48009e-20)
(0.33479 0.183453 -2.04456e-19)
(0.405719 0.174201 1.45837e-19)
(0.471752 0.161094 -2.05069e-19)
(0.532225 0.146465 -8.83701e-20)
(0.586945 0.13177 9.3828e-20)
(0.0110875 0.0368808 3.47656e-20)
(0.0464385 0.0882807 -5.81538e-20)
(0.10562 0.12111 1.81336e-19)
(0.175066 0.139189 2.15116e-20)
(0.24919 0.145684 8.10166e-20)
(0.323669 0.143791 4.10155e-20)
(0.395298 0.136461 -1.64767e-19)
(0.462215 0.126137 1.56478e-19)
(0.5236 0.11465 1.28439e-19)
(0.579202 0.103134 -1.98321e-19)
(0.00865814 0.0265761 8.26577e-21)
(0.0407649 0.0635729 8.41499e-20)
(0.0980706 0.0871573 -4.03598e-20)
(0.166605 0.100106 -1.53903e-19)
(0.240519 0.104717 -1.26076e-19)
(0.315257 0.103303 2.0499e-20)
(0.387423 0.0979948 -1.06751e-20)
(0.455014 0.090551 9.76471e-20)
(0.517093 0.0822875 8.1046e-20)
(0.573364 0.074015 1.40689e-19)
(0.00702268 0.0160393 7.65184e-20)
(0.0369485 0.0383508 -4.10468e-20)
(0.0929962 0.0525555 8.08611e-20)
(0.160922 0.0603386 5.2554e-20)
(0.2347 0.0630939 4.05745e-20)
(0.309616 0.062221 -4.09898e-20)
(0.382145 0.0590067 2.1624e-20)
(0.45019 0.0545125 2.22619e-21)
(0.512735 0.0495308 -1.52301e-20)
(0.569458 0.0445486 -1.00087e-19)
(0.00620015 0.00536206 -9.07524e-21)
(0.03503 0.0128182 -1.0892e-20)
(0.0904465 0.0175621 -7.06879e-20)
(0.158068 0.0201588 -4.94033e-21)
(0.231778 0.0210753 3.44495e-20)
(0.306784 0.0207802 1.74038e-20)
(0.379497 0.019704 4.12427e-21)
(0.447771 0.0182012 -4.86293e-20)
(0.510551 0.0165367 2.76166e-20)
(0.567501 0.0148728 -3.07436e-20)
(0.00620015 -0.00536206 5.26649e-22)
(0.03503 -0.0128182 -2.95821e-20)
(0.0904465 -0.0175621 -6.2734e-20)
(0.158068 -0.0201588 1.96961e-21)
(0.231778 -0.0210753 3.16174e-20)
(0.306784 -0.0207803 5.7836e-21)
(0.379497 -0.019704 1.12888e-20)
(0.447771 -0.0182012 -4.09738e-20)
(0.510551 -0.0165367 2.85396e-20)
(0.567501 -0.0148728 -3.13469e-20)
(0.00702268 -0.0160393 5.50515e-20)
(0.0369485 -0.0383508 -2.82591e-20)
(0.0929962 -0.0525555 9.89163e-20)
(0.160922 -0.0603386 8.99605e-20)
(0.2347 -0.0630939 -1.98726e-20)
(0.309616 -0.062221 -1.53124e-20)
(0.382145 -0.0590068 2.14637e-20)
(0.45019 -0.0545125 -1.78426e-20)
(0.512735 -0.0495308 -3.60601e-20)
(0.569458 -0.0445486 -2.19174e-20)
(0.00865814 -0.0265761 5.19658e-20)
(0.0407649 -0.0635729 5.19428e-20)
(0.0980706 -0.0871573 -4.99323e-20)
(0.166605 -0.100106 -1.52044e-19)
(0.240519 -0.104717 -7.50036e-20)
(0.315257 -0.103303 -3.33707e-20)
(0.387423 -0.0979948 2.21411e-20)
(0.455014 -0.090551 8.62233e-20)
(0.517093 -0.0822875 -3.85099e-20)
(0.573364 -0.0740151 2.61222e-19)
(0.0110875 -0.0368808 -2.85429e-21)
(0.0464385 -0.0882807 -1.50944e-20)
(0.10562 -0.12111 9.54307e-20)
(0.175066 -0.139189 5.51759e-20)
(0.24919 -0.145684 7.00504e-20)
(0.323669 -0.143791 6.43009e-20)
(0.395298 -0.136461 -1.77154e-19)
(0.462215 -0.126137 1.20179e-19)
(0.5236 -0.11465 1.5698e-19)
(0.579202 -0.103134 -1.29304e-19)
(0.0142823 -0.0468638 -8.22568e-20)
(0.0539084 -0.112276 4.82333e-20)
(0.115569 -0.154163 7.41092e-21)
(0.186228 -0.177323 -7.93425e-21)
(0.260641 -0.18574 -6.67959e-20)
(0.33479 -0.183453 -1.2237e-19)
(0.405719 -0.174201 4.82029e-20)
(0.471752 -0.161094 -1.42294e-19)
(0.532225 -0.146465 -1.33944e-19)
(0.586945 -0.13177 8.35378e-20)
(0.0182052 -0.0564393 -2.19033e-19)
(0.0630945 -0.135366 1.27526e-20)
(0.127821 -0.186072 -1.17955e-19)
(0.199992 -0.214248 9.73913e-20)
(0.274781 -0.224636 2.08908e-19)
(0.348538 -0.222061 -1.29742e-19)
(0.418618 -0.211015 -2.95877e-19)
(0.483569 -0.19525 -5.66981e-20)
(0.542921 -0.177583 -1.72109e-20)
(0.596562 -0.159791 -8.68697e-20)
(0.0228104 -0.0655256 3.86896e-19)
(0.073898 -0.157369 -6.72953e-20)
(0.142254 -0.216603 4.27257e-20)
(0.216233 -0.249716 1.475e-19)
(0.291493 -0.262131 -9.58575e-21)
(0.364813 -0.259398 4.8395e-19)
(0.43391 -0.246712 4.46862e-19)
(0.497598 -0.228438 3.35037e-19)
(0.555635 -0.20786 -1.89065e-19)
(0.608009 -0.187069 2.00031e-20)
(0.0280439 -0.0740465 -2.38987e-19)
(0.0862023 -0.178111 2.04014e-19)
(0.158724 -0.245536 -1.15994e-19)
(0.234804 -0.283491 -2.59551e-19)