/*--------------------------------*- C++ -*----------------------------------*\
  =========                 |
  \\      /  F ield         | OpenFOAM: The Open Source CFD Toolbox
   \\    /   O peration     | Website:  https://openfoam.org
    \\  /    A nd           | Version:  7
     \\/     M anipulation  |
\*---------------------------------------------------------------------------*/
FoamFile
{
    version     2.0;
    format      ascii;
    class       surfaceScalarField;
    location    "40";
    object      phi;
}
// * * * * * * * * * * * * * * * * * * * * * * * * * * * * * * * * * * * * * //

dimensions      [0 3 -1 0 0 0 0];

internalField   nonuniform List<scalar> 
10040
(
-2.67939e-06
2.67939e-06
4.086e-13
-9.40931e-06
6.72992e-06
1.18656e-12
-1.9318e-05
9.90871e-06
1.83681e-12
-3.15608e-05
1.22428e-05
2.41017e-12
-4.53289e-05
1.37681e-05
2.95535e-12
-5.98733e-05
1.45444e-05
3.50494e-12
-7.45322e-05
1.46589e-05
4.07795e-12
-8.87695e-05
1.42373e-05
4.68405e-12
-0.000102225
1.34553e-05
5.32851e-12
-0.000114767
1.25417e-05
6.01584e-12
-0.000126502
1.17357e-05
6.75213e-12
1.13711e-05
7.54622e-12
-0.000137873
-2.63948e-06
5.31887e-06
-9.25356e-06
1.3344e-05
-1.89659e-05
1.9621e-05
-3.09246e-05
2.42014e-05
-4.43112e-05
2.71547e-05
-5.83637e-05
2.85969e-05
-7.2404e-05
2.86992e-05
-8.58766e-05
2.77099e-05
-9.83997e-05
2.59784e-05
-0.000109821
2.39635e-05
-0.000120235
2.21491e-05
2.1205e-05
-0.000130069
-2.56015e-06
7.87902e-06
-8.94376e-06
1.97276e-05
-1.82651e-05
2.89424e-05
-2.96582e-05
3.55945e-05
-4.2285e-05
3.97816e-05
-5.53579e-05
4.16698e-05
-6.81664e-05
4.15076e-05
-8.0116e-05
3.96596e-05
-9.07819e-05
3.66442e-05
-9.99713e-05
3.31529e-05
-0.000107748
2.9926e-05
2.79721e-05
-0.000114515
-2.4424e-06
1.03214e-05
-8.48321e-06
2.57684e-05
-1.72226e-05
3.76817e-05
-2.77733e-05
4.61452e-05
-3.92685e-05
5.12768e-05
-5.08825e-05
5.32838e-05
-6.18562e-05
5.24814e-05
-7.15371e-05
4.93404e-05
-7.94348e-05
4.4542e-05
-8.5295e-05
3.90131e-05
-8.91368e-05
3.37678e-05
3.01577e-05
-9.13224e-05
-2.28762e-06
1.2609e-05
-7.87658e-06
3.13574e-05
-1.58479e-05
4.56531e-05
-2.52865e-05
5.55838e-05
-3.52875e-05
6.12778e-05
-4.49751e-05
6.29713e-05
-5.35264e-05
6.10327e-05
-6.02108e-05
5.60248e-05
-6.44504e-05
4.87816e-05
-6.59068e-05
4.04694e-05
-6.45441e-05
3.24051e-05
2.62673e-05
-6.06536e-05
-2.09749e-06
1.47065e-05
-7.12954e-06
3.63894e-05
-1.4153e-05
5.26766e-05
-2.22182e-05
6.36491e-05
-3.03739e-05
6.94334e-05
-3.76828e-05
7.02802e-05
-4.32433e-05
6.65933e-05
-4.62274e-05
5.90089e-05
-4.59452e-05
4.84993e-05
-4.19449e-05
3.64692e-05
-3.4162e-05
2.46222e-05
1.49104e-05
-2.28051e-05
-1.87385e-06
1.65804e-05
-6.24835e-06
4.07639e-05
-1.21509e-05
5.85791e-05
-1.85911e-05
7.00893e-05
-2.45633e-05
7.54056e-05
-2.90588e-05
7.47757e-05
-3.10833e-05
6.86178e-05
-2.96929e-05
5.76185e-05
-2.40614e-05
4.28678e-05
-1.35698e-05
2.59775e-05
2.18352e-06
8.86896e-06
-4.9829e-06
2.20768e-05
-1.61858e-06
1.8199e-05
-5.23937e-06
4.43847e-05
-9.85505e-06
6.31948e-05
-1.44287e-05
7.4663e-05
-1.78934e-05
7.88703e-05
-1.91598e-05
7.60421e-05
-1.71289e-05
6.65869e-05
-1.07235e-05
5.12131e-05
1.04212e-06
3.11022e-05
1.89321e-05
8.0875e-06
4.32706e-05
-1.54695e-05
-3.55956e-05
7.38833e-05
-1.3334e-06
1.95324e-05
-4.10862e-06
4.71599e-05
-7.27829e-06
6.63645e-05
-9.7537e-06
7.71384e-05
-1.04005e-05
7.95171e-05
-8.04156e-06
7.36831e-05
-1.46252e-06
6.00079e-05
1.05625e-05
3.91881e-05
2.92037e-05
1.2461e-05
5.54273e-05
-1.81361e-05
8.97743e-05
-4.98165e-05
-7.78451e-05
0.000132024
-1.01978e-06
2.05521e-05
-2.86129e-06
4.90015e-05
-4.43188e-06
6.79351e-05
-4.5863e-06
7.72928e-05
-2.118e-06
7.70488e-05
4.24392e-06
6.73212e-05
1.58367e-05
4.8415e-05
3.40485e-05
2.09763e-05
6.02573e-05
-1.37478e-05
9.56737e-05
-5.35526e-05
0.00014107
-9.52128e-05
-0.000133048
0.000196273
-6.78741e-07
2.12309e-05
-1.50149e-06
4.98242e-05
-1.32474e-06
6.77583e-05
1.05695e-06
7.49111e-05
6.9265e-06
7.11792e-05
1.76522e-05
5.65954e-05
3.46992e-05
3.13681e-05
5.96261e-05
-3.9506e-06
9.40383e-05
-4.81599e-05
0.000139429
-9.89437e-05
0.000196859
-0.000152643
-0.000202459
0.00026627
-3.10867e-07
2.15417e-05
-2.96919e-08
4.9543e-05
2.03687e-06
6.56917e-05
7.16398e-06
6.9784e-05
1.67124e-05
6.16308e-05
3.21492e-05
4.11586e-05
5.50682e-05
8.44914e-06
8.72018e-05
-3.60842e-05
0.000130395
-9.13534e-05
0.000186463
-0.000155011
0.000256825
-0.000223005
-0.000287257
0.000341623
8.36448e-08
2.14581e-05
1.54708e-06
4.80796e-05
5.64882e-06
6.159e-05
1.37276e-05
6.17053e-05
2.72266e-05
4.81318e-05
4.77125e-05
2.06727e-05
7.69045e-05
-2.07429e-05
0.000116705
-7.58843e-05
0.0001692
-0.000143849
0.000236556
-0.000222367
0.00032064
-0.000307088
-0.000388551
0.000421933
5.04658e-07
2.09534e-05
3.23453e-06
4.53497e-05
9.51039e-06
5.53141e-05
2.07443e-05
5.04714e-05
3.84631e-05
3.0413e-05
6.43314e-05
-5.19563e-06
0.000100188
-5.65992e-05
0.00014809
-0.000123787
0.000210358
-0.000206117
0.00028952
-0.000301529
0.00038798
-0.000405548
-0.000507331
0.00050676
9.53276e-07
2.00002e-05
5.03086e-06
4.12721e-05
1.36211e-05
4.67239e-05
2.82129e-05
3.58796e-05
5.04199e-05
8.20603e-06
8.20041e-05
-3.67799e-05
0.000124915
-9.95096e-05
0.000181345
-0.000180217
0.000253814
-0.000278586
0.000345204
-0.000392919
0.000458534
-0.000518879
-0.000644429
0.000595632
1.42972e-06
1.85705e-05
6.93642e-06
3.57654e-05
1.79801e-05
3.56802e-05
3.61312e-05
1.77285e-05
6.3095e-05
-1.87577e-05
0.000100732
-7.44168e-05
0.000151093
-0.000149871
0.000216482
-0.000245606
0.000299565
-0.000361668
0.000403522
-0.000496877
0.000532028
-0.000647384
-0.00080045
0.000688049
1.93417e-06
1.66363e-05
8.95021e-06
2.87494e-05
2.25834e-05
2.2047e-05
4.44919e-05
-4.18004e-06
7.6479e-05
-5.07447e-05
0.000120509
-0.000118446
0.000178731
-0.000208093
0.000253532
-0.000320408
0.00034766
-0.000455796
0.000464484
-0.000613701
0.000608274
-0.000791174
-0.000975671
0.000783494
2.46619e-06
1.41701e-05
1.10688e-05
2.01468e-05
2.74219e-05
5.6939e-06
5.32776e-05
-3.00358e-05
9.05467e-05
-8.80138e-05
0.000141307
-0.000169207
0.000207813
-0.000274599
0.000292522
-0.000405116
0.00039819
-0.000561464
0.000528219
-0.00074373
0.000687253
-0.000950207
-0.0011699
0.000881479
3.0244e-06
1.11457e-05
1.32855e-05
9.88567e-06
3.24784e-05
-1.3499e-05
6.24559e-05
-6.00133e-05
0.000105247
-0.000130805
0.00016306
-0.00022702
0.000238275
-0.000349815
0.000333429
-0.000500269
0.000451249
-0.000679284
0.000594981
-0.000887463
0.000769206
-0.00112443
-0.00138238
0.000981689
3.60629e-06
7.5394e-06
1.55892e-05
-2.09726e-06
3.7726e-05
-3.56358e-05
7.1975e-05
-9.42622e-05
0.000120494
-0.000179324
0.000185642
-0.000292168
0.000269963
-0.000434135
0.000376128
-0.000606435
0.000506878
-0.000810034
0.000665157
-0.00104574
0.000854703
-0.00131398
-0.00161215
0.00108447
4.20816e-06
3.33124e-06
1.79647e-05
-1.58538e-05
4.31275e-05
-6.07985e-05
8.17611e-05
-0.000132896
0.000136159
-0.000233722
0.000208849
-0.000364858
0.000302588
-0.000527874
0.000420303
-0.000724151
0.000564987
-0.000954717
0.000739486
-0.00122024
0.000945379
-0.00151987
-0.0018582
0.00119143
4.82528e-06
-1.49404e-06
2.0393e-05
-3.14215e-05
4.86361e-05
-8.90416e-05
9.17202e-05
-0.00017598
0.000152069
-0.00029407
0.000232385
-0.000445174
0.000335672
-0.000631161
0.000465263
-0.000853742
0.000624887
-0.00111434
0.000818673
-0.00141403
0.00104784
-0.00174904
-0.00211347
0.00130312
5.45244e-06
-6.94648e-06
2.28529e-05
-4.8822e-05
5.41996e-05
-0.000120388
0.000101745
-0.000223525
0.000168021
-0.000360347
0.000255877
-0.00053303
0.000368533
-0.000743817
0.000509732
-0.000994941
0.000684112
-0.00128872
0.000898334
-0.00162825
0.00116745
-0.00201816
-0.00249174
0.00154573
6.08416e-06
-1.30306e-05
2.53224e-05
-6.80602e-05
5.97634e-05
-0.000154829
0.000111722
-0.000275484
0.000183802
-0.000432427
0.000278928
-0.000628155
0.00040041
-0.000865299
0.000552114
-0.00114664
0.000738848
-0.00147545
0.000967298
-0.0018567
0.00124894
-0.0022998
-0.00283546
0.00159266
6.7157e-06
-1.97463e-05
2.77816e-05
-8.91261e-05
6.52785e-05
-0.000192326
0.000121553
-0.000331758
0.000199227
-0.000510101
0.000301211
-0.000730139
0.000430738
-0.000994826
0.000591447
-0.00130735
0.000787534
-0.00167154
0.00102388
-0.00209304
0.00130593
-0.00258186
-0.00316089
0.00163137
7.34321e-06
-2.70895e-05
3.0214e-05
-0.000111997
7.0703e-05
-0.000232815
0.000131153
-0.000392209
0.00021415
-0.000593098
0.000322501
-0.00083849
0.00045921
-0.00113153
0.00062744
-0.00147558
0.000830413
-0.00187451
0.00107096
-0.0023336
0.00135032
-0.00286122
-0.0034729
0.00166232
7.96386e-06
-3.50534e-05
3.26061e-05
-0.000136639
7.60037e-05
-0.000276213
0.00014046
-0.000456665
0.000228469
-0.000681107
0.000342657
-0.000952678
0.00048569
-0.00127457
0.000660127
-0.00165002
0.00086813
-0.00208252
0.00111078
-0.00257625
0.00138667
-0.00313711
-0.00377439
0.00168816
8.57561e-06
3.49476e-05
-0.000163011
8.1154e-05
-0.000322419
0.000149423
-0.000524934
0.000242109
-0.000773793
0.000361592
-0.00107216
0.000510129
-0.0014231
0.000689619
-0.00182951
0.000901213
-0.00229411
0.00114458
-0.00281961
0.00141668
-0.00340921
-0.00406717
0.00170946
3.72296e-05
8.61315e-05
-0.000371321
0.000158001
-0.000596804
0.000255009
-0.0008708
0.000379239
-0.00119639
0.000532492
-0.00157636
0.000715998
-0.00201302
0.000929984
-0.0025081
0.001173
-0.00306263
0.00144095
-0.00367716
-0.00435196
0.00172574
9.09145e-05
0.000166154
0.00026711
-0.000971756
0.00039553
-0.00132481
0.00055273
-0.00173356
0.000739276
-0.00219956
0.000954561
-0.00272338
0.00119623
-0.0033043
0.00145949
-0.00394041
-0.00462873
0.00173627
0.000278349
0.000410385
-0.00145685
0.000570757
-0.00189393
0.000759383
-0.00238819
0.000974901
-0.0029389
0.00121421
-0.00354361
0.00147199
-0.00419819
-0.004897
0.00174026
0.0004237
0.00058645
-0.00205668
0.000776185
-0.00257792
0.000990849
-0.00315357
0.00122671
-0.00377947
0.00147806
-0.00444955
-0.00515597
0.00173703
0.00059966
0.000789502
0.00100219
-0.00336625
0.00123345
-0.00401073
0.00147729
-0.00469339
-0.00540467
0.00172598
0.00100869
0.00123414
-0.00423619
0.00146933
-0.00492857
-0.00564205
0.00170671
0.00122856
0.00145392
-0.00586708
0.00167896
0.00164265
0.00586708
0.00164265
0.00122856
0.00423619
0.00145392
0.00492857
0.00564205
0.00167896
0.00100869
0.00336625
0.00123414
0.00401073
0.00146933
0.00469339
0.00540467
0.00170671
0.00059966
0.00205668
0.000789502
0.00257792
0.00100219
0.00315357
0.00123345
0.00377947
0.00147729
0.00444955
0.00515597
0.00172598
0.0004237
0.00145685
0.00058645
0.00189393
0.000776185
0.00238819
0.000990849
0.0029389
0.00122671
0.00354361
0.00147806
0.00419819
0.004897
0.00173703
0.000173839
0.000672043
0.000278349
0.000971756
0.000410385
0.00132481
0.000570757
0.00173356
0.000759383
0.00219956
0.000974901
0.00272338
0.00121421
0.0033043
0.00147199
0.00394041
0.00462873
0.00174026
9.09145e-05
0.000371321
0.000166154
0.000596804
0.00026711
0.0008708
0.00039553
0.00119639
0.00055273
0.00157636
0.000739276
0.00201302
0.000954561
0.0025081
0.00119623
0.00306263
0.00145949
0.00367716
0.00435196
0.00173627
3.72296e-05
0.000163011
8.61315e-05
0.000322419
0.000158001
0.000524934
0.000255009
0.000773793
0.000379239
0.00107216
0.000532492
0.0014231
0.000715998
0.00182951
0.000929984
0.00229411
0.001173
0.00281961
0.00144095
0.00340921
0.00406717
0.00172574
8.57561e-06
3.50534e-05
3.49476e-05
0.000136639
8.1154e-05
0.000276213
0.000149423
0.000456665
0.000242109
0.000681107
0.000361592
0.000952678
0.000510129
0.00127457
0.000689619
0.00165002
0.000901213
0.00208252
0.00114458
0.00257625
0.00141668
0.00313711
0.00377439
0.00170946
7.96386e-06
2.70895e-05
3.26061e-05
0.000111997
7.60037e-05
0.000232815
0.00014046
0.000392209
0.000228469
0.000593098
0.000342657
0.00083849
0.00048569
0.00113153
0.000660127
0.00147558
0.00086813
0.00187451
0.00111078
0.0023336
0.00138667
0.00286122
0.0034729
0.00168816
7.34321e-06
1.97463e-05
3.0214e-05
8.91261e-05
7.0703e-05
0.000192326
0.000131153
0.000331758
0.00021415
0.000510101
0.000322501
0.000730139
0.00045921
0.000994826
0.00062744
0.00130735
0.000830413
0.00167154
0.00107096
0.00209304
0.00135032
0.00258186
0.00316089
0.00166232
6.7157e-06
1.30306e-05
2.77816e-05
6.80602e-05
6.52785e-05
0.000154829
0.000121553
0.000275484
0.000199227
0.000432427
0.000301211
0.000628155
0.000430738
0.000865299
0.000591447
0.00114664
0.000787534
0.00147545
0.00102388
0.0018567
0.00130593
0.0022998
0.00283546
0.00163137
6.08416e-06
6.94648e-06
2.53224e-05
4.8822e-05
5.97634e-05
0.000120388
0.000111722
0.000223525
0.000183802
0.000360347
0.000278928
0.00053303
0.00040041
0.000743817
0.000552114
0.000994941
0.000738848
0.00128872
0.000967298
0.00162825
0.00124894
0.00201816
0.00249174
0.00159266
5.45244e-06
1.49404e-06
2.28529e-05
3.14215e-05
5.41996e-05
8.90416e-05
0.000101745
0.00017598
0.000168021
0.00029407
0.000255877
0.000445174
0.000368533
0.000631161
0.000509732
0.000853742
0.000684112
0.00111434
0.000898334
0.00141403
0.00116745
0.00174904
0.00211347
0.00154573
4.82528e-06
-3.33124e-06
2.0393e-05
1.58538e-05
4.86361e-05
6.07985e-05
9.17202e-05
0.000132896
0.000152069
0.000233721
0.000232385
0.000364858
0.000335672
0.000527874
0.000465263
0.000724151
0.000624887
0.000954717
0.000818673
0.00122024
0.00104784
0.00151987
0.0018582
0.00130312
4.20816e-06
-7.5394e-06
1.79647e-05
2.09726e-06
4.31275e-05
3.56358e-05
8.17611e-05
9.42622e-05
0.000136159
0.000179324
0.000208849
0.000292168
0.000302588
0.000434135
0.000420303
0.000606435
0.000564987
0.000810034
0.000739486
0.00104574
0.000945379
0.00131398
0.00161215
0.00119143
3.60629e-06
-1.11457e-05
1.55892e-05
-9.88567e-06
3.7726e-05
1.3499e-05
7.1975e-05
6.00133e-05
0.000120494
0.000130805
0.000185642
0.00022702
0.000269963
0.000349815
0.000376128
0.000500269
0.000506878
0.000679284
0.000665157
0.000887463
0.000854703
0.00112443
0.00138238
0.00108447
3.0244e-06
-1.41701e-05
1.32855e-05
-2.01468e-05
3.24784e-05
-5.69391e-06
6.24559e-05
3.00358e-05
0.000105247
8.80138e-05
0.00016306
0.000169207
0.000238275
0.000274599
0.000333429
0.000405116
0.000451249
0.000561464
0.000594981
0.00074373
0.000769206
0.000950207
0.0011699
0.000981689
2.46619e-06
-1.66363e-05
1.10688e-05
-2.87494e-05
2.74219e-05
-2.2047e-05
5.32776e-05
4.18003e-06
9.05467e-05
5.07447e-05
0.000141307
0.000118446
0.000207813
0.000208093
0.000292522
0.000320408
0.00039819
0.000455796
0.000528219
0.000613701
0.000687253
0.000791174
0.000975671
0.000881479
1.93417e-06
-1.85705e-05
8.95021e-06
-3.57654e-05
2.25834e-05
-3.56802e-05
4.44919e-05
-1.77285e-05
7.6479e-05
1.87577e-05
0.000120509
7.44168e-05
0.000178731
0.000149871
0.000253532
0.000245606
0.00034766
0.000361668
0.000464484
0.000496876
0.000608274
0.000647384
0.00080045
0.000783494
1.42972e-06
-2.00002e-05
6.93642e-06
-4.12721e-05
1.79801e-05
-4.67239e-05
3.61312e-05
-3.58796e-05
6.3095e-05
-8.20604e-06
0.000100732
3.67799e-05
0.000151093
9.95096e-05
0.000216482
0.000180217
0.000299565
0.000278585
0.000403522
0.000392919
0.000532028
0.000518879
0.000644429
0.000688049
9.53276e-07
-2.09534e-05
5.03086e-06
-4.53497e-05
1.36211e-05
-5.53141e-05
2.82129e-05
-5.04714e-05
5.04199e-05
-3.0413e-05
8.20041e-05
5.19562e-06
0.000124915
5.65992e-05
0.000181345
0.000123787
0.000253814
0.000206117
0.000345204
0.000301529
0.000458534
0.000405548
0.000507331
0.000595632
5.04658e-07
-2.14581e-05
3.23453e-06
-4.80796e-05
9.51039e-06
-6.159e-05
2.07443e-05
-6.17053e-05
3.84631e-05
-4.81318e-05
6.43314e-05
-2.06727e-05
0.000100188
2.07429e-05
0.00014809
7.58843e-05
0.000210358
0.000143849
0.00028952
0.000222367
0.00038798
0.000307088
0.000388551
0.00050676
8.36448e-08
-2.15417e-05
1.54708e-06
-4.9543e-05
5.64882e-06
-6.56918e-05
1.37276e-05
-6.9784e-05
2.72266e-05
-6.16308e-05
4.77125e-05
-4.11586e-05
7.69045e-05
-8.44915e-06
0.000116705
3.60842e-05
0.0001692
9.13534e-05
0.000236556
0.000155011
0.00032064
0.000223005
0.000287257
0.000421933
-3.10867e-07
-2.12309e-05
-2.9692e-08
-4.98242e-05
2.03687e-06
-6.77583e-05
7.16398e-06
-7.49111e-05
1.67124e-05
-7.11792e-05
3.21492e-05
-5.65954e-05
5.50682e-05
-3.13681e-05
8.72018e-05
3.95059e-06
0.000130395
4.81599e-05
0.000186463
9.89437e-05
0.000256825
0.000152643
0.000202459
0.000341623
-6.78741e-07
-2.05521e-05
-1.50149e-06
-4.90015e-05
-1.32474e-06
-6.79351e-05
1.05695e-06
-7.72928e-05
6.9265e-06
-7.70488e-05
1.76522e-05
-6.73212e-05
3.46992e-05
-4.8415e-05
5.96261e-05
-2.09763e-05
9.40383e-05
1.37478e-05
0.000139429
5.35526e-05
0.000196859
9.52128e-05
0.000133048
0.00026627
-1.01978e-06
-1.95324e-05
-2.86129e-06
-4.71599e-05
-4.43188e-06
-6.63645e-05
-4.5863e-06
-7.71384e-05
-2.118e-06
-7.95171e-05
4.24392e-06
-7.36831e-05
1.58367e-05
-6.00079e-05
3.40485e-05
-3.91881e-05
6.02573e-05
-1.2461e-05
9.56737e-05
1.81361e-05
0.00014107
4.98165e-05
7.78451e-05
0.000196273
-1.3334e-06
-1.8199e-05
-4.10862e-06
-4.43847e-05
-7.27829e-06
-6.31948e-05
-9.7537e-06
-7.4663e-05
-1.04005e-05
-7.88703e-05
-8.04156e-06
-7.60421e-05
-1.46252e-06
-6.65869e-05
1.05625e-05
-5.12131e-05
2.92037e-05
-3.11022e-05
5.54273e-05
-8.08751e-06
8.97743e-05
1.54695e-05
3.55956e-05
0.000132024
-1.61858e-06
-1.65804e-05
-5.23937e-06
-4.07639e-05
-9.85505e-06
-5.85791e-05
-1.44287e-05
-7.00893e-05
-1.78934e-05
-7.54056e-05
-1.91598e-05
-7.47757e-05
-1.71289e-05
-6.86178e-05
-1.07235e-05
-5.76185e-05
1.04212e-06
-4.28679e-05
1.89321e-05
-2.59775e-05
4.32706e-05
-8.86897e-06
4.98289e-06
7.38833e-05
-1.87385e-06
-1.47065e-05
-6.24835e-06
-3.63894e-05
-1.21509e-05
-5.26766e-05
-1.85911e-05
-6.36491e-05
-2.45633e-05
-6.94334e-05
-2.90588e-05
-7.02802e-05
-3.10833e-05
-6.65933e-05
-2.96929e-05
-5.90089e-05
-2.40614e-05
-4.84993e-05
-1.35698e-05
-3.64692e-05
2.18352e-06
-2.46223e-05
-1.49104e-05
2.20768e-05
-2.09749e-06
-1.2609e-05
-7.12954e-06
-3.13574e-05
-1.4153e-05
-4.56531e-05
-2.22182e-05
-5.55838e-05
-3.03739e-05
-6.12778e-05
-3.76828e-05
-6.29713e-05
-4.32433e-05
-6.10328e-05
-4.62274e-05
-5.60248e-05
-4.59452e-05
-4.87816e-05
-4.19449e-05
-4.04695e-05
-3.4162e-05
-3.24051e-05
-2.62673e-05
-2.28051e-05
-2.28762e-06
-1.03214e-05
-7.87658e-06
-2.57684e-05
-1.58479e-05
-3.76817e-05
-2.52865e-05
-4.61452e-05
-3.52875e-05
-5.12768e-05
-4.49751e-05
-5.32838e-05
-5.35264e-05
-5.24814e-05
-6.02108e-05
-4.93404e-05
-6.44504e-05
-4.4542e-05
-6.59068e-05
-3.90131e-05
-6.45441e-05
-3.37678e-05
-3.01577e-05
-6.06536e-05
-2.4424e-06
-7.87902e-06
-8.48321e-06
-1.97276e-05
-1.72226e-05
-2.89424e-05
-2.77733e-05
-3.55945e-05
-3.92685e-05
-3.97816e-05
-5.08825e-05
-4.16698e-05
-6.18562e-05
-4.15076e-05
-7.15371e-05
-3.96596e-05
-7.94348e-05
-3.66442e-05
-8.5295e-05
-3.3153e-05
-8.91368e-05
-2.9926e-05
-2.79721e-05
-9.13224e-05
-2.56015e-06
-5.31887e-06
-8.94376e-06
-1.3344e-05
-1.82651e-05
-1.9621e-05
-2.96582e-05
-2.42014e-05
-4.2285e-05
-2.71547e-05
-5.53579e-05
-2.85969e-05
-6.81664e-05
-2.86992e-05
-8.0116e-05
-2.77099e-05
-9.07819e-05
-2.59784e-05
-9.99713e-05
-2.39635e-05
-0.000107748
-2.21491e-05
-2.1205e-05
-0.000114515
-2.63948e-06
-2.67939e-06
-9.25356e-06
-6.72992e-06
-1.89659e-05
-9.90871e-06
-3.09246e-05
-1.22428e-05
-4.43112e-05
-1.37681e-05
-5.83637e-05
-1.45444e-05
-7.2404e-05
-1.46589e-05
-8.58766e-05
-1.42373e-05
-9.83997e-05
-1.34553e-05
-0.000109821
-1.25418e-05
-0.000120235
-1.17357e-05
-1.13711e-05
-0.000130069
-2.67939e-06
-9.40931e-06
-1.9318e-05
-3.15608e-05
-4.53289e-05
-5.98733e-05
-7.45322e-05
-8.87695e-05
-0.000102225
-0.000114767
-0.000126502
-0.000137873
-0.000142363
4.48979e-06
9.82291e-12
-0.00014197
-3.93174e-07
1.00368e-11
-0.000135744
-6.22613e-06
1.15677e-11
-0.000122515
-1.32292e-05
1.25385e-11
-0.000101732
-2.07826e-05
1.33542e-11
-7.33034e-05
-2.84287e-05
1.40133e-11
-3.74523e-05
-3.58511e-05
1.44226e-11
5.3608e-06
-4.28131e-05
1.44839e-11
5.45327e-05
-4.9172e-05
1.40994e-11
0.000109386
-5.48535e-05
1.31769e-11
0.00016922
-5.98338e-05
1.16394e-11
0.000233342
-6.41215e-05
9.43194e-12
0.000301085
-6.77439e-05
6.53199e-12
0.000371822
-7.07369e-05
2.96015e-12
0.000444962
-7.31401e-05
-1.21062e-12
0.000519954
-7.4992e-05
-5.85499e-12
0.000596285
-7.63306e-05
-1.07753e-11
0.000673474
-7.71888e-05
-1.57051e-11
0.000751077
-7.76033e-05
-2.03388e-11
0.000828672
-7.7595e-05
-2.43248e-11
0.000905886
-7.72142e-05
-2.73064e-11
0.000982329
-7.64426e-05
-2.8948e-11
0.00105773
-7.54058e-05
-2.90457e-11
0.00113166
-7.39274e-05
-2.74548e-11
0.00120411
-7.2449e-05
-2.44043e-11
0.00127428
-7.01715e-05
-2.0141e-11
0.00134303
-6.87483e-05
-1.56694e-11
0.0014081
-6.50687e-05
-1.13473e-11
0.0014732
-6.51028e-05
-9.54953e-12
0.0015311
-5.78972e-05
-8.85721e-12
0.00159389
-6.27917e-05
-1.49774e-11
-4.84883e-05
-2.08868e-11
-0.000134281
8.70192e-06
-0.000133584
-1.08964e-06
-0.000127074
-1.27365e-05
-0.000113611
-2.66922e-05
-9.26587e-05
-4.17348e-05
-6.41358e-05
-5.69516e-05
-2.82704e-05
-7.17165e-05
1.44789e-05
-8.55625e-05
6.35158e-05
-9.82089e-05
0.000118173
-0.00010951
0.00017776
-0.000119421
0.000241595
-0.000127957
0.000309023
-0.000135172
0.000379425
-0.000141138
0.000452217
-0.000145932
0.000526855
-0.00014963
0.000602831
-0.000152307
0.000679669
-0.000154027
0.000756929
-0.000154863
0.000834191
-0.000154857
0.000911085
-0.000154108
0.000987222
-0.00015258
0.00106234
-0.000150523
0.001136
-0.000147584
0.00120819
-0.000144647
0.00127813
-0.000140112
0.00134667
-0.000137288
0.00141156
-0.000129952
0.0014765
-0.000130042
0.00153426
-0.000115664
0.00159693
-0.00012546
-9.69435e-05
-0.000118182
1.23685e-05
-0.000116881
-2.3907e-06
-0.00010981
-1.98072e-05
-9.58851e-05
-4.06171e-05
-7.45989e-05
-6.30211e-05
-4.58929e-05
-8.56576e-05
-1.00036e-05
-0.000107606
3.26141e-05
-0.00012818
8.13782e-05
-0.000146973
0.000135641
-0.000163773
0.000194734
-0.000178514
0.000257997
-0.000191221
0.000324798
-0.000201972
0.000394531
-0.000210872
0.000466631
-0.000218032
0.000540566
-0.000223565
0.000615838
-0.000227578
0.000691979
-0.000230168
0.000768557
-0.000231441
0.000845158
-0.000231458
0.000921417
-0.000230367
0.000996948
-0.000228111
0.00107149
-0.000225068
0.00114461
-0.000220705
0.00121632
-0.000216348
0.0012858
-0.000209597
0.00135393
-0.000205415
0.00141844
-0.000194469
0.00148306
-0.000194658
0.00154057
-0.000173173
0.00160299
-0.000187885
-0.000145335
-9.41892e-05
1.52353e-05
-9.19956e-05
-4.58423e-06
-8.41014e-05
-2.77014e-05
-6.9498e-05
-5.52205e-05
-4.77247e-05
-8.47944e-05
-1.87574e-05
-0.000114625
1.71552e-05
-0.000143518
5.95657e-05
-0.000170591
0.000107913
-0.000195321
0.00016158
-0.00021744
0.000219932
-0.000236865
0.000282342
-0.000253631
0.000348205
-0.000267835
0.000416945
-0.000279612
0.000488017
-0.000289104
0.000560907
-0.000296455
0.000635134
-0.000301805
0.000710244
-0.000305277
0.000785812
-0.00030701
0.000861435
-0.00030708
0.000936755
-0.000305687
0.00101139
-0.000302748
0.00108509
-0.000298769
0.00115742
-0.000293034
0.00122839
-0.000287317
0.0012972
-0.00027841
0.00136472
-0.000272935
0.0014287
-0.000258448
0.00149285
-0.000258801
0.00154998
-0.000230305
0.00161205
-0.000249954
-0.000193638
-6.2478e-05
1.70596e-05
-5.91289e-05
-7.9334e-06
-5.01675e-05
-3.66628e-05
-3.46864e-05
-7.07015e-05
-1.22897e-05
-0.000107191
1.70001e-05
-0.000143915
5.29206e-05
-0.000179439
9.50362e-05
-0.000212706
0.000142816
-0.0002431
0.000195682
-0.000270307
0.000253046
-0.000294229
0.000314322
-0.000314907
0.000378946
-0.000332459
0.000446375
-0.000347041
0.000516094
-0.000358823
0.000587612
-0.000367974
0.000660469
-0.000374662
0.000734226
-0.000379034
0.000808474
-0.000381258
0.000882818
-0.000381425
0.000956911
-0.000379779
0.00103038
-0.000376217
0.00110298
-0.000371368
0.00117428
-0.000364333
0.00124429
-0.000357333
0.00131223
-0.00034635
0.00137897
-0.000339667
0.00144225
-0.000321731
0.00150578
-0.000322331
0.00156243
-0.000286954
0.00162404
-0.000311568
-0.000241834
-2.31859e-05
1.74404e-05
-1.85361e-05
-1.25832e-05
-8.28695e-06
-4.6912e-05
8.24413e-06
-8.72326e-05
3.13736e-05
-0.000130321
6.10253e-05
-0.000173567
9.69188e-05
-0.000215332
0.000138635
-0.000254423
0.000185684
-0.000290149
0.00023754
-0.000322162
0.000293667
-0.000350356
0.000353535
-0.000374775
0.000416627
-0.000395551
0.000482441
-0.000412855
0.000550497
-0.000426879
0.000620334
-0.000437811
0.000691513
-0.000445842
0.000763617
-0.000451138
0.000836252
-0.000453893
0.000909037
-0.00045421
0.000981636
-0.000452378
0.00105369
-0.000448266
0.00112495
-0.000442629
0.001195
-0.000434382
0.00126386
-0.000426194
0.00133074
-0.000413234
0.00139652
-0.000405449
0.00145897
-0.000384175
0.00152176
-0.000385128
0.00157784
-0.000343028
0.00163891
-0.000372638
-0.000289917
2.32907e-05
1.62264e-05
2.94589e-05
-1.87514e-05
4.11758e-05
-5.86288e-05
5.89128e-05
-0.00010497
8.28637e-05
-0.000154271
0.000112888
-0.000203591
0.000148692
-0.000251137
0.000189885
-0.000295616
0.000236026
-0.00033629
0.000286654
-0.000372789
0.000341298
-0.000405
0.00039949
-0.000432968
0.000460768
-0.000456829
0.000524678
-0.000476765
0.00059078
-0.00049298
0.000658645
-0.000505676
0.000727863
-0.00051506
0.000798038
-0.000521312
0.000868795
-0.00052465
0.000939767
-0.000525182
0.00101063
-0.000523242
0.00108103
-0.000518668
0.00115074
-0.000512341
0.00121935
-0.000502986
0.00128688
-0.000493724
0.00135255
-0.000478903
0.00141724
-0.000470139
0.00147872
-0.000445661
0.00154068
-0.000447087
0.00159611
-0.000398454
0.00165657
-0.000433098
-0.000337893
7.64296e-05
1.36802e-05
8.44786e-05
-2.68004e-05
9.78456e-05
-7.19959e-05
0.000116899
-0.000124023
0.000141714
-0.000179087
0.000172084
-0.00023396
0.000207706
-0.00028676
0.000248226
-0.000336136
0.000293267
-0.000381331
0.000342442
-0.000421964
0.000395356
-0.000457915
0.000451612
-0.000489223
0.000510808
-0.000516025
0.000572543
-0.000538501
0.000636422
-0.000556859
0.000702052
-0.000571306
0.000769052
-0.00058206
0.000837049
-0.00058931
0.00090569
-0.000593291
0.000974624
-0.000594116
0.00104354
-0.000592159
0.0011121
-0.000587225
0.00118008
-0.000580322
0.00124707
-0.000569979
0.00131312
-0.000559771
0.00137744
-0.000543224
0.00144092
-0.000533622
0.00150136
-0.000506093
0.0015624
-0.00050813
0.00161712
-0.000453181
0.00167693
-0.000492899
-0.00038578
0.000136219
9.48482e-06
0.000146158
-3.67395e-05
0.000161283
-8.71206e-05
0.000181721
-0.00014446
0.000207401
-0.000204767
0.000238045
-0.000264604
0.000273353
-0.000322068
0.000313022
-0.000375805
0.000356752
-0.000425061
0.000404242
-0.000469454
0.000455182
-0.000508855
0.00050925
-0.000543292
0.000566113
-0.000572887
0.000625425
-0.000597813
0.000686837
-0.00061827
0.000749995
-0.000634465
0.00081455
-0.000646615
0.000880154
-0.000654914
0.000946475
-0.000659612
0.00101318
-0.00066082
0.00107997
-0.000658952
0.00114652
-0.000653774
0.00121262
-0.000646423
0.00127787
-0.000635224
0.00134231
-0.000624217
0.00140518
-0.000606093
0.00146737
-0.000595812
0.00152668
-0.000565402
0.00158675
-0.000568204
0.00164075
-0.000507181
0.00169987
-0.000552017
-0.000433616
0.000202185
3.57293e-06
0.000214073
-4.86279e-05
0.000231021
-0.000104068
0.000252859
-0.000166299
0.000279346
-0.000231254
0.00031014
-0.000295398
0.00034496
-0.000356888
0.000383569
-0.000414413
0.000425758
-0.00046725
0.000471323
-0.000515019
0.000520047
-0.000557578
0.000571689
-0.000594934
0.000625985
-0.000627183
0.000682649
-0.000654477
0.000741379
-0.000677
0.000801862
-0.000694947
0.000863779
-0.000708532
0.000926809
-0.000717945
0.000990642
-0.000723445
0.00105496
-0.000725139
0.00111949
-0.000723477
0.0011839
-0.000718185
0.001248
-0.000710527
0.0013114
-0.000698623
0.00137416
-0.000686977
0.00143551
-0.00066744
0.00149635
-0.000656653
0.0015545
-0.000623549
0.00161357
-0.000627283
0.00166685
-0.000560455
0.00172529
-0.000610455
-0.000481456
0.000273924
-4.08033e-06
0.000287782
-6.24858e-05
0.000306565
-0.000122852
0.000329757
-0.000189491
0.000356927
-0.000258424
0.000387687
-0.000326158
0.000421793
-0.000390995
0.000459097
-0.000451717
0.000499496
-0.000507649
0.000542893
-0.000558415
0.000589164
-0.00060385
0.000638156
-0.000643926
0.000689674
-0.000678701
0.000743493
-0.000708295
0.000799357
-0.000732864
0.000856993
-0.000752583
0.000916116
-0.000767655
0.00097643
-0.000778259
0.00103765
-0.00078466
0.00109946
-0.000786956
0.00116162
-0.000785633
0.0012238
-0.000780369
0.00128584
-0.000772559
0.00134732
-0.000760112
0.00140835
-0.000747999
0.00146813
-0.000727228
0.0015276
-0.000716123
0.00158458
-0.000680528
0.00164267
-0.000685371
0.00169525
-0.000613031
0.00175303
-0.000668243
-0.000529374
0.000351036
-1.34936e-05
0.000366832
-7.82817e-05
0.000387402
-0.000143422
0.000411825
-0.000213914
0.000439475
-0.000286074
0.000469945
-0.000356628
0.000503061
-0.000424111
0.000538782
-0.000487438
0.000577124
-0.000545991
0.000618102
-0.000599393
0.000661695
-0.000647443
0.000707829
-0.00069006
0.000756384
-0.000727256
0.000807189
-0.0007591
0.000860038
-0.000785714
0.000914696
-0.000807241
0.000970907
-0.000823866
0.0010284
-0.000835754
0.00108691
-0.00084317
0.00114615
-0.000846197
0.00120588
-0.000845356
0.00126578
-0.000840276
0.0013257
-0.000832482
0.00138526
-0.000819664
0.00144453
-0.000807272
0.00150276
-0.000785457
0.00156087
-0.000774232
0.0016167
-0.000736364
0.00167384
-0.000742506
0.00172578
-0.000664968
0.00178297
-0.000725439
-0.000577465
0.000433097
-2.4657e-05
0.00045077
-9.59551e-05
0.000473001
-0.000165653
0.000498443
-0.000239356
0.00052628
-0.000313911
0.00055613
-0.000386477
0.000587921
-0.000455902
0.000621746
-0.000521262
0.000657749
-0.000581995
0.000696061
-0.000637705
0.000736758
-0.00068814
0.00077985
-0.000733153
0.000825282
-0.000772688
0.00087294
-0.000806758
0.000922662
-0.000835435
0.000974247
-0.000858826
0.00102747
-0.000877089
0.00108208
-0.000890368
0.00113784
-0.000898926
0.00119447
-0.000902828
0.00125174
-0.000902626
0.00130936
-0.000897896
0.00136718
-0.000890297
0.00142481
-0.000877295
0.00148236
-0.000864821
0.00153906
-0.000842163
0.00159586
-0.00083103
0.00165062
-0.00079112
0.00170687
-0.000798757
0.00175825
-0.000716355
0.00181495
-0.000782132
-0.000625845
0.000519687
-3.75842e-05
0.000539143
-0.000115411
0.000562822
-0.000189332
0.00058896
-0.000265494
0.000616587
-0.000341537
0.000645401
-0.000415291
0.00067548
-0.000485981
0.000707066
-0.000552848
0.000740438
-0.000615367
0.000775841
-0.000673108
0.000813445
-0.000725743
0.000853335
-0.000773043
0.000895518
-0.000814871