/*--------------------------------*- C++ -*----------------------------------*\
  =========                 |
  \\      /  F ield         | OpenFOAM: The Open Source CFD Toolbox
   \\    /   O peration     | Website:  https://openfoam.org
    \\  /    A nd           | Version:  7
     \\/     M anipulation  |
\*---------------------------------------------------------------------------*/
FoamFile
{
    version     2.0;
    format      ascii;
    class       volScalarField;
    location    "65";
    object      p;
}
// * * * * * * * * * * * * * * * * * * * * * * * * * * * * * * * * * * * * * //

dimensions      [0 2 -2 0 0 0 0];

internalField   nonuniform List<scalar> 
8500
(
-0.0895606
-0.0905378
-0.0911356
-0.0916495
-0.0921004
-0.09249
-0.0928341
-0.0931442
-0.0934291
-0.0936953
-0.0939477
-0.0941898
-0.0944241
-0.0946525
-0.094877
-0.0950996
-0.095323
-0.0955509
-0.0957844
-0.096026
-0.0894293
-0.0903986
-0.0909913
-0.0915002
-0.0919458
-0.0923296
-0.0926672
-0.0929699
-0.0932461
-0.0935025
-0.0937438
-0.0939734
-0.0941938
-0.0944068
-0.0946146
-0.0948192
-0.0950232
-0.0952309
-0.0954422
-0.0956577
-0.0893391
-0.0902979
-0.0908839
-0.0913863
-0.0918252
-0.0922019
-0.0925317
-0.0928255
-0.0930918
-0.093337
-0.0935658
-0.0937815
-0.0939866
-0.0941829
-0.0943725
-0.0945576
-0.0947409
-0.0949275
-0.0951153
-0.0953023
-0.0892894
-0.0902354
-0.0908131
-0.0913076
-0.0917385
-0.0921068
-0.0924274
-0.0927111
-0.0929661
-0.0931987
-0.0934136
-0.093614
-0.0938023
-0.0939804
-0.0941505
-0.0943146
-0.094476
-0.0946402
-0.0948034
-0.0949594
-0.0892796
-0.0902104
-0.0907785
-0.0912638
-0.0916853
-0.0920438
-0.0923539
-0.0926261
-0.0928685
-0.0930872
-0.0932868
-0.0934705
-0.0936405
-0.093799
-0.093948
-0.0940898
-0.0942277
-0.0943685
-0.0945058
-0.0946285
-0.0893088
-0.0902225
-0.0907795
-0.0912543
-0.0916652
-0.0920126
-0.0923109
-0.0925703
-0.0927987
-0.0930021
-0.0931849
-0.0933503
-0.0935006
-0.0936379
-0.0937643
-0.0938823
-0.0939953
-0.0941115
-0.0942218
-0.0943087
-0.0893762
-0.0902709
-0.0908157
-0.0912787
-0.0916777
-0.0920128
-0.092298
-0.0925432
-0.0927561
-0.0929427
-0.0931073
-0.0932529
-0.0933819
-0.0934964
-0.0935986
-0.0936912
-0.0937779
-0.0938683
-0.0939502
-0.093999
-0.0894808
-0.0903549
-0.0908862
-0.0913364
-0.0917222
-0.0920438
-0.0923145
-0.0925442
-0.0927402
-0.0929085
-0.0930533
-0.0931775
-0.0932836
-0.0933736
-0.09345
-0.0935155
-0.0935742
-0.0936375
-0.0936899
-0.0936981
-0.0896215
-0.0904736
-0.0909906
-0.0914268
-0.0917983
-0.092105
-0.09236
-0.0925726
-0.0927503
-0.0928988
-0.0930221
-0.0931233
-0.0932048
-0.0932685
-0.0933173
-0.0933539
-0.0933831
-0.0934178
-0.0934395
-0.0934047
-0.0897973
-0.0906263
-0.0911279
-0.0915491
-0.0919052
-0.0921958
-0.0924337
-0.0926279
-0.0927857
-0.0929127
-0.0930129
-0.0930894
-0.0931443
-0.09318
-0.0931993
-0.0932053
-0.093203
-0.0932076
-0.0931974
-0.0931171
-0.0900071
-0.090812
-0.0912975
-0.0917028
-0.0920423
-0.0923157
-0.092535
-0.0927093
-0.0928457
-0.0929495
-0.0930249
-0.0930747
-0.0931013
-0.093107
-0.0930947
-0.093068
-0.0930325
-0.0930055
-0.092962
-0.0928335
-0.0902499
-0.0910301
-0.0914987
-0.0918871
-0.092209
-0.0924638
-0.0926633
-0.0928162
-0.0929294
-0.0930085
-0.0930572
-0.0930785
-0.0930747
-0.0930482
-0.0930023
-0.0929408
-0.0928699
-0.0928096
-0.0927315
-0.092552
-0.0905245
-0.0912796
-0.0917307
-0.0921015
-0.0924047
-0.0926397
-0.0928179
-0.0929478
-0.0930363
-0.0930887
-0.0931089
-0.0930997
-0.0930634
-0.0930026
-0.0929208
-0.0928222
-0.0927137
-0.0926181
-0.0925042
-0.0922705
-0.0908301
-0.0915599
-0.091993
-0.0923453
-0.0926288
-0.0928427
-0.0929982
-0.0931036
-0.0931656
-0.0931896
-0.0931792
-0.0931374
-0.0930665
-0.0929691
-0.0928489
-0.0927108
-0.0925621
-0.0924294
-0.0922783
-0.0919864
-0.0911659
-0.0918702
-0.0922849
-0.092618
-0.0928807
-0.0930723
-0.0932036
-0.0932829
-0.0933167
-0.0933103
-0.0932674
-0.0931909
-0.0930831
-0.0929466
-0.0927855
-0.0926051
-0.0924137
-0.0922414
-0.0920518
-0.0916972
-0.091531
-0.0922102
-0.0926061
-0.0929191
-0.09316
-0.0933281
-0.0934337
-0.0934852
-0.093489
-0.0934503
-0.0933729
-0.0932595
-0.0931124
-0.0929343
-0.0927296
-0.092504
-0.0922668
-0.0920525
-0.0918231
-0.0913997
-0.0919251
-0.0925793
-0.092956
-0.0932483
-0.0934664
-0.0936096
-0.0936881
-0.09371
-0.093682
-0.0936091
-0.0934951
-0.0933425
-0.0931537
-0.0929314
-0.0926801
-0.0924063
-0.0921201
-0.0918609
-0.0915907
-0.091091
-0.0923476
-0.0929773
-0.0933345
-0.0936053
-0.0937996
-0.0939165
-0.0939663
-0.093957
-0.0938953
-0.0937863
-0.0936335
-0.0934396
-0.0932067
-0.0929374
-0.0926366
-0.0923112
-0.0919722
-0.0916647
-0.0913534
-0.0907655
-0.0927985
-0.0934041
-0.0937414
-0.0939901
-0.0941594
-0.0942487
-0.0942682
-0.094226
-0.0941287
-0.0939816
-0.093788
-0.0935505
-0.093271
-0.092952
-0.0925984
-0.0922179
-0.091822
-0.0914625
-0.0911085
-0.0904073
-0.0932777
-0.0938597
-0.0941768
-0.0944026
-0.0945458
-0.0946061
-0.0945936
-0.0945167
-0.0943821
-0.0941948
-0.0939584
-0.0936751
-0.0933466
-0.0929751
-0.0925656
-0.0921262
-0.091669
-0.0912533
-0.0908562
-0.0899982
-0.0937854
-0.0943443
-0.094641
-0.0948429
-0.0949588
-0.0949886
-0.0949426
-0.0948292
-0.0946553
-0.094426
-0.0941448
-0.0938136
-0.0934337
-0.093007
-0.0925384
-0.0920359
-0.0915127
-0.0910356
-0.0905989
-0.0896328
-0.0943222
-0.0948585
-0.0951342
-0.0953114
-0.0953987
-0.0953965
-0.0953152
-0.0951635
-0.0949485
-0.0946753
-0.0943473
-0.0939662
-0.0935327
-0.0930483
-0.0925172
-0.0919476
-0.0913533
-0.0908075
-0.090295
-0.0892525
-0.0948889
-0.0954028
-0.0956571
-0.0958086
-0.095866
-0.0958301
-0.0957117
-0.0955199
-0.0952619
-0.0949429
-0.0945664
-0.0941335
-0.0936444
-0.0930997
-0.092503
-0.0918622
-0.0911912
-0.0905717
-0.0899834
-0.0888163
-0.0954864
-0.0959782
-0.0962104
-0.096335
-0.096361
-0.0962897
-0.0961325
-0.0958986
-0.0955957
-0.0952293
-0.0948025
-0.0943161
-0.0937696
-0.0931625
-0.0924973
-0.091781
-0.0910274
-0.0903275
-0.0896623
-0.0883302
-0.096116
-0.0965858
-0.096795
-0.0968915
-0.0968844
-0.096776
-0.0965779
-0.0963001
-0.0959505
-0.0955349
-0.0950562
-0.0945148
-0.0939094
-0.093238
-0.0925017
-0.0917062
-0.0908637
-0.0900749
-0.0893279
-0.087793
-0.0967792
-0.0972267
-0.0974121
-0.097479
-0.0974372
-0.0972896
-0.0970486
-0.0967249
-0.0963268
-0.0958603
-0.0953283
-0.0947306
-0.0940649
-0.0933278
-0.0925182
-0.09164
-0.0907025
-0.0898158
-0.0889802
-0.0871983
-0.0974779
-0.0979026
-0.0980631
-0.0980988
-0.0980202
-0.0978313
-0.0975454
-0.0971736
-0.0967251
-0.0962061
-0.0956194
-0.0949644
-0.0942375
-0.0934335
-0.0925492
-0.0915852
-0.0905469
-0.0895526
-0.0886212
-0.0865394
-0.0982141
-0.0986153
-0.0987494
-0.0987521
-0.0986346
-0.0984022
-0.0980689
-0.097647
-0.0971461
-0.0965729
-0.0959303
-0.095217
-0.0944284
-0.0935571
-0.0925968
-0.091545
-0.0904007
-0.0892888
-0.0882543
-0.0858104
-0.0989901
-0.0993667
-0.0994728
-0.0994404
-0.0992816
-0.0990032
-0.0986202
-0.0981458
-0.0975905
-0.0969615
-0.0962617
-0.0954894
-0.0946387
-0.0936999
-0.0926636
-0.0915226
-0.0902681
-0.0890285
-0.0878842
-0.0850064
-0.0998085
-0.100159
-0.100235
-0.100165
-0.0999629
-0.0996357
-0.0992003
-0.0986709
-0.0980591
-0.0973726
-0.0966143
-0.0957823
-0.0948694
-0.0938636
-0.0927516
-0.0915213
-0.0901535
-0.0887768
-0.0875169
-0.0841247
-0.100672
-0.100995
-0.101039
-0.100929
-0.10068
-0.100301
-0.0998104
-0.0992234
-0.0985528
-0.0978068
-0.0969888
-0.0960964
-0.0951213
-0.0940493
-0.0928628
-0.091544
-0.0900616
-0.0885393
-0.0871596
-0.083166
-0.101584
-0.101877
-0.101886
-0.101733
-0.101434
-0.101001
-0.100452
-0.0998044
-0.0990723
-0.0982648
-0.0973856
-0.0964322
-0.0953951
-0.0942577
-0.0929985
-0.0915935
-0.089997
-0.0883224
-0.0868194
-0.0821361
-0.102548
-0.102807
-0.10278
-0.102581
-0.102228
-0.101737
-0.101126
-0.100415
-0.0996188
-0.0987476
-0.0978055
-0.0967901
-0.095691
-0.0944895
-0.0931599
-0.0916718
-0.0899637
-0.0881336
-0.0865022
-0.0810471
-0.103567
-0.10379
-0.103722
-0.103473
-0.103064
-0.10251
-0.101834
-0.101057
-0.100193
-0.0992558
-0.0982491
-0.0971706
-0.0960094
-0.094745
-0.0933478
-0.0917812
-0.0899661
-0.0879818
-0.0862117
-0.0799221
-0.104645
-0.104828
-0.104716
-0.104414
-0.103944
-0.103324
-0.102579
-0.101731
-0.100797
-0.0997907
-0.0987171
-0.0975741
-0.0963506
-0.0950246
-0.0935631
-0.0919236
-0.0900087
-0.0878797
-0.0859512
-0.0788073
-0.105787
-0.105925
-0.105766
-0.105406
-0.10487
-0.10418
-0.103362
-0.102439
-0.101432
-0.100354
-0.0992106
-0.0980016
-0.0967153
-0.0953288
-0.0938068
-0.0921016
-0.0900966
-0.087845
-0.0857244
-0.0777855
-0.106996
-0.107085
-0.106874
-0.106452
-0.105846
-0.105081
-0.104185
-0.103184
-0.102099
-0.100946
-0.099731
-0.0984541
-0.0971043
-0.0956587
-0.0940809
-0.0923191
-0.0902372
-0.0879004
-0.0855054
-0.0769164
-0.108277
-0.108312
-0.108044
-0.107555
-0.106874
-0.10603
-0.105052
-0.103968
-0.102802
-0.10157
-0.10028
-0.0989333
-0.0975194
-0.0960163
-0.0943884
-0.0925832
-0.0904482
-0.088087
-0.085202
-0.0761065
-0.109635
-0.109609
-0.10928
-0.108718
-0.107958
-0.107029
-0.105964
-0.104793
-0.103542
-0.102227
-0.10086
-0.0994414
-0.0979626
-0.0964038
-0.0947332
-0.0929043
-0.0907656
-0.0885048
-0.0848791
-0.0757576
-0.111075
-0.110982
-0.110586
-0.109947
-0.109101
-0.108082
-0.106925
-0.105663
-0.104322
-0.102922
-0.101474
-0.0999812
-0.0984365
-0.0968236
-0.0951177
-0.0932885
-0.0912146
-0.0892646
-0.0853095
-0.0797876
-0.112602
-0.112435
-0.111966
-0.111244
-0.110307
-0.109192
-0.107939
-0.106581
-0.105146
-0.103657
-0.102126
-0.100556
-0.0989441
-0.0972778
-0.0955411
-0.0937276
-0.0917554
-0.0902367
-0.0870897
-0.0949567
-0.114221
-0.113973
-0.113425
-0.112613
-0.111579
-0.110364
-0.109009
-0.10755
-0.106018
-0.104436
-0.102818
-0.10117
-0.0994888
-0.097768
-0.0960004
-0.0942031
-0.0923225
-0.0911934
-0.0882819
-0.0989549
-0.115939
-0.1156
-0.114968
-0.11406
-0.112923
-0.111601
-0.110139
-0.108575
-0.106942
-0.105264
-0.103557
-0.101827
-0.100074
-0.0982963
-0.0964934
-0.0947019
-0.0928755
-0.0919812
-0.0890688
-0.0998059
-0.11776
-0.117323
-0.116598
-0.115588
-0.114342
-0.112908
-0.111334
-0.109661
-0.107923
-0.106146
-0.104346
-0.102531
-0.100705
-0.0988651
-0.0970188
-0.0952162
-0.0934043
-0.0926052
-0.0896724
-0.0998196
-0.119691
-0.119146
-0.118322
-0.117203
-0.115841
-0.11429
-0.112599
-0.110813
-0.108966
-0.107086
-0.105191
-0.103289
-0.101384
-0.0994766
-0.0975761
-0.0957402
-0.0939035
-0.0930819
-0.0900902
-0.0991645
-0.121738
-0.121074
-0.120144
-0.118909
-0.117425
-0.115751
-0.113939
-0.112035
-0.110076
-0.108091
-0.106097
-0.104104
-0.102115
-0.100133
-0.098164
-0.0962689
-0.094367
-0.0934209
-0.0903246
-0.0980207
-0.123112
-0.122069
-0.120712
-0.119099
-0.117296
-0.115359
-0.113333
-0.111259
-0.109166
-0.10707
-0.104981
-0.102902
-0.100834
-0.0987812
-0.0967982
-0.0947908
-0.0936354
-0.0904004
-0.0965838
-0.124103
-0.122616
-0.120868
-0.118932
-0.116864
-0.114713
-0.112521
-0.110315
-0.108114
-0.105925
-0.103748
-0.101582
-0.0994256
-0.0973245
-0.0951724
-0.093741
-0.0903422
-0.0949904
-0.124626
-0.122739
-0.120663
-0.11846
-0.116182
-0.113867
-0.111546
-0.109235
-0.106939
-0.104654
-0.102376
-0.100095
-0.0978447
-0.0955109
-0.0937529
-0.0901696
-0.0933317
-0.126749
-0.124715
-0.122496
-0.120154
-0.117743
-0.115304
-0.112864
-0.110437
-0.108026
-0.105622
-0.103214
-0.100785
-0.0983553
-0.0958055
-0.0936846
-0.0898979
-0.0916684
-0.126802
-0.124435
-0.121951
-0.119404
-0.116836
-0.114272
-0.111723
-0.109187
-0.10665
-0.104094
-0.101493
-0.0988527
-0.0960552
-0.093547
-0.0895393
-0.0900386
-0.126486
-0.123856
-0.12117
-0.118469
-0.115776
-0.113097
-0.110425
-0.107739
-0.105012
-0.102212
-0.0993327
-0.0962586
-0.0933483
-0.0891031
-0.0884631
-0.125875
-0.123047
-0.120209
-0.117379
-0.11456
-0.111738
-0.108883
-0.105964
-0.102938
-0.0997902
-0.0964139
-0.0930937
-0.0885962
-0.08695
-0.125039
-0.122057
-0.119084
-0.116114
-0.113124
-0.110081
-0.106942
-0.103663
-0.10022
-0.0965183
-0.0927857
-0.0880232
-0.085498
-0.124019
-0.120892
-0.117756
-0.114581
-0.111325
-0.10794
-0.104379
-0.100614
-0.0965682
-0.0924246
-0.0873867
-0.084099
-0.122803
-0.119485
-0.116103
-0.112608
-0.108948
-0.105076
-0.100967
-0.0965594
-0.0920084
-0.0866877
-0.0827404
-0.121296
-0.117683
-0.11392
-0.109957
-0.105746
-0.101271
-0.0964871
-0.0915341
-0.0859253
-0.0814072
-0.119312
-0.115252
-0.110954
-0.106378
-0.101516
-0.096346
-0.090997
-0.0850972
-0.080083
-0.111928
-0.106961
-0.101695
-0.0961302
-0.090392
-0.0842002
-0.078751
-0.107484
-0.1018
-0.0958337
-0.0897132
-0.0832301
-0.0773953
-0.101821
-0.0954501
-0.0889545
-0.082182
-0.0760005
-0.0881095
-0.0810505
-0.0745528
-0.0798301
-0.0730393
-0.0887729
-0.0816648
-0.0975495
-0.0901999
-0.083393
-0.111881
-0.105322
-0.0985982
-0.0915483
-0.0850669
-0.117836
-0.112028
-0.105897
-0.0995686
-0.0928237
-0.0866995
-0.127177
-0.122481
-0.117455
-0.112094
-0.10639
-0.100467
-0.0940317
-0.0883049
-0.129967
-0.12592
-0.121619
-0.117014
-0.112088
-0.106808
-0.101299
-0.0951771
-0.0898983
-0.131967
-0.128393
-0.124669
-0.120731
-0.116524
-0.112017
-0.107155
-0.10207
-0.096264
-0.0914958
-0.133457
-0.130187
-0.126865
-0.123434
-0.119832
-0.115996
-0.11189
-0.107438
-0.102786
-0.0972954
-0.0931137
-0.134645
-0.13156
-0.128489
-0.125395
-0.122228
-0.118931
-0.11544
-0.111714
-0.10766
-0.103449
-0.0982733
-0.0947679
-0.135641
-0.132687
-0.129768
-0.126877
-0.123989
-0.121061
-0.118039
-0.114865
-0.111498
-0.107826
-0.104063
-0.0991978
-0.0964733
-0.136469
-0.133648
-0.130845
-0.12808
-0.125356
-0.122654
-0.119939
-0.117166
-0.11428
-0.111247
-0.107941
-0.104628
-0.100067
-0.0982415
-0.13709
-0.134447
-0.131773
-0.129114
-0.126496
-0.123926
-0.121393
-0.118871
-0.11632
-0.113694
-0.110968
-0.108006
-0.105144
-0.100878
-0.10008
-0.137434
-0.135036
-0.132542
-0.130012
-0.127492
-0.125014
-0.122588
-0.12021
-0.11786
-0.115508
-0.113115
-0.110667
-0.108023
-0.105608
-0.101625
-0.101989
-0.137423
-0.135345
-0.133097
-0.130748
-0.128358
-0.125975
-0.12363
-0.12134
-0.119105
-0.116911
-0.114735
-0.112547
-0.110348
-0.107995
-0.106012
-0.102298
-0.103961
-0.136978
-0.135301
-0.133369
-0.131266
-0.129059
-0.126807
-0.124557
-0.122342
-0.120181
-0.118078
-0.116025
-0.114005
-0.111997
-0.110015
-0.107922
-0.106349
-0.102888
-0.105973
-0.134833
-0.133291
-0.1315
-0.129538
-0.127469
-0.125352
-0.123232
-0.121143
-0.119106
-0.117127
-0.115202
-0.113321
-0.111468
-0.109672
-0.107803
-0.106605
-0.10338
-0.107986
-0.133908
-0.132801
-0.131387
-0.129731
-0.127906
-0.125973
-0.123987
-0.121995
-0.120029
-0.118112
-0.11625
-0.114443
-0.112684
-0.110964
-0.109322
-0.10764
-0.106767
-0.103757
-0.10994
-0.132642
-0.131872
-0.130875
-0.129584
-0.128058
-0.126364
-0.124562
-0.122706
-0.120839
-0.118994
-0.117192
-0.115442
-0.113745
-0.112094
-0.110487
-0.108967
-0.107431
-0.106818
-0.103997
-0.111743
-0.130606
-0.129945
-0.129051
-0.127875
-0.126472
-0.124906
-0.123232
-0.121502
-0.119757
-0.11803
-0.116341
-0.114699
-0.113104
-0.111551
-0.110039
-0.108611
-0.107178
-0.10674
-0.104074
-0.113255
-0.128681
-0.128119
-0.12732
-0.126253
-0.124969
-0.123525
-0.121976
-0.120368
-0.118743
-0.117132
-0.115552
-0.114014
-0.112516
-0.111052
-0.109619
-0.108255
-0.106884
-0.106517
-0.10396
-0.114281
-0.12686
-0.126387
-0.125678
-0.124713
-0.123542
-0.122216
-0.120786
-0.119298
-0.11779
-0.116291
-0.114819
-0.113381
-0.111976
-0.110594
-0.109228
-0.107904
-0.106553
-0.106138
-0.103649
-0.114633
-0.125136
-0.124743
-0.124117
-0.123249
-0.122185
-0.120972
-0.119658
-0.118285
-0.116891
-0.115502
-0.114135
-0.112795
-0.111479
-0.110174
-0.108865
-0.107561
-0.106188
-0.105582
-0.103139
-0.114132
-0.1235
-0.12318
-0.122631
-0.121855
-0.120892
-0.119787
-0.118584
-0.117323
-0.116039
-0.114757
-0.113492
-0.112247
-0.111017
-0.109785
-0.108528
-0.107232
-0.105798
-0.104839
-0.102214
-0.110503
-0.121945
-0.121693
-0.121215
-0.120525
-0.119658
-0.118656
-0.117559
-0.116406
-0.115229
-0.11405
-0.112884
-0.111732
-0.110586
-0.109425
-0.108218
-0.106928
-0.105419
-0.104058
-0.100698
-0.0957791
-0.120465
-0.120274
-0.119863
-0.119253
-0.118478
-0.117573
-0.116578
-0.115529
-0.114454
-0.113375
-0.112304
-0.111242
-0.110178
-0.109088
-0.107935
-0.106664
-0.105112
-0.10346
-0.100472
-0.0919349
-0.119052
-0.118918
-0.118569
-0.118035
-0.117345
-0.116534
-0.115636
-0.114685
-0.113708
-0.112726
-0.111747
-0.110772
-0.109789
-0.10877
-0.107676
-0.106445
-0.104916
-0.103177
-0.100961
-0.0924168
-0.117701
-0.117619
-0.117328
-0.116865
-0.116257
-0.115533
-0.114727
-0.11387
-0.112988
-0.112097
-0.111207
-0.110317
-0.109412
-0.108466
-0.107436
-0.106264
-0.104804
-0.103101
-0.101402
-0.0933401
-0.116405
-0.116372
-0.116136
-0.11574
-0.115207
-0.114566
-0.113848
-0.113081
-0.112288
-0.111485
-0.110681
-0.109871
-0.109044
-0.10817
-0.107209
-0.106107
-0.104737
-0.103132
-0.101727
-0.0942938
-0.115159
-0.115172
-0.114987
-0.114654
-0.114193
-0.113631
-0.112995
-0.112312
-0.111605
-0.110886
-0.110163
-0.109432
-0.108679
-0.107878
-0.10699
-0.105965
-0.104696
-0.103224
-0.102025
-0.0953707
-0.113958
-0.114014
-0.113878
-0.113603
-0.113211
-0.112722
-0.112164
-0.111562
-0.110935
-0.110296
-0.109651
-0.108995
-0.108315
-0.107587
-0.106773
-0.10583
-0.10467
-0.103354
-0.102322
-0.0965126
-0.112798
-0.112896
-0.112805
-0.112586
-0.112256
-0.111838
-0.111353
-0.110827
-0.110276
-0.109713
-0.109142
-0.108558
-0.10795
-0.107293
-0.106555
-0.105699
-0.104654
-0.103502
-0.102615
-0.0976363
-0.111674
-0.111812
-0.111764
-0.111597
-0.111328
-0.110974
-0.11056
-0.110105
-0.109626
-0.109134
-0.108634
-0.10812
-0.107581
-0.106995
-0.106335
-0.105568
-0.10464
-0.103654
-0.102899
-0.0986947
-0.110582
-0.11076
-0.110753
-0.110635
-0.110423
-0.110131
-0.109781
-0.109393
-0.108982
-0.108559
-0.108126
-0.107679
-0.107208
-0.106692
-0.106109
-0.105433
-0.104624
-0.103799
-0.103169
-0.0996638
-0.10952
-0.109737
-0.109769
-0.109698
-0.109538
-0.109304
-0.109015
-0.108691
-0.108344
-0.107985
-0.107616
-0.107234
-0.106828
-0.106382
-0.105876
-0.105292
-0.104601
-0.103928
-0.103421
-0.100529
-0.108485
-0.10874
-0.10881
-0.108783
-0.108673
-0.108493
-0.108262
-0.107997
-0.107711
-0.107412
-0.107105
-0.106784
-0.106442
-0.106064
-0.105635
-0.105141
-0.104565
-0.104036
-0.103645
-0.101284
-0.107475
-0.107768
-0.107873
-0.107888
-0.107825
-0.107696
-0.107519
-0.10731
-0.107081
-0.10684
-0.10659
-0.106329
-0.106048
-0.105737
-0.105383
-0.104978
-0.104512
-0.104115
-0.103835
-0.101925
-0.106488
-0.106819
-0.106959
-0.107013
-0.106995
-0.106913
-0.106787
-0.10663
-0.106454
-0.106268
-0.106073
-0.105868
-0.105647
-0.1054
-0.105119
-0.104799
-0.104438
-0.10416
-0.103984
-0.102453
-0.105522
-0.105891
-0.106064
-0.106156
-0.10618
-0.106143
-0.106064
-0.105956
-0.10583
-0.105695
-0.105552
-0.105401
-0.105236
-0.105051
-0.104841
-0.104602
-0.104339
-0.104168
-0.104088
-0.10287
-0.104577
-0.104985
-0.10519
-0.105317
-0.10538
-0.105386
-0.10535
-0.105288
-0.10521
-0.105122
-0.105028
-0.104928
-0.104817
-0.104691
-0.104547
-0.104385
-0.104212
-0.104136
-0.104144
-0.103182
-0.103653
-0.104098
-0.104334
-0.104496
-0.104595
-0.10464
-0.104646
-0.104627
-0.104592
-0.104549
-0.104502
-0.104449
-0.104389
-0.104319
-0.104237
-0.104146
-0.104054
-0.10406
-0.104153
-0.10339
-0.102748
-0.103231
-0.103497
-0.103691
-0.103826
-0.103907
-0.103952
-0.103972
-0.103978
-0.103977
-0.103972
-0.103964
-0.103952
-0.103933
-0.103909
-0.103883
-0.103865
-0.103944
-0.104134
-0.10348
-0.101864
-0.102384
-0.102679
-0.102904
-0.103071
-0.103187
-0.103268
-0.103325
-0.103368
-0.103406
-0.103441
-0.103474
-0.103506
-0.103535
-0.103564
-0.103596
-0.103643
-0.103792
-0.104114
-0.103428
-0.100999
-0.101557
-0.10188
-0.102134
-0.102332
-0.10248
-0.102594
-0.102685
-0.102763
-0.102836
-0.102908
-0.10298
-0.103052
-0.103125
-0.103201
-0.103286
-0.103389
-0.103585
-0.103868
-0.103507
-0.100156
-0.10075
-0.1011
-0.101382
-0.101609
-0.101787
-0.101931
-0.102054
-0.102164
-0.10227
-0.102375
-0.102482
-0.102591
-0.102703
-0.102821
-0.102952
-0.103105
-0.103343
-0.103633
-0.103478
-0.0993344
-0.0999646
-0.10034
-0.100648
-0.100903
-0.101109
-0.101281
-0.101432
-0.101572
-0.101707
-0.101843
-0.101981
-0.102123
-0.10227
-0.102426
-0.102597
-0.102792
-0.103067
-0.103377
-0.103349
-0.0985355
-0.0992011
-0.0996018
-0.0999345
-0.100214
-0.100446
-0.100644
-0.100821
-0.100988
-0.10115
-0.101313
-0.101479
-0.101651
-0.101829
-0.102017
-0.102222
-0.102452
-0.102756
-0.103087
-0.103151
-0.0977604
-0.0984606
-0.098885
-0.099241
-0.0995444
-0.0997993
-0.100021
-0.100223
-0.100413
-0.100599
-0.100786
-0.100978
-0.101175
-0.10138
-0.101596
-0.10183
-0.102089
-0.102415
-0.102763
-0.102901
-0.0970105
-0.0977442
-0.0981911
-0.098569
-0.0988942
-0.0991707
-0.0994142
-0.099637
-0.0998486
-0.100056
-0.100265
-0.100478
-0.100697
-0.100925
-0.101165
-0.101423
-0.101705
-0.102049
-0.102411
-0.102606
-0.0962872
-0.0970531
-0.0975213
-0.0979195
-0.0982648
-0.098561
-0.098824
-0.0990659
-0.0992965
-0.0995229
-0.0997503
-0.0999819
-0.10022
-0.100467
-0.100727
-0.101004
-0.101305
-0.10166
-0.102033
-0.102273
-0.095592
-0.0963886
-0.0968767
-0.0972937
-0.0976574
-0.0979715
-0.0982518
-0.0985108
-0.098758
-0.0990007
-0.099244
-0.0994914
-0.0997454
-0.100008
-0.100284
-0.100575
-0.100891
-0.101254
-0.101634
-0.10191
-0.0949264
-0.0957519
-0.0962586
-0.096693
-0.0970734
-0.0974034
-0.0976993
-0.0979731
-0.0982347
-0.0984913
-0.098748
-0.0990085
-0.0992752
-0.0995507
-0.0998381
-0.100141
-0.100466
-0.100834
-0.101218
-0.10152
-0.0942919
-0.0951444
-0.0956682
-0.0961184
-0.0965139
-0.0968582
-0.0971675
-0.0974543
-0.0977281
-0.0979963
-0.098264
-0.0985349
-0.0988116
-0.0990966
-0.0993927
-0.0997036
-0.100035
-0.100404
-0.100788
-0.101111
-0.09369
-0.0945675
-0.0951069
-0.0955712
-0.0959801
-0.0963369
-0.096658
-0.0969558
-0.0972398
-0.0975173
-0.0977938
-0.0980726
-0.0983567
-0.0986483
-0.0989503
-0.0992658
-0.0995998
-0.0999669
-0.10035
-0.100687
-0.0931222
-0.0940224
-0.0945757
-0.0950527
-0.0954734
-0.095841
-0.096172
-0.0964789
-0.0967711
-0.0970561
-0.097339
-0.0976236
-0.0979126
-0.0982082
-0.0985132
-0.0988305
-0.0991646
-0.0995274
-0.0999057
-0.100253
-0.0925898
-0.0935103
-0.094076
-0.094564
-0.0949948
-0.0953715
-0.0957108
-0.096025
-0.0963236
-0.096614
-0.0969015
-0.0971896
-0.0974812
-0.0977785
-0.098084
-0.0984005
-0.0987319
-0.0990882
-0.0994597
-0.0998116
-0.0920943
-0.0930323
-0.0936087
-0.0941061
-0.0945454
-0.0949296
-0.0952755
-0.0955953
-0.0958986
-0.0961926
-0.0964826
-0.0967723
-0.0970644
-0.0973611
-0.0976649
-0.0979782
-0.0983047
-0.0986524
-0.099015
-0.0993674
-0.0916366
-0.0925896
-0.0931749
-0.09368
-0.0941263
-0.0945164
-0.0948673
-0.095191
-0.0954973
-0.0957932
-0.0960839
-0.0963733
-0.096664
-0.0969581
-0.0972579
-0.0975659
-0.0978853
-0.0982227
-0.0985746
-0.0989237
-0.0912179
-0.0921831
-0.0927755
-0.0932867
-0.0937383
-0.0941328
-0.094487
-0.0948132
-0.0951208
-0.0954169
-0.0957067
-0.095994
-0.0962814
-0.096571
-0.096865
-0.0971657
-0.0974761
-0.0978016
-0.098141
-0.0984836
-0.090839
-0.0918135
-0.0924112
-0.0929269
-0.0933822
-0.0937796
-0.0941357
-0.0944628
-0.0947701
-0.0950649
-0.0953522
-0.0956357
-0.095918
-0.0962013
-0.0964877
-0.0967793
-0.097079
-0.0973912
-0.0977165
-0.0980493
-0.0905007
-0.0914815
-0.0920828
-0.0926014
-0.0930588
-0.0934575
-0.0938141
-0.0941406
-0.0944462
-0.0947381
-0.0950213
-0.0952994
-0.0955751
-0.0958505
-0.0961275
-0.0964084
-0.0966957
-0.0969933
-0.097303
-0.097623
-0.0902034
-0.0911877
-0.0917908
-0.0923105
-0.0927686
-0.0931671
-0.0935227
-0.0938471
-0.0941496
-0.0944372
-0.0947148
-0.0949861
-0.0952536
-0.0955195
-0.0957856
-0.0960541
-0.0963275
-0.0966094
-0.0969019
-0.0972064
-0.0899476
-0.0909323
-0.0915354
-0.0920548
-0.0925119
-0.0929089
-0.093262
-0.093583
-0.093881
-0.0941628
-0.0944334
-0.0946964
-0.0949543
-0.0952091
-0.0954628
-0.0957174
-0.0959755
-0.0962405
-0.0965147
-0.0968008
-0.0897333
-0.0907157
-0.091317
-0.0918344
-0.0922891
-0.0926831
-0.0930324
-0.0933487
-0.0936407
-0.0939154
-0.0941776
-0.0944309
-0.0946777
-0.09492
-0.0951598
-0.0953991
-0.0956405
-0.0958875
-0.096142
-0.0964071
-0.096329
-0.0966
-0.0968929
-0.0971889
-0.0974948
-0.0978117
-0.0981415
-0.0984865
-0.0988494
-0.0992338
-0.0996439
-0.100085
-0.100565
-0.101089
-0.0959675
-0.0962256
-0.0965138
-0.0968077
-0.0971153
-0.0974392
-0.0977823
-0.0981484
-0.0985417
-0.0989675
-0.099432
-0.0999425
-0.100507
-0.101136
-0.0956284
-0.0958689
-0.0961517
-0.0964424
-0.0967511
-0.0970811
-0.0974367
-0.097823
-0.0982457
-0.0987117
-0.0992292
-0.0998072
-0.100456
-0.101187
-0.0953108
-0.0955292
-0.0958058
-0.0960924
-0.0964011
-0.0967364
-0.0971035
-0.0975088
-0.0979597
-0.0984646
-0.0990333
-0.0996769
-0.100408
-0.101239
-0.0950138
-0.0952057
-0.0954753
-0.0957567
-0.0960644
-0.0964039
-0.0967813
-0.0972044
-0.097682
-0.098224
-0.0988421
-0.099549
-0.100359
-0.101287
-0.0947361
-0.0948974
-0.0951591
-0.0954343
-0.0957398
-0.0960823
-0.0964688
-0.0969082
-0.0974107
-0.097988
-0.0986532
-0.099421
-0.100307
-0.101329
-0.0944766
-0.0946034
-0.0948563
-0.095124
-0.0954261
-0.0957703
-0.0961643
-0.0966185
-0.0971441
-0.0977545
-0.0984644
-0.0992903
-0.10025
-0.101362
-0.0942338
-0.0943224
-0.0945655
-0.0948245
-0.095122
-0.0954665
-0.0958666
-0.0963337
-0.0968805
-0.0975216
-0.0982736
-0.0991545
-0.100184
-0.101383
-0.0940062
-0.0940532
-0.0942856
-0.0945348
-0.0948262
-0.0951696
-0.0955741
-0.0960522
-0.096618
-0.0972874
-0.0980786
-0.0990114
-0.100107
-0.101389
-0.0937927
-0.0937947
-0.0940154
-0.0942536
-0.0945375
-0.0948782
-0.0952854
-0.0957726
-0.096355
-0.0970501
-0.0978775
-0.0988588
-0.100017
-0.101377
-0.102963
-0.093592
-0.0935456
-0.0937538
-0.0939797
-0.0942547
-0.0945912
-0.0949992
-0.0954933
-0.09609
-0.096808
-0.0976684
-0.0986945
-0.0999111
-0.101345
-0.103022
-0.0934031
-0.0933048
-0.0934997
-0.0937121
-0.0939768
-0.0943074
-0.0947143
-0.0952132
-0.0958215
-0.0965596
-0.0974497
-0.0985169
-0.0997877
-0.10129
-0.103053
-0.0932252
-0.0930713
-0.0932522
-0.09345
-0.0937027
-0.0940258
-0.0944296
-0.094931
-0.0955485
-0.0963035
-0.09722
-0.0983243
-0.0996448
-0.101211
-0.103055
-0.0930581
-0.092844
-0.0930106
-0.0931924
-0.0934317
-0.0937455
-0.0941442
-0.0946458
-0.0952697
-0.0960386
-0.0969778
-0.0981153
-0.0994811
-0.101107
-0.103025
-0.092902
-0.0926222
-0.0927741
-0.0929388
-0.0931631
-0.0934659
-0.0938574
-0.0943567
-0.0949843
-0.0957639
-0.0967223
-0.0978889
-0.0992953
-0.100975
-0.102963
-0.0927577
-0.0924052
-0.0925425
-0.0926889
-0.0928964
-0.0931863
-0.0935686
-0.0940632
-0.0946916
-0.0954788
-0.0964528
-0.0976442
-0.0990864
-0.100814
-0.102866
-0.0926258
-0.0921925
-0.0923157
-0.0924424
-0.0926314
-0.0929067
-0.0932775
-0.093765
-0.0943914
-0.0951828
-0.0961686
-0.0973808
-0.098854
-0.100625
-0.102735
-0.0925099
-0.0919839
-0.0920935
-0.0921994
-0.092368
-0.0926268
-0.092984
-0.0934618
-0.0940833
-0.0948758
-0.0958696
-0.0970982
-0.0985976
-0.100405
-0.102569
-0.0924254
-0.0917786
-0.0918763
-0.0919605
-0.0921066
-0.0923469
-0.0926882
-0.0931537
-0.0937675
-0.0945577
-0.0955558
-0.0967967
-0.0983175
-0.100155
-0.102369
-0.0923885
-0.091575
-0.0916649
-0.091726
-0.0918474
-0.0920673
-0.0923904
-0.0928411
-0.0934443
-0.0942289
-0.0952277
-0.0964765
-0.0980139
-0.0998736
-0.102136
-0.0922823
-0.0914021
-0.0914575
-0.0914966
-0.0915912
-0.0917885
-0.0920913
-0.0925246
-0.0931143
-0.0938901
-0.0948858
-0.0961386
-0.0976883
-0.0995743
-0.101859
-0.104555
-0.0922181
-0.0912395
-0.0912562
-0.0912737
-0.0913389
-0.0915115
-0.0917915
-0.0922049
-0.0927781
-0.0935419
-0.0945309
-0.0957835
-0.0973408
-0.0992449
-0.101551
-0.104289
-0.0922006
-0.0910834
-0.0910636
-0.0910583
-0.0910913
-0.0912371
-0.091492
-0.0918828
-0.0924368
-0.0931854
-0.0941643
-0.0954126
-0.0969726
-0.0988885
-0.101213
-0.103983
-0.0922224
-0.0909392
-0.0908812
-0.0908518
-0.0908495
-0.0909662
-0.0911937
-0.0915595
-0.0920916
-0.092822
-0.0937872
-0.0950272
-0.0965856
-0.0985079
-0.100846
-0.103642
-0.092287
-0.0908118
-0.0907102
-0.0906554
-0.0906148
-0.0907
-0.0908978
-0.0912361
-0.0917437
-0.092453
-0.0934012
-0.0946293
-0.0961816
-0.098105
-0.100451
-0.103265
-0.0924004
-0.090705
-0.0905521
-0.0904708
-0.0903885
-0.0904396
-0.0906055
-0.0909138
-0.0913944
-0.0920799
-0.0930081
-0.0942205
-0.0957626
-0.0976822
-0.100031
-0.102858
-0.0925679
-0.0906226
-0.0904083
-0.0902995
-0.0901715
-0.0901859
-0.0903176
-0.0905939
-0.0910453
-0.0917044
-0.0926096
-0.0938031
-0.0953309
-0.097242
-0.0995884
-0.102421
-0.0927935
-0.0905689
-0.0902806
-0.0901426
-0.0899648
-0.0899398
-0.0900353
-0.0902775
-0.0906975
-0.091328
-0.0922077
-0.0933792
-0.0948891
-0.0967871
-0.099126
-0.101958
-0.0930796
-0.0905478
-0.0901705
-0.090001
-0.0897691
-0.0897018
-0.089759
-0.0899654
-0.0903524
-0.0909524
-0.0918043
-0.092951
-0.0944395
-0.0963204
-0.0986469
-0.101473
-0.104851
-0.0934258
-0.0905627
-0.0900794
-0.0898753
-0.0895843
-0.0894718
-0.0894893
-0.0896584
-0.0900109
-0.0905791
-0.0914013
-0.0925208
-0.0939849
-0.0958448
-0.0981542
-0.100968
-0.104341
-0.0938271
-0.0906151
-0.090008
-0.089765
-0.08941
-0.0892494
-0.0892258
-0.0893567
-0.0896741
-0.0902092
-0.0910004
-0.0920907
-0.0935277
-0.0953631
-0.0976513
-0.100448
-0.10381
-0.0942723
-0.0907033
-0.0899561
-0.0896686
-0.0892443
-0.0890331
-0.0889678
-0.0890604
-0.0893423
-0.089844
-0.0906032
-0.0916628
-0.0930705
-0.0948783
-0.0971412
-0.0999161
-0.10326
-0.0947411
-0.0908204
-0.089922
-0.0895833
-0.0890848
-0.0888209
-0.0887141
-0.0887689
-0.0890158
-0.0894842
-0.0902111
-0.091239
-0.0926157
-0.0943932
-0.0966272
-0.0993754
-0.102696
-0.0952016
-0.090952
-0.0899014
-0.0895044
-0.0889273
-0.0886096
-0.0884627
-0.0884813
-0.0886944
-0.0891305
-0.0898253
-0.090821
-0.0921652
-0.0939102
-0.0961122
-0.0988293
-0.102121
-0.0956067
-0.091067
-0.0898811
-0.0894219
-0.0887638
-0.0883929
-0.0882092
-0.0881948
-0.0883765
-0.0887818
-0.0894456
-0.0904093
-0.0917203
-0.0934311
-0.0955983
-0.0982806
-0.101538
-0.105428
-0.0958776
-0.0911034
-0.0898344
-0.0893194
-0.0885829
-0.0881626
-0.0879478
-0.0879058
-0.08806
-0.0884373
-0.089072
-0.0900048
-0.0912828
-0.0929588
-0.0950894
-0.0977341
-0.100954
-0.104808
-0.0959036
-0.0910064
-0.089755
-0.0891988
-0.0883886
-0.0879234
-0.0876848
-0.0876213
-0.0877521
-0.0881043