/*--------------------------------*- C++ -*----------------------------------*\
  =========                 |
  \\      /  F ield         | OpenFOAM: The Open Source CFD Toolbox
   \\    /   O peration     | Website:  https://openfoam.org
    \\  /    A nd           | Version:  7
     \\/     M anipulation  |
\*---------------------------------------------------------------------------*/
FoamFile
{
    version     2.0;
    format      ascii;
    class       volScalarField;
    location    "45";
    object      p;
}
// * * * * * * * * * * * * * * * * * * * * * * * * * * * * * * * * * * * * * //

dimensions      [0 2 -2 0 0 0 0];

internalField   nonuniform List<scalar> 
34000
(
-0.250405
-0.251481
-0.252134
-0.252692
-0.253179
-0.253598
-0.253965
-0.254295
-0.254595
-0.254873
-0.255134
-0.255379
-0.255611
-0.255831
-0.25604
-0.256242
-0.256437
-0.256632
-0.256822
-0.257013
-0.250463
-0.251535
-0.252186
-0.252742
-0.253227
-0.253644
-0.25401
-0.254338
-0.254637
-0.254914
-0.255172
-0.255416
-0.255647
-0.255866
-0.256074
-0.256275
-0.25647
-0.256665
-0.256855
-0.257045
-0.250567
-0.251633
-0.25228
-0.252832
-0.253314
-0.253727
-0.25409
-0.254415
-0.254711
-0.254985
-0.25524
-0.255481
-0.255709
-0.255925
-0.25613
-0.256328
-0.256521
-0.256714
-0.256902
-0.257088
-0.250718
-0.251774
-0.252415
-0.252962
-0.253439
-0.253847
-0.254206
-0.254526
-0.254817
-0.255086
-0.255337
-0.255573
-0.255796
-0.256007
-0.256208
-0.2564
-0.256589
-0.256779
-0.256963
-0.257142
-0.250916
-0.251959
-0.252593
-0.253132
-0.253602
-0.254004
-0.254356
-0.25467
-0.254955
-0.255217
-0.255462
-0.255691
-0.255907
-0.256111
-0.256305
-0.256491
-0.256673
-0.256858
-0.257037
-0.257206
-0.251158
-0.252186
-0.25281
-0.253341
-0.253803
-0.254197
-0.254541
-0.254846
-0.255123
-0.255378
-0.255614
-0.255835
-0.256042
-0.256237
-0.256422
-0.256599
-0.256772
-0.256951
-0.257122
-0.257278
-0.251445
-0.252455
-0.253068
-0.253589
-0.25404
-0.254425
-0.254759
-0.255055
-0.255322
-0.255566
-0.255793
-0.256003
-0.256199
-0.256383
-0.256557
-0.256723
-0.256885
-0.257055
-0.257216
-0.257356
-0.251775
-0.252765
-0.253365
-0.253874
-0.254314
-0.254687
-0.255009
-0.255294
-0.25555
-0.255782
-0.255996
-0.256194
-0.256378
-0.256548
-0.256708
-0.25686
-0.257009
-0.257168
-0.257318
-0.257438
-0.252147
-0.253115
-0.2537
-0.254196
-0.254622
-0.254982
-0.255292
-0.255563
-0.255806
-0.256024
-0.256224
-0.256407
-0.256575
-0.25673
-0.256874
-0.257009
-0.257143
-0.257288
-0.257424
-0.257521
-0.25256
-0.253503
-0.254073
-0.254553
-0.254965
-0.25531
-0.255605
-0.255862
-0.256088
-0.256291
-0.256475
-0.256641
-0.256791
-0.256928
-0.257052
-0.257168
-0.257283
-0.257413
-0.257532
-0.257601
-0.253013
-0.253929
-0.254481
-0.254945
-0.255341
-0.25567
-0.255948
-0.256188
-0.256397
-0.256582
-0.256747
-0.256894
-0.257024
-0.257139
-0.257241
-0.257335
-0.257428
-0.25754
-0.25764
-0.257677
-0.253504
-0.254391
-0.254925
-0.255371
-0.255748
-0.256059
-0.25632
-0.25654
-0.25673
-0.256895
-0.257039
-0.257164
-0.257271
-0.257362
-0.257439
-0.257507
-0.257574
-0.257665
-0.257743
-0.257743
-0.254031
-0.254889
-0.255402
-0.255829
-0.256187
-0.256479
-0.256718
-0.256918
-0.257087
-0.257229
-0.25735
-0.25745
-0.257531
-0.257595
-0.257643
-0.257682
-0.257719
-0.257785
-0.257838
-0.257795
-0.254593
-0.25542
-0.255913
-0.256319
-0.256656
-0.256926
-0.257144
-0.257321
-0.257465
-0.257583
-0.257678
-0.257751
-0.257803
-0.257836
-0.257852
-0.257857
-0.25786
-0.257897
-0.257922
-0.257828
-0.25519
-0.255985
-0.256455
-0.25684
-0.257154
-0.2574
-0.257594
-0.257746
-0.257865
-0.257956
-0.258022
-0.258065
-0.258085
-0.258084
-0.258064
-0.25803
-0.257995
-0.257998
-0.257991
-0.257838
-0.255819
-0.256581
-0.257028
-0.257389
-0.25768
-0.257901
-0.258069
-0.258194
-0.258284
-0.258346
-0.258381
-0.258391
-0.258376
-0.258337
-0.258276
-0.258199
-0.25812
-0.258084
-0.258041
-0.257818
-0.25648
-0.257208
-0.257632
-0.257968
-0.258232
-0.258427
-0.258567
-0.258663
-0.258723
-0.258752
-0.258753
-0.258728
-0.258674
-0.258593
-0.258488
-0.258363
-0.258233
-0.258152
-0.25807
-0.25776
-0.257171
-0.257865
-0.258264
-0.258574
-0.258811
-0.258977
-0.259087
-0.259151
-0.259178
-0.259173
-0.259138
-0.259074
-0.258979
-0.258853
-0.258698
-0.258519
-0.258333
-0.258199
-0.258073
-0.257653
-0.257892
-0.258552
-0.258924
-0.259208
-0.259416
-0.259551
-0.259629
-0.259659
-0.259651
-0.259609
-0.259535
-0.259429
-0.259289
-0.259114
-0.258905
-0.258667
-0.258417
-0.258222
-0.25805
-0.257475
-0.258642
-0.259267
-0.259613
-0.259868
-0.260045
-0.260148
-0.260191
-0.260186
-0.26014
-0.260058
-0.259943
-0.259793
-0.259605
-0.259377
-0.259109
-0.258806
-0.258484
-0.25822
-0.258005
-0.257238
-0.259421
-0.260011
-0.260329
-0.260554
-0.260699
-0.260767
-0.260774
-0.26073
-0.260644
-0.260521
-0.260362
-0.260164
-0.259926
-0.259641
-0.25931
-0.258937
-0.258534
-0.258184
-0.257898
-0.257036
-0.260228
-0.260783
-0.261072
-0.261266
-0.261376
-0.261408
-0.261376
-0.261291
-0.261163
-0.260996
-0.26079
-0.260544
-0.260251
-0.259908
-0.259509
-0.259058
-0.258569
-0.258135
-0.257739
-0.256754
-0.261064
-0.261583
-0.261843
-0.262004
-0.262078
-0.262071
-0.261997
-0.26187
-0.261696
-0.261482
-0.261228
-0.26093
-0.260582
-0.260176
-0.259706
-0.259173
-0.258588
-0.258055
-0.257551
-0.256382
-0.261928
-0.262412
-0.262641
-0.262768
-0.262804
-0.262755
-0.262638
-0.262464
-0.262244
-0.261981
-0.261676
-0.261325
-0.260919
-0.260448
-0.259904
-0.259283
-0.258593
-0.257947
-0.257329
-0.255923
-0.262822
-0.26327
-0.263468
-0.263558
-0.263553
-0.263461
-0.263297
-0.263076
-0.262805
-0.262491
-0.262133
-0.261727
-0.261261
-0.260724
-0.260103
-0.25939
-0.258587
-0.257815
-0.257071
-0.255373
-0.263746
-0.264158
-0.264323
-0.264375
-0.264328
-0.264189
-0.263976
-0.263703
-0.26338
-0.263012
-0.2626
-0.262136
-0.26161
-0.261005
-0.260305
-0.259497
-0.258575
-0.257663
-0.256779
-0.254725
-0.264702
-0.265078
-0.265208
-0.26522
-0.265127
-0.264939
-0.264674
-0.264347
-0.263969
-0.263545
-0.263076
-0.262553
-0.261965
-0.261292
-0.260513
-0.259608
-0.258561
-0.257495
-0.25646
-0.253976
-0.265691
-0.26603
-0.266124
-0.266094
-0.265953
-0.265713
-0.265392
-0.265008
-0.264571
-0.264089
-0.263561
-0.262979
-0.262328
-0.261586
-0.260727
-0.259724
-0.258548
-0.257317
-0.256121
-0.253122
-0.266716
-0.267016
-0.267073
-0.266998
-0.266806
-0.26651
-0.266131
-0.265686
-0.265188
-0.264644
-0.264055
-0.263411
-0.262697
-0.261887
-0.260948
-0.259848
-0.258541
-0.257134
-0.25577
-0.252164
-0.267778
-0.26804
-0.268057
-0.267934
-0.267687
-0.267332
-0.266891
-0.266381
-0.265819
-0.265211
-0.264558
-0.263852
-0.263073
-0.262195
-0.261178
-0.259981
-0.258544
-0.256951
-0.255417
-0.251103
-0.26888
-0.269102
-0.269078
-0.268904
-0.268599
-0.268181
-0.267673
-0.267096
-0.266465
-0.26579
-0.265071
-0.2643
-0.263456
-0.262509
-0.261416
-0.260126
-0.258559
-0.256773
-0.255071
-0.249946
-0.270027
-0.270207
-0.270138
-0.26991
-0.269544
-0.269059
-0.26848
-0.267831
-0.267128
-0.266382
-0.265594
-0.264755
-0.263845
-0.26283
-0.261662
-0.26028
-0.258588
-0.256604
-0.254737
-0.248703
-0.271221
-0.271357
-0.27124
-0.270955
-0.270523
-0.269967
-0.269314
-0.268588
-0.267808
-0.266987
-0.266127
-0.265218
-0.26424
-0.263157
-0.261914
-0.260444
-0.258631
-0.256448
-0.254419
-0.247391
-0.272466
-0.272556
-0.272389
-0.272042
-0.27154
-0.270908
-0.270175
-0.269368
-0.268508
-0.267608
-0.266671
-0.26569
-0.264642
-0.263489
-0.262173
-0.260619
-0.258689
-0.256309
-0.254115
-0.246033
-0.273768
-0.273808
-0.273587
-0.273175
-0.272598
-0.271885
-0.271067
-0.270174
-0.269229
-0.268246
-0.267229
-0.266172
-0.265051
-0.263828
-0.262439
-0.260804
-0.258764
-0.2562
-0.253826
-0.24468
-0.275131
-0.275118
-0.274839
-0.274356
-0.2737
-0.272901
-0.271994
-0.27101
-0.269974
-0.268904
-0.267803
-0.266666
-0.26547
-0.264175
-0.262715
-0.261005
-0.258862
-0.256137
-0.253555
-0.243423
-0.276561
-0.27649
-0.276149
-0.275591
-0.27485
-0.27396
-0.272958
-0.271878
-0.270748
-0.269585
-0.268396
-0.267175
-0.265902
-0.264534
-0.263006
-0.261227
-0.25899
-0.256145
-0.253276
-0.242291
-0.278063
-0.27793
-0.277522
-0.276884
-0.276052
-0.275066
-0.273964
-0.272783
-0.271553
-0.270293
-0.269012
-0.267705
-0.266351
-0.26491
-0.263317
-0.261483
-0.259176
-0.256285
-0.252903
-0.241013
-0.279645
-0.279444
-0.278963
-0.278239
-0.277312
-0.276223
-0.275016
-0.273729
-0.272395
-0.271034
-0.269656
-0.268259
-0.266822
-0.265309
-0.263658
-0.261789
-0.259471
-0.256715
-0.252598
-0.239799
-0.281312
-0.281036
-0.280478
-0.279662
-0.278633
-0.277437
-0.276119
-0.274721
-0.273278
-0.271812
-0.270335
-0.268844
-0.267322
-0.265736
-0.264033
-0.262156
-0.259907
-0.257579
-0.253324
-0.243479
-0.283072
-0.282714
-0.282072
-0.281159
-0.280022
-0.278712
-0.277278
-0.275766
-0.274209
-0.272634
-0.271053
-0.269466
-0.267856
-0.266196
-0.264443
-0.262571
-0.260429
-0.25864
-0.255483
-0.26148
-0.284931
-0.284483
-0.283751
-0.282734
-0.281483
-0.280055
-0.2785
-0.276867
-0.275194
-0.273506
-0.271818
-0.270131
-0.268431
-0.266694
-0.264887
-0.263013
-0.260959
-0.259614
-0.25689
-0.2656
-0.286899
-0.286351
-0.285522
-0.284395
-0.283024
-0.281471
-0.279791
-0.278033
-0.276239
-0.274435
-0.272637
-0.270846
-0.269051
-0.267231
-0.265361
-0.263466
-0.261446
-0.260315
-0.257562
-0.266075
-0.288981
-0.288325
-0.287391
-0.286146
-0.284649
-0.282966
-0.281155
-0.27927
-0.277351
-0.275428
-0.273516
-0.271618
-0.269723
-0.267812
-0.265865
-0.26392
-0.261875
-0.260769
-0.257881
-0.265586
-0.291186
-0.29041
-0.289365
-0.287995
-0.286365
-0.284547
-0.282602
-0.280584
-0.278537
-0.276492
-0.274463
-0.272453
-0.270451
-0.268438
-0.266395
-0.264366
-0.26224
-0.26101
-0.257916
-0.264364
-0.293522
-0.292614
-0.291449
-0.289948
-0.288179
-0.28622
-0.284136
-0.281982
-0.279805
-0.277634
-0.275484
-0.273356
-0.271238
-0.26911
-0.26695
-0.264799
-0.262534
-0.261063
-0.257701
-0.262657
-0.295995
-0.294943
-0.29365
-0.29201
-0.290097
-0.287993
-0.285765
-0.283472
-0.281161
-0.27886
-0.276585
-0.274333
-0.272088
-0.269828
-0.267526
-0.265213
-0.262756
-0.260951
-0.257283
-0.260694
-0.298614
-0.297405
-0.295976
-0.29419
-0.292125
-0.28987
-0.287495
-0.285061
-0.282612
-0.280178
-0.277771
-0.275385
-0.273001
-0.270589
-0.268117
-0.265603
-0.262904
-0.2607
-0.256701
-0.258616
-0.301384
-0.300005
-0.298431
-0.296492
-0.29427
-0.29186
-0.289334
-0.286754
-0.284164
-0.281592
-0.279047
-0.276517
-0.273977
-0.271392
-0.26872
-0.265964
-0.26298
-0.260331
-0.255988
-0.25651
-0.304314
-0.30275
-0.301023
-0.298923
-0.296539
-0.293969
-0.291288
-0.288558
-0.285824
-0.283108
-0.280415
-0.277729
-0.275015
-0.272232
-0.269328
-0.266294
-0.262984
-0.259863
-0.255168
-0.254427
-0.307408
-0.305646
-0.303757
-0.30149
-0.298936
-0.296202
-0.293363
-0.290481
-0.287596
-0.28473
-0.281879
-0.27902
-0.276111
-0.273102
-0.269934
-0.266585
-0.262918
-0.259307
-0.254256
-0.252391
-0.310673
-0.308698
-0.306638
-0.304196
-0.301469
-0.298567
-0.295566
-0.292526
-0.289486
-0.28646
-0.283438
-0.280389
-0.277261
-0.273997
-0.270531
-0.266834
-0.262779
-0.258674
-0.253266
-0.25041
-0.314114
-0.311911
-0.309672
-0.307049
-0.304143
-0.301068
-0.297901
-0.294699
-0.291496
-0.2883
-0.285092
-0.281831
-0.278458
-0.274907
-0.271111
-0.267035
-0.262569
-0.257969
-0.252202
-0.248482
-0.317735
-0.315289
-0.312863
-0.310054
-0.306963
-0.303712
-0.300374
-0.297004
-0.29363
-0.290251
-0.286839
-0.283342
-0.279694
-0.275823
-0.271663
-0.26718
-0.262283
-0.257193
-0.25107
-0.246596
-0.32154
-0.318837
-0.316216
-0.313213
-0.309933
-0.306502
-0.302989
-0.299444
-0.295889
-0.292312
-0.288674
-0.284914
-0.280959
-0.276735
-0.272179
-0.267263
-0.26192
-0.256347
-0.24987
-0.244739
-0.32553
-0.322556
-0.319733
-0.316532
-0.313059
-0.309442
-0.305749
-0.302022
-0.298273
-0.294479
-0.29059
-0.286537
-0.282241
-0.27763
-0.272647
-0.267276
-0.261476
-0.255429
-0.248602
-0.242894
-0.329709
-0.326449
-0.323417
-0.320013
-0.316343
-0.312537
-0.308657
-0.304737
-0.300779
-0.296747
-0.29258
-0.288202
-0.283529
-0.278496
-0.273058
-0.267213
-0.260947
-0.254437
-0.247262
-0.241045
-0.334075
-0.330518
-0.32727
-0.323658
-0.319787
-0.315787
-0.311713
-0.307589
-0.303403
-0.299109
-0.294634
-0.289893
-0.284808
-0.27932
-0.2734
-0.267065
-0.260329
-0.253365
-0.245848
-0.239176
-0.338629
-0.334762
-0.331293
-0.32747
-0.323393
-0.319194
-0.314917
-0.310574
-0.306141
-0.301556
-0.296737
-0.291598
-0.286064
-0.280088
-0.273662
-0.266825
-0.259616
-0.252209
-0.244355
-0.237272
-0.343368
-0.339179
-0.335485
-0.331447
-0.327161
-0.322757
-0.318266
-0.313688
-0.308982
-0.304075
-0.298877
-0.2933
-0.287279
-0.280786
-0.273834
-0.266485
-0.258803
-0.250965
-0.242778
-0.23532
-0.348289
-0.343768
-0.339844
-0.335588
-0.33109
-0.326473
-0.321756
-0.316923
-0.311917
-0.306654
-0.301036
-0.294982
-0.288439
-0.281401
-0.273906
-0.266039
-0.257886
-0.249626
-0.241114
-0.233307
-0.353385
-0.348523
-0.344368
-0.339891
-0.335175
-0.330337
-0.32538
-0.320269
-0.314933
-0.309274
-0.303197
-0.296625
-0.289526
-0.281918
-0.273867
-0.265478
-0.25686
-0.248189
-0.239357
-0.231222
-0.358651
-0.35344
-0.34905
-0.34435
-0.339413
-0.334344
-0.329129
-0.323715
-0.318013
-0.311919
-0.305339
-0.298211
-0.290524
-0.282324
-0.273706
-0.264796
-0.255718
-0.246646
-0.237501
-0.229056
-0.364076
-0.358509
-0.353884
-0.348961
-0.343796
-0.338485
-0.332992
-0.327244
-0.321139
-0.314568
-0.307442
-0.299719
-0.291415
-0.282607
-0.273415
-0.263986
-0.254455
-0.244993
-0.235542
-0.226799
-0.36965
-0.363723
-0.358862
-0.353712
-0.348314
-0.342747
-0.336953
-0.330839
-0.324291
-0.317197
-0.309483
-0.301129
-0.292183
-0.282753
-0.272985
-0.26304
-0.253065
-0.243223
-0.233473
-0.224444
-0.375359
-0.369069
-0.363972
-0.358595
-0.352956
-0.347117
-0.340995
-0.334479
-0.327445
-0.319784
-0.31144
-0.302422
-0.292812
-0.28275
-0.272405
-0.261952
-0.251543
-0.241331
-0.231289
-0.221982
-0.381187
-0.374533
-0.369202
-0.363596
-0.357707
-0.351577
-0.345099
-0.338142
-0.330576
-0.322303
-0.313288
-0.303577
-0.293286
-0.282586
-0.271667
-0.260714
-0.249881
-0.239311
-0.228983
-0.219408
-0.387116
-0.380099
-0.374536
-0.368698
-0.362549
-0.356109
-0.349242
-0.341802
-0.333658
-0.324728
-0.315006
-0.304574
-0.293589
-0.282249
-0.270762
-0.259319
-0.248074
-0.237155
-0.226551
-0.216713
-0.393126
-0.385749
-0.379957
-0.373885
-0.367464
-0.360688
-0.353398
-0.345432
-0.336663
-0.327031
-0.316567
-0.305395
-0.293707
-0.281728
-0.269681
-0.257761
-0.246114
-0.234858
-0.223985
-0.213892
-0.399193
-0.39146
-0.385443
-0.379133
-0.372427
-0.365291
-0.357538
-0.349
-0.33956
-0.329186
-0.31795
-0.30602
-0.293624
-0.281012
-0.268416
-0.25603
-0.243995
-0.232413
-0.22128
-0.210938
-0.405293
-0.397211
-0.390971
-0.384421
-0.377413
-0.369887
-0.361632
-0.352476
-0.342319
-0.331165
-0.319131
-0.306431
-0.293327
-0.280089
-0.266957
-0.254119
-0.241709
-0.229812
-0.218429
-0.207845
-0.411396
-0.402975
-0.396517
-0.38972
-0.382394
-0.374446
-0.365648
-0.355827
-0.344909
-0.33294
-0.320088
-0.30661
-0.292802
-0.278949
-0.265295
-0.252021
-0.23925
-0.22705
-0.215425
-0.204607
-0.417473
-0.408723
-0.402051
-0.395002
-0.387337
-0.378936
-0.36955
-0.359018
-0.347298
-0.334484
-0.320797
-0.30654
-0.292035
-0.277582
-0.263422
-0.249728
-0.236609
-0.224119
-0.212263
-0.201219
-0.42349
-0.414424
-0.407543
-0.400235
-0.39221
-0.383319
-0.373303
-0.362015
-0.349454
-0.33577
-0.321239
-0.306203
-0.291014
-0.275977
-0.261329
-0.247231
-0.233779
-0.221012
-0.208935
-0.197673
-0.429412
-0.420046
-0.41296
-0.405384
-0.396975
-0.387558
-0.376868
-0.364781
-0.351347
-0.336773
-0.321391
-0.305585
-0.289726
-0.274123
-0.259005
-0.244521
-0.230752
-0.217722
-0.205436
-0.193966
-0.435203
-0.425552
-0.418266
-0.410413
-0.401596
-0.391615
-0.380207
-0.367282
-0.352945
-0.337467
-0.321235
-0.30467
-0.288158
-0.27201
-0.256444
-0.241592
-0.227522
-0.214242
-0.201759
-0.19009
-0.440822
-0.430905
-0.423424
-0.415282
-0.40603
-0.395448
-0.383281
-0.369482
-0.354218
-0.337828
-0.320752
-0.303443
-0.2863
-0.269629
-0.253634
-0.238434
-0.224079
-0.210565
-0.197897
-0.186041
-0.446229
-0.436067
-0.428393
-0.419951
-0.410237
-0.399016
-0.38605
-0.371345
-0.355137
-0.337832
-0.319923
-0.301889
-0.284139
-0.266968
-0.250569
-0.23504
-0.220418
-0.206685
-0.193845
-0.181814
-0.451382
-0.440995
-0.433132
-0.424377
-0.414174
-0.402277
-0.388476
-0.372838
-0.355673
-0.337458
-0.31873
-0.299996
-0.281663
-0.26402
-0.247238
-0.231401
-0.21653
-0.202595
-0.189597
-0.177403
-0.456236
-0.445647
-0.437598
-0.428518
-0.417796
-0.405188
-0.390521
-0.373928
-0.355801
-0.336684
-0.317159
-0.29775
-0.278863
-0.260773
-0.243634
-0.227511
-0.212409
-0.198289
-0.185147
-0.172804
-0.460748
-0.449981
-0.441749
-0.432327
-0.42106
-0.407708
-0.392145
-0.374583
-0.355495
-0.33549
-0.315192
-0.295138
-0.275728
-0.257219
-0.239747
-0.22336
-0.208047
-0.19376
-0.180491
-0.168012
-0.464872
-0.45395
-0.445537
-0.43576
-0.423921
-0.409794
-0.393313
-0.374772
-0.354729
-0.333858
-0.312816
-0.29215
-0.272248
-0.253349
-0.235571
-0.218942
-0.203439
-0.189004
-0.175622
-0.163023
-0.468561
-0.457511
-0.448919
-0.438771
-0.426334
-0.411407
-0.393989
-0.374467
-0.353482
-0.33177
-0.310018
-0.288773
-0.268412
-0.249155
-0.231097
-0.214251
-0.198578
-0.184015
-0.170537
-0.157834
-0.471771
-0.460617
-0.451848
-0.441315
-0.428257
-0.412506
-0.39414
-0.37364
-0.351733
-0.329211
-0.306783
-0.284998
-0.264214
-0.244629
-0.226319
-0.209279
-0.193459
-0.178787
-0.165231
-0.152441
-0.474455
-0.463225
-0.454279
-0.443348
-0.429647
-0.413054
-0.393734
-0.372266
-0.349463
-0.326165
-0.303102
-0.280814
-0.259643
-0.239763
-0.221229
-0.204022
-0.188076
-0.173317
-0.159701
-0.146841
-0.47657
-0.46529
-0.456168
-0.444825
-0.430463
-0.413015
-0.392741
-0.370323
-0.346653
-0.322619
-0.298963
-0.276214
-0.254693
-0.23455
-0.215822
-0.198473
-0.182426
-0.1676
-0.153942
-0.141031
-0.478071
-0.466767
-0.457471
-0.445704
-0.430666
-0.412355
-0.391133
-0.367788
-0.343288
-0.318562
-0.294357
-0.271189
-0.249356
-0.228985
-0.210092
-0.192627
-0.176503
-0.161634
-0.147953
-0.13501
-0.478916
-0.467614
-0.458146
-0.445944
-0.430219
-0.411042
-0.388886
-0.364643
-0.339354
-0.313982
-0.289275
-0.265732
-0.243626
-0.223061
-0.204034
-0.186481
-0.170304
-0.155414
-0.141731
-0.128775
-0.479064
-0.467791
-0.458151
-0.445506
-0.429086
-0.409048
-0.385977
-0.360871
-0.334839
-0.30887
-0.283711
-0.259837
-0.237498
-0.216774
-0.197644
-0.180031
-0.163826
-0.148939
-0.135273
-0.122325
-0.478476
-0.467258
-0.457448
-0.444354
-0.427236
-0.406345
-0.382386
-0.356458
-0.329732
-0.303219
-0.277657
-0.253499
-0.230967
-0.21012
-0.190919
-0.173274
-0.157067
-0.142206
-0.12858
-0.115659
-0.477116
-0.465978
-0.456
-0.442453
-0.424639
-0.40291
-0.378095
-0.35139
-0.324024
-0.297022
-0.271109
-0.246713
-0.22403
-0.203097
-0.183857
-0.166208
-0.150025
-0.135216
-0.121651
-0.108782
-0.474949
-0.463915
-0.453773
-0.439773
-0.421268
-0.398723
-0.373089
-0.345659
-0.317709
-0.290274
-0.264063
-0.239477
-0.216684
-0.195701
-0.176454
-0.158831
-0.142699
-0.127966
-0.11449
-0.101696
-0.471944
-0.461039
-0.450736
-0.436284
-0.4171
-0.393766
-0.367357
-0.339255
-0.31078
-0.282972
-0.256516
-0.231788
-0.208928
-0.187931
-0.16871
-0.151143
-0.135087
-0.120456
-0.107092
-0.094388
-0.468073
-0.45732
-0.446861
-0.431961
-0.412115
-0.388023
-0.360887
-0.332173
-0.303236
-0.275113
-0.248468
-0.223645
-0.20076
-0.179787
-0.160626
-0.143144
-0.127192
-0.112685
-0.0994409
-0.0867955
-0.463309
-0.452732
-0.442123
-0.426784
-0.406295
-0.381485
-0.353675
-0.324409
-0.295075
-0.266698
-0.239918
-0.21505
-0.192182
-0.171271
-0.152202
-0.134835
-0.119015
-0.104659
-0.0915321
-0.0788817
-0.457631
-0.447252
-0.4365
-0.420734
-0.399628
-0.374142
-0.345715
-0.315964
-0.286296
-0.257728
-0.230868
-0.206002
-0.183195
-0.162382
-0.143441
-0.126219
-0.110559
-0.0963788
-0.0834075
-0.0709678
-0.451021
-0.44086
-0.429974
-0.413795
-0.392103
-0.365988
-0.337006
-0.306836
-0.276903
-0.248204
-0.221321
-0.196506
-0.173801
-0.153126
-0.134344
-0.117298
-0.101826
-0.0878486
-0.0750521
-0.062853
-0.443463
-0.433541
-0.422532
-0.405958
-0.383714
-0.357023
-0.327549
-0.29703
-0.266899
-0.238132
-0.21128
-0.186565
-0.164005
-0.143504
-0.124917
-0.108077
-0.0928222
-0.0790702
-0.0664794
-0.0545189
-0.434945
-0.425283
-0.414161
-0.397214
-0.374458
-0.347246
-0.317347
-0.28655
-0.256289
-0.227518
-0.200751
-0.176184
-0.153811
-0.133522
-0.115162
-0.0985603
-0.0835504
-0.0700501
-0.0576894
-0.0459739
-0.425462
-0.416078
-0.404855
-0.38756
-0.364334
-0.336661
-0.306408
-0.275404
-0.245082
-0.216367
-0.189741
-0.165369
-0.143225
-0.123186
-0.105088
-0.088753
-0.0740156
-0.0607932
-0.0486845
-0.0372283
-0.415007
-0.40592
-0.394612
-0.376996
-0.353347
-0.325274
-0.294738
-0.263602
-0.233287
-0.20469
-0.178258
-0.154129
-0.132256
-0.112503
-0.0946985
-0.0786615
-0.064224
-0.0513048
-0.0394692
-0.0282904
-0.403582
-0.394809
-0.383431
-0.365526
-0.341503
-0.313097
-0.28235
-0.251153
-0.220914
-0.192496
-0.166312
-0.142471
-0.12091
-0.10148
-0.0840028
-0.0682929
-0.0541826
-0.0415913
-0.0300494
-0.0191678
-0.391191
-0.382749
-0.371318
-0.353156
-0.328812
-0.30014
-0.269257
-0.238073
-0.207977
-0.179797
-0.153912
-0.130407
-0.109198
-0.0901263
-0.073009
-0.0576555
-0.043899
-0.0316597
-0.0204321
-0.00986781
-0.37784
-0.369744
-0.35828
-0.339898
-0.315288
-0.286418
-0.255473
-0.224375
-0.194488
-0.166606
-0.141073
-0.117947
-0.09713
-0.0784526
-0.0617266
-0.0467583
-0.0333817
-0.021518
-0.0106249
-0.000398257
-0.363541
-0.355807
-0.344329
-0.325765
-0.300947
-0.27195
-0.241018
-0.210077
-0.180465
-0.152938
-0.127806
-0.105104
-0.0847178
-0.0664694
-0.0501661
-0.0356111
-0.0226403
-0.0111752
-0.000636481
0.00923262
-0.348308
-0.340951
-0.32948
-0.310775
-0.285807
-0.256754
-0.225909
-0.195198
-0.165924
-0.138808
-0.114127
-0.0918919
-0.0719741
-0.0541888
-0.0383387
-0.0242247
-0.0116849
-0.000640807
0.00952402
0.0190159
-0.33216
-0.325193
-0.313752
-0.294947
-0.269891
-0.240853
-0.21017
-0.179756
-0.150885
-0.124234
-0.100051
-0.0783245
-0.0589125
-0.0416235
-0.0262567
-0.0126108
-0.000526562
0.0100748
0.0198466
0.028942
-0.315119
-0.308555
-0.297167
-0.278307
-0.253224
-0.224274
-0.193823
-0.163775
-0.135366
-0.109234
-0.0855957
-0.064418
-0.0455479
-0.0287876
-0.0139331
-0.000781626
0.0108229
0.0209603
0.0303203
0.0390003
-0.29721
-0.29106
-0.279749
-0.260879
-0.235833
-0.207044
-0.176889
-0.147279
-0.119391
-0.093829
-0.0707788
-0.0501892
-0.0318958
-0.0156955
-0.00138166
0.0112496
0.022351
0.0320039
0.0409337
0.0491793
-0.27846
-0.272737
-0.261528
-0.242694
-0.217748
-0.18918
-0.159407
-0.130291
-0.102982
-0.0780386
-0.0556198
-0.0356559
-0.0179727
-0.00236267
0.011383
0.023469
0.0340442
0.0431927
0.0516741
0.0594658
-0.258901
-0.253616
-0.242534
-0.223785
-0.198997
-0.170723
-0.141397
-0.11284
-0.0861623
-0.0618853
-0.0401387
-0.0208365
-0.00379587
0.0111947
0.0243457
0.0358621
0.0458887
0.0545136
0.0625284
0.0698455
-0.238566
-0.233729
-0.222802
-0.204186
-0.179609
-0.151707
-0.12289
-0.0949516
-0.0689582
-0.0453922
-0.0243569
-0.00575083
0.0106166
0.0249598
0.0374908
0.048414
0.0578698
0.0659526
0.0734822
0.0803013
-0.217491
-0.213115
-0.202369
-0.183921
-0.159633
-0.132162
-0.103918
-0.0766558
-0.0513959
-0.0285835
-0.00829646
0.00958096
0.0252459
0.0389154
0.0508021
0.0611093
0.0699726
0.0774954
0.0845198
0.0908116
-0.195714
-0.191811
-0.181274
-0.163035
-0.139101
-0.112124
-0.0845143
-0.0579823
-0.0335029
-0.0114842
0.0080197
0.0251377
0.0400728
0.0530436
0.0642631
0.0739324
0.0821821
0.0891274
0.0956235
0.101346
-0.173274
-0.16986
-0.159543
-0.141585
-0.118051
-0.0916305
-0.0647126
-0.0389624
-0.0153076
0.00587957
0.0245677
0.0408977
0.0550771
0.067326
0.0778571
0.0868678
0.094483
0.100835
0.106776
0.111875
-0.150207
-0.147312
-0.137236
-0.1196
-0.0965234
-0.070719
-0.0445483
-0.0196283
0.00316058
0.0234811
0.0413231
0.0568383
0.0702384
0.081744
0.0915672
0.0998997
0.10686
0.112605
0.11797
0.122377
-0.126558
-0.124219
-0.114401
-0.097124
-0.0745611
-0.0494289
-0.0240576
-1.30151e-05
0.0218715
0.0412927
0.0582605
0.0729365
0.0855355
0.0962786
0.105376
0.113012
0.119299
0.124436
0.129202
0.132787
-0.102427
-0.100589
-0.091078
-0.0742036
-0.0522069
-0.0278007
-0.00327758
0.0198494
0.0407941
0.059286
0.075354
0.0891684
0.100947
0.11091
0.119267
0.126189
0.131792
0.136336
0.140442
0.142866
-0.0778428
-0.0764777
-0.0673157
-0.0508856
-0.0295051
-0.00587535
0.0177539
0.0399244
0.0598967
0.077432
0.0925769
0.10551
0.11645
0.125619
0.133222
0.139417
0.144341
0.14832
0.151599
0.152294
-0.0528327
-0.0519562
-0.0431635
-0.0272177
-0.00650112
0.0163049
0.0389982
0.0601766
0.079147
0.0957011
0.109902
0.121935
0.132022
0.140384
0.147221
0.152684
0.156949
0.160369
0.162569
0.16138
-0.027452
-0.0270762
-0.018672
-0.00324895
0.0167589
0.0386974
0.060416
0.0805702
0.0985122
0.114063
0.127302
0.138419
0.14764
0.155183
0.161246
0.165977
0.169597
0.172393
0.17327
0.172145
-0.00175499
-0.0018873
0.0061079
0.0209716
0.0402286
0.0612589
0.0819677
0.101069
0.117959
0.132487
0.144747
0.154936
0.163278
0.169994
0.175274
0.179274
0.182236
0.184366
0.184425
0.183667
0.0242018
0.0235567
0.0311232
0.0453932
0.0638603
0.0839456
0.103613
0.121635
0.137453
0.150943
0.16221
0.171459
0.178913
0.184792
0.189285
0.19255
0.194839
0.196288
0.195711
0.194926
0.0503625
0.0492016
0.0563205
0.0699648
0.0876063
0.106713
0.125312
0.142233
0.156961
0.169398
0.179662
0.187961
0.19452
0.199556
0.203256
0.205784
0.207388
0.208165
0.207026
0.206023
0.0766706
0.0749923
0.0816459
0.0946351
0.111419
0.129518
0.147022
0.162824
0.176448
0.187821
0.197073
0.204415
0.210072
0.21426
0.217165
0.218951
0.219863
0.219974
0.218289
0.216959
0.103069
0.100873
0.107045
0.119353
0.135249
0.152314
0.168705
0.183371
0.19588
0.206181
0.214414
0.220793
0.225545
0.228882
0.230989
0.23203
0.232246
0.231694
0.229459
0.227729
0.129502
0.126789
0.132464
0.144065
0.159049
0.175059
0.190318
0.203838
0.215223
0.224446
0.231656
0.23707
0.240914
0.243398
0.244704
0.244999
0.244515
0.243302
0.240508
0.238329
0.155911
0.152683
0.157848
0.168722
0.182771
0.197706
0.211822
0.224185
0.234442
0.242584
0.24877
0.253218
0.256153
0.257783
0.25829
0.257838
0.256654
0.254777
0.251418
0.248757
0.18224
0.178499
0.183143
0.19327
0.206366
0.220213
0.233174
0.244377
0.253504
0.260564
0.265725
0.269209
0.271237
0.272016
0.271725
0.270526
0.268641
0.266102
0.262172
0.259007
0.208432
0.204182
0.208294
0.21766
0.229788
0.242534
0.254336
0.264377
0.272373
0.278354
0.282495
0.285017
0.286141
0.286073
0.284987
0.283044
0.28046
0.27726
0.272757
0.269071
0.23443
0.229675
0.233247
0.241839
0.252988
0.264627
0.275268
0.284146
0.291016
0.295923
0.299049
0.300615
0.300842
0.299931
0.298055
0.295373
0.292094
0.288235
0.28316
0.278943
0.260177
0.254924
0.25795
0.265758
0.275919
0.286449
0.295928
0.30365
0.3094
0.313241
0.315359
0.315978
0.315315
0.313569
0.310909
0.307494
0.303524
0.299013
0.293368
0.288614
0.285619
0.279873
0.28235
0.289366
0.298537
0.307957
0.31628
0.322853
0.327492
0.330277
0.331398
0.331079
0.329535
0.326963
0.323529
0.319388
0.314734
0.309577
0.303369
0.298074
0.3107
0.30447
0.306393
0.312615
0.320794
0.329108
0.336284
0.341718
0.34526
0.347001
0.347138
0.345893
0.343481
0.340093
0.335895
0.331037
0.325709
0.319914
0.313151
0.307313
0.335367
0.32866
0.330031
0.335457
0.342647
0.349863
0.355902
0.360212
0.362671
0.363384
0.362551
0.360395
0.357128
0.352938
0.347987
0.342425
0.336431
0.33001
0.3227
0.316322
0.359565
0.352391
0.353211
0.357844
0.364052
0.37018
0.375097
0.3783
0.379694
0.379396
0.377611
0.374561
0.370453
0.365476
0.359787
0.353532
0.346886
0.33985
0.332004
0.325089
0.383244
0.375613
0.375885
0.37973
0.384965
0.390021
0.393834
0.39595
0.396299
0.395011
0.392293
0.388366
0.383436
0.377688
0.371276
0.364343
0.357058
0.349421
0.341051
0.333605
0.406352
0.398275
0.398005
0.40107
0.405346
0.409347
0.412077
0.413128
0.412455
0.410199
0.40657
0.401787
0.396055
0.389553
0.382435
0.374841
0.366932
0.358709
0.349828
0.341858
0.42884
0.420329
0.419524
0.421821
0.425153
0.42812
0.429792
0.429803
0.428134
0.424935
0.420418
0.414802
0.408288
0.401053
0.393248
0.38501
0.376493
0.3677
0.358323
0.349838
0.450658
0.441727
0.440396
0.441938
0.444347
0.446304
0.446944
0.445945
0.443308
0.439193
0.433814
0.427388
0.420115
0.412169
0.403697
0.394833
0.385727
0.376382
0.366523
0.357535
0.471762
0.462423
0.460579
0.461382
0.462889
0.463864
0.463503
0.461523
0.457948
0.452946
0.446733
0.439524
0.431516
0.422882
0.413765
0.404297
0.39462
0.384741
0.374418
0.364938
0.492106
0.482374
0.480029
0.480113
0.480745
0.480767
0.479437
0.47651
0.472029
0.466171
0.459153
0.451189
0.442473
0.433175
0.423436
0.413385
0.403158
0.392766
0.381996
0.372037
0.511645
0.501537
0.498705
0.498092
0.497876
0.49698
0.494716
0.490877
0.485526
0.478844
0.471053
0.462363
0.452967
0.443031
0.432694
0.422084
0.411329
0.400444
0.389245
0.378824
0.53034
0.519871
0.516569
0.515282
0.514251
0.512471
0.509311
0.504598
0.498413
0.490944
0.482411
0.473027
0.46298
0.452434
0.441526
0.430379
0.41912
0.407763
0.396155
0.385288
0.548149
0.537336
0.533583
0.53165
0.529836
0.527211
0.523195
0.517648
0.510667
0.502447
0.493209
0.483163
0.472495
0.461368
0.449915
0.438258
0.426518
0.414713
0.402716
0.391421
0.565035
0.553896
0.549712
0.54716
0.544601
0.541172
0.536342
0.530003
0.522267
0.513335
0.503427
0.492753
0.481497
0.469818
0.457849
0.445709
0.433512
0.421283
0.408916
0.397214
0.580963
0.569516
0.564922
0.561783
0.558517
0.554326
0.548727
0.541641
0.533192
0.523587
0.513047
0.501781
0.48997
0.477771
0.465315
0.452719
0.440091
0.427462
0.414748
0.402659
0.595898
0.584162
0.579181
0.575489
0.571557
0.566649
0.560327
0.552539
0.543421
0.533185
0.522053
0.510231
0.4979
0.485213
0.472301
0.459276
0.446246
0.433242
0.420202
0.407748
0.609809
0.597804
0.59246
0.588249
0.583694
0.578117
0.571121
0.562677
0.552936
0.542112
0.530429
0.518089
0.505273
0.492132
0.478794
0.465371
0.451965
0.438613
0.42527
0.412474
0.622666
0.610413
0.604732
0.600038
0.594905
0.588708
0.581088
0.572038
0.561721
0.550353
0.538159
0.525341
0.512077
0.498516
0.484785
0.470994
0.457241
0.443567
0.429944
0.416831
0.634443
0.621962
0.61597
0.610833
0.605168
0.598402
0.590209
0.580604
0.569758