/*--------------------------------*- C++ -*----------------------------------*\
  =========                 |
  \\      /  F ield         | OpenFOAM: The Open Source CFD Toolbox
   \\    /   O peration     | Website:  https://openfoam.org
    \\  /    A nd           | Version:  7
     \\/     M anipulation  |
\*---------------------------------------------------------------------------*/
FoamFile
{
    version     2.0;
    format      ascii;
    class       surfaceScalarField;
    location    "45";
    object      phi;
}
// * * * * * * * * * * * * * * * * * * * * * * * * * * * * * * * * * * * * * //

dimensions      [0 3 -1 0 0 0 0];

internalField   nonuniform List<scalar> 
67470
(
-8.8964e-07
1.05889e-06
-1.69255e-07
-3.34892e-06
2.92136e-06
-4.62081e-07
-7.24523e-06
4.62053e-06
-7.24217e-07
-1.2447e-05
6.15835e-06
-9.56614e-07
-1.8825e-05
7.53894e-06
-1.16091e-06
-2.62547e-05
8.76911e-06
-1.33945e-06
-3.46177e-05
9.85821e-06
-1.49521e-06
-4.38043e-05
1.08183e-05
-1.63167e-06
-5.37158e-05
1.16642e-05
-1.75266e-06
-6.42669e-05
1.24133e-05
-1.86219e-06
-7.53885e-05
1.30858e-05
-1.9642e-06
-8.70305e-05
1.37043e-05
-2.06236e-06
-9.91644e-05
1.42938e-05
-2.15993e-06
-0.000111786
1.48811e-05
-2.25953e-06
-0.000124917
1.54945e-05
-2.36313e-06
-0.000138608
1.61623e-05
-2.47199e-06
-0.000152933
1.69116e-05
-2.5866e-06
-0.000167992
1.77659e-05
-2.7067e-06
-0.0001839
1.87396e-05
-2.83123e-06
1.98481e-05
-2.95803e-06
-0.00020079
-8.86481e-07
1.94538e-06
-3.33737e-06
5.37225e-06
-7.22062e-06
8.50379e-06
-1.2405e-05
1.13427e-05
-1.87616e-05
1.38956e-05
-2.61658e-05
1.61733e-05
-3.44992e-05
1.81916e-05
-4.36517e-05
1.99708e-05
-5.35242e-05
2.15366e-05
-6.40306e-05
2.29197e-05
-7.5101e-05
2.41562e-05
-8.66842e-05
2.52876e-05
-9.87508e-05
2.63603e-05
-0.000111295
2.74255e-05
-0.000124338
2.85378e-05
-0.000137929
2.97528e-05
-0.000152142
3.11245e-05
-0.000167077
3.27007e-05
-0.000182848
3.45113e-05
3.65897e-05
-0.00019959
-8.80705e-07
2.82608e-06
-3.3162e-06
7.80774e-06
-7.1754e-06
1.2363e-05
-1.23277e-05
1.64951e-05
-1.86445e-05
2.02123e-05
-2.60011e-05
2.35299e-05
-3.42789e-05
2.64693e-05
-4.3367e-05
2.9059e-05
-5.31653e-05
3.13349e-05
-6.35864e-05
3.33408e-05
-7.45587e-05
3.51285e-05
-8.6029e-05
3.67579e-05
-9.79655e-05
3.82968e-05
-0.00011036
3.98205e-05
-0.000123233
4.14101e-05
-0.000136629
4.3149e-05
-0.000150623
4.51189e-05
-0.000165315
4.73923e-05
-0.000180819
5.00157e-05
5.30406e-05
-0.00019727
-8.72377e-07
3.69846e-06
-3.28562e-06
1.0221e-05
-7.10999e-06
1.61874e-05
-1.22157e-05
2.16008e-05
-1.84746e-05
2.64712e-05
-2.57619e-05
3.08172e-05
-3.39582e-05
3.46657e-05
-4.29521e-05
3.80528e-05
-5.26415e-05
4.10243e-05
-6.29372e-05
4.36366e-05
-7.3765e-05
4.59563e-05
-8.50686e-05
4.80615e-05
-9.68128e-05
5.0041e-05
-0.000108987
5.19943e-05
-0.000121605
5.40289e-05
-0.000134713
5.62568e-05
-0.000148382
5.87882e-05
-0.000162712
6.17219e-05
-0.000177819
6.51223e-05
6.90588e-05
-0.000193837
-8.61588e-07
4.56005e-06
-3.24595e-06
1.26053e-05
-7.02502e-06
1.99664e-05
-1.20701e-05
2.66458e-05
-1.82533e-05
3.26545e-05
-2.54499e-05
3.80138e-05
-3.35398e-05
4.27556e-05
-4.24099e-05
4.69229e-05
-5.19564e-05
5.05708e-05
-6.20873e-05
5.37674e-05
-7.27248e-05
5.65938e-05
-8.38087e-05
5.91454e-05
-9.52992e-05
6.15315e-05
-0.00010718
6.38756e-05
-0.000119464
6.6312e-05
-0.000132189
6.89821e-05
-0.000145427
7.2026e-05
-0.000159276
7.55708e-05
-0.000173853
7.97001e-05
8.45024e-05
-0.000189297
-8.48459e-07
5.4085e-06
-3.19758e-06
1.49545e-05
-6.92129e-06
2.36901e-05
-1.18921e-05
3.16166e-05
-1.79826e-05
3.8745e-05
-2.50678e-05
4.5099e-05
-3.30266e-05
5.07144e-05
-4.17444e-05
5.56406e-05
-5.11147e-05
5.99411e-05
-6.1042e-05
6.36947e-05
-7.14444e-05
6.69962e-05
-8.22565e-05
6.99574e-05
-9.34328e-05
7.27078e-05
-0.000104951
7.53941e-05
-0.000116817
7.81781e-05
-0.000129067
8.12314e-05
-0.000141767
8.4726e-05
-0.000155016
8.88197e-05
-0.000168933
9.36179e-05
9.92293e-05
-0.00018366
-8.33132e-07
6.24164e-06
-3.14102e-06
1.72624e-05
-6.79978e-06
2.73489e-05
-1.16832e-05
3.65001e-05
-1.76646e-05
4.47263e-05
-2.46183e-05
5.20528e-05
-3.24225e-05
5.85186e-05
-4.09601e-05
6.41782e-05
-5.01218e-05
6.91029e-05
-5.9808e-05
7.3381e-05
-6.99316e-05
7.71198e-05
-8.04209e-05
8.04468e-05
-9.12235e-05
8.35104e-05
-0.00010231
8.64805e-05
-0.000113678
8.95466e-05
-0.000125359
9.29115e-05
-0.000137414
9.67818e-05
-0.000149944
0.000101349
-0.00016307
0.000106744
0.000113097
-0.000176938
-8.15774e-07
7.05741e-06
-3.07681e-06
1.95234e-05
-6.6616e-06
3.09337e-05
-1.14454e-05
4.12838e-05
-1.73018e-05
5.05828e-05
-2.41051e-05
5.8856e-05
-3.17316e-05
6.61451e-05
-4.00623e-05
7.25089e-05
-4.89841e-05
7.80247e-05
-5.83927e-05
8.27896e-05
-6.8195e-05
8.69221e-05
-7.8312e-05
9.05638e-05
-8.86829e-05
9.38812e-05
-9.92692e-05
9.70668e-05
-0.00011006
0.000100338
-0.000121079
0.00010393
-0.000132384
0.000108087
-0.000144073
0.000113038
-0.000156274
0.000118945
0.000125963
-0.00016914
-7.9657e-07
7.85398e-06
-3.00558e-06
2.17324e-05
-6.508e-06
3.44361e-05
-1.11805e-05
4.59563e-05
-1.68972e-05
5.62994e-05
-2.35317e-05
6.54905e-05
-3.09588e-05
7.35723e-05
-3.90568e-05
8.06068e-05
-4.77085e-05
8.66764e-05
-5.68044e-05
9.18855e-05
-6.62444e-05
9.6362e-05
-7.59409e-05
0.00010026
-8.58234e-05
0.000103764
-9.5843e-05
0.000107086
-0.000105978
0.000110473
-0.000116243
0.000114195
-0.000126691
0.000118534
-0.000137419
0.000123766
-0.00014856
0.000130087
0.000137683
-0.00016028
-7.75718e-07
8.6297e-06
-2.928e-06
2.38847e-05
-6.34032e-06
3.78484e-05
-1.08907e-05
5.05067e-05
-1.64537e-05
6.18624e-05
-2.29021e-05
7.1939e-05
-3.01092e-05
8.07793e-05
-3.79497e-05
8.84474e-05
-4.63026e-05
9.50293e-05
-5.50519e-05
0.000100635
-6.40898e-05
0.0001054
-7.33194e-05
0.00010949
-8.26587e-05
0.000113103
-9.20465e-05
0.000116474
-0.000101449
0.000119876
-0.000110868
0.000123614
-0.000120352
0.000128018
-0.000129995
0.00013341
-0.00013994
0.000140032
0.000148108
-0.000150366
-7.5343e-07
9.38313e-06
-2.84478e-06
2.5976e-05
-6.15995e-06
4.11636e-05
-1.05783e-05
5.49251e-05
-1.59745e-05
6.72586e-05
-2.22207e-05
7.81851e-05
-2.91878e-05
8.77464e-05
-3.67476e-05
9.60071e-05
-4.47738e-05
0.000103055
-5.3144e-05
0.000109005
-6.17419e-05
0.000113998
-7.04597e-05
0.000118208
-7.92027e-05
0.000121846
-8.78951e-05
0.000125167
-9.64886e-05
0.000128469
-0.000104972
0.000132098
-0.000113383
0.000136429
-0.000121817
0.000141844
-0.000130426
0.00014864
0.000157089
-0.000139407
-7.29923e-07
1.01131e-05
-2.75664e-06
2.80027e-05
-5.96835e-06
4.43753e-05
-1.02455e-05
5.92022e-05
-1.54629e-05
7.2476e-05
-2.14915e-05
8.42137e-05
-2.82e-05
9.4455e-05
-3.54566e-05
0.000103264
-4.31297e-05
0.000110729
-5.10898e-05
0.000116965
-5.9211e-05
0.000122119
-6.73738e-05
0.00012637
-7.5469e-05
0.000129941
-8.34045e-05
0.000133102
-9.11145e-05
0.000136179
-9.85718e-05
0.000139555
-0.000105802
0.000143659
-0.0001129
0.000148942
-0.000120027
0.000155767
0.000164468
-0.000127406
-7.05416e-07
1.08185e-05
-2.66433e-06
2.99616e-05
-5.76696e-06
4.7478e-05
-9.89467e-06
6.33299e-05
-1.4922e-05
7.75034e-05
-2.07187e-05
9.00104e-05
-2.7151e-05
0.000100887
-3.4083e-05
0.000110196
-4.13777e-05
0.000118023
-4.88977e-05
0.000124485
-5.6507e-05
0.000129728
-6.40731e-05
0.000133937
-7.14708e-05
0.000137339
-7.85894e-05
0.000140221
-8.53428e-05
0.000142933
-9.16842e-05
0.000145896
-9.7625e-05
0.0001496
-0.000103255
0.000154572
-0.00010875
0.000161262
0.000170081
-0.000114362
-6.80127e-07
1.14986e-05
-2.56856e-06
3.18501e-05
-5.55721e-06
5.04666e-05
-9.52799e-06
6.73007e-05
-1.4355e-05
8.23304e-05
-1.99064e-05
9.55618e-05
-2.60456e-05
0.000107027
-3.26326e-05
0.000116783
-3.95243e-05
0.000124915
-4.65753e-05
0.000131536
-5.36386e-05
0.000136792
-6.05676e-05
0.000140866
-6.72197e-05
0.000143991
-7.3463e-05
0.000146464
-7.91878e-05
0.000148657
-8.43243e-05
0.000151033
-8.88649e-05
0.000154141
-9.28928e-05
0.000158599
-9.65981e-05
0.000164967
0.000173753
-0.00010027
-6.54269e-07
1.21529e-05
-2.47005e-06
3.36659e-05
-5.34047e-06
5.3337e-05
-9.14761e-06
7.11079e-05
-1.37647e-05
8.69475e-05
-1.90581e-05
0.000100855
-2.48882e-05
0.000112857
-3.11104e-05
0.000123005
-3.75754e-05
0.00013138
-4.41291e-05
0.00013809
-5.06131e-05
0.000143276
-5.68657e-05
0.000147118
-6.2725e-05
0.00014985
-6.80357e-05
0.000151775
-7.26615e-05
0.000153283
-7.65042e-05
0.000154876
-7.95327e-05
0.000157169
-8.18198e-05
0.000160887
-8.35706e-05
0.000166718
0.000175295
-8.51128e-05
-6.28043e-07
1.27809e-05
-2.36945e-06
3.54073e-05
-5.118e-06
5.60856e-05
-8.75548e-06
7.47453e-05
-1.31539e-05
9.13459e-05
-1.81772e-05
0.000105878
-2.36826e-05
0.000118362
-2.95207e-05
0.000128843
-3.55354e-05
0.000137395
-4.15639e-05
0.000144118
-4.74356e-05
0.000149147
-5.29727e-05
0.000152655
-5.79928e-05
0.00015487
-6.23147e-05
0.000156097
-6.57713e-05
0.00015674
-6.82317e-05
0.000157336
-6.96347e-05
0.000158572
-7.00373e-05
0.000161289
-6.96593e-05
0.00016634
0.000174504
-6.88689e-05
-6.01638e-07
1.33825e-05
-2.26737e-06
3.7073e-05
-4.89099e-06
5.87092e-05
-8.35335e-06
7.82077e-05
-1.25247e-05
9.55173e-05
-1.72664e-05
0.00011062
-2.24318e-05
0.000123527
-2.78664e-05
0.000134278
-3.34073e-05
0.000142936
-3.88823e-05
0.000149593
-4.41082e-05
0.000154373
-4.88906e-05
0.000157438
-5.30248e-05
0.000159005
-5.63016e-05
0.000159373
-5.85193e-05
0.000158958
-5.95083e-05
0.000158325
-5.91704e-05
0.000158234
-5.75396e-05
0.000159658
-5.48485e-05
0.000163649
0.000171163
-5.15067e-05
-5.75226e-07
1.39578e-05
-2.16437e-06
3.86621e-05
-4.66045e-06
6.12053e-05
-7.94273e-06
8.149e-05
-1.18791e-05
9.94536e-05
-1.63277e-05
0.000115069
-2.11377e-05
0.000128337
-2.61492e-05
0.000139289
-3.11921e-05
0.000147979
-3.60844e-05
0.000154486
-4.06301e-05
0.000158919
-4.46171e-05
0.000161425
-4.78177e-05
0.000162205
-4.9992e-05
0.000161548
-5.09e-05
0.000159866
-5.03274e-05
0.000157752
-4.81304e-05
0.000156037
-4.43111e-05
0.000155839
-3.91145e-05
0.000158452
0.000165039
-3.29911e-05
-5.4896e-07
1.45067e-05
-2.06092e-06
4.01741e-05
-4.42725e-06
6.35716e-05
-7.5248e-06
8.45875e-05
-1.12184e-05
0.000103147
-1.53624e-05
0.000119213
-1.98014e-05
0.000132776
-2.43693e-05
0.000143857
-2.88887e-05
0.000152498
-3.31674e-05
0.000158764
-3.6996e-05
0.000162748
-4.01447e-05
0.000164573
-4.23611e-05
0.000164422
-4.33732e-05
0.00016256
-4.28987e-05
0.000159391
-4.06719e-05
0.000155526
-3.64934e-05
0.000151859
-3.03191e-05
0.000149665
-2.24187e-05
0.000150552
0.000155966
-1.33455e-05
-5.22971e-07
1.50297e-05
-1.95742e-06
4.16086e-05
-4.19206e-06
6.58063e-05
-7.10043e-06
8.74959e-05
-1.05435e-05
0.00010659
-1.43712e-05
0.00012304
-1.84225e-05
0.000136828
-2.25252e-05
0.00014796
-2.64934e-05
0.000156466
-3.01249e-05
0.000162396
-3.31965e-05
0.000165819
-3.54598e-05
0.000166837
-3.66374e-05
0.000165599
-3.64231e-05
0.000162345
-3.44892e-05
0.000157457
-3.0512e-05
0.000151548
-2.4226e-05
0.000145573
-1.55099e-05
0.000140949
-4.55352e-06
0.000139595
0.000143867
7.54541e-06
-4.97366e-07
1.55271e-05
-1.85418e-06
4.29654e-05
-3.95535e-06
6.79074e-05
-6.67014e-06
9.02107e-05
-9.85467e-06
0.000109775
-1.33534e-05
0.000126539
-1.69994e-05
0.000140474
-2.06132e-05
0.000151573
-2.40002e-05
0.000159853
-2.69472e-05
0.000165343
-2.92169e-05
0.000168089
-3.05422e-05
0.000168162
-3.06199e-05
0.000165677
-2.91084e-05
0.000160834
-2.56317e-05
0.00015398
-1.98017e-05
0.000145718
-1.12787e-05
0.00013705
9.08292e-08
0.000129579
1.4233e-05
0.000125453
0.000127837
3.02629e-05
-4.72229e-07
1.59993e-05
-1.7514e-06
4.42445e-05
-3.71741e-06
6.98734e-05
-6.23403e-06
9.27273e-05
-9.15152e-06
0.000112692
-1.2308e-05
0.000129696
-1.55293e-05
0.000143695
-1.86279e-05
0.000154672
-2.13999e-05
0.000162625
-2.36204e-05
0.000167563
-2.50373e-05
0.000169506
-2.53643e-05
0.000168489
-2.42723e-05
0.000164585
-2.13834e-05
0.000157945
-1.62708e-05
0.000148868
-8.47702e-06
0.000137925
2.4317e-06
0.000126141
1.67403e-05
0.00011527
3.42958e-05
0.000107898
0.000107803
5.43302e-05
-4.47619e-07
1.64469e-05
-1.6492e-06
4.54461e-05
-3.47827e-06
7.17025e-05
-5.79185e-06
9.50409e-05
-8.43306e-06
0.000115334
-1.12324e-05
0.000132495
-1.40076e-05
0.00014647
-1.65619e-05
0.000157226
-1.86808e-05
0.000164744
-2.01267e-05
0.000169009
-2.06322e-05
0.000170011
-1.98911e-05
0.000167748
-1.7548e-05
0.000162242
-1.31884e-05
0.000153585
-6.33383e-06
0.000142013
3.54698e-06
0.000128044
1.69886e-05
0.0001127
3.43889e-05
9.787e-05
5.57036e-05
8.65831e-05
8.3401e-05
8.01054e-05
-4.23569e-07
1.68705e-05
-1.5476e-06
4.65701e-05
-3.23777e-06
7.33927e-05
-5.34291e-06
9.7146e-05
-7.69765e-06
0.000117688
-1.01235e-05
0.000134921
-1.24287e-05
0.000148775
-1.44056e-05
0.000159203
-1.58279e-05
0.000166166
-1.64441e-05
0.000169625
-1.59702e-05
0.000169537
-1.40793e-05
0.000165857
-1.03894e-05
0.000158552
-4.44961e-06
0.000147645
4.27042e-06
0.000133293
1.63777e-05
0.000115937
3.25153e-05
9.65618e-05
5.32215e-05
7.71638e-05
7.85813e-05
6.12234e-05
5.42248e-05
0.000107757
-4.00086e-07
1.72706e-05
-1.44651e-06
4.76166e-05
-2.9955e-06
7.49417e-05
-4.88614e-06
9.90367e-05
-6.94298e-06
0.000119745
-8.97704e-06
0.000136955
-1.07851e-05
0.000150583
-1.21475e-05
0.000160566
-1.28238e-05
0.000166843
-1.25471e-05
0.000169349
-1.10148e-05
0.000168005
-7.87845e-06
0.00016272
-2.72863e-06
0.000153402
4.92146e-06
0.000139995
1.5653e-05
0.000122562
3.01483e-05
0.000101441
4.91641e-05
7.7546e-05
7.3398e-05
5.293e-05
0.000103101
3.15204e-05
1.9843e-05
0.000137483
-3.77149e-07
1.76477e-05
-1.34573e-06
4.85851e-05
-2.75081e-06
7.63468e-05
-4.42001e-06
0.000100706
-6.16608e-06
0.000121491
-7.78766e-06
0.000138577
-9.06836e-06
0.000151864
-9.77403e-06
0.000161271
-9.64829e-06
0.000166717
-8.40599e-06
0.000168106
-5.72428e-06
0.000165323
-1.23073e-06
0.000158227
5.51227e-06
0.000146659
1.50272e-05
0.00013048
2.79439e-05
0.000109645
4.50173e-05
8.43679e-05
6.71176e-05
5.54457e-05
9.51156e-05
2.4932e-05
0.000129467
-2.83129e-06
-2.01945e-05
0.000169505
-3.54712e-07
1.80024e-05
-1.24497e-06
4.94754e-05
-2.50283e-06
7.76046e-05
-3.94259e-06
0.000102146
-5.3633e-06
0.000122912
-6.5492e-06
0.000139762
-7.26844e-06
0.000152583
-7.26996e-06
0.000161273
-6.27859e-06
0.000165726
-3.98818e-06
0.000165816
-5.23747e-08
0.000161388
5.92777e-06
0.000152247
1.44199e-05
0.000138167
2.59823e-05
0.000118918
4.12907e-05
9.43366e-05
6.11669e-05
6.44918e-05
8.65892e-05
3.00233e-05
0.000118608
-7.08654e-06
0.000157918
-4.21419e-05
-6.6341e-05
0.000204065
-3.32698e-07
1.83351e-05
-1.14381e-06
5.02865e-05
-2.2504e-06
7.87112e-05
-3.4515e-06
0.000103347
-4.53032e-06
0.000123991
-5.25446e-06
0.000140487
-5.37406e-06
0.000152703
-4.61825e-06
0.000160517
-2.68982e-06
0.000163797
7.41985e-07
0.000162384
6.05092e-06
0.000156079
1.3666e-05
0.000144632
2.40878e-05
0.000127745
3.79112e-05
0.000105095
5.5855e-05
7.63928e-05
7.87999e-05
4.15469e-05
0.00010782
1.0028e-06
0.000144141
-4.34071e-05
0.000188723
-8.6724e-05
-0.000119035
0.000241417
-3.11001e-07
1.86461e-05
-1.04171e-06
5.10172e-05
-1.99214e-06
7.96616e-05
-2.94389e-06
0.000104298
-3.66214e-06
0.000124709
-3.89529e-06
0.00014072
-3.37265e-06
0.00015218
-1.80026e-06
0.000158945
1.14491e-06
0.000160852
5.82255e-06
0.000157706
1.26384e-05
0.000149263
2.20564e-05
0.000135214
3.46141e-05
0.000115188
5.09446e-05
8.87642e-05
7.18078e-05
5.55296e-05
9.81334e-05
1.52213e-05
0.000131074
-3.19377e-05
0.000172009
-8.43423e-05
0.000222177
-0.000136892
-0.000178677
0.000281819
-2.89477e-07
1.89356e-05
-9.38003e-07
5.16658e-05
-1.72634e-06
8.045e-05
-2.41645e-06
0.000104989
-2.75301e-06
0.000125046
-2.46254e-06
0.000140429
-1.25037e-06
0.000150968
1.20418e-06
0.00015649
5.25429e-06
0.000156802
1.12935e-05
0.000151667
1.97651e-05
0.000140791
3.11736e-05
0.000123805
4.60988e-05
0.000100262
6.52156e-05
6.96474e-05
8.93233e-05
3.14219e-05
0.000119391
-1.4846e-05
0.000156624
-6.9171e-05
0.000202524
-0.000130242
0.000258594
-0.000192962
-0.000245605
0.000325522
-2.67946e-07
1.92036e-05
-8.31867e-07
5.22297e-05
-1.45101e-06
8.10691e-05
-1.86532e-06
0.000105403
-1.79642e-06
0.000124977
-9.46034e-07
0.000139579
1.00788e-06
0.000149014
4.41676e-06
0.000153081
9.66861e-06
0.00015155
1.71963e-05
0.00014414
2.7487e-05
0.0001305
4.10924e-05
0.0001102
5.86413e-05
8.27136e-05
8.0855e-05
4.74336e-05
0.000108572
3.70455e-06
0.000142791
-4.90647e-05
0.000184744
-0.000111124
0.000235999
-0.000181498
0.000298294
-0.000255257
-0.000320063
0.000372751
-2.46185e-07
1.94497e-05
-7.22332e-07
5.27058e-05
-1.16382e-06
8.15106e-05
-1.2861e-06
0.000105525
-7.85054e-07
0.000124476
6.65489e-07
0.000138128
3.41855e-06
0.000146261
7.86065e-06
0.000148639
1.44197e-05
0.000144991
2.35738e-05
0.000134985
3.58608e-05
0.000118214
5.18871e-05
9.41735e-05
7.23377e-05
6.2263e-05
9.79868e-05
2.17845e-05
0.000129715
-2.80231e-05
0.000168539
-8.78892e-05
0.000215689
-0.000158273
0.000272735
-0.000238544
0.000341585
-0.000324107
-0.000402164
0.000423686
-2.2392e-07
1.96737e-05
-6.08246e-07
5.30902e-05
-8.62046e-07
8.17644e-05
-6.73782e-07
0.000105337
2.89301e-07
0.000123513
2.38444e-06
0.000136033
5.99952e-06
0.000142646
1.15606e-05
0.000143078
1.95408e-05
0.000137011
3.04699e-05
0.000124056
4.49431e-05
0.00010374
6.36295e-05
7.5487e-05
8.72786e-05
3.86139e-05
0.000116724
-7.66126e-06
0.000152892
-6.41905e-05
0.000196813
-0.00013181
0.000249683
-0.000211144
0.000312996
-0.000301857
0.000388749
-0.00039986
-0.000491857
0.000478442
-2.00827e-07
1.98745e-05
-4.88271e-07
5.33776e-05
-5.42606e-07
8.18187e-05
-2.25957e-08
0.000104817
1.43577e-06
0.000122054
4.22448e-06
0.000133244
8.77009e-06
0.0001381
1.55429e-05
0.000136305
2.50667e-05
0.000127487
3.7929e-05
0.000111194
5.47898e-05
8.68795e-05
7.63886e-05
5.38883e-05
0.000103547
1.14555e-05
0.000137167
-4.12809e-05
0.000178222
-0.000105245
0.000227754
-0.000181343
0.000286902
-0.000270292
0.000356993
-0.000371948
0.000440019
-0.000482886
-0.000588883
0.000537045
-1.76521e-07
2.0051e-05
-3.60862e-07
5.35619e-05
-2.01996e-07
8.16599e-05
6.73533e-07
0.000103941
2.66447e-06
0.000120063
6.20054e-06
0.000129708
1.17512e-05
0.00013255
1.98356e-05
0.000128221
3.10337e-05
0.000116289
4.59968e-05
9.62309e-05
6.54563e-05
6.742e-05
9.02292e-05
2.91154e-05
0.000121217
-1.9532e-05
0.000159395
-7.94588e-05
0.000205792
-0.000151642
0.000261459
-0.000237011
0.000327458
-0.00033629
0.000404866
-0.000449356
0.000495569
-0.000573589
-0.000692734
0.00059942
-1.50553e-07
2.02016e-05
-2.24257e-07
5.36356e-05
1.63753e-07
8.12719e-05
1.42194e-06
0.000102683
3.98658e-06
0.000117499
8.32889e-06
0.000125366
1.49652e-05
0.000125914
2.44682e-05
0.000118718
3.74793e-05
0.000103278
5.47192e-05
7.89911e-05
7.69964e-05
4.51427e-05
0.000105211
9.00583e-07
0.00014035
-5.46709e-05
0.000183469
-0.000122577
0.000235654
-0.000203828
0.000297969
-0.000299326
0.000371385
-0.000409707
0.000456669
-0.00053464
0.000555503
-0.000672423
-0.00080262
0.000665389
-1.2241e-07
2.0324e-05
-7.6439e-08
5.35897e-05
5.59022e-07
8.06364e-05
2.23032e-06
0.000101012
5.41427e-06
0.000114315
1.06271e-05
0.000120153
1.84361e-05
0.000118105
2.94722e-05
0.000107682
4.44426e-05
8.83073e-05
6.41424e-05
5.92913e-05
8.9462e-05
1.9823e-05
0.000121389
-3.10262e-05
0.000160997
-9.42795e-05
0.000209425
-0.000171004
0.00026782
-0.000262223
0.00033726
-0.000368766
0.000418627
-0.000491073
0.000512347
-0.00062836
0.000619797
-0.000779872
-0.000917576
0.000734752
-9.15262e-08
2.04155e-05
8.46793e-08
5.34135e-05
9.88649e-07
7.97324e-05
3.10713e-06
9.88934e-05
6.96068e-06
0.000110461
1.31141e-05
0.000114
2.21895e-05
0.000109029
3.48799e-05
9.49914e-05
5.19632e-05
7.12241e-05
7.43122e-05
3.69422e-05
0.000102902
-8.76683e-06
0.000138808
-6.6932e-05
0.000183192
-0.000138663
0.000237269
-0.000225082
0.000302253
-0.000327207
0.000379242
-0.000445756
0.00046905
-0.000580881
0.000571792
-0.000731103
0.000688199
-0.000896278
-0.00103692
0.000807547
-5.72563e-08
2.04728e-05
2.61553e-07
5.30947e-05
1.45786e-06
7.85361e-05
4.06151e-06
9.62898e-05
8.63986e-06
0.000105883
1.58097e-05
0.00010683
2.62517e-05
9.85872e-05
4.07251e-05
8.0518e-05
6.00812e-05
5.1868e-05
8.52733e-05
1.17501e-05
0.000117361
-4.08546e-05
0.000157505
-0.000107076
0.000206947
-0.000188105
0.000266974
-0.000285109
0.000338852
-0.000399085
0.000423723
-0.000530627
0.000522433
-0.000679591
0.000635051
-0.00084372
0.000760708
-0.00102193
-0.00116037
0.000884151
-1.89069e-08
2.04917e-05
4.56811e-07
5.26189e-05
1.97226e-06
7.70207e-05
5.10312e-06
9.31589e-05
1.04666e-05
0.000100519
1.87347e-05
9.85618e-05
3.06502e-05
8.66716e-05
4.70416e-05
6.41267e-05
6.8836e-05
3.00736e-05
9.70675e-05
-1.64814e-05
0.000132877
-7.66646e-05
0.000177504
-0.000151702
0.000232255
-0.000242856
0.000298466
-0.00035132
0.000377436
-0.000478055
0.000470346
-0.000623538
0.000578212
-0.000787457
0.000701851
-0.000967359
0.000839786
-0.00115987
-0.00128414
0.000963558
2.41817e-08
2.04675e-05
6.72937e-07
5.19702e-05
2.53742e-06
7.51562e-05
6.24172e-06
8.94546e-05
1.24557e-05
9.43053e-05
2.191e-05
8.91075e-05
3.54124e-05
7.31693e-05
5.38629e-05
4.56762e-05
7.82653e-05
5.67114e-06
0.000109733
-4.79487e-05
0.000149482
-0.000116413
0.000198814
-0.000201035
0.000259082
-0.000303124
0.000331633
-0.000423871
0.000417746
-0.000564169
0.000518578
-0.000724369
0.000635195
-0.000904074
0.000768997
-0.00110116
0.000923527
-0.0013144
-0.00150385
0.00114323
7.29623e-08
2.03945e-05
9.13191e-07
5.113e-05
3.15994e-06
7.29094e-05
7.48824e-06
8.51263e-05
1.46235e-05
8.71701e-05
2.53575e-05
7.83734e-05
4.05657e-05
5.79611e-05
6.1221e-05
2.50208e-05
8.84035e-05
-2.15113e-05
0.0001233
-8.28452e-05
0.000167192
-0.000160305
0.000221426
-0.000255269
0.000287365
-0.000369063
0.000366321
-0.000502827
0.000459477
-0.000657325
0.00056783
-0.000832722
0.000692227
-0.00102847
0.000834006
-0.00124294
0.000994918
-0.00147531
-0.00170117
0.00119225
1.28151e-07
2.02664e-05
1.18025e-06
5.00779e-05
3.84569e-06
7.0244e-05
8.85272e-06
8.01193e-05
1.69848e-05
7.9038e-05
2.90976e-05
6.62607e-05
4.61357e-05
4.0923e-05
6.91454e-05
2.0111e-06
9.92798e-05
-5.16457e-05
0.000137792
-0.000121358
0.000186014
-0.000208527
0.000245311
-0.000314566
0.000317019
-0.000440771
0.000402352
-0.00058816
0.000502309
-0.000757282
0.000617594
-0.000948006
0.00074857
-0.00115945
0.000895721
-0.00139009
0.00105839
-0.00163798
-0.00188667
0.00124388
1.90554e-07
2.00758e-05
1.47702e-06
4.87914e-05
4.60072e-06
6.71203e-05
1.03453e-05
7.43747e-05
1.95546e-05
6.98288e-05
3.31498e-05
5.26654e-05
5.21459e-05
2.19269e-05
7.76612e-05
-2.35041e-05
0.000110917
-8.49012e-05
0.000153221
-0.000163662
0.000205937
-0.000261242
0.000270417
-0.000379046
0.000347922
-0.000518276
0.000439508
-0.000679746
0.000545904
-0.000863679
0.000667407
-0.00106951
0.000803764
-0.0012958
0.000954465
-0.00154079
0.00111746
-0.00180098
-0.00206376
0.00129456
2.60976e-07
1.98148e-05
1.80634e-06
4.7246e-05
5.43096e-06
6.34957e-05
1.19758e-05
6.78299e-05
2.23467e-05
5.94579e-05
3.75321e-05
3.748e-05
5.8617e-05
8.42029e-07
8.67883e-05
-5.16755e-05
0.000123328
-0.000121441
0.000169585
-0.00020992
0.000226927
-0.000318585
0.00029666
-0.000448779
0.000379919
-0.000601535
0.000477535
-0.000777362
0.000589891
-0.000976035
0.000716795
-0.00119641
0.000857337
-0.00143635
0.00101007
-0.00169352
0.00117204
-0.00196295
-0.0022339
0.00134217
3.40193e-07
1.94746e-05
2.17094e-06
4.54153e-05
6.34197e-06
5.93247e-05
1.37531e-05
6.04188e-05
2.53737e-05
4.78372e-05
4.22599e-05
2.05939e-05
6.55649e-05
-2.2463e-05
9.65396e-05
-8.26502e-05
0.000136515
-0.000161416
0.000186864
-0.000260268
0.00024893
-0.00038065
0.000323928
-0.000523778
0.000412816
-0.000690422
0.000516135
-0.000880681
0.000633854
-0.00109375
0.000765244
-0.0013278
0.000908742
-0.00157984
0.00106207
-0.00184685
0.00122169
-0.00212258
-0.00239739
0.00138519
4.28944e-07
1.90457e-05
2.57336e-06
4.32709e-05
7.33888e-06
5.45591e-05
1.56853e-05
5.20724e-05
2.86465e-05
3.48759e-05
4.73454e-05
1.89498e-06
7.30008e-05
-4.81183e-05
0.00010692
-0.000116569
0.00015047
-0.000204966
0.000205021
-0.00031482
0.000271863
-0.000447492
0.000352074
-0.000603989
0.000446375
-0.000784724
0.000554961
-0.000989266
0.000677335
-0.00121613
0.000812204
-0.00146267
0.00095739
-0.00172503
0.00110994
-0.00199939
0.00126597
-0.00227862
-0.00255396
0.00142254
5.27908e-07
1.85178e-05
3.01592e-06
4.07828e-05
8.42622e-06
4.91488e-05
1.77794e-05
4.27192e-05
3.21737e-05
2.04816e-05
5.27973e-05
-1.87286e-05
8.09295e-05
-7.62505e-05
0.000117924
-0.000153563
0.000165166
-0.000252208
0.000223999
-0.000373653
0.000295615
-0.000519108
0.000380912
-0.000689285
0.00048032
-0.000884131
0.000593628
-0.00110258
0.000719842
-0.00134234
0.000857105
-0.00159993
0.00100269
-0.00187062
0.00115314
-0.00214984
0.00130443
-0.00242991
-0.00270308
0.00145356
6.37698e-07
1.78801e-05
3.50063e-06
3.79199e-05
9.60784e-06
4.30416e-05
2.00408e-05
3.22862e-05
3.59614e-05
4.56103e-06
5.86198e-05
-4.13871e-05
8.93491e-05
-0.00010698
0.000129536
-0.00019375
0.000180563
-0.000303235
0.000243716
-0.000436806
0.00032005
-0.000595442
0.000410227
-0.000779462
0.000514334
-0.000988239
0.000631718
-0.00121996
0.000760864
-0.00147149
0.000899382
-0.00173845
0.00104409
-0.00201533
0.0011912
-0.00229695
0.00133674
-0.00257545
-0.00284422
0.00147788
7.58849e-07
1.71212e-05
4.0292e-06
3.46496e-05
1.08868e-05
3.61841e-05
2.24734e-05
2.06996e-05
4.00127e-05
-1.29782e-05
6.48125e-05
-6.61869e-05
9.82499e-05
-0.000140417
0.000141729
-0.00023723
0.000196606
-0.000358112
0.00026407
-0.000504271
0.000344998
-0.00067637
0.000439767
-0.000874231
0.000548075
-0.00109655
0.000668791
-0.00134068
0.000799889
-0.00160259
0.000938499
-0.00187706
0.0010811
-0.00215793
0.00122375
-0.00243959
0.00136267
-0.00271437
-0.00297694
0.00149539
8.9181e-07
1.62294e-05
4.60297e-06
3.09384e-05
1.22652e-05
2.85218e-05
2.50794e-05
7.88536e-06
4.43279e-05
-3.22267e-05
7.13695e-05
-9.32286e-05
0.000107614
-0.000176662
0.000154464
-0.00028408
0.000213219
-0.000416866
0.000284937
-0.00057599
0.000370268
-0.000761701
0.000469257
-0.00097322
0.000581173
-0.00120846
0.000704398
-0.0014639
0.00083642
-0.00173461
0.00097397
-0.00201461
0.00111331
-0.00229727
0.00125051
-0.0025768
0.00138215
-0.00284601
-0.00310096
0.00150617
1.03694e-06
1.51925e-05
5.2229e-06
2.67524e-05
1.37443e-05
2.00004e-05
2.78591e-05
-6.22938e-06
4.89036e-05
-5.32712e-05
7.82798e-05
-0.000122605
0.000117415
-0.000215797
0.000167689
-0.000334353
0.000230312
-0.000479489
0.000306171
-0.000651849
0.000395642
-0.000851172
0.000498397
-0.00107597
0.000613251
-0.00132332
0.000738102
-0.00158875
0.000870002
-0.00186651
0.00100538
-0.00214999
0.00114043
-0.00243231
0.00127138
-0.00270775
0.00139526
-0.00296989
-0.0032162
0.0015105
1.19451e-06
1.3998e-05
5.88956e-06
2.20574e-05
1.53243e-05
1.05656e-05
3.08106e-05
-2.17156e-05
5.37331e-05
-7.61938e-05
8.55263e-05
-0.000154398
0.000127619
-0.00025789
0.00018134
-0.000388074
0.000247778
-0.000545927
0.000327607
-0.000731678
0.000420885
-0.00094445
0.000526875
-0.00118196
0.000643928
-0.00144037
0.000769484
-0.00171431
0.000900232
-0.00199726
0.00103242
-0.00228218
0.00116227
-0.00256217
0.00128635
-0.00283183
0.0014022
-0.00308574
-0.00332275
0.00150875
1.36469e-06
1.26333e-05
6.60307e-06
1.6819e-05
1.70045e-05
1.64248e-07
3.39301e-05
-3.86413e-05
5.8806e-05
-0.00010107
9.30861e-05
-0.000188678
0.000138181
-0.000302985
0.00019534
-0.000445233
0.000265495
-0.000616082
0.000349062
-0.000815245
0.000445746
-0.00104113
0.000554375
-0.00129059
0.000672839
-0.00155883
0.000798168
-0.00183964
0.000926775
-0.00212586
0.00105484
-0.00241024
0.00117878
-0.0026861
0.00129556
-0.00294861
0.00140329
-0.00319347
-0.00342086
0.00150139
1.54756e-06
1.10857e-05
7.36315e-06
1.10034e-05
1.87828e-05
-1.12554e-05
3.72118e-05
-5.70704e-05
6.41081e-05
-0.000127966
0.000100931
-0.0002255
0.000149048
-0.000351102
0.000209602
-0.000505787
0.000283327
-0.000689807
0.000370342
-0.000902261
0.000469965
-0.00114076
0.00058058
-0.00140121
0.000699639
-0.00167789
0.000823824
-0.00196382
0.000949375
-0.00225141
0.00107253
-0.0025334
0.00118999
-0.00280356
0.00129923
-0.00305785
0.00139891
-0.00329315
-0.0035109
0.00148895
1.7431e-06
9.34263e-06
8.16909e-06
4.57743e-06
2.06562e-05
-2.37425e-05
4.06475e-05
-7.70617e-05
6.96215e-05
-0.00015694
0.000109025
-0.000264904
0.00016016
-0.000402238
0.000224028
-0.000569655
0.000301126
-0.000766905
0.000391243
-0.000992378
0.000493283
-0.0012428
0.000605191
-0.00151312
0.000724019
-0.00179672
0.000846183
-0.00208598
0.00096786
-0.00237309
0.00108546
-0.00265099
0.00119606
-0.00291417
0.00129767
-0.00315946
0.00138953
-0.00338501
-0.00359333
0.00147196
1.95118e-06
7.39145e-06
9.0197e-06
-2.49109e-06
2.26208e-05
-3.73436e-05
4.42268e-05
-9.86677e-05
7.53245e-05
-0.000188038
0.000117329
-0.000306908
0.000171449
-0.000456358
0.000238509
-0.000636715
0.000318735
-0.000847131
0.000411553
-0.0010852
0.000515444
-0.00134669
0.000627926
-0.0016256
0.000745711
-0.00191451
0.000865042
-0.00220532
0.000982142
-0.00249019
0.00109369
-0.00276254
0.00119721
-0.00301769
0.00129127
-0.00325352
0.00137563
-0.00346937
-0.00366868
0.00145098
2.1716e-06
5.21985e-06
9.91335e-06
-1.02328e-05
2.46711e-05
-5.21013e-05
4.79372e-05
-0.000121934
8.11917e-05
-0.000221292
0.000125796
-0.000351512
0.000182838
-0.000513399
0.000252929
-0.000706807
0.000335993
-0.000930194
0.000431065
-0.00118027
0.000536203
-0.00145182
0.000648533
-0.00173793
0.000764501
-0.00203047
0.000880269
-0.00232108
0.000992211
-0.00260213
0.00109736
-0.00286769
0.00119374
-0.00311407
0.00128044
-0.00334022
0.0013577
-0.00354664
-0.0037375
0.00142653
2.40402e-06
2.81583e-06
1.08479e-05
-1.86768e-05
2.68008e-05
-6.80542e-05
5.17639e-05
-0.000146897
8.71941e-05
-0.000256722
0.000134376
-0.000398694
0.000194244
-0.000573267
0.000267168
-0.00077973
0.000352732
-0.00101576
0.000449573
-0.00127711
0.000555333
-0.00155759
0.000666799
-0.00184939
0.000780225
-0.0021439
0.000891798
-0.00243266
0.000998133
-0.00270847
0.00109668
-0.00296624
0.00118597
-0.00320336
0.0012656
-0.00341985
0.00133624
-0.00361727
-0.00380035
0.00139909
2.64801e-06
1.67818e-07
1.18209e-05
-2.78497e-05
2.90024e-05
-8.52357e-05
5.569e-05
-0.000173585
9.32992e-05
-0.000294331
0.000143012
-0.000448407
0.000205581
-0.000635836
0.000281098
-0.000855248
0.000368789
-0.00110345
0.000466881
-0.0013752
0.000572632
-0.00166334
0.000682547
-0.00195931