/*--------------------------------*- C++ -*----------------------------------*\
  =========                 |
  \\      /  F ield         | OpenFOAM: The Open Source CFD Toolbox
   \\    /   O peration     | Website:  https://openfoam.org
    \\  /    A nd           | Version:  7
     \\/     M anipulation  |
\*---------------------------------------------------------------------------*/
FoamFile
{
    version     2.0;
    format      ascii;
    class       surfaceScalarField;
    location    "20";
    object      phi;
}
// * * * * * * * * * * * * * * * * * * * * * * * * * * * * * * * * * * * * * //

dimensions      [0 3 -1 0 0 0 0];

internalField   nonuniform List<scalar> 
6386
(
-0.00492625
-0.00080272
-0.00075041
-0.00457567
-0.00479901
-0.000877653
-0.000687635
-0.00424564
-0.000814644
-0.00444866
-0.00466325
-0.000950399
-0.000742137
-0.00412532
-0.000875225
-0.00431558
-0.00451777
-0.00102071
-0.000669618
-0.00381682
-0.000793623
-0.00400131
-0.000930913
-0.00417829
-0.00435926
-0.00108943
-0.000598373
-0.00351222
-0.00071602
-0.00369918
-0.000842854
-0.00387448
-0.000977809
-0.00404333
-0.00421187
-0.0011252
-0.000639583
-0.00339958
-0.000761528
-0.00357723
-0.000892328
-0.00374368
-0.00103171
-0.00390395
-0.00406143
-0.00118214
-0.000562447
-0.00309832
-0.000679527
-0.0032825
-0.000805764
-0.00345099
-0.000940739
-0.00360871
-0.00108436
-0.00376032
-0.00390851
-0.00123729
-0.000484958
-0.00279221
-0.000596678
-0.0029866
-0.000718007
-0.00316117
-0.000848331
-0.00332067
-0.000987206
-0.00346983
-0.00113444
-0.00361309
-0.00375292
-0.00129004
-0.00051367
-0.00268654
-0.000629552
-0.00287071
-0.000754894
-0.00303583
-0.000889046
-0.00318652
-0.00103151
-0.00332736
-0.00118199
-0.00346261
-0.00359471
-0.00134019
-0.000431475
-0.00238028
-0.00054119
-0.00257683
-0.000661005
-0.0027509
-0.000790118
-0.00290672
-0.000927843
-0.00304879
-0.00107364
-0.00318157
-0.00122711
-0.00330913
-0.00343395
-0.00138787
-0.000453935
-0.00227763
-0.000567478
-0.00246329
-0.000690996
-0.00262738
-0.000823647
-0.00277407
-0.000964711
-0.00290773
-0.00111361
-0.00303267
-0.00126991
-0.00315283
-0.00327068
-0.00143319
-0.000369013
-0.00197233
-0.000475348
-0.00217129
-0.0005925
-0.00234613
-0.000719501
-0.00250038
-0.000855469
-0.0026381
-0.000999661
-0.00276354
-0.00115148
-0.00288085
-0.00131047
-0.00299384
-0.00310492
-0.00147623
-0.000385886
-0.00187434
-0.000495689
-0.00206149
-0.000616235
-0.00222559
-0.000746503
-0.00237011
-0.000885582
-0.00249902
-0.00103271
-0.00261641
-0.00118728
-0.00272628
-0.00134885
-0.00283226
-0.00293672
-0.00151705
-0.000401872
-0.00177309
-0.000514936
-0.00194842
-0.000638665
-0.00210186
-0.000771994
-0.00223678
-0.000913987
-0.00235703
-0.00106387
-0.00246653
-0.00122105
-0.00256911
-0.00138509
-0.00266822
-0.00276615
-0.00155566
-0.000312634
-0.00148192
-0.000416952
-0.00166877
-0.000533068
-0.00183231
-0.000659774
-0.00197515
-0.000795964
-0.00210059
-0.000940684
-0.00221231
-0.00109316
-0.00231405
-0.0012528
-0.00240946
-0.0014192
-0.00250182
-0.00259328
-0.00159208
-0.000323926
-0.00138785
-0.000431107
-0.00156159
-0.00055007
-0.00171334
-0.00067955
-0.00184567
-0.000818407
-0.00196174
-0.000965671
-0.00206504
-0.00112057
-0.00215915
-0.00128254
-0.0022475
-0.00145119
-0.00233316
-0.00241818
-0.00162629
-0.000334479
-0.00129119
-0.000444321
-0.00145175
-0.000565927
-0.00159174
-0.00069798
-0.00171362
-0.000839312
-0.00182041
-0.000988944
-0.00191541
-0.00114611
-0.00200199
-0.00131026
-0.00208335
-0.00148105
-0.00216237
-0.00224096
-0.00165827
-0.000245204
-0.00102404
-0.000344278
-0.00119211
-0.000456578
-0.00133945
-0.000580625
-0.00146769
-0.000715053
-0.00157919
-0.000858672
-0.00167679
-0.00101049
-0.00176359
-0.00116976
-0.00184272
-0.00133595
-0.00191716
-0.00150875
-0.00198958
-0.00206173
-0.00168798
-0.000252022
-0.000937635
-0.000353308
-0.00109082
-0.000467865
-0.00122489
-0.00059415
-0.00134141
-0.000730757
-0.00144258
-0.000876474
-0.00153107
-0.00103031
-0.00160975
-0.00119152
-0.00168151
-0.00135961
-0.00174908
-0.00153427
-0.00181491
-0.00188061
-0.00171539
-0.000258256
-0.000849334
-0.000361559
-0.000987522
-0.00047817
-0.00110828
-0.000606491
-0.00121309
-0.00074508
-0.00130399
-0.000892708
-0.00138344
-0.00104839
-0.00145407
-0.00121138
-0.00151851
-0.0013812
-0.00157926
-0.00155759
-0.00163852
-0.00169775
-0.00174045
-0.000263895
-0.000759317
-0.000369017
-0.0008824
-0.00048748
-0.000989815
-0.000617635
-0.00108293
-0.000758011
-0.00116362
-0.000907362
-0.00123409
-0.0010647
-0.00129673
-0.0012293
-0.00135391
-0.00140071
-0.00140786
-0.00157868
-0.00146055
-0.00151328
-0.00176314
-0.000268932
-0.000667769
-0.000375674
-0.000775658
-0.000495785
-0.000869704
-0.000627573
-0.000951144
-0.000769537
-0.00102165
-0.000920424
-0.00108321
-0.00107925
-0.00113791
-0.00124529
-0.00118787
-0.00141811
-0.00123504
-0.00159751
-0.00128116
-0.00132737
-0.00178342
-0.000180467
-0.00046967
-0.000273357
-0.000574879
-0.000381519
-0.000667496
-0.000503075
-0.000748148
-0.000636292
-0.000817927
-0.000779649
-0.000878296
-0.000931882
-0.000930972
-0.00109201
-0.000977787
-0.00125932
-0.00102055
-0.0014334
-0.00106096
-0.00161404
-0.00110051
-0.00114017
-0.00180124
-0.00018312
-0.000392972
-0.000277164
-0.000480834
-0.000386546
-0.000558114
-0.00050934
-0.000625354
-0.000643784
-0.000683483
-0.000788337
-0.000733743
-0.000941727
-0.000777583
-0.00110297
-0.000816542
-0.00127138
-0.000852143
-0.00144654
-0.000885807
-0.00162827
-0.000918776
-0.000951869
-0.00181658
-0.000185338
-0.000315413
-0.000280346
-0.000385826
-0.000390746
-0.000447715
-0.000514574
-0.000501525
-0.000650041
-0.000548016
-0.000795591
-0.000588193
-0.000949946
-0.000623228
-0.00111213
-0.000654362
-0.00128145
-0.000682819
-0.00145752
-0.000709742
-0.00164016
-0.000736127
-0.000762629
-0.0018294
-0.000187118
-0.000237164
-0.000282898
-0.000290046
-0.000394113
-0.0003365
-0.000518769
-0.000376869
-0.000655055
-0.000411729
-0.000801404
-0.000441844
-0.000956533
-0.000468099
-0.00111946
-0.00049143
-0.00128952
-0.00051276
-0.00146632
-0.000532948
-0.0016497
-0.000552743
-0.000572636
-0.0018397
-0.000188456
-0.000158398
-0.000284816
-0.000193687
-0.000396642
-0.000224674
-0.00052192
-0.000251591
-0.000658821
-0.000274828
-0.00080577
-0.000294896
-0.000961479
-0.000312389
-0.00112498
-0.000327934
-0.00129559
-0.000342148
-0.00147293
-0.000355605
-0.00165687
-0.000368804
-0.000382074
-0.00184743
-0.00018935
-7.92855e-05
-0.000286096
-9.69402e-05
-0.000398331
-0.000112439
-0.000524023
-0.000125899
-0.000661334
-0.000137517
-0.000808683
-0.000147548
-0.00096478
-0.000156291
-0.00112865
-0.000164061
-0.00129963
-0.000171166
-0.00147734
-0.000177894
-0.00166165
-0.000184495
-0.000191132
-0.0018526
-0.000189797
1.05823e-11
-0.000286737
1.29969e-11
-0.000399176
1.51148e-11
-0.000525075
1.69132e-11
-0.000662592
1.84087e-11
-0.00081014
1.96151e-11
-0.000966431
2.05979e-11
-0.00113049
2.13837e-11
-0.00130166
2.20111e-11
-0.00147955
2.25072e-11
-0.00166405
2.28966e-11
2.31444e-11
-0.00185518
-0.000189797
7.92855e-05
-0.000286737
9.69402e-05
-0.000399176
0.000112439
-0.000525075
0.000125899
-0.000662592
0.000137517
-0.00081014
0.000147548
-0.000966431
0.000156292
-0.00113049
0.000164061
-0.00130166
0.000171166
-0.00147955
0.000177895
-0.00166405
0.000184495
0.000191132
-0.00185518
-0.00018935
0.000158398
-0.000286096
0.000193687
-0.000398331
0.000224674
-0.000524023
0.000251591
-0.000661334
0.000274828
-0.000808683
0.000294896
-0.00096478
0.000312389
-0.00112865
0.000327934
-0.00129963
0.000342148
-0.00147734
0.000355605
-0.00166165
0.000368804
0.000382074
-0.0018526
-0.000188456
0.000237165
-0.000284816
0.000290047
-0.000396642
0.0003365
-0.00052192
0.000376869
-0.000658821
0.000411729
-0.00080577
0.000441844
-0.000961479
0.000468099
-0.00112498
0.00049143
-0.00129559
0.00051276
-0.00147293
0.000532948
-0.00165687
0.000552743
0.000572636
-0.00184743
-0.000187118
0.000315413
-0.000282898
0.000385826
-0.000394113
0.000447715
-0.000518769
0.000501525
-0.000655055
0.000548016
-0.000801404
0.000588193
-0.000956533
0.000623228
-0.00111946
0.000654362
-0.00128952
0.000682819
-0.00146632
0.000709742
-0.0016497
0.000736127
0.000762629
-0.0018397
-0.000185338
0.000392972
-0.000280346
0.000480834
-0.000390746
0.000558114
-0.000514574
0.000625354
-0.000650041
0.000683483
-0.000795591
0.000733743
-0.000949946
0.000777583
-0.00111213
0.000816542
-0.00128145
0.000852143
-0.00145752
0.000885807
-0.00164016
0.000918776
0.000951869
-0.0018294
-0.00018312
0.00046967
-0.000277164
0.000574879
-0.000386546
0.000667496
-0.00050934
0.000748148
-0.000643784
0.000817927
-0.000788337
0.000878296
-0.000941727
0.000930972
-0.00110297
0.000977787
-0.00127138
0.00102055
-0.00144654
0.00106096
-0.00162827
0.00110051
0.00114017
-0.00181658
-0.000180467
-0.000273357
0.000667769
-0.000381519
0.000775658
-0.000503075
0.000869704
-0.000636292
0.000951144
-0.000779649
0.00102165
-0.000931882
0.00108321
-0.00109201
0.00113791
-0.00125932
0.00118787
-0.0014334
0.00123504
-0.00161404
0.00128116
0.00132737
-0.00180124
-0.000268932
0.000759317
-0.000375674
0.0008824
-0.000495785
0.000989815
-0.000627573
0.00108293
-0.000769537
0.00116362
-0.000920424
0.00123409
-0.00107925
0.00129673
-0.00124529
0.00135391
-0.00141811
0.00140786
-0.00159751
0.00146055
0.00151328
-0.00178342
-0.000263895
0.000849334
-0.000369017
0.000987522
-0.00048748
0.00110828
-0.000617635
0.00121309
-0.000758011
0.00130399
-0.000907362
0.00138344
-0.0010647
0.00145407
-0.0012293
0.00151852
-0.00140071
0.00157926
-0.00157868
0.00163852
0.00169775
-0.00176314
-0.000258256
0.000937635
-0.000361559
0.00109083
-0.00047817
0.00122489
-0.000606491
0.00134141
-0.00074508
0.00144258
-0.000892708
0.00153107
-0.00104839
0.00160975
-0.00121138
0.00168151
-0.0013812
0.00174908
-0.00155759
0.00181491
0.00188061
-0.00174045
-0.000252022
0.00102404
-0.000353308
0.00119211
-0.000467865
0.00133945
-0.00059415
0.00146769
-0.000730757
0.00157919
-0.000876474
0.00167679
-0.00103031
0.00176359
-0.00119152
0.00184272
-0.00135961
0.00191716
-0.00153427
0.00198958
0.00206173
-0.00171539
-0.000245204
-0.000344278
0.00129119
-0.000456578
0.00145175
-0.000580625
0.00159174
-0.000715053
0.00171362
-0.000858672
0.00182041
-0.00101049
0.00191541
-0.00116976
0.00200199
-0.00133595
0.00208335
-0.00150875
0.00216237
0.00224096
-0.00168798
-0.000334479
0.00138785
-0.000444321
0.00156159
-0.000565927
0.00171334
-0.00069798
0.00184567
-0.000839312
0.00196174
-0.000988944
0.00206504
-0.00114611
0.00215915
-0.00131026
0.0022475
-0.00148105
0.00233316
0.00241818
-0.00165827
-0.000323926
0.00148192
-0.000431107
0.00166877
-0.00055007
0.00183231
-0.00067955
0.00197515
-0.000818407
0.00210059
-0.000965671
0.00221231
-0.00112057
0.00231405
-0.00128254
0.00240946
-0.00145119
0.00250182
0.00259328
-0.00162629
-0.000312634
-0.000416952
0.00177309
-0.000533068
0.00194842
-0.000659774
0.00210186
-0.000795964
0.00223678
-0.000940684
0.00235703
-0.00109316
0.00246653
-0.0012528
0.00256911
-0.0014192
0.00266822
0.00276615
-0.00159208
-0.000401872
0.00187434
-0.000514936
0.00206149
-0.000638665
0.00222559
-0.000771994
0.00237011
-0.000913987
0.00249902
-0.00106387
0.00261641
-0.00122105
0.00272628
-0.00138509
0.00283226
0.00293672
-0.00155566
-0.000385886
0.00197233
-0.000495689
0.00217129
-0.000616235
0.00234613
-0.000746503
0.00250038
-0.000885582
0.0026381
-0.00103271
0.00276354
-0.00118728
0.00288085
-0.00134885
0.00299384
0.00310492
-0.00151705
-0.000369013
-0.000475348
0.00227763
-0.0005925
0.00246329
-0.000719501
0.00262738
-0.000855469
0.00277407
-0.000999661
0.00290773
-0.00115148
0.00303267
-0.00131047
0.00315283
0.00327068
-0.00147623
-0.000453935
0.00238028
-0.000567478
0.00257683
-0.000690996
0.0027509
-0.000823647
0.00290672
-0.000964711
0.00304879
-0.00111361
0.00318157
-0.00126991
0.00330913
0.00343395
-0.00143319
-0.000431475
-0.00054119
0.00268654
-0.000661005
0.00287071
-0.000790118
0.00303583
-0.000927843
0.00318652
-0.00107364
0.00332736
-0.00122711
0.00346261
0.00359471
-0.00138787
-0.00051367
0.00279221
-0.000629552
0.0029866
-0.000754894
0.00316117
-0.000889046
0.00332067
-0.00103151
0.00346983
-0.00118199
0.00361309
0.00375292
-0.00134019
-0.000484958
-0.000596678
0.00309832
-0.000718007
0.0032825
-0.000848331
0.00345099
-0.000987206
0.00360871
-0.00113444
0.00376032
0.00390851
-0.00129004
-0.000562447
-0.000679527
0.00339958
-0.000805764
0.00357723
-0.000940739
0.00374368
-0.00108436
0.00390395
0.00406143
-0.00123729
-0.000639583
0.00351222
-0.000761528
0.00369918
-0.000892328
0.00387448
-0.00103171
0.00404333
0.00421187
-0.00118214
-0.000598373
-0.00071602
0.00381682
-0.000842854
0.00400131
-0.000977809
0.00417829
0.00435926
-0.0011252
-0.000669618
-0.000793623
0.00412532
-0.000930913
0.00431558
0.00451777
-0.00108943
-0.000742137
0.00424564
-0.000875225
0.00444866
0.00466325
-0.00102071
-0.000687635
-0.000814644
0.00457567
0.00479901
-0.000950399
-0.00075041
0.00492625
-0.000877653
-0.00080272
0.00411976
-0.00113893
-0.00407026
0.00417115
-0.0010721
0.0042238
-0.00100306
0.00427625
-0.000930101
0.00432809
-0.000854556
-0.000777055
0.00438595
-0.00118614
-0.00433873
0.00443169
-0.00111784
0.00447745
-0.00104881
0.00452324
-0.00097589
0.00456885
-0.000900169
-0.000822473
0.00465653
-0.00122601
-0.00461666
0.00469621
-0.00115752
0.00473575
-0.00108835
0.00477543
-0.00101558
0.00481527
-0.000940006
-0.000862434
0.0049337
-0.0012597
-0.00490002
0.00496764
-0.00119146
0.00500152
-0.00112223
0.0050356
-0.00104966
0.00506997
-0.00097437
-0.000897074
0.00521687
-0.00128788
-0.00518869
0.00524543
-0.00122001
0.00527401
-0.00115082
0.00530284
-0.00107849
0.00533202
-0.00100355
-0.000926631
0.00550614
-0.00131073
-0.00548329
0.00552945
-0.00124331
0.00555289
-0.00117426
0.00557665
-0.00110225
0.00560086
-0.00102776
-0.00095132
0.00580175
-0.0013283
-0.00578418
0.00581987
-0.00126143
0.00583827
-0.00119265
0.0058571
-0.00112109
0.0058765
-0.00104716
-0.000971327
0.00610404
-0.00134065
-0.0060917
0.00611704
-0.00127443
0.00613048
-0.00120609
0.00614451
-0.00113511
0.00615924
-0.00106189
-0.000986805
0.00641347
-0.00134785
-0.00640627
0.00642143
-0.0012824
0.00643
-0.00121466
0.00643932
-0.00114443
0.00644949
-0.00107206
-0.000997882
0.00673053
-0.00134997
-0.00672841
0.00673354
-0.0012854
0.00673734
-0.00121846
0.00674204
-0.00114914
0.00674776
-0.00107778
0.00705575
-0.0013471
-0.00705862
0.0070539
-0.00128355
0.00705301
-0.00121757
0.0070532
-0.00114933
-0.00107915
0.00738964
-0.00133932
-0.00739741
0.00738302
-0.00127693
0.00737753
-0.00121208
0.0073733
-0.0011451
-0.00107626
0.00773268
-0.00132673
-0.00774527
0.00772139
-0.00126563
0.00771141
-0.0012021
0.00770285
-0.00113654
-0.00106921
0.00808536
-0.00130942
-0.00810268
0.00806949
-0.00124976
0.00805511
-0.00118772
0.00804232
-0.00112375
-0.00105808
0.00844815
-0.00128748
-0.00847009
0.00842781
-0.00122942
0.00840912
-0.00116903
0.00839218
-0.00110681
-0.00104297
0.00882151
-0.00126101
-0.00884798
0.00879679
-0.0012047
0.00877388
-0.00114612
0.00875289
-0.00108581
-0.00102396
0.00920592
-0.00123011
-0.00923683
0.00917691
-0.00117568
0.00914988
-0.00111909
0.00912491
-0.00106084
-0.00100113
0.00960188
-0.00119487
-0.00963712
0.00956867
-0.00114248
0.0095376
-0.00108801
0.00950873
-0.00103198
-0.000974548
0.0100099
-0.00115539
-0.0100494
0.00997259
-0.00110517
0.00993756
-0.00105298
0.00990488
-0.000999303
-0.000944291
0.0104306
-0.00111175
-0.0104742
0.0103892
-0.00106384
0.0103503
-0.00101406
0.0103139
-0.00096288
-0.000910426
0.0108645
-0.00106404
-0.0109122
0.0108192
-0.00101857
0.0107765
-0.000971335
0.0107364
-0.000922781
-0.000873018
0.0113124
-0.00101233
-0.0113641
0.0112633
-0.000969427
0.0112168
-0.00092487
0.0111731
-0.000879069
-0.000832124
0.0117751
-0.000956713
-0.0118307
0.0117222
-0.000916489
0.011672
-0.000874728
0.0116248
-0.000831803
-0.000787799
0.0122534
-0.000897243
-0.0123129
0.0121968
-0.000859815
0.012143
-0.000820968
0.0120922
-0.000781035
-0.000740091
0.0127484
-0.000833981
-0.0128116
0.012688
-0.000799462
0.0126307
-0.000763639
0.0125764
-0.000726813
-0.000689044
0.013261
-0.00076698
-0.013328
0.013197
-0.000735475
0.0131362
-0.000702786
0.0130785
-0.000669175
-0.000634696
0.0137926
-0.000696282
-0.0138633
0.013725
-0.000667894
0.0136607
-0.000638444
0.0135997
-0.000608156
-0.000577077
0.0143446
-0.00062192
-0.0144189
0.0142734
-0.000596751
0.0142056
-0.000570641
0.0141413
-0.000543781
-0.00051621
0.0149185
-0.000543919
-0.0149965
0.0148438
-0.000522067
0.0147725
-0.000499396
0.0147048
-0.000476069
-0.000452113
0.015516
-0.000462294
-0.0155976
0.0154378
-0.000443855
0.0153631
-0.000424723
0.0152921
-0.000405029
-0.000384797
0.0161391
-0.000377053
-0.0162244
0.0160574
-0.000362121
0.0159793
-0.000346625
0.0159049
-0.000330667
-0.000314265
0.01679
-0.000288198
-0.0168789
0.0167047
-0.000276867
0.0166232
-0.000265103
0.0165455
-0.000252983
-0.00024052
0.0174711
-0.000195731
-0.0175636
0.0173823
-0.000188091
0.0172974
-0.000180156
0.0172164
-0.000171976
-0.00016356
0.018185
-9.96505e-05
-0.018281
0.0180927
-9.57936e-05
0.0180043
-9.17835e-05
0.01792
-8.76469e-05
-8.33876e-05
0.0189348
-0.0190344
0.018839
0.0187472
0.0186596
0.00432362
9.02151e-05
-8.60688e-05
0.00431243
0.000247864
-0.000236677
0.00429524
0.000390282
-0.000373091
0.00427273
0.00052372
-0.00050121
0.00424544
0.000656179
-0.000628888
0.00421383
0.000790802
-0.000759194
0.00417843
0.000930785
-0.000895382
0.00413986
0.00107779
-0.00103923
0.00409897
0.00123311
-0.00119222
0.00405684
0.00139728
-0.00135516
0.00401493
0.00157027
-0.00152836
0.00397508
0.0017513
-0.00171144
0.00393958
0.00193875
-0.00190325
0.00391121
0.00212999
-0.00210162
0.00389312
0.00232122
-0.00230313
0.00388866
0.00250714
-0.00250268
0.00390071
0.00268054
-0.00269258
0.00393097
0.00283215
-0.00286241
0.00398078
0.00294649
-0.0029963
0.0029983
-0.00308778
0.00450374
9.43466e-05
0.00449251
0.000259087
0.00447531
0.000407485
0.00445284
0.00054619
0.00442572
0.000683295
0.0043945
0.000822023
0.00435981
0.000965476
0.00432241
0.00111519
0.0042833
0.00127223
0.00424375
0.00143683
0.00420541
0.00160862
0.00417031
0.0017864
0.00414093
0.00196813
0.00412016
0.00215076
0.00411119
0.00233019
0.0041173
0.00250102
0.00414134
0.00265651
0.00418549
0.00278799
0.00425009
0.00288189
0.00290967
0.00469137
9.84443e-05
0.0046802
0.000270259
0.0046631
0.000424581
0.00464084
0.000568453
0.0046141
0.000710027
0.00458353
0.000852596
0.00454986
0.000999145
0.00451399
0.00115106
0.00447706
0.00130915
0.00444053
0.00147337
0.00440618
0.00164296
0.00437624
0.00181634
0.00435328
0.00199109
0.00434023
0.00216381
0.00434023
0.0023302
0.00435637
0.00248488
0.00439126
0.00262162
0.0044467
0.00273256
0.00452121
0.00280737
0.00281422
0.00488684
0.00010248
0.0048758
0.000281298
0.00485894
0.000441438
0.00483707
0.000590327
0.00481095
0.000736146
0.00478131
0.000882239
0.004749
0.00103145
0.00471505
0.00118502
0.00468074
0.00134346
0.00464767
0.00150644
0.0046178
0.00167284
0.00459342
0.00184072
0.00457718
0.00200733
0.00457197
0.00216902
0.00458076
0.0023214
0.00460638
0.00245926
0.00465101
0.00257698
0.00471592
0.00266765
0.00479956
0.00272373
0.00271377
0.00509047
0.000106423
0.00507965
0.000292114
0.00506318
0.000457913
0.00504189
0.000611618
0.00501663
0.000761403
0.00498822
0.000910649
0.00495763
0.00106205
0.004926
0.00121664
0.00489476
0.0013747
0.00486563
0.00153556
0.00484067
0.0016978
0.00482224
0.00185915
0.00481298
0.00201659
0.00481566
0.00216634
0.00483302
0.00230404
0.00486751
0.00242478
0.00492084
0.00252365
0.0049937
0.00259479
0.0050845
0.00263292
0.00260958
0.0053026
0.000110242
0.0052921
0.000302614
0.00527616
0.000473853
0.00525566
0.000632119
0.00523153
0.000785537
0.00520466
0.000937511
0.00517615
0.00109056
0.00514726
0.00124553
0.00511953
0.00140243
0.00509478
0.00156031
0.00507514
0.00171744
0.00506299
0.0018713
0.00506089
0.00201869
0.00507142
0.0021558
0.00509703
0.00227843
0.00513971
0.0023821
0.00520069
0.00246267
0.00528008
0.0025154
0.00537617
0.00253684
0.00250246
0.00552359
0.000113903
0.00551351
0.000312697
0.00549826
0.000489101
0.00547877
0.000651613
0.00545603
0.000808276
0.00543104
0.000962499
0.00540499
0.00111661
0.00537924
0.00127128
0.00535544
0.00142623
0.00533549
0.00158026
0.00532154
0.00173139
0.00531592
0.00187691
0.00532107
0.00201354
0.00533934
0.00213754
0.00537278
0.00224499
0.00542294
0.00233194
0.00549055
0.00239506
0.00557519
0.00243075
0.00567505
0.00243698
0.00239333
0.00575381
0.00011737
0.00574425
0.00032226
0.00572986
0.000503488
0.0057116
0.000669871
0.00569054
0.000829337
0.00566776
0.000985278
0.00564454
0.00113983
0.00562235
0.00129347
0.00560289
0.00144569
0.00558812
0.00159504
0.00558016
0.00173935
0.00558127
0.0018758
0.00559369
0.00200113
0.00561946
0.00211176
0.00566027
0.00220418
0.00571718
0.00227504
0.00579045
0.00232179
0.00587922
0.00234197
0.00598157
0.00233463
0.0022832
0.00599364
0.000120604
0.00598471
0.00033119
0.00597136
0.000516838
0.00595457
0.000686658
0.00593548
0.000848428
0.00591525
0.00100551
0.00589523
0.00115985
0.00587698
0.00131173
0.00586224
0.00146042
0.00585298
0.0016043
0.00585127
0.00174106
0.00585922
0.00186785
0.00587884
0.00198151
0.00591185
0.00207875
0.00595951
0.00215652
0.00602243
0.00221212
0.00610044
0.00224378
0.00619235
0.00225007
0.0062961
0.00223087
0.00217303
0.00624348
0.000123566
0.00623529
0.000339372
0.00622316
0.000528969
0.00620809
0.000701729
0.00619127
0.000865254
0.00617392
0.00102286
0.00615747
0.00117629
0.00614353
0.00132567
0.00613386
0.00147008
0.0061304
0.00160776
0.00613512
0.00173634
0.00614994
0.00185302
0.00617662
0.00195484
0.00621651
0.00203886
0.00627047
0.00210256
0.00633867
0.00214391
0.00642058
0.00216187
0.00651473
0.00215592
0.006619
0.0021266
0.00206362
0.00650374
0.000126211
0.00649643
0.000346683
0.00648571
0.000539691
0.0064726
0.000714837
0.00645834
0.000879518
0.00644421
0.00103699
0.00643168
0.00118882
0.00642239
0.00133496
0.0064181
0.00147437
0.00642066
0.0016052
0.00643191
0.00172509
0.00645358
0.00183136
0.00648709
0.00192133
0.00653345
0.0019925
0.00659313
0.00204288
0.00666592
0.00207112
0.00675094
0.00207685
0.00684656
0.0020603
0.00695062
0.00202255
0.00195562
0.00677487
0.000128495
0.00676856
0.000352998
0.00675944
0.000548813
0.00674854
0.00072573
0.00673714
0.000890926
0.00672655
0.00104758
0.00671827
0.00119709
0.00671394
0.0013393
0.00671527
0.00147304
0.00672402
0.00159645
0.00674186
0.00170725
0.00677024
0.00180298
0.0068103
0.00188127
0.00686268
0.00194011
0.00692749
0.00197807
0.00700418
0.00199443
0.00709162
0.00198941
0.00718805
0.00196387
0.00729132
0.00191928
0.00184953
0.00705732
0.000130371
0.00705213
0.000358188
0.00704481
0.000556138
0.00703638
0.000734159
0.00702812
0.000899187
0.00702137
0.00105433
0.00701765
0.00120082
0.00701854
0.0013384
0.0070257
0.00146588
0.00704074
0.00158142
0.00706512
0.00168288
0.00710003
0.00176806
0.0071463
0.00183501
0.00720422
0.00188219
0.00727357
0.00190872
0.00735351
0.00191448
0.00744274
0.00190019
0.00753942
0.00186719
0.00764145
0.00181724
0.00174571
0.00735155
0.000131794
0.00734762
0.00036212
0.00734229
0.000561469
0.00733657
0.000739876
0.00733173
0.000904025
0.00732912
0.00105693
0.00733022
0.00119972
0.00733657
0.00133206
0.0073497
0.00145275
0.00737105
0.00156006
0.00740187
0.00165206
0.00744307
0.00172687
0.00749515
0.00178294
0.0075581
0.00181924
0.00763139
0.00183543
0.007714
0.00183188
0.00780445
0.00180974
0.00790091
0.00177073
0.00800137
0.00171678
0.0016444
0.00765805
0.000132714
0.00765551
0.000364663
0.00765237
0.000564613
0.0076496
0.000742641
0.00764845
0.000905175
0.00765024
0.00105514
0.00765639
0.00119356
0.00766836
0.00132009
0.00768754
0.00143357
0.00771518
0.00153242
0.00775227
0.00161497
0.00779945
0.00167969
0.00785691
0.00172548
0.00792437
0.00175178
0.00800106
0.00175874
0.00808576
0.00174717
0.00817695
0.00171855
0.00827281
0.00167486
0.00837145
0.00161815
0.00154576
0.00797734
0.000133086
0.00797631
0.000365688
0.00797555
0.00056538
0.00797596
0.000742227
0.00797874
0.000902395
0.00798516
0.00104873
0.00799656
0.00118216
0.00801427
0.00130238
0.00803953
0.00140831
0.00807336
0.00149859
0.00811649
0.00157183
0.0081693
0.00162688
0.00823169
0.00166308
0.00830314
0.00168034
0.00838267
0.0016792
0.00846898
0.00166086
0.00856047
0.00162706
0.00865543
0.0015799
0.00875208
0.0015215
0.00144985
0.00830993
0.000132864
0.00831055
0.000365068
0.00831234
0.00056359
0.00831615
0.000738419
0.00832308
0.000895464
0.00833433
0.00103748
0.00835112
0.00116537
0.00837465
0.00127885
0.00840594
0.00137702
0.0084458
0.00145873
0.00849471
0.00152292
0.00855276
0.00156884
0.00861961
0.00159623
0.00869454
0.00160541
0.00877642
0.00159732
0.00886387
0.00157341
0.00895532
0.00153561
0.00904913
0.00148609
0.00914367
0.00142696
0.0013567
0.00865639
0.000132004
0.00865877
0.000362683
0.00866329
0.000559073
0.00867068
0.000731024
0.00868196
0.000884191
0.00869819
0.00102125
0.00872048
0.00114308
0.00874982
0.0012495
0.00878706
0.00133979
0.00883275
0.00141304
0.00888712
0.00146855
0.00895
0.00150595
0.00902085
0.00152537
0.00909877
0.0015275
0.00918253
0.00151356
0.00927073
0.00148522
0.00936183
0.00144451
0.0094543
0.00139362
0.00954668
0.00133459
0.00126626
0.00901727
0.000130466
0.00902153
0.000358424
0.00902893
0.000551675
0.00904009
0.000719871
0.00905586
0.000868417
0.0090772
0.000999907
0.00910503
0.00111525
0.00914016
0.00121437
0.0091832
0.00129675
0.00923447
0.00136178
0.00929394
0.00140908
0.00936124
0.00143865
0.00943564
0.00145098
0.00951608
0.00144706
0.0096013
0.00142833
0.0096899
0.00139663
0.0097804
0.001354
0.00987141
0.00130261
0.0099616
0.0012444
0.00117848
0.00939319
0.000128213
0.00939942
0.000352188
0.00940984
0.000541259
0.0094249
0.000704814
0.0094453
0.000848016
0.00947182
0.000973386
0.0095052
0.00108187
0.00954603
0.00117354
0.00959468
0.00124809
0.00965124
0.00130522
0.00971546
0.00134486
0.00978675
0.00136736
0.00986424
0.00137349
0.00994679
0.00136451
0.0100331
0.00134202
0.0101218
0.00130793
0.0102115
0.00126428
0.010301
0.00121316
0.010389
0.00115638
0.00109326
0.00978475
0.000125212
0.00979305
0.00034389
0.0098066
0.00052771
0.00982567
0.00068574
0.00985079
0.000822901
0.00988252
0.00094165
0.0099214
0.00104299
0.0099678
0.00112714
0.0100218
0.00119404
0.0100834
0.00124367
0.010152
0.00127627
0.0102269
0.00129248
0.010307
0.00129332
0.0103913
0.00128023
0.0104784
0.00125494
0.0105669
0.00121936
0.0106557
0.00117549
0.0107436
0.00112531
0.0108295
0.0010705
0.0010105
0.0101926
0.000121436
0.010203
0.000333455
0.0102198
0.000510936
0.010243
0.000662563
0.0102729
0.000793022
0.0103098
0.000904708
0.0103541
0.000998689
0.0104059
0.00107535
0.0104651
0.00113486
0.0105313
0.00117747
0.0106039
0.00120369
0.0106819
0.0012144
0.0107644
0.00121085
0.0108501
0.00119457
0.0109377
0.00116736
0.0110259
0.00113111
0.0111137
0.00108774
0.0111999
0.00103908
0.0112837
0.000986672
0.000930072
0.0106174
0.000116863
0.01063
0.000320829
0.0106501
0.00049087
0.0106774
0.000635233
0.0107121
0.000758369
0.0107542
0.000862608
0.0108038
0.000949091
0.0108608
0.00101837
0.0109248
0.00107081
0.0109954
0.00110693
0.0110716
0.00112747
0.0111525
0.0011335
0.0112369
0.00112641
0.0113237
0.00110782
0.0114115
0.00107951
0.0114993
0.00104333
0.011586
0.00100107
0.0116706
0.000954434
0.0117525
0.000904815
0.000851836
0.0110599
0.000111477
0.0110748
0.000305973
0.0110981
0.00046747
0.0111297
0.00060373
0.0111691
0.000718964
0.0112162
0.000815436
0.011271
0.00089435
0.0113329
0.000956405
0.0114016
0.00100218
0.0114761
0.00103238
0.0115556
0.00104794
0.011639
0.00105009
0.0117252
0.00104029
0.0118128
0.00102019
0.0119008
0.00099154
0.011988
0.000956085
0.0120736
0.0009155
0.0121567
0.000871322
0.0122367
0.000824808
0.000775634
0.0115208
0.000105269
0.0115379
0.000288864
0.0115646
0.000440721
0.0116003
0.000568067
0.0116444
0.000674866
0.0116965
0.000763306
0.0117562
0.000834642
0.0118229
0.000889707
0.0118959
0.000929245
0.0119741
0.000954122
0.0120566
0.000965421
0.0121423
0.000964455
0.0122298
0.00095273
0.0123181
0.000931875
0.0124061
0.000903561
0.0124928
0.000869421
0.0125773
0.00083099
0.012659
0.000789646
0.0127373
0.000746507
0.000701289
0.0120008
9.82369e-05
0.0120201
0.000269499
0.0120502
0.000410632
0.01209
0.000528285
0.0121387
0.00062616
0.0121957
0.000706356
0.0122601
0.00077016
0.0123314
0.000818505
0.0124083
0.000852266
0.01249
0.000872428
0.0125753
0.000880162
0.0126629
0.000876824
0.0127517
0.000863909
0.0128406
0.000842985
0.0129286
0.000815622
0.0130147
0.000783321
0.0130982
0.000747464
0.0131786
0.000709278
0.0132553
0.000669741
0.000628606
0.0125007
9.03821e-05
0.0125223
0.000247891
0.0125557
0.000377235
0.0125996
0.000484449
0.0126528
0.000572954
0.0127144
0.000644739
0.0127835
0.000701096
0.0128589
0.000743026
0.0129397
0.000771486
0.0130246
0.000787534
0.0131124
0.000792378
0.0132019
0.000787365
0.0132918
0.000773939
0.0133812
0.000753574
0.0134691
0.000727713
0.0135548
0.000697712
0.0136374
0.0006648
0.0137166
0.00063005
0.0137921
0.000594311
0.000557364
0.0130214
8.17137e-05
0.0130453
0.000224068
0.0130819
0.000340583
0.0131297
0.000436646
0.0131873
0.000515371
0.0132534
0.000578615
0.0133269
0.00062764
0.0134064
0.000663473
0.0134908
0.000687109
0.0135787
0.000699625
0.0136689
0.000702217
0.0137601
0.000696179
0.0138511
0.000682865
0.0139411
0.000663626
0.014029
0.000639759
0.0141143
0.000612468
0.0141963
0.000582824
0.0142746
0.000551754
0.0143489
0.000519981
0.000487315
0.0135638
7.22452e-05
0.0135898
0.00019807
0.0136296
0.000300745
0.0136813
0.000384975
0.0137431
0.000453542
0.0138136
0.000508139
0.0138913
0.000549962
0.0139747
0.000580018
0.0140625
0.00059929
0.0141533
0.000608826
0.0142458
0.00060976
0.0143387
0.000603295
0.0144309
0.000590657
0.0145215
0.000573052
0.0146096
0.000551619
0.0146947
0.000527399
0.0147762
0.000501309
0.0148538
0.000474134
0.0149273
0.000446477
0.000418177
0.0141286
6.19947e-05
0.0141568
0.000169951
0.0141997
0.000257804
0.0142551
0.000329546
0.0143211
0.000387598
0.0143958
0.000433454
0.0144775
0.000468203
0.0145648
0.000492786
0.0146559
0.000508125
0.0147496
0.00051519
0.0148443
0.00051501
0.0149389
0.000508655