/*--------------------------------*- C++ -*----------------------------------*\
  =========                 |
  \\      /  F ield         | OpenFOAM: The Open Source CFD Toolbox
   \\    /   O peration     | Website:  https://openfoam.org
    \\  /    A nd           | Version:  7
     \\/     M anipulation  |
\*---------------------------------------------------------------------------*/
FoamFile
{
    version     2.0;
    format      ascii;
    class       volScalarField;
    location    "95";
    object      p;
}
// * * * * * * * * * * * * * * * * * * * * * * * * * * * * * * * * * * * * * //

dimensions      [0 2 -2 0 0 0 0];

internalField   nonuniform List<scalar> 
8500
(
0.0294023
0.0325409
0.0407388
0.0361457
0.0445329
0.0521143
0.0406707
0.0488035
0.0565725
0.0634973
0.0540676
0.061516
0.0686417
0.074855
0.0595355
0.0675167
0.0742712
0.0807315
0.0861666
0.0651994
0.0737866
0.0810036
0.087066
0.0928418
0.0973683
0.0802945
0.0880747
0.0945205
0.099912
0.104943
0.108207
0.0870368
0.0954222
0.102386
0.10807
0.112827
0.116937
0.118324
0.103034
0.110563
0.116708
0.121657
0.125786
0.1287
0.128048
0.110872
0.11903
0.125696
0.131027
0.135259
0.13869
0.140139
0.139573
0.118878
0.12776
0.135001
0.140801
0.145321
0.148824
0.151513
0.152046
0.151843
0.136701
0.144605
0.150924
0.155856
0.159566
0.162324
0.164258
0.164083
0.163822
0.145782
0.15446
0.161382
0.166775
0.170837
0.173737
0.175741
0.176933
0.176136
0.17562
0.164495
0.172127
0.178063
0.182531
0.185723
0.187812
0.189057
0.189518
0.188122
0.187238
0.183088
0.189674
0.194625
0.198166
0.200489
0.201767
0.202252
0.201989
0.199993
0.198665
0.194183
0.201534
0.207074
0.211042
0.213658
0.215114
0.215581
0.215306
0.214322
0.211721
0.209899
0.213558
0.219803
0.224301
0.227288
0.228983
0.229575
0.229234
0.2282
0.226498
0.223285
0.220937
0.225655
0.232722
0.237866
0.241326
0.243338
0.244118
0.24385
0.242705
0.240915
0.238498
0.234671
0.231773
0.245734
0.251644
0.255694
0.258124
0.259168
0.259039
0.257918
0.255975
0.253433
0.250305
0.245863
0.242401
0.258766
0.265529
0.270292
0.273259
0.274669
0.274754
0.273724
0.271759
0.269024
0.265736
0.261903
0.256849
0.252812
0.27944
0.285009
0.288637
0.290532
0.290933
0.290071
0.288151
0.285351
0.281833
0.277808
0.273278
0.267616
0.263
0.29975
0.30414
0.306648
0.307486
0.306893
0.305096
0.302299
0.298675
0.294386
0.289632
0.284413
0.278152
0.272954
0.31449
0.319664
0.322892
0.324295
0.324093
0.322521
0.319805
0.316145
0.311712
0.306662
0.301192
0.295296
0.288445
0.282666
0.335161
0.339146
0.341231
0.341551
0.340327
0.337795
0.334176
0.32967
0.324441
0.318646
0.312472
0.305912
0.298481
0.292126
0.355345
0.358163
0.359128
0.358386
0.356161
0.352689
0.348187
0.342851
0.336845
0.33032
0.323456
0.316246
0.30825
0.301322
0.371559
0.375006
0.376682
0.376553
0.374773
0.371571
0.36718
0.361816
0.355671
0.348905
0.341666
0.334129
0.326286
0.317738
0.310246
0.391801
0.394111
0.394672
0.393475
0.390685
0.386531
0.381245
0.375042
0.368108
0.360602
0.35267
0.344477
0.336018
0.326933
0.318886
0.411422
0.412625
0.412103
0.409868
0.406096
0.401017
0.394863
0.387844
0.380145
0.371921
0.363315
0.354486
0.345429
0.335823
0.327232
0.43039
0.430517
0.428943
0.425703
0.420979
0.415005
0.40801
0.400202
0.391762
0.382844
0.373585
0.36414
0.354505
0.344397
0.335275
0.448153
0.448668
0.447755
0.445165
0.440953
0.435312
0.428474
0.420667
0.412097
0.402943
0.393354
0.383466
0.373426
0.363235
0.352643
0.343003
0.466699
0.466225
0.464308
0.46074
0.455594
0.449069
0.4414
0.432813
0.423511
0.413669
0.403436
0.392943
0.382332
0.371607
0.360549
0.350408
0.484454
0.483029
0.480149
0.475642
0.4696
0.462228
0.453763
0.444429
0.434425
0.423925
0.413074
0.402002
0.390844
0.379607
0.368105
0.35748
0.501386
0.49905
0.495248
0.489845
0.482947
0.474768
0.465543
0.455496
0.444823
0.433695
0.422255
0.41063
0.39895
0.387226
0.375299
0.36421
0.517463
0.514259
0.509581
0.503324
0.495614
0.486667
0.476721
0.465996
0.454688
0.442964
0.430964
0.418815
0.406638
0.394452
0.382123
0.37059
0.535706
0.532656
0.528628
0.523121
0.516057
0.507579
0.497907
0.487278
0.475913
0.464004
0.451716
0.439188
0.426543
0.413897
0.401275
0.388567
0.37661
0.550709
0.546937
0.542133
0.535844
0.528022
0.518821
0.508467
0.497198
0.485231
0.472757
0.459939
0.446915
0.433803
0.420717
0.407685
0.394621
0.382264
0.564728
0.560279
0.55475
0.54773
0.539199
0.529322
0.518331
0.506463
0.493934
0.480933
0.467621
0.454132
0.440585
0.427088
0.413673
0.400276
0.387543
0.577738
0.572658
0.566454
0.558756
0.549567
0.539065
0.527483
0.515059
0.502009
0.488519
0.474748
0.460829
0.446878
0.432999
0.41923
0.405525
0.392441
0.589713
0.584052
0.577227
0.568904
0.55911
0.548032
0.535907
0.522972
0.509443
0.495503
0.48131
0.466996
0.452673
0.438443
0.424348
0.41036
0.396951
0.600631
0.59444
0.587048
0.578156
0.567811
0.556208
0.543589
0.53019
0.516224
0.501874
0.487297
0.472623
0.457961
0.443412
0.42902
0.414774
0.401068
0.610471
0.603802
0.595899
0.586496
0.575655
0.563581
0.550516
0.536699
0.52234
0.507623
0.4927
0.477701
0.462735
0.447898
0.433239
0.418761
0.404787
0.619216
0.612122
0.603767
0.593909
0.582629
0.570136
0.556678
0.54249
0.527783
0.512739
0.49751
0.482223
0.466987
0.451894
0.436999
0.422315
0.408101
0.626848
0.619384
0.610635
0.600383
0.588721
0.575865
0.562063
0.547553
0.532543
0.517215
0.501719
0.486182
0.470711
0.455396
0.440294
0.425431
0.411007
0.640232
0.633353
0.625576
0.616493
0.605906
0.59392
0.580756
0.566663
0.55188
0.536614
0.521044
0.505321
0.489572
0.473901
0.458397
0.44312
0.428104
0.413501
0.645815
0.638719
0.630685
0.621329
0.610469
0.598217
0.584801
0.570471
0.555464
0.539987
0.52422
0.508312
0.492388
0.476553
0.460893
0.445472
0.430332
0.41558
0.6502
0.642937
0.634704
0.625135
0.614063
0.601606
0.587995
0.57348
0.558299
0.542659
0.526738
0.510685
0.494625
0.478662
0.462881
0.447348
0.43211
0.417242
0.653379
0.645997
0.637623
0.627905
0.616683
0.604081
0.590331
0.575686
0.560381
0.544624
0.528594
0.512438
0.496281
0.480226
0.464358
0.448745
0.433437
0.418485
0.655347
0.647895
0.639439
0.629634
0.618324
0.605638
0.591807
0.577084
0.561706
0.545881
0.529785
0.513568
0.497352
0.481243
0.465322
0.44966
0.43431
0.419307
0.656099
0.648627
0.640148
0.630318
0.618984
0.606273
0.592418
0.577673
0.562273
0.546426
0.53031
0.514073
0.497839
0.48171
0.465772
0.450093
0.434728
0.419706
0.655634
0.648191
0.639748
0.629957
0.618661
0.605986
0.592166
0.577452
0.562081
0.54626
0.530168
0.513953
0.497739
0.481629
0.465707
0.450043
0.434691
0.419681
0.653952
0.646589
0.638241
0.628551
0.617356
0.604779
0.591049
0.576421
0.561129
0.545383
0.52936
0.513208
0.497053
0.480998
0.465128
0.44951
0.434199
0.419233
0.651059
0.643824
0.63563
0.626104
0.615072
0.602652
0.589072
0.574582
0.559421
0.543797
0.527886
0.51184
0.495784
0.47982
0.464035
0.448496
0.433254
0.418365
0.646958
0.639901
0.631919
0.622619
0.611813
0.59961
0.586236
0.57194
0.55696
0.541504
0.525751
0.509852
0.493932
0.478096
0.462431
0.447003
0.431857
0.417077
0.641658
0.634827
0.627115
0.618102
0.607584
0.595659
0.582547
0.568498
0.553748
0.538508
0.522957
0.507246
0.491501
0.47583
0.460319
0.445032
0.43001
0.415371
0.635169
0.628613
0.621228
0.612563
0.602394
0.590805
0.578012
0.564262
0.549793
0.534815
0.519509
0.504027
0.488496
0.473024
0.457701
0.442588
0.427716
0.413249
0.621269
0.614267
0.606012
0.596251
0.585057
0.572638
0.55924
0.545101
0.530431
0.515413
0.5002
0.484921
0.469685
0.454583
0.439673
0.42498
0.410716
0.61281
0.606247
0.598459
0.589167
0.578425
0.566436
0.553441
0.53968
0.525364
0.510676
0.495773
0.480783
0.465816
0.450969
0.436294
0.421805
0.407774
0.603253
0.597182
0.58992
0.581154
0.570921
0.559415
0.546875
0.533539
0.519621
0.505307
0.490752
0.476087
0.461426
0.446865
0.432455
0.418197
0.404428
0.592614
0.587088
0.580408
0.572226
0.562559
0.551588
0.539552
0.526689
0.513214
0.499313
0.485145
0.470843
0.45652
0.442277
0.428163
0.414161
0.400683
0.580915
0.575985
0.569943
0.5624
0.553352
0.542969
0.531486
0.519142
0.506152
0.492705
0.478962
0.465057
0.451106
0.437214
0.423423
0.409703
0.396545
0.568177
0.563893
0.558542
0.551693
0.543317
0.533572
0.52269
0.510909
0.498447
0.485494
0.472213
0.45874
0.445194
0.431682
0.418244
0.404831
0.392018
0.554425
0.550834
0.546226
0.540124
0.532471
0.523414
0.51318
0.502006
0.490113
0.477692
0.464909
0.451902
0.438792
0.425691
0.412634
0.399551
0.38711
0.539686
0.536833
0.533017
0.527714
0.520834
0.512513
0.502971
0.492447
0.481162
0.469312
0.457062
0.444554
0.43191
0.41925
0.4066
0.393873
0.381827
0.523986
0.521915
0.518941
0.514484
0.508427
0.500887
0.492082
0.482249
0.471611
0.460367
0.448684
0.436707
0.42456
0.412368
0.400153
0.387804
0.376177
0.50611
0.504022
0.500459
0.49527
0.488556
0.48053
0.471428
0.461475
0.450872
0.43979
0.428374
0.416754
0.405057
0.393303
0.381354
0.370168
0.489445
0.488286
0.485663
0.481386
0.475542
0.468335
0.460003
0.450771
0.440843
0.430393
0.419569
0.408502
0.397327
0.386059
0.374533
0.363808
0.471952
0.471764
0.470123
0.466801
0.461867
0.455519
0.447992
0.439516
0.430295
0.420508
0.410304
0.399818
0.389191
0.378432
0.367349
0.357106
0.453664
0.454485
0.453866
0.45154
0.447555
0.442103
0.435417
0.427729
0.419247
0.410152
0.400595
0.390716
0.38066
0.370434
0.359815
0.35007
0.434615
0.43648
0.436921
0.435629
0.432631
0.428109
0.422298
0.41543
0.407716
0.39934
0.390457
0.381209
0.371747
0.362077
0.351941
0.342711
0.417783
0.419319
0.419096
0.417119
0.413561
0.408657
0.402638
0.39572
0.38809
0.379906
0.371312
0.362467
0.353373
0.343739
0.335039
0.398427
0.401091
0.401971
0.401047
0.398485
0.394516
0.389375
0.38328
0.37642
0.368958
0.36104
0.352832
0.344335
0.335219
0.327062
0.378448
0.382269
0.384282
0.384443
0.382906
0.3799
0.375663
0.370415
0.364349
0.35763
0.350408
0.342857
0.334974
0.326394
0.318792
0.362888
0.366062
0.367334
0.366849
0.364832
0.361523
0.357145
0.351894
0.345939
0.339433
0.332556
0.325306
0.317277
0.310239
0.342981
0.347342
0.349751
0.350342
0.349338
0.34698
0.343492
0.339077
0.333904
0.32813
0.321944
0.315343
0.307879
0.301414
0.322585
0.328154
0.331724
0.333413
0.333443
0.332055
0.329478
0.325916
0.321542
0.316518
0.311037
0.3051
0.298214
0.292328
0.301736
0.308533
0.313283
0.316091
0.317174
0.316775
0.315126
0.312433
0.308874
0.304612
0.29985
0.29459
0.288294
0.28299
0.288513
0.29446
0.298404
0.300557
0.301164
0.300457
0.298648
0.295917
0.29243
0.288399
0.283827
0.278131
0.273413
0.268128
0.275287
0.280382
0.28362
0.285246
0.285495
0.284583
0.282692
0.279991
0.2767
0.272827
0.267739
0.263605
0.247415
0.255798
0.262056
0.266392
0.269048
0.270265
0.270259
0.269218
0.267313
0.26477
0.261603
0.25713
0.253577
0.236026
0.243457
0.248899
0.252596
0.254789
0.2557
0.255517
0.254415
0.252626
0.250172
0.246316
0.243337
0.216004
0.224615
0.231171
0.235917
0.239094
0.240927
0.241609
0.241315
0.240285
0.238548
0.235311
0.232895
0.205562
0.213238
0.219037
0.223203
0.225964
0.227515
0.228033
0.227765
0.226748
0.224129
0.222258
0.18633
0.195128
0.201983
0.207143
0.210835
0.213257
0.21459
0.215086
0.214789
0.212782
0.211433
0.176872
0.184784
0.190937
0.195562
0.198858
0.201006
0.202265
0.20269
0.20129
0.200426
0.158498
0.167467
0.174613
0.18017
0.18434
0.187302
0.189323
0.190473
0.189673
0.189241
0.140037
0.150059
0.158195
0.164683
0.169725
0.1735
0.176279
0.178161
0.17796
0.177885
0.132588
0.14171
0.149125
0.155038
0.159622
0.163155
0.165777
0.166202
0.16637
0.125183
0.13352
0.1403
0.145693
0.149968
0.153344
0.154485
0.154709
0.108641
0.117892
0.125536
0.131736
0.136735
0.140852
0.14292
0.142813
0.102266
0.110767
0.117776
0.123487
0.128297
0.131838
0.131754
0.0866629
0.0960131
0.103833
0.110273
0.115697
0.120415
0.122364
0.0812957
0.0899219
0.0971119
0.103156
0.108765
0.112565
0.0666341
0.0760546
0.0840029
0.0907007
0.0970301
0.102075
0.0622455
0.070943
0.0783163
0.0853089
0.0912483
0.05794
0.0659894
0.0736263
0.0803287
0.0537225
0.0619808
0.0693766
0.0415274
0.0503808
0.0584127
0.0388441
0.0474694
0.036578
0.12345
0.112992
0.102621
0.0923335
0.0816812
0.0708933
0.0601195
0.0493577
0.0386184
0.0279312
0.0173158
0.118184
0.107571
0.0966114
0.086544
0.0763313
0.0659448
0.0556193
0.0453678
0.0351663
0.0250306
0.0149781
0.11168
0.10109
0.0899891
0.0802073
0.0705349
0.0606625
0.0508388
0.0411241
0.0314777
0.0218988
0.0124045
0.104827
0.0945814
0.0837696
0.0743934
0.0652724
0.0559392
0.0466181
0.0374153
0.028295
0.0192429
0.0102737
0.0980758
0.0883103
0.077938
0.0689873
0.0603701
0.0515519
0.0427202
0.0340071
0.0253885
0.0168411
0.00837445
0.0916423
0.0823692
0.07249
0.0639667
0.0558168
0.0474898
0.039136
0.0308959
0.0227569
0.0146916
0.00670425
0.0855623
0.0767604
0.0673983
0.0593069
0.0516013
0.0437441
0.0358546
0.0280713
0.0203906
0.0127846
0.00525342
0.0798393
0.0714908
0.0626529
0.0549943
0.0477142
0.0403051
0.0328627
0.0255183
0.0182746
0.011105
0.004007
0.07448
0.0665704
0.0582503
0.0510176
0.0441449
0.0371619
0.0301472
0.0232227
0.0163948
0.00963936
0.00295195
0.0694863
0.0620002
0.0541829
0.0473638
0.0408802
0.0343017
0.0276946
0.0211703
0.0147377
0.00837459
0.0020759
0.0648525
0.0577731
0.0504394
0.0440184
0.0379058
0.0317112
0.0254913
0.0193476
0.0132898
0.00729822
0.00136714
0.0605681
0.0538787
0.0470068
0.0409672
0.0352076
0.0293767
0.0235241
0.0177414
0.0120387
0.00639832
0.000814514
0.0566206
0.0503041
0.0438715
0.0381955
0.0327712
0.0272846
0.0217797
0.0163389
0.0109721
0.00566347
0.000407461
0.0529961
0.0470358
0.0410195
0.0356891
0.0305828
0.0254216
0.0202454
0.0151278
0.0100783
0.00508276
0.000135917
0.0496801
0.0440595
0.0384365
0.0334338
0.0286285
0.0237746
0.0189086
0.0140962
0.0093461
0.00464578
-9.68812e-06
0.0466578
0.0413605
0.0361082
0.0314153
0.0268946
0.0223306
0.0177571
0.0132326
0.00876473
0.00434257
-3.84592e-05
0.0439143
0.0389241
0.0340206
0.0296201
0.0253682
0.0210772
0.0167792
0.0125259
0.00832391
0.00416364
4.09378e-05
0.0414346
0.036736
0.0321597
0.0280347
0.0240363
0.0200024
0.0159636
0.0119655
0.00801377
0.00409992
0.000220254
0.0392041
0.0347818
0.030512
0.0266461
0.0228866
0.0190945
0.0152994
0.0115413
0.0078249
0.00414277
0.000491633
0.0372083
0.0330475
0.0290644
0.0254417
0.021907
0.0183423
0.0147761
0.0112434
0.00774829
0.00428395
0.000847591
0.0354329
0.0315195
0.0278039
0.0244094
0.0210862
0.017735
0.0143836
0.0110627
0.00777534
0.00451557
0.001281
0.0338644
0.0301844
0.0267184
0.0235375
0.020413
0.0172622
0.0141123
0.0109901
0.00789782
0.00483013
0.00178505
0.0324892
0.0290296
0.0257958
0.0228147
0.0198768
0.0169141
0.0139531
0.0110172
0.00810788
0.00522047
0.00235325
0.0312944
0.0280424
0.0250246
0.0222303
0.0194675
0.016681
0.013897
0.0111357
0.00839802
0.00567972
0.00297939
0.0302675
0.0272111
0.0243939
0.0217738
0.0191751
0.0165539
0.0139356
0.0113379
0.00876108
0.00620133
0.00365755
0.0293965
0.026524
0.023893
0.0214354
0.0189906
0.0165241
0.0140609
0.0116163
0.00919019
0.00677905
0.00438204
0.0286698
0.0259703
0.0235118
0.0212056
0.0189048
0.0165832
0.0142651
0.0119638
0.00967879
0.00740688
0.00514741
0.0280764
0.0255392
0.0232406
0.0210754
0.0189093
0.0167233
0.0145408
0.0123736
0.0102206
0.00807906
0.00594845
0.0276055
0.0252207
0.0230701
0.021036
0.0189959
0.0169367
0.014881
0.0128391
0.0108096
0.00879011
0.00678015
0.0272471
0.0250052
0.0229914
0.0210792
0.0191569
0.0172162
0.0152789
0.0133541
0.0114401
0.00953474
0.00763771
0.0269915
0.0248834
0.022996
0.0211971
0.0193847
0.0175548
0.0157281
0.0139126
0.0121065
0.0103079
0.00851652
0.0268293
0.0248465
0.0230759
0.0213822
0.0196724
0.0179458
0.0162223
0.0145089
0.0128036
0.0111047
0.0267518
0.0248862
0.0232234
0.0216271
0.0200131
0.018383
0.0167558
0.0151375
0.0135263
0.0119206
0.0267504
0.0249943
0.023431
0.0219252
0.0204003
0.0188602
0.0173227
0.0157932
0.0142698
0.0127511
0.0268173
0.0251635
0.0236919
0.0222698
0.020828
0.0193717
0.0179178
0.016471
0.0150295
0.0135919
0.0269448
0.0253863
0.0239992
0.0226548
0.0212902
0.019912
0.0185359
0.0171661
0.0158009
0.0144389
0.0271256
0.0256561
0.0243468
0.0230741
0.0217814
0.0204759
0.0191722
0.017874
0.0165798
0.0152883
0.0273528
0.0259662
0.0247285
0.0235221
0.0222962
0.0210583
0.0198219
0.0185903
0.0173621
0.0161363
0.0276201
0.0263105
0.0251386
0.0239936
0.0228296
0.0216545
0.0204806
0.0193109
0.0181442
0.0169793
0.027921
0.0266831
0.0255718
0.0244833
0.0233768
0.0222599
0.021144
0.0200318
0.0189221
0.017814
0.0282499
0.0270784
0.0260227
0.0249865
0.0239332
0.0228703
0.0218082
0.0207493
0.0196925
0.018637
0.0286012
0.0274913
0.0264866
0.0254985
0.0244944
0.0234814
0.0224691
0.0214596
0.0204518
0.0194452
0.0289696
0.0279167
0.0269588
0.0260149
0.0250562
0.0240895
0.0231232
0.0221594
0.021197
0.0202355
0.0293501
0.0283499
0.0274348
0.0265315
0.0256147
0.0246907
0.0237669
0.0228452
0.0219247
0.0210051
0.029738
0.0287863
0.0279104
0.0270444
0.0261662
0.0252813
0.0243967
0.0235139
0.0226321
0.021751
0.0301289
0.0292218
0.0283815
0.0275496
0.0267068
0.0258581
0.0250095
0.0241623
0.0233161
0.0224705
0.0305184
0.0296522
0.0288445
0.0280437
0.0272332
0.0264176
0.0256019
0.0247876
0.023974
0.0231609
0.0309026
0.0300738
0.0292954
0.0285229
0.027742
0.0269565
0.026171
0.0253866
0.0246029
0.0238197
0.0312775
0.0304827
0.029731
0.0289841
0.0282299
0.0274719
0.0267138
0.0259566
0.0252001
0.024444
0.0316395
0.0308754
0.0301476
0.0294237
0.0286938
0.0279606
0.0272273
0.0264948
0.0257628
0.0250314
0.0319851
0.0312485
0.030542
0.0298388
0.0291305
0.0284195
0.0277085
0.0269982
0.0262884
0.0255791
0.0323107
0.0315986
0.0309109
0.030226
0.029537
0.0288458
0.0281546
0.027464
0.026774
0.0260845
0.0326131
0.0319225
0.0312512
0.0305822
0.0299101
0.0292363
0.0285625
0.0278894
0.0272168
0.0265449
0.032889
0.0322169
0.0315597
0.0309044
0.0302468
0.029588
0.0289293
0.0282713
0.0276139
0.0269571
0.0331352
0.0324786
0.0318331
0.0311893
0.030544
0.0298978
0.0292519
0.0286067
0.0279622
0.0273184
0.0333483
0.0327043
0.0320682
0.0314336
0.0307981
0.0301623
0.0295268
0.028892
0.028258
0.0276249
0.0335254
0.0328911
0.032262
0.0316343
0.0310065
0.0303786
0.0297512
0.0291247
0.0284991
0.0278744
0.0336627
0.0330346
0.03241
0.0317869
0.031164
0.0305414
0.0299196
0.0292987
0.0286788
0.0280601
0.0337582
0.0331338
0.0325115
0.0318908
0.0312708
0.0306515
0.0300332
0.0294159
0.0287999
0.0281852
0.0338055
0.0331803
0.0325566
0.0319345
0.0313136
0.0306935
0.0300747
0.0294571
0.028841
0.0282265
0.148346
0.148892
0.149976
0.15152
0.153499
0.155877
0.158629
0.161728
0.165148
0.168859
0.172828
0.177008
0.181352
0.185792
0.190254
0.19464
0.198846
0.202725
0.206142
0.208888
0.210798
0.211579
0.211069
0.208833
0.204816
0.198269
0.189592
0.177014
0.162561
0.13948
0.147981
0.148514
0.149572
0.151078
0.153007
0.15532
0.157992
0.160995
0.164298
0.167872
0.171677
0.175666
0.179787
0.183967
0.18813
0.192171
0.195983
0.199417
0.202333
0.204522
0.205818
0.205932
0.204707
0.201723
0.196931
0.189624
0.180172
0.166988
0.15175
0.130451
0.147599
0.148118
0.149147
0.150612
0.152484
0.154726
0.157311
0.160207
0.163385
0.16681
0.170442
0.174229
0.178116
0.182028
0.185885
0.189579
0.193002
0.196002
0.198441
0.200112
0.200854
0.200387
0.198567
0.194992
0.18964
0.181838
0.171983
0.15866
0.143539
0.123873
0.147197
0.147701
0.1487
0.150121
0.151934
0.154101
0.156594
0.15938
0.162427
0.165697
0.169148
0.172725
0.17637
0.180005
0.183547
0.186886
0.189912
0.192473
0.194431
0.195583
0.195776
0.19474
0.192344
0.188208
0.182332
0.174097
0.163907
0.150561
0.135577
0.116813
0.146776
0.147264
0.148232
0.149607
0.151358
0.153449
0.155847
0.158519
0.161431
0.164542
0.167808
0.171171
0.174569
0.177923
0.181146
0.184128
0.186755
0.188878
0.19036
0.191002
0.190659
0.18907
0.18612
0.181455
0.175089
0.166471
0.155987
0.142647
0.127747
0.109621
0.146334
0.146806
0.147741
0.149069
0.150757
0.152768
0.155068
0.157623
0.160396
0.163345
0.166421
0.169566
0.172715
0.175784
0.178688
0.181312
0.183544
0.185235
0.186251
0.186399
0.18554
0.183429
0.179963
0.174817
0.168016
0.15908
0.148369
0.135077
0.12031
0.102785
0.145871
0.146326
0.147228
0.148506
0.150129
0.152057
0.154257
0.156691
0.159322
0.162104
0.164987
0.16791
0.170805
0.173589
0.176172
0.17844
0.18028
0.181547
0.182109
0.181781
0.180431
0.177831
0.173889
0.168313
0.161136
0.15195
0.141081
0.127889
0.11332
0.0963796
0.145386
0.145824
0.146691
0.147919
0.149474
0.151317
0.153413
0.155723
0.158207
0.160818
0.163505
0.166203
0.168842
0.171338
0.1736
0.175514
0.176968
0.17782
0.177941
0.177156
0.175341
0.172285
0.167908
0.161952
0.154454
0.145076
0.134113
0.121063
0.106738
0.09036
0.144879
0.145299
0.14613
0.147305
0.14879
0.150545
0.152535
0.154717
0.157052
0.159489
0.161976
0.164445
0.166828
0.169035
0.170976
0.172539
0.173614
0.17406
0.173755
0.172534
0.17028
0.166802
0.16203
0.155741
0.147975
0.138459
0.127457
0.114585
0.100536
0.0847054
0.144349
0.144751
0.145544
0.146666
0.148079
0.149743
0.151623
0.153675
0.155857
0.158117
0.160401
0.16264
0.164763
0.166681
0.168305
0.169522
0.170224
0.170276
0.169562
0.167925
0.165261
0.161395
0.156269
0.149693
0.141709
0.132103
0.121111
0.108446
0.0947015
0.0794115
0.143796
0.144179
0.144934
0.145999
0.147338
0.14891
0.150677
0.152595
0.154621
0.156702
0.15878
0.160787
0.16265
0.164281
0.165589
0.166465
0.166804
0.166475
0.165369
0.163341
0.160294
0.156076
0.150634
0.143815
0.135661
0.12601
0.115073
0.102642
0.0892263
0.0744727
0.143219
0.143582
0.144297
0.145305
0.146568
0.148044
0.149696
0.151479
0.153346
0.155245
0.157115
0.158889
0.160493
0.161838
0.162834
0.163376
0.163361
0.162666
0.161187
0.158791
0.155391
0.150854
0.145137
0.138117
0.129838
0.120182
0.109339
0.097166
0.0840995
0.0698789
0.142618
0.14296
0.143635
0.144584
0.145768
0.147147
0.148681
0.150325
0.152032
0.153746
0.155408
0.156948
0.158293
0.159354
0.160044
0.16026
0.159902
0.158856
0.157024
0.154285
0.150561
0.14574
0.139787
0.132605
0.124242
0.114619
0.103904
0.0920102
0.07931
0.0656184
0.141991
0.142313
0.142946
0.143834
0.144938
0.146218
0.147632
0.149135
0.150679
0.152207
0.15366
0.154966
0.156053
0.156835
0.157224
0.157122
0.156435
0.155054
0.152889
0.149833
0.145816
0.140743
0.13459
0.127285
0.118877
0.109319
0.0987641
0.0871665
0.074846
0.0616788
0.14134
0.14164
0.14223
0.143056
0.144078
0.145257
0.146549
0.147909
0.149288
0.150629
0.151872
0.152945
0.153777
0.154283
0.15438
0.15397
0.152966
0.151268
0.148792
0.145443
0.141162
0.135872
0.129554
0.122162
0.113744
0.104281
0.0939127
0.0826264
0.0706959
0.0580471
0.140662
0.140941
0.141487
0.142249
0.143188
0.144263
0.145432
0.146648
0.147861
0.149014
0.150046
0.150889
0.151469
0.151705
0.151515
0.150809
0.149503
0.147505
0.14474
0.141125
0.13661
0.131133
0.124686
0.117239
0.108843
0.0995027
0.0893436
0.0783808
0.0668475
0.0547099
0.139959
0.140216
0.140717
0.141414
0.142268
0.143238
0.144281
0.145351
0.146397
0.147362
0.148186
0.148799
0.149132
0.149103
0.148637
0.147646
0.146053
0.143775
0.140743
0.136888
0.132167
0.126534
0.119989
0.112518
0.104175
0.0949801
0.0850499
0.0744201
0.0632885
0.0516535
0.139229
0.139463
0.139919
0.14055
0.141317
0.142181
0.143098
0.144021
0.144899
0.145677
0.146293
0.14668
0.146769
0.146484
0.14575
0.144487
0.142623
0.140083
0.136808
0.132737
0.127839
0.122081
0.115467
0.108002
0.0997368
0.090709
0.081024
0.0707341
0.0600064
0.0488642
0.138473
0.138684
0.139093
0.139657
0.140337
0.141093
0.141882
0.142657
0.143368
0.143959
0.144369
0.144534
0.144385
0.143851
0.14286
0.141339
0.13922
0.136439
0.132942
0.128682
0.123634
0.117777
0.111124
0.103689
0.095527
0.0866841
0.0772578
0.0673126
0.0569885
0.0463282
0.13769
0.137878
0.13824
0.138735
0.139327
0.139974
0.140635
0.141262
0.141806
0.142211
0.142419
0.142365
0.141985
0.14121
0.139974
0.138207
0.135852
0.132848
0.129153
0.124728
0.119556
0.113628
0.106962
0.0995814
0.0915424
0.0828999
0.073743
0.064145
0.0542222
0.0440322
0.136881
0.137044
0.137359
0.137785
0.138287
0.138825
0.139357
0.139837
0.140215
0.140436
0.140444
0.140177
0.139573
0.138566
0.137096
0.135099
0.132523
0.129318
0.125446
0.12088
0.11561
0.109636
0.10298
0.0956763
0.087779
0.0793499
0.0704706
0.0612204
0.0516951
0.0419625
0.136045
0.136184
0.13645
0.136807
0.137219
0.137647
0.13805
0.138383
0.138595
0.138636
0.138448
0.137973
0.137152
0.135924
0.134232
0.132021
0.129242
0.125854
0.121828
0.117145
0.1118
0.105803
0.0991804
0.0919719
0.0842324
0.0760272
0.0674314
0.058528
0.0493947
0.0401063
0.135183
0.135297
0.135515
0.135802
0.136123
0.136441
0.136715
0.136901
0.136951
0.136813
0.136434
0.135758
0.134728
0.133289
0.131389
0.128978
0.126014
0.122464
0.118305
0.113526
0.108129
0.102131
0.0955616
0.0884656
0.0808973
0.0729246
0.0646163
0.0560569
0.0473086
0.0384505
0.134294
0.134384
0.134553
0.134769
0.134999
0.135207
0.135354
0.135395
0.135284
0.134971
0.134406
0.133535
0.132306
0.130667
0.128571
0.125976
0.122845
0.119152
0.114881
0.110027
0.1046
0.0986202
0.0921224
0.0851538
0.0777682
0.0700345
0.0620155
0.053796
0.0454249
0.036983
0.13338
0.133445
0.133564
0.13371
0.13385
0.133948
0.133967
0.133865
0.133596
0.133113
0.132367
0.131309
0.129889
0.128062
0.125785
0.12302
0.11974
0.115923
0.111559
0.106652
0.101213
0.0952711
0.0888609
0.0820326
0.0748389
0.0673488
0.0596195
0.0517347
0.0437317
0.0356914
0.132441
0.132481
0.132551
0.132626
0.132675
0.132664
0.132558
0.132314
0.131891
0.131242
0.130322
0.129084
0.127484
0.12548
0.123035
0.120117
0.116704
0.112781
0.108345
0.103402
0.0979712
0.0920827
0.0857743
0.0790974
0.0721031
0.0648594
0.0574186
0.0498622
0.0422174
0.0345642
0.131477
0.131491
0.131513
0.131517
0.131476
0.131358
0.131127
0.130745
0.13017
0.129361
0.128273
0.126864
0.125094
0.122925
0.120326
0.117271
0.113742
0.109731
0.10524
0.10028
0.0948735
0.0890536
0.0828594
0.0763431
0.0695539
0.0625581
0.0554032
0.0481678
0.0408709
0.0335899
0.130489
0.130479
0.130451
0.130385
0.130255
0.13003
0.129677
0.12916
0.128438
0.127473
0.126224
0.124653
0.122724
0.120403
0.117664
0.114486
0.110858
0.106777
0.102247
0.0972869
0.0919197
0.0861818
0.0801127
0.0737643
0.0671842
0.0604363
0.0535636
0.0466413
0.0396813
0.0327578
0.129478
0.129443
0.129367
0.129231
0.129013
0.128683
0.128211
0.127561
0.126697
0.125583
0.124181
0.122457
0.120378
0.117917
0.115052
0.111768
0.108056
0.10392
0.0993691
0.0944231
0.0891091
0.0834648
0.0775298
0.0713554
0.0649868
0.0584855
0.0518902
0.0452725
0.0386379
0.0320572
0.128446
0.128386
0.128261
0.128057
0.127752
0.127319
0.12673
0.125952
0.124951
0.123693
0.122146
0.120278
0.118062
0.115473
0.112496
0.109119
0.105339
0.101164
0.0966061
0.0916885
0.0864402
0.0808996
0.0751062
0.0691101
0.0629544
0.0566973
0.0503738
0.0440513
0.0377305
0.0314781
0.127393
0.127308
0.127136
0.126864
0.126474
0.12594
0.125237
0.124335
0.123202
0.121808
0.120124
0.118122
0.115778
0.113075
0.109998
0.106543
0.10271
0.0985103
0.0939592
0.0890828
0.083911
0.0784827
0.072837
0.0670224
0.0610793
0.0550631
0.049005
0.0429683
0.0369493
0.0310107
0.126321
0.126212
0.125993
0.125655
0.125181
0.124549
0.123736
0.122714
0.121455
0.119932
0.118119
0.115992
0.113533
0.110726
0.107563
0.104044
0.100172
0.0959602
0.0914289
0.0866048
0.0815191
0.0762105
0.0707171
0.0650856
0.0593541
0.0535745
0.0477748
0.0420139
0.0362848
0.0306458
0.125231
0.125099
0.124834
0.12443
0.123875
0.123148
0.122228
0.121091
0.119712
0.118067
0.116134
0.113893
0.111328
0.108431
0.105195
0.101624
0.0977249
0.0935149
0.0890147
0.0842532
0.0792617
0.0740786
0.068741
0.0632933
0.0577712
0.0522232
0.0466743
0.0411791
0.0357278
0.0303745
0.124126
0.12397
0.123661
0.123194
0.122559
0.12174
0.120717
0.119471
0.117978
0.116218
0.114173
0.111828
0.109169
0.106192
0.102896
0.0992851
0.095372
0.0911747
0.0867162
0.0820259
0.0771356
0.0720828
0.0669031
0.0616388
0.0563231
0.0510011
0.045695
0.0404551
0.0352696
0.0301882
0.123008
0.122829
0.122475
0.121947
0.121235
0.120327
0.119207
0.117856
0.116255
0.114389
0.112242
0.109801
0.107059
0.104014
0.100668
0.0970302
0.093114
0.0889398
0.0845321
0.0799208
0.0751373
0.0702182
0.0651976
0.0601153
0.0550022
0.0499
0.0448283
0.0398333
0.0349016
0.0300789
0.121877
0.121676
0.121281
0.120692
0.119906
0.118913
0.117699
0.11625
0.114549
0.112583
0.110342
0.107816
0.105001
0.101899
0.0985151
0.0948604
0.0909514
0.0868099
0.0824611
0.0779352
0.0732631
0.0684801
0.0636187
0.0587162
0.0538012
0.0489121
0.0440661
0.0393056
0.0346159
0.0300386
0.120738
0.120516
0.120079
0.119433
0.118576
0.117502
0.116199
0.114656
0.112862
0.110805
0.108478
0.105876
0.102999
0.0998502
0.0964383
0.0927772
0.0888848
0.0847843
0.0805015
0.0760662
0.0715089
0.0668634
0.0621604
0.0574347
0.0527128
0.0480297
0.0434006
0.0388641
0.0344046
0.0300602
0.119593
0.11935
0.118874
0.118172
0.117247
0.116095
0.114709
0.113079
0.111197
0.109057
0.106654
0.103986
0.101055
0.0978696
0.0944396
0.0907812
0.086914
0.0828619
0.078651
0.0743107
0.0698707
0.0653631
0.0608168
0.0562644
0.0517298
0.0472454
0.0428242
0.0385012
0.0342604
0.0301364
0.118444
0.118181
0.117667
0.116913
0.115923
0.114698
0.113233
0.111522
0.10956
0.107344
0.104872
0.102147
0.0991727
0.0959594
0.0925205
0.0888733
0.0850388
0.0810414
0.0769073
0.0726654
0.068344
0.0639738
0.059582
0.0551985
0.0508454
0.0465519
0.0423295
0.0382096
0.0341763
0.0302605
0.117295
0.117013
0.116463
0.115658
0.114608
0.113313
0.111774
0.109988
0.107954
0.105669
0.103138
0.100363
0.0973539
0.0941217
0.090682
0.0870537
0.0832586
0.0793213
0.075268
0.0711266
0.0669245
0.0626905
0.05845
0.0542307
0.0500526
0.0459423
0.0419094
0.0379825
0.0341456
0.0304263
0.116149
0.115848
0.115264
0.114412
0.113304
0.111945
0.110337
0.108483
0.106381
0.104036
0.101453
0.0986373
0.0956012
0.0923582
0.0889252
0.0853225
0.0815724
0.0776997
0.0737301
0.0696907
0.0656076
0.0615079
0.0574151
0.0533548
0.049345
0.0454097
0.0415573
0.0378132
0.0341617
0.0306277
0.11501
0.114692
0.114075
0.113178
0.112016
0.110597
0.108926
0.107008
0.104847
0.102449
0.0998204
0.0969721
0.0939168
0.0906702
0.0872507
0.0836795
0.0799792
0.0761747
0.0722909
0.0683541
0.0643889
0.0604208
0.0564715
0.0525645
0.0487161
0.0449477
0.0412666
0.0376954
0.0342187
0.0308589
0.113881
0.113546
0.112899
0.11196
0.110747
0.109273
0.107544
0.105569
0.103355
0.10091
0.0982443
0.0953702
0.0923026
0.0890591
0.085659
0.0821243
0.0784778
0.074744
0.0709473
0.0671128
0.0632638
0.0594241
0.0556137
0.051854
0.0481597