/*--------------------------------*- C++ -*----------------------------------*\
  =========                 |
  \\      /  F ield         | OpenFOAM: The Open Source CFD Toolbox
   \\    /   O peration     | Website:  https://openfoam.org
    \\  /    A nd           | Version:  7
     \\/     M anipulation  |
\*---------------------------------------------------------------------------*/
FoamFile
{
    version     2.0;
    format      ascii;
    class       volVectorField;
    location    "95";
    object      U;
}
// * * * * * * * * * * * * * * * * * * * * * * * * * * * * * * * * * * * * * //

dimensions      [0 1 -1 0 0 0 0];

internalField   nonuniform List<vector> 
8500
(
(1.04706 0.352657 -7.03677e-22)
(1.03568 0.370183 -2.29457e-20)
(1.03645 0.352683 5.3013e-20)
(1.02253 0.389864 -4.00534e-20)
(1.02418 0.369959 7.49557e-20)
(1.02573 0.352356 -8.99229e-20)
(1.0086 0.411405 -2.99349e-20)
(1.01033 0.389426 1.18417e-19)
(1.01256 0.36937 -6.76462e-20)
(1.01491 0.351664 2.09137e-20)
(0.995756 0.410724 5.3577e-20)
(0.998066 0.388614 7.03828e-20)
(1.00084 0.368409 -2.32385e-19)
(1.004 0.350587 5.34257e-20)
(0.980566 0.433171 7.83822e-20)
(0.982881 0.409632 -9.86087e-20)
(0.985763 0.387424 4.68392e-20)
(0.989033 0.367068 2.59066e-19)
(0.992999 0.349096 1.57912e-19)
(0.964172 0.456781 -3.34222e-20)
(0.96696 0.431742 -1.27599e-19)
(0.97 0.408122 -4.62999e-20)
(0.973447 0.385853 -1.57862e-19)
(0.977159 0.365333 8.74572e-20)
(0.981931 0.347151 -1.87738e-19)
(0.949716 0.454955 -2.97139e-20)
(0.953339 0.429854 -2.01243e-20)
(0.957129 0.406186 9.06682e-20)
(0.961137 0.383896 1.82453e-19)
(0.965253 0.363194 -3.0863e-19)
(0.970917 0.344723 2.12174e-19)
(0.930807 0.479293 -4.37689e-21)
(0.935239 0.452634 -5.7371e-21)
(0.939715 0.4275 1.68109e-19)
(0.944277 0.403814 -6.53705e-20)
(0.948846 0.381537 -1.32494e-19)
(0.953422 0.360629 -5.76822e-21)
(0.960215 0.341825 -3.03286e-19)
(0.915405 0.476479 -8.91163e-20)
(0.920756 0.449813 5.10026e-20)
(0.926098 0.424675 1.41842e-19)
(0.931438 0.401 4.48235e-20)
(0.936595 0.378753 -2.57265e-19)
(0.941855 0.357562 -9.12696e-21)
(0.949848 0.338404 9.4231e-20)
(0.893636 0.501393 -5.30267e-20)
(0.90001 0.473129 -1.27435e-20)
(0.906284 0.446491 -1.53533e-19)
(0.912493 0.421382 -8.10821e-20)
(0.918609 0.397745 -9.18168e-20)
(0.924434 0.375551 3.05368e-19)
(0.930733 0.353996 -7.20863e-20)
(0.939004 0.333233 2.74687e-19)
(0.869709 0.52733 -1.65455e-19)
(0.87728 0.497445 7.33363e-20)
(0.884642 0.469242 1.2014e-19)
(0.891841 0.442669 4.96758e-20)
(0.898913 0.417625 1.3678e-19)
(0.905807 0.394054 6.71326e-20)
(0.912392 0.371931 -1.7722e-20)
(0.919718 0.350414 1.52657e-19)
(0.928204 0.329591 2.48592e-20)
(0.852345 0.522711 -7.77075e-20)
(0.860971 0.492918 -2.27961e-19)
(0.869322 0.464817 -1.46921e-20)
(0.877447 0.438348 -1.01744e-19)
(0.885376 0.413405 1.59852e-19)
(0.89305 0.389934 -2.4918e-19)
(0.900388 0.367892 -6.39896e-20)
(0.908475 0.346416 -9.76232e-20)
(0.9171 0.325552 -3.57382e-19)
(0.824902 0.548769 -2.6043e-20)
(0.83505 0.517468 -1.01368e-20)
(0.844733 0.487812 -3.82564e-20)
(0.854075 0.459854 -8.01669e-20)
(0.863122 0.433528 -1.16403e-19)
(0.871906 0.408725 6.3472e-20)
(0.880363 0.38539 2.01164e-19)
(0.888453 0.363464 -1.10046e-19)
(0.897214 0.342098 1.44924e-19)
(0.906104 0.321396 4.15049e-19)
(0.806586 0.542735 -3.64333e-19)
(0.81785 0.5116 -1.77592e-19)
(0.82859 0.482127 4.75676e-20)
(0.83892 0.454354 6.74415e-20)
(0.848889 0.42821 2.38681e-19)
(0.858524 0.403586 -3.36066e-19)
(0.867766 0.380423 9.97921e-20)
(0.876598 0.358649 6.01296e-20)
(0.885999 0.337451 -8.64076e-20)
(0.895248 0.31701 -3.12182e-19)
(0.788391 0.536027 1.93206e-19)
(0.800772 0.50511 3.14539e-19)
(0.812566 0.475865 2.58668e-19)
(0.823882 0.448319 1.90786e-19)
(0.834768 0.422398 -4.139e-19)
(0.845252 0.39799 -4.29677e-21)
(0.855277 0.375035 -1.12791e-19)
(0.864844 0.353452 4.386e-19)
(0.874876 0.332472 -1.86745e-20)
(0.884544 0.312344 -2.1841e-19)
(0.755929 0.560701 -2.72833e-19)
(0.770346 0.52865 6.16692e-21)
(0.783842 0.498 1.05434e-19)
(0.796686 0.469028 -1.66658e-19)
(0.808983 0.441752 -2.10192e-19)
(0.820782 0.416092 5.34146e-19)
(0.83211 0.391938 2.16514e-19)
(0.842916 0.369229 -2.25561e-19)
(0.853213 0.347874 -2.60795e-19)
(0.863877 0.327156 -2.95583e-19)
(0.874006 0.307374 -2.70331e-20)
(0.736906 0.552366 1.45208e-19)
(0.752481 0.520607 5.71208e-20)
(0.767086 0.490273 -2.92204e-19)
(0.780974 0.46162 3.10594e-19)
(0.794246 0.434656 1.91289e-19)
(0.806951 0.409296 -7.48329e-20)
(0.819119 0.385434 -1.46285e-19)
(0.830703 0.363005 1.28543e-19)
(0.841726 0.341916 -2.24069e-19)
(0.853023 0.321498 -3.13733e-19)
(0.863645 0.302085 3.03133e-19)
(0.699803 0.575391 4.61616e-19)
(0.718095 0.543315 -2.32057e-19)
(0.734822 0.511902 2.86659e-19)
(0.75053 0.481935 -3.32973e-19)
(0.765455 0.453645 4.39239e-20)
(0.779694 0.427033 -1.33893e-19)
(0.793297 0.402014 9.75823e-20)
(0.806299 0.378479 9.27693e-20)
(0.818655 0.356366 -5.77914e-20)
(0.830402 0.335576 5.59859e-19)
(0.842333 0.315492 -7.52722e-20)
(0.85347 0.296467 -2.5941e-19)
(0.680075 0.565285 -3.35225e-19)
(0.699526 0.533554 4.85361e-19)
(0.717399 0.502543 -5.22235e-20)
(0.7342 0.47299 1.38764e-19)
(0.750152 0.445108 1.69913e-19)
(0.765348 0.41889 6.85776e-20)
(0.779841 0.394249 -4.70732e-19)
(0.793669 0.371079 1.06957e-19)
(0.806793 0.349314 1.00385e-19)
(0.819257 0.328857 -3.37621e-19)
(0.831823 0.309137 1.26989e-19)
(0.843489 0.290513 4.92726e-20)
(0.637439 0.584796 -4.99349e-20)
(0.660623 0.554416 -6.12828e-21)
(0.681229 0.523092 7.89743e-20)
(0.700238 0.492536 -1.35078e-19)
(0.718122 0.463446 -1.89624e-20)
(0.735088 0.436016 -5.2824e-19)
(0.75123 0.410232 -4.0852e-19)
(0.766604 0.386007 -6.908e-20)
(0.781249 0.363235 -5.89185e-20)
(0.795133 0.341853 -6.59101e-20)
(0.80831 0.32176 -1.3508e-19)
(0.821507 0.302431 -1.5762e-19)
(0.833712 0.284223 -2.12475e-19)
(0.617204 0.572825 -9.73159e-20)
(0.641483 0.542797 -4.49867e-20)
(0.663235 0.511938 -4.67429e-19)
(0.683368 0.481889 -4.45671e-19)
(0.70232 0.453309 8.27958e-20)
(0.720288 0.426375 7.28344e-19)
(0.737364 0.401065 1.09165e-19)
(0.753606 0.377293 2.96149e-19)
(0.769057 0.354955 -4.64142e-19)
(0.783692 0.333986 -1.10711e-19)
(0.797575 0.314288 5.54756e-19)
(0.811397 0.295375 2.47785e-19)
(0.824147 0.277597 1.0236e-18)
(0.597315 0.560049 -6.20923e-20)
(0.622685 0.530437 3.19933e-19)
(0.645572 0.500103 -2.00767e-19)
(0.666815 0.470614 1.48027e-19)
(0.68682 0.44259 3.41129e-19)
(0.705774 0.416193 -2.35024e-19)
(0.723769 0.391397 6.00884e-20)
(0.740866 0.368114 2.93845e-19)
(0.757112 0.346243 3.72656e-19)
(0.772489 0.325719 -1.96111e-19)
(0.787067 0.306444 -1.12877e-19)
(0.801507 0.287973 1.7342e-19)
(0.814804 0.270638 -5.06736e-19)
(0.547457 0.57188 7.24841e-20)
(0.577808 0.54648 2.03886e-19)
(0.604263 0.517351 -3.04589e-19)
(0.628271 0.487598 7.26892e-19)
(0.650606 0.458719 3.06367e-19)
(0.671646 0.431298 -1.02991e-19)
(0.691569 0.40548 -3.28599e-20)
(0.710467 0.381236 1.39734e-19)
(0.728405 0.358477 -3.90109e-19)
(0.745432 0.337106 3.24032e-20)
(0.761538 0.317057 -2.54916e-19)
(0.776802 0.298234 -1.13796e-19)
(0.79185 0.280227 -5.08128e-19)
(0.805693 0.26335 -2.21784e-19)
(0.527443 0.557201 -2.55521e-19)
(0.558718 0.532136 1.38267e-19)
(0.586247 0.503552 -8.48146e-20)
(0.61136 0.474437 -2.63315e-19)
(0.634768 0.446218 2.89347e-19)
(0.656822 0.419444 3.11808e-19)
(0.677694 0.394246 -8.78569e-22)
(0.697478 0.37059 -7.21665e-20)
(0.71624 0.348391 -4.10097e-20)
(0.734033 0.327552 3.08807e-19)
(0.750855 0.308007 2.78109e-19)
(0.766792 0.289662 7.84266e-20)
(0.782437 0.272143 5.35949e-19)
(0.796822 0.255739 1.76192e-19)
(0.507883 0.541695 -9.32531e-20)
(0.540079 0.517032 -1.58917e-19)
(0.568669 0.489056 -6.08405e-20)
(0.594865 0.460634 -9.09896e-21)
(0.619324 0.433123 -6.3187e-19)
(0.642372 0.407039 -8.07551e-19)
(0.664173 0.382501 -1.25844e-19)
(0.684822 0.359471 2.85309e-19)
(0.70439 0.337865 -1.13045e-19)
(0.722934 0.317588 -5.79838e-19)
(0.740457 0.298576 5.48628e-19)
(0.757053 0.280736 7.95316e-20)
(0.773281 0.263727 -2.23951e-19)
(0.788203 0.247811 3.54215e-19)
(0.45039 0.541471 1.07788e-19)
(0.488813 0.525381 3.75561e-19)
(0.521924 0.501189 -1.31281e-19)
(0.551556 0.47388 2.00844e-19)
(0.578815 0.446203 3.86202e-19)
(0.604301 0.419448 2.12583e-19)
(0.628318 0.394097 9.01393e-19)
(0.651026 0.370257 4.1687e-19)
(0.672519 0.347889 -3.45271e-20)
(0.692874 0.326908 -2.20968e-20)
(0.712149 0.307225 7.37946e-20)
(0.730357 0.288773 -6.06774e-19)
(0.747596 0.271464 -3.27011e-19)
(0.764393 0.254986 1.41595e-19)
(0.779845 0.239573 -4.91939e-19)
(0.43124 0.524217 8.09601e-20)
(0.470269 0.508283 -4.78932e-19)
(0.504285 0.484625 3.64785e-19)
(0.53494 0.458043 -1.70247e-19)
(0.563236 0.431163 -3.95319e-19)
(0.589722 0.405209 -9.65582e-20)
(0.614683 0.380632 -3.72144e-19)
(0.638272 0.357528 -7.8176e-19)
(0.660588 0.335856 6.75088e-20)
(0.681708 0.315533 6.29474e-19)
(0.701696 0.296472 -2.77103e-19)
(0.720571 0.278607 3.39957e-19)
(0.738436 0.261854 4.60654e-19)
(0.755786 0.245928 2.98089e-19)
(0.771758 0.231034 2.28735e-19)
(0.412648 0.506137 2.90926e-19)
(0.452285 0.490422 5.08556e-19)
(0.487193 0.467362 -6.20319e-19)
(0.518848 0.441562 4.92866e-19)
(0.548153 0.415529 3.96386e-19)
(0.575611 0.39042 -1.1532e-19)
(0.601488 0.366658 -6.16057e-20)
(0.625934 0.344326 2.27742e-19)
(0.649047 0.323384 -3.95451e-19)
(0.67091 0.30375 -5.33166e-19)
(0.69159 0.28534 2.0391e-19)
(0.711113 0.268089 -2.08505e-19)
(0.729585 0.251914 -2.49972e-19)
(0.747471 0.23656 -2.18613e-19)
(0.763952 0.222202 2.20592e-20)
(0.39465 0.487256 -5.04098e-19)
(0.434896 0.471824 -4.01399e-20)
(0.470678 0.449422 2.99599e-20)
(0.503306 0.42446 -5.17137e-20)
(0.533592 0.399322 -4.97775e-19)
(0.561991 0.375101 -2.22189e-20)
(0.588755 0.352191 -8.24273e-20)
(0.614029 0.330667 5.01351e-19)
(0.637915 0.310487 -1.57212e-19)
(0.660496 0.291572 -4.52342e-20)
(0.681846 0.27384 2.68918e-19)
(0.701996 0.257228 7.89965e-19)
(0.721056 0.241656 -8.03134e-20)
(0.739459 0.226894 -9.62503e-20)
(0.756437 0.213086 1.6579e-19)
(0.330595 0.469294 3.61534e-19)
(0.377284 0.467604 -2.14021e-19)
(0.418134 0.452515 -3.48322e-19)
(0.454769 0.430829 3.45814e-19)
(0.488342 0.406757 -1.16453e-19)
(0.519575 0.38256 3.26552e-19)
(0.548884 0.359268 1.50403e-19)
(0.576504 0.337248 -8.87398e-20)
(0.602577 0.316567 -3.40993e-19)
(0.627207 0.297181 4.25937e-19)
(0.650482 0.279013 -1.0757e-19)
(0.672478 0.261986 -4.72256e-19)
(0.693233 0.246036 -1.62971e-19)
(0.71286 0.23109 -5.17302e-20)
(0.731762 0.216938 8.1942e-19)
(0.749223 0.203697 -5.30789e-19)
(0.313775 0.449168 -2.68385e-19)
(0.360584 0.447208 5.30874e-19)
(0.40203 0.43252 9.63958e-20)
(0.439495 0.411607 2.62554e-19)
(0.473981 0.388475 1.96399e-19)
(0.506127 0.365264 -5.40717e-19)
(0.536311 0.342942 -2.85435e-19)
(0.564754 0.321847 5.3337e-19)
(0.591596 0.302041 -1.76237e-20)
(0.616942 0.283478 -4.40536e-19)
(0.640884 0.266086 1.13612e-19)
(0.663501 0.249789 5.51403e-19)
(0.684838 0.234526 -4.49597e-19)
(0.70501 0.220226 -1.83749e-19)
(0.72439 0.206703 -1.62087e-19)
(0.742318 0.194045 3.62905e-19)
(0.29764 0.428281 -3.62692e-19)
(0.344583 0.4261 -1.58049e-19)
(0.386613 0.411869 -6.68356e-20)
(0.424882 0.391783 -5.24402e-19)
(0.460247 0.369639 -4.0137e-19)
(0.49327 0.347457 5.36356e-19)
(0.524293 0.326141 2.99471e-19)
(0.553524 0.306007 -2.35923e-19)
(0.581102 0.287106 -2.74871e-19)
(0.607134 0.269397 2.99539e-19)
(0.631715 0.252807 -1.70812e-19)
(0.654927 0.237264 2.47695e-19)
(0.676823 0.22271 1.19589e-19)
(0.697516 0.209078 4.68273e-19)
(0.717354 0.1962 9.44149e-20)
(0.735733 0.184141 -4.29241e-19)
(0.282225 0.406668 -7.44098e-20)
(0.329312 0.404311 -2.12035e-19)
(0.371912 0.390591 1.86736e-19)
(0.410955 0.371383 6.97072e-20)
(0.447162 0.350273 -2.0922e-19)
(0.481024 0.329159 1.4067e-19)
(0.512848 0.308886 -3.7602e-19)
(0.542832 0.289745 -8.42014e-20)
(0.571114 0.271782 3.47839e-19)
(0.5978 0.254952 1.24568e-19)
(0.622991 0.23919 1.96878e-19)
(0.646771 0.224425 -3.74693e-19)
(0.669199 0.210602 -1.45452e-19)
(0.69039 0.197657 -4.94648e-20)
(0.710664 0.185441 6.89797e-20)
(0.729475 0.173996 3.94404e-19)
(0.267562 0.384363 -1.66233e-19)
(0.314802 0.381875 3.67003e-19)
(0.357954 0.368715 5.86653e-19)
(0.397739 0.350434 1.68199e-19)
(0.43475 0.330403 2.30191e-19)
(0.46941 0.310396 -3.24666e-21)
(0.501996 0.291201 1.1096e-19)
(0.532696 0.273084 3.91437e-19)
(0.561645 0.256085 -5.78336e-20)
(0.588954 0.240162 -7.09046e-19)
(0.614724 0.225252 6.19898e-21)
(0.639045 0.211287 4.03339e-20)
(0.661979 0.198215 3.74898e-20)
(0.683642 0.185976 -2.32617e-19)
(0.704329 0.174438 -2.16534e-19)
(0.723554 0.163622 -4.24364e-19)
(0.202231 0.34643 -1.11724e-19)
(0.253684 0.361402 2.21841e-19)
(0.301081 0.358825 2.19033e-19)
(0.344765 0.346275 -2.18547e-19)
(0.385256 0.328966 2.62157e-20)
(0.423031 0.310054 -1.44269e-19)
(0.458447 0.291192 3.61407e-20)
(0.491755 0.273106 -4.35829e-21)
(0.523132 0.256043 -1.75135e-19)
(0.552712 0.240036 -7.90503e-20)
(0.58061 0.225045 4.7122e-19)
(0.606928 0.211009 -3.55396e-19)
(0.631759 0.197866 2.39366e-19)
(0.655172 0.185564 9.78672e-20)
(0.677282 0.174049 -2.26167e-20)
(0.698359 0.163204 7.21188e-21)
(0.717977 0.153031 2.33757e-19)
(0.18963 0.32408 3.09684e-19)
(0.240619 0.337823 -1.71851e-19)
(0.288177 0.335196 -3.03831e-19)
(0.332368 0.323301 -1.85042e-19)
(0.37353 0.307009 -3.60709e-19)
(0.412025 0.289255 2.96811e-19)
(0.448154 0.271571 -2.44256e-19)
(0.482141 0.254626 5.26058e-20)
(0.514155 0.238644 3.71406e-20)
(0.544329 0.223655 -1.62338e-19)
(0.572781 0.209619 1.89886e-19)
(0.599614 0.196479 2.88355e-19)
(0.624926 0.184178 -2.57768e-19)
(0.648789 0.172665 -2.9626e-19)
(0.671319 0.161891 5.70429e-19)
(0.692762 0.151752 -5.16171e-19)
(0.712752 0.142236 1.89607e-19)
(0.177827 0.301133 -2.58506e-19)
(0.228396 0.313665 5.51221e-20)
(0.276113 0.311025 1.20586e-19)
(0.320787 0.299828 -4.22979e-19)
(0.36258 0.284593 6.9332e-20)
(0.401751 0.268034 -2.89581e-19)
(0.438547 0.251559 2.47574e-19)
(0.473169 0.235784 5.93633e-20)
(0.505779 0.22091 -2.71497e-19)
(0.53651 0.206962 -6.18697e-20)
(0.565479 0.193903 1.47816e-19)
(0.592794 0.18168 7.01609e-20)
(0.618555 0.170239 -2.07322e-20)
(0.64284 0.159532 1.72447e-20)
(0.665762 0.149515 -5.01812e-19)
(0.687547 0.140096 3.5951e-19)
(0.707887 0.13125 3.35785e-19)
(0.166851 0.277631 2.35909e-19)
(0.21704 0.288966 1.61677e-19)
(0.264915 0.286349 3.0774e-19)
(0.310042 0.275889 4.29906e-20)
(0.352425 0.26175 3.00946e-20)
(0.392225 0.246418 -2.12123e-21)
(0.429642 0.231184 -3.16597e-19)
(0.464855 0.216605 1.67071e-19)
(0.498018 0.202863 -2.70714e-19)
(0.529265 0.189979 1.79665e-19)
(0.558715 0.177918 -2.90394e-19)
(0.586479 0.16663 -1.71765e-19)
(0.612657 0.156066 3.49564e-19)
(0.637333 0.146182 3.12986e-20)
(0.66062 0.136936 7.93059e-20)
(0.682722 0.128249 3.22405e-20)
(0.703388 0.120086 -3.7013e-19)
(0.156727 0.253614 -1.58097e-19)
(0.206575 0.263768 1.00217e-19)
(0.254603 0.261205 -2.26813e-19)
(0.300154 0.251521 1.7344e-19)
(0.343082 0.238511 2.47219e-20)
(0.383465 0.224439 1.47829e-19)
(0.421454 0.210472 -5.44935e-21)
(0.457211 0.197114 -1.46962e-19)
(0.490885 0.184526 1.4584e-19)
(0.522608 0.172727 -3.77977e-19)
(0.552502 0.161683 5.30931e-19)
(0.580678 0.151348 2.04445e-19)
(0.607241 0.141677 -4.30965e-19)
(0.632277 0.13263 4.36381e-20)
(0.655899 0.124169 2.8443e-19)
(0.678293 0.116226 -4.05151e-19)
(0.699261 0.108757 -2.10336e-21)
(0.147479 0.229126 1.03731e-19)
(0.197024 0.238112 -8.56603e-20)
(0.245197 0.235634 -4.2746e-20)
(0.291139 0.226757 -8.69872e-20)
(0.33457 0.214909 -1.11392e-19)
(0.375485 0.202126 -3.11458e-19)
(0.413997 0.189452 1.36853e-19)
(0.450252 0.177337 -1.91934e-19)
(0.484392 0.165924 3.55022e-19)
(0.516549 0.155228 2.41318e-19)
(0.546848 0.145218 -4.28144e-19)
(0.575401 0.135853 -4.3327e-19)
(0.602315 0.127091 2.08071e-19)
(0.62768 0.118894 -2.3352e-19)
(0.651608 0.111231 -2.90407e-20)
(0.674268 0.104042 2.31945e-19)
(0.695512 0.0972783 -4.32329e-19)
(0.139128 0.204209 -1.66747e-19)
(0.188406 0.212039 -2.4035e-19)
(0.236717 0.209673 3.54231e-19)
(0.283016 0.201636 4.93806e-20)
(0.326901 0.190979 1.7928e-19)
(0.368298 0.179509 1.90112e-19)
(0.407283 0.168152 -4.52074e-20)
(0.443987 0.157301 2.6935e-19)
(0.478548 0.147082 -1.59747e-19)
(0.511098 0.137506 -2.08569e-19)
(0.541762 0.128546 3.34589e-19)
(0.570655 0.120165 3.82937e-19)
(0.597886 0.112324 -4.42307e-19)
(0.623549 0.104991 6.11793e-20)
(0.647753 0.098137 -4.09481e-20)
(0.670653 0.0917107 -1.45034e-19)
(0.692147 0.0856626 5.79717e-20)
(0.131693 0.178908 1.83346e-19)
(0.180739 0.185594 1.33083e-19)
(0.229177 0.183364 -1.91416e-19)
(0.275798 0.176193 9.02588e-20)
(0.320089 0.166753 1.02456e-19)
(0.361917 0.156621 -3.2424e-19)
(0.401324 0.1466 1.59831e-19)
(0.438428 0.137032 1.81404e-20)
(0.473364 0.128023 1.55174e-19)
(0.506264 0.119584 -2.02231e-19)
(0.537253 0.111688 2.54746e-20)
(0.566449 0.104304 -1.61034e-20)
(0.593962 0.0973969 2.25536e-20)
(0.61989 0.0909385 1.38161e-19)
(0.64434 0.0849033 2.48941e-20)
(0.667453 0.0792486 -3.09048e-20)
(0.689171 0.0739248 3.73604e-21)
(0.125191 0.153267 -2.75729e-20)
(0.174041 0.158819 1.63248e-19)
(0.222594 0.156747 -2.07315e-19)
(0.269498 0.150467 5.1927e-20)
(0.314148 0.142267 -1.85134e-19)
(0.356352 0.133493 5.62873e-22)
(0.396129 0.124827 -3.00341e-19)
(0.433584 0.116557 -2.19947e-19)
(0.468848 0.108774 1.18637e-19)
(0.502053 0.101485 3.1472e-20)
(0.533328 0.0946658 -8.40261e-20)
(0.562789 0.0882896 1.13214e-19)
(0.59055 0.0823274 8.3315e-20)
(0.616709 0.0767535 1.40485e-19)
(0.641374 0.0715465 6.95246e-20)
(0.664673 0.0666709 1.60756e-19)
(0.686587 0.0620793 6.54034e-20)
(0.0732841 0.112835 2.66461e-19)
(0.119638 0.127332 -1.0462e-19)
(0.168324 0.131759 -4.82326e-20)
(0.21698 0.129864 -9.21638e-20)
(0.264129 0.124496 8.90769e-21)
(0.309086 0.117556 6.58206e-20)
(0.351614 0.110157 2.05148e-19)
(0.391707 0.102862 2.52906e-19)
(0.429462 0.0959051 9.8793e-20)
(0.465007 0.0893605 -2.38831e-20)
(0.498475 0.0832321 -5.19129e-20)
(0.529993 0.0775012 -1.31581e-19)
(0.559681 0.0721436 1.60195e-20)
(0.587653 0.0671351 -1.57088e-20)
(0.614011 0.0624543 -1.14835e-19)
(0.638859 0.0580832 -1.19781e-20)
(0.662318 0.0539932 -2.32293e-19)
(0.6844 0.050141 4.57194e-21)
(0.0691822 0.0898162 -1.09012e-19)
(0.115047 0.101149 -5.77413e-21)
(0.163601 0.104459 -1.24206e-20)
(0.212345 0.102756 6.16269e-20)
(0.259699 0.0983182 -1.93969e-19)
(0.304913 0.0926551 -7.6453e-20)
(0.34771 0.0866467 -1.31249e-19)
(0.388066 0.0807347 5.29362e-21)
(0.42607 0.0751031 4.43097e-20)
(0.461848 0.0698078 9.97027e-20)
(0.495533 0.0648509 -1.98352e-20)
(0.527254 0.0602169 8.83782e-20)
(0.557131 0.0558863 -4.35412e-20)
(0.585278 0.0518395 -1.5869e-19)
(0.6118 0.048059 -1.68132e-20)
(0.636801 0.0445305 -3.70885e-20)
(0.660391 0.0412315 1.77336e-19)
(0.682613 0.0381247 -3.04209e-20)
(0.0659452 0.0666057 -2.54702e-20)
(0.111428 0.074765 5.62257e-20)
(0.159882 0.0769635 4.40792e-20)
(0.208699 0.0754662 1.26523e-20)
(0.256219 0.0719724 1.49633e-19)
(0.301636 0.0675998 -4.06274e-20)
(0.344647 0.0629941 3.64356e-20)
(0.385212 0.0584766 4.3608e-20)
(0.423414 0.0541797 3.042e-20)
(0.459377 0.0501424 -8.32126e-20)
(0.493234 0.0463651 1.10225e-19)
(0.525115 0.0428356 8.3529e-20)
(0.555141 0.039539 -3.30466e-20)
(0.583427 0.0364602 1.35243e-19)
(0.610079 0.0335859 2.13448e-19)
(0.635201 0.0309054 -3.1543e-20)
(0.658895 0.0284018 8.0457e-20)
(0.681229 0.0260448 -3.65815e-20)
(0.0635813 0.0432483 1.72791e-20)
(0.108789 0.0482265 -8.89288e-20)
(0.157176 0.0493184 4.61212e-20)
(0.20605 0.0480364 1.36276e-19)
(0.253692 0.0454979 -1.1011e-19)
(0.299261 0.0424263 -6.39081e-21)
(0.34243 0.0392327 2.86747e-20)
(0.383149 0.0361181 6.43599e-20)
(0.421497 0.0331634 6.04357e-21)
(0.457596 0.0303909 -2.0885e-20)
(0.491581 0.0277995 -3.41562e-20)
(0.52358 0.0253803 -3.63311e-20)
(0.553716 0.0231229 1.40015e-20)
(0.582104 0.0210171 1.41378e-20)
(0.608852 0.0190536 -7.18306e-20)
(0.634063 0.0172252 -7.08354e-21)
(0.657834 0.0155203 -1.73658e-19)
(0.680248 0.0139163 7.2903e-20)
(0.0620968 0.0197888 -8.1926e-21)
(0.107138 0.0215811 3.7674e-20)
(0.155487 0.0215696 -2.2111e-20)
(0.204402 0.0205097 -6.9802e-20)
(0.252126 0.0189343 3.39684e-20)
(0.297793 0.017171 -7.78988e-22)
(0.341064 0.015396 -9.91014e-20)
(0.381883 0.0136901 6.04745e-20)
(0.420324 0.0120827 -4.10408e-20)
(0.45651 0.0105798 3.27466e-20)
(0.490576 0.0091787 -2.70813e-20)
(0.522651 0.00787386 1.43294e-20)
(0.552858 0.00665954 2.61623e-20)
(0.581312 0.00553015 -7.71353e-20)
(0.608121 0.00448072 7.33556e-21)
(0.633388 0.00350742 -3.49856e-21)
(0.657207 0.00260409 4.40773e-20)
(0.679671 0.00175775 9.96568e-22)
(0.0614954 -0.00372736 5.65536e-21)
(0.106477 -0.00512383 7.08801e-21)
(0.15482 -0.00623701 -1.41115e-20)
(0.203759 -0.00707084 2.72327e-20)
(0.251522 -0.00767887 -1.07961e-20)
(0.297235 -0.00812977 3.38183e-20)
(0.340551 -0.0084824 3.11585e-20)
(0.381413 -0.00877631 -3.90165e-20)
(0.419896 -0.0090334 -1.44601e-20)
(0.456121 -0.00926395 1.98088e-20)
(0.490223 -0.00947233 -1.39596e-20)
(0.522331 -0.00966052 -1.79727e-20)
(0.552568 -0.00982968 1.59397e-21)
(0.581051 -0.00998068 1.87011e-20)
(0.607887 -0.0101142 3.67149e-20)
(0.633178 -0.0102306 2.7532e-21)
(0.657019 -0.0103308 4.11995e-21)
(0.679506 -0.0104167 1.82609e-20)
(0.0617791 -0.0272547 4.49484e-21)
(0.10681 -0.0318407 8.38638e-21)
(0.155176 -0.0340552 -7.10074e-21)
(0.204123 -0.0346622 2.57253e-20)
(0.251883 -0.0343019 -1.43151e-20)
(0.297587 -0.0334395 3.72907e-20)
(0.340892 -0.0323689 2.29403e-20)
(0.381743 -0.0312501 -3.08927e-20)
(0.420214 -0.0301561 -1.13593e-20)
(0.456429 -0.0291137 1.41574e-20)
(0.490521 -0.0281287 -1.18176e-20)
(0.522619 -0.0271997 -2.3104e-20)
(0.552848 -0.0263232 6.14119e-21)
(0.581322 -0.0254953 1.66243e-20)
(0.60815 -0.0247125 3.76755e-20)
(0.633434 -0.0239716 3.24337e-21)
(0.657268 -0.0232686 2.87163e-21)
(0.679749 -0.0225954 1.9451e-20)
(0.0629472 -0.0507477 3.05138e-20)
(0.108134 -0.0585218 2.34902e-20)
(0.156555 -0.0618388 -1.90775e-20)
(0.205492 -0.0622213 -1.13914e-19)
(0.253207 -0.0608952 6.92083e-20)
(0.298849 -0.0587218 -1.14969e-20)
(0.342087 -0.05623 -5.41225e-20)
(0.382871 -0.0537001 2.53374e-23)
(0.421279 -0.0512566 -3.00657e-20)
(0.457434 -0.0489426 3.93753e-20)
(0.49147 -0.0467655 -3.96506e-20)
(0.523517 -0.0447205 3.35646e-20)
(0.553697 -0.0427993 1.26799e-20)
(0.582126 -0.0409936 -6.11995e-20)
(0.608911 -0.0392954 1.84315e-20)
(0.634155 -0.0376983 -3.01714e-21)
(0.657954 -0.0361929 3.2535e-20)
(0.6804 -0.034762 3.35631e-21)
(0.0649971 -0.0741611 -4.61145e-20)
(0.110448 -0.0851195 -7.20597e-20)
(0.158955 -0.0895417 8.29836e-20)
(0.207865 -0.0897051 1.27296e-19)
(0.255493 -0.0874191 -1.14066e-19)
(0.301019 -0.08394 3.01583e-20)
(0.344134 -0.0800319 1.47208e-20)
(0.384797 -0.0760952 7.36096e-20)
(0.423089 -0.072306 -1.9893e-20)
(0.459135 -0.0687239 -6.89024e-20)
(0.49307 -0.0653579 1.41635e-20)
(0.525022 -0.0621997 -5.32278e-20)
(0.555114 -0.0592367 4.25266e-20)
(0.58346 -0.0564556 1.21479e-20)
(0.610169 -0.0538443 -9.53677e-20)
(0.635341 -0.0513929 5.69909e-21)
(0.659077 -0.0490869 -1.39823e-19)
(0.681457 -0.0468999 3.15616e-20)
(0.0679239 -0.0974495 2.32832e-20)
(0.113746 -0.111586 3.15881e-20)
(0.16237 -0.117118 -5.82503e-20)
(0.211238 -0.117071 1.08336e-20)
(0.258736 -0.113834 1.89826e-19)
(0.304095 -0.109058 1.93912e-20)
(0.34703 -0.103741 3.94452e-20)
(0.387516 -0.0984044 5.39942e-21)
(0.42564 -0.0932756 6.63199e-20)
(0.461529 -0.0884308 -7.36884e-20)
(0.495317 -0.0838809 1.04693e-19)
(0.527132 -0.0796144 3.10749e-21)
(0.557097 -0.0756138 -2.65181e-20)
(0.585324 -0.0718613 2.02973e-19)
(0.611921 -0.0683406 1.5818e-19)
(0.63699 -0.0650383 -8.21993e-20)
(0.660635 -0.0619344 1.08928e-19)
(0.682919 -0.0589943 -2.43971e-21)
(0.0717203 -0.120568 -1.63519e-19)
(0.118021 -0.137876 7.20072e-21)
(0.166793 -0.144522 -2.95097e-20)
(0.215604 -0.144275 -4.84089e-21)
(0.262932 -0.1401 -9.63046e-20)
(0.30807 -0.134039 -1.11672e-19)
(0.350771 -0.127324 -4.66503e-20)
(0.391025 -0.120597 -1.60884e-19)
(0.42893 -0.114137 1.80284e-19)
(0.464613 -0.108037 3.70973e-20)
(0.498209 -0.10231 -7.51934e-20)
(0.529845 -0.0969414 1.28315e-19)
(0.559643 -0.0919091 -5.58762e-20)
(0.587715 -0.0871907 -1.27097e-19)
(0.614166 -0.0827656 -3.0049e-20)
(0.639099 -0.078617 -4.01284e-20)
(0.662627 -0.0747191 6.4507e-20)
(0.684786 -0.07103 -4.72969e-21)
(0.0763773 -0.143471 1.0391e-20)
(0.123265 -0.16394 -2.5398e-20)
(0.172217 -0.171708 -7.15808e-20)
(0.220955 -0.171276 -3.32571e-20)
(0.268073 -0.16618 -5.95368e-20)
(0.312939 -0.158848 4.20005e-20)
(0.35535 -0.150748 2.49219e-19)
(0.395319 -0.142642 2.16928e-19)
(0.432953 -0.134861 1.36485e-19)
(0.468382 -0.127516 -5.09768e-20)
(0.501741 -0.120621 2.84443e-20)
(0.533157 -0.114158 -2.09904e-19)
(0.562749 -0.108102 7.29945e-20)
(0.590629 -0.102424 -5.79191e-20)
(0.6169 -0.097101 -8.20466e-20)
(0.641666 -0.092112 4.37899e-20)
(0.665048 -0.0874248 -3.7283e-19)
(0.687055 -0.0829921 1.3479e-19)
(0.129464 -0.189732 5.17917e-20)
(0.17863 -0.198632 -2.25948e-20)
(0.227282 -0.198032 -3.43466e-20)
(0.274151 -0.192033 -1.13288e-19)
(0.318693 -0.183449 -2.38768e-20)
(0.36076 -0.17398 -1.05445e-20)
(0.400391 -0.164509 -3.88545e-19)
(0.437703 -0.15542 -2.83922e-19)
(0.472831 -0.146841 1.65928e-19)
(0.505908 -0.138788 2.4268e-20)
(0.537062 -0.131242 6.24897e-20)
(0.56641 -0.12417 -5.98872e-20)
(0.594063 -0.117542 3.0567e-19)
(0.62012 -0.111329 5.98601e-20)
(0.644687 -0.105506 8.93353e-20)
(0.667897 -0.100036 2.09813e-19)
(0.689722 -0.0948654 -1.12227e-19)
(0.136606 -0.215208 6.68422e-20)
(0.186019 -0.225248 5.98477e-20)
(0.234573 -0.224501 -9.1825e-20)
(0.281154 -0.217621 1.58654e-19)
(0.325324 -0.207807 2.25851e-20)
(0.366992 -0.196988 -2.88119e-19)
(0.406232 -0.186168 1.81397e-19)
(0.443172 -0.175786 7.24902e-20)
(0.477952 -0.165987 -8.4299e-20)
(0.510704 -0.156789 2.26563e-20)
(0.541555 -0.14817 1.05669e-20)
(0.570621 -0.140094 -8.6417e-20)
(0.59801 -0.132525 2.19885e-19)
(0.62382 -0.12543 -7.74742e-20)
(0.648158 -0.118783 5.59699e-20)
(0.671168 -0.112535 1.19451e-19)
(0.692784 -0.106635 -4.42679e-20)
(0.144675 -0.240321 -9.13007e-20)
(0.19437 -0.251512 -3.29255e-19)
(0.242815 -0.250641 2.21964e-19)
(0.289071 -0.242907 1.06569e-19)
(0.332819 -0.231886 1.82996e-19)
(0.374037 -0.219739 1.97399e-19)
(0.412834 -0.20759 1.25453e-19)
(0.449353 -0.195932 1.65434e-19)
(0.483737 -0.184928 -2.98109e-19)
(0.516121 -0.1746 3.32863e-20)
(0.546628 -0.164921 6.4973e-20)
(0.575375 -0.155853 3.35096e-19)
(0.602466 -0.147354 -1.82601e-19)
(0.627997 -0.139388 -4.60179e-20)
(0.652075 -0.131925 -1.05934e-19)
(0.674858 -0.124909 -6.90906e-20)
(0.696238 -0.118287 1.79954e-19)
(0.153653 -0.265026 2.38285e-21)
(0.203666 -0.277382 -3.65152e-20)
(0.251991 -0.276412 1.43548e-19)
(0.297888 -0.267852 -3.10264e-19)
(0.341166 -0.255653 -1.77841e-20)
(0.381883 -0.242201 -2.76621e-19)
(0.420186 -0.228745 1.5656e-19)
(0.456235 -0.21583 -2.51632e-19)
(0.490178 -0.203639 2.42381e-19)
(0.522151 -0.192196 2.15633e-19)
(0.552276 -0.181473 -1.76279e-19)
(0.580665 -0.171426 -6.10473e-19)
(0.607424 -0.162009 3.26158e-19)
(0.632643 -0.153185 -2.62467e-19)
(0.65643 -0.144916 -5.73657e-20)
(0.678961 -0.13714 2.12751e-19)
(0.700078 -0.129807 -1.74315e-19)
(0.163518 -0.28928 -1.37589e-19)
(0.213887 -0.302813 1.73766e-19)
(0.262085 -0.301774 -3.30905e-19)
(0.307589 -0.292421 6.11854e-20)
(0.350352 -0.279073 -6.79496e-21)
(0.390518 -0.264344 3.80217e-19)
(0.428276 -0.249605 -2.36544e-19)
(0.463807 -0.235454 -5.01783e-20)
(0.497265 -0.222095 6.5383e-20)
(0.528785 -0.209555 -8.26329e-20)
(0.558488 -0.197804 3.20403e-19)
(0.586484 -0.186793 1.77396e-19)
(0.612877 -0.176474 -3.56878e-19)
(0.637751 -0.166803 1.93468e-19)
(0.661219 -0.157741 2.66363e-19)
(0.683472 -0.149215 -4.86888e-19)
(0.7043 -0.141179 1.77854e-21)
(0.17425 -0.31304 1.35964e-19)
(0.225012 -0.327765 1.88187e-19)
(0.273078 -0.326687 1.07762e-19)
(0.318157 -0.316577 4.38589e-19)
(0.360361 -0.302113 -5.56071e-20)
(0.399926 -0.286137 1.79188e-19)
(0.437092 -0.27014 -6.25684e-19)
(0.472058 -0.254777 3.57059e-19)
(0.504987 -0.240272 -2.20189e-19)
(0.536013 -0.226655 6.45869e-20)
(0.565255 -0.213894 -3.46955e-19)
(0.592823 -0.201936 -2.74994e-20)
(0.618816 -0.190729 2.80141e-19)
(0.643316 -0.180226 4.69129e-20)
(0.666435 -0.170383 -1.37023e-20)
(0.688383 -0.161118 2.31645e-20)
(0.708898 -0.152391 -3.10915e-19)
(0.185824 -0.336263 -1.89227e-19)
(0.23702 -0.352196 1.54994e-20)
(0.284949 -0.351114 1.69296e-19)
(0.329573 -0.340283 -3.81422e-19)
(0.371175 -0.324741 4.01594e-20)
(0.410093 -0.30755 -4.48305e-19)
(0.446618 -0.290324 4.9618e-19)
(0.480974 -0.273775 -1.3021e-19)
(0.513331 -0.258146 -1.4742e-19)
(0.543823 -0.243473 4.27717e-21)
(0.572568 -0.229722 1.69381e-21)
(0.599672 -0.216835 2.61555e-19)
(0.625233 -0.204756 -3.82514e-20)
(0.649328 -0.193436 -3.3235e-19)
(0.672069 -0.182828 -4.12071e-19)
(0.693688 -0.172834 4.80042e-19)
(0.713865 -0.163429 3.0276e-19)
(0.198212 -0.358909 2.19499e-19)
(0.249884 -0.376066 -3.39152e-19)
(0.297675 -0.375015 -3.22045e-19)
(0.341818 -0.363507 1.28894e-19)
(0.382777 -0.346924 -5.3829e-19)
(0.421002 -0.328553 5.40661e-19)
(0.456841 -0.310129 -2.35678e-19)
(0.490542 -0.292421 -2.38084e-19)
(0.522284 -0.275694 2.11923e-20)
(0.552203 -0.259988 -5.71676e-22)
(0.580414 -0.245267 -3.00253e-20)
(0.607021 -0.231471 2.01114e-19)
(0.632119 -0.218539 -1.91307e-19)
(0.655779 -0.206419 9.87056e-20)
(0.678115 -0.195059 2.1396e-19)
(0.69938 -0.18435 -2.68241e-19)
(0.719197 -0.174279 -5.50459e-20)
(0.211387 -0.380938 -3.14523e-20)
(0.263578 -0.399335 2.39288e-19)
(0.311232 -0.398355 2.14858e-19)
(0.354869 -0.386213 -3.37914e-19)
(0.395148 -0.368632 1.82473e-19)
(0.432635 -0.349119 -1.40393e-19)
(0.467742 -0.329529 -9.53075e-21)
(0.500746 -0.310692 3.55274e-20)
(0.531834 -0.292893 -8.48816e-20)
(0.561142 -0.276179 1.69091e-19)
(0.588783 -0.260511 -9.19909e-20)
(0.614859 -0.245826 -2.7331e-19)
(0.639463 -0.23206 3.89156e-19)
(0.662659 -0.219157 2.41781e-19)
(0.684563 -0.207062 -3.10061e-19)
(0.70545 -0.195652 1.80048e-19)
(0.724884 -0.184928 2.62721e-19)
(0.278073 -0.421966 4.6145e-20)
(0.325594 -0.421098 1.70382e-19)
(0.368703 -0.408368 3.38174e-19)
(0.408265 -0.389835 2.54857e-19)
(0.444973 -0.369218 4.91488e-19)
(0.479306 -0.348498 -4.46493e-20)