/*--------------------------------*- C++ -*----------------------------------*\
  =========                 |
  \\      /  F ield         | OpenFOAM: The Open Source CFD Toolbox
   \\    /   O peration     | Website:  https://openfoam.org
    \\  /    A nd           | Version:  7
     \\/     M anipulation  |
\*---------------------------------------------------------------------------*/
FoamFile
{
    version     2.0;
    format      ascii;
    class       volVectorField;
    location    "50";
    object      U;
}
// * * * * * * * * * * * * * * * * * * * * * * * * * * * * * * * * * * * * * //

dimensions      [0 1 -1 0 0 0 0];

internalField   nonuniform List<vector> 
34000
(
(-0.000258064 0.00038403 -7.8292e-22)
(-0.00172949 0.000974128 -4.21174e-21)
(-0.00477273 0.00141692 5.15403e-22)
(-0.00883179 0.00173456 -8.98834e-22)
(-0.0136948 0.0019452 1.37429e-21)
(-0.0191667 0.00206599 -1.01391e-20)
(-0.0250644 0.00211284 1.74414e-21)
(-0.0312331 0.00210012 -6.87963e-21)
(-0.0375422 0.00204051 -1.48153e-20)
(-0.0438848 0.00194499 1.26842e-20)
(-0.0501765 0.00182286 3.77776e-21)
(-0.056355 0.00168183 -4.53989e-21)
(-0.0623786 0.00152818 5.5842e-21)
(-0.0682254 0.00136688 7.65275e-21)
(-0.0738919 0.0012017 -4.84186e-21)
(-0.0793908 0.00103528 -6.54859e-21)
(-0.0847491 0.000869101 -1.57288e-20)
(-0.0900061 0.000703353 -1.22052e-21)
(-0.0952022 0.000536536 -2.68011e-21)
(-0.100377 0.000366748 -5.28288e-21)
(-0.000280091 0.000899024 -3.82697e-21)
(-0.00178413 0.00232582 3.20044e-21)
(-0.00484863 0.00343949 -3.76622e-21)
(-0.0089201 0.00428491 -8.47606e-21)
(-0.0137878 0.00489609 6.94371e-21)
(-0.0192579 0.00530576 4.22482e-20)
(-0.025148 0.00554514 -2.60683e-20)
(-0.0313041 0.0056432 4.43666e-21)
(-0.0375962 0.00562674 2.13387e-20)
(-0.0439177 0.00552021 -7.19945e-24)
(-0.0501847 0.00534581 1.27008e-20)
(-0.0563349 0.0051235 -1.68647e-20)
(-0.062327 0.0048711 1.76951e-20)
(-0.0681391 0.00460436 -1.52624e-20)
(-0.0737678 0.00433686 -5.94451e-21)
(-0.0792262 0.00407979 2.99725e-20)
(-0.0845417 0.00384164 -9.41918e-21)
(-0.0897544 0.00362757 1.46402e-21)
(-0.0949047 0.00343789 -1.77363e-20)
(-0.10003 0.00327299 -1.91375e-21)
(-0.000321526 0.00141083 -2.96386e-20)
(-0.00188709 0.00366956 3.8505e-21)
(-0.00499143 0.00545068 5.91956e-21)
(-0.00908579 0.00682138 2.60429e-20)
(-0.0139617 0.00783134 -3.03672e-20)
(-0.019427 0.0085287 -4.73761e-20)
(-0.025301 0.00895977 4.32139e-20)
(-0.0314311 0.00916807 -1.18372e-20)
(-0.0376881 0.00919433 -5.9564e-21)
(-0.0439664 0.00907645 -3.01983e-20)
(-0.0501825 0.00884942 8.27239e-21)
(-0.0562745 0.00854542 2.97311e-20)
(-0.0622013 0.00819385 -6.10875e-21)
(-0.0679414 0.00782125 2.44833e-20)
(-0.0734916 0.00745109 -2.02458e-20)
(-0.0788655 0.00710325 -6.14824e-21)
(-0.0840912 0.00679337 4.82749e-20)
(-0.0892101 0.00653171 -3.00505e-21)
(-0.094263 0.00632052 7.58483e-20)
(-0.0992826 0.00616272 -1.802e-20)
(-0.000382116 0.00191734 4.8492e-20)
(-0.00203777 0.00500006 -2.17373e-20)
(-0.00520036 0.00744281 -1.51454e-20)
(-0.00932804 0.00933455 -1.15227e-20)
(-0.0142154 0.0107403 2.13589e-20)
(-0.0196731 0.0117232 -4.03329e-21)
(-0.0255227 0.0123444 -7.22543e-20)
(-0.0316133 0.0126619 -7.66436e-21)
(-0.0378175 0.0127301 -1.59273e-20)
(-0.0440304 0.0126001 -2.52929e-21)
(-0.0501694 0.0123198 -2.79474e-20)
(-0.0561732 0.0119333 3.17063e-20)
(-0.0620011 0.0114817 -4.70139e-20)
(-0.0676317 0.0110023 -1.43863e-21)
(-0.0730625 0.0105287 1.28686e-20)
(-0.0783076 0.0100896 -9.9969e-20)
(-0.0833961 0.00970815 -8.06875e-20)
(-0.0883716 0.0093998 4.37801e-20)
(-0.0932751 0.00916901 -5.87757e-20)
(-0.0981321 0.0090216 1.46561e-21)
(-0.000461484 0.00241652 -6.49114e-21)
(-0.00223531 0.00631215 8.58882e-20)
(-0.00547431 0.0094084 4.03166e-20)
(-0.00964562 0.0118152 -2.63079e-21)
(-0.0145479 0.0136123 1.08622e-20)
(-0.0199951 0.0148777 1.65501e-21)
(-0.025812 0.015687 3.69869e-20)
(-0.0318498 0.0161121 4.38613e-20)
(-0.0379832 0.016221 1.86672e-20)
(-0.0441086 0.0160779 6.61542e-20)
(-0.0501445 0.015743 -7.63122e-20)
(-0.0560302 0.0152729 -1.61239e-20)
(-0.0617254 0.0147199 3.39895e-20)
(-0.0672091 0.0141324 -5.928e-20)
(-0.0724793 0.0135541 2.7085e-20)
(-0.077551 0.0130229 6.28614e-20)
(-0.0824546 0.0125698 1.51166e-20)
(-0.0872366 0.0122158 2.16807e-20)
(-0.0919383 0.0119679 -3.47408e-20)
(-0.0965753 0.0118354 3.78569e-21)
(-0.000559138 0.00290638 -3.17014e-20)
(-0.00247857 0.00760082 2.02627e-20)
(-0.00581182 0.0113402 -3.30012e-20)
(-0.0100369 0.0142543 9.60147e-21)
(-0.0149574 0.0164373 2.68864e-20)
(-0.0203914 0.0179811 1.22862e-20)
(-0.0261673 0.0189756 2.32381e-20)
(-0.0321392 0.0195062 -1.63328e-20)
(-0.038184 0.0196541 -1.01031e-19)
(-0.0442 0.0194964 -9.05391e-20)
(-0.0501068 0.0191056 -5.89167e-20)
(-0.0558445 0.0185501 2.23525e-20)
(-0.0613731 0.0178939 -1.27809e-20)
(-0.0666724 0.0171963 9.75534e-20)
(-0.0717406 0.0165115 -3.51558e-20)
(-0.0765939 0.015887 2.87375e-20)
(-0.0812642 0.015362 4.18454e-20)
(-0.0858019 0.0149636 -2.35334e-20)
(-0.0902488 0.0147017 2.0565e-19)
(-0.0946081 0.0145899 -7.71117e-20)
(-0.000674475 0.00338506 3.846e-20)
(-0.00276615 0.0088613 -4.84991e-20)
(-0.00621106 0.0132311 -7.4417e-20)
(-0.0105 0.0166432 -1.9649e-20)
(-0.015442 0.0192051 8.66628e-21)
(-0.0208601 0.0210225 1.33923e-20)
(-0.0265868 0.0221986 4.48935e-20)
(-0.0324798 0.022832 9.96024e-21)
(-0.0384185 0.0230169 3.35147e-21)
(-0.0443032 0.0228427 1.62589e-19)
(-0.0500549 0.0223941 1.22384e-19)
(-0.0556146 0.0217512 -7.34787e-20)
(-0.0609429 0.0209894 -1.08495e-20)
(-0.0660198 0.0201792 -2.93171e-20)
(-0.0708444 0.0193855 2.90174e-20)
(-0.0754337 0.0186659 -1.53755e-19)
(-0.0798217 0.0180684 -3.21841e-20)
(-0.0840635 0.0176268 -4.83205e-20)
(-0.0882018 0.0173547 -1.16967e-19)
(-0.0922249 0.017271 6.37529e-20)
(-0.000806793 0.00385078 6.42407e-21)
(-0.00309641 0.010089 -2.36437e-20)
(-0.00666992 0.0150745 6.71632e-20)
(-0.0110324 0.0189735 -4.1413e-20)
(-0.0159991 0.0219062 -2.32021e-20)
(-0.0213987 0.0239912 3.70227e-20)
(-0.0270682 0.0253445 -6.28192e-20)
(-0.0328693 0.0260776 -8.60216e-21)
(-0.0386845 0.026297 1.19572e-19)
(-0.0444162 0.0261041 -7.66312e-20)
(-0.049987 0.0255953 -3.15893e-20)
(-0.0553388 0.0248624 3.73597e-20)
(-0.0604329 0.0239921 -9.87206e-21)
(-0.0652494 0.0230662 -5.12912e-21)
(-0.0697882 0.0221606 4.23796e-20)
(-0.0740673 0.0213435 -1.12815e-19)
(-0.0781231 0.0206726 3.94037e-20)
(-0.0820163 0.0201892 -2.99741e-20)
(-0.085791 0.0199113 -6.73617e-20)
(-0.0894182 0.0198648 2.43048e-20)
(-0.000955302 0.00430192 -1.80144e-20)
(-0.00346751 0.0112798 1.30043e-19)
(-0.00718597 0.0168641 -2.89258e-20)
(-0.0116314 0.0212373 1.77715e-20)
(-0.0166261 0.0245314 1.28908e-19)
(-0.0220044 0.026877 -8.74771e-20)
(-0.0276089 0.0284026 -4.31376e-20)
(-0.0333054 0.0292316 -7.52292e-20)
(-0.0389796 0.0294824 -8.25612e-20)
(-0.0445367 0.0292681 -5.46002e-20)
(-0.0499008 0.0286965 -7.4024e-20)
(-0.0550148 0.0278706 1.34974e-19)
(-0.0598405 0.0268884 -1.49761e-20)
(-0.0643583 0.0258429 -3.16249e-20)
(-0.0685685 0.0248216 -1.6563e-19)
(-0.0724905 0.0239039 9.3058e-20)
(-0.076163 0.0231581 2.31324e-20)
(-0.0796535 0.0226342 5.83118e-20)
(-0.0830085 0.0223558 3.95986e-20)
(-0.0861787 0.0223575 -1.06117e-19)
(-0.00111913 0.00473698 -5.59722e-20)
(-0.00387739 0.0124296 7.59365e-20)
(-0.00775651 0.018594 4.28822e-20)
(-0.0122941 0.0234271 1.95291e-20)
(-0.0173197 0.0270719 1.63924e-20)
(-0.0226742 0.0296702 -5.8683e-20)
(-0.0282057 0.0313623 1.27361e-19)
(-0.0337848 0.0322829 7.16586e-21)
(-0.0393008 0.0325616 1.18592e-19)
(-0.0446616 0.0323228 -6.93721e-20)
(-0.0497932 0.0316853 1.11987e-19)
(-0.0546395 0.0307629 -1.11213e-19)
(-0.0591625 0.0296646 -1.00434e-19)
(-0.0633428 0.028495 8.59612e-20)
(-0.0671811 0.0273533 3.05653e-19)
(-0.070698 0.026331 -1.69159e-19)
(-0.0739348 0.0255084 1.39418e-19)
(-0.0769669 0.0249451 3.22255e-20)
(-0.0798441 0.0246721 -1.2123e-19)
(-0.0824942 0.0247355 1.01809e-19)
(-0.00129735 0.00515462 1.01719e-19)
(-0.00432382 0.0135349 -5.83294e-20)
(-0.00837857 0.0202587 1.98771e-20)
(-0.013017 0.0255359 7.50601e-20)
(-0.0180764 0.0295194 -6.9406e-20)
(-0.0234042 0.0323616 1.366e-19)
(-0.0288549 0.0342136 -2.48895e-20)
(-0.0343039 0.0352208 3.1264e-21)
(-0.0396444 0.0355236 -1.63867e-19)
(-0.0447874 0.0352569 1.03967e-19)
(-0.0496606 0.0345498 2.40592e-20)
(-0.0542089 0.0335268 -3.1804e-20)
(-0.0583946 0.0323078 4.00232e-20)
(-0.0621982 0.0310088 -1.58743e-19)
(-0.0656204 0.0297411 -8.87337e-20)
(-0.0686829 0.0286093 1.87526e-19)
(-0.07143 0.0277069 -1.05109e-19)
(-0.0739458 0.0271052 -1.50592e-19)
(-0.076285 0.0268443 2.80199e-19)
(-0.0783493 0.0269851 -3.54226e-22)
(-0.00148897 0.00555367 8.52231e-20)
(-0.00480443 0.0145925 -1.07312e-19)
(-0.00904895 0.0218533 -1.12462e-19)
(-0.0137965 0.0275573 -5.38692e-20)
(-0.0188921 0.0318663 -7.82602e-20)
(-0.0241904 0.0349425 -4.44217e-20)
(-0.0295523 0.0369469 -1.88396e-19)
(-0.0348583 0.0380352 2.32494e-20)
(-0.0400061 0.0383577 -8.05817e-20)
(-0.0449094 0.0380592 2.83251e-19)
(-0.0494981 0.0372787 -1.65223e-19)
(-0.053718 0.0361507 1.01806e-19)
(-0.0575313 0.0348057 -3.12533e-20)
(-0.0609182 0.0333711 1.72615e-19)
(-0.0638792 0.0319708 1.42506e-20)
(-0.0664367 0.0307234 -1.49116e-19)
(-0.068638 0.0297373 -2.686e-20)
(-0.0705769 0.0290975 6.54626e-21)
(-0.0723152 0.0288561 -1.14958e-20)
(-0.0737245 0.029093 1.9008e-19)
(-0.00169296 0.00593311 -1.06123e-19)
(-0.00531673 0.0155996 -1.02545e-19)
(-0.00976425 0.0233732 4.27523e-20)
(-0.0146285 0.0294852 1.07189e-19)
(-0.0197624 0.0341054 -7.7714e-21)
(-0.0250281 0.0374048 -7.43319e-20)
(-0.0302929 0.0395535 1.65896e-19)
(-0.035443 0.0407167 -1.87308e-20)
(-0.0403804 0.041054 2.03164e-19)
(-0.045022 0.0407194 -2.26811e-19)
(-0.0492998 0.0398612 6.00225e-20)
(-0.0531602 0.0386235 7.13583e-20)
(-0.0565655 0.0371467 -2.16034e-21)
(-0.0594949 0.0355696 -1.21079e-21)
(-0.0619483 0.034029 -1.37259e-19)
(-0.0639483 0.0326586 1.86814e-20)
(-0.0655453 0.0315836 1.84941e-19)
(-0.0668439 0.0309053 2.38634e-19)
(-0.0679148 0.030691 -2.83982e-19)
(-0.0685955 0.0310459 -1.82583e-19)
(-0.00190827 0.00629211 4.44506e-20)
(-0.00585811 0.0165536 6.8472e-20)
(-0.0105209 0.0248145 8.35798e-20)
(-0.0155087 0.0313144 -1.41715e-19)
(-0.0206826 0.0362302 1.49291e-19)
(-0.025912 0.0397408 1.42664e-19)
(-0.0310712 0.0420249 -5.59468e-20)
(-0.036052 0.0432563 2.45662e-19)
(-0.040761 0.0436031 -2.49704e-19)
(-0.0451184 0.0432279 1.11117e-19)
(-0.0490582 0.0422876 1.13497e-19)
(-0.0525276 0.0409348 -8.85146e-21)
(-0.0554883 0.03932 1.47413e-21)
(-0.0579183 0.0375927 1.5028e-20)
(-0.059816 0.0359031 -1.07526e-19)
(-0.0612041 0.0344008 1.0684e-19)
(-0.0621354 0.03323 -5.51753e-20)
(-0.0627265 0.0325117 -1.24243e-19)
(-0.0630596 0.0323326 1.61009e-19)
(-0.062932 0.0328306 3.37182e-20)
(-0.00213385 0.00662998 -2.56261e-20)
(-0.00642591 0.0174526 3.22176e-20)
(-0.011315 0.0261738 -6.99251e-20)
(-0.0164325 0.0330401 -1.04684e-19)
(-0.0216474 0.0382346 -1.08151e-19)
(-0.0268364 0.0419436 -9.78151e-20)
(-0.0318809 0.0443534 1.59772e-19)
(-0.0366784 0.0456456 -8.12368e-20)
(-0.0411403 0.0459963 6.50456e-20)
(-0.0451903 0.0455757 7.20176e-21)
(-0.0487643 0.0445485 -1.78174e-20)
(-0.05181 0.0430755 4.46121e-20)
(-0.0542883 0.0413159 -8.72251e-20)
(-0.0561754 0.0394302 4.57712e-20)
(-0.0574677 0.0375816 1.48134e-19)
(-0.058187 0.035937 -2.17082e-19)
(-0.0583878 0.0346619 -1.39195e-19)
(-0.0581998 0.0339005 1.83406e-19)
(-0.05772 0.0337643 -1.07722e-19)
(-0.056697 0.0344338 -1.6732e-19)
(-0.00236861 0.00694623 9.45053e-20)
(-0.00701739 0.0182947 -9.69383e-20)
(-0.0121428 0.0274479 7.87698e-20)
(-0.0173951 0.034658 1.26689e-19)
(-0.0226511 0.0401134 -2.33898e-20)
(-0.0277948 0.0440068 -8.38634e-20)
(-0.0327146 0.0465317 -1.57083e-19)
(-0.0373142 0.0478768 -1.19838e-19)
(-0.0415095 0.0482254 -2.41951e-19)
(-0.0452278 0.0477544 2.46514e-20)
(-0.0484068 0.0466357 -2.17013e-20)
(-0.0509949 0.0450371 -1.73164e-19)
(-0.0529515 0.043126 1.50432e-19)
(-0.0542504 0.041073 1.84819e-19)
(-0.0548852 0.0390548 -9.37945e-21)
(-0.0548758 0.0372558 1.137e-19)
(-0.0542774 0.0358657 -5.76701e-20)
(-0.0532336 0.0350562 9.27035e-21)
(-0.0518602 0.0349696 1.62925e-19)
(-0.0498454 0.0358418 3.91678e-19)
(-0.00261149 0.00724049 -4.10594e-20)
(-0.00762978 0.0190787 -2.88241e-20)
(-0.0130001 0.0286345 8.11691e-20)
(-0.0183913 0.0361644 -1.13415e-19)
(-0.0236875 0.0418616 -2.95635e-20)
(-0.0287801 0.0459247 1.76217e-19)
(-0.0335644 0.0485534 -4.17368e-20)
(-0.03795 0.049943 -1.21044e-19)
(-0.0418579 0.0502831 1.97e-19)
(-0.0452188 0.0497568 -5.30085e-20)
(-0.0479723 0.0485418 3.87844e-20)
(-0.0500669 0.0468125 2.11159e-19)
(-0.0514605 0.0447433 -2.93968e-19)
(-0.0521236 0.0425141 -8.05903e-20)
(-0.0520459 0.0403145 -1.58959e-19)
(-0.0512441 0.0383477 3.233e-19)
(-0.0497735 0.0368296 1.01349e-20)
(-0.047791 0.0359645 1.78883e-19)
(-0.0454376 0.0359327 -6.48241e-20)
(-0.0423224 0.0370407 -3.70962e-19)
(-0.00286147 0.00751256 -9.53325e-20)
(-0.0082603 0.0198035 1.38075e-19)
(-0.0138828 0.0297315 1.88389e-21)
(-0.0194156 0.0375561 -1.34435e-21)
(-0.02475 0.0434751 1.44671e-19)
(-0.0297844 0.047692 1.04388e-19)
(-0.0344209 0.0504125 -3.94808e-21)
(-0.0385753 0.0518376 3.13546e-19)
(-0.0421734 0.0521626 1.20361e-19)
(-0.0451493 0.051576 -2.21704e-19)
(-0.0474446 0.0502606 1.05068e-20)
(-0.0490075 0.0483957 -7.61556e-21)
(-0.049794 0.0461622 3.11291e-19)
(-0.0497705 0.043748 -3.48896e-19)
(-0.0489219 0.0413551 9.64406e-20)
(-0.0472601 0.0392056 3.61966e-21)
(-0.0448384 0.0375443 -2.4753e-19)
(-0.0418276 0.0366134 -2.57369e-19)
(-0.038402 0.036639 -3.10659e-20)
(-0.0340627 0.0380194 3.76612e-19)
(-0.00311751 0.00776237 3.08762e-20)
(-0.00890615 0.0204685 -9.82906e-20)
(-0.0147866 0.0307373 9.50563e-20)
(-0.0204623 0.0388306 -1.42384e-19)
(-0.0258314 0.04495 1.77033e-19)
(-0.0307989 0.049304 -2.96993e-19)
(-0.0352739 0.0521035 -7.34286e-20)
(-0.0391779 0.0535548 -1.63926e-19)
(-0.0424416 0.053858 -7.7407e-20)
(-0.0450027 0.0532063 1.38204e-19)
(-0.0468043 0.0517866 2.82415e-19)
(-0.0477944 0.0497823 -3.17113e-19)
(-0.0479262 0.0473791 -1.18763e-19)
(-0.0471617 0.0447718 4.31627e-19)
(-0.0454792 0.0421736 -1.56889e-19)
(-0.0428845 0.0398257 -2.26273e-19)
(-0.0394267 0.0380037 2.87366e-19)
(-0.0352897 0.0369934 6.06211e-20)
(-0.0306924 0.0370766 5.79317e-20)
(-0.0249955 0.0387835 -2.42354e-19)
(-0.00337863 0.00798997 1.20674e-20)
(-0.00956454 0.0210733 -5.12505e-20)
(-0.0157069 0.0316506 1.6667e-19)
(-0.0215254 0.0399856 -2.15761e-19)
(-0.026924 0.0462833 -1.78485e-19)
(-0.0318143 0.0507567 1.12999e-19)
(-0.0361118 0.0536216 3.13833e-19)
(-0.039744 0.0550892 -1.98362e-19)
(-0.0426463 0.0553638 4.79917e-20)
(-0.0447596 0.0546426 -9.56115e-20)
(-0.0460287 0.0531155 -3.86503e-19)
(-0.0464009 0.050969 2.34346e-19)
(-0.0458263 0.0483919 1.89477e-19)
(-0.0442614 0.0455847 -3.36335e-19)
(-0.0416768 0.0427702 7.88644e-20)
(-0.0380701 0.0402078 3.1502e-19)
(-0.0334838 0.0382057 1.23842e-19)
(-0.0281121 0.0370979 4.36019e-20)
(-0.0222257 0.0372327 -2.55664e-19)
(-0.0150534 0.0393582 -1.24777e-19)
(-0.00364389 0.00819553 -8.35601e-20)
(-0.0102327 0.0216177 -1.53616e-19)
(-0.0166393 0.0324706 -8.86438e-20)
(-0.0225984 0.0410193 1.174e-19)
(-0.0280193 0.0474721 -6.86032e-21)
(-0.0328199 0.0520464 2.6329e-19)
(-0.0369217 0.0549625 -2.48651e-20)
(-0.0402579 0.0564361 2.95068e-20)
(-0.0427684 0.0566754 1.89485e-19)
(-0.0443975 0.0558806 2.40182e-19)
(-0.0450911 0.054244 -1.11464e-20)
(-0.0447956 0.0519538 -5.33039e-20)
(-0.0434576 0.0492008 -3.12812e-19)
(-0.041027 0.0461889 2.3482e-19)
(-0.0374655 0.0431487 -2.08466e-20)
(-0.0327604 0.0403562 -1.40869e-19)
(-0.0269451 0.0381529 -7.06122e-19)
(-0.0202216 0.0369264 2.50473e-19)
(-0.0128932 0.0371067 1.33569e-20)
(-0.00413471 0.0396939 -1.55102e-19)
(-0.00391238 0.00837933 7.71166e-20)
(-0.0109078 0.022102 2.00728e-19)
(-0.017579 0.0331969 -1.52821e-19)
(-0.0236745 0.0419303 -7.40796e-20)
(-0.0291085 0.0485141 6.19257e-20)
(-0.0338041 0.0531698 -1.49732e-19)
(-0.0376892 0.0561223 -2.78221e-19)
(-0.0407019 0.0575912 1.64842e-19)
(-0.0427867 0.0577885 -1.89207e-20)
(-0.0438906 0.0569167 -3.79498e-19)
(-0.0439606 0.0551697 7.28738e-20)
(-0.0429419 0.0527363 4.11002e-20)
(-0.0407769 0.0498077 -7.1629e-20)
(-0.0374081 0.0465891 1.89466e-19)
(-0.0327869 0.0433167 3.69572e-19)
(-0.0268881 0.0402805 -2.40948e-19)
(-0.019733 0.0378549 1.95867e-19)
(-0.0115307 0.0364851 4.78282e-20)
(-0.00261061 0.0367014 2.74301e-19)
(0.00793704 0.0397608 1.23636e-19)
(-0.00418323 0.00854169 -8.45928e-20)
(-0.0115871 0.0225262 -9.88188e-21)
(-0.0185212 0.0338291 2.16556e-19)
(-0.0247467 0.0427176 2.14962e-19)
(-0.0301818 0.0494073 -4.41063e-20)
(-0.0347545 0.0541242 -2.79129e-20)
(-0.0383983 0.0570975 2.79966e-19)
(-0.0410562 0.0585509 -2.17624e-19)
(-0.0426768 0.0586996 6.6427e-20)
(-0.0432094 0.0577481 2.75615e-19)
(-0.0426019 0.0558912 2.6462e-19)
(-0.0407975 0.0533174 1.03291e-19)
(-0.0377339 0.0502165 4.52388e-19)
(-0.0333457 0.0467933 -6.23581e-20)
(-0.0275725 0.043286 -4.80548e-19)
(-0.0203745 0.039996 2.36677e-19)
(-0.0117571 0.0373278 -1.26572e-19)
(-0.00193304 0.0357874 -2.94903e-19)
(0.00873245 0.0360226 -2.09203e-19)
(0.0212946 0.0395913 -2.1113e-19)
(-0.00445562 0.00868302 5.41343e-20)
(-0.0122679 0.022891 1.13425e-19)
(-0.019461 0.0343672 -7.89344e-20)
(-0.0258074 0.0433803 -9.81986e-20)
(-0.0312286 0.0501501 -1.02041e-19)
(-0.0356572 0.0549071 -2.75846e-20)
(-0.0390314 0.0578851 -2.88937e-19)
(-0.0412989 0.0593118 1.48413e-19)
(-0.0424115 0.0594055 -1.36824e-19)
(-0.0423208 0.0583725 -2.31476e-19)
(-0.0409746 0.0564078 8.23917e-21)
(-0.0383138 0.0536988 -5.8858e-19)
(-0.0342709 0.0504329 -4.57333e-19)
(-0.0287716 0.0468117 1.44816e-19)
(-0.0217427 0.0430729 7.33591e-20)
(-0.013128 0.0395242 -1.57654e-19)
(-0.00291308 0.0365967 6.12015e-19)
(0.00869085 0.0348571 -9.61597e-20)
(0.0212713 0.0350807 2.61983e-19)
(0.0360885 0.0392075 2.36068e-19)
(-0.00472875 0.0088038 -7.42816e-20)
(-0.0129473 0.0231969 -2.46472e-19)
(-0.0203931 0.0348115 7.83842e-20)
(-0.0268486 0.0439181 4.39543e-21)
(-0.0322379 0.0507412 3.33826e-19)
(-0.0364971 0.0555164 -1.99392e-19)
(-0.039569 0.0584824 1.093e-19)
(-0.0414052 0.0598711 1.56233e-19)
(-0.0419603 0.0599035 -1.22986e-20)
(-0.0411872 0.058788 9.66838e-20)
(-0.0390332 0.0567194 2.94378e-19)
(-0.0354359 0.0538835 6.16515e-19)
(-0.0303221 0.0504639 4.95701e-20)
(-0.0236079 0.0466574 -2.7398e-19)
(-0.0152063 0.0426975 4.98507e-20)
(-0.00504337 0.0388932 4.85828e-19)
(0.0069187 0.035696 -3.30103e-19)
(0.0204762 0.0337299 1.42793e-21)
(0.0351574 0.033902 2.55034e-19)
(0.0524958 0.0386325 -1.58507e-19)
(-0.00500187 0.0089045 -7.11903e-20)
(-0.0136225 0.0234446 2.91424e-19)
(-0.0213121 0.0351622 -2.22573e-19)
(-0.0278618 0.0443305 -4.55167e-20)
(-0.0331972 0.0511795 -7.68439e-20)
(-0.0372578 0.0559505 -1.99881e-19)
(-0.0399899 0.0588873 1.99292e-19)
(-0.0413483 0.0602262 -6.57695e-20)
(-0.0412895 0.0601916 -1.1779e-19)
(-0.0397672 0.0589934 1.93068e-19)
(-0.0367267 0.0568268 -2.24166e-19)
(-0.0321022 0.0538752 -7.23457e-20)
(-0.0258135 0.0503181 -8.07624e-21)
(-0.0177665 0.0463457 1.92361e-19)
(-0.00786001 0.0421838 -1.74252e-19)
(0.00399884 0.0381372 -3.2962e-19)
(0.0178738 0.0346696 -1.01209e-19)
(0.0335751 0.0324552 -1.4658e-19)
(0.0505583 0.0325297 -4.47848e-19)
(0.0707138 0.0379013 -1.34221e-19)
(-0.00527425 0.00898564 1.01054e-19)
(-0.0142908 0.0236348 -1.27908e-19)
(-0.0222124 0.0354199 -1.60481e-19)
(-0.0288379 0.0446176 -1.51808e-19)
(-0.0340936 0.0514643 5.05744e-20)
(-0.0379214 0.0562079 2.84041e-20)
(-0.0402706 0.0590977 7.11593e-20)
(-0.0410982 0.0603751 -1.84942e-19)
(-0.0403619 0.0602679 1.43312e-19)
(-0.0380145 0.0589881 -4.29549e-19)
(-0.033999 0.0567311 -2.15843e-19)
(-0.0282443 0.0536785 3.58466e-21)
(-0.0206628 0.0500051 1.91747e-19)
(-0.0111495 0.0458933 -1.25875e-19)
(0.000411455 0.0415587 3.21582e-19)
(0.014132 0.037296 -7.88562e-20)
(0.0301032 0.0335712 1.02693e-19)
(0.0481566 0.0310969 3.88225e-19)
(0.0676568 0.0310238 5.12655e-20)
(0.0909544 0.0370657 2.49294e-19)
(-0.00554517 0.00904772 -2.13486e-19)
(-0.014949 0.0237683 1.72282e-19)
(-0.023088 0.035585 1.93537e-19)
(-0.029767 0.0447793 -1.12686e-19)
(-0.0349128 0.0515951 1.92673e-19)
(-0.0384685 0.0562875 1.86034e-19)
(-0.0403857 0.0591124 -3.37203e-20)
(-0.0406225 0.0603163 -6.38277e-20)
(-0.0391365 0.0601313 -1.73876e-19)
(-0.0358787 0.0587718 8.15248e-20)
(-0.030788 0.0564341 7.93958e-21)
(-0.0237871 0.0532982 -2.13947e-19)
(-0.0147795 0.0495348 1.59592e-19)
(-0.00364914 0.0453183 -1.25333e-19)
(0.00973485 0.0408516 -2.28149e-19)
(0.0255025 0.0364139 -2.98285e-19)
(0.0437727 0.0324627 7.31754e-20)
(0.0644044 0.0297334 1.01926e-19)
(0.0866485 0.0294635 -9.77493e-20)
(0.11344 0.0361978 4.12099e-19)
(-0.00581392 0.00909125 -1.68715e-19)
(-0.0155941 0.0238458 -1.58571e-19)
(-0.0239324 0.0356582 1.25401e-19)
(-0.0306388 0.0448159 7.29904e-20)
(-0.0356393 0.0515717 2.98781e-20)
(-0.0388779 0.0561888 -5.46999e-20)
(-0.0403072 0.0589304 -3.86074e-20)
(-0.0398854 0.060049 8.83924e-20)
(-0.0375688 0.0597813 -8.33225e-20)
(-0.0333047 0.0583451 6.69797e-19)
(-0.0270264 0.0559381 4.88973e-20)
(-0.0186489 0.0527401 -7.52524e-20)
(-0.00806566 0.0489182 -4.96343e-19)
(0.00485138 0.0446391 9.59385e-20)
(0.0202473 0.0400926 -2.46013e-19)
(0.0382688 0.0355378 1.62968e-19)
(0.0590602 0.0314126 1.4966e-19)
(0.082514 0.0284562 -5.70292e-19)
(0.107738 0.0279472 -1.77787e-19)
(0.138394 0.0353929 -6.15494e-19)
(-0.00607979 0.00911669 8.1568e-20)
(-0.0162229 0.0238681 1.64188e-19)
(-0.0247389 0.03564 -2.95945e-19)
(-0.0314418 0.0447276 -2.2681e-19)
(-0.0362564 0.051394 1.15135e-19)
(-0.0391266 0.0559115 1.08368e-19)
(-0.0400049 0.0585514 -2.25067e-19)
(-0.0388484 0.059573 -2.02803e-20)
(-0.0356103 0.0592183 1.20506e-20)
(-0.0302327 0.0577094 -2.01692e-19)
(-0.0226414 0.0552466 2.93618e-19)
(-0.0127417 0.0520104 1.66827e-21)
(-0.000415791 0.0481662 3.72318e-19)
(0.0144768 0.0438745 2.52999e-19)
(0.0320947 0.0393124 4.24906e-20)
(0.0525982 0.0347159 5.35162e-19)
(0.0761528 0.0304935 -4.86392e-19)
(0.102688 0.0273677 2.25612e-19)
(0.131133 0.0265927 1.76569e-19)
(0.166032 0.0347729 1.52381e-19)
(-0.006342 0.00912445 3.93171e-19)
(-0.0168318 0.0238357 -2.77818e-19)
(-0.0255 0.0355311 6.74449e-20)
(-0.0321639 0.0445151 2.20169e-19)
(-0.0367461 0.0510624 -2.37518e-19)
(-0.0391896 0.0554559 1.17286e-20)
(-0.039446 0.0579759 1.81054e-19)
(-0.0374696 0.058889 3.33173e-19)
(-0.0332087 0.0584438 4.51715e-19)
(-0.0265983 0.0568673 -4.33114e-19)
(-0.0175547 0.0543639 -2.58535e-19)
(-0.00597145 0.0511166 1.22874e-19)
(0.0082818 0.0472907 -3.53942e-19)
(0.0253585 0.0430434 2.41774e-20)
(0.0454294 0.0385407 1.38181e-19)
(0.0686644 0.0339953 1.06196e-19)
(0.0952424 0.0297784 3.27957e-19)
(0.125131 0.0265766 6.89218e-20)
(0.157038 0.0255339 -2.48197e-19)
(0.196548 0.0344879 2.67466e-19)
(-0.00659975 0.00911491 -3.72884e-19)
(-0.0174172 0.0237492 2.76738e-19)
(-0.0262077 0.0353321 6.72268e-20)
(-0.0327916 0.0441788 -2.18383e-19)
(-0.0370885 0.0505775 9.23595e-20)
(-0.0390399 0.0548229 -4.47008e-20)
(-0.0385949 0.057205 -3.36704e-20)
(-0.0357035 0.057999 -2.8129e-19)
(-0.0303076 0.0574607 -4.44362e-19)
(-0.0223326 0.0558233 4.16102e-19)
(-0.011683 0.0532964 -1.49973e-19)
(0.00176116 0.0500674 4.69275e-21)
(0.0181443 0.0463047 8.52301e-20)
(0.037633 0.0421647 1.81173e-19)
(0.0604081 0.0378064 -2.20086e-20)
(0.0866433 0.0334211 -5.11403e-20)
(0.11652 0.0293384 -2.63961e-19)
(0.15004 0.0261935 -1.77044e-19)
(0.185647 0.024917 -1.67838e-19)
(0.230096 0.0347162 2.69048e-19)
(-0.00685215 0.00908834 2.99225e-19)
(-0.0179748 0.023609 -7.8112e-20)
(-0.0268534 0.0350435 2.66007e-19)
(-0.0333104 0.0437196 6.45406e-20)
(-0.0372624 0.0499406 -1.42452e-19)
(-0.0386482 0.0540142 2.30677e-20)
(-0.0374131 0.0562413 -3.04178e-19)
(-0.0335015 0.0569065 1.38472e-19)
(-0.0268464 0.0562737 7.50958e-20)
(-0.0173617 0.0545835 -2.76465e-20)
(-0.00493795 0.0520524 -3.15659e-20)
(0.0105605 0.0488742 3.74199e-20)
(0.0292934 0.0452229 -1.70534e-19)
(0.05144 0.0412584 -3.97726e-19)
(0.0771883 0.0371373 2.01877e-19)
(0.106709 0.0330344 -1.01015e-19)
(0.140172 0.0292385 -2.48852e-20)
(0.177598 0.0263244 4.28237e-19)
(0.217135 0.0248956 4.48391e-19)
(0.266768 0.0356644 -6.88198e-19)
(-0.0070982 0.00904492 -7.63055e-20)
(-0.0185001 0.0234154 -8.42118e-20)
(-0.0274273 0.0346658 -1.66729e-19)
(-0.0337044 0.0431384 1.22371e-19)
(-0.0372444 0.0491532 2.22065e-19)
(-0.0379824 0.0530322 -2.87593e-19)
(-0.0358591 0.0550883 4.59882e-19)
(-0.0308111 0.0556165 -9.00156e-20)
(-0.0227605 0.0548897 1.32553e-20)
(-0.0116077 0.053157 -3.1273e-19)
(0.00277325 0.0506434 -2.39073e-20)
(0.020535 0.0475511 -2.58362e-19)
(0.0418537 0.0440629 3.47011e-19)
(0.0669201 0.040346 2.28636e-19)
(0.0959255 0.036561 -4.47287e-19)
(0.129028 0.0328731 -3.81302e-19)
(0.166372 0.0295366 8.80893e-20)
(0.207964 0.027065 5.13404e-19)
(0.251653 0.0256252 2.37048e-19)
(0.306572 0.0375638 1.28986e-19)
(-0.00733673 0.00898476 2.38574e-20)
(-0.0189881 0.0231686 8.16329e-20)
(-0.0279189 0.0341996 9.84508e-20)
(-0.0339563 0.0424364 -8.22218e-20)
(-0.0370092 0.0482175 2.06222e-19)
(-0.0370084 0.0518804 2.7654e-19)
(-0.0338882 0.0537513 4.40759e-21)
(-0.027576 0.0541362 -3.5776e-19)
(-0.0179811 0.0533182 -2.8624e-19)
(-0.00498786 0.0515561 3.00065e-19)
(0.0115476 0.0490845 -4.02412e-19)
(0.0317967 0.0461165 -4.52664e-19)
(0.0559514 0.042846 -4.5332e-20)
(0.0842126 0.0394522 -2.36246e-20)
(0.116769 0.0361056 1.58163e-19)
(0.153757 0.0329712 1.03895e-19)
(0.195274 0.0302812 1.34979e-19)
(0.24127 0.0284936 -6.34692e-19)
(0.28933 0.0272562 -1.75213e-19)
(0.349412 0.0406568 4.60957e-19)
(-0.00756642 0.00890779 -1.42052e-19)
(-0.0194329 0.0228685 1.39309e-19)
(-0.0283164 0.0336452 -1.02723e-19)
(-0.034047 0.0416149 -5.10898e-20)
(-0.0365293 0.0471361 -1.39215e-19)
(-0.0356889 0.0505635 -1.05592e-19)
(-0.0314525 0.052237 -1.89051e-19)
(-0.0237364 0.0524751 3.12711e-19)
(-0.0124353 0.0515718 1.24387e-19)
(0.00258428 0.0497965 -3.05852e-19)
(0.0214858 0.0473953 4.79472e-19)
(0.0444595 0.0445933 2.46287e-19)
(0.0717126 0.0415986 -1.86495e-19)
(0.103452 0.0386057 -2.61796e-19)
(0.139859 0.0358015 -3.36598e-20)
(0.181032 0.0333603 2.69757e-19)
(0.227007 0.0315115 -1.80277e-19)
(0.277604 0.0306643 6.88132e-20)
(0.330274 0.0299257 1.55115e-19)
(0.395078 0.0451698 3.88743e-19)
(-0.00778568 0.00881386 -1.44974e-20)
(-0.0198282 0.0225147 -3.44155e-19)
(-0.0286071 0.0330032 8.39834e-20)
(-0.033956 0.0406756 1.86593e-19)
(-0.0357751 0.0459126 -3.43697e-20)
(-0.033984 0.0490871 -2.26252e-19)
(-0.0285007 0.0505541 2.49619e-19)
(-0.0192288 0.0506451 2.8599e-19)
(-0.00604642 0.0496662 1.09498e-19)
(0.0111989 0.0478985 5.4411e-19)
(0.0326908 0.0456003 -2.53241e-19)
(0.058638 0.0430106 1.21404e-19)
(0.0892605 0.0403531 -1.25522e-19)
(0.124767 0.0378408 3.02273e-19)
(0.165319 0.0356817 -2.66158e-20)
(0.210967 0.0340697 -6.98826e-20)
(0.261667 0.033258 -1.11573e-19)
(0.317007 0.0336026 1.75589e-19)
(0.374554 0.0337755 -4.4279e-19)
(0.44319 0.0513485 -5.9807e-19)
(-0.0079927 0.00870264 -8.2533e-20)
(-0.0201668 0.022107 -3.0736e-20)
(-0.0287765 0.0322739 -2.78305e-19)
(-0.0336605 0.0396204 1.70443e-19)
(-0.0347142 0.0445512 -1.74105e-19)
(-0.0318508 0.0474584 -1.76903e-19)
(-0.0249782 0.0487133 -1.59395e-20)
(-0.0139859 0.0486613 -2.88521e-19)
(0.00126572 0.0476213 -4.58112e-19)
(0.020949 0.0458869 1.25434e-19)
(0.0452673 0.0437299 1.40581e-19)
(0.0744458 0.0414036 1.69603e-19)
(0.108712 0.0391484 4.33638e-19)
(0.14827 0.0371972 -4.26762e-20)
(0.193252 0.0357823 -9.39956e-20)
(0.243644 0.0351256 -1.31278e-20)
(0.299309 0.0355363 2.36892e-19)
(0.359477 0.0372979 4.2102e-19)
(0.422166 0.039036 -1.18223e-19)
(0.492983 0.0596504 4.33036e-19)
(-0.00818531 0.00857371 2.59129e-19)
(-0.0204406 0.0216447 -4.21825e-20)
(-0.0288091 0.0314577 2.45955e-19)
(-0.0331359 0.0384518 -2.52234e-19)
(-0.0333121 0.043057 3.72497e-19)
(-0.0292436 0.0456862 3.1177e-19)
(-0.0208273 0.0467276 -2.56299e-19)
(-0.00793731 0.0465415 -4.77123e-19)
(0.00958419 0.0454604 7.91219e-19)
(0.0319294 0.0437914 1.95517e-19)
(0.0593198 0.0418199 -1.52345e-19)
(0.0919925 0.0398141 -1.50664e-19)
(0.130176 0.0380308 -7.50045e-20)
(0.174058 0.0367215 -1.17658e-19)
(0.22373 0.0361424 -3.89702e-19)
(0.279104 0.0365466 -1.06192e-19)
(0.33995 0.038327 8.79265e-21)
(0.405052 0.0416692 -2.8912e-19)
(0.473244 0.0460422 1.4352e-19)
(0.543371 0.0704961 -3.09004e-19)
(-0.00836101 0.00842647 -4.14204e-19)
(-0.0206404 0.021127 2.78719e-19)
(-0.0286876 0.0305551 -4.15367e-19)
(-0.0323558 0.0371725 -2.26364e-19)
(-0.0315318 0.041436 8.44448e-20)
(-0.0261138 0.0437805 -3.37098e-19)
(-0.0159871 0.044612 5.2842e-19)
(-0.00100993 0.0443066 9.00848e-21)
(0.0189942 0.0432112 -2.94162e-19)
(0.0442358 0.0416468 -2.57148e-19)
(0.0749506 0.0399125 -4.59347e-19)
(0.111381 0.038291 -5.63829e-21)
(0.153746 0.0370536 1.68989e-20)
(0.202202 0.0364668 -1.05919e-19)
(0.256785 0.0368043 4.7008e-19)
(0.317317 0.0383412 2.90554e-19)
(0.383507 0.0415542 7.23361e-20)
(0.453787 0.0465096 -3.11711e-19)
(0.528478 0.054763 -1.70098e-20)
(0.595381 0.0816916 -5.08889e-19)
(-0.00851691 0.00826021 1.47133e-19)
(-0.0207561 0.0205531 -2.79124e-19)
(-0.0283931 0.0295667 3.58846e-19)
(-0.0312913 0.0357857 5.04544e-19)
(-0.0293336 0.0396952 -1.64231e-19)
(-0.0224103 0.0417531 2.12864e-20)
(-0.0103945 0.0423842 -4.45706e-19)
(0.00687168 0.041981 -1.10939e-19)
(0.0295821 0.0409054 -3.45356e-19)
(0.0579626 0.0394926 4.50415e-19)
(0.0922574 0.0380556 4.175e-19)
(0.132704 0.0368898 -7.4277e-20)
(0.179497 0.0362777 -5.58609e-20)
(0.232741 0.0364944 -4.85981e-21)
(0.292392 0.0378187 8.44713e-20)
(0.358162 0.0405218 -1.52021e-19)
(0.429696 0.0451211 -1.76618e-19)
(0.505274 0.0514957 3.74831e-19)
(0.587741 0.0638331 -1.20821e-19)
(0.656468 0.085726 1.30472e-20)
(-0.00864966 0.00807412 3.88884e-20)
(-0.0207766 0.0199219 5.63015e-20)
(-0.0279052 0.0284932 -1.87973e-19)
(-0.0299118 0.0342952 -5.20356e-19)
(-0.0266757 0.0378428 8.43135e-20)
(-0.0180794 0.0396176 2.55499e-19)
(-0.00398386 0.0400642 1.16604e-19)
(0.0157843 0.039592 5.00552e-19)
(0.041434 0.0385786 -3.14495e-19)
(0.0732017 0.0373735 -4.08788e-19)
(0.111331 0.0363027 -7.48488e-20)
(0.156041 0.0356721 1.86369e-19)
(0.207482 0.035771 4.07994e-20)