/*--------------------------------*- C++ -*----------------------------------*\
  =========                 |
  \\      /  F ield         | OpenFOAM: The Open Source CFD Toolbox
   \\    /   O peration     | Website:  https://openfoam.org
    \\  /    A nd           | Version:  7
     \\/     M anipulation  |
\*---------------------------------------------------------------------------*/
FoamFile
{
    version     2.0;
    format      ascii;
    class       volVectorField;
    location    "45";
    object      U;
}
// * * * * * * * * * * * * * * * * * * * * * * * * * * * * * * * * * * * * * //

dimensions      [0 1 -1 0 0 0 0];

internalField   nonuniform List<vector> 
34000
(
(-0.000257581 0.000336872 -7.85817e-22)
(-0.00172853 0.000891396 -4.22724e-21)
(-0.00477158 0.00134548 5.17357e-22)
(-0.00883071 0.00171145 -9.0213e-22)
(-0.0136939 0.00199848 1.37932e-21)
(-0.0191662 0.00221582 -1.0176e-20)
(-0.0250642 0.00237281 1.75041e-21)
(-0.0312333 0.00247861 -6.90435e-21)
(-0.0375427 0.00254218 -1.48688e-20)
(-0.0438856 0.00257221 1.27298e-20)
(-0.0501775 0.00257701 3.7913e-21)
(-0.056356 0.00256438 -4.55608e-21)
(-0.0623796 0.00254158 5.60413e-21)
(-0.0682262 0.00251519 7.68021e-21)
(-0.0738923 0.00249104 -4.85926e-21)
(-0.0793905 0.00247406 -6.57179e-21)
(-0.0847479 0.00246816 -1.57844e-20)
(-0.0900036 0.00247601 -1.22484e-21)
(-0.095198 0.00249851 -2.68952e-21)
(-0.10037 0.00253661 -5.30136e-21)
(-0.000278494 0.000851658 -3.84071e-21)
(-0.00178031 0.00224254 3.21207e-21)
(-0.00484267 0.00336722 -3.77952e-21)
(-0.0089122 0.00426074 -8.50598e-21)
(-0.0137781 0.0049481 6.96823e-21)
(-0.0192462 0.00545419 4.23987e-20)
(-0.0251342 0.00580357 -2.61607e-20)
(-0.031288 0.00602005 4.45334e-21)
(-0.0375774 0.00612668 2.14143e-20)
(-0.0438959 0.00614562 -7.94736e-24)
(-0.0501595 0.00609805 1.27442e-20)
(-0.0563058 0.00600402 -1.69225e-20)
(-0.0622934 0.00588232 1.77555e-20)
(-0.0681005 0.00575031 -1.53158e-20)
(-0.0737235 0.00562359 -5.9643e-21)
(-0.0791753 0.00551564 3.00752e-20)
(-0.0844832 0.00543738 -9.44892e-21)
(-0.0896871 0.00539644 1.46916e-21)
(-0.0948272 0.00539554 -1.7795e-20)
(-0.0999403 0.00543794 -1.91912e-21)
(-0.000318792 0.00136291 -2.97428e-20)
(-0.00188035 0.00358482 3.8642e-21)
(-0.00498061 0.00537621 5.94054e-21)
(-0.00907107 0.0067944 2.61339e-20)
(-0.013943 0.00788006 -3.0473e-20)
(-0.0194042 0.00867343 -4.75411e-20)
(-0.0252738 0.00921419 4.33635e-20)
(-0.0313989 0.00954064 -1.18771e-20)
(-0.0376504 0.00968977 -5.97822e-21)
(-0.0439225 0.00969713 -3.03003e-20)
(-0.0501316 0.0095967 8.29832e-21)
(-0.0562158 0.00942072 2.98336e-20)
(-0.0621339 0.00919951 -6.1324e-21)
(-0.0678641 0.00896122 2.45655e-20)
(-0.0734034 0.00873131 -2.03118e-20)
(-0.0787648 0.00853192 -6.17159e-21)
(-0.0839763 0.00838111 4.84349e-20)
(-0.0890792 0.0082916 -3.01505e-21)
(-0.0941135 0.00826808 7.60933e-20)
(-0.0991109 0.00831633 -1.80744e-20)
(-0.000378206 0.00186854 4.86606e-20)
(-0.00202805 0.00491299 -2.18111e-20)
(-0.00518463 0.00736484 -1.51973e-20)
(-0.00930649 0.0093031 -1.15628e-20)
(-0.014188 0.0107837 2.14328e-20)
(-0.0196394 0.011862 -4.04456e-21)
(-0.0254823 0.0125924 -7.24973e-20)
(-0.0315654 0.0130276 -7.689e-21)
(-0.0377611 0.0132183 -1.59805e-20)
(-0.0439647 0.0132132 -2.53394e-21)
(-0.0500934 0.0130591 -2.8041e-20)
(-0.0560856 0.0128002 3.18087e-20)
(-0.0619006 0.0124784 -4.7167e-20)
(-0.0675169 0.0121327 -1.44316e-21)
(-0.0729316 0.0117986 1.29106e-20)
(-0.0781586 0.0115069 -1.00283e-19)
(-0.0832265 0.0112833 -8.09381e-20)
(-0.0881789 0.0111456 4.39142e-20)
(-0.0930557 0.0111008 -5.89644e-20)
(-0.0978809 0.0111575 1.47543e-21)
(-0.000456343 0.00236652 -6.51387e-21)
(-0.0022225 0.00622193 8.61754e-20)
(-0.00545358 0.00932567 4.04486e-20)
(-0.00961721 0.0117777 -2.63963e-21)
(-0.0145117 0.0136486 1.08989e-20)
(-0.0199507 0.0150085 1.66365e-21)
(-0.0257586 0.0159262 3.71089e-20)
(-0.0317866 0.0164684 4.40027e-20)
(-0.0379089 0.0166993 1.87264e-20)
(-0.0440221 0.0166805 6.63689e-20)
(-0.0500443 0.0164714 -7.65528e-20)
(-0.0559149 0.0161283 -1.61769e-20)
(-0.0615932 0.0157044 3.40972e-20)
(-0.0670582 0.0152497 -5.94594e-20)
(-0.0723075 0.0148097 2.71661e-20)
(-0.0773556 0.0144247 6.3057e-20)
(-0.0822326 0.0141277 1.51723e-20)
(-0.0869846 0.0139424 2.17382e-20)
(-0.0916519 0.0138782 -3.48397e-20)
(-0.0962481 0.0139474 3.79955e-21)
(-0.000552697 0.00285491 -3.1805e-20)
(-0.00246254 0.00750669 2.03246e-20)
(-0.00578597 0.0112515 -3.31117e-20)
(-0.0100016 0.0142092 9.63107e-21)
(-0.0149125 0.0164646 2.6972e-20)
(-0.0203365 0.0181018 1.23281e-20)
(-0.0261014 0.0192038 2.33096e-20)
(-0.0320612 0.0198507 -1.63863e-20)
(-0.0380926 0.0201199 -1.01345e-19)
(-0.0440936 0.0200859 -9.08133e-20)
(-0.0499837 0.0198202 -5.90898e-20)
(-0.0557028 0.019391 2.24206e-20)
(-0.0612109 0.018863 -1.28203e-20)
(-0.0664873 0.0182971 9.78461e-20)
(-0.0715301 0.0177493 -3.52605e-20)
(-0.0763547 0.0172692 2.88192e-20)
(-0.0809927 0.0168982 4.19706e-20)
(-0.085494 0.0166661 -2.36065e-20)
(-0.0898993 0.0165851 2.06215e-19)
(-0.0942093 0.0166718 -7.73147e-20)
(-0.000666655 0.00333185 3.85838e-20)
(-0.00274674 0.00876256 -4.86547e-20)
(-0.00617999 0.0131355 -7.46493e-20)
(-0.0104578 0.0165891 -1.97125e-20)
(-0.0153886 0.0192218 8.69275e-21)
(-0.0207949 0.0211311 1.34328e-20)
(-0.0265089 0.0224135 4.50276e-20)
(-0.0323878 0.0231623 9.98743e-21)
(-0.0383108 0.0234676 3.3686e-21)
(-0.0441781 0.0234163 1.63078e-19)
(-0.0499103 0.023092 1.22748e-19)
(-0.0554484 0.0225744 -7.36895e-20)
(-0.0607527 0.0219398 -1.08814e-20)
(-0.065803 0.0212601 -2.94028e-20)
(-0.0705979 0.0206018 2.90989e-20)
(-0.0751539 0.0200246 -1.54173e-19)
(-0.0795044 0.0195787 -3.22639e-20)
(-0.0837039 0.0193004 -4.84513e-20)
(-0.0877939 0.0192058 -1.17279e-19)
(-0.0917599 0.0193169 6.39237e-20)
(-0.000797508 0.00379562 6.44284e-21)
(-0.00307347 0.00998509 -2.3714e-20)
(-0.00663349 0.0149709 6.73699e-20)
(-0.0109832 0.0189092 -4.15384e-20)
(-0.0159374 0.0219106 -2.32696e-20)
(-0.0213237 0.0240859 3.7127e-20)
(-0.0269789 0.0255442 -6.30068e-20)
(-0.0327642 0.0263915 -8.63141e-21)
(-0.0385617 0.0267302 1.19919e-19)
(-0.0442738 0.0266593 -7.68527e-20)
(-0.0498227 0.0262738 -3.16802e-20)
(-0.0551501 0.0256653 3.74714e-20)
(-0.0602171 0.0249209 -9.90134e-21)
(-0.0650036 0.0241239 -5.14502e-21)
(-0.0695089 0.0233518 4.24917e-20)
(-0.0737506 0.0226748 -1.13092e-19)
(-0.0777642 0.0221527 3.95157e-20)
(-0.0816098 0.0218292 -3.00478e-20)
(-0.0853303 0.021725 -6.75241e-20)
(-0.0888935 0.0218689 2.43697e-20)
(-0.000944458 0.00424464 -1.80698e-20)
(-0.00344085 0.0111701 1.30429e-19)
(-0.00714407 0.0167518 -2.90125e-20)
(-0.0115754 0.0211616 1.78239e-20)
(-0.0165562 0.0245222 1.29283e-19)
(-0.02192 0.0269562 -8.77328e-20)
(-0.0275089 0.0285851 -4.32588e-20)
(-0.0331881 0.0295269 -7.54412e-20)
(-0.0388431 0.0298959 -8.27936e-20)
(-0.0443786 0.0298024 -5.47473e-20)
(-0.0497187 0.029353 -7.42194e-20)
(-0.054806 0.0286502 1.35337e-19)
(-0.0596019 0.0277925 -1.50219e-20)
(-0.0640867 0.0268743 -3.17019e-20)
(-0.0682602 0.0259843 -1.66038e-19)
(-0.0721411 0.0252041 9.32947e-20)
(-0.0757674 0.024604 2.32009e-20)
(-0.0792058 0.0242362 5.8447e-20)
(-0.0825014 0.0241271 3.96853e-20)
(-0.0856016 0.0243142 -1.06337e-19)
(-0.00110664 0.00467744 -5.61344e-20)
(-0.00384684 0.0123139 7.61475e-20)
(-0.00770902 0.0184723 4.30023e-20)
(-0.0122312 0.0233391 1.95829e-20)
(-0.0172419 0.0270478 1.64303e-20)
(-0.0225809 0.0297324 -5.88428e-20)
(-0.0280958 0.031526 1.27712e-19)
(-0.0336565 0.0325577 7.18856e-21)
(-0.039152 0.0329533 1.18907e-19)
(-0.0444898 0.032834 -6.95482e-20)
(-0.0495956 0.0323173 1.12283e-19)
(-0.0544131 0.0315166 -1.11493e-19)
(-0.0589042 0.0305413 -1.00689e-19)
(-0.0630491 0.029497 8.61714e-20)
(-0.066848 0.0284844 3.06385e-19)
(-0.0703207 0.0275967 -1.69545e-19)
(-0.073508 0.0269163 1.39736e-19)
(-0.0764842 0.0265049 3.22902e-20)
(-0.0792978 0.0263963 -1.21483e-19)
(-0.0818731 0.0266395 1.02016e-19)
(-0.00128311 0.00509275 1.02004e-19)
(-0.00428922 0.0134128 -5.85004e-20)
(-0.0083254 0.020127 1.9924e-20)
(-0.0129473 0.0254348 7.52625e-20)
(-0.0179909 0.0294795 -6.96005e-20)
(-0.0233026 0.0324056 1.36966e-19)
(-0.028736 0.0343569 -2.4958e-20)
(-0.0341658 0.0354735 3.13579e-21)
(-0.0394849 0.0358914 -1.64295e-19)
(-0.0446038 0.0357427 1.04239e-19)
(-0.0494499 0.035155 2.41141e-20)
(-0.053968 0.0342521 -3.18672e-20)
(-0.05812 0.0331544 4.01154e-20)
(-0.0618863 0.0319786 -1.59104e-19)
(-0.065267 0.0308375 -8.89409e-20)
(-0.0682831 0.0298372 1.87931e-19)
(-0.0709781 0.0290732 -1.05327e-19)
(-0.0734351 0.0286188 -1.5089e-19)
(-0.0757076 0.028517 2.80742e-19)
(-0.0776936 0.0288313 -3.67571e-22)
(-0.0014729 0.00548945 8.54476e-20)
(-0.00476564 0.0144639 -1.07602e-19)
(-0.00899005 0.0217114 -1.12765e-19)
(-0.0137201 0.0274425 -5.40142e-20)
(-0.0187993 0.0318098 -7.84654e-20)
(-0.0240811 0.0349672 -4.45401e-20)
(-0.0294253 0.0370686 -1.88871e-19)
(-0.0347118 0.0382642 2.33113e-20)
(-0.0398377 0.0386999 -8.07756e-20)
(-0.0447162 0.0385177 2.83932e-19)
(-0.049277 0.0378549 -1.65614e-19)
(-0.0534656 0.0368453 1.02055e-19)
(-0.0572442 0.0356197 -3.1328e-20)
(-0.0605924 0.0343061 1.73e-19)
(-0.0635105 0.0330297 1.42779e-20)
(-0.06602 0.0319105 -1.4942e-19)
(-0.0681676 0.0310587 -2.69039e-20)
(-0.0700459 0.0305614 6.57109e-21)
(-0.0717154 0.0304731 -1.15376e-20)
(-0.0730444 0.0308769 1.9037e-19)
(-0.00167499 0.00586656 -1.06407e-19)
(-0.00527362 0.0154645 -1.02804e-19)
(-0.00969959 0.0232209 4.2862e-20)
(-0.0145455 0.0293565 1.07459e-19)
(-0.0196628 0.0340316 -7.78677e-21)
(-0.0249118 0.0374092 -7.45119e-20)
(-0.030159 0.0396524 1.66306e-19)
(-0.0352896 0.0409206 -1.87721e-20)
(-0.040205 0.041369 2.03641e-19)
(-0.0448217 0.0411488 -2.27346e-19)
(-0.0490712 0.0404064 6.01651e-20)
(-0.0528999 0.0392852 7.15141e-20)
(-0.0562698 0.0379256 -2.16668e-21)
(-0.05916 0.0364671 -1.21196e-21)
(-0.0615696 0.0350476 -1.3753e-19)
(-0.0635211 0.033802 1.87269e-20)
(-0.0650636 0.032857 1.85275e-19)
(-0.0663009 0.032316 2.39032e-19)
(-0.0673023 0.0322487 -2.84444e-19)
(-0.067902 0.032763 -1.82884e-19)
(-0.00188835 0.00622332 4.45604e-20)
(-0.00581061 0.0164121 6.86521e-20)
(-0.0104505 0.0246518 8.37798e-20)
(-0.0154194 0.0311715 -1.42065e-19)
(-0.0205766 0.0361388 1.49652e-19)
(-0.0257896 0.0397245 1.43005e-19)
(-0.0309316 0.0421002 -5.60852e-20)
(-0.0358933 0.0434339 2.46225e-19)
(-0.0405807 0.0438896 -2.5027e-19)
(-0.0449135 0.0436266 1.11359e-19)
(-0.0488252 0.0427999 1.13745e-19)
(-0.052263 0.0415616 -8.87725e-21)
(-0.0551884 0.0400617 1.47031e-21)
(-0.057579 0.0384505 1.50616e-20)
(-0.0594332 0.036879 -1.07715e-19)
(-0.0607729 0.0354979 1.0702e-19)
(-0.06165 0.0344528 -5.52734e-20)
(-0.0621801 0.0338663 -1.24445e-19)
(-0.0624444 0.0338277 1.61246e-19)
(-0.0622372 0.0344771 3.37631e-20)
(-0.00211193 0.00655909 -2.56921e-20)
(-0.00637396 0.0173049 3.2299e-20)
(-0.011239 0.0260009 -7.00932e-20)
(-0.0163373 0.0328831 -1.04925e-19)
(-0.0215356 0.0381255 -1.08403e-19)
(-0.0267088 0.0419061 -9.804e-20)
(-0.0317368 0.0444044 1.60118e-19)
(-0.0365162 0.0457961 -8.14305e-20)
(-0.0409573 0.046253 6.51917e-20)
(-0.0449834 0.0459422 7.20556e-21)
(-0.0485301 0.0450264 -1.78516e-20)
(-0.0515449 0.0436655 4.46899e-20)
(-0.0539886 0.0420185 -8.73922e-20)
(-0.0558372 0.0402462 4.58693e-20)
(-0.0570868 0.0385126 1.48394e-19)
(-0.0577587 0.0369855 -2.17433e-19)
(-0.0579067 0.0358316 -1.39409e-19)
(-0.0576593 0.0351965 1.83667e-19)
(-0.0571128 0.035194 -1.07882e-19)
(-0.0560137 0.0360062 -1.67502e-19)
(-0.00234467 0.00687343 9.47187e-20)
(-0.00696102 0.0181412 -9.71585e-20)
(-0.0120613 0.0272653 7.89562e-20)
(-0.0172943 0.0344873 1.26976e-19)
(-0.0225341 0.0399867 -2.34383e-20)
(-0.027663 0.0439481 -8.40365e-20)
(-0.0325676 0.0465581 -1.57433e-19)
(-0.0371502 0.0479996 -1.201e-19)
(-0.041326 0.0484515 -2.42438e-19)
(-0.0450218 0.0480877 2.46902e-20)
(-0.0481749 0.0470779 -2.1733e-20)
(-0.0507334 0.0455888 -1.7349e-19)
(-0.0526567 0.0437878 1.50684e-19)
(-0.0539186 0.0418454 1.85131e-19)
(-0.0545125 0.0399389 -9.39111e-21)
(-0.0544576 0.0382537 1.13879e-19)
(-0.053809 0.0369802 -5.77528e-20)
(-0.0527085 0.0362913 9.27259e-21)
(-0.0512722 0.0363318 1.63095e-19)
(-0.0491868 0.0373374 3.9209e-19)
(-0.00258556 0.00716602 -4.11612e-20)
(-0.00756906 0.0189199 -2.88843e-20)
(-0.0129134 0.0284427 8.13524e-20)
(-0.0182853 0.0359805 -1.13661e-19)
(-0.0235662 0.0417177 -2.96235e-20)
(-0.0286452 0.0458449 1.76598e-19)
(-0.0334158 0.0485551 -4.18199e-20)
(-0.0377862 0.0500377 -1.21285e-19)
(-0.0416764 0.050478 1.97397e-19)
(-0.0450166 0.0500559 -5.31235e-20)
(-0.0477461 0.0489471 3.88609e-20)
(-0.0498131 0.0473246 2.11519e-19)
(-0.0511755 0.0453627 -2.94458e-19)
(-0.0518038 0.0432411 -8.07242e-20)
(-0.0516877 0.04115 -1.5918e-19)
(-0.0508436 0.0392932 3.23734e-19)
(-0.0493262 0.0378871 1.01457e-20)
(-0.047291 0.0371371 1.79066e-19)
(-0.0448801 0.0372259 -6.49259e-20)
(-0.0417026 0.0384575 -3.71302e-19)
(-0.00283357 0.00743671 -9.55419e-20)
(-0.00819536 0.0196401 1.38365e-19)
(-0.0137912 0.0295313 1.89098e-21)
(-0.019305 0.0373598 -1.34327e-21)
(-0.0246252 0.0433146 1.44964e-19)
(-0.0296475 0.0475915 1.04598e-19)
(-0.0342723 0.0503896 -3.94893e-21)
(-0.0384136 0.0519041 3.1414e-19)
(-0.0419964 0.0523259 1.20583e-19)
(-0.044954 0.0518404 -2.22096e-19)
(-0.0472277 0.050628 1.05307e-20)
(-0.0487657 0.0488672 -7.64823e-21)
(-0.0495237 0.0467379 3.11764e-19)
(-0.0494686 0.0444283 -3.49393e-19)
(-0.0485849 0.0421406 9.65811e-20)
(-0.0468847 0.0400972 3.60335e-21)
(-0.0444208 0.0385435 -2.47809e-19)
(-0.0413624 0.0377223 -2.57631e-19)
(-0.0378865 0.037863 -3.1116e-20)
(-0.0334968 0.0393567 3.76891e-19)
(-0.00308772 0.00768548 3.09364e-20)
(-0.0088372 0.0203012 -9.84941e-20)
(-0.0146904 0.0305295 9.52451e-20)
(-0.0203478 0.0386227 -1.42661e-19)
(-0.025704 0.0447737 1.77364e-19)
(-0.0306614 0.0491836 -2.97555e-19)
(-0.0351269 0.0520564 -7.35579e-20)
(-0.0390204 0.0535932 -1.64239e-19)
(-0.0422716 0.0539896 -7.75493e-20)
(-0.0448173 0.0534355 1.38448e-19)
(-0.0466004 0.0521156 2.82876e-19)
(-0.0475688 0.0502122 -3.17599e-19)
(-0.0476757 0.0479101 -1.18938e-19)
(-0.0468834 0.0454042 4.32211e-19)
(-0.0451701 0.0429078 -1.57066e-19)
(-0.0425418 0.0406622 -2.26518e-19)
(-0.0390475 0.0389433 2.87643e-19)
(-0.0348683 0.0380375 6.06799e-20)
(-0.0302295 0.0382316 5.7957e-20)
(-0.0245004 0.0400426 -2.42507e-19)
(-0.00334706 0.00791241 1.20879e-20)
(-0.00949186 0.0209029 -5.13503e-20)
(-0.0156067 0.0314363 1.66978e-19)
(-0.0214076 0.0397672 -2.16155e-19)
(-0.0267949 0.0460923 -1.78828e-19)
(-0.0316773 0.0506171 1.13222e-19)
(-0.0359681 0.0535511 3.14393e-19)
(-0.0395928 0.0551 -1.98706e-19)
(-0.0424857 0.0554639 4.80653e-20)
(-0.0445871 0.0548366 -9.57655e-20)
(-0.0458414 0.0534058 -3.87085e-19)
(-0.0461958 0.0513567 2.34688e-19)
(-0.0456006 0.0488776 1.89709e-19)
(-0.0440125 0.0461684 -3.36745e-19)
(-0.0414021 0.0434522 7.89696e-20)
(-0.0377677 0.0409883 3.15338e-19)
(-0.0331518 0.0390847 1.23923e-19)
(-0.0277432 0.0380762 4.36336e-20)
(-0.0218226 0.0383157 -2.55836e-19)
(-0.0146405 0.0405352 -1.24838e-19)
(-0.00361068 0.00811772 -8.37173e-20)
(-0.0101566 0.0214452 -1.53892e-19)
(-0.0165356 0.0322511 -8.8817e-20)
(-0.0224781 0.0407918 1.17625e-19)
(-0.0278897 0.0472676 -6.87274e-21)
(-0.0326848 0.0518888 2.63748e-19)
(-0.0367829 0.0548695 -2.49171e-20)
(-0.040115 0.05642 2.95663e-20)
(-0.0426199 0.0567445 1.8977e-19)
(-0.044241 0.0560396 2.40536e-19)
(-0.0449241 0.0544956 -1.11527e-20)
(-0.0446153 0.0522993 -5.33777e-20)
(-0.0432616 0.0496407 -3.132e-19)
(-0.0408131 0.0467233 2.35089e-19)
(-0.0372319 0.0437779 -2.08674e-20)
(-0.0325058 0.0410801 -1.41002e-19)
(-0.0266692 0.0389712 -7.06657e-19)
(-0.0199174 0.0378409 2.50618e-19)
(-0.0125603 0.0381148 1.33776e-20)
(-0.00380022 0.0407897 -1.55181e-19)
(-0.0038777 0.00830168 7.72493e-20)
(-0.0108288 0.0219283 2.0108e-19)
(-0.0174725 0.0329734 -1.53084e-19)
(-0.0235528 0.0416951 -7.42012e-20)
(-0.0289795 0.0482976 6.20329e-20)
(-0.0336725 0.0529956 -1.4999e-19)
(-0.037557 0.056008 -2.78669e-19)
(-0.0405694 0.0575494 1.651e-19)
(-0.0426527 0.0578273 -1.89585e-20)
(-0.0437531 0.0570413 -3.80039e-19)
(-0.0438174 0.055383 7.29819e-20)
(-0.0427906 0.0530396 4.11484e-20)
(-0.0406154 0.0502017 -7.1702e-20)
(-0.0372348 0.0470741 1.89657e-19)
(-0.0326006 0.0438928 3.69889e-19)
(-0.0266882 0.0409477 -2.41119e-19)
(-0.01952 0.0386129 1.96021e-19)
(-0.0113016 0.0373359 4.78388e-20)
(-0.00236235 0.0376375 2.74417e-19)
(0.00817987 0.040778 1.2367e-19)
(-0.00414729 0.00846466 -8.4735e-20)
(-0.0115057 0.0223525 -9.91071e-21)
(-0.0184127 0.0336031 2.16918e-19)
(-0.0246244 0.0424762 2.1531e-19)
(-0.0300545 0.0491804 -4.41742e-20)
(-0.0346277 0.053935 -2.79598e-20)
(-0.0382745 0.0569634 2.80396e-19)
(-0.0409362 0.0584845 -2.17949e-19)
(-0.0425597 0.0587093 6.65141e-20)
(-0.0430938 0.0578392 2.75983e-19)
(-0.0424858 0.0560667 2.64943e-19)
(-0.040679 0.0535789 1.0339e-19)
(-0.0376114 0.050565 4.52844e-19)
(-0.0332182 0.0472289 -6.24238e-20)
(-0.0274395 0.0438091 -4.80938e-19)
(-0.0202362 0.0406064 2.3685e-19)
(-0.0116145 0.0380252 -1.26622e-19)
(-0.00178573 0.0365722 -2.95044e-19)
(0.00888566 0.0368894 -2.09271e-19)
(0.0214308 0.0405317 -2.11198e-19)
(-0.00441866 0.00860709 5.42177e-20)
(-0.0121846 0.0227183 1.13591e-19)
(-0.0193513 0.0341402 -7.90622e-20)
(-0.0256856 0.0431346 -9.83576e-20)
(-0.0311043 0.0499146 -1.02188e-19)
(-0.0355365 0.0547046 -2.76288e-20)
(-0.0389176 0.0577329 -2.89355e-19)
(-0.0411932 0.0592225 1.48625e-19)
(-0.0423136 0.0593874 -1.37009e-19)
(-0.0422297 0.0584312 -2.31764e-19)
(-0.0408887 0.0565466 8.24309e-21)
(-0.0382318 0.0539195 -5.89207e-19)
(-0.0341917 0.0507364 -4.57779e-19)
(-0.0286948 0.0471986 1.44929e-19)
(-0.0216685 0.0435434 7.34172e-20)
(-0.0130574 0.0400784 -1.57741e-19)
(-0.00284805 0.0372339 6.12292e-19)
(0.00874904 0.0355769 -9.61889e-20)
(0.0213218 0.0358792 2.62043e-19)
(0.0361072 0.040073 2.36086e-19)
(-0.00469104 0.00872941 -7.43971e-20)
(-0.0128627 0.0230263 -2.46846e-19)
(-0.0202831 0.034585 7.84937e-20)
(-0.0267283 0.0436698 4.39982e-21)
(-0.0321178 0.0504991 3.34319e-19)
(-0.0363841 0.0553027 -1.99676e-19)
(-0.039467 0.0583141 1.09458e-19)
(-0.0413158 0.0597606 1.56429e-19)
(-0.0418838 0.0598595 -1.23168e-20)
(-0.0411231 0.058816 9.68003e-20)
(-0.0389804 0.0568231 2.94678e-19)
(-0.0353937 0.0540646 6.17118e-19)
(-0.03029 0.0507237 4.96103e-20)
(-0.0235861 0.0469966 -2.74185e-19)
(-0.0151958 0.0431164 4.98908e-20)
(-0.00504604 0.039392 4.8606e-19)
(0.00689996 0.0362742 -3.30226e-19)
(0.0204386 0.0343867 1.42271e-21)
(0.0350987 0.0346341 2.55049e-19)
(0.0523893 0.0394253 -1.58548e-19)
(-0.00496371 0.00883212 -7.12898e-20)
(-0.0135374 0.0232772 2.91836e-19)
(-0.0212027 0.0349378 -2.22894e-19)
(-0.0277441 0.0440815 -4.55828e-20)
(-0.0330826 0.0509329 -7.69504e-20)
(-0.0371538 0.0557277 -2.00139e-19)
(-0.039901 0.058705 1.99556e-19)
(-0.0412768 0.0600966 -6.58629e-20)
(-0.0412363 0.0601235 -1.17928e-19)
(-0.0397322 0.0589927 1.93285e-19)
(-0.0367096 0.056897 -2.24406e-19)
(-0.0321027 0.0540185 -7.24215e-20)
(-0.0258318 0.0505358 -8.08488e-21)
(-0.0178036 0.0466386 1.92488e-19)
(-0.00791751 0.0425524 -1.74342e-19)
(0.00391824 0.038582 -3.29762e-19)
(0.0177662 0.0351903 -1.01211e-19)
(0.0334364 0.033051 -1.46592e-19)
(0.0503852 0.0331978 -4.47853e-19)
(0.0704763 0.0386246 -1.34194e-19)
(-0.00523595 0.00891571 1.01186e-19)
(-0.0142058 0.0234718 -1.28092e-19)
(-0.0221046 0.0351991 -1.60688e-19)
(-0.028724 0.0443698 -1.52011e-19)
(-0.0339857 0.0512152 5.06439e-20)
(-0.0378277 0.0559782 2.84558e-20)
(-0.0401963 0.0589038 7.12455e-20)
(-0.0410462 0.0602289 -1.85161e-19)
(-0.0403337 0.0601782 1.43473e-19)
(-0.0380106 0.0589608 -4.29982e-19)
(-0.0340196 0.05677 -2.16049e-19)
(-0.0282899 0.053786 3.58186e-21)
(-0.0207342 0.0501827 1.91882e-19)
(-0.0112484 0.046142 -1.25946e-19)
(0.000282633 0.0418792 3.21726e-19)
(0.0139698 0.0376888 -7.88866e-20)
(0.029903 0.0340364 1.02736e-19)
(0.0479129 0.0316341 3.88254e-19)
(0.0673657 0.0316311 5.12685e-20)
(0.0905824 0.0377233 2.49285e-19)
(-0.00550707 0.00898066 -2.13761e-19)
(-0.0148649 0.0236106 1.72495e-19)
(-0.0229827 0.0353693 1.93795e-19)
(-0.029658 0.0445346 -1.12824e-19)
(-0.0348127 0.0513458 1.92911e-19)
(-0.0383864 0.0560534 1.86268e-19)
(-0.0403272 0.0589092 -3.37671e-20)
(-0.0405913 0.060156 -6.38963e-20)
(-0.0391347 0.0600225 -1.74062e-19)
(-0.0359074 0.0587205 8.16251e-20)
(-0.0308481 0.0564443 7.95097e-21)
(-0.0238797 0.0533726 -2.1412e-19)
(-0.0149062 0.0496749 1.59675e-19)
(-0.00381214 0.0455252 -1.2539e-19)
(0.00953231 0.0411263 -2.28247e-19)
(0.0252563 0.0367571 -2.98357e-19)
(0.0434773 0.032875 7.31958e-20)
(0.0640533 0.0302149 1.01923e-19)
(0.0862377 0.0300133 -9.77319e-20)
(0.112932 0.0367939 4.1203e-19)
(-0.00577636 0.00902744 -1.68913e-19)
(-0.0155117 0.0236945 -1.58765e-19)
(-0.0238306 0.0354492 1.25552e-19)
(-0.0305358 0.0445761 7.30813e-20)
(-0.0355483 0.0513242 2.99058e-20)
(-0.0388085 0.0559526 -5.47594e-20)
(-0.0402657 0.0587206 -3.86573e-20)
(-0.0398762 0.0598773 8.84902e-20)
(-0.0375944 0.0596562 -8.34011e-20)
(-0.0333671 0.0582727 6.70412e-19)
(-0.0271272 0.0559227 4.89376e-20)
(-0.0187897 0.0527843 -7.52924e-20)
(-0.00824877 0.0490238 -4.96641e-19)
(0.00462297 0.0448074 9.59925e-20)
(0.0199697 0.0403248 -2.46098e-19)
(0.0379372 0.0358347 1.63017e-19)
(0.0586686 0.0317753 1.49675e-19)
(0.0820548 0.0288854 -5.70266e-19)
(0.107208 0.0284435 -1.77743e-19)
(0.137751 0.0359325 -6.15402e-19)
(-0.0060431 0.00905647 8.16663e-20)
(-0.0161429 0.023724 1.64379e-19)
(-0.0246416 0.0354391 -2.96285e-19)
(-0.0313459 0.0444947 -2.27069e-19)
(-0.0361755 0.0511506 1.15255e-19)
(-0.0390708 0.0556757 1.08495e-19)
(-0.0399814 0.0583377 -2.25315e-19)
(-0.0388619 0.0593927 -2.02999e-20)
(-0.0356642 0.0590799 1.20642e-20)
(-0.0303295 0.0576191 -2.01876e-19)
(-0.0227834 0.0552087 2.93837e-19)
(-0.0129312 0.0520278 1.67321e-21)
(-0.000655849 0.0482408 3.72523e-19)
(0.0141826 0.0440079 2.53118e-19)
(0.0317418 0.0395057 4.25205e-20)
(0.0521814 0.0349704 5.35246e-19)
(0.0756654 0.0308104 -4.86412e-19)
(0.102122 0.0277484 2.25612e-19)
(0.130485 0.0270398 1.76548e-19)
(0.165258 0.0352613 1.52363e-19)
(-0.00630654 0.00906814 3.93587e-19)
(-0.0167551 0.0236997 -2.78119e-19)
(-0.0254082 0.0353395 6.753e-20)
(-0.0320759 0.0442907 2.20415e-19)
(-0.0366762 0.0508252 -2.37784e-19)
(-0.0391485 0.0552229 1.17452e-20)
(-0.0394411 0.0577609 1.81237e-19)
(-0.0375065 0.0587031 3.33494e-19)
(-0.0332913 0.0582954 4.52113e-19)
(-0.0267299 0.0567625 -4.33475e-19)
(-0.0177381 0.0543071 -2.58734e-19)
(-0.0062097 0.0511108 1.22958e-19)
(0.00798512 0.0473383 -3.54126e-19)
(0.0249992 0.0431459 2.41891e-20)
(0.0450023 0.0386995 1.38228e-19)
(0.0681638 0.0342118 1.06218e-19)
(0.0946613 0.0300542 3.27955e-19)
(0.124461 0.0269135 6.89047e-20)
(0.156277 0.0259367 -2.48129e-19)
(0.195649 0.0349307 2.67378e-19)
(-0.00656585 0.00906274 -3.73268e-19)
(-0.0173443 0.023622 2.77031e-19)
(-0.0261224 0.035151 6.73044e-20)
(-0.0327126 0.0439646 -2.18613e-19)
(-0.0370306 0.0503486 9.24532e-20)
(-0.0390141 0.0545952 -4.4744e-20)
(-0.0386092 0.0569916 -3.37143e-20)
(-0.0357641 0.0578106 -2.81556e-19)
(-0.030419 0.0573055 -4.44756e-19)
(-0.0224987 0.0557074 4.16437e-19)
(-0.0119073 0.0532244 -1.50088e-19)
(0.00147495 0.0500426 4.69663e-21)
(0.0177921 0.0463295 8.52748e-20)
(0.03721 0.0422408 1.81233e-19)
(0.0599088 0.0379355 -2.20213e-20)
(0.0860615 0.0336046 -5.11564e-20)
(0.115849 0.0295782 -2.63949e-19)
(0.14927 0.0264918 -1.77017e-19)
(0.184778 0.025281 -1.6779e-19)
(0.22908 0.0351192 2.68973e-19)
(-0.00682011 0.0090405 2.99511e-19)
(-0.0179066 0.0234913 -7.8189e-20)
(-0.0267752 0.034874 2.66274e-19)
(-0.0332412 0.0435171 6.46067e-20)
(-0.0372171 0.0497219 -1.42593e-19)
(-0.0386382 0.053794 2.30921e-20)
(-0.037447 0.0560321 -3.04465e-19)
(-0.0335859 0.0567185 1.38597e-19)
(-0.0269865 0.056115 7.51502e-20)
(-0.017562 0.0544602 -2.76718e-20)
(-0.00520236 0.0519691 -3.15943e-20)
(0.0102276 0.0488345 3.74374e-20)
(0.0288875 0.0452294 -1.70606e-19)
(0.0509558 0.041313 -3.97855e-19)
(0.0766199 0.0372419 2.01921e-19)
(0.10605 0.0331906 -1.01015e-19)
(0.139416 0.0294483 -2.48675e-20)
(0.176735 0.02659 4.28173e-19)
(0.216166 0.0252267 4.48264e-19)
(0.265645 0.0360339 -6.8798e-19)
(-0.0070683 0.00900156 -7.63836e-20)
(-0.0184372 0.0233076 -8.42876e-20)
(-0.0273571 0.0345088 -1.66893e-19)
(-0.0336458 0.0429489 1.22485e-19)
(-0.0372124 0.0489464 2.22282e-19)
(-0.0379888 0.0528218 -2.8786e-19)
(-0.0359128 0.054886 4.60301e-19)
(-0.0309192 0.055432 -9.00928e-20)
(-0.0229288 0.0547309 1.32624e-20)
(-0.0118411 0.05303 -3.12955e-19)
(0.00247011 0.0505529 -2.39232e-20)
(0.0201574 0.0475009 -2.58502e-19)
(0.0413965 0.0440557 3.47164e-19)
(0.0663778 0.0403842 2.28705e-19)
(0.0952921 0.0366465 -4.47379e-19)
(0.128297 0.0330078 -3.81333e-19)
(0.165537 0.0297226 8.80878e-20)
(0.207016 0.0273045 5.13318e-19)
(0.250593 0.0259299 2.36976e-19)
(0.305355 0.0379064 1.2893e-19)
(-0.00730924 0.00894593 2.38711e-20)
(-0.0189309 0.023071 8.17095e-20)
(-0.0278573 0.0340558 9.85367e-20)
(-0.0339089 0.042261 -8.23021e-20)
(-0.036991 0.0480242 2.0641e-19)
(-0.0370313 0.0516818 2.7679e-19)
(-0.0339617 0.0535582 4.40898e-21)
(-0.0277075 0.053958 -3.58052e-19)
(-0.0181768 0.0531625 -2.86459e-19)
(-0.00525326 0.0514289 3.00283e-19)
(0.0112075 0.0489907 -4.02654e-19)
(0.0313766 0.04606 -4.52893e-19)
(0.055446 0.0428299 -4.53511e-20)
(0.0836161 0.039479 -2.3647e-20)
(0.116076 0.0361776 1.58183e-19)
(0.152959 0.0330905 1.03898e-19)
(0.194367 0.03045 1.34966e-19)
(0.240245 0.0287139 -6.34588e-19)
(0.28819 0.0275415 -1.75158e-19)
(0.348115 0.0409794 4.60812e-19)
(-0.00754155 0.00887351 -1.42177e-19)
(-0.0193821 0.0227813 1.39427e-19)
(-0.0282641 0.0335152 -1.02818e-19)
(-0.0340114 0.0414545 -5.11351e-20)
(-0.0365253 0.0469578 -1.39343e-19)
(-0.0357286 0.0503784 -1.05689e-19)
(-0.0315456 0.0520555 -1.89213e-19)
(-0.0238908 0.0523058 3.12971e-19)
(-0.0126575 0.0514222 1.24482e-19)
(0.00228826 0.0496727 -3.06065e-19)
(0.0211105 0.0473021 4.79765e-19)
(0.0439994 0.0445348 2.46418e-19)
(0.0711623 0.0415781 -1.86567e-19)
(0.102806 0.0386262 -2.61863e-19)
(0.13911 0.0358654 -3.36585e-20)
(0.180175 0.03347 2.6978e-19)
(0.226037 0.0316696 -1.80259e-19)
(0.276514 0.0308726 6.88069e-20)
(0.329065 0.030199 1.5508e-19)
(0.393716 0.0454801 3.88634e-19)
(-0.00776361 0.00878408 -1.45131e-20)
(-0.0197841 0.022438 -3.44444e-19)
(-0.0285644 0.0328873 8.40515e-20)
(-0.0339325 0.0405311 1.86757e-19)
(-0.0357855 0.0457503 -3.44014e-20)
(-0.0340404 0.0489173 -2.26444e-19)
(-0.0286131 0.0503862 2.49822e-19)
(-0.0194053 0.0504874 2.86212e-19)
(-0.00629416 0.0495258 1.09581e-19)
(0.0108738 0.0477813 5.44482e-19)
(0.0322825 0.0455114 -2.53391e-19)
(0.0581408 0.0429541 1.21465e-19)
(0.0886687 0.0403325 -1.25574e-19)
(0.124074 0.0378594 3.02362e-19)
(0.164521 0.0357425 -2.66233e-20)
(0.210058 0.0341753 -6.98814e-20)
(0.260642 0.0334115 -1.11569e-19)
(0.315861 0.033806 1.7556e-19)
(0.373288 0.034044 -4.4268e-19)
(0.44178 0.0516548 -5.97894e-19)
(-0.00797356 0.00867726 -8.25983e-20)
(-0.0201297 0.0220407 -3.0755e-20)
(-0.0287439 0.0321722 -2.78535e-19)
(-0.0336494 0.0394922 1.70585e-19)
(-0.0347392 0.0444059 -1.7425e-19)
(-0.0319239 0.0473052 -1.77047e-19)
(-0.0251096 0.0485608 -1.59554e-20)
(-0.014184 0.0485173 -2.88748e-19)
(0.000993565 0.0474925 -4.58441e-19)
(0.0205963 0.0457793 1.25516e-19)
(0.0448281 0.0436484 1.40665e-19)
(0.0739142 0.0413526 1.69692e-19)
(0.108083 0.0391318 4.33813e-19)
(0.147536 0.0372184 -4.26915e-20)
(0.19241 0.0358445 -9.40093e-20)
(0.242689 0.0352321 -1.31203e-20)
(0.298239 0.0356906 2.36892e-19)
(0.358287 0.0375029 4.20976e-19)
(0.420857 0.0393065 -1.18203e-19)
(0.491544 0.0599626 4.32938e-19)
(-0.0081692 0.00855256 2.5932e-19)
(-0.0204107 0.0215886 -4.22094e-20)
(-0.0287867 0.0313702 2.46151e-19)
(-0.0331375 0.0383402 -2.52438e-19)
(-0.0333518 0.0429293 3.72801e-19)
(-0.0293333 0.0455506 3.12022e-19)
(-0.0209773 0.046592 -2.565e-19)
(-0.00815632 0.0464131 -4.77483e-19)
(0.00928869 0.0453457 7.91789e-19)
(0.0315507 0.0436961 1.95642e-19)
(0.0588517 0.0417489 -1.52436e-19)
(0.091429 0.0397719 -1.50738e-19)
(0.129512 0.0380214 -7.50336e-20)
(0.173288 0.0367487 -1.17698e-19)
(0.22285 0.0362099 -3.89788e-19)
(0.278111 0.0366582 -1.06198e-19)
(0.338843 0.0384867 8.79661e-21)
(0.40383 0.0418814 -2.89089e-19)
(0.471907 0.0463212 1.43501e-19)
(0.54192 0.0708267 -3.08923e-19)
(-0.00834796 0.00840935 -4.14503e-19)
(-0.0206179 0.0210808 2.78933e-19)
(-0.0286756 0.0304817 -4.1569e-19)
(-0.0323701 0.0370775 -2.26541e-19)
(-0.0315861 0.0413264 8.45095e-20)
(-0.0262201 0.0436634 -3.37365e-19)
(-0.0161555 0.0444945 5.28829e-19)
(-0.00124917 0.0441954 9.01736e-21)
(0.0186763 0.0431124 -2.9437e-19)
(0.0438324 0.0415658 -2.57319e-19)
(0.0744553 0.0398545 -4.59624e-19)
(0.110788 0.0382603 -5.64214e-21)
(0.153051 0.0370544 1.6909e-20)
(0.201399 0.0365031 -1.0595e-19)
(0.255872 0.0368801 4.70198e-19)
(0.316292 0.0384609 2.90594e-19)
(0.382372 0.0417226 7.23418e-20)
(0.452546 0.0467333 -3.11716e-19)
(0.527131 0.0550557 -1.70146e-20)
(0.593937 0.0820548 -5.08834e-19)
(-0.00850693 0.0082469 1.47239e-19)
(-0.0207411 0.0205164 -2.79327e-19)
(-0.0283917 0.0295069 3.59118e-19)
(-0.0313185 0.0357072 5.04933e-19)
(-0.0294026 0.0396038 -1.64358e-19)
(-0.0225329 0.0416549 2.13039e-20)
(-0.0105808 0.0422856 -4.46049e-19)
(0.00661276 0.0418881 -1.11021e-19)
(0.0292427 0.0408239 -3.456e-19)
(0.0575358 0.0394279 4.50714e-19)
(0.0917368 0.0380125 4.17749e-19)
(0.132084 0.0368727 -7.43175e-20)
(0.178773 0.0362909 -5.58833e-20)
(0.231909 0.0365421 -4.85799e-21)
(0.291452 0.0379052 8.45016e-20)
(0.357112 0.0406519 -1.52051e-19)
(0.428543 0.0453002 -1.76633e-19)
(0.504025 0.0517324 3.74834e-19)
(0.586406 0.0641413 -1.20819e-19)
(0.655071 0.0861223 1.3003e-20)
(-0.00864273 0.00806435 3.8915e-20)
(-0.020769 0.0198942 5.63451e-20)
(-0.0279143 0.0284466 -1.88112e-19)
(-0.0299517 0.0342329 -5.20749e-19)
(-0.0267593 0.0377694 8.43793e-20)
(-0.0182182 0.0395385 2.55694e-19)
(-0.00418787 0.0399849 1.16693e-19)
(0.0155061 0.0395181 5.0092e-19)
(0.0410738 0.0385155 -3.14716e-19)
(0.0727523 0.0373262 -4.0906e-19)
(0.110786 0.0362758 -7.48974e-20)
(0.155396 0.0356701 1.86464e-19)
(0.206732 0.0357981 4.08166e-20)