/*--------------------------------*- C++ -*----------------------------------*\
  =========                 |
  \\      /  F ield         | OpenFOAM: The Open Source CFD Toolbox
   \\    /   O peration     | Website:  https://openfoam.org
    \\  /    A nd           | Version:  7
     \\/     M anipulation  |
\*---------------------------------------------------------------------------*/
FoamFile
{
    version     2.0;
    format      ascii;
    class       volVectorField;
    location    "10";
    object      U;
}
// * * * * * * * * * * * * * * * * * * * * * * * * * * * * * * * * * * * * * //

dimensions      [0 1 -1 0 0 0 0];

internalField   nonuniform List<vector> 
10220
(
(-0.000517454 0.00046089 9.28236e-22)
(-0.00274905 0.00105955 9.51897e-21)
(-0.0068658 0.00140995 1.13434e-20)
(-0.0117471 0.00156823 -5.08345e-21)
(-0.0168608 0.00157661 -3.46224e-21)
(-0.0218148 0.00147342 3.50079e-21)
(-0.0263006 0.00129417 3.36995e-21)
(-0.0301194 0.00107189 -3.47156e-21)
(-0.0331763 0.000837675 4.58013e-21)
(-0.0354797 0.000620151 -1.49936e-20)
(-0.0371081 0.000441235 3.33351e-21)
(-0.0381921 0.000324809 -4.06587e-21)
(-0.000576928 0.0013742 -8.32922e-21)
(-0.00286067 0.00315757 -3.98194e-21)
(-0.00695646 0.00419998 8.40021e-21)
(-0.0117604 0.00466876 -1.015e-20)
(-0.0167477 0.00469001 -7.12672e-21)
(-0.0215321 0.00437822 -1.05877e-20)
(-0.0258098 0.0038396 2.70646e-21)
(-0.0293863 0.00317294 -7.61943e-21)
(-0.0321699 0.00247152 1.51515e-20)
(-0.0341751 0.00182137 3.60592e-20)
(-0.0354817 0.00128895 -1.81504e-20)
(-0.0362 0.000947483 -4.66522e-21)
(-0.000693861 0.00226228 2.69044e-20)
(-0.00307889 0.00519279 -4.14476e-20)
(-0.00713073 0.00690101 -9.04646e-21)
(-0.0117786 0.00766222 -9.96146e-21)
(-0.0165122 0.00768474 -2.10241e-21)
(-0.0209567 0.00715785 -1.68032e-20)
(-0.0248183 0.00625726 -4.29312e-20)
(-0.0279101 0.00514683 -6.01036e-21)
(-0.0301477 0.00398188 -1.5602e-20)
(-0.0315567 0.00290632 -2.71968e-21)
(-0.0322207 0.00203328 4.10687e-20)
(-0.0322079 0.00148998 6.22248e-20)
(-0.000864266 0.00310887 -8.96794e-21)
(-0.00339378 0.00712465 2.60152e-20)
(-0.00737458 0.00945552 -1.94471e-21)
(-0.0117847 0.0104794 4.47537e-20)
(-0.0161356 0.0104842 -4.13495e-20)
(-0.020069 0.00973161 2.78605e-20)
(-0.023306 0.00846491 3.16624e-20)
(-0.0256712 0.00691181 5.5912e-20)
(-0.0270904 0.0052894 2.85399e-20)
(-0.0276064 0.00380033 -4.15094e-20)
(-0.0273089 0.00260793 7.24057e-21)
(-0.0261997 0.00190026 -6.91294e-20)
(-0.00108226 0.00389857 4.77142e-21)
(-0.0037906 0.00891455 -2.76638e-20)
(-0.0076671 0.0118087 3.83431e-20)
(-0.0117535 0.0130545 -2.21972e-20)
(-0.0155896 0.0130156 -8.12242e-21)
(-0.0188393 0.012023 -3.49944e-20)
(-0.0212426 0.0103848 -7.65029e-20)
(-0.0226396 0.00839067 5.23676e-20)
(-0.0229691 0.00631921 -3.26112e-20)
(-0.022296 0.00443314 3.16086e-20)
(-0.0207222 0.00295113 -4.74837e-21)
(-0.0181508 0.00213072 -9.82411e-20)
(-0.00134019 0.00461707 -6.78318e-20)
(-0.00425002 0.0105265 -1.9012e-20)
(-0.00798071 0.0139093 1.97473e-20)
(-0.0116516 0.0153261 -5.60031e-20)
(-0.014837 0.0152112 -3.7662e-20)
(-0.0172278 0.0139611 6.83116e-20)
(-0.0185877 0.0119453 -3.53352e-21)
(-0.018775 0.00951268 -1.44982e-20)
(-0.0177443 0.00700276 1.96377e-20)
(-0.0155871 0.00473952 -1.47926e-19)
(-0.0124264 0.00300393 3.39765e-20)
(-0.00803218 0.00214948 1.69265e-19)
(-0.00162875 0.00525142 9.30783e-20)
(-0.00474835 0.0119276 9.00853e-20)
(-0.00828135 0.0157108 -1.57678e-19)
(-0.0114372 0.0172382 5.03588e-20)
(-0.0138308 0.0170099 1.2773e-19)
(-0.0151848 0.0154827 -1.57681e-19)
(-0.0152902 0.0130829 1.01439e-19)
(-0.0140268 0.0102156 -9.35831e-20)
(-0.0113668 0.00727968 3.17386e-20)
(-0.0074312 0.00465948 5.84225e-22)
(-0.00236794 0.00270041 -1.19682e-19)
(0.00418724 0.00193933 5.51765e-20)
(-0.00193711 0.00579016 -5.77993e-20)
(-0.0052578 0.0130887 5.00357e-20)
(-0.00852874 0.0171716 1.34379e-19)
(-0.0110609 0.0187417 4.90857e-20)
(-0.0125151 0.0183583 -9.32146e-20)
(-0.0126501 0.0165332 1.41135e-19)
(-0.0112884 0.013744 -5.50637e-20)
(-0.0083334 0.0104479 1.37814e-19)
(-0.00377801 0.00710081 -9.61177e-20)
(0.00222126 0.00414738 -1.18246e-19)
(0.00951744 0.00201327 1.48742e-20)
(0.018575 0.00144501 -3.69728e-20)
(-0.0022531 0.00622344 -1.38015e-19)
(-0.00574677 0.0139847 -6.97039e-20)
(-0.00867665 0.0182563 -8.29813e-20)
(-0.0104655 0.0197948 5.90797e-20)
(-0.0108248 0.0192121 -3.61169e-21)
(-0.00955371 0.0170684 1.20237e-19)
(-0.00650941 0.0138867 -9.97836e-20)
(-0.00162184 0.0101709 -1.0366e-19)
(0.00509448 0.0064309 8.09514e-20)
(0.0134446 0.00317409 1.62364e-19)
(0.0232783 0.000923357 2.29331e-19)
(0.035197 0.000624223 1.93542e-20)
(-0.00256332 0.00654307 2.18695e-20)
(-0.00618015 0.0145945 1.18863e-20)
(-0.00867323 0.0189356 -5.78408e-20)
(-0.0095861 0.020364 -1.40285e-19)
(-0.0086857 0.0195367 -3.45843e-20)
(-0.00581516 0.0170558 -2.83716e-19)
(-0.000869765 0.0134825 2.43889e-19)
(0.00619198 0.00936062 -2.14335e-19)
(0.0153332 0.00524976 2.15569e-19)
(0.0263192 0.00171865 -9.96376e-20)
(0.0389901 -0.000601954 -2.47769e-19)
(0.0541209 -0.000511244 4.13905e-20)
(-0.00285324 0.00674252 1.30366e-20)
(-0.00651952 0.0149015 1.63668e-20)
(-0.00846137 0.0191868 2.19736e-19)
(-0.00835105 0.0204242 -9.00784e-20)
(-0.00601511 0.0193083 1.97802e-19)
(-0.00134422 0.0164756 2.32015e-20)
(0.00572501 0.0125175 -1.1256e-19)
(0.0152033 0.00801019 1.50734e-19)
(0.0270311 0.0035559 -3.98391e-19)
(0.0409333 -0.000219409 1.20121e-19)
(0.056738 -0.00256673 -2.94069e-20)
(0.075428 -0.00195434 1.86488e-19)
(-0.00310729 0.00681678 1.0357e-19)
(-0.00672331 0.0148931 3.14342e-20)
(-0.00797912 0.0189947 -6.57764e-20)
(-0.00668196 0.0199598 1.12572e-19)
(-0.00272219 0.0185142 -1.2782e-19)
(0.00395882 0.0153213 3.06261e-19)
(0.0133799 0.0109941 2.30285e-19)
(0.0255185 0.00613163 -1.99395e-19)
(0.0402919 0.00136964 1.8286e-19)
(0.0573848 -0.00261669 3.98275e-20)
(0.0766139 -0.00495182 3.82036e-19)
(0.099208 -0.00368915 -1.42927e-19)
(-0.00330914 0.00676244 8.0667e-20)
(-0.00674734 0.014562 -7.48151e-20)
(-0.00715971 0.0183501 7.50028e-20)
(-0.00449469 0.0189641 2.25097e-20)
(0.00129127 0.0171535 -1.93029e-19)
(0.0102023 0.0136007 3.88753e-20)
(0.0222095 0.00893142 -1.2556e-19)
(0.0372543 0.00375743 -8.80076e-20)
(0.0552294 -0.00126441 8.42145e-20)
(0.0757805 -0.00542299 -3.79621e-20)
(0.0987155 -0.00771371 -2.95762e-19)
(0.125556 -0.00568199 7.21157e-20)
(-0.00344128 0.00657776 -4.25936e-21)
(-0.00654538 0.0139049 -6.82841e-20)
(-0.00593309 0.017251 -1.06722e-19)
(-0.00169972 0.0174399 -1.55087e-19)
(0.00612975 0.0152365 1.38324e-19)
(0.0175023 0.0113351 -4.50214e-20)
(0.0323375 0.00636565 -4.26265e-20)
(0.050537 0.000941151 7.62931e-20)
(0.071967 -0.00427524 -4.81973e-20)
(0.0962347 -0.00855707 4.61683e-20)
(0.123145 -0.0107786 2.70614e-20)
(0.154569 -0.00787843 -1.03e-19)
(-0.00348556 0.00626228 -2.34384e-20)
(-0.00606878 0.0129224 -3.9988e-20)
(-0.00422626 0.015703 -7.80296e-20)
(0.00179607 0.0153993 3.89545e-19)
(0.0119024 0.0127849 1.52312e-19)
(0.0259801 0.00855936 1.56955e-19)
(0.043894 0.00334892 -1.96732e-20)
(0.0655011 -0.00224307 2.20775e-21)
(0.0906365 -0.0075645 -3.08852e-19)
(0.118868 -0.0119024 -1.67135e-19)
(0.150005 -0.0140343 1.93806e-20)
(0.186341 -0.0101969 -1.27601e-19)
(-0.00342314 0.00581704 -5.12518e-20)
(-0.00526752 0.0116201 7.43638e-20)
(-0.00196414 0.0137182 -5.63665e-20)
(0.00608799 0.0128634 -3.71977e-19)
(0.0187209 0.00983086 9.18023e-20)
(0.0357607 0.00532017 -2.40108e-19)
(0.0570137 -5.25239e-05 8.23912e-21)
(0.0822866 -0.00570287 -4.61586e-21)
(0.111376 -0.0110076 4.98321e-19)
(0.143808 -0.0153042 1.05908e-19)
(0.1794 -0.0173204 -1.48295e-19)
(0.220953 -0.0125187 3.389e-19)
(-0.00323465 0.00524472 8.74598e-20)
(-0.00409079 0.010008 4.97254e-20)
(0.000928941 0.0113161 1.76449e-19)
(0.0112715 0.00986181 8.29534e-20)
(0.0266967 0.00641626 -2.56539e-19)
(0.0469683 0.00167439 3.17724e-19)
(0.0718315 -0.00376168 -6.66913e-20)
(0.101036 -0.00933241 9.06821e-20)
(0.13433 -0.0144584 3.68085e-20)
(0.171187 -0.0185694 -7.50331e-20)
(0.211438 -0.0204183 2.09359e-19)
(0.258477 -0.0146756 -1.4195e-19)
(-0.00290047 0.00454972 -4.68679e-20)
(-0.00248786 0.0081011 7.03929e-20)
(0.00452765 0.00852312 -3.37976e-19)
(0.01744 0.00643303 1.32654e-19)
(0.0359375 0.00259184 -8.49884e-20)
(0.0597224 -0.00231323 1.36092e-20)
(0.088477 -0.00769526 1.79726e-19)
(0.121889 -0.0130199 1.91425e-20)
(0.159644 -0.0177591 -4.56688e-19)
(0.20115 -0.0214744 3.65628e-19)
(0.24624 -0.0230478 -1.74683e-19)
(0.298978 -0.0164388 -1.12219e-20)
(-0.00240104 0.00373843 2.25842e-20)
(-0.000409034 0.00591975 -8.12685e-21)
(0.00890379 0.00537326 -1.19559e-20)
(0.0246814 0.00262393 9.18489e-21)
(0.0465432 -0.0015836 -7.54245e-20)
(0.0741317 -0.0065723 1.36031e-19)
(0.107067 -0.011769 -2.01159e-19)
(0.144971 -0.0166579 9.61431e-20)
(0.187456 -0.0207562 2.73877e-19)
(0.233844 -0.0237811 -3.42238e-19)
(0.283947 -0.0248561 -2.36901e-19)
(0.342524 -0.0174579 -4.52835e-20)
(-0.00171732 0.00281941 1.24062e-19)
(0.00219308 0.00348982 2.83374e-20)
(0.0141243 0.00190841 1.67047e-19)
(0.0330757 -0.00150975 1.96446e-19)
(0.0586012 -0.00604333 -3.40837e-19)
(0.0902874 -0.0110284 1.07067e-20)
(0.127697 -0.0159029 -2.6119e-20)
(0.170388 -0.020156 1.81598e-20)
(0.21789 -0.0233258 3.11617e-19)
(0.269418 -0.0252608 -4.38892e-20)
(0.324691 -0.0253459 2.34291e-19)
(0.389053 -0.0169884 2.91673e-20)
(-0.000831244 0.00180369 -3.57771e-20)
(0.00536242 0.000843306 1.01105e-19)
(0.0202494 -0.0018211 -3.61397e-19)
(0.0426914 -0.00590278 -6.49141e-20)
(0.0721814 -0.0107121 1.23056e-19)
(0.108255 -0.0156036 6.22743e-21)
(0.150427 -0.0200251 -3.01822e-19)
(0.198205 -0.0234571 -6.13375e-19)
(0.25105 -0.025418 -1.57412e-19)
(0.308082 -0.0257628 4.70066e-19)
(0.368741 -0.023852 -3.31616e-19)
(0.438193 -0.0136453 1.5769e-19)
(0.000273758 0.000704878 -2.00986e-19)
(0.00913822 -0.00198141 -7.11695e-20)
(0.0273303 -0.00575594 5.0419e-19)
(0.0535829 -0.0104793 -1.64811e-19)
(0.0873319 -0.0155044 1.37395e-19)
(0.128068 -0.0202132 -7.35081e-20)
(0.175268 -0.0240713 1.93318e-19)
(0.228417 -0.0265503 5.1272e-19)
(0.286977 -0.0271202 -9.58632e-20)
(0.350182 -0.0254273 -6.23733e-19)
(0.417299 -0.0202466 3.53076e-19)
(0.491289 -0.00725261 1.2335e-20)
(0.00161235 -0.000460749 3.40614e-19)
(0.0135541 -0.00493936 3.32741e-20)
(0.0354084 -0.00982724 -9.16809e-20)
(0.0657885 -0.0151517 -9.22266e-20)
(0.104076 -0.0203209 3.83013e-19)
(0.149717 -0.0247593 8.73669e-21)
(0.202159 -0.0279701 -1.5529e-19)
(0.260887 -0.0294481 -4.65459e-19)
(0.325447 -0.0286562 -1.40209e-19)
(0.39559 -0.0249634 4.82307e-19)
(0.47193 -0.0165558 -2.55352e-19)
(0.558643 -0.00341781 4.74563e-19)
(0.00319693 -0.00167435 -1.72142e-19)
(0.0186373 -0.00797915 -2.43349e-21)
(0.0445143 -0.0139564 -3.2702e-19)
(0.0793302 -0.0198191 -5.22448e-20)
(0.122411 -0.0250451 -3.64671e-19)
(0.173156 -0.0291197 1.40362e-19)
(0.230972 -0.0316132 2.25727e-19)
(0.295329 -0.0320998 6.33232e-19)
(0.36582 -0.0301639 2.54064e-19)
(0.442487 -0.0253187 -6.81349e-19)
(0.526452 -0.0167389 1.75378e-19)
(0.618842 -0.00970759 5.2175e-21)
(0.00503752 -0.00291475 -7.22125e-20)
(0.0244084 -0.0110434 7.5821e-20)
(0.0546674 -0.0180556 1.71863e-19)
(0.0942141 -0.0243676 1.31262e-19)
(0.142315 -0.0295417 -2.40269e-19)
(0.198311 -0.0331421 2.02469e-19)
(0.261545 -0.0348333 -2.70134e-20)
(0.331426 -0.0343135 -4.4783e-19)
(0.407482 -0.0313662 1.37311e-19)
(0.489684 -0.0258169 6.57346e-19)
(0.578812 -0.0177367 -3.76267e-19)
(0.67286 -0.014573 -1.04125e-19)
(0.00714167 -0.0041589 3.14239e-19)
(0.0308814 -0.0140696 -8.03251e-20)
(0.0658766 -0.022029 3.25532e-19)
(0.110432 -0.0286725 -7.42165e-20)
(0.163748 -0.03366 9.58881e-20)
(0.225091 -0.0366499 8.01087e-20)
(0.293711 -0.03742 -1.56433e-19)
(0.368905 -0.0358129 2.42478e-19)
(0.450031 -0.0318206 -7.16196e-19)
(0.536764 -0.0255477 -3.08539e-19)
(0.629215 -0.0175439 -5.19539e-20)
(0.723469 -0.0157787 -2.90263e-19)
(0.00951459 -0.00538229 -2.11787e-19)
(0.0380633 -0.0169916 -6.13562e-20)
(0.0781405 -0.025775 -3.10358e-19)
(0.127963 -0.0326012 -1.19504e-19)
(0.186656 -0.0372393 -1.5569e-20)
(0.253396 -0.039454 -3.23766e-20)
(0.327313 -0.0391481 1.51022e-19)
(0.407545 -0.0363132 -1.38203e-20)
(0.493218 -0.0311303 5.3015e-19)
(0.583626 -0.0239163 3.69921e-19)
(0.678211 -0.0154564 3.1558e-21)
(0.772155 -0.0136194 7.69273e-20)
(0.0121592 -0.00655945 -5.75006e-20)
(0.0459546 -0.0197403 -4.11532e-20)
(0.0914467 -0.0291882 4.6286e-20)
(0.146771 -0.0360171 2.90766e-19)
(0.210971 -0.0401158 6.77029e-20)
(0.283115 -0.0413649 1.08809e-19)
(0.362192 -0.0397989 1.56376e-20)
(0.447149 -0.0355575 2.15315e-19)
(0.536851 -0.0289862 -6.05385e-19)
(0.630203 -0.0205616 -4.38225e-20)
(0.726082 -0.0111821 -1.18491e-19)
(0.819335 -0.00835239 6.02481e-20)
(0.015076 -0.00766433 5.35527e-20)
(0.0545487 -0.0222457 -6.65054e-20)
(0.105772 -0.0321619 -3.42656e-20)
(0.166808 -0.0387836 -2.09938e-19)
(0.236609 -0.0421283 -6.21912e-20)
(0.314124 -0.0422009 -1.78709e-19)
(0.398182 -0.0391732 -3.22489e-19)
(0.487521 -0.0333296 -8.94744e-20)
(0.580741 -0.0251623 3.15792e-20)
(0.676383 -0.0152728 -2.20948e-19)
(0.772871 -0.00461889 2.60965e-19)
(0.865038 -0.000234066 -3.35828e-20)
(0.0182635 -0.00867062 6.11174e-20)
(0.0638321 -0.0244371 -2.10962e-19)
(0.121083 -0.0345904 4.18962e-20)
(0.18801 -0.0407672 1.48943e-19)
(0.263471 -0.043123 6.774e-20)
(0.346282 -0.0417951 1.11964e-19)
(0.435102 -0.0370978 3.79716e-19)
(0.528454 -0.0294597 -2.73612e-19)
(0.624678 -0.0195079 3.6495e-19)
(0.721995 -0.0079524 1.14672e-19)
(0.818478 0.00420534 5.72342e-20)
(0.909128 0.0104383 -1.11973e-19)
(0.0217173 -0.00955197 3.30186e-21)
(0.0737838 -0.0262447 2.53613e-19)
(0.137333 -0.0363703 1.36188e-19)
(0.210298 -0.0418402 7.63973e-20)
(0.291438 -0.0429575 -3.92577e-19)
(0.37943 -0.0399998 -1.26841e-19)
(0.472754 -0.0334303 1.24833e-19)
(0.569721 -0.0238234 7.45288e-20)
(0.668426 -0.0119374 -1.36814e-20)
(0.766823 0.00141451 -1.13439e-19)
(0.862718 0.0151841 -3.7371e-20)
(0.951386 0.0233589 2.5936e-19)
(0.0254309 -0.0102822 -9.95242e-20)
(0.0843749 -0.0276003 -7.05477e-20)
(0.154462 -0.0374026 -8.94042e-20)
(0.233578 -0.0418838 -1.63846e-19)
(0.320375 -0.0415033 -1.02198e-19)
(0.413387 -0.036689 1.03339e-19)
(0.510919 -0.0280595 1.25439e-19)
(0.611071 -0.0163398 -1.05439e-19)
(0.711724 -0.00241957 -1.77634e-20)
(0.810611 0.0127833 -6.02427e-20)
(0.905355 0.0281654 2.16849e-20)
(0.991563 0.0382273 -1.63929e-19)
(0.0293945 -0.0108355 -3.00158e-19)
(0.0955683 -0.0284377 2.94931e-20)
(0.1724 -0.037594 -7.00151e-20)
(0.257736 -0.0407889 2.2708e-19)
(0.350125 -0.0386486 -2.65071e-20)
(0.447956 -0.0317599 9.64245e-20)
(0.549357 -0.0209059 -1.8923e-19)
(0.652239 -0.00696738 -6.60312e-20)
(0.754293 0.00903178 1.24627e-19)
(0.853086 0.026066 1.51832e-19)
(0.946133 0.0429702 2.98006e-19)
(1.02941 0.0547516 -8.84313e-20)
(0.0335953 -0.0111867 2.0221e-19)
(0.107318 -0.0286941 -1.49439e-19)
(0.191062 -0.036858 -2.17655e-20)
(0.282646 -0.0384588 8.86628e-20)
(0.380515 -0.0342989 -1.05294e-19)
(0.482917 -0.0251346 -1.0333e-19)
(0.587813 -0.0119211 1.0943e-19)
(0.692941 0.00429896 5.60604e-20)
(0.79584 0.0223649 2.57248e-19)
(0.893966 0.041142 -6.62541e-20)
(0.984798 0.0594024 -3.96262e-19)
(1.06471 0.0726513 5.23364e-20)
(0.0380171 -0.0113111 -2.63687e-19)
(0.11957 -0.0283101 3.90667e-20)
(0.210349 -0.0351161 7.04183e-20)
(0.308163 -0.0348096 -1.14002e-19)
(0.411355 -0.0283792 9.26958e-20)
(0.518037 -0.0167597 3.17839e-19)
(0.626018 -0.0010865 -2.17486e-19)
(0.732888 0.0174316 -3.8031e-19)
(0.836075 0.0374963 2.13016e-19)
(0.932979 0.0578663 6.92953e-20)
(1.02111 0.0772564 4.06928e-20)
(1.09727 0.0916603 8.22757e-20)
(0.0426403 -0.0111853 1.31398e-19)
(0.13226 -0.027231 -8.63399e-20)
(0.230151 -0.0322992 6.66858e-20)
(0.334127 -0.0297724 4.26396e-21)
(0.442439 -0.0208341 -4.03172e-20)
(0.553069 -0.0066068 -1.48662e-19)
(0.663695 0.011588 3.80275e-19)
(0.771789 0.0323731 2.27916e-19)
(0.87471 0.0543157 -1.25288e-19)
(0.969863 0.0760751 -1.02503e-19)
(1.05486 0.0963218 -2.15281e-20)
(1.12693 0.111528 7.38858e-22)
(0.0474412 -0.0107874 -6.6665e-20)
(0.145315 -0.0254076 8.40691e-20)
(0.250345 -0.0283484 1.7089e-20)
(0.360367 -0.0232933 -1.17631e-19)
(0.473548 -0.0116289 -1.11069e-19)
(0.587758 0.0053276 3.50129e-20)
(0.700564 0.0260651 -4.45287e-20)
(0.809356 0.0490395 -1.47748e-19)
(0.911474 0.0726905 -1.22715e-19)
(1.00438 0.0955915 6.64111e-20)
(1.08586 0.116388 5.11486e-20)
(1.15357 0.13202 -2.12093e-19)
(0.0523926 -0.0100972 1.20159e-19)
(0.158653 -0.0227969 4.53612e-20)
(0.270795 -0.0232161 -4.71422e-20)
(0.386697 -0.0153354 9.98282e-20)
(0.504453 -0.000750313 8.8624e-20)
(0.621841 0.0190226 -9.51521e-20)
(0.736345 0.0422821 -4.62086e-20)
(0.845311 0.0673229 1.10911e-19)
(0.946112 0.0924697 1.75973e-19)
(1.03633 0.116229 1.50678e-19)
(1.11396 0.137246 9.00457e-20)
(1.17714 0.152922 1.19512e-19)
(0.0574635 -0.00909667 -3.33727e-20)
(0.172185 -0.0193632 1.05156e-19)
(0.291357 -0.0168676 6.33938e-20)
(0.412922 -0.00587927 -2.00894e-19)
(0.534921 0.0117937 1.30968e-19)
(0.655057 0.0344333 -1.37238e-19)
(0.770764 0.0601523 6.62031e-20)
(0.879394 0.0870944 -1.51576e-19)
(0.978396 0.113488 1.0152e-19)
(1.06553 0.137795 -4.78739e-21)
(1.13907 0.158694 -8.68633e-20)
(1.1976 0.174036 -1.33436e-19)
(0.0626193 -0.00777063 -5.47063e-20)
(0.185812 -0.0150793 -1.22375e-20)
(0.311877 -0.00928159 -1.63891e-20)
(0.438842 0.00507643 1.21788e-19)
(0.564711 0.0259734 -3.30798e-20)
(0.687144 0.0514919 1.15864e-19)
(0.803561 0.0795668 5.46132e-20)
(0.91136 0.108207 1.30414e-19)
(1.00813 0.135567 -3.09308e-20)
(1.09185 0.160096 -1.94617e-19)
(1.16111 0.180536 4.03351e-21)
(1.21495 0.195183 1.07964e-19)
(0.0678222 -0.00610699 1.04788e-19)
(0.199431 -0.00992689 -1.59447e-19)
(0.332193 -0.000451233 1.19441e-20)
(0.464248 0.0175141 9.57261e-20)
(0.593585 0.0417375 -8.96069e-20)
(0.717849 0.0701083 -1.31491e-20)
(0.834487 0.100397 -1.01053e-20)
(0.94099 0.130499 -1.36723e-20)
(1.03513 0.158523 -2.68053e-20)
(1.11517 0.182938 8.69998e-20)
(1.18004 0.202585 3.03302e-20)
(1.22923 0.216201 1.77963e-21)
(0.0730312 -0.00409726 3.89752e-21)
(0.21293 -0.00389782 1.9244e-20)
(0.35214 0.00961489 5.42626e-20)
(0.488931 0.0313969 -8.60538e-20)
(0.621307 0.0590136 7.5456e-21)
(0.746928 0.0901715 2.89981e-20)
(0.863312 0.122496 -1.22021e-19)
(0.96809 0.153795 1.55979e-20)
(1.05927 0.182165 -2.20318e-20)
(1.13542 0.20613 1.23242e-20)
(1.19587 0.224667 -6.89203e-20)
(1.24051 0.236945 3.9475e-20)
(0.0782028 -0.00173698 -2.0809e-20)
(0.226196 0.00300533 -2.03105e-20)
(0.371547 0.0208923 -7.96604e-21)
(0.512683 0.0466688 9.98203e-21)
(0.647647 0.0777085 2.54894e-20)
(0.774152 0.111551 1.92554e-20)
(0.889827 0.145701 5.2631e-20)
(0.992494 0.17791 -8.34512e-21)
(1.08043 0.2063 3.82787e-20)
(1.15257 0.229485 -4.76632e-20)
(1.20861 0.246614 1.57841e-20)
(1.24887 0.257285 -7.85281e-21)
(0.0832916 0.000973982 -1.81753e-21)
(0.239111 0.0107686 1.09636e-20)
(0.390244 0.0333403 5.80263e-21)
(0.535299 0.0632545 1.38277e-20)
(0.672385 0.0977097 -1.16617e-20)
(0.799308 0.1341 -2.12477e-20)
(0.913849 0.169837 5.2212e-21)
(1.01406 0.202654 -2.65083e-20)
(1.09854 0.230734 5.93425e-21)
(1.1666 0.252823 1.45025e-20)
(1.21832 0.268274 -1.08086e-20)
(1.25442 0.277106 5.05458e-21)
(0.0882511 0.0040311 -3.87727e-21)
(0.251557 0.0193663 1.20454e-20)
(0.408063 0.0469016 -5.0412e-22)
(0.55658 0.0810601 1.6507e-20)
(0.695315 0.118886 -6.24379e-21)
(0.822202 0.157654 -1.73931e-20)
(0.935218 0.194717 6.88207e-22)
(1.03269 0.227829 -2.12771e-20)
(1.11356 0.255276 2.83792e-22)
(1.17753 0.275972 1.06191e-20)
(1.22509 0.289502 -1.0612e-20)
(1.25727 0.296304 6.5572e-21)
(0.0930335 0.00742505 1.43843e-20)
(0.263414 0.0287609 -2.04043e-20)
(0.424838 0.061503 -2.55242e-20)
(0.576336 0.0999737 4.00605e-21)
(0.716244 0.141089 2.0173e-20)
(0.842661 0.182036 5.89787e-21)
(0.953801 0.220147 5.84357e-20)
(1.0483 0.253237 -1.64841e-20)
(1.12546 0.279738 5.2045e-20)
(1.1854 0.298766 -4.52616e-20)
(1.22899 0.310168 2.32763e-20)
(1.25757 0.314787 -2.81204e-20)
(0.0975908 0.0111414 -3.24122e-20)
(0.274568 0.0389026 6.70896e-20)
(0.44041 0.077055 1.39308e-20)
(0.594389 0.119867 -7.025e-20)
(0.734999 0.164156 3.09724e-21)
(0.860538 0.207057 2.21806e-20)
(0.969491 0.245924 -6.81617e-20)
(1.06083 0.278679 7.2844e-21)
(1.13426 0.303937 -2.93891e-20)
(1.19028 0.321051 -1.33891e-20)
(1.23014 0.330149 -1.92764e-20)
(1.25543 0.332471 2.63139e-20)
(0.101876 0.0151608 6.57207e-20)
(0.284904 0.0497299 -8.99469e-20)
(0.45463 0.093453 -4.34521e-20)
(0.610577 0.140594 4.31558e-20)
(0.751425 0.18791 -5.48832e-20)
(0.875708 0.232519 -1.53338e-21)
(0.982211 0.271845 2.26586e-20)
(1.07027 0.303957 -3.35809e-20)
(1.13998 0.327696 -6.81434e-21)
(1.19225 0.342678 1.05773e-19)
(1.22865 0.349332 -5.80719e-21)
(1.25101 0.349282 1.57052e-21)
(0.105843 0.0194587 -1.05575e-19)
(0.294316 0.0611697 2.02472e-20)
(0.467357 0.110579 3.31842e-20)
(0.624752 0.161998 2.8963e-20)
(0.765392 0.212162 4.8332e-20)
(0.888073 0.258218 3.94844e-20)
(0.991909 0.297702 5.87422e-20)
(1.07662 0.328877 1.11698e-19)
(1.14269 0.350846 -8.65807e-20)
(1.1914 0.36351 -8.99482e-20)
(1.22466 0.367613 4.17841e-21)
(1.24443 0.365152 5.87118e-20)
(0.109448 0.0240057 -3.59593e-20)
(0.302705 0.0731383 2.95896e-20)
(0.478466 0.1283 1.00723e-19)
(0.636785 0.183908 -1.60756e-19)
(0.77679 0.236715 8.18228e-20)
(0.897562 0.283944 -5.01654e-20)
(0.998562 0.32329 1.77846e-21)
(1.07989 0.353251 -7.61758e-20)
(1.14244 0.373223 5.87005e-20)
(1.18785 0.383418 -2.10953e-21)
(1.21829 0.384896 -4.43577e-20)
(1.23586 0.380019 -8.15955e-20)
(0.11265 0.028768 4.79234e-20)
(0.309979 0.0855418 1.02205e-19)
(0.487844 0.146473 -1.25394e-19)
(0.646569 0.206142 1.25194e-19)
(0.785534 0.261365 -1.82191e-20)
(0.904128 0.309487 5.5453e-20)
(1.00217 0.348406 -5.50202e-20)
(1.08015 0.376896 4.24645e-20)
(1.13934 0.394675 1.08643e-19)
(1.18171 0.402281 8.63928e-20)
(1.20968 0.401091 9.69683e-20)
(1.22542 0.393827 3.55284e-20)
(0.115411 0.0337073 3.37045e-20)
(0.316056 0.0982775 1.89023e-20)
(0.495396 0.164945 -7.99325e-21)
(0.654018 0.228512 -5.62918e-20)
(0.791567 0.285904 -2.74586e-20)
(0.907753 0.334633 -3.52344e-20)
(1.00276 0.372849 -4.11859e-20)
(1.07745 0.399636 -1.1189e-19)
(1.13348 0.415058 -6.30291e-20)
(1.17312 0.419986 6.95886e-20)
(1.19898 0.416113 -4.86439e-20)
(1.21325 0.406526 1.4033e-20)
(0.117699 0.0387814 1.26959e-19)
(0.320869 0.111235 -3.94934e-20)
(0.501044 0.183555 2.07897e-20)
(0.659066 0.250822 -5.77344e-20)
(0.794854 0.31012 5.26401e-21)
(0.908442 0.359176 -8.15677e-21)
(1.00037 0.396428 1.23057e-19)
(1.07189 0.421305 2.22164e-19)
(1.12498 0.434236 -5.7643e-20)
(1.16219 0.436427 -9.85072e-20)
(1.18631 0.429877 -1.19864e-20)
(1.19946 0.418066 -3.70478e-20)
(0.119484 0.0439447 -1.4391e-19)
(0.324359 0.124297 -1.52091e-20)
(0.50473 0.202134 5.61355e-20)
(0.661673 0.272874 -3.81519e-20)
(0.795387 0.333804 -2.16448e-20)
(0.906227 0.382908 1.94923e-19)
(0.995093 0.418956 -1.54005e-19)
(1.06358 0.441747 -1.73049e-19)
(1.11396 0.452085 -6.67322e-20)
(1.14907 0.451513 5.29078e-20)
(1.17178 0.442321 3.48898e-20)
(1.18406 0.428347 -1.9045e-20)
(0.120742 0.0491488 1.53842e-19)
(0.326484 0.137341 -1.57208e-20)
(0.506414 0.220512 -2.74591e-20)
(0.661823 0.294468 2.98499e-20)
(0.793182 0.356746 -6.48497e-20)
(0.901164 0.405631 -3.18667e-20)
(0.987003 0.440258 -6.36718e-20)
(1.05262 0.460815 1.43399e-19)
(1.10057 0.46849 8.03455e-20)
(1.13389 0.465169 -1.05717e-20)
(1.15553 0.453448 -7.99995e-20)
(1.16735 0.437249 9.84299e-21)
(0.121456 0.054343 -1.00501e-19)
(0.327214 0.150241 9.74766e-20)
(0.506077 0.238513 -6.28003e-20)
(0.659522 0.315403 1.1678e-20)
(0.788281 0.378742 1.00269e-19)
(0.893331 0.427154 -2.09211e-19)
(0.976216 0.460167 -1.16369e-20)
(1.03915 0.478373 -1.01845e-20)
(1.08494 0.483347 2.4937e-20)
(1.1168 0.477304 1.08786e-20)
(1.13773 0.463146 7.32517e-20)
(1.14952 0.444913 -3.52032e-20)
(0.121612 0.059475 -2.86601e-21)
(0.326534 0.162871 -1.06187e-19)
(0.50372 0.255963 -5.14569e-20)
(0.654799 0.335483 2.78835e-20)
(0.780748 0.399594 7.79728e-20)
(0.882827 0.447295 8.76905e-20)
(0.962861 0.478527 1.65323e-20)
(1.02332 0.494298 2.74015e-20)
(1.06722 0.496561 -6.20433e-20)
(1.09793 0.487848 -9.66511e-21)
(1.11848 0.471341 -2.71463e-21)
(1.13057 0.451239 -4.96126e-22)
(0.121206 0.0644915 1.17252e-20)
(0.324445 0.1751 -1.0381e-21)
(0.499365 0.272689 3.08821e-20)
(0.647708 0.354516 -1.92944e-20)
(0.770673 0.419114 -2.1625e-19)
(0.869773 0.465882 8.23501e-20)
(0.947081 0.495194 -2.68096e-20)
(1.00528 0.508475 -2.27076e-21)
(1.04757 0.508048 -8.63241e-21)
(1.07741 0.496741 -8.55669e-22)
(1.09789 0.477989 -5.30562e-21)
(1.11057 0.456159 2.80347e-21)
(0.120236 0.069339 2.10798e-20)
(0.32096 0.186803 5.81823e-20)
(0.493054 0.288522 4.43749e-21)
(0.638324 0.372317 7.35268e-20)
(0.758164 0.43712 5.11341e-20)
(0.854309 0.482754 2.95787e-20)
(0.929038 0.510037 3.44839e-20)
(0.985207 0.520807 3.42832e-23)
(1.02614 0.517736 1.74631e-20)
(1.0554 0.50393 1.80909e-20)
(1.07607 0.483047 -2.68065e-21)
(1.08964 0.459625 2.48712e-20)
(0.11871 0.073965 2.29142e-20)
(0.31611 0.197853 -3.55072e-20)
(0.484847 0.303298 2.08684e-20)
(0.626742 0.388709 -8.42944e-20)
(0.743351 0.453443 -2.21659e-21)
(0.836591 0.497764 -5.69792e-20)
(0.908905 0.522939 -3.59642e-20)
(0.963271 0.531205 -4.09216e-21)
(1.00309 0.525567 -3.39528e-20)
(1.03201 0.509374 2.99508e-21)
(1.05312 0.48648 -1.29218e-21)
(1.06785 0.461589 -4.14504e-20)
(0.116639 0.078318 -2.97508e-20)
(0.309937 0.20813 3.35259e-20)
(0.474824 0.31686 7.55657e-21)
(0.613077 0.403525 6.04153e-20)
(0.72638 0.467926 6.17143e-20)
(0.816793 0.510779 -2.14648e-21)
(0.88687 0.533793 9.25701e-21)
(0.939663 0.539597 1.43855e-20)
(0.978612 0.531493 1.00631e-20)
(1.00738 0.513046 3.98916e-20)
(1.02912 0.488258 -2.45105e-20)
(1.04527 0.461994 6.25157e-20)
(0.114037 0.0823445 2.19033e-21)
(0.302502 0.217521 -1.37159e-20)
(0.463082 0.32906 -5.73296e-20)
(0.597463 0.41661 8.08925e-23)
(0.707418 0.480424 -7.75294e-21)
(0.795102 0.521675 7.1694e-21)
(0.863131 0.542509 8.30168e-22)
(0.91458 0.54592 5.29441e-21)
(0.952874 0.535481 -5.79244e-20)
(0.981664 0.514933 -5.02826e-20)
(1.00414 0.488368 -6.07779e-20)
(1.02195 0.460782 -4.63727e-20)
(0.110934 0.0859926 1.87057e-20)
(0.293876 0.225911 -7.4251e-22)
(0.449731 0.339762 3.46063e-20)
(0.58005 0.427822 8.89353e-21)
(0.686643 0.490808 -1.15108e-20)
(0.771715 0.530347 1.01132e-20)
(0.837898 0.549006 7.71896e-21)
(0.888233 0.550124 -3.59642e-20)
(0.926076 0.537509 1.26168e-19)
(0.955005 0.515039 9.73229e-20)
(0.978241 0.48681 6.64236e-21)
(0.997887 0.45788 4.09159e-20)
(0.107361 0.0892232 -4.83105e-21)
(0.284136 0.233198 -2.11969e-21)
(0.4349 0.348837 -8.37239e-21)
(0.561001 0.437031 -1.50427e-20)
(0.664245 0.498962 -3.82226e-21)
(0.746842 0.5367 1.6876e-20)
(0.811387 0.553216 1.93465e-21)
(0.860841 0.552167 5.12343e-20)
(0.898432 0.537566 3.8212e-20)
(0.927574 0.513387 -1.41131e-19)
(0.951466 0.483599 1.76941e-19)
(0.973076 0.453173 -3.83404e-20)
(0.103349 0.0919927 2.38133e-20)
(0.273377 0.239292 3.39844e-20)
(0.418729 0.356171 1.25531e-20)
(0.540493 0.444124 3.84823e-20)
(0.640427 0.504786 3.82122e-20)
(0.720698 0.540654 -2.31804e-21)
(0.78382 0.555084 -8.66121e-20)
(0.832631 0.552018 -1.85192e-19)
(0.870174 0.535651 -8.26348e-20)
(0.899579 0.510025 2.14009e-19)
(0.923912 0.478802 -1.73765e-19)
(0.947391 0.446546 2.61171e-20)
(0.0989364 0.0942619 -2.89458e-20)
(0.261702 0.24411 8.93269e-21)
(0.40137 0.361665 4.08168e-20)
(0.518714 0.449002 -3.92997e-20)
(0.615398 0.508195 -2.32112e-20)
(0.693502 0.542145 -8.00349e-20)
(0.75542 0.554561 1.15047e-19)
(0.803832 0.549646 2.09544e-19)
(0.841553 0.53176 -3.9207e-20)
(0.871321 0.505024 -3.41203e-19)
(0.895925 0.47266 1.19858e-19)
(0.920486 0.438365 1.53062e-20)
(0.0941675 0.0959969 9.07592e-20)
(0.249223 0.24758 -1.19047e-20)
(0.382984 0.365234 -1.12673e-19)
(0.495858 0.451585 -3.05918e-20)
(0.58937 0.509122 3.95577e-20)
(0.665473 0.541122 4.4254e-20)
(0.726404 0.551609 -1.27798e-19)
(0.774661 0.545018 -2.54346e-19)
(0.812818 0.525853 -7.2733e-20)
(0.843223 0.498357 2.95414e-19)
(0.868405 0.465462 -6.10524e-20)
(0.891807 0.429046 -8.31924e-20)
(0.0890891 0.097168 1.52711e-20)
(0.236058 0.249639 -7.8467e-20)
(0.36374 0.366807 2.15106e-19)
(0.472128 0.451809 9.06317e-20)
(0.562562 0.507517 -1.86805e-19)
(0.636831 0.53755 1.34192e-19)
(0.696979 0.546206 5.68479e-20)
(0.745305 0.538106 3.06165e-19)
(0.784159 0.517851 2.45718e-19)
(0.815669 0.489725 -4.72866e-19)
(0.842422 0.456661 1.33601e-19)
(0.867259 0.420246 9.8568e-20)
(0.0837513 0.0977504 -2.87004e-20)
(0.222333 0.25024 -1.81412e-20)
(0.343816 0.366332 -1.19911e-19)
(0.447729 0.449629 -2.23437e-21)
(0.535194 0.503351 -7.54821e-20)
(0.60779 0.531414 4.16401e-20)
(0.667343 0.53835 -1.37294e-20)
(0.715924 0.528917 1.62204e-19)
(0.755656 0.507769 -2.54636e-19)
(0.788464 0.479149 2.10267e-19)
(0.8168 0.445974 -4.22579e-19)
(0.842816 0.409886 2.72441e-20)
(0.0782069 0.0977249 -9.08762e-20)
(0.208178 0.249344 1.76131e-19)
(0.323392 0.36377 -1.22514e-19)
(0.422874 0.445017 7.5783e-21)
(0.507486 0.49661 -4.29287e-20)
(0.578567 0.52272 1.54367e-19)
(0.637692 0.528059 7.96211e-20)
(0.686684 0.517485 -2.26066e-19)
(0.727422 0.495663 -1.82863e-19)
(0.761621 0.466772 3.58331e-19)
(0.791505 0.433694 2.38489e-19)
(0.818727 0.398207 1.39803e-19)
(0.0725112 0.0970777 4.87902e-20)
(0.193726 0.24693 -4.21217e-20)
(0.302652 0.359104 2.18792e-19)
(0.397774 0.437967 -2.71151e-20)
(0.479661 0.487303 -1.92797e-20)
(0.549379 0.511487 8.53154e-20)
(0.608227 0.515367 -1.68856e-19)
(0.65776 0.503855 -8.20096e-21)
(0.699606 0.481595 4.63891e-19)
(0.735261 0.452688 -3.28803e-19)
(0.766715 0.419979 1.64319e-20)
(0.795256 0.38534 2.10778e-19)
(0.0667207 0.0958008 -4.57162e-20)
(0.179115 0.242985 1.18717e-19)
(0.281785 0.35233 -3.01119e-19)
(0.372643 0.428488 -3.84575e-20)
(0.451939 0.475454 5.55451e-20)
(0.52044 0.497754 -2.70037e-20)
(0.579146 0.500322 -9.78231e-20)
(0.62933 0.48808 -1.26741e-20)
(0.672362 0.465623 -1.67755e-19)
(0.709525 0.436952 3.16586e-19)
(0.742572 0.40487 -4.44513e-19)
(0.772513 0.371287 2.33412e-19)
(0.060893 0.0938919 1.50467e-19)
(0.164483 0.237514 -1.02655e-19)
(0.260976 0.343462 -3.18628e-20)
(0.347694 0.416609 3.30473e-19)