/*--------------------------------*- C++ -*----------------------------------*\
  =========                 |
  \\      /  F ield         | OpenFOAM: The Open Source CFD Toolbox
   \\    /   O peration     | Website:  https://openfoam.org
    \\  /    A nd           | Version:  7
     \\/     M anipulation  |
\*---------------------------------------------------------------------------*/
FoamFile
{
    version     2.0;
    format      ascii;
    class       volVectorField;
    location    "50";
    object      U;
}
// * * * * * * * * * * * * * * * * * * * * * * * * * * * * * * * * * * * * * //

dimensions      [0 1 -1 0 0 0 0];

internalField   nonuniform List<vector> 
8500
(
(-0.00856564 0.00660589 5.84954e-20)
(-0.00850302 0.00631623 4.95018e-20)
(-0.01828 0.0147507 -6.54144e-20)
(-0.00838724 0.00600259 3.15265e-19)
(-0.0174185 0.0138126 -1.86931e-19)
(-0.0187979 0.0190102 -1.45314e-21)
(-0.00821197 0.00566481 -1.64264e-19)
(-0.0163555 0.0128204 8.82946e-22)
(-0.0162887 0.0175098 1.3521e-19)
(-0.00797052 0.00530295 -5.84174e-20)
(-0.0150722 0.0117766 3.40508e-20)
(-0.0133824 0.0159584 5.04601e-20)
(-0.00302712 0.0184129 -1.47575e-19)
(-0.00765584 0.0049174 2.99625e-19)
(-0.0135495 0.0106848 -7.58115e-20)
(-0.0100494 0.0143649 -1.08896e-19)
(0.00267515 0.0165108 5.63391e-20)
(0.0246573 0.0178797 2.63985e-19)
(-0.00726063 0.00450894 -1.34727e-19)
(-0.0117677 0.00954945 2.0079e-20)
(-0.00626002 0.0127398 -1.53053e-19)
(0.00904593 0.0146146 -2.14542e-19)
(0.0341588 0.0159546 -9.177e-20)
(0.0690919 0.0174511 -5.10602e-20)
(-0.00677732 0.00407872 -1.32839e-19)
(-0.00970685 0.00837629 2.92459e-19)
(-0.00198457 0.0110951 1.81528e-19)
(0.0161213 0.012744 8.10969e-20)
(0.0445884 0.0141245 -2.93763e-20)
(0.0833865 0.0159419 -1.91309e-19)
(0.132433 0.0187996 2.64007e-20)
(-0.00619817 0.00362839 2.37124e-20)
(-0.00734686 0.00717225 -4.34939e-20)
(0.00280598 0.00944487 3.23221e-20)
(0.0239358 0.0109211 -7.8184e-20)
(0.0559809 0.0124199 1.65451e-19)
(0.098855 0.0146566 2.98057e-19)
(0.152387 0.0182331 9.2205e-20)
(0.216237 0.0236505 5.77812e-20)
(-0.00551534 0.00316007 -8.06174e-20)
(-0.00466783 0.00594559 -1.87092e-19)
(0.00813981 0.00780489 -1.42138e-19)
(0.0325214 0.00917006 4.41242e-20)
(0.0683667 0.0108734 -2.37367e-19)
(0.115518 0.0136353 -2.94057e-19)
(0.173695 0.018049 -3.8916e-20)
(0.242394 0.0245919 -9.06573e-20)
(0.320765 0.0335931 -8.71373e-21)
(-0.00472093 0.0026764 -6.27965e-20)
(-0.00165016 0.00470596 -4.92454e-20)
(0.0140438 0.00619304 2.18527e-19)
(0.0419074 0.00751744 -1.34999e-19)
(0.0817708 0.00951991 3.47232e-19)
(0.133387 0.0129196 1.45645e-19)
(0.196343 0.018293 -9.54338e-20)
(0.269943 0.0260821 -1.62739e-19)
(0.353075 0.0365554 -2.58116e-19)
(0.444093 0.0497689 2.73139e-19)
(-0.00380706 0.00218061 1.23701e-19)
(0.00172519 0.00346446 2.00833e-19)
(0.0205433 0.00462915 8.48665e-21)
(0.0521196 0.00599195 1.23905e-19)
(0.0962122 0.00839618 -2.99101e-19)
(0.152466 0.0125524 7.23133e-20)
(0.220308 0.0190103 -4.74284e-20)
(0.298816 0.0281633 -9.45789e-21)
(0.386587 0.0402033 -8.89382e-20)
(0.481626 0.0550792 -1.93785e-19)
(0.581323 0.0724668 9.51537e-20)
(-0.00276595 0.00167649 -2.22051e-20)
(0.00547644 0.00223366 -3.04837e-19)
(0.0276613 0.00313506 -2.34218e-19)
(0.0631799 0.00462441 -1.50008e-20)
(0.111703 0.00754076 5.27176e-20)
(0.172747 0.0125774 -1.01566e-19)
(0.245548 0.0202452 -9.93568e-22)
(0.328929 0.0308745 3.3177e-20)
(0.421159 0.0445632 4.88942e-20)
(0.519876 0.0611354 2.7722e-19)
(0.6221 0.0801196 1.14473e-19)
(0.724376 0.100763 6.97354e-20)
(0.823063 0.122095 -9.26216e-20)
(-0.00159002 0.00116843 4.01881e-20)
(0.00962078 0.0010276 1.62186e-19)
(0.0354186 0.00173453 1.00415e-19)
(0.0751054 0.00344761 -1.86004e-19)
(0.128249 0.00699358 3.9604e-20)
(0.194212 0.0130382 2.39922e-19)
(0.272011 0.0220404 1.30684e-19)
(0.360179 0.0342505 1.69536e-20)
(0.456633 0.0496544 1.58279e-19)
(0.558628 0.0679344 -3.20877e-19)
(0.662823 0.0884603 -8.99961e-20)
(0.7655 0.110326 -3.82404e-20)
(0.862914 0.132442 2.25836e-19)
(0.951706 0.153668 -1.48802e-19)
(-0.000271952 0.000661423 -3.74937e-20)
(0.014174 -0.000138212 -2.32641e-20)
(0.0438328 0.000453147 -6.00331e-20)
(0.0879081 0.00249604 1.9462e-19)
(0.145847 0.00679562 1.30986e-19)
(0.216831 0.0139784 -4.11157e-20)
(0.299628 0.024436 -6.97823e-21)
(0.392449 0.0383211 1.61412e-19)
(0.492835 0.0554888 -2.45496e-19)
(0.597653 0.075464 1.49025e-19)
(0.703229 0.0974504 1.52102e-19)
(0.805637 0.120394 4.06176e-20)
(0.901109 0.143102 -8.01345e-20)
(0.986476 0.164401 1.16492e-19)
(1.05953 0.183294 9.53346e-20)
(0.00119521 0.000161062 -5.9188e-20)
(0.0191505 -0.00124686 2.58387e-20)
(0.0529183 -0.000681752 1.69294e-19)
(0.101594 0.00180568 2.65499e-21)
(0.164484 0.00698846 -2.83182e-19)
(0.240563 0.0154403 -1.94255e-19)
(0.328317 0.027469 -1.64675e-19)
(0.425605 0.0431104 -8.59298e-20)
(0.529577 0.0620705 3.25937e-19)
(0.636718 0.0837034 -1.44328e-20)
(0.743059 0.107044 4.38024e-20)
(0.844535 0.130899 7.1272e-20)
(0.937446 0.153997 -2.3645e-19)
(1.01889 0.175163 -1.88086e-19)
(1.0871 0.19347 5.00511e-20)
(1.14151 0.208334 -9.35906e-21)
(1.18269 0.219576 -1.94442e-19)
(0.00281795 -0.000326454 7.4934e-20)
(0.0245626 -0.00228005 9.62163e-20)
(0.0626855 -0.00164131 -1.7586e-19)
(0.116164 0.00141369 -9.67218e-21)
(0.18414 0.00761379 3.35298e-19)
(0.265355 0.017465 2.07867e-19)
(0.35798 0.0311727 -8.38952e-20)
(0.4595 0.0486366 1.22922e-19)
(0.566662 0.0693959 -1.2961e-19)
(0.675591 0.0926238 -1.30879e-19)
(0.782069 0.117187 1.33251e-19)
(0.881973 0.141772 -2.67333e-19)
(0.971758 0.165056 3.31291e-20)
(1.04888 0.185891 1.27013e-19)
(1.11203 0.203449 -6.92091e-20)
(1.16118 0.217288 9.7975e-20)
(1.19735 0.227378 -1.1775e-19)
(1.2223 0.233905 1.89879e-20)
(0.00460219 -0.000794342 8.84777e-20)
(0.0304205 -0.00321825 -2.9219e-19)
(0.073141 -0.00239531 4.65641e-20)
(0.13161 0.00135799 -4.88273e-20)
(0.204784 0.00871288 -1.1762e-19)
(0.29114 0.0200909 -9.50454e-20)
(0.388509 0.0355757 8.41495e-20)
(0.493976 0.054911 -3.85737e-19)
(0.603889 0.0774533 -9.04781e-20)
(0.714041 0.102189 5.70588e-20)
(0.82003 0.127825 -7.24378e-20)
(0.917759 0.152946 2.07981e-19)
(1.00392 0.176209 1.45148e-19)
(1.0764 0.196528 5.03594e-20)
(1.1344 0.213195 2.74861e-19)
(1.17837 0.225925 -2.68771e-19)
(1.20977 0.234834 1.64188e-19)
(1.23063 0.240245 2.28195e-19)
(1.24326 0.243023 -1.60284e-19)
(1.24969 0.24262 4.47192e-20)
(0.00655321 -0.00123526 7.30868e-21)
(0.0367322 -0.00404075 -3.0254e-21)
(0.0842864 -0.00291247 2.14277e-19)
(0.147919 0.00167692 -3.12e-20)
(0.226377 0.010326 -1.27648e-20)
(0.317844 0.0233538 2.25711e-19)
(0.419781 0.0407018 2.58924e-19)
(0.528865 0.0619382 6.94157e-20)
(0.641053 0.086224 1.5016e-19)
(0.751846 0.112357 -9.90402e-20)
(0.856735 0.138897 -8.30843e-20)
(0.951732 0.164353 -1.16143e-21)
(1.03386 0.187396 -1.00573e-19)
(1.10146 0.207027 -3.64835e-21)
(1.15428 0.222685 -1.9379e-19)
(1.19324 0.234244 7.54303e-20)
(1.22015 0.241963 1.74524e-19)
(1.23727 0.246287 -8.68307e-20)
(1.24698 0.248108 9.87749e-20)
(1.25128 0.247024 1.73565e-19)
(0.00867548 -0.00164134 2.80326e-20)
(0.0435028 -0.00472583 -7.61875e-20)
(0.0961188 -0.00316066 -4.44851e-21)
(0.16507 0.00240877 1.50854e-21)
(0.248869 0.0124921 -1.50424e-19)
(0.345377 0.027286 -2.08697e-20)
(0.451664 0.046569 -2.677e-19)
(0.563992 0.0697159 2.77773e-19)
(0.677949 0.095682 1.42839e-19)
(0.788799 0.12308 1.21084e-20)
(0.892002 0.150341 -1.40424e-21)
(0.983769 0.17593 -7.2838e-20)
(1.06152 0.198561 4.32865e-20)
(1.12411 0.217354 1.16692e-19)
(1.17179 0.231905 -2.01072e-19)
(1.20595 0.242252 1.51567e-19)
(1.2287 0.248788 -1.7982e-19)
(1.24244 0.252065 -7.90487e-21)
(1.24957 0.252988 3.33259e-22)
(1.25204 0.25127 7.75507e-20)
(0.0109727 -0.00200423 -6.07763e-20)
(0.0507347 -0.00525093 -6.99313e-20)
(0.10863 -0.00310727 9.86123e-20)
(0.183034 0.00359133 -4.40255e-20)
(0.2722 0.0152476 -1.3917e-20)
(0.373641 0.0319155 -1.33136e-19)
(0.484019 0.0531896 1.4844e-19)
(0.599181 0.0782347 -2.64607e-19)
(0.714378 0.105795 2.49814e-20)
(0.824706 0.134308 4.03591e-20)
(0.925675 0.162098 -2.1957e-20)
(1.01378 0.187618 1.60697e-20)
(1.08689 0.209658 -1.80723e-19)
(1.1444 0.227481 -1.36405e-19)
(1.18707 0.24085 1.13916e-19)
(1.21668 0.249964 -3.62439e-20)
(1.23559 0.255338 -2.13619e-19)
(1.24631 0.257614 -3.93356e-20)
(1.25119 0.257696 -1.72184e-19)
(1.2521 0.255393 -2.0955e-19)
(0.0134474 -0.00231513 -1.45979e-20)
(0.0584271 -0.00559281 1.02533e-19)
(0.121806 -0.00271951 7.5049e-20)
(0.201776 0.00526143 2.1728e-19)
(0.296302 0.0186266 -8.10262e-21)
(0.402529 0.0372659 1.14175e-19)
(0.516697 0.0605695 -2.42482e-19)
(0.634251 0.0874791 8.44855e-20)
(0.750152 0.116527 -7.07517e-20)
(0.859393 0.145987 1.02626e-19)
(0.957624 0.174108 2.48723e-20)
(1.0417 0.199363 5.93893e-20)
(1.10999 0.22065 1.68209e-19)
(1.16243 0.23739 2.05996e-20)
(1.20026 0.249522 -1.02555e-19)
(1.2256 0.257397 1.67566e-19)
(1.24101 0.261642 5.76816e-20)
(1.24905 0.262967 -2.703e-20)
(1.25199 0.262264 1.61889e-19)
(1.25158 0.259423 1.05357e-19)
(0.0161012 -0.00256487 4.80512e-20)
(0.0665758 -0.00572779 5.38076e-20)
(0.135628 -0.00196475 -1.32275e-19)
(0.221249 0.00745441 -2.97394e-20)
(0.321098 0.0226599 3.8811e-20)
(0.431925 0.0433558 -2.28667e-20)
(0.549546 0.0687089 1.37647e-19)
(0.669027 0.097427 -4.38726e-20)
(0.78509 0.127834 -5.33199e-20)
(0.892708 0.158063 -1.81441e-19)
(0.987751 0.186315 -1.15904e-19)
(1.0675 0.211119 -1.05471e-19)
(1.13086 0.231505 -8.56652e-20)
(1.1783 0.247071 3.25894e-20)
(1.21151 0.257928 -6.25898e-20)
(1.23289 0.264574 7.64994e-21)
(1.24514 0.267727 1.15933e-19)
(1.2508 0.268154 1.20826e-19)
(1.25207 0.266722 8.0295e-21)
(1.25055 0.263385 7.25247e-20)
(0.0189346 -0.00274398 2.51421e-20)
(0.0751733 -0.00563191 9.26993e-20)
(0.15007 -0.000810956 7.27133e-20)
(0.241405 0.0102037 -1.20326e-19)
(0.346503 0.0273748 1.11649e-19)
(0.461707 0.0501985 -3.62692e-20)
(0.582411 0.0776013 -7.64881e-20)
(0.703336 0.108051 1.82773e-19)
(0.819027 0.139673 -4.59974e-20)
(0.924518 0.170482 -2.181e-21)
(1.01598 0.198667 1.23892e-19)
(1.09118 0.222844 -1.11617e-19)
(1.14957 0.242201 4.79333e-20)
(1.19214 0.256519 -1.21076e-19)
(1.22097 0.266082 2.00942e-19)
(1.2387 0.271518 -1.50504e-19)
(1.24811 0.273625 -8.90849e-20)
(1.2517 0.273205 -9.26246e-22)
(1.25154 0.271093 -1.26085e-19)
(1.2491 0.267299 -1.7175e-21)
(0.0219467 -0.00284276 -1.12475e-19)
(0.0842085 -0.00528126 -4.05e-20)
(0.165103 0.000772997 -1.36336e-19)
(0.262183 0.0135404 -7.55667e-20)
(0.372422 0.0327942 -3.82174e-20)
(0.491746 0.0578018 -1.87137e-20)
(0.615137 0.0872346 8.43922e-20)
(0.737013 0.119319 -4.59346e-20)
(0.851813 0.151996 -2.26571e-20)
(0.954715 0.183191 5.63517e-20)
(1.04227 0.211116 -7.66966e-20)
(1.11276 0.234505 9.68168e-20)
(1.1662 0.252721 9.25969e-20)
(1.20408 0.265736 2.05019e-20)
(1.2288 0.273999 -5.69875e-20)
(1.24319 0.278254 -1.31701e-20)
(1.25007 0.279362 -7.63245e-20)
(1.25186 0.278146 -3.17229e-20)
(1.25048 0.2754 5.19175e-20)
(1.24727 0.271184 -8.49856e-20)
(0.0251355 -0.00285137 3.76511e-20)
(0.0936664 -0.00465217 -6.32674e-20)
(0.18069 0.0028169 1.07435e-19)
(0.283519 0.0174926 4.97455e-20)
(0.398758 0.0389367 -7.20086e-20)
(0.521911 0.0661678 8.88546e-20)
(0.647571 0.0975909 2.20139e-20)
(0.769903 0.131194 -3.94234e-20)
(0.883316 0.164753 1.06987e-19)
(0.983214 0.196138 3.14678e-20)
(1.06659 0.223618 5.99103e-20)
(1.13227 0.246071 -6.17991e-20)
(1.18085 0.263054 -4.08018e-20)
(1.21423 0.274728 8.49528e-20)
(1.23513 0.281697 -2.43119e-20)
(1.2465 0.284806 1.35773e-19)
(1.25113 0.284962 7.06586e-20)
(1.25136 0.283 -1.1108e-20)
(1.24896 0.279659 3.71768e-20)
(1.24512 0.27505 1.38611e-19)
(0.0284974 -0.00275992 -1.85747e-20)
(0.103528 -0.00372149 1.05038e-20)
(0.196789 0.00534884 -9.91923e-20)
(0.30534 0.0220853 6.33124e-20)
(0.425406 0.0458161 5.87876e-20)
(0.552068 0.0752931 -8.40397e-20)
(0.679563 0.108647 3.90378e-20)
(0.801861 0.143636 -7.59445e-20)
(0.91342 0.177897 -1.07932e-19)
(1.00995 0.209276 3.88858e-20)
(1.08894 0.236135 7.29749e-21)
(1.14979 0.257522 5.95752e-20)
(1.19361 0.273196 3.96813e-20)
(1.22273 0.283505 -2.70735e-20)
(1.2401 0.289195 -5.5389e-21)
(1.24874 0.291198 -2.07419e-20)
(1.2514 0.290451 -1.05392e-19)
(1.2503 0.287785 9.07049e-21)
(1.24703 0.283886 -6.66072e-20)
(1.24267 0.27891 4.92342e-22)
(0.0320276 -0.00255857 -2.12788e-20)
(0.113772 -0.00246688 -2.7084e-20)
(0.213353 0.00839481 1.05133e-19)
(0.327569 0.0273397 -1.28015e-20)
(0.452256 0.0534414 3.13048e-22)
(0.582084 0.0851687 -5.78018e-20)
(0.710969 0.120375 -1.00961e-20)
(0.832755 0.156603 4.07086e-20)
(0.94203 0.191377 1.39888e-19)
(1.03488 0.222559 -4.48121e-20)
(1.10933 0.248632 7.56272e-21)
(1.16536 0.268839 2.38519e-20)
(1.2046 0.283144 -4.65763e-20)
(1.22972 0.292077 -2.95928e-20)
(1.24384 0.296513 8.18033e-21)
(1.25004 0.297451 2.69979e-20)
(1.25098 0.295846 6.71062e-20)
(1.24873 0.292517 -1.70213e-21)
(1.24475 0.288091 2.41486e-20)
(1.23997 0.282768 1.59324e-20)
(0.0357198 -0.00223767 3.71448e-20)
(0.124372 -0.000867074 7.6198e-20)
(0.230329 0.0119784 5.26895e-20)
(0.350124 0.0332733 -2.86755e-20)
(0.479196 0.0618162 1.06365e-19)
(0.611825 0.0957801 6.29072e-20)
(0.741653 0.132743 -9.45927e-20)
(0.862466 0.170049 -3.30831e-20)
(0.969067 0.205146 6.1276e-22)
(1.05798 0.235944 -2.75197e-20)
(1.1278 0.261082 -7.85301e-20)
(1.17908 0.280008 1.31329e-20)
(1.21392 0.2929 1.52393e-22)
(1.23529 0.300458 -7.95598e-20)
(1.24646 0.303668 3.59673e-20)
(1.25049 0.303585 -1.91193e-20)
(1.24993 0.301167 -8.20256e-20)
(1.24672 0.29721 3.9047e-20)
(1.24215 0.292283 -7.9933e-20)
(1.23702 0.28663 -4.69166e-20)
(0.0395661 -0.0017878 -1.29674e-20)
(0.135298 0.00109787 -3.25605e-20)
(0.247662 0.0161204 -5.46596e-20)
(0.372918 0.0398991 -2.62981e-21)
(0.506113 0.0709391 -4.58362e-21)
(0.641162 0.107108 -5.99943e-20)
(0.771485 0.145714 1.3423e-20)
(0.890892 0.183929 1.27611e-20)
(0.994468 0.219156 -2.68292e-20)
(1.07924 0.249392 2.18062e-21)
(1.14439 0.273458 4.15959e-20)
(1.19103 0.291022 -5.41002e-21)
(1.22168 0.302469 3.08192e-20)
(1.23959 0.308661 1.36398e-20)
(1.24808 0.31068 -7.34777e-20)
(1.25018 0.309617 5.78908e-21)
(1.24833 0.306426 4.36582e-20)
(1.24431 0.301874 -1.00148e-20)
(1.23925 0.296468 2.33713e-21)
(1.23384 0.290498 -6.32387e-21)
(0.0435574 -0.00119995 -1.20232e-20)
(0.146517 0.00344629 -1.17732e-20)
(0.265289 0.0208384 -2.08615e-20)
(0.39586 0.0472259 -1.37316e-20)
(0.532893 0.0808032 -3.55952e-20)
(0.669968 0.119128 4.16594e-20)
(0.800348 0.15925 8.26306e-20)
(0.91794 0.198196 2.88069e-20)
(1.01819 0.233363 1.46681e-20)
(1.09866 0.262869 -3.51054e-20)
(1.15915 0.28574 -3.50038e-22)
(1.20129 0.301873 2.23074e-20)
(1.228 0.311857 -2.83776e-20)
(1.2427 0.316699 1.03862e-20)
(1.24878 0.317562 3.51561e-20)
(1.2492 0.315562 -1.18033e-20)
(1.24624 0.311636 -2.06282e-20)
(1.24153 0.306515 -1.85949e-20)
(1.23608 0.300648 6.37298e-20)
(1.23045 0.294371 2.16157e-20)
(0.0476832 -0.000465605 -2.17752e-20)
(0.157994 0.00619464 2.62756e-20)
(0.283147 0.0261469 -6.06696e-21)
(0.418858 0.0552575 1.87304e-20)
(0.559421 0.091397 -1.67781e-20)
(0.698122 0.131811 -1.02971e-20)
(0.828134 0.173309 -4.04458e-20)
(0.943537 0.212803 4.80451e-21)
(1.0402 0.247723 1.13932e-20)
(1.11628 0.276342 2.52818e-20)
(1.17215 0.29791 -9.81487e-21)
(1.20996 0.312558 -7.70044e-21)
(1.23296 0.32107 6.85094e-21)
(1.24472 0.324585 -1.18743e-20)
(1.24865 0.324331 2.67331e-20)
(1.24759 0.321433 1.74025e-20)
(1.24369 0.316805 -2.83943e-21)
(1.23842 0.311138 -1.82547e-21)
(1.23266 0.304826 -1.72616e-20)
(1.22684 0.298249 -2.07548e-20)
(0.0519313 0.000423174 4.71529e-21)
(0.169688 0.00935732 -8.26211e-21)
(0.301166 0.0320567 5.60562e-21)
(0.441817 0.0639934 -7.73795e-21)
(0.585584 0.102703 -2.97608e-20)
(0.72551 0.145124 1.3789e-20)
(0.854745 0.187846 6.5967e-21)
(0.96762 0.227704 -3.17641e-20)
(1.06049 0.262196 -1.99109e-20)
(1.13211 0.289783 -1.88486e-21)
(1.18345 0.309953 -2.72575e-20)
(1.21713 0.323075 2.78384e-20)
(1.23666 0.330116 -1.19386e-22)
(1.24576 0.332331 -3.61725e-21)
(1.24777 0.330997 -6.84261e-21)
(1.24543 0.327239 3.22167e-21)
(1.24073 0.321939 2.31384e-21)
(1.235 0.315747 -7.57754e-22)
(1.22899 0.309001 -6.11533e-21)
(1.22304 0.302128 7.18807e-21)
(0.0562885 0.0014736 1.59833e-21)
(0.181558 0.0129464 5.47569e-21)
(0.319278 0.0385746 3.04796e-21)
(0.464643 0.0734281 -1.42352e-21)
(0.611274 0.114701 1.97124e-20)
(0.752024 0.159031 -4.4e-21)
(0.880095 0.202817 6.9594e-21)
(0.990141 0.242851 1.54276e-20)
(1.07905 0.276743 -2.7663e-21)
(1.1462 0.303165 7.04264e-22)
(1.19312 0.321858 7.53043e-21)
(1.22288 0.333424 -3.93998e-21)
(1.23921 0.339002 5.01286e-21)
(1.24588 0.339947 9.24517e-22)
(1.2462 0.337572 -9.08804e-21)
(1.24275 0.332987 4.76691e-22)
(1.23739 0.327042 1.11556e-20)
(1.23129 0.32034 -2.18749e-21)
(1.22509 0.313171 3.23254e-21)
(1.21903 0.306004 -3.49728e-21)
(0.0607407 0.0026921 6.72464e-22)
(0.193561 0.0169715 8.16345e-21)
(0.337408 0.0457037 4.37666e-21)
(0.487239 0.0835515 -9.15882e-22)
(0.636384 0.127364 1.84232e-20)
(0.777566 0.173492 -5.2384e-21)
(0.904111 0.218174 9.70541e-21)
(1.01106 0.258201 1.29725e-20)
(1.09589 0.291327 -2.67141e-21)
(1.15859 0.316464 5.95164e-22)
(1.20125 0.333614 8.53068e-21)
(1.22729 0.343605 -3.43429e-21)
(1.24067 0.347734 3.20014e-21)
(1.24516 0.347442 -7.60555e-22)
(1.24399 0.344062 -7.25133e-21)
(1.2396 0.338683 -1.99853e-22)
(1.23369 0.332116 1.08337e-20)
(1.22729 0.324917 -2.01118e-21)
(1.22096 0.317331 3.67922e-21)
(1.21483 0.309873 -3.73792e-21)
(0.0652721 0.00408422 5.80246e-21)
(0.20565 0.0214396 -1.05283e-20)
(0.355484 0.0534431 5.38919e-21)
(0.509511 0.0943486 -4.32721e-21)
(0.660814 0.140661 -2.92813e-20)
(0.802045 0.188465 1.18601e-20)
(0.926729 0.23387 5.52206e-21)
(1.03036 0.273709 -3.6768e-20)
(1.11103 0.305915 -1.53104e-20)
(1.16933 0.32966 -2.01609e-23)
(1.20789 0.345213 -2.30629e-20)
(1.23046 0.353618 1.88291e-20)
(1.24113 0.356319 -4.07209e-21)
(1.24367 0.354823 2.57683e-21)
(1.24119 0.350473 -9.38575e-21)
(1.236 0.344329 6.97157e-21)
(1.22965 0.33716 4.11835e-21)
(1.22303 0.329475 -8.0323e-22)
(1.2166 0.321478 -7.67681e-21)
(1.21043 0.313728 6.68769e-21)
(0.0698659 0.00565449 -1.26349e-20)
(0.217776 0.0263547 -5.7212e-21)
(0.373431 0.0617877 -8.21317e-21)
(0.531368 0.1058 2.85347e-20)
(0.684468 0.154559 2.27542e-23)
(0.825379 0.203905 -1.50772e-20)
(0.947897 0.249858 -6.09601e-20)
(1.04803 0.289331 5.91178e-21)
(1.12448 0.320475 6.86782e-21)
(1.17849 0.342734 2.98525e-20)
(1.21313 0.356645 4.39868e-21)
(1.23246 0.363464 -2.40007e-20)
(1.24065 0.364761 2.20853e-20)
(1.24146 0.362096 -8.70575e-21)
(1.23786 0.356808 3.1327e-20)
(1.232 0.349926 -2.99166e-21)
(1.22528 0.342172 1.41601e-21)
(1.21851 0.33401 1.2219e-21)
(1.21202 0.325606 -1.9473e-20)
(1.20583 0.317562 -1.10503e-20)
(0.0745046 0.00740639 -4.88833e-21)
(0.229891 0.0317182 -2.75914e-20)
(0.391173 0.0707282 2.16735e-20)
(0.552719 0.117882 -2.75805e-20)
(0.707254 0.169019 -4.96872e-20)
(0.847494 0.219764 4.29442e-20)
(0.967572 0.266088 7.02718e-20)
(1.06405 0.305027 2.49726e-20)
(1.13629 0.334974 1.71908e-20)
(1.18611 0.355666 -4.7962e-20)
(1.21704 0.367905 3.6201e-20)
(1.23335 0.373142 3.97331e-21)
(1.23931 0.373062 -4.30514e-20)
(1.23858 0.369263 1.66405e-20)
(1.23401 0.36307 5.54381e-20)
(1.2276 0.355472 -3.67478e-20)
(1.22061 0.347147 -9.78625e-21)
(1.21373 0.338514 -8.86939e-21)
(1.20723 0.329708 3.94233e-20)
(1.20103 0.321369 2.12641e-20)
(0.0791699 0.00934226 3.30785e-20)
(0.241944 0.0375282 -5.66247e-20)
(0.408637 0.0802512 -8.19379e-20)
(0.573477 0.130566 3.65268e-21)
(0.72909 0.184 -1.50395e-20)
(0.868327 0.235994 -5.91965e-20)
(0.985724 0.282513 -9.63739e-21)
(1.07844 0.320755 3.00304e-20)
(1.14649 0.349386 -4.72308e-20)
(1.19226 0.368441 3.81284e-20)
(1.21967 0.378986 4.29254e-20)
(1.23321 0.382653 -2.65435e-20)
(1.23716 0.381225 1.08037e-20)
(1.23508 0.376325 5.08406e-20)
(1.22969 0.369257 -6.59269e-20)
(1.22283 0.360965 1.05564e-20)
(1.21564 0.352082 2.72776e-20)
(1.20869 0.342983 -7.88551e-21)
(1.20221 0.333776 -8.79173e-21)
(1.19604 0.325141 -1.57714e-21)
(0.0838429 0.0114633 4.93721e-20)
(0.253885 0.0437798 9.09981e-20)
(0.425748 0.0903395 4.7922e-20)
(0.593559 0.14382 -5.72922e-20)
(0.749899 0.199458 1.48819e-19)
(0.887822 0.252545 2.29339e-20)
(1.00233 0.299085 -6.21694e-20)
(1.09121 0.336478 -4.43175e-20)
(1.15512 0.363682 -3.46684e-20)
(1.19699 0.381043 1.18346e-20)
(1.22111 0.38988 -3.78759e-20)
(1.2321 0.391995 8.35451e-22)
(1.23424 0.389251 -2.39243e-20)
(1.231 0.383283 -3.16859e-20)
(1.22492 0.375366 -5.13234e-21)
(1.21771 0.366398 -2.70472e-21)
(1.21037 0.356968 -5.05828e-20)
(1.20341 0.347408 3.52571e-20)
(1.19698 0.337803 -5.00696e-20)
(1.19085 0.328869 -2.66291e-20)
(0.088504 0.0137694 -6.00763e-20)
(0.265663 0.0504653 -2.45617e-20)
(0.442437 0.100972 1.09128e-19)
(0.612886 0.157609 2.73734e-20)
(0.76961 0.215346 -9.38671e-20)
(0.905933 0.269367 -5.39404e-20)
(1.01737 0.315758 -1.7621e-20)
(1.10237 0.352155 1.14267e-19)
(1.16222 0.377837 8.02283e-20)
(1.20037 0.393457 -2.65029e-20)
(1.22141 0.400581 -1.46916e-20)
(1.23008 0.401165 3.7608e-20)
(1.23061 0.397137 -3.79595e-20)
(1.22636 0.390134 1.73131e-20)
(1.21971 0.381393 6.42691e-21)
(1.21223 0.371767 -8.54866e-21)
(1.20482 0.361798 5.9735e-20)
(1.19788 0.35178 -2.34673e-20)
(1.19152 0.341779 4.35242e-20)
(1.18545 0.332545 -1.24491e-20)
(0.0931337 0.0162593 -3.41084e-20)
(0.277228 0.0575737 -6.23285e-20)
(0.458633 0.112123 -9.81404e-20)
(0.631386 0.171893 5.93758e-20)
(0.788163 0.231615 3.28114e-20)
(0.922623 0.286408 -4.57384e-20)
(1.03085 0.332483 7.54114e-20)
(1.11194 0.367753 -1.14601e-19)
(1.16784 0.391825 -1.19245e-19)
(1.20245 0.405669 7.07037e-20)
(1.22063 0.411082 2.53829e-20)
(1.22719 0.41016 -2.74307e-20)
(1.22631 0.404881 4.15296e-20)
(1.2212 0.396873 3.05012e-20)
(1.21409 0.387333 -2.06193e-20)
(1.20642 0.377063 -6.18171e-21)
(1.19898 0.366564 -4.43428e-20)
(1.19211 0.35609 7.28214e-21)
(1.18585 0.345695 -3.09404e-20)
(1.17986 0.33616 -3.50598e-21)
(0.0977119 0.0189304 2.82918e-20)
(0.28853 0.0650912 -4.92678e-20)
(0.474271 0.123765 8.94336e-20)
(0.648989 0.18663 1.5074e-19)
(0.805501 0.248214 -2.15208e-19)
(0.937861 0.303615 1.88047e-19)
(1.04275 0.349217 4.95948e-20)
(1.11997 0.383233 -7.13489e-20)
(1.17203 0.405623 8.26734e-20)
(1.20329 0.417663 4.69497e-20)
(1.21883 0.421374 5.60002e-20)
(1.22349 0.418974 -9.47286e-20)
(1.22137 0.412479 -1.75884e-20)
(1.21554 0.403496 4.28894e-20)
(1.20808 0.393178 1.59417e-20)
(1.20028 0.382278 6.48311e-20)
(1.19286 0.371256 7.51507e-20)
(1.18608 0.360329 -1.76272e-20)
(1.17996 0.349541 2.65446e-20)
(1.17407 0.339704 2.51559e-20)
(0.102219 0.0217789 -8.52853e-21)
(0.299521 0.0730011 -1.15014e-19)
(0.489286 0.135865 -1.56627e-19)
(0.665632 0.201775 -2.03223e-19)
(0.821576 0.265091 -1.95754e-20)
(0.951626 0.320937 7.3775e-20)
(1.0531 0.365912 -1.37615e-20)
(1.12647 0.398563 2.42421e-20)
(1.17484 0.419207 -3.66627e-20)
(1.20295 0.429426 5.87269e-20)
(1.21605 0.43145 -8.70654e-20)
(1.21902 0.427602 1.08302e-19)
(1.21583 0.419924 5.91823e-20)
(1.2094 0.409995 2.39535e-20)
(1.20167 0.39892 -3.54903e-20)
(1.19382 0.387402 -3.68318e-20)
(1.18646 0.375863 -3.04383e-20)
(1.17982 0.364485 2.0944e-21)
(1.17384 0.353306 2.92656e-20)
(1.16809 0.343168 -2.94028e-20)
(0.106634 0.0247998 -1.47041e-20)
(0.310154 0.0812837 8.93954e-20)
(0.503618 0.148388 1.12308e-19)
(0.681257 0.21728 -1.75888e-20)
(0.836349 0.282192 5.13998e-20)
(0.963903 0.338323 1.3579e-20)
(1.0619 0.382526 -7.43344e-20)
(1.13149 0.413709 5.7788e-20)
(1.17631 0.432555 5.29045e-20)
(1.20147 0.440943 -8.82562e-20)
(1.21235 0.441299 1.37305e-19)
(1.21381 0.436037 -1.07983e-19)
(1.20971 0.427209 5.9567e-20)
(1.20281 0.416362 -8.09726e-20)
(1.1949 0.404549 1.10897e-19)
(1.18705 0.392425 -6.32385e-20)
(1.17979 0.380374 -1.59357e-20)
(1.1733 0.368549 -1.90177e-20)
(1.16751 0.356981 -3.45856e-20)
(1.1619 0.346542 1.87077e-21)
(0.110939 0.0279866 1.05987e-19)
(0.320382 0.0899169 1.12097e-19)
(0.517213 0.161297 -1.61289e-19)
(0.695815 0.233096 -9.77716e-20)
(0.849785 0.299463 1.43917e-19)
(0.974683 0.355719 -5.697e-20)
(1.06917 0.399014 8.2e-20)
(1.13505 0.428638 3.46381e-20)
(1.1765 0.445643 -7.80145e-20)
(1.19891 0.4522 -1.85902e-19)
(1.20778 0.450912 -3.29462e-20)
(1.20792 0.44427 -6.36911e-20)
(1.20304 0.434326 -9.03471e-20)
(1.19577 0.422588 7.04917e-21)
(1.18776 0.410055 -1.05631e-20)
(1.17996 0.397335 -5.8108e-21)
(1.17285 0.384779 4.92307e-20)
(1.16655 0.372508 3.01218e-20)
(1.16096 0.360552 5.79617e-21)
(1.15553 0.349816 1.17126e-20)
(0.115114 0.0313319 -2.55575e-20)
(0.330164 0.098876 1.99036e-19)
(0.530017 0.174551 7.68011e-20)
(0.709259 0.24917 1.5618e-19)
(0.861858 0.316847 5.07596e-20)
(0.983965 0.373074 1.96665e-20)
(1.07494 0.415334 -1.18389e-19)
(1.13721 0.443318 -3.70044e-20)
(1.17546 0.458451 1.90256e-20)
(1.19532 0.463182 1.3719e-19)
(1.20238 0.460278 -4.37809e-20)
(1.20136 0.452291 5.26144e-20)
(1.19585 0.441265 9.97435e-20)
(1.18831 0.428662 2.14822e-20)
(1.18026 0.415426 -1.84834e-20)
(1.17256 0.402121 2.06363e-20)
(1.16563 0.389065 3.14139e-20)
(1.15954 0.37635 8.71049e-21)
(1.15419 0.364008 2.34471e-20)
(1.14897 0.35298 8.98301e-21)
(0.11914 0.0348269 -6.68617e-20)
(0.339458 0.108134 -1.02044e-19)
(0.541983 0.188106 6.48447e-20)
(0.721549 0.265449 2.17786e-20)
(0.872548 0.334291 4.23435e-20)
(0.991754 0.390338 -1.72876e-19)
(1.07922 0.431445 6.14812e-20)
(1.13801 0.457719 -1.29127e-19)
(1.17322 0.470956 -6.91561e-20)
(1.19074 0.473873 7.71976e-20)
(1.19618 0.469385 -8.73612e-21)
(1.19417 0.460091 4.08432e-21)
(1.18816 0.448016 -1.19151e-19)
(1.18044 0.434572 -4.39805e-20)
(1.17242 0.42065 2.88108e-20)
(1.16487 0.40677 -4.84886e-20)
(1.15813 0.39322 -2.30718e-20)
(1.1523 0.380063 -2.21483e-20)
(1.14721 0.367331 -2.38833e-20)
(1.14221 0.356024 -2.70818e-20)
(0.122999 0.0384619 3.88683e-20)
(0.348225 0.117661 -4.83903e-20)
(0.553068 0.201918 -2.61818e-19)
(0.732653 0.28188 1.41147e-19)
(0.881841 0.351737 -1.73438e-19)
(0.998058 0.40746 -2.40031e-20)
(1.08205 0.447305 -2.30319e-19)
(1.13748 0.471809 2.38168e-19)
(1.16985 0.483137 1.31669e-19)
(1.18522 0.484258 -8.70529e-21)
(1.18922 0.47822 4.1601e-20)
(1.18638 0.467657 -4.99987e-20)
(1.17998 0.454565 -3.20768e-21)
(1.17217 0.440306 2.19047e-20)
(1.16423 0.425715 -1.90987e-20)
(1.15687 0.411271 2.69578e-20)
(1.15037 0.397232 -2.69954e-20)
(1.14481 0.383634 -2.065e-20)
(1.14 0.37051 1.06173e-20)
(1.13519 0.358937 7.25473e-21)
(0.126675 0.042226 8.87591e-20)
(0.356429 0.127426 8.83044e-20)
(0.563234 0.21594 6.82097e-20)
(0.742543 0.298407 -1.841e-21)
(0.88973 0.36913 -4.44596e-20)
(1.00289 0.424391 2.99531e-19)
(1.08346 0.462875 1.67727e-19)
(1.13567 0.48556 1.09363e-19)
(1.16538 0.494972 1.49109e-19)
(1.17881 0.494321 1.58583e-20)
(1.18154 0.486771 -1.12117e-19)
(1.17801 0.474977 -8.76226e-21)
(1.17133 0.460902 -1.91654e-20)
(1.16351 0.445851 -5.76661e-20)
(1.15571 0.430608 -1.66264e-20)
(1.14857 0.415611 -2.38e-20)
(1.14235 0.401092 5.92929e-20)
(1.13707 0.387058 1.10595e-21)
(1.13255 0.373557 2.42727e-21)
(1.12785 0.361697 -2.41936e-21)
(0.130151 0.0461073 -2.95004e-20)
(0.364039 0.137397 -5.1398e-20)
(0.572448 0.230123 -1.12756e-19)
(0.751197 0.314974 -1.91888e-20)
(0.896212 0.386416 -1.82675e-19)
(1.00627 0.441082 -1.29791e-19)
(1.08349 0.478116 4.23594e-20)
(1.13263 0.498942 -2.9544e-19)
(1.15986 0.506441 -1.54403e-19)
(1.17153 0.504046 3.56646e-20)
(1.17318 0.495023 -1.36311e-20)
(1.16909 0.482037 9.26304e-20)
(1.16223 0.467011 1.12555e-19)
(1.15447 0.451193 2.58726e-20)
(1.14687 0.435315 5.73882e-20)
(1.13999 0.419776 -2.21977e-20)
(1.13406 0.404785 1.54667e-20)
(1.1291 0.390333 5.72433e-21)
(1.12487 0.376511 -3.02857e-21)
(1.12039 0.364306 1.48945e-20)
(0.133412 0.0500931 4.41221e-20)
(0.371024 0.147538 -5.20777e-21)
(0.58068 0.244418 -1.73341e-19)
(0.7586 0.331524 -6.47848e-22)
(0.901292 0.403538 4.11261e-19)
(1.00823 0.457486 8.0673e-20)
(1.08218 0.492991 5.95486e-20)
(1.12839 0.511928 1.68586e-19)
(1.15334 0.517522 -1.31999e-19)
(1.16344 0.513416 -1.33627e-19)
(1.16416 0.502962 2.26134e-21)
(1.15964 0.488824 -7.57915e-20)
(1.15271 0.47288 -3.86547e-20)
(1.14507 0.456319 8.93691e-20)
(1.13771 0.439822 -2.17239e-20)
(1.13112 0.423753 6.28312e-21)
(1.12551 0.408299 -1.33051e-20)
(1.1209 0.393434 -3.95791e-22)
(1.11701 0.379293 -5.74903e-21)
(1.11286 0.366794 -2.96484e-20)
(0.136443 0.0541697 -2.1441e-19)
(0.377358 0.157814 1.34165e-19)
(0.587906 0.258775 2.97181e-19)
(0.764741 0.348002 9.18806e-20)
(0.904977 0.420442 -4.82003e-19)
(1.00878 0.473555 -1.95947e-19)
(1.07955 0.507461 -1.48508e-19)
(1.12301 0.524488 -5.22035e-20)
(1.14586 0.528194 1.67659e-19)
(1.15456 0.522414 1.94377e-20)
(1.15451 0.510573 -2.59463e-20)
(1.14969 0.495323 5.66098e-20)
(1.14276 0.478494 6.33233e-21)
(1.13531 0.461213 -1.00042e-19)
(1.12824 0.444115 1.81292e-20)
(1.12198 0.427528 1.68877e-20)
(1.11671 0.411619 -1.68805e-21)
(1.11247 0.39635 -2.31981e-21)
(1.10893 0.381889 2.54918e-20)
(1.10515 0.369107 2.18822e-20)
(0.139232 0.0583229 -1.42227e-20)
(0.383017 0.168187 6.74007e-20)
(0.594108 0.273141 3.26067e-20)
(0.769616 0.364351 9.72194e-20)
(0.907281 0.437076 2.68242e-19)
(1.00796 0.489245 -1.69875e-19)
(1.07567 0.521493 -7.32926e-21)
(1.11653 0.536597 1.53344e-19)
(1.13746 0.538436 -1.74379e-19)
(1.14494 0.531023 5.4242e-20)
(1.14426 0.517839 1.24903e-19)
(1.13925 0.501519 2.65811e-20)
(1.13241 0.483837 -4.02253e-20)
(1.12521 0.465862 6.04236e-20)
(1.11846 0.448179 -4.89101e-20)
(1.11256 0.431087 -7.68695e-21)
(1.10767 0.414733 -2.83891e-21)
(1.10381 0.399069 -2.21222e-20)
(1.10067 0.384291 -2.32084e-20)
(1.09725 0.371237 -3.9019e-20)
(0.141767 0.0625376 2.7764e-20)
(0.387983 0.17862 1.06551e-19)
(0.599271 0.287467 1.05117e-19)
(0.773224 0.380515 -6.78146e-20)
(0.908222 0.453388 5.18154e-21)
(1.00581 0.504512 1.57588e-19)
(1.07056 0.53505 2.68475e-19)
(1.10899 0.548227 -2.8977e-20)
(1.12819 0.548227 2.48993e-20)
(1.13462 0.539225 -6.2019e-20)
(1.13344 0.524746 -1.21391e-19)
(1.12835 0.507397 1.77732e-20)
(1.12167 0.488894 5.03675e-20)
(1.11478 0.470249 -9.28013e-21)
(1.10839 0.452 7.86456e-21)
(1.10287 0.434417 -5.14344e-21)
(1.09838 0.417629 4.11943e-21)
(1.09493 0.401577 6.51532e-22)
(1.0922 0.386491 7.90885e-21)
(1.08916 0.373175 5.24096e-20)