/*--------------------------------*- C++ -*----------------------------------*\
  =========                 |
  \\      /  F ield         | OpenFOAM: The Open Source CFD Toolbox
   \\    /   O peration     | Website:  https://openfoam.org
    \\  /    A nd           | Version:  7
     \\/     M anipulation  |
\*---------------------------------------------------------------------------*/
FoamFile
{
    version     2.0;
    format      ascii;
    class       volVectorField;
    location    "65";
    object      U;
}
// * * * * * * * * * * * * * * * * * * * * * * * * * * * * * * * * * * * * * //

dimensions      [0 1 -1 0 0 0 0];

internalField   nonuniform List<vector> 
8500
(
(-0.0089101 0.00687031 9.23764e-20)
(-0.00880513 0.00654528 7.7838e-20)
(-0.0180292 0.0148537 -1.02685e-19)
(-0.00863517 0.00619151 4.9193e-19)
(-0.016903 0.0137843 -2.91884e-19)
(-0.0161954 0.0184612 -1.58965e-21)
(-0.00839244 0.00580857 -2.56003e-19)
(-0.0155355 0.012653 2.22344e-21)
(-0.0130417 0.0167465 2.11329e-19)
(-0.00806889 0.00539651 -9.01657e-20)
(-0.0139052 0.0114624 5.35444e-20)
(-0.00941966 0.0149773 7.82445e-20)
(0.00524969 0.0165849 -2.30693e-19)
(-0.00765631 0.0049559 4.62718e-19)
(-0.0119902 0.0102163 -1.16781e-19)
(-0.00529665 0.0131629 -1.69112e-19)
(0.0122306 0.014419 8.70852e-20)
(0.0406542 0.0148533 4.11611e-19)
(-0.00714633 0.00448786 -2.08368e-19)
(-0.0097685 0.00892025 3.16375e-20)
(-0.000640526 0.0113149 -2.3592e-19)
(0.0199836 0.012266 -3.32731e-19)
(0.052129 0.012666 -1.42996e-19)
(0.0958089 0.013294 -7.99817e-20)
(-0.0065305 0.00399411 -2.03917e-19)
(-0.00721829 0.00758119 4.49557e-19)
(0.00458009 0.00944719 2.80353e-19)
(0.028545 0.010148 1.25418e-19)
(0.064655 0.0105956 -4.5361e-20)
(0.112853 0.0115814 -2.97146e-19)
(0.172966 0.0137675 4.14337e-20)
(-0.00580034 0.00347697 3.63174e-20)
(-0.00431804 0.00620783 -6.76449e-20)
(0.0103953 0.00757616 4.99361e-20)
(0.0379487 0.00808983 -1.20583e-19)
(0.0782625 0.00867564 2.55635e-19)
(0.131192 0.0101317 4.62727e-19)
(0.196426 0.0131123 1.43323e-19)
(0.273357 0.0181397 8.99177e-20)
(-0.00494738 0.00293937 -1.22681e-19)
(-0.00104677 0.00481052 -2.8571e-19)
(0.0168336 0.00572066 -2.16678e-19)
(0.0482248 0.00611925 6.7567e-20)
(0.0929759 0.00694249 -3.65151e-19)
(0.150833 0.00898824 -4.5466e-19)
(0.221319 0.0128937 -6.09143e-20)
(0.303588 0.0191439 -1.41642e-19)
(0.396254 0.0280293 -1.4235e-20)
(-0.00396325 0.00238489 -9.49242e-20)
(0.00261578 0.00340131 -7.42346e-20)
(0.0239217 0.00390195 3.3339e-19)
(0.0593999 0.00426682 -2.06344e-19)
(0.108813 0.00543513 5.32941e-19)
(0.171775 0.00819637 2.24638e-19)
(0.24761 0.0131595 -1.47726e-19)
(0.335194 0.0207576 -2.53018e-19)
(0.432787 0.0311983 -4.03647e-19)
(0.537915 0.044419 4.28591e-19)
(-0.00283972 0.00181776 1.86737e-19)
(0.00668886 0.00199394 3.04095e-19)
(0.0316835 0.00214364 1.24719e-20)
(0.0714956 0.00256572 1.89329e-19)
(0.125784 0.0041949 -4.57922e-19)
(0.194003 0.00780269 1.10858e-19)
(0.275246 0.0139569 -7.2576e-20)
(0.368074 0.0230223 -1.43444e-20)
(0.470354 0.0351046 -1.38002e-19)
(0.579178 0.0500065 -3.03166e-19)
(0.690921 0.0672097 1.50057e-19)
(-0.00156881 0.00124284 -3.35664e-20)
(0.0111905 0.000603791 -4.59681e-19)
(0.0401404 0.000471604 -3.54225e-19)
(0.0845287 0.00105147 -2.26229e-20)
(0.14389 0.00326496 8.03638e-20)
(0.217493 0.00785442 -1.55403e-19)
(0.304162 0.0153317 -1.02711e-21)
(0.402106 0.0259752 5.16469e-20)
(0.508771 0.0397688 7.62674e-20)
(0.620806 0.0563627 4.32004e-19)
(0.734192 0.0750718 1.79201e-19)
(0.844564 0.0949296 1.09699e-19)
(0.947678 0.114802 -1.46603e-19)
(-0.000142824 0.000665632 5.99727e-20)
(0.0161372 -0.000752125 2.43995e-19)
(0.0493104 -0.00108621 1.52226e-19)
(0.0985099 -0.000238347 -2.80325e-19)
(0.163125 0.00268988 6.01172e-20)
(0.242206 0.00839873 3.66124e-19)
(0.334275 0.0173275 2.00331e-19)
(0.437151 0.0296484 2.64848e-20)
(0.547839 0.0452037 2.44958e-19)
(0.662545 0.0634755 -4.98926e-19)
(0.7769 0.0836055 -1.40471e-19)
(0.886361 0.104481 -6.00368e-20)
(0.986743 0.124877 3.556e-19)
(1.07474 0.143635 -2.35582e-19)
(0.00144551 9.2299e-05 -5.59418e-20)
(0.0215437 -0.00205527 -3.47129e-20)
(0.0592077 -0.00249992 -8.97016e-20)
(0.113444 -0.00126442 2.93943e-19)
(0.183472 0.00251503 1.97423e-19)
(0.268093 0.00948192 -6.28591e-20)
(0.365487 0.0199845 -1.10348e-20)
(0.473057 0.0340684 2.48002e-19)
(0.587347 0.0514146 -3.78143e-19)
(0.704143 0.071324 2.31177e-19)
(0.818777 0.0927646 2.3701e-19)
(0.926618 0.11449 6.33349e-20)
(1.02364 0.135213 -1.26328e-19)
(1.10694 0.153794 1.8409e-19)
(1.17498 0.16939 1.51801e-19)
(0.00320299 -0.000470385 -8.73751e-20)
(0.0274228 -0.00328564 3.84164e-20)
(0.0698423 -0.00373794 2.52955e-19)
(0.129328 -0.00198612 4.13436e-21)
(0.204904 0.002786 -4.27185e-19)
(0.295088 0.0111487 -2.93659e-19)
(0.397686 0.0233392 -2.50727e-19)
(0.509655 0.0392552 -1.31666e-19)
(0.627078 0.0583985 5.01047e-19)
(0.745349 0.0798794 -2.23015e-20)
(0.85957 0.102497 6.78691e-20)
(0.965121 0.124892 1.11034e-19)
(1.05824 0.145744 -3.70658e-19)
(1.13648 0.163962 -2.96731e-19)
(1.1989 0.178819 7.94638e-20)
(1.24597 0.189996 -1.5328e-20)
(1.27931 0.197585 -3.1452e-19)
(0.00513577 -0.00101503 1.10976e-19)
(0.0337847 -0.00442189 1.41935e-19)
(0.0812195 -0.00476727 -2.61902e-19)
(0.146152 -0.00236196 -1.43206e-20)
(0.227384 0.00354797 5.03065e-19)
(0.323117 0.0134413 3.14326e-19)
(0.430747 0.0274232 -1.26704e-19)
(0.546768 0.045222 1.86598e-19)
(0.666811 0.0661443 -1.98872e-19)
(0.785921 0.0891059 -2.01278e-19)
(0.899053 0.112747 2.05597e-19)
(1.00169 0.135621 -4.15319e-19)
(1.09044 0.156405 5.2369e-20)
(1.16337 0.174091 2.00312e-19)
(1.22014 0.188086 -1.09558e-19)
(1.26175 0.198228 1.56788e-19)
(1.29021 0.204748 -1.89418e-19)
(1.308 0.208011 3.12768e-20)
(0.00724934 -0.00153366 1.3038e-19)
(0.0406373 -0.00544146 -4.31582e-19)
(0.0933399 -0.00555373 6.91589e-20)
(0.163899 -0.00235003 -7.23984e-20)
(0.250865 0.00484506 -1.77006e-19)
(0.352089 0.0163991 -1.42321e-19)
(0.464531 0.0322626 1.27443e-19)
(0.58421 0.0519746 -5.8516e-19)
(0.706324 0.0746337 -1.37255e-19)
(0.825629 0.0989615 8.81931e-20)
(0.937024 0.123457 -1.11964e-19)
(1.0362 0.146613 3.22164e-19)
(1.1202 0.167141 2.26241e-19)
(1.18766 0.18414 7.87323e-20)
(1.23883 0.197171 4.35016e-19)
(1.27522 0.206231 -4.29405e-19)
(1.29916 0.211681 2.64385e-19)
(1.31331 0.213997 3.73121e-19)
(1.3203 0.214165 -2.65713e-19)
(1.32219 0.211411 7.48023e-20)
(0.00954833 -0.00201774 1.05167e-20)
(0.0479853 -0.00632075 -4.57257e-21)
(0.106199 -0.00606231 3.16061e-19)
(0.182543 -0.0019085 -4.57081e-20)
(0.275289 0.00671969 -1.95279e-20)
(0.381905 0.0200572 3.38131e-19)
(0.498891 0.0378776 3.89056e-19)
(0.62179 0.0595117 1.06138e-19)
(0.745401 0.0838412 2.28844e-19)
(0.864262 0.1094 -1.50844e-19)
(0.973309 0.134567 -1.27833e-19)
(1.06854 0.157809 -2.37439e-21)
(1.14749 0.177902 -1.56695e-19)
(1.20943 0.194079 -5.72843e-21)
(1.25514 0.206064 -3.06124e-19)
(1.28658 0.214012 1.20722e-19)
(1.30637 0.218405 2.8249e-19)
(1.31725 0.21981 -1.42282e-19)
(1.32183 0.219203 1.6352e-19)
(1.32205 0.21594 2.94048e-19)
(0.0120364 -0.00245824 4.04917e-20)
(0.0558306 -0.00703525 -1.11399e-19)
(0.119785 -0.00625751 -6.54364e-21)
(0.20205 -0.000996169 2.83658e-21)
(0.300588 0.00921193 -2.23133e-19)
(0.412453 0.0244467 -3.1489e-20)
(0.53367 0.0442824 -4.01601e-19)
(0.659315 0.0678248 4.17948e-19)
(0.783834 0.0937349 2.15744e-19)
(0.901628 0.120371 1.89674e-20)
(1.00777 0.146019 -2.12433e-21)
(1.09864 0.169153 -1.12672e-19)
(1.17236 0.188646 6.67577e-20)
(1.22876 0.203883 1.82465e-19)
(1.26921 0.21476 -3.1702e-19)
(1.29602 0.221584 2.4137e-19)
(1.31202 0.224943 -2.90789e-19)
(1.32001 0.225478 -1.3046e-20)
(1.3225 0.224146 9.78092e-22)
(1.3213 0.220411 1.31754e-19)
(0.0147163 -0.00284565 -8.83461e-20)
(0.0641713 -0.00755977 -1.01236e-19)
(0.134082 -0.00610369 1.44364e-19)
(0.222379 0.000427076 -6.44042e-20)
(0.326683 0.0123589 -2.03141e-20)
(0.443613 0.0295935 -1.97742e-19)
(0.568707 0.0514842 2.21407e-19)
(0.696594 0.0768986 -3.97147e-19)
(0.821427 0.104278 3.68005e-20)
(0.937559 0.131823 6.12696e-20)
(1.04029 0.157758 -3.36264e-20)
(1.12648 0.180597 2.4202e-20)
(1.19483 0.199339 -2.79354e-19)
(1.2458 0.213539 -2.13172e-19)
(1.28121 0.223264 1.79114e-19)
(1.30373 0.228963 -5.76626e-20)
(1.31631 0.231318 -3.45425e-19)
(1.32174 0.231029 -6.55542e-20)
(1.32243 0.229018 -2.88265e-19)
(1.32004 0.224845 -3.56653e-19)
(0.0175895 -0.00317009 -2.10335e-20)
(0.0730024 -0.00786866 1.49193e-19)
(0.149069 -0.00556547 1.08771e-19)
(0.243478 0.00239969 3.17888e-19)
(0.353489 0.0161943 -1.14833e-20)
(0.475257 0.0355183 1.6935e-19)
(0.603835 0.0594841 -3.59929e-19)
(0.733439 0.0867117 1.26509e-19)
(0.857999 0.115429 -1.06344e-19)
(0.971908 0.143703 1.54476e-19)
(1.07079 0.169729 3.8021e-20)
(1.15205 0.192097 9.04244e-20)
(1.21499 0.209954 2.59568e-19)
(1.26065 0.223037 3.22549e-20)
(1.29131 0.231581 -1.61535e-19)
(1.30987 0.236168 2.67198e-19)
(1.31938 0.237556 9.40749e-20)
(1.32259 0.236486 -4.44705e-20)
(1.32173 0.23384 2.70505e-19)
(1.31835 0.229259 1.79327e-19)
(0.0206562 -0.00342133 6.89938e-20)
(0.0823147 -0.00793604 7.76838e-20)
(0.164715 -0.0046081 -1.9217e-19)
(0.265291 0.00495801 -4.38697e-20)
(0.380909 0.0207478 5.68701e-20)
(0.507249 0.0422359 -3.35081e-20)
(0.638888 0.0682764 2.04125e-19)
(0.769672 0.0972368 -6.50239e-20)
(0.893384 0.127145 -7.98384e-20)
(1.00456 0.155959 -2.72992e-19)
(1.09923 0.181883 -1.74894e-19)
(1.17537 0.203615 -1.61474e-19)
(1.23292 0.220471 -1.31868e-19)
(1.27347 0.232375 5.05856e-20)
(1.29967 0.239724 -9.84937e-20)
(1.31462 0.243219 1.18988e-20)
(1.3214 0.243678 1.87526e-19)
(1.32266 0.241871 1.98952e-19)
(1.3205 0.23863 1.40624e-20)
(1.31629 0.233669 1.24626e-19)
(0.0239154 -0.00358893 3.57018e-20)
(0.0920954 -0.00773606 1.32935e-19)
(0.180987 -0.0031979 1.05126e-19)
(0.287752 0.0081357 -1.74891e-19)
(0.40884 0.0260445 1.62409e-19)
(0.539451 0.0497554 -5.28193e-20)
(0.6737 0.0778494 -1.12566e-19)
(0.805122 0.108442 2.70548e-19)
(0.927436 0.139377 -6.82641e-20)
(1.03541 0.16854 -2.727e-21)
(1.12556 0.194176 1.87472e-19)
(1.19648 0.21512 -1.69237e-19)
(1.24873 0.230876 7.40894e-20)
(1.2844 0.241553 -1.87589e-19)
(1.30644 0.247706 3.16226e-19)
(1.31812 0.250136 -2.39795e-19)
(1.32248 0.249707 -1.44553e-19)
(1.32207 0.247203 -1.58499e-21)
(1.31879 0.243402 -2.1222e-19)
(1.31389 0.238085 -2.72613e-21)
(0.0273645 -0.00366228 -1.60497e-19)
(0.102328 -0.00724317 -5.87909e-20)
(0.197844 -0.00130263 -1.96155e-19)
(0.310787 0.0119634 -1.08801e-19)
(0.437174 0.0321049 -5.58446e-20)
(0.571719 0.0580799 -2.70588e-20)
(0.708109 0.0881854 1.24239e-19)
(0.83963 0.12029 -6.80712e-20)
(0.96003 0.152079 -3.34338e-20)
(1.0644 0.181396 8.4441e-20)
(1.14979 0.206566 -1.15071e-19)
(1.21545 0.226586 1.46908e-19)
(1.26254 0.241157 1.41661e-19)
(1.29357 0.250577 3.17083e-20)
(1.31179 0.255541 -8.98746e-20)
(1.32052 0.256937 -2.11748e-20)
(1.32275 0.255663 -1.23864e-19)
(1.3209 0.2525 -5.26762e-20)
(1.31668 0.248169 8.68804e-20)
(1.31121 0.242515 -1.4801e-19)
(0.0309996 -0.00363073 5.33213e-20)
(0.112991 -0.0064324 -9.05007e-20)
(0.21524 0.00110808 1.54077e-19)
(0.334317 0.0164681 7.19957e-20)
(0.465796 0.0389442 -1.04216e-19)
(0.603911 0.0672065 1.29032e-19)
(0.741958 0.0992613 3.22184e-20)
(0.873052 0.132742 -5.83453e-20)
(0.991057 0.165201 1.57928e-19)
(1.09147 0.194481 4.70727e-20)
(1.17194 0.219017 9.00359e-20)
(1.23236 0.237991 -9.33046e-20)
(1.27445 0.251311 -6.22179e-20)
(1.30113 0.259454 1.31977e-19)
(1.31584 0.263246 -3.79359e-20)
(1.32193 0.263643 2.17056e-19)
(1.3223 0.261561 1.14885e-19)
(1.31921 0.257774 -1.89755e-20)
(1.31421 0.25294 6.30222e-20)
(1.30827 0.246965 2.40643e-19)
(0.0348153 -0.00348369 -2.63846e-20)
(0.12406 -0.00527964 1.48619e-20)
(0.233122 0.00406233 -1.41255e-19)
(0.358258 0.021673 9.08612e-20)
(0.494588 0.0465725 8.50433e-20)
(0.635882 0.0771266 -1.21912e-19)
(0.775099 0.111049 5.67144e-20)
(0.905257 0.145754 -1.10964e-19)
(1.02043 0.178697 -1.5869e-19)
(1.1166 0.207751 5.76585e-20)
(1.19204 0.231497 1.07565e-20)
(1.24729 0.24932 9.02781e-20)
(1.2846 0.261336 6.1085e-20)
(1.30721 0.268195 -4.16816e-20)
(1.31871 0.270835 -8.703e-21)
(1.32245 0.270268 -3.30546e-20)
(1.32121 0.267417 -1.7221e-19)
(1.31707 0.263037 1.44997e-20)
(1.31142 0.257722 -1.14106e-19)
(1.30509 0.251437 8.77109e-22)
(0.0388045 -0.00321075 -2.98635e-20)
(0.135506 -0.00376195 -3.82644e-20)
(0.251432 0.00758561 1.49483e-19)
(0.382519 0.0275969 -1.85006e-20)
(0.523429 0.0549942 6.49335e-22)
(0.667494 0.0878257 -8.32318e-20)
(0.807392 0.123516 -1.46925e-20)
(0.936131 0.159284 5.9514e-20)
(1.04808 0.192518 2.05191e-19)
(1.13977 0.221166 -6.61521e-20)
(1.21014 0.243978 1.1399e-20)
(1.26034 0.260559 3.61628e-20)
(1.29309 0.271233 -7.10024e-20)
(1.31193 0.276808 -4.5869e-20)
(1.32053 0.278323 1.24432e-20)
(1.32219 0.276829 4.31515e-20)
(1.31955 0.273243 1.09813e-19)
(1.31452 0.268296 -2.87912e-21)
(1.30833 0.262518 4.168e-20)
(1.30169 0.255934 2.84549e-20)
(0.0429586 -0.00280177 5.20684e-20)
(0.147297 -0.00185783 1.0724e-19)
(0.27011 0.0117004 7.43406e-20)
(0.407006 0.0342544 -4.07702e-20)
(0.552197 0.0642084 1.51977e-19)
(0.698609 0.0992844 9.03902e-20)
(0.838706 0.136627 -1.3639e-19)
(0.965574 0.173284 -4.79191e-20)
(1.07397 0.206619 8.77631e-22)
(1.161 0.234687 -4.03361e-20)
(1.2263 0.256437 -1.16788e-19)
(1.27159 0.2717 1.95598e-20)
(1.30004 0.281003 2.23522e-22)
(1.31541 0.285304 -1.23258e-19)
(1.3214 0.285723 5.66073e-20)
(1.32123 0.283337 -3.05667e-20)
(1.31738 0.279049 -1.34847e-19)
(1.31161 0.273558 6.54369e-20)
(1.30497 0.267332 -1.38571e-19)
(1.29807 0.260455 -8.33728e-20)
(0.0472676 -0.00224706 -1.823e-20)
(0.159397 0.000452494 -4.59638e-20)
(0.289088 0.0164259 -7.72462e-20)
(0.431622 0.0416551 -3.74e-21)
(0.58077 0.0742087 -6.88237e-21)
(0.729096 0.111478 -8.57738e-20)
(0.868924 0.150342 1.95885e-20)
(0.993502 0.187709 1.86131e-20)
(1.09804 0.220957 -3.90485e-20)
(1.18031 0.248282 3.21775e-21)
(1.24058 0.268854 6.16499e-20)
(1.28116 0.282736 -8.15777e-21)
(1.30557 0.290652 4.71356e-20)
(1.31775 0.293694 2.11121e-20)
(1.3214 0.293048 -1.16325e-19)
(1.31963 0.289803 9.02446e-21)
(1.31475 0.284841 7.15386e-20)
(1.30835 0.278825 -1.70655e-20)
(1.30136 0.272163 3.49861e-21)
(1.29424 0.264997 -1.15466e-20)
(0.0517198 -0.00153741 -1.67891e-20)
(0.171767 0.00318681 -1.64657e-20)
(0.308296 0.0217778 -2.9328e-20)
(0.456266 0.0498036 -1.94135e-20)
(0.609027 0.0849832 -5.07195e-20)
(0.758831 0.124377 5.93916e-20)
(0.897937 0.164618 1.18402e-19)
(1.01985 0.202512 4.15471e-20)
(1.1203 0.235487 2.13562e-20)
(1.19772 0.261918 -5.12806e-20)
(1.25306 0.28121 -5.16371e-22)
(1.28913 0.293662 3.34173e-20)
(1.30977 0.300184 -4.30655e-20)
(1.31905 0.301986 1.63556e-20)
(1.32062 0.300307 5.5431e-20)
(1.31745 0.296236 -1.91454e-20)
(1.31171 0.290625 -3.40237e-20)
(1.30479 0.2841 -3.1546e-20)
(1.2975 0.27701 1.12079e-19)
(1.29022 0.269557 3.92441e-20)
(0.0563024 -0.000664288 -3.01775e-20)
(0.184363 0.00636068 3.65711e-20)
(0.327661 0.0277678 -8.41998e-21)
(0.480839 0.0586998 2.63951e-20)
(0.636851 0.096515 -2.3774e-20)
(0.787696 0.137948 -1.46489e-20)
(0.925653 0.179411 -5.7735e-20)
(1.04456 0.217645 6.86876e-21)
(1.14073 0.250171 1.65244e-20)
(1.21329 0.275568 3.70915e-20)
(1.26381 0.293491 -1.45221e-20)
(1.2956 0.304474 -1.14784e-20)
(1.31276 0.309603 1.04937e-20)
(1.3194 0.310189 -1.8507e-20)
(1.31912 0.307508 4.2251e-20)
(1.31475 0.30264 2.8097e-20)
(1.30827 0.296404 -4.76425e-21)
(1.30093 0.289381 -3.14104e-21)
(1.2934 0.281871 -3.02554e-20)
(1.28599 0.274131 -3.76672e-20)
(0.0610008 0.000380106 6.51712e-21)
(0.197141 0.00998718 -1.14604e-20)
(0.347107 0.0344037 7.83698e-21)
(0.505237 0.0683384 -1.08452e-20)
(0.664127 0.108782 -4.18617e-20)
(0.815583 0.152155 1.9486e-20)
(0.951987 0.194677 9.46117e-21)
(1.06759 0.233065 -4.54973e-20)
(1.15934 0.264971 -2.87662e-20)
(1.22705 0.289205 -2.7549e-21)
(1.27292 0.305685 -4.02929e-20)
(1.30067 0.315172 4.17106e-20)
(1.3146 0.318914 -1.15212e-22)
(1.31887 0.318309 -5.58148e-21)
(1.31697 0.314658 -1.07448e-20)
(1.31157 0.30902 5.2412e-21)
(1.30447 0.302177 3.72126e-21)
(1.29679 0.294667 -1.40377e-21)
(1.28908 0.286741 -1.09704e-20)
(1.28157 0.278714 1.33195e-20)
(0.0657993 0.0016027 2.19252e-21)
(0.210053 0.0140767 7.57218e-21)
(0.366556 0.0416891 4.23736e-21)
(0.529361 0.0787091 -1.98435e-21)
(0.690744 0.121757 2.76775e-20)
(0.842392 0.166956 -6.20695e-21)
(0.976871 0.210366 9.89422e-21)
(1.08891 0.248724 2.20373e-20)
(1.17615 0.279849 -3.98742e-21)
(1.23908 0.302806 1.00779e-21)
(1.28047 0.317779 1.1093e-20)
(1.30442 0.325752 -5.90883e-21)
(1.3154 0.32812 7.67331e-21)
(1.31754 0.326353 1.40325e-21)
(1.31422 0.32176 -1.45041e-20)
(1.30793 0.315377 7.29284e-22)
(1.30033 0.307943 1.87619e-20)
(1.29237 0.299954 -3.87709e-21)
(1.28454 0.291616 5.77941e-21)
(1.27695 0.2833 -6.46284e-21)
(0.0706815 0.00300949 9.10303e-22)
(0.22305 0.018637 1.12298e-20)
(0.38593 0.0496233 6.07108e-21)
(0.553111 0.0897967 -1.25442e-21)
(0.716599 0.13541 2.57122e-20)
(0.868033 0.182308 -7.3174e-21)
(1.00025 0.226433 1.37078e-20)
(1.10852 0.264579 1.84655e-20)
(1.19118 0.294772 -3.82758e-21)
(1.24942 0.316349 8.61576e-22)
(1.28654 0.329764 1.25867e-20)
(1.30694 0.336213 -5.10393e-21)
(1.31523 0.337224 4.96994e-21)
(1.31547 0.334323 -1.21955e-21)
(1.31091 0.328817 -1.17371e-20)
(1.30388 0.32171 -3.42811e-22)
(1.29586 0.3137 1.84778e-20)
(1.2877 0.305237 -3.59888e-21)
(1.27977 0.296489 6.74464e-21)
(1.27213 0.28788 -7.15279e-21)
(0.0756294 0.00460544 7.90391e-21)
(0.23608 0.0236727 -1.44583e-20)
(0.405149 0.0582014 7.41134e-21)
(0.576391 0.101581 -5.98728e-21)
(0.741593 0.149705 -4.07902e-20)
(0.892424 0.198166 1.66231e-20)
(1.02206 0.242827 7.71954e-21)
(1.1264 0.280588 -5.22342e-20)
(1.20447 0.309708 -2.19666e-20)
(1.25814 0.329814 -2.23785e-23)
(1.29119 0.341631 -3.39707e-20)
(1.30831 0.346554 2.82932e-20)
(1.31414 0.346228 -6.31214e-21)
(1.3127 0.342221 4.00315e-21)
(1.30708 0.335829 -1.5348e-20)
(1.29942 0.328019 1.16365e-20)
(1.29108 0.319443 7.31166e-21)
(1.28276 0.310511 -1.33251e-21)
(1.27478 0.301354 -1.43813e-20)
(1.26711 0.292449 1.30323e-20)
(0.080624 0.00639436 -1.71435e-20)
(0.249091 0.0291853 -7.81779e-21)
(0.424133 0.0674141 -1.136e-20)
(0.599106 0.114039 3.93556e-20)
(0.765635 0.164603 9.91068e-23)
(0.915496 0.214481 -2.10157e-20)
(1.04229 0.259501 -8.5705e-20)
(1.14256 0.296707 8.3546e-21)
(1.21606 0.324625 9.7478e-21)
(1.2653 0.343182 4.31983e-20)
(1.29451 0.35337 6.43079e-21)
(1.30859 0.356772 -3.61363e-20)
(1.31221 0.355132 3.39205e-20)
(1.30929 0.350047 -1.36451e-20)
(1.30275 0.342795 5.1026e-20)
(1.29459 0.334297 -4.74859e-21)
(1.28599 0.325166 2.56236e-21)
(1.27757 0.315767 2.22583e-21)
(1.26957 0.306201 -3.7746e-20)
(1.2619 0.296998 -2.24645e-20)
(0.0856457 0.00837889 -6.56047e-21)
(0.262029 0.0351732 -3.76543e-20)
(0.442805 0.0772476 2.97582e-20)
(0.621165 0.127139 -3.79377e-20)
(0.788638 0.180062 -6.8583e-20)
(0.937185 0.231204 5.97975e-20)
(1.0609 0.276406 9.85367e-20)
(1.157 0.312897 3.52762e-20)
(1.22599 0.339494 2.45069e-20)
(1.27097 0.356436 -6.98068e-20)
(1.29656 0.364973 5.3385e-20)
(1.30785 0.366863 6.1055e-21)
(1.30949 0.363935 -6.66635e-20)
(1.30527 0.3578 2.60367e-20)
(1.29797 0.34971 9.11332e-20)
(1.28939 0.340541 -6.21867e-20)
(1.28061 0.330862 -1.75051e-20)
(1.27213 0.320998 -1.66793e-20)
(1.26413 0.311025 7.66995e-20)
(1.25648 0.301519 4.33049e-20)
(0.0906742 0.0105604 4.48801e-20)
(0.27484 0.0416317 -7.68403e-20)
(0.461087 0.0876842 -1.11893e-19)
(0.642484 0.14085 5.03219e-21)
(0.810527 0.196036 -2.05259e-20)
(0.95744 0.248285 -8.22645e-20)
(1.07787 0.293493 -1.36769e-20)
(1.16975 0.329116 4.23116e-20)
(1.23431 0.354287 -6.76948e-20)
(1.27521 0.369558 5.52995e-20)
(1.29742 0.376431 6.37337e-20)
(1.30615 0.376823 -4.00053e-20)
(1.30602 0.372634 1.63866e-20)
(1.30069 0.365477 8.13429e-20)
(1.29274 0.356569 -1.08064e-19)
(1.28384 0.346743 1.85139e-20)
(1.27493 0.336523 4.9798e-20)
(1.26644 0.326195 -1.49297e-20)
(1.25847 0.315814 -1.62355e-20)
(1.25085 0.306002 -2.8e-21)
(0.0956889 0.0129389 6.65855e-20)
(0.287471 0.0485527 1.23628e-19)
(0.478905 0.0987018 6.55679e-20)
(0.66298 0.155135 -7.84873e-20)
(0.831231 0.212477 2.04998e-19)
(0.976217 0.265671 3.16811e-20)
(1.09319 0.310714 -8.70592e-20)
(1.18084 0.345328 -6.26734e-20)
(1.24107 0.368976 -4.99281e-20)
(1.27808 0.382532 1.68298e-20)
(1.29714 0.387735 -5.59657e-20)
(1.30355 0.386648 1.62979e-21)
(1.30186 0.381224 -3.73107e-20)
(1.29556 0.373071 -5.06296e-20)
(1.28708 0.363367 -8.52522e-21)
(1.27794 0.352896 -5.05873e-21)
(1.26896 0.34214 -9.21034e-20)
(1.26049 0.331348 6.84191e-20)
(1.25259 0.32056 -1.02556e-19)
(1.24502 0.310438 -5.85478e-20)
(0.100669 0.0155133 -8.09062e-20)
(0.299869 0.0559251 -3.32831e-20)
(0.496185 0.110275 1.48457e-19)
(0.682578 0.169952 3.75983e-20)
(0.850689 0.229335 -1.29182e-19)
(0.993482 0.283309 -7.48673e-20)
(1.10687 0.328023 -2.48147e-20)
(1.19028 0.361494 1.61145e-19)
(1.24631 0.383537 1.14735e-19)
(1.27964 0.395341 -3.89369e-20)
(1.29579 0.398876 -2.23396e-20)
(1.3001 0.396331 5.67598e-20)
(1.29703 0.389701 -6.05002e-20)
(1.28992 0.380578 2.80001e-20)
(1.28102 0.370095 1.16737e-20)
(1.27171 0.358989 -1.49318e-20)
(1.26271 0.347702 1.11128e-19)
(1.2543 0.336447 -4.61823e-20)
(1.24649 0.325253 9.16434e-20)
(1.23899 0.314819 -3.07455e-20)
(0.105593 0.0182809 -4.57092e-20)
(0.311981 0.0637346 -8.42342e-20)
(0.512859 0.122373 -1.33479e-19)
(0.701208 0.185259 8.09094e-20)
(0.868846 0.246557 4.47031e-20)
(1.00921 0.301147 -6.33091e-20)
(1.1189 0.345371 1.05154e-19)
(1.19812 0.377577 -1.61711e-19)
(1.25009 0.397943 -1.71034e-19)
(1.27995 0.407969 1.02865e-19)
(1.29342 0.409843 3.79968e-20)
(1.29585 0.405864 -4.19734e-20)
(1.29158 0.398058 6.38333e-20)
(1.28379 0.387988 4.92399e-20)
(1.27456 0.376744 -3.52663e-20)
(1.26515 0.365012 -1.16274e-20)
(1.25617 0.353199 -8.40973e-20)
(1.24785 0.341482 1.63883e-20)
(1.24016 0.329882 -6.8701e-20)
(1.23275 0.319133 -1.03362e-20)
(0.110439 0.021238 3.79595e-20)
(0.323756 0.0719639 -6.63655e-20)
(0.528861 0.134964 1.21155e-19)
(0.718806 0.201009 2.05228e-19)
(0.885656 0.264091 -2.94888e-19)
(1.02338 0.31913 2.59507e-19)
(1.12931 0.362713 6.9357e-20)
(1.20438 0.393543 -1.00593e-19)
(1.25247 0.412169 1.18326e-19)
(1.27907 0.4204 6.90934e-20)
(1.29008 0.420625 8.47227e-20)
(1.29083 0.41524 -1.4605e-19)
(1.28553 0.406285 -2.92174e-20)
(1.27718 0.395293 7.06052e-20)
(1.26772 0.383303 2.67988e-20)
(1.25826 0.370956 1.19457e-19)
(1.24935 0.35862 1.47317e-19)
(1.24115 0.346442 -3.59402e-20)
(1.2336 0.334437 6.07914e-20)
(1.22631 0.323371 6.577e-20)
(0.115188 0.0243792 -1.12018e-20)
(0.335145 0.0805927 -1.54522e-19)
(0.544128 0.148012 -2.11945e-19)
(0.735315 0.217151 -2.76678e-19)
(0.90108 0.281879 -2.69524e-20)
(1.03598 0.337207 1.01719e-19)
(1.1381 0.380004 -1.92724e-20)
(1.20912 0.409355 3.40128e-20)
(1.25348 0.426191 -5.23616e-20)
(1.27704 0.432617 8.65208e-20)
(1.28582 0.43121 -1.30915e-19)
(1.28509 0.424448 1.68493e-19)
(1.27891 0.414373 9.54371e-20)
(1.27012 0.402482 4.20374e-20)
(1.2605 0.389762 -6.28076e-20)
(1.25105 0.376807 -6.67535e-20)
(1.24225 0.363952 -6.1332e-20)
(1.2342 0.351314 4.46541e-21)
(1.22682 0.338907 7.60768e-20)
(1.21966 0.327523 -7.91539e-20)
(0.119817 0.0276982 -1.96718e-20)
(0.3461 0.0895981 1.20227e-19)
(0.558603 0.161476 1.51619e-19)
(0.750681 0.233636 -2.38159e-20)
(0.915086 0.299867 7.05865e-20)
(1.04701 0.355323 1.89286e-20)
(1.1453 0.397198 -1.03191e-19)
(1.21237 0.424982 8.14028e-20)
(1.25319 0.439985 7.58046e-20)
(1.27393 0.444604 -1.30094e-19)
(1.28069 0.441587 2.07516e-19)
(1.27865 0.433477 -1.69865e-19)
(1.27174 0.422312 9.68642e-20)
(1.26261 0.409543 -1.38453e-19)
(1.25291 0.396107 2.00024e-19)
(1.24353 0.382553 -1.23216e-19)
(1.23487 0.369184 -3.47656e-20)
(1.227 0.356087 -4.5689e-20)
(1.21981 0.343279 -9.39197e-20)
(1.21281 0.331578 2.20683e-21)
(0.124308 0.031187 1.41524e-19)
(0.356577 0.0989543 1.50614e-19)
(0.572233 0.175315 -2.17787e-19)
(0.764861 0.25041 -1.3276e-19)
(0.92765 0.317998 1.96693e-19)
(1.05647 0.373426 -7.83712e-20)
(1.15094 0.414252 1.14273e-19)
(1.21417 0.440388 4.89622e-20)
(1.25164 0.453527 -1.12728e-19)
(1.26978 0.456344 -2.76153e-19)
(1.27472 0.451742 -4.9239e-20)
(1.27155 0.442316 -1.00728e-19)
(1.26404 0.430089 -1.47684e-19)
(1.25467 0.416465 1.18661e-20)
(1.24496 0.402327 -1.6041e-20)
(1.23569 0.388182 -1.31241e-20)
(1.22721 0.374302 1.08424e-19)
(1.21955 0.360748 7.55759e-20)
(1.21258 0.347541 9.75703e-21)
(1.20576 0.335523 4.09932e-20)
(0.12864 0.0348369 -3.41358e-20)
(0.366531 0.108633 2.67421e-19)
(0.584968 0.189485 1.0388e-19)
(0.777815 0.267417 2.11867e-19)
(0.938754 0.336214 6.91267e-20)
(1.06436 0.391464 2.66151e-20)
(1.15504 0.431122 -1.6585e-19)
(1.21457 0.455541 -5.29611e-20)
(1.24889 0.466794 2.66501e-20)
(1.26463 0.46782 2.04702e-19)
(1.26795 0.461661 -6.66069e-20)
(1.26382 0.450952 8.18087e-20)
(1.25584 0.437692 1.67342e-19)
(1.24632 0.423233 3.75907e-20)
(1.23665 0.408407 -3.27779e-20)
(1.22754 0.393679 4.19775e-20)
(1.21927 0.379293 7.58398e-20)
(1.21185 0.365286 3.17149e-20)
(1.20512 0.35168 8.20183e-20)
(1.19849 0.339342 5.75362e-20)
(0.132795 0.0386375 -8.92157e-20)
(0.375924 0.118605 -1.37067e-19)
(0.596765 0.203938 8.7387e-20)
(0.789511 0.284603 2.94687e-20)
(0.948385 0.354457 5.82329e-20)
(1.07071 0.409383 -2.38286e-19)
(1.15764 0.447767 8.60241e-20)
(1.21362 0.470411 -1.84118e-19)
(1.24498 0.479763 -1.01141e-19)
(1.25854 0.479013 1.16293e-19)
(1.26042 0.471329 -1.27355e-20)
(1.25549 0.459371 7.12763e-21)
(1.24714 0.445106 -2.02417e-19)
(1.23756 0.429835 -7.97227e-20)
(1.228 0.414334 6.19679e-20)
(1.21908 0.399032 -1.07668e-19)
(1.21105 0.384146 -5.64039e-20)
(1.2039 0.369688 -5.64208e-20)
(1.19743 0.355689 -9.07281e-20)
(1.191 0.343032 -1.93268e-19)
(0.136754 0.0425778 5.19373e-20)
(0.384718 0.128837 -6.47493e-20)
(0.607584 0.218627 -3.53543e-19)
(0.799921 0.301909 1.91319e-19)
(0.956539 0.372672 -2.3748e-19)
(1.07551 0.427135 -3.3486e-20)
(1.15878 0.464145 -3.2356e-19)
(1.21135 0.484964 3.41469e-19)
(1.23996 0.492409 1.93073e-19)
(1.25153 0.489906 -1.1987e-20)
(1.25217 0.480731 6.64236e-20)
(1.24657 0.467559 -8.27598e-20)
(1.23798 0.452318 -6.26678e-21)
(1.22841 0.436254 3.79766e-20)
(1.219 0.420093 -3.7533e-20)
(1.21032 0.404226 6.59346e-20)
(1.20256 0.388846 -8.32013e-20)
(1.19571 0.373945 -7.27347e-20)
(1.18953 0.359567 4.08355e-20)
(1.18328 0.346607 5.14016e-20)
(0.1405 0.0466454 1.1868e-19)
(0.39288 0.139295 1.19191e-19)
(0.617392 0.233501 9.23605e-20)
(0.809025 0.319278 -2.42704e-21)
(0.963216 0.390799 -6.13401e-20)
(1.07881 0.444668 4.15605e-19)
(1.15848 0.480215 2.35185e-19)
(1.20782 0.499171 1.57473e-19)
(1.23387 0.50471 2.20829e-19)
(1.24366 0.50048 2.59333e-20)
(1.24322 0.48985 -1.78452e-19)
(1.2371 0.475499 -1.74764e-20)
(1.22835 0.459312 -3.62458e-20)
(1.21887 0.442476 -1.15833e-19)
(1.20967 0.425669 -4.08473e-20)
(1.20126 0.409246 -5.78428e-20)
(1.19381 0.39338 1.73077e-19)
(1.18727 0.37804 -1.25601e-21)
(1.1814 0.363304 4.12631e-20)
(1.1754 0.350021 3.07089e-20)
(0.144018 0.0508271 -3.96859e-20)
(0.400378 0.149942 -6.9328e-20)
(0.62616 0.248508 -1.51994e-19)
(0.816808 0.336652 -2.58153e-20)
(0.968422 0.408784 -2.51732e-19)
(1.08062 0.461932 -1.80462e-19)
(1.1568 0.495939 5.97119e-20)
(1.20307 0.513001 -4.28382e-19)
(1.22676 0.516643 -2.29716e-19)
(1.23496 0.510717 5.50033e-20)
(1.23361 0.498671 -2.59899e-20)
(1.22709 0.483177 1.57517e-19)
(1.21829 0.466072 2.07919e-19)
(1.20895 0.448486 5.13393e-20)
(1.2 0.431048 1.32852e-19)
(1.1919 0.414079 -6.56585e-20)
(1.18478 0.397733 8.23722e-20)
(1.17859 0.381963 4.45927e-20)
(1.17305 0.366874 3.4468e-20)
(1.16734 0.353284 -6.10484e-20)
(0.147293 0.0551089 5.94844e-20)
(0.407186 0.160743 -7.13378e-21)
(0.633863 0.263598 -2.34874e-19)
(0.823262 0.353973 -5.21767e-22)
(0.972166 0.426569 5.66677e-19)
(1.08097 0.478881 1.12947e-19)
(1.15377 0.511278 8.4881e-20)
(1.19714 0.526425 2.46786e-19)
(1.21867 0.528185 -1.97922e-19)
(1.22547 0.520597 -2.08758e-19)
(1.22336 0.507175 -2.45981e-22)
(1.21656 0.490576 -1.38744e-19)
(1.20779 0.472583 -7.55468e-20)
(1.19866 0.454268 1.96181e-19)
(1.19002 0.436212 -5.08431e-20)
(1.18226 0.418709 6.19672e-21)
(1.17549 0.401892 -6.09657e-20)
(1.16968 0.3857 -8.2093e-20)
(1.16449 0.370265 1.83563e-21)
(1.1591 0.356374 6.23443e-20)
(0.150311 0.059476 -2.87727e-19)
(0.41328 0.171658 1.805e-19)
(0.640484 0.278717 4.03337e-19)
(0.828381 0.371183 1.26398e-19)
(0.974466 0.444101 -6.66492e-19)
(1.0799 0.495467 -2.74707e-19)
(1.14943 0.526195 -2.13224e-19)
(1.19009 0.539414 -7.69659e-20)
(1.20965 0.539312 2.56727e-19)
(1.21522 0.530102 2.85015e-20)
(1.2125 0.515346 -4.93349e-20)
(1.20553 0.497679 9.55413e-20)
(1.19688 0.478827 1.29848e-20)
(1.18802 0.459805 -2.30664e-19)
(1.17972 0.441149 6.30723e-20)
(1.17233 0.423123 8.03874e-20)
(1.16595 0.405844 3.33595e-20)
(1.16053 0.389238 4.56874e-20)
(1.15572 0.373466 -6.89421e-20)
(1.15067 0.359282 -2.87757e-20)
(0.15306 0.0639128 -1.9486e-20)
(0.418638 0.182648 9.09719e-20)
(0.646007 0.293811 4.51559e-20)
(0.832169 0.388224 1.34602e-19)
(0.975341 0.461325 3.71763e-19)
(1.07744 0.511644 -2.40603e-19)
(1.14383 0.540652 -1.30659e-20)
(1.18196 0.55194 2.27826e-19)
(1.19973 0.550003 -2.7122e-19)
(1.20425 0.539211 8.73857e-20)
(1.20106 0.523166 2.17986e-19)
(1.19403 0.504469 4.88969e-20)
(1.18557 0.484788 -9.69524e-20)
(1.17703 0.465081 1.59749e-19)
(1.16911 0.445841 -1.75193e-19)
(1.16212 0.427305 3.98673e-22)
(1.15615 0.409574 -3.6637e-20)
(1.15115 0.392566 4.96267e-20)
(1.14675 0.376465 4.22575e-20)
(1.14206 0.361997 2.81633e-20)
(0.155529 0.0684031 3.73024e-20)
(0.423245 0.193674 1.44994e-19)
(0.650423 0.308828 1.43985e-19)
(0.834631 0.40504 -9.22684e-20)
(0.974814 0.478187 7.72735e-21)
(1.07363 0.527368 2.23373e-19)
(1.13702 0.554615 3.91749e-19)
(1.17279 0.563974 -4.10326e-20)
(1.18896 0.560235 3.75258e-20)
(1.19259 0.547906 -1.05881e-19)
(1.18906 0.530617 -2.19725e-19)
(1.18207 0.510928 3.45861e-20)
(1.17387 0.49045 1.15415e-19)
(1.16571 0.470081 -2.3079e-20)
(1.1582 0.450274 -1.0166e-20)
(1.15164 0.431241 -6.20886e-20)
(1.1461 0.41307 -8.00624e-21)
(1.14155 0.395668 -2.34245e-20)
(1.13758 0.379252 -1.51983e-20)
(1.13328 0.364509 -1.75694e-20)
(0.157708 0.0729304 -1.28097e-19)
(0.427086 0.204694 -3.31885e-19)