/*--------------------------------*- C++ -*----------------------------------*\
  =========                 |
  \\      /  F ield         | OpenFOAM: The Open Source CFD Toolbox
   \\    /   O peration     | Website:  https://openfoam.org
    \\  /    A nd           | Version:  7
     \\/     M anipulation  |
\*---------------------------------------------------------------------------*/
FoamFile
{
    version     2.0;
    format      ascii;
    class       volScalarField;
    location    "85";
    object      p;
}
// * * * * * * * * * * * * * * * * * * * * * * * * * * * * * * * * * * * * * //

dimensions      [0 2 -2 0 0 0 0];

internalField   nonuniform List<scalar> 
8500
(
-0.484955
-0.488133
-0.48583
-0.491464
-0.488992
-0.486635
-0.49496
-0.492301
-0.489779
-0.498629
-0.495766
-0.49307
-0.490044
-0.502479
-0.499392
-0.496515
-0.493297
-0.489854
-0.506514
-0.503185
-0.500119
-0.496704
-0.493053
-0.489298
-0.510738
-0.507149
-0.503886
-0.500268
-0.496405
-0.492423
-0.488357
-0.515151
-0.511285
-0.507817
-0.503992
-0.499911
-0.495695
-0.491365
-0.486888
-0.519752
-0.515593
-0.511912
-0.507875
-0.503572
-0.499114
-0.494507
-0.489699
-0.484576
-0.524538
-0.520072
-0.516173
-0.511917
-0.507385
-0.502677
-0.497779
-0.492618
-0.487062
-0.480929
-0.529506
-0.524718
-0.520594
-0.516116
-0.511348
-0.506379
-0.501173
-0.495635
-0.489614
-0.482919
-0.475347
-0.534647
-0.529526
-0.525173
-0.520467
-0.515457
-0.510214
-0.50468
-0.498737
-0.492217
-0.48492
-0.476654
-0.467269
-0.456693
-0.539953
-0.53449
-0.529904
-0.524966
-0.519704
-0.514174
-0.508289
-0.50191
-0.494852
-0.486913
-0.477914
-0.467738
-0.456354
-0.443826
-0.545414
-0.539601
-0.534778
-0.529603
-0.524081
-0.518247
-0.511987
-0.505138
-0.497501
-0.488877
-0.479108
-0.468114
-0.455909
-0.442606
-0.428384
-0.551018
-0.544849
-0.539787
-0.53437
-0.528578
-0.522421
-0.515758
-0.508401
-0.500142
-0.490791
-0.480216
-0.468379
-0.455345
-0.441271
-0.426373
-0.410891
-0.395042
-0.55675
-0.55022
-0.544918
-0.539255
-0.533181
-0.526681
-0.519583
-0.511678
-0.502754
-0.492633
-0.481217
-0.468517
-0.454649
-0.439813
-0.424255
-0.40823
-0.391958
-0.375673
-0.562593
-0.5557
-0.550158
-0.544244
-0.537875
-0.531009
-0.523441
-0.514947
-0.505311
-0.494378
-0.482092
-0.468513
-0.453809
-0.438222
-0.422023
-0.405477
-0.388801
-0.37221
-0.35564
-0.340007
-0.568528
-0.561273
-0.555491
-0.549321
-0.542642
-0.535383
-0.52731
-0.518181
-0.507787
-0.496003
-0.482818
-0.468348
-0.452812
-0.436488
-0.419669
-0.402622
-0.385562
-0.36868
-0.351925
-0.336121
-0.574534
-0.566919
-0.560898
-0.554466
-0.547462
-0.539782
-0.531163
-0.521353
-0.510157
-0.497484
-0.483376
-0.468008
-0.451645
-0.434602
-0.417184
-0.399659
-0.382232
-0.365073
-0.348142
-0.332172
-0.580589
-0.572617
-0.566358
-0.559658
-0.55231
-0.544179
-0.534973
-0.524436
-0.512392
-0.498795
-0.483746
-0.467476
-0.450298
-0.432553
-0.414559
-0.396576
-0.378801
-0.36138
-0.34428
-0.328151
-0.586665
-0.578343
-0.571848
-0.564873
-0.557162
-0.548546
-0.53871
-0.527397
-0.514463
-0.499912
-0.483907
-0.466736
-0.448757
-0.430332
-0.411784
-0.393366
-0.37526
-0.35759
-0.34033
-0.324047
-0.592734
-0.58407
-0.577342
-0.570083
-0.561988
-0.552852
-0.542341
-0.530206
-0.516341
-0.50081
-0.483839
-0.465774
-0.44701
-0.427928
-0.40885
-0.390018
-0.371597
-0.353692
-0.33628
-0.319849
-0.598767
-0.589771
-0.582812
-0.575261
-0.566757
-0.557064
-0.545832
-0.53283
-0.517998
-0.501465
-0.483523
-0.464574
-0.445045
-0.42533
-0.405746
-0.386521
-0.367804
-0.349676
-0.332121
-0.315549
-0.604729
-0.595413
-0.588226
-0.580372
-0.571435
-0.561147
-0.549148
-0.535236
-0.519404
-0.501852
-0.482941
-0.463122
-0.442851
-0.422528
-0.402463
-0.382866
-0.363869
-0.345532
-0.327843
-0.311136
-0.610587
-0.600964
-0.593552
-0.585384
-0.575987
-0.565063
-0.552253
-0.53739
-0.52053
-0.501948
-0.482073
-0.461402
-0.440414
-0.419511
-0.398989
-0.379042
-0.359782
-0.341249
-0.323435
-0.306602
-0.616302
-0.606389
-0.598753
-0.59026
-0.580374
-0.568775
-0.55511
-0.539258
-0.521348
-0.501731
-0.480902
-0.459401
-0.437724
-0.416268
-0.395315
-0.375039
-0.355532
-0.336818
-0.31889
-0.301937
-0.621836
-0.61165
-0.603793
-0.59496
-0.584556
-0.572241
-0.557681
-0.540807
-0.521829
-0.501177
-0.479411
-0.457106
-0.434768
-0.412787
-0.391429
-0.370845
-0.351109
-0.332228
-0.314197
-0.297135
-0.627148
-0.616707
-0.608631
-0.599444
-0.588492
-0.575423
-0.559927
-0.542004
-0.521946
-0.500266
-0.477582
-0.454501
-0.431534
-0.409059
-0.38732
-0.366451
-0.346504
-0.327471
-0.309347
-0.292185
-0.632196
-0.621519
-0.613226
-0.60367
-0.59214
-0.578278
-0.561812
-0.542816
-0.521674
-0.498978
-0.475401
-0.451574
-0.42801
-0.405071
-0.382979
-0.361846
-0.341706
-0.322537
-0.304332
-0.287082
-0.636935
-0.626045
-0.617536
-0.607594
-0.595456
-0.580765
-0.563298
-0.543212
-0.520986
-0.497291
-0.47285
-0.448313
-0.424185
-0.400813
-0.378394
-0.35702
-0.336706
-0.317417
-0.299144
-0.281816
-0.641322
-0.630241
-0.621517
-0.611173
-0.598397
-0.582843
-0.564348
-0.543162
-0.51986
-0.495189
-0.469916
-0.444703
-0.420048
-0.396274
-0.373556
-0.351964
-0.331495
-0.312103
-0.293775
-0.276382
-0.645311
-0.634062
-0.625123
-0.61436
-0.600918
-0.584471
-0.564927
-0.542636
-0.518271
-0.492652
-0.466583
-0.440734
-0.415588
-0.391445
-0.368455
-0.346667
-0.326064
-0.306586
-0.288218
-0.270773
-0.648857
-0.637463
-0.62831
-0.617111
-0.602975
-0.585609
-0.565001
-0.541607
-0.516198
-0.489664
-0.462839
-0.436394
-0.410794
-0.386314
-0.363081
-0.341122
-0.320404
-0.300859
-0.282466
-0.264984
-0.651914
-0.6404
-0.631032
-0.619381
-0.604527
-0.586219
-0.564537
-0.540049
-0.513622
-0.48621
-0.458671
-0.431672
-0.405656
-0.380873
-0.357424
-0.335319
-0.314508
-0.294915
-0.276511
-0.259007
-0.654435
-0.642825
-0.633243
-0.621125
-0.605529
-0.586262
-0.563503
-0.537936
-0.510523
-0.482274
-0.454066
-0.426556
-0.400164
-0.375112
-0.351478
-0.329251
-0.308368
-0.288747
-0.27035
-0.252839
-0.656375
-0.644696
-0.634898
-0.622297
-0.605942
-0.585703
-0.561871
-0.535247
-0.506884
-0.477844
-0.449014
-0.421038
-0.394309
-0.369022
-0.345232
-0.32291
-0.301978
-0.28235
-0.263975
-0.246475
-0.65769
-0.645967
-0.635954
-0.622857
-0.605726
-0.584508
-0.559613
-0.531959
-0.50269
-0.472906
-0.443504
-0.415108
-0.388083
-0.362597
-0.338681
-0.31629
-0.295332
-0.275717
-0.257382
-0.23991
-0.658338
-0.646595
-0.636367
-0.622763
-0.604844
-0.582646
-0.556704
-0.528056
-0.497925
-0.46745
-0.437527
-0.408757
-0.381478
-0.355827
-0.331817
-0.309383
-0.288424
-0.268844
-0.250567
-0.233141
-0.658276
-0.646539
-0.636095
-0.621974
-0.603261
-0.580088
-0.553122
-0.523519
-0.492577
-0.461466
-0.431075
-0.401979
-0.374486
-0.348708
-0.324634
-0.302185
-0.281249
-0.261726
-0.243527
-0.226166
-0.657465
-0.645758
-0.6351
-0.620454
-0.600943
-0.576806
-0.548846
-0.518333
-0.486636
-0.454945
-0.424139
-0.394766
-0.367103
-0.341233
-0.317127
-0.294691
-0.273802
-0.25436
-0.236257
-0.21898
-0.655866
-0.644214
-0.633343
-0.618168
-0.59786
-0.572777
-0.543858
-0.512486
-0.480091
-0.44788
-0.416715
-0.387113
-0.359321
-0.333397
-0.309291
-0.286897
-0.266081
-0.246743
-0.228756
-0.211584
-0.653444
-0.641871
-0.630789
-0.615083
-0.593985
-0.567979
-0.538143
-0.505966
-0.472935
-0.440264
-0.408795
-0.379015
-0.351138
-0.325196
-0.301122
-0.278799
-0.258082
-0.238871
-0.221021
-0.203979
-0.650166
-0.638696
-0.627406
-0.61117
-0.589294
-0.562393
-0.531687
-0.498765
-0.465161
-0.432093
-0.400378
-0.370469
-0.342548
-0.316627
-0.292619
-0.270395
-0.249803
-0.230743
-0.213052
-0.196162
-0.646002
-0.634657
-0.623163
-0.606403
-0.583765
-0.556004
-0.52448
-0.490875
-0.456766
-0.423364
-0.391459
-0.361471
-0.333551
-0.307688
-0.283778
-0.261683
-0.241243
-0.222357
-0.204844
-0.188113
-0.640925
-0.629728
-0.618035
-0.600757
-0.57738
-0.5488
-0.516514
-0.482293
-0.447746
-0.414074
-0.382037
-0.35202
-0.324145
-0.298377
-0.2746
-0.252663
-0.232401
-0.213716
-0.196397
-0.179801
-0.63491
-0.623882
-0.611998
-0.594214
-0.570124
-0.54077
-0.507783
-0.473016
-0.4381
-0.404224
-0.372112
-0.342116
-0.314329
-0.288694
-0.265083
-0.243335
-0.223279
-0.204821
-0.187719
-0.171269
-0.627936
-0.617099
-0.605031
-0.586756
-0.561984
-0.531907
-0.498285
-0.463043
-0.42783
-0.393813
-0.361685
-0.33176
-0.304104
-0.27864
-0.255229
-0.2337
-0.213879
-0.19567
-0.178795
-0.162595
-0.619986
-0.609361
-0.597119
-0.578371
-0.552954
-0.522208
-0.488018
-0.452375
-0.416936
-0.382846
-0.350758
-0.320953
-0.293471
-0.268218
-0.24504
-0.22376
-0.204201
-0.186268
-0.169641
-0.15372
-0.611047
-0.600653
-0.588248
-0.569049
-0.543027
-0.511672
-0.476986
-0.441017
-0.405424
-0.371324
-0.339334
-0.3097
-0.282435
-0.257429
-0.234519
-0.213519
-0.194249
-0.176616
-0.160264
-0.144635
-0.601108
-0.590964
-0.578408
-0.558784
-0.532202
-0.5003
-0.465192
-0.428973
-0.393299
-0.359255
-0.327419
-0.298004
-0.270999
-0.246278
-0.223669
-0.202979
-0.184027
-0.166718
-0.150664
-0.135343
-0.590163
-0.580287
-0.567595
-0.547574
-0.520481
-0.488098
-0.452644
-0.416252
-0.380568
-0.346644
-0.315018
-0.28587
-0.259168
-0.234771
-0.212496
-0.192146
-0.173538
-0.156579
-0.140845
-0.125849
-0.578208
-0.568619
-0.555807
-0.53542
-0.507868
-0.475073
-0.439349
-0.402862
-0.367241
-0.333501
-0.302139
-0.273304
-0.246953
-0.222913
-0.201004
-0.181024
-0.162788
-0.146204
-0.130811
-0.116159
-0.565244
-0.555959
-0.543044
-0.522327
-0.494371
-0.461235
-0.42532
-0.388815
-0.353328
-0.319834
-0.288792
-0.260322
-0.234353
-0.21071
-0.189202
-0.169621
-0.151783
-0.135598
-0.120566
-0.106278
-0.551277
-0.542311
-0.529313
-0.508303
-0.480001
-0.446597
-0.41057
-0.374124
-0.338842
-0.305656
-0.274987
-0.246926
-0.221382
-0.198172
-0.177096
-0.157944
-0.140531
-0.124768
-0.110118
-0.0962133
-0.536313
-0.527683
-0.514623
-0.493359
-0.464772
-0.431175
-0.395115
-0.358804
-0.323797
-0.290978
-0.260734
-0.233129
-0.208049
-0.185308
-0.164696
-0.146
-0.129038
-0.113721
-0.0994717
-0.0859713
-0.520366
-0.512087
-0.498985
-0.477511
-0.448701
-0.414986
-0.378973
-0.342875
-0.308205
-0.275815
-0.246048
-0.218941
-0.194367
-0.172127
-0.15201
-0.1338
-0.117314
-0.102465
-0.0886362
-0.0755593
-0.50345
-0.495535
-0.482416
-0.460775
-0.431807
-0.398051
-0.362165
-0.326357
-0.292081
-0.260181
-0.230941
-0.204377
-0.180345
-0.158643
-0.139051
-0.121352
-0.105367
-0.091009
-0.0776197
-0.0649855
-0.485583
-0.478048
-0.464936
-0.443174
-0.414112
-0.380391
-0.34471
-0.309255
-0.275458
-0.244095
-0.21543
-0.18945
-0.165999
-0.144865
-0.125829
-0.108669
-0.0932094
-0.0793626
-0.0664312
-0.0542583
-0.466789
-0.459645
-0.446566
-0.424732
-0.395643
-0.362036
-0.326628
-0.291603
-0.258343
-0.227574
-0.19953
-0.174175
-0.151341
-0.130809
-0.112357
-0.0957613
-0.0808506
-0.0675361
-0.0550808
-0.0433873
-0.447091
-0.440353
-0.427332
-0.405474
-0.376428
-0.343017
-0.30794
-0.273422
-0.24076
-0.210637
-0.18326
-0.15857
-0.136387
-0.116489
-0.098648
-0.0826422
-0.068303
-0.0555409
-0.0435792
-0.0323826
-0.426519
-0.420197
-0.407263
-0.385431
-0.356495
-0.323331
-0.2887
-0.254739
-0.222731
-0.193305
-0.166638
-0.142651
-0.121153
-0.101918
-0.0847164
-0.0693249
-0.0555792
-0.0433888
-0.0319379
-0.0212554
-0.405104
-0.399209
-0.386388
-0.364636
-0.335872
-0.303035
-0.268913
-0.235579
-0.20428
-0.1756
-0.149684
-0.126436
-0.105656
-0.0871133
-0.0705769
-0.0558233
-0.0426928
-0.0310926
-0.0201692
-0.0100179
-0.382877
-0.377423
-0.364745
-0.343125
-0.314589
-0.282163
-0.248612
-0.215968
-0.185432
-0.157543
-0.132418
-0.109945
-0.089914
-0.0720911
-0.0562451
-0.0421523
-0.0296579
-0.0186656
-0.00828641
0.00131609
-0.359877
-0.354876
-0.342373
-0.320915
-0.292693
-0.260744
-0.227828
-0.195935
-0.166213
-0.139159
-0.114863
-0.0931972
-0.0739446
-0.0568685
-0.0417371
-0.0283272
-0.0164893
-0.00612204
0.00369648
-0.33614
-0.331608
-0.31932
-0.298043
-0.270215
-0.238811
-0.206596
-0.17551
-0.14665
-0.120473
-0.0970415
-0.0762138
-0.0577674
-0.0414634
-0.0270695
-0.0143638
-0.00320213
0.0065237
-0.311705
-0.307656
-0.29557
-0.274607
-0.247198
-0.216403
-0.184949
-0.154723
-0.126771
-0.10151
-0.078976
-0.0590161
-0.0414023
-0.025894
-0.0122592
-0.000278254
0.0101878
-0.286608
-0.283074
-0.271221
-0.250602
-0.22368
-0.193557
-0.162921
-0.133607
-0.106605
-0.0822954
-0.060691
-0.0416264
-0.0248694
-0.010179
0.00267639
0.0139133
-0.260887
-0.257919
-0.246316
-0.226076
-0.199704
-0.170311
-0.14055
-0.112194
-0.0861824
-0.0628578
-0.0422115
-0.0240674
-0.00818982
0.00566242
0.01772
0.0281946
-0.234645
-0.232197
-0.220895
-0.201077
-0.175313
-0.146708
-0.117871
-0.090517
-0.065533
-0.0432247
-0.0235631
-0.00636255
0.00861514
0.021611
0.0328541
-0.207933
-0.205949
-0.195004
-0.175652
-0.150549
-0.122786
-0.0949222
-0.0686114
-0.0446885
-0.0234247
-0.00477187
0.0114641
0.0255236
0.037647
-0.180761
-0.179255
-0.16869
-0.14985
-0.125459
-0.0985877
-0.071742
-0.0465116
-0.0236808
-0.00348723
0.0141352
0.029388
0.0425132
0.0537503
-0.153178
-0.152169
-0.142006
-0.123718
-0.100088
-0.0741562
-0.0483694
-0.0242536
-0.00254253
0.016558
0.0331308
0.0473842
0.059561
-0.125245
-0.124743
-0.115003
-0.0973071
-0.0744839
-0.0495345
-0.024844
-0.00187324
0.0186933
0.0366806
0.0521871
0.0654267
0.0766435
-0.0970188
-0.0970296
-0.0877344
-0.0706677
-0.0486932
-0.0247662
-0.00120571
0.0205927
0.0399931
0.0568497
0.0712755
0.0834895
-0.0685524
-0.0690816
-0.0602521
-0.0438503
-0.0227637
0.000104642
0.0225049
0.0431071
0.0613228
0.0770342
0.0903673
-0.0399034
-0.0409548
-0.0326108
-0.0169067
0.00325623
0.0250335
0.0462472
0.0656329
0.0826483
0.0972024
0.109433
-0.0111294
-0.012705
-0.00486524
0.0101111
0.0293182
0.0499758
0.0699802
0.0881324
0.103935
0.117323
0.0177123
0.0156117
0.0229299
0.0371512
0.0553737
0.0748868
0.0936629
0.110568
0.125149
0.137363
0.0465642
0.0439386
0.0507196
0.0641614
0.0813742
0.0997218
0.117254
0.132903
0.146255
0.157292
0.0753687
0.0722193
0.078449
0.0910896
0.107271
0.124436
0.140714
0.155098
0.167219
0.104068
0.100397
0.106063
0.117884
0.133017
0.148986
0.164
0.177117
0.188006
0.132605
0.128415
0.133508
0.144493
0.158562
0.173326
0.187073
0.198923
0.160922
0.156218
0.160728
0.170866
0.183861
0.197414
0.209893
0.220479
0.188963
0.18375
0.187671
0.196951
0.208866
0.221206
0.23242
0.216672
0.210956
0.214284
0.222699
0.23353
0.244659
0.254615
0.243994
0.237781
0.240513
0.248061
0.257808
0.267731
0.276439
0.270874
0.264173
0.266307
0.272988
0.281656
0.290382
0.297258
0.290077
0.291617
0.297432
0.305028
0.312571
0.323094
0.315444
0.316392
0.321348
0.327883
0.334258
0.348331
0.340221
0.340584
0.344689
0.350178
0.372919
0.364362
0.364146
0.367412
0.371872
0.396809
0.387817
0.387032
0.389474
0.392925
0.419953
0.41054
0.409197
0.410833
0.4133
0.442307
0.432486
0.4306
0.431449
0.463826
0.453613
0.451198
0.451282
0.484468
0.473879
0.470952
0.470298
0.504193
0.493244
0.489824
0.488458
0.522962
0.51167
0.507778
0.505731
0.540738
0.529122
0.524779
0.557487
0.545566
0.540796
0.573176
0.560969
0.555797
0.587775
0.575303
0.569755
0.601256
0.588539
0.582643
0.613593
0.600652
0.594436
0.624762
0.611619
0.605114
0.634742
0.62142
0.614656
0.643515
0.630035
0.623044
0.651063
0.637449
0.657373
0.643648
0.662433
0.64862
0.666234
0.652358
0.66877
0.654853
0.670036
0.656103
0.670032
0.656106
0.668757
0.654863
0.666216
0.652377
0.662415
0.648655
0.657362
0.643704
0.651068
0.637536
0.643547
0.630164
0.623285
0.634815
0.621603
0.614967
0.62489
0.611872
0.60551
0.613793
0.60099
0.594933
0.601547
0.588982
0.583258
0.588178
0.575871
0.570508
0.573714
0.561685
0.55671
0.558184
0.546454
0.541892
0.541622
0.530208
0.526083
0.52406
0.512982
0.509317
0.507606
0.505536
0.494812
0.491627
0.490609
0.486088
0.475734
0.473049
0.472753
0.465756
0.455789
0.453621
0.454071
0.444582
0.435018
0.433382
0.434603
0.422611
0.413463
0.412374
0.414386
0.417342
0.399887
0.39117
0.390639
0.39346
0.397406
0.376459
0.368185
0.368223
0.371867
0.376824
0.352374
0.344555
0.34517
0.349651
0.355637
0.361438
0.327683
0.320331
0.321528
0.326855
0.333885
0.340836
0.302437
0.295562
0.297346
0.303524
0.311611
0.319728
0.276689
0.2703
0.272673
0.279706
0.288857
0.298153
0.250493
0.244598
0.24756
0.255449
0.265668
0.276152
0.285463
0.223903
0.21851
0.222058
0.2308
0.242088
0.253767
0.264319
0.196976
0.19209
0.196221
0.20581
0.218165
0.231041
0.24284
0.169766
0.165394
0.170102
0.180529
0.193944
0.208015
0.221065
0.232229
0.142332
0.138479
0.143755
0.155008
0.169472
0.184733
0.199034
0.211448
0.114731
0.111399
0.117234
0.129298
0.144799
0.161241
0.176787
0.190451
0.201868
0.0870213
0.0842136
0.0905955
0.103451
0.119971
0.137581
0.154366
0.169276
0.181907
0.0592603
0.0569786
0.0638936
0.0775207
0.0950386
0.113799
0.131812
0.147961
0.161802
0.173294
0.0315064
0.0297514
0.0371843
0.0515585
0.0700495
0.08994
0.109165
0.126544
0.141589
0.154236
0.00381805
0.00258934
0.0105232
0.0256175
0.0450531
0.0660491
0.0864667
0.105062
0.121302
0.135097
-0.0237468
-0.0244508
-0.0160344
-0.000249641
0.0200985
0.0421715
0.0637596
0.083554
0.100975
0.115909
0.128481
-0.0511304
-0.0513126
-0.0424333
-0.0259904
-0.00476518
0.0183525
0.0410846
0.0620574
0.0806449
0.0967047
0.11035
0.121798
-0.078275
-0.07794
-0.0686185
-0.0515526
-0.0294891
-0.00536295
0.0184829
0.0406102
0.060345
0.077516
0.0922218
0.104675
-0.105123
-0.104277
-0.0945353
-0.0768839
-0.0540247
-0.02893
-0.00400434
0.0192499
0.0401099
0.0583743
0.0741263
0.0875729
0.0989555
-0.13162
-0.130273
-0.120131
-0.101934
-0.0783241
-0.0523043
-0.0263365
-0.00198624
0.019974
0.0393111
0.056092
0.070517
0.0828263
-0.157705
-0.155874
-0.145353
-0.126651
-0.10234
-0.075442
-0.0484734
-0.0230615
-2.92761e-05
0.0203572
0.0381473
0.053534
0.0667556
0.0780509
-0.183326
-0.181026
-0.17015
-0.150987
-0.126025
-0.0982998
-0.0703754
-0.0439396
-0.0198667
0.00154309
0.0203202
0.0366493
0.0507668
0.0629117
-0.208474
-0.205646
-0.194471
-0.174892
-0.149333
-0.120835
-0.0920033
-0.0645848
-0.0395057
-0.0171015
0.00263791
0.0198881
0.0348828
0.0478611
0.0590515
-0.233093
-0.229696
-0.21827
-0.198318
-0.17222
-0.143006
-0.113319
-0.0849623
-0.0589143
-0.0355474
-0.0148727
0.00327488
0.0191258
0.032919
0.044884
0.0552328
-0.257083
-0.253165
-0.241506
-0.221217
-0.194643
-0.164772
-0.134285
-0.105038
-0.0780614
-0.053766
-0.0321857
-0.0131666
0.00351749
0.0181049
0.0308259
0.0418965
0.0514541
-0.280404
-0.275998
-0.264136
-0.243539
-0.216557
-0.186094
-0.154864
-0.124778
-0.0969166
-0.0717296
-0.0492756
-0.029413
-0.0119208
0.00343822
0.0168944
0.0286667
0.0388978
-0.303019
-0.298138
-0.286061
-0.265289
-0.237924
-0.206931
-0.175021
-0.14415
-0.11545
-0.0894113
-0.0661178
-0.0454418
-0.0271685
-0.0110623
0.00310679
0.0155593
0.0264433
0.035864
-0.32489
-0.319548
-0.307295
-0.286365
-0.2587
-0.227247
-0.194722
-0.163123
-0.133634
-0.106785
-0.0826883
-0.0612312
-0.0422054
-0.0253781
-0.01052
0.00259038
0.0141061
0.0241257
0.0335196
-0.345978
-0.340187
-0.327792
-0.306736
-0.278854
-0.247005
-0.213932
-0.181666
-0.151439
-0.123825
-0.0989642
-0.0767599
-0.0570122
-0.0394912
-0.0239692
-0.0102242
0.00190153
0.012502
0.022415
0.0315725
-0.366244
-0.360018
-0.347507
-0.326378
-0.298335
-0.266177
-0.23262
-0.19975
-0.16884
-0.140508
-0.114923
-0.0920075
-0.0715698
-0.0533843
-0.0372245
-0.022869
-0.0101554
0.00100717
0.0114214
0.0210842
-0.385656
-0.379005
-0.366407
-0.345257
-0.317117
-0.284724
-0.250754
-0.217347
-0.185811
-0.15681
-0.130544
-0.106955
-0.0858604
-0.0670404
-0.0502702
-0.035329
-0.0220504
-0.0103452
0.000552133
0.0107011
-0.404182
-0.397116
-0.384459
-0.363338
-0.335169
-0.302606
-0.268314
-0.234431
-0.202328
-0.172709
-0.145806
-0.121582
-0.0998666
-0.0804434
-0.0630911
-0.0475899
-0.0337695
-0.0215421
-0.0101799
0.000436542
-0.421793
-0.414325
-0.401633
-0.380592
-0.352461
-0.319805
-0.285261
-0.250976
-0.218367
-0.188184
-0.160691
-0.135873
-0.113572
-0.0935781
-0.0756729
-0.059638
-0.0452999
-0.0325712
-0.0207628
-0.00969773
-0.438463
-0.430606
-0.417905
-0.396989
-0.368965
-0.336294
-0.301571
-0.266958
-0.233907
-0.203215
-0.17518
-0.14981
-0.126961
-0.10643
-0.0880018
-0.0714604
-0.0566292
-0.043421
-0.0311855
-0.019691
-0.454169
-0.445937
-0.433251
-0.412507
-0.384655
-0.352046
-0.317223
-0.282353
-0.248929
-0.217784
-0.189257
-0.163378
-0.140019
-0.118985
-0.100065
-0.083045
-0.067746
-0.0540807
-0.0414378
-0.0295334
-0.468893
-0.460299
-0.447651
-0.427123
-0.399507
-0.367037
-0.332194
-0.297143
-0.263411
-0.231873
-0.202904
-0.176561
-0.152732
-0.131231
-0.111851
-0.0943805
-0.0786397
-0.0645403
-0.0515101
-0.039216
-0.482618
-0.473678
-0.461089
-0.440819
-0.413502
-0.381247
-0.346463
-0.311309
-0.277338
-0.245467
-0.216108
-0.189348
-0.165089
-0.143156
-0.123348
-0.105456
-0.0893003
-0.0747907
-0.0613936
-0.0487305
-0.495334
-0.486063
-0.473553
-0.45358
-0.426622
-0.394657
-0.360013
-0.324832
-0.290692
-0.25855
-0.228856
-0.201724
-0.177076
-0.154749
-0.134546
-0.116263
-0.099719
-0.0848234
-0.0710804
-0.0580692
-0.507032
-0.497445
-0.485034
-0.465395
-0.438854
-0.407251
-0.372828
-0.337698
-0.303461
-0.27111
-0.241135
-0.213679
-0.188685
-0.166
-0.145436
-0.126792
-0.109887
-0.0946308
-0.0805633
-0.0672252
-0.517707
-0.507823
-0.495526
-0.476255
-0.450186
-0.419018
-0.384892
-0.349892
-0.31563
-0.283135
-0.252935
-0.225204
-0.199906
-0.176901
-0.156009
-0.137036
-0.119798
-0.104206
-0.0898358
-0.0761917
-0.527358
-0.517194
-0.505028
-0.486156
-0.460611
-0.429945
-0.396196
-0.361404
-0.327189
-0.294615
-0.264246
-0.236289
-0.21073
-0.187444
-0.16626
-0.146987
-0.129445
-0.113543
-0.0988925
-0.0849626
-0.53599
-0.525565
-0.513542
-0.495097
-0.470123
-0.440026
-0.406729
-0.372223
-0.338129
-0.30554
-0.27506
-0.246927
-0.221151
-0.197623
-0.17618
-0.15664
-0.138823
-0.122637
-0.107729
-0.093532
-0.54361
-0.532942
-0.521075
-0.50308
-0.478722
-0.449255
-0.416485
-0.382341
-0.348441
-0.315904
-0.28537
-0.257111
-0.231163
-0.207432
-0.185766
-0.165989
-0.147926
-0.131482
-0.116343
-0.101894
-0.550228
-0.539337
-0.527636
-0.510112
-0.486409
-0.457632
-0.425459
-0.391753
-0.35812
-0.325702
-0.295172
-0.266838
-0.240761
-0.216866
-0.195012
-0.175031
-0.15675
-0.140074
-0.124733
-0.110047
-0.555858
-0.544766
-0.533239
-0.516204
-0.49319
-0.465156
-0.433649
-0.400455
-0.367162
-0.334927
-0.304461
-0.276103
-0.249942
-0.225923
-0.203916
-0.183762
-0.165294
-0.148415
-0.132886
-0.117999
-0.560521
-0.549248
-0.537903
-0.52137
-0.499075
-0.471834
-0.441056
-0.408446
-0.375563
-0.343579
-0.313234
-0.284903
-0.258703
-0.234599
-0.212474
-0.19218
-0.173553
-0.156496
-0.140798
-0.125812
-0.564236
-0.552805
-0.541648
-0.525626
-0.504076
-0.477671
-0.447683
-0.415726
-0.383324
-0.351655
-0.321491
-0.293238
-0.267044
-0.242893
-0.220686
-0.200283
-0.181527
-0.164318
-0.148475
-0.133399
-0.567031
-0.555465
-0.544499
-0.528995
-0.508209
-0.482679
-0.453537
-0.422299
-0.390445
-0.359157
-0.329231
-0.301107
-0.274963
-0.250806
-0.228551
-0.208069
-0.189213
-0.17188
-0.155909
-0.140725
-0.568934
-0.557256
-0.546486
-0.531501
-0.511494
-0.486872
-0.458626
-0.428168
-0.396929
-0.366085
-0.336455
-0.308512
-0.282462
-0.258337
-0.236069
-0.21554
-0.196611
-0.17918
-0.163103
-0.147817
-0.569977
-0.558211
-0.547638
-0.533173
-0.513953
-0.490266
-0.462961
-0.433342
-0.402781
-0.372444
-0.343167
-0.315455
-0.289543
-0.265489
-0.243241
-0.222696
-0.203722
-0.186218
-0.170056
-0.154695
-0.570195
-0.558366
-0.547992
-0.534042
-0.515614
-0.492881
-0.466556
-0.437829
-0.408007
-0.378237
-0.34937
-0.321938
-0.296209
-0.272263
-0.250071
-0.229539
-0.210547
-0.192995
-0.176773
-0.161361
-0.569625
-0.557759
-0.547584
-0.534142
-0.516504
-0.49474
-0.469429
-0.441642
-0.412616
-0.383472
-0.355069
-0.327967
-0.302463
-0.278665
-0.25656
-0.236072
-0.217089
-0.199513
-0.183253
-0.167813
-0.568308
-0.55643
-0.546454
-0.533511
-0.516657
-0.495869
-0.471597
-0.444794
-0.416617
-0.388154
-0.360271
-0.333547
-0.308311
-0.284697
-0.262713
-0.242298
-0.22335
-0.205776
-0.189499
-0.174052
-0.566285
-0.554422
-0.544644
-0.532189
-0.516108
-0.496298
-0.473084
-0.447302
-0.420022
-0.392295
-0.364981
-0.338684
-0.313758
-0.290365
-0.268534
-0.24822
-0.229335
-0.211786
-0.195512
-0.180079
-0.563601
-0.551779
-0.542199
-0.530218
-0.514895
-0.496056
-0.473914
-0.449183
-0.422845
-0.395903
-0.36921
-0.343386
-0.318811
-0.295675
-0.274029
-0.253845
-0.235046
-0.217546
-0.201295
-0.185897
-0.560302
-0.548546
-0.539164
-0.527641
-0.513056
-0.495179
-0.474114
-0.450459
-0.4251
-0.39899
-0.372967
-0.34766
-0.323478
-0.300633
-0.279203
-0.259176
-0.240489
-0.223061
-0.206853
-0.191509
-0.556433
-0.544772
-0.535586
-0.524505
-0.510636
-0.493702
-0.473713
-0.45115
-0.426806
-0.40157
-0.376261
-0.351516
-0.327765
-0.305247
-0.284063
-0.26422
-0.245669
-0.228335
-0.212189
-0.196917
-0.552044
-0.540502
-0.531513
-0.520855
-0.507677
-0.491665
-0.472742
-0.451283
-0.427979
-0.403656
-0.379104
-0.354963
-0.331682
-0.309525
-0.288617
-0.268984
-0.250591
-0.233374
-0.217308
-0.202127
-0.547181
-0.535784
-0.526992
-0.516741
-0.504224
-0.489106
-0.471236
-0.450883
-0.428641
-0.405264
-0.381508
-0.358012
-0.335237
-0.313475
-0.292872
-0.273473
-0.255263
-0.238181
-0.222213
-0.207141
-0.541894
-0.530668
-0.522072
-0.512209
-0.500324
-0.486069
-0.469229
-0.449979
-0.428812
-0.40641
-0.383487
-0.360672
-0.338441
-0.317105
-0.296835
-0.277696
-0.259689
-0.242764
-0.226911
-0.211963
-0.53623
-0.5252
-0.516802
-0.507309
-0.496023
-0.482596
-0.46676
-0.448601
-0.428517
-0.407113
-0.385055
-0.362957
-0.341303
-0.320425
-0.300515
-0.28166
-0.263877
-0.247129
-0.231407
-0.2166
-0.530239
-0.519427
-0.511228
-0.502088
-0.49137
-0.478731
-0.463865
-0.44678
-0.427781
-0.40739
-0.386225
-0.364877
-0.343834
-0.323443
-0.30392
-0.285373
-0.267834
-0.251281
-0.235707
-0.221055
-0.523965
-0.513395
-0.505397
-0.496593
-0.48641
-0.474519
-0.460586
-0.44455
-0.426628
-0.407263
-0.387014
-0.366446
-0.346044
-0.32617
-0.30706
-0.288842
-0.271568
-0.255228
-0.239816
-0.225334
-0.517456
-0.507149
-0.499354
-0.490871
-0.481189
-0.470004
-0.456963
-0.441945
-0.425088
-0.406753
-0.387438
-0.367676
-0.347944
-0.328615
-0.309943
-0.292077
-0.275086
-0.258976
-0.243741
-0.229442
-0.510755
-0.500731
-0.493143
-0.484966
-0.475754
-0.465231
-0.453036
-0.439
-0.423188
-0.405881
-0.387513
-0.36858
-0.349545
-0.330788
-0.312579
-0.295085
-0.278396
-0.262532
-0.247489
-0.233386
-0.503906
-0.494183
-0.486805
-0.47892
-0.470149
-0.460244
-0.448847
-0.435752
-0.420958
-0.404671
-0.387259
-0.369172
-0.350859
-0.332698
-0.314975
-0.297875
-0.281506
-0.265905
-0.251066
-0.23717
-0.496948
-0.487543
-0.480379
-0.472776
-0.464415
-0.455085
-0.444436
-0.432238
-0.41843
-0.403147
-0.386692
-0.369467
-0.351896
-0.334355
-0.31714
-0.300455
-0.284422
-0.2691
-0.254479
-0.240802
-0.489922
-0.480849
-0.473903
-0.466571
-0.458594
-0.449796
-0.439846
-0.428495
-0.415635
-0.401335
-0.385832
-0.369479
-0.352668
-0.335769
-0.319084
-0.302832
-0.287154
-0.272125
-0.257733
-0.244286
-0.482862
-0.474136
-0.467411
-0.460341
-0.452722
-0.444416
-0.435114
-0.424559
-0.412604
-0.39926
-0.3847
-0.369222
-0.353186
-0.336948
-0.320814
-0.305015
-0.289707
-0.274986
-0.260837
-0.247629
-0.475804
-0.467434
-0.460935
-0.454121
-0.446838
-0.438985
-0.43028
-0.420467
-0.40937
-0.396949
-0.383314
-0.368712
-0.353461
-0.337902
-0.322338
-0.307011
-0.29209
-0.277691
-0.263796
-0.250837
-0.468779
-0.460774
-0.454505
-0.44794
-0.440972
-0.433536
-0.42538
-0.416255
-0.405966
-0.394428
-0.381698
-0.367964
-0.353506
-0.33864
-0.323664
-0.308826
-0.294308
-0.280246
-0.266617
-0.253916
-0.461815
-0.454182
-0.448147
-0.441826
-0.435155
-0.428102
-0.420449
-0.411958
-0.402424
-0.391726
-0.379872
-0.366995
-0.353332
-0.33917
-0.324798
-0.310467
-0.296369
-0.282658
-0.269306
-0.256872
-0.454938
-0.447682
-0.441885
-0.435804
-0.429414
-0.422714
-0.415519
-0.407609
-0.398775
-0.388871
-0.377858
-0.36582
-0.35295
-0.339501
-0.325748
-0.31194
-0.298277
-0.284931
-0.271868
-0.259711
-0.448171
-0.441295
-0.435739
-0.429896
-0.423774
-0.417399
-0.41062
-0.403239
-0.39505
-0.385888
-0.375679
-0.364458
-0.352372
-0.339641
-0.326519
-0.31325
-0.300038
-0.287072
-0.274309
-0.262438
-0.441536
-0.43504
-0.429727
-0.424121
-0.418254
-0.412181
-0.40578
-0.398878
-0.391279
-0.382807
-0.373357
-0.362925
-0.351611
-0.339598
-0.327117
-0.314402
-0.301656
-0.289085
-0.276633
-0.26506
-0.435049
-0.428934
-0.423866
-0.418494
-0.412873
-0.40708
-0.401023
-0.394553
-0.38749
-0.379653
-0.370916
-0.361239
-0.350678
-0.339381
-0.327547
-0.315399
-0.303135
-0.290974
-0.428727
-0.422988
-0.418167
-0.413029
-0.407647
-0.402115
-0.396369
-0.390289
-0.383708
-0.376452
-0.368378
-0.359417
-0.349587
-0.338996
-0.327814
-0.316245
-0.304477
-0.42258
-0.417215
-0.412642
-0.407736
-0.402586
-0.397299
-0.391838
-0.386106
-0.379958
-0.373228
-0.365766
-0.357479
-0.348351
-0.338453
-0.327922
-0.416621
-0.411624
-0.407298
-0.402623
-0.3977
-0.392645
-0.387444
-0.382024
-0.376262
-0.370004
-0.3631
-0.355441
-0.346983
-0.33776
-0.410856
-0.406221
-0.402141
-0.397697
-0.392995
-0.388161
-0.383199
-0.378059
-0.372639
-0.366801
-0.360403
-0.353323
-0.405291
-0.40101
-0.397176
-0.39296
-0.388477
-0.383854
-0.379112
-0.374222
-0.369104
-0.363639
-0.357692
-0.399929
-0.395995
-0.392404
-0.388416
-0.384147
-0.379727
-0.37519
-0.370524
-0.365672
-0.360533
-0.394774
-0.391178
-0.387826
-0.384064
-0.380005
-0.375781
-0.371434
-0.366971
-0.362352
-0.389827
-0.386559
-0.383443
-0.379902
-0.37605
-0.372015
-0.367848
-0.363568
-0.385086
-0.382138
-0.379252
-0.37593
-0.37228
-0.368427
-0.364429
-0.380551
-0.377914
-0.375253
-0.372143
-0.368691
-0.365015
-0.376222
-0.373884
-0.371442
-0.36854
-0.365279
-0.372097
-0.370049
-0.367818
-0.365116
-0.368176
-0.366405
-0.364377
-0.364457
-0.362953
-0.360941
-0.359691
-0.357628
-0.251534
-0.257164
-0.26263
-0.26794
-0.273098
-0.27811
-0.282982
-0.287721
-0.292333
-0.296826
-0.301207
-0.305483
-0.309662
-0.313752
-0.31776
-0.321695
-0.241331
-0.2468
-0.252123
-0.257302
-0.262344
-0.267253
-0.272035
-0.276695
-0.281239
-0.285673
-0.290004
-0.294237
-0.298381
-0.302441
-0.306425
-0.31034
-0.231496
-0.236794
-0.24196
-0.247
-0.251916
-0.256713
-0.261396
-0.265969
-0.270439
-0.27481
-0.279087
-0.283278
-0.287387
-0.29142
-0.295385
-0.299289
-0.222014
-0.227143
-0.232153
-0.23705
-0.241837
-0.246517