/*--------------------------------*- C++ -*----------------------------------*\
  =========                 |
  \\      /  F ield         | OpenFOAM: The Open Source CFD Toolbox
   \\    /   O peration     | Website:  https://openfoam.org
    \\  /    A nd           | Version:  7
     \\/     M anipulation  |
\*---------------------------------------------------------------------------*/
FoamFile
{
    version     2.0;
    format      ascii;
    class       volVectorField;
    location    "85";
    object      U;
}
// * * * * * * * * * * * * * * * * * * * * * * * * * * * * * * * * * * * * * //

dimensions      [0 1 -1 0 0 0 0];

internalField   nonuniform List<vector> 
8500
(
(-0.00695914 0.00563422 1.51296e-19)
(-0.00646856 0.00506582 1.27018e-19)
(-0.00943201 0.0103652 -1.67232e-19)
(-0.00591271 0.00449288 7.97854e-19)
(-0.00720356 0.00869776 -4.73171e-19)
(0.00263944 0.010357 -1.66796e-21)
(-0.00528235 0.00391331 -4.1483e-19)
(-0.00471643 0.00702704 4.73404e-21)
(0.00760136 0.00782412 3.42583e-19)
(-0.00456767 0.00332533 -1.44818e-19)
(-0.00194641 0.00535359 8.73053e-20)
(0.013075 0.00532489 1.25954e-19)
(0.0402454 0.00354377 -3.73936e-19)
(-0.00375848 0.00272777 7.43333e-19)
(0.00113109 0.00367898 -1.86977e-19)
(0.0190943 0.00286776 -2.72579e-19)
(0.0498274 0.000587145 1.39731e-19)
(0.0933662 -0.00238672 6.655e-19)
(-0.0028444 0.00212012 -3.35158e-19)
(0.0045406 0.00200622 5.18046e-20)
(0.0256922 0.000462646 -3.77664e-19)
(0.0602426 -0.00224128 -5.35445e-19)
(0.108171 -0.00530247 -2.31046e-19)
(0.169318 -0.00802344 -1.29841e-19)
(-0.00181508 0.00150267 -3.25733e-19)
(0.00830617 0.000340014 7.18121e-19)
(0.0328997 -0.0018786 4.49585e-19)
(0.0715227 -0.00492076 2.01269e-19)
(0.124079 -0.00796204 -7.26695e-20)
(0.19029 -0.010296 -4.7843e-19)
(0.269543 -0.0113526 6.73464e-20)
(-0.000660294 0.000876613 5.78826e-20)
(0.0124509 -0.00131303 -1.09251e-19)
(0.0407455 -0.00414185 8.01266e-20)
(0.0836937 -0.00742839 -1.93016e-19)
(0.141106 -0.0103338 4.09668e-19)
(0.212553 -0.0121501 7.445e-19)
(0.297199 -0.0123274 2.30615e-19)
(0.393628 -0.0104609 1.44555e-19)
(0.000629807 0.000244079 -1.94178e-19)
(0.0169968 -0.00294419 -4.53429e-19)
(0.0492556 -0.00631045 -3.43062e-19)
(0.0967774 -0.0097389 1.07386e-19)
(0.159257 -0.0123842 -5.8263e-19)
(0.236086 -0.0135466 -7.2851e-19)
(0.326164 -0.0127078 -9.88282e-20)
(0.427725 -0.00952269 -2.29066e-19)
(0.538168 -0.00387216 -2.44854e-20)
(0.00206464 -0.000391828 -1.4929e-19)
(0.0219639 -0.00454255 -1.16297e-19)
(0.0584523 -0.00836506 5.28307e-19)
(0.110789 -0.0118244 -3.27297e-19)
(0.17853 -0.0140782 8.48345e-19)
(0.260855 -0.0144456 3.59106e-19)
(0.356362 -0.0124544 -2.36661e-19)
(0.462893 -0.00783561 -4.0649e-19)
(0.577397 -0.000580428 -6.50888e-19)
(0.695956 0.00902546 6.91426e-19)
(0.00365302 -0.00102703 2.93171e-19)
(0.0273707 -0.006095 4.78437e-19)
(0.0683545 -0.0102836 1.90009e-20)
(0.125738 -0.0136544 3.00236e-19)
(0.198914 -0.0153787 -7.26989e-19)
(0.286815 -0.0148072 1.76065e-19)
(0.3877 -0.0115297 -1.1477e-19)
(0.498984 -0.00537168 -2.23706e-20)
(0.61715 0.00354701 -2.20289e-19)
(0.737843 0.0147878 -4.87057e-19)
(0.856189 0.0276193 2.41838e-19)
(0.00540313 -0.00165653 -5.27897e-20)
(0.0332332 -0.00758627 -7.20212e-19)
(0.0789767 -0.0120413 -5.56203e-19)
(0.141628 -0.015196 -3.53116e-20)
(0.220387 -0.016247 1.27078e-19)
(0.313908 -0.0145915 -2.46206e-19)
(0.420069 -0.00989858 -6.19477e-22)
(0.535835 -0.00210784 8.31112e-20)
(0.657214 0.00851442 1.22764e-19)
(0.779443 0.0213653 6.90744e-19)
(0.897405 0.0355573 2.86671e-19)
(1.00623 0.0500349 1.75549e-19)
(1.10192 0.0637338 -2.33987e-19)
(0.00732236 -0.00227441 9.30297e-20)
(0.039565 -0.00899902 3.81322e-19)
(0.0903288 -0.0136111 2.39567e-19)
(0.158453 -0.0164141 -4.38245e-19)
(0.242919 -0.0166436 9.45642e-20)
(0.342062 -0.0137593 5.78248e-19)
(0.453351 -0.00752909 3.17332e-19)
(0.573274 0.00197351 4.29563e-20)
(0.69737 0.014319 3.89475e-19)
(0.820513 0.028732 -7.94712e-19)
(0.937423 0.0441739 -2.23319e-19)
(1.04333 0.0594891 -9.57247e-20)
(1.1346 0.0735836 5.63376e-19)
(1.20913 0.0855862 -3.7259e-19)
(0.00941727 -0.00287391 -8.68041e-20)
(0.046377 -0.010314 -5.38311e-20)
(0.102416 -0.0149633 -1.39011e-19)
(0.176202 -0.0172716 4.60556e-19)
(0.266468 -0.016528 3.082e-19)
(0.371197 -0.0122726 -9.95087e-20)
(0.487415 -0.00439277 -1.83154e-20)
(0.61112 0.00688424 3.92424e-19)
(0.737402 0.0209509 -5.98217e-19)
(0.860824 0.0368557 3.66518e-19)
(0.976037 0.0534183 3.75623e-19)
(1.07847 0.0694055 9.96435e-20)
(1.16493 0.083721 -2.01075e-19)
(1.23392 0.095559 2.90017e-19)
(1.2856 0.104483 2.40269e-19)
(0.0116935 -0.00344753 -1.34003e-19)
(0.0536772 -0.0115104 5.91856e-20)
(0.115238 -0.0160668 3.92117e-19)
(0.194856 -0.0177302 6.77503e-21)
(0.290984 -0.0158598 -6.67398e-19)
(0.40122 -0.0100956 -4.59007e-19)
(0.522119 -0.000465399 -3.94023e-19)
(0.649187 0.0126301 -2.07645e-19)
(0.777094 0.0283938 7.90112e-19)
(0.900164 0.0456985 -3.56729e-20)
(1.01307 0.0632373 1.05934e-19)
(1.11154 0.0797245 1.7324e-19)
(1.1929 0.0940902 -5.82582e-19)
(1.25626 0.105617 -4.64717e-19)
(1.30236 0.113992 1.2511e-19)
(1.3332 0.119263 -2.46331e-20)
(1.35147 0.121781 -4.88844e-19)
(0.0141557 -0.00398704 1.7077e-19)
(0.0614702 -0.0125656 2.17173e-19)
(0.128789 -0.0168885 -4.0452e-19)
(0.214386 -0.0177508 -2.18975e-20)
(0.316405 -0.0145994 7.81274e-19)
(0.432025 -0.0071949 4.9129e-19)
(0.557313 0.0042725 -1.97294e-19)
(0.687287 0.0192108 2.91382e-19)
(0.816241 0.036625 -3.12362e-19)
(0.938338 0.055218 -3.15415e-19)
(1.04837 0.0735762 3.21093e-19)
(1.14246 0.0903889 -6.51321e-19)
(1.2185 0.104641 8.24615e-20)
(1.27623 0.115724 3.13327e-19)
(1.31694 0.123458 -1.70064e-19)
(1.34304 0.128017 2.42831e-19)
(1.35743 0.129842 -2.93306e-19)
(1.36304 0.129387 4.87087e-20)
(0.0168075 -0.0044836 1.9938e-19)
(0.0697577 -0.013456 -6.61178e-19)
(0.143058 -0.0173945 1.06584e-19)
(0.234758 -0.0172939 -1.11085e-19)
(0.342661 -0.0127082 -2.75706e-19)
(0.463502 -0.00354048 -2.19886e-19)
(0.592842 0.0098352 1.98835e-19)
(0.725233 0.0266198 -9.11933e-19)
(0.854646 0.0456162 -2.12903e-19)
(0.975173 0.0653686 1.38712e-19)
(1.08182 0.0843801 -1.76099e-19)
(1.17119 0.101345 5.01784e-19)
(1.24178 0.115328 3.51994e-19)
(1.29394 0.12585 1.21851e-19)
(1.32949 0.132866 6.75118e-19)
(1.35117 0.136675 -6.65665e-19)
(1.36204 0.1378 4.09683e-19)
(1.36503 0.136759 5.75989e-19)
(1.36272 0.134527 -4.09191e-19)
(1.35669 0.129831 1.14723e-19)
(0.0196514 -0.00492783 1.5693e-20)
(0.0785374 -0.014157 -7.05401e-21)
(0.158028 -0.0175501 4.82962e-19)
(0.255928 -0.0163207 -6.91983e-20)
(0.369673 -0.01015 -3.10382e-20)
(0.495527 0.000893649 5.22817e-19)
(0.628546 0.0162314 6.01448e-19)
(0.76284 0.0348445 1.66599e-19)
(0.892126 0.0553343 3.56532e-19)
(1.01052 0.0761023 -2.33287e-19)
(1.11334 0.0955953 -1.98726e-19)
(1.19771 0.112542 -5.04883e-21)
(1.26278 0.126113 -2.43688e-19)
(1.3095 0.135969 -9.38124e-21)
(1.34015 0.142207 -4.74144e-19)
(1.35775 0.145239 1.86953e-19)
(1.36545 0.145663 4.35601e-19)
(1.36615 0.144048 -2.1945e-19)
(1.36226 0.14132 2.51809e-19)
(1.35526 0.136359 4.50744e-19)
(0.0226886 -0.0053099 6.05487e-20)
(0.0878037 -0.0146433 -1.68615e-19)
(0.173674 -0.0173204 -1.00217e-20)
(0.277845 -0.0147929 5.29003e-21)
(0.397353 -0.006891 -3.41951e-19)
(0.527974 0.00612899 -4.91296e-20)
(0.664262 0.0234642 -6.19732e-19)
(0.799929 0.0438665 6.44705e-19)
(0.928515 0.065742 3.32558e-19)
(1.04425 0.0873697 3.0474e-20)
(1.14285 0.10717 -2.99876e-21)
(1.22203 0.123935 -1.74769e-19)
(1.28159 0.136963 1.02517e-19)
(1.32305 0.146064 2.80985e-19)
(1.34909 0.151475 -4.88471e-19)
(1.36294 0.153716 3.72189e-19)
(1.36781 0.153445 -4.48667e-19)
(1.36651 0.15127 -2.00981e-20)
(1.36128 0.148062 1.50655e-21)
(1.35346 0.142844 2.02414e-19)
(0.0259191 -0.00561962 -1.33047e-19)
(0.0975472 -0.014889 -1.51489e-19)
(0.189969 -0.0166708 2.18592e-19)
(0.30045 -0.0126743 -9.73204e-20)
(0.425606 -0.00290094 -3.04123e-20)
(0.56071 0.0121821 -3.0239e-19)
(0.69983 0.0315306 3.39247e-19)
(0.836332 0.0536622 -6.10343e-19)
(0.96366 0.0767986 5.5092e-20)
(1.07625 0.0991212 9.47746e-20)
(1.17031 0.119055 -5.13577e-20)
(1.24419 0.135484 3.67483e-20)
(1.29831 0.14785 -4.28993e-19)
(1.33471 0.156121 -3.27996e-19)
(1.35645 0.16067 2.75886e-19)
(1.36689 0.162113 -8.87772e-20)
(1.36924 0.161156 -5.31564e-19)
(1.3662 0.158436 -1.00845e-19)
(1.35983 0.154765 -4.43647e-19)
(1.35135 0.149294 -5.47697e-19)
(0.0293416 -0.00584653 -3.13487e-20)
(0.107754 -0.0148684 2.24653e-19)
(0.206877 -0.0155674 1.62819e-19)
(0.323676 -0.00993049 4.80164e-19)
(0.454328 0.00184669 -1.67292e-20)
(0.593596 0.0190641 2.58434e-19)
(0.735089 0.040422 -5.48371e-19)
(0.871887 0.0642033 1.93629e-19)
(0.99743 0.088461 -1.63407e-19)
(1.10646 0.111307 2.35325e-19)
(1.19573 0.131203 5.87574e-20)
(1.26423 0.147151 1.3741e-19)
(1.31302 0.158751 3.97859e-19)
(1.34463 0.166131 4.94714e-20)
(1.36237 0.169793 -2.47409e-19)
(1.36973 0.170437 4.10174e-19)
(1.36986 0.168808 1.44876e-19)
(1.36531 0.165558 -6.83638e-20)
(1.35798 0.161438 4.16539e-19)
(1.34895 0.15572 2.75481e-19)
(0.0329534 -0.00598 1.02354e-19)
(0.118408 -0.0145556 1.15823e-19)
(0.224356 -0.0139775 -2.88387e-19)
(0.347452 -0.00652994 -6.69972e-20)
(0.483412 0.00737403 8.58489e-20)
(0.626495 0.0267809 -5.03277e-20)
(0.769884 0.0501242 3.1037e-19)
(0.906447 0.075457 -9.84255e-20)
(1.02971 0.100684 -1.21583e-19)
(1.13481 0.12388 -4.15875e-19)
(1.21909 0.143573 -2.65106e-19)
(1.28222 0.158905 -2.46846e-19)
(1.32585 0.169648 -2.00802e-19)
(1.35292 0.176088 7.71028e-20)
(1.36699 0.178847 -1.50131e-19)
(1.37157 0.178697 1.7897e-20)
(1.36974 0.176412 2.87976e-19)
(1.36391 0.172646 3.06136e-19)
(1.35578 0.16809 2.1869e-20)
(1.34629 0.162127 1.9204e-19)
(0.0367503 -0.00600934 5.22152e-20)
(0.129488 -0.0139255 1.96521e-19)
(0.242361 -0.0118702 1.56703e-19)
(0.371699 -0.00244427 -2.62059e-19)
(0.512744 0.0136985 2.42944e-19)
(0.659266 0.0353325 -7.88435e-20)
(0.804066 0.0606178 -1.69337e-19)
(0.939878 0.0873871 4.08319e-19)
(1.06041 0.113423 -1.03004e-19)
(1.16126 0.136793 -3.29424e-21)
(1.24043 0.156124 2.84765e-19)
(1.29824 0.170719 -2.56359e-19)
(1.33689 0.180527 1.13164e-19)
(1.35971 0.185989 -2.85403e-19)
(1.37042 0.187836 4.83034e-19)
(1.37252 0.186903 -3.67049e-19)
(1.36899 0.183976 -2.22014e-19)
(1.36206 0.179708 -2.45128e-21)
(1.35325 0.174727 -3.2739e-19)
(1.34341 0.16852 -3.9929e-21)
(0.0407267 -0.00592391 -2.36299e-19)
(0.140968 -0.0129536 -8.81995e-20)
(0.260838 -0.00921631 -2.90803e-19)
(0.396331 0.00235128 -1.61175e-19)
(0.54221 0.0208325 -8.42127e-20)
(0.691771 0.0447135 -4.00081e-20)
(0.837494 0.0718783 1.87145e-19)
(0.97206 0.0999544 -1.0316e-19)
(1.08945 0.12663 -5.00271e-20)
(1.1858 0.150001 1.2788e-19)
(1.25978 0.16882 -1.73128e-19)
(1.31237 0.182569 2.22241e-19)
(1.34628 0.191377 2.1437e-19)
(1.36514 0.195833 4.85414e-20)
(1.37278 0.196767 -1.37237e-19)
(1.37268 0.195061 -3.22188e-20)
(1.36767 0.191508 -1.9006e-19)
(1.3598 0.186751 -8.11517e-20)
(1.35044 0.181352 1.34043e-19)
(1.3403 0.174902 -2.2929e-19)
(0.0448755 -0.0057132 7.7765e-20)
(0.15282 -0.0116166 -1.33438e-19)
(0.279732 -0.00598942 2.27512e-19)
(0.42126 0.00787745 1.07369e-19)
(0.571691 0.0287833 -1.549e-19)
(0.723875 0.0549129 1.91789e-19)
(0.870034 0.0838769 4.8348e-20)
(1.00289 0.113117 -8.77968e-20)
(1.11677 0.14026 2.36168e-19)
(1.20842 0.163463 7.08722e-20)
(1.27719 0.18163 1.35587e-19)
(1.3247 0.194435 -1.40234e-19)
(1.3541 0.202189 -9.41112e-20)
(1.3693 0.20562 2.00275e-19)
(1.37417 0.205645 -5.76415e-20)
(1.37213 0.20318 3.31826e-19)
(1.36583 0.199017 1.76319e-19)
(1.35718 0.19378 -2.94215e-20)
(1.34736 0.18797 9.7694e-20)
(1.33699 0.181274 3.73475e-19)
(0.049188 -0.00536699 -3.86093e-20)
(0.165011 -0.00989235 2.16009e-20)
(0.29898 -0.00216579 -2.06758e-19)
(0.446393 0.0141507 1.33894e-19)
(0.601067 0.0375528 1.26126e-19)
(0.755447 0.0659146 -1.81211e-19)
(0.901565 0.0965808 8.39739e-20)
(1.03227 0.126832 -1.64691e-19)
(1.14233 0.154267 -2.36137e-19)
(1.22913 0.177138 8.59235e-20)
(1.29273 0.194525 1.59178e-20)
(1.33532 0.206301 1.35923e-19)
(1.36048 0.212957 9.19475e-20)
(1.3723 0.215351 -6.29761e-20)
(1.37468 0.214474 -1.32308e-20)
(1.37093 0.211265 -5.04553e-20)
(1.36353 0.206505 -2.64537e-19)
(1.35422 0.200797 2.21555e-20)
(1.34403 0.19458 -1.77035e-19)
(1.33347 0.187636 1.68193e-21)
(0.0536543 -0.00487542 -4.30424e-20)
(0.177507 -0.0077605 -5.5503e-20)
(0.318517 0.00227518 2.18304e-19)
(0.471635 0.0211828 -2.74688e-20)
(0.63022 0.0471375 1.31389e-21)
(0.786359 0.0776972 -1.22579e-19)
(0.931974 0.109954 -2.20297e-20)
(1.06013 0.141055 8.83372e-20)
(1.1661 0.168607 3.04037e-19)
(1.24797 0.190989 -9.83511e-20)
(1.30645 0.207477 1.69083e-20)
(1.34433 0.218151 5.43378e-20)
(1.36552 0.223676 -1.06798e-19)
(1.37425 0.225029 -6.93299e-20)
(1.3744 0.223259 1.86809e-20)
(1.36914 0.219321 6.58248e-20)
(1.36081 0.213977 1.68756e-19)
(1.35096 0.207804 -4.48907e-21)
(1.34047 0.201184 6.50516e-20)
(1.32977 0.193988 4.48895e-20)
(0.0582629 -0.00422913 7.49379e-20)
(0.190267 -0.00520252 1.54815e-19)
(0.338274 0.0073506 1.07415e-19)
(0.496886 0.028981 -5.94635e-20)
(0.659033 0.0575286 2.21999e-19)
(0.816494 0.0902349 1.32413e-19)
(0.961162 0.123956 -2.00052e-19)
(1.0864 0.155739 -7.03397e-20)
(1.18807 0.183236 9.81313e-22)
(1.26495 0.204982 -5.95094e-20)
(1.31844 0.220464 -1.73207e-19)
(1.35182 0.229974 2.90458e-20)
(1.3693 0.234343 3.02405e-22)
(1.37522 0.234654 -1.85789e-19)
(1.37338 0.232004 8.58262e-20)
(1.36682 0.227351 -4.66217e-20)
(1.3577 0.221435 -2.07517e-19)
(1.3474 0.214802 1.01289e-19)
(1.33667 0.207779 -2.16353e-19)
(1.32586 0.200326 -1.30827e-19)
(0.0630008 -0.00341937 -2.63025e-20)
(0.20325 -0.00220202 -6.65609e-20)
(0.358177 0.0130739 -1.11876e-19)
(0.52205 0.0375475 -5.44216e-21)
(0.68739 0.0687122 -1.07143e-20)
(0.845738 0.103497 -1.24901e-19)
(0.989039 0.138546 2.91266e-20)
(1.11104 0.170841 2.74722e-20)
(1.20824 0.198113 -5.73621e-20)
(1.28013 0.219083 4.7166e-21)
(1.32876 0.233465 9.12156e-20)
(1.35787 0.241759 -1.21146e-20)
(1.37193 0.244955 7.05586e-20)
(1.37529 0.244228 3.18628e-20)
(1.3717 0.240712 -1.76612e-19)
(1.36401 0.235357 1.36254e-20)
(1.35422 0.228879 1.09981e-19)
(1.34356 0.221788 -2.65118e-20)
(1.33265 0.214362 5.09948e-21)
(1.32177 0.206647 -1.83658e-20)
(0.0678538 -0.0024381 -2.40355e-20)
(0.216412 0.00125503 -2.35728e-20)
(0.378154 0.0194547 -4.21469e-20)
(0.547025 0.0468796 -2.79742e-20)
(0.715181 0.0806693 -7.3775e-20)
(0.873987 0.11745 8.61845e-20)
(1.01553 0.15368 1.72055e-19)
(1.13402 0.186312 6.04827e-20)
(1.22662 0.213196 3.12222e-20)
(1.29356 0.233263 -7.50632e-20)
(1.3375 0.24646 -8.1647e-22)
(1.36258 0.253497 4.95425e-20)
(1.37347 0.255508 -6.41856e-20)
(1.37454 0.253751 2.47708e-20)
(1.3694 0.249382 8.40429e-20)
(1.36075 0.243339 -2.93333e-20)
(1.35041 0.236307 -5.24413e-20)
(1.33945 0.228761 -4.90624e-20)
(1.32841 0.220932 1.76317e-19)
(1.31748 0.212947 6.23292e-20)
(0.0728065 -0.00127808 -4.27441e-20)
(0.229704 0.00518009 5.2003e-20)
(0.398126 0.0264984 -1.19342e-20)
(0.571713 0.0569696 3.79379e-20)
(0.742299 0.0933763 -3.43357e-20)
(0.901145 0.132056 -2.11479e-20)
(1.04056 0.169312 -8.34773e-20)
(1.1553 0.202109 9.79511e-21)
(1.24323 0.228449 2.39698e-20)
(1.30529 0.247493 5.43606e-20)
(1.34472 0.259432 -2.14329e-20)
(1.36603 0.265178 -1.68938e-20)
(1.37401 0.266 1.57158e-20)
(1.37302 0.263223 -2.78789e-20)
(1.36652 0.258016 6.40223e-20)
(1.35706 0.251297 4.29572e-20)
(1.34626 0.243717 -7.40446e-21)
(1.33508 0.235716 -4.91345e-21)
(1.32395 0.227481 -4.75472e-20)
(1.313 0.219222 -5.99258e-20)
(0.0778422 6.69873e-05 9.20137e-21)
(0.24308 0.00958193 -1.62161e-20)
(0.418017 0.0342065 1.11807e-20)
(0.596018 0.0678052 -1.5484e-20)
(0.768643 0.106805 -5.98337e-20)
(0.927127 0.147273 2.79239e-20)
(1.06409 0.185395 1.37697e-20)
(1.17487 0.218186 -6.56802e-20)
(1.25809 0.243832 -4.17323e-20)
(1.31537 0.261746 -4.01503e-21)
(1.3505 0.272365 -5.90942e-20)
(1.36829 0.276794 6.15986e-20)
(1.37362 0.276428 -1.1301e-22)
(1.37079 0.272643 -8.35012e-21)
(1.36312 0.266612 -1.62472e-20)
(1.35296 0.259227 8.03768e-21)
(1.3418 0.251104 5.66754e-21)
(1.33046 0.242647 -2.25462e-21)
(1.31927 0.234006 -1.74163e-20)
(1.30831 0.225464 2.14038e-20)
(0.0829435 0.00160244 3.06576e-21)
(0.256487 0.0144664 1.06731e-20)
(0.437749 0.0425759 5.99747e-21)
(0.619844 0.0793689 -2.80999e-21)
(0.794116 0.120922 3.94702e-20)
(0.951853 0.163059 -8.88598e-21)
(1.08606 0.201882 1.42231e-20)
(1.19273 0.234499 3.1691e-20)
(1.27123 0.259311 -5.75738e-21)
(1.32387 0.275997 1.45003e-21)
(1.35491 0.285243 1.62175e-20)
(1.36943 0.288339 -8.72315e-21)
(1.37236 0.286788 1.14417e-20)
(1.3679 0.282009 2.088e-21)
(1.35921 0.275167 -2.20588e-20)
(1.34848 0.267126 1.08883e-21)
(1.33704 0.258465 2.91577e-20)
(1.32558 0.249551 -6.14542e-21)
(1.31438 0.2405 9.18421e-21)
(1.30343 0.231669 -1.03844e-20)
(0.088092 0.00333252 1.25221e-21)
(0.269874 0.0198365 1.57014e-20)
(0.457244 0.0515996 8.55058e-21)
(0.6431 0.091639 -1.7539e-21)
(0.81863 0.135692 3.63212e-20)
(0.975257 0.179366 -1.03352e-20)
(1.10645 0.218724 1.94801e-20)
(1.20889 0.251003 2.6377e-20)
(1.2827 0.274851 -5.49214e-21)
(1.33085 0.290223 1.24267e-21)
(1.35802 0.298052 1.83536e-20)
(1.36952 0.299803 -7.47009e-21)
(1.37028 0.297075 7.44857e-21)
(1.36438 0.291315 -1.86026e-21)
(1.35483 0.283677 -1.79509e-20)
(1.34363 0.274988 -5.353e-22)
(1.33198 0.265792 2.89089e-20)
(1.32045 0.256418 -5.73086e-21)
(1.30926 0.246956 1.08373e-20)
(1.29835 0.237829 -1.16923e-20)
(0.0932685 0.00526041 1.09221e-20)
(0.28319 0.0256921 -2.01577e-20)
(0.476425 0.0612662 1.03289e-20)
(0.665696 0.104589 -8.38864e-21)
(0.842102 0.151075 -5.74987e-20)
(0.997279 0.196148 2.35128e-20)
(1.12523 0.235872 1.0806e-20)
(1.22335 0.267657 -7.43935e-20)
(1.29254 0.290418 -3.14381e-20)
(1.33636 0.3044 -2.66697e-23)
(1.3599 0.310778 -4.94265e-20)
(1.36862 0.311179 4.16339e-20)
(1.36743 0.307284 -9.45688e-21)
(1.36028 0.300559 5.99269e-21)
(1.35 0.292137 -2.35756e-20)
(1.33843 0.282807 1.80496e-20)
(1.32662 0.273078 1.16495e-20)
(1.31507 0.263242 -2.06243e-21)
(1.30392 0.253366 -2.3336e-20)
(1.29306 0.243936 2.1449e-20)
(0.0984529 0.00738801 -2.35766e-20)
(0.296381 0.0320299 -1.08285e-20)
(0.495215 0.0715602 -1.59112e-20)
(0.687549 0.118189 5.49091e-20)
(0.864457 0.167028 2.79911e-22)
(1.01787 0.213354 -2.95308e-20)
(1.14237 0.253278 -1.2104e-19)
(1.23614 0.284418 1.19347e-20)
(1.30078 0.305981 1.39048e-20)
(1.34047 0.318508 6.20553e-20)
(1.36061 0.323406 9.36233e-21)
(1.36679 0.322457 -5.32141e-20)
(1.36386 0.317408 5.04645e-20)
(1.35562 0.309733 -2.05289e-20)
(1.34474 0.300539 7.82601e-20)
(1.33288 0.290575 -7.18288e-21)
(1.32098 0.280315 4.13382e-21)
(1.30944 0.270015 3.57797e-21)
(1.29835 0.259722 -6.21609e-20)
(1.28757 0.249983 -3.76444e-20)
(0.103625 0.009716 -8.86077e-21)
(0.309394 0.0388436 -5.19844e-20)
(0.513542 0.0824619 4.13028e-20)
(0.708578 0.132404 -5.27705e-20)
(0.885626 0.183504 -9.53349e-20)
(1.03698 0.230932 8.36956e-20)
(1.15788 0.270892 1.3859e-19)
(1.24727 0.301245 4.98775e-20)
(1.30749 0.32151 3.4843e-20)
(1.34323 0.332524 -1.00566e-19)
(1.36021 0.335925 7.75485e-20)
(1.36407 0.333628 9.0631e-21)
(1.35961 0.327439 -9.95719e-20)
(1.35044 0.318831 3.91109e-20)
(1.33906 0.308876 1.40364e-19)
(1.32699 0.298284 -9.70889e-20)
(1.31504 0.287493 -2.79848e-20)
(1.30355 0.276727 -2.72221e-20)
(1.29256 0.266015 1.26583e-19)
(1.28187 0.255962 7.27399e-20)
(0.108764 0.0122438 6.15764e-20)
(0.322176 0.0461236 -1.05228e-19)
(0.531334 0.0939478 -1.54137e-19)
(0.72871 0.147196 6.99289e-21)
(0.905549 0.200455 -2.79679e-20)
(1.05458 0.248832 -1.14831e-19)
(1.17175 0.288667 -1.95595e-20)
(1.25677 0.318097 5.94941e-20)
(1.3127 0.336973 -9.63432e-20)
(1.3447 0.346428 7.93578e-20)
(1.35875 0.348318 9.27487e-20)
(1.36053 0.344683 -5.87951e-20)
(1.3547 0.33737 2.4188e-20)
(1.34474 0.327843 1.23542e-19)
(1.33297 0.317138 -1.66206e-19)
(1.32076 0.305925 2.93791e-20)
(1.30882 0.294604 8.04091e-20)
(1.29741 0.283368 -2.4515e-20)
(1.28654 0.272237 -2.61866e-20)
(1.27595 0.261864 -4.43076e-21)
(0.113848 0.0149695 9.05522e-20)
(0.334677 0.0538574 1.69433e-19)
(0.548522 0.105991 9.05656e-20)
(0.747874 0.162523 -1.0815e-19)
(0.924172 0.217829 2.83805e-19)
(1.07065 0.267 4.39491e-20)
(1.18398 0.306553 -1.21862e-19)
(1.26468 0.334936 -8.83262e-20)
(1.31646 0.352341 -7.10563e-20)
(1.34494 0.360199 2.37899e-20)
(1.35629 0.360572 -8.11757e-20)
(1.35618 0.35561 2.71793e-21)
(1.34918 0.347191 -5.58536e-20)
(1.33856 0.336761 -7.68432e-20)
(1.32649 0.325316 -1.31916e-20)
(1.3142 0.313485 -8.26615e-21)
(1.30232 0.301636 -1.4866e-19)
(1.29102 0.28993 1.13227e-19)
(1.2803 0.278377 -1.73116e-19)
(1.26983 0.267681 -1.01488e-19)
(0.118858 0.0178898 -1.09768e-19)
(0.346844 0.0620293 -4.54557e-20)
(0.56504 0.118559 2.03083e-19)
(0.766008 0.178342 5.19658e-20)
(0.941448 0.235575 -1.78435e-19)
(1.08516 0.285382 -1.03875e-19)
(1.19459 0.324503 -3.46299e-20)
(1.27103 0.351723 2.26035e-19)
(1.31882 0.367587 1.62546e-19)
(1.344 0.373818 -5.61118e-20)
(1.35287 0.372673 -3.28814e-20)
(1.35109 0.366398 8.32347e-20)
(1.34306 0.356892 -9.15744e-20)
(1.33191 0.345573 4.27491e-20)
(1.31962 0.333399 1.88461e-20)
(1.30732 0.320956 -2.36833e-20)
(1.29552 0.308579 1.81133e-19)
(1.28438 0.2964 -7.69276e-20)
(1.27382 0.284426 1.56296e-19)
(1.26349 0.273402 -5.54934e-20)
(0.123772 0.0210005 -6.15145e-20)
(0.35863 0.0706208 -1.14357e-19)
(0.580827 0.13162 -1.8239e-19)
(0.783053 0.194604 1.10619e-19)
(0.957339 0.253639 6.09631e-20)
(1.09811 0.303925 -8.72186e-20)
(1.20359 0.34247 1.46195e-19)
(1.27585 0.36842 -2.26695e-19)
(1.31984 0.382681 -2.42455e-19)
(1.34192 0.387264 1.47261e-19)
(1.34854 0.384606 5.54368e-20)
(1.34527 0.377035 -6.21403e-20)
(1.33638 0.36646 9.46848e-20)
(1.3248 0.354269 7.50631e-20)
(1.31238 0.341375 -5.53797e-20)
(1.30011 0.328324 -1.90731e-20)
(1.28845 0.315421 -1.3832e-19)
(1.27748 0.302768 2.86799e-20)
(1.26711 0.290374 -1.19779e-19)
(1.25695 0.279019 -1.9744e-20)
(0.12857 0.0242956 5.11704e-20)
(0.369987 0.0796108 -8.95035e-20)
(0.595826 0.145135 1.64434e-19)
(0.798958 0.21126 2.7944e-19)
(0.971812 0.271964 -4.03872e-19)
(1.10948 0.322575 3.57414e-19)
(1.211 0.360406 9.62945e-20)
(1.27919 0.38499 -1.40482e-19)
(1.31956 0.397597 1.6725e-19)
(1.33876 0.400516 9.94462e-20)
(1.34334 0.396354 1.24149e-19)
(1.33876 0.387507 -2.167e-19)
(1.32914 0.375883 -4.51591e-20)
(1.31725 0.362835 1.08703e-19)
(1.30477 0.349231 4.17156e-20)
(1.29258 0.335577 1.94258e-19)
(1.28108 0.322149 2.45758e-19)
(1.27032 0.309023 -6.0869e-20)
(1.26016 0.296208 1.06927e-19)
(1.25019 0.284521 1.20704e-19)
(0.133232 0.0277682 -1.46286e-20)
(0.38087 0.0889753 -2.07495e-19)
(0.609982 0.159065 -2.87043e-19)
(0.813677 0.228258 -3.76682e-19)
(0.984842 0.290494 -3.65669e-20)
(1.11928 0.341278 1.39499e-19)
(1.21685 0.378267 -2.70075e-20)
(1.28109 0.401397 4.75723e-20)
(1.31802 0.412307 -7.38334e-20)
(1.33457 0.413555 1.24381e-19)
(1.3373 0.407902 -1.91085e-19)
(1.33159 0.3978 2.51042e-19)
(1.32138 0.385148 1.45245e-19)
(1.30927 0.371259 6.68102e-20)
(1.29679 0.356955 -1.00283e-19)
(1.28474 0.342703 -1.07702e-19)
(1.27344 0.328752 -1.035e-19)
(1.2629 0.315153 7.64408e-21)
(1.25299 0.301918 1.39462e-19)
(1.24322 0.289897 -1.46802e-19)
(0.137738 0.0314102 -2.60857e-20)
(0.391236 0.0986879 1.62072e-19)
(0.623248 0.173367 2.04606e-19)
(0.827171 0.245545 -3.20311e-20)
(0.996409 0.309173 9.67617e-20)
(1.12752 0.359981 2.59326e-20)
(1.22116 0.396006 -1.4231e-19)
(1.28159 0.417605 1.13469e-19)
(1.31528 0.426784 1.06836e-19)
(1.32938 0.426361 -1.87267e-19)
(1.33047 0.419234 3.03269e-19)
(1.32379 0.4079 -2.54642e-19)
(1.31311 0.394241 1.47921e-19)
(1.30086 0.379527 -2.17318e-19)
(1.28845 0.364532 3.22262e-19)
(1.27657 0.349687 -2.05382e-19)
(1.26551 0.335217 -6.05788e-20)
(1.25523 0.321145 -8.21402e-20)
(1.24558 0.307491 -1.74606e-19)
(1.23603 0.295134 2.59507e-21)
(0.142069 0.0352121 1.88732e-19)
(0.401045 0.10872 2.02019e-19)
(0.635577 0.187995 -2.93019e-19)
(0.839404 0.263065 -1.79069e-19)
(1.0065 0.327943 2.6728e-19)
(1.1342 0.378631 -1.07176e-19)
(1.22397 0.41358 1.5737e-19)
(1.28072 0.43358 6.81672e-20)
(1.31137 0.441003 -1.59618e-19)
(1.32324 0.438912 -3.98572e-19)
(1.32287 0.430332 -7.15938e-20)
(1.31538 0.417791 -1.51185e-19)
(1.30435 0.403147 -2.26183e-19)
(1.29204 0.387623 1.84785e-20)
(1.27975 0.371948 -2.35466e-20)
(1.26809 0.356517 -2.31989e-20)
(1.25729 0.341531 1.89468e-19)
(1.24731 0.32699 1.37723e-19)
(1.23794 0.312919 1.50059e-20)
(1.22861 0.300228 8.0959e-20)
(0.146208 0.0391634 -4.54506e-20)
(0.410259 0.11904 3.57488e-19)
(0.64693 0.202904 1.40114e-19)
(0.850351 0.280763 2.85885e-19)
(1.01511 0.346746 9.32991e-20)
(1.13934 0.397176 3.56087e-20)
(1.2253 0.430944 -2.29343e-19)
(1.27854 0.449287 -7.44908e-20)
(1.30635 0.454937 3.70497e-20)
(1.31619 0.451189 2.96226e-19)
(1.31454 0.44118 -9.76782e-20)
(1.30638 0.427458 1.21662e-19)
(1.2951 0.411851 2.597e-19)
(1.28282 0.395534 5.96479e-20)
(1.2707 0.379189 -5.23731e-20)
(1.2593 0.363179 7.126e-20)
(1.2488 0.347682 1.36873e-19)
(1.23913 0.332676 6.33591e-20)
(1.23006 0.318202 1.62162e-19)
(1.22095 0.305186 1.24133e-19)
(0.150137 0.0432528 -1.18263e-19)
(0.418844 0.129617 -1.835e-19)
(0.657272 0.218044 1.17024e-19)
(0.859987 0.298582 3.9407e-20)
(1.02224 0.365525 7.8965e-20)
(1.14296 0.415563 -3.24787e-19)
(1.2252 0.448055 1.18635e-19)
(1.27509 0.464693 -2.57323e-19)
(1.30026 0.468559 -1.43736e-19)
(1.30826 0.463169 1.68925e-19)
(1.30551 0.451758 -1.81655e-20)
(1.29681 0.436883 1.13579e-20)
(1.28539 0.420337 -3.16151e-19)
(1.2732 0.403243 -1.28655e-19)
(1.26131 0.38624 1.07539e-19)
(1.2502 0.369658 -1.89001e-19)
(1.24002 0.353654 -1.02212e-19)
(1.23069 0.338188 -1.03423e-19)
(1.22196 0.32333 -1.82573e-19)
(1.21312 0.309969 -4.21513e-19)
(0.15384 0.0474677 6.90887e-20)
(0.426769 0.140415 -8.61907e-20)
(0.666574 0.233365 -4.73147e-19)
(0.868298 0.316463 2.56591e-19)
(1.02788 0.384223 -3.21348e-19)
(1.14508 0.433742 -4.57312e-20)
(1.22369 0.464873 -4.46443e-19)
(1.2704 0.479765 4.788e-19)
(1.29313 0.481844 2.75278e-19)
(1.2995 0.474833 -1.65375e-20)
(1.29581 0.462049 1.00004e-19)
(1.2867 0.44605 -1.27186e-19)
(1.27523 0.428588 -1.04058e-20)
(1.2632 0.410734 5.99527e-20)
(1.25158 0.393084 -6.28397e-20)
(1.2408 0.375939 1.19609e-19)
(1.23097 0.359436 -1.60828e-19)
(1.22201 0.343516 -1.4452e-19)
(1.21363 0.328278 8.23294e-20)
(1.2051 0.314584 1.12093e-19)
(0.157302 0.0517947 1.57261e-19)
(0.434005 0.151398 1.59076e-19)
(0.674808 0.248816 1.23684e-19)
(0.875271 0.334348 -3.52447e-21)
(1.03205 0.402782 -8.29783e-20)
(1.14573 0.451662 5.67156e-19)
(1.22083 0.481356 3.24028e-19)
(1.26453 0.494471 2.20632e-19)
(1.28502 0.494767 3.16129e-19)
(1.28993 0.486159 3.93861e-20)
(1.28545 0.472034 -2.67918e-19)
(1.27606 0.454942 -2.92578e-20)
(1.26462 0.436587 -5.95376e-20)
(1.25281 0.417992 -1.95586e-19)
(1.24151 0.399708 -7.42344e-20)
(1.23109 0.382009 -1.04711e-19)
(1.22165 0.365014 3.30048e-19)
(1.21308 0.348647 -4.62796e-21)
(1.20508 0.333036 9.49355e-20)
(1.19688 0.319014 7.62263e-20)
(0.160509 0.0562197 -5.28626e-20)
(0.440527 0.162529 -9.2224e-20)
(0.681956 0.264346 -2.02644e-19)
(0.880901 0.352181 -3.45598e-20)
(1.03477 0.421148 -3.40528e-19)
(1.14494 0.469276 -2.46694e-19)
(1.21664 0.497464 8.22441e-20)
(1.25752 0.508778 -6.03715e-19)
(1.27596 0.507303 -3.2998e-19)
(1.27959 0.497126 8.06566e-20)
(1.27448 0.481694 -4.26863e-20)
(1.26491 0.46354 2.45503e-19)
(1.25359 0.444319 3.38026e-19)
(1.24206 0.425 8.62552e-20)
(1.23111 0.406096 2.36743e-19)
(1.22109 0.387853 -1.25751e-19)
(1.21205 0.370373 1.75243e-19)
(1.20391 0.353568 9.85528e-20)
(1.1963 0.337591 8.66452e-20)
(1.18846 0.323249 -1.65729e-19)
(0.163448 0.0607278 7.8759e-20)
(0.446313 0.173771 -9.14172e-21)
(0.688 0.279901 -3.13361e-19)
(0.885187 0.369903 -4.72409e-22)
(1.03604 0.439264 7.6674e-19)
(1.14274 0.486534 1.54331e-19)
(1.21117 0.513158 1.17671e-19)
(1.24941 0.522657 3.49808e-19)
(1.26599 0.519426 -2.85043e-19)
(1.26851 0.507714 -3.09094e-19)
(1.26291 0.49101 -3.66808e-21)
(1.25327 0.471826 -2.24285e-19)
(1.24214 0.451764 -1.26002e-19)
(1.23095 0.431742 3.42789e-19)
(1.2204 0.412231 -9.09331e-20)
(1.21079 0.393455 5.90391e-21)
(1.20219 0.375501 -1.27036e-19)
(1.19449 0.358267 -1.95958e-19)
(1.18732 0.341934 1.26368e-20)
(1.17985 0.327278 1.89467e-19)
(0.166108 0.0653035 -3.80328e-19)
(0.451346 0.185083 2.39232e-19)
(0.692929 0.295428 5.38097e-19)
(0.888134 0.387456 1.70217e-19)
(1.03589 0.457076 -9.02306e-19)
(1.13917 0.50339 -3.76356e-19)
(1.20447 0.5284 -2.97175e-19)
(1.24024 0.536077 -1.0929e-19)
(1.25514 0.531112 3.7442e-19)
(1.25673 0.517899 4.04766e-20)
(1.25076 0.499963 -8.09913e-20)
(1.24116 0.479783 1.4809e-19)
(1.23029 0.458907 2.20715e-20)
(1.21948 0.438201 -4.10105e-19)
(1.20936 0.418099 1.25326e-19)
(1.20022 0.398803 1.68637e-19)
(1.19207 0.380383 8.23811e-20)
(1.18484 0.36273 1.12677e-19)
(1.17812 0.346052 -2.01249e-19)
(1.17106 0.331092 -9.89597e-20)
(0.168478 0.0699305 -2.60256e-20)
(0.45561 0.196425 1.2059e-19)
(0.696737 0.310875 6.07326e-20)
(0.889749 0.404784 1.81481e-19)
(1.03435 0.474532 5.03901e-19)
(1.13427 0.5198 -3.31123e-19)
(1.19658 0.543153 -2.04434e-20)
(1.23006 0.549008 3.24959e-19)
(1.24347 0.542336 -3.99194e-19)
(1.24427 0.527663 1.31401e-19)
(1.23807 0.508534 3.43094e-19)
(1.22859 0.487391 7.91445e-20)
(1.21806 0.465729 -1.74693e-19)
(1.20768 0.444361 2.96537e-19)
(1.19803 0.423685 -3.50139e-19)
(1.18936 0.40388 1.19551e-20)
(1.1817 0.385008 -8.37766e-20)
(1.17496 0.366947 1.50598e-19)
(1.16871 0.349936 1.34321e-19)
(1.16207 0.334682 1.21477e-19)
(0.17055 0.0745925 4.92573e-20)
(0.459094 0.207759 1.9282e-19)
(0.699421 0.326188 1.92244e-19)
(0.890046 0.42183 -1.2346e-19)
(1.03145 0.491579 1.10731e-20)
(1.12807 0.535717 3.07297e-19)
(1.18753 0.557382 5.50681e-19)
(1.2189 0.561422 -5.67364e-20)
(1.231 0.553075 5.40513e-20)
(1.23117 0.536984 -1.64351e-19)
(1.22485 0.516703 -3.51977e-19)
(1.21558 0.494634 5.7375e-20)
(1.20544 0.472213 2.04453e-19)
(1.19554 0.450205 -4.20773e-20)
(1.18639 0.428973 -3.5575e-20)
(1.17823 0.408675 -1.41553e-19)
(1.17108 0.389361 -2.51017e-20)
(1.16485 0.370905 -5.70122e-20)
(1.1591 0.353573 -4.76313e-20)
(1.15291 0.338036 -1.14937e-19)
(0.172317 0.0792723 -1.69816e-19)
(0.461789 0.219041 -4.41871e-19)
(0.700983 0.341314 -6.62504e-19)