/*--------------------------------*- C++ -*----------------------------------*\
  =========                 |
  \\      /  F ield         | OpenFOAM: The Open Source CFD Toolbox
   \\    /   O peration     | Website:  https://openfoam.org
    \\  /    A nd           | Version:  7
     \\/     M anipulation  |
\*---------------------------------------------------------------------------*/
FoamFile
{
    version     2.0;
    format      ascii;
    class       surfaceScalarField;
    location    "100";
    object      phi;
}
// * * * * * * * * * * * * * * * * * * * * * * * * * * * * * * * * * * * * * //

dimensions      [0 3 -1 0 0 0 0];

internalField   nonuniform List<scalar> 
19595
(
-3.28049e-06
0.000231421
-0.00022814
-1.56336e-05
0.000583997
-0.000571644
-3.85655e-05
0.000859422
-0.00083649
-7.1644e-05
0.00106038
-0.00102731
-0.000113108
0.00120508
-0.00116362
-0.00016067
0.00131794
-0.00127037
-0.000212156
0.00141979
-0.0013683
-0.000265764
0.00152048
-0.00146687
-0.000320095
0.00161646
-0.00156213
0.00168816
-0.00163471
-0.000373542
-1.33972e-06
0.000232761
-9.36524e-06
0.000592022
-2.64607e-05
0.000876518
-5.2739e-05
0.00108666
-8.65566e-05
0.0012389
-0.000125319
0.0013567
-0.000166181
0.00146065
-0.000206375
0.00156068
-0.000243454
0.00165354
0.00171902
-0.000274314
5.97261e-07
0.000232163
-3.01691e-06
0.000595636
-1.40059e-05
0.000887507
-3.30033e-05
0.00110566
-5.84845e-05
0.00126438
-8.75369e-05
0.00138575
-0.000116619
0.00148973
-0.000141934
0.00158599
-0.000159982
0.00167159
0.00172493
-0.000165892
2.46634e-06
0.000229697
3.27895e-06
0.000594824
-1.40691e-06
0.000892193
-1.27527e-05
0.00111701
-2.93262e-05
0.00128096
-4.79226e-05
0.00140435
-6.43227e-05
0.00150613
-7.36801e-05
0.00159535
-7.14938e-05
0.0016694
0.00170449
-5.10584e-05
4.24633e-06
0.000225451
9.40902e-06
0.000589661
1.10761e-05
0.000890526
7.65754e-06
0.00112042
4.23696e-07
0.00128819
-7.14524e-06
0.00141192
-1.02244e-05
0.00150921
-3.0517e-06
0.00158818
2.04787e-05
0.00164587
0.00165769
6.7286e-05
5.89317e-06
0.000219557
1.52441e-05
0.00058031
2.32205e-05
0.000882549
2.78472e-05
0.0011158
3.02463e-05
0.00128579
3.40783e-05
0.00140808
4.47085e-05
0.00149858
6.88333e-05
0.00156405
0.000112812
0.00160189
0.00158353
0.000186972
7.36918e-06
0.000212188
2.06532e-05
0.000567026
3.47657e-05
0.000868437
4.74188e-05
0.00110314
5.95709e-05
0.00127364
7.50036e-05
0.00139265
9.94829e-05
0.0014741
0.000140475
0.00152306
0.000204879
0.00153749
0.00148294
0.000305462
8.64049e-06
0.000203548
2.55147e-05
0.000550152
4.54602e-05
0.000848491
6.59682e-05
0.00108264
8.78329e-05
0.00125177
0.000114881
0.0013656
0.000153144
0.00143584
0.000210725
0.00146548
0.000294789
0.00145343
0.00135677
0.000420963
9.67799e-06
0.00019387
2.97173e-05
0.000530113
5.50641e-05
0.000823144
8.30992e-05
0.0010546
0.000114467
0.00122041
0.000152974
0.0013271
0.00020478
0.00138403
0.000278475
0.00139178
0.000381195
0.0013507
0.00120597
0.000531993
1.04581e-05
0.000183412
3.31633e-05
0.000507407
6.33578e-05
0.00079295
9.84371e-05
0.00101952
0.000138931
0.00117991
0.000188574
0.00127745
0.000253541
0.00131906
0.000342755
0.00130257
0.000463029
0.00123043
0.00103139
0.000637611
1.09633e-05
0.000172448
3.57738e-05
0.000482597
7.01509e-05
0.000758573
0.000111643
0.00097803
0.000160722
0.00113083
0.000221026
0.00121715
0.000298663
0.00124143
0.000402754
0.00119848
0.000539533
0.00109365
0.000833473
0.000737449
1.1183e-05
0.000161265
3.7491e-05
0.000456289
7.52919e-05
0.000720772
0.000122431
0.000930891
0.000179402
0.00107386
0.000249752
0.0011468
0.000339496
0.00115168
0.000457839
0.00108013
0.00061032
0.000941172
0.000612043
0.00083175
1.11134e-05
0.000150152
3.82828e-05
0.00042912
7.86781e-05
0.000680377
0.000130586
0.000878983
0.000194623
0.00100982
0.000274292
0.00106713
0.000375554
0.00105042
0.000507611
0.000948078
0.000675486
0.000773297
0.000366085
0.000921444
1.07586e-05
0.000139393
3.81458e-05
0.000401732
8.02664e-05
0.000638256
0.000135989
0.00082326
0.000206171
0.000939642
0.000294354
0.000978949
0.000406588
0.000938188
0.000552001
0.000802665
0.000735792
0.000589507
9.36004e-05
0.00100828
1.01311e-05
0.000129262
3.71102e-05
0.000374753
8.00855e-05
0.000595281
0.00013864
0.000764706
0.000214005
0.000864277
0.000309898
0.000883056
0.000432695
0.000815391
0.000591432
0.000643928
0.000792898
0.000388041
-0.000208398
0.0010949
9.25338e-06
0.000120009
3.52437e-05
0.000348763
7.82486e-05
0.000552276
0.000138686
0.000704269
0.000218317
0.000784645
0.000321217
0.000780156
0.00045446
0.000682149
0.000627026
0.000471362
0.000849592
0.000165475
-0.000543563
0.00118476
8.15891e-06
0.00011185
3.26571e-05
0.000324265
7.49657e-05
0.000509967
0.000136452
0.000642782
0.000219582
0.000701515
0.000329045
0.000670694
0.000473087
0.000538107
0.000660814
0.000283634
0.000909763
-8.34741e-05
-0.000915472
0.00128167
6.89408e-06
0.000104956
2.95076e-05
0.000301651
7.05535e-05
0.000468921
0.000132463
0.000580873
0.000218612
0.000615366
0.000334632
0.000554674
0.000490498
0.00038224
0.000695871
7.82622e-05
0.000978043
-0.000365647
-0.00132628
0.00138885
5.51885e-06
9.94369e-05
2.60004e-05
0.00028117
6.54388e-05
0.000429483
0.000127451
0.00051886
0.00021657
0.000526247
0.000339777
0.000431466
0.000509326
0.000212692
0.000736227
-0.000148639
0.00105896
-0.000688379
-0.00177496
0.00150764
4.10652e-06
9.53304e-05
2.2386e-05
0.00026289
6.01517e-05
0.000391717
0.000122347
0.000456665
0.000214953
0.000433641
0.00034677
0.00029965
0.000532746
2.67158e-05
0.000786422
-0.000402315
0.00115571
-0.00105766
-0.00225556
0.00163631
2.74178e-06
9.25886e-05
1.89511e-05
0.000246681
5.53041e-05
0.000355364
0.000118236
0.000393733
0.000215502
0.000336375
0.000358207
0.000156945
0.000564122
-0.000179199
0.000850635
-0.000688829
0.00126885
-0.00147587
-0.00275678
0.00177006
1.51683e-06
9.10718e-05
1.6003e-05
0.000232195
5.15525e-05
0.000319815
0.000116277
0.000329009
0.000220051
0.000232601
0.000376705
2.91615e-07
0.000606524
-0.000409018
0.000931538
-0.00101384
0.00139539
-0.00193972
-0.00326356
0.00190217
5.30429e-07
9.05414e-05
1.38475e-05
0.000218878
4.95457e-05
0.000284116
0.000117604
0.00026095
0.000230323
0.000119882
0.000404516
-0.000173901
0.0006622
-0.000666702
0.00102929
-0.00138093
0.00152881
-0.00243925
-0.00376136
0.00202661
-1.16996e-07
9.06584e-05
1.27596e-05
0.000206001
4.98656e-05
0.000247011
0.000123205
0.000187611
0.000247717
-4.63027e-06
0.000443155
-0.000369339
0.000732061
-0.000955608
0.00114098
-0.00178985
0.00166113
-0.0029594
-0.00424035
0.00214013
-4.72236e-07
9.11306e-05
1.29542e-05
0.000192575
5.29725e-05
0.000206992
0.000133816
0.000106767
0.000273127
-0.000143941
0.000493128
-0.000589341
0.000815238
-0.00127772
0.0012605
-0.00223511
0.00178518
-0.00348408
-0.00470759
0.00225241
-3.40361e-07
9.1471e-05
1.45887e-05
0.000177646
5.91614e-05
0.000162419
0.000149852
1.60756e-05
0.000306844
-0.000300933
0.000553847
-0.000836343
0.000909
-0.00163287
0.00137983
-0.00270594
0.00189751
-0.00400176
-0.00529534
0.00248526
2.41096e-07
9.12299e-05
1.7723e-05
0.000160164
6.85446e-05
0.000111598
0.000171377
-8.67568e-05
0.000348542
-0.000478098
0.000623711
-0.00111151
0.00100903
-0.00201819
0.00149325
-0.00319016
0.00200597
-0.00451449
-0.00582925
0.00253988
1.18315e-06
9.00467e-05
2.23299e-05
0.000139017
8.10547e-05
5.2873e-05
0.000198126
-0.000203828
0.000397335
-0.000677307
0.000700309
-0.00141449
0.0011101
-0.00242798
0.00159684
-0.0036769
0.00209155
-0.00500919
-0.00630221
0.0025645
2.547e-06
8.74997e-05
2.83258e-05
0.000113238
9.64758e-05
-1.5277e-05
0.000229562
-0.000336914
0.000451883
-0.000899629
0.000780659
-0.00174326
0.00120722
-0.00285454
0.00168633
-0.004156
0.00215176
-0.00547462
-0.00672189
0.00257144
4.26466e-06
8.3235e-05
3.55713e-05
8.19316e-05
0.000114485
-9.41909e-05
0.000264952
-0.000487381
0.000510512
-0.00114519
0.000861482
-0.00209423
0.00129608
-0.00328914
0.00175832
-0.00461824
0.00218828
-0.00590458
-0.00709082
0.00255721
6.2807e-06
7.69543e-05
4.39015e-05
4.43107e-05
0.000134699
-0.000184988
0.000303434
-0.000656116
0.000571335
-0.00141309
0.000939503
-0.0024624
0.00137328
-0.00372292
0.00181127
-0.00505624
0.00220228
-0.00629558
-0.00741325
0.00252471
8.5448e-06
6.84095e-05
5.31483e-05
-2.92781e-07
0.000156709
-0.000288549
0.000344074
-0.000843481
0.000632369
-0.00170138
0.00101174
-0.00284177
0.00143648
-0.00414766
0.00184492
-0.00546468
0.00219608
-0.00664674
-0.00769377
0.00247659
1.1015e-05
5.73945e-05
6.3155e-05
-5.24328e-05
0.000180106
-0.0004055
0.00038589
-0.00104926
0.000691635
-0.00200713
0.00107569
-0.00322583
0.00148441
-0.00455638
0.00186001
-0.00584028
0.00217221
-0.00695894
-0.00793708
0.00241552
1.36597e-05
4.37348e-05
7.37818e-05
-0.000112555
0.000204487
-0.000536205
0.000427873
-0.00127265
0.000747268
-0.00232653
0.00112952
-0.00360807
0.00151671
-0.00494358
0.00185797
-0.00618154
0.0021333
-0.00723427
-0.0081478
0.00234403
1.64568e-05
2.7278e-05
8.49038e-05
-0.000181002
0.000229447
-0.000680749
0.000468993
-0.0015122
0.000797605
-0.00265514
0.001172
-0.00398247
0.00153376
-0.00530533
0.00184059
-0.00648837
0.00208184
-0.00747551
-0.00833025
0.00226429
1.93912e-05
7.88679e-06
9.64032e-05
-0.000258014
0.000254566
-0.000838912
0.000508223
-0.00176585
0.00084127
-0.00298818
0.00120258
-0.00434378
0.00153643
-0.00563918
0.00180982
-0.00676176
0.00202012
-0.00768581
-0.0084883
0.00217816
2.24505e-05
-1.45637e-05
0.00010816
-0.000343723
0.0002794
-0.00101015
0.000544576
-0.00203103
0.000877237
-0.00332085
0.00122123
-0.00468777
0.00152595
-0.0059439
0.0017676
-0.00700342
0.00195016
-0.00786836
-0.00862531
0.00208717
2.56211e-05
-4.01848e-05
0.000120041
-0.000438143
0.000303477
-0.00119359
0.000577144
-0.0023047
0.000904844
-0.00364855
0.00122832
-0.00501125
0.00150373
-0.0062193
0.0017158
-0.00721549
0.0018737
-0.00802627
-0.00874416
0.00199255
2.88847e-05
-6.90695e-05
0.000131897
-0.000541156
0.000326304
-0.00138799
0.000605154
-0.00258355
0.000923789
-0.00396718
0.00122458
-0.00531204
0.00147123
-0.00646595
0.00165611
-0.00740036
0.00179221
-0.00816237
-0.00884721
0.00189526
3.22164e-05
-0.000101286
0.000143557
-0.000652497
0.000347391
-0.00159183
0.000628001
-0.00286416
0.000934085
-0.00427326
0.00121089
-0.00558885
0.00142992
-0.00668498
0.00159004
-0.00756048
0.0017069
-0.00827923
-0.00893638
0.00179607
3.55839e-05
-0.00013687
0.000154832
-0.000771745
0.00036627
-0.00180327
0.000645273
-0.00314316
0.000936007
-0.004564
0.00118829
-0.00584114
0.00138118
-0.00687786
0.00151891
-0.00769821
0.00161875
-0.00837907
-0.00901321
0.00169557
3.89476e-05
-0.000175817
0.000165519
-0.000898316
0.000382524
-0.00202027
0.000656756
-0.00341739
0.000930023
-0.00483726
0.00115784
-0.00606896
0.00132628
-0.0070463
0.00144384
-0.00781577
0.00152855
-0.00846378
-0.00907887
0.00159421
4.22619e-05
-0.000218079
0.000175415
-0.00103147
0.000395808
-0.00224066
0.000662419
-0.003684
0.000916739
-0.00509158
0.0011206
-0.00627282
0.00126635
-0.00719206
0.00136578
-0.0079152
0.00143694
-0.00853494
-0.00913427
0.00149234
4.54773e-05
-0.000263557
0.000184321
-0.00117031
0.000405866
-0.00246221
0.000662393
-0.00394053
0.000896844
-0.00532603
0.00107757
-0.00645354
0.00120242
-0.00731691
0.0012855
-0.00799828
0.00134441
-0.00859386
-0.00918009
0.00139023
4.85418e-05
-0.000312098
0.000192052
-0.00131382
0.000412536
-0.00268269
0.000656937
-0.00418493
0.000871067
-0.00554016
0.0010297
-0.00661218
0.00113535
-0.00742256
0.00120366
-0.00806659
0.00125136
-0.00864155
-0.00921682
0.00128809
5.14028e-05
-0.000363501
0.000198451
-0.00146087
0.000415754
-0.0029
0.000646402
-0.00441558
0.000840141
-0.0057339
0.000977854
-0.00674989
0.0010659
-0.00751061
0.00112078
-0.00812147
0.00115809
-0.00867886
-0.00924481
0.00118608
5.40097e-05
-0.000417511
0.000203387
-0.00161025
0.000415541
-0.00311215
0.000631208
-0.00463125
0.000804783
-0.00590748
0.000922801
-0.00686791
0.000994701
-0.00758251
0.00103729
-0.00816405
0.00106484
-0.00870641
-0.0092643
0.00108433
5.63145e-05
-0.000473825
0.000206769
-0.0017607
0.000411997
-0.00331738
0.000611811
-0.00483106
0.00076567
-0.00606134
0.000865225
-0.00696746
0.000922286
-0.00763957
0.000953515
-0.00819528
0.000971809
-0.00872471
-0.00927546
0.000982973
5.82743e-05
-0.0005321
0.000208536
-0.00191097
0.000405284
-0.00351413
0.000588681
-0.00501446
0.000723433
-0.00619609
0.000805723
-0.00704975
0.000849104
-0.00768295
0.00086975
-0.00821593
0.000879151
-0.00873411
-0.00927841
0.0008821
5.98518e-05
-0.000591952
0.000208668
-0.00205978
0.00039561
-0.00370107
0.00056229
-0.00518114
0.00067865
-0.00631245
0.000744812
-0.00711591
0.000775524
-0.00771366
0.00078621
-0.00822662
0.000786991
-0.00873489
-0.00927323
0.000781805
6.10203e-05
-0.000652972
0.000207185
-0.00220595
0.000383227
-0.00387711
0.000533109
-0.00533102
0.000631853
-0.00641119
0.00068295
-0.00716701
0.000701863
-0.00773258
0.000703088
-0.00822784
0.000695447
-0.00872725
-0.00925995
0.000682176
6.17497e-05
-0.000714721
0.000204112
-0.00234831
0.000368376
-0.00404137
0.000501546
-0.00546419
0.000583482
-0.00649313
0.000620487
-0.00720401
0.000628348
-0.00774044
0.000620508
-0.00822
0.000604584
-0.00871132
-0.00923861
0.000583245
6.20275e-05
-0.000776749
0.000199526
-0.00248581
0.000351336
-0.00419318
0.00046802
-0.00558087
0.000533957
-0.00655907
0.000557758
-0.00722781
0.000555197
-0.00773788
0.000538601
-0.00820341
0.000514492
-0.00868721
-0.0092092
0.000485076
6.18456e-05
-0.000838595
0.000193514
-0.00261748
0.000332378
-0.00433205
0.000432905
-0.0056814
0.00048364
-0.0066098
0.000495032
-0.00723921
0.000482579
-0.00772542
0.000457466
-0.00817829
0.000425243
-0.00865499
-0.00917165
0.0003877
6.12027e-05
-0.000899797
0.000186178
-0.00274245
0.000311765
-0.00445764
0.000396542
-0.00576618
0.000432842
-0.0066461
0.000432537
-0.0072389
0.000410633
-0.00770352
0.000377179
-0.00814484
0.000336906
-0.00861472
-0.00912588
0.000291136
6.01046e-05
-0.000959902
0.000177632
-0.00285998
0.000289751
-0.00456975
0.000359237
-0.00583566
0.000381835
-0.0066687
0.000370467
-0.00722753
0.000339486
-0.00767254
0.000297817
-0.00810317
0.000249502
-0.0085664
-0.0090718
0.000195418
5.85632e-05
-0.00101846
0.000167997
-0.00296941
0.000266574
-0.00466833
0.000321264
-0.00589035
0.00033085
-0.00667829
0.000308983
-0.00720567
0.000269258
-0.00763282
0.000219512
-0.00805342
0.000162939
-0.00850983
-0.00900932
0.00010046
5.65964e-05
-0.00107506
0.000157395
-0.00307021
0.000242457
-0.00475339
0.000282866
-0.00593076
0.000280084
-0.0066755
0.000248216
-0.0071738
0.000200032
-0.00758463
0.000142461
-0.00799585
7.74124e-05
-0.00844478
-0.00893427
2.36352e-06
5.42277e-05
-0.00112929
0.000145959
-0.00316194
0.000217605
-0.00482504
0.000244257
-0.00595741
0.000229707
-0.00666095
0.000188269
-0.00713236
0.000131825
-0.00752819
6.6552e-05
-0.00793058
-4.63852e-06
-0.00837359
-0.00885334
-8.55686e-05
5.14847e-05
-0.00118077
0.000133808
-0.00324426
0.000192207
-0.00488344
0.000205627
-0.00597083
0.000179865
-0.00663519
0.000129237
-0.00708173
6.47376e-05
-0.00746369
-9.02427e-06
-0.00785681
-8.91865e-05
-0.00829343
-0.0087667
-0.00017583
4.8398e-05
-0.00122917
0.00012106
-0.00331693
0.000166434
-0.00492881
0.00016714
-0.00597154
0.00013068
-0.00659873
7.11885e-05
-0.00702224
-1.56892e-06
-0.00739093
-8.18168e-05
-0.00777657
-0.000170563
-0.00820468
-0.00867198
-0.000265286
4.50009e-05
-0.00127417
0.000107825
-0.00337975
0.00014044
-0.00496143
0.00012894
-0.00596004
8.22456e-05
-0.00655204
1.41734e-05
-0.00695417
-6.5669e-05
-0.00731109
-0.000154
-0.00768824
-0.000250449
-0.00810823
-0.00856899
-0.000353433
4.13285e-05
-0.0013155
9.42086e-05
-0.00343263
0.000114368
-0.00498159
9.11429e-05
-0.00593682
3.46648e-05
-0.00649556
-4.15374e-05
-0.00687797
-0.00012901
-0.00722362
-0.000224867
-0.00759238
-0.000328967
-0.00800413
-0.00845783
-0.000440135
3.74179e-05
-0.00135292
8.0311e-05
-0.00347552
8.83463e-05
-0.00498962
5.38595e-05
-0.00590233
-1.20154e-05
-0.00642969
-9.61509e-05
-0.00679383
-0.000191063
-0.00712871
-0.000294328
-0.00748911
-0.000406064
-0.0078924
-0.00833858
-0.00052531
3.33064e-05
-0.00138623
6.62338e-05
-0.00350845
6.24857e-05
-0.00498587
1.72655e-05
-0.00585711
-5.7665e-05
-0.00635476
-0.000149588
-0.00670191
-0.000251777
-0.00702652
-0.000362341
-0.00737855
-0.000481674
-0.00777306
-0.00821136
-0.000608889
2.90288e-05
-0.00141525
5.20853e-05
-0.00353151
3.69016e-05
-0.00497069
-1.87675e-05
-0.00580144
-0.000102334
-0.00627119
-0.000201797
-0.00660244
-0.00031112
-0.00691719
-0.000428869
-0.0072608
-0.000555723
-0.00764621
-0.00807629
-0.000690797
2.46153e-05
-0.00143987
3.79514e-05
-0.00354484
1.20146e-05
-0.00494475
-5.40385e-05
-0.00573539
-0.000145965
-0.00617926
-0.000252752
-0.00649566
-0.000369066
-0.00680088
-0.000493876
-0.00713599
-0.000628152
-0.00751193
-0.00793347
-0.000770971
2.01153e-05
-0.00145998
2.38719e-05
-0.0035486
-1.30886e-05
-0.00490779
-8.85111e-05
-0.00565996
-0.000188507
-0.00607927
-0.000302428
-0.00638174
-0.000425593
-0.00667772
-0.000557335
-0.00700425
-0.000698913
-0.00737036
-0.00778303
-0.000849353
1.55925e-05
-0.00147558
1.0202e-05
-0.00354321
-3.80052e-05
-0.00485959
-0.000122242
-0.00557573
-0.000229932
-0.00597158
-0.000350801
-0.00626087
-0.000480682
-0.00654783
-0.000619228
-0.0068657
-0.00076798
-0.0072216
-0.0076252
-0.000925809
1.09988e-05
-0.00148658
-2.77694e-06
-0.00352943
-6.1954e-05
-0.00480041
-0.00015513
-0.00548255
-0.00027023
-0.00585648
-0.000397852
-0.00613324
-0.000534316
-0.00641137
-0.000679548
-0.00672047
-0.000835334
-0.00706582
-0.00746037
-0.00100017
6.1602e-06
-0.00149274
-1.81237e-05
-0.00350515
-8.55204e-05
-0.00473301
-0.000187095
-0.00538098
-0.000309369
-0.0057342
-0.000443565
-0.00599905
-0.000586476
-0.00626846
-0.000738287
-0.00656866
-0.00090098
-0.00690312
-0.00728877
-0.00107258
9.93769e-07
-0.00149373
-3.21061e-05
-0.00347205
-0.000108515
-0.0046566
-0.000218109
-0.00527138
-0.000347319
-0.00560499
-0.000487918
-0.00585845
-0.000637148
-0.00611923
-0.000795453
-0.00641036
-0.000964989
-0.00673359
-0.00711011
-0.00114365
-3.56561e-06
-0.00149016
-4.55899e-05
-0.00343003
-0.000130868
-0.00457132
-0.000248159
-0.00515409
-0.000384059
-0.00546909
-0.000530889
-0.00571162
-0.000686335
-0.00596378
-0.000851121
-0.00624557
-0.00102731
-0.0065574
-0.00692437
-0.00121306
-8.18553e-06
-0.00148198
-5.86931e-05
-0.00337952
-0.000152544
-0.00447747
-0.000277223
-0.00502941
-0.000419564
-0.00532675
-0.000572449
-0.00555873
-0.000734043
-0.00580219
-0.000905409
-0.0060742
-0.00108761
-0.0063752
-0.00673237
-0.0012796
-1.28193e-05
-0.00146916
-7.14453e-05
-0.00332089
-0.000173519
-0.0043754
-0.000305278
-0.00489765
-0.000453816
-0.00517821
-0.00061257
-0.00539998
-0.000780204
-0.00563455
-0.000958112
-0.0058963
-0.00114751
-0.0061858
-0.00654588
-0.001334
-1.73832e-05
-0.00145178
-8.38293e-05
-0.00325445
-0.000193765
-0.00426546
-0.000332299
-0.00475912
-0.00048679
-0.00502372
-0.000651229
-0.00523554
-0.000824684
-0.0054611
-0.00100782
-0.00571316
-0.00119639
-0.00599723
-0.00632984
-0.00141243
-2.18613e-05
-0.00142992
-9.58459e-05
-0.00318046
-0.000213288
-0.00414802
-0.000358292
-0.00461412
-0.000518504
-0.00486351
-0.000688436
-0.00506561
-0.000867337
-0.0052822
-0.00105529
-0.00552521
-0.00125153
-0.00580099
-0.00611161
-0.00146976
-2.62308e-05
-0.00140368
-0.000107465
-0.00309923
-0.000232062
-0.00402342
-0.000383239
-0.00446294
-0.000548939
-0.00469781
-0.000724163
-0.00489038
-0.000908322
-0.00509804
-0.00110167
-0.00533186
-0.00130537
-0.00559729
-0.0058904
-0.00152658
-3.04789e-05
-0.00137321
-0.000118668
-0.00301104
-0.000250074
-0.00389202
-0.000407129
-0.00430588
-0.000578086
-0.00452685
-0.000758384
-0.00471009
-0.000947599
-0.00490883
-0.00114623
-0.00513322
-0.00135599
-0.00538754
-0.0056655
-0.00158089
-3.45945e-05
-0.00133861
-0.000129437
-0.0029162
-0.000267314
-0.00375414
-0.000429958
-0.00414324
-0.000605936
-0.00435088
-0.000791097
-0.00452493
-0.000985188
-0.00471473
-0.00118893
-0.00492948
-0.00140407
-0.0051724
-0.0054366
-0.00163296
-3.85673e-05
-0.00130004
-0.000139759
-0.002815
-0.00028377
-0.00361013
-0.000451718
-0.00397529
-0.000632483
-0.00417011
-0.000822295
-0.00433511
-0.00102107
-0.00451596
-0.00122968
-0.00472088
-0.00144976
-0.00495232
-0.00520356
-0.0016828
-4.23881e-05
-0.00125766
-0.000149619
-0.00270777
-0.000299435
-0.00346032
-0.000472405
-0.00380232
-0.000657724
-0.00398479
-0.000851974
-0.00414086
-0.00105523
-0.0043127
-0.00126846
-0.00450765
-0.00149318
-0.0047276
-0.00496629
-0.00173045
-4.60485e-05
-0.00121161
-0.000159007
-0.00259481
-0.000314301
-0.00330502
-0.000492015
-0.00362461
-0.000681653
-0.00379515
-0.000880128
-0.00394239
-0.00108766
-0.00410517
-0.00130527
-0.00429003
-0.00153439
-0.00449848
-0.0047248
-0.00177588
-4.95408e-05
-0.00116207
-0.000167912
-0.00247644
-0.000328361
-0.00314457
-0.000510544
-0.00344243
-0.000704268
-0.00360143
-0.000906751
-0.00373991
-0.00111834
-0.00389358
-0.00134011
-0.00406826
-0.00157342
-0.00426518
-0.00447917
-0.00181905
-5.28581e-05
-0.00110921
-0.000176327
-0.00235297
-0.000341611
-0.00297929
-0.00052799
-0.00325605
-0.000725566
-0.00340385
-0.000931837
-0.00353364
-0.00114727
-0.00367815
-0.00137297
-0.00384256
-0.00161027
-0.00402788
-0.0042295
-0.00185993
-5.59939e-05
-0.00105321
-0.000184243
-0.00222473
-0.000354046
-0.00280949
-0.000544351
-0.00306574
-0.000745543
-0.00320266
-0.000955381
-0.0033238
-0.00117443
-0.00345909
-0.00140385
-0.00361315
-0.00164492
-0.0037868
-0.00397596
-0.00189847
-5.89427e-05
-0.000994271
-0.000191653
-0.00209202
-0.000365661
-0.00263548
-0.000559623
-0.00287178
-0.000764196
-0.00299809
-0.000977377
-0.00311062
-0.00119983
-0.00323664
-0.00143272
-0.00338026
-0.00167737
-0.00354216
-0.00371872
-0.00193461
-6.16994e-05
-0.000932572
-0.000198552
-0.00195516
-0.000376453
-0.00245758
-0.000573805
-0.00267443
-0.000781522
-0.00279037
-0.000997819
-0.00289432
-0.00122344
-0.00301102
-0.00145959
-0.00314411
-0.00170759
-0.00329416
-0.00345798
-0.00196832
-6.42594e-05
-0.000868313
-0.000204935
-0.00181449
-0.000386419
-0.00227609
-0.000586895
-0.00247395
-0.000797517
-0.00257975
-0.0010167
-0.00267513
-0.00124526
-0.00278246
-0.00148444
-0.00290493
-0.00173556
-0.00304303
-0.00319398
-0.00199956
-6.66185e-05
-0.000801694
-0.000210797
-0.00167031
-0.000395558
-0.00209133
-0.000598891
-0.00227062
-0.00081218
-0.00236646
-0.00103402
-0.0024533
-0.00126528
-0.00255119
-0.00150725
-0.00266297
-0.00176125
-0.00278903
-0.00292695
-0.00202828
-6.87733e-05
-0.000732921
-0.000216134
-0.00152295
-0.000403865
-0.0019036
-0.000609792
-0.00206469
-0.000825506
-0.00215075
-0.00104976
-0.00222904
-0.0012835
-0.00231746
-0.00152801
-0.00241846
-0.00178465
-0.00253238
-0.00265714
-0.00205446
-7.07204e-05
-0.0006622
-0.000220943
-0.00137272
-0.000411338
-0.00171321
-0.000619595
-0.00185643
-0.000837492
-0.00193285
-0.00106393
-0.00200261
-0.00129989
-0.00208149
-0.0015467
-0.00217165
-0.00180573
-0.00227335
-0.00238481
-0.00207806
-7.24569e-05
-0.000589744
-0.00022522
-0.00121996
-0.000417977
-0.00152045
-0.000628298
-0.00164611
-0.000848135
-0.00171301
-0.00107651
-0.00177424
-0.00131446
-0.00184354
-0.00156332
-0.00192279
-0.00182448
-0.00201219
-0.00211023
-0.00209906
-7.39805e-05
-0.000515763
-0.000228963
-0.00106498
-0.000423779
-0.00132563
-0.000635901
-0.00143399
-0.000857432
-0.00149148
-0.0010875
-0.00154417
-0.00132719
-0.00160386
-0.00157785
-0.00167213
-0.00184088
-0.00174916
-0.00183368
-0.00211744
-7.52889e-05
-0.000440474
-0.000232169
-0.000908099
-0.000428742
-0.00112906
-0.000642402
-0.00122033
-0.000865382
-0.0012685
-0.0010969
-0.00131264
-0.00133808
-0.00136268
-0.00159028
-0.00141993
-0.00185492
-0.00148452
-0.00155542
-0.00213317
-7.63804e-05
-0.000364094
-0.000234837
-0.000749643
-0.000432865
-0.000931033
-0.000647799
-0.0010054
-0.00087198
-0.00104432
-0.00110471
-0.00107991
-0.00134712
-0.00112027
-0.00160061
-0.00116644
-0.00186658
-0.00121854
-0.00127575
-0.00214625
-7.72535e-05
-0.00028684
-0.000236964
-0.000589933
-0.000436147
-0.00073185
-0.000652091
-0.000789454
-0.000877226
-0.000819182
-0.00111091
-0.000846226
-0.00135431
-0.000876869
-0.00160882
-0.000911933
-0.00187586
-0.000951504
-0.000994952
-0.00215666
-7.79069e-05
-0.000208933
-0.00023855
-0.00042929
-0.000438588
-0.000531812
-0.000655277
-0.000572765
-0.000881118
-0.000593342
-0.00111552
-0.000611828
-0.00135964
-0.000632739
-0.00161491
-0.000656664
-0.00188275
-0.000683669
-0.000713301
-0.0021644
-7.83398e-05
-0.000130594
-0.000239593
-0.000268037
-0.000440185
-0.000331219
-0.000657356
-0.000355594
-0.000883653
-0.000367045
-0.00111851
-0.00037697
-0.00136312
-0.000388135
-0.00161888
-0.000400898
-0.00188724
-0.000415314
-0.00043109
-0.00216945
-7.85515e-05
-5.20421e-05
-0.000240092
-0.000106496
-0.000440939
-0.000130373
-0.000658328
-0.000138205
-0.00088483
-0.000140543
-0.0011199
-0.000141902
-0.00136472
-0.000143311
-0.00162072
-0.000144901
-0.00188932
-0.000146716
-0.000148626
-0.00217178
-7.85418e-05
2.64997e-05
-0.000240048
5.501e-05
-0.000440849
7.04285e-05
-0.000658191
7.91367e-05
-0.000884649
8.59159e-05
-0.00111968
9.31247e-05
-0.00136446
0.000101476
-0.00162043
0.000111061
-0.00188899
0.000121853
0.000133728
-0.00217135
-7.8311e-05
0.000104811
-0.000239461
0.00021616
-0.000439916
0.000270884
-0.000656947
0.000296167
-0.000883111
0.00031208
-0.00111785
0.00032786
-0.00136234
0.000345969
-0.00161801
0.00036673
-0.00188628
0.000390123
0.000415838
-0.00216839
-7.78591e-05
0.00018267
-0.000238329
0.00037663
-0.000438138
0.000470693
-0.000654593
0.000512622
-0.000880213
0.000537699
-0.00111441
0.000562053
-0.00135835
0.000589915
-0.00161346
0.000621843
-0.00188117
0.000657834
0.00069742
-0.00216276
-7.71866e-05
0.000259856
-0.000236655
0.000536099
-0.000435517
0.000669554
-0.000651131
0.000728237
-0.000875956
0.000762524
-0.00110936
0.000795453
-0.0013525
0.000833055
-0.00160679
0.000876133
-0.00187366
0.000924706
0.000978133
-0.00215437
-7.62945e-05
0.000336151
-0.000234439
0.000694243
-0.000432052
0.000867167
-0.000646561
0.000942746
-0.000870342
0.000986305
-0.0011027
0.00102781
-0.00134478
0.00107513
-0.00159798
0.00112934
-0.00186374
0.00119046
0.00125768
-0.00214328
-7.51841e-05
0.000411335
-0.000231682
0.000850741
-0.000427744
0.00106323
-0.000640882
0.00115588
-0.00086337
0.00120879
-0.00109444
0.00125888
-0.0013352
0.0013159
-0.00158705
0.00138119
-0.00185142
0.00145483
0.00153578
-0.00212952
-7.38567e-05
0.000485192
-0.000228385
0.00100527
-0.000422594
0.00125744
-0.000634096
0.00136739
-0.000855042
0.00142974
-0.00108457
0.0014884
-0.00132376
0.00155509
-0.001574
0.00163143
-0.00183671
0.00171753
0.00181214
-0.00211308
-7.23144e-05
0.000557506
-0.000224551
0.0011575
-0.000416603
0.00144949
-0.000626204
0.00157699
-0.000845359
0.00164889
-0.0010731
0.00171614
-0.00131048
0.00179247
-0.00155885
0.0018798
-0.00181962
0.00197831
0.00208649
-0.00209397
-7.05594e-05
0.000628066
-0.000220181
0.00130713
-0.000409772
0.00163908
-0.000617205
0.00178442
-0.000834324
0.00186601
-0.00106003
0.00194185
-0.00129534
0.00202778
-0.00154158
0.00212604
-0.00180017
0.00223689
0.00235855
-0.00207222
-6.85942e-05
0.00069666
-0.00021528
0.00145381
-0.000402103
0.00182591
-0.000607101
0.00198942
-0.000821938
0.00208085
-0.00104538
0.00216529
-0.00127837
0.00226077
-0.00152223
0.00236991
-0.00177836
0.00249302
0.00262803
-0.00204784
-6.64218e-05
0.000763082
-0.000209849
0.00159724
-0.000393597
0.00200965
-0.000595895
0.00219172
-0.000808205
0.00229316
-0.00102913
0.00238621
-0.00125956
0.0024912
-0.00150079
0.00261114
-0.0017542
0.00274643
0.00289467
-0.00202085
-6.40458e-05
0.000827127
-0.000203893
0.00173709
-0.000384257
0.00219002
-0.000583586
0.00239105
-0.000793126
0.0025027
-0.0010113
0.00260438
-0.00123893
0.00271883
-0.00147728
0.0028495
-0.00172773
0.00299688
0.00315822
-0.00199128
-6.14699e-05
0.000888597
-0.000197416
0.00187303
-0.000374085
0.00236669
-0.000570177
0.00258714
-0.000776704
0.00270923
-0.000991887
0.00281957
-0.00121648
0.00294342
-0.00145172
0.00308473
-0.00169895
0.00324411
0.00341842
-0.00195916
-5.86985e-05
0.000947296
-0.000190423
0.00200476
-0.000363085
0.00253935
-0.000555669
0.00277972
-0.000758942
0.0029125
-0.000970905
0.00303153
-0.00119223
0.00316474
-0.00142411
0.00331662
-0.0016679
0.0034879
0.00367504
-0.00192452
-5.57367e-05
0.00100303
-0.000182919
0.00213194
-0.00035126
0.00270769
-0.000540066
0.00296853
-0.000739844
0.00311228
-0.000948356
0.00324004
-0.00116617
0.00338256
-0.00139447
0.00354491
-0.00163458
0.00372801
0.00392786
-0.0018874
-5.25897e-05
0.00105562
-0.000174912
0.00225426
-0.000338613
0.00287139
-0.000523368
0.00315328
-0.000719413
0.00330832
-0.000924247
0.00344488
-0.00113833
0.00359665
-0.00136281
0.00376938
-0.00159902
0.00396423
0.00417669
-0.00184785
-4.92638e-05
0.00110489
-0.000166407
0.0023714
-0.00032515
0.00303013
-0.000505578
0.00333371
-0.000697652
0.0035004
-0.000898582
0.00364581
-0.00110871
0.00380678
-0.00132915
0.00398982
-0.00156125
0.00419633
0.00442134
-0.0018059
-4.57658e-05
0.00115065
-0.000157415
0.00248305
-0.000310875
0.00318359
-0.000486701
0.00350954
-0.000674564
0.00368826
-0.000871369
0.00384261
-0.00107733
0.00401274
-0.00129348
0.00420597
-0.00152127
0.00442412
0.00466169
-0.00176161
-4.21033e-05
0.00119275
-0.000147945
0.0025889
-0.000295795
0.00333144
-0.000466738
0.00368048
-0.000650153
0.00387167
-0.000842613
0.00403507
-0.00104418
0.00421431
-0.00125583
0.00441763
-0.00147908
0.00464736
0.00489763
-0.00171503
-3.82846e-05
0.00123104
-0.000138007
0.00268862
-0.000279918
0.00347336
-0.000445695
0.00384625
-0.000624424
0.0040504
-0.000812321
0.00422297
-0.00100928
0.00441127
-0.0012162
0.00462455
-0.00143468
0.00486585
0.00512914
-0.00166619
-3.4319e-05
0.00126536
-0.000127614
0.00278191
-0.000263253
0.00360899
-0.000423576
0.00400658
-0.000597381
0.00422421
-0.0007805
0.00440609
-0.000972649
0.00460341
-0.00117459
0.00482649
-0.00138802
0.00507927
0.00535626
-0.00161514
-3.02167e-05
0.00129558
-0.000116782
0.00286848
-0.00024581
0.00373802
-0.000400388
0.00416116
-0.00056903
0.00439285
-0.000747155
0.00458421
-0.000934297
0.00479056
-0.00113102
0.00502321
-0.001339
0.00528725
0.00557916
-0.00156191