/*--------------------------------*- C++ -*----------------------------------*\
  =========                 |
  \\      /  F ield         | OpenFOAM: The Open Source CFD Toolbox
   \\    /   O peration     | Website:  https://openfoam.org
    \\  /    A nd           | Version:  7
     \\/     M anipulation  |
\*---------------------------------------------------------------------------*/
FoamFile
{
    version     2.0;
    format      ascii;
    class       surfaceScalarField;
    location    "10";
    object      phi;
}
// * * * * * * * * * * * * * * * * * * * * * * * * * * * * * * * * * * * * * //

dimensions      [0 3 -1 0 0 0 0];

internalField   nonuniform List<scalar> 
6370
(
-1.52139e-06
1.52139e-06
-8.11709e-12
-5.47571e-06
3.95436e-06
-2.79476e-11
-1.14473e-05
5.97164e-06
-5.26877e-11
-1.90341e-05
7.58684e-06
-8.23762e-11
-2.78475e-05
8.81353e-06
-1.1626e-10
-3.75181e-05
9.67079e-06
-1.54021e-10
-4.77014e-05
1.01834e-05
-1.95247e-10
-5.80853e-05
1.03842e-05
-2.39465e-10
-6.84013e-05
1.03162e-05
-2.86691e-10
-7.84361e-05
1.00352e-05
-3.36833e-10
-8.80472e-05
9.61149e-06
-3.89423e-10
-9.71772e-05
9.13037e-06
-4.44657e-10
-0.000105864
8.68687e-06
-5.02483e-10
-0.000114231
8.36792e-06
-5.62359e-10
8.31306e-06
-6.24548e-10
-0.000122543
-1.50379e-06
3.02519e-06
-5.40696e-06
7.85753e-06
-1.12926e-05
1.18573e-05
-1.87566e-05
1.50508e-05
-2.74076e-05
1.74646e-05
-3.68729e-05
1.9136e-05
-4.68031e-05
2.01137e-05
-5.68812e-05
2.04623e-05
-6.68319e-05
2.02669e-05
-7.64351e-05
1.96384e-05
-8.55406e-05
1.8717e-05
-9.40839e-05
1.76736e-05
-0.000102097
1.66998e-05
-0.000109701
1.59719e-05
1.57718e-05
-0.00011716
-1.46878e-06
4.49397e-06
-5.27007e-06
1.16588e-05
-1.09844e-05
1.75716e-05
-1.82037e-05
2.22701e-05
-2.65313e-05
2.57922e-05
-3.55871e-05
2.81918e-05
-4.50132e-05
2.95399e-05
-5.44816e-05
2.99306e-05
-6.37043e-05
2.94897e-05
-7.24471e-05
2.83812e-05
-8.05446e-05
2.68145e-05
-8.79178e-05
2.50469e-05
-9.45872e-05
2.33692e-05
-0.000100667
2.2052e-05
2.15246e-05
-0.00010642
-1.41671e-06
5.91069e-06
-5.06626e-06
1.53084e-05
-1.05253e-05
2.30306e-05
-1.73798e-05
2.91246e-05
-2.52249e-05
3.36373e-05
-3.36701e-05
3.6637e-05
-4.23444e-05
3.82141e-05
-5.09034e-05
3.84897e-05
-5.90405e-05
3.76267e-05
-6.64997e-05
3.58404e-05
-7.30929e-05
3.34077e-05
-7.87194e-05
3.06733e-05
-8.33818e-05
2.80317e-05
-8.71844e-05
2.58546e-05
2.47265e-05
-9.03863e-05
-1.34808e-06
7.25877e-06
-4.79724e-06
1.87575e-05
-9.91886e-06
2.81522e-05
-1.62909e-05
3.54967e-05
-2.34979e-05
4.08443e-05
-3.11354e-05
4.42745e-05
-3.8815e-05
4.58937e-05
-4.61712e-05
4.5846e-05
-5.28722e-05
4.43276e-05
-5.86331e-05
4.16013e-05
-6.32352e-05
3.80099e-05
-6.6548e-05
3.39861e-05
-6.85504e-05
3.00341e-05
-6.93332e-05
2.66373e-05
2.45432e-05
-6.91498e-05
-1.26352e-06
8.52229e-06
-4.46517e-06
2.19592e-05
-9.16954e-06
3.28566e-05
-1.49446e-05
4.12718e-05
-2.13618e-05
4.72614e-05
-2.79995e-05
5.09123e-05
-3.44482e-05
5.23423e-05
-4.03162e-05
5.17139e-05
-4.52399e-05
4.92514e-05
-4.88988e-05
4.52602e-05
-5.10351e-05
4.01462e-05
-5.14803e-05
3.44314e-05
-5.01832e-05
2.8737e-05
-4.72205e-05
2.36746e-05
2.01518e-05
-4.28291e-05
-1.16372e-06
9.68601e-06
-4.07247e-06
2.48679e-05
-8.28242e-06
3.70666e-05
-1.33497e-05
4.63391e-05
-1.883e-05
5.27417e-05
-2.42821e-05
5.63643e-05
-2.9271e-05
5.73313e-05
-3.33744e-05
5.58173e-05
-3.61913e-05
5.20683e-05
-3.73578e-05
4.64267e-05
-3.65685e-05
3.93569e-05
-3.36079e-05
3.14707e-05
-2.83851e-05
2.35142e-05
-2.09696e-05
1.62591e-05
1.08539e-05
-1.16716e-05
-1.04943e-06
1.07354e-05
-3.62173e-06
2.74402e-05
-7.2629e-06
4.07077e-05
-1.15153e-05
5.05915e-05
-1.59169e-05
5.71433e-05
-2.00038e-05
6.04512e-05
-2.33127e-05
6.06403e-05
-2.53858e-05
5.78904e-05
-2.57794e-05
5.24618e-05
-2.40786e-05
4.47259e-05
-1.99217e-05
3.52e-05
-1.30355e-05
2.45845e-05
-3.27741e-06
1.37561e-05
9.33536e-06
3.64634e-06
-4.21802e-06
2.44073e-05
-9.21385e-07
1.16568e-05
-3.11548e-06
2.96343e-05
-6.11637e-06
4.37086e-05
-9.45084e-06
5.39259e-05
-1.2637e-05
6.03295e-05
-1.5186e-05
6.30002e-05
-1.66033e-05
6.20576e-05
-1.63919e-05
5.7679e-05
-1.40598e-05
5.01298e-05
-9.13457e-06
3.98006e-05
-1.18847e-06
2.72539e-05
1.012e-05
1.3276e-05
2.499e-05
-1.11391e-06
4.34169e-05
-1.47805e-05
-2.59005e-05
6.50994e-05
-7.80258e-07
1.24371e-05
-2.55612e-06
3.14102e-05
-4.84792e-06
4.60004e-05
-7.16511e-06
5.62431e-05
-9.00423e-06
6.21686e-05
-9.84946e-06
6.38455e-05
-9.17246e-06
6.13806e-05
-6.4339e-06
5.49404e-05
-1.08909e-06
4.4785e-05
7.39874e-06
3.13128e-05
1.95325e-05
1.51202e-05
3.57348e-05
-2.9263e-06
5.62777e-05
-2.16567e-05
8.12037e-05
-3.97065e-05
-5.48723e-05
0.000110175
-6.26628e-07
1.30637e-05
-1.94572e-06
3.27293e-05
-3.46202e-06
4.75167e-05
-4.66601e-06
5.74471e-05
-5.0311e-06
6.25337e-05
-4.01288e-06
6.28272e-05
-1.0474e-06
5.84151e-05
4.44942e-06
4.94436e-05
1.30786e-05
3.61558e-05
2.54469e-05
1.89444e-05
4.21418e-05
-1.57469e-06
6.36803e-05
-2.44648e-05
9.04248e-05
-4.84012e-05
0.000122476
-7.17577e-05
-9.18645e-05
0.000159468
-4.60932e-07
1.35246e-05
-1.28592e-06
3.35543e-05
-1.96229e-06
4.81931e-05
-1.96005e-06
5.74449e-05
-7.28109e-07
6.13017e-05
2.3077e-06
5.97914e-05
7.74819e-06
5.29746e-05
1.62237e-05
4.09681e-05
2.83938e-05
2.39857e-05
4.494e-05
2.39821e-06
6.65423e-05
-2.3177e-05
9.38264e-05
-5.17489e-05
0.000127265
-8.18395e-05
0.000167035
-0.000111528
-0.000137595
0.000212765
-2.83452e-07
1.38081e-05
-5.77844e-07
3.38487e-05
-3.51345e-07
4.79666e-05
9.47916e-07
5.61456e-05
3.8967e-06
5.8353e-05
9.09985e-06
5.45883e-05
1.71955e-05
4.48789e-05
2.88607e-05
2.9303e-05
4.48146e-05
8.03186e-06
6.58156e-05
-1.86029e-05
9.26435e-05
-5.00049e-05
0.000126046
-8.51518e-05
0.00016663
-0.000122423
0.000214678
-0.000159576
-0.0001927
0.000269783
-9.43147e-08
1.39024e-05
1.77873e-07
3.35765e-05
1.36916e-06
4.67753e-05
4.05472e-06
5.346e-05
8.83798e-06
5.35697e-05
1.6355e-05
4.70712e-05
2.72815e-05
3.39525e-05
4.23401e-05
1.42443e-05
6.23087e-05
-1.19367e-05
8.8023e-05
-4.43172e-05
0.000120366
-8.2348e-05
0.000160222
-0.000125008
0.000208357
-0.000170558
0.000265202
-0.00021642
-0.000257884
0.000330385
1.06573e-07
1.37958e-05
9.81075e-07
3.2702e-05
3.19858e-06
4.45578e-05
7.35877e-06
4.92999e-05
1.40928e-05
4.68356e-05
2.40685e-05
3.70955e-05
3.79985e-05
2.00226e-05
5.66497e-05
-4.40689e-06
8.08554e-05
-3.61425e-05
0.000111525
-7.49872e-05
0.000149646
-0.000120469
0.000196247
-0.000171608
0.000252283
-0.000226595
0.000318386
-0.000282523
-0.000333768
0.00039427
3.19292e-07
1.34765e-05
1.83198e-06
3.11893e-05
5.13684e-06
4.12529e-05
1.08595e-05
4.35772e-05
1.96601e-05
3.80351e-05
3.22386e-05
2.4517e-05
4.9344e-05
2.91721e-06
7.17852e-05
-2.6848e-05
0.000100446
-6.48033e-05
0.000136303
-0.000110844
0.00018044
-0.000164605
0.000234033
-0.000225202
0.000298257
-0.000290819
0.000374006
-0.000358272
-0.000420928
0.000461165
5.44105e-07
1.29324e-05
2.73087e-06
2.90025e-05
7.18409e-06
3.67997e-05
1.45568e-05
3.62044e-05
2.55394e-05
2.70526e-05
4.0865e-05
9.19129e-06
6.13187e-05
-1.75365e-05
8.77485e-05
-5.32778e-05
0.000121083
-9.81375e-05
0.000162354
-0.000152115
0.000212728
-0.00021498
0.000273523
-0.000285997
0.000346148
-0.000363444
0.000431838
-0.000443962
-0.000519883
0.000530794
7.81188e-07
1.21512e-05
3.67789e-06
2.61058e-05
9.34006e-06
3.11375e-05
1.84497e-05
2.70948e-05
3.17291e-05
1.37731e-05
4.99465e-05
-9.02602e-06
7.3923e-05
-4.1513e-05
0.000104544
-8.38989e-05
0.000142775
-0.000136369
0.000189691
-0.000199031
0.00024652
-0.000271808
0.000314694
-0.000354171
0.00039586
-0.000444609
0.000491674
-0.000539776
-0.000631062
0.000602853
1.03061e-06
1.11206e-05
4.67271e-06
2.24637e-05
1.16034e-05
2.42069e-05
2.25352e-05
1.61629e-05
3.82249e-05
-1.91653e-06
5.94775e-05
-3.02787e-05
8.71528e-05
-6.91883e-05
0.000122173
-0.000118919
0.000165535
-0.000179731
0.000218342
-0.000251838
0.000281851
-0.000335318
0.00035757
-0.00042989
0.000447351
-0.00053439
0.000553332
-0.000645756
-0.000754758
0.000677028
1.29221e-06
9.82843e-06
5.71417e-06
1.80417e-05
1.39707e-05
1.59503e-05
2.68071e-05
3.32658e-06
4.50166e-05
-2.0126e-05
6.94448e-05
-5.47069e-05
0.000100993
-0.000100737
0.000140623
-0.000158548
0.000189363
-0.000228471
0.000248329
-0.000310805
0.000318781
-0.000405769
0.000402234
-0.000513343
0.000500669
-0.000632826
0.000616704
-0.000761792
-0.000891056
0.000753002
1.56554e-06
8.26289e-06
6.79995e-06
1.28073e-05
1.64364e-05
6.31386e-06
3.12541e-05
-1.14911e-05
5.20862e-05
-4.09581e-05
7.98224e-05
-8.24432e-05
0.000115412
-0.000136326
0.00015986
-0.000202997
0.000214233
-0.000282844
0.00027966
-0.000376232
0.000357371
-0.000483481
0.000448821
-0.000604793
0.000555986
-0.00073999
0.000681837
-0.000887644
-0.00103973
0.000830506
1.84974e-06
6.41314e-06
7.92638e-06
6.73071e-06
1.89914e-05
-4.7512e-06
3.58595e-05
-2.83592e-05
5.94057e-05
-6.45042e-05
9.05686e-05
-0.000113606
0.000130351
-0.000176108
0.000179814
-0.000252461
0.000240074
-0.000343103
0.000312286
-0.000448443
0.000397651
-0.000568846
0.000497502
-0.000704643
0.000613627
-0.000856115
0.00074903
-0.00102305
-0.00120014
0.000909444
2.14359e-06
4.26956e-06
9.08834e-06
-2.1405e-07
2.16237e-05
-1.72865e-05
4.05999e-05
-4.73354e-05
6.69359e-05
-9.08402e-05
0.000101622
-0.000148292
0.000145722
-0.000220207
0.000200366
-0.000307105
0.000266741
-0.000409479
0.000346067
-0.000527769
0.000439559
-0.000662338
0.00054843
-0.000813514
0.000674095
-0.000981781
0.000818939
-0.00116789
-0.00137154
0.000990336
2.44546e-06
1.8241e-06
1.02794e-05
-8.04797e-06
2.43178e-05
-3.13249e-05
4.54459e-05
-6.84636e-05
7.46263e-05
-0.000120021
0.000112902
-0.000186569
0.000161402
-0.000268707
0.000221337
-0.000367039
0.000293993
-0.000482135
0.000380715
-0.000614491
0.000482851
-0.000764474
0.000601688
-0.000932351
0.00073832
-0.00111841
0.00089325
-0.00132282
-0.00155311
0.00107483
2.75346e-06
-9.29367e-07
1.1492e-05
-1.67865e-05
2.7056e-05
-4.68889e-05
5.03633e-05
-9.17709e-05
8.2417e-05
-0.000152074
0.000124311
-0.000228463
0.000177236
-0.000321632
0.000242487
-0.00043229
0.000321469
-0.000561118
0.000415711
-0.000708733
0.000526881
-0.000875643
0.000656828
-0.0010623
0.000807486
-0.00126907
0.00097828
-0.00149361
-0.00173846
0.00116362
3.06562e-06
-3.99498e-06
1.27183e-05
-2.64391e-05
2.98194e-05
-6.39901e-05
5.53152e-05
-0.000117267
9.02431e-05
-0.000187002
0.000135739
-0.000273959
0.000193046
-0.00037894
0.000263529
-0.000502772
0.000348698
-0.000646287
0.000450267
-0.000810303
0.000570286
-0.000995662
0.000711453
-0.00120346
0.000878033
-0.00143565
0.00108071
-0.00169629
-0.00201372
0.00135598
3.3798e-06
-7.37479e-06
1.39498e-05
-3.70092e-05
3.25883e-05
-8.26286e-05
6.02631e-05
-0.000144941
9.8037e-05
-0.000224776
0.000147074
-0.000322996
0.000208649
-0.000440515
0.000284163
-0.000578286
0.000375174
-0.000737298
0.000483473
-0.000918602
0.000611235
-0.00112342
0.000761331
-0.00135356
0.000938029
-0.00161235
0.00114868
-0.00190694
-0.00226029
0.00139526
3.6942e-06
-1.1069e-05
1.51792e-05
-4.84942e-05
3.53447e-05
-0.000102794
6.51721e-05
-0.000174769
0.000105737
-0.000265341
0.000158215
-0.000375474
0.000223884
-0.000506183
0.000304135
-0.000658537
0.000400499
-0.000833662
0.000514691
-0.00103279
0.000648704
-0.00125744
0.00080492
-0.00150978
0.000986153
-0.00179358
0.0011952
-0.00211599
-0.00249254
0.00142745
4.00724e-06
-1.50762e-05
1.63999e-05
-6.08868e-05
3.80727e-05
-0.000124467
7.00111e-05
-0.000206707
0.000113291
-0.000308621
0.000169077
-0.00043126
0.000238621
-0.000575727
0.00032326
-0.000743177
0.000424422
-0.000934824
0.00054363
-0.001152
0.000682504
-0.00139631
0.000842689
-0.00166996
0.00102552
-0.00197641
0.00123098
-0.00232145
-0.00271488
0.00145331
4.31768e-06
-1.93939e-05
1.76063e-05
-7.41754e-05
4.07586e-05
-0.000147619
7.4754e-05
-0.000240703
0.000120654
-0.000354521
0.000179592
-0.000490198
0.000252766
-0.000648901
0.000341419
-0.00083183
0.00044682
-0.00104022
0.000570227
-0.00127541
0.000712819
-0.0015389
0.000875509
-0.00183265
0.00105849
-0.00215939
0.00126025
-0.00252322
-0.00292978
0.00147515
4.62458e-06
-2.40185e-05
1.87939e-05
-8.83448e-05
4.33913e-05
-0.000172216
7.93795e-05
-0.000276691
0.000127791
-0.000402932
0.00018971
-0.000552118
0.000266254
-0.000725445
0.000358541
-0.000924117
0.000467645
-0.00114933
0.000594528
-0.00140229
0.000739924
-0.0016843
0.00090411
-0.00199684
0.00108647
-0.00234174
0.00128474
-0.00272149
-0.00313878
0.00149374
4.92723e-06
-2.89457e-05
1.99592e-05
-0.000103377
4.59615e-05
-0.000198219
8.38697e-05
-0.000314599
0.000134673
-0.000453735
0.00019939
-0.000616835
0.000279037
-0.000805092
0.000374582
-0.00101966
0.000486885
-0.00126163
0.000616603
-0.00153201
0.000764057
-0.00183175
0.000928998
-0.00216178
0.00111024
-0.00252299
0.00130517
-0.00291641
-0.00334265
0.00150903
5.22504e-06
-3.41708e-05
2.10989e-05
-0.000119251
4.84609e-05
-0.000225581
8.82089e-05
-0.000354347
0.000141276
-0.000506802
0.000208598
-0.000684157
0.000291074
-0.000887569
0.000389508
-0.0011181
0.00050453
-0.00137665
0.000636503
-0.00166398
0.000785372
-0.00198062
0.000950461
-0.00232687
0.00113019
-0.00270272
0.00132173
-0.00310796
-0.00354161
0.0015207
5.51743e-06
-3.96882e-05
2.22098e-05
-0.000135943
5.08815e-05
-0.000254252
9.23816e-05
-0.000395847
0.000147575
-0.000561995
0.000217302
-0.000753884
0.000302328
-0.000972595
0.00040328
-0.00121905
0.00052056
-0.00149393
0.000654241
-0.00179766
0.000803934
-0.00213031
0.00096861
-0.00249154
0.00114639
-0.0028805
0.00133435
-0.00329592
-0.0037356
0.00152834
5.80371e-06
2.32885e-05
5.32144e-05
-0.000284178
9.63718e-05
-0.000439005
0.000153544
-0.000619168
0.000225465
-0.000825804
0.000312754
-0.00105989
0.000415853
-0.00132215
0.000534931
-0.00161301
0.000669788
-0.00193252
0.000819729
-0.00228026
0.00098343
-0.00265524
0.00115879
-0.00305586
0.00134281
-0.00347993
-0.00392429
0.0015315
5.54499e-05
0.000100161
-0.000483716
0.000159156
-0.000678163
0.000233047
-0.000899695
0.000322302
-0.00114914
0.000427165
-0.00142701
0.000547577
-0.00173342
0.000683074
-0.00206802
0.000832685
-0.00242987
0.000994829
-0.00281739
0.00116722
-0.00322826
0.00134682
-0.00365953
-0.00410726
0.00152979
0.000103729
0.000164377
0.000240004
-0.000975322
0.00033091
-0.00124005
0.000437144
-0.00153324
0.000558414
-0.00185469
0.000694005
-0.00220361
0.000842691
-0.00257855
0.00100267
-0.00297737
0.00117151
-0.0033971
0.00134614
-0.00383416
-0.00428399
0.00152286
0.000246282
0.000338511
0.000445705
-0.00164044
0.000567343
-0.00197633
0.000702467
-0.00233873
0.000849618
-0.0027257
0.0010068
-0.00313455
0.00117146
-0.00356175
0.00134052
-0.00400322
-0.0044539
0.00151043
0.00045276
0.00057426
0.000708343
-0.00247282
0.000853335
-0.0028707
0.00100707
-0.00328828
0.0011669
-0.00372159
0.00132979
-0.00416611
-0.00461643
0.00149232
0.000711514
0.000853717
0.00100335
-0.00343792
0.00115773
-0.00387596
0.00131382
-0.0043222
-0.00477102
0.00146841
0.000995562
0.00114384
0.00129257
-0.00447093
-0.00491716
0.00143871
0.00126605
0.00140327
0.00126605
0.00447093
0.00491716
0.00140327
0.000850661
0.0030129
0.000995561
0.00343792
0.00114384
0.00387596
0.00129257
0.0043222
0.00477102
0.00143871
0.000579057
0.00209783
0.000711514
0.00247282
0.000853717
0.0028707
0.00100335
0.00328828
0.00115773
0.00372159
0.00131382
0.00416611
0.00461643
0.00146841
0.00045276
0.00164044
0.00057426
0.00197633
0.000708343
0.00233873
0.000853335
0.0027257
0.00100707
0.00313455
0.0011669
0.00356175
0.00132979
0.00400322
0.0044539
0.00149232
0.000246281
0.000975322
0.000338511
0.00124005
0.000445705
0.00153324
0.000567343
0.00185469
0.000702467
0.00220361
0.000849618
0.00257855
0.0010068
0.00297737
0.00117146
0.0033971
0.00134052
0.00383416
0.00428399
0.00151043
0.000103728
0.000483716
0.000164377
0.000678163
0.000240004
0.000899696
0.00033091
0.00114914
0.000437144
0.00142701
0.000558414
0.00173342
0.000694005
0.00206802
0.000842691
0.00242987
0.00100267
0.00281739
0.00117151
0.00322826
0.00134614
0.00365953
0.00410726
0.00152286
5.54499e-05
0.000284179
0.000100161
0.000439005
0.000159156
0.000619168
0.000233047
0.000825805
0.000322302
0.00105989
0.000427165
0.00132215
0.000547577
0.00161301
0.000683074
0.00193252
0.000832685
0.00228026
0.000994829
0.00265524
0.00116722
0.00305586
0.00134682
0.00347993
0.00392429
0.00152979
5.8037e-06
3.96882e-05
2.32885e-05
0.000135943
5.32144e-05
0.000254253
9.63718e-05
0.000395848
0.000153544
0.000561995
0.000225465
0.000753884
0.000312755
0.000972596
0.000415853
0.00121905
0.000534931
0.00149393
0.000669788
0.00179767
0.000819729
0.00213031
0.00098343
0.00249154
0.00115879
0.0028805
0.00134281
0.00329592
0.0037356
0.0015315
5.51743e-06
3.41708e-05
2.22098e-05
0.000119251
5.08815e-05
0.000225581
9.23816e-05
0.000354347
0.000147575
0.000506802
0.000217302
0.000684158
0.000302328
0.000887569
0.00040328
0.0011181
0.00052056
0.00137665
0.000654241
0.00166398
0.000803934
0.00198062
0.00096861
0.00232687
0.00114639
0.00270272
0.00133435
0.00310796
0.00354161
0.00152833
5.22504e-06
2.89458e-05
2.10989e-05
0.000103377
4.84609e-05
0.000198219
8.82089e-05
0.0003146
0.000141276
0.000453736
0.000208598
0.000616835
0.000291074
0.000805093
0.000389508
0.00101966
0.00050453
0.00126163
0.000636503
0.00153201
0.000785372
0.00183175
0.000950461
0.00216178
0.00113019
0.00252299
0.00132173
0.00291641
0.00334265
0.0015207
4.92723e-06
2.40185e-05
1.99592e-05
8.8345e-05
4.59615e-05
0.000172217
8.38697e-05
0.000276691
0.000134673
0.000402932
0.00019939
0.000552118
0.000279037
0.000725446
0.000374582
0.000924118
0.000486885
0.00114933
0.000616603
0.00140229
0.000764057
0.0016843
0.000928998
0.00199684
0.00111024
0.00234174
0.00130517
0.00272149
0.00313878
0.00150903
4.62458e-06
1.9394e-05
1.87939e-05
7.41756e-05
4.33913e-05
0.000147619
7.93795e-05
0.000240703
0.000127791
0.000354521
0.00018971
0.000490199
0.000266254
0.000648902
0.000358541
0.000831831
0.000467645
0.00104023
0.000594528
0.00127541
0.000739924
0.0015389
0.00090411
0.00183265
0.00108647
0.00215939
0.00128474
0.00252322
0.00292978
0.00149374
4.31768e-06
1.50763e-05
1.76063e-05
6.0887e-05
4.07586e-05
0.000124467
7.47541e-05
0.000206708
0.000120654
0.000308622
0.000179592
0.00043126
0.000252766
0.000575727
0.00034142
0.000743177
0.00044682
0.000934825
0.000570227
0.001152
0.000712819
0.00139631
0.000875509
0.00166996
0.00105849
0.00197641
0.00126025
0.00232145
0.00271488
0.00147515
4.00724e-06
1.1069e-05
1.63999e-05
4.84943e-05
3.80727e-05
0.000102794
7.00111e-05
0.000174769
0.000113291
0.000265342
0.000169077
0.000375474
0.000238621
0.000506184
0.00032326
0.000658538
0.000424422
0.000833663
0.00054363
0.00103279
0.000682504
0.00125744
0.000842689
0.00150978
0.00102552
0.00179358
0.00123098
0.00211599
0.00249255
0.00145331
3.6942e-06
7.37484e-06
1.51792e-05
3.70093e-05
3.53448e-05
8.26288e-05
6.51721e-05
0.000144942
0.000105737
0.000224776
0.000158215
0.000322996
0.000223884
0.000440515
0.000304135
0.000578287
0.000400499
0.000737299
0.000514691
0.000918602
0.000648704
0.00112342
0.00080492
0.00135356
0.000986153
0.00161235
0.0011952
0.00190694
0.00226029
0.00142745
3.37981e-06
3.99503e-06
1.39498e-05
2.64393e-05
3.25883e-05
6.39903e-05
6.02631e-05
0.000117267
9.8037e-05
0.000187002
0.000147074
0.000273959
0.000208649
0.00037894
0.000284163
0.000502773
0.000375174
0.000646287
0.000483473
0.000810303
0.000611235
0.000995663
0.000761331
0.00120346
0.000938029
0.00143565
0.00114868
0.00169629
0.00201372
0.00139526
3.06562e-06
9.29413e-07
1.27183e-05
1.67866e-05
2.98195e-05
4.68891e-05
5.53152e-05
9.17712e-05
9.02431e-05
0.000152075
0.000135739
0.000228463
0.000193046
0.000321633
0.000263529
0.000432291
0.000348698
0.000561118
0.000450267
0.000708734
0.000570286
0.000875644
0.000711453
0.0010623
0.000878033
0.00126907
0.00108071
0.00149361
0.00173846
0.00135598
2.75346e-06
-1.82405e-06
1.1492e-05
8.0481e-06
2.7056e-05
3.13251e-05
5.03633e-05
6.84639e-05
8.2417e-05
0.000120021
0.000124311
0.000186569
0.000177236
0.000268708
0.000242487
0.00036704
0.000321469
0.000482136
0.000415711
0.000614491
0.000526881
0.000764475
0.000656828
0.000932352
0.000807486
0.00111841
0.00097828
0.00132282
0.00155311
0.00116362
2.44546e-06
-4.26951e-06
1.02794e-05
2.14176e-07
2.43178e-05
1.72867e-05
4.5446e-05
4.73357e-05
7.46263e-05
9.08406e-05
0.000112902
0.000148293
0.000161402
0.000220208
0.000221337
0.000307105
0.000293994
0.000409479
0.000380715
0.00052777
0.000482851
0.000662339
0.000601688
0.000813514
0.00073832
0.000981782
0.00089325
0.00116789
0.00137154
0.00107483
2.14359e-06
-6.4131e-06
9.08835e-06
-6.73059e-06
2.16237e-05
4.7514e-06
4.05999e-05
2.83595e-05
6.69359e-05
6.45046e-05
0.000101622
0.000113606
0.000145722
0.000176108
0.000200366
0.000252461
0.000266741
0.000343104
0.000346068
0.000448444
0.000439559
0.000568847
0.00054843
0.000704644
0.000674095
0.000856116
0.000818939
0.00102305
0.00120014
0.000990336
1.84975e-06
-8.26285e-06
7.92638e-06
-1.28072e-05
1.89915e-05
-6.31367e-06
3.58595e-05
1.14914e-05
5.94057e-05
4.09584e-05
9.05686e-05
8.24436e-05
0.000130351
0.000136326
0.000179814
0.000202997
0.000240074
0.000282844
0.000312286
0.000376232
0.000397651
0.000483481
0.000497502
0.000604794
0.000613627
0.000739991
0.00074903
0.000887644
0.00103973
0.000909444
1.56554e-06
-9.82839e-06
6.79995e-06
-1.80416e-05
1.64364e-05
-1.59501e-05
3.12541e-05
-3.32633e-06
5.20862e-05
2.01264e-05
7.98225e-05
5.47073e-05
0.000115412
0.000100737
0.00015986
0.000158549
0.000214233
0.000228471
0.00027966
0.000310805
0.000357371
0.00040577
0.000448821
0.000513344
0.000555986
0.000632826
0.000681837
0.000761793
0.000891057
0.000830506
1.29222e-06
-1.11206e-05
5.71418e-06
-2.24636e-05
1.39708e-05
-2.42067e-05
2.68071e-05
-1.61627e-05
4.50166e-05
1.91685e-06
6.94448e-05
3.0279e-05
0.000100993
6.91887e-05
0.000140623
0.000118919
0.000189363
0.000179732
0.000248329
0.000251839
0.000318781
0.000335319
0.000402234
0.000429891
0.000500669
0.000534391
0.000616704
0.000645757
0.000754759
0.000753002
1.03061e-06
-1.21512e-05
4.67272e-06
-2.61057e-05
1.16034e-05
-3.11374e-05
2.25353e-05
-2.70945e-05
3.82249e-05
-1.37728e-05
5.94776e-05
9.0264e-06
8.71528e-05
4.15135e-05
0.000122173
8.38994e-05
0.000165535
0.000136369
0.000218342
0.000199032
0.000281851
0.000271809
0.00035757
0.000354172
0.000447351
0.00044461
0.000553332
0.000539777
0.000631063
0.000677027
7.81189e-07
-1.29324e-05
3.6779e-06
-2.90024e-05
9.34007e-06
-3.67995e-05
1.84497e-05
-3.62042e-05
3.17292e-05
-2.70523e-05
4.99465e-05
-9.19092e-06
7.39231e-05
1.75369e-05
0.000104544
5.32783e-05
0.000142775
9.8138e-05
0.000189691
0.000152116
0.00024652
0.000214981
0.000314694
0.000285998
0.00039586
0.000363444
0.000491674
0.000443963
0.000519884
0.000602853
5.44106e-07
-1.34765e-05
2.73087e-06
-3.11892e-05
7.18411e-06
-4.12528e-05
1.45568e-05
-4.35769e-05
2.55394e-05
-3.80348e-05
4.08651e-05
-2.45166e-05
6.13187e-05
-2.91678e-06
8.77485e-05
2.68485e-05
0.000121083
6.48039e-05
0.000162354
0.000110845
0.000212728
0.000164606
0.000273523
0.000225202
0.000346148
0.00029082
0.000431838
0.000358272
0.000420929
0.000530794
3.19294e-07
-1.37958e-05
1.83198e-06
-3.27019e-05
5.13686e-06
-4.45577e-05
1.08596e-05
-4.92996e-05
1.96601e-05
-4.68354e-05
3.22387e-05
-3.70951e-05
4.9344e-05
-2.00222e-05
7.17852e-05
4.40738e-06
0.000100446
3.61431e-05
0.000136303
7.49878e-05
0.00018044
0.000120469
0.000234033
0.000171609
0.000298257
0.000226596
0.000374005
0.000282524
0.000333769
0.000461165
1.06574e-07
-1.39024e-05
9.8108e-07
-3.35764e-05
3.19859e-06
-4.67752e-05
7.35879e-06
-5.34598e-05
1.40928e-05
-5.35694e-05
2.40686e-05
-4.70709e-05
3.79985e-05
-3.39521e-05
5.66497e-05
-1.42438e-05
8.08555e-05
1.19373e-05
0.000111525
4.43178e-05
0.000149646
8.23487e-05
0.000196247
0.000125008
0.000252283
0.000170559
0.000318386
0.000216421
0.000257885
0.00039427
-9.43134e-08
-1.38081e-05
1.77878e-07
-3.38486e-05
1.36917e-06
-4.79665e-05
4.05474e-06
-5.61454e-05
8.838e-06
-5.83527e-05
1.63551e-05
-5.45879e-05
2.72815e-05
-4.48785e-05
4.23401e-05
-2.93025e-05
6.23087e-05
-8.0313e-06
8.8023e-05
1.86035e-05
0.000120366
5.00056e-05
0.000160222
8.51526e-05
0.000208357
0.000122424
0.000265202
0.000159577
0.000192701
0.000330385
-2.83451e-07
-1.35246e-05
-5.77839e-07
-3.35542e-05
-3.51335e-07
-4.8193e-05
9.47931e-07
-5.74447e-05
3.89672e-06
-6.13015e-05
9.09987e-06
-5.97911e-05
1.71956e-05
-5.29742e-05
2.88607e-05
-4.09677e-05
4.48146e-05
-2.39851e-05
6.58157e-05
-2.39757e-06
9.26435e-05
2.31777e-05
0.000126046
5.17497e-05
0.00016663
8.18404e-05
0.000214678
0.000111529
0.000137596
0.000269783
-4.60931e-07
-1.30637e-05
-1.28592e-06
-3.27292e-05
-1.96228e-06
-4.75166e-05
-1.96003e-06
-5.74469e-05
-7.2809e-07
-6.25334e-05
2.30773e-06
-6.28269e-05
7.74822e-06
-5.84147e-05
1.62237e-05
-4.94431e-05
2.83938e-05
-3.61552e-05
4.494e-05
-1.89438e-05
6.65423e-05
1.57542e-06
9.38264e-05
2.44656e-05
0.000127265
4.84021e-05
0.000167035
7.17587e-05
9.18656e-05
0.000212765
-6.26627e-07
-1.24371e-05
-1.94572e-06
-3.14101e-05
-3.46201e-06
-4.60003e-05
-4.666e-06
-5.62429e-05
-5.03108e-06
-6.21683e-05
-4.01286e-06
-6.38451e-05
-1.04738e-06
-6.13802e-05
4.44944e-06
-5.494e-05
1.30786e-05
-4.47844e-05
2.5447e-05
-3.13121e-05
4.21418e-05
-1.51194e-05
6.36803e-05
2.92713e-06
9.04248e-05
2.16577e-05
0.000122476
3.97075e-05
5.48734e-05
0.000159468
-7.80257e-07
-1.16568e-05
-2.55612e-06
-2.96342e-05
-4.84792e-06
-4.37085e-05
-7.1651e-06
-5.39258e-05
-9.00421e-06
-6.03292e-05
-9.84944e-06
-6.29999e-05
-9.17244e-06
-6.20572e-05
-6.43387e-06
-5.76785e-05
-1.08907e-06
-5.01292e-05
7.39875e-06
-3.98e-05
1.95325e-05
-2.72532e-05
3.57348e-05
-1.32752e-05
5.62776e-05
1.11484e-06
8.12036e-05
1.47816e-05
2.59017e-05
0.000110175
-9.21384e-07
-1.07354e-05
-3.11548e-06
-2.74402e-05
-6.11637e-06
-4.07076e-05
-9.45083e-06
-5.05913e-05
-1.2637e-05
-5.71431e-05
-1.5186e-05
-6.04509e-05
-1.66033e-05
-6.06399e-05
-1.63919e-05
-5.78899e-05
-1.40598e-05
-5.24613e-05
-9.13456e-06
-4.47252e-05
-1.18846e-06
-3.51993e-05
1.012e-05
-2.45837e-05
2.499e-05
-1.37551e-05
4.34168e-05
-3.64529e-06
4.21919e-06
6.50993e-05
-1.04943e-06
-9.68599e-06
-3.62172e-06
-2.48679e-05
-7.26289e-06
-3.70664e-05
-1.15153e-05
-4.63389e-05
-1.59169e-05
-5.27415e-05
-2.00038e-05
-5.6364e-05
-2.33127e-05
-5.73309e-05
-2.53858e-05
-5.58168e-05
-2.57793e-05
-5.20677e-05
-2.40786e-05
-4.6426e-05
-1.99217e-05
-3.93562e-05
-1.30355e-05
-3.14698e-05
-3.27743e-06
-2.35132e-05
9.33533e-06
-1.6258e-05
-1.08527e-05
2.44072e-05
-1.16372e-06
-8.52227e-06
-4.07247e-06
-2.19591e-05
-8.28241e-06
-3.28565e-05
-1.33497e-05
-4.12716e-05
-1.883e-05
-4.72612e-05
-2.4282e-05
-5.0912e-05
-2.9271e-05
-5.2342e-05
-3.33744e-05
-5.17135e-05
-3.61913e-05
-4.92508e-05
-3.73578e-05
-4.52595e-05
-3.65685e-05
-4.01454e-05
-3.36079e-05
-3.44305e-05
-2.83851e-05
-2.8736e-05
-2.09696e-05
-2.36735e-05
-2.01506e-05
-1.16717e-05
-1.26352e-06
-7.25875e-06
-4.46517e-06
-1.87575e-05
-9.16953e-06
-2.81521e-05
-1.49446e-05
-3.54965e-05
-2.13618e-05
-4.08441e-05
-2.79995e-05
-4.42742e-05
-3.44482e-05
-4.58933e-05
-4.03161e-05
-4.58455e-05
-4.52399e-05
-4.43271e-05
-4.88988e-05
-4.16007e-05
-5.10351e-05
-3.80091e-05
-5.14804e-05
-3.39852e-05
-5.01832e-05
-3.00332e-05
-4.72205e-05
-2.66362e-05
-2.4542e-05
-4.28292e-05
-1.34808e-06
-5.91067e-06
-4.79724e-06
-1.53083e-05
-9.91885e-06
-2.30305e-05
-1.62909e-05
-2.91244e-05
-2.34979e-05
-3.36371e-05
-3.11353e-05
-3.66367e-05
-3.88149e-05
-3.82137e-05
-4.61712e-05
-3.84892e-05
-5.28721e-05
-3.76262e-05
-5.86331e-05
-3.58397e-05
-6.32352e-05
-3.3407e-05
-6.6548e-05
-3.06724e-05
-6.85505e-05
-2.80307e-05
-6.93332e-05
-2.58535e-05
-2.47253e-05
-6.91499e-05
-1.41671e-06
-4.49396e-06
-5.06626e-06
-1.16588e-05
-1.05253e-05
-1.75715e-05
-1.73798e-05
-2.227e-05
-2.52249e-05
-2.5792e-05
-3.36701e-05
-2.81915e-05
-4.23443e-05
-2.95395e-05
-5.09034e-05
-2.99302e-05
-5.90405e-05
-2.94891e-05
-6.64997e-05
-2.83805e-05
-7.30929e-05
-2.68137e-05
-7.87194e-05
-2.5046e-05
-8.33818e-05
-2.33682e-05
-8.71844e-05
-2.20509e-05
-2.15234e-05
-9.03863e-05
-1.46878e-06
-3.02517e-06
-5.27007e-06
-7.85747e-06
-1.09844e-05
-1.18571e-05
-1.82037e-05
-1.50507e-05
-2.65313e-05
-1.74644e-05
-3.55871e-05
-1.91357e-05
-4.50132e-05
-2.01133e-05
-5.44816e-05
-2.04618e-05
-6.37043e-05
-2.02663e-05
-7.24471e-05
-1.96378e-05
-8.05446e-05
-1.87162e-05
-8.79178e-05
-1.76727e-05
-9.45872e-05
-1.66988e-05
-0.000100667
-1.59708e-05
-1.57705e-05
-0.00010642
-1.50379e-06
-1.52138e-06
-5.40696e-06
-3.9543e-06
-1.12926e-05
-5.97153e-06
-1.87565e-05
-7.58668e-06
-2.74076e-05
-8.8133e-06
-3.68729e-05
-9.67048e-06
-4.68031e-05
-1.01831e-05
-5.68812e-05
-1.03837e-05
-6.68319e-05
-1.03156e-05
-7.64351e-05
-1.00345e-05
-8.55406e-05
-9.61071e-06
-9.40839e-05
-9.12948e-06
-0.000102097
-8.68586e-06
-0.000109701
-8.36679e-06
-8.31181e-06
-0.00011716
-1.52139e-06
-5.47571e-06
-1.14473e-05
-1.90341e-05
-2.78475e-05
-3.75181e-05
-4.77014e-05
-5.80853e-05
-6.84013e-05
-7.84361e-05
-8.80472e-05
-9.71772e-05
-0.000105864
-0.000114231
-0.000122543
-0.000126338
3.796e-06
-9.50611e-10
-0.000126569
2.3147e-07
-1.13153e-09
-0.000122612
-3.95532e-06
-1.17907e-09
-0.00011355
-9.06056e-06
-1.29365e-09
-9.89278e-05
-1.46212e-05
-1.41733e-09
-2.0354e-05
-1.52567e-09
-0.000120778
7.4148e-06
-0.000120797
2.49911e-07
-0.000116656
-8.09623e-06
-0.00010743
-1.82866e-05
-9.26773e-05
-2.93737e-05
-4.07982e-05
-0.000109686
1.0681e-05
-0.000109297
-1.3949e-07
-0.000104787
-1.26067e-05
-9.52337e-05
-2.78395e-05
-8.02237e-05
-4.43837e-05
-6.14169e-05
-9.31094e-05
1.34042e-05
-9.2167e-05
-1.08191e-06
-8.70852e-05
-1.76885e-05
-7.70499e-05
-3.78748e-05
-6.16608e-05
-5.97728e-05
-8.22903e-05
-7.11901e-05
1.54444e-05
-6.94756e-05
-2.79632e-06
-6.36723e-05
-2.34919e-05
-5.30077e-05
-4.85394e-05
-3.71267e-05
-7.56537e-05
-0.00010349
-4.40385e-05
1.66537e-05
-4.13814e-05
-5.45335e-06
-3.47043e-05
-3.0169e-05
-2.32745e-05
-5.99692e-05
-6.80168e-06
-9.21265e-05
-0.000125075
-1.16846e-05
1.66667e-05
-8.05998e-06
-9.078e-06
-3.05574e-07
-3.79234e-05
1.1946e-05
-7.22207e-05
2.90914e-05
-0.000109272
-0.00014709
2.53859e-05
1.56881e-05
3.02728e-05
-1.39648e-05
3.91129e-05
-4.67636e-05
5.24037e-05
-8.55115e-05
7.02977e-05
-0.000127166
-0.000169562
6.71398e-05
1.36477e-05
7.33962e-05
-2.02213e-05
8.3495e-05
-5.68624e-05
9.78439e-05
-9.98603e-05