/*--------------------------------*- C++ -*----------------------------------*\
  =========                 |
  \\      /  F ield         | OpenFOAM: The Open Source CFD Toolbox
   \\    /   O peration     | Website:  https://openfoam.org
    \\  /    A nd           | Version:  7
     \\/     M anipulation  |
\*---------------------------------------------------------------------------*/
FoamFile
{
    version     2.0;
    format      ascii;
    class       volVectorField;
    location    "65";
    object      U;
}
// * * * * * * * * * * * * * * * * * * * * * * * * * * * * * * * * * * * * * //

dimensions      [0 1 -1 0 0 0 0];

internalField   nonuniform List<vector> 
8500
(
(-0.180387 0.0774034 -9.25296e-22)
(-0.185541 0.0817706 2.04615e-22)
(-0.190653 0.0856548 5.45566e-22)
(-0.195745 0.0888801 1.14078e-23)
(-0.200843 0.0912516 -1.03491e-21)
(-0.205975 0.0925568 1.19368e-21)
(-0.211167 0.0925688 -5.37797e-22)
(-0.216442 0.0910497 2.7205e-22)
(-0.221817 0.0877559 -5.46378e-22)
(-0.227296 0.0824459 4.82634e-22)
(-0.232871 0.0748887 -9.09658e-23)
(-0.238513 0.0648766 -1.86628e-22)
(-0.244176 0.0522392 -4.7793e-22)
(-0.249792 0.0368614 5.99184e-22)
(-0.255275 0.0187031 6.26944e-22)
(-0.260529 -0.00218365 -5.82715e-22)
(-0.265449 -0.0256299 -3.7418e-22)
(-0.269934 -0.0513382 3.32879e-23)
(-0.273896 -0.0788713 -1.18451e-22)
(-0.277272 -0.107651 3.73048e-22)
(-0.280025 -0.136964 -2.82622e-22)
(-0.282154 -0.165977 2.65324e-22)
(-0.283687 -0.193762 -4.4095e-22)
(-0.284677 -0.219321 -1.54546e-22)
(-0.285201 -0.241631 4.9822e-23)
(-0.285353 -0.25968 -2.07741e-23)
(-0.285227 -0.27252 -7.14274e-23)
(-0.284908 -0.279318 -4.75286e-22)
(-0.284447 -0.2794 4.88813e-22)
(-0.283839 -0.272295 3.50359e-22)
(-0.283005 -0.257769 -1.47734e-22)
(-0.281808 -0.235861 3.61178e-23)
(-0.280066 -0.206908 -1.5326e-22)
(-0.277641 -0.171592 -2.626e-22)
(-0.274444 -0.130931 -5.14116e-22)
(-0.270582 -0.0863863 -3.78226e-22)
(-0.266249 -0.0397343 3.60868e-22)
(-0.26188 0.00662684 -4.70878e-22)
(-0.257851 0.0500765 3.8566e-22)
(-0.254326 0.0869382 -1.23395e-22)
(-0.251274 0.113566 1.83943e-22)
(-0.246511 0.125001 1.77048e-22)
(-0.239984 0.117489 3.81785e-23)
(-0.225062 0.0908397 -1.13796e-22)
(-0.211679 0.0474177 -4.87932e-25)
(-0.191095 0.0141822 8.17232e-24)
(-0.177362 0.0792447 -1.11805e-21)
(-0.18242 0.0835549 9.03059e-22)
(-0.18745 0.0873917 7.47864e-22)
(-0.192473 0.09058 -1.35194e-23)
(-0.197517 0.0929249 -2.90414e-21)
(-0.202608 0.0942135 3.13767e-21)
(-0.207773 0.0942174 -2.13085e-21)
(-0.213034 0.0926961 -8.31377e-22)
(-0.218406 0.0894031 1.82649e-22)
(-0.223893 0.0840924 1.38684e-22)
(-0.229485 0.0765287 -2.70987e-21)
(-0.235154 0.066499 3.85867e-21)
(-0.24085 0.0538282 -1.90066e-22)
(-0.246507 0.0383971 -3.64145e-21)
(-0.252039 0.0201627 9.60358e-22)
(-0.257349 -0.00082319 8.53138e-22)
(-0.262337 -0.0243914 -1.28802e-21)
(-0.266901 -0.0502403 7.8272e-22)
(-0.270961 -0.0779266 1.64154e-21)
(-0.274458 -0.106865 -1.47809e-21)
(-0.277364 -0.136336 1.10913e-21)
(-0.279682 -0.165498 -7.5423e-22)
(-0.281446 -0.193418 3.40354e-22)
(-0.282713 -0.219093 4.82279e-22)
(-0.283561 -0.241498 9.56951e-23)
(-0.284082 -0.25962 -3.61424e-23)
(-0.28437 -0.272513 -3.31005e-22)
(-0.284515 -0.279348 -9.28362e-24)
(-0.28457 -0.27946 6.43922e-22)
(-0.284536 -0.27239 -5.80009e-22)
(-0.284336 -0.257915 -1.56987e-21)
(-0.283827 -0.236082 1.12435e-22)
(-0.282814 -0.207225 2.97389e-22)
(-0.281134 -0.172018 -1.1627e-22)
(-0.278674 -0.131462 2.27834e-22)
(-0.275511 -0.0869908 -4.54047e-22)
(-0.271823 -0.0403647 -3.1187e-22)
(-0.268017 0.00603376 9.70915e-22)
(-0.264463 0.0495558 -9.40687e-22)
(-0.26129 0.0864925 9.94353e-23)
(-0.258451 0.113063 -5.91601e-22)
(-0.253779 0.124262 -5.40514e-22)
(-0.247255 0.116211 7.34839e-23)
(-0.232816 0.0890965 3.23978e-22)
(-0.220085 0.0455831 4.04876e-23)
(-0.201598 0.0129602 2.75133e-23)
(-0.173741 0.0810181 5.64118e-21)
(-0.178684 0.0852801 -4.07252e-21)
(-0.183611 0.0890792 -4.05183e-23)
(-0.188544 0.0922408 2.10995e-21)
(-0.193511 0.0945702 -4.64444e-22)
(-0.198538 0.0958535 -7.09403e-22)
(-0.203651 0.0958608 3.98123e-21)
(-0.208873 0.0943493 -1.19798e-21)
(-0.214217 0.0910689 1.95956e-21)
(-0.219687 0.0857695 2.07491e-22)
(-0.225271 0.0782107 -1.44256e-21)
(-0.23094 0.0681746 -3.41425e-22)
(-0.236646 0.0554808 4.48075e-21)
(-0.242321 0.0400061 -7.36235e-22)
(-0.247879 0.0217045 -1.93017e-21)
(-0.253226 0.000627163 3.94722e-22)
(-0.25826 -0.0230566 5.08779e-22)
(-0.262887 -0.0490404 -2.4067e-21)
(-0.26703 -0.0768756 3.14037e-21)
(-0.270636 -0.10597 -2.64031e-21)
(-0.273686 -0.135596 -2.11489e-21)
(-0.276189 -0.164906 1.31243e-21)
(-0.278184 -0.19296 2.79033e-21)
(-0.279732 -0.218754 -1.32594e-21)
(-0.280909 -0.241258 2.23417e-22)
(-0.281806 -0.259458 -1.42101e-21)
(-0.282516 -0.272409 8.17231e-22)
(-0.283128 -0.279286 -5.42605e-22)
(-0.283701 -0.279433 -1.87681e-21)
(-0.284241 -0.2724 8.01231e-22)
(-0.284675 -0.257978 2.00749e-22)
(-0.284856 -0.23622 1.33458e-21)
(-0.284575 -0.207463 1.7741e-22)
(-0.28365 -0.17237 1.761e-21)
(-0.281939 -0.131924 -8.74346e-22)
(-0.279487 -0.0875339 1.70084e-21)
(-0.276451 -0.0409422 -7.34868e-22)
(-0.273209 0.00548452 -1.0106e-21)
(-0.270121 0.0490694 7.50563e-22)
(-0.267281 0.0860696 -7.23833e-22)
(-0.264631 0.112573 -2.05325e-23)
(-0.26004 0.123533 9.98129e-22)
(-0.253544 0.114971 -2.90643e-22)
(-0.239651 0.0874407 -3.08667e-22)
(-0.22764 0.0439094 -3.92903e-23)
(-0.211149 0.0118711 -5.35092e-23)
(-0.169532 0.0827157 1.59815e-21)
(-0.17434 0.086938 1.02678e-21)
(-0.179142 0.0907087 4.16378e-21)
(-0.183963 0.0938538 -7.59739e-22)
(-0.188828 0.0961783 -4.15127e-21)
(-0.193767 0.0974675 4.34485e-21)
(-0.198804 0.0974899 -5.58666e-22)
(-0.20396 0.096 -3.87176e-21)
(-0.20925 0.0927441 -1.31748e-21)
(-0.214676 0.0874678 1.67708e-21)
(-0.220226 0.0799259 -1.11576e-21)
(-0.225871 0.0698948 4.89355e-21)
(-0.231561 0.0571892 -7.04435e-21)
(-0.237229 0.0416811 2.32665e-21)
(-0.24279 0.0233217 -2.68638e-21)
(-0.24815 0.00216065 1.70301e-21)
(-0.253212 -0.0216305 2.12184e-21)
(-0.257882 -0.0477431 -1.75228e-21)
(-0.262091 -0.0757219 -3.27681e-21)
(-0.265794 -0.104968 2.00773e-21)
(-0.268978 -0.134745 -2.16855e-22)
(-0.271661 -0.164201 -2.53631e-21)
(-0.273887 -0.19239 -1.11763e-21)
(-0.275719 -0.218303 -2.04613e-22)
(-0.277234 -0.240909 -1.40117e-21)
(-0.278516 -0.259193 2.39901e-21)
(-0.279657 -0.272208 3.24464e-22)
(-0.280743 -0.279134 9.66104e-22)
(-0.281837 -0.279319 1.02534e-21)
(-0.282951 -0.272326 -3.42816e-23)
(-0.284017 -0.257958 1.32633e-22)
(-0.284888 -0.236276 -2.70356e-21)
(-0.285345 -0.207621 3.58034e-22)
(-0.285181 -0.172645 1.98746e-22)
(-0.284228 -0.132315 1.6979e-21)
(-0.282498 -0.0880145 4.20477e-23)
(-0.280121 -0.0414665 -4.29518e-22)
(-0.277443 0.0049781 7.17293e-22)
(-0.274811 0.0486149 -8.22114e-22)
(-0.272285 0.0856663 1.15991e-21)
(-0.269802 0.112094 7.13289e-22)
(-0.265285 0.122815 -3.01766e-22)
(-0.258846 0.113776 1.17812e-21)
(-0.245561 0.0858795 2.8201e-22)
(-0.234328 0.0423942 1.93284e-22)
(-0.219731 0.0109075 3.16709e-23)
(-0.164744 0.0843294 -7.42917e-21)
(-0.169395 0.0885202 6.46493e-21)
(-0.17405 0.0922716 -1.77305e-21)
(-0.178735 0.0954099 7.10633e-22)
(-0.183476 0.0977398 -6.42676e-21)
(-0.188301 0.099046 1.27916e-21)
(-0.193235 0.0990949 2.95058e-21)
(-0.1983 0.0976384 1.66102e-21)
(-0.203509 0.0944191 -9.55003e-22)
(-0.208864 0.0891782 1.82523e-21)
(-0.214352 0.0816652 -4.59398e-21)
(-0.219945 0.0716511 4.20844e-22)
(-0.225593 0.0589452 5.91755e-21)
(-0.231229 0.0434147 7.19593e-22)
(-0.236767 0.0250075 1.20163e-21)
(-0.242118 0.00376975 -7.02599e-21)
(-0.247185 -0.0201187 -1.74301e-22)
(-0.25188 -0.0463532 4.77439e-21)
(-0.256137 -0.0744694 -1.47262e-21)
(-0.259922 -0.103861 -1.3118e-21)
(-0.263229 -0.133786 3.96597e-21)
(-0.266086 -0.163384 -4.35647e-21)
(-0.268542 -0.191706 -1.89274e-21)
(-0.270664 -0.21774 2.19376e-21)
(-0.272524 -0.240451 9.5622e-22)
(-0.274203 -0.258823 5.73005e-22)
(-0.275785 -0.27191 -3.15268e-21)
(-0.277354 -0.27889 2.77784e-21)
(-0.278974 -0.279119 -7.31441e-22)
(-0.280663 -0.272169 7.7194e-22)
(-0.282361 -0.257856 -4.54195e-22)
(-0.283921 -0.236251 6.11514e-22)
(-0.285117 -0.207698 -1.11409e-21)
(-0.28572 -0.172843 -4.44185e-22)
(-0.285535 -0.132635 -2.2114e-21)
(-0.284535 -0.0884323 -1.59355e-21)
(-0.282823 -0.0419382 2.79147e-21)
(-0.280708 0.00451276 2.51901e-21)
(-0.278522 0.0481893 -9.13401e-22)
(-0.276291 0.0852791 1.79839e-21)
(-0.273955 0.111623 -1.60131e-21)
(-0.269512 0.122109 6.50128e-22)
(-0.26316 0.112629 -7.35713e-22)
(-0.250539 0.0844188 7.49459e-23)
(-0.24013 0.0410343 -2.11538e-23)
(-0.227329 0.0100623 1.37098e-23)
(-0.159387 0.0858509 -7.15986e-21)
(-0.163859 0.090018 -3.26646e-21)
(-0.168345 0.0937587 1.33178e-20)
(-0.17287 0.0968996 -5.23996e-21)
(-0.177461 0.0992452 -2.64599e-21)
(-0.182146 0.100579 1.36898e-20)
(-0.186951 0.100666 -5.06812e-22)
(-0.191897 0.0992544 -9.42498e-21)
(-0.196997 0.0960838 1.40394e-20)
(-0.202252 0.0908906 -1.37517e-20)
(-0.207651 0.083419 4.43266e-22)
(-0.213165 0.0734344 -2.18961e-21)
(-0.218743 0.0607403 3.74308e-21)
(-0.22432 0.0451989 -2.03569e-21)
(-0.229811 0.0267547 -8.45059e-22)
(-0.235128 0.00545212 3.57809e-21)
(-0.240176 -0.018527 5.9738e-21)
(-0.244873 -0.0448757 -4.16048e-22)
(-0.249161 -0.0731225 -3.85788e-21)
(-0.253012 -0.102654 -5.27387e-21)
(-0.256431 -0.132721 -1.2539e-21)
(-0.259454 -0.162458 2.38963e-21)
(-0.262139 -0.19091 7.57358e-21)
(-0.264554 -0.217063 1.99396e-21)
(-0.26677 -0.239882 -7.04738e-21)
(-0.268858 -0.258348 7.25651e-21)
(-0.270896 -0.271512 -3.97511e-23)
(-0.272959 -0.278554 -2.27234e-21)
(-0.275111 -0.278833 -3.11199e-22)
(-0.277378 -0.27193 -1.71583e-22)
(-0.279706 -0.257673 -1.81124e-21)
(-0.281954 -0.236145 3.66786e-21)
(-0.28389 -0.207695 1.39558e-21)
(-0.285264 -0.172963 -1.37951e-21)
(-0.285852 -0.132883 2.19825e-21)
(-0.285591 -0.0887867 -1.27431e-21)
(-0.284548 -0.0423574 -1.46545e-21)
(-0.282996 0.00408707 -3.60773e-21)
(-0.281245 0.04779 1.17498e-21)
(-0.279293 0.084905 -3.78569e-22)
(-0.277087 0.11116 1.48413e-21)
(-0.272718 0.121416 -4.16086e-22)
(-0.266486 0.111536 -8.07038e-22)
(-0.254581 0.0830638 -3.78813e-22)
(-0.245034 0.0398262 -5.77579e-23)
(-0.233935 0.00932861 -3.41518e-23)
(-0.153472 0.0872716 5.94127e-21)
(-0.157743 0.0914224 8.93477e-21)
(-0.162037 0.0951608 2.86689e-21)
(-0.166377 0.0983134 -6.68403e-21)
(-0.170793 0.100684 1.92125e-21)
(-0.175312 0.102056 1.44586e-21)
(-0.179961 0.102192 -7.35481e-21)
(-0.18476 0.100838 4.4435e-23)
(-0.189722 0.0977279 1.48458e-20)
(-0.194849 0.0925949 -1.29391e-20)
(-0.20013 0.0851776 -2.30438e-22)
(-0.205535 0.0752353 1.40571e-20)
(-0.211015 0.0625654 -1.55442e-20)
(-0.216505 0.0470252 1.42979e-21)
(-0.221922 0.0285556 3.03639e-22)
(-0.227178 0.00720091 1.27418e-20)
(-0.232184 -0.0168618 -1.99234e-20)
(-0.236861 -0.0433163 1.2264e-20)
(-0.241158 -0.071686 -1.45811e-21)
(-0.245057 -0.101351 4.11937e-21)
(-0.248575 -0.131553 -5.50609e-21)
(-0.251757 -0.161422 -1.02506e-20)
(-0.254669 -0.190001 1.3893e-21)
(-0.257381 -0.216273 -2.64109e-21)
(-0.259962 -0.2392 -1.05739e-21)
(-0.262475 -0.257764 4.4172e-23)
(-0.264983 -0.271013 -2.87798e-21)
(-0.267555 -0.278124 2.21973e-21)
(-0.27025 -0.27846 4.32128e-22)
(-0.273099 -0.271609 1.44281e-21)
(-0.276057 -0.25741 -2.75178e-22)
(-0.27899 -0.23596 -4.50194e-21)
(-0.281663 -0.207613 -2.39702e-21)
(-0.28381 -0.173006 -2.7072e-22)
(-0.285178 -0.133059 -1.68404e-21)
(-0.28566 -0.0890775 -5.1937e-23)
(-0.285292 -0.0427247 8.68534e-22)
(-0.284301 0.00369946 4.18666e-22)
(-0.282974 0.0474144 1.14674e-21)
(-0.281287 0.084541 -2.87759e-21)
(-0.279196 0.110701 1.03328e-21)
(-0.274905 0.120739 -9.99359e-26)
(-0.268827 0.110501 3.40165e-22)
(-0.257686 0.0818188 9.7638e-23)
(-0.249029 0.0387661 -9.72845e-23)
(-0.239546 0.00869971 2.74504e-24)
(-0.147012 0.088583 -1.24474e-20)
(-0.15106 0.0927246 -3.51873e-21)
(-0.155137 0.0964684 1.1521e-20)
(-0.159268 0.0996414 -1.205e-20)
(-0.163483 0.102047 1.05525e-20)
(-0.16781 0.103468 -6.59105e-21)
(-0.172274 0.103663 -8.40452e-21)
(-0.176898 0.102377 -1.04986e-21)
(-0.181693 0.0993407 8.51461e-21)
(-0.186663 0.0942806 -1.12875e-20)
(-0.191796 0.0869307 8.41799e-21)
(-0.197063 0.0770437 -4.533e-21)
(-0.202416 0.0644113 8.41039e-21)
(-0.20779 0.0488847 -1.01498e-20)
(-0.213105 0.0304017 3.31429e-21)
(-0.218273 0.00900411 1.24262e-20)
(-0.22321 -0.01513 -1.16693e-20)
(-0.227842 -0.0416811 -1.19686e-20)
(-0.232126 -0.0701651 6.54042e-21)
(-0.236055 -0.0999544 6.78514e-21)
(-0.239657 -0.130285 6.57807e-21)
(-0.242988 -0.16028 -3.34277e-21)
(-0.246123 -0.18898 5.4119e-22)
(-0.249136 -0.215367 2.73338e-21)
(-0.252092 -0.238404 2.37008e-21)
(-0.255045 -0.257069 -1.10955e-21)
(-0.258043 -0.27041 1.97234e-21)
(-0.261141 -0.2776 1.1416e-22)
(-0.264392 -0.278001 -6.53296e-22)
(-0.267828 -0.271206 7.93646e-22)
(-0.271416 -0.257068 3.55934e-21)
(-0.275031 -0.235695 -2.19797e-22)
(-0.278439 -0.207451 4.18681e-21)
(-0.281359 -0.172971 -3.61104e-22)
(-0.283509 -0.133162 2.58489e-21)
(-0.284741 -0.0893046 -1.05604e-21)
(-0.28505 -0.0430405 -1.47775e-21)
(-0.284618 0.00334848 5.33965e-22)
(-0.283707 0.04706 4.66795e-22)
(-0.28227 0.0841848 -2.70117e-23)
(-0.280283 0.110246 -1.37151e-21)
(-0.276078 0.120079 -1.73926e-22)
(-0.270189 0.109528 1.64222e-21)
(-0.259851 0.0806871 -2.57494e-22)
(-0.252106 0.0378501 -8.83891e-25)
(-0.244161 0.00816957 6.72373e-24)
(-0.14002 0.0897767 -3.16569e-21)
(-0.143822 0.0939157 -9.17264e-21)
(-0.147659 0.0976724 1.64271e-21)
(-0.151557 0.100874 8.65296e-21)
(-0.155545 0.103324 -3.8281e-21)
(-0.159652 0.104803 4.88999e-22)
(-0.163905 0.105069 -6.96334e-21)
(-0.168324 0.103863 5.29223e-21)
(-0.172923 0.100912 6.47769e-21)
(-0.177706 0.0959371 5.11777e-21)
(-0.18266 0.0886678 -1.50364e-20)
(-0.187759 0.0788497 2.08509e-20)
(-0.192955 0.0662682 -1.04361e-20)
(-0.198183 0.0507684 1.03758e-20)
(-0.203366 0.0322844 -6.89733e-21)
(-0.208418 0.0108549 1.24333e-20)
(-0.213259 -0.0133389 1.80732e-21)
(-0.217821 -0.0399765 6.02795e-21)
(-0.222069 -0.0685655 -9.14328e-21)
(-0.226007 -0.0984705 -1.25936e-20)
(-0.229675 -0.128921 3.14612e-21)
(-0.233144 -0.159034 5.91354e-21)
(-0.236497 -0.187848 6.70399e-21)
(-0.239814 -0.214346 -4.63548e-21)
(-0.243154 -0.237492 -3.72091e-21)
(-0.246562 -0.256262 -9.53397e-21)
(-0.25007 -0.2697 5.73107e-21)
(-0.253715 -0.276978 -1.23162e-21)
(-0.257538 -0.277452 -2.25115e-21)
(-0.261571 -0.270722 4.74938e-22)
(-0.265791 -0.256648 -4.88353e-21)
(-0.270085 -0.235353 -1.45766e-21)
(-0.274224 -0.207211 -1.30414e-21)
(-0.277914 -0.17286 1.73489e-21)
(-0.280847 -0.133192 -1.9373e-21)
(-0.282833 -0.0894679 7.38552e-22)
(-0.283821 -0.0433054 3.76435e-22)
(-0.283947 0.00303275 -1.84893e-22)
(-0.283444 0.0467248 1.00714e-21)
(-0.282245 0.0838342 -2.60844e-22)
(-0.280355 0.109795 -8.89938e-22)
(-0.276244 0.119438 -1.4061e-21)
(-0.270577 0.108622 -2.23733e-21)
(-0.261078 0.0796712 -4.5544e-22)
(-0.254262 0.0370744 -4.77088e-22)
(-0.247784 0.00773267 -7.38453e-24)
(-0.136045 0.0949868 -4.60019e-21)
(-0.139619 0.0987634 2.42484e-21)
(-0.143259 0.102002 -5.11755e-22)
(-0.146994 0.104504 3.14038e-21)
(-0.150855 0.106051 -3.45826e-21)
(-0.154867 0.106398 4.27271e-21)
(-0.159053 0.105283 -1.90513e-21)
(-0.163427 0.102429 7.14093e-22)
(-0.167991 0.0975534 -3.6161e-21)
(-0.172736 0.0903781 7.17684e-21)
(-0.177636 0.0806428 2.44595e-21)
(-0.182644 0.0681261 -3.19526e-21)
(-0.187696 0.0526667 -1.95245e-20)
(-0.192716 0.034195 4.77296e-21)
(-0.197623 0.0127462 -3.4218e-21)
(-0.202339 -0.0114961 7.56899e-21)
(-0.206804 -0.0382095 -1.30193e-20)
(-0.210989 -0.0668932 1.63866e-20)
(-0.214914 -0.0969039 -1.31991e-21)
(-0.218631 -0.127464 -2.02088e-21)
(-0.222224 -0.157686 -4.62208e-21)
(-0.225788 -0.186606 -4.72335e-22)
(-0.229409 -0.21321 -4.91424e-21)
(-0.233143 -0.236461 8.42247e-21)
(-0.237023 -0.255338 4.0899e-21)
(-0.241062 -0.268881 4.35747e-21)
(-0.245276 -0.276255 -8.4989e-21)
(-0.24969 -0.276814 1.56152e-21)
(-0.254333 -0.270156 4.70753e-22)
(-0.259189 -0.25615 9.16524e-22)
(-0.26416 -0.234934 1.75619e-21)
(-0.269024 -0.206895 7.06925e-22)
(-0.273481 -0.172672 1.33796e-21)
(-0.277196 -0.133151 1.63165e-21)
(-0.279937 -0.0895677 -1.87215e-21)
(-0.281607 -0.0435197 3.02324e-21)
(-0.282289 0.00275108 2.93545e-22)
(-0.282186 0.0464069 -3.07484e-21)
(-0.281216 0.0834874 2.27762e-21)
(-0.279418 0.109347 3.42385e-22)
(-0.275414 0.118819 1.95179e-21)
(-0.270001 0.107786 4.60824e-22)
(-0.261371 0.078773 3.61668e-22)
(-0.255494 0.0364353 2.2185e-22)
(-0.250423 0.00738412 6.0764e-23)
(-0.127744 0.0959297 1.80268e-20)
(-0.131032 0.0997325 -2.3782e-20)
(-0.134389 0.103014 -1.04707e-20)
(-0.137847 0.105578 2.85396e-20)
(-0.141435 0.107202 5.3386e-22)
(-0.145179 0.10764 -1.23096e-20)
(-0.149103 0.106628 9.93368e-21)
(-0.153221 0.103883 -3.74821e-21)
(-0.157537 0.0991185 -8.78049e-21)
(-0.162042 0.0920509 4.07368e-21)
(-0.16671 0.0824124 -1.54517e-20)
(-0.171498 0.0699748 2.41611e-20)
(-0.176342 0.0545699 -8.44007e-21)
(-0.181169 0.0361241 -1.06412e-21)
(-0.185899 0.0146693 7.85471e-21)
(-0.190461 -0.00960949 -3.93527e-21)
(-0.1948 -0.0363873 -1.03019e-22)
(-0.198898 -0.0651548 -6.11112e-21)
(-0.202785 -0.0952604 5.09964e-21)
(-0.206529 -0.125919 9.88749e-21)
(-0.210231 -0.156239 -7.9154e-21)
(-0.213998 -0.185256 1.05491e-20)
(-0.21792 -0.211957 -3.02386e-21)
(-0.222055 -0.23531 -1.23246e-20)
(-0.226422 -0.254294 9.21478e-21)
(-0.231015 -0.267948 -9.01822e-22)
(-0.235823 -0.275428 1.49485e-21)
(-0.240853 -0.276082 -4.2328e-21)
(-0.246121 -0.269506 5.64886e-21)
(-0.25162 -0.255575 -2.33343e-21)
(-0.257266 -0.234441 -2.92018e-22)
(-0.262849 -0.206504 -2.3364e-21)
(-0.268066 -0.172409 -2.23098e-21)
(-0.272561 -0.133037 -3.67923e-22)
(-0.276057 -0.0896043 7.2824e-22)
(-0.278409 -0.0436841 -3.25539e-21)
(-0.279647 0.00250247 -1.07656e-21)
(-0.27994 0.0461048 1.82325e-21)
(-0.279192 0.0831434 -6.28635e-22)
(-0.277483 0.108902 1.05061e-21)
(-0.273598 0.118223 -1.71902e-21)
(-0.26847 0.107022 -8.22048e-22)
(-0.260733 0.0779938 6.8123e-22)
(-0.255803 0.0359295 3.72844e-22)
(-0.252088 0.00711969 -4.6405e-23)
(-0.118936 0.0967363 -5.41069e-21)
(-0.121915 0.100571 -3.31255e-21)
(-0.124967 0.103904 -4.92184e-21)
(-0.128122 0.106536 1.23057e-20)
(-0.13141 0.108246 1.25202e-20)
(-0.134859 0.108785 -2.05992e-20)
(-0.138492 0.107886 3.24764e-20)
(-0.142325 0.105262 -1.07813e-20)
(-0.146362 0.100621 -1.17468e-20)
(-0.150595 0.0936752 6.72729e-21)
(-0.155001 0.0841478 3.40065e-21)
(-0.159537 0.071804 -2.6625e-21)
(-0.164141 0.0564678 -1.10971e-20)
(-0.168742 0.0380624 5.7277e-21)
(-0.173264 0.0166151 8.87343e-21)
(-0.17764 -0.00768744 6.53758e-21)
(-0.181825 -0.0345174 -3.34669e-21)
(-0.185805 -0.0633571 -2.31373e-21)
(-0.189629 -0.0935459 -8.04185e-22)
(-0.193379 -0.124292 -5.23107e-21)
(-0.197172 -0.154699 2.19282e-21)
(-0.201129 -0.1838 -1.27347e-20)
(-0.20535 -0.21059 1.7493e-20)
(-0.20989 -0.234039 -1.95687e-21)
(-0.214759 -0.253129 -4.27727e-21)
(-0.219927 -0.266897 -7.18598e-21)
(-0.225357 -0.274492 9.50691e-22)
(-0.231028 -0.275254 -1.10817e-21)
(-0.236942 -0.268771 4.22846e-22)
(-0.243094 -0.254924 2.15002e-21)
(-0.249414 -0.233874 -1.51852e-21)
(-0.25571 -0.206039 2.37897e-21)
(-0.261681 -0.172073 4.37091e-22)
(-0.26695 -0.132853 -2.80757e-22)
(-0.2712 -0.089578 1.10391e-21)
(-0.274235 -0.0437989 3.62186e-21)
(-0.276028 0.00228612 6.43737e-22)
(-0.276712 0.0458174 1.45172e-21)
(-0.276183 0.082801 5.58121e-22)
(-0.274563 0.108461 -1.48756e-21)
(-0.270812 0.117654 6.2212e-22)
(-0.265995 0.106334 1.93163e-21)
(-0.259171 0.0773343 -1.10808e-21)
(-0.25519 0.0355541 -1.97204e-22)
(-0.252792 0.00693583 -9.0307e-24)
(-0.109638 0.097399 1.7554e-21)
(-0.112288 0.101271 1.85996e-20)
(-0.115011 0.10466 -1.05324e-20)
(-0.117839 0.107369 -3.78388e-21)
(-0.120802 0.109172 -8.19318e-22)
(-0.123929 0.109822 -6.68747e-21)
(-0.127243 0.109046 3.16427e-20)
(-0.130761 0.106556 -2.09576e-20)
(-0.134488 0.102051 5.39628e-21)
(-0.138418 0.0952401 -2.03528e-20)
(-0.142529 0.085838 3.71023e-21)
(-0.14678 0.0736029 1.42366e-20)
(-0.151111 0.0583505 -5.93477e-21)
(-0.155453 0.0399999 -4.26576e-21)
(-0.159735 0.0185745 8.18809e-21)
(-0.163895 -0.00573855 -7.42689e-21)
(-0.167893 -0.0326077 -7.61604e-22)
(-0.171728 -0.0615073 9.35332e-21)
(-0.175461 -0.0917669 -7.37403e-21)
(-0.179194 -0.122587 1.64391e-20)
(-0.183058 -0.153067 -7.01826e-22)
(-0.187191 -0.182241 -1.83577e-21)
(-0.191703 -0.209109 -7.62528e-21)
(-0.19665 -0.232646 -6.96258e-21)
(-0.202032 -0.251839 2.65183e-21)
(-0.207798 -0.265724 3.81836e-21)
(-0.213878 -0.273444 4.09473e-21)
(-0.220219 -0.274326 2.99436e-21)
(-0.226804 -0.267949 -5.29373e-22)
(-0.233622 -0.254194 -1.23983e-21)
(-0.240619 -0.233234 9.41535e-22)
(-0.247623 -0.205502 2.08251e-22)
(-0.254337 -0.171665 1.57754e-22)
(-0.260374 -0.1326 -5.13052e-22)
(-0.265375 -0.0894895 2.55955e-23)
(-0.269092 -0.0438646 -7.534e-22)
(-0.27144 0.00210147 -3.00061e-22)
(-0.272513 0.0455438 -1.30808e-21)
(-0.272201 0.08246 -9.03739e-22)
(-0.270673 0.108024 1.02454e-21)
(-0.26707 0.117112 1.40081e-21)
(-0.26259 0.105722 -1.61007e-21)
(-0.256691 0.0767946 5.77832e-22)
(-0.253662 0.0353063 4.91906e-22)
(-0.25255 0.00682967 8.09981e-23)
(-0.099867 0.097911 -1.87578e-21)
(-0.102167 0.101825 -1.65816e-21)
(-0.104541 0.105276 -1.79608e-20)
(-0.107019 0.108067 2.62241e-20)
(-0.109632 0.109972 -2.08198e-20)
(-0.11241 0.110741 4.06194e-20)
(-0.115377 0.110099 -2.44362e-20)
(-0.118552 0.107753 2.16581e-20)
(-0.121939 0.103397 -1.02248e-20)
(-0.125534 0.0967345 -5.60067e-21)
(-0.129318 0.0874724 -1.19174e-20)
(-0.133252 0.0753611 2.97382e-20)
(-0.137277 0.0602076 -1.95154e-21)
(-0.141327 0.0419271 -9.3724e-21)
(-0.145336 0.0205382 8.2479e-21)
(-0.149246 -0.00377124 -1.57095e-23)
(-0.153027 -0.0306662 -1.88313e-20)
(-0.156686 -0.0596129 -6.23232e-21)
(-0.160301 -0.0899302 1.34255e-21)
(-0.16399 -0.120811 -1.61385e-21)
(-0.167903 -0.151351 -5.39021e-21)
(-0.172196 -0.180584 8.66162e-21)
(-0.176989 -0.207516 -8.85391e-23)
(-0.182342 -0.231131 -5.38405e-21)
(-0.188247 -0.250422 -1.72754e-21)
(-0.194629 -0.264426 -1.14434e-21)
(-0.201387 -0.272278 -1.43931e-21)
(-0.208431 -0.273293 -6.0827e-22)
(-0.215713 -0.267037 1.47636e-21)
(-0.223216 -0.253386 1.44723e-21)
(-0.230896 -0.232522 -8.12933e-22)
(-0.238601 -0.204894 -9.50049e-22)
(-0.246051 -0.171187 1.34387e-21)
(-0.252846 -0.132277 -7.11631e-22)
(-0.258592 -0.0893395 -1.14166e-21)
(-0.262989 -0.0438814 -2.98717e-22)
(-0.265893 0.00194822 -2.75995e-22)
(-0.267356 0.0452838 -6.71333e-22)
(-0.26726 0.0821203 -6.02789e-22)
(-0.265831 0.107592 -1.081e-22)
(-0.262389 0.1166 -1.76864e-21)
(-0.258269 0.105189 1.41325e-21)
(-0.253303 0.0763744 1.32718e-23)
(-0.251223 0.0351842 2.31794e-24)
(-0.251376 0.00679905 -2.66215e-22)
(-0.0896393 0.0982664 1.33953e-20)
(-0.0915721 0.102226 1.35158e-20)
(-0.0935758 0.105744 -3.56168e-21)
(-0.095682 0.108623 -2.04869e-20)
(-0.0979225 0.110637 3.13641e-21)
(-0.100327 0.111533 -1.5429e-20)
(-0.102921 0.111034 2.88086e-20)
(-0.105724 0.108844 -2.39957e-20)
(-0.108741 0.104647 1.03885e-20)
(-0.11197 0.0981478 1.30811e-20)
(-0.115395 0.08904 -1.54906e-20)
(-0.118979 0.0770681 1.53807e-21)
(-0.122664 0.0620289 -3.1295e-20)
(-0.12639 0.0438339 2.60104e-20)
(-0.130091 0.0224968 2.86626e-20)
(-0.133719 -0.00179522 -2.84657e-20)
(-0.137251 -0.0287013 -1.23507e-20)
(-0.140702 -0.0576815 4.58174e-20)
(-0.144169 -0.0880429 -2.5452e-20)
(-0.147788 -0.118969 -2.0814e-20)
(-0.151727 -0.149555 -5.12267e-21)
(-0.15616 -0.178831 3.64588e-21)
(-0.161222 -0.205814 -2.58746e-21)
(-0.166976 -0.229495 -4.80926e-21)
(-0.173408 -0.248878 8.43317e-23)
(-0.180423 -0.262999 5.14503e-21)
(-0.187886 -0.27099 -3.20646e-21)
(-0.195665 -0.272149 1.43895e-21)
(-0.203678 -0.26603 -4.29077e-21)
(-0.211887 -0.252497 7.65425e-22)
(-0.220258 -0.231739 6.86882e-22)
(-0.228664 -0.204218 3.36015e-22)
(-0.236838 -0.17064 -5.14986e-22)
(-0.24438 -0.131889 3.57901e-22)
(-0.250866 -0.0891289 -2.08219e-22)
(-0.255941 -0.0438498 3.66017e-22)
(-0.2594 0.00182627 5.37099e-22)
(-0.261254 0.0450374 6.57547e-22)
(-0.261378 0.0817822 2.49908e-22)
(-0.260054 0.107165 -6.21398e-22)
(-0.256789 0.11612 6.8216e-22)
(-0.253045 0.104735 1.27178e-22)
(-0.249015 0.0760729 4.56667e-22)
(-0.247881 0.0351858 -1.04413e-21)
(-0.249288 0.00684243 1.7384e-23)
(-0.0789703 0.0984601 1.21357e-21)
(-0.0805193 0.102468 -1.16219e-20)
(-0.0821352 0.106057 -6.62792e-21)
(-0.08385 0.10903 -7.07351e-21)
(-0.0856957 0.111158 -3.5523e-21)
(-0.0877025 0.112189 -8.18729e-21)
(-0.0898977 0.111843 2.52555e-23)
(-0.0923027 0.109818 2.75635e-21)
(-0.094921 0.105793 -1.03994e-20)
(-0.0977531 0.0994695 2.12873e-20)
(-0.100787 0.0905305 -1.66016e-20)
(-0.10399 0.0787133 2.40727e-21)
(-0.107302 0.0638043 1.66056e-20)
(-0.110668 0.0457104 -3.11107e-20)
(-0.114029 0.0244411 2.71911e-20)
(-0.117342 0.000174024 -1.77875e-20)
(-0.120591 -0.0267214 3.20966e-20)
(-0.123804 -0.0557208 -4.07361e-21)
(-0.127093 -0.0861121 -1.04491e-20)
(-0.130613 -0.117069 -4.77129e-21)
(-0.134553 -0.147685 4.35983e-20)
(-0.139106 -0.176987 -2.30129e-20)
(-0.14442 -0.204007 9.65252e-21)
(-0.150566 -0.22774 -1.88281e-21)
(-0.157526 -0.247204 -3.95082e-22)
(-0.165187 -0.26144 2.29795e-21)
(-0.17338 -0.269574 -2.53311e-21)
(-0.181928 -0.270891 4.34689e-21)
(-0.190705 -0.264923 4.3872e-21)
(-0.199649 -0.251525 -8.9609e-22)
(-0.208724 -0.230883 -3.13333e-21)
(-0.217828 -0.203475 1.56513e-21)
(-0.226718 -0.170027 -6.19805e-22)
(-0.234996 -0.131435 -4.40289e-22)
(-0.242211 -0.0888585 3.16694e-22)
(-0.24796 -0.04377 5.66904e-23)
(-0.251976 0.00173577 6.15679e-23)
(-0.254223 0.0448048 -2.61468e-22)
(-0.254574 0.0814464 -2.7704e-22)
(-0.253364 0.106746 6.37775e-22)
(-0.250288 0.115671 3.48675e-22)
(-0.246935 0.104362 -1.35977e-21)
(-0.243838 0.0758891 -7.41325e-22)
(-0.243645 0.03531 7.13579e-22)
(-0.246303 0.00695892 1.82335e-22)
(-0.0678732 0.0984882 -3.10038e-20)
(-0.0690249 0.102547 3.02736e-20)
(-0.0702373 0.10621 -2.35876e-20)
(-0.071543 0.10928 -1.01731e-20)
(-0.0729745 0.111529 2.12405e-20)
(-0.0745622 0.112702 2.54727e-20)
(-0.0763345 0.112516 -3.55394e-20)
(-0.0783158 0.110667 2.83983e-20)
(-0.0805078 0.106824 -2.5546e-20)
(-0.0829136 0.100689 3.87953e-21)
(-0.0855264 0.0919334 2.38505e-20)
(-0.0883143 0.0802864 2.13384e-21)
(-0.0912215 0.0655235 -3.74572e-21)
(-0.0941946 0.047547 2.22631e-21)
(-0.0971824 0.0263613 2.82459e-21)
(-0.100144 0.00212146 -5.72747e-23)
(-0.103077 -0.0247347 5.35356e-21)
(-0.106022 -0.0537386 -9.9913e-21)
(-0.109101 -0.0841452 -4.10471e-21)
(-0.112495 -0.115118 -1.0054e-20)
(-0.11641 -0.145747 2.00803e-21)
(-0.121058 -0.175059 -3.53286e-21)
(-0.126606 -0.202097 -3.1941e-21)
(-0.133131 -0.225868 1.03686e-21)
(-0.140615 -0.245401 1.16746e-20)
(-0.148931 -0.259746 -3.17987e-21)
(-0.157875 -0.268025 -8.24225e-22)
(-0.167225 -0.26951 2.87867e-21)
(-0.176803 -0.263712 -9.43974e-22)
(-0.186511 -0.250466 -9.34917e-22)
(-0.19631 -0.229953 -1.36225e-21)
(-0.206114 -0.202666 6.11065e-22)
(-0.215711 -0.16935 -1.32703e-22)
(-0.224712 -0.130917 -6.57818e-23)
(-0.232647 -0.0885298 -1.23475e-22)
(-0.239063 -0.0436424 -2.71651e-22)
(-0.243637 0.00167703 -2.10434e-22)
(-0.246282 0.0445869 2.61693e-22)
(-0.246865 0.081114 2.99974e-22)
(-0.245781 0.106336 7.37269e-23)
(-0.242907 0.115257 4.67905e-22)
(-0.239954 0.104067 6.92299e-22)
(-0.237784 0.0758213 -2.64907e-22)
(-0.238523 0.0355558 8.71424e-22)
(-0.242437 0.00714823 -6.80985e-23)
(-0.0563585 0.0983481 4.18283e-21)
(-0.0571022 0.102459 5.12041e-21)
(-0.0578985 0.106198 -8.53657e-21)
(-0.0587802 0.109369 2.85943e-20)
(-0.0597802 0.111743 -3.10414e-20)
(-0.0609293 0.113063 1.85667e-20)
(-0.0622568 0.113046 -2.31048e-20)
(-0.0637909 0.111383 1.1506e-20)
(-0.0655307 0.107729 1.9815e-21)
(-0.0674814 0.101797 -1.25934e-20)
(-0.0696427 0.0932388 2.22122e-21)
(-0.0719851 0.0817778 6.5496e-21)
(-0.0744545 0.0671767 2.48812e-21)
(-0.077001 0.0493338 -1.11146e-21)
(-0.0795858 0.028249 -1.50021e-20)
(-0.0821604 0.00406659 -1.70755e-20)
(-0.0847399 -0.0227483 2.00935e-20)
(-0.0873876 -0.0517424 -2.18947e-20)
(-0.0902284 -0.0821496 -4.92415e-21)
(-0.0934673 -0.113121 2.60135e-20)
(-0.0973296 -0.143748 2.03326e-20)
(-0.102049 -0.173052 -2.19857e-20)
(-0.107808 -0.200091 1.73385e-20)
(-0.114695 -0.223882 -1.30809e-21)
(-0.122695 -0.243471 -2.80806e-21)
(-0.131668 -0.257917 4.58146e-21)
(-0.14138 -0.266341 -2.14401e-21)
(-0.151562 -0.268003 -4.12526e-21)
(-0.161978 -0.26239 3.41749e-21)
(-0.172488 -0.249315 7.5912e-23)
(-0.183031 -0.228948 2.95531e-21)
(-0.193543 -0.20179 -4.31777e-22)
(-0.203839 -0.168611 -2.08659e-22)
(-0.21355 -0.130339 4.14629e-22)
(-0.222192 -0.0881438 6.02792e-22)
(-0.229271 -0.0434672 4.81686e-22)
(-0.234401 0.00165056 2.04916e-22)
(-0.237449 0.0443846 -3.19643e-22)
(-0.238275 0.0807863 -2.6478e-22)
(-0.237328 0.105935 -3.70612e-22)
(-0.234667 0.114877 4.90604e-24)
(-0.23212 0.103851 -4.13176e-22)
(-0.230864 0.0758675 8.80522e-22)
(-0.232523 0.0359225 -1.55822e-21)
(-0.237707 0.00741063 -8.81773e-23)
(-0.0444329 0.0980386 5.0838e-21)
(-0.0447614 0.102201 -2.56583e-21)
(-0.0451324 0.106018 8.43367e-21)
(-0.0455784 0.109292 -1.10697e-21)
(-0.0461327 0.111794 -1.52668e-20)
(-0.0468265 0.113267 2.00278e-20)
(-0.0476892 0.113424 -7.56554e-21)
(-0.0487556 0.111956 4.53369e-21)
(-0.0500191 0.108503 -2.83311e-20)
(-0.051487 0.102785 1.83535e-20)
(-0.0531682 0.0944379 -1.82668e-20)
(-0.0550351 0.0831785 1.42426e-20)
(-0.0570355 0.0687544 4.7391e-22)
(-0.059122 0.0510612 8.83628e-21)
(-0.0612688 0.0300969 2.55773e-21)
(-0.063425 0.0060032 1.63628e-20)
(-0.0656204 -0.0207717 3.19933e-21)
(-0.0679382 -0.0497397 -8.77463e-21)
(-0.0705096 -0.0801325 1.04152e-20)
(-0.073565 -0.111086 -6.78612e-21)
(-0.0773481 -0.141694 -8.60613e-21)
(-0.0821129 -0.170971 2.04352e-20)
(-0.0880601 -0.197994 -6.59712e-21)
(-0.0952886 -0.221786 -1.69015e-20)
(-0.10379 -0.241416 -7.87554e-21)
(-0.113416 -0.255951 -2.96771e-21)
(-0.123908 -0.264518 3.17151e-21)
(-0.134947 -0.266363 9.77003e-22)
(-0.14624 -0.260952 -4.87103e-21)
(-0.157588 -0.248068 1.98564e-21)
(-0.168905 -0.227865 -1.8994e-21)
(-0.180136 -0.200848 3.56374e-23)
(-0.191126 -0.16781 6.45936e-22)
(-0.201533 -0.129701 -4.18594e-22)
(-0.210869 -0.0877021 2.34684e-22)
(-0.218601 -0.0432449 -1.77805e-21)