/*--------------------------------*- C++ -*----------------------------------*\
  =========                 |
  \\      /  F ield         | OpenFOAM: The Open Source CFD Toolbox
   \\    /   O peration     | Website:  https://openfoam.org
    \\  /    A nd           | Version:  7
     \\/     M anipulation  |
\*---------------------------------------------------------------------------*/
FoamFile
{
    version     2.0;
    format      ascii;
    class       volVectorField;
    location    "20";
    object      U;
}
// * * * * * * * * * * * * * * * * * * * * * * * * * * * * * * * * * * * * * //

dimensions      [0 1 -1 0 0 0 0];

internalField   nonuniform List<vector> 
12100
(
(-0.000370214 0.000361333 1.10644e-21)
(-0.00204242 0.000863749 4.49011e-22)
(-0.0052246 0.00119065 -5.00086e-21)
(-0.00915154 0.00137665 2.81136e-21)
(-0.013438 0.00144789 -3.2749e-21)
(-0.0177986 0.00142797 -5.57001e-21)
(-0.0219908 0.00133884 -1.75802e-21)
(-0.0258341 0.00120086 7.56316e-22)
(-0.0292072 0.00103314 6.02973e-21)
(-0.0320439 0.000853726 -5.36927e-21)
(-0.0343319 0.000679539 -1.52774e-21)
(-0.0361117 0.00052552 -6.88854e-21)
(-0.0374499 0.000402298 -6.16051e-21)
(-0.0384534 0.000323864 3.12246e-21)
(-0.000413675 0.00107845 -5.29522e-21)
(-0.00213113 0.00257707 -2.19167e-20)
(-0.00531214 0.00355141 3.44856e-22)
(-0.00920113 0.0041047 9.80446e-21)
(-0.0134173 0.00431509 8.65571e-21)
(-0.0176789 0.00425311 -1.1929e-20)
(-0.0217462 0.00398439 -1.31437e-20)
(-0.0254415 0.00356985 9.17543e-21)
(-0.0286455 0.00306669 5.81285e-21)
(-0.031294 0.00252903 -4.31131e-21)
(-0.0333769 0.00200771 -8.24474e-22)
(-0.0349384 0.00154769 2.40963e-20)
(-0.0360442 0.00118135 3.14266e-20)
(-0.0367909 0.000951559 1.08259e-20)
(-0.000499378 0.00177901 -1.66453e-21)
(-0.00230544 0.00424809 2.96298e-20)
(-0.00548276 0.0058508 -1.93227e-20)
(-0.00929482 0.00675734 1.06598e-20)
(-0.0133698 0.00709691 1.42296e-21)
(-0.0174327 0.00698626 -5.03667e-22)
(-0.02125 0.00653402 -5.4109e-21)
(-0.0246491 0.00584113 -3.51052e-20)
(-0.0275151 0.00500257 -5.81154e-22)
(-0.0297874 0.00410841 3.07778e-20)
(-0.0314603 0.00324365 -1.77187e-20)
(-0.0325854 0.00248372 5.75266e-20)
(-0.0332267 0.00188411 -4.66667e-20)
(-0.0334598 0.00151927 -6.08442e-20)
(-0.000624914 0.00245228 1.05854e-20)
(-0.0025592 0.00584934 -1.12014e-20)
(-0.00572755 0.00804899 2.43921e-20)
(-0.00942166 0.0092856 -3.11324e-20)
(-0.013283 0.00973795 -4.05135e-20)
(-0.0170467 0.00956775 6.58724e-20)
(-0.0204884 0.00892558 1.96363e-20)
(-0.0234429 0.00795148 2.60694e-21)
(-0.0258018 0.00677761 2.92004e-20)
(-0.0275103 0.00552985 -3.73846e-20)
(-0.0285687 0.00432769 -5.84888e-20)
(-0.0290398 0.00327781 3.15681e-20)
(-0.0289857 0.00246095 -1.61061e-20)
(-0.0284486 0.00198754 4.74844e-20)
(-0.000786715 0.00308802 -5.11233e-20)
(-0.00288324 0.00735448 3.55436e-20)
(-0.00603325 0.0101077 -1.61701e-20)
(-0.00956531 0.0116424 5.89217e-20)
(-0.0131383 0.012185 -4.49768e-20)
(-0.0165007 0.0119404 -8.26242e-20)
(-0.0194402 0.0110996 -1.94849e-20)
(-0.0218016 0.00984046 2.09484e-20)
(-0.0234845 0.00833154 -7.30054e-20)
(-0.0244417 0.00673421 3.88503e-21)
(-0.0246816 0.00520296 1.05938e-20)
(-0.0242821 0.00387671 -8.15737e-20)
(-0.0233037 0.00286419 2.58396e-20)
(-0.0217385 0.00231815 4.76704e-20)
(-0.000980123 0.00367657 2.0472e-20)
(-0.00326554 0.00873864 -2.54039e-21)
(-0.00638234 0.0119907 7.12734e-22)
(-0.00970412 0.0137833 -8.93321e-21)
(-0.0129111 0.0143878 7.82787e-20)
(-0.015768 0.0140503 8.04364e-20)
(-0.0180775 0.0130002 1.73636e-20)
(-0.0196964 0.0114516 -2.10889e-20)
(-0.0205346 0.00960822 4.15999e-20)
(-0.0205536 0.00766649 5.32714e-20)
(-0.0197718 0.00581661 -2.18352e-20)
(-0.0182861 0.00423098 2.59598e-20)
(-0.0161578 0.00305093 -1.54158e-20)
(-0.0133038 0.00248205 -1.0447e-19)
(-0.00119945 0.00420906 1.88582e-20)
(-0.00369134 0.0099788 -4.51291e-20)
(-0.00675321 0.0136646 3.92338e-20)
(-0.00981119 0.0156672 -7.21585e-20)
(-0.0125705 0.0163002 1.21185e-20)
(-0.0148151 0.0158482 -1.25596e-19)
(-0.0163651 0.0145766 8.92561e-20)
(-0.0170914 0.0127337 -3.44658e-21)
(-0.016916 0.0105569 1.03522e-19)
(-0.0158104 0.00827709 -1.83381e-20)
(-0.0138043 0.00612086 1.39475e-19)
(-0.0110174 0.00429595 3.88015e-22)
(-0.00751534 0.00298562 6.72896e-21)
(-0.00312387 0.00247847 3.04625e-20)
(-0.00143807 0.00467744 -5.78303e-20)
(-0.00414329 0.011054 4.00988e-20)
(-0.00712028 0.0150987 -6.66188e-20)
(-0.00985456 0.0172568 -2.15584e-21)
(-0.0120797 0.0178802 -2.43074e-20)
(-0.0136017 0.0172896 1.50728e-19)
(-0.0142605 0.0157834 -1.3827e-19)
(-0.0139432 0.0136417 7.79453e-20)
(-0.012585 0.0111333 5.46008e-20)
(-0.0101688 0.00852304 -9.19869e-20)
(-0.00673687 0.00607418 -3.29858e-20)
(-0.00243216 0.00403209 -7.4953e-20)
(0.00268088 0.0026308 -5.22969e-20)
(0.00882101 0.00225755 9.87397e-20)
(-0.00168849 0.00507462 4.08029e-20)
(-0.00460162 0.0119458 -4.17786e-20)
(-0.00745419 0.0162662 2.53408e-20)
(-0.00979729 0.018519 -1.52841e-20)
(-0.011396 0.0190914 7.57279e-20)
(-0.0120809 0.0183363 -5.33123e-20)
(-0.011714 0.0165823 1.38419e-20)
(-0.0102006 0.0141379 -2.01728e-20)
(-0.00749037 0.0113015 -6.01188e-20)
(-0.00357832 0.00836965 1.91779e-20)
(0.00147997 0.00564303 5.51702e-20)
(0.00751513 0.00340668 3.58442e-20)
(0.0144675 0.00195215 1.4762e-19)
(0.0226076 0.00177486 1.09497e-20)
(-0.00194242 0.00539446 -2.87234e-20)
(-0.00504428 0.0126378 3.00787e-21)
(-0.00772196 0.0171436 -7.37702e-21)
(-0.00959768 0.0194259 -9.98025e-21)
(-0.0104709 0.0199029 -1.63634e-19)
(-0.0101991 0.0189569 5.17665e-20)
(-0.00866881 0.0169424 -5.25829e-20)
(-0.00580489 0.0141935 2.07194e-20)
(-0.00157279 0.0110345 4.14833e-20)
(0.00401974 0.0077922 -3.77577e-20)
(0.0109034 0.00480406 -2.31638e-19)
(0.0188802 0.00239752 9.16625e-20)
(0.0278939 0.000932993 -1.81034e-19)
(0.0382873 0.00103847 4.66455e-20)
(-0.00219088 0.00563181 -2.59824e-20)
(-0.00544712 0.0131168 7.27808e-20)
(-0.00788719 0.0177116 -3.24121e-20)
(-0.00920941 0.0199543 8.72091e-20)
(-0.00925027 0.0202904 1.10341e-19)
(-0.00789641 0.0191271 1.48456e-20)
(-0.00506071 0.0168416 -1.31735e-19)
(-0.000689514 0.0137892 -2.69411e-20)
(0.00523489 0.0103165 -5.81676e-20)
(0.0126917 0.00677756 1.32987e-19)
(0.0215983 0.00354573 1.22962e-19)
(0.0317261 0.000992729 -3.63783e-19)
(0.0430216 -0.000439272 2.76217e-19)
(0.0559169 4.77168e-05 -1.69802e-19)
(-0.00242418 0.00578248 1.57003e-20)
(-0.00578405 0.0133716 2.17052e-20)
(-0.00791028 0.0179548 -1.2218e-19)
(-0.00858181 0.0200867 1.11936e-19)
(-0.00767455 0.0202358 -1.5972e-19)
(-0.00510634 0.0188307 6.3503e-20)
(-0.0008185 0.0162667 7.54185e-20)
(0.00521962 0.0129161 2.0204e-20)
(0.0130078 0.00914345 -1.2399e-19)
(0.0225118 0.00532588 -2.4889e-19)
(0.0336364 0.00187039 1.49596e-19)
(0.0461224 -0.000806249 8.36048e-20)
(0.0599187 -0.00216645 -2.04262e-20)
(0.0755629 -0.00119751 1.19318e-20)
(-0.00263207 0.0058432 -1.31213e-21)
(-0.00602713 0.013394 6.46539e-20)
(-0.00774865 0.0178621 1.93015e-19)
(-0.00766014 0.0198112 -8.88131e-20)
(-0.00567914 0.0197283 -1.2448e-19)
(-0.00175662 0.0180597 -1.31024e-20)
(0.0041358 0.0152144 1.17853e-19)
(0.0120041 0.0115768 -6.15637e-20)
(0.0218288 0.00752455 2.75499e-19)
(0.0335621 0.0034523 1.79839e-19)
(0.0470969 -0.000203361 -2.88725e-20)
(0.0621443 -0.00298184 1.09694e-19)
(0.0786575 -0.00423636 -2.54968e-19)
(0.0972951 -0.002686 7.89778e-20)
(-0.00280368 0.00581161 -3.64611e-20)
(-0.00614677 0.0131784 -1.22561e-19)
(-0.00735697 0.0174266 -8.78254e-20)
(-0.00638598 0.0191211 -1.86738e-20)
(-0.00319486 0.0187639 6.03833e-20)
(0.00223054 0.0168144 7.47737e-20)
(0.00988646 0.0136911 1.31066e-20)
(0.0197524 0.00978585 1.72852e-19)
(0.0317882 0.00548296 -1.61931e-19)
(0.0459318 0.00118838 2.54921e-19)
(0.0620656 -0.00263842 -1.34027e-19)
(0.079873 -0.00549748 6.64603e-20)
(0.0993157 -0.00662024 1.70844e-19)
(0.121197 -0.0043933 1.46892e-19)
(-0.00292756 0.00568627 3.55415e-20)
(-0.00611185 0.0127217 -4.93546e-20)
(-0.00668758 0.0166455 2.35487e-19)
(-0.00469775 0.018016 -4.76786e-21)
(-0.00014858 0.0173457 -9.75974e-20)
(0.00693766 0.0151036 -1.09231e-19)
(0.0165233 0.0117133 2.76119e-20)
(0.0285594 0.00756917 -3.33009e-19)
(0.0429834 0.00305615 2.54531e-20)
(0.0597174 -0.00141683 -3.28667e-19)
(0.0786346 -0.00537691 9.736e-20)
(0.0993934 -0.00829434 8.52996e-20)
(0.121972 -0.00927049 -5.04754e-20)
(0.147348 -0.00628863 -2.75099e-19)
(-0.00299187 0.0054666 6.49081e-20)
(-0.00588997 0.0120235 3.95183e-20)
(-0.00569084 0.0155203 -2.03777e-19)
(-0.00253129 0.0165007 2.17123e-20)
(0.00353594 0.0154835 1.11115e-19)
(0.0124509 0.0129439 1.23719e-19)
(0.0241405 0.00930678 9.77245e-20)
(0.0385253 0.00496412 2.52167e-19)
(0.0555175 0.000295473 -1.43785e-20)
(0.0750216 -0.00429643 -1.75009e-20)
(0.0969013 -0.00833836 -8.1376e-20)
(0.120794 -0.0112871 -4.84323e-20)
(0.146705 -0.0121144 -1.05174e-19)
(0.175828 -0.00832334 9.29942e-20)
(-0.00298423 0.00515285 -9.71339e-20)
(-0.00544772 0.011086 -4.32575e-20)
(-0.0043157 0.0140568 1.46286e-19)
(0.000179205 0.0145858 -4.70469e-20)
(0.00793687 0.0131941 -2.50444e-20)
(0.0188588 0.0103599 -7.79988e-20)
(0.032835 0.00650582 5.43884e-20)
(0.0497535 0.00201798 -1.73127e-19)
(0.0694983 -0.00273518 -1.08131e-19)
(0.0919527 -0.00736659 2.88701e-19)
(0.116969 -0.0114187 -7.95741e-20)
(0.144166 -0.0143601 -2.02258e-19)
(0.173593 -0.0150471 3.05545e-20)
(0.206711 -0.0104281 8.75388e-20)
(-0.00289193 0.00474624 -9.53931e-20)
(-0.00475096 0.00991419 1.23267e-19)
(-0.00251037 0.0122651 1.80631e-19)
(0.0035002 0.0122874 -1.70346e-19)
(0.0131329 0.0105006 4.93188e-20)
(0.0262503 0.00738289 -1.67698e-19)
(0.0427045 0.00335215 -1.24467e-19)
(0.0623491 -0.00121395 -7.91854e-20)
(0.0850363 -0.0059621 1.12914e-19)
(0.110623 -0.0105293 3.8207e-21)
(0.138945 -0.0144914 -9.33025e-20)
(0.169605 -0.0173633 1.28692e-19)
(0.202708 -0.0179222 7.4645e-20)
(0.240066 -0.0125046 1.14675e-19)
(-0.00270198 0.00424901 3.00394e-20)
(-0.00376529 0.00851618 1.22791e-19)
(-0.000223133 0.01016 -2.81007e-19)
(0.00749757 0.00962727 1.48762e-19)
(0.0192015 0.00743227 -2.05789e-19)
(0.0347124 0.00405042 -4.76111e-20)
(0.0538443 -0.000106757 2.75791e-20)
(0.0764149 -0.00467117 9.23334e-20)
(0.102241 -0.00930607 -2.68675e-20)
(0.131147 -0.0136777 5.58454e-20)
(0.162943 -0.0174117 1.25923e-19)
(0.197212 -0.0201114 9.24155e-20)
(0.234129 -0.0205401 -1.27417e-19)
(0.275951 -0.014412 1.64817e-19)
(-0.00240135 0.00366456 -1.70367e-20)
(-0.00245659 0.00690305 -8.59725e-20)
(0.0025967 0.00776058 2.39171e-19)
(0.0122351 0.00663282 3.38688e-20)
(0.0262167 0.00402434 1.00801e-19)
(0.0443276 0.000405669 1.75867e-19)
(0.066344 -0.00381925 -2.1745e-19)
(0.0920472 -0.00829124 -5.99515e-20)
(0.121216 -0.0126882 2.1094e-19)
(0.153636 -0.0167051 -1.88747e-19)
(0.189082 -0.0200271 3.56744e-21)
(0.227103 -0.0223897 4.51347e-20)
(0.267945 -0.0226424 5.74662e-20)
(0.314425 -0.0159543 1.47213e-20)
(-0.00197715 0.00299755 -2.84067e-20)
(-0.000791619 0.00508938 1.60267e-19)
(0.00599774 0.00509124 -1.0035e-19)
(0.017773 0.00333734 1.21084e-19)
(0.0342473 0.000318194 8.0225e-20)
(0.0551704 -0.00350305 1.40419e-19)
(0.0802828 -0.00773089 -3.98337e-20)
(0.10933 -0.0120132 2.4133e-20)
(0.142054 -0.0160369 -6.66105e-20)
(0.178195 -0.0195171 8.71519e-20)
(0.217479 -0.0221947 6.73669e-20)
(0.259406 -0.0239686 1.33435e-19)
(0.304274 -0.0238986 -1.49199e-19)
(0.355567 -0.0168215 -1.48568e-19)
(-0.00141688 0.00225407 1.77449e-19)
(0.0012613 0.00309343 -2.44105e-19)
(0.0100254 0.0021815 9.18912e-20)
(0.0241662 -0.000219644 -2.4781e-19)
(0.0433539 -0.00363842 1.64062e-19)
(0.0673043 -0.00762213 -1.6353e-19)
(0.0957247 -0.0117851 3.41541e-20)
(0.128329 -0.01578 -1.47919e-19)
(0.164824 -0.0192952 -2.92399e-20)
(0.204907 -0.0220476 1.48138e-19)
(0.248246 -0.0238083 -6.84242e-20)
(0.294263 -0.0246246 -1.22868e-19)
(0.343233 -0.0238267 -6.22567e-20)
(0.399358 -0.0163242 -2.21966e-19)
(-0.000708714 0.00144178 -6.41315e-20)
(0.00373159 0.000937378 1.67279e-19)
(0.0147208 -0.000933493 -3.69796e-19)
(0.0314627 -0.00399187 -2.31319e-20)
(0.053587 -0.00779068 -4.9804e-20)
(0.080778 -0.0118918 -9.03679e-21)
(0.112713 -0.0159223 -1.652e-19)
(0.14908 -0.0195397 1.00608e-19)
(0.18956 -0.0224264 9.86495e-20)
(0.233822 -0.0242799 -3.27084e-19)
(0.281487 -0.0248514 2.36411e-19)
(0.331899 -0.0242096 -2.8985e-19)
(0.385081 -0.0217457 2.27707e-19)
(0.445493 -0.0130702 6.3889e-20)
(0.000158203 0.000569947 -1.17282e-19)
(0.00664578 -0.00135251 2.18884e-20)
(0.02012 -0.00421268 1.81951e-19)
(0.0397026 -0.00792581 9.4202e-20)
(0.0649853 -0.0120757 -6.91799e-20)
(0.0956228 -0.0162446 -2.27945e-19)
(0.131266 -0.0200774 2.57033e-19)
(0.171582 -0.0232416 -3.14525e-20)
(0.216243 -0.0254147 -2.07954e-19)
(0.264921 -0.026266 9.02065e-20)
(0.317264 -0.0254793 -9.66797e-20)
(0.372741 -0.0229022 4.71079e-19)
(0.431102 -0.0174963 1.7196e-19)
(0.495339 -0.00659461 -3.53312e-20)
(0.00119357 -0.000350539 -5.12342e-20)
(0.010027 -0.00374586 2.00698e-19)
(0.0262529 -0.00760892 5.10783e-20)
(0.0489169 -0.0119602 4.70744e-20)
(0.0775741 -0.0164215 1.06485e-19)
(0.111851 -0.0206023 2.45036e-19)
(0.151372 -0.0241744 -1.72376e-19)
(0.195789 -0.0268261 5.09917e-19)
(0.244774 -0.0282465 1.70594e-19)
(0.298033 -0.0281039 -9.20998e-20)
(0.355352 -0.0260392 -3.16024e-20)
(0.416763 -0.0215789 -1.86725e-19)
(0.483219 -0.0132574 -2.92765e-19)
(0.559381 -0.00217792 -3.52516e-19)
(0.00240571 -0.00130722 -1.077e-19)
(0.0138945 -0.00620829 -9.34011e-20)
(0.0331432 -0.0110691 4.57654e-21)
(0.0591273 -0.0160258 7.02712e-20)
(0.0913658 -0.0207458 6.07898e-20)
(0.129456 -0.0248739 -8.63474e-21)
(0.172994 -0.0281196 -1.16194e-19)
(0.221611 -0.030208 -2.34285e-19)
(0.274973 -0.0308679 1.04326e-19)
(0.332811 -0.0298233 -1.23186e-19)
(0.395005 -0.0268051 -1.2684e-19)
(0.461924 -0.0214571 6.25646e-20)
(0.534873 -0.0133554 5.01561e-20)
(0.61558 -0.0077442 5.08839e-19)
(0.00380149 -0.00228623 5.40997e-20)
(0.0182635 -0.00870173 2.0788e-19)
(0.0408081 -0.0145342 -2.49183e-19)
(0.0703459 -0.0200456 4.03837e-20)
(0.10636 -0.0249562 1.40865e-20)
(0.148415 -0.0289545 -5.881e-20)
(0.196073 -0.0317985 -1.55823e-19)
(0.248933 -0.0332654 6.35078e-20)
(0.306632 -0.0331491 -1.14861e-19)
(0.36888 -0.0312712 1.9057e-19)
(0.435535 -0.0275278 -2.41974e-19)
(0.506936 -0.0218335 3.37345e-20)
(0.583993 -0.0146084 3.0355e-19)
(0.665535 -0.0124096 -6.96709e-19)
(0.00538628 -0.00327251 -2.55082e-19)
(0.0231451 -0.011185 6.47573e-20)
(0.0492579 -0.0179405 -9.16544e-20)
(0.0825763 -0.0239359 -5.82082e-20)
(0.122546 -0.0289513 -8.35406e-20)
(0.168694 -0.0327268 7.85566e-20)
(0.22054 -0.0350778 1.18672e-19)
(0.277632 -0.035846 -7.78696e-20)
(0.339555 -0.0349047 -2.36202e-19)
(0.405943 -0.0321873 8.34846e-20)
(0.476536 -0.0277554 -8.98037e-20)
(0.551426 -0.0217455 6.7396e-20)
(0.630911 -0.0149676 6.16407e-20)
(0.71213 -0.0140199 4.55192e-19)
(0.00716399 -0.00425011 1.77268e-19)
(0.0285463 -0.0136142 -2.19758e-19)
(0.0584967 -0.0212203 2.07444e-19)
(0.0958132 -0.0276076 -1.6056e-20)
(0.139902 -0.032623 1.09666e-19)
(0.190247 -0.0360648 -2.53485e-19)
(0.246315 -0.0378135 9.07526e-21)
(0.307589 -0.0377823 -4.08448e-20)
(0.373573 -0.0359298 1.14059e-19)
(0.443788 -0.0322987 -5.91173e-20)
(0.5178 -0.0270884 3.69356e-19)
(0.595391 -0.0205825 -2.54429e-19)
(0.6763 -0.0137347 3.38167e-19)
(0.756915 -0.0128114 -3.41521e-19)
(0.00913712 -0.00520237 -9.99968e-20)
(0.0344698 -0.0159439 3.4206e-19)
(0.0685219 -0.0243028 9.99974e-21)
(0.110043 -0.0309682 -1.4509e-19)
(0.158397 -0.0358594 1.02996e-19)
(0.213019 -0.0388388 1.46454e-19)
(0.273312 -0.0398575 -5.63781e-19)
(0.338683 -0.0389049 3.32043e-19)
(0.408532 -0.0360258 -6.23114e-20)
(0.482247 -0.0313623 1.72241e-19)
(0.559197 -0.0252222 -3.19286e-19)
(0.638862 -0.0179806 -1.10854e-19)
(0.720548 -0.0106189 -2.0329e-19)
(0.800385 -0.0089694 -2.09194e-19)
(0.0113068 -0.00611223 1.85588e-19)
(0.0409144 -0.0181271 -3.56645e-21)
(0.0793242 -0.0271158 -1.4242e-19)
(0.125242 -0.0339236 3.75346e-20)
(0.177989 -0.0385476 1.03479e-19)
(0.236943 -0.0409193 2.11555e-19)
(0.301438 -0.0410652 2.32933e-19)
(0.370791 -0.0390536 -3.81163e-20)
(0.444288 -0.0350138 -9.76859e-20)
(0.521168 -0.0291782 -2.66436e-19)
(0.60061 -0.021939 2.36487e-19)
(0.681824 -0.0137288 -2.37567e-19)
(0.763795 -0.00550949 -4.63812e-20)
(0.842655 -0.00267073 5.30072e-19)
(0.0136727 -0.00696237 -4.58429e-20)
(0.0478744 -0.0201166 -1.34463e-19)
(0.0908875 -0.0295868 -1.9772e-20)
(0.141379 -0.03638 -5.32001e-20)
(0.198625 -0.0405763 -1.13513e-19)
(0.261943 -0.0421811 -2.34026e-19)
(0.330589 -0.0413002 2.82663e-19)
(0.403783 -0.0380829 -1.21433e-19)
(0.480689 -0.0327422 6.10847e-20)
(0.560398 -0.0255928 5.66269e-20)
(0.641908 -0.0170966 2.00069e-20)
(0.724203 -0.00772696 6.32586e-20)
(0.806035 0.00158425 4.04343e-20)
(0.883673 0.00586915 3.60886e-20)
(0.0162331 -0.00773537 -1.2937e-19)
(0.0553398 -0.0218651 -2.43616e-19)
(0.103189 -0.0316439 3.29648e-19)
(0.158414 -0.0382455 -8.88369e-20)
(0.220243 -0.0418384 1.20574e-19)
(0.28793 -0.0425063 1.6161e-19)
(0.360649 -0.0404383 -2.11827e-19)
(0.437516 -0.0358672 2.0703e-19)
(0.517573 -0.0290891 9.29797e-20)
(0.599767 -0.0204974 1.60047e-19)
(0.682933 -0.0106154 -3.39489e-19)
(0.76587 4.71023e-05 3.24774e-19)
(0.847165 0.0105828 -1.72671e-19)
(0.923298 0.0164233 -5.63797e-19)
(0.0189848 -0.00841383 5.59995e-20)
(0.0632963 -0.0233257 -8.4871e-20)
(0.116197 -0.0332165 -4.18537e-20)
(0.176294 -0.0394318 -7.56246e-20)
(0.242767 -0.0422328 1.38931e-20)
(0.314803 -0.0417868 1.57048e-19)
(0.391488 -0.03837 -1.05903e-19)
(0.471836 -0.0323019 1.15062e-19)
(0.554766 -0.0239627 -4.39921e-20)
(0.639091 -0.0138231 2.60173e-19)
(0.723505 -0.00246551 1.1632e-19)
(0.806659 0.00956255 -2.04273e-19)
(0.88703 0.0213679 4.2071e-21)
(0.961346 0.0287641 4.40406e-19)
(0.0219231 -0.00898048 -1.09208e-20)
(0.0717243 -0.0244524 1.01225e-19)
(0.129874 -0.0342368 5.53723e-21)
(0.19496 -0.0398551 -1.9233e-19)
(0.266111 -0.0416662 -1.5873e-19)
(0.342445 -0.0399259 -2.70518e-19)
(0.422963 -0.0350022 8.6807e-20)
(0.506573 -0.0273046 -6.83131e-20)
(0.592078 -0.0172999 -1.19815e-19)
(0.678168 -0.00553658 1.93637e-19)
(0.763421 0.00734368 -1.39229e-19)
(0.846375 0.0207514 3.0961e-20)
(0.925442 0.0337982 4.56755e-20)
(0.997619 0.0426668 -9.45365e-20)
(0.0250414 -0.00941824 -3.06934e-20)
(0.0805995 -0.0252008 -1.67675e-19)
(0.144173 -0.0346401 -2.60585e-19)
(0.214338 -0.0394372 -2.83454e-20)
(0.290174 -0.0400541 7.50214e-21)
(0.370728 -0.0368397 -2.12821e-20)
(0.454916 -0.0302589 1.09298e-19)
(0.541543 -0.020815 -1.80541e-19)
(0.629306 -0.00906435 -7.88855e-20)
(0.716786 0.00436515 -1.27112e-19)
(0.802467 0.0187713 -3.01544e-19)
(0.884811 0.0335192 -1.43379e-19)
(0.962206 0.0477187 8.86281e-20)
(1.03193 0.0579111 4.4028e-20)
(0.0283312 -0.00971039 1.99002e-20)
(0.0898923 -0.0255279 4.04832e-20)
(0.159041 -0.0343655 1.00178e-19)
(0.234347 -0.0381068 3.70861e-19)
(0.314845 -0.0373218 -2.03215e-19)
(0.399511 -0.0324582 -5.63206e-20)
(0.487177 -0.024082 -4.23375e-20)
(0.576553 -0.0127947 6.9065e-20)
(0.666238 0.000755016 1.31341e-19)
(0.754722 0.0158582 4.38271e-20)
(0.840422 0.0317512 1.0034e-19)
(0.921756 0.0477518 1.43791e-19)
(0.997128 0.062966 -6.45105e-20)
(1.0641 0.0742842 1.07223e-19)
(0.0317819 -0.00984062 4.12599e-20)
(0.0995674 -0.0253929 -1.34389e-19)
(0.174414 -0.0333567 5.04658e-21)
(0.254895 -0.0358001 -2.28564e-19)
(0.34 -0.0334058 -4.05649e-20)
(0.42864 -0.0267256 1.3027e-19)
(0.519565 -0.0164312 5.58138e-20)
(0.611399 -0.00322618 -1.02604e-20)
(0.702653 0.0121463 2.60827e-20)
(0.79175 0.0288954 1.27841e-19)
(0.877065 0.0461964 1.10755e-19)
(0.957007 0.063321 -1.87544e-19)
(1.03003 0.0793729 2.47771e-19)
(1.09398 0.0915823 -8.96674e-20)
(0.0353811 -0.00979326 -4.01699e-20)
(0.109584 -0.0247577 1.50286e-19)
(0.19022 -0.0315626 -1.20133e-19)
(0.275879 -0.0324612 1.30023e-19)
(0.365506 -0.0282539 1.87356e-19)
(0.457952 -0.019601 1.52458e-19)
(0.55189 -0.00728423 -1.26722e-19)
(0.645868 0.00788795 1.85166e-19)
(0.738329 0.0250764 -4.10899e-20)
(0.827648 0.0434092 1.74961e-20)
(0.912184 0.0620033 1.57694e-19)
(0.990371 0.0800879 4.82825e-20)
(1.06075 0.0967708 6.15608e-20)
(1.12145 0.109612 7.45217e-20)
(0.0391136 -0.00955344 -2.11942e-20)
(0.119896 -0.0235872 -6.17313e-22)
(0.206382 -0.028938 9.5711e-20)
(0.297186 -0.0280438 -4.055e-20)
(0.391219 -0.0218263 -7.44756e-20)
(0.487272 -0.0110588 -4.56057e-20)
(0.583954 0.00336349 7.42431e-20)
(0.679748 0.0205256 -2.2514e-20)
(0.773045 0.0394926 2.17202e-19)
(0.862196 0.0593143 6.28432e-20)
(0.945575 0.0790543 4.4092e-20)
(1.02167 0.0979069 -1.42718e-19)
(1.08915 0.114993 -2.44263e-22)
(1.14641 0.128192 5.59465e-20)
(0.0429623 -0.00910729 4.67438e-20)
(0.13045 -0.0218498 -7.7046e-20)
(0.222812 -0.0254442 6.01026e-20)
(0.318697 -0.0225108 -3.53843e-20)
(0.416987 -0.0140959 6.36586e-20)
(0.516422 -0.00108909 -1.08612e-19)
(0.615556 0.015499 1.15095e-19)
(0.712824 0.0346463 1.01694e-19)
(0.806584 0.0553244 -2.38243e-19)
(0.895187 0.0765101 3.81077e-20)
(0.977054 0.0972214 1.72965e-19)
(1.05077 0.116628 6.29516e-20)
(1.11511 0.133875 1.49956e-19)
(1.16881 0.147154 1.00537e-19)
(0.0469078 -0.00844222 -3.30872e-20)
(0.14119 -0.0195182 1.29295e-19)
(0.239415 -0.02105 3.41306e-20)
(0.340282 -0.015836 -1.01062e-20)
(0.442649 -0.00504896 -3.55978e-20)
(0.545215 0.0103027 -1.82753e-20)
(0.646493 0.0290923 -1.33547e-19)
(0.744883 0.0501922 -1.36313e-19)
(0.838735 0.0724853 1.53771e-20)
(0.926427 0.0948829 1.3585e-19)
(1.00645 0.116368 -1.72574e-19)
(1.07751 0.136098 -1.83595e-20)
(1.13857 0.153258 -1.8615e-20)
(1.18861 0.16634 -5.91888e-20)
(0.0509282 -0.00754713 -4.76201e-20)
(0.152053 -0.0165698 -7.90073e-20)
(0.256093 -0.015732 -1.33357e-19)
(0.361807 -0.0080038 -1.73953e-20)
(0.468042 0.00531458 1.05723e-19)
(0.573466 0.0230952 9.13653e-21)
(0.676563 0.0440966 4.86914e-20)
(0.775719 0.0670895 9.53058e-20)
(0.8693 0.0908746 -1.21444e-20)
(0.955739 0.114308 -1.23523e-19)
(1.03363 0.136352 2.72204e-20)
(1.10181 0.156165 8.78962e-20)
(1.15945 0.172988 6.23111e-20)
(1.20579 0.185608 -6.56903e-21)
(0.0549998 -0.00641271 -4.863e-20)
(0.162971 -0.0129871 2.49838e-20)
(0.272737 -0.00947538 3.91288e-20)
(0.383132 0.000989469 9.55302e-21)
(0.492998 0.0169808 -4.15537e-20)
(0.600985 0.0372518 8.71646e-21)
(0.705566 0.0604495 -1.29065e-20)
(0.805135 0.0852491 -1.31564e-19)
(0.898096 0.110379 1.08919e-19)
(0.982962 0.134653 5.33004e-20)
(1.05846 0.157026 3.90384e-20)
(1.12359 0.176678 -6.11622e-20)
(1.17772 0.192922 1.27604e-20)
(1.22039 0.204827 -3.2112e-20)
(0.0590966 -0.00503164 3.46572e-20)
(0.173874 -0.00875863 2.14683e-20)
(0.289238 -0.00227467 -1.09243e-19)
(0.404112 0.0111356 5.69255e-20)
(0.517346 0.0299215 2.74765e-20)
(0.627585 0.0527204 -8.56985e-21)
(0.733311 0.0780733 -6.5412e-20)
(0.832944 0.104568 1.30652e-19)
(0.924953 0.130874 -2.80028e-20)
(1.00796 0.155777 4.9343e-21)
(1.08084 0.178243 -7.15123e-20)
(1.14279 0.197489 4.91658e-20)
(1.19339 0.21292 4.89104e-21)
(1.23244 0.223879 -2.01703e-20)
(0.0631911 -0.00339891 -1.46229e-20)
(0.184685 -0.00387915 -4.94328e-20)
(0.305481 0.00586597 6.56792e-20)
(0.424601 0.0224138 -2.52274e-20)
(0.540917 0.0440945 -2.06623e-20)
(0.653085 0.0694341 -3.20745e-20)
(0.759612 0.0968759 3.73093e-20)
(0.858972 0.124932 -5.97402e-20)
(0.94972 0.152226 -1.60205e-20)
(1.03061 0.177534 -2.39194e-20)
(1.10069 0.199853 3.77897e-20)
(1.15937 0.218456 -4.39571e-20)
(1.20646 0.232854 6.33719e-20)
(1.24199 0.242657 -2.4165e-21)
(0.0672542 -0.00151196 -8.60125e-21)
(0.195327 0.00164983 3.68952e-20)
(0.321348 0.0149322 -2.82371e-20)
(0.444452 0.034791 2.67594e-20)
(0.563544 0.0594434 -2.03463e-20)
(0.677308 0.0873119 2.04435e-20)
(0.784297 0.116752 -9.55201e-21)
(0.883059 0.146215 2.02204e-20)
(0.972264 0.174294 -2.57245e-20)
(1.05082 0.199778 1.37934e-20)
(1.11797 0.22171 3.50651e-20)
(1.17334 0.23944 9.51202e-21)
(1.21697 0.252602 -2.07992e-20)
(1.24912 0.261065 -2.41691e-20)
(0.0712556 0.000629049 6.69592e-21)
(0.205721 0.00781967 4.10998e-21)
(0.336723 0.0248994 -9.09046e-21)
(0.463519 0.048221 7.24319e-22)
(0.585063 0.0758981 -1.36711e-21)
(0.700085 0.106259 -1.16271e-20)
(0.807203 0.137585 -4.29341e-21)
(0.905064 0.168281 9.12078e-21)
(0.992474 0.196932 1.70113e-20)
(1.06852 0.222356 -7.22743e-21)
(1.13264 0.243667 -6.92641e-21)
(1.1847 0.260309 -1.57636e-20)
(1.22496 0.272052 -4.44602e-21)
(1.2539 0.279018 1.0232e-20)
(0.0751644 0.00302115 6.52345e-21)
(0.215786 0.0146144 8.00073e-21)
(0.351486 0.0357322 -1.44081e-20)
(0.481659 0.0626455 4.57369e-21)
(0.605318 0.0933753 -5.15164e-21)
(0.721258 0.126168 -1.39274e-20)
(0.828184 0.159246 2.14239e-21)
(0.924863 0.190988 1.00591e-20)
(1.01026 0.219989 6.84294e-21)
(1.08364 0.24512 2.56491e-22)
(1.14469 0.265584 -6.52511e-21)
(1.19349 0.280937 -1.48234e-20)
(1.23052 0.2911 -3.73377e-21)
(1.25644 0.296437 4.43858e-21)
(0.0789491 0.00565844 -4.18371e-21)
(0.225441 0.0220107 2.36188e-20)
(0.365523 0.0473848 -3.06124e-22)
(0.498732 0.0779936 8.8875e-21)
(0.624161 0.111779 -1.29007e-20)
(0.740681 0.14692 3.76745e-20)
(0.847109 0.181599 -2.89849e-20)
(0.942349 0.214186 2.16327e-20)
(1.02554 0.243311 -1.46465e-20)
(1.09617 0.267919 1.72382e-20)
(1.15414 0.287324 2.32023e-20)
(1.19975 0.301206 6.57025e-21)
(1.2337 0.30965 -1.83875e-20)
(1.25684 0.313253 -2.21696e-20)
(0.0825776 0.00853191 1.63004e-20)
(0.234607 0.0299773 -5.01299e-20)
(0.37872 0.0598008 6.93168e-20)
(0.514607 0.0941826 -5.24444e-20)
(0.641451 0.131002 -1.55182e-21)
(0.758222 0.168387 -3.99413e-20)
(0.863861 0.204498 4.42984e-20)
(0.957434 0.237722 -5.44112e-20)
(1.03827 0.266744 9.22622e-22)
(1.10608 0.290607 -3.3978e-20)
(1.16099 0.308753 1.68405e-20)
(1.20354 0.321003 -1.4132e-20)
(1.23461 0.327612 2.33343e-20)
(1.25519 0.329403 1.92355e-20)
(0.0860183 0.0116295 2.07469e-20)
(0.243204 0.0384757 -3.47666e-20)
(0.390969 0.0729137 -1.30863e-20)
(0.529159 0.111119 2.28172e-20)
(0.657061 0.150925 5.79491e-20)
(0.77376 0.190428 -5.05754e-20)
(0.878344 0.22779 -2.54012e-20)
(0.970052 0.261437 5.97461e-20)
(1.04842 0.290133 -3.06052e-20)
(1.11339 0.31304 -7.77143e-21)
(1.1653 0.329744 -7.86434e-21)
(1.20493 0.340223 2.58081e-20)
(1.23333 0.344905 1.13822e-20)
(1.2516 0.34483 -1.93633e-20)
(0.0892406 0.0149359 3.31725e-20)
(0.251159 0.0474599 2.25423e-20)
(0.402166 0.0866472 2.41939e-20)
(0.542271 0.128698 -1.76557e-20)
(0.670875 0.17142 -2.13929e-20)
(0.787196 0.212898 3.25441e-20)
(0.890478 0.25132 -4.33188e-20)
(0.980153 0.285173 -8.61775e-20)
(1.05597 0.313326 7.83328e-20)
(1.1181 0.335078 4.17457e-20)
(1.16713 0.350178 4.79211e-20)
(1.20401 0.358766 -8.30628e-20)
(1.22997 0.361453 3.44945e-20)
(1.2462 0.359481 -6.91263e-21)
(0.0922147 0.0184331 -3.30584e-20)
(0.258401 0.0568769 -2.02959e-20)
(0.412217 0.100916 -7.15376e-20)
(0.553838 0.146806 -7.5705e-20)
(0.682793 0.192349 5.72797e-20)
(0.798441 0.235644 9.87839e-21)
(0.900202 0.274926 7.97685e-20)
(0.987708 0.308771 1.09473e-19)
(1.06093 0.336172 -6.99322e-20)
(1.12027 0.356586 -4.96281e-20)
(1.16653 0.369938 1.41927e-20)
(1.20086 0.37654 4.37219e-20)
(1.22463 0.377184 6.33714e-21)
(1.23908 0.373309 2.01235e-20)
(0.0949124 0.0220999 -2.75695e-20)
(0.264862 0.0666668 6.55897e-20)
(0.421035 0.115627 4.10562e-20)
(0.563768 0.16532 9.62259e-20)
(0.692728 0.21357 -9.47774e-20)
(0.807429 0.258509 9.74906e-21)
(0.907475 0.298447 -9.89419e-20)
(0.992706 0.332071 -1.35247e-19)
(1.06332 0.358523 6.71526e-20)
(1.11994 0.377434 1.66266e-20)
(1.16358 0.388916 -7.40344e-20)
(1.19558 0.393458 2.61309e-20)
(1.21741 0.392033 -7.70684e-20)
(1.23035 0.386268 2.18787e-20)
(0.0973074 0.0259125 -6.34998e-21)
(0.270483 0.076764 -5.56746e-20)
(0.428541 0.130678 1.31405e-19)
(0.571981 0.184111 -3.89593e-20)
(0.70061 0.234932 2.74498e-20)
(0.814109 0.281332 -1.02062e-19)
(0.912272 0.32172 1.47632e-19)
(0.995153 0.354918 2.8874e-20)
(1.06318 0.380237 -9.454e-20)
(1.11718 0.397498 -7.51297e-21)
(1.15838 0.40701 5.43746e-20)
(1.18827 0.40944 4.40143e-20)
(1.20842 0.405939 -7.20582e-20)
(1.22012 0.398318 5.69519e-21)
(0.0993757 0.0298445 3.20333e-20)
(0.275209 0.0870969 5.2925e-20)
(0.43467 0.145961 -3.4413e-20)
(0.57841 0.203044 5.73893e-20)
(0.706385 0.256282 -1.19729e-19)
(0.818449 0.30395 1.61817e-22)
(0.914589 0.344582 3.92513e-20)
(0.995075 0.377159 1.90105e-20)
(1.06055 0.401177 1.7347e-19)
(1.11206 0.416662 -5.23819e-20)
(1.15101 0.424123 -1.19479e-19)
(1.17903 0.42441 -2.15226e-20)
(1.19776 0.418842 3.04806e-20)
(1.2085 0.409417 -4.06479e-21)
(0.101096 0.0338672 3.61752e-20)
(0.278994 0.0975893 3.36342e-20)
(0.439364 0.161364 -3.39024e-20)
(0.583003 0.221978 9.15239e-21)
(0.710017 0.277462 1.06889e-19)
(0.820434 0.3262 1.30916e-19)
(0.914439 0.366874 -5.79818e-20)
(0.992511 0.398646 7.07573e-20)
(1.05551 0.421213 -1.06791e-19)
(1.10467 0.434814 -2.27467e-21)
(1.14157 0.440166 6.2202e-20)
(1.16796 0.438296 -5.28778e-21)
(1.18555 0.430688 5.06078e-20)
(1.19555 0.41953 2.83531e-20)
(0.102449 0.0379499 -7.848e-21)
(0.281798 0.108161 -8.21058e-20)
(0.442581 0.176768 3.20395e-20)
(0.585724 0.24077 -1.54989e-19)
(0.711486 0.298314 -4.93496e-20)
(0.820068 0.347919 -1.50305e-20)
(0.911851 0.38844 1.08135e-19)
(0.987517 0.419235 -1.44704e-19)
(1.04812 0.440219 4.12594e-20)
(1.0951 0.451851 3.36389e-20)
(1.13016 0.455056 2.72536e-20)
(1.15517 0.451039 7.68254e-21)
(1.17186 0.441434 7.75589e-21)
(1.18134 0.428614 -1.40542e-20)
(0.10342 0.0420602 -5.0722e-20)
(0.283593 0.118728 5.08306e-20)
(0.444288 0.192053 1.09697e-19)
(0.586553 0.259274 1.44573e-19)
(0.71079 0.31868 -1.35441e-19)
(0.817374 0.368949 -4.82581e-21)
(0.906874 0.409127 -1.44359e-19)
(0.980165 0.43879 6.30347e-20)
(1.03849 0.458079 6.79359e-20)
(1.08346 0.467677 -2.49774e-20)
(1.1169 0.468719 4.27439e-20)
(1.14077 0.462582 2.45941e-20)
(1.15682 0.451065 -6.14955e-22)
(1.16605 0.436591 -5.69108e-21)
(0.103997 0.0461643 3.42012e-20)
(0.284356 0.129205 -8.75801e-20)
(0.444469 0.207096 -2.00844e-19)
(0.585483 0.277343 -4.55191e-20)
(0.707944 0.338403 2.00425e-19)
(0.81239 0.389133 -3.79174e-20)
(0.899569 0.428791 6.99225e-21)
(0.970538 0.457182 9.09462e-21)
(1.02671 0.474682 -4.0809e-20)
(1.06984 0.482204 -7.37371e-20)
(1.10188 0.481082 -2.96922e-20)
(1.12486 0.472865 -3.77088e-20)
(1.14052 0.459509 -6.918e-21)
(1.1498 0.443503 -1.286e-20)
(0.104172 0.0502274 -2.53828e-20)