/*--------------------------------*- C++ -*----------------------------------*\
  =========                 |
  \\      /  F ield         | OpenFOAM: The Open Source CFD Toolbox
   \\    /   O peration     | Website:  https://openfoam.org
    \\  /    A nd           | Version:  7
     \\/     M anipulation  |
\*---------------------------------------------------------------------------*/
FoamFile
{
    version     2.0;
    format      ascii;
    class       volScalarField;
    location    "80";
    object      p;
}
// * * * * * * * * * * * * * * * * * * * * * * * * * * * * * * * * * * * * * //

dimensions      [0 2 -2 0 0 0 0];

internalField   nonuniform List<scalar> 
8500
(
-0.48099
-0.484172
-0.481989
-0.487528
-0.485172
-0.482834
-0.491066
-0.488519
-0.486019
-0.494794
-0.492035
-0.489364
-0.486322
-0.498716
-0.495727
-0.492876
-0.489648
-0.486169
-0.502836
-0.499598
-0.496557
-0.493138
-0.489463
-0.485676
-0.507155
-0.503649
-0.500411
-0.496795
-0.492918
-0.488921
-0.484861
-0.511673
-0.507884
-0.50444
-0.50062
-0.496536
-0.492321
-0.48802
-0.483627
-0.516389
-0.512299
-0.508642
-0.504613
-0.500315
-0.495876
-0.49132
-0.486624
-0.481706
-0.521298
-0.516894
-0.513017
-0.508773
-0.504256
-0.499581
-0.494756
-0.489737
-0.484418
-0.478647
-0.526396
-0.521665
-0.517562
-0.513098
-0.508354
-0.503434
-0.498323
-0.492954
-0.487202
-0.4809
-0.473867
-0.531676
-0.526606
-0.522273
-0.517584
-0.512606
-0.507427
-0.50201
-0.496263
-0.490042
-0.483169
-0.475466
-0.46679
-0.457061
-0.537129
-0.531712
-0.527143
-0.522225
-0.517004
-0.511553
-0.505807
-0.499651
-0.49292
-0.485432
-0.477019
-0.467562
-0.457024
-0.44545
-0.542745
-0.536972
-0.532166
-0.527014
-0.521541
-0.515801
-0.509701
-0.5031
-0.495818
-0.487671
-0.478505
-0.468239
-0.456875
-0.444506
-0.431292
-0.548512
-0.542377
-0.537331
-0.531941
-0.526206
-0.520159
-0.513676
-0.506592
-0.498715
-0.489862
-0.479906
-0.468801
-0.456599
-0.443438
-0.429513
-0.415045
-0.400232
-0.554415
-0.547915
-0.542628
-0.536995
-0.530987
-0.524612
-0.517715
-0.510106
-0.501587
-0.491984
-0.481199
-0.469232
-0.456184
-0.442237
-0.427618
-0.412564
-0.397278
-0.381983
-0.560438
-0.55357
-0.548042
-0.542162
-0.535868
-0.529141
-0.521795
-0.513619
-0.504409
-0.494012
-0.482364
-0.469516
-0.455618
-0.440894
-0.4256
-0.409981
-0.394243
-0.378592
-0.362951
-0.34822
-0.566562
-0.559327
-0.553558
-0.547425
-0.540832
-0.533727
-0.525894
-0.517105
-0.507156
-0.495921
-0.48338
-0.469635
-0.454888
-0.439401
-0.42345
-0.40729
-0.391122
-0.375131
-0.359256
-0.344306
-0.572766
-0.565166
-0.559157
-0.552767
-0.545858
-0.538347
-0.529987
-0.520536
-0.509801
-0.497687
-0.484226
-0.469573
-0.453982
-0.437746
-0.421161
-0.404482
-0.387904
-0.371591
-0.355493
-0.340333
-0.579027
-0.571066
-0.564819
-0.558165
-0.550923
-0.542975
-0.534045
-0.523883
-0.512315
-0.499285
-0.48488
-0.469315
-0.452887
-0.435922
-0.418725
-0.40155
-0.384581
-0.367962
-0.351651
-0.336289
-0.585319
-0.577003
-0.570521
-0.563596
-0.556
-0.547582
-0.538038
-0.527117
-0.514669
-0.500689
-0.485323
-0.468844
-0.451592
-0.433918
-0.416133
-0.398483
-0.381143
-0.364233
-0.347721
-0.332165
-0.591614
-0.582951
-0.576236
-0.569033
-0.561062
-0.552137
-0.541933
-0.530203
-0.516834
-0.501874
-0.485535
-0.468145
-0.450085
-0.431724
-0.413375
-0.395274
-0.377581
-0.360396
-0.343692
-0.32795
-0.597881
-0.588882
-0.581936
-0.574446
-0.566077
-0.556607
-0.545696
-0.53311
-0.518779
-0.502816
-0.485496
-0.467204
-0.448354
-0.42933
-0.410441
-0.391912
-0.373884
-0.356439
-0.339554
-0.323635
-0.604088
-0.594764
-0.58759
-0.579803
-0.57101
-0.560957
-0.549291
-0.535803
-0.520476
-0.503489
-0.485187
-0.466005
-0.446388
-0.426726
-0.407323
-0.388387
-0.370044
-0.352353
-0.335298
-0.31921
-0.6102
-0.600564
-0.593166
-0.58507
-0.575826
-0.565149
-0.552682
-0.538249
-0.521894
-0.50387
-0.484589
-0.464534
-0.444173
-0.423901
-0.404009
-0.384689
-0.366048
-0.348128
-0.330915
-0.314666
-0.616178
-0.606247
-0.598626
-0.59021
-0.580486
-0.569143
-0.55583
-0.540413
-0.523004
-0.503935
-0.483684
-0.462777
-0.4417
-0.420845
-0.40049
-0.380808
-0.361889
-0.343754
-0.326393
-0.309995
-0.621984
-0.611774
-0.603934
-0.595184
-0.58495
-0.572901
-0.558698
-0.542261
-0.523779
-0.503663
-0.482456
-0.46072
-0.438955
-0.417546
-0.396755
-0.376734
-0.357554
-0.339221
-0.321726
-0.305188
-0.627576
-0.617107
-0.609049
-0.59995
-0.589176
-0.57638
-0.561247
-0.543759
-0.524189
-0.503031
-0.480886
-0.45835
-0.435928
-0.413996
-0.392795
-0.372457
-0.353036
-0.33452
-0.316903
-0.300236
-0.632913
-0.622204
-0.61393
-0.604467
-0.593122
-0.579539
-0.563438
-0.544874
-0.52421
-0.502019
-0.478959
-0.455653
-0.432607
-0.410181
-0.388598
-0.367967
-0.348323
-0.329642
-0.311915
-0.295133
-0.637949
-0.627023
-0.618534
-0.60869
-0.596742
-0.582335
-0.565233
-0.545574
-0.523814
-0.500606
-0.476659
-0.452617
-0.42898
-0.406093
-0.384154
-0.363253
-0.343407
-0.324578
-0.306756
-0.28987
-0.642641
-0.631519
-0.622816
-0.612574
-0.599994
-0.584727
-0.566596
-0.545828
-0.522977
-0.498773
-0.473972
-0.449228
-0.425037
-0.40172
-0.379454
-0.358307
-0.338278
-0.319319
-0.301417
-0.28444
-0.646941
-0.635647
-0.626731
-0.616074
-0.602831
-0.586673
-0.567489
-0.545606
-0.521676
-0.496504
-0.470882
-0.445476
-0.420766
-0.397053
-0.374488
-0.353119
-0.332929
-0.313858
-0.295891
-0.278837
-0.650805
-0.639362
-0.630233
-0.619144
-0.60521
-0.588132
-0.567878
-0.54488
-0.519889
-0.493779
-0.467377
-0.441348
-0.416158
-0.392081
-0.369246
-0.34768
-0.32735
-0.308187
-0.29017
-0.273056
-0.654186
-0.642619
-0.633276
-0.621738
-0.607088
-0.589065
-0.567729
-0.543624
-0.517596
-0.490585
-0.463443
-0.436834
-0.411202
-0.386795
-0.363719
-0.341982
-0.321534
-0.302299
-0.284248
-0.267089
-0.657036
-0.64537
-0.635814
-0.62381
-0.608419
-0.589434
-0.567011
-0.541811
-0.514777
-0.486905
-0.459069
-0.431923
-0.405888
-0.381187
-0.3579
-0.336017
-0.315473
-0.296187
-0.278119
-0.260932
-0.65931
-0.647571
-0.6378
-0.625316
-0.609164
-0.589201
-0.565694
-0.539419
-0.511414
-0.482726
-0.454243
-0.426605
-0.400208
-0.375247
-0.35178
-0.329777
-0.309161
-0.289845
-0.271779
-0.254581
-0.660964
-0.649176
-0.639191
-0.626211
-0.609282
-0.588333
-0.563749
-0.536427
-0.507491
-0.478036
-0.448955
-0.420871
-0.394152
-0.368968
-0.345351
-0.323256
-0.302592
-0.283268
-0.26522
-0.24803
-0.661952
-0.650142
-0.639942
-0.626455
-0.608735
-0.586797
-0.561152
-0.532814
-0.502994
-0.472823
-0.443195
-0.414712
-0.387714
-0.362342
-0.338607
-0.316447
-0.29576
-0.27645
-0.258441
-0.241277
-0.662234
-0.650427
-0.640011
-0.626006
-0.607486
-0.584563
-0.557878
-0.528564
-0.49791
-0.467078
-0.436955
-0.408122
-0.380887
-0.355363
-0.331542
-0.309345
-0.28866
-0.269387
-0.251435
-0.234317
-0.661768
-0.649988
-0.639358
-0.624826
-0.605502
-0.581603
-0.553907
-0.523662
-0.492227
-0.46079
-0.430228
-0.401093
-0.373663
-0.348025
-0.32415
-0.301945
-0.281287
-0.262075
-0.244201
-0.227149
-0.660515
-0.648787
-0.637944
-0.62288
-0.602752
-0.577894
-0.54922
-0.518093
-0.485936
-0.453953
-0.423007
-0.39362
-0.366038
-0.340324
-0.316427
-0.294244
-0.273639
-0.254511
-0.236736
-0.21977
-0.658439
-0.646788
-0.635732
-0.620135
-0.599208
-0.573412
-0.543801
-0.511847
-0.479029
-0.446561
-0.415287
-0.385697
-0.358007
-0.332254
-0.308369
-0.286236
-0.265712
-0.246693
-0.229038
-0.212183
-0.655506
-0.643956
-0.632691
-0.616559
-0.594845
-0.568138
-0.537636
-0.504913
-0.471498
-0.438608
-0.407064
-0.377321
-0.349567
-0.323813
-0.299974
-0.277921
-0.257503
-0.238618
-0.221106
-0.204385
-0.651686
-0.640259
-0.628788
-0.612126
-0.589639
-0.562057
-0.530715
-0.497286
-0.46334
-0.430092
-0.398334
-0.36849
-0.340715
-0.314998
-0.291239
-0.269296
-0.249011
-0.230284
-0.212936
-0.196359
-0.64695
-0.635669
-0.623997
-0.606812
-0.583574
-0.555154
-0.523029
-0.488961
-0.454552
-0.42101
-0.389096
-0.359201
-0.33145
-0.305809
-0.282163
-0.26036
-0.240237
-0.221694
-0.204524
-0.188072
-0.641273
-0.630159
-0.618294
-0.600596
-0.576632
-0.54742
-0.514573
-0.479933
-0.445132
-0.411361
-0.379351
-0.349455
-0.321771
-0.296244
-0.272746
-0.251115
-0.23118
-0.212847
-0.19587
-0.179534
-0.634633
-0.623709
-0.611657
-0.59346
-0.568801
-0.538847
-0.505342
-0.470203
-0.43508
-0.401146
-0.369097
-0.339252
-0.31168
-0.286306
-0.262989
-0.24156
-0.221843
-0.203744
-0.186983
-0.170884
-0.627013
-0.616299
-0.604069
-0.585391
-0.560073
-0.529431
-0.495336
-0.459772
-0.4244
-0.390369
-0.358339
-0.328594
-0.301177
-0.275995
-0.252894
-0.231698
-0.212228
-0.194389
-0.177863
-0.162034
-0.618398
-0.607914
-0.595517
-0.576379
-0.550441
-0.519171
-0.484557
-0.448643
-0.413094
-0.379031
-0.347078
-0.317484
-0.290266
-0.265314
-0.242464
-0.221532
-0.202336
-0.184783
-0.168518
-0.152971
-0.608777
-0.598542
-0.585991
-0.566418
-0.539904
-0.508067
-0.473008
-0.436821
-0.401168
-0.36714
-0.33532
-0.305927
-0.278951
-0.254267
-0.231702
-0.211065
-0.192172
-0.17493
-0.15895
-0.143699
-0.598143
-0.588175
-0.575484
-0.555504
-0.528463
-0.496125
-0.460697
-0.424315
-0.38863
-0.354701
-0.323072
-0.293928
-0.267237
-0.24286
-0.220614
-0.200302
-0.18174
-0.164834
-0.149162
-0.134224
-0.586493
-0.57681
-0.563993
-0.543637
-0.516121
-0.483351
-0.447632
-0.411132
-0.375488
-0.341722
-0.31034
-0.281494
-0.255131
-0.231098
-0.209204
-0.189248
-0.171044
-0.154501
-0.139157
-0.124552
-0.573826
-0.564445
-0.551521
-0.530824
-0.502887
-0.469756
-0.433824
-0.397284
-0.361753
-0.328214
-0.297134
-0.268633
-0.24264
-0.218988
-0.19748
-0.17791
-0.160091
-0.143934
-0.128941
-0.114688
-0.560146
-0.551084
-0.538072
-0.51707
-0.488771
-0.455352
-0.419286
-0.382784
-0.347438
-0.314188
-0.283463
-0.255355
-0.229773
-0.206539
-0.185449
-0.166294
-0.148888
-0.133142
-0.118519
-0.104638
-0.545461
-0.536734
-0.523653
-0.502387
-0.473786
-0.440154
-0.404035
-0.367648
-0.332555
-0.299655
-0.269339
-0.241671
-0.21654
-0.193759
-0.17312
-0.154409
-0.137442
-0.122131
-0.107897
-0.0944105
-0.529783
-0.521405
-0.508278
-0.486789
-0.457949
-0.424179
-0.388087
-0.351891
-0.31712
-0.284631
-0.254775
-0.227591
-0.202951
-0.180659
-0.160503
-0.142265
-0.125763
-0.110908
-0.097085
-0.0840114
-0.513126
-0.505113
-0.491962
-0.470295
-0.44128
-0.407449
-0.371463
-0.335533
-0.301151
-0.26913
-0.239785
-0.213129
-0.189019
-0.167251
-0.147608
-0.12987
-0.113858
-0.0994833
-0.0860897
-0.0734489
-0.495509
-0.487873
-0.474724
-0.452924
-0.4238
-0.389985
-0.354184
-0.318593
-0.284665
-0.253169
-0.224384
-0.198299
-0.174756
-0.153546
-0.134446
-0.117236
-0.101739
-0.0878658
-0.0749206
-0.0627317
-0.476952
-0.469709
-0.456585
-0.4347
-0.405534
-0.371813
-0.336272
-0.301091
-0.267682
-0.236766
-0.208589
-0.183115
-0.160177
-0.139557
-0.121031
-0.104375
-0.0894158
-0.0760659
-0.0635876
-0.0518689
-0.457482
-0.450642
-0.437571
-0.41565
-0.386509
-0.352959
-0.31775
-0.283053
-0.250224
-0.219941
-0.192416
-0.167596
-0.145298
-0.125299
-0.107374
-0.091298
-0.0769012
-0.0640948
-0.0521012
-0.0408709
-0.437126
-0.430702
-0.417711
-0.395804
-0.366757
-0.333444
-0.298651
-0.264503
-0.232312
-0.202713
-0.175886
-0.151756
-0.130133
-0.110787
-0.0934911
-0.0780197
-0.0642076
-0.0519642
-0.040473
-0.0297485
-0.415915
-0.409918
-0.397034
-0.375195
-0.346311
-0.313301
-0.278999
-0.245465
-0.21397
-0.185104
-0.159017
-0.135615
-0.114699
-0.0960362
-0.0793961
-0.0645536
-0.0513481
-0.0396868
-0.0287151
-0.0185141
-0.393881
-0.388324
-0.375576
-0.353855
-0.325185
-0.292577
-0.258825
-0.225969
-0.195223
-0.167137
-0.14183
-0.119192
-0.0990151
-0.0810631
-0.0651045
-0.0509144
-0.0383369
-0.027276
-0.0168408
-0.00718126
-0.371061
-0.365956
-0.353373
-0.331816
-0.303434
-0.271292
-0.238161
-0.206042
-0.176098
-0.148835
-0.124347
-0.102507
-0.0830988
-0.0658849
-0.0506325
-0.0371174
-0.0251888
-0.0147457
-0.00486402
-0.347492
-0.342854
-0.330467
-0.30911
-0.281095
-0.249484
-0.217038
-0.185713
-0.15662
-0.130224
-0.106591
-0.0855798
-0.0669693
-0.0505193
-0.0359966
-0.0231783
-0.0119188
-0.00211038
-0.323215
-0.319057
-0.306881
-0.285801
-0.258205
-0.227188
-0.19549
-0.165015
-0.136819
-0.111328
-0.0885839
-0.0684325
-0.0506464
-0.0349846
-0.0212137
-0.00911312
0.00145728
-0.298266
-0.294615
-0.282673
-0.261918
-0.234802
-0.204444
-0.173553
-0.143978
-0.116723
-0.0921748
-0.0703511
-0.0510871
-0.0341505
-0.0192993
-0.00630105
0.00506196
-0.272684
-0.269582
-0.257892
-0.237505
-0.210929
-0.181291
-0.151262
-0.122635
-0.0963612
-0.0727904
-0.0519172
-0.0335664
-0.0175023
-0.00348267
0.00872405
0.0193308
-0.246548
-0.243985
-0.232583
-0.212608
-0.186629
-0.157768
-0.128654
-0.10102
-0.0757654
-0.0532032
-0.0333076
-0.0158938
-0.000723201
0.0124461
0.0238442
-0.219935
-0.217847
-0.206791
-0.187274
-0.161946
-0.133916
-0.105767
-0.0791672
-0.0549664
-0.0334419
-0.0145486
0.00190668
0.0161649
0.0284672
-0.192856
-0.191245
-0.180566
-0.16155
-0.136925
-0.109779
-0.0826381
-0.0571118
-0.0339962
-0.0135358
0.00433282
0.0198105
0.0331396
0.0445608
-0.165354
-0.164239
-0.153956
-0.135486
-0.111613
-0.0853971
-0.0593078
-0.0348893
-0.0128875
0.0064853
0.0233094
0.0377925
0.0501781
-0.137489
-0.136879
-0.127016
-0.10913
-0.0860559
-0.0608151
-0.0358153
-0.012536
0.0083265
0.0265909
0.0423532
0.055827
0.0672568
-0.109317
-0.10922
-0.0997973
-0.0825345
-0.0603016
-0.0360764
-0.0122007
0.00991141
0.0296123
0.0467503
0.0614358
0.0738878
-0.0808926
-0.0813141
-0.072353
-0.0557491
-0.0343977
-0.0112251
0.0114956
0.0324158
0.0509359
0.066932
0.0805283
-0.0522733
-0.0532167
-0.0447377
-0.0288261
-0.00839254
0.0136942
0.0352325
0.0549399
0.0722629
0.0871046
0.0996015
-0.0235164
-0.024984
-0.0170062
-0.00181743
0.0176653
0.0386367
0.0589693
0.0774461
0.0935589
0.107236
0.00532056
0.00332766
0.0107868
0.0252247
0.0437271
0.0635576
0.0826647
0.0998966
0.114789
0.127295
0.0341798
0.0316617
0.0385861
0.0522481
0.0697443
0.0884122
0.106278
0.122254
0.135919
0.147249
0.0630036
0.0599614
0.0663366
0.0792005
0.0956683
0.113156
0.129767
0.14448
0.156915
0.0917342
0.08817
0.0939834
0.10603
0.121451
0.137743
0.153092
0.166539
0.177741
0.120314
0.116231
0.121472
0.132685
0.147043
0.162131
0.176213
0.188391
0.148686
0.144088
0.148747
0.159113
0.172399
0.186275
0.199088
0.210001
0.176793
0.171685
0.175756
0.185265
0.19747
0.210132
0.221679
0.204579
0.198967
0.202445
0.21109
0.22221
0.23366
0.243946
0.231989
0.225879
0.228761
0.236538
0.246573
0.256815
0.265849
0.258967
0.252368
0.254653
0.261561
0.270515
0.279557
0.285461
0.278381
0.28007
0.286112
0.293991
0.301845
0.311417
0.303866
0.304963
0.310143
0.316957
0.323639
0.336785
0.328773
0.329282
0.333609
0.339372
0.361513
0.353052
0.352981
0.356465
0.361195
0.385552
0.376655
0.376013
0.378669
0.382385
0.408857
0.399536
0.398334
0.400179
0.402905
0.431379
0.42165
0.4199
0.420954
0.453077
0.442953
0.440671
0.440955
0.473906
0.463403
0.460607
0.460146
0.493826
0.482962
0.479668
0.47849
0.512799
0.501591
0.49782
0.495954
0.530788
0.519253
0.515027
0.547757
0.535915
0.531257
0.563674
0.551544
0.54648
0.57851
0.566111
0.560665
0.592234
0.579588
0.573789
0.604821
0.59195
0.585824
0.616248
0.603172
0.596751
0.626493
0.613234
0.606548
0.635537
0.622118
0.615198
0.643363
0.629807
0.649957
0.636287
0.655307
0.641547
0.659404
0.645577
0.662241
0.648371
0.663815
0.649925
0.664123
0.650237
0.663166
0.649309
0.660947
0.647143
0.657474
0.643745
0.652753
0.639123
0.646796
0.633289
0.639616
0.626255
0.619343
0.631229
0.618037
0.611359
0.621654
0.608652
0.602239
0.610911
0.598122
0.592004
0.599023
0.586468
0.580674
0.586016
0.573716
0.568274
0.571917
0.559892
0.554828
0.556756
0.545027
0.540367
0.540566
0.529151
0.524918
0.52338
0.512298
0.508515
0.506611
0.505235
0.494503
0.491192
0.489965
0.486169
0.475805
0.472983
0.472463
0.466222
0.456242
0.453928
0.454139
0.445436
0.435855
0.434065
0.43503
0.423855
0.414689
0.413435
0.415176
0.417806
0.401525
0.392787
0.392082
0.394616
0.398217
0.378492
0.370195
0.370049
0.373392
0.377984
0.354806
0.346961
0.347383
0.351546
0.357148
0.362547
0.330516
0.323135
0.32413
0.329123
0.33575
0.342277
0.305673
0.298767
0.300339
0.306168
0.313831
0.321502
0.28033
0.273908
0.27606
0.282728
0.291435
0.300264
0.254541
0.24861
0.251342
0.258851
0.268606
0.278601
0.287436
0.22836
0.222929
0.226238
0.234584
0.245389
0.256557
0.26661
0.201842
0.196918
0.200801
0.209978
0.221829
0.234172
0.245451
0.175045
0.170632
0.175083
0.185083
0.197974
0.21149
0.223997
0.234651
0.148024
0.144127
0.149138
0.159949
0.17387
0.188553
0.202288
0.214171
0.120837
0.11746
0.123022
0.134627
0.149565
0.165407
0.180365
0.193476
0.204384
0.0935415
0.0906873
0.0967876
0.109171
0.125108
0.142095
0.158269
0.172604
0.184705
0.0661959
0.063866
0.0704915
0.0836315
0.100546
0.118662
0.13604
0.151593
0.164883
0.175871
0.0388578
0.0370529
0.0441886
0.0580614
0.0759295
0.0951529
0.11372
0.13048
0.144953
0.157076
0.0115851
0.0103051
0.0179343
0.032513
0.0513063
0.0716128
0.0913497
0.109303
0.124949
0.138201
-0.0155642
-0.016321
-0.0082164
0.00703892
0.0267255
0.0480866
0.0689707
0.0881
0.104907
0.119278
0.131335
-0.0425329
-0.0427692
-0.0342085
-0.0183087
0.00223595
0.0246195
0.0466242
0.0669092
0.0848608
0.100338
0.113449
0.124409
-0.0692636
-0.0689838
-0.0599875
-0.0434778
-0.0221137
0.00125615
0.0243514
0.0457679
0.0648451
0.0814132
0.0955673
0.107515
-0.095699
-0.0949097
-0.085499
-0.0684165
-0.0462751
-0.0219587
0.00219301
0.0247136
0.0448943
0.0625355
0.0777172
0.0906411
0.101544
-0.121785
-0.120495
-0.110691
-0.0930746
-0.0702008
-0.044981
-0.0198105
0.00378314
0.0250422
0.043736
0.0599278
0.0738129
0.0856262
-0.147461
-0.145688
-0.13551
-0.117402
-0.0938435
-0.0677672
-0.041619
-0.0169867
0.00532246
0.0250453
0.0422275
0.0570569
0.0697666
0.0805904
-0.172679
-0.170432
-0.159907
-0.141349
-0.117157
-0.0902743
-0.0631932
-0.0375601
-0.0142321
0.0064936
0.024644
0.0403986
0.0539881
0.0656466
-0.197429
-0.194647
-0.18383
-0.164867
-0.140095
-0.11246
-0.0844942
-0.0579014
-0.033589
-0.0118894
0.00720452
0.0238628
0.0383134
0.0507904
0.0615179
-0.221643
-0.218304
-0.207234
-0.18791
-0.162613
-0.134282
-0.105484
-0.0779759
-0.0527167
-0.0300747
-0.0100644
0.00747382
0.0227646
0.0360417
0.0475301
0.0574373
-0.245234
-0.241381
-0.230076
-0.210431
-0.184668
-0.155702
-0.126125
-0.0977497
-0.071584
-0.0480339
-0.0271369
-0.00874451
0.00736338
0.0214199
0.0336504
0.0442665
0.0534036
-0.268163
-0.263824
-0.252306
-0.232385
-0.206218
-0.176678
-0.146382
-0.11719
-0.0901608
-0.0657396
-0.0439876
-0.0247692
-0.00786918
0.00694412
0.0198961
0.031201
0.0409995
-0.290394
-0.285582
-0.273863
-0.253745
-0.227223
-0.197172
-0.166218
-0.136264
-0.108418
-0.083165
-0.0605923
-0.0405777
-0.0229126
-0.00736685
0.00628428
0.0182567
0.028696
0.0377051
-0.311885
-0.306615
-0.294725
-0.274446
-0.247644
-0.217148
-0.185601
-0.15494
-0.126327
-0.100284
-0.076927
-0.0561485
-0.0377468
-0.0214946
-0.0071681
0.00544948
0.0165086
0.0261055
0.0350862
-0.3326
-0.326883
-0.314851
-0.294454
-0.267447
-0.236567
-0.204496
-0.17319
-0.14386
-0.117072
-0.0929691
-0.0714604
-0.0523525
-0.0354214
-0.0204444
-0.00720482
0.00445249
0.0146193
0.0241096
0.0328619
-0.352502
-0.34635
-0.334204
-0.313738
-0.286575
-0.25541
-0.222874
-0.190983
-0.160991
-0.133505
-0.108696
-0.0864933
-0.0667111
-0.0491298
-0.0335285
-0.0196908
-0.00745743
0.00326058
0.0132426
0.022491
-0.371558
-0.364981
-0.352748
-0.332265
-0.305014
-0.273628
-0.240701
-0.208292
-0.177695
-0.149559
-0.124088
-0.101228
-0.0808047
-0.0626031
-0.0464047
-0.0319937
-0.0192068
-0.00795706
0.00249883
0.0122242
-0.389737
-0.382747
-0.370453
-0.350002
-0.322731
-0.291189
-0.257953
-0.225091
-0.193948
-0.165213
-0.139124
-0.115646
-0.094616
-0.0758255
-0.059058
-0.0440992
-0.030782
-0.0190206
-0.0081091
0.00207473
-0.40701
-0.39962
-0.38729
-0.366918
-0.339694
-0.308072
-0.274599
-0.241355
-0.209726
-0.180447
-0.153785
-0.129729
-0.108129
-0.0887816
-0.0714741
-0.0559936
-0.04217
-0.029918
-0.0185693
-0.00794576
-0.423353
-0.415576
-0.403235
-0.382988
-0.355875
-0.32425
-0.290614
-0.257061
-0.22501
-0.19524
-0.168053
-0.143461
-0.121328
-0.101457
-0.0836395
-0.0676643
-0.0533587
-0.0406375
-0.0288707
-0.0178265
-0.438744
-0.430594
-0.418264
-0.398188
-0.37125
-0.339697
-0.305976
-0.272185
-0.239778
-0.209574
-0.181912
-0.156827
-0.134199
-0.113838
-0.0955414
-0.0790991
-0.0643366
-0.0511686
-0.0390032
-0.0275578
-0.453166
-0.444656
-0.432361
-0.412497
-0.385796
-0.354391
-0.320664
-0.286709
-0.254012
-0.223433
-0.195345
-0.169812
-0.146728
-0.125913
-0.107168
-0.0902869
-0.0750933
-0.0615013
-0.0489571
-0.0371307
-0.466602
-0.457748
-0.445508
-0.425897
-0.399495
-0.368311
-0.334656
-0.300613
-0.267695
-0.2368
-0.20834
-0.182403
-0.158903
-0.137669
-0.118508
-0.101217
-0.0856189
-0.0716264
-0.0587239
-0.0465367
-0.479043
-0.469861
-0.457695
-0.438376
-0.412331
-0.381441
-0.347937
-0.313882
-0.280811
-0.249662
-0.220881
-0.194588
-0.170713
-0.149097
-0.129552
-0.111881
-0.0959045
-0.0815357
-0.0682954
-0.0557683
-0.490481
-0.480987
-0.468914
-0.449921
-0.424289
-0.393765
-0.360489
-0.326499
-0.293347
-0.262005
-0.232959
-0.206356
-0.182147
-0.160186
-0.140291
-0.122269
-0.105942
-0.0912215
-0.0776644
-0.0648183
-0.500913
-0.491124
-0.47916
-0.460526
-0.43536
-0.40527
-0.3723
-0.338452
-0.305289
-0.273818
-0.244561
-0.217697
-0.193197
-0.170928
-0.150716
-0.132374
-0.115724
-0.100677
-0.0868245
-0.0736798
-0.510338
-0.500274
-0.488432
-0.470187
-0.445537
-0.415948
-0.383359
-0.34973
-0.316628
-0.285091
-0.25568
-0.228603
-0.203854
-0.181315
-0.160821
-0.14219
-0.125245
-0.109897
-0.09577
-0.0823462
-0.518762
-0.50844
-0.496735
-0.478904
-0.454816
-0.425791
-0.393658
-0.360323
-0.327354
-0.295816
-0.266307
-0.239066
-0.214112
-0.191341
-0.170599
-0.151709
-0.134498
-0.118876
-0.104497
-0.09081
-0.526192
-0.515632
-0.504075
-0.486682
-0.463196
-0.434796
-0.403189
-0.370224
-0.337459
-0.305986
-0.276435
-0.249081
-0.223965
-0.201001
-0.180046
-0.160929
-0.143479
-0.127609
-0.113002
-0.0990624
-0.53264
-0.521862
-0.510463
-0.493527
-0.470681
-0.442961
-0.41195
-0.379428
-0.346939
-0.315596
-0.286061
-0.258642
-0.233408
-0.21029
-0.189156
-0.169843
-0.152185
-0.136092
-0.121286
-0.107095
-0.538122
-0.527147
-0.515914
-0.49945
-0.477278
-0.450289
-0.41994
-0.387932
-0.35579
-0.324641
-0.295179
-0.267747
-0.242439
-0.219206
-0.197927
-0.17845
-0.160612
-0.144323
-0.12934
-0.114919
-0.542656
-0.531506
-0.520447
-0.504468
-0.482996
-0.456785
-0.427158
-0.395734
-0.364009
-0.333119
-0.303789
-0.276393
-0.251054
-0.227745
-0.206356
-0.186746
-0.168757
-0.152297
-0.137172
-0.122712
-0.546266
-0.534964
-0.524083
-0.508597
-0.487849
-0.462458
-0.433611
-0.402837
-0.371596
-0.341029
-0.311888
-0.284579
-0.259254
-0.235906
-0.214442
-0.19473
-0.176618
-0.160014
-0.14475
-0.13021
-0.548977
-0.537546
-0.526848
-0.511861
-0.491855
-0.467318
-0.439304
-0.409244
-0.378553
-0.348372
-0.319477
-0.292305
-0.267038
-0.24369
-0.222185
-0.202401
-0.184195
-0.16747
-0.152077
-0.137432
-0.55082
-0.539283
-0.528772
-0.514285
-0.495032
-0.471381
-0.444247
-0.41496
-0.384883
-0.35515
-0.326557
-0.299572
-0.274406
-0.251097
-0.229584
-0.209759
-0.191485
-0.174666
-0.159168
-0.14443
-0.551826
-0.540208
-0.529885
-0.515897
-0.497406
-0.474664
-0.448452
-0.419994
-0.390592
-0.361367
-0.333132
-0.306383
-0.281361
-0.258128
-0.236642
-0.216805
-0.198491
-0.181603
-0.166024
-0.151217
-0.55203
-0.540357
-0.530224
-0.516731
-0.499003
-0.477188
-0.451934
-0.424354
-0.395685
-0.367028
-0.339205
-0.312742
-0.287907
-0.264788
-0.24336
-0.223541
-0.205213
-0.188282
-0.172646
-0.157794
-0.551471
-0.539767
-0.529826
-0.51682
-0.499853
-0.478976
-0.454711
-0.428054
-0.400173
-0.372138
-0.344782
-0.318652
-0.294046
-0.271078
-0.249742
-0.22997
-0.211655
-0.194704
-0.179033
-0.164157
-0.550188
-0.538481
-0.528731
-0.516202
-0.499989
-0.480055
-0.456801
-0.431109
-0.404065
-0.376708
-0.34987
-0.32412
-0.299785
-0.277004
-0.255792
-0.236095
-0.217819
-0.200872
-0.185186
-0.170307
-0.548224
-0.536539
-0.52698
-0.514918
-0.499446
-0.480455
-0.458229
-0.433534
-0.407373
-0.380744
-0.354475
-0.329152
-0.305129
-0.28257
-0.261514
-0.241921
-0.223708
-0.20679
-0.191109
-0.176246
-0.545623
-0.533986
-0.524619
-0.513009
-0.498263
-0.480208
-0.459019
-0.435349
-0.410112
-0.384259
-0.358606
-0.333756
-0.310084
-0.287784
-0.266913
-0.247451
-0.229326
-0.212459
-0.196803
-0.181976
-0.542429
-0.530868
-0.521692
-0.51052
-0.49648
-0.479348
-0.459199
-0.436574
-0.412297
-0.387264
-0.362274
-0.337939
-0.314659
-0.292651
-0.271996
-0.252691
-0.234679
-0.217885
-0.202273
-0.1875
-0.53869
-0.52723
-0.518245
-0.507495
-0.494139
-0.477911
-0.458798
-0.437234
-0.413947
-0.389772
-0.365488
-0.341711
-0.31886
-0.297178
-0.276769
-0.257647
-0.239771
-0.223071
-0.207521
-0.192821
-0.534453
-0.52312
-0.514327
-0.503982
-0.491283
-0.475936
-0.457849
-0.437352
-0.415078
-0.391798
-0.368261
-0.345081
-0.322697
-0.301374
-0.281239
-0.262326
-0.244607
-0.228022
-0.212553
-0.197943
-0.529763
-0.518584
-0.509983
-0.500026
-0.487957
-0.473464
-0.456386
-0.436956
-0.415713
-0.393359
-0.370604
-0.34806
-0.326179
-0.305246
-0.285413
-0.266733
-0.249194
-0.232745
-0.217372
-0.202869
-0.524671
-0.51367
-0.505262
-0.495676
-0.484208
-0.470536
-0.454444
-0.436075
-0.415874
-0.39447
-0.372532
-0.35066
-0.329315
-0.308804
-0.289301
-0.270877
-0.253539
-0.237243
-0.221984
-0.207603
-0.519223
-0.508425
-0.500211
-0.49098
-0.480081
-0.467195
-0.452061
-0.434739
-0.415585
-0.39515
-0.374058
-0.352891
-0.332115
-0.312056
-0.292908
-0.274765
-0.257647
-0.241525
-0.226394
-0.212151
-0.513466
-0.502893
-0.494876
-0.485983
-0.475623
-0.463485
-0.449274
-0.43298
-0.41487
-0.395419
-0.375198
-0.354766
-0.334591
-0.315012
-0.296246
-0.278404
-0.261526
-0.245594
-0.230607
-0.216515
-0.507445
-0.497119
-0.489302
-0.480732
-0.470879
-0.45945
-0.446125
-0.430832
-0.413757
-0.395297
-0.375967
-0.356298
-0.336752
-0.317681
-0.299321
-0.281802
-0.265183
-0.249459
-0.23463
-0.220703
-0.501205
-0.491147
-0.483532
-0.475271
-0.465895
-0.455133
-0.442652
-0.428329
-0.412273
-0.394806
-0.376383
-0.357499
-0.33861
-0.320074
-0.302143
-0.284969
-0.268626
-0.253126
-0.238469
-0.224718
-0.494789
-0.485018
-0.477609
-0.469644
-0.460715
-0.450579
-0.438897
-0.425506
-0.410448
-0.393969
-0.376462
-0.358385
-0.340176
-0.322199
-0.304721
-0.287911
-0.271862
-0.256601
-0.242129
-0.228566
-0.488238
-0.478772
-0.471573
-0.463892
-0.455382
-0.445828
-0.434901
-0.4224
-0.408312
-0.392809
-0.376223
-0.358968
-0.341461
-0.324067
-0.307063
-0.290637
-0.274898
-0.259892
-0.245617
-0.232253
-0.481592
-0.472447
-0.465462
-0.458054
-0.449935
-0.440925
-0.430702
-0.419048
-0.405895
-0.391352
-0.375685
-0.359263
-0.342477
-0.325687
-0.309179
-0.293155
-0.277743
-0.263005
-0.248939
-0.235785
-0.474888
-0.466077
-0.45931
-0.452167
-0.444415
-0.435907
-0.426342
-0.415485
-0.403229
-0.389622
-0.374868
-0.359285
-0.343236
-0.327069
-0.311076
-0.295473
-0.280403
-0.265948
-0.252102
-0.239166
-0.468161
-0.459697
-0.453152
-0.446266
-0.438857
-0.430814
-0.421857
-0.411749
-0.400346
-0.387646
-0.373792
-0.35905
-0.343749
-0.328222
-0.312763
-0.297599
-0.282886
-0.268726
-0.255111
-0.242403
-0.461443
-0.453335
-0.447017
-0.440382
-0.433296
-0.425682
-0.417286
-0.407874
-0.397279
-0.38545
-0.372478
-0.358573
-0.344028
-0.329157
-0.314249
-0.29954
-0.285199
-0.271348
-0.257974
-0.245501
-0.454764
-0.447021
-0.440933
-0.434544
-0.427762
-0.420544
-0.412664
-0.403896
-0.394059
-0.383063
-0.370947
-0.357871
-0.344086
-0.329882
-0.31554
-0.301302
-0.287348
-0.273818
-0.260695
-0.248465
-0.448151
-0.440778
-0.434924
-0.428777
-0.422284
-0.415431
-0.408023
-0.399849
-0.390718
-0.380512
-0.369222
-0.356961
-0.343934
-0.330406
-0.316645
-0.302893
-0.28934
-0.276143
-0.263282
-0.251302
-0.44163
-0.43463
-0.429014
-0.423106
-0.416887
-0.410371
-0.403395
-0.395764
-0.387287
-0.377824
-0.367326
-0.355859
-0.343586
-0.330739
-0.31757
-0.304318
-0.29118
-0.278329
-0.265738
-0.254017
-0.435221
-0.428597
-0.423221
-0.41755
-0.411593
-0.405389
-0.398807
-0.391671
-0.383796
-0.375026
-0.365282
-0.354584
-0.343054
-0.330889
-0.318321
-0.305584
-0.292873
-0.28038
-0.268069
-0.256615
-0.428944
-0.422696
-0.417562
-0.412126
-0.406421
-0.400508
-0.394285
-0.387599
-0.380274
-0.372146
-0.363112
-0.353153
-0.342351
-0.330866
-0.318906
-0.306694
-0.294424
-0.282301
-0.270281
-0.259102
-0.422815
-0.416941
-0.412052
-0.406849
-0.401387
-0.395747
-0.389851
-0.383572
-0.376746
-0.36921
-0.360839
-0.351586
-0.341491
-0.330679
-0.31933
-0.307653
-0.295836
-0.284097
-0.416849
-0.411346
-0.406701
-0.40173
-0.396506
-0.391121
-0.385525
-0.379613
-0.373238
-0.366241
-0.358486
-0.349899
-0.340487
-0.330336
-0.319599
-0.308466
-0.297114
-0.411057
-0.405919
-0.401519
-0.39678
-0.391787
-0.386644
-0.381323
-0.375742
-0.369773
-0.363264
-0.356076
-0.348113
-0.339353
-0.329847
-0.319719
-0.405448
-0.400669
-0.396514
-0.392005
-0.387238
-0.382326
-0.377259
-0.371977
-0.366371
-0.360301
-0.353628
-0.346245
-0.338103
-0.329223
-0.400029
-0.395602
-0.39169
-0.387411
-0.382865
-0.378174
-0.373342
-0.36833
-0.363048
-0.357371
-0.351164
-0.344315
-0.394804
-0.390721
-0.38705
-0.382999
-0.378672
-0.374193
-0.369581
-0.364814
-0.35982
-0.354491
-0.348703
-0.389778
-0.38603
-0.382596
-0.378771
-0.37466
-0.370386
-0.365981
-0.361436
-0.356698
-0.351677
-0.384951
-0.381528
-0.378328
-0.374726
-0.370827
-0.366753
-0.362542
-0.358201
-0.353692
-0.380323
-0.377216
-0.374246
-0.370864
-0.367174
-0.363292
-0.359267
-0.355113
-0.375894
-0.373092
-0.370347
-0.367181
-0.363695
-0.360002
-0.356153
-0.371662
-0.369155
-0.366629
-0.363674
-0.360388
-0.356878
-0.367624
-0.365402
-0.363088
-0.360339
-0.357248
-0.363779
-0.361831
-0.359722
-0.357172
-0.360123
-0.358439
-0.356527
-0.356656
-0.355223
-0.353375
-0.352182
-0.350278
-0.259897
-0.265538
-0.271019
-0.276346
-0.281524
-0.28656
-0.291459
-0.296229
-0.300876
-0.305408
-0.309832
-0.314156
-0.318387
-0.322533
-0.326603
-0.330604
-0.249921
-0.255416
-0.260767
-0.265979
-0.271056
-0.276005
-0.28083
-0.285538
-0.290135
-0.294626
-0.299019
-0.303321
-0.307537
-0.311677
-0.315745
-0.319752
-0.240309
-0.245645
-0.250853
-0.255937
-0.260902
-0.265752
-0.270493
-0.275129
-0.279666
-0.28411
-0.288465
-0.29274
-0.296938
-0.301068
-0.305136
-0.309149
-0.231046
-0.236223
-0.241287