/*--------------------------------*- C++ -*----------------------------------*\
  =========                 |
  \\      /  F ield         | OpenFOAM: The Open Source CFD Toolbox
   \\    /   O peration     | Website:  https://openfoam.org
    \\  /    A nd           | Version:  7
     \\/     M anipulation  |
\*---------------------------------------------------------------------------*/
FoamFile
{
    version     2.0;
    format      ascii;
    class       surfaceScalarField;
    location    "70";
    object      phi;
}
// * * * * * * * * * * * * * * * * * * * * * * * * * * * * * * * * * * * * * //

dimensions      [0 3 -1 0 0 0 0];

internalField   nonuniform List<scalar> 
16730
(
-0.00369365
-0.000575837
-0.000554719
-0.00354203
-0.00364281
-0.000605562
-0.000530988
-0.00339834
-0.000582344
-0.00349068
-0.00359036
-0.000634795
-0.000505668
-0.00326404
-0.000556574
-0.00334743
-0.00060945
-0.0034378
-0.00353629
-0.000663521
-0.000529466
-0.00321377
-0.000581663
-0.00329523
-0.000636024
-0.00338344
-0.0034806
-0.000691709
-0.000501341
-0.00308798
-0.000552824
-0.00316229
-0.000606261
-0.0032418
-0.000662064
-0.00332764
-0.00342331
-0.000719359
-0.00047199
-0.00296852
-0.000523079
-0.00303689
-0.000575755
-0.00310961
-0.000630383
-0.00318717
-0.000687584
-0.00327043
-0.00336434
-0.000746548
-0.000492104
-0.00291763
-0.000544412
-0.00298458
-0.000598274
-0.00305575
-0.000654067
-0.00313138
-0.000712589
-0.00321191
-0.00330369
-0.000773241
-0.000459714
-0.0028039
-0.000511813
-0.00286554
-0.000565338
-0.00293106
-0.000620406
-0.00300068
-0.000677382
-0.0030744
-0.000737003
-0.00315229
-0.00324134
-0.000799347
-0.00047781
-0.00275198
-0.000531106
-0.00281224
-0.000585846
-0.00287632
-0.000642154
-0.00294437
-0.000700377
-0.00301618
-0.000761317
-0.00309135
-0.00317872
-0.000823946
-0.00044241
-0.00264359
-0.000495492
-0.00269889
-0.000549964
-0.00275777
-0.00060591
-0.00282037
-0.000663481
-0.0028868
-0.000722758
-0.0029569
-0.000782807
-0.0030313
-0.00311298
-0.000848547
-0.000405667
-0.00253997
-0.000458549
-0.00259071
-0.000512766
-0.00264468
-0.000568389
-0.00270214
-0.000625512
-0.00276325
-0.000684273
-0.00282804
-0.000744688
-0.00289648
-0.000806719
-0.00296927
-0.00304685
-0.00087284
-0.000420313
-0.00248728
-0.000474295
-0.00253673
-0.000529621
-0.00258935
-0.000586366
-0.0026454
-0.000644628
-0.00270499
-0.000704525
-0.00276814
-0.000766109
-0.0028349
-0.000829612
-0.00290577
-0.00298028
-0.000896182
-0.000380829
-0.00238792
-0.000434589
-0.00243352
-0.000489646
-0.00248167
-0.000546055
-0.00253294
-0.000603893
-0.00258756
-0.000663257
-0.00264562
-0.000724255
-0.00270715
-0.000786971
-0.00277218
-0.000851662
-0.00284108
-0.00291305
-0.000918893
-0.000393686
-0.0023344
-0.000448493
-0.00237872
-0.0005046
-0.00242556
-0.000562063
-0.00247548
-0.000620964
-0.00252866
-0.000681398
-0.00258519
-0.000743464
-0.00264508
-0.000807261
-0.00270839
-0.000873005
-0.00277533
-0.00284507
-0.000940988
-0.000406196
-0.00227985
-0.000462024
-0.00232289
-0.000519153
-0.00236844
-0.000577645
-0.00241699
-0.00063758
-0.00246873
-0.000699051
-0.00252372
-0.000762153
-0.00258198
-0.000826986
-0.00264355
-0.000893718
-0.0027086
-0.00277628
-0.000962507
-0.00036281
-0.00218387
-0.000418357
-0.00222431
-0.00047518
-0.00226607
-0.000533305
-0.00231031
-0.000592798
-0.0023575
-0.000653738
-0.00240779
-0.000716216
-0.00246124
-0.000780324
-0.00251787
-0.000846155
-0.00257772
-0.000913843
-0.00264091
-0.00270665
-0.000983478
-0.000373649
-0.00212866
-0.000430169
-0.00216779
-0.00048796
-0.00220827
-0.000547055
-0.00225122
-0.000607521
-0.00229703
-0.000669439
-0.00234587
-0.000732896
-0.00239778
-0.000797981
-0.00245279
-0.000864781
-0.00251092
-0.000933405
-0.00257229
-0.00263614
-0.00100391
-0.000328002
-0.00203369
-0.000384165
-0.0020725
-0.00044163
-0.00211032
-0.000500363
-0.00214954
-0.000560401
-0.00219118
-0.000621814
-0.00223562
-0.000684682
-0.002283
-0.000749092
-0.00233337
-0.000815127
-0.00238675
-0.000882871
-0.00244318
-0.000952416
-0.00250274
-0.00256475
-0.00102381
-0.000337263
-0.00197804
-0.000394357
-0.00201541
-0.00045274
-0.00205194
-0.000512388
-0.00208989
-0.000573344
-0.00213022
-0.000635677
-0.00217328
-0.000699468
-0.00221921
-0.000764803
-0.00226804
-0.000831764
-0.00231979
-0.000900429
-0.00237451
-0.000970884
-0.00243229
-0.00249246
-0.00104317
-0.000289652
-0.00188044
-0.000346229
-0.00192147
-0.000404224
-0.00195741
-0.000463498
-0.00199267
-0.000524035
-0.00202936
-0.000585881
-0.00206838
-0.000649107
-0.00211006
-0.000713796
-0.00215452
-0.000780031
-0.0022018
-0.000847893
-0.00225193
-0.000917459
-0.00230495
-0.00098881
-0.00236094
-0.00241928
-0.00106199
-0.000297424
-0.0018247
-0.000354897
-0.00186399
-0.000413766
-0.00189854
-0.000473905
-0.00193253
-0.000535303
-0.00196796
-0.000598013
-0.00200567
-0.000662106
-0.00204596
-0.000727666
-0.00208896
-0.000794775
-0.00213469
-0.000863515
-0.00218319
-0.000933961
-0.0022345
-0.00100619
-0.0022887
-0.00234521
-0.00108026
-0.000304929
-0.00176805
-0.000363269
-0.00180565
-0.000422984
-0.00183883
-0.000483958
-0.00187155
-0.000546192
-0.00190572
-0.000609738
-0.00194212
-0.000674672
-0.00198103
-0.000741076
-0.00202255
-0.000809035
-0.00206674
-0.000878628
-0.0021136
-0.000949933
-0.0021632
-0.00102303
-0.00221561
-0.00227027
-0.00109797
-0.000254646
-0.00166344
-0.000312168
-0.00171053
-0.000371344
-0.00174648
-0.000431875
-0.0017783
-0.000493658
-0.00180977
-0.0005567
-0.00184268
-0.000621056
-0.00187776
-0.000686804
-0.00191528
-0.000754027
-0.00195533
-0.00082281
-0.00199795
-0.000893233
-0.00204317
-0.000965374
-0.00209105
-0.00103932
-0.00214166
-0.00219446
-0.00111512
-0.000260777
-0.00160728
-0.000319139
-0.00165217
-0.000379122
-0.0016865
-0.000440441
-0.00171698
-0.000503005
-0.00174721
-0.000566827
-0.00177886
-0.000631966
-0.00181262
-0.000698501
-0.00184875
-0.000766517
-0.00188732
-0.000836097
-0.00192837
-0.000907326
-0.00197194
-0.000980281
-0.0020181
-0.00105505
-0.0020669
-0.00211782
-0.00113169
-0.000266673
-0.00155027
-0.000325844
-0.001593
-0.000386602
-0.00162574
-0.00044868
-0.0016549
-0.000511997
-0.00168389
-0.000576572
-0.00171429
-0.000642467
-0.00174673
-0.000709762
-0.00178145
-0.000778544
-0.00181853
-0.000848896
-0.00185802
-0.000920905
-0.00189994
-0.000994651
-0.00194435
-0.00107022
-0.00199133
-0.00204036
-0.00114768
-0.000214496
-0.00143231
-0.000272335
-0.00149243
-0.000332281
-0.00153305
-0.000393784
-0.00156424
-0.000456592
-0.00159209
-0.000520635
-0.00161984
-0.000585935
-0.00164899
-0.000652558
-0.00168011
-0.000720586
-0.00171342
-0.000790106
-0.00174902
-0.000861205
-0.00178692
-0.000933968
-0.00182717
-0.00100848
-0.00186984
-0.00108483
-0.00191498
-0.00196211
-0.00116309
-0.000219134
-0.00137671
-0.000277761
-0.0014338
-0.00033845
-0.00147236
-0.000400668
-0.00150202
-0.000464178
-0.00152858
-0.000528917
-0.00155511
-0.000594914
-0.00158299
-0.000662238
-0.00161278
-0.000730972
-0.00164469
-0.000801203
-0.00167878
-0.00087302
-0.0017151
-0.000946512
-0.00175368
-0.00102176
-0.00179459
-0.00109887
-0.00183787
-0.00188308
-0.00117789
-0.000223571
-0.00132029
-0.000282952
-0.00137442
-0.000344351
-0.00141096
-0.000407253
-0.00143912
-0.000471435
-0.0014644
-0.000536843
-0.0014897
-0.000603509
-0.00151632
-0.000671506
-0.00154479
-0.000740917
-0.00157528
-0.000811832
-0.00160787
-0.000884341
-0.00164259
-0.000958533
-0.00167949
-0.0010345
-0.00171863
-0.00111233
-0.00176004
-0.00180331
-0.0011921
-0.000227808
-0.0012631
-0.000287907
-0.00131432
-0.000349984
-0.00134889
-0.00041354
-0.00137556
-0.000478365
-0.00139957
-0.000544412
-0.00142365
-0.000611719
-0.00144901
-0.00068036
-0.00147615
-0.00075042
-0.00150522
-0.000821991
-0.0015363
-0.000895163
-0.00156942
-0.000970029
-0.00160462
-0.00104668
-0.00164198
-0.00112521
-0.00168151
-0.00172282
-0.00120569
-0.00017392
-0.00112884
-0.000231845
-0.00120518
-0.000292626
-0.00125354
-0.000355348
-0.00128616
-0.000419529
-0.00131138
-0.000484966
-0.00133414
-0.000551624
-0.00135699
-0.000619543
-0.0013811
-0.000688799
-0.00140689
-0.00075948
-0.00143454
-0.000831678
-0.0014641
-0.000905486
-0.00149561
-0.000980996
-0.00152911
-0.0010583
-0.00156467
-0.0011375
-0.00160231
-0.00164165
-0.00121868
-0.000177059
-0.00107451
-0.00023568
-0.00114656
-0.000297109
-0.00119211
-0.000360444
-0.00122283
-0.000425217
-0.00124661
-0.000491239
-0.00126811
-0.000558478
-0.00128975
-0.000626979
-0.00131259
-0.000696822
-0.00133705
-0.000768095
-0.00136326
-0.000840891
-0.0013913
-0.000915305
-0.0014212
-0.000991431
-0.00145299
-0.00106936
-0.00148674
-0.00114921
-0.00152247
-0.00155982
-0.00123104
-0.000180033
-0.00101947
-0.000239313
-0.00108728
-0.000301355
-0.00113007
-0.000365271
-0.00115891
-0.000430606
-0.00118127
-0.000497182
-0.00120154
-0.000564972
-0.00122196
-0.000634028
-0.00124354
-0.000704428
-0.00126665
-0.000776263
-0.00129143
-0.000849629
-0.00131794
-0.000924619
-0.00134621
-0.00100133
-0.00137628
-0.00107986
-0.00140821
-0.00116032
-0.00144201
-0.00147737
-0.00124277
-0.000182844
-0.000963767
-0.000242744
-0.00102738
-0.000305365
-0.00106745
-0.000369829
-0.00109445
-0.000435696
-0.0011154
-0.000502795
-0.00113444
-0.000571108
-0.00115365
-0.000640687
-0.00117396
-0.000711615
-0.00119572
-0.000783984
-0.00121906
-0.000857888
-0.00124403
-0.000933426
-0.00127067
-0.00101069
-0.00129901
-0.00108979
-0.00132911
-0.00117083
-0.00136098
-0.00139432
-0.00125388
-0.000185489
-0.000907437
-0.000245973
-0.000966892
-0.000309138
-0.00100428
-0.000374118
-0.00102947
-0.000440485
-0.00104904
-0.000508077
-0.00106685
-0.000576883
-0.00108485
-0.000646957
-0.00110388
-0.000718383
-0.00112429
-0.000791254
-0.00114619
-0.000865668
-0.00116962
-0.000941722
-0.00119462
-0.00101952
-0.00122121
-0.00109915
-0.00124947
-0.00118073
-0.0012794
-0.0013107
-0.00126435
-0.000131054
-0.000762522
-0.00018797
-0.000850521
-0.000248999
-0.000905863
-0.000312673
-0.000940609
-0.000378137
-0.000964001
-0.000444973
-0.000982202
-0.000513029
-0.000998793
-0.000582296
-0.00101558
-0.000652835
-0.00103335
-0.000724729
-0.0010524
-0.000798073
-0.00107284
-0.000872966
-0.00109473
-0.000949506
-0.00111808
-0.00102779
-0.00114292
-0.00110794
-0.00116933
-0.00119003
-0.0011973
-0.00122656
-0.00127418
-0.000132822
-0.000711372
-0.000190285
-0.000793058
-0.000251823
-0.000844325
-0.000315971
-0.000876461
-0.000381887
-0.000898086
-0.00044916
-0.000914929
-0.000517649
-0.000930304
-0.000587349
-0.000945878
-0.000658321
-0.000962374
-0.000730653
-0.000980067
-0.00080444
-0.000999058
-0.00087978
-0.00101939
-0.000956775
-0.00104108
-0.00103553
-0.00106417
-0.00111614
-0.00108872
-0.00119872
-0.00111472
-0.00114192
-0.00128336
-0.000134465
-0.000659694
-0.000192434
-0.000735089
-0.000254444
-0.000782315
-0.000319032
-0.000811872
-0.000385366
-0.000831752
-0.000453046
-0.000847248
-0.000521937
-0.000861414
-0.000592038
-0.000875776
-0.000663415
-0.000890997
-0.000736153
-0.000907329
-0.000810352
-0.000924859
-0.000886109
-0.000943629
-0.000963528
-0.000963663
-0.00104271
-0.00098499
-0.00112376
-0.00100766
-0.0012068
-0.00103169
-0.00105682
-0.0012919
-0.000135981
-0.000607529
-0.000194417
-0.000676654
-0.000256861
-0.000719871
-0.000321855
-0.000746878
-0.000388575
-0.000765032
-0.00045663
-0.000779192
-0.000525892
-0.000792152
-0.000596365
-0.000805303
-0.000668114
-0.000819248
-0.000741229
-0.000834213
-0.000815808
-0.000850281
-0.000891951
-0.000867486
-0.000969761
-0.000885853
-0.00104934
-0.000905408
-0.0011308
-0.000926203
-0.00121425
-0.000948235
-0.000971292
-0.00129978
-0.000137371
-0.000554917
-0.000196233
-0.000617791
-0.000259074
-0.00065703
-0.00032444
-0.000681513
-0.000391513
-0.000697959
-0.000459913
-0.000710793
-0.000529515
-0.00072255
-0.000600328
-0.00073449
-0.000672419
-0.000747157
-0.00074588
-0.000760753
-0.000820807
-0.000775353
-0.000897304
-0.000790989
-0.000975474
-0.000807683
-0.00105542
-0.00082546
-0.00113726
-0.000844368
-0.00122109
-0.000864402
-0.00088537
-0.00130701
-0.000138633
-0.000501901
-0.000197883
-0.000558542
-0.000261084
-0.000593828
-0.000326786
-0.000615811
-0.000394181
-0.000630565
-0.000462893
-0.000642081
-0.000532804
-0.000652638
-0.000603926
-0.000663368
-0.000676329
-0.000674754
-0.000750103
-0.000686979
-0.000825349
-0.000700108
-0.000902168
-0.00071417
-0.000980665
-0.000729186
-0.00106095
-0.000745178
-0.00114312
-0.000762191
-0.00122731
-0.000780219
-0.00079909
-0.00131359
-0.000139768
-0.000448521
-0.000199365
-0.000498945
-0.00026289
-0.000530303
-0.000328895
-0.000549806
-0.000396577
-0.000562882
-0.00046557
-0.000573088
-0.00053576
-0.000582449
-0.00060716
-0.000591968
-0.000679843
-0.000602072
-0.000753899
-0.000612922
-0.000829431
-0.000624576
-0.000906539
-0.000637061
-0.000985331
-0.000650394
-0.00106591
-0.000664596
-0.0011484
-0.000679707
-0.00123289
-0.000695722
-0.000712487
-0.0013195
-0.000140775
-0.000394819
-0.00020068
-0.00043904
-0.000264492
-0.000466491
-0.000330765
-0.000483533
-0.000398703
-0.000494944
-0.000467945
-0.000503846
-0.000538381
-0.000512013
-0.000610028
-0.00052032
-0.000682959
-0.000529141
-0.000757267
-0.000538614
-0.000833052
-0.000548791
-0.000910419
-0.000559694
-0.000989472
-0.00057134
-0.00107032
-0.000583747
-0.00115308
-0.00059695
-0.00123786
-0.000610945
-0.000625596
-0.00132475
-0.000141654
-0.000340835
-0.000201828
-0.000378866
-0.000265889
-0.000402429
-0.000332396
-0.000417027
-0.000400557
-0.000426783
-0.000470016
-0.000434386
-0.000540668
-0.000441361
-0.000612531
-0.000448457
-0.000685679
-0.000455993
-0.000760205
-0.000464088
-0.000836212
-0.000472784
-0.000913804
-0.000482103
-0.000993087
-0.000492057
-0.00107417
-0.000502664
-0.00115717
-0.000513955
-0.00124219
-0.000525923
-0.000538455
-0.00132933
-8.81823e-05
-0.000237225
-0.000142405
-0.000286612
-0.000202808
-0.000318464
-0.000267083
-0.000338154
-0.000333788
-0.000350321
-0.000402139
-0.000358432
-0.000471784
-0.000364742
-0.00054262
-0.000370526
-0.000614667
-0.00037641
-0.000688
-0.00038266
-0.000762714
-0.000389374
-0.000838911
-0.000396588
-0.000916695
-0.000404319
-0.000996173
-0.000412579
-0.00107746
-0.000421382
-0.00116066
-0.000430754
-0.00124589
-0.000440692
-0.000451098
-0.00133324
-8.86064e-05
-0.000192283
-0.000143028
-0.000232191
-0.00020362
-0.000257872
-0.000268071
-0.000273703
-0.000334942
-0.000283451
-0.00040345
-0.000289924
-0.000473249
-0.000294943
-0.000544236
-0.000299538
-0.000616436
-0.00030421
-0.000689923
-0.000309173
-0.000764792
-0.000314504
-0.000841146
-0.000320234
-0.00091909
-0.000326375
-0.000998731
-0.000332938
-0.00108018
-0.000339934
-0.00116355
-0.000347385
-0.00124895
-0.000355287
-0.000363562
-0.00133649
-8.89433e-05
-0.000147188
-0.000143522
-0.000177612
-0.000204264
-0.00019713
-0.000268855
-0.000209113
-0.000335856
-0.00021645
-0.000404489
-0.00022129
-0.000474409
-0.000225023
-0.000545518
-0.00022843
-0.000617838
-0.00023189
-0.000691447
-0.000235564
-0.000766439
-0.000239512
-0.000842918
-0.000243755
-0.000920988
-0.000248304
-0.00100076
-0.000253167
-0.00108234
-0.000258354
-0.00116584
-0.00026388
-0.00125139
-0.000269743
-0.000275884
-0.00133907
-8.91926e-05
-0.000101979
-0.000143888
-0.000122916
-0.000204741
-0.000136278
-0.000269434
-0.000144419
-0.000336531
-0.000149353
-0.000405256
-0.000152565
-0.000475266
-0.000155014
-0.000546463
-0.000157232
-0.000618873
-0.00015948
-0.000692572
-0.000161865
-0.000767655
-0.000164429
-0.000844226
-0.000167184
-0.00092239
-0.00017014
-0.00100226
-0.000173302
-0.00108393
-0.000176676
-0.00116754
-0.000180275
-0.00125318
-0.000184097
-0.0001881
-0.00134097
-8.93545e-05
-5.66974e-05
-0.000144125
-6.81459e-05
-0.000205049
-7.53537e-05
-0.000269808
-7.96596e-05
-0.000336967
-8.21937e-05
-0.000405751
-8.37813e-05
-0.000475819
-8.49464e-05
-0.000547073
-8.59778e-05
-0.00061954
-8.7013e-05
-0.000693297
-8.81089e-05
-0.000768439
-8.92865e-05
-0.000845069
-9.05538e-05
-0.000923294
-9.19152e-05
-0.00100322
-9.3374e-05
-0.00108496
-9.49347e-05
-0.00116863
-9.66044e-05
-0.00125435
-9.83831e-05
-0.000100247
-0.0013422
-8.94287e-05
-1.13821e-05
-0.000144233
-1.33416e-05
-0.000205189
-1.43979e-05
-0.000269978
-1.48707e-05
-0.000337164
-1.50074e-05
-0.000405974
-1.49712e-05
-0.000476067
-1.48537e-05
-0.000547347
-1.46977e-05
-0.00061984
-1.45202e-05
-0.000693622
-1.43263e-05
-0.000768791
-1.4118e-05
-0.000845448
-1.38964e-05
-0.000923701
-1.36626e-05
-0.00100366
-1.34181e-05
-0.00108543
-1.31644e-05
-0.00116913
-1.29041e-05
-0.00125487
-1.26385e-05
-1.23618e-05
-0.00134276
-8.94153e-05
3.39267e-05
-0.000144212
4.14555e-05
-0.000205161
4.65504e-05
-0.000269942
4.99109e-05
-0.000337122
5.2172e-05
-0.000405925
5.38322e-05
-0.000476011
5.52326e-05
-0.000547285
5.6576e-05
-0.000619772
5.79665e-05
-0.000693548
5.94503e-05
-0.000768711
6.10446e-05
-0.000845363
6.27554e-05
-0.00092361
6.45844e-05
-0.00100356
6.65326e-05
-0.00108533
6.86008e-05
-0.00116902
7.07913e-05
-0.00125476
7.31015e-05
7.55188e-05
-0.00134264
-8.93143e-05
7.91891e-05
-0.000144063
9.6204e-05
-0.000204964
0.000107452
-0.000269702
0.000114649
-0.00033684
0.00011931
-0.000405604
0.000122596
-0.000475652
0.00012528
-0.000546887
0.000127812
-0.000619336
0.000130415
-0.000693074
0.000133189
-0.000768199
0.000136169
-0.000844812
0.000139369
-0.000923021
0.000142793
-0.00100293
0.000146444
-0.00108466
0.000150327
-0.00116831
0.000154447
-0.00125401
0.000158801
0.000163359
-0.00134185
-8.91257e-05
0.000124365
-0.000143785
0.000150863
-0.0002046
0.000168267
-0.000269257
0.000179305
-0.000336319
0.000186372
-0.00040501
0.000191288
-0.000474988
0.000195258
-0.000546153
0.000198977
-0.000618532
0.000202794
-0.000692201
0.000206857
-0.000767255
0.000211223
-0.000843797
0.000215911
-0.000921934
0.000220929
-0.00100177
0.000226283
-0.00108342
0.000231979
-0.00116701
0.000238027
-0.00125263
0.000244424
0.000251121
-0.00134039
-8.88494e-05
0.000169415
-0.000143377
0.000205391
-0.000204067
0.000228957
-0.000268606
0.000243845
-0.000335558
0.000253324
-0.000404145
0.000259874
-0.000474019
0.000265132
-0.000545083
0.000270042
-0.000617361
0.000275072
-0.000690927
0.000280424
-0.000765879
0.000286174
-0.000842317
0.00029235
-0.000920349
0.000298961
-0.00100008
0.000306016
-0.00108163
0.000313523
-0.0011651
0.000321498
-0.00125061
0.000329935
0.000338768
-0.00133825
-8.84856e-05
0.000214299
-0.000142841
0.000259747
-0.000203366
0.000289481
-0.000267751
0.00030823
-0.000334559
0.000320132
-0.000403007
0.000328322
-0.000472747
0.000334872
-0.000543678
0.000340973
-0.000615822
0.000347216
-0.000689255
0.000353857
-0.000764071
0.000360991
-0.000840373
0.000368652
-0.000918267
0.000376855
-0.00099786
0.000385609
-0.00107926
0.000394925
-0.00116259
0.000404823
-0.00124795
0.000415299
0.000426264
-0.00133545
-8.80345e-05
-0.000142177
0.000313889
-0.000202497
0.000349801
-0.000266691
0.000372425
-0.00033332
0.00038676
-0.000401597
0.000396599
-0.00047117
0.000404446
-0.000541936
0.000411739
-0.000613916
0.000419195
-0.000687183
0.000427124
-0.000761832
0.00043564
-0.000837965
0.000444786
-0.000915688
0.000454578
-0.000995108
0.000465028
-0.00107633
0.00047615
-0.00115948
0.000487969
-0.00124466
0.000500478
0.000513573
-0.00133197
-0.000141384
0.000367777
-0.00020146
0.000409877
-0.000265426
0.000436391
-0.000331842
0.000453175
-0.000399915
0.000464673
-0.00046929
0.00047382
-0.000539859
0.000482308
-0.000611642
0.000490978
-0.000684712
0.000500193
-0.000759162
0.00051009
-0.000835094
0.000520718
-0.000912613
0.000532097
-0.000991826
0.000544241
-0.00107284
0.000557166
-0.00115577
0.000570901
-0.00124073
0.000585439
0.000600658
-0.00132782
-0.000140463
0.000421369
-0.000200255
0.00046967
-0.000263957
0.000500093
-0.000330124
0.000519343
-0.000397961
0.00053251
-0.000467106
0.000542965
-0.000537447
0.000552649
-0.000609002
0.000562533
-0.000681842
0.000573033
-0.000756061
0.000584309
-0.00083176
0.000596417
-0.000909043
0.00060938
-0.000988016
0.000623214
-0.00106879
0.000637937
-0.00115147
0.000653584
-0.00123618
0.000670146
0.000687482
-0.001323
-0.000139413
0.000474623
-0.000198882
0.000529139
-0.000262283
0.000563494
-0.000328168
0.000585228
-0.000395736
0.000600078
-0.000464618
0.000611847
-0.0005347
0.000622731
-0.000605995
0.000633828
-0.000678574
0.000645613
-0.000752531
0.000658266
-0.000827964
0.00067185
-0.000904978
0.000686394
-0.000983679
0.000701914
-0.00106417
0.000718431
-0.00114657
0.000735983
-0.00123099
0.000754563
0.00077401
-0.00131752
-0.000138236
0.000527499
-0.000197342
0.000588245
-0.000260404
0.000626556
-0.000325972
0.000650796
-0.000393238
0.000667343
-0.000461827
0.000680435
-0.000531617
0.000692522
-0.000602622
0.000704832
-0.000674909
0.0007179
-0.000748571
0.000731928
-0.000823707
0.000746986
-0.00090042
0.000763107
-0.000978814
0.000780309
-0.001059
0.000798614
-0.00114108
0.000818066
-0.00122517
0.000838656
0.000860207
-0.00131137
-0.000136931
0.000579956
-0.000195635
0.000646949
-0.000258321
0.000689242
-0.000323538
0.000716013
-0.00039047
0.000734275
-0.000458732
0.000748698
-0.000528201
0.000761991
-0.000598884
0.000775515
-0.000670848
0.000789864
-0.000744183
0.000805264
-0.00081899
0.000821793
-0.000895369
0.000839486
-0.000973425
0.000858365
-0.00105326
0.000878453
-0.001135
0.000899797
-0.00121873
0.000922391
0.000946036
-0.00130456
-0.000135499
0.00063195
-0.000193761
0.00070521
-0.000256035
0.000751516
-0.000320866
0.000780844
-0.000387429
0.000800838
-0.000455335
0.000816603
-0.00052445
0.000831106
-0.00059478
0.000845845
-0.000666389
0.000861474
-0.000739368
0.000878242
-0.000813814
0.000896238
-0.000889827
0.0009155
-0.000967513
0.00093605
-0.00104697
0.000957914
-0.00112832
0.000981143
-0.00121166
0.00100573
0.00103146
-0.00129709
-0.000133941
0.000683443
-0.00019172
0.000762989
-0.000253544
0.00081334
-0.000317954
0.000845255
-0.000384118
0.000867002
-0.000451634
0.000884119
-0.000520366
0.000899837
-0.000590312
0.000915791
-0.000661536
0.000932698
-0.000734126
0.000950832
-0.000808179
0.000970292
-0.000883796
0.000991117
-0.000961078
0.00101333
-0.00104013
0.00103697
-0.00112106
0.00106207
-0.00120397
0.00108865
0.00111645
-0.00128896
-0.000132255
0.000734391
-0.000189512
0.000820245
-0.000250849
0.000874677
-0.000314805
0.00090921
-0.000380536
0.000932733
-0.000447632
0.000951215
-0.000515948
0.000968153
-0.000585479
0.000985323
-0.000656287
0.00100351
-0.000728458
0.001023
-0.000802088
0.00104392
-0.000877276
0.0010663
-0.000954124
0.00109018
-0.00103273
0.00111558
-0.00111321
0.00114255
-0.00119566
0.0011711
0.00120097
-0.00128018
-0.000130444
-0.000187138
0.00087694
-0.000247951
0.00093549
-0.000311417
0.000972677
-0.000376683
0.000997999
-0.000443327
0.00101786
-0.000511197
0.00103602
-0.000580284
0.00105441
-0.000650645
0.00107387
-0.000722366
0.00109472
-0.000795541
0.0011171
-0.00087027
0.00114103
-0.000946651
0.00116656
-0.00102479
0.00119371
-0.00110478
0.00122254
-0.00118674
0.00125306
0.00128498
-0.00127075
-0.000184598
0.000933031
-0.000244849
0.000995741
-0.000307791
0.00103562
-0.000372559
0.00106277
-0.000438721
0.00108402
-0.000506114
0.00110342
-0.000574725
0.00112302
-0.00064461
0.00114375
-0.00071585
0.00116596
-0.00078854
0.00118979
-0.000862778
0.00121527
-0.000938662
0.00124244
-0.00101629
0.00127134
-0.00109577
0.00130202
-0.0011772
0.00133449
0.00136845
-0.00126067
-0.000181893
0.00098848
-0.000241545
0.00105539
-0.000303928
0.001098
-0.000368165
0.001127
-0.000433812
0.00114967
-0.000500699
0.0011703
-0.000568805
0.00119113
-0.000638182
0.00121313
-0.000708912
0.00123669
-0.000781087
0.00126196
-0.000854803
0.00128899
-0.000930159
0.0013178
-0.00100725
0.00134843
-0.00108618
0.00138095
-0.00116705
0.00141536
0.00145135
-0.00124995
-0.000179023
0.00104325
-0.000238037
0.00111441
-0.000299826
0.00115979
-0.000363501
0.00119068
-0.000428603
0.00121477
-0.000494952
0.00123665
-0.000562523
0.0012587
-0.000631363
0.00128197
-0.000701552
0.00130688
-0.000773182
0.00133359
-0.000846347
0.00136215
-0.000921144
0.0013926
-0.000997668
0.00142496
-0.00107602
0.0014593
-0.0011563
0.00149564
0.00153364
-0.0012386
-0.000175988
0.00109729
-0.000234327
0.00117275
-0.000295488
0.00122095
-0.000358566
0.00125376
-0.000423093
0.0012793
-0.000488875
0.00130244
-0.00055588
0.0013257
-0.000624154
0.00135024
-0.000693773
0.0013765
-0.000764827
0.00140465
-0.000837411
0.00143474
-0.000911619
0.0014668
-0.000987546
0.00150088
-0.00106529
0.00153704
-0.00114495
0.0015753
0.0016153
-0.0012266
-0.000172789
-0.000230415
0.00123037
-0.000290911
0.00128145
-0.000353362
0.00131621
-0.000417281
0.00134322
-0.000482466
0.00136762
-0.000548877
0.00139211
-0.000616555
0.00141792
-0.000685575
0.00144552
-0.000756025
0.0014751
-0.000827998
0.00150671
-0.000901587
0.00154039
-0.000976887
0.00157618
-0.00105399
0.00161415
-0.001133
0.00165431
0.00169629
-0.00121399
-0.000226301
0.00128725
-0.000286098
0.00134124
-0.000347889
0.001378
-0.00041117
0.0014065
-0.000475728
0.00143218
-0.000541515
0.0014579
-0.000608567
0.00148497
-0.000676959
0.00151391
-0.000746776
0.00154491
-0.000818109
0.00157804
-0.000891051
0.00161334
-0.000965693
0.00165083
-0.00104213
0.00169058
-0.00112045
0.00173263
0.00177658
-0.00120074
-0.000221985
0.00134333
-0.000281049
0.00140031
-0.000342145
0.00143909
-0.000404758
0.00146911
-0.00046866
0.00149608
-0.000533794
0.00152303
-0.000600192
0.00155137
-0.000667927
0.00158165
-0.000737081
0.00161407
-0.000807746
0.00164871
-0.000880012
0.0016856
-0.000953969
0.00172478
-0.00102971
0.00176632
-0.00110732
0.00181025
0.00185614
-0.00118688
-0.000217468
-0.000275762
0.0014586
-0.000336133
0.00149947
-0.000398047
0.00153102
-0.000461262
0.00155929
-0.000525714
0.00158749
-0.000591431
0.00161709
-0.000658479
0.0016487
-0.000726944
0.00168253
-0.000796912
0.00171868
-0.000868474
0.00175716
-0.000941717
0.00179803
-0.00101673
0.00184133
-0.0010936
0.00188712
0.00193495
-0.00117241
-0.000270239
0.00151609
-0.000329852
0.00155908
-0.000391036
0.00159221
-0.000453535
0.00162179
-0.000517277
0.00165123
-0.000582283
0.00168209
-0.000648618
0.00171503
-0.000716364
0.00175028
-0.000785608
0.00178792
-0.000856438
0.00182799
-0.000928941
0.00187053
-0.0010032
0.00191559
-0.00107931
0.00196323
0.00201298
-0.00115733
-0.00026448
0.00157274
-0.000323301
0.0016179
-0.000383725
0.00165263
-0.00044548
0.00168355
-0.000508483
0.00171423
-0.000572751
0.00174636
-0.000638344
0.00178062
-0.000705344
0.00181728
-0.000773836
0.00185641
-0.000843907
0.00189807
-0.000915643
0.00194226
-0.000989124
0.00198907
-0.00106444
0.00203855
0.0020902
-0.00114166
-0.000258485
0.00162851
-0.000316483
0.0016759
-0.000376115
0.00171226
-0.000437097
0.00174453
-0.000499333
0.00177647
-0.000562834
0.00180986
-0.000627658
0.00184545
-0.000693884
0.00188351
-0.000761598
0.00192413
-0.000830884
0.00196735
-0.000901826
0.00201321
-0.000974504
0.00206175
-0.001049
0.00211305
0.00216658
-0.00112539
-0.000252255
-0.000309395
0.00173304
-0.000368207
0.00177108
-0.000428386
0.00180471
-0.000489827
0.00183791
-0.000552533
0.00187257
-0.000616561
0.00190948
-0.000681987
0.00194893
-0.000748895
0.00199103
-0.000817369
0.00203583
-0.000887493
0.00208333
-0.000959343
0.0021336
-0.00103301
0.00218671
0.00224211
-0.00110854
-0.00030204
0.00178929
-0.00036
0.00182904
-0.000419348
0.00186406
-0.000479966
0.00189853
-0.00054185
0.00193445
-0.000605055
0.00197268
-0.000669653
0.00201353
-0.000735729
0.00205711
-0.000803366
0.00210346
-0.000872646
0.00215261
-0.000943646
0.0022046
-0.00101645
0.00225951
0.00231677
-0.00109111
-0.000294416
0.00184461
-0.000351494
0.00188611
-0.000409982
0.00192255
-0.000469749
0.00195829
-0.000530785
0.00199549
-0.000593139
0.00203503
-0.000656883
0.00207727
-0.000722101
0.00212233
-0.000788875
0.00217024
-0.000857287
0.00222102
-0.000927415
0.00227473
-0.000999338
0.00233143
0.00239054
-0.00107311
-0.000286525
-0.00034269
0.00194228
-0.000400289
0.00198015
-0.000459179
0.00201718
-0.000519339
0.00205565
-0.000580815
0.00209651
-0.000643679
0.00214014
-0.000708011
0.00218666
-0.000773897
0.00223612
-0.000841418
0.00228854
-0.000910651
0.00234396
-0.000981678
0.00240246
0.00246341
-0.00105455
-0.000333588
0.0019975
-0.00039027
0.00203683
-0.000448254
0.00207517
-0.000507512
0.00211491
-0.000568084
0.00215708
-0.00063004
0.00220209
-0.000693462
0.00225008
-0.000758434
0.0023011
-0.00082504
0.00235515
-0.000893358
0.00241228
-0.000963473
0.00247258
0.00253537
-0.00103543
-0.000324189
-0.000379926
0.00209257
-0.000436976
0.00213222
-0.000495305
0.00217323
-0.000554946
0.00221672
-0.000615968
0.00226312
-0.000678453
0.00231257
-0.000742486
0.00236513
-0.000808151
0.00242081
-0.000875533
0.00247966
-0.000944723
0.00254177
0.00260641
-0.00101577
-0.000369255
0.00214733
-0.000425346
0.00218831
-0.000482718
0.00223061
-0.000541402
0.00227541
-0.000601463
0.00232318
-0.000662984
0.00237409
-0.000726051
0.0024282
-0.000790752
0.00248551
-0.000857175
0.00254608
-0.000925427
0.00261002
0.00267655
-0.000995568
-0.000358259
-0.000413363
0.00224341
-0.000469752
0.002287
-0.000527452
0.00233311
-0.000586527
0.00238225
-0.000647056
0.00243462
-0.00070913
0.00249027
-0.00077284
0.00254922
-0.00083828
0.00261152
-0.000905581
0.00267732
0.0027458
-0.000974829
-0.000401029
0.0022975
-0.000456409
0.00234238
-0.000513099
0.0023898
-0.000571158
0.00244031
-0.000630668
0.00249413
-0.000691721
0.00255132
-0.000754411
0.00261191
-0.000818839
0.00267595
-0.00088517
0.00274365
0.00281418
-0.000953553
-0.000388344
0.00235055
-0.000442689
0.00239672
-0.000498342
0.00244545
-0.00055536
0.00249733
-0.000613822
0.00255259
-0.000673823
0.00261132
-0.000735464
0.00267356
-0.000798844
0.00273933
-0.000864174
0.00280898
0.00288174
-0.000931732
-0.00037531
-0.000428594
0.00245001
-0.000483184
0.00250004
-0.000539132
0.00255328
-0.000596517
0.00260997
-0.000655436
0.00267024
-0.000715995
0.00273411
-0.000778282
0.00280162
-0.000842551
0.00287325
0.00294853
-0.000909343
-0.000414125
-0.000467626
0.00255354
-0.000522478
0.00260813
-0.000578756
0.00266625
-0.000636558
0.00272804
-0.000696003
0.00279356
-0.000757149
0.00286277
-0.000820232
0.00293633
0.00301465
-0.000886352
-0.00045167
0.00260593
-0.000505399
0.00266186
-0.000560542
0.00272139
-0.000617192
0.00278469