/*--------------------------------*- C++ -*----------------------------------*\
  =========                 |
  \\      /  F ield         | OpenFOAM: The Open Source CFD Toolbox
   \\    /   O peration     | Website:  https://openfoam.org
    \\  /    A nd           | Version:  7
     \\/     M anipulation  |
\*---------------------------------------------------------------------------*/
FoamFile
{
    version     2.0;
    format      ascii;
    class       volScalarField;
    location    "70";
    object      p;
}
// * * * * * * * * * * * * * * * * * * * * * * * * * * * * * * * * * * * * * //

dimensions      [0 2 -2 0 0 0 0];

internalField   nonuniform List<scalar> 
8500
(
-0.145034
-0.146026
-0.14663
-0.147146
-0.147596
-0.147982
-0.14832
-0.148623
-0.1489
-0.149158
-0.149403
-0.149637
-0.149865
-0.150088
-0.150309
-0.150533
-0.150763
-0.151006
-0.151266
-0.151551
-0.145058
-0.146022
-0.146609
-0.147111
-0.147548
-0.147922
-0.148249
-0.148542
-0.148809
-0.149058
-0.149293
-0.14952
-0.149742
-0.14996
-0.15018
-0.150404
-0.150639
-0.150893
-0.151169
-0.151472
-0.145123
-0.146056
-0.146625
-0.147111
-0.147533
-0.147894
-0.148209
-0.14849
-0.148746
-0.148983
-0.149209
-0.149427
-0.14964
-0.149852
-0.150068
-0.150291
-0.15053
-0.150792
-0.151081
-0.151398
-0.145226
-0.146126
-0.146676
-0.147145
-0.147551
-0.147898
-0.148199
-0.148466
-0.148709
-0.148934
-0.149148
-0.149355
-0.149558
-0.149762
-0.149972
-0.150192
-0.150431
-0.1507
-0.150999
-0.151327
-0.145366
-0.146231
-0.14676
-0.147211
-0.147601
-0.147932
-0.148218
-0.14847
-0.148698
-0.148909
-0.149109
-0.149303
-0.149494
-0.149688
-0.149889
-0.150104
-0.150341
-0.150614
-0.150921
-0.151254
-0.145541
-0.14637
-0.146877
-0.147308
-0.14768
-0.147994
-0.148263
-0.148499
-0.148711
-0.148906
-0.14909
-0.149269
-0.149446
-0.149627
-0.149817
-0.150024
-0.150257
-0.15053
-0.150843
-0.151176
-0.145747
-0.146539
-0.147024
-0.147435
-0.147787
-0.148083
-0.148334
-0.148552
-0.148746
-0.148923
-0.149089
-0.149251
-0.149412
-0.149577
-0.149754
-0.14995
-0.150175
-0.150447
-0.150761
-0.15109
-0.145984
-0.146738
-0.147199
-0.147589
-0.147922
-0.148197
-0.148429
-0.148627
-0.148801
-0.148958
-0.149105
-0.149247
-0.149389
-0.149537
-0.149698
-0.14988
-0.150093
-0.15036
-0.150672
-0.150992
-0.146249
-0.146965
-0.147402
-0.14777
-0.148081
-0.148336
-0.148546
-0.148723
-0.148876
-0.149011
-0.149136
-0.149256
-0.149376
-0.149503
-0.149645
-0.149809
-0.150009
-0.150267
-0.150573
-0.150878
-0.14654
-0.147218
-0.147631
-0.147976
-0.148264
-0.148497
-0.148685
-0.148839
-0.148968
-0.149079
-0.149179
-0.149275
-0.149371
-0.149474
-0.149593
-0.149737
-0.149918
-0.150164
-0.150461
-0.150744
-0.146855
-0.147495
-0.147883
-0.148205
-0.14847
-0.148679
-0.148844
-0.148973
-0.149076
-0.149161
-0.149235
-0.149303
-0.149371
-0.149448
-0.149541
-0.14966
-0.149819
-0.150049
-0.150333
-0.150589
-0.147193
-0.147795
-0.148159
-0.148457
-0.148698
-0.148882
-0.149021
-0.149124
-0.1492
-0.149256
-0.1493
-0.149338
-0.149376
-0.149422
-0.149485
-0.149576
-0.149709
-0.149919
-0.150186
-0.150407
-0.147551
-0.148117
-0.148456
-0.14873
-0.148946
-0.149105
-0.149216
-0.149291
-0.149337
-0.149362
-0.149373
-0.149378
-0.149383
-0.149395
-0.149425
-0.149483
-0.149586
-0.14977
-0.150018
-0.150196
-0.147928
-0.148459
-0.148774
-0.149023
-0.149213
-0.149345
-0.149428
-0.149472
-0.149486
-0.149478
-0.149455
-0.149424
-0.149391
-0.149366
-0.149358
-0.149379
-0.149447
-0.149602
-0.149825
-0.149953
-0.148324
-0.148821
-0.149112
-0.149336
-0.1495
-0.149603
-0.149656
-0.149668
-0.149648
-0.149603
-0.149543
-0.149472
-0.1494
-0.149333
-0.149283
-0.149263
-0.14929
-0.14941
-0.149607
-0.149671
-0.148736
-0.149202
-0.149469
-0.149668
-0.149804
-0.149879
-0.1499
-0.149878
-0.149821
-0.149738
-0.149636
-0.149524
-0.149408
-0.149296
-0.1492
-0.149133
-0.149115
-0.149195
-0.149367
-0.149338
-0.149165
-0.149601
-0.149845
-0.150018
-0.150127
-0.150171
-0.150158
-0.1501
-0.150004
-0.14988
-0.149736
-0.149578
-0.149414
-0.149253
-0.149107
-0.148989
-0.14892
-0.148956
-0.149113
-0.148968
-0.149611
-0.150019
-0.150239
-0.150388
-0.150467
-0.150479
-0.150432
-0.150335
-0.150199
-0.150031
-0.149841
-0.149634
-0.14942
-0.149206
-0.149004
-0.14883
-0.148705
-0.148688
-0.148777
-0.148613
-0.150072
-0.150454
-0.150653
-0.150775
-0.150826
-0.150804
-0.15072
-0.150584
-0.150404
-0.15019
-0.149951
-0.149693
-0.149424
-0.149154
-0.148892
-0.148657
-0.14847
-0.148395
-0.148424
-0.148193
-0.150551
-0.150909
-0.151086
-0.151182
-0.151203
-0.151147
-0.151024
-0.150846
-0.150621
-0.150358
-0.150067
-0.149755
-0.149429
-0.149098
-0.148773
-0.148471
-0.148214
-0.148077
-0.148046
-0.147718
-0.151046
-0.151384
-0.151539
-0.151609
-0.151598
-0.151506
-0.151344
-0.151121
-0.150849
-0.150535
-0.150191
-0.149821
-0.149435
-0.149039
-0.148646
-0.148272
-0.147941
-0.147732
-0.147637
-0.147191
-0.151561
-0.151879
-0.152013
-0.152057
-0.152013
-0.151884
-0.15168
-0.151411
-0.151089
-0.150723
-0.150322
-0.149893
-0.149444
-0.148981
-0.148515
-0.148064
-0.147651
-0.147362
-0.147196
-0.146611
-0.152096
-0.152396
-0.152509
-0.152526
-0.152449
-0.152282
-0.152034
-0.151717
-0.151343
-0.150922
-0.150462
-0.149972
-0.149457
-0.148924
-0.148383
-0.147849
-0.147347
-0.14697
-0.146726
-0.145971
-0.152653
-0.152937
-0.15303
-0.153018
-0.152907
-0.152699
-0.152406
-0.152039
-0.151611
-0.151133
-0.150613
-0.150059
-0.149477
-0.148871
-0.148251
-0.147631
-0.147033
-0.146559
-0.146229
-0.14527
-0.153234
-0.153504
-0.153576
-0.153536
-0.153389
-0.153139
-0.152798
-0.15238
-0.151896
-0.151359
-0.150777
-0.150158
-0.149506
-0.148826
-0.148125
-0.147414
-0.146713
-0.146133
-0.145707
-0.144501
-0.153843
-0.1541
-0.15415
-0.15408
-0.153896
-0.153602
-0.153212
-0.15274
-0.152199
-0.151601
-0.150956
-0.15027
-0.149548
-0.148792
-0.148008
-0.147203
-0.146394
-0.145696
-0.145167
-0.14366
-0.154483
-0.154726
-0.154755
-0.154654
-0.15443
-0.154091
-0.153649
-0.153121
-0.15252
-0.15186
-0.151151
-0.150398
-0.149605
-0.148773
-0.147903
-0.147003
-0.146079
-0.145253
-0.144614
-0.142743
-0.155156
-0.155387
-0.155392
-0.155259
-0.154995
-0.154607
-0.154112
-0.153526
-0.152864
-0.15214
-0.151364
-0.150543
-0.149679
-0.148771
-0.147817
-0.146819
-0.145777
-0.144813
-0.144055
-0.141745
-0.155867
-0.156085
-0.156066
-0.155898
-0.155591
-0.155153
-0.154602
-0.153956
-0.153231
-0.152442
-0.151599
-0.15071
-0.149774
-0.14879
-0.147752
-0.146657
-0.145493
-0.144381
-0.143499
-0.140666
-0.156621
-0.156824
-0.15678
-0.156575
-0.156222
-0.155731
-0.155122
-0.154413
-0.153623
-0.152767
-0.151857
-0.150899
-0.149893
-0.148834
-0.147713
-0.146521
-0.145235
-0.143964
-0.142957
-0.139507
-0.157421
-0.157608
-0.157536
-0.157292
-0.156891
-0.156344
-0.155674
-0.1549
-0.154043
-0.153119
-0.15214
-0.151113
-0.150037
-0.148904
-0.147702
-0.146416
-0.145007
-0.143572
-0.142437
-0.138272
-0.158272
-0.158442
-0.158339
-0.158053
-0.1576
-0.156995
-0.156261
-0.15542
-0.154494
-0.1535
-0.152451
-0.151354
-0.150208
-0.149003
-0.147723
-0.146345
-0.144817
-0.14321
-0.141948
-0.136973
-0.15918
-0.159328
-0.159192
-0.158861
-0.158354
-0.157687
-0.156886
-0.155974
-0.154976
-0.153911
-0.152791
-0.151624
-0.150409
-0.149133
-0.147777
-0.146312
-0.144667
-0.142888
-0.141497
-0.135628
-0.16015
-0.160273
-0.160101
-0.159721
-0.159155
-0.158422
-0.157551
-0.156567
-0.155494
-0.154355
-0.153163
-0.151925
-0.15064
-0.149296
-0.147867
-0.146318
-0.144562
-0.142613
-0.141086
-0.134266
-0.161187
-0.161281
-0.161068
-0.160635
-0.160007
-0.159205
-0.15826
-0.157199
-0.15605
-0.154835
-0.153568
-0.152259
-0.150905
-0.149493
-0.147994
-0.146367
-0.144506
-0.142399
-0.140714
-0.132938
-0.162297
-0.162356
-0.162098
-0.161608
-0.160913
-0.160038
-0.159015
-0.157875
-0.156647
-0.155353
-0.15401
-0.152628
-0.151205
-0.149726
-0.148159
-0.146461
-0.144504
-0.142262
-0.140379
-0.131733
-0.163486
-0.163505
-0.163197
-0.162645
-0.161878
-0.160926
-0.159821
-0.158598
-0.157287
-0.155912
-0.154492
-0.153035
-0.151542
-0.149996
-0.148367
-0.146605
-0.14456
-0.142224
-0.140046
-0.1307
-0.164759
-0.164731
-0.164368
-0.163749
-0.162906
-0.161871
-0.160681
-0.159371
-0.157974
-0.156515
-0.155015
-0.153483
-0.151919
-0.150308
-0.14862
-0.146805
-0.144694
-0.142328
-0.13962
-0.129728
-0.166124
-0.16604
-0.165617
-0.164925
-0.164
-0.162878
-0.161598
-0.160198
-0.158711
-0.157166
-0.155583
-0.153974
-0.152338
-0.150664
-0.148923
-0.147074
-0.144941
-0.142679
-0.139185
-0.12925
-0.167586
-0.167438
-0.166948
-0.166177
-0.165165
-0.163951
-0.162576
-0.161082
-0.159503
-0.157869
-0.156201
-0.154512
-0.152803
-0.151067
-0.149279
-0.147414
-0.145324
-0.143381
-0.139523
-0.133209
-0.16915
-0.16893
-0.168366
-0.16751
-0.166405
-0.165093
-0.16362
-0.162027
-0.160352
-0.158626
-0.156871
-0.1551
-0.153318
-0.151518
-0.149686
-0.147818
-0.1458
-0.144271
-0.141128
-0.148047
-0.170824
-0.170521
-0.169877
-0.168929
-0.167725
-0.16631
-0.164733
-0.163038
-0.161264
-0.159442
-0.157597
-0.155743
-0.153884
-0.152019
-0.150139
-0.148265
-0.146304
-0.145122
-0.142177
-0.151627
-0.172612
-0.172216
-0.171485
-0.170439
-0.169128
-0.167605
-0.16592
-0.164118
-0.162242
-0.160322
-0.158385
-0.156443
-0.154506
-0.15257
-0.150637
-0.148741
-0.146796
-0.145787
-0.142792
-0.152142
-0.174522
-0.174022
-0.173195
-0.172043
-0.170621
-0.168984
-0.167185
-0.165273
-0.16329
-0.16127
-0.159237
-0.157206
-0.155184
-0.153173
-0.151174
-0.149236
-0.147263
-0.146275
-0.143198
-0.151819
-0.176559
-0.175943
-0.175013
-0.173748
-0.172206
-0.17045
-0.168533
-0.166507
-0.164415
-0.162291
-0.160159
-0.158034
-0.155923
-0.153828
-0.151749
-0.14974
-0.147697
-0.146607
-0.143406
-0.150853
-0.178728
-0.177985
-0.176942
-0.175557
-0.17389
-0.172008
-0.169969
-0.167825
-0.16562
-0.163388
-0.161154
-0.158931
-0.156724
-0.154533
-0.152358
-0.150248
-0.148088
-0.146795
-0.143423
-0.149443
-0.180152
-0.17899
-0.177476
-0.175677
-0.173664
-0.171498
-0.169231
-0.16691
-0.164568
-0.162227
-0.159899
-0.157587
-0.155288
-0.152995
-0.150751
-0.148431
-0.146853
-0.143273
-0.147783
-0.181159
-0.17951
-0.177572
-0.175423
-0.173124
-0.170732
-0.168291
-0.165833
-0.163381
-0.160942
-0.158514
-0.15609
-0.153656
-0.151244
-0.148722
-0.146796
-0.142983
-0.145999
-0.181663
-0.17958
-0.177289
-0.174854
-0.172331
-0.169766
-0.16719
-0.164619
-0.16206
-0.159503
-0.156936
-0.154336
-0.151722
-0.148957
-0.146639
-0.142571
-0.14417
-0.183941
-0.181706
-0.179267
-0.176692
-0.174035
-0.171342
-0.168641
-0.165945
-0.163254
-0.160553
-0.157821
-0.155028
-0.152178
-0.149136
-0.146393
-0.142052
-0.142345
-0.183955
-0.181364
-0.178643
-0.175848
-0.173022
-0.17019
-0.167359
-0.164523
-0.161661
-0.158741
-0.155726
-0.152607
-0.149255
-0.146069
-0.141439
-0.140553
-0.183583
-0.180713
-0.177776
-0.174811
-0.17184
-0.168864
-0.165868
-0.162822
-0.159689
-0.156422
-0.153003
-0.149312
-0.145671
-0.14074
-0.138805
-0.182907
-0.179822
-0.176712
-0.173593
-0.170458
-0.167284
-0.164033
-0.160657
-0.157108
-0.153359
-0.149303
-0.145205
-0.139961
-0.137103
-0.181991
-0.178729
-0.17545
-0.172141
-0.168768
-0.165284
-0.161638
-0.157775
-0.153667
-0.149226
-0.14467
-0.139107
-0.13544
-0.180862
-0.177411
-0.173909
-0.170313
-0.166569
-0.16262
-0.158413
-0.153921
-0.149076
-0.144066
-0.138178
-0.133806
-0.179475
-0.175758
-0.171913
-0.167878
-0.163594
-0.159012
-0.154113
-0.14885
-0.143391
-0.137175
-0.132186
-0.177682
-0.173557
-0.169199
-0.164547
-0.159562
-0.154235
-0.148543
-0.142643
-0.136097
-0.130567
-0.175236
-0.170519
-0.165468
-0.160052
-0.154279
-0.148149
-0.141816
-0.134942
-0.128932
-0.166342
-0.160471
-0.154237
-0.147664
-0.140906
-0.133707
-0.127269
-0.160809
-0.154102
-0.147083
-0.13991
-0.132388
-0.125562
-0.153865
-0.146401
-0.138821
-0.130982
-0.1238
-0.137635
-0.129483
-0.121971
-0.127889
-0.120067
-0.136452
-0.127938
-0.147085
-0.138235
-0.130004
-0.164754
-0.156722
-0.148499
-0.139938
-0.13201
-0.172433
-0.165248
-0.15766
-0.149833
-0.141567
-0.133967
-0.184337
-0.178588
-0.172354
-0.165654
-0.158513
-0.151091
-0.143126
-0.135886
-0.188105
-0.183242
-0.177955
-0.172201
-0.165978
-0.159285
-0.15228
-0.144622
-0.137782
-0.190768
-0.186603
-0.182133
-0.17728
-0.171985
-0.166228
-0.15998
-0.153405
-0.146058
-0.139668
-0.192661
-0.188983
-0.185133
-0.181026
-0.176576
-0.171716
-0.16641
-0.160604
-0.154469
-0.147437
-0.141558
-0.194069
-0.190703
-0.187272
-0.183708
-0.17993
-0.175854
-0.171402
-0.166532
-0.16116
-0.155476
-0.148762
-0.143469
-0.195171
-0.192012
-0.188846
-0.185641
-0.182337
-0.178859
-0.175125
-0.171055
-0.166599
-0.161651
-0.156427
-0.150032
-0.145415
-0.196046
-0.193057
-0.190072
-0.187093
-0.184094
-0.181026
-0.17782
-0.1744
-0.170682
-0.166618
-0.162081
-0.157324
-0.151249
-0.147408
-0.196687
-0.19389
-0.191065
-0.188247
-0.185443
-0.182635
-0.179782
-0.176823
-0.173686
-0.170292
-0.166594
-0.16245
-0.158166
-0.152407
-0.149459
-0.19704
-0.19449
-0.191855
-0.189191
-0.186534
-0.183896
-0.181266
-0.178609
-0.175872
-0.172991
-0.169891
-0.166532
-0.162759
-0.158948
-0.153501
-0.151572
-0.197032
-0.1948
-0.192413
-0.189937
-0.18743
-0.184929
-0.18245
-0.179986
-0.177509
-0.174974
-0.172322
-0.169486
-0.166436
-0.163009
-0.159664
-0.154523
-0.153744
-0.196577
-0.19475
-0.192677
-0.190448
-0.188129
-0.185776
-0.183427
-0.1811
-0.178792
-0.176482
-0.174129
-0.171683
-0.169083
-0.16631
-0.163198
-0.160304
-0.155461
-0.155961
-0.194264
-0.192584
-0.190665
-0.18859
-0.186424
-0.184222
-0.182021
-0.179841
-0.177683
-0.175527
-0.17334
-0.171077
-0.168685
-0.166156
-0.163325
-0.160855
-0.156297
-0.158193
-0.193304
-0.192066
-0.190526
-0.188755
-0.186831
-0.184816
-0.182761
-0.180705
-0.178668
-0.176652
-0.174642
-0.172607
-0.170507
-0.168295
-0.165976
-0.163388
-0.1613
-0.157011
-0.160387
-0.192028
-0.191093
-0.189976
-0.188571
-0.186943
-0.185164
-0.183296
-0.181386
-0.179472
-0.177573
-0.175694
-0.173821
-0.171926
-0.169972
-0.167917
-0.165771
-0.163385
-0.161619
-0.157577
-0.162462
-0.189805
-0.18899
-0.187987
-0.18671
-0.185219
-0.183583
-0.181857
-0.180089
-0.178313
-0.17655
-0.174803
-0.17306
-0.171295
-0.169471
-0.167551
-0.165545
-0.163314
-0.161792
-0.157961
-0.164284
-0.187691
-0.186988
-0.186092
-0.184937
-0.183578
-0.182079
-0.180491
-0.178861
-0.177221
-0.17559
-0.173972
-0.172353
-0.170709
-0.169003
-0.167197
-0.165298
-0.163176
-0.161795
-0.15813
-0.165657
-0.18568
-0.185079
-0.184284
-0.183244
-0.182012
-0.180645
-0.179192
-0.177696
-0.176188
-0.174686
-0.173191
-0.171692
-0.170162
-0.168563
-0.166855
-0.165034
-0.162974
-0.161611
-0.158063
-0.166356
-0.183761
-0.183256
-0.182556
-0.181626
-0.180515
-0.179275
-0.177952
-0.176586
-0.175206
-0.173828
-0.172453
-0.171069
-0.169647
-0.168148
-0.166524
-0.164755
-0.16271
-0.161213
-0.157739
-0.166153
-0.181928
-0.181512
-0.180901
-0.180076
-0.17908
-0.177961
-0.176763
-0.175523
-0.174267
-0.173009
-0.17175
-0.170476
-0.169157
-0.167751
-0.166202
-0.164468
-0.162394
-0.160587
-0.156938
-0.162848
-0.180173
-0.17984
-0.179313
-0.178587
-0.177701
-0.176698
-0.175619
-0.174499
-0.173362
-0.172221
-0.171074
-0.169905
-0.168685
-0.167367
-0.165888
-0.164183
-0.162062
-0.159873
-0.155551
-0.148406
-0.178488
-0.178233
-0.177787
-0.177154
-0.176371
-0.175479
-0.174515
-0.17351
-0.172487
-0.171456
-0.170416
-0.169349
-0.168224
-0.16699
-0.165581
-0.163913
-0.161773
-0.159289
-0.155372
-0.144577
-0.176867
-0.176687
-0.176315
-0.175771
-0.175087
-0.174299
-0.173443
-0.172548
-0.171633
-0.170709
-0.16977
-0.1688
-0.167766
-0.166616
-0.165279
-0.163666
-0.161565
-0.158995
-0.155896
-0.145077
-0.175303
-0.175194
-0.174894
-0.174433
-0.173842
-0.173154
-0.1724
-0.171608
-0.170796
-0.169972
-0.16913
-0.168252
-0.167305
-0.166236
-0.164975
-0.163431
-0.161413
-0.158888
-0.156342
-0.145997
-0.173792
-0.173751
-0.173518
-0.173137
-0.172633
-0.172038
-0.171381
-0.170687
-0.169972
-0.169242
-0.168491
-0.1677
-0.166836
-0.165846
-0.164662
-0.163196
-0.161279
-0.15886
-0.156624
-0.146908
-0.172327
-0.172352
-0.172184
-0.171877
-0.171456
-0.170949
-0.170382
-0.16978
-0.169155
-0.168514
-0.167849
-0.16714
-0.166354
-0.165441
-0.164334
-0.162951
-0.161141
-0.158868
-0.156837
-0.147932
-0.170905
-0.170995
-0.170888
-0.170651
-0.170308
-0.169882
-0.169401
-0.168884
-0.168344
-0.167786
-0.1672
-0.166568
-0.165857
-0.165018
-0.163987
-0.16269
-0.160992
-0.158889
-0.15702
-0.149028
-0.169522
-0.169676
-0.169627
-0.169456
-0.169185
-0.168837
-0.168435
-0.167997
-0.167537
-0.167055
-0.166544
-0.165984
-0.165343
-0.164575
-0.163621
-0.16241
-0.160829
-0.158908
-0.157177
-0.150115
-0.168175
-0.168391
-0.168398
-0.168289
-0.168087
-0.16781
-0.167482
-0.167118
-0.166731
-0.16632
-0.165879
-0.165386
-0.164812
-0.164113
-0.163233
-0.162112
-0.160651
-0.158913
-0.157311
-0.151144
-0.166863
-0.16714
-0.167199
-0.16715
-0.167011
-0.166801
-0.166541
-0.166246
-0.165926
-0.165582
-0.165205
-0.164775
-0.164264
-0.163631
-0.162826
-0.161795
-0.160457
-0.158899
-0.157426
-0.152088
-0.165583
-0.16592
-0.16603
-0.166035
-0.165957
-0.165809
-0.165612
-0.165381
-0.165123
-0.16484
-0.164523
-0.164152
-0.163701
-0.163133
-0.162402
-0.161461
-0.160245
-0.158862
-0.15752
-0.15293
-0.164334
-0.16473
-0.164888
-0.164946
-0.164923
-0.164832
-0.164694
-0.164521
-0.164322
-0.164095
-0.163833
-0.163519
-0.163125
-0.162619
-0.161961
-0.16111
-0.160016
-0.158799
-0.157589
-0.15366
-0.163116
-0.163569
-0.163773
-0.16388
-0.163909
-0.163872
-0.163788
-0.163669
-0.163523
-0.163349
-0.163139
-0.162876
-0.162537
-0.162092
-0.161505
-0.160744
-0.159769
-0.158707
-0.157629
-0.154273
-0.161929
-0.162437
-0.162686
-0.162839
-0.162916
-0.162929
-0.162895
-0.162826
-0.162729
-0.162603
-0.162441
-0.162227
-0.161941
-0.161554
-0.161037
-0.160363
-0.159504
-0.158584
-0.157634
-0.154767
-0.160772
-0.161335
-0.161625
-0.161822
-0.161944
-0.162003
-0.162014
-0.161991
-0.161939
-0.161859
-0.161741
-0.161574
-0.161338
-0.161007
-0.160558
-0.159968
-0.159218
-0.158428
-0.157602
-0.155146
-0.159646
-0.160262
-0.160592
-0.160829
-0.160994
-0.161095
-0.161149
-0.161168
-0.161157
-0.161118
-0.161043
-0.160919
-0.16073
-0.160453
-0.160069
-0.15956
-0.158912
-0.158238
-0.157533
-0.15541
-0.158552
-0.15922
-0.159587
-0.159863
-0.160066
-0.160206
-0.160299
-0.160356
-0.160384
-0.160383
-0.160347
-0.160264
-0.160119
-0.159895
-0.159573
-0.15914
-0.158586
-0.158016
-0.157442
-0.155549
-0.157491
-0.158209
-0.158611
-0.158922
-0.159162
-0.159337
-0.159466
-0.159559
-0.159622
-0.159656
-0.159656
-0.159612
-0.159509
-0.159333
-0.159069
-0.158707
-0.15824
-0.157769
-0.157331
-0.155562
-0.156464
-0.157229
-0.157665
-0.158009
-0.158282
-0.158491
-0.158652
-0.158778
-0.158873
-0.15894
-0.158973
-0.158964
-0.158901
-0.158771
-0.158561
-0.158263
-0.157875
-0.157483
-0.157059
-0.155666
-0.155473
-0.156283
-0.156751
-0.157125
-0.157429
-0.157668
-0.157859
-0.158014
-0.158139
-0.158235
-0.158299
-0.158323
-0.158297
-0.158209
-0.158049
-0.157811
-0.157494
-0.157173
-0.156791
-0.155685
-0.15452
-0.155372
-0.155868
-0.156272
-0.156603
-0.15687
-0.157088
-0.15727
-0.157422
-0.157545
-0.157637
-0.157691
-0.157699
-0.15765
-0.157537
-0.157353
-0.157099
-0.15684
-0.156509
-0.155601
-0.153604
-0.154497
-0.15502
-0.155449
-0.155807
-0.156098
-0.156342
-0.156548
-0.156724
-0.156871
-0.156989
-0.157071
-0.15711
-0.157097
-0.157025
-0.15689
-0.156692
-0.156488
-0.156204
-0.155449
-0.15273
-0.153659
-0.154207
-0.15466
-0.155041
-0.155355
-0.15562
-0.155848
-0.156046
-0.156216
-0.156357
-0.156464
-0.156532
-0.156551
-0.156517
-0.156425
-0.156277
-0.156119
-0.155881
-0.155253
-0.151897
-0.152859
-0.15343
-0.153904
-0.154307
-0.154641
-0.154926
-0.155174
-0.155391
-0.155581
-0.155743
-0.155873
-0.155966
-0.156015
-0.156015
-0.155962
-0.155858
-0.155741
-0.155544
-0.155021
-0.151107
-0.1521
-0.152691
-0.153185
-0.153606
-0.153959
-0.154261
-0.154527
-0.154761
-0.154969
-0.15515
-0.1553
-0.155416
-0.155491
-0.155521
-0.155503
-0.155438
-0.155356
-0.155198
-0.154767
-0.150362
-0.151383
-0.151992
-0.152502
-0.15294
-0.153308
-0.153627
-0.153907
-0.154157
-0.15438
-0.154578
-0.154746
-0.154883
-0.154982
-0.155039
-0.155052
-0.155021
-0.154971
-0.154849
-0.154497
-0.149663
-0.150708
-0.151332
-0.151858
-0.152309
-0.152692
-0.153024
-0.153318
-0.153581
-0.153818
-0.15403
-0.154214
-0.154369
-0.154489
-0.15457
-0.154611
-0.154611
-0.15459
-0.154501
-0.154218
-0.149011
-0.150076
-0.150714
-0.151252
-0.151716
-0.152111
-0.152454
-0.152759
-0.153034
-0.153282
-0.153507
-0.153705
-0.153876
-0.154014
-0.154118
-0.154183
-0.154211
-0.154216
-0.154159
-0.153938
-0.148408
-0.14949
-0.150138
-0.150687
-0.151161
-0.151565
-0.151918
-0.152233
-0.152517
-0.152776
-0.153011
-0.153221
-0.153406
-0.153561
-0.153683
-0.153771
-0.153824
-0.153853
-0.153825
-0.153662
-0.147854
-0.148948
-0.149606
-0.150162
-0.150645
-0.151057
-0.151418
-0.15174
-0.152032
-0.152299
-0.152543
-0.152764
-0.15296
-0.153129
-0.153269
-0.153377
-0.153452
-0.153504
-0.153505
-0.153394
-0.147349
-0.148453
-0.149117
-0.149679
-0.150168
-0.150586
-0.150953
-0.151281
-0.151579
-0.151852
-0.152104
-0.152334
-0.15254
-0.152722
-0.152877
-0.153003
-0.153099
-0.153172
-0.153201
-0.153139
-0.146895
-0.148004
-0.148672
-0.149239
-0.149732
-0.150154
-0.150525
-0.150857
-0.15116
-0.151438
-0.151695
-0.151932
-0.152147
-0.15234
-0.152508
-0.15265
-0.152765
-0.152859
-0.152916
-0.152899
-0.146492
-0.147602
-0.148271
-0.14884
-0.149335
-0.14976
-0.150134
-0.150468
-0.150774
-0.151056
-0.151317
-0.151559
-0.151782
-0.151983
-0.152163
-0.15232
-0.152453
-0.152567
-0.15265
-0.152676
-0.146139
-0.147246
-0.147915
-0.148484
-0.148979
-0.149405
-0.149779
-0.150115
-0.150422
-0.150706
-0.15097
-0.151216
-0.151444
-0.151654
-0.151844
-0.152014
-0.152164
-0.152297
-0.152405
-0.152473
-0.145836
-0.146938
-0.147603
-0.14817
-0.148664
-0.149089
-0.149462
-0.149798
-0.150105
-0.150389
-0.150655
-0.150903
-0.151136
-0.151351
-0.15155
-0.151732
-0.151898
-0.152049
-0.152182
-0.152288
-0.145583
-0.146675
-0.147335
-0.147898
-0.148389
-0.148811
-0.149182
-0.149516
-0.149822
-0.150105
-0.150371
-0.150621
-0.150856
-0.151076
-0.151282
-0.151475
-0.151654
-0.151823
-0.151981
-0.152123
-0.145379
-0.146458
-0.147111
-0.147668
-0.148154
-0.148571
-0.148939
-0.14927
-0.149572
-0.149854
-0.150118
-0.150367
-0.150604
-0.150828
-0.15104
-0.151242
-0.151434
-0.15162
-0.151801
-0.151977
-0.145224
-0.146285
-0.146929
-0.147478
-0.147958
-0.14837
-0.148732
-0.149058
-0.149356
-0.149634
-0.149895
-0.150143
-0.15038
-0.150606
-0.150822
-0.151032
-0.151236
-0.151438
-0.151641
-0.151849
-0.145115
-0.146157
-0.146789
-0.147329
-0.1478
-0.148205
-0.148561
-0.14888
-0.149173
-0.149445
-0.149703
-0.149948
-0.150182
-0.150409
-0.150629
-0.150845
-0.151059
-0.151276
-0.1515
-0.151737
-0.145053
-0.146071
-0.14669
-0.147219
-0.14768
-0.148076
-0.148424
-0.148736
-0.149021
-0.149287
-0.149539
-0.149779
-0.150011
-0.150237
-0.150458
-0.150679
-0.150902
-0.151133
-0.151376
-0.151638
-0.151928
-0.152284
-0.152697
-0.15315
-0.15366
-0.154236
-0.154889
-0.155631
-0.156476
-0.157434
-0.158519
-0.159742
-0.16111
-0.16263
-0.151924
-0.15232
-0.152794
-0.153321
-0.153918
-0.154598
-0.155373
-0.156258
-0.157267
-0.158415
-0.159716
-0.161183
-0.162827
-0.164651
-0.151935
-0.152365
-0.152898
-0.153496
-0.154178
-0.154959
-0.155853
-0.156877
-0.158048
-0.159382
-0.160896
-0.162604
-0.164517
-0.166643
-0.151956
-0.152414
-0.153004
-0.15367
-0.154435
-0.155314
-0.156324
-0.157484
-0.158812
-0.160328
-0.162049
-0.163993
-0.166172
-0.168594
-0.151984
-0.152464
-0.153108
-0.15384
-0.154683
-0.155657
-0.156779
-0.15807
-0.159552
-0.161244
-0.163168
-0.165342
-0.167781
-0.170494
-0.152013
-0.15251
-0.153206
-0.154
-0.154919
-0.155983
-0.157213
-0.158631
-0.160261
-0.162124
-0.164245
-0.166643
-0.169336
-0.172333
-0.15204
-0.152549
-0.153294
-0.154147
-0.155137
-0.156288
-0.157621
-0.159161
-0.160932
-0.162961
-0.165272
-0.167888
-0.170827
-0.1741
-0.152061
-0.152576
-0.153367
-0.154275
-0.155333
-0.156566
-0.157997
-0.159653
-0.161561
-0.163749
-0.166243
-0.169068
-0.172245
-0.175787
-0.152071
-0.152588
-0.153421
-0.154381
-0.155502
-0.156813
-0.158337
-0.160104
-0.162141
-0.164481
-0.16715
-0.170177
-0.173583
-0.177385
-0.152067
-0.152582
-0.153454
-0.154462
-0.155642
-0.157025
-0.158636
-0.160507
-0.162668
-0.165151
-0.167987
-0.171207
-0.174833
-0.178885
-0.152046
-0.152555
-0.153462
-0.154513
-0.155748
-0.157198
-0.158891
-0.160859
-0.163135
-0.165754
-0.168749
-0.172152
-0.175988
-0.180279
-0.185026
-0.152006
-0.152503
-0.153442
-0.154533
-0.155817
-0.157329
-0.159097
-0.161156
-0.16354
-0.166287
-0.169431
-0.173006
-0.177042
-0.181561
-0.186567
-0.151944
-0.152424
-0.153393
-0.154519
-0.155847
-0.157415
-0.159253
-0.161395
-0.163879
-0.166745
-0.170028
-0.173765
-0.177989
-0.182725
-0.18798
-0.151861
-0.152318
-0.153311
-0.154469
-0.155836
-0.157455
-0.159354
-0.161573
-0.164149
-0.167125
-0.170538
-0.174426
-0.178825
-0.183765
-0.189261
-0.151759
-0.152181
-0.153198
-0.154383
-0.155783
-0.157446
-0.159402
-0.161689
-0.164347
-0.167425
-0.170957
-0.174984
-0.179546
-0.184678
-0.190414
-0.151643
-0.152014
-0.153051
-0.154258
-0.155687
-0.157389
-0.159393
-0.161744
-0.164473
-0.167644
-0.171284
-0.175439
-0.180152
-0.185462
-0.191445
-0.151482
-0.151825
-0.15287
-0.154096
-0.155548
-0.157282
-0.159328
-0.16173
-0.16453
-0.167779
-0.171516
-0.175788
-0.180638
-0.186104
-0.192229
-0.151296
-0.15161
-0.152656
-0.153898
-0.155366
-0.157126
-0.159207
-0.161654
-0.164513
-0.167832
-0.171657
-0.176033
-0.181006
-0.186616
-0.192889
-0.151101
-0.151367
-0.152412
-0.153664
-0.155142
-0.156922
-0.159031
-0.161517
-0.164424
-0.167804
-0.171704
-0.176174
-0.181258
-0.186997
-0.193414
-0.150898
-0.151099
-0.152138
-0.153396
-0.154879
-0.156672
-0.158802
-0.161317
-0.164264
-0.167696
-0.171661
-0.176211
-0.181393
-0.187247
-0.193795
-0.150693
-0.150811
-0.151838
-0.153097
-0.154579
-0.156378
-0.158522
-0.161058
-0.164037
-0.16751
-0.171529
-0.176148
-0.181414
-0.187368
-0.194035
-0.150493
-0.150506
-0.151515
-0.15277
-0.154243
-0.156043
-0.158193
-0.160743
-0.163744
-0.167249
-0.171312
-0.175987
-0.181324
-0.187364
-0.194135
-0.201629
-0.150307
-0.15019
-0.151171
-0.15242
-0.153877
-0.15567
-0.157819
-0.160374
-0.163389
-0.166916
-0.171012
-0.175732
-0.181126
-0.18724
-0.194099
-0.201706
-0.150143
-0.149868
-0.150812
-0.152049
-0.153484
-0.155263
-0.157403
-0.159957
-0.162976
-0.166517
-0.170635
-0.175388
-0.180827
-0.186999
-0.193931
-0.201633
-0.150012
-0.149547
-0.150443
-0.151662
-0.153067
-0.154825
-0.156951
-0.159494
-0.16251
-0.166055
-0.170185
-0.17496
-0.180431
-0.186647
-0.193639
-0.201417
-0.149924
-0.149235
-0.150067
-0.151264
-0.152631
-0.154362
-0.156465
-0.15899
-0.161995
-0.165535
-0.169668
-0.174453
-0.179945
-0.186191
-0.193227
-0.201065
-0.149887
-0.148939
-0.14969
-0.15086
-0.152182
-0.153877
-0.15595
-0.158451
-0.161436
-0.164962
-0.169088
-0.173873
-0.179374
-0.185638
-0.192702
-0.200583
-0.14991
-0.148666
-0.149317
-0.150455
-0.151722
-0.153375
-0.155412
-0.157881
-0.160839
-0.164343
-0.168453
-0.173228
-0.178725
-0.184994
-0.192073
-0.19998
-0.149996
-0.148425
-0.148954
-0.150052
-0.151256
-0.15286
-0.154854
-0.157284
-0.160208
-0.163682
-0.167767
-0.172522
-0.178004
-0.184266
-0.191346
-0.199265
-0.208017
-0.150147
-0.148222
-0.148606
-0.149655
-0.150788
-0.152335
-0.15428
-0.156665
-0.159548
-0.162985
-0.167036
-0.171762
-0.17722
-0.183463
-0.19053
-0.198444
-0.207203
-0.150356
-0.148061
-0.148278
-0.149268
-0.150321
-0.151804
-0.153695
-0.156028
-0.158864
-0.162257
-0.166267
-0.170955
-0.176378
-0.18259
-0.189632
-0.197528
-0.206276
-0.150609
-0.147941
-0.147972
-0.148893
-0.149856
-0.151269
-0.1531
-0.155377
-0.15816
-0.161503
-0.165465
-0.170107
-0.175486
-0.181656
-0.18866
-0.196522
-0.205245
-0.150882
-0.147856
-0.147691
-0.148529
-0.149393
-0.150732
-0.152498
-0.154714
-0.15744
-0.160728
-0.164635
-0.169223
-0.174548
-0.180666
-0.18762
-0.195437
-0.204118
-0.151136
-0.147789
-0.147434
-0.148175
-0.148933
-0.150191
-0.15189
-0.154043
-0.156707
-0.159934
-0.163781
-0.168308
-0.173572
-0.179628
-0.18652
-0.194277
-0.202902
-0.151317
-0.147706
-0.14719
-0.147824
-0.148468
-0.149645
-0.151275
-0.153363
-0.155963
-0.159126
-0.162907
-0.167366
-0.172561
-0.178545
-0.185365
-0.19305
-0.201605
-0.210999
-0.15134
-0.147541
-0.146937
-0.147464
-0.147993
-0.149088
-0.150653
-0.152676
-0.15521
-0.158306
-0.162019
-0.166405
-0.171524
-0.177429
-0.184168
-0.191769
-0.200241
-0.209554
-0.151083
-0.147233
-0.14667
-0.147098
-0.147511
-0.148527
-0.150029
-0.151989
-0.154457
-0.157484
-0.161124
-0.165433
-0.170469
-0.176288
-0.182935
-0.190442
-0.198818
-0.208036
-0.150511
-0.146787
-0.146402
-0.146741
-0.147036
-0.14797
-0.149407
-0.1513
-0.153695
-0.156645
-0.160202
-0.164422
-0.169363
-0.175079
-0.181619
-0.189013
-0.197273
-0.206373
-0.14945
-0.145841
-0.145908
-0.146257
-0.146465
-0.147324
-0.148702
-0.15053
-0.152851
-0.155717
-0.159182
-0.163303
-0.168136
-0.173736
-0.18015
-0.187412
-0.195533
-0.204492
-0.145691
-0.142921
-0.144615
-0.145327
-0.145577
-0.146443
-0.14784
-0.149673
-0.15198
-0.154821
-0.158253
-0.162332
-0.167115
-0.172654
-0.178999
-0.186183
-0.194216
-0.20308
-0.131284
-0.136012
-0.14241
-0.144117
-0.144517
-0.14545
-0.146946
-0.148858
-0.151216
-0.154099
-0.157571
-0.161688
-0.166507
-0.172082
-0.178461
-0.185676
-0.193738
-0.202623
-0.212261
-0.130173
-0.133494
-0.140805
-0.143067
-0.143478
-0.144453
-0.146132
-0.148236
-0.150738
-0.153729
-0.157283
-0.161457
-0.166299
-0.171858
-0.178173
-0.185269
-0.193144
-0.201766
-0.211053
-0.130465
-0.132152
-0.138622
-0.141291
-0.142002
-0.143116
-0.144972
-0.147274
-0.14994
-0.153053
-0.156699
-0.160929
-0.165787
-0.171311
-0.177531
-0.184461
-0.192089
-0.200369
-0.209206
-0.130307
-0.130801
-0.135864
-0.138664
-0.139804
-0.141137
-0.143145
-0.145615
-0.148434
-0.151661
-0.15538
-0.159645
-0.164489
-0.169944
-0.176029
-0.182748
-0.19008
-0.197965
-0.206302
-0.12879
-0.128961
-0.132644
-0.135278
-0.136792
-0.138387
-0.140538
-0.143142
-0.146092
-0.149417
-0.153189
-0.157458
-0.162253
-0.167597
-0.1735
-0.179957
-0.186936
-0.194369
-0.202148
-0.125659
-0.126157
-0.128793
-0.131134
-0.132928
-0.1348
-0.137099
-0.13981
-0.142857
-0.146252
-0.150048
-0.154288