/*--------------------------------*- C++ -*----------------------------------*\
  =========                 |
  \\      /  F ield         | OpenFOAM: The Open Source CFD Toolbox
   \\    /   O peration     | Website:  https://openfoam.org
    \\  /    A nd           | Version:  7
     \\/     M anipulation  |
\*---------------------------------------------------------------------------*/
FoamFile
{
    version     2.0;
    format      ascii;
    class       surfaceScalarField;
    location    "35";
    object      phi;
}
// * * * * * * * * * * * * * * * * * * * * * * * * * * * * * * * * * * * * * //

dimensions      [0 3 -1 0 0 0 0];

internalField   nonuniform List<scalar> 
84810
(
-5.1581e-07
5.16951e-07
-1.14143e-09
-1.96338e-06
1.44803e-06
-4.65214e-10
-4.27855e-06
2.31228e-06
2.8957e-09
-7.39796e-06
3.11073e-06
8.67922e-09
-1.12593e-05
3.84468e-06
1.66098e-08
-1.58016e-05
4.51589e-06
2.64138e-08
-2.0966e-05
5.12661e-06
3.78291e-08
-2.66961e-05
5.67953e-06
5.06168e-08
-3.29387e-05
6.17794e-06
6.45736e-08
-3.96438e-05
6.62565e-06
7.95407e-08
-4.67663e-05
7.02708e-06
9.54117e-08
-5.42658e-05
7.38728e-06
1.12138e-07
-6.21074e-05
7.71193e-06
1.29729e-07
-7.02631e-05
8.00738e-06
1.48256e-07
-7.87116e-05
8.28069e-06
1.67843e-07
-8.74399e-05
8.53959e-06
1.88671e-07
-9.64433e-05
8.79243e-06
2.10963e-07
-0.000105726
9.04814e-06
2.34986e-07
-0.000115303
9.31602e-06
2.61044e-07
-0.000125198
9.60548e-06
2.89472e-07
-0.000135445
9.92573e-06
3.2064e-07
-0.000146085
1.02854e-05
3.54945e-07
-0.00015717
1.06919e-05
3.92817e-07
-0.000168754
1.11498e-05
4.34705e-07
1.16676e-05
4.81165e-07
-0.000180903
-5.14572e-07
1.03152e-06
-1.95877e-06
2.89223e-06
-4.26862e-06
4.62213e-06
-7.38091e-06
6.22302e-06
-1.12333e-05
7.69712e-06
-1.57651e-05
9.04768e-06
-2.09174e-05
1.02788e-05
-2.66336e-05
1.13958e-05
-3.28604e-05
1.24047e-05
-3.95479e-05
1.33132e-05
-4.66506e-05
1.41298e-05
-5.41279e-05
1.48646e-05
-6.19448e-05
1.55288e-05
-7.00727e-05
1.61353e-05
-7.84903e-05
1.66982e-05
-8.71838e-05
1.72331e-05
-9.61483e-05
1.7757e-05
-0.000105388
1.82879e-05
-0.000114917
1.88448e-05
-0.000124758
1.94469e-05
-0.000134945
2.0113e-05
-0.000145521
2.08609e-05
-0.000156535
2.17059e-05
-0.000168043
2.26577e-05
2.37337e-05
-0.000180109
-5.12078e-07
1.5436e-06
-1.94948e-06
4.32962e-06
-4.24861e-06
6.92126e-06
-7.34652e-06
9.32093e-06
-1.11811e-05
1.15317e-05
-1.56917e-05
1.35582e-05
-2.08193e-05
1.54065e-05
-2.65074e-05
1.70839e-05
-3.27025e-05
1.85998e-05
-3.93544e-05
1.99651e-05
-4.64172e-05
2.11926e-05
-5.38498e-05
2.22972e-05
-6.16167e-05
2.32958e-05
-6.96888e-05
2.42073e-05
-7.80437e-05
2.50531e-05
-8.66672e-05
2.58566e-05
-9.55533e-05
2.66432e-05
-0.000104706
2.74401e-05
-0.000114137
2.82761e-05
-0.00012387
2.91802e-05
-0.000133938
3.0181e-05
-0.000144383
3.13056e-05
-0.000155254
3.25772e-05
-0.000166607
3.40107e-05
3.56326e-05
-0.000178506
-5.0835e-07
2.05195e-06
-1.93558e-06
5.75685e-06
-4.21866e-06
9.20434e-06
-7.29505e-06
1.23973e-05
-1.11029e-05
1.53396e-05
-1.55817e-05
1.8037e-05
-2.06724e-05
2.04972e-05
-2.63184e-05
2.273e-05
-3.24659e-05
2.47473e-05
-3.90643e-05
2.65635e-05
-4.60672e-05
2.81955e-05
-5.34328e-05
2.96628e-05
-6.11248e-05
3.09878e-05
-6.91129e-05
3.21955e-05
-7.7374e-05
3.33142e-05
-8.58923e-05
3.43749e-05
-9.46608e-05
3.54117e-05
-0.000103682
3.64609e-05
-0.000112967
3.7561e-05
-0.000122537
3.87511e-05
-0.000132426
4.00697e-05
-0.000142674
4.15534e-05
-0.000153331
4.32338e-05
-0.000164451
4.5131e-05
4.72802e-05
-0.000176098
-5.03421e-07
2.55537e-06
-1.9172e-06
7.17063e-06
-4.17903e-06
1.14662e-05
-7.22689e-06
1.54452e-05
-1.09993e-05
1.9112e-05
-1.54358e-05
2.24735e-05
-2.04776e-05
2.55389e-05
-2.60677e-05
2.83201e-05
-3.21519e-05
3.08315e-05
-3.86793e-05
3.30908e-05
-4.56026e-05
3.51188e-05
-5.28791e-05
3.69393e-05
-6.04715e-05
3.85801e-05
-6.83481e-05
4.00721e-05
-7.64841e-05
4.14503e-05
-8.48625e-05
4.27533e-05
-9.34744e-05
4.40235e-05
-0.00010232
4.53067e-05
-0.00011141
4.66508e-05
-0.000120764
4.81054e-05
-0.000130414
4.97192e-05
-0.000140399
5.15387e-05
-0.000150769
5.36039e-05
-0.000161579
5.59407e-05
5.85928e-05
-0.000172891
-4.97335e-07
3.05271e-06
-1.89448e-06
8.56777e-06
-4.13001e-06
1.37017e-05
-7.14255e-06
1.84577e-05
-1.0871e-05
2.28405e-05
-1.52552e-05
2.68577e-05
-2.02362e-05
3.05199e-05
-2.57568e-05
3.38407e-05
-3.17625e-05
3.68372e-05
-3.82015e-05
3.95299e-05
-4.50259e-05
4.19431e-05
-5.21916e-05
4.41051e-05
-5.96599e-05
4.60484e-05
-6.73977e-05
4.78098e-05
-7.53782e-05
4.94308e-05
-8.35823e-05
5.09574e-05
-9.19989e-05
5.24402e-05
-0.000100626
5.39341e-05
-0.000109473
5.54971e-05
-0.000118557
5.71892e-05
-0.000127907
5.90699e-05
-0.000137564
6.11958e-05
-0.000147576
6.3616e-05
-0.000157998
6.63623e-05
6.9487e-05
-0.000168892
-4.90145e-07
3.54285e-06
-1.8676e-06
9.94523e-06
-4.07199e-06
1.59061e-05
-7.04264e-06
2.14284e-05
-1.0719e-05
2.65168e-05
-1.50409e-05
3.11797e-05
-1.99496e-05
3.54286e-05
-2.53876e-05
3.92787e-05
-3.12998e-05
4.27494e-05
-3.76336e-05
4.58637e-05
-4.434e-05
4.86494e-05
-5.13737e-05
5.11388e-05
-5.86941e-05
5.33689e-05
-6.62663e-05
5.5382e-05
-7.40611e-05
5.72257e-05
-8.2057e-05
5.89533e-05
-9.02404e-05
6.06235e-05
-9.86067e-05
6.23004e-05
-0.000107162
6.4052e-05
-0.000115921
6.59491e-05
-0.000124914
6.80623e-05
-0.000134177
7.04592e-05
-0.00014376
7.31986e-05
-0.000153716
7.63185e-05
7.98801e-05
-0.000164109
-4.81913e-07
4.02477e-06
-1.8368e-06
1.13001e-05
-4.00541e-06
1.80747e-05
-6.92789e-06
2.43509e-05
-1.05442e-05
3.01331e-05
-1.47944e-05
3.54299e-05
-1.96197e-05
4.02538e-05
-2.49623e-05
4.46213e-05
-3.07664e-05
4.85535e-05
-3.69786e-05
5.20759e-05
-4.35485e-05
5.52193e-05
-5.04293e-05
5.80196e-05
-5.75786e-05
6.05181e-05
-6.49588e-05
6.27622e-05
-7.25385e-05
6.48054e-05
-8.0293e-05
6.67077e-05
-8.82055e-05
6.85361e-05
-9.62685e-05
7.03634e-05
-0.000104484
7.2268e-05
-0.000112867
7.43319e-05
-0.000121442
7.66373e-05
-0.000130247
7.92636e-05
-0.000139328
8.22803e-05
-0.000148742
8.57323e-05
8.96895e-05
-0.000158552
-4.7271e-07
4.49748e-06
-1.80231e-06
1.26297e-05
-3.93077e-06
2.02032e-05
-6.79912e-06
2.72192e-05
-1.03478e-05
3.36817e-05
-1.45173e-05
3.95994e-05
-1.92484e-05
4.4985e-05
-2.44833e-05
4.98562e-05
-3.01652e-05
5.42354e-05
-3.62399e-05
5.81505e-05
-4.26553e-05
6.16348e-05
-4.93631e-05
6.47274e-05
-5.63184e-05
6.74734e-05
-6.34811e-05
6.99249e-05
-7.08168e-05
7.2141e-05
-7.82972e-05
7.41882e-05
-8.59021e-05
7.61409e-05
-9.36201e-05
7.80814e-05
-0.00010145
8.00982e-05
-0.000109403
8.22848e-05
-0.000117502
8.4736e-05
-0.000125782
8.75439e-05
-0.000134291
9.07898e-05
-0.000143086
9.45264e-05
9.88332e-05
-0.000152229
-4.62613e-07
4.96009e-06
-1.7644e-06
1.39315e-05
-3.84862e-06
2.22874e-05
-6.65721e-06
3.00278e-05
-1.01312e-05
3.71557e-05
-1.42112e-05
4.36794e-05
-1.8838e-05
4.96119e-05
-2.39532e-05
5.49714e-05
-2.94994e-05
5.97816e-05
-3.54211e-05
6.40722e-05
-4.16647e-05
6.78785e-05
-4.81798e-05
7.12424e-05
-5.4919e-05
7.42126e-05
-6.18393e-05
7.68453e-05
-6.89027e-05
7.92044e-05
-7.60772e-05
8.13627e-05
-8.33383e-05
8.34021e-05
-9.06704e-05
8.54134e-05
-9.80682e-05
8.7496e-05
-0.000105539
8.97553e-05
-0.000113102
9.22995e-05
-0.000120793
9.52347e-05
-0.000128659
9.86554e-05
-0.000136756
0.000102624
0.000107229
-0.000145152
-4.51704e-07
5.41179e-06
-1.72336e-06
1.52032e-05
-3.75955e-06
2.43236e-05
-6.50312e-06
3.27714e-05
-9.89563e-06
4.05482e-05
-1.38779e-05
4.76617e-05
-1.83907e-05
5.41246e-05
-2.33749e-05
5.99556e-05
-2.87724e-05
6.51791e-05
-3.45262e-05
6.9826e-05
-4.05812e-05
7.39335e-05
-4.68845e-05
7.75457e-05
-5.33862e-05
8.07144e-05
-6.00399e-05
8.3499e-05
-6.68036e-05
8.59681e-05
-7.36412e-05
8.82002e-05
-8.05231e-05
9.0284e-05
-8.7429e-05
9.23192e-05
-9.43487e-05
9.44157e-05
-0.000101285
9.66915e-05
-0.000108255
9.92693e-05
-0.000115291
0.000102271
-0.00012244
0.000105805
-0.000129763
0.000109946
0.000114794
-0.000137328
-4.40072e-07
5.85187e-06
-1.6795e-06
1.64426e-05
-3.66418e-06
2.63083e-05
-6.33787e-06
3.54451e-05
-9.64264e-06
4.3853e-05
-1.35195e-05
5.15385e-05
-1.79089e-05
5.85141e-05
-2.27513e-05
6.4798e-05
-2.79875e-05
7.04153e-05
-3.35592e-05
7.53976e-05
-3.94093e-05
7.97836e-05
-4.54826e-05
8.3619e-05
-5.1726e-05
8.69578e-05
-5.80895e-05
8.98625e-05
-6.4527e-05
9.24056e-05
-7.09972e-05
9.46704e-05
-7.74654e-05
9.67523e-05
-8.39055e-05
9.87593e-05
-9.03018e-05
0.000100812
-9.6652e-05
0.000103042
-0.000102969
0.000105587
-0.000109285
0.000108586
-0.000115646
0.000112166
-0.000122114
0.000116415
0.000121446
-0.000128766
-4.27808e-07
6.27967e-06
-1.63313e-06
1.76479e-05
-3.56315e-06
2.82383e-05
-6.16249e-06
3.80444e-05
-9.37369e-06
4.70642e-05
-1.31379e-05
5.53027e-05
-1.73952e-05
6.27714e-05
-2.20855e-05
6.94883e-05
-2.71485e-05
7.54783e-05
-3.25243e-05
8.07735e-05
-3.81539e-05
8.54131e-05
-4.39793e-05
8.94444e-05
-4.99443e-05
9.29228e-05
-5.59949e-05
9.59131e-05
-6.20802e-05
9.84909e-05
-6.81535e-05
0.000100744
-7.41742e-05
0.000102773
-8.01096e-05
0.000104695
-8.59377e-05
0.00010664
-9.16505e-05
0.000108755
-9.72567e-05
0.000111193
-0.000102785
0.000114114
-0.000108283
0.000117665
-0.000113818
0.00012195
0.0001271
-0.000119472
-4.15004e-07
6.69468e-06
-1.58457e-06
1.88175e-05
-3.45712e-06
3.01108e-05
-5.97804e-06
4.05653e-05
-9.09029e-06
5.01764e-05
-1.2735e-05
5.89475e-05
-1.68521e-05
6.68885e-05
-2.13804e-05
7.40167e-05
-2.62587e-05
8.03566e-05
-3.14255e-05
8.59402e-05
-3.68194e-05
9.08071e-05
-4.23799e-05
9.50048e-05
-4.8047e-05
9.85899e-05
-5.37625e-05
0.000101629
-5.94704e-05
0.000104199
-6.5118e-05
0.000106391
-7.06581e-05
0.000108313
-7.60506e-05
0.000110087
-8.12663e-05
0.000111856
-8.62904e-05
0.000113779
-9.11263e-05
0.000116029
-9.57996e-05
0.000118787
-0.00010036
0.000122226
-0.000104879
0.000126469
0.000131668
-0.000109448
-4.01755e-07
7.09643e-06
-1.53416e-06
1.99499e-05
-3.34674e-06
3.19234e-05
-5.78559e-06
4.30041e-05
-8.79395e-06
5.31848e-05
-1.23129e-05
6.24664e-05
-1.62819e-05
7.08574e-05
-2.0639e-05
7.83738e-05
-2.53217e-05
8.50393e-05
-3.02667e-05
9.08852e-05
-3.54104e-05
9.59508e-05
-4.06891e-05
0.000100284
-4.60394e-05
0.00010394
-5.13982e-05
0.000106987
-5.67041e-05
0.000109505
-6.18979e-05
0.000111585
-6.69248e-05
0.00011334
-7.17369e-05
0.000114899
-7.62963e-05
0.000116415
-8.05805e-05
0.000118063
-8.45866e-05
0.000120035
-8.83366e-05
0.000122537
-9.18819e-05
0.000125771
-9.52996e-05
0.000129887
0.000135061
-9.86923e-05
-3.88152e-07
7.48458e-06
-1.48221e-06
2.10439e-05
-3.23266e-06
3.36739e-05
-5.58616e-06
4.53576e-05
-8.48614e-06
5.60848e-05
-1.18735e-05
6.58538e-05
-1.56871e-05
7.4671e-05
-1.98641e-05
8.25509e-05
-2.43407e-05
8.95158e-05
-2.90516e-05
9.55961e-05
-3.39308e-05
0.00010083
-3.89116e-05
0.000105264
-4.39264e-05
0.000108955
-4.89074e-05
0.000111969
-5.37872e-05
0.000114384
-5.84995e-05
0.000116298
-6.29813e-05
0.000117822
-6.71757e-05
0.000119093
-7.10353e-05
0.000120275
-7.45283e-05
0.000121556
-7.76442e-05
0.000123151
-8.04008e-05
0.000125294
-8.28505e-05
0.00012822
-8.50782e-05
0.000132114
0.000137183
-8.72002e-05
-3.74289e-07
7.85887e-06
-1.42903e-06
2.20987e-05
-3.11551e-06
3.53603e-05
-5.38076e-06
4.76229e-05
-8.16826e-06
5.88723e-05
-1.14186e-05
6.91041e-05
-1.50699e-05
7.83223e-05
-1.90584e-05
8.65394e-05
-2.33186e-05
9.3776e-05
-2.77834e-05
0.000100061
-3.23842e-05
0.000105431
-3.70509e-05
0.000109931
-4.1712e-05
0.000113616
-4.62943e-05
0.000116551
-5.07241e-05
0.000118814
-5.49275e-05
0.000120501
-5.88327e-05
0.000121727
-6.23724e-05
0.000122633
-6.54887e-05
0.000123391
-6.81389e-05
0.000124206
-7.03034e-05
0.000125315
-7.19945e-05
0.000126985
-7.32652e-05
0.000129491
-7.42097e-05
0.000133059
0.000137932
-7.49593e-05
-3.60251e-07
8.21912e-06
-1.37493e-06
2.31134e-05
-2.99589e-06
3.69813e-05
-5.17035e-06
4.97974e-05
-7.84163e-06
6.15435e-05
-1.09498e-05
7.22123e-05
-1.44323e-05
8.18048e-05
-1.8224e-05
9.03311e-05
-2.22579e-05
9.78099e-05
-2.64648e-05
0.000104268
-3.07735e-05
0.000109739
-3.51102e-05
0.000114268
-3.93992e-05
0.000117905
-4.3562e-05
0.000120714
-4.75179e-05
0.00012277
-5.11851e-05
0.000124168
-5.4482e-05
0.000125024
-5.73301e-05
0.000125481
-5.96594e-05
0.000125721
-6.14146e-05
0.000125961
-6.25653e-05
0.000126466
-6.31163e-05
0.000127536
-6.3121e-05
0.000129496
-6.26836e-05
0.000132621
0.0001372
-6.19512e-05
-3.46123e-07
8.56525e-06
-1.32018e-06
2.40874e-05
-2.87435e-06
3.85355e-05
-4.95581e-06
5.18788e-05
-7.50749e-06
6.40952e-05
-1.04688e-05
7.51736e-05
-1.37761e-05
8.51121e-05
-1.73631e-05
9.39181e-05
-2.11609e-05
0.000101608
-2.50982e-05
0.000108205
-2.91007e-05
0.000113742
-3.30914e-05
0.000118259
-3.69898e-05
0.000121803
-4.07118e-05
0.000124436
-4.41698e-05
0.000126228
-4.72731e-05
0.000127271
-4.99296e-05
0.00012768
-5.20489e-05
0.000127601
-5.35468e-05
0.000127219
-5.43541e-05
0.000126769
-5.44268e-05
0.000126539
-5.37606e-05
0.000126869
-5.2408e-05
0.000128143
-5.04839e-05
0.000130697
0.000134866
-4.81505e-05
-3.31983e-07
8.89723e-06
-1.26506e-06
2.50205e-05
-2.75142e-06
4.00218e-05
-4.73793e-06
5.38653e-05
-7.16689e-06
6.65242e-05
-9.97683e-06
7.79835e-05
-1.31029e-05
8.82382e-05
-1.64773e-05
9.72925e-05
-2.00292e-05
0.00010516
-2.36849e-05
0.000111861
-2.73672e-05
0.000117424
-3.09953e-05
0.000121887
-3.4484e-05
0.000125292
-3.77434e-05
0.000127695
-4.06784e-05
0.000129163
-4.31893e-05
0.000129782
-4.51728e-05
0.000129664
-4.65249e-05
0.000128953
-4.71463e-05
0.00012784
-4.69512e-05
0.000126573
-4.58799e-05
0.000125467
-4.39163e-05
0.000124906
-4.11106e-05
0.000125338
-3.75894e-05
0.000127176
0.000130802
-3.35256e-05
-3.17902e-07
9.21513e-06
-1.20979e-06
2.59124e-05
-2.62756e-06
4.14396e-05
-4.51741e-06
5.57552e-05
-6.82078e-06
6.88276e-05
-9.47499e-06
8.06377e-05
-1.24138e-05
9.1177e-05
-1.55677e-05
0.000100446
-1.88637e-05
0.000108456
-2.22255e-05
0.000115223
-2.5573e-05
0.000120772
-2.88212e-05
0.000125135
-3.18803e-05
0.000128351
-3.46541e-05
0.000130469
-3.704e-05
0.000131549
-3.89287e-05
0.000131671
-4.02048e-05
0.00013094
-4.075e-05
0.000129498
-4.0448e-05
0.000127538
-3.91942e-05
0.00012532
-3.69101e-05
0.000123183
-3.35651e-05
0.000121561
-2.92048e-05
0.000120977
-2.39785e-05
0.00012195
0.000124871
-1.80475e-05
-3.03945e-07
9.51908e-06
-1.1546e-06
2.6763e-05
-2.50316e-06
4.27882e-05
-4.29485e-06
5.75469e-05
-6.46989e-06
7.10026e-05
-8.96414e-06
8.3132e-05
-1.17097e-05
9.39225e-05
-1.46349e-05
0.000103372
-1.76647e-05
0.000111485
-2.072e-05
0.000118278
-2.37171e-05
0.000123769
-2.65672e-05
0.000127985
-2.91753e-05
0.000130959
-3.1439e-05
0.000132733
-3.32477e-05
0.000133358
-3.44821e-05
0.000132905
-3.50144e-05
0.000131472
-3.47107e-05
0.000129194
-3.3436e-05
0.000126263
-3.10643e-05
0.000122948
-2.74952e-05
0.000119614
-2.2679e-05
0.000116745
-1.6649e-05
0.000114947
-9.58674e-06
0.000114888
0.00011732
-2.03529e-06
-2.90167e-07
9.80924e-06
-1.09966e-06
2.75725e-05
-2.37856e-06
4.40671e-05
-4.07073e-06
5.9239e-05
-6.11478e-06
7.30466e-05
-8.44483e-06
8.5462e-05
-1.09909e-05
9.64686e-05
-1.36792e-05
0.00010606
-1.64319e-05
0.000114238
-1.91669e-05
0.000121013
-2.17971e-05
0.000126399
-2.42293e-05
0.000130417
-2.63632e-05
0.000133093
-2.80901e-05
0.000134459
-2.9291e-05
0.000134559
-2.98364e-05
0.000133451
-2.95853e-05
0.000131221
-2.83874e-05
0.000127996
-2.60874e-05
0.000123963
-2.25352e-05
0.000119396
-1.76043e-05
0.000114683
-1.1221e-05
0.000110361
-3.40231e-06
0.000107129
5.72553e-06
0.00010576
0.000107368
1.5678e-05
-2.76617e-07
1.00859e-05
-1.04512e-06
2.8341e-05
-2.25401e-06
4.5276e-05
-3.84537e-06
6.08304e-05
-5.75582e-06
7.49571e-05
-7.91729e-06
8.76235e-05
-1.02575e-05
9.88088e-05
-1.26999e-05
0.000108502
-1.51639e-05
0.000116702
-1.75641e-05
0.000123413
-1.98093e-05
0.000128644
-2.1802e-05
0.00013241
-2.34363e-05
0.000134727
-2.45967e-05
0.00013562
-2.51559e-05
0.000135118
-2.49737e-05
0.000133268
-2.38955e-05
0.000130143
-2.17537e-05
0.000125854
-1.83711e-05
0.000120581
-1.35714e-05
0.000114596
-7.19759e-06
0.000108309
8.53568e-07
0.00010231
1.05807e-05
9.74014e-05
2.18062e-05
9.45344e-05
9.5014e-05
3.41598e-05
-2.63333e-07
1.03492e-05
-9.91086e-07
2.90688e-05
-2.1297e-06
4.64146e-05
-3.61897e-06
6.23196e-05
-5.39311e-06
7.67312e-05
-7.38146e-06
8.96118e-05
-9.50891e-06
0.000100936
-1.1696e-05
0.000110689
-1.38588e-05
0.000118865
-1.59081e-05
0.000125462
-1.77486e-05
0.000130485
-1.92779e-05
0.000133939
-2.03843e-05
0.000135834
-2.09451e-05
0.000136181
-2.08244e-05
0.000134997
-1.98711e-05
0.000132315
-1.79168e-05
0.000128189
-1.47756e-05
0.000122713
-1.02475e-05
0.000116053
-4.12714e-06
0.000108476
3.77668e-06
0.000100405
1.36036e-05
9.24834e-05
2.53772e-05
8.56278e-05
3.89249e-05
8.09867e-05
8.01341e-05
5.38048e-05
-2.50345e-07
1.05995e-05
-9.37637e-07
2.97561e-05
-2.00572e-06
4.74827e-05
-3.3916e-06
6.37055e-05
-5.02658e-06
7.83662e-05
-6.83692e-06
9.14222e-05
-8.74428e-06
0.000102844
-1.06658e-05
0.000112611
-1.25136e-05
0.000120713
-1.41944e-05
0.000127143
-1.56084e-05
0.000131899
-1.66476e-05
0.000134978
-1.71942e-05
0.00013638
-1.71181e-05
0.000136104
-1.62744e-05
0.000134154
-1.45007e-05
0.000130542
-1.16144e-05
0.000125302
-7.41124e-06
0.00011851
-1.66711e-06
0.000110309
5.85442e-06
0.000100954
1.53826e-05
9.08772e-05
2.70998e-05
8.07662e-05
4.10665e-05
7.16611e-05
5.71175e-05
6.49358e-05
6.25096e-05
7.4742e-05
-2.37672e-07
1.08372e-05
-8.8481e-07
3.04032e-05
-1.88208e-06
4.84799e-05
-3.16315e-06
6.49866e-05
-4.65587e-06
7.98589e-05
-6.28291e-06
9.30492e-05
-7.96216e-06
0.000104523
-9.60671e-06
0.000114255
-1.11245e-05
0.000122231
-1.24175e-05
0.000128436
-1.33806e-05
0.000132862
-1.38999e-05
0.000135498
-1.38508e-05
0.000136331
-1.30954e-05
0.000135349
-1.14795e-05
0.000132538
-8.82896e-06
0.000127891
-4.94682e-06
0.00012142
3.89841e-07
0.000113173
7.42989e-06
0.000103269
1.64423e-05
9.19417e-05
2.7698e-05
7.96215e-05
4.14288e-05
6.70355e-05
5.7742e-05
5.53479e-05
7.64899e-05
4.61878e-05
4.19032e-05
9.70963e-05
-2.25322e-07
1.10625e-05
-8.32598e-07
3.10105e-05
-1.75869e-06
4.9406e-05
-2.93336e-06
6.61613e-05
-4.2804e-06
8.1206e-05
-5.71829e-06
9.44871e-05
-7.1606e-06
0.000105965
-8.5158e-06
0.000115611
-9.68688e-06
0.000123402
-1.05705e-05
0.00012932
-1.10555e-05
0.000133347
-1.10215e-05
0.000135464
-1.03363e-05
0.000135646
-8.85369e-06
0.000133866
-6.40929e-06
0.000130093
-2.81729e-06
0.000124299
2.13408e-06
0.000116469
8.68649e-06
0.000106621
1.71136e-05
9.48414e-05
2.7718e-05
8.13374e-05
4.08149e-05
6.65246e-05
5.66917e-05
5.11586e-05
7.5514e-05
3.65256e-05
9.71647e-05
2.45371e-05
1.8057e-05
0.000121011
-2.13294e-07
1.12758e-05
-7.80955e-07
3.15782e-05
-1.6354e-06
5.02605e-05
-2.70181e-06
6.72277e-05
-3.89931e-06
8.24035e-05
-5.14158e-06
9.57294e-05
-6.33716e-06
0.000107161
-7.38925e-06
0.000116663
-8.19517e-06
0.000124208
-8.64538e-06
0.00012977
-8.62206e-06
0.000133324
-7.9973e-06
0.000134839
-6.6307e-06
0.00013428
-4.36644e-06
0.000131602
-1.02965e-06
0.000126757
3.57791e-06
0.000119691
9.68292e-06
0.000110364
1.75458e-05
9.87582e-05
2.74647e-05
8.49225e-05
3.97756e-05
6.90265e-05
5.484e-05
5.14602e-05
7.30061e-05
3.29924e-05
9.45092e-05
1.50225e-05
0.000119279
-2.32955e-07
-9.30473e-06
0.000146641
-2.01573e-07
1.14774e-05
-7.29788e-07
3.21064e-05
-1.51191e-06
5.10426e-05
-2.46789e-06
6.81837e-05
-3.51148e-06
8.34471e-05
-4.55088e-06
9.67688e-05
-5.48888e-06
0.000108099
-6.22263e-06
0.000117397
-6.64295e-06
0.000124628
-6.63323e-06
0.00012976
-6.06795e-06
0.000132758
-4.81066e-06
0.000133582
-2.71158e-06
0.000132181
3.95539e-07
0.000128495
4.69717e-06
0.000122455
1.04047e-05
0.000113984
1.77601e-05
0.000103008
2.70422e-05
8.94761e-05
3.8573e-05
7.33916e-05
5.27211e-05
5.48783e-05
6.98942e-05
3.42871e-05
9.05052e-05
1.23815e-05
0.00011487
-9.34216e-06
0.000142984
-2.83471e-05
-4.04716e-05
0.000174151
-1.90135e-07
1.16675e-05
-6.78959e-07
3.25952e-05
-1.38786e-06
5.17515e-05
-2.23082e-06
6.90266e-05
-3.11553e-06
8.43318e-05
-3.94393e-06
9.75972e-05
-4.61228e-06
0.000108767
-5.01082e-06
0.000117795
-5.02293e-06
0.00012464
-4.52391e-06
0.000129261
-3.37937e-06
0.000131614
-1.44313e-06
0.000131645
1.44529e-06
0.000129292
5.46387e-06
0.000124476
1.08119e-05
0.000117107
1.7715e-05
0.000107081
2.64308e-05
9.42925e-05
3.72565e-05
7.86504e-05
5.05369e-05
6.01112e-05
6.66712e-05
3.87441e-05
8.61114e-05
1.48468e-05
0.000109337
-1.08437e-05
0.000136752
-3.67581e-05
0.000168441
-6.00357e-05
-7.5742e-05
0.000203711
-1.7894e-07
1.18465e-05
-6.28278e-07
3.30445e-05
-1.26276e-06
5.2386e-05
-1.98964e-06
6.97535e-05
-2.70977e-06
8.50519e-05
-3.31803e-06
9.82054e-05
-3.70331e-06
0.000109152
-3.74799e-06
0.00011784
-3.32694e-06
0.000124219
-2.30624e-06
0.00012824
-5.41323e-07
0.000129849
2.12514e-06
0.000128979
5.86589e-06
0.000125551
1.08722e-05
0.00011947
1.73579e-05
0.000110621
2.55637e-05
9.88749e-05
3.57641e-05
8.40921e-05
4.82745e-05
6.614e-05
6.3461e-05
4.49247e-05
8.17505e-05
2.04546e-05
0.000103636
-7.03848e-06
0.00012966
-3.68676e-05
0.000160325
-6.7423e-05
0.000195819
-9.55303e-05
-0.000115416
0.000235493
-1.67938e-07
1.20144e-05
-5.77503e-07
3.34541e-05
-1.136e-06
5.29445e-05
-1.74317e-06
7.03607e-05
-2.29221e-06
8.56009e-05
-2.6701e-06
9.85833e-05
-2.7574e-06
0.00010924
-2.42761e-06
0.00011751
-1.546e-06
0.000123337
3.19376e-08
0.000126663
2.46235e-06
0.000127418
5.91537e-06
0.000125526
1.05777e-05
0.000120889
1.66559e-05
0.000113392
2.43799e-05
0.000102897
3.40076e-05
8.92472e-05
4.58312e-05
7.22686e-05
6.01843e-05
5.17869e-05
7.74531e-05
2.7656e-05
9.80885e-05
-1.80753e-07
0.000122618
-3.15679e-05
0.000151642
-6.58919e-05
0.000185761
-0.000101542
0.00022529
-0.000135059
-0.000159787
0.000269661
-1.57059e-07
1.21715e-05
-5.26334e-07
3.38234e-05
-1.00686e-06
5.3425e-05
-1.49003e-06
7.08439e-05
-1.86055e-06
8.59715e-05
-1.99657e-06
9.87193e-05
-1.76938e-06
0.000109012
-1.04246e-06
0.000116783
3.29779e-07
0.000121965
2.50379e-06
0.000124489
5.64896e-06
0.000124273
9.94996e-06
0.000121225
1.56095e-05
0.000115229
2.28514e-05
0.00010615
3.1924e-05
9.38247e-05
4.31043e-05
7.80668e-05
5.67037e-05
5.86692e-05
7.30748e-05
3.54158e-05
9.26218e-05
8.10888e-06
0.000115816
-2.33745e-05
0.00014321
-5.89625e-05
0.000175454
-9.81356e-05
0.000213239
-0.000139328
0.000257022
-0.000178842
-0.000209127
0.000306362
-1.4622e-07
1.23177e-05
-4.74409e-07
3.41516e-05
-8.74468e-07
5.3825e-05
-1.22862e-06
7.1198e-05
-1.41214e-06
8.6155e-05
-1.29345e-06
9.86007e-05
-7.33468e-07
0.000108452
4.15455e-07
0.000115634
2.31113e-06
0.000120069
5.1235e-06
0.000121676
9.03685e-06
0.00012036
1.42524e-05
0.000116009
2.0991e-05
0.000108491
2.9496e-05
9.76449e-05
4.00366e-05
8.32841e-05
5.29113e-05
6.51921e-05
6.84525e-05
4.3128e-05
8.70323e-05
1.6836e-05
0.000109072
-1.39312e-05
0.000135058
-4.93604e-05
0.000165561
-8.94651e-05
0.000201261
-0.000133836
0.00024293
-0.000180996
0.000291171
-0.000227083
-0.000263675
0.000345718
-1.3532e-07
1.2453e-05
-4.213e-07
3.44375e-05
-7.37836e-07
5.41416e-05
-9.57074e-07
7.14173e-05
-9.43991e-07
8.61419e-05
-5.56233e-07
9.82129e-05
3.56707e-07
0.00010754
1.95488e-06
0.000114036
4.40971e-06
0.000117615
7.90621e-06
0.00011818
1.26454e-05
0.000115621
1.88471e-05
0.000109808
2.67526e-05
0.000100585
3.66273e-05
8.77702e-05
4.87638e-05
7.11475e-05
6.34846e-05
5.04713e-05
8.11452e-05
2.54674e-05
0.000102139
-4.15751e-06
0.000126903
-3.86955e-05
0.000155934
-7.83911e-05
0.000189807
-0.000123339
0.000229217
-0.000173245
0.00027499
-0.000226769
0.000327874
-0.000279967
-0.000323613
0.000387812
-1.24236e-07
1.25772e-05
-3.66509e-07
3.46798e-05
-5.95808e-07
5.43709e-05
-6.73306e-07
7.14948e-05
-4.52721e-07
8.59213e-05
2.20082e-07
9.75401e-05
1.50819e-06
0.000106251
3.58535e-06
0.000111959
6.63806e-06
0.000114562
1.08681e-05
0.00011395
1.64951e-05
0.000109994
2.37596e-05
0.000102543
3.29256e-05
9.14194e-05
4.42831e-05
7.64127e-05
5.81509e-05
5.72798e-05
7.48779e-05
3.37443e-05
9.48453e-05
5.49998e-06
0.000118469
-2.77808e-05
0.000146201
-6.64281e-05
0.000178544
-0.000110734
0.000216069
-0.000160863
0.000259456
-0.000216633
0.000309554
-0.000276867
0.000367239
-0.000337653
-0.000389048
0.000432675
-1.12829e-07
1.26901e-05
-3.09463e-07
3.48764e-05
-4.47076e-07
5.45085e-05
-3.7495e-07
7.14226e-05
6.54349e-08
8.54809e-05
1.04102e-06
9.65645e-05
2.7287e-06
0.000104564
5.31722e-06
0.00010937
9.00968e-06
0.000110869
1.40263e-05
0.000108933
2.06073e-05
0.000103413
2.9016e-05
9.41345e-05
3.95414e-05
8.0894e-05
5.25008e-05
6.34533e-05
6.82415e-05
4.15391e-05
8.71417e-05
1.48442e-05
0.00010961
-1.69687e-05
0.000136087
-5.42572e-05
0.00016704
-9.73815e-05
0.000202974
-0.000146668
0.00024444
-0.000202329
0.000292084
-0.000264277
0.000346727
-0.00033151
0.000409342
-0.000400268
-0.000459985
0.000480279
-1.00932e-07
1.2791e-05
-2.49509e-07
3.5025e-05
-2.9017e-07
5.45492e-05
-5.93689e-08
7.11918e-05
6.14607e-07
8.4807e-05
1.91267e-06
9.52664e-05
4.02665e-06
0.00010245
7.16169e-06
0.000106235
1.1539e-05
0.000106492
1.7399e-05
0.000103073
2.50044e-05
9.58073e-05
3.46433e-05
8.44956e-05
4.66321e-05
6.89052e-05
6.13174e-05
4.87679e-05
7.90776e-05
2.37789e-05
0.000100322
-6.4004e-06
0.00012549
-4.21368e-05
0.000155046
-8.38135e-05
0.000189476
-0.000131811
0.00022928
-0.000186472
0.000274984
-0.000248033
0.000327169
-0.000316462
0.000386575
-0.000390915
0.000454219
-0.000467912
-0.00053629
0.000530524
-8.83611e-08
1.28794e-05
-1.85917e-07
3.51226e-05
-1.23452e-07
5.44867e-05
2.76333e-07
7.0792e-05
1.19939e-06
8.38839e-05
2.84164e-06
9.36242e-05
5.41112e-06
9.98803e-05
9.13075e-06
0.000102516
1.42414e-05
0.000101381
2.10054e-05
9.63091e-05
2.97096e-05
8.71031e-05
4.06691e-05
7.35361e-05
5.42295e-05
5.53449e-05
7.07689e-05
3.22286e-05
9.06983e-05
3.84949e-06
0.000114461
-3.01627e-05
0.000142526
-7.02025e-05
0.000175387
-0.000116674
0.000213543
-0.000169967
0.000257493
-0.000230422
0.000307727
-0.000298267
0.000364738
-0.000373473
0.000429125
-0.000455302
0.000501872
-0.000540659
-0.000617659
0.000583241
-7.49055e-08
1.29543e-05
-1.17872e-07
3.51655e-05
5.48873e-08
5.43139e-05
6.35356e-07
7.02116e-05
1.82474e-06
8.26945e-05
3.83509e-06
9.16138e-05
6.8919e-06
9.68234e-05
1.12372e-05
9.81703e-05
1.71331e-05
9.54855e-05
2.48654e-05
8.85768e-05
3.47471e-05
7.72214e-05
4.71216e-05
6.11615e-05
6.23655e-05
4.01009e-05
8.08899e-05
1.37042e-05
0.00010314
-1.84005e-05
0.000129592
-5.66153e-05
0.00016075
-0.00010136
0.00019713
-0.000153054
0.000239251
-0.000212087
0.000287607
-0.000278779
0.000342649
-0.000353308
0.000404766
-0.000435591
0.000474361
-0.000524896
0.000552285
-0.000618583
-0.000703579
0.000638204
-6.03324e-08
1.30146e-05
-4.44735e-08
3.51497e-05
2.46791e-07
5.40227e-05
1.02114e-06
6.94372e-05
2.496e-06
8.12197e-05
4.90069e-06
8.92092e-05
8.47938e-06
9.32447e-05
1.34947e-05
9.3155e-05
2.02313e-05
8.87489e-05
2.9e-05
7.98081e-05
4.01414e-05
6.608e-05
5.40289e-05
4.7274e-05
7.10713e-05
2.30585e-05
9.17133e-05
-6.93779e-06
0.000116435
-4.31218e-05
0.000145746
-8.59263e-05
0.00018018
-0.000135794
0.000220281
-0.000193155
0.000266583
-0.000258389
0.000319578
-0.000331774
0.000379679
-0.000413409
0.000447167
-0.000503079
0.00052221
-0.000599939
0.000605411
-0.000701784
-0.000793375
0.000695208
-4.43913e-08
1.3059e-05
3.52166e-08
3.50701e-05
4.54395e-07
5.36035e-05
1.43739e-06
6.84542e-05
3.21888e-06
7.94382e-05
6.04656e-06
8.63815e-05
1.01845e-05
8.91068e-05
1.59173e-05
8.74223e-05
2.35535e-05
8.11127e-05
3.34304e-05
6.99311e-05
4.59175e-05
5.35929e-05
6.14192e-05
3.17723e-05
8.0377e-05
4.10071e-06
0.000103269
-2.98301e-05
0.000130609
-7.04618e-05
0.00016294
-0.000118256
0.000200822
-0.000173677
0.000244823
-0.000237156
0.000295489
-0.000309055
0.000353316
-0.0003896
0.00041869
-0.000478784
0.000491804
-0.000576193
0.000572579
-0.000680714
0.000661137
-0.000790342
-0.000886523
0.000754285
-2.68059e-08
1.30858e-05
1.22232e-07
3.4921e-05
6.79944e-07
5.30458e-05
1.88801e-06
6.72462e-05
3.99938e-06
7.73268e-05
7.28124e-06
8.30996e-05
1.20188e-05
8.43692e-05
1.85197e-05
8.09214e-05
2.71179e-05
7.25145e-05
3.81784e-05
5.88706e-05
5.21003e-05
3.9671e-05
6.93198e-05
1.45528e-05
9.03109e-05
-1.68904e-05
0.000115585
-5.5104e-05
0.000145686
-0.000100563
0.000181184
-0.000153755
0.000222665
-0.000215158
0.000270711
-0.000285202
0.00032588
-0.000364224
0.000388671
-0.000452391
0.000459477
-0.00054959
0.000538491
-0.000655207
0.000625509
-0.000767733
0.000719582
-0.000884415
-0.000982914
0.000815972
-7.28054e-09
1.30931e-05
2.17704e-07
3.46961e-05
9.25813e-07
5.23377e-05
2.3771e-06
6.57949e-05
4.84376e-06
7.48601e-05
8.61355e-06
7.93298e-05
1.3994e-05
7.89887e-05
2.13169e-05
7.35985e-05
3.0943e-05
6.28885e-05
4.32655e-05
4.6548e-05
5.87142e-05
2.42223e-05
7.77566e-05
-4.4896e-06
0.000100898
-4.00323e-05
0.000128681
-8.28869e-05
0.000161677
-0.000133558
0.000200477
-0.000192555
0.000245681
-0.000260362
0.000297878
-0.000337399
0.000357623
-0.000423969
0.000425417
-0.000520186
0.000501686
-0.000625859
0.000586782
-0.000740303
0.000680935
-0.000861885
0.000782791
-0.000986271
-0.00108068
0.000880561
1.44026e-08
1.30787e-05
3.22586e-07
3.43879e-05
1.19424e-06
5.1466e-05
2.90864e-06
6.40805e-05
5.7582e-06
7.20106e-05
1.00523e-05
7.50358e-05
1.61217e-05
7.29192e-05
2.43239e-05
6.53964e-05
3.50466e-05
5.21657e-05
4.87127e-05
3.2882e-05
6.57821e-05
7.1529e-06
8.67533e-05
-2.54608e-05
0.000112162
-6.54408e-05
0.000142576
-0.000113301
0.000178588
-0.00016957
0.000220803
-0.000234771
0.000269824
-0.000309382
0.000326226
-0.000393801
0.000390544
-0.000488287
0.000463254
-0.000592896
0.000544788
-0.000707392
0.000635628
-0.000831143
0.000736584
-0.000962842
0.000851026
-0.00110071
-0.00123442
0.00100476
3.87277e-08
1.304e-05
4.38372e-07
3.39882e-05
1.48816e-06
5.04162e-05
3.48744e-06
6.20812e-05
6.74973e-06
6.87483e-05
1.1607e-05
7.01785e-05
1.84144e-05
6.61118e-05
2.75557e-05
5.62551e-05
3.94469e-05
4.02746e-05
5.454e-05
1.77888e-05
7.33253e-05
-1.16324e-05
9.63305e-05
-4.84659e-05
0.000124117
-9.32278e-05
0.000157276
-0.000146459
0.000196412
-0.000208706
0.000242133
-0.000280491
0.000295024
-0.000362274
0.000355633
-0.000454409
0.000424439
-0.000557093
0.000501848
-0.000670305
0.000588209
-0.000793754
0.000683931
-0.000926865
0.000789804
-0.00106871
0.000907776
-0.00121869
-0.00137244
0.0010458
6.59291e-08
1.2974e-05
5.66079e-07
3.34881e-05
1.8099e-06
4.91724e-05
4.11756e-06
5.97735e-05
7.82455e-06
6.50413e-05
1.32863e-05