/*--------------------------------*- C++ -*----------------------------------*\
  =========                 |
  \\      /  F ield         | OpenFOAM: The Open Source CFD Toolbox
   \\    /   O peration     | Website:  https://openfoam.org
    \\  /    A nd           | Version:  7
     \\/     M anipulation  |
\*---------------------------------------------------------------------------*/
FoamFile
{
    version     2.0;
    format      ascii;
    class       surfaceScalarField;
    location    "35";
    object      phi;
}
// * * * * * * * * * * * * * * * * * * * * * * * * * * * * * * * * * * * * * //

dimensions      [0 3 -1 0 0 0 0];

internalField   nonuniform List<scalar> 
16755
(
-0.000411769
1.00658e-05
2.07833e-07
-0.000421603
1.0278e-05
-4.43792e-07
-0.000430976
1.06321e-05
-1.25865e-06
-0.000439863
1.11346e-05
-2.24736e-06
-0.000448234
1.17866e-05
-3.41579e-06
-0.000456053
1.25806e-05
-4.76211e-06
-0.000463277
1.34983e-05
-6.27429e-06
-0.000469857
1.45082e-05
-7.92753e-06
-0.000475738
1.55634e-05
-9.6826e-06
-0.000480855
1.66003e-05
-1.14839e-05
-0.000485134
1.75395e-05
-1.32604e-05
-0.000488493
1.82676e-05
-1.49079e-05
-0.000490843
1.8678e-05
-1.63283e-05
-0.000492095
1.8546e-05
-1.72942e-05
-0.00049214
1.78073e-05
-1.77626e-05
-0.000490862
1.6289e-05
-1.75669e-05
-0.000488145
1.38597e-05
-1.6576e-05
-0.000483865
1.03699e-05
-1.46498e-05
-0.000477894
5.70451e-06
-1.16759e-05
-0.000470104
-1.82205e-07
-7.60766e-06
-0.000460375
-7.28211e-06
-2.44699e-06
-0.000448585
-1.55157e-05
3.72624e-06
-0.000434637
-2.46917e-05
1.07434e-05
-0.00041843
-3.45553e-05
1.83483e-05
-0.000399907
-4.47162e-05
2.61932e-05
-0.000378997
-5.47594e-05
3.38488e-05
-0.000355706
-6.41052e-05
4.0815e-05
-0.000329988
-7.2291e-05
4.65725e-05
-0.000301949
-7.86058e-05
5.05667e-05
-0.000271524
-8.27704e-05
5.23459e-05
-0.000238988
-8.39799e-05
5.14432e-05
-0.00020415
-8.25501e-05
4.77122e-05
-0.000167591
-7.74175e-05
4.08585e-05
-0.000128758
-7.01967e-05
3.13644e-05
-8.8837e-05
-5.89555e-05
1.90341e-05
-4.64575e-05
-4.76932e-05
5.31372e-06
-3.9362e-06
-3.23334e-05
-1.01879e-05
4.1616e-05
-2.0714e-05
-2.48382e-05
8.60137e-05
-4.993e-06
-3.94047e-05
0.000134502
2.52412e-06
-5.10125e-05
0.000180345
1.32907e-05
-5.9133e-05
0.000231688
1.30192e-05
-6.43628e-05
0.000279427
1.17966e-05
-5.95357e-05
0.000333656
2.82632e-06
-5.70547e-05
-2.90172e-05
-2.52437e-05
-0.000409785
2.02866e-05
-0.000419566
2.00583e-05
-0.000428884
1.99506e-05
-0.000437716
1.9966e-05
-0.00044603
2.01005e-05
-0.00045379
2.03413e-05
-0.000460956
2.06637e-05
-0.000467477
2.10293e-05
-0.000473297
2.1384e-05
-0.000478353
2.16558e-05
-0.000482571
2.17573e-05
-0.000485869
2.15661e-05
-0.000488158
2.09667e-05
-0.000489348
1.97361e-05
-0.000489331
1.779e-05
-0.000487991
1.49496e-05
-0.000485215
1.10834e-05
-0.000480876
6.03127e-06
-0.000474848
-3.2378e-07
-0.000467007
-8.02326e-06
-0.000457228
-1.70606e-05
-0.000445396
-2.73483e-05
-0.000431412
-3.86757e-05
-0.000415178
-5.0789e-05
-0.000396639
-6.32551e-05
-0.000375725
-7.56733e-05
-0.000352446
-8.7385e-05
-0.000326753
-9.7984e-05
-0.000298754
-0.000106604
-0.000268386
-0.000113139
-0.000235918
-0.000116448
-0.000201161
-0.000117307
-0.000164689
-0.000113889
-0.000125949
-0.000108937
-8.61164e-05
-9.87881e-05
-4.38205e-05
-8.99891e-05
-1.3737e-06
-7.47802e-05
4.41284e-05
-6.62161e-05
8.84933e-05
-4.93579e-05
0.000136969
-4.59515e-05
0.000182821
-3.25617e-05
0.000234193
-3.83525e-05
0.000281977
-3.59871e-05
0.000336236
-5.14328e-05
-8.32669e-05
-0.000405819
3.04067e-05
-0.000415497
2.97368e-05
-0.000424713
2.91661e-05
-0.00043344
2.86929e-05
-0.000441648
2.83087e-05
-0.000449302
2.7995e-05
-0.000456359
2.7721e-05
-0.000462771
2.74412e-05
-0.000468481
2.70945e-05
-0.000473426
2.66003e-05
-0.000477532
2.58636e-05
-0.000480719
2.47531e-05
-0.000482897
2.31444e-05
-0.000483976
2.08149e-05
-0.000483848
1.76619e-05
-0.000482398
1.35001e-05
-0.000479515
8.20039e-06
-0.000475069
1.5854e-06
-0.000468945
-6.44793e-06
-0.000461007
-1.59617e-05
-0.000451139
-2.6928e-05
-0.000439226
-3.92616e-05
-0.000425171
-5.27302e-05
-0.00040888
-6.70809e-05
-0.000390297
-8.18379e-05
-0.000369356
-9.66144e-05
-0.000346067
-0.000110674
-0.000320385
-0.000123666
-0.000292417
-0.000134572
-0.0002621
-0.000143456
-0.000229701
-0.000148846
-0.000195031
-0.000151977
-0.000158658
-0.000150262
-0.000120027
-0.000147568
-8.03054e-05
-0.00013851
-3.8122e-05
-0.000132173
4.22754e-06
-0.00011713
4.96303e-05
-0.000111619
9.39208e-05
-9.36484e-05
0.000142334
-9.43651e-05
0.000188148
-7.83756e-05
0.00023949
-8.96939e-05
0.000287266
-8.37634e-05
0.000341483
-0.00010565
-0.000137431
-0.000399885
4.03789e-05
-0.000409414
3.9266e-05
-0.000418479
3.82308e-05
-0.000427054
3.72677e-05
-0.000435108
3.63632e-05
-0.000442607
3.54934e-05
-0.000449507
3.46215e-05
-0.000455761
3.36952e-05
-0.000461312
3.26457e-05
-0.000466097
3.13849e-05
-0.000470043
2.98094e-05
-0.000473069
2.77795e-05
-0.000475087
2.5162e-05
-0.000476006
2.1734e-05
-0.000475718
1.73747e-05
-0.000474112
1.18938e-05
-0.000471073
5.16096e-06
-0.000466482
-3.00513e-06
-0.000460213
-1.27174e-05
-0.000452137
-2.40371e-05
-0.000442141
-3.69238e-05
-0.000430111
-5.12924e-05
-0.000415952
-6.68893e-05
-0.000399571
-8.34615e-05
-0.000380917
-0.000100492
-0.000359926
-0.000117606
-0.000336609
-0.000133991
-0.000310923
-0.000149352
-0.000282976
-0.000162519
-0.000252705
-0.000173727
-0.000220376
-0.000181175
-0.000185799
-0.000186554
-0.000149535
-0.000186526
-0.000111031
-0.000186072
-7.14417e-05
-0.000178099
-2.9399e-05
-0.000174215
1.28183e-05
-0.000159347
5.80856e-05
-0.000156886
0.000102261
-0.000137823
0.000150563
-0.000142668
0.00019629
-0.000124102
0.000247543
-0.000140947
0.00029526
-0.00013148
0.000349363
-0.000159753
-0.000191434
-0.000392006
5.01569e-05
-0.00040134
4.85996e-05
-0.000410208
4.70984e-05
-0.000418583
4.56435e-05
-0.000426437
4.4217e-05
-0.000433733
4.27895e-05
-0.00044043
4.13179e-05
-0.000446478
3.97435e-05
-0.000451822
3.79901e-05
-0.000456399
3.59614e-05
-0.000460136
3.35466e-05
-0.000462954
3.05975e-05
-0.000464764
2.69719e-05
-0.000465476
2.24459e-05
-0.000464983
1.68815e-05
-0.000463174
1.00852e-05
-0.000459935
1.92173e-06
-0.000455154
-7.78579e-06
-0.000448699
-1.9173e-05
-0.000440446
-3.22897e-05
-0.000430284
-4.70857e-05
-0.000418101
-6.3476e-05
-0.000403805
-8.11852e-05
-0.000387306
-9.99603e-05
-0.000368555
-0.000119242
-0.000347492
-0.00013867
-0.000324128
-0.000157354
-0.000298425
-0.000175055
-0.000270489
-0.000190455
-0.000240261
-0.000203955
-0.000208001
-0.000213435
-0.000173523
-0.000221032
-0.000137379
-0.00022267
-9.90183e-05
-0.000224433
-5.95824e-05
-0.000217535
-1.7708e-05
-0.00021609
2.43444e-05
-0.000201399
6.94396e-05
-0.000201981
0.000113458
-0.000181842
0.000161602
-0.000190812
0.000207194
-0.000169695
0.000258301
-0.000192053
0.000305907
-0.000179086
0.000359825
-0.000213672
-0.000245206
-0.000382212
-0.000391306
5.76929e-05
-0.000399931
5.57238e-05
-0.000408063
5.37754e-05
-0.000415671
5.18248e-05
-0.000422719
4.98375e-05
-0.000429165
4.77645e-05
-0.000434962
4.55402e-05
-0.000440054
4.30815e-05
-0.000444376
4.0284e-05
-0.000447859
3.70293e-05
-0.000450422
3.3161e-05
-0.000451979
2.85283e-05
-0.000452438
2.29054e-05
-0.000451694
1.61376e-05
-0.000449637
8.028e-06
-0.000446162
-1.5539e-06
-0.000441146
-1.28016e-05
-0.000434464
-2.58546e-05
-0.000425996
-4.07575e-05
-0.000415633
-5.74496e-05
-0.000403263
-7.58456e-05
-0.000388799
-9.56487e-05
-0.000372155
-0.000116605
-0.000353283
-0.000138114
-0.000332126
-0.000159827
-0.000308699
-0.000180781
-0.000282966
-0.000200788
-0.000255033
-0.000218388
-0.000224843
-0.000234144
-0.000192653
-0.000245625
-0.00015828
-0.000255406
-0.000122267
-0.000258683
-8.40653e-05
-0.000262635
-4.48033e-05
-0.000256797
-3.12366e-06
-0.000257769
3.87327e-05
-0.000243256
8.36191e-05
-0.000246868
0.000127442
-0.000225665
0.00017538
-0.00023875
0.000220791
-0.000215106
0.000271694
-0.000242956
0.000319139
-0.000226531
0.000372804
-0.000267337
-0.000298677
-0.000379349
6.65025e-05
-0.000387689
6.40639e-05
-0.000395533
6.16198e-05
-0.000402852
5.91431e-05
-0.000409608
5.6594e-05
-0.000415761
5.39175e-05
-0.000421263
5.10416e-05
-0.000426057
4.78759e-05
-0.000430081
4.43084e-05
-0.000433266
4.02135e-05
-0.000435531
3.54264e-05
-0.00043679
2.97877e-05
-0.000436954
2.30695e-05
-0.000435917
1.51005e-05
-0.00043357
5.68052e-06
-0.000429818
-5.3058e-06
-0.000424528
-1.80914e-05
-0.000417583
-3.28e-05
-0.000408864
-4.94758e-05
-0.000398265
-6.80489e-05
-0.000385678
-8.84325e-05
-0.000371018
-0.000110308
-0.000354203
-0.00013342
-0.000335187
-0.00015713
-0.000313918
-0.000181096
-0.000290412
-0.000204287
-0.000264638
-0.000226562
-0.000236699
-0.000246327
-0.000206546
-0.000264298
-0.000174427
-0.000277744
-0.000140165
-0.000289668
-0.000104292
-0.000294557
-6.62657e-05
-0.00030066
-2.71975e-05
-0.000295865
1.4261e-05
-0.000299228
5.58924e-05
-0.000284887
0.000100534
-0.000291509
0.000144123
-0.000269254
0.00019181
-0.000286436
0.000236994
-0.00026029
0.000287639
-0.0002936
0.000334873
-0.000273766
0.000388219
-0.000320683
-0.000351779
-0.000365514
7.49873e-05
-0.000373527
7.20773e-05
-0.000381043
6.91356e-05
-0.00038803
6.61306e-05
-0.000394454
6.30174e-05
-0.000400272
5.97353e-05
-0.000405436
5.62059e-05
-0.000409892
5.23318e-05
-0.000413577
4.79933e-05
-0.000416421
4.30578e-05
-0.000418347
3.73522e-05
-0.000419268
3.07091e-05
-0.000419096
2.28973e-05
-0.000417727
1.37314e-05
-0.00041505
3.00405e-06
-0.000410983
-9.37334e-06
-0.000405384
-2.36905e-05
-0.00039814
-4.00439e-05
-0.000389138
-5.84778e-05
-0.000378272
-7.89145e-05
-0.00036544
-0.000101265
-0.000350558
-0.00012519
-0.000333548
-0.00015043
-0.000314369
-0.000176309
-0.000292971
-0.000202494
-0.000269373
-0.000227885
-0.000243547
-0.000252388
-0.000215598
-0.000274276
-0.000185477
-0.000294418
-0.000153432
-0.000309789
-0.000119287
-0.000323812
-8.35643e-05
-0.000330279
-4.57292e-05
-0.000338496
-6.874e-06
-0.00033472
3.43387e-05
-0.000340441
7.57165e-05
-0.000326265
0.000120079
-0.000335872
0.000163397
-0.000312572
0.000210789
-0.000333827
0.000255703
-0.000305205
0.000306036
-0.000343933
0.000353012
-0.000320742
0.000405975
-0.000373646
-0.000404449
-0.000349848
8.31082e-05
-0.000357496
7.97253e-05
-0.000364645
7.6284e-05
-0.000371263
7.27485e-05
-0.000377314
6.9069e-05
-0.000382758
6.51793e-05
-0.000387547
6.09944e-05
-0.000391625
5.64104e-05
-0.000394932
5.12998e-05
-0.000397397
4.55235e-05
-0.000398946
3.89003e-05
-0.000399491
3.12544e-05
-0.000398944
2.23502e-05
-0.000397208
1.19956e-05
-0.000394167
-3.69916e-08
-0.00038975
-1.37903e-05
-0.000383807
-2.96338e-05
-0.000376233
-4.76176e-05
-0.000366918
-6.77933e-05
-0.000355758
-9.00743e-05
-0.000342654
-0.000114369
-0.000327527
-0.000140316
-0.000310303
-0.000167655
-0.000290942
-0.00019567
-0.000269401
-0.000224035
-0.000245699
-0.000251587
-0.000219814
-0.000278273
-0.000191848
-0.000302242
-0.000161761
-0.000324505
-0.000129791
-0.00034176
-9.57705e-05
-0.000357832
-6.02088e-05
-0.000365841
-2.25797e-05
-0.000376125
1.60438e-05
-0.000373344
5.6987e-05
-0.000381384
9.80841e-05
-0.000367362
0.000142135
-0.000379923
0.000185147
-0.000355584
0.000232202
-0.000380881
0.000276805
-0.000349809
0.000326775
-0.000393902
0.000373448
-0.000367415
0.000425968
-0.000426167
-0.000456629
-0.000332406
9.08291e-05
-0.000339652
8.69716e-05
-0.000346397
8.30289e-05
-0.00035261
7.89609e-05
-0.000358254
7.4713e-05
-0.000363288
7.02134e-05
-0.000367665
6.53713e-05
-0.00037133
6.00758e-05
-0.000374223
5.41923e-05
-0.000376274
4.75753e-05
-0.00037741
4.00355e-05
-0.000377544
3.13889e-05
-0.000376589
2.13949e-05
-0.000374438
9.84506e-06
-0.000371029
-3.44606e-06
-0.000366216
-1.8603e-05
-0.000359899
-3.59507e-05
-0.000351968
-5.55494e-05
-0.000342312
-7.74488e-05
-0.000330834
-0.000101553
-0.000317436
-0.000127767
-0.000302044
-0.000155708
-0.000284588
-0.000185112
-0.000265031
-0.000215226
-0.000243334
-0.000245732
-0.00021952
-0.000275402
-0.00019357
-0.000304222
-0.000165586
-0.000330226
-0.000135532
-0.000354559
-0.00010364
-0.000373652
-6.97519e-05
-0.000391721
-3.43616e-05
-0.000401231
3.04612e-06
-0.000413532
4.14204e-05
-0.000411718
8.20714e-05
-0.000422035
0.000122862
-0.000408153
0.00016657
-0.000423632
0.000209243
-0.000398257
0.000255921
-0.000427559
0.000300175
-0.000394063
0.000349733
-0.00044346
0.000396059
-0.000413742
0.000448081
-0.000478189
-0.000508263
-0.000313243
9.81163e-05
-0.000320054
9.37831e-05
-0.000326363
8.93373e-05
-0.000332137
8.47348e-05
-0.00033734
7.99164e-05
-0.000341932
7.48051e-05
-0.000345865
6.9304e-05
-0.000349085
6.32959e-05
-0.000351531
5.66387e-05
-0.000353137
4.91812e-05
-0.000353828
4.07262e-05
-0.00035352
3.10816e-05
-0.000352125
1.99999e-05
-0.000349546
7.26559e-06
-0.000345711
-7.28029e-06
-0.00034049
-2.38246e-05
-0.000333772
-4.26682e-05
-0.000325458
-6.38641e-05
-0.000315439
-8.74673e-05
-0.000303621
-0.000113371
-0.000289911
-0.000141477
-0.000274237
-0.000171382
-0.000256534
-0.000202815
-0.00023677
-0.000234991
-0.000214909
-0.000267592
-0.000190975
-0.000299336
-0.000164957
-0.000330241
-0.000136952
-0.000358231
-0.000106934
-0.000384577
-7.5126e-05
-0.00040546
-4.13777e-05
-0.000425469
-6.16917e-06
-0.00043644
3.10032e-05
-0.000450705
6.91097e-05
-0.000449825
0.000109447
-0.000462372
0.000149907
-0.000448613
0.000193243
-0.000466968
0.000235546
-0.00044056
0.00028181
-0.000473823
0.000325678
-0.00043793
0.000374778
-0.00049256
0.000420718
-0.000459682
0.00047219
-0.000529661
-0.0005593
-0.000292417
0.00010494
-0.000298764
0.00010013
-0.000304606
9.51795e-05
-0.000309912
9.00409e-05
-0.000314646
8.46501e-05
-0.000318766
7.89252e-05
-0.000322226
7.27636e-05
-0.000324971
6.60417e-05
-0.000326943
5.86102e-05
-0.000328075
5.0313e-05
-0.000328293
4.09446e-05
-0.000327516
3.03044e-05
-0.000325656
1.81398e-05
-0.000322619
4.22811e-06
-0.000318339
-1.15599e-05
-0.000312681
-2.94824e-05
-0.000305542
-4.98076e-05
-0.000296823
-7.25826e-05
-0.000286423
-9.7868e-05
-0.000274247
-0.000125546
-0.000260209
-0.000155515
-0.000244241
-0.00018735
-0.000226281
-0.000220776
-0.000206299
-0.000254972
-0.000184268
-0.000289623
-0.000160211
-0.000323393
-0.000134123
-0.000356329
-0.0001061
-0.000386254
-7.6121e-05
-0.000414556
-4.44023e-05
-0.000437179
-1.0803e-05
-0.000459068
2.42114e-05
-0.000471454
6.11347e-05
-0.000487628
9.8957e-05
-0.000487647
0.00013896
-0.000502375
0.000179066
-0.000488718
0.000222004
-0.000509906
0.000263907
-0.000482464
0.000309723
-0.000519639
0.000353171
-0.000481378
0.000401771
-0.00054116
0.000447287
-0.000505198
0.000498162
-0.000580536
-0.000609696
-0.00026999
0.000111272
-0.000275845
0.000105985
-0.000281195
0.000100529
-0.000286007
9.4853e-05
-0.000290245
8.88884e-05
-0.000293868
8.25483e-05
-0.000296829
7.57248e-05
-0.000299076
6.82883e-05
-0.000300548
6.00824e-05
-0.000301182
5.09465e-05
-0.000300904
4.06667e-05
-0.000299632
2.90325e-05
-0.000297288
1.57965e-05
-0.000293767
7.06352e-07
-0.000289025
-1.63018e-05
-0.000282909
-3.55984e-05
-0.000275329
-5.7387e-05
-0.00026619
-8.17218e-05
-0.000255392
-0.000108666
-0.000242846
-0.000138092
-0.000228468
-0.000169892
-0.000212195
-0.000203623
-0.00019397
-0.000239001
-0.000173767
-0.000275175
-0.000151563
-0.000311828
-0.000127381
-0.000347574
-0.000101225
-0.000382485
-7.31859e-05
-0.000414293
-4.32518e-05
-0.00044449
-1.16296e-05
-0.000468801
2.1811e-05
-0.000492509
5.66198e-05
-0.000506263
9.32795e-05
-0.000524288
0.000130801
-0.000525169
0.000170451
-0.000542025
0.000210181
-0.000528449
0.000252695
-0.000552419
0.000294173
-0.000523943
0.000339508
-0.000564974
0.000382506
-0.000524376
0.000430567
-0.000589221
0.000475624
-0.000550255
0.000525859
-0.000630771
-0.000659411
-0.000246019
0.00011709
-0.00025136
0.000111326
-0.000256195
0.000105364
-0.000260491
9.91493e-05
-0.000264212
9.26095e-05
-0.000267317
8.56529e-05
-0.000269759
7.81665e-05
-0.000271485
7.0015e-05
-0.000272438
6.10346e-05
-0.000272552
5.10613e-05
-0.000271759
3.98728e-05
-0.000269974
2.72476e-05
-0.00026711
1.29323e-05
-0.000263123
-3.28038e-06
-0.000257882
-2.15428e-05
-0.000251293
-4.21873e-05
-0.000243259
-6.54209e-05
-0.000233686
-9.12947e-05
-0.000222479
-0.000119874
-0.000209553
-0.000151019
-0.000194828
-0.000184616
-0.000178245
-0.000220206
-0.000159751
-0.000257494
-0.000139325
-0.000295602
-0.000116947
-0.000334206
-9.26429e-05
-0.000371878
-6.64218e-05
-0.000408706
-3.83722e-05
-0.000442343
-8.49023e-06
-0.000474372
2.30262e-05
-0.000500317
5.6298e-05
-0.00052578
9.08894e-05
-0.000540854
0.000127271
-0.00056067
0.000164476
-0.000562374
0.000203754
-0.000581303
0.00024309
-0.000567784
0.000285155
-0.000594485
0.000326185
-0.000564972
0.00037101
-0.000609799
0.000413531
-0.000566896
0.000461017
-0.000636707
0.000505584
-0.000594822
0.000555141
-0.000680329
-0.000708408
-0.000220565
0.000122374
-0.000225373
0.000116134
-0.000229675
0.000109666
-0.000233437
0.000102912
-0.000236623
9.57959e-05
-0.000239193
8.82219e-05
-0.000241098
8.0072e-05
-0.000242288
7.12051e-05
-0.000242704
6.14506e-05
-0.000242284
5.06417e-05
-0.000240959
3.85477e-05
-0.000238645
2.49334e-05
-0.000235265
9.55199e-06
-0.000230766
-7.77869e-06
-0.000225031
-2.72782e-05
-0.000217957
-4.92613e-05
-0.000209459
-7.39194e-05
-0.000199443
-0.00010131
-0.00018782
-0.000131497
-0.000174508
-0.000164331
-0.000159432
-0.000199692
-0.000142536
-0.000237102
-0.000123774
-0.000276257
-0.000103125
-0.000316251
-8.05771e-05
-0.000356754
-5.61556e-05
-0.0003963
-2.98761e-05
-0.000434986
-1.82066e-06
-0.000470398
2.79972e-05
-0.00050419
5.93977e-05
-0.000531718
9.24892e-05
-0.000558872
0.000126851
-0.000575216
0.000162941
-0.00059676
0.000199814
-0.000599247
0.000238703
-0.000620192
0.000277624
-0.000606705
0.000319222
-0.000636082
0.00035978
-0.00060553
0.00040407
-0.000654089
0.000446089
-0.000608916
0.000492967
-0.000683585
0.000537016
-0.000638871
0.000585863
-0.000729176
-0.000756658
-0.000193685
0.000127109
-0.000197945
0.000120394
-0.000201699
0.00011342
-0.000204914
0.000106127
-0.000207553
9.84345e-05
-0.000209573
9.02425e-05
-0.00021093
8.14286e-05
-0.000211571
7.18466e-05
-0.000211439
6.13185e-05
-0.000210474
4.96763e-05
-0.000208606
3.66799e-05
-0.000205754
2.20809e-05
-0.000201846
5.64396e-06
-0.000196831
-1.2793e-05
-0.000190589
-3.35207e-05
-0.000183024
-5.68259e-05
-0.000174055
-8.28882e-05
-0.000163593
-0.000111772
-0.000151551
-0.000143539
-0.000137851
-0.00017803
-0.000122425
-0.000215119
-0.000105218
-0.000254308
-8.61905e-05
-0.000295284
-6.53239e-05
-0.000337118
-4.26122e-05
-0.000379466
-1.80803e-05
-0.000420831
8.24825e-06
-0.000461314
3.62936e-05
-0.000498443
6.60426e-05
-0.000533939
9.73158e-05
-0.000562991
0.000130215
-0.000591771
0.000164333
-0.000609334
0.000200117
-0.000632544
0.000236644
-0.000635774
0.000275128
-0.000658676
0.000313619
-0.000645196
0.000354728
-0.000677192
0.000394797
-0.000645599
0.000438527
-0.000697819
0.000480023
-0.000650412
0.000526266
-0.000729827
0.000569772
-0.000682378
0.000617881
-0.000777284
-0.000804135
-0.000165432
0.000131285
-0.000169134
0.000124096
-0.000172332
0.000116618
-0.000174991
0.000108786
-0.000177073
0.000100517
-0.000178537
9.17065e-05
-0.000179337
8.22286e-05
-0.000179422
7.19321e-05
-0.000178735
6.06313e-05
-0.000177217
4.81585e-05
-0.000174799
3.42618e-05
-0.000171407
1.8689e-05
-0.000166961
1.19802e-06
-0.00016143
-1.8324e-05
-0.000154675
-4.02755e-05
-0.000146618
-6.48831e-05
-0.000137177
-9.23289e-05
-0.000126268
-0.000122682
-0.000113808
-0.000156
-9.97234e-05
-0.000192115
-8.395e-05
-0.000230892
-6.64382e-05
-0.00027182
-4.71521e-05
-0.00031457
-2.6076e-05
-0.000358194
-3.20967e-06
-0.000402332
2.1421e-05
-0.000445462
4.77876e-05
-0.000487681
7.58138e-05
-0.00052647
0.000105478
-0.000563604
0.000136611
-0.000594124
0.000169304
-0.000624463
0.000203165
-0.000643195
0.00023863
-0.000668008
0.000274796
-0.00067194
0.00031286
-0.00069674
0.000350905
-0.000683241
0.000391509
-0.000717796
0.000431071
-0.000685161
0.000474221
-0.000740969
0.000515177
-0.000691369
0.000560759
-0.000775409
0.000603702
-0.000725321
0.000651049
-0.000824631
-0.000850821
-0.000135858
0.000134895
-0.000138997
0.000127235
-0.000141633
0.000119254
-0.000143731
0.000110884
-0.000145253
0.000102039
-0.000146157
9.26107e-05
-0.000146398
8.24691e-05
-0.000145925
7.1459e-05
-0.00014468
5.93867e-05
-0.000142608
4.60863e-05
-0.000139639
3.12928e-05
-0.000135691
1.47405e-05
-0.000130739
-3.754e-06
-0.000124673
-2.43892e-05
-0.000117409
-4.75403e-05
-0.000108861
-7.34307e-05
-9.89516e-05
-0.000102238
-8.75994e-05
-0.000134034
-7.47264e-05
-0.000168873
-6.02638e-05
-0.000206577
-4.41516e-05
-0.000247004
-2.63436e-05
-0.000289628
-6.80917e-06
-0.000334105
1.44642e-05
-0.000379467
3.74712e-05
-0.000425339
6.21886e-05
-0.00047018
8.85793e-05
-0.000514071
0.000116572
-0.000554463
0.000146138
-0.000593169
0.000177117
-0.000625102
0.000209589
-0.000656936
0.00024318
-0.000676786
0.000278311
-0.00070314
0.000314103
-0.000707732
0.000351733
-0.000734371
0.000389318
-0.000720826
0.000429402
-0.000757879
0.000468443
-0.000724202
0.000510995
-0.00078352
0.000551396
-0.00073177
0.000596297
-0.00082031
0.000638658
-0.000767682
0.000685226
-0.000871199
-0.0008967
-0.000105008
0.000137938
-0.000107584
0.000129811
-0.000109659
0.000121329
-0.000111198
0.000112423
-0.000112161
0.000103002
-0.000112507
9.29568e-05
-0.000112191
8.21523e-05
-0.000111161
7.04298e-05
-0.000109362
5.75875e-05
-0.000106739
4.34629e-05
-0.000103221
2.77748e-05
-9.87354e-05
1.02549e-05
-9.32555e-05
-9.23386e-06
-8.66748e-05
-3.09699e-05
-7.89051e-05
-5.531e-05
-6.98735e-05
-8.24622e-05
-5.95029e-05
-0.000112609
-4.77164e-05
-0.00014582
-3.44405e-05
-0.000182149
-1.96102e-05
-0.000221408
-3.16917e-06
-0.000263445
1.492e-05
-0.000307717
3.46872e-05
-0.000353872
5.61436e-05
-0.000400923
7.92769e-05
-0.000448472
0.000104065
-0.000494967
0.000130463
-0.00054047
0.000158407
-0.000582406
0.000187858
-0.00062262
0.000218666
-0.000655911
0.000250904
-0.000689173
0.000284209
-0.000710092
0.000318994
-0.000737924
0.000354398
-0.000743135
0.000391582
-0.000771555
0.000428695
-0.00075794
0.000468245
-0.000797429
0.000506754
-0.000762712
0.000548692
-0.000825458
0.000588528
-0.000771606
0.00063273
-0.000864512
0.000674495
-0.000809447
0.000720269
-0.000916973
-0.000941761
-7.29234e-05
0.000140421
-7.49419e-05
0.00013183
-7.64623e-05
0.00012285
-7.74479e-05
0.000113408
-7.78596e-05
0.000103414
-7.76547e-05
9.2752e-05
-7.67881e-05
8.12856e-05
-7.52106e-05
6.88524e-05
-7.28648e-05
5.52417e-05
-6.96979e-05
4.0296e-05
-6.56401e-05
2.3717e-05
-6.06249e-05
5.23973e-06
-5.46308e-05
-1.52279e-05
-4.75408e-05
-3.80599e-05
-3.92782e-05
-6.35726e-05
-2.9774e-05
-9.19665e-05
-1.89542e-05
-0.000123429
-6.74551e-06
-0.000158029
6.91926e-06
-0.000195813
2.21009e-05
-0.000236589
3.8851e-05
-0.000280195
5.72082e-05
-0.000326075
7.71922e-05
-0.000373856
9.88133e-05
-0.000422545
0.000122054
-0.000471713
0.000146893
-0.000519807
0.000173281
-0.000566858
0.000201157
-0.000610282
0.000230476
-0.000651939
0.000261098
-0.000686533
0.000293085
-0.000721161
0.000326091
-0.000743098
0.000360515
-0.000772349
0.000395519
-0.000778139
0.000432245
-0.000808281
0.000468876
-0.000794571
0.000507881
-0.000836434
0.000545849
-0.00080068
0.000587161
-0.00086677
0.000626422
-0.000810866
0.000669913
-0.000908003
0.000711072
-0.000850605
0.000756043
-0.000961944
-0.000986
-3.96399e-05
0.000142353
-4.11123e-05
0.000133302
-4.20897e-05
0.000123827
-4.25345e-05
0.000113853
-4.24068e-05
0.000103286
-4.16639e-05
9.2009e-05
-4.02603e-05
7.98821e-05
-3.8148e-05
6.67401e-05
-3.52683e-05
5.23621e-05
-3.15692e-05
3.65969e-05
-2.6993e-05
1.91407e-05
-2.14571e-05
-2.96167e-07
-1.4965e-05
-2.172e-05
-7.37804e-06
-4.56469e-05
1.36541e-06
-7.2316e-05
1.13218e-05
-0.000101923
2.25733e-05
-0.00013468
3.51849e-05
-0.000170641
4.92205e-05
-0.000209849
6.47367e-05
-0.000252105
8.17784e-05
-0.000297237
0.000100382
-0.000344678
0.000120561
-0.000394035
0.000142326
-0.000444309
0.000165653
-0.00049504
0.000190523
-0.000544676
0.000216879
-0.000593214
0.000244668
-0.000638071
0.000273835
-0.000681107
0.000304253
-0.00071695
0.000335974
-0.000752881
0.000368666
-0.00077579
0.000402717
-0.0008064
0.000437309
-0.000812731
0.000473566
-0.000844538
0.000509707
-0.000830711
0.000548157
-0.000874884
0.000585578
-0.000838102
0.000626255
-0.000907446
0.000664936
-0.000849547
0.000707706
-0.000950774
0.00074825
-0.000891149
0.000792415
-0.00100611
-0.00102941
-5.18677e-06
0.000143752
-6.13107e-06
0.000134246
-6.58355e-06
0.000124279
-6.5058e-06
0.000113775
-5.85726e-06
0.000102638
-4.59472e-06
9.07465e-05
-2.6722e-06
7.79596e-05
-1.55056e-08
6.40834e-05
3.35065e-06
4.89959e-05
7.56058e-06
3.2387e-05
1.2663e-05
1.40383e-05
1.8648e-05
-6.28122e-06
2.56462e-05
-2.87181e-05
3.37069e-05
-5.37076e-05
4.29026e-05
-8.15118e-05
5.32991e-05
-0.000112319
6.49621e-05
-0.000146343
7.79559e-05
-0.000183634
9.23401e-05
-0.000224233
0.000108167
-0.000267932
0.000125477
-0.000314547
0.000144302
-0.000363503
0.000164653
-0.000414386
0.000186537
-0.000466194
0.000209926
-0.000518429
0.000234804
-0.000569554
0.000261106
-0.000619516
0.000288786
-0.000665751
0.000317783
-0.000710103
0.000347978
-0.000747145
0.000379416
-0.00078432
0.000411779
-0.000808154
0.000445445
-0.000840066
0.000479615
-0.000846901
0.000515394
-0.000880317
0.000551037
-0.000866354
0.000588925
-0.000912772
0.000625795
-0.000874972
0.00066583
-0.000947481
0.000703929
-0.000887646
0.000745973
-0.000992819
0.000785898
-0.000931074
0.000829256
-0.00104947
-0.00107201
3.04106e-05
2.99698e-05
0.000134687
3.00175e-05
0.000124232
3.0593e-05
0.0001132
3.17375e-05
0.000101493
3.34945e-05
8.89895e-05
3.59094e-05
7.55447e-05
3.90305e-05
6.09623e-05
4.29143e-05
4.51121e-05
4.76145e-05
2.76868e-05
5.31911e-05
8.46172e-06
5.96501e-05
-1.27403e-05
6.71037e-05
-3.61717e-05
7.56155e-05
-6.22194e-05
8.52426e-05
-9.11389e-05
9.60492e-05
-0.000123126
0.000108097
-0.000158392
0.000121447
-0.000196984
0.000136153
-0.000238939
0.000152264
-0.000284043
0.000169815
-0.000332098
0.000188836
-0.000382524
0.00020933
-0.000434881
0.000231307
-0.000488171
0.000254732
-0.000541853
0.000279591
-0.000594412
0.000305815
-0.00064574
0.000333364
-0.000693299
0.000362169
-0.000738909
0.000392122
-0.000777099
0.000423262
-0.000815459
0.000455282
-0.000840174
0.000488551
-0.000873335
0.000522289
-0.000880639
0.000557582
-0.00091561
0.000592722
-0.000901494
0.000630043
-0.000950094
0.000666361
-0.000911289
0.00070575
-0.00098687
0.000743267
-0.000925163
0.000784584
-0.00103414
0.000823889
-0.000970379
0.000866444
-0.00109202
-0.00111379
6.71651e-05
0.000134657
6.76811e-05
0.000123716
6.87227e-05
0.000112158
7.03319e-05
9.98839e-05
7.25524e-05
8.6769e-05
7.54295e-05
7.26675e-05
7.90126e-05
5.73793e-05
8.33563e-05
4.07684e-05
8.85106e-05
2.25325e-05
9.45307e-05
2.44164e-06
0.00010143
-1.96397e-05
0.000109319
-4.40603e-05
0.000118249
-7.11496e-05
0.000128277
-0.000101167
0.000139463
-0.000134312
0.000151867
-0.000170795
0.000165542
-0.000210659
0.000180539
-0.000253937
0.000196903
-0.000300407
0.000214664
-0.000349858
0.000233849
-0.000401709
0.000254458
-0.00045549
0.000276498
-0.000510211
0.00029993
-0.000565286
0.000324744
-0.000619226
0.000350864
-0.000671861
0.000378257
-0.000720693
0.00040685
-0.000767501
0.000436543
-0.000806791
0.000467367
-0.000846283
0.00049903
-0.000871837
0.000531891
-0.000906195
0.000565189
-0.000913938
0.00059999
-0.000950411
0.000634624
-0.000936128
0.000671375
-0.000986845
0.000707141
-0.000947056
0.000745883
-0.00102561
0.000782823
-0.000962103
0.000823413
-0.00107473
0.000862101
-0.00100907
0.000903863
-0.00113378
-0.00115477
0.000105432
0.000134195
0.000106377
0.000122771
0.000107846
0.000110689
0.000109882
9.78482e-05
0.000112528
8.41228e-05
0.000115831
6.93652e-05
0.000119838
5.33717e-05
0.000124605
3.60011e-05
0.000130186
1.69514e-05
0.0001366
-3.97182e-06
0.000143912
-2.69513e-05
0.000152198
-5.23466e-05
0.000161511
-8.04625e-05
0.000171904
-0.000111561
0.000183436
-0.000145844
0.000196159
-0.000183517
0.000210125
-0.000224625
0.000225379
-0.000269191
0.000241961
-0.00031699
0.000259898
-0.000367795
0.000279214
-0.000421025
0.000299904
-0.00047618
0.000321976
-0.000532282
0.000345385
-0.000588694
0.000370124
-0.000643965
0.000396114
-0.000697851
0.000423327
-0.000747906
0.000451685
-0.000795859
0.000481098
-0.000836204
0.000511591
-0.000876776
0.000542885
-0.000903131
0.000575327
-0.000938638
0.000608179
-0.000946789
0.000642483
-0.000984715
0.000676609
-0.000970254
0.000712789
-0.00102302
0.000748008
-0.000982275
0.000786105
-0.00106371
0.000822474
-0.000998471
0.000862344
-0.0011146
0.00090042
-0.00104714
0.000941399
-0.00117476
-0.00119495
0.000144753
0.000133349
0.00014608
0.000121444
0.00014793
0.000108839
0.000150347
9.54316e-05
0.000153374
8.10956e-05
0.000157057
6.56818e-05
0.000161446
4.8983e-05
0.000166595
3.08516e-05
0.000172555
1.09918e-05
0.00017933
-1.07467e-05
0.000187008
-3.46293e-05
0.000195651
-6.09894e-05
0.000205306
-9.01174e-05
0.000216025
-0.00012228
0.000227862
-0.00015768
0.000240865
-0.000196521
0.000255082
-0.000238843
0.000270554
-0.000284663
0.000287318
-0.000333754
0.000305394
-0.000385871
0.000324804
-0.000440436
0.00034554
-0.000496915
0.000367609
-0.000554351
0.000390963
-0.000612048
0.000415597
-0.000668599
0.000441429
-0.000723683
0.000468438
-0.000774914
0.000496539
-0.000823961
0.000525654
-0.000865319
0.000555801
-0.000906923
0.000586712
-0.000934042
0.000618728
-0.000970654
0.000651128
-0.000979188
0.000684932
-0.00101852
0.000718552
-0.00100388
0.000754163
-0.00105864
0.000788841
-0.00101695
0.000826298
-0.00110117
0.000862104
-0.00103428
0.000901263
-0.00115375
0.000938736
-0.00108462
0.00097895
-0.00121498
-0.00123437
0.00018511
0.000132178
0.000186763
0.000119791
0.00018894
0.000106662
0.000191685
9.26868e-05
0.000195041
7.77391e-05
0.000199055
6.1668e-05
0.000203776
4.42621e-05
0.000209259
2.53688e-05
0.000215545
4.70618e-06
0.000222638
-1.78405e-05
0.000230635
-4.26264e-05
0.000239588
-6.99421e-05
0.00024954
-0.000100069
0.00026054
-0.00013328
0.000272637
-0.000169778
0.000285877
-0.000209761
0.000300303
-0.000253269