/*--------------------------------*- C++ -*----------------------------------*\
  =========                 |
  \\      /  F ield         | OpenFOAM: The Open Source CFD Toolbox
   \\    /   O peration     | Website:  https://openfoam.org
    \\  /    A nd           | Version:  7
     \\/     M anipulation  |
\*---------------------------------------------------------------------------*/
FoamFile
{
    version     2.0;
    format      ascii;
    class       volScalarField;
    location    "45";
    object      p;
}
// * * * * * * * * * * * * * * * * * * * * * * * * * * * * * * * * * * * * * //

dimensions      [0 2 -2 0 0 0 0];

internalField   nonuniform List<scalar> 
8500
(
-0.165106
-0.166142
-0.166773
-0.167313
-0.167786
-0.168194
-0.168553
-0.168877
-0.169173
-0.169449
-0.16971
-0.169957
-0.170194
-0.170421
-0.170641
-0.170855
-0.171065
-0.171276
-0.171487
-0.171703
-0.165161
-0.166194
-0.166823
-0.167361
-0.167833
-0.168239
-0.168598
-0.16892
-0.169215
-0.16949
-0.169749
-0.169996
-0.170231
-0.170458
-0.170677
-0.17089
-0.1711
-0.17131
-0.171521
-0.171735
-0.165261
-0.166287
-0.166913
-0.167448
-0.167917
-0.16832
-0.168675
-0.168995
-0.169288
-0.16956
-0.169816
-0.17006
-0.170293
-0.170517
-0.170734
-0.170944
-0.171152
-0.17136
-0.17157
-0.171779
-0.165405
-0.166423
-0.167042
-0.167573
-0.168037
-0.168436
-0.168787
-0.169102
-0.16939
-0.169658
-0.169911
-0.17015
-0.170379
-0.170599
-0.170811
-0.171017
-0.171221
-0.171426
-0.171632
-0.171833
-0.165593
-0.166599
-0.167211
-0.167735
-0.168193
-0.168586
-0.168931
-0.169241
-0.169523
-0.169785
-0.170032
-0.170266
-0.170489
-0.170702
-0.170908
-0.171108
-0.171306
-0.171506
-0.171707
-0.171897
-0.165823
-0.166815
-0.167419
-0.167935
-0.168384
-0.16877
-0.169108
-0.16941
-0.169685
-0.16994
-0.170179
-0.170405
-0.17062
-0.170826
-0.171024
-0.171216
-0.171406
-0.1716
-0.171793
-0.171969
-0.166096
-0.167071
-0.167664
-0.16817
-0.168611
-0.168987
-0.169316
-0.169609
-0.169876
-0.170122
-0.170351
-0.170568
-0.170773
-0.170969
-0.171157
-0.171339
-0.171519
-0.171706
-0.171889
-0.172048
-0.16641
-0.167365
-0.167946
-0.168441
-0.168871
-0.169237
-0.169555
-0.169838
-0.170094
-0.170329
-0.170548
-0.170753
-0.170947
-0.171131
-0.171307
-0.171477
-0.171645
-0.171821
-0.171994
-0.172131
-0.166764
-0.167698
-0.168265
-0.168747
-0.169165
-0.169518
-0.169825
-0.170095
-0.170339
-0.170561
-0.170767
-0.170959
-0.171139
-0.171309
-0.171471
-0.171626
-0.17178
-0.171945
-0.172104
-0.172216
-0.167157
-0.168067
-0.168619
-0.169087
-0.16949
-0.169831
-0.170123
-0.17038
-0.170609
-0.170817
-0.171008
-0.171185
-0.171349
-0.171503
-0.171648
-0.171786
-0.171923
-0.172074
-0.172218
-0.1723
-0.167587
-0.168471
-0.169007
-0.16946
-0.169848
-0.170173
-0.17045
-0.170691
-0.170904
-0.171096
-0.17127
-0.171429
-0.171576
-0.17171
-0.171836
-0.171954
-0.172072
-0.172206
-0.172333
-0.172382
-0.168053
-0.16891
-0.169428
-0.169864
-0.170235
-0.170543
-0.170804
-0.171027
-0.171222
-0.171396
-0.171551
-0.17169
-0.171816
-0.171929
-0.172033
-0.172129
-0.172224
-0.172339
-0.172446
-0.172457
-0.168554
-0.169383
-0.169882
-0.170299
-0.170652
-0.170942
-0.171183
-0.171387
-0.171563
-0.171716
-0.171849
-0.171967
-0.172069
-0.172159
-0.172237
-0.172308
-0.172377
-0.172471
-0.172555
-0.172522
-0.169088
-0.169887
-0.170366
-0.170764
-0.171097
-0.171367
-0.171588
-0.171771
-0.171924
-0.172054
-0.172165
-0.172257
-0.172334
-0.172396
-0.172446
-0.172488
-0.172529
-0.172597
-0.172656
-0.172572
-0.169654
-0.170423
-0.170881
-0.171258
-0.171569
-0.171817
-0.172016
-0.172176
-0.172305
-0.17241
-0.172495
-0.17256
-0.172609
-0.172641
-0.172659
-0.172668
-0.172676
-0.172715
-0.172747
-0.172605
-0.170252
-0.170988
-0.171424
-0.17178
-0.172068
-0.172293
-0.172467
-0.172602
-0.172705
-0.172783
-0.172839
-0.172875
-0.172891
-0.17289
-0.172873
-0.172846
-0.172816
-0.172823
-0.172823
-0.172614
-0.170878
-0.171583
-0.171996
-0.172328
-0.172592
-0.172792
-0.17294
-0.173047
-0.173122
-0.17317
-0.173196
-0.173199
-0.173181
-0.173143
-0.173088
-0.173019
-0.172947
-0.172916
-0.172884
-0.172595
-0.171534
-0.172206
-0.172595
-0.172903
-0.173141
-0.173314
-0.173434
-0.173512
-0.173556
-0.173572
-0.173564
-0.173532
-0.173477
-0.173399
-0.173301
-0.173187
-0.173067
-0.172993
-0.172925
-0.172541
-0.172217
-0.172856
-0.173221
-0.173503
-0.173714
-0.173858
-0.173947
-0.173994
-0.174005
-0.173987
-0.173943
-0.173873
-0.173778
-0.173656
-0.173511
-0.173347
-0.173174
-0.173051
-0.172943
-0.172436
-0.172928
-0.173533
-0.173873
-0.174128
-0.17431
-0.174423
-0.174481
-0.174493
-0.174469
-0.174415
-0.174332
-0.174221
-0.174082
-0.173914
-0.173718
-0.173498
-0.173266
-0.173088
-0.172944
-0.172261
-0.173665
-0.174237
-0.17455
-0.174777
-0.174929
-0.175009
-0.175033
-0.175009
-0.174948
-0.174854
-0.17473
-0.174576
-0.174391
-0.174172
-0.17392
-0.173641
-0.173343
-0.173103
-0.172935
-0.172064
-0.174429
-0.174967
-0.175253
-0.175451
-0.17557
-0.175616
-0.175603
-0.175541
-0.175439
-0.175304
-0.175136
-0.174937
-0.174702
-0.17443
-0.174119
-0.173774
-0.173403
-0.17309
-0.172829
-0.17188
-0.175219
-0.175723
-0.175982
-0.176148
-0.176234
-0.176243
-0.176191
-0.176088
-0.175944
-0.175765
-0.175551
-0.175303
-0.175017
-0.174688
-0.174314
-0.173898
-0.173448
-0.173056
-0.172707
-0.171608
-0.176035
-0.176506
-0.176736
-0.17687
-0.17692
-0.17689
-0.176797
-0.176651
-0.176462
-0.176236
-0.175974
-0.175676
-0.175335
-0.174947
-0.174507
-0.174015
-0.173478
-0.172997
-0.172561
-0.171253
-0.176879
-0.177317
-0.177517
-0.177617
-0.177628
-0.177558
-0.17742
-0.177228
-0.176992
-0.176717
-0.176405
-0.176054
-0.175657
-0.175207
-0.174697
-0.174125
-0.173494
-0.172914
-0.172384
-0.170819
-0.177751
-0.178155
-0.178324
-0.178388
-0.178359
-0.178245
-0.178061
-0.177821
-0.177535
-0.177208
-0.176844
-0.176437
-0.175983
-0.175469
-0.174887
-0.174231
-0.173499
-0.172808
-0.172177
-0.1703
-0.178652
-0.179022
-0.179159
-0.179185
-0.179114
-0.178954
-0.178721
-0.178429
-0.17809
-0.17771
-0.17729
-0.176827
-0.176313
-0.175734
-0.175078
-0.174335
-0.173496
-0.172683
-0.171943
-0.169691
-0.179584
-0.179919
-0.180023
-0.18001
-0.179893
-0.179684
-0.179399
-0.179053
-0.178658
-0.178221
-0.177745
-0.177224
-0.176648
-0.176003
-0.175272
-0.17444
-0.173488
-0.172541
-0.171686
-0.168987
-0.180548
-0.180848
-0.180917
-0.180862
-0.180698
-0.180436
-0.180096
-0.179692
-0.179239
-0.178744
-0.178208
-0.177627
-0.176989
-0.176277
-0.17547
-0.174547
-0.17348
-0.172389
-0.171413
-0.168186
-0.181547
-0.181812
-0.181843
-0.181744
-0.181529
-0.181212
-0.180813
-0.180349
-0.179834
-0.179277
-0.178679
-0.178036
-0.177336
-0.176556
-0.175674
-0.174661
-0.173476
-0.17223
-0.171132
-0.167288
-0.182584
-0.182811
-0.182804
-0.182658
-0.182389
-0.182013
-0.181551
-0.181023
-0.180443
-0.179821
-0.17916
-0.178453
-0.177688
-0.176842
-0.175884
-0.174781
-0.173478
-0.17207
-0.17085
-0.166299
-0.183662
-0.18385
-0.183801
-0.183605
-0.183279
-0.182841
-0.182312
-0.181716
-0.181068
-0.180378
-0.17965
-0.178878
-0.178048
-0.177134
-0.176102
-0.174912
-0.173492
-0.171916
-0.170573
-0.165228
-0.184783
-0.184931
-0.184838
-0.184589
-0.184202
-0.183696
-0.183098
-0.18243
-0.181709
-0.180948
-0.18015
-0.179311
-0.178414
-0.177432
-0.176327
-0.175053
-0.17352
-0.171773
-0.170307
-0.164092
-0.185952
-0.186057
-0.185918
-0.185611
-0.185159
-0.184583
-0.18391
-0.183166
-0.182369
-0.181533
-0.180663
-0.179753
-0.178788
-0.177738
-0.176562
-0.175206
-0.173564
-0.17165
-0.170052
-0.162917
-0.187173
-0.187233
-0.187044
-0.186676
-0.186155
-0.185503
-0.184752
-0.183927
-0.18305
-0.182135
-0.181188
-0.180206
-0.17917
-0.178053
-0.176807
-0.175374
-0.173629
-0.171558
-0.169809
-0.161755
-0.188451
-0.188462
-0.18822
-0.187786
-0.187191
-0.18646
-0.185625
-0.184715
-0.183753
-0.182755
-0.181729
-0.180671
-0.179564
-0.178378
-0.177064
-0.175559
-0.173719
-0.171515
-0.169574
-0.160689
-0.189791
-0.189749
-0.189449
-0.188947
-0.188272
-0.187456
-0.186533
-0.185533
-0.184482
-0.183398
-0.182289
-0.181152
-0.179971
-0.178715
-0.177336
-0.175766
-0.17384
-0.171543
-0.169315
-0.159767
-0.191198
-0.191099
-0.190736
-0.19016
-0.189402
-0.188496
-0.187479
-0.186385
-0.185241
-0.184066
-0.18287
-0.181651
-0.180394
-0.17907
-0.177629
-0.176005
-0.174012
-0.171686
-0.168937
-0.158877
-0.192679
-0.192516
-0.192088
-0.191432
-0.190585
-0.189584
-0.188469
-0.187275
-0.186034
-0.184764
-0.183477
-0.182174
-0.180839
-0.179446
-0.177948
-0.176287
-0.174274
-0.17205
-0.168525
-0.158442
-0.194239
-0.194007
-0.193507
-0.192766
-0.191824
-0.190723
-0.189505
-0.188208
-0.186864
-0.185496
-0.184116
-0.182724
-0.18131
-0.179848
-0.178298
-0.176619
-0.174648
-0.172739
-0.16886
-0.162388
-0.195884
-0.195577
-0.195
-0.194168
-0.193126
-0.191919
-0.190593
-0.189188
-0.187738
-0.186268
-0.18479
-0.183308
-0.181812
-0.180279
-0.17868
-0.176994
-0.175095
-0.173598
-0.170445
-0.177169
-0.197623
-0.197232
-0.196571
-0.195643
-0.194495
-0.193178
-0.191738
-0.190221
-0.188661
-0.187085
-0.185507
-0.183932
-0.18235
-0.180745
-0.179093
-0.177396
-0.175552
-0.174401
-0.171445
-0.180716
-0.19946
-0.198979
-0.198228
-0.197197
-0.195937
-0.194503
-0.192946
-0.191312
-0.189639
-0.187954
-0.186273
-0.1846
-0.18293
-0.181248
-0.179535
-0.177812
-0.175982
-0.175003
-0.171993
-0.181182
-0.201405
-0.200823
-0.199975
-0.198835
-0.197457
-0.195902
-0.194223
-0.192468
-0.190678
-0.18888
-0.187093
-0.185321
-0.183558
-0.181791
-0.180006
-0.178235
-0.176375
-0.175417
-0.172318
-0.180799
-0.203464
-0.20277
-0.201819
-0.200563
-0.199062
-0.197379
-0.195573
-0.193694
-0.191784
-0.189872
-0.187975
-0.186098
-0.184237
-0.182377
-0.180506
-0.17866
-0.176725
-0.175666
-0.172437
-0.179764
-0.205643
-0.204828
-0.203766
-0.202387
-0.200756
-0.198942
-0.197005
-0.194998
-0.192964
-0.190934
-0.188924
-0.186939
-0.184972
-0.183009
-0.181034
-0.179082
-0.177026
-0.175765
-0.172359
-0.178281
-0.207003
-0.205821
-0.204313
-0.202546
-0.200595
-0.198523
-0.196385
-0.194225
-0.192073
-0.189947
-0.187847
-0.185766
-0.183686
-0.181587
-0.179496
-0.177277
-0.175731
-0.172114
-0.176543
-0.207992
-0.206347
-0.204438
-0.202345
-0.200134
-0.197862
-0.195573
-0.193296
-0.191048
-0.188828
-0.186621
-0.184409
-0.182162
-0.179899
-0.177474
-0.175582
-0.171729
-0.174679
-0.208495
-0.206438
-0.204199
-0.201845
-0.199435
-0.197013
-0.194609
-0.192233
-0.189883
-0.187539
-0.185176
-0.182757
-0.180287
-0.177617
-0.175334
-0.171226
-0.172772
-0.210762
-0.208552
-0.206162
-0.203662
-0.201111
-0.198553
-0.196015
-0.193506
-0.191015
-0.188519
-0.185984
-0.183366
-0.180656
-0.177706
-0.175002
-0.170623
-0.170872
-0.210786
-0.208241
-0.205591
-0.202896
-0.200198
-0.197521
-0.194868
-0.192225
-0.189559
-0.186829
-0.183984
-0.181001
-0.17774
-0.174594
-0.169931
-0.169009
-0.210441
-0.207637
-0.204794
-0.201951
-0.199128
-0.196323
-0.193512
-0.190656
-0.187706
-0.184604
-0.181318
-0.177718
-0.17412
-0.169162
-0.167198
-0.209807
-0.206812
-0.203818
-0.200841
-0.197869
-0.194874
-0.191806
-0.188609
-0.185219
-0.181601
-0.177636
-0.173584
-0.168322
-0.165441
-0.208953
-0.205802
-0.202659
-0.199507
-0.196307
-0.193001
-0.189528
-0.185821
-0.181844
-0.177494
-0.172988
-0.167414
-0.163732
-0.207904
-0.204584
-0.201234
-0.197805
-0.194234
-0.190454
-0.186401
-0.182038
-0.177287
-0.172331
-0.166442
-0.162061
-0.206613
-0.203045
-0.199362
-0.195496
-0.191378
-0.186948
-0.182179
-0.177011
-0.171612
-0.165405
-0.160415
-0.204933
-0.200967
-0.196775
-0.192287
-0.187454
-0.182256
-0.176663
-0.170828
-0.164302
-0.158778
-0.202611
-0.198059
-0.19317
-0.187906
-0.182264
-0.176236
-0.169974
-0.163131
-0.157136
-0.194014
-0.188295
-0.182193
-0.175727
-0.169047
-0.161888
-0.155473
-0.188609
-0.182037
-0.175129
-0.16804
-0.160569
-0.153776
-0.181786
-0.174438
-0.166948
-0.15917
-0.152031
-0.165767
-0.157686
-0.150226
-0.156111
-0.148351
-0.155703
-0.147951
-0.165343
-0.157269
-0.149817
-0.181344
-0.174
-0.166516
-0.158744
-0.151612
-0.188157
-0.181588
-0.174684
-0.167599
-0.160134
-0.153348
-0.198877
-0.193557
-0.187839
-0.181739
-0.175275
-0.168598
-0.161443
-0.155035
-0.202152
-0.197599
-0.19271
-0.187445
-0.181804
-0.175777
-0.169517
-0.162677
-0.156687
-0.204474
-0.200508
-0.196314
-0.191824
-0.186989
-0.18179
-0.176196
-0.170362
-0.163838
-0.158318
-0.206157
-0.202587
-0.198902
-0.195033
-0.190912
-0.186479
-0.181707
-0.176537
-0.171137
-0.16493
-0.159943
-0.207449
-0.204128
-0.200776
-0.197344
-0.19377
-0.189986
-0.185927
-0.181561
-0.176805
-0.171847
-0.165957
-0.161577
-0.208499
-0.205348
-0.202204
-0.19905
-0.195846
-0.192535
-0.189056
-0.185344
-0.18136
-0.177005
-0.172495
-0.166918
-0.163236
-0.209353
-0.206359
-0.203366
-0.200387
-0.197412
-0.194412
-0.191339
-0.188135
-0.184738
-0.181112
-0.17714
-0.173082
-0.167814
-0.164933
-0.209986
-0.207185
-0.204343
-0.2015
-0.198675
-0.195866
-0.19305
-0.190188
-0.18723
-0.184119
-0.180824
-0.177214
-0.173609
-0.168644
-0.166678
-0.21033
-0.207788
-0.20514
-0.202445
-0.199747
-0.197068
-0.194412
-0.191763
-0.18909
-0.186351
-0.183495
-0.180501
-0.177229
-0.174073
-0.169401
-0.168477
-0.210305
-0.208097
-0.20571
-0.203212
-0.200662
-0.198103
-0.195563
-0.193049
-0.190552
-0.188048
-0.185503
-0.182873
-0.18015
-0.177188
-0.174471
-0.170081
-0.170326
-0.209824
-0.208038
-0.205984
-0.203748
-0.201396
-0.198986
-0.196564
-0.194157
-0.191777
-0.189419
-0.187067
-0.184692
-0.18226
-0.179776
-0.177091
-0.174794
-0.170673
-0.172212
-0.207533
-0.205891
-0.203985
-0.201895
-0.199685
-0.197414
-0.195124
-0.192845
-0.190591
-0.188363
-0.186147
-0.183922
-0.181661
-0.179382
-0.17694
-0.175032
-0.171164
-0.174106
-0.206541
-0.205363
-0.203857
-0.202093
-0.200145
-0.198074
-0.195937
-0.193776
-0.191621
-0.189489
-0.187382
-0.18529
-0.183197
-0.181082
-0.178973
-0.176736
-0.175172
-0.171537
-0.175956
-0.205178
-0.204367
-0.203307
-0.201932
-0.200303
-0.198492
-0.196556
-0.19455
-0.192515
-0.190481
-0.188466
-0.186472
-0.184494
-0.182516
-0.180525
-0.178554
-0.176478
-0.175196
-0.171769
-0.17768
-0.202998
-0.202309
-0.20136
-0.200108
-0.198609
-0.19693
-0.195125
-0.193246
-0.191335
-0.189419
-0.187516
-0.18563
-0.183756
-0.181882
-0.179993
-0.178126
-0.176169
-0.175087
-0.171835
-0.179148
-0.200939
-0.200361
-0.199517
-0.19838
-0.197005
-0.195452
-0.193774
-0.19202
-0.190228
-0.188426
-0.186633
-0.184851
-0.183075
-0.181292
-0.179488
-0.177696
-0.175812
-0.174828
-0.171705
-0.180167
-0.198994
-0.198517
-0.197769
-0.196742
-0.195485
-0.194054
-0.192498
-0.190864
-0.189188
-0.187499
-0.185811
-0.184128
-0.182445
-0.180745
-0.179013
-0.177267
-0.175412
-0.174404
-0.171367
-0.180535
-0.197155
-0.19677
-0.196113
-0.195188
-0.194043
-0.192728
-0.19129
-0.189772
-0.18821
-0.186629
-0.185044
-0.183457
-0.181862
-0.180239
-0.178566
-0.176845
-0.174974
-0.173793
-0.170808
-0.180053
-0.195416
-0.195115
-0.194541
-0.193713
-0.192674
-0.19147
-0.190144
-0.188739
-0.187286
-0.18581
-0.184325
-0.182831
-0.18132
-0.17977
-0.178149
-0.176437
-0.17451
-0.172981
-0.169796
-0.176489
-0.19377
-0.193545
-0.193049
-0.192312
-0.191373
-0.190273
-0.189056
-0.187758
-0.186411
-0.185037
-0.183648
-0.182245
-0.180815
-0.179334
-0.177762
-0.176056
-0.174056
-0.172114
-0.168199
-0.161688
-0.19221
-0.192055
-0.19163
-0.190978
-0.190133
-0.189134
-0.18802
-0.186825
-0.185579
-0.184304
-0.183008
-0.181692
-0.180341
-0.178928
-0.177407
-0.175719
-0.173675
-0.171417
-0.167855
-0.157732
-0.19073
-0.190638
-0.19028
-0.189707
-0.188952
-0.188047
-0.18703
-0.185934
-0.184786
-0.183605
-0.182399
-0.181167
-0.179894
-0.178549
-0.177084
-0.175432
-0.173408
-0.171046
-0.168258
-0.15816
-0.189323
-0.189289
-0.188993
-0.188495
-0.187823
-0.187008
-0.186084
-0.185082
-0.184027
-0.182935
-0.181816
-0.180665
-0.179467
-0.178191
-0.176787
-0.175188
-0.17323
-0.170897
-0.168629
-0.159043
-0.187984
-0.188003
-0.187765
-0.187336
-0.186743
-0.186013
-0.185177
-0.184264
-0.183297
-0.182292
-0.181255
-0.180182
-0.179058
-0.17785
-0.176511
-0.174977
-0.173103
-0.170864
-0.168881
-0.159958
-0.186708
-0.186776
-0.186592
-0.186227
-0.185708
-0.185057
-0.184305
-0.183477
-0.182594
-0.181671
-0.180713
-0.179716
-0.178662
-0.177523
-0.176251
-0.174788
-0.173009
-0.170902
-0.16911
-0.161019
-0.185489
-0.185603
-0.185468
-0.185165
-0.184715
-0.184139
-0.183465
-0.182717
-0.181914
-0.181069
-0.180187
-0.179262
-0.178278
-0.177206
-0.176003
-0.174617
-0.172941
-0.17099
-0.169349
-0.162176
-0.184322
-0.184479
-0.184392
-0.184145
-0.18376
-0.183255
-0.182655
-0.181983
-0.181256
-0.180485
-0.179675
-0.17882
-0.177903
-0.176899
-0.175767
-0.174462
-0.172894
-0.17111
-0.1696
-0.163347
-0.183204
-0.183402
-0.183358
-0.183165
-0.182841
-0.182402
-0.181872
-0.181271
-0.180616
-0.179916
-0.179175
-0.178387
-0.177537
-0.1766
-0.17554
-0.174319
-0.172865
-0.171251
-0.169864
-0.164481
-0.182131
-0.182368
-0.182365
-0.182222
-0.181955
-0.181578
-0.181114
-0.180581
-0.179994
-0.179362
-0.178687
-0.177964
-0.177179
-0.176308
-0.175323
-0.174189
-0.172851
-0.171404
-0.17014
-0.165551
-0.181099
-0.181373
-0.181409
-0.181313
-0.181099
-0.180782
-0.18038
-0.179911
-0.179388
-0.17882
-0.178209
-0.177549
-0.176828
-0.176024
-0.175114
-0.174069
-0.172849
-0.171565
-0.170423
-0.16654
-0.180106
-0.180415
-0.180488
-0.180436
-0.180273
-0.180011
-0.179667
-0.179259
-0.178797
-0.178291
-0.177741
-0.177143
-0.176484
-0.175748
-0.174913
-0.173958
-0.172856
-0.171725
-0.170706
-0.167439
-0.179148
-0.179492
-0.1796
-0.17959
-0.179475
-0.179264
-0.178976
-0.178624
-0.178221
-0.177774
-0.177283
-0.176744
-0.176148
-0.175478
-0.174718
-0.173854
-0.172867
-0.171881
-0.170982
-0.168242
-0.178224
-0.178602
-0.178744
-0.178773
-0.178702
-0.178541
-0.178304
-0.178007
-0.177659
-0.177268
-0.176834
-0.176353
-0.175817
-0.175214
-0.17453
-0.173755
-0.17288
-0.172028
-0.171244
-0.168951
-0.177331
-0.177743
-0.177917
-0.177983
-0.177955
-0.17784
-0.177652
-0.177406
-0.177111
-0.176773
-0.176394
-0.17597
-0.175494
-0.174955
-0.174345
-0.173657
-0.17289
-0.17216
-0.171485
-0.169566
-0.176468
-0.176914
-0.177118
-0.17722
-0.177232
-0.17716
-0.177019
-0.176821
-0.176576
-0.176289
-0.175963
-0.175593
-0.175175
-0.174701
-0.174163
-0.173559
-0.172893
-0.172274
-0.171701
-0.170092
-0.175634
-0.176114
-0.176347
-0.176483
-0.176533
-0.176502
-0.176404
-0.176252
-0.176054
-0.175816
-0.17554
-0.175224
-0.174863
-0.17445
-0.173982
-0.173459
-0.172887
-0.172367
-0.171888
-0.170536
-0.174828
-0.175341
-0.175603
-0.175771
-0.175857
-0.175864
-0.175808
-0.175699
-0.175546
-0.175355
-0.175127
-0.174862
-0.174554
-0.174201
-0.1738
-0.173353
-0.172868
-0.172437
-0.172046
-0.170902
-0.17405
-0.174596
-0.174886
-0.175084
-0.175204
-0.175248
-0.17523
-0.175162
-0.175052
-0.174905
-0.174723
-0.174506
-0.174251
-0.173955
-0.173617
-0.173241
-0.172836
-0.172485
-0.172184
-0.171186
-0.173299
-0.173878
-0.174194
-0.174422
-0.174574
-0.174652
-0.174671
-0.174642
-0.174572
-0.174466
-0.174328
-0.174157
-0.173952
-0.17371
-0.173432
-0.173122
-0.17279
-0.172513
-0.17231
-0.171381
-0.172575
-0.173187
-0.173529
-0.173785
-0.173967
-0.174078
-0.174132
-0.174138
-0.174106
-0.17404
-0.173943
-0.173816
-0.173657
-0.173466
-0.173243
-0.172995
-0.172729
-0.172514
-0.172331
-0.171604
-0.171878
-0.172523
-0.17289
-0.173173
-0.173384
-0.173526
-0.173611
-0.173652
-0.173655
-0.173626
-0.173568
-0.173482
-0.173367
-0.173223
-0.173053
-0.17286
-0.172655
-0.172496
-0.172349
-0.171799
-0.171209
-0.171887
-0.172279
-0.172587
-0.172825
-0.172995
-0.173111
-0.173183
-0.173219
-0.173225
-0.173203
-0.173156
-0.173082
-0.172983
-0.17286
-0.172718
-0.172567
-0.172458
-0.172351
-0.171925
-0.170569
-0.171278
-0.171694
-0.172027
-0.17229
-0.172488
-0.172632
-0.172733
-0.1728
-0.172838
-0.172851
-0.172839
-0.172803
-0.172745
-0.172665
-0.17257
-0.172468
-0.172403
-0.172333
-0.172003
-0.169958
-0.170699
-0.171137
-0.171493
-0.171781
-0.172003
-0.172174
-0.172303
-0.172399
-0.172467
-0.17251
-0.172532
-0.172531
-0.17251
-0.172471
-0.172417
-0.172358
-0.172332
-0.172297
-0.172048
-0.169377
-0.17015
-0.17061
-0.170987
-0.171298
-0.171544
-0.171739
-0.171893
-0.172015
-0.172111
-0.172184
-0.172235
-0.172267
-0.17228
-0.172277
-0.172261
-0.172241
-0.172249
-0.172246
-0.172066
-0.168827
-0.16963
-0.170111
-0.17051
-0.170842
-0.171109
-0.171327
-0.171504
-0.171651
-0.171772
-0.171871
-0.171951
-0.172012
-0.172057
-0.172086
-0.172104
-0.172119
-0.172157
-0.172183
-0.172063
-0.168311
-0.169143
-0.169644
-0.170061
-0.170413
-0.170701
-0.170939
-0.171138
-0.171307
-0.171452
-0.171575
-0.17168
-0.171768
-0.17184
-0.171899
-0.171948
-0.171993
-0.172058
-0.172111
-0.172043
-0.167828
-0.168688
-0.169208
-0.169643
-0.170014
-0.17032
-0.170577
-0.170796
-0.170985
-0.171151
-0.171296
-0.171424
-0.171536
-0.171634
-0.171719
-0.171794
-0.171867
-0.171956
-0.172033
-0.172011
-0.16738
-0.168267
-0.168804
-0.169257
-0.169644
-0.169967
-0.170241
-0.170478
-0.170686
-0.17087
-0.171035
-0.171184
-0.171318
-0.171438
-0.171546
-0.171646
-0.171742
-0.171852
-0.171952
-0.17197
-0.166968
-0.167881
-0.168434
-0.168902
-0.169305
-0.169643
-0.169933
-0.170186
-0.17041
-0.170611
-0.170794
-0.170961
-0.171114
-0.171254
-0.171383
-0.171505
-0.171622
-0.17175
-0.171869
-0.171924
-0.166595
-0.16753
-0.168099
-0.168581
-0.168997
-0.16935
-0.169654
-0.169921
-0.170159
-0.170376
-0.170574
-0.170758
-0.170927
-0.171085
-0.171233
-0.171372
-0.171508
-0.171653
-0.171789
-0.171876
-0.16626
-0.167217
-0.167799
-0.168294
-0.168723
-0.169087
-0.169404
-0.169683
-0.169935
-0.170164
-0.170376
-0.170574
-0.170759
-0.170932
-0.171095
-0.171251
-0.171403
-0.171562
-0.171714
-0.171828
-0.165966
-0.166942
-0.167535
-0.168042
-0.168481
-0.168857
-0.169184
-0.169474
-0.169737
-0.169978
-0.170202
-0.170412
-0.170609
-0.170796
-0.170973
-0.171143
-0.171309
-0.171479
-0.171645
-0.171784
-0.165712
-0.166705
-0.167309
-0.167825
-0.168274
-0.168659
-0.168995
-0.169295
-0.169567
-0.169818
-0.170052
-0.170272
-0.170481
-0.170678
-0.170867
-0.171049
-0.171227
-0.171408
-0.171585
-0.171745
-0.165502
-0.166509
-0.167122
-0.167646
-0.168103
-0.168495
-0.168839
-0.169146
-0.169426
-0.169685
-0.169928
-0.170157
-0.170374
-0.170581
-0.170779
-0.170971
-0.171159
-0.171348
-0.171536
-0.171713
-0.165334
-0.166352
-0.166972
-0.167503
-0.167966
-0.168365
-0.168715
-0.169028
-0.169315
-0.16958
-0.169829
-0.170065
-0.17029
-0.170504
-0.17071
-0.17091
-0.171106
-0.171303
-0.171498
-0.171689
-0.16521
-0.166237
-0.166863
-0.167398
-0.167866
-0.168269
-0.168624
-0.168942
-0.169233
-0.169504
-0.169758
-0.169999
-0.170229
-0.17045
-0.170662
-0.170867
-0.171069
-0.171272
-0.171474
-0.171676
-0.165131
-0.166164
-0.166793
-0.167331
-0.167803
-0.168209
-0.168567
-0.168888
-0.169183
-0.169456
-0.169714
-0.169959
-0.170193
-0.170417
-0.170634
-0.170844
-0.17105
-0.171257
-0.171464
-0.171673
-0.165096
-0.166132
-0.166763
-0.167303
-0.167776
-0.168184
-0.168543
-0.168866
-0.169162
-0.169438
-0.169698
-0.169945
-0.170181
-0.170408
-0.170627
-0.17084
-0.171049
-0.171258
-0.171468
-0.171682
-0.171966
-0.172185
-0.172417
-0.17264
-0.172858
-0.173071
-0.173278
-0.173475
-0.173662
-0.173836
-0.173994
-0.174134
-0.174251
-0.174344
-0.172011
-0.172226
-0.172458
-0.17268
-0.172899
-0.173113
-0.173319
-0.173517
-0.173705
-0.173878
-0.174036
-0.174175
-0.174291
-0.174382
-0.172078
-0.172283
-0.172515
-0.172736
-0.172955
-0.173168
-0.173374
-0.173572
-0.173759
-0.173933
-0.17409
-0.174228
-0.174343
-0.174432
-0.172167
-0.172356
-0.172587
-0.172807
-0.173024
-0.173236
-0.173442
-0.17364
-0.173827
-0.174
-0.174156
-0.174293
-0.174406
-0.174492
-0.172277
-0.172445
-0.172674
-0.172892
-0.173107
-0.173318
-0.173523
-0.17372
-0.173905
-0.174078
-0.174233
-0.174368
-0.17448
-0.174564
-0.172406
-0.172548
-0.172776
-0.172989
-0.173202
-0.173411
-0.173615
-0.17381
-0.173995
-0.174166
-0.17432
-0.174454
-0.174564
-0.174646
-0.172554
-0.172665
-0.17289
-0.173099
-0.173309
-0.173516
-0.173717
-0.173912
-0.174095
-0.174265
-0.174418
-0.17455
-0.174657
-0.174737
-0.172718
-0.172794
-0.173015
-0.17322
-0.173425
-0.17363
-0.173829
-0.174022
-0.174204
-0.174372
-0.174524
-0.174654
-0.17476
-0.174836
-0.172898
-0.172932
-0.173151
-0.17335
-0.173551
-0.173753
-0.17395
-0.17414
-0.174321
-0.174488
-0.174638
-0.174766
-0.17487
-0.174944
-0.17309
-0.173079
-0.173294
-0.173487
-0.173684
-0.173882
-0.174077
-0.174266
-0.174444
-0.17461
-0.174758
-0.174885
-0.174986
-0.175058
-0.173294
-0.173233
-0.173444
-0.173631
-0.173823
-0.174018
-0.17421
-0.174396
-0.174573
-0.174737
-0.174883
-0.175009
-0.175108
-0.175177
-0.175212
-0.173507
-0.173391
-0.173598
-0.173779
-0.173966
-0.174157
-0.174346
-0.174531
-0.174706
-0.174868
-0.175013
-0.175136
-0.175234
-0.175301
-0.175333
-0.173727
-0.173552
-0.173756
-0.17393
-0.174111
-0.174299
-0.174485
-0.174667
-0.174841
-0.175002
-0.175145
-0.175267
-0.175363
-0.175427
-0.175457
-0.173954
-0.173713
-0.173914
-0.174082
-0.174257
-0.174441
-0.174625
-0.174805
-0.174977
-0.175136
-0.175278
-0.175398
-0.175492
-0.175555
-0.175582
-0.174185
-0.173873
-0.174071
-0.174232
-0.174402
-0.174582
-0.174763
-0.174941
-0.175112
-0.175269
-0.17541
-0.17553
-0.175622
-0.175684
-0.175708
-0.174421
-0.17403
-0.174225
-0.174381
-0.174544
-0.174721
-0.174899
-0.175075
-0.175244
-0.175401
-0.175541
-0.175659
-0.17575
-0.17581
-0.175833
-0.174662
-0.17418
-0.174376
-0.174525
-0.174681
-0.174855
-0.17503
-0.175204
-0.175372
-0.175528
-0.175667
-0.175784
-0.175875
-0.175934
-0.175956
-0.174907
-0.174324
-0.17452
-0.174663
-0.174813
-0.174983
-0.175155
-0.175328
-0.175494
-0.175649
-0.175788
-0.175905
-0.175995
-0.176053
-0.176074
-0.175169
-0.174458
-0.174657
-0.174795
-0.174937
-0.175103
-0.175273
-0.175444
-0.175609
-0.175763
-0.175902
-0.176018
-0.176108
-0.176166
-0.176187
-0.175458
-0.17458
-0.174784
-0.174918
-0.175052
-0.175214
-0.175381
-0.17555
-0.175715
-0.175868
-0.176007
-0.176123
-0.176214
-0.176272
-0.176293
-0.175697
-0.174706
-0.174903
-0.175033
-0.175156
-0.175315
-0.175479
-0.175646
-0.17581
-0.175963
-0.176102
-0.176219
-0.17631
-0.176368
-0.17639
-0.175922
-0.174842
-0.175009
-0.175137
-0.175251
-0.175404
-0.175565
-0.17573
-0.175894
-0.176045
-0.176184
-0.176302
-0.176394
-0.176454
-0.176476
-0.176455
-0.176171
-0.174964
-0.175104
-0.17523
-0.175333
-0.175481
-0.175638
-0.1758
-0.175962
-0.176114
-0.176254
-0.176373
-0.176466
-0.176527
-0.176552
-0.176533
-0.176442
-0.175077
-0.175188
-0.175313
-0.175402
-0.175543
-0.175696
-0.175855
-0.176015
-0.176168
-0.176308
-0.176428
-0.176523
-0.176587
-0.176613
-0.176596
-0.176732
-0.175186
-0.17526
-0.175385
-0.175457
-0.17559
-0.175738
-0.175894
-0.176052
-0.176204
-0.176345
-0.176467
-0.176564
-0.176631
-0.17666
-0.176646
-0.177045
-0.175293
-0.175322
-0.175445
-0.175498
-0.175622
-0.175762
-0.175914
-0.17607
-0.176223
-0.176364
-0.176488
-0.176588
-0.176658
-0.176691
-0.176681
-0.177385
-0.175402
-0.175373
-0.175494
-0.175525
-0.175636
-0.175769
-0.175915
-0.176069
-0.176221
-0.176363
-0.176489
-0.176593
-0.176666
-0.176704
-0.176698
-0.177753
-0.175518
-0.175415
-0.175532
-0.175536
-0.175632
-0.175756
-0.175896
-0.176046
-0.176197
-0.17634
-0.176469
-0.176576
-0.176654
-0.176697
-0.176696
-0.17815
-0.175642
-0.175448
-0.175558
-0.17553
-0.175609
-0.175721
-0.175853
-0.176
-0.17615
-0.176294
-0.176426
-0.176537
-0.176621
-0.176669
-0.176675
-0.17663
-0.178574
-0.175779
-0.175473
-0.175571
-0.175507
-0.175564
-0.175663
-0.175786
-0.175928
-0.176077
-0.176223
-0.176358
-0.176474
-0.176564
-0.176618
-0.176631
-0.176594
-0.179016
-0.175928
-0.175492
-0.17557
-0.175465
-0.175497
-0.17558
-0.175693
-0.17583
-0.175977
-0.176125
-0.176264
-0.176386
-0.176481
-0.176543
-0.176564
-0.176535
-0.179463
-0.176086
-0.175503
-0.175554
-0.1754
-0.175403
-0.175469
-0.175571
-0.175702
-0.175848
-0.175998
-0.176141
-0.176269
-0.176372
-0.176443
-0.176472
-0.176452
-0.179891
-0.176245
-0.175507
-0.175519
-0.175309
-0.17528
-0.175327
-0.175417
-0.175542
-0.175687
-0.175839
-0.175988
-0.176123
-0.176234
-0.176314
-0.176353
-0.176344
-0.180263
-0.176386
-0.175499
-0.175459
-0.175187
-0.175123
-0.175151
-0.175228
-0.175348
-0.175493
-0.175648
-0.175802
-0.175945
-0.176066
-0.176155
-0.176206
-0.176207
-0.180528
-0.176474
-0.175468
-0.175365
-0.175025
-0.174926
-0.174935
-0.175001
-0.175116
-0.175261
-0.175421
-0.175582
-0.175733
-0.175864
-0.175965
-0.176027
-0.176041
-0.175998
-0.180605
-0.176443
-0.175389
-0.175222
-0.174812
-0.174679
-0.174673
-0.174731
-0.174843
-0.174989
-0.175154
-0.175324
-0.175485
-0.175628
-0.175741
-0.175816
-0.175844
-0.175815
-0.180376
-0.176234
-0.175255
-0.175031
-0.174551
-0.174387
-0.174371
-0.174424
-0.174534
-0.174683
-0.174855
-0.175033
-0.175205
-0.17536
-0.175487
-0.175576
-0.175617
-0.175603
-0.179807
-0.175854
-0.175083
-0.17481
-0.17426
-0.174064
-0.17404
-0.174088
-0.174196
-0.174347
-0.174524
-0.174711
-0.174893
-0.17506
-0.175199
-0.175302
-0.175359
-0.17536
-0.178722
-0.174937
-0.174641
-0.174418
-0.173831
-0.173614
-0.173592
-0.173646
-0.173758
-0.173915
-0.1741
-0.174299
-0.174495
-0.174678
-0.174835
-0.174956
-0.175032
-0.175052
-0.174932
-0.172015
-0.173337
-0.173497
-0.17298
-0.172807
-0.172843
-0.172945
-0.173093
-0.173282
-0.1735
-0.17373
-0.173958
-0.174171
-0.174359
-0.17451
-0.174614
-0.174662
-0.160643
-0.165204
-0.171178
-0.172322
-0.171961
-0.171862
-0.172002
-0.172187
-0.17239
-0.172622
-0.172879
-0.173146
-0.173408
-0.173653
-0.17387
-0.174048
-0.174178
-0.17425
-0.174254
-0.158899
-0.162055
-0.168874
-0.170493
-0.170079
-0.169962
-0.170224
-0.17054
-0.170832
-0.17113
-0.171444
-0.171763
-0.172072
-0.17236
-0.172617
-0.172833
-0.172998
-0.173103
-0.173138
-0.158491
-0.159957
-0.165865
-0.1678
-0.167602
-0.16755
-0.16792
-0.16837
-0.168772
-0.169156
-0.169545
-0.169934
-0.170307
-0.170654
-0.170965
-0.171231
-0.171444
-0.171593
-0.17167
-0.157656
-0.157852
-0.162297
-0.164287
-0.164442
-0.164547
-0.165017
-0.165595
-0.166126
-0.16662
-0.167108
-0.167587
-0.168046
-0.168472
-0.168858
-0.169194
-0.169472
-0.169683
-0.169818
-0.155518
-0.155305
-0.158316
-0.160084
-0.160553
-0.160872
-0.161454
-0.162153
-0.162822
-0.163448
-0.164054
-0.164645
-0.165209
-0.165735
-0.166215
-0.166639
-0.167002
-0.167293
-0.167504
-0.151858
-0.151886
-0.153804
-0.155238
-0.155948
-0.156516
-0.157239
-0.158059
-0.158867