/*--------------------------------*- C++ -*----------------------------------*\
  =========                 |
  \\      /  F ield         | OpenFOAM: The Open Source CFD Toolbox
   \\    /   O peration     | Website:  https://openfoam.org
    \\  /    A nd           | Version:  7
     \\/     M anipulation  |
\*---------------------------------------------------------------------------*/
FoamFile
{
    version     2.0;
    format      ascii;
    class       surfaceScalarField;
    location    "45";
    object      phi;
}
// * * * * * * * * * * * * * * * * * * * * * * * * * * * * * * * * * * * * * //

dimensions      [0 3 -1 0 0 0 0];

internalField   nonuniform List<scalar> 
16708
(
-8.54597e-07
9.67406e-07
-1.12809e-07
-3.22063e-06
2.65662e-06
-2.90584e-07
-6.97479e-06
4.18602e-06
-4.31859e-07
-1.1995e-05
5.55943e-06
-5.39194e-07
-1.81618e-05
6.78244e-06
-6.15624e-07
-2.536e-05
7.86273e-06
-6.64531e-07
-3.34805e-05
8.80991e-06
-6.89451e-07
-4.24221e-05
9.6355e-06
-6.93882e-07
-5.2094e-05
1.03529e-05
-6.8107e-07
-6.24176e-05
1.09774e-05
-6.53815e-07
-7.33293e-05
1.1526e-05
-6.14301e-07
-8.47825e-05
1.20172e-05
-5.63956e-07
-9.67505e-05
1.24713e-05
-5.03367e-07
-0.000109228
1.29097e-05
-4.32229e-07
-0.000122233
1.33548e-05
-3.49332e-07
-0.00013581
1.38291e-05
-2.52564e-07
-0.000150025
1.43542e-05
-1.38906e-07
-0.00016497
1.49494e-05
-4.42964e-09
-0.000180753
1.56266e-05
1.55651e-07
1.64001e-05
3.47695e-07
-0.0001975
-8.5193e-07
1.81934e-06
-3.21087e-06
5.01555e-06
-6.95398e-06
7.92913e-06
-1.19595e-05
1.0565e-05
-1.81081e-05
1.29311e-05
-2.52847e-05
1.50393e-05
-3.33799e-05
1.69051e-05
-4.22924e-05
1.8548e-05
-5.19309e-05
1.99914e-05
-6.22163e-05
2.12629e-05
-7.30843e-05
2.2394e-05
-8.44876e-05
2.34205e-05
-9.63983e-05
2.4382e-05
-0.00010881
2.53218e-05
-0.000121742
2.62859e-05
-0.000135234
2.73215e-05
-0.000149355
2.84749e-05
-0.000164194
2.97889e-05
-0.00017986
3.12925e-05
3.30205e-05
-0.00019648
-8.46729e-07
2.66606e-06
-3.19179e-06
7.36062e-06
-6.91322e-06
1.16506e-05
-1.18898e-05
1.55416e-05
-1.80025e-05
1.90437e-05
-2.5136e-05
2.21728e-05
-3.31809e-05
2.495e-05
-4.20353e-05
2.74024e-05
-5.16069e-05
2.9563e-05
-6.18157e-05
3.14716e-05
-7.25957e-05
3.31741e-05
-8.38982e-05
3.47229e-05
-9.56933e-05
3.61772e-05
-0.000107973
3.76017e-05
-0.000120753
3.90661e-05
-0.000134074
4.06426e-05
-0.000148002
4.24028e-05
-0.000162626
4.44131e-05
-0.000178054
4.67202e-05
4.93792e-05
-0.000194413
-8.39053e-07
3.50512e-06
-3.1636e-06
9.68516e-06
-6.85288e-06
1.53398e-05
-1.17865e-05
2.04752e-05
-1.78457e-05
2.51029e-05
-2.49152e-05
2.92424e-05
-3.28851e-05
3.29199e-05
-4.16526e-05
3.61699e-05
-5.11242e-05
3.90347e-05
-6.12181e-05
4.15655e-05
-7.18664e-05
4.38223e-05
-8.30176e-05
4.58741e-05
-9.46391e-05
4.77987e-05
-0.00010672
4.96826e-05
-0.000119273
5.16192e-05
-0.000132336
5.37057e-05
-0.000145973
5.60398e-05
-0.000160272
5.87122e-05
-0.00017534
6.17879e-05
6.53424e-05
-0.000191303
-8.28985e-07
4.3341e-06
-3.12656e-06
1.19827e-05
-6.77355e-06
1.89868e-05
-1.16505e-05
2.53521e-05
-1.76391e-05
3.10915e-05
-2.4624e-05
3.62273e-05
-3.24946e-05
4.07905e-05
-4.1147e-05
4.48222e-05
-5.0486e-05
4.83737e-05
-6.04275e-05
5.1507e-05
-7.09006e-05
5.42955e-05
-8.18506e-05
5.6824e-05
-9.32411e-05
5.91892e-05
-0.000105057
6.14986e-05
-0.000117307
6.38694e-05
-0.000130026
6.64245e-05
-0.000143274
6.92881e-05
-0.000157139
7.25767e-05
-0.000171725
7.63742e-05
8.07767e-05
-0.00018716
-8.16635e-07
5.15074e-06
-3.08107e-06
1.42472e-05
-6.67596e-06
2.25817e-05
-1.1483e-05
3.01591e-05
-1.73843e-05
3.69928e-05
-2.42645e-05
4.31074e-05
-3.20122e-05
4.85382e-05
-4.05218e-05
5.33319e-05
-4.96963e-05
5.75481e-05
-5.94484e-05
6.12592e-05
-6.97039e-05
6.4551e-05
-8.04036e-05
6.75238e-05
-9.15064e-05
7.0292e-05
-0.000102992
7.29843e-05
-0.000114864
7.57415e-05
-0.000127153
7.87131e-05
-0.000139915
8.20504e-05
-0.000153236
8.58972e-05
-0.000167219
9.03578e-05
9.55493e-05
-0.000181992
-8.02136e-07
5.95287e-06
-3.02755e-06
1.64726e-05
-6.56101e-06
2.61152e-05
-1.12855e-05
3.48836e-05
-1.70836e-05
4.2791e-05
-2.38397e-05
4.98635e-05
-3.14413e-05
5.61398e-05
-3.97814e-05
6.1672e-05
-4.87601e-05
6.65268e-05
-5.82869e-05
7.0786e-05
-6.82831e-05
7.45472e-05
-7.86844e-05
7.7925e-05
-8.94437e-05
8.10513e-05
-0.000100535
8.40751e-05
-0.000111954
8.71613e-05
-0.000123727
9.0486e-05
-0.000135906
9.42295e-05
-0.000148574
9.85644e-05
-0.000161833
0.000103618
0.000109528
-0.000175812
-7.85644e-07
6.73852e-06
-2.96656e-06
1.86535e-05
-6.42977e-06
2.95784e-05
-1.10596e-05
3.95134e-05
-1.67392e-05
4.84706e-05
-2.33526e-05
5.64769e-05
-3.07861e-05
6.35734e-05
-3.89306e-05
6.98166e-05
-4.76833e-05
7.52795e-05
-5.69497e-05
8.00523e-05
-6.6646e-05
8.42435e-05
-7.67018e-05
8.79808e-05
-8.7063e-05
9.14125e-05
-9.76957e-05
9.47078e-05
-0.00010859
9.80553e-05
-0.000119762
0.000101659
-0.000131261
0.000105728
-0.000143166
0.000110469
-0.000155581
0.000116033
0.00012258
-0.000168633
-7.67333e-07
7.50585e-06
-2.89866e-06
2.07848e-05
-6.2834e-06
3.29631e-05
-1.08072e-05
4.40372e-05
-1.63538e-05
5.40172e-05
-2.28067e-05
6.29297e-05
-3.00509e-05
7.08175e-05
-3.79749e-05
7.77405e-05
-4.64724e-05
8.3777e-05
-5.54444e-05
8.90243e-05
-6.48013e-05
9.36004e-05
-7.44657e-05
9.76452e-05
-8.43754e-05
0.000101322
-9.44876e-05
0.00010482
-0.000104783
0.000108351
-0.000115271
0.000112147
-0.000125993
0.000116451
-0.000137026
0.000121502
-0.000148475
0.000127481
0.000134575
-0.000160469
-7.47394e-07
8.25324e-06
-2.82452e-06
2.2862e-05
-6.1232e-06
3.62618e-05
-1.05305e-05
4.84445e-05
-1.59304e-05
5.94171e-05
-2.22059e-05
6.92052e-05
-2.92405e-05
7.78521e-05
-3.69199e-05
8.542e-05
-4.51341e-05
9.19912e-05
-5.3779e-05
9.76692e-05
-6.27583e-05
0.00010258
-7.19867e-05
0.000106874
-8.13928e-05
0.000110728
-9.09234e-05
0.000114351
-0.000100549
0.000117976
-0.000110269
0.000121867
-0.000120118
0.0001263
-0.000130169
0.000131553
-0.000140529
0.000137841
0.000145378
-0.000151332
-7.26028e-07
8.97927e-06
-2.7448e-06
2.48807e-05
-5.95051e-06
3.94675e-05
-1.02315e-05
5.27255e-05
-1.5472e-05
6.46576e-05
-2.15542e-05
7.52875e-05
-2.83599e-05
8.46577e-05
-3.57719e-05
9.28319e-05
-4.36758e-05
9.98952e-05
-5.19619e-05
0.000105955
-6.05267e-05
0.000111145
-6.9276e-05
0.000115623
-7.81276e-05
0.00011958
-8.70168e-05
0.00012324
-9.59016e-05
0.000126861
-0.000104771
0.000130735
-0.000113649
0.000135179
-0.000122608
0.000140512
-0.000131754
0.000146987
0.000154856
-0.000141233
-7.03445e-07
9.68272e-06
-2.66021e-06
2.68375e-05
-5.76674e-06
4.2574e-05
-9.91247e-06
5.68712e-05
-1.49818e-05
6.97269e-05
-2.08558e-05
8.11615e-05
-2.74143e-05
9.12162e-05
-3.45369e-05
9.99545e-05
-4.21047e-05
0.000107463
-5.00016e-05
0.000113852
-5.81162e-05
0.000119259
-6.63443e-05
0.000123851
-7.45921e-05
0.000127828
-8.27813e-05
0.000131429
-9.0856e-05
0.000134936
-9.87913e-05
0.000138671
-0.000106603
0.00014299
-0.000114356
0.000148265
-0.000122163
0.000154795
0.000162872
-0.000130179
-6.79862e-07
1.03626e-05
-2.57149e-06
2.87291e-05
-5.57333e-06
4.55759e-05
-9.5757e-06
6.08736e-05
-1.44628e-05
7.46141e-05
-2.01147e-05
8.68134e-05
-2.64088e-05
9.75103e-05
-3.32212e-05
0.000106767
-4.04279e-05
0.00011467
-4.79063e-05
0.000121331
-5.55362e-05
0.000126889
-6.32025e-05
0.000131517
-7.07982e-05
0.000135423
-7.823e-05
0.000138861
-8.54257e-05
0.000142131
-9.23449e-05
0.00014559
-9.89908e-05
0.000149636
-0.000105424
0.000154697
-0.000111761
0.000161132
0.000169283
-0.000118173
-6.55493e-07
1.10181e-05
-2.47934e-06
3.0553e-05
-5.37168e-06
4.84682e-05
-9.22342e-06
6.47253e-05
-1.39184e-05
7.9309e-05
-1.93351e-05
9.22301e-05
-2.53483e-05
0.000103524
-3.18305e-05
0.000113249
-3.86522e-05
0.000121491
-4.56836e-05
0.000128362
-5.27952e-05
0.000134001
-5.98601e-05
0.000138582
-6.67566e-05
0.00014232
-7.33746e-05
0.000145479
-7.96232e-05
0.00014838
-8.54437e-05
0.00015141
-9.08246e-05
0.000155017
-9.58194e-05
0.000159692
-0.000100553
0.000165866
0.000173941
-0.000105211
-6.3055e-07
1.16486e-05
-2.38448e-06
3.23069e-05
-5.1632e-06
5.12469e-05
-8.85781e-06
6.84199e-05
-1.33513e-05
8.38025e-05
-1.85206e-05
9.73994e-05
-2.42374e-05
0.00010924
-3.03701e-05
0.000119382
-3.67836e-05
0.000127905
-4.33403e-05
0.000134919
-4.99008e-05
0.000140561
-5.63253e-05
0.000145007
-6.24763e-05
0.000148471
-6.82247e-05
0.000151227
-7.34585e-05
0.000153614
-7.80974e-05
0.000156049
-8.21118e-05
0.000159031
-8.55468e-05
0.000163127
-8.8535e-05
0.000168854
0.00017669
-9.12833e-05
-6.05238e-07
1.22539e-05
-2.28758e-06
3.39893e-05
-4.94918e-06
5.39085e-05
-8.48088e-06
7.19516e-05
-1.27645e-05
8.80862e-05
-1.76747e-05
0.00010231
-2.30802e-05
0.000114646
-2.88447e-05
0.000125146
-3.48272e-05
0.000133887
-4.08819e-05
0.000140973
-4.68588e-05
0.000146538
-5.26043e-05
0.000150752
-5.79638e-05
0.000153831
-6.27872e-05
0.00015605
-6.69383e-05
0.000157765
-7.03118e-05
0.000159423
-7.28558e-05
0.000161576
-7.46041e-05
0.000164875
-7.56981e-05
0.000169948
0.000177359
-7.63674e-05
-5.7975e-07
1.28336e-05
-2.18928e-06
3.55988e-05
-4.73085e-06
5.64501e-05
-8.0945e-06
7.53153e-05
-1.21604e-05
9.2152e-05
-1.68006e-05
0.00010695
-2.18802e-05
0.000119726
-2.72581e-05
0.000130524
-3.27868e-05
0.000139416
-3.83121e-05
0.000146499
-4.36727e-05
0.000151899
-4.87005e-05
0.00015578
-5.32222e-05
0.000158352
-5.70646e-05
0.000159893
-6.00646e-05
0.000160765
-6.20873e-05
0.000161445
-6.3054e-05
0.000162542
-6.29828e-05
0.000164804
-6.20243e-05
0.00016899
0.000175766
-6.04311e-05
-5.54265e-07
1.33879e-05
-2.09015e-06
3.71347e-05
-4.50931e-06
5.88693e-05
-7.70031e-06
7.85063e-05
-1.15411e-05
9.59928e-05
-1.59006e-05
0.000111309
-2.06399e-05
0.000124465
-2.56127e-05
0.000135497
-3.06647e-05
0.000144468
-3.56326e-05
0.000151467
-4.03434e-05
0.00015661
-4.46137e-05
0.00016005
-4.82503e-05
0.000161989
-5.10548e-05
0.000162697
-5.28336e-05
0.000162544
-5.3418e-05
0.00016203
-5.26963e-05
0.000161821
-5.06659e-05
0.000162774
-4.74856e-05
0.000165809
0.000171711
-4.34307e-05
-5.28946e-07
1.39168e-05
-1.99071e-06
3.85964e-05
-4.2855e-06
6.1164e-05
-7.29968e-06
8.15205e-05
-1.09082e-05
9.96014e-05
-1.49765e-05
0.000115378
-1.93611e-05
0.00012885
-2.39099e-05
0.000140046
-2.84612e-05
0.000149019
-3.28426e-05
0.000155848
-3.68687e-05
0.000160636
-4.03398e-05
0.000163521
-4.30418e-05
0.000164691
-4.47489e-05
0.000164404
-4.52339e-05
0.000163029
-4.42888e-05
0.000161085
-4.17625e-05
0.000159294
-3.76247e-05
0.000158636
-3.20462e-05
0.000160231
0.000164981
-2.53161e-05
-5.03933e-07
1.44208e-05
-1.89138e-06
3.99839e-05
-4.0602e-06
6.33329e-05
-6.89367e-06
8.43539e-05
-1.02631e-05
0.000102971
-1.40296e-05
0.000119144
-1.80444e-05
0.000132864
-2.21493e-05
0.000144151
-2.61748e-05
0.000153045
-2.99385e-05
0.000159612
-3.32423e-05
0.00016394
-3.58696e-05
0.000166149
-3.75839e-05
0.000166405
-3.81305e-05
0.000164951
-3.7245e-05
0.000162143
-3.46747e-05
0.000158514
-3.02202e-05
0.00015484
-2.381e-05
0.000152226
-1.56461e-05
0.000152067
0.000155522
-6.18721e-06
-4.79343e-07
1.49001e-05
-1.79254e-06
4.12971e-05
-3.83399e-06
6.53743e-05
-6.483e-06
8.7003e-05
-9.60635e-06
0.000106094
-1.30599e-05
0.000122598
-1.66892e-05
0.000136494
-2.0329e-05
0.00014779
-2.38014e-05
0.000156517
-2.69135e-05
0.000162724
-2.94538e-05
0.00016648
-3.11881e-05
0.000167883
-3.18567e-05
0.000167074
-3.11742e-05
0.000164268
-2.88357e-05
0.000159805
-2.45383e-05
0.000154217
-1.80259e-05
0.000148327
-9.15929e-06
0.000143359
2.05832e-06
0.000140849
0.000143024
1.45563e-05
-4.55273e-07
1.53554e-05
-1.69442e-06
4.25362e-05
-3.60726e-06
6.72872e-05
-6.06802e-06
8.94637e-05
-8.93796e-06
0.000108964
-1.20669e-05
0.000125726
-1.52936e-05
0.00013972
-1.84451e-05
0.000150942
-2.13343e-05
0.000159406
-2.37572e-05
0.000165147
-2.54879e-05
0.000168211
-2.62743e-05
0.000168669
-2.58323e-05
0.000166632
-2.38442e-05
0.00016228
-1.99622e-05
0.000155923
-1.38278e-05
0.000148083
-5.11871e-06
0.000139618
6.34836e-06
0.000131892
2.04363e-05
0.000126761
0.000126801
3.66597e-05
-4.31788e-07
1.57872e-05
-1.59718e-06
4.37016e-05
-3.38016e-06
6.90701e-05
-5.64868e-06
9.17322e-05
-8.25736e-06
0.000111573
-1.10489e-05
0.000128518
-1.38544e-05
0.000142526
-1.64919e-05
0.000153579
-1.87644e-05
0.000161679
-2.04555e-05
0.000166838
-2.13246e-05
0.00016908
-2.11002e-05
0.000168445
-1.94736e-05
0.000165005
-1.60932e-05
0.0001589
-1.0566e-05
0.000150396
-2.47306e-06
0.00013999
8.58336e-06
0.000128562
2.28654e-05
0.00011761
4.02938e-05
0.000109333
0.000106792
6.03022e-05
-4.08931e-07
1.61961e-05
-1.50088e-06
4.47936e-05
-3.15262e-06
7.07219e-05
-5.22452e-06
9.38041e-05
-7.56331e-06
0.000113912
-1.00034e-05
0.000130958
-1.23667e-05
0.000144889
-1.44616e-05
0.000155674
-1.60794e-05
0.000163297
-1.69906e-05
0.000167749
-1.69383e-05
0.000169027
-1.5631e-05
0.000167137
-1.2734e-05
0.000162108
-7.86131e-06
0.000154027
-5.72746e-07
0.000143107
9.61529e-06
0.000129802
2.31859e-05
0.000114991
4.04993e-05
0.000100297
6.15454e-05
8.82867e-05
8.26312e-05
8.57063e-05
-3.86713e-07
1.65828e-05
-1.40547e-06
4.58123e-05
-2.92431e-06
7.22407e-05
-4.79463e-06
9.56745e-05
-6.85387e-06
0.000115971
-8.92666e-06
0.000133031
-1.08246e-05
0.000146787
-1.23443e-05
0.000157194
-1.32645e-05
0.000164217
-1.33406e-05
0.000167825
-1.22981e-05
0.000167985
-9.82424e-06
0.000164664
-5.55723e-06
0.000157841
9.24124e-07
0.000147546
1.01084e-05
0.000133923
2.25468e-05
0.000117363
3.88156e-05
9.87223e-05
5.93907e-05
7.97219e-05
8.43551e-05
6.33223e-05
5.39192e-05
0.000113067
-3.65118e-07
1.69479e-05
-1.31076e-06
4.6758e-05
-2.69467e-06
7.36246e-05
-4.35769e-06
9.73375e-05
-6.1264e-06
0.00011774
-7.81412e-06
0.000134719
-9.22027e-06
0.000148193
-1.01283e-05
0.000158102
-1.03021e-05
0.000164391
-9.48003e-06
0.000167003
-7.36824e-06
0.000165873
-3.63067e-06
0.000160926
2.1226e-06
0.000152088
1.03489e-05
0.00013932
2.15855e-05
0.000122686
3.64523e-05
0.000102496
5.56246e-05
7.95501e-05
7.971e-05
5.56364e-05
0.000108914
3.41181e-05
2.0226e-05
0.000142607
-3.44098e-07
1.7292e-05
-1.21648e-06
4.76303e-05
-2.46288e-06
7.4871e-05
-3.91189e-06
9.87865e-05
-5.37757e-06
0.000119205
-6.66007e-06
0.000136001
-7.54477e-06
0.000149078
-7.79978e-06
0.000158357
-7.17167e-06
0.000163763
-5.37967e-06
0.000165211
-2.10771e-06
0.000162601
3.0057e-06
0.000155813
1.03805e-05
0.000144713
2.0511e-05
0.000129189
3.39828e-05
0.000109215
5.14841e-05
8.49951e-05
7.37909e-05
5.72433e-05
0.000101656
2.77709e-05
0.000135439
3.35243e-07
-1.89045e-05
0.00017457
-3.23577e-07
1.76156e-05
-1.12222e-06
4.8429e-05
-2.22783e-06
7.59766e-05
-3.45499e-06
0.000100014
-4.6033e-06
0.000120354
-5.4578e-06
0.000136856
-5.78759e-06
0.000149408
-5.34291e-06
0.000157912
-3.85044e-06
0.00016227
-1.007e-06
0.000162368
3.5287e-06
0.000158065
1.01467e-05
0.000149195
1.92996e-05
0.00013556
3.15196e-05
0.000116969
4.74401e-05
9.32942e-05
6.78145e-05
6.46206e-05
9.35177e-05
3.15401e-05
0.000125456
-4.16771e-06
0.000164172
-3.83807e-05
-6.39434e-05
0.000209211
-3.03444e-07
1.7919e-05
-1.02745e-06
4.9153e-05
-1.98818e-06
7.69374e-05
-2.98424e-06
0.00010101
-3.7988e-06
0.000121168
-4.19955e-06
0.000137256
-3.93682e-06
0.000149145
-2.74018e-06
0.000156716
-3.1316e-07
0.000159843
3.67343e-06
0.000158381
9.59003e-06
0.000152149
1.78591e-05
0.000140925
2.89691e-05
0.00012445
4.34923e-05
0.000102446
6.21086e-05
7.46778e-05
8.56322e-05
4.1097e-05
0.00011503
2.14263e-06
0.00015136
-4.04984e-05
0.000195376
-8.23967e-05
-0.00011536
0.000246793
-2.83552e-07
1.82026e-05
-9.31498e-07
4.98009e-05
-1.74225e-06
7.77481e-05
-2.49642e-06
0.000101764
-2.95854e-06
0.00012163
-2.87655e-06
0.000137174
-1.97923e-06
0.000148248
2.77024e-08
0.000154709
3.46751e-06
0.000156403
8.69963e-06
0.000153149
1.61283e-05
0.00014472
2.62132e-05
0.000130841
3.94829e-05
0.000111181
5.65525e-05
8.53763e-05
7.81479e-05
5.30825e-05
0.000105138
1.41074e-05
0.000138567
-3.12867e-05
0.000179637
-8.1568e-05
0.000229328
-0.000132088
-0.000173601
0.000287569
-2.6372e-07
1.84663e-05
-8.3356e-07
5.03708e-05
-1.48811e-06
7.84027e-05
-1.98779e-06
0.000102264
-2.0762e-06
0.000121719
-1.47896e-06
0.000136577
9.98068e-08
0.000146669
2.98161e-06
0.000151827
7.5208e-06
0.000151864
1.41117e-05
0.000146558
2.31977e-05
0.000135634
3.52814e-05
0.000118757
5.09369e-05
9.55251e-05
7.08258e-05
6.54874e-05
9.57199e-05
2.81884e-05
0.000126535
-1.67075e-05
0.000164377
-6.91288e-05
0.000210562
-0.000127753
0.00026631
-0.000187836
-0.000239059
0.000331768
-2.43723e-07
1.871e-05
-7.32682e-07
5.08597e-05
-1.22346e-06
7.88934e-05
-1.45406e-06
0.000102494
-1.14467e-06
0.000121409
4.53525e-09
0.000135428
2.31622e-06
0.000144357
6.14412e-06
0.000147999
1.18777e-05
0.00014613
1.99516e-05
0.000138484
3.0854e-05
0.000124732
4.5137e-05
0.000104474
6.34265e-05
7.72356e-05
8.64355e-05
4.24784e-05
0.000114983
-3.58838e-07
0.000150023
-5.17482e-05
0.000192702
-0.000111808
0.00024441
-0.000179461
0.000306598
-0.000250024
-0.000312037
0.000379576
-2.23295e-07
1.89333e-05
-6.27747e-07
5.12642e-05
-9.45702e-07
7.92114e-05
-8.90407e-07
0.000102439
-1.56105e-07
0.000120675
1.58483e-06
0.000133687
4.68726e-06
0.000141255
9.53926e-06
0.000143147
1.65708e-05
0.000139099
2.62623e-05
0.000128793
3.91534e-05
0.000111841
5.58524e-05
8.77749e-05
7.70439e-05
5.6044e-05
0.000103499
1.60238e-05
0.000136084
-3.29443e-05
0.000175788
-9.14524e-05
0.00022377
-0.000159789
0.000281435
-0.000237127
0.000350445
-0.000319034
-0.0003927
0.000431109
-2.02119e-07
1.91354e-05
-5.17467e-07
5.15795e-05
-6.51874e-07
7.93458e-05
-2.91392e-07
0.000102078
8.98315e-07
0.000119485
3.27616e-06
0.000131309
7.23166e-06
0.000137299
1.31926e-05
0.000137186
2.16341e-05
0.000130657
3.30881e-05
0.000117339
4.81522e-05
9.67765e-05
6.74979e-05
6.84293e-05
9.18762e-05
3.16657e-05
0.000122121
-1.42214e-05
0.000159154
-6.99765e-05
0.000203988
-0.000136287
0.000257772
-0.000213573
0.000321857
-0.000301211
0.000398071
-0.000395248
-0.000481022
0.000486392
-1.79826e-07
1.93153e-05
-4.00361e-07
5.18001e-05
-3.38667e-07
7.92841e-05
3.4904e-07
0.000101391
2.02827e-06
0.000117806
5.0924e-06
0.000128245
9.96948e-06
0.000132422
1.71312e-05
0.000130024
2.7103e-05
0.000120686
4.04739e-05
0.000103968
5.79059e-05
7.93445e-05
8.01406e-05
4.61946e-05
0.000108002
3.80402e-06
0.000142396
-4.86148e-05
0.000184297
-0.000111878
0.000234747
-0.000186737
0.000294857
-0.000273683
0.000365846
-0.0003722
0.000449645
-0.000479047
-0.000576712
0.000545335
-1.56005e-07
1.94713e-05
-2.74747e-07
5.19188e-05
-1.57982e-09
7.90109e-05
1.03759e-06
0.000100352
3.24428e-06
0.000115599
7.04902e-06
0.00012444
1.29221e-05
0.000126549
2.13835e-05
0.000121563
3.30139e-05
0.000109055
4.8465e-05
8.85166e-05
6.84688e-05
5.93407e-05
9.3843e-05
2.08203e-05
0.000125491
-2.78443e-05
0.000164394
-8.75178e-05
0.000211589
-0.000159073
0.00026814
-0.000243288
0.000335107
-0.00034065
0.000413508
-0.000450601
0.000505278
-0.000570817
-0.000679167
0.000607733
-1.30177e-07
1.96015e-05
-1.38966e-07
5.19276e-05
3.61412e-07
7.85106e-05
1.78136e-06
9.89316e-05
4.55779e-06
0.000112823
9.16261e-06
0.000119835
1.61123e-05
0.0001196
2.59794e-05
0.000111696
3.94044e-05
9.56302e-05
5.71067e-05
7.08143e-05
7.9893e-05
3.65543e-05
0.000108662
-7.94866e-06
0.0001444
-6.35826e-05
0.000188168
-0.000131286
0.000241067
-0.000211972
0.000304186
-0.000306407
0.000378527
-0.00041499
0.000464862
-0.000536936
0.000564976
-0.000670931
-0.000787529
0.000673338
-1.01791e-07
1.97032e-05
9.59954e-09
5.18162e-05
7.56896e-07
7.77633e-05
2.58843e-06
9.71e-05
5.98107e-06
0.00010943
1.14508e-05
0.000114366
1.9564e-05
0.000111486
3.09499e-05
0.00010031
4.63128e-05
8.02673e-05
6.64438e-05
5.06833e-05
9.22281e-05
1.07701e-05
0.000124647
-4.03676e-05
0.000164771
-0.000103707
0.000213741
-0.000180255
0.000272723
-0.000270954
0.000342839
-0.000376523
0.000425046
-0.000497197
0.000519876
-0.000631767
0.000628563
-0.000779618
-0.00090107
0.000742104
-7.03474e-08
1.97736e-05
1.71951e-07
5.15739e-05
1.18882e-06
7.67464e-05
3.46722e-06
9.48216e-05
7.52722e-06
0.00010537
1.39323e-05
0.000107961
2.33023e-05
0.000102116
3.63266e-05
8.72857e-05
5.37775e-05
6.28164e-05
7.65202e-05
2.79406e-05
0.00010552
-1.82293e-05
0.000141839
-7.66871e-05
0.00018663
-0.000148498
0.000241104
-0.00023473
0.000306493
-0.000336343
0.000383965
-0.000453996
0.000474509
-0.00058774
0.000578598
-0.000735856
0.000696025
-0.000897045
-0.00101964
0.000814595
-3.51251e-08
1.98087e-05
3.51649e-07
5.11871e-05
1.66249e-06
7.54356e-05
4.42667e-06
9.20575e-05
9.20993e-06
0.000100587
1.66264e-05
0.000100544
2.73528e-05
9.139e-05
4.2142e-05
7.24965e-05
6.18364e-05
4.3122e-05
8.73772e-05
2.39983e-06
0.000119808
-5.06596e-05
0.000160268
-0.000117148
0.00020998
-0.000198209
0.000270214
-0.000294964
0.000342245
-0.000408375
0.000427291
-0.000539042
0.000526484
-0.000686933
0.00064081
-0.000850181
0.000769288
-0.00102552
-0.00114248
0.000892127
4.48412e-09
1.98042e-05
5.50549e-07
5.06411e-05
2.18303e-06
7.38031e-05
5.47581e-06
8.87647e-05
1.10431e-05
9.50196e-05
1.95528e-05
9.20343e-05
3.17412e-05
7.92016e-05
4.84277e-05
5.581e-05
7.05263e-05
2.10234e-05
9.9053e-05
-2.61269e-05
0.000135125
-8.67321e-05
0.000179951
-0.000161974
0.000234805
-0.000253063
0.000300987
-0.000361145
0.000379776
-0.000487164
0.000472387
-0.000631653
0.00058001
-0.000794556
0.000704118
-0.000974289
0.000848128
-0.00116953
-0.00134245
0.0010481
4.92538e-08
1.9755e-05
7.71677e-07
4.99187e-05
2.75655e-06
7.18182e-05
6.62483e-06
8.48964e-05
1.30419e-05
8.86026e-05
2.27319e-05
8.23443e-05
3.64938e-05
6.54397e-05
5.52149e-05
3.7089e-05
7.98811e-05
-3.64281e-06
0.000111581
-5.78265e-05
0.000151497
-0.000126649
0.000200892
-0.000211368
0.000261065
-0.000313236
0.000333307
-0.000433388
0.000418839
-0.000572696
0.000518761
-0.000731575
0.000634096
-0.000909891
0.000766279
-0.00110647
0.000917049
-0.0013203
-0.00152713
0.00110173
9.99414e-08
1.9655e-05
1.01751e-06
4.90011e-05
3.38849e-06
6.94472e-05
7.88307e-06
8.04018e-05
1.52202e-05
8.12654e-05
2.61832e-05
7.13813e-05
4.16352e-05
4.99877e-05
6.25323e-05
1.61918e-05
8.9931e-05
-3.10415e-05
0.000124986
-9.28815e-05
0.000168936
-0.000170599
0.000223075
-0.000265506
0.000288696
-0.000378858
0.000367033
-0.000511724
0.000459169
-0.000664833
0.000565977
-0.000838383
0.000688078
-0.00103199
0.000826227
-0.00124462
0.000980245
-0.00147432
-0.00170399
0.0011571
1.57249e-07
1.94978e-05
1.29074e-06
4.78676e-05
4.08451e-06
6.66534e-05
9.2601e-06
7.52262e-05
1.75923e-05
7.29332e-05
2.99254e-05
5.90483e-05
4.71883e-05
3.27248e-05
7.04055e-05
-7.02544e-06
0.0001007
-6.13363e-05
0.000139286
-0.000131467
0.000187441
-0.000218754
0.000246465
-0.00032453
0.000317609
-0.000450002
0.00040199
-0.000596105
0.000500485
-0.000763327
0.000613631
-0.000951529
0.000741526
-0.00115989
0.000884078
-0.00138717
0.00103989
-0.00163014
-0.00187523
0.00121114
2.21926e-07
1.92759e-05
1.59403e-06
4.64955e-05
4.8502e-06
6.33973e-05
1.07652e-05
6.93113e-05
2.01715e-05
6.35269e-05
3.3976e-05
4.52438e-05
5.31737e-05
1.35271e-05
7.88558e-05
-3.27075e-05
0.000112207
-9.46872e-05
0.000154486
-0.000173747
0.000206993
-0.000271262
0.000271003
-0.00038854
0.000347681
-0.00052668
0.000437971
-0.000686394
0.000542468
-0.000867824
0.000661301
-0.00107036
0.000793985
-0.00129257
0.000939587
-0.00153277
0.00109585
-0.0017864
-0.00204169
0.00126231
2.94701e-07
1.92996e-06
4.48602e-05
5.69087e-06
5.96364e-05
1.2407e-05
6.25952e-05
2.29701e-05
5.29637e-05
3.83505e-05
2.98634e-05
5.96086e-05
-7.73099e-06
8.78985e-05
-6.09973e-05
0.000124457
-0.000131246
0.000170578
-0.000219867
0.000227554
-0.000328238
0.000296602
-0.000457588
0.000378754
-0.000608831
0.000474722
-0.000782362
0.000584757
-0.000977859
0.000708521
-0.00119413
0.000844931
-0.00142898
0.000992272
-0.00168012
0.00114765
-0.00194178
-0.00220334
0.00130929
2.30098e-06
6.61148e-06
5.53259e-05
1.41934e-05
5.50132e-05
2.5999e-05
4.11581e-05
4.30618e-05
1.28005e-05
6.65057e-05
-3.11749e-05
9.7542e-05
-9.20336e-05
0.00013745
-0.000171154
0.000187536
-0.000269953
0.00024906
-0.000389762
0.000323143
-0.000531671
0.00041063
-0.000696318
0.000511947
-0.000883679
0.000626945
-0.00109286
0.000754781
-0.00132196
0.000893789
-0.00156799
0.00104157
-0.0018279
0.00119479
-0.002095
-0.00235963
0.00135108
7.61653e-06
1.61315e-05
4.64983e-05
2.92672e-05
2.80224e-05
4.81197e-05
-6.05193e-06
7.38725e-05
-5.69277e-05
0.000107787
-0.000125948
0.000151169
-0.000214537
0.000205316
-0.0003241
0.000271425
-0.000455871
0.000350473
-0.000610719
0.000443072
-0.000788917
0.000549306
-0.000989913
0.000668585
-0.00121214
0.000799541
-0.00145292
0.000939967
-0.00170842
0.0010869
-0.00197483
0.00123676
-0.00224485
-0.00250981
0.00138694
1.8227e-05
3.69812e-05
3.27816e-05
1.34677e-05
5.35302e-05
-2.68005e-05
8.17106e-05
-8.51081e-05
0.000118623
-0.00016286
0.000165585
-0.000261498
0.000223856
-0.000382372
0.000294534
-0.000526549
0.00037841
-0.000694594
0.000475807
-0.000886315
0.000586425
-0.00110053
0.000709199
-0.00133491
0.000842249
-0.00158597
0.000982886
-0.00184905
0.00112774
-0.00211968
0.0012731
-0.00239022
-0.00265313
0.00141642
2.04842e-05
3.65466e-05
-2.59465e-06
5.92951e-05
-4.95489e-05
9.00147e-05
-0.000115828
0.000130031
-0.000202877
0.000180652
-0.000312119
0.000243073
-0.000444792
0.000318248
-0.000601724
0.000406735
-0.000783081
0.000508527
-0.000988107
0.000622896
-0.0012149
0.000748298
-0.00146031
0.000882364
-0.00172003
0.00102201
-0.0019887
0.0011636
-0.00226127
0.00130348
-0.0025301
-0.00278893
0.00143928
4.05638e-05
6.54117e-05
-7.43969e-05
9.87725e-05
-0.000149188
0.000141982
-0.000246086
0.000196313
-0.00036645
0.000262861
-0.00051134
0.000342398
-0.000681261
0.000435204
-0.000875888
0.000540897
-0.0010938
0.000658299
-0.0013323
0.000785392
-0.00158741
0.000919375
-0.00185402
0.00105687
-0.00212619
0.00119413
-0.00239853
0.00132771
-0.00266368
-0.00291672
0.0014555
7.18724e-05
0.000107964
-0.00018528
0.000154432
-0.000292555
0.000212489
-0.000424507
0.000283094
-0.000581945
0.000366795
-0.000764962
0.000463549
-0.000972641
0.000572564
-0.00120281
0.000692209
-0.00145195
0.000820016
-0.00171521
0.000952831
-0.00198683
0.00108709
-0.00226045
0.00121911
-0.00253055
0.00134573
-0.00279031
-0.0030362
0.00146521
0.00011756
0.000167329
-0.000342325
0.00022909
-0.000486268
0.00030363
-0.000656485
0.000391228
-0.00085256
0.00049148
-0.00107289
0.000603168
-0.0013145
0.00072421
-0.00157299
0.000851742
-0.00184275
0.000982348
-0.00211744
0.00111241
-0.00239052
0.00123841
-0.00265655
0.00135764
-0.00290953
-0.00314728
0.00146872
0.000180608
0.00024601
-0.00055167
0.000324305
-0.00073478
0.000415467
-0.000943721
0.000518701
-0.00117613
0.000632351
-0.00142815
0.000753913
-0.00169455
0.000880198
-0.00196903
0.00100763
-0.00224487
0.00113266
-0.00251554
0.00125207
-0.00277596
0.00136363
-0.00302109
-0.00325004
0.00146639
0.000263127
0.000344944
-0.000816597
0.000439272
-0.00103805
0.000544909
-0.00128176
0.000659767
-0.00154301
0.000780967
-0.00181575
0.000905076
-0.00209314
0.00102847
-0.00236827
0.00114779
-0.00263486
0.00126021
-0.00288839
0.00136402
-0.00312489
-0.00334473
0.0014587
0.000365358
0.000462398
-0.00113509
0.000569807
-0.00138917
0.000685095
-0.0016583
0.000805068
-0.00193572
0.000926144
-0.00221422
0.00104477
-0.0024869
0.00115786
-0.00274795
0.00126307
-0.00299359
0.00135919
-0.00322101
-0.0034317
0.00144616
0.000484596
0.000593114
-0.00149769
0.00070805
-0.00177323
0.00082597
-0.00205364
0.00094325
-0.0023315
0.00105651
-0.00260015
0.00116302
-0.00285446
0.00126094
-0.00309151
0.00134959
-0.00330967
-0.00351139
0.00142928
0.000614568
0.000728385
0.000843492
-0.00216875
0.000956318
-0.00244432
0.00106375
-0.00270758
0.00116348
-0.00295419
0.00125418
-0.00318221
0.00133566
-0.00339115
-0.00358431
0.00140859
0.000857514
0.000965349
-0.00255216
0.00106663
-0.00280886
0.00115952
-0.00304708
0.00124319
-0.00326588
0.0013179
-0.00346586
-0.00365099
0.00138457
0.000970412
0.00106536
-0.00290381
0.00115146
-0.00313318
0.00122838
-0.0033428
0.00129674
-0.00353423
-0.00371195
0.0013577
0.00106018
0.00113966
0.00121017
-0.0034133
0.00127264
-0.0035967
-0.00376771
0.00132841
0.00118895
0.00124601
-0.00365375
-0.00381877
0.00129706
0.00121721
0.001264
0.00121732
0.0036527
0.00381773
0.00126415
0.001189
0.00341219
0.0012461
0.00359561
0.00376663
0.00129719
0.00106011
0.00290263
0.00113963
0.00313201
0.00121019
0.00334164
0.00127271
0.00353308
0.00371082
0.00132852
0.000970271
0.00255095
0.00106525
0.00280764
0.0011514
0.00304586
0.00122837
0.00326467
0.00129678
0.00346467
0.0036498
0.0013578
0.000745694
0.00188594
0.000857317
0.00216757
0.000965177
0.00244309
0.00106649
0.00270633
0.00115942
0.00295293
0.00124315
0.00318095
0.00131791
0.00338991
0.00358307
0.00138464
0.000614343
0.00149669
0.000728153
0.00177213
0.000843267
0.00205245
0.000956113
0.00233025
0.00106357
0.00259887
0.00116335
0.00285316
0.0012541
0.0030902
0.00133565
0.00330836
0.00351009
0.00140863
0.000484378
0.00113423
0.000592874
0.00138819
0.000707796
0.0016572
0.000825717
0.00193453
0.000943011
0.00221295
0.0010563
0.00248558
0.00116285
0.00274661
0.00126082
0.00299223
0.00134953
0.00321965
0.00343033
0.00142929
0.000365164
0.000815895
0.00046217
0.00103722
0.000569552
0.00128081
0.000684821
0.00154193
0.000804787
0.00181457
0.000925872
0.00209187
0.00104452
0.00236693
0.00115765
0.00263348
0.00126291
0.00288697
0.00135909
0.00312347
0.0033433
0.00144612
0.000262966
0.000551127
0.000344745
0.000734116
0.000439036
0.000942929
0.00054464
0.0011752
0.000659473
0.0014271
0.000780659
0.00169338
0.00090477
0.00196776
0.00102819
0.00224351
0.00114754
0.00251413
0.00126001
0.0027745
0.00136387
0.0030196
0.00324854
0.00145862
0.000180482
0.000341924
0.000245847
0.000485762
0.000324102
0.000655861
0.000415223
0.000851808
0.000518419
0.00107201
0.000632038
0.00131348
0.00075358
0.00157184
0.000879858
0.00184148
0.0010073
0.00211607
0.00113236
0.00238907
0.00125181
0.00265505
0.00136342
0.00290799
0.00314571
0.00146626
0.000117466
0.000184999
0.000167202
0.000292188
0.000228925
0.00042404
0.000303422
0.000581363
0.000390976
0.000764254
0.000491187
0.000971797
0.000602838
0.00120183
0.000723852
0.00145083
0.000851369
0.00171396
0.000981976
0.00198546
0.00111206
0.00225899
0.0012381
0.00252901
0.00135738
0.00278871
0.00303456
0.00146852
7.1806e-05
7.42119e-05
0.000107868
0.000148937
0.000154303
0.000245754