/*--------------------------------*- C++ -*----------------------------------*\
  =========                 |
  \\      /  F ield         | OpenFOAM: The Open Source CFD Toolbox
   \\    /   O peration     | Website:  https://openfoam.org
    \\  /    A nd           | Version:  7
     \\/     M anipulation  |
\*---------------------------------------------------------------------------*/
FoamFile
{
    version     2.0;
    format      ascii;
    class       volScalarField;
    location    "65";
    object      p;
}
// * * * * * * * * * * * * * * * * * * * * * * * * * * * * * * * * * * * * * //

dimensions      [0 2 -2 0 0 0 0];

internalField   nonuniform List<scalar> 
8500
(
-0.324909
-0.327685
-0.326339
-0.33063
-0.329105
-0.327372
-0.333751
-0.33203
-0.330139
-0.337051
-0.335119
-0.33306
-0.330597
-0.340536
-0.338377
-0.336142
-0.333501
-0.330558
-0.344209
-0.341808
-0.339387
-0.336562
-0.333438
-0.33014
-0.348074
-0.345415
-0.3428
-0.339783
-0.336474
-0.332998
-0.329434
-0.352132
-0.349201
-0.346383
-0.34317
-0.339669
-0.336012
-0.332269
-0.328488
-0.356385
-0.353167
-0.35014
-0.346724
-0.343027
-0.339182
-0.335254
-0.33128
-0.327264
-0.360833
-0.357315
-0.354072
-0.350448
-0.346551
-0.342513
-0.338391
-0.334211
-0.329964
-0.3256
-0.365475
-0.361644
-0.358179
-0.354343
-0.350241
-0.346003
-0.341678
-0.337277
-0.332776
-0.32811
-0.323193
-0.370309
-0.366153
-0.362461
-0.358409
-0.354097
-0.349653
-0.345113
-0.340474
-0.335693
-0.330692
-0.325375
-0.319644
-0.313424
-0.37533
-0.37084
-0.366917
-0.362645
-0.358118
-0.353461
-0.348693
-0.343794
-0.338704
-0.333331
-0.327572
-0.321333
-0.314551
-0.307214
-0.380535
-0.375701
-0.371542
-0.367048
-0.362302
-0.357422
-0.35241
-0.347227
-0.341796
-0.336012
-0.329767
-0.322977
-0.315599
-0.307645
-0.299179
-0.385916
-0.380729
-0.376334
-0.371614
-0.366644
-0.36153
-0.356256
-0.350762
-0.344953
-0.338715
-0.331941
-0.32456
-0.316552
-0.307961
-0.298879
-0.289437
-0.279763
-0.391465
-0.385918
-0.381284
-0.376337
-0.371137
-0.365777
-0.360219
-0.354383
-0.348157
-0.34142
-0.334072
-0.326059
-0.317393
-0.308147
-0.298444
-0.288437
-0.278267
-0.268121
-0.39717
-0.391259
-0.386385
-0.381209
-0.375772
-0.370152
-0.364286
-0.358073
-0.351388
-0.344106
-0.336138
-0.327457
-0.318106
-0.308193
-0.297868
-0.287302
-0.276649
-0.266086
-0.255548
-0.245768
-0.403018
-0.39674
-0.391627
-0.386219
-0.380537
-0.37464
-0.368439
-0.361813
-0.354623
-0.346748
-0.338118
-0.328734
-0.318677
-0.308087
-0.297142
-0.286027
-0.274902
-0.263936
-0.253079
-0.242995
-0.408995
-0.402348
-0.396996
-0.391355
-0.385419
-0.379226
-0.37266
-0.365579
-0.357837
-0.349322
-0.339987
-0.32987
-0.319089
-0.307817
-0.296257
-0.284605
-0.273022
-0.261667
-0.2505
-0.240122
-0.415083
-0.408067
-0.402479
-0.396602
-0.3904
-0.383889
-0.376924
-0.369345
-0.361004
-0.351802
-0.341723
-0.330846
-0.319328
-0.307375
-0.295207
-0.283029
-0.271002
-0.259271
-0.247806
-0.237144
-0.421262
-0.413878
-0.408056
-0.40194
-0.395462
-0.388608
-0.381208
-0.373085
-0.364095
-0.35416
-0.343303
-0.331643
-0.31938
-0.306747
-0.293983
-0.281293
-0.268837
-0.256743
-0.244989
-0.234051
-0.427508
-0.419763
-0.41371
-0.407351
-0.400581
-0.393358
-0.385483
-0.376769
-0.36708
-0.35637
-0.344702
-0.332243
-0.31923
-0.305926
-0.292577
-0.279391
-0.26652
-0.254076
-0.242045
-0.23084
-0.433798
-0.425696
-0.419416
-0.41281
-0.405732
-0.39811
-0.389718
-0.380364
-0.36993
-0.358404
-0.345899
-0.332628
-0.318867
-0.304899
-0.290981
-0.277314
-0.264043
-0.251264
-0.238965
-0.227501
-0.440102
-0.431653
-0.425149
-0.418292
-0.410887
-0.402833
-0.393881
-0.383839
-0.372613
-0.360235
-0.346871
-0.332781
-0.318276
-0.303658
-0.289186
-0.275056
-0.2614
-0.248298
-0.235743
-0.22403
-0.446392
-0.437606
-0.430882
-0.423766
-0.416014
-0.407494
-0.397937
-0.387159
-0.375097
-0.361836
-0.347596
-0.332685
-0.317445
-0.302191
-0.287184
-0.272608
-0.258584
-0.245174
-0.232373
-0.22042
-0.452635
-0.443524
-0.436584
-0.429202
-0.421081
-0.412057
-0.40185
-0.390288
-0.377351
-0.36318
-0.348053
-0.332324
-0.316361
-0.30049
-0.284966
-0.269962
-0.255586
-0.241882
-0.228848
-0.216664
-0.458795
-0.449373
-0.442222
-0.434565
-0.426051
-0.416486
-0.405581
-0.393191
-0.379343
-0.364242
-0.348222
-0.331682
-0.315012
-0.298544
-0.282523
-0.267112
-0.2524
-0.238416
-0.225161
-0.212757
-0.464835
-0.455119
-0.447761
-0.439819
-0.430885
-0.42074
-0.409093
-0.395832
-0.381043
-0.364995
-0.348083
-0.330744
-0.313386
-0.296342
-0.279848
-0.264047
-0.249017
-0.234769
-0.221306
-0.208692
-0.470716
-0.460724
-0.453163
-0.444924
-0.435543
-0.424778
-0.412346
-0.398176
-0.38242
-0.365417
-0.347617
-0.329495
-0.311472
-0.293876
-0.276929
-0.260761
-0.245429
-0.230934
-0.217276
-0.204464
-0.476398
-0.466149
-0.458387
-0.449839
-0.439983
-0.428559
-0.4153
-0.400187
-0.383444
-0.365482
-0.346807
-0.327922
-0.309258
-0.291135
-0.27376
-0.257244
-0.24163
-0.226903
-0.213063
-0.200066
-0.481837
-0.471352
-0.463394
-0.454523
-0.444162
-0.432039
-0.417915
-0.40183
-0.384088
-0.36517
-0.345634
-0.326011
-0.306733
-0.28811
-0.270331
-0.253489
-0.237611
-0.22267
-0.208663
-0.195494
-0.486989
-0.47629
-0.468138
-0.45893
-0.448035
-0.435177
-0.420152
-0.403073
-0.384324
-0.364459
-0.344083
-0.323748
-0.303886
-0.28479
-0.266632
-0.249487
-0.233365
-0.218227
-0.204069
-0.190742
-0.49181
-0.480921
-0.472577
-0.463017
-0.451558
-0.43793
-0.421974
-0.403882
-0.384125
-0.363328
-0.342139
-0.321123
-0.300706
-0.281167
-0.262657
-0.245231
-0.228885
-0.213569
-0.199276
-0.185804
-0.496255
-0.485198
-0.476665
-0.466736
-0.454686
-0.440254
-0.423342
-0.404227
-0.383469
-0.36176
-0.339785
-0.318121
-0.297184
-0.277232
-0.258396
-0.240714
-0.224164
-0.20869
-0.194277
-0.180678
-0.500274
-0.489077
-0.480355
-0.470042
-0.457373
-0.442109
-0.424221
-0.404078
-0.382331
-0.359735
-0.33701
-0.314733
-0.293309
-0.272976
-0.253842
-0.235927
-0.219195
-0.203583
-0.189067
-0.175357
-0.503824
-0.492511
-0.483601
-0.472889
-0.459575
-0.443454
-0.424575
-0.403408
-0.38069
-0.357239
-0.333799
-0.310948
-0.289073
-0.268391
-0.248987
-0.230864
-0.213974
-0.198243
-0.183643
-0.169838
-0.506857
-0.495454
-0.486357
-0.47523
-0.461249
-0.444251
-0.424373
-0.40219
-0.378526
-0.354255
-0.330141
-0.306756
-0.284467
-0.263468
-0.243824
-0.22552
-0.208493
-0.192666
-0.177998
-0.164118
-0.509327
-0.497861
-0.488578
-0.477022
-0.462352
-0.444462
-0.423584
-0.4004
-0.375822
-0.350771
-0.326025
-0.302147
-0.279483
-0.258201
-0.238346
-0.219887
-0.202747
-0.186846
-0.172131
-0.158192
-0.51119
-0.499687
-0.490218
-0.47822
-0.462845
-0.444051
-0.422179
-0.398017
-0.37256
-0.346772
-0.321441
-0.297114
-0.274113
-0.252583
-0.232548
-0.21396
-0.196733
-0.18078
-0.166036
-0.15206
-0.512402
-0.500888
-0.491235
-0.478781
-0.462688
-0.442987
-0.420132
-0.395021
-0.368726
-0.342249
-0.31638
-0.291648
-0.268351
-0.246608
-0.226424
-0.207736
-0.190445
-0.174464
-0.159712
-0.145718
-0.512921
-0.501423
-0.491584
-0.478667
-0.461846
-0.441239
-0.417419
-0.391394
-0.364307
-0.337191
-0.310834
-0.285743
-0.262191
-0.240271
-0.219969
-0.201209
-0.183881
-0.167895
-0.153154
-0.139164
-0.512706
-0.501249
-0.491228
-0.477838
-0.460284
-0.43878
-0.41402
-0.38712
-0.359292
-0.331591
-0.304796
-0.279394
-0.255627
-0.233567
-0.213179
-0.194376
-0.177037
-0.161071
-0.146363
-0.132396
-0.51172
-0.500329
-0.490126
-0.47626
-0.457972
-0.435583
-0.409915
-0.382187
-0.353671
-0.32544
-0.298261
-0.272595
-0.248656
-0.226492
-0.206052
-0.187234
-0.169912
-0.153989
-0.139336
-0.125417
-0.509925
-0.498627
-0.488244
-0.473898
-0.454881
-0.431628
-0.405088
-0.376582
-0.347436
-0.318733
-0.291225
-0.265343
-0.241274
-0.219044
-0.198584
-0.179782
-0.162502
-0.146648
-0.132073
-0.118229
-0.50729
-0.496107
-0.485549
-0.470723
-0.450988
-0.426896
-0.399527
-0.370298
-0.340582
-0.311467
-0.283683
-0.257634
-0.233479
-0.211221
-0.190775
-0.172018
-0.154808
-0.139047
-0.124573
-0.11083
-0.503783
-0.492741
-0.48201
-0.466709
-0.446268
-0.421369
-0.39322
-0.363328
-0.333104
-0.303638
-0.275635
-0.249469
-0.22527
-0.203021
-0.182623
-0.163942
-0.146828
-0.131185
-0.116833
-0.10319
-0.499378
-0.488498
-0.477601
-0.461831
-0.440706
-0.415036
-0.386159
-0.355666
-0.325001
-0.295246
-0.26708
-0.240845
-0.216646
-0.194445
-0.174129
-0.155555
-0.138565
-0.123068
-0.108857
-0.0952756
-0.49405
-0.483356
-0.472299
-0.45607
-0.434284
-0.407886
-0.378339
-0.347312
-0.316272
-0.28629
-0.258017
-0.231764
-0.207609
-0.185493
-0.165294
-0.146857
-0.130022
-0.1147
-0.100657
-0.087159
-0.48778
-0.477293
-0.466083
-0.449409
-0.426992
-0.399913
-0.369758
-0.338264
-0.306918
-0.276773
-0.24845
-0.222228
-0.198159
-0.176168
-0.156119
-0.137851
-0.121199
-0.106076
-0.092199
-0.0789116
-0.480549
-0.47029
-0.458937
-0.441835
-0.418821
-0.391114
-0.360415
-0.328525
-0.296941
-0.266698
-0.238382
-0.21224
-0.188301
-0.166473
-0.146609
-0.128541
-0.1121
-0.097201
-0.0835183
-0.0704654
-0.472346
-0.462334
-0.450849
-0.43334
-0.409767
-0.381487
-0.350313
-0.318099
-0.286348
-0.256069
-0.227816
-0.201804
-0.178039
-0.156412
-0.136767
-0.11893
-0.102729
-0.0880789
-0.0746195
-0.0618128
-0.463159
-0.453415
-0.44181
-0.423918
-0.399828
-0.371035
-0.339457
-0.306993
-0.275145
-0.244894
-0.21676
-0.190927
-0.167377
-0.145989
-0.126598
-0.109023
-0.09309
-0.0787151
-0.0655041
-0.0529581
-0.452985
-0.443526
-0.431815
-0.413567
-0.389007
-0.359764
-0.327854
-0.295214
-0.26334
-0.233181
-0.20522
-0.179614
-0.156323
-0.135212
-0.116108
-0.0988251
-0.0831888
-0.0691148
-0.0561751
-0.0439074
-0.441819
-0.432664
-0.420863
-0.402289
-0.377308
-0.347682
-0.315514
-0.282774
-0.250943
-0.220937
-0.193205
-0.167874
-0.144884
-0.124088
-0.105305
-0.0883438
-0.0730316
-0.059284
-0.0466375
-0.0346676
-0.429665
-0.420831
-0.408955
-0.390089
-0.364741
-0.334799
-0.30245
-0.269684
-0.237966
-0.208176
-0.180726
-0.155716
-0.133068
-0.112623
-0.0941945
-0.0775863
-0.0626255
-0.0492291
-0.036897
-0.0252453
-0.416528
-0.40803
-0.396099
-0.376977
-0.351318
-0.32113
-0.288675
-0.255959
-0.224422
-0.194908
-0.167794
-0.143152
-0.120887
-0.100829
-0.082787
-0.0665609
-0.0519785
-0.0389575
-0.0269606
-0.0156477
-0.402417
-0.394272
-0.382305
-0.362964
-0.337052
-0.306691
-0.274207
-0.241615
-0.210326
-0.181148
-0.154421
-0.130192
-0.10835
-0.0887155
-0.071092
-0.0552769
-0.0410993
-0.0284775
-0.0168363
-0.00588245
-0.387345
-0.379567
-0.367586
-0.348068
-0.321963
-0.291501
-0.259064
-0.226669
-0.195695
-0.16691
-0.140621
-0.116849
-0.0954691
-0.0762934
-0.0591201
-0.0437445
-0.0299975
-0.017798
-0.0065324
0.0040422
-0.371329
-0.363932
-0.35196
-0.332306
-0.30607
-0.27558
-0.243268
-0.211141
-0.180547
-0.152212
-0.126409
-0.103138
-0.0822585
-0.0635753
-0.0468829
-0.0319745
-0.0186836
-0.00692872
0.0039416
0.0141173
-0.354389
-0.347387
-0.335446
-0.315702
-0.289397
-0.258954
-0.226842
-0.195052
-0.164901
-0.137071
-0.111803
-0.0890741
-0.0687317
-0.0505744
-0.034393
-0.0199789
-0.00716859
0.00411972
0.0145756
0.0243333
-0.336548
-0.329953
-0.318068
-0.298279
-0.27197
-0.241648
-0.209806
-0.178426
-0.148778
-0.121506
-0.0968187
-0.0746728
-0.0549039
-0.0373048
-0.0216637
-0.00777027
0.00453534
0.015336
0.0253587
0.0346794
-0.317833
-0.311657
-0.299853
-0.280067
-0.253819
-0.223687
-0.192189
-0.161286
-0.132201
-0.105538
-0.0814755
-0.0599516
-0.040791
-0.0237816
-0.0087089
0.00463803
0.0164155
0.026708
0.0362792
0.0451439
-0.298274
-0.292528
-0.280831
-0.261096
-0.234975
-0.205099
-0.174021
-0.143658
-0.115192
-0.0891875
-0.0657931
-0.0449287
-0.0264099
-0.0100203
0.00445646
0.0172319
0.0284583
0.0382229
0.0473243
0.0557137
-0.277902
-0.272599
-0.261035
-0.241402
-0.21546
-0.185923
-0.15533
-0.125569
-0.0977773
-0.0724777
-0.0497919
-0.029623
-0.0117781
0.00396257
0.017817
0.0299968
0.0406496
0.0498672
0.0584808
-0.256753
-0.251903
-0.240501
-0.221022
-0.195311
-0.166188
-0.136147
-0.107048
-0.0799818
-0.0554321
-0.0334937
-0.0140544
0.00308586
0.01815
0.0313568
0.0429174
0.0529747
0.0616269
-0.234864
-0.23048
-0.219266
-0.19997
-0.174587
-0.145929
-0.116503
-0.0881237
-0.0618327
-0.0380753
-0.016921
0.00175626
0.018163
0.0325243
0.0450595
0.0559783
0.0654185
-0.212274
-0.208369
-0.197366
-0.178309
-0.153309
-0.125183
-0.0964337
-0.0688275
-0.043358
-0.0204327
-9.71025e-05
0.0177877
0.0334337
0.0470674
0.0589084
0.0691636
-0.189022
-0.185615
-0.174843
-0.156082
-0.131518
-0.103987
-0.0759725
-0.0491908
-0.0245866
-0.00253083
0.0169538
0.0340178
0.0488777
0.0617608
0.0728865
0.0824578
-0.165145
-0.162272
-0.151748
-0.133327
-0.109255
-0.0823799
-0.0551555
-0.0292464
-0.00554844
0.0156031
0.0342068
0.0504236
0.064474
0.0765857
0.0869769
-0.140703
-0.13838
-0.128129
-0.110089
-0.0865649
-0.060402
-0.0340195
-0.00902778
0.013726
0.0339411
0.0516362
0.0669819
0.0802014
0.0915227
-0.115789
-0.113953
-0.104029
-0.0864147
-0.0634907
-0.0380939
-0.0126019
0.0114306
0.0332052
0.0524545
0.0692159
0.0836685
0.096038
0.106552
-0.0904176
-0.0890605
-0.0794968
-0.062351
-0.0400776
-0.0154974
0.00905876
0.0320938
0.0528573
0.0711139
0.0869188
0.100459
0.111961
-0.0646287
-0.0637662
-0.0545834
-0.0379466
-0.0163717
0.00734482
0.0309235
0.0529259
0.0726494
0.0898895
0.104718
0.117327
0.127948
-0.0384793
-0.0381217
-0.0293402
-0.0132512
0.00758043
0.0303896
0.0529526
0.0738909
0.0925486
0.108751
0.122584
0.134248
-0.0120239
-0.012178
-0.00381866
0.0116855
0.0317317
0.0535933
0.075106
0.0949519
0.112521
0.127666
0.14049
0.0146807
0.0140105
0.0219275
0.0368122
0.056034
0.0769117
0.0973432
0.116072
0.132533
0.146606
0.158406
0.041578
0.0403887
0.0478442
0.0620775
0.0804394
0.1003
0.119623
0.137213
0.152549
0.165537
0.0686109
0.0669012
0.0738771
0.0874295
0.104899
0.123714
0.141905
0.158339
0.172536
0.184428
0.0957223
0.0934917
0.0999716
0.112816
0.129365
0.147109
0.164149
0.179411
0.192459
0.203247
0.122855
0.120104
0.126073
0.138186
0.153789
0.17044
0.186312
0.200392
0.212284
0.149951
0.146682
0.152126
0.163485
0.178121
0.193662
0.208354
0.221244
0.231975
0.176953
0.173168
0.178076
0.188664
0.202315
0.216731
0.230234
0.241929
0.203804
0.199507
0.203869
0.21367
0.226321
0.239603
0.251912
0.262412
0.230446
0.225642
0.22945
0.238452
0.250093
0.262235
0.273348
0.256824
0.251519
0.254766
0.26296
0.273583
0.284582
0.294501
0.282882
0.277081
0.279765
0.287144
0.296745
0.306602
0.315334
0.308565
0.302276
0.304393
0.310954
0.319534
0.328255
0.333818
0.32705
0.3286
0.334342
0.341906
0.349497
0.358587
0.35135
0.352335
0.357262
0.363815
0.37029
0.382822
0.375125
0.375549
0.379666
0.385219
0.406471
0.398325
0.398194
0.40151
0.406077
0.429484
0.420902
0.420223
0.422749
0.426348
0.451813
0.442808
0.441591
0.443342
0.445993
0.473412
0.463997
0.462254
0.463247
0.494236
0.484426
0.48217
0.482424
0.51424
0.504051
0.501297
0.500835
0.533384
0.522831
0.519597
0.518444
0.551627
0.540729
0.537032
0.535215
0.568932
0.557706
0.553568
0.585264
0.573728
0.56917
0.600588
0.588761
0.583806
0.614873
0.602775
0.597448
0.628089
0.615741
0.610068
0.64021
0.627632
0.621641
0.651211
0.638425
0.632143
0.661069
0.648096
0.641553
0.669764
0.656627
0.649853
0.677279
0.664001
0.683598
0.670201
0.688709
0.675217
0.692602
0.679038
0.695269
0.681656
0.696704
0.683067
0.696906
0.683268
0.695875
0.682259
0.693612
0.680043
0.690124
0.676624
0.685417
0.672011
0.679502
0.666213
0.672392
0.659242
0.652414
0.664102
0.651114
0.644509
0.654649
0.641846
0.635494
0.644054
0.631457
0.625387
0.632339
0.619969
0.61421
0.619528
0.607407
0.601986
0.605649
0.593797
0.58874
0.590732
0.579168
0.5745
0.574807
0.563552
0.559295
0.557909
0.54698
0.543157
0.541139
0.540073
0.529488
0.526119
0.524752
0.521337
0.511113
0.508217
0.507528
0.50174
0.491894
0.489488
0.489503
0.481325
0.471872
0.469971
0.470711
0.460134
0.451089
0.449707
0.451193
0.453525
0.438213
0.429589
0.428737
0.430986
0.434251
0.415608
0.407419
0.407107
0.410133
0.414351
0.392368
0.384625
0.384861
0.388676
0.393864
0.398852
0.368541
0.361256
0.362046
0.366659
0.372831
0.378904
0.344179
0.337362
0.33871
0.344126
0.351294
0.358466
0.319333
0.312994
0.314901
0.321124
0.329294
0.337579
0.294057
0.288204
0.290671
0.297701
0.306876
0.316282
0.32457
0.268406
0.263046
0.266071
0.273903
0.284085
0.294616
0.304075
0.242433
0.237573
0.241152
0.249781
0.260966
0.272623
0.283259
0.216194
0.21184
0.215967
0.225384
0.237565
0.250346
0.262161
0.272196
0.189746
0.185903
0.190569
0.200763
0.213928
0.227828
0.240821
0.252035
0.163146
0.159817
0.165013
0.175967
0.190104
0.205112
0.219277
0.23167
0.241941
0.13645
0.133638
0.139353
0.15105
0.16614
0.182242
0.197572
0.211139
0.222555
0.109715
0.107422
0.113643
0.126062
0.142084
0.159263
0.175744
0.190478
0.203036
0.213375
0.0829999
0.0812261
0.0879382
0.101055
0.117984
0.136219
0.153835
0.169724
0.183418
0.194847
0.0563603
0.0551058
0.0622925
0.0760804
0.0938888
0.113154
0.131887
0.148917
0.163734
0.176246
0.0298536
0.0291169
0.0367605
0.0511908
0.0698463
0.0901133
0.109939
0.128092
0.14402
0.157603
0.168956
0.00353632
0.00331467
0.0113964
0.0264375
0.0459049
0.0671411
0.0880319
0.107287
0.124309
0.138952
0.151315
0.161601
-0.0225352
-0.0222462
-0.0137463
0.00187152
0.0221124
0.0442817
0.0662074
0.0865402
0.104636
0.120323
0.133684
0.144917
-0.0483045
-0.0475116
-0.0386141
-0.0224561
-0.00148342
0.0215791
0.0445053
0.0658873
0.085035
0.101746
0.116091
0.128258
0.138474
-0.0737177
-0.072431
-0.063156
-0.046496
-0.0248359
-0.000923409
0.0229655
0.0453653
0.065539
0.0832541
0.0985634
0.11165
0.122738
-0.0987181
-0.0969528
-0.0873207
-0.070199
-0.0478986
-0.0231828
0.00162744
0.0250102
0.0461812
0.0648762
0.0811303
0.095119
0.107064
0.117188
-0.123267
-0.121015
-0.111058
-0.0935168
-0.0706259
-0.0451568
-0.0194702
0.00485747
0.026994
0.0466423
0.0638187
0.0786899
0.091475
0.102398
-0.147348
-0.144548
-0.13432
-0.116403
-0.0929731
-0.0668039
-0.0402892
-0.015058
0.00800937
0.0285816
0.0466553
0.0623873
0.0759938
0.0876982
0.0977153
-0.170869
-0.167538
-0.157063
-0.138811
-0.114896
-0.0880835
-0.0607923
-0.0347022
-0.0107416
0.0107227
0.0296662
0.0462352
0.0606418
0.0731092
0.0838529
0.0930721
-0.193773
-0.189946
-0.17924
-0.160696
-0.136353
-0.108956
-0.0809431
-0.0540416
-0.0292286
-0.00690663
0.0128769
0.0302568
0.0454405
0.05865
0.0701012
0.0799971
0.0884688
-0.216021
-0.211717
-0.2008
-0.182022
-0.1573
-0.129384
-0.100706
-0.073044
-0.0474219
-0.0242794
-0.00368784
0.0144748
0.0304103
0.0443393
0.0564772
0.0670296
0.0761326
-0.237577
-0.232808
-0.221703
-0.20275
-0.177695
-0.149329
-0.120047
-0.0916779
-0.0652929
-0.0413694
-0.0200041
-0.00108887
0.0155716
0.0301955
0.0429977
0.0541852
0.0638988
0.0722351
-0.258401
-0.25318
-0.241912
-0.2228
-0.197533
-0.168756
-0.138932
-0.109913
-0.0828138
-0.0581514
-0.0360486
-0.0164129
0.00094379
0.0162367
0.0296795
0.0414796
0.0517825
0.0606785
0.0689755
-0.278455
-0.272795
-0.261392
-0.242177
-0.216738
-0.187629
-0.15733
-0.12772
-0.0999579
-0.0746008
-0.0517991
-0.0314767
-0.0134541
0.00248034
0.0165387
0.0289283
0.0397989
0.0492364
0.0580171
0.0660973
-0.297708
-0.291618
-0.280107
-0.260841
-0.235278
-0.205919
-0.175209
-0.14507
-0.1167
-0.0906944
-0.0672341
-0.0462606
-0.0276039
-0.0110566
0.00359125
0.0165464
0.0279625
0.0379229
0.0471693
0.0557206
-0.316125
-0.309618
-0.298025
-0.278755
-0.253132
-0.223587
-0.192543
-0.161937
-0.133014
-0.10641
-0.0823332
-0.0607458
-0.041488
-0.0243578
-0.0091475
0.00434852
0.0162876
0.0267512
0.0364455
0.0454488
-0.33368
-0.326767
-0.315115
-0.295887
-0.270269
-0.240609
-0.209302
-0.178296
-0.148879
-0.121726
-0.0970769
-0.0749142
-0.0550899
-0.0374076
-0.0216629
-0.00765133
0.00478756
0.0157343
0.0258584
0.0352951
-0.350345
-0.343039
-0.331352
-0.312212
-0.286662
-0.256958
-0.225459
-0.194123
-0.164272
-0.136622
-0.111447
-0.088749
-0.0683937
-0.0501913
-0.0339409
-0.0194399
-0.00652488
0.00488413
0.0154196
0.0252711
-0.366097
-0.358412
-0.346714
-0.327704
-0.302284
-0.27261
-0.240991
-0.209395
-0.179172
-0.15108
-0.125426
-0.102234
-0.0813844
-0.0626949
-0.0459684
-0.0310046
-0.0176377
-0.0057879
0.00514012
0.0153874
-0.380918
-0.372867
-0.361179
-0.342342
-0.317112
-0.287539
-0.255878
-0.224091
-0.193561
-0.165083
-0.138997
-0.115354
-0.0940481
-0.0749052
-0.0577329
-0.0423336
-0.0285399
-0.0162713
-0.00497002
0.0056538
-0.394791
-0.38639
-0.374733
-0.356107
-0.331126
-0.301727
-0.270097
-0.238192
-0.20742
-0.178613
-0.152146
-0.128096
-0.106372
-0.0868101
-0.0692229
-0.0534162
-0.0392209
-0.0265563
-0.0149015
-0.00392082
-0.407704
-0.398968
-0.387362
-0.368985
-0.34431
-0.315153
-0.283631
-0.251681
-0.220733
-0.191656
-0.164859
-0.140447
-0.118344
-0.0983983
-0.080428
-0.0642421
-0.0496714
-0.036634
-0.0246456
-0.0133282
-0.419648
-0.410593
-0.399056
-0.380963
-0.356648
-0.327804
-0.296463
-0.264542
-0.233486
-0.204199
-0.177125
-0.152394
-0.129953
-0.10966
-0.0913383
-0.0748023
-0.0598825
-0.0464961
-0.0341947
-0.0225606
-0.430618
-0.421262
-0.40981
-0.392034
-0.36813
-0.339664
-0.30858
-0.276761
-0.245666
-0.216229
-0.188931
-0.163929
-0.14119
-0.120585
-0.101945
-0.0850885
-0.0698464
-0.0561354
-0.0435417
-0.031611
-0.440613
-0.430974
-0.419622
-0.402191
-0.378748
-0.350725
-0.31997
-0.288327
-0.257261
-0.227736
-0.200267
-0.175041
-0.152046
-0.131165
-0.112241
-0.0950931
-0.0795561
-0.0655453
-0.0526807
-0.0404726
-0.449635
-0.439732
-0.428493
-0.411435
-0.388497
-0.360978
-0.330623
-0.299229
-0.268261
-0.238711
-0.211125
-0.185723
-0.162514
-0.141396
-0.122218
-0.10481
-0.0890053
-0.0747198
-0.0616068
-0.0491389
-0.457691
-0.447543
-0.43643
-0.419767
-0.397375
-0.370418
-0.340532
-0.30946
-0.27866
-0.249146
-0.221499
-0.195968
-0.172587
-0.151269
-0.131872
-0.114233
-0.0981886
-0.0836537
-0.0703165
-0.0576041
-0.464791
-0.454418
-0.443442
-0.427193
-0.405384
-0.379044
-0.349694
-0.319013
-0.288449
-0.259034
-0.231382
-0.205771
-0.18226
-0.160779
-0.141197
-0.123358
-0.107102
-0.092342
-0.0788074
-0.0658651
-0.470948
-0.460372
-0.449541
-0.433724
-0.41253
-0.386857
-0.358105
-0.327885
-0.297625
-0.268372
-0.240769
-0.215128
-0.191529
-0.169923
-0.150189
-0.132181
-0.115741
-0.100783
-0.0870708
-0.0739311
-0.47618
-0.465422
-0.454744
-0.439371
-0.418821
-0.39386
-0.365767
-0.336075
-0.306185
-0.277156
-0.249659
-0.224035
-0.200392
-0.178697
-0.158846
-0.140698
-0.124103
-0.108971
-0.095096
-0.0818652
-0.480507
-0.46959
-0.459072
-0.444153
-0.42427
-0.400062
-0.372682
-0.343582
-0.314128
-0.285385
-0.258049
-0.23249
-0.208845
-0.187101
-0.167165
-0.148908
-0.132186
-0.116905
-0.102889
-0.0895722
-0.483954
-0.472901
-0.462548
-0.44809
-0.428892
-0.405472
-0.378857
-0.350409
-0.321455
-0.293059
-0.265938
-0.240494
-0.21689
-0.195132
-0.175145
-0.156809
-0.139986
-0.124585
-0.110444
-0.0970184
-0.486549
-0.475383
-0.465199
-0.451205
-0.432705
-0.410104
-0.3843
-0.356562
-0.328169
-0.300179
-0.273328
-0.248047
-0.224525
-0.202792
-0.182787
-0.164401
-0.147504
-0.132005
-0.117761
-0.104233
-0.48832
-0.477067
-0.467055
-0.453525
-0.435733
-0.413974
-0.389022
-0.362047
-0.334274
-0.306748
-0.280221
-0.25515
-0.231753
-0.210081
-0.19009
-0.171683
-0.154739
-0.139166
-0.12484
-0.111235
-0.489303
-0.477987
-0.46815
-0.455081
-0.438
-0.417102
-0.393038
-0.366873
-0.339776
-0.31277
-0.28662
-0.261807
-0.238576
-0.217001
-0.197057
-0.178658
-0.161693
-0.14607
-0.131683
-0.118026
-0.489532
-0.478179
-0.468519
-0.455906
-0.439535
-0.419509
-0.396362
-0.371053
-0.344683
-0.318252
-0.29253
-0.268021
-0.244997
-0.223556
-0.20369
-0.185328
-0.168366
-0.152717
-0.13829
-0.124604
-0.489045
-0.477682
-0.4682
-0.456035
-0.440369
-0.421223
-0.399015
-0.3746
-0.349005
-0.3232
-0.297957
-0.273798
-0.251021
-0.229749
-0.209992
-0.191694
-0.174762
-0.15911
-0.144664
-0.130967
-0.487884
-0.476535
-0.467233
-0.455507
-0.440535
-0.422269
-0.401018
-0.377529
-0.352754
-0.327624
-0.302907
-0.279143
-0.256653
-0.235585
-0.215968
-0.197761
-0.180883
-0.165251
-0.150805
-0.137118
-0.486089
-0.474781
-0.465659
-0.454361
-0.440071
-0.422679
-0.402395
-0.379859
-0.355943
-0.331534
-0.307389
-0.284063
-0.261899
-0.241068
-0.221622
-0.203533
-0.186733
-0.171144
-0.156717
-0.143058
-0.483704
-0.472464
-0.463523
-0.452639
-0.439014
-0.422486
-0.403172
-0.381611
-0.358587
-0.33494
-0.311413
-0.288566
-0.266766
-0.246207
-0.226959
-0.209015
-0.192316
-0.176791
-0.162402
-0.14879
-0.480773
-0.469627
-0.460869
-0.450385
-0.437404
-0.421725
-0.403379
-0.382805
-0.360703
-0.337857
-0.314988
-0.292661
-0.271262
-0.251006
-0.231987
-0.214212
-0.197637
-0.182197
-0.167863
-0.154316
-0.477342
-0.466315
-0.457741
-0.447643
-0.435284
-0.420433
-0.403046
-0.383467
-0.36231
-0.340298
-0.318125
-0.296357
-0.275394
-0.255474
-0.236711
-0.21913
-0.202702
-0.187366
-0.173105
-0.159639
-0.473456
-0.462574
-0.454185
-0.444458
-0.432696
-0.418648
-0.402205
-0.383623
-0.363427
-0.342278
-0.320837
-0.299665
-0.279172
-0.259619
-0.241139
-0.223776
-0.207514
-0.192303
-0.178131
-0.164762
-0.46916
-0.458448
-0.450246
-0.440876
-0.429684
-0.41641
-0.400891
-0.3833
-0.364077
-0.343815
-0.323137
-0.302594
-0.282605
-0.263449
-0.245279
-0.228156
-0.212082
-0.197014
-0.182946
-0.16969
-0.464502
-0.453983
-0.44597
-0.436941
-0.426293
-0.413761
-0.399141
-0.382529
-0.364282
-0.344926
-0.325039
-0.305157
-0.285704
-0.266973
-0.249137
-0.232278
-0.216411
-0.201504
-0.187555
-0.174426
-0.459525
-0.449223
-0.441401
-0.4327
-0.422567
-0.410743
-0.39699
-0.38134
-0.364068
-0.34563
-0.326558
-0.307366
-0.288477
-0.270199
-0.252724
-0.23615
-0.220508
-0.205779
-0.191965
-0.178975
-0.454273
-0.44421
-0.436583
-0.428195
-0.418549
-0.407397
-0.394478
-0.379765
-0.36346
-0.345948
-0.32771
-0.309233
-0.290937
-0.273139
-0.256047
-0.239778
-0.22438
-0.209846
-0.196179
-0.183342
-0.448791
-0.438986
-0.431558
-0.423471
-0.414283
-0.403766
-0.391643
-0.377838
-0.362486
-0.345902
-0.328512
-0.310773
-0.293094
-0.275801
-0.259116
-0.243173
-0.228036
-0.213711
-0.200205
-0.187532
-0.443119
-0.433591
-0.426365
-0.418568
-0.409812
-0.399891
-0.388524
-0.375594
-0.361175
-0.345513
-0.328981
-0.311998
-0.294961
-0.278195
-0.261939
-0.246341
-0.231482
-0.217382
-0.204048
-0.19155
-0.437297
-0.428064
-0.421044
-0.413526
-0.405176
-0.395814
-0.38516
-0.373067
-0.359555
-0.344806
-0.329136
-0.312923
-0.296547
-0.280333
-0.264526
-0.249291
-0.234726
-0.220865
-0.207715
-0.195402
-0.431363
-0.422441
-0.415631
-0.408382
-0.400414
-0.391573
-0.381589
-0.370293
-0.357657
-0.343805
-0.328995
-0.313564
-0.297867
-0.282223
-0.266885
-0.252033
-0.237776
-0.224168
-0.211213
-0.199093
-0.425354
-0.416756
-0.41016
-0.403174
-0.395564
-0.387209
-0.37785
-0.367307
-0.355512
-0.342535
-0.328579
-0.313935
-0.298931
-0.283876
-0.269027
-0.254573
-0.24064
-0.227297
-0.214548
-0.202629
-0.419303
-0.411041
-0.404664
-0.397933
-0.390661
-0.382756
-0.373979
-0.364143
-0.35315
-0.341023
-0.327909
-0.314054
-0.299753
-0.285303
-0.270959
-0.256921
-0.243326
-0.230261
-0.217726
-0.206017
-0.413242
-0.405325
-0.399172
-0.392689
-0.385736
-0.378249
-0.370012
-0.360837
-0.350604
-0.339294
-0.327005
-0.313935
-0.300346
-0.286514
-0.272692
-0.259085
-0.245842
-0.233066
-0.220755
-0.209262
-0.4072
-0.399637
-0.39371
-0.387472
-0.380821
-0.373721
-0.365982
-0.357422
-0.347905
-0.337377
-0.32589
-0.313598
-0.300723
-0.28752
-0.274234
-0.261073
-0.248195
-0.23572
-0.223641
-0.212371
-0.401205
-0.394
-0.388303
-0.382305
-0.375941
-0.369201
-0.361921
-0.353929
-0.345082
-0.335298
-0.324587
-0.313059
-0.300898
-0.288332
-0.275595
-0.262893
-0.250393
-0.238229
-0.22639
-0.21535
-0.395279
-0.388436
-0.382972
-0.377212
-0.371121
-0.364716
-0.357858
-0.35039
-0.342166
-0.333083
-0.323118
-0.312336
-0.300884
-0.28896
-0.276782
-0.264553
-0.252443
-0.240601
-0.22901
-0.218205
-0.389444
-0.382966
-0.377737
-0.372211
-0.366383
-0.360289
-0.353819
-0.346833
-0.339185
-0.330761
-0.321506
-0.311449
-0.300696
-0.289415
-0.277804
-0.26606
-0.254351
-0.242842
-0.231507
-0.220943
-0.383721
-0.377606
-0.372613
-0.36732
-0.361744
-0.355943
-0.34983
-0.343284
-0.336168
-0.328357
-0.319775
-0.310416
-0.300349
-0.289709
-0.278671
-0.267421
-0.256125
-0.244959
-0.233887
-0.22357
-0.378125
-0.372372
-0.367616
-0.362554
-0.357222
-0.351695
-0.34591
-0.339767
-0.333138
-0.325897
-0.317948
-0.309256
-0.299857
-0.289852
-0.27939
-0.268644
-0.257771
-0.246959
-0.236155
-0.226095
-0.372671
-0.367275
-0.362757
-0.357923
-0.352828
-0.347561
-0.34208
-0.336305
-0.330121
-0.323404
-0.316047
-0.30799
-0.299237
-0.289857
-0.279971
-0.269735
-0.259295
-0.248847
-0.367372
-0.362327
-0.358045
-0.353438
-0.348574
-0.343553
-0.338354
-0.332916
-0.327138
-0.320902
-0.314094
-0.306636
-0.298503
-0.289734
-0.280422
-0.2707
-0.260703
-0.362236
-0.357535
-0.353488
-0.349105
-0.344467
-0.339682
-0.334746
-0.329617
-0.324209
-0.318411
-0.31211
-0.305213
-0.297673
-0.289497
-0.280752
-0.357273
-0.352907
-0.349091
-0.344931
-0.340514
-0.335955
-0.331266
-0.32642
-0.321349
-0.315951
-0.310116
-0.303741
-0.296761
-0.289158
-0.352487
-0.348447
-0.34486
-0.340919
-0.336719
-0.332379
-0.327922
-0.323338
-0.318574
-0.31354
-0.308129
-0.302237
-0.347884
-0.344158
-0.340795
-0.337071
-0.333084
-0.328955
-0.32472
-0.320379
-0.315895
-0.311191
-0.306167
-0.343466
-0.340042
-0.336898
-0.333387
-0.32961
-0.325686
-0.321662
-0.317549
-0.313322
-0.308917
-0.339233
-0.336099
-0.333168
-0.329867
-0.326294
-0.322571
-0.31875
-0.314851
-0.310862
-0.335185
-0.332328
-0.329604
-0.326507
-0.323136
-0.31961
-0.315984
-0.312289
-0.331321
-0.328726
-0.326202
-0.323305
-0.320132
-0.316798
-0.313362
-0.327637
-0.325291
-0.32296
-0.320258
-0.317279
-0.314132
-0.32413
-0.322018
-0.319874
-0.31736
-0.31457
-0.320795
-0.318904
-0.316937
-0.314607
-0.317625
-0.315942
-0.314145
-0.314616
-0.313126
-0.311759
-0.310451
-0.309049
-0.175522
-0.180421
-0.185155
-0.189727
-0.194144
-0.198409
-0.202526
-0.206501
-0.210338
-0.214042
-0.217618
-0.22107
-0.224402
-0.22762
-0.230726
-0.233724
-0.167782
-0.17261
-0.177289
-0.181824
-0.186218
-0.190475
-0.194599
-0.198595
-0.202465
-0.206215
-0.209848
-0.213369
-0.216781
-0.22009
-0.223297
-0.226408
-0.16037
-0.165111
-0.169721
-0.174202
-0.178558
-0.182792
-0.186909
-0.19091
-0.194801
-0.198584
-0.202264
-0.205845
-0.20933
-0.212724
-0.21603
-0.219252
-0.153272
-0.157925
-0.162461
-0.166883
-0.171194
-0.175397
-0.179495
-0.183492
-0.187391