/*--------------------------------*- C++ -*----------------------------------*\
  =========                 |
  \\      /  F ield         | OpenFOAM: The Open Source CFD Toolbox
   \\    /   O peration     | Website:  https://openfoam.org
    \\  /    A nd           | Version:  7
     \\/     M anipulation  |
\*---------------------------------------------------------------------------*/
FoamFile
{
    version     2.0;
    format      ascii;
    class       surfaceScalarField;
    location    "65";
    object      phi;
}
// * * * * * * * * * * * * * * * * * * * * * * * * * * * * * * * * * * * * * //

dimensions      [0 3 -1 0 0 0 0];

internalField   nonuniform List<scalar> 
16607
(
1.90074e-05
5.88457e-07
1.84189e-05
3.94915e-05
7.0732e-07
1.77116e-05
3.87204e-06
3.63267e-05
3.88899e-05
8.39202e-07
1.68724e-05
4.43938e-06
3.27266e-05
3.13622e-05
9.84241e-07
1.58882e-05
5.05664e-06
2.86542e-05
1.34383e-05
2.29806e-05
-2.31759e-06
1.14248e-06
1.47457e-05
5.72368e-06
2.4073e-05
1.50173e-05
1.3687e-05
3.03688e-05
-1.76691e-05
-7.14467e-05
1.31389e-06
1.34318e-05
6.43997e-06
1.89469e-05
1.6702e-05
3.42504e-06
3.34963e-05
-3.44635e-05
5.82869e-05
-9.62372e-05
-0.000183529
1.49836e-06
1.19334e-05
7.20464e-06
1.32406e-05
1.84893e-05
-7.85962e-06
3.67944e-05
-5.27685e-05
6.3618e-05
-0.000123061
0.000100465
-0.000220376
-0.000346254
1.69572e-06
1.02377e-05
8.01648e-06
6.91985e-06
2.03753e-05
-2.02185e-05
4.02533e-05
-7.26465e-05
6.9172e-05
-0.00015198
0.000108628
-0.000259832
0.000159979
-0.000397605
-0.000566151
1.90573e-06
8.33199e-06
8.87393e-06
-4.83492e-08
2.23552e-05
-3.36997e-05
4.38616e-05
-9.41529e-05
7.49257e-05
-0.000183044
0.000117015
-0.000301921
0.000171398
-0.000451989
0.000238961
-0.000633714
-0.00084639
2.1281e-06
6.20389e-06
9.77508e-06
-7.69533e-06
2.4423e-05
-4.83476e-05
4.76059e-05
-0.000117336
8.08524e-05
-0.00021629
0.00012558
-0.000346649
0.000182937
-0.000509346
0.000253601
-0.000704378
0.000337547
-0.000930336
-0.00118401
2.36245e-06
3.84144e-06
1.07177e-05
-1.60505e-05
2.65722e-05
-6.42022e-05
5.1471e-05
-0.000142235
8.69224e-05
-0.000251742
0.00013427
-0.000393996
0.000194512
-0.000569588
0.000268081
-0.000777947
0.000354613
-0.00101687
0.000452767
-0.00128217
-0.00156762
2.60833e-06
1.23311e-06
1.1699e-05
-2.51412e-05
2.87948e-05
-8.1298e-05
5.54396e-05
-0.000168879
9.31029e-05
-0.000289405
0.000143029
-0.000443922
0.000206035
-0.000632594
0.000282275
-0.000854188
0.000371019
-0.00110561
0.000470509
-0.00138166
0.000577972
-0.00167509
0.000689834
-0.00197716
-0.00227861
2.8652e-06
-1.63208e-06
1.27161e-05
-3.49921e-05
3.10823e-05
-9.96642e-05
5.94926e-05
-0.00019729
9.93581e-05
-0.00032927
0.000151797
-0.000496362
0.000217414
-0.000698211
0.000296054
-0.000932828
0.000386602
-0.00119616
0.000486887
-0.00148194
0.000593773
-0.00178197
0.000703459
-0.00208685
0.000811959
-0.00238711
-0.00267446
3.13242e-06
-4.7645e-06
1.37654e-05
-4.56252e-05
3.34249e-05
-0.000119324
6.36092e-05
-0.000227474
0.000105649
-0.000371311
0.000160511
-0.000551223
0.000228553
-0.000766253
0.000309288
-0.00101356
0.000401205
-0.00128808
0.000501735
-0.00158247
0.000607428
-0.00188766
0.000714337
-0.00219376
0.000818545
-0.00249132
0.000916695
-0.00277261
-0.00303251
3.40924e-06
-8.17374e-06
1.48431e-05
-5.7059e-05
3.58117e-05
-0.000140292
6.77666e-05
-0.000259429
0.000111936
-0.00041548
0.000169104
-0.00060839
0.000239357
-0.000836506
0.000321853
-0.00109606
0.000414682
-0.00138091
0.000514907
-0.0016827
0.000618824
-0.00199158
0.000722421
-0.00229735
0.000821933
-0.00259083
0.000914347
-0.00286502
0.000997732
-0.00311589
0.00107134
-0.00334247
-0.00354645
3.69479e-06
-1.18685e-05
1.59446e-05
-6.93088e-05
3.8231e-05
-0.000162579
7.19404e-05
-0.000293138
0.000118175
-0.000461714
0.000177508
-0.000667724
0.00024973
-0.000908728
0.000333628
-0.00117996
0.000426902
-0.00147418
0.000526284
-0.00178208
0.000627884
-0.00209318
0.000727705
-0.00239718
0.000822212
-0.00268534
0.000908779
-0.00295159
0.000985941
-0.00319306
0.0010534
-0.00340993
0.00111182
-0.00360486
-0.00378217
3.98807e-06
-1.58566e-05
1.70651e-05
-8.23858e-05
4.06699e-05
-0.000186183
7.61047e-05
-0.000328573
0.00012432
-0.00050993
0.000185656
-0.00072906
0.00025958
-0.000982651
0.000344501
-0.00126488
0.00043775
-0.00156743
0.000535773
-0.0018801
0.000634564
-0.00219197
0.000730225
-0.00249284
0.000819507
-0.00277462
0.000900204
-0.00303229
0.000971308
-0.00326416
0.00103292
-0.00347155
0.00108602
-0.00365796
0.00113207
-0.00382823
0.00117278
-0.00398726
-0.00414053
4.28794e-06
-2.01445e-05
1.81992e-05
-9.62971e-05
4.31146e-05
-0.000211099
8.02322e-05
-0.000365691
0.000130327
-0.000560025
0.000193479
-0.000792211
0.000268816
-0.00105799
0.000354371
-0.00135043
0.000447128
-0.00166019
0.000543306
-0.00197628
0.000638858
-0.00228752
0.000730049
-0.00258403
0.000813971
-0.00285854
0.000888852
-0.00310717
0.000954118
-0.00332943
0.00101023
-0.00352766
0.0010584
-0.00370613
0.0011002
-0.00387003
0.00113731
-0.00402437
-0.00417435
0.00117113
4.59313e-06
-2.47377e-05
1.93412e-05
-0.000111045
4.55507e-05
-0.000237308
8.42947e-05
-0.000404435
0.000136149
-0.00061188
0.000200909
-0.000856971
0.000277354
-0.00113443
0.000363146
-0.00143623
0.000454959
-0.001752
0.000548846
-0.00207017
0.000640787
-0.00237947
0.000727277
-0.00267052
0.000805781
-0.00293704
0.000874961
-0.00317635
0.000934647
-0.00338911
0.000985611
-0.00357863
0.00102923
-0.00374975
0.00106715
-0.00390794
0.00110099
-0.0040582
-0.0042054
0.00113203
4.90224e-06
-2.96399e-05
2.04847e-05
-0.000126628
4.79628e-05
-0.000264786
8.82633e-05
-0.000444735
0.000141739
-0.000665356
0.000207884
-0.000923116
0.000285117
-0.00121167
0.00037075
-0.00152186
0.000461188
-0.00184244
0.00055238
-0.00216136
0.000640403
-0.00246749
0.000722032
-0.00275215
0.000795127
-0.00301014
0.000858773
-0.00323999
0.000913164
-0.0034435
0.000959327
-0.00362479
0.000998769
-0.00378919
0.00103313
-0.00394231
0.00106397
-0.00408904
-0.00423389
0.00109245
5.21373e-06
-3.48536e-05
2.16232e-05
-0.000143037
5.03351e-05
-0.000293498
9.21086e-05
-0.000486509
0.000147053
-0.0007203
0.000214341
-0.000990404
0.000292036
-0.00128936
0.00037712
-0.00160694
0.000465779
-0.0019311
0.000553921
-0.0022495
0.000637782
-0.00255135
0.000714456
-0.00282882
0.00078221
-0.00307789
0.000840525
-0.00329831
0.00088992
-0.0034929
0.000931624
-0.00366649
0.00096722
-0.00382479
0.000998329
-0.00397342
0.0010264
-0.0041171
-0.00425998
0.00105249
5.52595e-06
-4.03796e-05
2.27498e-05
-0.000160261
5.26512e-05
-0.0003234
9.58013e-05
-0.000529659
0.000152044
-0.000776543
0.000220224
-0.00105858
0.000298051
-0.00136719
0.000382208
-0.0016911
0.000468716
-0.0020176
0.000553503
-0.00233429
0.000633019
-0.00263086
0.000704705
-0.00290051
0.00076723
-0.00314042
0.000820448
-0.00335153
0.000865151
-0.0035376
0.000902722
-0.00370406
0.000934781
-0.00385685
0.000962894
-0.00400153
0.0009884
-0.00414261
-0.00428383
0.00101225
5.83716e-06
-4.62167e-05
2.38572e-05
-0.000178281
5.48949e-05
-0.000354437
9.93128e-05
-0.000574077
0.000156673
-0.000833903
0.000225482
-0.00112739
0.000303113
-0.00144482
0.000385983
-0.00177397
0.000470003
-0.00210162
0.000551182
-0.00241547
0.000626226
-0.00270591
0.000692943
-0.00296722
0.000750392
-0.00319787
0.000798762
-0.0033999
0.000839074
-0.00357791
0.000872818
-0.00373781
0.000901618
-0.00388565
0.000926961
-0.00402687
0.000950072
-0.00416572
-0.00430554
0.000971784
6.14552e-06
-5.23623e-05
2.49381e-05
-0.000197074
5.70496e-05
-0.000386549
0.000102615
-0.000619642
0.0001609
-0.000892188
0.000230071
-0.00119656
0.000307181
-0.00152193
0.000388427
-0.00185522
0.000469662
-0.00218286
0.00054703
-0.00249284
0.000617528
-0.00277641
0.000679339
-0.00302904
0.000731892
-0.00325042
0.000775672
-0.00344368
0.000811884
-0.00361413
0.000842087
-0.00376801
0.000867872
-0.00391143
0.000890641
-0.00404964
0.000911498
-0.00418658
-0.00432521
0.000931168
6.44912e-06
-5.88114e-05
2.59852e-05
-0.00021661
5.90993e-05
-0.000419663
0.000105681
-0.000666224
0.000164688
-0.000951195
0.000233952
-0.00126583
0.000310229
-0.00159821
0.000389537
-0.00193452
0.00046773
-0.00226105
0.000541133
-0.00256624
0.000607058
-0.00284233
0.000664062
-0.00308604
0.000711919
-0.00329828
0.00075137
-0.00348313
0.00078376
-0.00364652
0.000810679
-0.00379493
0.000833669
-0.00393442
0.000854028
-0.00407
0.000872747
-0.0042053
-0.00434291
0.000890448
6.74602e-06
-6.55574e-05
2.6991e-05
-0.000236855
6.10281e-05
-0.0004537
0.000108486
-0.000713682
0.000168007
-0.00101072
0.000237095
-0.00133492
0.000312238
-0.00167335
0.000389326
-0.00201161
0.000464259
-0.00233599
0.000533586
-0.00263557
0.000594953
-0.0029037
0.00064728
-0.00313837
0.000690654
-0.00334165
0.000726031
-0.0035185
0.000754859
-0.00367534
0.000778729
-0.0038188
0.000799113
-0.00395481
0.000817203
-0.00408809
0.000833877
-0.00422197
-0.0043587
0.000849665
7.03424e-06
-7.25916e-05
2.79482e-05
-0.000257769
6.28212e-05
-0.000488573
0.000111008
-0.000761869
0.000170829
-0.00107054
0.000239476
-0.00140356
0.000313204
-0.00174708
0.000387816
-0.00208622
0.000459313
-0.00240748
0.000524496
-0.00270075
0.000581355
-0.00296056
0.000629154
-0.00318617
0.000668264
-0.00338076
0.000699815
-0.00355005
0.000725322
-0.00370085
0.000746352
-0.00383983
0.000764293
-0.00397275
0.00078023
-0.00410403
0.000794936
-0.00423668
-0.00437262
0.000808856
7.31182e-06
-7.99035e-05
2.88498e-05
-0.000279307
6.44643e-05
-0.000524188
0.000113224
-0.000810629
0.000173132
-0.00113044
0.000241081
-0.00147151
0.000313128
-0.00181912
0.000385042
-0.00215814
0.000452964
-0.0024754
0.000513973
-0.00276176
0.000566401
-0.00301298
0.000609841
-0.00322961
0.000644905
-0.00341583
0.000672867
-0.00357802
0.000695274
-0.00372326
0.000713648
-0.00385821
0.000729286
-0.00398838
0.000743168
-0.00411791
0.000755966
-0.00424948
-0.0043847
0.000768051
7.5768e-06
-8.74803e-05
2.96889e-05
-0.000301419
6.59443e-05
-0.000560443
0.000115118
-0.000859803
0.000174897
-0.00119022
0.0002419
-0.00153851
0.000312025
-0.00188925
0.00038105
-0.00222716
0.000445292
-0.00253965
0.000502129
-0.0028186
0.00055023
-0.00306108
0.000589485
-0.00326886
0.000620722
-0.00344706
0.000645315
-0.00360261
0.000664822
-0.00374277
0.000680702
-0.00387409
0.000694156
-0.00400184
0.000706062
-0.00412982
0.000717001
-0.00426042
-0.00439498
0.000727278
7.82729e-06
-9.53075e-05
3.04591e-05
-0.00032405
6.72494e-05
-0.000597233
0.000116674
-0.000909228
0.000176112
-0.00124966
0.000241933
-0.00160434
0.000309917
-0.00195723
0.000375891
-0.00229314
0.000436384
-0.00260014
0.000489079
-0.00287129
0.000532972
-0.00310498
0.000568226
-0.00330412
0.000595845
-0.00347468
0.000617276
-0.00362404
0.000634061
-0.00375955
0.000647588
-0.00388761
0.000658959
-0.00401321
0.000668954
-0.00413981
0.000678072
-0.00426953
-0.00440347
0.000686559
8.06144e-06
-0.000103369
3.11544e-05
-0.000347143
6.83689e-05
-0.000634448
0.000117879
-0.000958738
0.000176768
-0.00130855
0.000241185
-0.00166875
0.000306832
-0.00202288
0.000369626
-0.00235593
0.000426328
-0.00265684
0.000474937
-0.0029199
0.000514755
-0.0031448
0.000546191
-0.00333555
0.000570392
-0.00349888
0.000588851
-0.0036425
0.000603075
-0.00377377
0.00061437
-0.00389891
0.000623741
-0.00402258
0.000631877
-0.00414795
0.000639205
-0.00427686
-0.00441018
0.000645917
8.27749e-06
-0.000111646
3.17693e-05
-0.000370635
6.92938e-05
-0.000671972
0.000118724
-0.00100817
0.000176863
-0.00136669
0.00023967
-0.00173156
0.000302807
-0.00208602
0.000362317
-0.00241544
0.000415217
-0.00270974
0.000459813
-0.0029645
0.000495699
-0.00318068
0.000523499
-0.00336335
0.000544472
-0.00351985
0.000560131
-0.00365816
0.000571934
-0.00378558
0.000581101
-0.00390807
0.000588542
-0.00403002
0.000594863
-0.00415427
0.000600423
-0.00428242
-0.00441512
0.00060537
8.47383e-06
-0.00012012
3.2299e-05
-0.00039446
7.00165e-05
-0.00070969
0.000119203
-0.00105735
0.000176398
-0.00142388
0.000237405
-0.00179257
0.000297884
-0.0021465
0.000354034
-0.00247159
0.00040314
-0.00275885
0.000443814
-0.00300517
0.000475917
-0.00321279
0.000500256
-0.00338769
0.000518179
-0.00353778
0.000531194
-0.00367117
0.0005407
-0.00379508
0.000547828
-0.0039152
0.000553398
-0.00403559
0.000557936
-0.00415881
0.000561746
-0.00428623
-0.00441832
0.000564938
8.64988e-06
-0.00012877
3.27411e-05
-0.000418552
7.05341e-05
-0.000747483
0.000119315
-0.00110614
0.000175384
-0.00147995
0.00023442
-0.0018516
0.000292115
-0.00220419
0.000344854
-0.00252433
0.000390197
-0.00280419
0.00042705
-0.00304202
0.00045552
-0.00324126
0.00047657
-0.00340874
0.000491606
-0.00355281
0.000502119
-0.00368169
0.000509436
-0.0038024
0.0005146
-0.00392037
0.000518344
-0.00403934
0.000521128
-0.00416159
0.000523201
-0.00428831
-0.00441976
0.000524643
8.8025e-06
-0.000137573
3.30882e-05
-0.000442837
7.08365e-05
-0.000785231
0.000119053
-0.00115435
0.000173821
-0.00153472
0.000230729
-0.00190851
0.000285538
-0.002259
0.000334835
-0.00257363
0.000376461
-0.00284582
0.000409604
-0.00307517
0.000434592
-0.00326624
0.000452514
-0.00342666
0.000464815
-0.00356511
0.00047295
-0.00368982
0.000478172
-0.00380762
0.000481435
-0.00392363
0.000483393
-0.00404129
0.000484443
-0.00416264
0.000484791
-0.00428865
-0.00441945
0.000484487
8.93136e-06
-0.000146504
3.33394e-05
-0.000467245
7.09238e-05
-0.000822816
0.000118423
-0.00120185
0.000171728
-0.00158802
0.000226371
-0.00196316
0.00027821
-0.00231084
0.000324055
-0.00261947
0.000362026
-0.00288379
0.000391576
-0.00310472
0.000413228
-0.00328789
0.000428175
-0.00344161
0.000437879
-0.00357482
0.000443748
-0.00369569
0.000446956
-0.00381083
0.000448371
-0.00392504
0.000448575
-0.0040415
0.000447908
-0.00416197
0.000446539
-0.00428728
-0.00441741
0.000444494
9.0354e-06
-0.000155539
3.34922e-05
-0.000491702
7.07948e-05
-0.000860118
0.00011743
-0.00124849
0.000169122
-0.00163972
0.00022138
-0.00201541
0.000270186
-0.00235965
0.000312585
-0.00266187
0.000346974
-0.00291818
0.000373051
-0.00313079
0.00039151
-0.00330635
0.000403627
-0.00345373
0.000410859
-0.00358205
0.00041456
-0.00369939
0.000415823
-0.00381209
0.000415435
-0.00392466
0.00041391
-0.00403997
0.000411539
-0.0041596
0.00040846
-0.00428421
-0.00441363
0.000404678
9.11372e-06
-0.000164653
3.35451e-05
-0.000516133
7.04499e-05
-0.000897023
0.000116079
-0.00129412
0.000166022
-0.00168966
0.000215792
-0.00206518
0.00026152
-0.00240537
0.000300495
-0.00270084
0.000331382
-0.00294906
0.000354108
-0.00315352
0.000369514
-0.00332176
0.000378932
-0.00346315
0.000383806
-0.00358692
0.000385426
-0.00370101
0.000384804
-0.00381147
0.00038265
-0.0039225
0.000379416
-0.00403674
0.000375353
-0.00415554
0.000370568
-0.00427942
-0.00440811
0.000365052
9.16562e-06
-0.000173819
3.34974e-05
-0.000540465
6.9891e-05
-0.000933417
0.000114382
-0.00133861
0.000162451
-0.00173773
0.000209646
-0.00211238
0.000252267
-0.00244799
0.000287853
-0.00273643
0.000315327
-0.00297654
0.000334822
-0.00317301
0.000347306
-0.00333424
0.000354149
-0.00346999
0.000356767
-0.00358954
0.000356382
-0.00370063
0.000353925
-0.00380901
0.000350036
-0.00391862
0.000345111
-0.00403181
0.000339362
-0.00414979
0.000332876
-0.00427293
-0.00440087
0.000325631
9.19056e-06
-0.000183009
3.33487e-05
-0.000564623
6.91212e-05
-0.000969189
0.000112349
-0.00138184
0.000158432
-0.00178381
0.000202981
-0.00215693
0.000242482
-0.0024875
0.000274724
-0.00276867
0.000298876
-0.00300069
0.00031526
-0.0031894
0.000324947
-0.00334393
0.000329329
-0.00347437
0.000329782
-0.00358999
0.000327458
-0.0036983
0.00032321
-0.00380477
0.000317611
-0.00391302
0.000311008
-0.00402521
0.000303581
-0.00414237
0.000295399
-0.00426475
-0.0043919
0.000286428
9.18818e-06
-0.000192198
3.30995e-05
-0.000588535
6.8145e-05
-0.00100423
0.000109993
-0.00142368
0.000153992
-0.00182781
0.000195838
-0.00219877
0.000232218
-0.00252388
0.000261169
-0.00279762
0.000282095
-0.00302162
0.000295485
-0.00320279
0.000302492
-0.00335094
0.000304517
-0.0034764
0.000302887
-0.00358836
0.000298681
-0.0036941
0.00029268
-0.00379876
0.000285393
-0.00390573
0.000277122
-0.00401694
0.000268023
-0.00413327
0.000258147
-0.00425487
-0.00438121
0.000247456
9.1583e-06
-0.000201356
3.2751e-05
-0.000612127
6.69679e-05
-0.00103845
0.000107329
-0.00146404
0.000149156
-0.00186964
0.000188256
-0.00223787
0.000221526
-0.00255714
0.000247249
-0.00282335
0.000265045
-0.00303941
0.000275553
-0.00321329
0.000279991
-0.00335538
0.000279752
-0.00347616
0.000276112
-0.00358472
0.000270077
-0.00368806
0.000262353
-0.00379104
0.000253396
-0.00389677
0.000243467
-0.00400701
0.0002327
-0.0041225
0.000221133
-0.00424331
-0.0043688
0.000208727
9.10089e-06
-0.000210457
3.23046e-05
-0.000635331
6.55966e-05
-0.00107174
0.000104372
-0.00150282
0.000143952
-0.00190922
0.000180277
-0.0022742
0.000210457
-0.00258733
0.000233018
-0.00284591
0.000247782
-0.00305418
0.000255515
-0.00322103
0.000257487
-0.00335735
0.000255072
-0.00347374
0.000249487
-0.00357914
0.000241665
-0.00368024
0.000232247
-0.00378162
0.000221633
-0.00388616
0.000210054
-0.00399543
0.000197623
-0.00411007
0.000184369
-0.00423005
-0.00435468
0.000170251
9.01611e-06
-0.000219473
3.17626e-05
-0.000658078
6.40384e-05
-0.00110402
0.000101138
-0.00153992
0.00013841
-0.00194649
0.000171938
-0.00230773
0.000199059
-0.00261445
0.000218528
-0.00286538
0.000230356
-0.003066
0.000235419
-0.00322609
0.00023502
-0.00335695
0.000230506
-0.00346923
0.000223034
-0.00357167
0.000213464
-0.00367067
0.000202375
-0.00377053
0.000190119
-0.0038739
0.000176895
-0.00398221
0.000162803
-0.00409598
0.000147865
-0.00421512
-0.00433886
0.000132041
8.90424e-06
-0.000228377
3.11277e-05
-0.000680301
6.23018e-05
-0.00113519
9.76451e-05
-0.00157526
0.000132555
-0.0019814
0.00016328
-0.00233845
0.000187378
-0.00263854
0.00020383
-0.00288183
0.000212815
-0.00307499
0.000215306
-0.00322858
0.000212624
-0.00335427
0.000206084
-0.00346269
0.000196775
-0.00356236
0.000185492
-0.00365939
0.000172752
-0.00375779
0.000158865
-0.00386001
0.000144002
-0.00396735
0.000128249
-0.00408022
0.000111631
-0.0041985
-0.00432133
9.41077e-05
8.76574e-06
-0.000237143
3.04028e-05
-0.000701938
6.03955e-05
-0.00116519
9.39105e-05
-0.00160878
0.000126417
-0.00201391
0.000154338
-0.00236637
0.000175457
-0.00265966
0.000188966
-0.00289534
0.000195202
-0.00308122
0.000195214
-0.0032286
0.000190332
-0.00334938
0.000181828
-0.00345418
0.00017073
-0.00355126
0.000157764
-0.00364642
0.000143391
-0.00374342
0.000127882
-0.00384451
0.000111386
-0.00395085
9.39758e-05
-0.00406281
7.56712e-05
-0.00418019
-0.00430211
5.64432e-05
8.60116e-06
-0.000245744
2.95915e-05
-0.000722928
5.83288e-05
-0.00119392
8.99524e-05
-0.0016404
0.000120023
-0.00204398
0.000145148
-0.0023915
0.000163337
-0.00267785
0.000173981
-0.00290598
0.000177556
-0.0030848
0.000175177
-0.00322622
0.00016817
-0.00334238
0.000157762
-0.00344378
0.000144915
-0.00353841
0.000130292
-0.0036318
0.000114303
-0.00372743
9.71832e-05
-0.00382739
7.90615e-05
-0.00393273
6.00057e-05
-0.00404376
4.00082e-05
-0.0041602
-0.00428102
1.89213e-05
8.41121e-06
-0.000254155
2.86974e-05
-0.000743215
5.61117e-05
-0.00122134
8.57887e-05
-0.00167008
0.000113399
-0.00207159
0.000135746
-0.00241384
0.000151056
-0.00269316
0.000158912
-0.00291384
0.000159913
-0.0030858
0.000155225
-0.00322153
0.000146163
-0.00333331
0.000133903
-0.00343152
0.000119345
-0.00352385
0.00010309
-0.00361554
8.54993e-05
-0.00370984
6.6777e-05
-0.00380866
4.70362e-05
-0.00391299
2.63524e-05
-0.00402307
4.77227e-06
-0.00413862
-0.00425818
-1.8065e-05
8.19669e-06
-0.000262352
2.77246e-05
-0.000762743
5.37539e-05
-0.00124737
8.14375e-05
-0.00169776
0.000106573
-0.00209672
0.000126163
-0.00243343
0.00013865
-0.00270565
0.000143794
-0.00291898
0.000142305
-0.00308431
0.000135386
-0.00321461
0.000124332
-0.00332226
0.00011027
-0.00341745
9.40335e-05
-0.00350762
7.61676e-05
-0.00359768
5.69898e-05
-0.00369066
3.66737e-05
-0.00378835
1.53187e-05
-0.00389163
-7.0115e-06
-0.00400074
-3.03284e-05
-0.0041153
-0.0042339
-5.46059e-05
7.95848e-06
-0.00027031
2.66774e-05
-0.000781462
5.12658e-05
-0.00127196
7.69166e-05
-0.00172341
9.95695e-05
-0.00211938
0.000116431
-0.0024503
0.000126153
-0.00271537
0.000128661
-0.00292149
0.000124761
-0.00308041
0.000115683
-0.00320553
0.000102698
-0.00330928
8.68768e-05
-0.00340163
6.89927e-05
-0.00348973
4.95362e-05
-0.00357822
2.87843e-05
-0.00366991
6.88293e-06
-0.00376645
-1.60801e-05
-0.00386867
-4.00448e-05
-0.00397678
-6.50031e-05
-0.00409034
-0.00420797
-9.09391e-05
7.69756e-06
-0.000278008
2.55601e-05
-0.000799324
4.86577e-05
-0.00129505
7.22435e-05
-0.001747
9.24127e-05
-0.00213954
0.000106579
-0.00246446
0.000113595
-0.00272239
0.000113542
-0.00292144
0.000107307
-0.00307418
9.61391e-05
-0.00319436
8.12773e-05
-0.00329442
6.3737e-05
-0.00338409
4.42332e-05
-0.00347023
2.32049e-05
-0.00355719
8.89605e-07
-0.0036476
-2.25861e-05
-0.00374297
-4.71513e-05
-0.0038441
-7.27453e-05
-0.00395118
-9.93399e-05
-0.00406375
-0.00418036
-0.000126946
7.41499e-06
-0.000285423
2.43772e-05
-0.000816286
4.59397e-05
-0.00131662
6.74353e-05
-0.00176849
8.5126e-05
-0.00215724
9.66332e-05
-0.00247597
0.000101005
-0.00272676
9.8463e-05
-0.00291889
8.9967e-05
-0.00306568
7.67726e-05
-0.00318117
6.00845e-05
-0.00327773
4.08625e-05
-0.00336487
1.97646e-05
-0.00344913
-2.81784e-06
-0.00353461
-2.66798e-05
-0.00362373
-5.17241e-05
-0.00371793
-7.78855e-05
-0.00381794
-0.000105103
-0.00392397
-0.000133335
-0.00403551
-0.00415109
-0.000162602
7.11186e-06
-0.000292535
2.31335e-05
-0.000832308
4.31221e-05
-0.0013366
6.25086e-05
-0.00178788
7.77315e-05
-0.00217246
8.66202e-05
-0.00248486
8.84096e-05
-0.00272855
8.34498e-05
-0.00291393
7.27616e-05
-0.00305499
5.76007e-05
-0.00316601
3.91331e-05
-0.00325926
1.82636e-05
-0.003344
-4.40425e-06
-0.00342646
-2.85226e-05
-0.00351049
-5.39214e-05
-0.00359834
-8.05227e-05
-0.00369132
-0.000108273
-0.00379019
-0.000137108
-0.00389513
-0.000166976
-0.00400565
-0.00412018
-0.000197892
6.78933e-06
-0.000299324
2.18335e-05
-0.000847352
4.02149e-05
-0.00135499
5.74794e-05
-0.00180514
7.02504e-05
-0.00218523
7.65637e-05
-0.00249117
7.58323e-05
-0.00272782
6.8524e-05
-0.00290663
5.57098e-05
-0.00304218
3.86386e-05
-0.00314894
1.84351e-05
-0.00323906
-4.05031e-06
-0.00332152
-2.82649e-05
-0.00340225
-5.39034e-05
-0.00348485
-8.08253e-05
-0.00357141
-0.000108973
-0.00366318
-0.000138304
-0.00376086
-0.000168752
-0.00386468
-0.000200252
-0.00397415
-0.00408762
-0.000232807
6.44859e-06
-0.000305773
2.0482e-05
-0.000861386
3.7228e-05
-0.00137173
5.2363e-05
-0.00182028
6.27024e-05
-0.00219557
6.64858e-05
-0.00249495
6.32954e-05
-0.00272463
5.37058e-05
-0.00289704
3.88284e-05
-0.0030273
1.98995e-05
-0.00313001
-1.99939e-06
-0.00321716
-2.60705e-05
-0.00329744
-5.18108e-05
-0.00337651
-7.89527e-05
-0.00345771
-0.000107384
-0.00354298
-0.000137067
-0.00363349
-0.000167969
-0.00372996
-0.000200024
-0.00383263
-0.000233151
-0.00394102
-0.00405344
-0.000267336
6.09085e-06
-0.000311864
1.90835e-05
-0.000874378
3.41709e-05
-0.00138682
4.71743e-05
-0.00183328
5.51063e-05
-0.0022035
5.6407e-05
-0.00249626
5.0819e-05
-0.00271904
3.90132e-05
-0.00288523
2.21323e-05
-0.00301042
1.3954e-06
-0.00310927
-2.21606e-05
-0.0031936
-4.779e-05
-0.00327181
-7.50351e-05
-0.00334926
-0.000103664
-0.00342908
-0.00013359
-0.00351306
-0.000164795
-0.00360229
-0.000197259
-0.00369749
-0.000230915
-0.00379897
-0.000265664
-0.00390627
-0.00401763
-0.000301469
5.71735e-06
-0.000317581
1.76428e-05
-0.000886304
3.10529e-05
-0.00140023
4.19272e-05
-0.00184416
4.74794e-05
-0.00220905
4.63463e-05
-0.00249512
3.84216e-05
-0.00271111
2.44623e-05
-0.00287127
5.63496e-06
-0.00299159
-1.68634e-05
-0.00308677
-4.2041e-05
-0.00316842
-6.92021e-05
-0.00324465
-9.79319e-05
-0.00332053
-0.000128031
-0.00339898
-0.000159436
-0.00348165
-0.000192149
-0.00356958
-0.000226164
-0.00366348
-0.000261412
-0.00376372
-0.00029778
-0.0038699
-0.00398022
-0.000335198
5.32933e-06
-0.00032291
1.61642e-05
-0.000897139
2.78832e-05
-0.00141195
3.6635e-05
-0.00185291
3.98382e-05
-0.00221226
3.63212e-05
-0.00249161
2.61197e-05
-0.00270091
1.00677e-05
-0.00285522
-1.0652e-05
-0.00297087
-3.48676e-05
-0.00306256
-6.16332e-05
-0.00314166
-9.03009e-05
-0.00321599
-0.000120496
-0.00329034
-0.000152048
-0.00336743
-0.000184917
-0.00344878
-0.000219122
-0.00353537
-0.000254673
-0.00362793
-0.000291506
-0.00372689
-0.000329489
-0.00383192
-0.00394119
-0.000368511
4.92806e-06
-0.000327838
1.46524e-05
-0.000906863
2.46702e-05
-0.00142197
3.13104e-05
-0.00185955
3.21979e-05
-0.00221314
2.63479e-05
-0.00248576
1.39285e-05
-0.00268849
-4.15725e-06
-0.00283713
-2.67179e-05
-0.00294831
-5.26092e-05
-0.00303666
-8.0931e-05
-0.00311334
-0.000111081
-0.00318584
-0.000142722
-0.0032587
-0.00017571
-0.00333444
-0.000210025
-0.00341447
-0.000245705
-0.00349969
-0.000282778
-0.00359086
-0.000321186
-0.00368848
-0.000360778
-0.00379233
-0.00390057
-0.000401401
4.51482e-06
-0.000332353
1.31115e-05
-0.00091546
2.14223e-05
-0.00143028
2.59652e-05
-0.00186409
2.45728e-05
-0.00221175
1.64411e-05
-0.00247762
1.86476e-06
-0.00267392
-1.82016e-05
-0.00281707
-4.25537e-05
-0.00292396
-7.0081e-05
-0.00300914
-9.99285e-05
-0.00308349
-0.000131538
-0.00315423
-0.000164605
-0.00322563
-0.000199012
-0.00330004
-0.000234756
-0.00337872
-0.000271892
-0.00346255
-0.000310468
-0.00355228
-0.000350439
-0.00364851
-0.000391638
-0.00375113
-0.00385835
-0.000433856
4.09092e-06
-0.000336444
1.1546e-05
-0.000922915
1.81475e-05
-0.00143688
2.06107e-05
-0.00186656
1.69761e-05
-0.00220812
6.61422e-06
-0.00246726
-1.0068e-05
-0.00265723
-3.20549e-05
-0.00279508
-5.81511e-05
-0.00289786
-8.72767e-05
-0.00298001
-0.000118621
-0.00305214
-0.000151667
-0.00312118
-0.000186143
-0.00319116
-0.00022195
-0.00326423
-0.000259103
-0.00334157
-0.000297675
-0.00342398
-0.000337734
-0.00351222
-0.000379254
-0.00360699
-0.000422056
-0.00370833
-0.00381454
-0.000465867
3.65774e-06
-0.000340102
9.95999e-06
-0.000929217
1.48534e-05
-0.00144177
1.52577e-05
-0.00186696
9.41974e-06
-0.00220228
-3.11891e-06
-0.00245472
-2.18498e-05
-0.0026385
-4.57076e-05
-0.00277122
-7.35029e-05
-0.00287007
-0.000104191
-0.00294932
-0.000137004
-0.00301933
-0.000171465
-0.00308672
-0.00020733
-0.00315529
-0.000244521
-0.00322704
-0.000283064
-0.00330303
-0.000323049
-0.003384
-0.000364568
-0.0034707
-0.000407618
-0.00356394
-0.000452019
-0.00366393
-0.00376914
-0.000497425
3.21673e-06
-0.000343318
8.35745e-06
-0.000934358
1.15471e-05
-0.00144496
9.91625e-06
-0.00186533
1.92198e-06
-0.00219428
-1.27531e-05
-0.00244005
-3.34743e-05
-0.00261778
-5.91515e-05
-0.00274554
-8.86027e-05
-0.00284062
-0.000120818
-0.00291711
-0.000155074
-0.00298508
-0.000190928
-0.00305087
-0.000228165
-0.00311805
-0.000266721
-0.00318848
-0.000306634
-0.00326311
-0.000348008
-0.00334262
-0.00039096
-0.00342775
-0.00043552
-0.00351938
-0.000481515
-0.00361793
2.76886e-06
-0.000346087
6.74226e-06
-0.000938331
8.23608e-06
-0.00144645
4.59365e-06
-0.00186169
-5.52668e-06
-0.00218416
-2.22722e-05
-0.0024233
-4.4932e-05
-0.00259512
-7.23793e-05
-0.0027181
-0.000103445
-0.00280955
-0.000137155
-0.0028834
-0.000172826
-0.0029494
-0.000210054
-0.00301364
-0.000248643
-0.00307946
-0.000288547
-0.00314858
-0.00032981
-0.00322185
-0.000372549
-0.00329988
-0.000416903
-0.0033834
-0.000462946
-0.00347334
2.31534e-06
-0.000348403
5.11788e-06
-0.000941134
4.92751e-06
-0.00144626
-6.7952e-07
-0.00185608
-1.28968e-05
-0.00217195
-3.16687e-05
-0.00240453
-5.62148e-05
-0.00257058
-8.53845e-05
-0.00268893
-0.000118024
-0.00277691
-0.000153197
-0.00284823
-0.000190259
-0.00291234
-0.000228838
-0.00297506
-0.000268763
-0.00303954
-0.000309997
-0.00310735
-0.000352591
-0.00317926
-0.000396668
-0.00325581
-0.000442392
-0.00333767
1.85728e-06
-0.00035026
3.48792e-06
-0.000942764
1.62512e-06
-0.0014444
-5.95745e-06
-0.0018485
-2.019e-05
-0.00215771
-4.09342e-05
-0.00238379
-6.73156e-05
-0.0025442
-9.81614e-05
-0.00265808
-0.000132336
-0.00274274
-0.00016894
-0.00281162
-0.000207368
-0.00287391
-0.000247279
-0.00293515
-0.000288522
-0.0029983
-0.000331069
-0.0030648
-0.000374975
-0.00313535
-0.000420366
-0.00321042
1.3955e-06
-0.000351655
1.8549e-06
-0.000943224
-1.66713e-06
-0.00144088
-1.11694e-05
-0.00183899
-2.73939e-05
-0.00214149
-5.0061e-05
-0.00236112
-7.82276e-05
-0.00251603
-0.000110705
-0.0026256
-0.000146377
-0.00270707
-0.000184382
-0.00277362
-0.000224152
-0.00283414
-0.000265375
-0.00289393
-0.000307917
-0.00295575
-0.000351761
-0.00302095
-0.000396962
-0.00309015
-0.00316374
9.29674e-07
-0.000352585
2.21001e-07
-0.000942515
-4.94521e-06
-0.00143571
-1.63314e-05
-0.00182761
-3.45017e-05
-0.00212332
-5.90422e-05
-0.00233658
-8.89451e-05
-0.00248613
-0.00012301
-0.00259154
-0.000160144
-0.00266993
-0.00019952
-0.00273424
-0.000240607
-0.00279306
-0.000283121
-0.00285141
-0.000326946
-0.00291193
-0.000372071
-0.00297583
-0.00041855
-0.00304367
4.49565e-07
-0.000353035
-1.41168e-06
-0.000940654
-8.19717e-06
-0.00142893
-2.14361e-05
-0.00181437
-4.1507e-05
-0.00210325
-6.78715e-05
-0.00231021
-9.94627e-05
-0.00245453
-0.000135073
-0.00255593
-0.000173632
-0.00263137
-0.000214351
-0.00269352
-0.000256732
-0.00275068
-0.000300516
-0.00280763
-0.000345606
-0.00286684
-0.000391996
-0.00292944
-4.98293e-08
-0.000352985
-3.04054e-06
-0.000937663
-1.14211e-05
-0.00142055
-2.64775e-05
-0.00179931
-4.84035e-05
-0.00208132
-7.65432e-05
-0.00228207
-0.000109776
-0.0024213
-0.000146889
-0.00251882
-0.00018684
-0.00259142
-0.000228872
-0.00265149
-0.000272522
-0.00270703
-0.000317557
-0.00276259
-0.000363893
-0.0028205
-0.0028818
-4.99105e-07
-0.000352486
-4.65471e-06
-0.000933507
-1.46125e-05
-0.00141059
-3.14498e-05
-0.00178248
-5.51856e-05
-0.00205759
-8.50521e-05
-0.00225221
-0.00011988
-0.00238647
-0.000158457
-0.00248024
-0.000199764
-0.00255011
-0.000243082
-0.00260817
-0.000287977
-0.00266213
-0.000334241
-0.00271633
-0.000381805
-0.00277294
-9.57668e-07
-0.000351528
-6.25664e-06
-0.000928208
-1.77671e-05
-0.00139908
-3.63481e-05
-0.0017639
-6.18481e-05
-0.00203209
-9.33936e-05
-0.00222066
-0.000129772
-0.0023501
-0.000169772
-0.00244024
-0.000212403
-0.00250748
-0.000256977
-0.0025636
-0.000303094
-0.00261601
-0.000350565
-0.00266886
-0.00272417
-1.42418e-06
-0.000350104