/*--------------------------------*- C++ -*----------------------------------*\
  =========                 |
  \\      /  F ield         | OpenFOAM: The Open Source CFD Toolbox
   \\    /   O peration     | Website:  https://openfoam.org
    \\  /    A nd           | Version:  7
     \\/     M anipulation  |
\*---------------------------------------------------------------------------*/
FoamFile
{
    version     2.0;
    format      ascii;
    class       volVectorField;
    location    "65";
    object      U;
}
// * * * * * * * * * * * * * * * * * * * * * * * * * * * * * * * * * * * * * //

dimensions      [0 1 -1 0 0 0 0];

internalField   nonuniform List<vector> 
8500
(
(-0.00882006 0.00681559 1.01109e-19)
(-0.00869202 0.00647504 8.51178e-20)
(-0.0175832 0.0146396 -1.12243e-19)
(-0.00849907 0.00610741 5.37053e-19)
(-0.0163868 0.0135287 -3.18685e-19)
(-0.0151515 0.0180618 -1.57601e-21)
(-0.00823327 0.00571207 -2.79413e-19)
(-0.0149479 0.0123602 2.62674e-21)
(-0.0118775 0.0162867 2.30771e-19)
(-0.00788632 0.00528887 -9.81977e-20)
(-0.0132446 0.0111362 5.85497e-20)
(-0.00813153 0.0144638 8.52941e-20)
(0.00730978 0.0159003 -2.51922e-19)
(-0.0074498 0.00483822 5.03992e-19)
(-0.0112545 0.00986043 -1.27119e-19)
(-0.00388051 0.0126021 -1.8441e-19)
(0.0144729 0.0136724 9.48622e-20)
(0.0438703 0.0139384 4.49227e-19)
(-0.00691512 0.00436107 -2.27027e-19)
(-0.00895535 0.00853792 3.46139e-20)
(0.000907974 0.0107128 -2.56832e-19)
(0.0224143 0.0114663 -3.62711e-19)
(0.0555894 0.0116895 -1.5604e-19)
(0.100441 0.0121593 -8.73786e-20)
(-0.00627363 0.00385903 -2.21804e-19)
(-0.00632492 0.00717546 4.89117e-19)
(0.00626553 0.00880952 3.05336e-19)
(0.0311704 0.00930354 1.36631e-19)
(0.0683667 0.00956855 -4.93979e-20)
(0.117789 0.0103935 -3.23999e-19)
(0.179245 0.012436 4.52821e-20)
(-0.00551666 0.00333432 3.94826e-20)
(-0.00334144 0.00578152 -7.37896e-20)
(0.0122224 0.00690833 5.43905e-20)
(0.0407745 0.00720863 -1.31282e-19)
(0.0822314 0.00760846 2.78417e-19)
(0.136436 0.0089032 5.04478e-19)
(0.203053 0.0117421 1.56284e-19)
(0.281431 0.0166401 9.80633e-20)
(-0.0046356 0.00278981 -1.33175e-19)
(1.62694e-05 0.00436628 -3.10389e-19)
(0.018807 0.00502779 -2.35291e-19)
(0.0512566 0.00520897 7.34419e-20)
(0.0972071 0.00584514 -3.97295e-19)
(0.156388 0.00773103 -4.95217e-19)
(0.228291 0.0114978 -6.65356e-20)
(0.312017 0.0176218 -1.54633e-19)
(0.40611 0.0263808 -1.57129e-20)
(-0.00362195 0.00222905 -1.02888e-19)
(0.00376857 0.00294171 -8.04084e-20)
(0.0260459 0.00318896 3.62096e-19)
(0.0626423 0.00333481 -2.2419e-19)
(0.11331 0.00431715 5.79549e-19)
(0.177641 0.00692167 2.44542e-19)
(0.25492 0.0117501 -1.60928e-19)
(0.343964 0.0192251 -2.75888e-19)
(0.442949 0.0295395 -4.40697e-19)
(0.549306 0.0426118 4.68285e-19)
(-0.00246743 0.00165628 2.02339e-19)
(0.00793474 0.00152149 3.29721e-19)
(0.0339629 0.00141531 1.34288e-20)
(0.0749529 0.00161901 2.0569e-19)
(0.130549 0.00306534 -4.97677e-19)
(0.200178 0.00652104 1.20509e-19)
(0.282885 0.0125453 -7.88471e-20)
(0.377163 0.0214902 -1.55476e-20)
(0.480789 0.0334446 -1.50384e-19)
(0.590751 0.0481902 -3.30999e-19)
(0.703324 0.0651869 1.6415e-19)
(-0.00116398 0.00107638 -3.63826e-20)
(0.0125327 0.000121035 -4.97951e-19)
(0.0425789 -0.000267383 -3.83952e-19)
(0.0882039 9.68977e-05 -2.44991e-20)
(0.148924 0.00213249 8.7258e-20)
(0.223972 0.00657571 -1.68851e-19)
(0.312117 0.013928 -9.8509e-22)
(0.411491 0.0244529 5.63325e-20)
(0.519441 0.0381151 8.32161e-20)
(0.632512 0.0545423 4.71226e-19)
(0.746589 0.0730273 1.9568e-19)
(0.857241 0.0925866 1.19931e-19)
(0.960203 0.11208 -1.60537e-19)
(0.000296056 0.000494923 6.48127e-20)
(0.017579 -0.00124258 2.64165e-19)
(0.0519114 -0.00183117 1.65087e-19)
(0.102405 -0.00119411 -3.03589e-19)
(0.168426 0.00156277 6.52061e-20)
(0.248982 0.00713218 3.97555e-19)
(0.34253 0.0159409 2.17731e-19)
(0.446804 0.0281441 2.8914e-20)
(0.558705 0.0435626 2.66772e-19)
(0.674335 0.0616546 -5.43938e-19)
(0.789236 0.0815406 -1.53284e-19)
(0.898817 0.102093 -6.56069e-20)
(0.998894 0.122087 3.88926e-19)
(1.08622 0.140375 -2.58025e-19)
(0.00191994 -8.18745e-05 -6.0455e-20)
(0.0230879 -0.00255071 -3.75131e-20)
(0.061974 -0.00324613 -9.69573e-20)
(0.11756 -0.00221483 3.18493e-19)
(0.189037 0.00140123 2.13784e-19)
(0.275155 0.00823616 -6.8285e-20)
(0.374023 0.0186235 -1.20858e-20)
(0.482947 0.0325891 2.6965e-19)
(0.598367 0.0497908 -4.11367e-19)
(0.715965 0.0695049 2.51897e-19)
(0.830998 0.0906798 2.58534e-19)
(0.938804 0.112059 6.91089e-20)
(1.03539 0.132359 -1.38193e-19)
(1.1179 0.150455 2.01552e-19)
(1.18495 0.165535 1.66499e-19)
(0.00371437 -0.000647146 -9.41942e-20)
(0.029072 -0.00378322 4.1477e-20)
(0.072776 -0.00448064 2.73423e-19)
(0.133665 -0.00292472 4.5154e-21)
(0.210728 0.00169315 -4.62676e-19)
(0.302426 0.00993172 -3.18173e-19)
(0.406481 0.022011 -2.72072e-19)
(0.51975 0.0378067 -1.43068e-19)
(0.638209 0.0567954 5.44817e-19)
(0.757154 0.0780635 -2.4276e-20)
(0.871628 0.100393 7.3951e-20)
(0.976999 0.122418 1.21157e-19)
(1.06955 0.142828 -4.0501e-19)
(1.14693 0.160553 -3.24783e-19)
(1.20832 0.174897 8.71025e-20)
(1.2543 0.185569 -1.69202e-20)
(1.28657 0.192688 -3.46233e-19)
(0.00568543 -0.00119341 1.19725e-19)
(0.0355411 -0.0049186 1.52979e-19)
(0.084322 -0.00550157 -2.82878e-19)
(0.150708 -0.00328234 -1.54424e-20)
(0.233461 0.0024834 5.44177e-19)
(0.330714 0.0122606 3.40582e-19)
(0.439776 0.0261343 -1.37235e-19)
(0.557033 0.0438089 2.02325e-19)
(0.678009 0.0645646 -2.16152e-19)
(0.797662 0.0872937 -2.18891e-19)
(0.910904 0.110623 2.23792e-19)
(1.01323 0.133104 -4.52808e-19)
(1.10131 0.153431 5.73366e-20)
(1.17332 0.17062 2.19237e-19)
(1.22903 0.184109 -1.20035e-19)
(1.26958 0.193766 1.72204e-19)
(1.29703 0.199843 -2.08277e-19)
(1.31394 0.202717 3.45582e-20)
(0.00783845 -0.00171259 1.40493e-19)
(0.0425027 -0.00593414 -4.65295e-19)
(0.0966117 -0.00627466 7.46554e-20)
(0.168672 -0.00324585 -7.81079e-20)
(0.257186 0.0038158 -1.91599e-19)
(0.359929 0.0152613 -1.53857e-19)
(0.473768 0.0310187 1.38118e-19)
(0.594608 0.0506006 -6.34378e-19)
(0.717546 0.0730788 -1.488e-19)
(0.837262 0.0971532 9.60208e-20)
(0.948628 0.121313 -1.21901e-19)
(1.04737 0.144056 3.51062e-19)
(1.13061 0.164115 2.46936e-19)
(1.19711 0.180616 8.60149e-20)
(1.24724 0.193152 4.76599e-19)
(1.28259 0.201748 -4.71455e-19)
(1.30559 0.206783 2.90769e-19)
(1.31891 0.208741 4.11616e-19)
(1.32522 0.208615 -2.93874e-19)
(1.32653 0.205593 8.27981e-20)
(0.0101779 -0.00219607 1.12719e-20)
(0.0499609 -0.00680605 -4.95001e-21)
(0.109639 -0.00676481 3.40621e-19)
(0.187528 -0.00277349 -4.91767e-20)
(0.281843 0.00573246 -2.12186e-20)
(0.38997 0.0189687 3.65581e-19)
(0.508307 0.0366835 4.20886e-19)
(0.632285 0.0581795 1.15266e-19)
(0.756605 0.0823118 2.48351e-19)
(0.875746 0.107595 -1.63707e-19)
(0.984637 0.132404 -1.39069e-19)
(1.07933 0.155215 -2.70796e-21)
(1.15746 0.17483 -1.71011e-19)
(1.2184 0.190511 -6.25421e-21)
(1.26308 0.202015 -3.35254e-19)
(1.29354 0.209523 1.32592e-19)
(1.31244 0.213529 3.11036e-19)
(1.32257 0.214606 -1.57025e-19)
(1.32652 0.213733 1.80817e-19)
(1.32621 0.210228 3.2628e-19)
(0.0127074 -0.00263471 4.34347e-20)
(0.0579171 -0.00750969 -1.19819e-19)
(0.123393 -0.00693642 -7.05053e-21)
(0.207241 -0.00182413 3.20316e-21)
(0.307362 0.00827311 -2.40729e-19)
(0.420721 0.023413 -3.41014e-20)
(0.543235 0.043142 -4.34301e-19)
(0.669869 0.0665364 4.5227e-19)
(0.794981 0.0922314 2.33674e-19)
(0.912927 0.11857 2.07019e-20)
(1.01879 0.143838 -2.31022e-21)
(1.10904 0.166526 -1.22755e-19)
(1.18188 0.185535 7.27099e-20)
(1.23729 0.200283 1.99391e-19)
(1.27672 0.210696 -3.47093e-19)
(1.3026 0.217103 2.64854e-19)
(1.31778 0.220103 -3.20101e-19)
(1.32507 0.220339 -1.44226e-20)
(1.32699 0.218766 1.1799e-21)
(1.32531 0.214812 1.46327e-19)
(0.0154293 -0.00301893 -9.49039e-20)
(0.066369 -0.00801975 -1.08641e-19)
(0.137855 -0.00675382 1.55309e-19)
(0.227769 -0.000357808 -6.92697e-20)
(0.333665 0.0114745 -2.18307e-20)
(0.452063 0.0286196 -2.13369e-19)
(0.578391 0.0504008 2.39123e-19)
(0.707172 0.0756553 -4.29527e-19)
(0.83248 0.1028 3.96419e-20)
(0.948641 0.130025 6.64366e-20)
(1.05099 0.15556 -3.65681e-20)
(1.13648 0.177941 2.6212e-20)
(1.20392 0.196197 -3.04445e-19)
(1.25389 0.209918 -2.32925e-19)
(1.28833 0.219197 1.95985e-19)
(1.30996 0.224504 -6.32663e-20)
(1.32178 0.226527 -3.8028e-19)
(1.32659 0.225964 -7.26007e-20)
(1.32675 0.223735 -3.19453e-19)
(1.32393 0.219364 -3.96255e-19)
(0.0183449 -0.00333877 -2.25495e-20)
(0.0753106 -0.00831046 1.60295e-19)
(0.153003 -0.00618159 1.1675e-19)
(0.24906 0.00166378 3.41903e-19)
(0.360661 0.0153699 -1.22607e-20)
(0.483864 0.0346086 1.82676e-19)
(0.613607 0.0584601 -3.88309e-19)
(0.744006 0.085514 1.36757e-19)
(0.868923 0.113977 -1.1505e-19)
(0.982747 0.141909 1.67244e-19)
(1.08116 0.167517 4.13009e-20)
(1.16165 0.189417 9.82189e-20)
(1.22366 0.20679 2.82787e-19)
(1.26834 0.219405 3.52664e-20)
(1.29807 0.227524 -1.76867e-19)
(1.31581 0.231743 2.93332e-19)
(1.32462 0.232824 1.03745e-19)
(1.32724 0.231505 -4.91374e-20)
(1.32591 0.228661 2.99702e-19)
(1.32212 0.223901 1.99272e-19)
(0.0214543 -0.00358395 7.39069e-20)
(0.0847324 -0.00835587 8.33133e-20)
(0.168807 -0.00518503 -2.06378e-19)
(0.271053 0.00427672 -4.72745e-20)
(0.388256 0.0199885 6.11808e-20)
(0.51599 0.0413941 -3.60451e-20)
(0.648718 0.0673137 2.20174e-19)
(0.780194 0.096085 -7.0133e-20)
(0.90415 0.125717 -8.63184e-20)
(1.01513 0.154169 -2.95524e-19)
(1.10924 0.17966 -1.89538e-19)
(1.18458 0.200917 -1.75584e-19)
(1.24119 0.217294 -1.43632e-19)
(1.28079 0.228744 5.52098e-20)
(1.3061 0.235689 -1.0785e-19)
(1.32028 0.23884 1.30073e-20)
(1.32642 0.239017 2.06502e-19)
(1.32715 0.236982 2.19847e-19)
(1.32455 0.233559 1.57317e-20)
(1.31996 0.228436 1.38778e-19)
(0.0247562 -0.00374396 3.8147e-20)
(0.0946208 -0.00813011 1.42347e-19)
(0.18523 -0.00373054 1.12767e-19)
(0.293683 0.00751444 -1.8782e-19)
(0.416344 0.0253551 1.74431e-19)
(0.5483 0.0489847 -5.67423e-20)
(0.683557 0.0769492 -1.21215e-19)
(0.815567 0.107336 2.91739e-19)
(0.938017 0.137974 -7.36632e-20)
(1.0457 0.166755 -2.82612e-21)
(1.13523 0.191944 2.03299e-19)
(1.20531 0.212411 -1.83664e-19)
(1.25663 0.227694 8.07678e-20)
(1.29137 0.237934 -2.04671e-19)
(1.31258 0.243704 3.46234e-19)
(1.32355 0.245813 -2.63257e-19)
(1.32731 0.245124 -1.59285e-19)
(1.32642 0.242412 -1.75678e-21)
(1.32274 0.238445 -2.35501e-19)
(1.31748 0.232979 -2.97804e-21)
(0.0282477 -0.00380816 -1.71684e-19)
(0.104958 -0.0076076 -6.3126e-20)
(0.202232 -0.00178601 -2.10187e-19)
(0.316876 0.0114072 -1.16593e-19)
(0.444815 0.0314894 -6.00422e-20)
(0.580651 0.0573827 -2.90231e-20)
(0.717964 0.0873486 1.33793e-19)
(0.849971 0.119229 -7.3411e-20)
(0.970403 0.150701 -3.60385e-20)
(1.0744 0.179617 9.13395e-20)
(1.15912 0.20433 -1.24577e-19)
(1.22392 0.223872 1.59479e-19)
(1.27008 0.23798 1.54119e-19)
(1.30023 0.24698 3.45642e-20)
(1.31766 0.251582 -9.8455e-20)
(1.32573 0.25268 -2.33127e-20)
(1.32742 0.251165 -1.3652e-19)
(1.32511 0.247812 -5.83119e-20)
(1.32053 0.243329 9.63233e-20)
(1.31472 0.237538 -1.65312e-19)
(0.0319248 -0.00376589 5.69411e-20)
(0.115723 -0.00676344 -9.68558e-20)
(0.219765 0.00067873 1.64979e-19)
(0.34055 0.0159817 7.72426e-20)
(0.473555 0.0384063 -1.11801e-19)
(0.6129 0.0665848 1.38529e-19)
(0.751784 0.0984881 3.46473e-20)
(0.883263 0.131726 -6.29202e-20)
(1.0012 0.163848 1.70256e-19)
(1.10117 0.192711 5.09153e-20)
(1.18092 0.216781 9.75132e-20)
(1.24047 0.23528 -1.01203e-19)
(1.28166 0.248149 -6.7632e-20)
(1.3075 0.255889 1.4412e-19)
(1.32147 0.25934 -4.14663e-20)
(1.32694 0.259459 2.38512e-19)
(1.32682 0.257156 1.26685e-19)
(1.32331 0.253193 -2.11234e-20)
(1.31797 0.248218 7.00685e-20)
(1.31171 0.242116 2.68719e-19)
(0.0357817 -0.00360656 -2.81941e-20)
(0.126891 -0.00557359 1.58659e-20)
(0.237776 0.00369156 -1.51009e-19)
(0.364621 0.0212606 9.7295e-20)
(0.502444 0.0461152 9.1224e-20)
(0.644904 0.0765817 -1.30852e-19)
(0.784869 0.110339 6.09036e-20)
(0.915314 0.144783 -1.19336e-19)
(1.03034 0.177368 -1.70942e-19)
(1.12599 0.205992 6.22588e-20)
(1.20068 0.229267 1.16023e-20)
(1.25507 0.246619 9.80023e-20)
(1.2915 0.258196 6.65975e-20)
(1.31331 0.26467 -4.54267e-20)
(1.32413 0.26699 -9.52978e-21)
(1.3273 0.266165 -3.63008e-20)
(1.3256 0.263109 -1.90107e-19)
(1.32107 0.258567 1.59363e-20)
(1.3151 0.25312 -1.27087e-19)
(1.30846 0.246718 1.0071e-21)
(0.0398111 -0.00331977 -3.18266e-20)
(0.138431 -0.00401524 -4.08365e-20)
(0.256207 0.00727766 1.59748e-19)
(0.388997 0.0272624 -1.98409e-20)
(0.531361 0.0546201 7.43435e-22)
(0.676524 0.0873585 -8.91911e-20)
(0.817081 0.12287 -1.57744e-20)
(0.946015 0.158356 6.40132e-20)
(1.05773 0.191215 2.20955e-19)
(1.14886 0.21942 -7.135e-20)
(1.21845 0.241759 1.23734e-20)
(1.26779 0.257875 3.9271e-20)
(1.2997 0.268124 -7.72117e-20)
(1.31779 0.273333 -5.00768e-20)
(1.32576 0.274547 1.35291e-20)
(1.32689 0.272812 4.74313e-20)
(1.32382 0.269037 1.2128e-19)
(1.31843 0.263939 -3.20357e-21)
(1.31193 0.258038 4.65113e-20)
(1.305 0.251344 3.19757e-20)
(0.0440042 -0.00289541 5.54767e-20)
(0.150311 -0.00206705 1.14352e-19)
(0.274994 0.0114592 7.9308e-20)
(0.413584 0.0340011 -4.35672e-20)
(0.560185 0.0639193 1.62579e-19)
(0.707624 0.0988951 9.68266e-20)
(0.848293 0.136043 -1.46233e-19)
(0.975267 0.1724 -5.14437e-20)
(1.08335 0.205343 9.60154e-22)
(1.16978 0.232958 -4.34424e-20)
(1.23429 0.254234 -1.26276e-19)
(1.27875 0.26904 2.11562e-20)
(1.30639 0.277934 2.42255e-22)
(1.32105 0.281887 -1.34591e-19)
(1.32645 0.282023 6.20267e-20)
(1.32579 0.279412 -3.36017e-20)
(1.32155 0.274947 -1.49085e-19)
(1.31544 0.269315 7.26183e-20)
(1.30851 0.262973 -1.54743e-19)
(1.30132 0.255992 -9.35742e-20)
(0.0483507 -0.00232383 -1.94345e-20)
(0.162495 0.000290559 -4.90428e-20)
(0.294072 0.016255 -8.24379e-20)
(0.438283 0.0414857 -3.99677e-21)
(0.588794 0.074006 -7.43838e-21)
(0.738073 0.111166 -9.17817e-20)
(0.878386 0.149819 2.10555e-20)
(1.00299 0.186868 2.00152e-20)
(1.10717 0.219708 -4.19807e-20)
(1.18878 0.246572 3.47568e-21)
(1.24827 0.266672 6.6607e-20)
(1.28803 0.280107 -8.85616e-21)
(1.31167 0.287629 5.13286e-20)
(1.32319 0.29034 2.3045e-20)
(1.32629 0.289428 -1.27644e-19)
(1.32407 0.285974 9.87177e-21)
(1.31883 0.280847 7.90491e-20)
(1.31211 0.274698 -1.8994e-20)
(1.30483 0.267925 3.78348e-21)
(1.29744 0.260661 -1.30303e-20)
(0.0528388 -0.00159589 -1.78727e-20)
(0.174942 0.00307514 -1.75335e-20)
(0.313369 0.0216803 -3.12629e-20)
(0.462995 0.0497204 -2.07195e-20)
(0.617067 0.0848677 -5.42257e-20)
(0.767749 0.124143 6.35128e-20)
(0.907258 0.164155 1.26796e-19)
(1.02912 0.201713 4.45775e-20)
(1.12915 0.234267 2.29741e-20)
(1.2059 0.260232 -5.52176e-20)
(1.26045 0.279055 -5.51911e-22)
(1.29573 0.291071 3.62123e-20)
(1.31565 0.297214 -4.68178e-20)
(1.32431 0.298703 1.79291e-20)
(1.32537 0.296773 6.07697e-20)
(1.32178 0.292506 -2.11179e-20)
(1.31569 0.28674 -3.76536e-20)
(1.30848 0.280088 -3.50982e-20)
(1.30091 0.272893 1.25539e-19)
(1.29337 0.265346 4.42471e-20)
(0.0574553 -0.000703128 -3.20724e-20)
(0.187609 0.00630199 3.89015e-20)
(0.33281 0.0277465 -8.95072e-21)
(0.487618 0.0587045 2.8151e-20)
(0.644887 0.0964869 -2.53873e-20)
(0.796536 0.137791 -1.56609e-20)
(0.934816 0.179009 -6.17812e-20)
(1.0536 0.216889 7.36477e-21)
(1.14931 0.248982 1.77701e-20)
(1.22118 0.273908 3.99891e-20)
(1.27093 0.291368 -1.56852e-20)
(1.30196 0.301927 -1.24312e-20)
(1.31843 0.306692 1.14319e-20)
(1.32449 0.306981 -2.02444e-20)
(1.32374 0.304065 4.63594e-20)
(1.31898 0.299012 3.09614e-20)
(1.31217 0.292629 -5.29445e-21)
(1.30455 0.285486 -3.50478e-21)
(1.29676 0.277873 -3.38688e-20)
(1.28909 0.270044 -4.24784e-20)
(0.0621855 0.00036216 6.92238e-21)
(0.200452 0.00998389 -1.21817e-20)
(0.352321 0.0344608 8.34391e-21)
(0.512051 0.0684321 -1.15532e-20)
(0.67214 0.108841 -4.46342e-20)
(0.824326 0.152072 2.08016e-20)
(0.960979 0.194332 1.0133e-20)
(1.0764 0.23235 -4.87491e-20)
(1.16765 0.263813 -3.08943e-20)
(1.23467 0.287576 -2.96846e-21)
(1.27978 0.303598 -4.35411e-20)
(1.3068 0.312674 4.52228e-20)
(1.32008 0.316068 -1.09857e-22)
(1.32381 0.315182 -6.09418e-21)
(1.32147 0.311308 -1.17702e-20)
(1.3157 0.305495 5.78422e-21)
(1.3083 0.298512 4.09564e-21)
(1.30035 0.290888 -1.58755e-21)
(1.29239 0.282862 -1.23358e-20)
(1.28462 0.274749 1.5081e-20)
(0.0670136 0.0016068 2.32518e-21)
(0.213421 0.014131 8.04358e-21)
(0.371823 0.0418263 4.5061e-21)
(0.536194 0.0788926 -2.11158e-21)
(0.698717 0.121903 2.94992e-20)
(0.851022 0.166947 -6.62271e-21)
(0.985679 0.210079 1.05795e-20)
(1.09749 0.248052 2.36009e-20)
(1.18419 0.278725 -4.28155e-21)
(1.24643 0.301211 1.07999e-21)
(1.28708 0.315735 1.19787e-20)
(1.31033 0.323309 -6.40859e-21)
(1.3207 0.325344 8.36231e-21)
(1.32234 0.323309 1.526e-21)
(1.31861 0.318506 -1.59499e-20)
(1.31198 0.311957 7.94394e-22)
(1.30409 0.30439 2.0851e-20)
(1.29587 0.29629 -4.35153e-21)
(1.28779 0.287854 6.49639e-21)
(1.27996 0.279454 -7.31535e-21)
(0.0719228 0.00303668 9.6275e-22)
(0.226467 0.0187505 1.19157e-20)
(0.391238 0.0498419 6.45321e-21)
(0.559947 0.09007 -1.32934e-21)
(0.724514 0.135641 2.7373e-20)
(0.876535 0.182371 -7.79229e-21)
(1.00886 0.226201 1.46435e-20)
(1.11685 0.26395 1.97682e-20)
(1.19896 0.293684 -4.10469e-21)
(1.25651 0.314791 9.26642e-22)
(1.29291 0.327766 1.36032e-20)
(1.31265 0.33383 -5.5264e-21)
(1.32036 0.334522 5.43578e-21)
(1.32013 0.331366 -1.34208e-21)
(1.31519 0.325661 -1.29497e-20)
(1.30784 0.318396 -3.81902e-22)
(1.29955 0.310258 2.05964e-20)
(1.29114 0.301687 -4.04683e-21)
(1.28297 0.292843 7.61687e-21)
(1.27509 0.284152 -8.14861e-21)
(0.0768952 0.00465662 8.36997e-21)
(0.239539 0.0238469 -1.53359e-20)
(0.410485 0.0585023 7.86355e-21)
(0.583214 0.101944 -6.36121e-21)
(0.749434 0.15002 -4.34073e-20)
(0.900785 0.198299 1.77195e-20)
(1.03048 0.24265 8.2316e-21)
(1.13449 0.28 -5.59019e-20)
(1.212 0.308657 -2.35769e-20)
(1.26498 0.328298 -2.21812e-23)
(1.29734 0.339683 -3.67052e-20)
(1.31383 0.344234 3.07179e-20)
(1.31912 0.343604 -6.90009e-21)
(1.31724 0.339354 4.37976e-21)
(1.31126 0.332773 -1.69734e-20)
(1.30331 0.324811 1.29198e-20)
(1.2947 0.316111 8.21466e-21)
(1.28615 0.307073 -1.47749e-21)
(1.27793 0.297822 -1.63054e-20)
(1.27003 0.288836 1.48936e-20)
(0.0819114 0.00647031 -1.81402e-20)
(0.252584 0.0294213 -8.28419e-21)
(0.429486 0.0677975 -1.20682e-20)
(0.605901 0.11449 4.17862e-20)
(0.773387 0.165 1.19409e-22)
(0.923703 0.214683 -2.23753e-20)
(1.0505 0.259377 -9.14772e-20)
(1.15041 0.296163 8.92025e-21)
(1.22333 0.323614 1.0427e-20)
(1.2719 0.34171 4.64796e-20)
(1.30045 0.351477 6.9305e-21)
(1.31393 0.354519 -3.92529e-20)
(1.31705 0.352588 3.70177e-20)
(1.31372 0.347272 -1.49565e-20)
(1.30685 0.339838 5.63774e-20)
(1.2984 0.331195 -5.21574e-21)
(1.28955 0.321944 2.89127e-21)
(1.2809 0.31244 2.51166e-21)
(1.27267 0.302782 -4.30517e-20)
(1.26477 0.293499 -2.58547e-20)
(0.0869519 0.00848025 -6.92709e-21)
(0.265547 0.0354718 -3.989e-20)
(0.448162 0.0777134 3.15663e-20)
(0.627918 0.127678 -4.0257e-20)
(0.796288 0.180539 -7.28573e-20)
(0.945228 0.231472 6.36726e-20)
(1.06889 0.276334 1.05129e-19)
(1.16461 0.312395 3.77127e-20)
(1.23302 0.338525 2.62673e-20)
(1.27734 0.355011 -7.52278e-20)
(1.3023 0.363137 5.77154e-20)
(1.31302 0.364681 6.66703e-21)
(1.31419 0.361474 -7.28883e-20)
(1.3096 0.355118 2.85323e-20)
(1.30197 0.346853 1.00903e-19)
(1.29313 0.337544 -6.92405e-20)
(1.28411 0.327748 -1.96924e-20)
(1.27541 0.317781 -1.89312e-20)
(1.26719 0.307715 8.75394e-20)
(1.2593 0.29813 4.98652e-20)
(0.0919964 0.0106876 4.74896e-20)
(0.278377 0.0419931 -8.13126e-20)
(0.466437 0.0882318 -1.1856e-19)
(0.649182 0.141474 5.34274e-21)
(0.818062 0.19659 -2.17653e-20)
(0.965311 0.248617 -8.75616e-20)
(1.08564 0.293472 -1.46231e-20)
(1.17712 0.328658 4.52258e-20)
(1.2411 0.353361 -7.26866e-20)
(1.28136 0.368182 5.95533e-20)
(1.30297 0.374656 6.90392e-20)
(1.31117 0.374714 -4.34818e-20)
(1.3106 0.370257 1.78356e-20)
(1.30491 0.362888 8.95785e-20)
(1.29666 0.353813 -1.19583e-19)
(1.28751 0.343851 2.07553e-20)
(1.27837 0.333516 5.62386e-20)
(1.26966 0.323085 -1.69708e-20)
(1.26148 0.312613 -1.83634e-20)
(1.25364 0.302721 -3.14947e-21)
(0.0970239 0.0130924 7.03771e-20)
(0.291018 0.048977 1.30856e-19)
(0.484236 0.0993302 6.95012e-20)
(0.66961 0.155842 -8.32408e-20)
(0.838641 0.213106 2.17716e-19)
(0.983908 0.266064 3.36723e-20)
(1.10075 0.310743 -9.28994e-20)
(1.18797 0.344913 -6.70608e-20)
(1.24763 0.368095 -5.36998e-20)
(1.28402 0.381208 1.80384e-20)
(1.30251 0.386023 -6.05584e-20)
(1.30842 0.384614 1.86417e-21)
(1.30632 0.378933 -4.08707e-20)
(1.29968 0.370577 -5.57418e-20)
(1.29093 0.360711 -9.4623e-21)
(1.28155 0.350107 -5.73892e-21)
(1.27235 0.339237 -1.03977e-19)
(1.26366 0.328344 7.808e-20)
(1.25555 0.317465 -1.18053e-19)
(1.24776 0.307264 -6.82202e-20)
(0.102014 0.0156933 -8.54912e-20)
(0.303418 0.0564119 -3.52112e-20)
(0.501486 0.110982 1.57199e-19)
(0.689128 0.17074 3.98987e-20)
(0.857962 0.230036 -1.37187e-19)
(1.00099 0.283761 -7.97156e-20)
(1.11421 0.3281 -2.65473e-20)
(1.19719 0.361122 1.72361e-19)
(1.25265 0.382701 1.23177e-19)
(1.28538 0.394071 -4.209e-20)
(1.30099 0.397229 -2.43439e-20)
(1.30483 0.394374 6.17396e-20)
(1.30138 0.387497 -6.65951e-20)
(1.29395 0.378178 3.09071e-20)
(1.28479 0.367538 1.31753e-20)
(1.27525 0.356302 -1.67341e-20)
(1.26604 0.344903 1.2594e-19)
(1.25742 0.333547 -5.28299e-20)
(1.2494 0.322261 1.0594e-19)
(1.24169 0.311748 -3.63968e-20)
(0.106944 0.0184874 -4.82583e-20)
(0.315524 0.0642832 -8.90774e-20)
(0.51812 0.123158 -1.41339e-19)
(0.707668 0.186125 8.572e-20)
(0.875975 0.247327 4.73687e-20)
(1.01652 0.301655 -6.7403e-20)
(1.12602 0.345495 1.12132e-19)
(1.2048 0.377249 -1.73017e-19)
(1.25622 0.397154 -1.83788e-19)
(1.2855 0.406755 1.10929e-19)
(1.29846 0.408263 4.12521e-20)
(1.30045 0.403985 -4.57876e-20)
(1.29582 0.39594 6.97137e-20)
(1.28773 0.385682 5.43415e-20)
(1.27826 0.374285 -3.93682e-20)
(1.26862 0.362426 -1.32057e-20)
(1.25944 0.350502 -9.56326e-20)
(1.25092 0.338684 1.91317e-20)
(1.24302 0.326992 -8.00548e-20)
(1.23541 0.316163 -1.24854e-20)
(0.111795 0.0214708 4.0085e-20)
(0.327286 0.0725732 -7.01448e-20)
(0.534071 0.135825 1.28201e-19)
(0.725165 0.201949 2.17456e-19)
(0.892632 0.264926 -3.12982e-19)
(1.0305 0.319693 2.75979e-19)
(1.13621 0.362883 7.40553e-20)
(1.21084 0.393259 -1.07645e-19)
(1.25838 0.411428 1.27102e-19)
(1.28444 0.419243 7.47366e-20)
(1.29497 0.419113 9.22335e-20)
(1.2953 0.413439 -1.59646e-19)
(1.28966 0.404254 -3.24433e-20)
(1.28104 0.39308 7.82451e-20)
(1.27134 0.380941 2.98184e-20)
(1.26167 0.368468 1.35191e-19)
(1.25256 0.356022 1.68459e-19)
(1.24417 0.343743 -4.13553e-20)
(1.23642 0.331646 7.11378e-20)
(1.22892 0.3205 7.83896e-20)
(0.116544 0.0246382 -1.17865e-20)
(0.338655 0.0812614 -1.63256e-19)
(0.549279 0.148945 -2.24236e-19)
(0.741564 0.218164 -2.93166e-19)
(0.907897 0.282777 -2.86907e-20)
(1.04291 0.337821 1.08199e-19)
(1.14479 0.380217 -2.05628e-20)
(1.21537 0.409115 3.63261e-20)
(1.2592 0.425499 -5.62202e-20)
(1.28224 0.431518 9.36332e-20)
(1.29056 0.429767 -1.42321e-19)
(1.28944 0.422726 1.84572e-19)
(1.28294 0.412429 1.05329e-19)
(1.27389 0.400361 4.7174e-20)
(1.26405 0.387495 -7.05795e-20)
(1.2544 0.374416 -7.53224e-20)
(1.24541 0.361451 -7.04473e-20)
(1.23717 0.348712 5.17247e-21)
(1.22959 0.336213 9.04826e-20)
(1.22223 0.324748 -9.46726e-20)
(0.121172 0.0279829 -2.07776e-20)
(0.349583 0.0903245 1.27025e-19)
(0.563685 0.162479 1.60345e-19)
(0.756812 0.234716 -2.5216e-20)
(0.921739 0.300824 7.49713e-20)
(1.05374 0.355986 2.02203e-20)
(1.15178 0.397454 -1.09973e-19)
(1.2184 0.424784 8.71067e-20)
(1.25872 0.439343 8.14823e-20)
(1.27896 0.443564 -1.40789e-19)
(1.28528 0.440213 2.25906e-19)
(1.28288 0.431834 -1.86526e-19)
(1.27567 0.420454 1.07107e-19)
(1.2663 0.407513 -1.54593e-19)
(1.25639 0.393934 2.25555e-19)
(1.24681 0.380257 -1.40784e-19)
(1.23797 0.366778 -4.04185e-20)
(1.22992 0.35358 -5.38186e-20)
(1.22254 0.340679 -1.12276e-19)
(1.21534 0.328896 2.26043e-21)
(0.125657 0.031497 1.49359e-19)
(0.360026 0.0997367 1.59143e-19)
(0.577238 0.176385 -2.30393e-19)
(0.770867 0.251554 -1.40682e-19)
(0.934133 0.319009 2.08758e-19)
(1.06299 0.374135 -8.33218e-20)
(1.1572 0.414549 1.21975e-19)
(1.22 0.440233 5.24579e-20)
(1.25698 0.452935 -1.21444e-19)
(1.27465 0.455364 -2.99476e-19)
(1.27918 0.450438 -5.34577e-20)
(1.27567 0.440751 -1.10757e-19)
(1.26788 0.428316 -1.63473e-19)
(1.25829 0.414524 1.32092e-20)
(1.24837 0.400245 -1.74761e-20)
(1.23891 0.385978 -1.53362e-20)
(1.23025 0.371989 1.26221e-19)
(1.22241 0.358335 8.95087e-20)
(1.21526 0.345033 1.08571e-20)
(1.20824 0.332931 5.03082e-20)
(0.129982 0.0351714 -3.6032e-20)
(0.36994 0.10947 2.82634e-19)
(0.589888 0.190618 1.09926e-19)
(0.783689 0.268622 2.24415e-19)
(0.945063 0.337277 7.33248e-20)
(1.07069 0.392215 2.81921e-20)
(1.1611 0.43146 -1.77278e-19)
(1.2202 0.455429 -5.69172e-20)
(1.25405 0.466252 2.84755e-20)
(1.26935 0.466899 2.22226e-19)
(1.27228 0.460426 -7.26223e-20)
(1.26784 0.449465 8.96224e-20)
(1.25959 0.436002 1.86212e-19)
(1.24986 0.42138 4.21628e-20)
(1.23999 0.406415 -3.68503e-20)
(1.2307 0.391566 4.82951e-20)
(1.22225 0.377071 8.93897e-20)
(1.21466 0.362963 3.89943e-20)
(1.20775 0.34926 1.00524e-19)
(1.20094 0.336839 7.32992e-20)
(0.134126 0.0389959 -9.41821e-20)
(0.379287 0.119493 -1.44834e-19)
(0.601594 0.205131 9.2424e-20)
(0.795246 0.285864 3.12163e-20)
(0.954519 0.355568 6.19594e-20)
(1.07683 0.410176 -2.53614e-19)
(1.16349 0.448143 9.1937e-20)
(1.21906 0.47034 -1.97757e-19)
(1.24996 0.479269 -1.0932e-19)
(1.2631 0.478151 1.2655e-19)
(1.26463 0.470162 -1.37527e-20)
(1.2594 0.45796 7.98748e-21)
(1.25081 0.443499 -2.25792e-19)
(1.24102 0.428066 -8.99967e-20)
(1.23127 0.412429 7.18979e-20)
(1.22218 0.397006 -1.2549e-19)
(1.21398 0.382012 -6.65842e-20)
(1.20666 0.367454 -6.69448e-20)
(1.20002 0.353355 -1.11946e-19)
(1.1934 0.340615 -2.47323e-19)
(0.138072 0.0429591 5.48317e-20)
(0.38803 0.129773 -6.83751e-20)
(0.612316 0.219875 -3.74205e-19)
(0.805513 0.303222 2.0272e-19)
(0.962494 0.373827 -2.52327e-19)
(1.08144 0.427965 -3.57803e-20)
(1.16443 0.464557 -3.46233e-19)
(1.2166 0.484934 3.67286e-19)
(1.24477 0.491965 2.088e-19)
(1.25595 0.489103 -1.27581e-20)
(1.25625 0.479632 7.31972e-20)
(1.25038 0.466223 -9.18662e-20)
(1.24155 0.450791 -7.16759e-21)
(1.23179 0.434569 4.25253e-20)
(1.2222 0.418273 -4.29494e-20)
(1.21336 0.402286 7.78372e-20)
(1.20544 0.386798 -1.00761e-19)
(1.19842 0.371796 -8.91744e-20)
(1.19207 0.357322 5.04395e-20)
(1.18563 0.344278 6.57916e-20)
(0.141803 0.0470487 1.25365e-19)
(0.396135 0.140277 1.26161e-19)
(0.622021 0.234801 9.78308e-20)
(0.814471 0.320639 -2.52849e-21)
(0.968992 0.391995 -6.53444e-20)
(1.08455 0.445533 4.43288e-19)
(1.16394 0.480663 2.51545e-19)
(1.21289 0.499181 1.69594e-19)
(1.23852 0.504315 2.39412e-19)
(1.24794 0.499735 2.87269e-20)
(1.24719 0.488818 -1.96532e-19)
(1.2408 0.474237 -2.00542e-20)
(1.23185 0.457864 -4.12213e-20)
(1.22217 0.440873 -1.33017e-19)
(1.2128 0.423932 -4.82427e-20)
(1.20423 0.407389 -6.82324e-20)
(1.19662 0.391414 2.08475e-19)
(1.18993 0.375973 -2.06331e-21)
(1.18389 0.361143 5.3964e-20)
(1.17771 0.347779 4.16223e-20)
(0.145303 0.0512513 -4.19705e-20)
(0.403572 0.150968 -7.33785e-20)
(0.630681 0.249858 -1.60843e-19)
(0.822104 0.338057 -2.72874e-20)
(0.974017 0.410016 -2.68045e-19)
(1.08616 0.462831 -1.92591e-19)
(1.16206 0.49642 6.39684e-20)
(1.20796 0.513051 -4.62124e-19)
(1.23126 0.516295 -2.49305e-19)
(1.23911 0.510029 6.01823e-20)
(1.23746 0.497705 -2.96064e-20)
(1.23069 0.481987 1.75769e-19)
(1.22169 0.4647 2.35509e-19)
(1.21218 0.446961 5.88427e-20)
(1.20307 0.42939 1.5571e-19)
(1.19482 0.412303 -7.91779e-20)
(1.18754 0.395848 1.03812e-19)
(1.1812 0.379975 5.7169e-20)
(1.17549 0.364793 4.68844e-20)
(1.16961 0.351122 -8.63269e-20)
(0.148558 0.0555529 6.29987e-20)
(0.410314 0.161809 -7.62415e-21)
(0.638272 0.264992 -2.48935e-19)
(0.828405 0.355418 -4.41019e-22)
(0.977582 0.427835 6.0336e-19)
(1.08632 0.479809 1.20793e-19)
(1.15884 0.511791 9.11893e-20)
(1.20186 0.526513 2.66841e-19)
(1.22302 0.527883 -2.15204e-19)
(1.22948 0.519965 -2.29033e-19)
(1.2271 0.506273 -1.14492e-21)
(1.22007 0.489457 -1.56912e-19)
(1.21112 0.471285 -8.63782e-20)
(1.20182 0.452819 2.28258e-19)
(1.19302 0.434632 -5.9678e-20)
(1.18511 0.417011 5.9702e-21)
(1.1782 0.400085 -7.61705e-20)
(1.17224 0.38379 -1.0889e-19)
(1.16689 0.368262 4.5049e-21)
(1.16133 0.35429 9.3302e-20)
(0.151554 0.0599385 -3.04358e-19)
(0.416337 0.172761 1.9101e-19)
(0.644776 0.28015 4.27712e-19)
(0.83337 0.372663 1.34536e-19)
(0.979702 0.445396 -7.10372e-19)
(1.08506 0.496422 -2.9387e-19)
(1.15432 0.526737 -2.29491e-19)
(1.19464 0.539538 -8.33672e-20)
(1.21385 0.539056 2.80462e-19)
(1.21911 0.529524 3.08378e-20)
(1.21613 0.514507 -5.6158e-20)
(1.20895 0.496628 1.06468e-19)
(1.20012 0.477601 1.49595e-20)
(1.1911 0.45843 -2.70178e-19)
(1.18265 0.439643 7.71852e-20)
(1.17512 0.4215 1.00622e-19)
(1.1686 0.404112 4.48875e-20)
(1.16303 0.387403 6.15176e-20)
(1.15807 0.371538 -1.00768e-19)
(1.15286 0.357272 -4.59468e-20)
(0.154279 0.0643926 -2.07172e-20)
(0.421623 0.183785 9.63676e-20)
(0.65018 0.295281 4.81571e-20)
(0.837001 0.389736 1.43521e-19)
(0.980397 0.462646 3.96491e-19)
(1.08241 0.512624 -2.58075e-19)
(1.14855 0.541222 -1.47343e-20)
(1.18634 0.552098 2.47214e-19)
(1.20379 0.549791 -2.97299e-19)
(1.20801 0.538687 9.64926e-20)
(1.20459 0.522387 2.44441e-19)
(1.19736 0.503484 5.53469e-20)
(1.18873 0.483632 -1.14197e-19)
(1.18004 0.463778 1.90273e-19)
(1.17198 0.444408 -2.14889e-19)
(1.16485 0.425754 3.2721e-21)
(1.15874 0.407915 -4.7609e-20)
(1.1536 0.390803 7.3831e-20)
(1.14906 0.37461 6.44825e-20)
(1.14421 0.360059 5.11153e-20)
(0.156722 0.0688989 3.9479e-20)
(0.426153 0.194841 1.53916e-19)
(0.654475 0.310329 1.53095e-19)
(0.839307 0.406579 -9.79118e-20)
(0.979693 0.479531 8.39695e-21)
(1.07842 0.528369 2.39644e-19)
(1.14156 0.55521 4.23287e-19)
(1.17701 0.564166 -4.40259e-20)
(1.19288 0.560065 4.08565e-20)
(1.19624 0.547433 -1.18247e-19)
(1.19249 0.529896 -2.48003e-19)
(1.18531 0.510007 3.95152e-20)
(1.17695 0.48936 1.35058e-19)
(1.16864 0.468846 -2.72954e-20)
(1.161 0.44891 -1.62707e-20)
(1.1543 0.42976 -8.05346e-20)
(1.14864 0.41148 -1.21015e-20)
(1.14395 0.393976 -3.13504e-20)
(1.13984 0.377467 -2.30392e-20)
(1.13538 0.362642 -4.18055e-20)
(0.158874 0.0734408 -1.35978e-19)