/*--------------------------------*- C++ -*----------------------------------*\
  =========                 |
  \\      /  F ield         | OpenFOAM: The Open Source CFD Toolbox
   \\    /   O peration     | Website:  https://openfoam.org
    \\  /    A nd           | Version:  7
     \\/     M anipulation  |
\*---------------------------------------------------------------------------*/
FoamFile
{
    version     2.0;
    format      ascii;
    class       volScalarField;
    location    "95";
    object      p;
}
// * * * * * * * * * * * * * * * * * * * * * * * * * * * * * * * * * * * * * //

dimensions      [0 2 -2 0 0 0 0];

internalField   nonuniform List<scalar> 
8500
(
-0.429988
-0.433583
-0.432066
-0.437413
-0.435643
-0.433529
-0.441472
-0.439434
-0.437135
-0.445759
-0.443436
-0.440941
-0.437941
-0.45027
-0.447649
-0.444947
-0.44176
-0.438203
-0.455001
-0.45207
-0.449154
-0.445771
-0.442039
-0.438094
-0.459952
-0.456698
-0.45356
-0.449974
-0.446058
-0.441951
-0.437719
-0.465118
-0.461533
-0.458165
-0.45437
-0.450264
-0.445985
-0.441588
-0.437094
-0.470497
-0.466571
-0.46297
-0.458959
-0.454657
-0.450196
-0.445619
-0.440925
-0.436066
-0.476086
-0.471812
-0.467972
-0.463742
-0.459236
-0.454584
-0.44981
-0.44489
-0.439751
-0.434279
-0.481881
-0.47725
-0.473169
-0.468718
-0.464002
-0.459147
-0.454156
-0.448982
-0.443524
-0.437644
-0.431193
-0.487876
-0.482883
-0.478558
-0.473882
-0.468951
-0.463881
-0.458652
-0.45319
-0.447369
-0.44103
-0.434017
-0.426208
-0.417543
-0.494066
-0.488704
-0.484135
-0.479231
-0.474079
-0.468779
-0.463288
-0.457503
-0.451271
-0.44442
-0.43679
-0.428277
-0.418852
-0.408571
-0.500442
-0.494707
-0.489892
-0.484759
-0.479378
-0.473833
-0.468053
-0.461904
-0.455212
-0.447792
-0.439492
-0.43023
-0.420015
-0.408946
-0.397186
-0.506993
-0.500882
-0.495822
-0.490458
-0.484839
-0.479032
-0.472931
-0.466376
-0.459171
-0.451126
-0.442102
-0.43205
-0.421022
-0.409158
-0.396657
-0.383743
-0.370607
-0.513707
-0.507218
-0.501914
-0.496317
-0.490451
-0.48436
-0.477904
-0.470896
-0.463123
-0.454396
-0.4446
-0.433722
-0.42186
-0.4092
-0.395971
-0.382414
-0.368731
-0.355136
-0.520569
-0.513701
-0.508155
-0.502322
-0.496199
-0.4898
-0.482953
-0.475443
-0.467045
-0.457581
-0.446964
-0.435229
-0.422521
-0.409066
-0.395124
-0.380946
-0.366739
-0.352701
-0.338759
-0.325721
-0.527561
-0.520316
-0.51453
-0.508459
-0.502065
-0.495332
-0.488054
-0.479989
-0.470909
-0.460653
-0.449174
-0.436555
-0.422992
-0.40875
-0.394111
-0.379335
-0.364626
-0.350166
-0.335895
-0.322547
-0.534665
-0.527045
-0.521022
-0.514709
-0.508029
-0.500933
-0.493179
-0.484505
-0.474686
-0.463588
-0.451208
-0.437686
-0.423264
-0.408245
-0.392927
-0.377575
-0.362388
-0.347527
-0.332943
-0.319296
-0.541857
-0.533867
-0.527609
-0.52105
-0.514067
-0.506576
-0.4983
-0.488962
-0.478348
-0.466359
-0.453046
-0.438605
-0.423328
-0.407544
-0.391569
-0.375664
-0.360018
-0.344775
-0.329895
-0.315962
-0.549111
-0.540758
-0.53427
-0.527458
-0.520153
-0.512232
-0.503384
-0.493327
-0.481864
-0.46894
-0.454668
-0.439299
-0.423171
-0.406641
-0.39003
-0.373594
-0.357512
-0.341906
-0.326744
-0.312537
-0.5564
-0.547692
-0.540977
-0.533906
-0.526257
-0.517868
-0.508399
-0.497566
-0.485202
-0.471306
-0.456053
-0.439754
-0.422786
-0.405528
-0.388304
-0.37136
-0.354862
-0.338911
-0.323482
-0.309011
-0.563694
-0.554641
-0.547702
-0.540364
-0.532348
-0.52345
-0.513309
-0.501646
-0.488333
-0.473431
-0.457182
-0.439954
-0.422161
-0.404196
-0.386383
-0.368955
-0.352061
-0.335782
-0.3201
-0.305378
-0.570959
-0.561573
-0.554414
-0.546799
-0.538389
-0.528941
-0.518075
-0.505529
-0.491224
-0.475289
-0.458036
-0.439886
-0.421286
-0.402639
-0.384261
-0.36637
-0.349101
-0.332512
-0.316592
-0.30163
-0.578158
-0.568454
-0.561079
-0.553177
-0.544344
-0.534302
-0.522659
-0.50918
-0.493845
-0.476857
-0.458596
-0.439536
-0.420151
-0.400846
-0.381929
-0.363599
-0.345974
-0.329093
-0.312949
-0.297759
-0.585256
-0.575249
-0.56766
-0.559458
-0.550173
-0.539492
-0.527022
-0.512564
-0.496165
-0.478109
-0.458845
-0.438892
-0.418745
-0.39881
-0.379378
-0.360633
-0.342672
-0.325516
-0.309162
-0.293758
-0.592211
-0.581919
-0.574119
-0.565603
-0.555834
-0.54447
-0.531123
-0.515643
-0.498155
-0.479023
-0.458764
-0.43794
-0.417058
-0.39652
-0.376601
-0.357464
-0.339186
-0.321774
-0.305225
-0.289618
-0.598981
-0.588423
-0.580414
-0.571569
-0.561284
-0.549192
-0.534922
-0.518384
-0.499786
-0.479577
-0.458338
-0.436667
-0.41508
-0.393968
-0.373588
-0.354082
-0.335509
-0.317858
-0.301129
-0.285334
-0.605524
-0.594719
-0.586504
-0.577314
-0.566478
-0.553614
-0.538378
-0.520751
-0.50103
-0.479748
-0.45755
-0.43506
-0.412799
-0.391144
-0.37033
-0.350479
-0.331631
-0.313761
-0.296867
-0.280897
-0.611793
-0.600764
-0.592344
-0.58279
-0.57137
-0.557693
-0.541453
-0.52271
-0.501859
-0.479518
-0.456384
-0.433107
-0.410205
-0.388038
-0.366818
-0.346647
-0.327544
-0.309473
-0.29243
-0.276301
-0.617743
-0.606512
-0.597887
-0.587952
-0.575915
-0.561384
-0.544105
-0.524229
-0.502249
-0.478865
-0.454825
-0.430796
-0.407287
-0.38464
-0.363043
-0.342576
-0.32324
-0.304988
-0.287813
-0.27154
-0.623327
-0.611917
-0.603088
-0.592753
-0.580066
-0.564645
-0.546299
-0.525277
-0.502175
-0.477772
-0.45286
-0.428115
-0.404036
-0.380942
-0.358996
-0.338257
-0.318711
-0.300298
-0.283007
-0.266607
-0.628496
-0.616932
-0.607898
-0.597145
-0.583776
-0.567431
-0.547996
-0.525824
-0.501615
-0.476222
-0.450474
-0.425052
-0.400441
-0.376933
-0.354668
-0.333684
-0.313949
-0.295396
-0.278007
-0.261497
-0.633204
-0.62151
-0.612271
-0.60108
-0.587
-0.569703
-0.549161
-0.525841
-0.500546
-0.474197
-0.447654
-0.421598
-0.396492
-0.372605
-0.350051
-0.328847
-0.308947
-0.290276
-0.272805
-0.256203
-0.637401
-0.625603
-0.616157
-0.60451
-0.589691
-0.571419
-0.549761
-0.525304
-0.498948
-0.471682
-0.444388
-0.417741
-0.392181
-0.367949
-0.345136
-0.323739
-0.303698
-0.284929
-0.267397
-0.250721
-0.64104
-0.629163
-0.61951
-0.607389
-0.591808
-0.572541
-0.549765
-0.524186
-0.496804
-0.468664
-0.440666
-0.413471
-0.387497
-0.362956
-0.339915
-0.318353
-0.298194
-0.279352
-0.261776
-0.245046
-0.644074
-0.632145
-0.622282
-0.609671
-0.593307
-0.573033
-0.549143
-0.522465
-0.494096
-0.465129
-0.436475
-0.40878
-0.382433
-0.357619
-0.334382
-0.312683
-0.292431
-0.273538
-0.255938
-0.239174
-0.646459
-0.634502
-0.624429
-0.611313
-0.594149
-0.572861
-0.547867
-0.520121
-0.490809
-0.461066
-0.431807
-0.403659
-0.376981
-0.351931
-0.32853
-0.306721
-0.286403
-0.267481
-0.249878
-0.233101
-0.648149
-0.636189
-0.625905
-0.612271
-0.594295
-0.571992
-0.545914
-0.517136
-0.486928
-0.456463
-0.426653
-0.398099
-0.371134
-0.345885
-0.322352
-0.300462
-0.280103
-0.261178
-0.243591
-0.226822
-0.649102
-0.637165
-0.626668
-0.612506
-0.59371
-0.570398
-0.543259
-0.513492
-0.482443
-0.451312
-0.421004
-0.392095
-0.364885
-0.339475
-0.315843
-0.293902
-0.273529
-0.254624
-0.237075
-0.220336
-0.649277
-0.637387
-0.626678
-0.61198
-0.59236
-0.568052
-0.539884
-0.509175
-0.477341
-0.445604
-0.414855
-0.385641
-0.358229
-0.332695
-0.308998
-0.287035
-0.266676
-0.247816
-0.230327
-0.213641
-0.648636
-0.636818
-0.625897
-0.610657
-0.590215
-0.564929
-0.535771
-0.504173
-0.471615
-0.439333
-0.408199
-0.37873
-0.351161
-0.325542
-0.301813
-0.27986
-0.25954
-0.240751
-0.223345
-0.206737
-0.647144
-0.63542
-0.624289
-0.608504
-0.587249
-0.56101
-0.530905
-0.498476
-0.465258
-0.432493
-0.401032
-0.371359
-0.343678
-0.318012
-0.294285
-0.272371
-0.252118
-0.233425
-0.216127
-0.199624
-0.644766
-0.633161
-0.621822
-0.605494
-0.583437
-0.556276
-0.525274
-0.492076
-0.458264
-0.42508
-0.393351
-0.363524
-0.335775
-0.310103
-0.286413
-0.264568
-0.244409
-0.225835
-0.208668
-0.19228
-0.641473
-0.630009
-0.618465
-0.601599
-0.578758
-0.550712
-0.518867
-0.484966
-0.450628
-0.417092
-0.385153
-0.355225
-0.327453
-0.301812
-0.278194
-0.256449
-0.236412
-0.217982
-0.200957
-0.184662
-0.637238
-0.625937
-0.614193
-0.596796
-0.573196
-0.544307
-0.511679
-0.477143
-0.44235
-0.408527
-0.376437
-0.34646
-0.318709
-0.293139
-0.269628
-0.248015
-0.228129
-0.209873
-0.193007
-0.176753
-0.632038
-0.62092
-0.608983
-0.591068
-0.566735
-0.537051
-0.503704
-0.468605
-0.433429
-0.399385
-0.367204
-0.337229
-0.309544
-0.284086
-0.260716
-0.239266
-0.21956
-0.201511
-0.184848
-0.168692
-0.625852
-0.614938
-0.602815
-0.584397
-0.559365
-0.52894
-0.494941
-0.459353
-0.423866
-0.389669
-0.357455
-0.327533
-0.29996
-0.274652
-0.251459
-0.230204
-0.210709
-0.192886
-0.176398
-0.160519
-0.618663
-0.607973
-0.595674
-0.576772
-0.551078
-0.519969
-0.485389
-0.449388
-0.413665
-0.379381
-0.347194
-0.317376
-0.289959
-0.26484
-0.241859
-0.220832
-0.201576
-0.184004
-0.16773
-0.152132
-0.610459
-0.600012
-0.587548
-0.568184
-0.541872
-0.51014
-0.475052
-0.438716
-0.402829
-0.368526
-0.336424
-0.306762
-0.279545
-0.254655
-0.23192
-0.211152
-0.192163
-0.174868
-0.158841
-0.143525
-0.60123
-0.591044
-0.578428
-0.558629
-0.531745
-0.499455
-0.463936
-0.427342
-0.391367
-0.35711
-0.325151
-0.295694
-0.268722
-0.244099
-0.221647
-0.201168
-0.182476
-0.165484
-0.14973
-0.134705
-0.590972
-0.581065
-0.56831
-0.548106
-0.5207
-0.48792
-0.452048
-0.415276
-0.379285
-0.345141
-0.313381
-0.284181
-0.257496
-0.233181
-0.211045
-0.190887
-0.172519
-0.155856
-0.140397
-0.125677
-0.579681
-0.57007
-0.557193
-0.536617
-0.508743
-0.475544
-0.439398
-0.402527
-0.366594
-0.332627
-0.301124
-0.272228
-0.245875
-0.221904
-0.200119
-0.180313
-0.162298
-0.14599
-0.130848
-0.11645
-0.567361
-0.558062
-0.545081
-0.524168
-0.495883
-0.462339
-0.425999
-0.389107
-0.353305
-0.319579
-0.288389
-0.259846
-0.233867
-0.210278
-0.188878
-0.169454
-0.151819
-0.135891
-0.121085
-0.107027
-0.554017
-0.545046
-0.53198
-0.510768
-0.482133
-0.448317
-0.411865
-0.375031
-0.339432
-0.30601
-0.275186
-0.247044
-0.22148
-0.198312
-0.177329
-0.158317
-0.14109
-0.125565
-0.111117
-0.0974173
-0.539658
-0.53103
-0.5179
-0.496431
-0.467507
-0.433497
-0.397012
-0.360315
-0.324987
-0.291931
-0.261528
-0.233833
-0.208726
-0.186014
-0.165483
-0.146912
-0.130119
-0.115022
-0.10095
-0.0876267
-0.524297
-0.516026
-0.502855
-0.481172
-0.452024
-0.417896
-0.381459
-0.344975
-0.309989
-0.277359
-0.247428
-0.220226
-0.195616
-0.173396
-0.153348
-0.135248
-0.118915
-0.104269
-0.0905926
-0.0776633
-0.507951
-0.500052
-0.486862
-0.465011
-0.435703
-0.401536
-0.365228
-0.329032
-0.294454
-0.262308
-0.2329
-0.206235
-0.182162
-0.16047
-0.140936
-0.123336
-0.10749
-0.0933167
-0.0800543
-0.0675361
-0.49064
-0.483125
-0.469942
-0.447969
-0.41857
-0.38444
-0.348341
-0.312505
-0.278401
-0.246795
-0.21796
-0.191876
-0.168377
-0.147248
-0.12826
-0.111187
-0.0958528
-0.0821754
-0.0693458
-0.0572551
-0.472387
-0.46527
-0.452119
-0.430073
-0.400649
-0.366636
-0.330818
-0.295417
-0.261851
-0.230841
-0.202626
-0.177163
-0.154277
-0.133743
-0.115333
-0.0988147
-0.0840171
-0.070857
-0.0584786
-0.0468322
-0.453219
-0.44651
-0.433418
-0.411349
-0.381971
-0.348151
-0.312686
-0.277792
-0.244824
-0.214463
-0.186914
-0.162114
-0.139876
-0.119971
-0.102167
-0.086231
-0.0719955
-0.0593744
-0.0474661
-0.0362811
-0.433165
-0.426876
-0.41387
-0.39183
-0.362565
-0.329004
-0.293981
-0.259655
-0.227345
-0.197683
-0.170844
-0.146746
-0.125191
-0.105946
-0.0887766
-0.0734502
-0.0598016
-0.0477412
-0.0363227
-0.025618
-0.412257
-0.4064
-0.393508
-0.37155
-0.342457
-0.309237
-0.274724
-0.241033
-0.209436
-0.180523
-0.154436
-0.131077
-0.110238
-0.0916838
-0.0751775
-0.0604865
-0.0474499
-0.0359722
-0.0250644
-0.014862
-0.390529
-0.385116
-0.372368
-0.350547
-0.321679
-0.288882
-0.254947
-0.221954
-0.191124
-0.163005
-0.13771
-0.115125
-0.095035
-0.0772005
-0.0613845
-0.0473548
-0.0349552
-0.0240823
-0.0137085
-0.368018
-0.363062
-0.350486
-0.328833
-0.30029
-0.267973
-0.234682
-0.202446
-0.172435
-0.145153
-0.120689
-0.0989113
-0.0795997
-0.0625128
-0.047413
-0.0340698
-0.0223324
-0.0120869
-0.344764
-0.340278
-0.327906
-0.306465
-0.278312
-0.246545
-0.213961
-0.182539
-0.153395
-0.126993
-0.103395
-0.0824558
-0.0639511
-0.0476376
-0.0332785
-0.0206462
-0.00959608
-0.320805
-0.316805
-0.304647
-0.283503
-0.255787
-0.224635
-0.19282
-0.162265
-0.134033
-0.108549
-0.0858501
-0.0657798
-0.0481081
-0.0325922
-0.0189965
-0.007098
-0.296178
-0.292697
-0.280777
-0.259973
-0.232755
-0.202282
-0.171294
-0.141656
-0.114379
-0.0898487
-0.0680798
-0.048905
-0.0320906
-0.0173942
-0.00458205
0.00656138
-0.270925
-0.26801
-0.256343
-0.235919
-0.20926
-0.179526
-0.149418
-0.120744
-0.0944616
-0.0709188
-0.0501087
-0.0318541
-0.0159187
-0.00206123
0.00994965
-0.245148
-0.242751
-0.231388
-0.211389
-0.185344
-0.156406
-0.127231
-0.0995647
-0.0743127
-0.0517877
-0.0319622
-0.0146501
0.000386664
0.0133888
-0.218899
-0.216962
-0.205959
-0.186431
-0.161054
-0.132965
-0.104769
-0.0781514
-0.0539637
-0.0324842
-0.0136667
0.00268278
0.0168042
0.0289374
-0.192184
-0.190726
-0.180105
-0.161092
-0.136434
-0.109244
-0.0820729
-0.0565399
-0.0334467
-0.0130379
0.00475061
0.0201198
0.0333115
-0.165058
-0.164096
-0.153878
-0.135422
-0.111531
-0.0852873
-0.0591804
-0.034766
-0.0127946
0.00652119
0.0232619
0.0376355
0.0498853
-0.137582
-0.137125
-0.127331
-0.10947
-0.0863921
-0.0611372
-0.036132
-0.0128664
0.00795901
0.0261621
0.0418389
0.0552038
-0.109808
-0.109864
-0.100515
-0.0832885
-0.0610646
-0.0368382
-0.012968
0.00912207
0.0287803
0.0458536
0.0604528
-0.081795
-0.0823673
-0.0734858
-0.0569275
-0.0355968
-0.0124346
0.0102709
0.0311621
0.0496348
0.065564
0.0790742
-0.0535995
-0.0546918
-0.0462967
-0.0304394
-0.0100373
0.0120289
0.0335437
0.0532161
0.0704882
0.0852617
-0.0252789
-0.0268929
-0.0190027
-0.00387622
0.0155655
0.0365074
0.0568094
0.0752464
0.0913057
0.104915
0.00310913
0.00097297
0.00834119
0.0227099
0.041163
0.0609562
0.0800269
0.0972153
0.112053
0.0315071
0.0288492
0.03568
0.0492667
0.0667064
0.0853305
0.103155
0.119085
0.132694
0.0598571
0.056679
0.0629586
0.0757421
0.0921473
0.109586
0.126153
0.140818
0.153196
0.0881018
0.0844059
0.0901223
0.102084
0.117438
0.133677
0.148979
0.162376
0.116184
0.111974
0.117117
0.128242
0.142529
0.157561
0.171594
0.183724
0.144046
0.139326
0.143887
0.154163
0.167375
0.181194
0.193958
0.171632
0.166408
0.170381
0.179799
0.191929
0.204533
0.21603
0.198887
0.193164
0.196545
0.205099
0.216143
0.227535
0.237773
0.225755
0.21954
0.222328
0.230013
0.239974
0.250158
0.252181
0.245484
0.247677
0.254495
0.263375
0.272362
0.278114
0.270943
0.272543
0.278497
0.286304
0.294107
0.303501
0.295866
0.296876
0.301972
0.308718
0.328291
0.320203
0.32063
0.324876
0.330576
0.352434
0.343905
0.343757
0.347165
0.351836
0.375884
0.366926
0.366211
0.368797
0.37246
0.398592
0.389219
0.38795
0.38973
0.420515
0.410741
0.408931
0.409926
0.441608
0.431449
0.429113
0.429345
0.46183
0.451302
0.448458
0.447952
0.481142
0.470261
0.466927
0.465711
0.499506
0.48829
0.484486
0.516886
0.505353
0.501102
0.533248
0.521417
0.516741
0.548561
0.536452
0.531376
0.562795
0.550428
0.544979
0.575923
0.563318
0.557523
0.58792
0.575098
0.568986
0.598764
0.585747
0.579346
0.608433
0.595243
0.588584
0.61691
0.603569
0.624179
0.610711
0.630228
0.616656
0.635046
0.621392
0.638625
0.624913
0.640959
0.627212
0.642044
0.628287
0.641881
0.628137
0.640471
0.626764
0.637819
0.624172
0.633932
0.620368
0.628819
0.615361
0.622491
0.609163
0.602138
0.614964
0.601787
0.594965
0.606254
0.593252
0.586663
0.596379
0.583574
0.577248
0.585363
0.572775
0.566742
0.573227
0.560878
0.555166
0.56
0.54791
0.542545
0.545708
0.533897
0.528905
0.530382
0.518869
0.514275
0.514054
0.502859
0.498685
0.496156
0.496761
0.4859
0.482168
0.480271
0.478537
0.468028
0.464758
0.463522
0.459421
0.449281
0.446491
0.445943
0.439455
0.429699
0.427405
0.427569
0.418679
0.409323
0.407539
0.408437
0.410044
0.397138
0.388195
0.386935
0.388587
0.391112
0.374877
0.366361
0.365636
0.368057
0.371524
0.351943
0.343866
0.343685
0.346889
0.351318
0.35547
0.328384
0.320757
0.321128
0.325127
0.330534
0.335762
0.304251
0.297084
0.298012
0.302813
0.309211
0.315533
0.279592
0.272897
0.274384
0.279993
0.287393
0.294823
0.254462
0.248245
0.250295
0.256713
0.265121
0.273671
0.281078
0.228911
0.223182
0.225792
0.23302
0.242438
0.252117
0.260696
0.202995
0.19776
0.200929
0.208961
0.21939
0.230201
0.239961
0.176768
0.172033
0.175755
0.184586
0.196022
0.207966
0.218911
0.228089
0.150284
0.146054
0.150324
0.159944
0.172379
0.185453
0.197585
0.20795
0.123599
0.119878
0.124688
0.135084
0.148507
0.162705
0.176022
0.187577
0.19705
0.0967703
0.0935613
0.0989001
0.110058
0.124454
0.139764
0.154262
0.167005
0.177637
0.0698527
0.0671579
0.0730144
0.0849144
0.100266
0.116676
0.132345
0.146271
0.15806
0.167682
0.0429028
0.0407236
0.0470843
0.0597056
0.0759914
0.0934823
0.11031
0.125413
0.138354
0.149083
0.0159771
0.0143135
0.0211634
0.0344821
0.0516766
0.0702275
0.088198
0.104466
0.118552
0.130383
-0.0108685
-0.0120172
-0.00469468
0.00929484
0.0273697
0.0469555
0.0660491
0.0834672
0.0986886
0.111614
0.122364
-0.0375782
-0.0382142
-0.0304367
-0.0158055
0.00311793
0.0237098
0.0439033
0.0624544
0.0787977
0.0928078
0.104592
0.114355
-0.0640963
-0.0642231
-0.0560097
-0.0407683
-0.0210315
0.000534199
0.0218008
0.0414639
0.058913
0.0739952
0.0868046
0.0975393
-0.0903673
-0.08999
-0.0813608
-0.0655435
-0.0450315
-0.022528
-0.000218767
0.0205321
0.039068
0.0552073
0.0690291
0.0807263
0.0905223
-0.116339
-0.115464
-0.106439
-0.090082
-0.068836
-0.0454341
-0.022116
-0.000304878
0.0192959
0.0364747
0.0512948
0.0639423
0.0746397
-0.141956
-0.140595
-0.131194
-0.114335
-0.0923991
-0.0681415
-0.0438518
-0.0210113
-0.000370646
0.0178274
0.0336291
0.0472134
0.058801
0.0686118
-0.167164
-0.165332
-0.155576
-0.138255
-0.115676
-0.0906085
-0.0653881
-0.0415521
-0.0198994
-0.000705066
0.0160593
0.0305645
0.0430294
0.0536749
-0.191926
-0.189614
-0.179536
-0.161794
-0.138621
-0.112794
-0.0866869
-0.0618929
-0.039259
-0.0190938
-0.00138825
0.0140198
0.0273469
0.0388148
0.0486345
-0.216227
-0.213374
-0.203027
-0.184909
-0.161192
-0.134658
-0.107711
-0.0819997
-0.0584183
-0.0373105
-0.0186876
-0.00239703
0.0117747
0.0240497
0.0346422
0.0437493
-0.239975
-0.236601
-0.226008
-0.207553
-0.183347
-0.15616
-0.128426
-0.10184
-0.0773474
-0.0553278
-0.0358136
-0.0186633
-0.00366691
0.00939774
0.0207465
0.0305832
0.0390347
-0.263116
-0.259255
-0.248433
-0.229684
-0.205043
-0.177263
-0.148794
-0.121381
-0.096017
-0.0731188
-0.0527421
-0.0347569
-0.0189579
-0.0051236
0.00696274
0.0175094
0.0266497
-0.285613
-0.281284
-0.270252
-0.251267
-0.22624
-0.197931
-0.168783
-0.140591
-0.114399
-0.0906578
-0.0694493
-0.0506563
-0.0340789
-0.019497
-0.00669373
0.00454173
0.0143483
0.0228259
-0.307429
-0.302646
-0.291427
-0.272263
-0.246896
-0.218125
-0.188358
-0.159441
-0.132465
-0.10792
-0.0859125
-0.0663407
-0.049011
-0.0337054
-0.0202076
-0.00830561
0.00214409
0.0112323
0.0198958
-0.328528
-0.323304
-0.311922
-0.292595
-0.267009
-0.237815
-0.207488
-0.177902
-0.150189
-0.12488
-0.10211
-0.08179
-0.0637358
-0.047732
-0.0335634
-0.021018
-0.00994812
-0.000269985
0.00891727
0.0175073
-0.348874
-0.34322
-0.331705
-0.312269
-0.286502
-0.256962
-0.226143
-0.195945
-0.167545
-0.141516
-0.11802
-0.0969849
-0.0782356
-0.0615604
-0.0467459
-0.0335806
-0.0219134
-0.0116654
-0.00197533
0.00710601
-0.368435
-0.362362
-0.35074
-0.331247
-0.305346
-0.27554
-0.244292
-0.213543
-0.18451
-0.157806
-0.133622
-0.111907
-0.092493
-0.0751744
-0.0597398
-0.0459787
-0.0337368
-0.0229389
-0.0127649
-0.00321135
-0.387179
-0.3807
-0.368996
-0.349493
-0.32352
-0.293513
-0.261911
-0.230671
-0.201059
-0.173727
-0.148897
-0.126537
-0.106492
-0.0885587
-0.0725305
-0.0581981
-0.0454042
-0.0340758
-0.0234355
-0.0134263
-0.405079
-0.398207
-0.386444
-0.366977
-0.340996
-0.310856
-0.27897
-0.247305
-0.217171
-0.189261
-0.163827
-0.14086
-0.120216
-0.101699
-0.0851038
-0.0702251
-0.0569018
-0.0450626
-0.0339729
-0.0235229
-0.422111
-0.414857
-0.403059
-0.383672
-0.357747
-0.327545
-0.295443
-0.263423
-0.232825
-0.204387
-0.178395
-0.154859
-0.13365
-0.11458
-0.0974464
-0.0820464
-0.0682168
-0.0558865
-0.044364
-0.0334878
-0.438253
-0.430631
-0.418821
-0.399557
-0.373747
-0.343555
-0.311311
-0.279001
-0.248002
-0.219089
-0.192583
-0.168519
-0.146781
-0.127189
-0.109545
-0.0936498
-0.079337
-0.0665358
-0.0545971
-0.0433095
-0.453485
-0.445509
-0.43371
-0.41461
-0.388975
-0.358864
-0.326551
-0.294021
-0.262683
-0.233349
-0.206377
-0.181826
-0.159595
-0.139513
-0.121389
-0.105024
-0.0902513
-0.0769996
-0.0646617
-0.0529777
-0.467793
-0.459478
-0.447711
-0.428814
-0.403412
-0.373452
-0.341143
-0.308465
-0.276851
-0.247153
-0.219763
-0.194766
-0.17208
-0.151542
-0.132966
-0.116158
-0.10095
-0.0872683
-0.0745484
-0.0624837
-0.481165
-0.472527
-0.46081
-0.442153
-0.417041
-0.387301
-0.355072
-0.322317
-0.290492
-0.260486
-0.232727
-0.207329
-0.184224
-0.163264
-0.144267
-0.127042
-0.111422
-0.0973329
-0.0842485
-0.0718193
-0.493592
-0.484648
-0.472999
-0.454618
-0.429849
-0.400397
-0.368321
-0.335561
-0.303591
-0.273336
-0.245259
-0.219502
-0.196019
-0.17467
-0.155282
-0.137668
-0.121661
-0.107186
-0.0937546
-0.0809772
-0.505071
-0.495837
-0.484274
-0.4662
-0.441825
-0.412727
-0.380877
-0.348184
-0.316136
-0.285692
-0.257348
-0.231278
-0.207454
-0.185751
-0.166003
-0.148028
-0.131659
-0.116819
-0.10306
-0.0899509
-0.515599
-0.506093
-0.49463
-0.476894
-0.452961
-0.424282
-0.392729
-0.360176
-0.328118
-0.297543
-0.268985
-0.242646
-0.218522
-0.1965
-0.176422
-0.158114
-0.141408
-0.126228
-0.11216
-0.0987341
-0.52518
-0.51542
-0.504072
-0.486699
-0.463254
-0.435053
-0.403868
-0.371527
-0.339526
-0.308882
-0.280162
-0.253601
-0.229216
-0.20691
-0.186535
-0.167922
-0.150904
-0.135406
-0.121049
-0.107321
-0.533818
-0.523824
-0.512602
-0.495617
-0.472701
-0.445037
-0.414288
-0.38223
-0.350354
-0.319701
-0.290873
-0.264135
-0.23953
-0.216976
-0.196335
-0.177444
-0.160142
-0.144349
-0.129726
-0.115705
-0.541524
-0.531315
-0.520232
-0.503654
-0.481304
-0.454231
-0.423984
-0.392279
-0.360595
-0.329995
-0.301113
-0.274245
-0.24946
-0.226693
-0.205818
-0.186679
-0.169116
-0.153053
-0.13819
-0.123885
-0.548311
-0.537907
-0.526971
-0.510819
-0.489069
-0.462636
-0.432955
-0.401671
-0.370246
-0.339759
-0.310877
-0.283927
-0.259003
-0.236059
-0.214981
-0.195621
-0.177825
-0.161514
-0.146437
-0.131871
-0.554194
-0.543618
-0.532838
-0.517125
-0.496003
-0.470257
-0.441201
-0.410404
-0.379305
-0.348993
-0.320164
-0.293178
-0.268155
-0.24507
-0.223821
-0.20427
-0.186266
-0.169727
-0.154436
-0.139746
-0.559195
-0.548466
-0.537849
-0.522586
-0.502117
-0.477101
-0.448725
-0.418479
-0.38777
-0.357693
-0.328972
-0.301997
-0.276917
-0.253726
-0.232337
-0.212622
-0.194437
-0.177696
-0.162213
-0.147407
-0.563335
-0.552477
-0.542029
-0.527223
-0.507427
-0.483176
-0.455533
-0.425899
-0.395643
-0.365861
-0.337301
-0.310384
-0.285287
-0.262026
-0.240528
-0.220677
-0.202336
-0.185418
-0.169756
-0.1548
-0.56664
-0.555677
-0.545402
-0.531058
-0.51195
-0.488496
-0.461632
-0.432668
-0.402926
-0.373498
-0.345153
-0.318341
-0.293267
-0.269971
-0.248396
-0.228436
-0.209963
-0.192889
-0.177065
-0.161952
-0.56914
-0.558094
-0.547996
-0.534117
-0.515706
-0.493075
-0.467034
-0.438793
-0.409624
-0.380608
-0.352529
-0.325869
-0.300859
-0.277563
-0.25594
-0.235898
-0.217317
-0.200109
-0.184142
-0.168891
-0.570865
-0.55976
-0.549843
-0.536426
-0.51872
-0.496933
-0.47175
-0.444283
-0.415742
-0.387194
-0.359435
-0.332972
-0.308066
-0.284804
-0.263164
-0.243067
-0.2244
-0.20708
-0.19099
-0.175623
-0.57185
-0.560711
-0.550976
-0.538019
-0.521019
-0.500089
-0.475798
-0.449149
-0.42129
-0.393264
-0.365875
-0.339654
-0.314892
-0.291698
-0.270071
-0.249944
-0.231216
-0.213804
-0.197611
-0.182148
-0.57213
-0.560981
-0.551431
-0.538927
-0.52263
-0.502568
-0.479193
-0.453404
-0.426276
-0.398823
-0.371855
-0.345921
-0.321341
-0.298249
-0.276664
-0.256534
-0.237767
-0.220284
-0.204006
-0.188466
-0.571743
-0.56061
-0.551246
-0.539187
-0.523586
-0.504396
-0.481957
-0.457062
-0.430711
-0.403882
-0.377381
-0.351779
-0.327419
-0.304463
-0.282948
-0.26284
-0.244057
-0.226524
-0.210177
-0.194578
-0.57073
-0.559637
-0.550461
-0.538837
-0.523921
-0.5056
-0.484111
-0.460141
-0.434608
-0.408449
-0.382463
-0.357235
-0.333134
-0.310345
-0.288929
-0.268867
-0.25009
-0.232527
-0.216127
-0.200486
-0.56913
-0.558103
-0.549115
-0.537915
-0.523671
-0.506212
-0.485681
-0.462659
-0.437981
-0.412536
-0.387109
-0.362298
-0.338492
-0.315903
-0.294613
-0.274621
-0.255871
-0.238296
-0.22186
-0.206193
-0.566987
-0.556049
-0.547251
-0.536463
-0.522873
-0.506265
-0.486694
-0.464637
-0.440846
-0.416155
-0.39133
-0.366975
-0.343501
-0.321143
-0.300007
-0.280108
-0.261405
-0.243838
-0.227381
-0.211703
-0.564342
-0.553519
-0.544912
-0.534523
-0.521567
-0.505793
-0.487176
-0.466098
-0.44322
-0.419319
-0.395137
-0.371277
-0.34817
-0.326075
-0.305118
-0.285334
-0.266698
-0.249156
-0.232692
-0.217019
-0.561239
-0.550555
-0.54214
-0.532136
-0.519792
-0.504832
-0.48716
-0.467066
-0.445123
-0.422044
-0.398541
-0.375214
-0.352508
-0.330705
-0.309954
-0.290308
-0.271757
-0.254257
-0.2378
-0.222145
-0.557722
-0.5472
-0.538978
-0.529346
-0.51759
-0.503419
-0.486677
-0.467566
-0.446574
-0.424345
-0.401555
-0.378797
-0.356526
-0.335044
-0.314523
-0.295035
-0.276589
-0.259147
-0.242709
-0.227085
-0.553834
-0.543497
-0.535471
-0.526195
-0.515003
-0.501593
-0.48576
-0.467627
-0.447594
-0.426239
-0.404193
-0.382037
-0.360233
-0.339101
-0.318834
-0.299526
-0.2812
-0.263831
-0.247426
-0.231844
-0.549617
-0.539487
-0.531659
-0.522727
-0.512072
-0.499393
-0.484445
-0.467277
-0.448208
-0.427744
-0.40647
-0.384947
-0.36364
-0.342885
-0.322896
-0.303787
-0.285598
-0.268317
-0.251955
-0.236427
-0.545114
-0.535211
-0.527583
-0.518982
-0.508838
-0.496858
-0.482765
-0.466546
-0.448439
-0.428879
-0.4084
-0.387539
-0.366758
-0.346407
-0.326719
-0.307828
-0.289792
-0.272613
-0.256304
-0.240839
-0.540366
-0.53071
-0.523285
-0.515002
-0.505343
-0.494027
-0.480757
-0.465464
-0.448312
-0.429664
-0.409999
-0.389825
-0.369598
-0.349677
-0.330312
-0.311657
-0.29379
-0.276725
-0.260478
-0.245085
-0.535413
-0.526021
-0.518803
-0.510826
-0.501626
-0.49094
-0.478458
-0.464063
-0.447853
-0.430119
-0.411284
-0.391821
-0.372173
-0.352705
-0.333686
-0.315285
-0.2976
-0.280661
-0.264486
-0.249172
-0.530293
-0.521182
-0.514173
-0.506492
-0.497727
-0.487636
-0.475904
-0.462376
-0.44709
-0.430268
-0.412273
-0.393538
-0.374493
-0.355503
-0.336849
-0.31872
-0.30123
-0.284429
-0.268334
-0.253106
-0.525042
-0.516227
-0.509431
-0.502036
-0.493682
-0.484151
-0.47313
-0.460435
-0.44605
-0.43013
-0.412981
-0.394993
-0.376571
-0.358081
-0.339813
-0.321972
-0.304691
-0.288038
-0.272029
-0.256893
-0.519696
-0.51119
-0.50461
-0.497493
-0.489527
-0.480522
-0.470172
-0.458273
-0.444761
-0.429731
-0.413429
-0.396199
-0.37842
-0.36045
-0.342586
-0.32505
-0.307991
-0.291495
-0.275579
-0.260539
-0.514287
-0.506101
-0.499741
-0.492894
-0.485296
-0.476783
-0.467065
-0.455922
-0.443252
-0.429094
-0.413636
-0.397172
-0.380051
-0.36262
-0.34518
-0.327964
-0.311138
-0.29481
-0.278992
-0.264051
-0.508846
-0.50099
-0.494853
-0.488269
-0.481019
-0.472968
-0.463841
-0.453414
-0.441551
-0.428243
-0.413619
-0.397926
-0.381477
-0.364603
-0.347603
-0.330723
-0.314143
-0.297989
-0.282274
-0.267436
-0.503402
-0.495883
-0.489971
-0.483645
-0.476726
-0.469107
-0.460533
-0.45078
-0.439687
-0.427202
-0.4134
-0.398478
-0.382711
-0.366408
-0.349866
-0.333336
-0.317012
-0.301043
-0.285435
-0.270701
-0.497981
-0.490804
-0.48512
-0.479047
-0.472443
-0.465228
-0.457171
-0.44805
-0.437688
-0.425995
-0.412999
-0.398844
-0.383766
-0.368048
-0.351978
-0.335812
-0.319756
-0.303978
-0.288482
-0.273853
-0.492606
-0.485775
-0.480322
-0.474496
-0.468193
-0.461357
-0.453782
-0.445252
-0.435582
-0.424649
-0.412436
-0.39904
-0.384654
-0.369531
-0.353947
-0.33816
-0.322383
-0.306804
-0.291422
-0.276899
-0.4873
-0.480815
-0.475594
-0.470013
-0.463999
-0.457519
-0.450392
-0.442415
-0.433394
-0.423186
-0.411733
-0.399083
-0.385388
-0.370869
-0.355784
-0.340388
-0.3249
-0.309528
-0.294263
-0.279848
-0.482082
-0.475943
-0.470954
-0.465615
-0.459878
-0.453734
-0.447025
-0.439562
-0.431152
-0.421631
-0.410908
-0.398989
-0.385981
-0.372072
-0.357496
-0.342503
-0.327315
-0.312158
-0.297013
-0.282707
-0.476968
-0.471173
-0.466416
-0.461315
-0.455847
-0.450021
-0.443701
-0.436718
-0.428878
-0.420006
-0.409984
-0.398776
-0.386447
-0.373149
-0.359092
-0.344514
-0.329636
-0.314702
-0.471973
-0.466517
-0.461992
-0.457127
-0.451919
-0.446394
-0.440441
-0.433902
-0.426595
-0.418335
-0.408979
-0.398459
-0.386799
-0.374111
-0.360579
-0.346426
-0.331869
-0.467109
-0.461987
-0.457692
-0.45306
-0.448106
-0.442869
-0.437259
-0.431136
-0.424324
-0.416637
-0.407914
-0.398056
-0.387048
-0.374967
-0.361965
-0.462388
-0.45759
-0.453524
-0.449122
-0.444416
-0.439455
-0.434169
-0.428433
-0.422083
-0.414933
-0.406807
-0.397583
-0.38721
-0.375727
-0.457816
-0.453334
-0.449493
-0.44532
-0.440856
-0.436162
-0.431182
-0.425809
-0.41989
-0.413239
-0.405676
-0.397055
-0.453399
-0.449223
-0.445604
-0.441656
-0.43743
-0.432995
-0.428307
-0.423276
-0.417757
-0.411573
-0.404537
-0.449141
-0.445259
-0.441859
-0.438134
-0.434143
-0.429958
-0.425551
-0.420841
-0.415697
-0.409948
-0.445043
-0.441443
-0.438257
-0.434752
-0.430993
-0.427054
-0.422917
-0.418513
-0.41372
-0.441104
-0.437773
-0.434797
-0.43151
-0.427979
-0.424283
-0.420408
-0.416295
-0.437323
-0.434248
-0.431476
-0.428404
-0.425101
-0.421643
-0.418024
-0.433694
-0.430862
-0.42829
-0.425431
-0.422353
-0.419131
-0.43021
-0.427609
-0.425233
-0.422585
-0.41973
-0.426865
-0.424483
-0.422297
-0.419857
-0.423647
-0.421475
-0.419475
-0.420547
-0.418575
-0.417552
-0.415774
-0.41465
-0.242243
-0.247193
-0.251999
-0.256668
-0.261205
-0.265615
-0.269904
-0.274078
-0.278143
-0.282105
-0.285971
-0.289747
-0.293439
-0.297053
-0.300596
-0.304073
-0.221949
-0.226632
-0.23121
-0.235686
-0.240065
-0.244351
-0.248548
-0.252663
-0.256698
-0.260661
-0.264555
-0.268386
-0.27216
-0.275882
-0.279559
-0.283196
-0.203749
-0.208161
-0.212495
-0.216754
-0.220941
-0.225062
-0.229119
-0.233117
-0.237059
-0.240952
-0.244798
-0.248602
-0.25237
-0.256106
-0.259815
-0.263503
-0.187474
-0.19161
-0.195689