/*--------------------------------*- C++ -*----------------------------------*\
  =========                 |
  \\      /  F ield         | OpenFOAM: The Open Source CFD Toolbox
   \\    /   O peration     | Website:  https://openfoam.org
    \\  /    A nd           | Version:  7
     \\/     M anipulation  |
\*---------------------------------------------------------------------------*/
FoamFile
{
    version     2.0;
    format      ascii;
    class       surfaceScalarField;
    location    "95";
    object      phi;
}
// * * * * * * * * * * * * * * * * * * * * * * * * * * * * * * * * * * * * * //

dimensions      [0 3 -1 0 0 0 0];

internalField   nonuniform List<scalar> 
16608
(
2.17769e-05
5.67719e-07
2.12091e-05
4.31579e-05
7.61692e-07
2.04474e-05
4.41766e-06
3.9502e-05
3.78996e-05
9.67723e-07
1.94797e-05
5.24098e-06
3.52287e-05
2.8818e-05
1.18428e-06
1.82954e-05
6.1075e-06
3.03055e-05
1.63036e-05
1.86219e-05
-1.80903e-05
1.41011e-06
1.68853e-05
7.01254e-06
2.4703e-05
1.83703e-05
7.2641e-06
3.71358e-05
-3.68558e-05
-0.000109363
1.64438e-06
1.5241e-05
7.95206e-06
1.83954e-05
2.05135e-05
-5.29732e-06
4.1005e-05
-5.73473e-05
7.11465e-05
-0.000139504
-0.000253586
1.88654e-06
1.33544e-05
8.92317e-06
1.13587e-05
2.27248e-05
-1.90989e-05
4.49851e-05
-7.96076e-05
7.74191e-05
-0.000171938
0.000121657
-0.000297823
-0.000458637
2.13638e-06
1.1218e-05
9.92373e-06
3.57139e-06
2.49975e-05
-3.41727e-05
4.90605e-05
-0.000103671
8.38084e-05
-0.000206686
0.000130802
-0.000344816
0.000191277
-0.000519112
-0.000729536
2.39384e-06
8.8242e-06
1.09521e-05
-4.98684e-06
2.73256e-05
-5.05463e-05
5.32166e-05
-0.000129562
9.02855e-05
-0.000243755
0.000139999
-0.00039453
0.000203415
-0.000582529
0.000280929
-0.000807049
-0.00106545
2.65895e-06
6.16525e-06
1.20067e-05
-1.43346e-05
2.97032e-05
-6.82428e-05
5.74387e-05
-0.000157297
9.68204e-05
-0.000283137
0.000149195
-0.000446904
0.000215413
-0.000648747
0.000295556
-0.000887192
0.000388683
-0.00115858
-0.00145675
2.93173e-06
3.23352e-06
1.30861e-05
-2.44889e-05
3.21241e-05
-8.72808e-05
6.17114e-05
-0.000186884
0.000103382
-0.000324807
0.000158337
-0.000501859
0.000227185
-0.000717596
0.000309667
-0.000969674
0.000404424
-0.00125334
0.000508905
-0.00156123
-0.00188375
3.21215e-06
2.13715e-08
1.41884e-05
-3.54652e-05
3.45816e-05
-0.000107674
6.6018e-05
-0.000218321
0.000109938
-0.000368727
0.000167367
-0.000559289
0.000238645
-0.000788873
0.000323145
-0.00105417
0.000419082
-0.00134927
0.000523495
-0.00166564
0.000632475
-0.00199273
0.000741642
-0.0023192
-0.0026344
3.50002e-06
-3.47865e-06
1.53115e-05
-4.72767e-05
3.70679e-05
-0.00012943
7.03403e-05
-0.000251593
0.000116452
-0.000414838
0.000176227
-0.000619064
0.000249705
-0.000862351
0.000335874
-0.00114034
0.000432526
-0.00144593
0.000536324
-0.00176944
0.000643124
-0.00209953
0.00074853
-0.00242461
0.000848526
-0.0027344
-0.00302136
3.79502e-06
-7.27367e-06
1.64524e-05
-5.99341e-05
3.95741e-05
-0.000152552
7.46579e-05
-0.000286677
0.000122887
-0.000463067
0.000184856
-0.000681033
0.000260279
-0.000937774
0.000347746
-0.00122781
0.000444641
-0.00154282
0.000547293
-0.00187209
0.000651401
-0.00220364
0.000752636
-0.00252584
0.000847274
-0.00282904
0.000932676
-0.00310676
-0.00335625
4.09659e-06
-1.13703e-05
1.76078e-05
-7.34453e-05
4.20899e-05
-0.000177034
7.8949e-05
-0.000323536
0.000129203
-0.000513322
0.000193192
-0.000745021
0.000270281
-0.00101486
0.00035866
-0.00131619
0.000455325
-0.00163949
0.000556329
-0.00197309
0.000657287
-0.0023046
0.000754019
-0.00262257
0.000843149
-0.00291817
0.000922505
-0.00318611
0.000991237
-0.00342498
0.00104967
-0.00363664
-0.00382529
4.40398e-06
-1.57742e-05
1.87735e-05
-8.78148e-05
4.4604e-05
-0.000202865
8.31898e-05
-0.000362122
0.00013536
-0.000565492
0.000201172
-0.000810833
0.000279629
-0.00109332
0.000368523
-0.00140508
0.000464495
-0.00173546
0.000563382
-0.00207198
0.000660794
-0.00240201
0.000752768
-0.00271455
0.000836318
-0.00300172
0.000909746
-0.00325954
0.00097265
-0.00348788
0.00102571
-0.0036897
0.00107034
-0.00386992
-0.00403435
4.71622e-06
-2.04905e-05
1.99446e-05
-0.000103043
4.71037e-05
-0.000230024
8.73548e-05
-0.000402373
0.000141314
-0.00061945
0.000208734
-0.000878254
0.000288248
-0.00117283
0.000377256
-0.00149409
0.000472088
-0.00183029
0.000568432
-0.00216832
0.000661963
-0.00249554
0.000748996
-0.00280158
0.000826966
-0.00307969
0.000894633
-0.00332721
0.000952011
-0.00354526
0.00100008
-0.00373777
0.00104039
-0.00391023
0.00107472
-0.00406868
0.00110475
-0.00421839
-0.00436465
5.03213e-06
-2.55226e-05
2.11157e-05
-0.000119127
4.95752e-05
-0.000258483
9.14177e-05
-0.000444215
0.000147022
-0.000675055
0.00021582
-0.000947052
0.000296065
-0.00125308
0.000384791
-0.00158282
0.00047806
-0.00192356
0.000571479
-0.00226174
0.000660859
-0.00258492
0.000742838
-0.00288356
0.000815286
-0.00315213
0.000877404
-0.00338933
0.000929571
-0.00359743
0.000973006
-0.0037812
0.00100937
-0.0039466
0.00104042
-0.00409972
0.00106773
-0.0042457
-0.00438937
0.00109245
5.35035e-06
-3.08729e-05
2.22809e-05
-0.000136057
5.20039e-05
-0.000288206
9.53511e-05
-0.000487563
0.000152442
-0.000732146
0.000222373
-0.00101698
0.000303018
-0.00133372
0.000391072
-0.00167087
0.000482386
-0.00201487
0.000572548
-0.0023519
0.000657567
-0.00266994
0.000734443
-0.00296044
0.000801477
-0.00321917
0.000858286
-0.00344614
0.000905565
-0.00364471
0.000944719
-0.00382035
0.000977468
-0.00397935
0.00100551
-0.00412777
0.00103033
-0.00427052
-0.00441198
0.00105295
5.66934e-06
-3.65423e-05
2.34336e-05
-0.000153822
5.43747e-05
-0.000319147
9.91275e-05
-0.000532315
0.000157533
-0.000790552
0.000228339
-0.00108779
0.000309052
-0.00141444
0.000396061
-0.00175788
0.000485059
-0.00210387
0.000571685
-0.00243853
0.000652194
-0.00275045
0.000723969
-0.00303221
0.00078574
-0.00328094
0.000837498
-0.00349789
0.000880209
-0.00368742
0.000915413
-0.00385556
0.000944848
-0.00400878
0.000970141
-0.00415306
0.000992656
-0.00429304
-0.00443262
0.00101329
5.98746e-06
-4.25297e-05
2.45672e-05
-0.000172401
5.6672e-05
-0.000351252
0.000102719
-0.000578363
0.000162255
-0.000850088
0.000233671
-0.0011592
0.000314123
-0.00149489
0.000399732
-0.00184349
0.000486093
-0.00219023
0.000568951
-0.00252139
0.000644855
-0.00282635
0.000711582
-0.00309894
0.000768269
-0.00333762
0.000815249
-0.00354487
0.000853703
-0.00372587
0.000885264
-0.00388712
0.000911652
-0.00403517
0.000934409
-0.00417582
0.000954772
-0.0043134
-0.00445138
0.000973531
6.30292e-06
-4.88327e-05
2.56744e-05
-0.000191773
5.88799e-05
-0.000384458
0.0001061
-0.000625583
0.00016657
-0.000910558
0.000238328
-0.00123096
0.000318196
-0.00157476
0.000402074
-0.00192737
0.000485514
-0.00227367
0.000564426
-0.0026003
0.000635677
-0.00289761
0.000697448
-0.00316071
0.000749256
-0.00338943
0.00079173
-0.00358735
0.000826224
-0.00376037
0.000854424
-0.00391532
0.000878005
-0.00405875
0.000898408
-0.00419622
0.000916748
-0.00433174
-0.00446834
0.00093371
6.61386e-06
-5.54465e-05
2.67483e-05
-0.000211907
6.09829e-05
-0.000418692
0.000109244
-0.000673845
0.000170446
-0.000971759
0.000242274
-0.00130279
0.000321247
-0.00165373
0.000403088
-0.00200921
0.000483367
-0.00235395
0.000558198
-0.00267513
0.000624796
-0.0029642
0.000681733
-0.00321765
0.000728881
-0.00343658
0.000767119
-0.00362559
0.000797935
-0.00379118
0.000823028
-0.00394041
0.00084401
-0.00407974
0.000862215
-0.00421442
0.000878637
-0.00434816
-0.00448357
0.000893865
6.91839e-06
-6.23649e-05
2.77814e-05
-0.00023277
6.29658e-05
-0.000453877
0.000112128
-0.000723006
0.00017385
-0.00103348
0.000245481
-0.00137442
0.000323262
-0.00173151
0.000402791
-0.00208874
0.000479705
-0.00243086
0.000550366
-0.00274579
0.000612347
-0.00302618
0.000664599
-0.0032699
0.000707313
-0.0034793
0.00074158
-0.00365985
0.000768977
-0.00381858
0.000791192
-0.00396263
0.000809757
-0.0040983
0.000825894
-0.00423056
0.000840484
-0.00436275
-0.00449711
0.000854026
7.21456e-06
-6.95795e-05
2.87668e-05
-0.000254322
6.48139e-05
-0.000489924
0.000114727
-0.00077292
0.000176759
-0.00109551
0.000247927
-0.00144559
0.000324237
-0.00180782
0.000401209
-0.00216571
0.000474596
-0.00250425
0.000541036
-0.00281223
0.000598468
-0.00308362
0.000646202
-0.00331763
0.000684712
-0.00351781
0.00071526
-0.0036904
0.000739478
-0.0038428
0.000759018
-0.00398217
0.000775322
-0.00411461
0.000789498
-0.00424474
0.000802324
-0.00437558
-0.004509
0.000814218
7.50043e-06
-7.70799e-05
2.96975e-05
-0.00027652
6.65134e-05
-0.00052674
0.000117024
-0.000823431
0.000179149
-0.00115764
0.0002496
-0.00151604
0.000324179
-0.0018824
0.00039838
-0.00223991
0.000468113
-0.00257398
0.000530318
-0.00287444
0.000583295
-0.00313659
0.00062669
-0.00336103
0.000661225
-0.00355234
0.000688292
-0.00371747
0.000709548
-0.00386405
0.000726592
-0.00399921
0.000740767
-0.00412878
0.000753073
-0.00425704
0.000764189
-0.00438669
-0.00451927
0.000774462
7.7741e-06
-8.4854e-05
3.05668e-05
-0.000299312
6.80516e-05
-0.000564224
0.000119
-0.00087438
0.000181004
-0.00121964
0.000250491
-0.00158553
0.000323103
-0.00195501
0.000394349
-0.00231116
0.000460337
-0.00263997
0.000518324
-0.00293242
0.000566962
-0.00318523
0.000606205
-0.00340027
0.000636985
-0.00358312
0.000660793
-0.00374128
0.000679285
-0.00388255
0.000693989
-0.00401391
0.000706147
-0.00414094
0.000716657
-0.00426755
0.000726105
-0.00439614
-0.00452795
0.000734778
8.03368e-06
-9.28877e-05
3.13685e-05
-0.000322647
6.94167e-05
-0.000602273
0.000120641
-0.000925604
0.000182312
-0.00128131
0.000250601
-0.00165382
0.00032103
-0.00202544
0.000389171
-0.0023793
0.000451354
-0.00270215
0.000505166
-0.00298624
0.000549595
-0.00322966
0.000584876
-0.00343555
0.000612115
-0.00361036
0.00063287
-0.00376203
0.000648772
-0.00389845
0.000661272
-0.00402641
0.000671508
-0.00415118
0.00068028
-0.00427632
0.000688094
-0.00440396
-0.00453503
0.00069518
8.27737e-06
-0.000101165
3.20965e-05
-0.000346466
7.05985e-05
-0.000640775
0.000121934
-0.000976939
0.000183066
-0.00134245
0.000249938
-0.00172069
0.000317993
-0.00209349
0.000382903
-0.00244421
0.000441252
-0.0027605
0.000490953
-0.00303594
0.000531317
-0.00327002
0.000562825
-0.00346706
0.000586726
-0.00363426
0.000604616
-0.00377992
0.000618085
-0.00391192
0.000628496
-0.00403682
0.000636889
-0.00415957
0.00064397
-0.00428341
0.000650174
-0.00441016
-0.00454054
0.000655683
8.50346e-06
-0.000109669
3.27456e-05
-0.000370708
7.15881e-05
-0.000679617
0.00012287
-0.00102822
0.000183263
-0.00140284
0.000248513
-0.00178594
0.000314026
-0.00215901
0.000375611
-0.00250579
0.000430121
-0.00281501
0.000475794
-0.00308161
0.000512243
-0.00330647
0.000540163
-0.00349498
0.000560917
-0.00365502
0.000576113
-0.00379512
0.000587285
-0.00392309
0.000595708
-0.00404525
0.000602322
-0.00416618
0.00060775
-0.00428883
0.000612362
-0.00441477
-0.00454448
0.000616301
8.71032e-06
-0.000118379
3.33109e-05
-0.000395309
7.2378e-05
-0.000718684
0.000123443
-0.00107929
0.000182904
-0.0014623
0.000246345
-0.00184938
0.000309173
-0.00222183
0.000367362
-0.00256398
0.00041805
-0.0028657
0.000459793
-0.00312335
0.000492479
-0.00333916
0.000516992
-0.00351949
0.000534776
-0.0036728
0.000547432
-0.00380777
0.000556429
-0.00393209
0.000562946
-0.00405176
0.000567835
-0.00417107
0.000571639
-0.00429264
0.000574673
-0.00441781
-0.00454685
0.000577046
8.89646e-06
-0.000127275
3.37881e-05
-0.000420201
7.29623e-05
-0.000757859
0.000123649
-0.00112997
0.000181996
-0.00152065
0.000243458
-0.00191084
0.000303477
-0.00228185
0.000358225
-0.00261873
0.000405128
-0.00291261
0.000443049
-0.00316127
0.000472127
-0.00336824
0.000493405
-0.00354077
0.000508383
-0.00368778
0.000518637
-0.00381803
0.000525563
-0.00393901
0.000530247
-0.00405645
0.000533452
-0.00417428
0.000535655
-0.00429484
0.000537121
-0.00441927
-0.00454766
0.000537928
9.06053e-06
-0.000136336
3.41737e-05
-0.000445314
7.33367e-05
-0.000797021
0.000123488
-0.00118012
0.000180549
-0.00157771
0.000239877
-0.00197017
0.000296989
-0.00233897
0.00034827
-0.00267001
0.000391441
-0.00295578
0.000425655
-0.00319549
0.000451279
-0.00339386
0.000469485
-0.00355898
0.000481808
-0.0037001
0.000489783
-0.003826
0.000494727
-0.00394395
0.000497637
-0.00405936
0.000499195
-0.00417583
0.000499814
-0.00429546
0.000499718
-0.00441917
-0.0045469
0.00049896
9.20238e-06
-0.000145538
3.4467e-05
-0.000470578
7.35019e-05
-0.000836056
0.000122967
-0.00122959
0.00017858
-0.00163332
0.000235641
-0.00202723
0.000289767
-0.00239309
0.000337575
-0.00271782
0.000377079
-0.00299528
0.000407708
-0.00322612
0.000430029
-0.00341618
0.000445317
-0.00357426
0.00045512
-0.0037099
0.000460926
-0.00383181
0.000463966
-0.00394699
0.000465151
-0.00406054
0.000465088
-0.00417577
0.000464136
-0.00429451
0.000462481
-0.00441752
-0.00454458
0.000460158
9.31896e-06
-0.000154857
3.46614e-05
-0.000495921
7.345e-05
-0.000874845
0.00012208
-0.00127822
0.000176097
-0.00168734
0.000230771
-0.00208191
0.000281849
-0.00244417
0.000326195
-0.00276217
0.000362108
-0.00303119
0.000389274
-0.00325328
0.000408437
-0.00343534
0.00042095
-0.00358678
0.000428359
-0.00371731
0.000432091
-0.00383554
0.000433294
-0.0039482
0.000432796
-0.00406005
0.000431134
-0.00417411
0.00042862
-0.004292
0.000425409
-0.00441431
-0.00454069
0.000421518
9.41038e-06
-0.000164268
3.47575e-05
-0.000521268
7.31845e-05
-0.000913272
0.00012084
-0.00132587
0.000173124
-0.00173962
0.000225309
-0.00213409
0.000273296
-0.00249216
0.000314204
-0.00280307
0.000346611
-0.0030636
0.000370439
-0.00327711
0.000386582
-0.00345149
0.000396454
-0.00359665
0.00040158
-0.00372244
0.000403323
-0.00383728
0.000402746
-0.00394762
0.000400597
-0.0040579
0.000397353
-0.00417086
0.000393284
-0.00428793
0.000388517
-0.00440954
-0.00453523
0.000383058
9.4759e-06
-0.000173743
3.47542e-05
-0.000546546
7.27069e-05
-0.000951225
0.000119256
-0.00137242
0.000169681
-0.00179005
0.000219292
-0.0021837
0.000264162
-0.00253703
0.000301668
-0.00284058
0.000330659
-0.00309259
0.000351272
-0.00329772
0.000364529
-0.00346474
0.000371882
-0.003604
0.000374827
-0.00372538
0.000374653
-0.00383711
0.000372343
-0.00394531
0.000368572
-0.00405412
0.000363759
-0.00416605
0.000358139
-0.00428231
0.000351816
-0.00440322
-0.0045282
0.000344787
9.51498e-06
-0.000183258
3.46512e-05
-0.000571682
7.20203e-05
-0.000988594
0.000117337
-0.00141774
0.000165794
-0.0018385
0.000212758
-0.00223067
0.000254498
-0.00257877
0.000288651
-0.00287473
0.000314321
-0.00311826
0.000331839
-0.00331524
0.000342335
-0.00347524
0.000347282
-0.00360895
0.000348135
-0.00372624
0.000346109
-0.00383509
0.000342108
-0.00394131
0.000336736
-0.00404875
0.000330364
-0.00415968
0.000323195
-0.00427514
0.000315315
-0.00439534
-0.0045196
0.000306715
9.52721e-06
-0.000192786
3.4449e-05
-0.000596604
7.11286e-05
-0.00102527
0.000115097
-0.00146171
0.000161485
-0.00188489
0.000205748
-0.00227493
0.000244358
-0.00261738
0.000275213
-0.00290559
0.000297658
-0.00314071
0.000312199
-0.00332978
0.000320052
-0.00348309
0.000322697
-0.00361159
0.000321537
-0.00372508
0.000317715
-0.00383126
0.000312056
-0.00393565
0.000305102
-0.0040418
0.000297178
-0.00415176
0.000288461
-0.00426642
0.000279023
-0.0043859
-0.00450943
0.000268851
9.51237e-06
-0.000202298
3.41482e-05
-0.00062124
7.00372e-05
-0.00106116
0.000112549
-0.00150422
0.000156781
-0.00192913
0.0001983
-0.00231645
0.000233792
-0.00265287
0.000261411
-0.00293321
0.000280729
-0.00316002
0.000292407
-0.00334146
0.000297727
-0.00348841
0.000298163
-0.00361203
0.000295063
-0.00372198
0.000289493
-0.00382569
0.000282205
-0.00392836
0.000273682
-0.00403328
0.000264212
-0.00414228
0.000253947
-0.00425616
0.000242949
-0.0043749
-0.00449768
0.000231203
9.4704e-06
-0.000211768
3.37506e-05
-0.00064552
6.87523e-05
-0.00109616
0.000109708
-0.00154517
0.00015171
-0.00197113
0.000190453
-0.00235519
0.000222849
-0.00268526
0.000247299
-0.00295766
0.000263589
-0.00317631
0.000272512
-0.00335038
0.000275402
-0.0034913
0.000273714
-0.00361034
0.000268736
-0.003717
0.00026146
-0.00381842
0.000252568
-0.00391947
0.000242489
-0.0040232
0.000231475
-0.00413127
0.000219662
-0.00424434
0.000207101
-0.00436234
-0.00448436
0.000193782
9.40139e-06
-0.00022117
3.32579e-05
-0.000669377
6.7281e-05
-0.00113019
0.00010659
-0.00158448
0.000146297
-0.00201083
0.000182245
-0.00239114
0.000211574
-0.00271459
0.000232928
-0.00297901
0.000246286
-0.00318967
0.000252558
-0.00335665
0.000253113
-0.00349186
0.000249379
-0.00360661
0.00024258
-0.0037102
0.000233634
-0.00380947
0.000223158
-0.00390899
0.000211532
-0.00401157
0.000198978
-0.00411872
0.000185614
-0.00423098
0.000171488
-0.00434822
-0.00446947
0.000156593
9.30559e-06
-0.000230475
3.26726e-05
-0.000692744
6.5631e-05
-0.00116315
0.000103212
-0.00162206
0.000140571
-0.00204819
0.000173714
-0.00242428
0.000200014
-0.00274089
0.000218345
-0.00299734
0.000228866
-0.00320019
0.000232585
-0.00336037
0.000230894
-0.00349017
0.000225184
-0.0036009
0.000216613
-0.00370163
0.000206029
-0.00379889
0.000193986
-0.00389695
0.000180821
-0.00399841
0.000166727
-0.00410462
0.00015181
-0.00421606
0.000136117
-0.00433253
-0.00445299
0.00011964
9.18339e-06
-0.000239659
3.19977e-05
-0.000715558
6.38109e-05
-0.00119496
9.95909e-05
-0.00165784
0.000134558
-0.00208316
0.000164897
-0.00245462
0.00018821
-0.00276421
0.000203595
-0.00301273
0.000211371
-0.00320797
0.000212631
-0.00336163
0.000208775
-0.00348631
0.000201151
-0.00359327
0.000190853
-0.00369133
0.000178659
-0.00378669
0.000165065
-0.00388336
0.000150367
-0.00398371
0.000134734
-0.00408899
0.00011826
-0.00419959
0.000100996
-0.00431526
-0.00443492
8.29221e-05
9.03527e-06
-0.000248694
3.12362e-05
-0.000737759
6.18296e-05
-0.00122555
9.57437e-05
-0.00169176
0.000128286
-0.0021157
0.000155827
-0.00248216
0.000176202
-0.00278458
0.000188717
-0.00302524
0.000193838
-0.00321309
0.000192726
-0.00336052
0.00018678
-0.00348037
0.000177301
-0.00358379
0.000165315
-0.00367935
0.000151534
-0.00377291
0.000136403
-0.00386823
0.00012018
-0.00396748
0.00010301
-0.00407182
8.4978e-05
-0.00418156
6.61255e-05
-0.00429641
-0.00441523
4.64351e-05
8.86188e-06
-0.000257556
3.03917e-05
-0.000759289
5.96963e-05
-0.00125486
9.1688e-05
-0.00172375
0.00012178
-0.00214579
0.000146539
-0.00250692
0.000164027
-0.00280207
0.00017375
-0.00303496
0.000176303
-0.00321564
0.000172902
-0.00335712
0.000164934
-0.0034724
0.00015365
-0.00357251
0.000140012
-0.00366571
0.000124667
-0.00375757
0.00010801
-0.00385157
9.02672e-05
-0.00394974
7.15678e-05
-0.00405312
5.19904e-05
-0.00416198
3.15099e-05
-0.00427593
-0.00439365
9.939e-06
8.66393e-06
-0.00026622
2.9468e-05
-0.000780093
5.74208e-05
-0.00128281
8.74413e-05
-0.00175377
0.000115066
-0.00217342
0.000137064
-0.00252892
0.000151721
-0.00281673
0.000158727
-0.00304197
0.000158795
-0.00321571
0.000153182
-0.00335151
0.000143257
-0.00346247
0.000130216
-0.00355947
0.000114956
-0.00365045
9.80655e-05
-0.00374068
7.98945e-05
-0.0038334
6.06375e-05
-0.00393048
4.04103e-05
-0.00403289
1.9308e-05
-0.00414088
-2.54969e-06
-0.00425407
-0.00437059
-2.56118e-05
8.44227e-06
-0.000274662
2.84692e-05
-0.00080012
5.50127e-05
-0.00130935
8.30209e-05
-0.00178178
0.000108168
-0.00219857
0.000127433
-0.00254818
0.000139316
-0.00282861
0.000143681
-0.00304634
0.000141344
-0.00321337
0.000133591
-0.00334375
0.000121766
-0.00345065
0.000107011
-0.00354471
9.01574e-05
-0.00363359
7.17397e-05
-0.00372226
5.20642e-05
-0.00381372
3.12982e-05
-0.00390972
9.54375e-06
-0.00401114
-1.31191e-05
-0.00411821
-3.67011e-05
-0.00423049
-0.00434625
-6.10412e-05
8.19778e-06
-0.00028286
2.73994e-05
-0.000819321
5.24821e-05
-0.00133444
7.84437e-05
-0.00180774
0.000101111
-0.00222123
0.000117673
-0.00256475
0.000126842
-0.00283778
0.00012864
-0.00304813
0.000123974
-0.00320871
0.000114149
-0.00333393
0.000100478
-0.00343698
8.40471e-05
-0.00352828
6.56265e-05
-0.00361517
4.56973e-05
-0.00370233
2.4527e-05
-0.00379255
2.25701e-06
-0.00388745
-2.1021e-05
-0.00398786
-4.52352e-05
-0.004094
-7.03496e-05
-0.00420537
-0.00432033
-9.62754e-05
7.93144e-06
-0.000290791
2.62629e-05
-0.000837653
4.98387e-05
-0.00135801
7.37264e-05
-0.00183163
9.39172e-05
-0.00224142
0.000107813
-0.00257864
0.000114326
-0.00284429
0.000113631
-0.00304744
0.000106708
-0.00320179
9.48747e-05
-0.0033221
7.94078e-05
-0.00342151
6.13359e-05
-0.00351021
4.13714e-05
-0.00359521
1.99458e-05
-0.00368091
-2.71012e-06
-0.0037699
-2.64764e-05
-0.00386368
-5.12773e-05
-0.00396306
-7.70381e-05
-0.00406824
-0.000103698
-0.00417871
-0.00429281
-0.000131215
7.64429e-06
-0.000298436
2.50641e-05
-0.000855073
4.70923e-05
-0.00138004
6.8885e-05
-0.00185342
8.66082e-05
-0.00225915
9.78758e-05
-0.00258991
0.000101795
-0.00284821
9.86768e-05
-0.00304432
8.95669e-05
-0.00319268
7.57838e-05
-0.00330831
5.85665e-05
-0.00340429
3.88864e-05
-0.00349053
1.73999e-05
-0.00357372
-5.50785e-06
-0.003658
-2.96386e-05
-0.00374577
-5.48968e-05
-0.00383842
-8.12164e-05
-0.00393674
-0.000108521
-0.00404093
-0.000136738
-0.0041505
-0.00426371
-0.000165837
7.33741e-06
-0.000305773
2.38075e-05
-0.000871543
4.42528e-05
-0.00140049
6.39352e-05
-0.0018731
7.92045e-05
-0.00227442
8.7886e-05
-0.00259859
8.9273e-05
-0.0028496
8.37998e-05
-0.00303885
7.25681e-05
-0.00318144
5.68909e-05
-0.00329263
3.79654e-05
-0.00338537
1.67072e-05
-0.00346927
-6.28119e-06
-0.00355073
-3.06567e-05
-0.00363362
-5.62534e-05
-0.00372017
-8.29958e-05
-0.00381168
-0.00011083
-0.00390891
-0.000139678
-0.00401208
-0.000169455
-0.00412072
-0.00423304
-0.000200129
7.01191e-06
-0.000312785
2.24975e-05
-0.000887028
4.13295e-05
-0.00141932
5.88919e-05
-0.00189067
7.17256e-05
-0.00228725
7.78651e-05
-0.00260473
7.67803e-05
-0.00284851
6.90193e-05
-0.00303109
5.5728e-05
-0.00316815
3.82086e-05
-0.00327512
1.76143e-05
-0.00336477
-5.19448e-06
-0.00344646
-2.96651e-05
-0.00352626
-5.54952e-05
-0.00360779
-8.25472e-05
-0.00369312
-0.000110766
-0.00378346
-0.000140108
-0.00387956
-0.000170498
-0.0039817
-0.000201837
-0.00408938
-0.00420079
-0.00023408
6.66894e-06
-0.000319454
2.11386e-05
-0.000901498
3.83319e-05
-0.00143651
5.37696e-05
-0.0019061
6.41898e-05
-0.00229767
6.78332e-05
-0.00260837
6.43372e-05
-0.00284502
5.43527e-05
-0.0030211
3.90612e-05
-0.00315286
1.97481e-05
-0.0032558
-2.47858e-06
-0.00334255
-2.68115e-05
-0.00342213
-5.27466e-05
-0.00350033
-8.00177e-05
-0.00358052
-0.000108514
-0.00366462
-0.000138199
-0.00375378
-0.000169044
-0.00384872
-0.000200971
-0.00394977
-0.000233873
-0.00405648
-0.00416699
-0.000267681
6.30968e-06
-0.000325764
1.97353e-05
-0.000914924
3.52689e-05
-0.00145204
4.85819e-05
-0.00191942
5.66142e-05
-0.0023057
5.78089e-05
-0.00260957
5.19618e-05
-0.00283917
3.98161e-05
-0.00300896
2.25804e-05
-0.00313563
1.51936e-06
-0.00323474
-2.23053e-05
-0.00331872
-4.81384e-05
-0.0033963
-7.55203e-05
-0.00347295
-0.000104219
-0.00355182
-0.000134147
-0.00363469
-0.000165289
-0.00372264
-0.000197627
-0.00381638
-0.000231088
-0.00391631
-0.000265551
-0.00402202
-0.00413162
-0.00030092
5.93527e-06
-0.000331699
1.82918e-05
-0.00092728
3.21492e-05
-0.0014659
4.33419e-05
-0.00193061
4.90151e-05
-0.00231138
4.78094e-05
-0.00260836
3.96704e-05
-0.00283103
2.54234e-05
-0.00299471
6.29704e-06
-0.0031165
-1.6469e-05
-0.00321198
-4.18598e-05
-0.00329333
-6.917e-05
-0.00336899
-9.79816e-05
-0.00344413
-0.000128093
-0.00352171
-0.000159441
-0.00360334
-0.000192027
-0.00369005
-0.000225849
-0.00378256
-0.000260838
-0.00388132
-0.00029686
-0.003986
-0.00409469
-0.000333788
5.54694e-06
-0.000337246
1.68126e-05
-0.000938546
2.89814e-05
-0.00147807
3.80619e-05
-0.00193969
4.14073e-05
-0.00231472
3.78506e-05
-0.00260481
2.74778e-05
-0.00282066
1.11875e-05
-0.00297842
-9.77882e-06
-0.00309553
-3.42093e-05
-0.00318754
-6.11361e-05
-0.00326641
-8.99014e-05
-0.00334022
-0.000120126
-0.00341391
-0.000151637
-0.0034902
-0.000184391
-0.00357059
-0.000218407
-0.00365603
-0.0002537
-0.00374727
-0.00029021
-0.00384481
-0.000327788
-0.00394842
-0.0040562
-0.000366272
5.14588e-06
-0.000342392
1.53017e-05
-0.000948702
2.57735e-05
-0.00148854
3.27537e-05
-0.00194667
3.38048e-05
-0.00231577
2.79471e-05
-0.00259895
1.53975e-05
-0.00280811
-2.87974e-06
-0.00296014
-2.56382e-05
-0.00307278
-5.16951e-05
-0.00316149
-8.01292e-05
-0.00323797
-0.000110329
-0.00331002
-0.00014195
-0.00338229
-0.000174846
-0.0034573
-0.000208992
-0.00353645
-0.000244423
-0.0036206
-0.000281172
-0.00371052
-0.000319192
-0.00380679
-0.000358323
-0.00390929
-0.00401617
-0.00039836
4.7333e-06
-0.000347125
1.37633e-05
-0.000957732
2.25333e-05
-0.00149731
2.74283e-05
-0.00195157
2.62209e-05
-0.00231456
1.81122e-05
-0.00259084
3.44353e-06
-0.00279344
-1.67698e-05
-0.00293993
-4.12734e-05
-0.00304827
-6.89203e-05
-0.00313384
-9.88348e-05
-0.00320806
-0.000130448
-0.00327841
-0.000163451
-0.00334929
-0.000197717
-0.00342304
-0.000233238
-0.00350092
-0.000270068
-0.00358377
-0.000308256
-0.00367233
-0.000347772
-0.00376727
-0.000388452
-0.00386861
-0.00397458
-0.000430039
4.31045e-06
-0.000351435
1.22014e-05
-0.000965623
1.92683e-05
-0.00150438
2.20962e-05
-0.00195439
1.86677e-05
-0.00231114
8.35766e-06
-0.00258053
-8.37812e-06
-0.0027767
-3.04722e-05
-0.00291783
-5.66774e-05
-0.00302207
-8.58798e-05
-0.00310464
-0.000117249
-0.00317669
-0.000150257
-0.0032454
-0.000184625
-0.00331492
-0.000220247
-0.00338742
-0.000257128
-0.00346404
-0.000295336
-0.00354556
-0.000334944
-0.00363272
-0.00037594
-0.00372627
-0.000418161
-0.00382639
-0.00393145
-0.000461295
3.87867e-06
-0.000355314
1.062e-05
-0.000972364
1.59853e-05
-0.00150974
1.67672e-05
-0.00195517
1.11568e-05
-0.00230553
-1.2959e-06
-0.00256808
-2.00522e-05
-0.00275795
-4.39794e-05
-0.00289391
-7.18441e-05
-0.0029942
-0.000102569
-0.00307391
-0.000135368
-0.00314389
-0.000169752
-0.00321102
-0.000205469
-0.0032792
-0.000242432
-0.00335045
-0.000280657
-0.00342582
-0.000320225
-0.003506
-0.000361229
-0.00359172
-0.000403685
-0.00368382
-0.000447437
-0.00378263
-0.00388677
-0.000492113
3.43921e-06
-0.000358753
9.0227e-06
-0.000977947
1.26913e-05
-0.00151341
1.14505e-05
-0.00195393
3.69968e-06
-0.00229777
-1.08657e-05
-0.00255351
-3.15737e-05
-0.00273724
-5.72842e-05
-0.0028682
-8.67681e-05
-0.00296472
-0.000118984
-0.0030417
-0.000153189
-0.00310968
-0.00018893
-0.00317528
-0.000225982
-0.00324215
-0.000264272
-0.00331216
-0.000303824
-0.00338627
-0.00034473
-0.00346509
-0.000387105
-0.00354934
-0.000430996
-0.00363993
-0.000476265
-0.00373736
-0.00384056
-0.000522478
2.99303e-06
-0.000361746
7.4133e-06
-0.000982368
9.39316e-06
-0.00151539
6.15325e-06
-0.00195069
-3.69912e-06
-0.00228792
-2.03144e-05
-0.0025369
-4.29323e-05
-0.00271462
-7.038e-05
-0.00284075
-0.000101444
-0.00293365
-0.000135121
-0.00300802
-0.000170709
-0.0030741
-0.00020779
-0.00313819
-0.000246162
-0.00320378
-0.000285764
-0.00327256
-0.000326627
-0.0033454
-0.000368851
-0.00342287
-0.000412569
-0.00350563
-0.000457864
-0.00359463
-0.000504632
-0.0036906
2.54142e-06
-0.000364288
5.79495e-06
-0.000985621
6.09771e-06
-0.0015157
9.05219e-07
-0.0019455
-1.10289e-05
-0.00227599
-2.96445e-05
-0.00251828
-5.41213e-05
-0.00269015
-8.32613e-05
-0.00281161
-0.000115869
-0.00290105
-0.000150977
-0.00297291
-0.000187925
-0.00303715
-0.000226328
-0.00309979
-0.000266006
-0.0031641
-0.000306907
-0.00323166
-0.000349067
-0.00330324
-0.000392588
-0.00337935
-0.000437619
-0.0034606
-0.000484284
-0.00354797
2.08561e-06
-0.000366373
4.1715e-06
-0.000987707
2.80551e-06
-0.00151433
-4.34623e-06
-0.00193835
-1.82809e-05
-0.00226205
-3.88474e-05
-0.00249771
-6.51342e-05
-0.00266386
-9.59227e-05
-0.00278082
-0.000130037
-0.00286693
-0.000166549
-0.0029364
-0.000204836
-0.00299886
-0.000244544
-0.00306008
-0.000285513
-0.00312313
-0.0003277
-0.00318947
-0.000371143
-0.0032598
-0.000415942
-0.00333455
-0.000462257
-0.00341428
1.62629e-06
-0.000368
2.54662e-06
-0.000988627
-4.56218e-07
-0.00151133
-9.53464e-06
-0.00192927
-2.54466e-05
-0.00224614
-4.79161e-05
-0.00247524
-7.59649e-05
-0.00263581
-0.00010836
-0.00274842
-0.000143946
-0.00283134
-0.000181834
-0.00289851
-0.000221438
-0.00295926
-0.000262435
-0.00301909
-0.00030468
-0.00308088
-0.000348142
-0.00314601
-0.000392856
-0.00321509
-0.000438918
-0.00328848
1.1637e-06
-0.000369163
9.18086e-07
-0.000988382
-3.73772e-06
-0.00150667
-1.46767e-05
-0.00191833
-3.25195e-05
-0.0022283
-5.68443e-05
-0.00245092
-8.66082e-05
-0.00260605
-0.000120568
-0.00271447
-0.000157593
-0.00279432
-0.00019683
-0.00285928
-0.00023773
-0.00291836
-0.000279997
-0.00297682
-0.000323506
-0.00303738
-0.000368232
-0.00310129
-0.000414207
-0.00316911
-0.00324117
6.9481e-07
-0.000369858
-7.08457e-07
-0.000986978
-6.97841e-06
-0.0015004
-1.97629e-05
-0.00190555
-3.94934e-05
-0.00220857
-6.56258e-05
-0.00242479
-9.70592e-05
-0.00257461
-0.000132543
-0.00267898
-0.000170974
-0.00275589
-0.000211533
-0.00281872
-0.000253708
-0.00287618
-0.00029723
-0.0029333
-0.000341988
-0.00299262
-0.000387966
-0.00305531
-0.000435197
-0.00312188
1.89809e-07
-0.000370048
-2.33402e-06
-0.000984455
-1.0193e-05
-0.00149254
-2.4788e-05
-0.00189095
-4.63624e-05
-0.00218699
-7.42555e-05
-0.00239689
-0.000107313
-0.00254156
-0.000144283
-0.00264201
-0.000184086
-0.00271609
-0.000225942
-0.00277686
-0.000269371
-0.00283275
-0.000314129
-0.00288854
-0.000360123
-0.00294662
-0.000407343
-0.00300809
-2.82513e-07
-0.000369765
-3.94778e-06
-0.000980789
-1.33767e-05
-0.00148311
-2.97465e-05
-0.00187458
-5.31212e-05
-0.00216362
-8.27283e-05
-0.00236729
-0.000117367
-0.00250692
-0.000155783
-0.00260359
-0.000196927
-0.00267494
-0.000240053
-0.00273373
-0.000284715
-0.00278809
-0.00033069
-0.00284256
-0.000377904
-0.00289941
-0.00295963
-7.21243e-07
-0.000369044
-5.54555e-06
-0.000975965
-1.65255e-05
-0.00147213
-3.46339e-05
-0.00185648
-5.97646e-05
-0.00213849
-9.10398e-05
-0.00233601
-0.000127215
-0.00247074
-0.000167042
-0.00256377
-0.000209495
-0.00263249
-0.000253865
-0.00268936
-0.000299736
-0.00274222
-0.000346911
-0.00279539
-0.000395329
-0.00285099
-1.18418e-06
-0.00036786
-7.13164e-06
-0.000970018
-1.96357e-05
-0.00145963
-3.94456e-05
-0.00183667
-6.62883e-05
-0.00211165
-9.9186e-05
-0.00230311
-0.000136856
-0.00243307
-0.000178055
-0.00252257
-0.000221786
-0.00258876
-0.000267374
-0.00264378
-0.000314433
-0.00269516
-0.000362786
-0.00274704
-0.00280139