/*--------------------------------*- C++ -*----------------------------------*\
  =========                 |
  \\      /  F ield         | OpenFOAM: The Open Source CFD Toolbox
   \\    /   O peration     | Website:  https://openfoam.org
    \\  /    A nd           | Version:  7
     \\/     M anipulation  |
\*---------------------------------------------------------------------------*/
FoamFile
{
    version     2.0;
    format      ascii;
    class       volVectorField;
    location    "95";
    object      U;
}
// * * * * * * * * * * * * * * * * * * * * * * * * * * * * * * * * * * * * * //

dimensions      [0 1 -1 0 0 0 0];

internalField   nonuniform List<vector> 
8500
(
(-0.0101201 0.00772312 1.33863e-19)
(-0.0100219 0.00739707 1.12671e-19)
(-0.0193075 0.0159311 -1.48599e-19)
(-0.00982444 0.00701784 7.10498e-19)
(-0.017874 0.0147701 -4.2179e-19)
(-0.014501 0.0187127 -2.02764e-21)
(-0.00951883 0.00658639 -3.69606e-19)
(-0.0161132 0.0135028 3.57484e-21)
(-0.0104106 0.0168094 3.05586e-19)
(-0.00909634 0.00610481 -1.29823e-19)
(-0.014003 0.0121344 7.75413e-20)
(-0.005729 0.014806 1.12905e-19)
(0.0154836 0.0150008 -3.33742e-19)
(-0.00854921 0.0055763 6.66376e-19)
(-0.0115218 0.0106732 -1.68107e-19)
(-0.000425974 0.012715 -2.44135e-19)
(0.0244024 0.012522 1.25584e-19)
(0.0629796 0.0111927 5.95438e-19)
(-0.00786987 0.00500497 -3.00233e-19)
(-0.0086497 0.00913032 4.58343e-20)
(0.00552582 0.010554 -3.39805e-19)
(0.0342257 0.0100253 -4.80388e-19)
(0.0773854 0.00865291 -2.06851e-19)
(0.134886 0.00737322 -1.15983e-19)
(-0.00705115 0.00439577 -2.93106e-19)
(-0.00536776 0.00751933 6.46714e-19)
(0.0121531 0.00834433 4.04071e-19)
(0.0449792 0.00754016 1.80962e-19)
(0.0929559 0.0062192 -6.54409e-20)
(0.155823 0.00531859 -4.29891e-19)
(0.233055 0.00558256 6.01887e-20)
(-0.00608608 0.00375428 5.2164e-20)
(-0.00165795 0.00585622 -9.77174e-20)
(0.0194793 0.00611161 7.19872e-20)
(0.0566876 0.00510082 -1.73843e-19)
(0.109703 0.0039342 3.69036e-19)
(0.178103 0.00354061 6.69614e-19)
(0.261117 0.00464202 2.0776e-19)
(0.357419 0.00776607 1.30579e-19)
(-0.00496787 0.00308662 -1.75837e-19)
(0.00249663 0.00415878 -4.10114e-19)
(0.0275262 0.00388462 -3.11001e-19)
(0.069369 0.00274606 9.7202e-20)
(0.127635 0.00184464 -5.26453e-19)
(0.201709 0.0020922 -6.57214e-19)
(0.290539 0.00417475 -8.83787e-20)
(0.392421 0.0085617 -2.0566e-19)
(0.504793 0.0154556 -2.07686e-20)
(-0.00368988 0.00239935 -1.3569e-19)
(0.00711171 0.00244642 -1.0605e-19)
(0.0363126 0.0016948 4.78593e-19)
(0.0830378 0.000518044 -2.96687e-19)
(0.146751 1.19836e-06 7.67873e-19)
(0.226611 0.00102846 3.24432e-19)
(0.321248 0.00423587 -2.13892e-19)
(0.428541 0.0100156 -3.67173e-19)
(0.545434 0.0184605 -5.87268e-19)
(0.667907 0.0293281 6.24457e-19)
(-0.00224561 0.0016995 2.66812e-19)
(0.0122017 0.000739951 4.35168e-19)
(0.0458544 -0.000424229 1.76466e-20)
(0.0977029 -0.00153852 2.72183e-19)
(0.16704 -0.0015432 -6.59329e-19)
(0.252768 0.000406157 1.59829e-19)
(0.353159 0.00487925 -1.04743e-19)
(0.465635 0.0121716 -2.06774e-20)
(0.586629 0.0222453 -2.00395e-19)
(0.711626 0.0347016 -4.41412e-19)
(0.835461 0.0488033 2.18951e-19)
(-0.000628779 0.000994454 -4.79839e-20)
(0.0177796 -0.000938577 -6.56741e-19)
(0.0561637 -0.00243704 -5.06975e-19)
(0.113366 -0.00337706 -3.24357e-20)
(0.188484 -0.0027344 1.15489e-19)
(0.280126 0.000281742 -2.23983e-19)
(0.386167 0.00615667 -1.30484e-21)
(0.503544 0.0150683 7.49788e-20)
(0.628164 0.026828 1.10904e-19)
(0.755045 0.0408662 6.28278e-19)
(0.878723 0.0562827 2.60966e-19)
(0.993873 0.0719681 1.59913e-19)
(1.09602 0.0867772 -2.13811e-19)
(0.0011666 0.000292039 8.52675e-20)
(0.0238564 -0.00256604 3.48273e-19)
(0.067249 -0.00430682 2.18124e-19)
(0.130024 -0.00494979 -4.00905e-19)
(0.211054 -0.00351795 8.63179e-20)
(0.308619 0.000710262 5.27281e-19)
(0.420158 0.00811602 2.89277e-19)
(0.542096 0.0187382 3.84728e-20)
(0.669819 0.0322182 3.55391e-19)
(0.79792 0.0478055 -7.25075e-19)
(0.920716 0.06444 -2.04339e-19)
(1.03295 0.0809066 -8.74513e-20)
(1.13052 0.0960305 5.17717e-19)
(1.21092 0.108857 -3.43116e-19)
(0.00314613 -0.00039952 -7.95149e-20)
(0.0304414 -0.00411833 -4.93533e-20)
(0.0791142 -0.00599568 -1.2778e-19)
(0.147665 -0.00620836 4.20763e-19)
(0.23471 -0.00383999 2.82666e-19)
(0.338166 0.00174426 -9.05878e-20)
(0.455001 0.0108004 -1.60419e-20)
(0.58111 0.0232064 3.58749e-19)
(0.711373 0.0384171 -5.47683e-19)
(0.840015 0.0554952 3.3567e-19)
(0.961232 0.0732295 3.44512e-19)
(1.06995 0.0903215 9.1974e-20)
(1.16251 0.105596 -1.84099e-19)
(1.23704 0.118171 2.67901e-19)
(1.29351 0.127555 2.21246e-19)
(0.00531488 -0.00107158 -1.23575e-19)
(0.0375414 -0.00557048 5.45947e-20)
(0.0917584 -0.00746502 3.60223e-19)
(0.166269 -0.00710441 5.93577e-21)
(0.259403 -0.0036481 -6.11899e-19)
(0.368675 0.00343281 -4.214e-19)
(0.490554 0.014247 -3.61157e-19)
(0.620397 0.0284906 -1.90268e-19)
(0.752607 0.045418 7.25145e-19)
(0.881111 0.0639044 -3.2367e-20)
(1.00009 0.082602 9.83207e-20)
(1.10475 0.100155 1.6099e-19)
(1.19197 0.115417 -5.38613e-19)
(1.26054 0.127604 -4.3136e-19)
(1.31108 0.136358 1.15687e-19)
(1.34555 0.141708 -2.24162e-20)
(1.36675 0.144007 -4.58664e-19)
(0.00767727 -0.00171507 1.57211e-19)
(0.0451604 -0.00689677 2.00803e-19)
(0.105176 -0.00867577 -3.72422e-19)
(0.18581 -0.00759009 -2.03581e-20)
(0.285073 -0.00289197 7.18933e-19)
(0.400043 0.00582075 4.5117e-19)
(0.526667 0.0184867 -1.81888e-19)
(0.659765 0.0346007 2.68607e-19)
(0.793306 0.0532065 -2.87608e-19)
(0.921004 0.0729965 -2.91238e-19)
(1.03712 0.0925061 2.97575e-19)
(1.13727 0.110352 -6.0238e-19)
(1.21892 0.125444 7.62303e-20)
(1.28153 0.137119 2.91143e-19)
(1.32632 0.145163 -1.5922e-19)
(1.35571 0.14974 2.28313e-19)
(1.37274 0.151303 -2.76159e-19)
(1.38051 0.150321 4.55846e-20)
(0.0102369 -0.00232052 1.84298e-19)
(0.0532998 -0.00807084 -6.10988e-19)
(0.119355 -0.00958873 9.81759e-20)
(0.206252 -0.00761857 -1.02854e-19)
(0.311648 -0.00152409 -2.5336e-19)
(0.432155 0.00894799 -2.03457e-19)
(0.563179 0.0235436 1.83218e-19)
(0.699019 0.0415387 -8.4212e-19)
(0.833267 0.061761 -1.97534e-19)
(0.959516 0.0827304 1.27854e-19)
(1.07223 0.10289 -1.62304e-19)
(1.16748 0.120859 4.6647e-19)
(1.2434 0.135633 3.27922e-19)
(1.30012 0.146686 1.14118e-19)
(1.33941 0.153952 6.32226e-19)
(1.36407 0.157729 -6.25174e-19)
(1.37732 0.158557 3.85424e-19)
(1.38226 0.156975 5.45682e-19)
(1.3816 0.153953 -3.89581e-19)
(1.37712 0.148397 1.09224e-19)
(0.0129965 -0.00287805 1.46636e-20)
(0.0619576 -0.00906582 -6.61285e-21)
(0.134278 -0.0101649 4.47407e-19)
(0.227551 -0.0071445 -6.45446e-20)
(0.339049 0.0004997 -2.81403e-20)
(0.464888 0.012849 4.83412e-19)
(0.599926 0.0294345 5.57353e-19)
(0.737969 0.049299 1.53312e-19)
(0.872299 0.0710535 3.29989e-19)
(0.996488 0.0930615 -2.17279e-19)
(1.1053 0.113702 -1.84775e-19)
(1.19537 0.131627 -3.82159e-21)
(1.26549 0.145944 -2.27094e-19)
(1.31645 0.156278 -8.34827e-21)
(1.35052 0.162713 -4.44713e-19)
(1.37081 0.165673 1.75828e-19)
(1.38065 0.165775 4.12774e-19)
(1.38311 0.16361 -2.08252e-19)
(1.38072 0.160108 2.40037e-19)
(1.37513 0.154298 4.32499e-19)
(0.0159576 -0.00337742 5.66241e-20)
(0.0711285 -0.0098545 -1.56948e-19)
(0.149923 -0.0103656 -9.22263e-21)
(0.249656 -0.00612445 4.49859e-21)
(0.367187 0.0032197 -3.17278e-19)
(0.49811 0.0175524 -4.51654e-20)
(0.636739 0.0361692 -5.74894e-19)
(0.776428 0.057869 5.99235e-19)
(0.910226 0.0810511 3.09805e-19)
(1.03179 0.103943 2.76941e-20)
(1.13628 0.124891 -3.01004e-21)
(1.22094 0.142611 -1.62999e-19)
(1.28527 0.156345 9.63836e-20)
(1.33065 0.165877 2.64417e-19)
(1.35981 0.171442 -4.60402e-19)
(1.3761 0.173577 3.51395e-19)
(1.3829 0.172964 -4.24723e-19)
(1.38318 0.170238 -1.9177e-20)
(1.37932 0.166273 1.83751e-21)
(1.3728 0.160222 1.94905e-19)
(0.0191207 -0.00380806 -1.23985e-19)
(0.0808035 -0.0104095 -1.41856e-19)
(0.16626 -0.0101532 2.03639e-19)
(0.272508 -0.00451736 -9.08638e-20)
(0.395962 0.00667191 -2.86875e-20)
(0.531684 0.0230807 -2.81609e-19)
(0.673452 0.0437505 3.16062e-19)
(0.814217 0.0672295 -5.6871e-19)
(0.94689 0.0917161 5.21943e-20)
(1.06531 0.115328 8.81816e-20)
(1.16512 0.136409 -4.84204e-20)
(1.24424 0.153771 3.46736e-20)
(1.30283 0.166807 -4.03568e-19)
(1.34287 0.175468 -3.0889e-19)
(1.36745 0.180134 2.59929e-19)
(1.3801 0.181444 -8.39573e-20)
(1.38419 0.180133 -5.05324e-19)
(1.38258 0.176865 -9.68429e-20)
(1.37747 0.172457 -4.25412e-19)
(1.37017 0.166174 -5.27952e-19)
(0.0224849 -0.00415918 -2.93729e-20)
(0.0909697 -0.0107035 2.09605e-19)
(0.183254 -0.00949082 1.52586e-19)
(0.296039 -0.00228494 4.48598e-19)
(0.425271 0.0108876 -1.59177e-20)
(0.565467 0.0294502 2.41021e-19)
(0.709896 0.0521741 -5.12553e-19)
(0.85117 0.0773557 1.80935e-19)
(0.982152 0.103008 -1.52391e-19)
(1.09697 0.127168 2.21255e-19)
(1.19183 0.148211 5.48145e-20)
(1.26533 0.165071 1.29947e-19)
(1.31831 0.177308 3.74771e-19)
(1.35326 0.185041 4.67722e-20)
(1.37359 0.188789 -2.34741e-19)
(1.38294 0.18928 3.89686e-19)
(1.38464 0.187291 1.37929e-19)
(1.3814 0.183499 -6.56853e-20)
(1.37522 0.178665 3.99738e-19)
(1.36727 0.172159 2.65865e-19)
(0.026048 -0.00441978 9.61722e-20)
(0.10161 -0.0107094 1.08701e-19)
(0.200865 -0.00834343 -2.69968e-19)
(0.320175 0.0006079 -6.21566e-20)
(0.455002 0.0158931 8.0385e-20)
(0.599317 0.0366707 -4.73979e-20)
(0.745911 0.0614294 2.90552e-19)
(0.887131 0.0882175 -9.25145e-20)
(1.01589 0.114883 -1.1414e-19)
(1.12671 0.139415 -3.90945e-19)
(1.21639 0.160254 -2.50547e-19)
(1.28427 0.176479 -2.3257e-19)
(1.3318 0.187829 -1.90231e-19)
(1.36195 0.194591 7.31917e-20)
(1.37837 0.19741 -1.43291e-19)
(1.38476 0.197092 1.73902e-20)
(1.38435 0.194443 2.75027e-19)
(1.37971 0.190147 2.93295e-19)
(1.37263 0.1849 2.14357e-20)
(1.36415 0.178177 1.86154e-19)
(0.0298061 -0.0045788 4.94518e-20)
(0.112705 -0.0104006 1.85324e-19)
(0.219044 -0.00667761 1.47341e-19)
(0.344837 0.00419269 -2.45948e-19)
(0.485039 0.0217094 2.28644e-19)
(0.633086 0.0447459 -7.44377e-20)
(0.781338 0.0715 -1.59581e-19)
(0.921958 0.0997807 3.84652e-19)
(1.04801 0.127298 -9.7158e-20)
(1.15448 0.152025 -3.5378e-21)
(1.23885 0.172499 2.68881e-19)
(1.30115 0.187968 -2.42848e-19)
(1.34344 0.198355 1.0703e-19)
(1.36908 0.204112 -2.71323e-19)
(1.38192 0.205999 4.59842e-19)
(1.38566 0.204887 -3.50248e-19)
(1.38341 0.201598 -2.12289e-19)
(1.37757 0.196813 -2.20746e-21)
(1.36974 0.191166 -3.15428e-19)
(1.36081 0.18423 -3.73699e-21)
(0.0337542 -0.00462517 -2.22906e-19)
(0.124229 -0.00975148 -8.25437e-20)
(0.237741 -0.00446219 -2.74113e-19)
(0.369937 0.00849704 -1.52194e-19)
(0.515263 0.0283521 -7.87854e-20)
(0.666633 0.0536732 -3.79776e-20)
(0.81603 0.0823636 1.76155e-19)
(0.955525 0.112007 -9.6859e-20)
(1.07843 0.140205 -4.74385e-20)
(1.18027 0.164952 1.2067e-19)
(1.25925 0.184911 -1.64424e-19)
(1.31606 0.199514 2.10855e-19)
(1.35334 0.208876 2.03986e-19)
(1.37479 0.213603 4.57438e-20)
(1.38437 0.214561 -1.30842e-19)
(1.38574 0.212671 -3.13084e-20)
(1.3819 0.208761 -1.82395e-19)
(1.37503 0.203502 -7.80545e-20)
(1.36657 0.197463 1.29163e-19)
(1.35727 0.190316 -2.235e-19)
(0.0378855 -0.00454796 7.37136e-20)
(0.136154 -0.00873722 -1.25955e-19)
(0.256896 -0.00166855 2.1491e-19)
(0.395385 0.0135443 1.01005e-19)
(0.545551 0.035831 -1.46314e-19)
(0.699814 0.0634441 1.8157e-19)
(0.849848 0.0939931 4.55419e-20)
(0.98772 0.124857 -8.29339e-20)
(1.10709 0.153561 2.24101e-19)
(1.20408 0.178154 6.71912e-20)
(1.27763 0.197457 1.28742e-19)
(1.3291 0.211098 -1.33674e-19)
(1.36163 0.219382 -8.94562e-20)
(1.37919 0.223064 1.91263e-19)
(1.38582 0.2231 -5.50601e-20)
(1.3851 0.220448 3.18084e-19)
(1.37987 0.215936 1.69501e-19)
(1.37213 0.210215 -2.84824e-20)
(1.36314 0.203791 9.46324e-20)
(1.35355 0.196434 3.64412e-19)
(0.0421917 -0.00433647 -3.65498e-20)
(0.148448 -0.0073345 2.05519e-20)
(0.276449 0.00172905 -1.96192e-19)
(0.421087 0.0193534 1.26889e-19)
(0.575779 0.0441506 1.19384e-19)
(0.732493 0.0740443 -1.71431e-19)
(0.882663 0.106357 7.98281e-20)
(1.01845 0.138287 -1.56655e-19)
(1.13393 0.167318 -2.24715e-19)
(1.22592 0.191593 8.19591e-20)
(1.29406 0.210108 1.52522e-20)
(1.34037 0.222702 1.29529e-19)
(1.36842 0.229868 8.8341e-20)
(1.38239 0.232496 -6.02092e-20)
(1.38636 0.23162 -1.26839e-20)
(1.3838 0.228225 -4.84184e-20)
(1.37738 0.223126 -2.54955e-19)
(1.36891 0.216953 2.12662e-20)
(1.35948 0.21015 -1.71578e-19)
(1.34964 0.20258 1.7603e-21)
(0.046663 -0.00398035 -4.10523e-20)
(0.161076 -0.00552156 -5.28675e-20)
(0.296332 0.00575312 2.07445e-19)
(0.446942 0.0259383 -2.59489e-20)
(0.605826 0.0533095 1.06908e-21)
(0.764539 0.0854542 -1.1654e-19)
(0.914357 0.11942 -2.07047e-20)
(1.04763 0.152253 8.40455e-20)
(1.15894 0.181434 2.90182e-19)
(1.24581 0.20523 -9.38378e-20)
(1.30861 0.222838 1.63368e-20)
(1.34996 0.234312 5.19147e-20)
(1.37381 0.240327 -1.02174e-19)
(1.38449 0.241899 -6.65121e-20)
(1.38608 0.240125 1.78959e-20)
(1.38192 0.236003 6.3475e-20)
(1.37447 0.230332 1.63008e-19)
(1.36538 0.223715 -4.38661e-21)
(1.3556 0.216536 6.33178e-20)
(1.34556 0.20875 4.42159e-20)
(0.0512881 -0.00346973 7.15191e-20)
(0.173997 -0.00327853 1.47797e-19)
(0.316475 0.0104227 1.02694e-19)
(0.472852 0.0333084 -5.65996e-20)
(0.635569 0.0633007 2.11783e-19)
(0.795826 0.0976492 1.26413e-19)
(0.944825 0.133143 -1.91138e-19)
(1.07519 0.166709 -6.7324e-20)
(1.1821 0.195864 1.22232e-21)
(1.2638 0.21903 -5.70196e-20)
(1.32137 0.235624 -1.66299e-19)
(1.35798 0.245915 2.78691e-20)
(1.3779 0.250757 3.2656e-22)
(1.3856 0.251275 -1.79026e-19)
(1.38507 0.248617 8.28216e-20)
(1.37949 0.243784 -4.49866e-20)
(1.37117 0.237555 -2.00915e-19)
(1.36157 0.230499 9.82755e-20)
(1.3515 0.222946 -2.10604e-19)
(1.34131 0.21494 -1.28637e-19)
(0.0560543 -0.00279531 -2.50992e-20)
(0.187169 -0.000587668 -6.34874e-20)
(0.336804 0.0157531 -1.06812e-19)
(0.498714 0.0414677 -5.19518e-21)
(0.664889 0.074112 -9.87026e-21)
(0.826237 0.1106 -1.196e-19)
(0.973973 0.147484 2.76396e-20)
(1.10109 0.18161 2.625e-20)
(1.20341 0.210567 -5.50002e-20)
(1.27992 0.232961 4.56841e-21)
(1.3324 0.248443 8.76471e-20)
(1.36452 0.257501 -1.17145e-20)
(1.38081 0.261153 6.81226e-20)
(1.38579 0.260623 3.06084e-20)
(1.38337 0.257097 -1.70926e-19)
(1.37657 0.25157 1.31901e-20)
(1.36751 0.244793 1.06591e-19)
(1.35749 0.237302 -2.57131e-20)
(1.3472 0.229375 4.78707e-21)
(1.33688 0.221143 -1.81691e-20)
(0.0609474 -0.00194851 -2.30059e-20)
(0.200549 0.0025664 -2.26026e-20)
(0.357243 0.0217556 -4.04261e-20)
(0.524425 0.0504154 -2.68803e-20)
(0.693671 0.0857258 -7.05661e-20)
(0.855662 0.124273 8.26721e-20)
(1.00172 0.162401 1.65332e-19)
(1.12528 0.19691 5.82354e-20)
(1.22287 0.225501 3.00932e-20)
(1.29423 0.246992 -7.23961e-20)
(1.34179 0.261277 -7.17198e-22)
(1.36966 0.26906 4.78032e-20)
(1.3826 0.271513 -6.20428e-20)
(1.38513 0.269945 2.39985e-20)
(1.38104 0.265566 8.12571e-20)
(1.3732 0.259359 -2.84983e-20)
(1.36352 0.252044 -5.10062e-20)
(1.35316 0.24412 -4.77773e-20)
(1.34268 0.235818 1.72357e-19)
(1.33227 0.227354 6.16532e-20)
(0.0659519 -0.000921518 -4.11531e-20)
(0.214087 0.00619647 5.00462e-20)
(0.377714 0.0284373 -1.15007e-20)
(0.549885 0.0601454 3.64617e-20)
(0.721803 0.0981195 -3.29616e-20)
(0.884002 0.138631 -2.03679e-20)
(1.028 0.177846 -8.04437e-20)
(1.14775 0.212564 9.58831e-21)
(1.24051 0.240628 2.32513e-20)
(1.30679 0.261095 5.24979e-20)
(1.34962 0.274108 -2.06275e-20)
(1.37351 0.280583 -1.64171e-20)
(1.38336 0.281834 1.51826e-20)
(1.38369 0.279239 -2.70583e-20)
(1.37814 0.274024 6.22367e-20)
(1.3694 0.26715 4.17233e-20)
(1.3592 0.259303 -7.28087e-21)
(1.34857 0.250946 -4.80041e-21)
(1.33797 0.242268 -4.64681e-20)
(1.32749 0.233566 -5.93607e-20)
(0.0710513 0.00029253 8.86992e-21)
(0.227735 0.0103126 -1.565e-20)
(0.398138 0.0358013 1.07644e-20)
(0.574993 0.0706468 -1.4928e-20)
(0.749181 0.111266 -5.77809e-20)
(0.911165 0.153634 2.69819e-20)
(1.05274 0.193775 1.32168e-20)
(1.16847 0.228524 -6.3537e-20)
(1.25636 0.25591 -4.03761e-20)
(1.31765 0.275242 -3.89439e-21)
(1.35596 0.286919 -5.73254e-20)
(1.37613 0.292062 5.97933e-20)
(1.38317 0.292111 -1.25192e-22)
(1.38152 0.288504 -8.14749e-21)
(1.3747 0.282467 -1.57219e-20)
(1.36519 0.274938 7.80368e-21)
(1.35458 0.266565 5.4729e-21)
(1.34374 0.257776 -2.21839e-21)
(1.33304 0.248719 -1.70903e-20)
(1.32252 0.23977 2.12857e-20)
(0.0762279 0.00169953 2.96818e-21)
(0.241442 0.014922 1.03183e-20)
(0.418435 0.0438462 5.79924e-21)
(0.59965 0.0819035 -2.72204e-21)
(0.775704 0.125133 3.81591e-20)
(0.937071 0.169237 -8.5847e-21)
(1.07591 0.210137 1.37542e-20)
(1.18744 0.244748 3.07314e-20)
(1.27045 0.27131 -5.59269e-21)
(1.32689 0.289408 1.40686e-21)
(1.3609 0.299696 1.57593e-20)
(1.3776 0.303489 -8.4797e-21)
(1.38208 0.302342 1.11407e-20)
(1.37869 0.297736 2.02106e-21)
(1.37076 0.290893 -2.15091e-20)
(1.36061 0.282718 1.04906e-21)
(1.34966 0.273825 2.85387e-20)
(1.33867 0.2646 -6.04017e-21)
(1.32792 0.255163 9.02702e-21)
(1.31737 0.24596 -1.0335e-20)
(0.0814632 0.0033043 1.22016e-21)
(0.255155 0.0200288 1.52521e-20)
(0.438525 0.0525661 8.30046e-21)
(0.623762 0.0938948 -1.69758e-21)
(0.80128 0.139685 3.53231e-20)
(0.961647 0.185396 -1.00609e-20)
(1.09747 0.226885 1.89924e-20)
(1.20467 0.261189 2.5715e-20)
(1.28281 0.286795 -5.3522e-21)
(1.33455 0.303569 1.21313e-21)
(1.3645 0.312424 1.7934e-20)
(1.378 0.314855 -7.30855e-21)
(1.38016 0.31252 7.29705e-21)
(1.37522 0.306931 -1.80914e-21)
(1.36635 0.299296 -1.76207e-20)
(1.35567 0.290485 -5.15563e-22)
(1.34445 0.281074 2.84171e-20)
(1.33335 0.271413 -5.64336e-21)
(1.32258 0.261592 1.06914e-20)
(1.31204 0.252127 -1.17043e-20)
(0.0867379 0.00511054 1.0656e-20)
(0.26882 0.025634 -1.96175e-20)
(0.458329 0.0619512 1.00724e-20)
(0.647237 0.106596 -8.17556e-21)
(0.825822 0.154884 -5.59693e-20)
(0.98483 0.202061 2.2911e-20)
(1.11739 0.243969 1.06388e-20)
(1.22016 0.277807 -7.26805e-20)
(1.2935 0.30233 -3.07796e-20)
(1.34071 0.317703 -2.53151e-23)
(1.36683 0.325088 -4.8396e-20)
(1.37739 0.326153 4.08066e-20)
(1.37746 0.322641 -9.25159e-21)
(1.37116 0.316084 5.90037e-21)
(1.36148 0.307671 -2.32553e-20)
(1.35037 0.298231 1.77855e-20)
(1.33896 0.288304 1.15397e-20)
(1.3278 0.278203 -2.02587e-21)
(1.31703 0.267996 -2.30912e-20)
(1.30651 0.258262 2.15207e-20)
(0.0920315 0.00712072 -2.30444e-20)
(0.282383 0.0317356 -1.05689e-20)
(0.477769 0.071987 -1.55087e-20)
(0.669987 0.119976 5.3625e-20)
(0.849251 0.170685 1.89744e-22)
(1.00657 0.219183 -2.88666e-20)
(1.13565 0.261341 -1.18462e-19)
(1.23393 0.294557 1.15588e-20)
(1.30256 0.317883 1.35392e-20)
(1.34543 0.331786 6.09269e-20)
(1.36797 0.337674 9.07691e-21)
(1.37582 0.337373 -5.22013e-20)
(1.37402 0.332698 4.96437e-20)
(1.36655 0.32519 -2.01913e-20)
(1.35618 0.316009 7.70246e-20)
(1.34473 0.305948 -6.99567e-21)
(1.33318 0.295507 4.1476e-21)
(1.322 0.284963 3.5386e-21)
(1.31128 0.274367 -6.17584e-20)
(1.30079 0.264355 -3.79569e-20)
(0.0973234 0.00933605 -8.75897e-21)
(0.29579 0.0383282 -5.08918e-20)
(0.496768 0.0826549 4.04176e-20)
(0.69193 0.134003 -5.15956e-20)
(0.871495 0.187042 -9.35975e-20)
(1.02681 0.236711 8.21356e-20)
(1.15224 0.27895 1.36035e-19)
(1.24602 0.311398 4.89504e-20)
(1.31003 0.333422 3.42304e-20)
(1.34877 0.345798 -9.88803e-20)
(1.36796 0.350169 7.62483e-20)
(1.37335 0.348505 8.97521e-21)
(1.36989 0.342682 -9.81324e-20)
(1.36139 0.334238 3.85588e-20)
(1.35047 0.324304 1.3878e-19)
(1.33875 0.313626 -9.59552e-20)
(1.32713 0.302671 -2.77052e-20)
(1.31596 0.291682 -2.70618e-20)
(1.3053 0.280694 1.25861e-19)
(1.29488 0.270399 7.34653e-20)
(0.102593 0.0117564 6.03743e-20)
(0.308988 0.0454032 -1.0346e-19)
(0.515253 0.0939324 -1.51434e-19)
(0.712987 0.148638 6.85547e-21)
(0.892492 0.203908 -2.78501e-20)
(1.04553 0.254591 -1.12871e-19)
(1.16716 0.296748 -1.89867e-20)
(1.25643 0.328289 5.8698e-20)
(1.31597 0.348918 -9.50383e-20)
(1.35079 0.359718 7.82395e-20)
(1.36687 0.362559 9.16522e-20)
(1.37002 0.359541 -5.8018e-20)
(1.3651 0.352585 2.38333e-20)
(1.35573 0.343222 1.22335e-19)
(1.34435 0.332544 -1.64397e-19)
(1.33245 0.321256 2.91166e-20)
(1.32079 0.309787 7.99713e-20)
(1.30968 0.298349 -2.44923e-20)
(1.29911 0.286967 -2.59044e-20)
(1.28877 0.276382 -4.42094e-21)
(0.107818 0.0143805 8.92142e-20)
(0.321923 0.0529491 1.66638e-19)
(0.533153 0.105793 8.88508e-20)
(0.733088 0.16384 -1.06568e-19)
(0.912184 0.221232 2.79524e-19)
(1.06269 0.272771 4.32966e-20)
(1.18041 0.314685 -1.20244e-19)
(1.26522 0.34519 -8.71921e-20)
(1.32043 0.364341 -7.04843e-20)
(1.35154 0.373524 2.35221e-20)
(1.36475 0.374828 -8.02633e-20)
(1.36589 0.370467 2.71367e-21)
(1.35969 0.362398 -5.53843e-20)
(1.34958 0.352131 -7.61146e-20)
(1.33785 0.340719 -1.31473e-20)
(1.32582 0.328825 -8.27218e-21)
(1.31417 0.316844 -1.48051e-19)
(1.30315 0.304954 1.12993e-19)
(1.2927 0.293176 -1.73182e-19)
(1.28247 0.282296 -1.0336e-19)
(0.112978 0.0172054 -1.08309e-19)
(0.334544 0.0609511 -4.47816e-20)
(0.550401 0.118207 2.00526e-19)
(0.752164 0.179565 5.11417e-20)
(0.930522 0.23896 -1.761e-19)
(1.07828 0.291197 -1.02813e-19)
(1.19201 0.332713 -3.45335e-20)
(1.27241 0.362063 2.24076e-19)
(1.32345 0.379661 1.6118e-19)
(1.35107 0.387197 -5.57927e-20)
(1.36166 0.386962 -3.27661e-20)
(1.36099 0.381273 8.27943e-20)
(1.35367 0.372108 -9.12767e-20)
(1.34296 0.360954 4.24436e-20)
(1.33095 0.348819 1.88202e-20)
(1.31886 0.336322 -2.36609e-20)
(1.30728 0.323828 1.80937e-19)
(1.29637 0.311484 -7.69496e-20)
(1.28607 0.299309 1.56649e-19)
(1.27596 0.288129 -5.70102e-20)
(0.118051 0.0202273 -6.10114e-20)
(0.346799 0.0693913 -1.13216e-19)
(0.566932 0.13114 -1.80314e-19)
(0.770157 0.195767 1.0951e-19)
(0.947465 0.257038 6.05556e-20)
(1.09227 0.309813 -8.69506e-20)
(1.20197 0.350785 1.45019e-19)
(1.27804 0.378869 -2.25102e-19)
(1.3251 0.39485 -2.41042e-19)
(1.34945 0.400716 1.46434e-19)
(1.35763 0.398946 5.51177e-20)
(1.35536 0.391947 -6.15944e-20)
(1.34709 0.381706 9.40629e-20)
(1.33588 0.369679 7.47978e-20)
(1.32369 0.35683 -5.53352e-20)
(1.31159 0.343736 -1.91736e-20)
(1.3001 0.330729 -1.38633e-19)
(1.28934 0.31793 2.89069e-20)
(1.27922 0.305355 -1.20755e-19)
(1.26925 0.293871 -2.05412e-20)
(0.123017 0.0234408 5.07092e-20)
(0.358641 0.0782494 -8.90783e-20)
(0.582686 0.144555 1.6332e-19)
(0.78701 0.212395 2.77916e-19)
(0.962978 0.275411 -4.0137e-19)
(1.10467 0.328567 3.55249e-19)
(1.21031 0.368852 9.60665e-20)
(1.28215 0.395571 -1.40244e-19)
(1.32541 0.409881 1.66699e-19)
(1.34673 0.41406 9.93976e-20)
(1.35272 0.410765 1.24212e-19)
(1.34903 0.402474 -2.16424e-19)
(1.33995 0.391177 -4.54357e-20)
(1.32836 0.378294 1.08923e-19)
(1.31605 0.364739 4.17168e-20)
(1.304 0.351051 1.95209e-19)
(1.29265 0.337534 2.47151e-19)
(1.28207 0.324277 -6.12786e-20)
(1.27214 0.311302 1.07797e-19)
(1.26234 0.299512 1.24398e-19)
(0.127855 0.0268392 -1.47566e-20)
(0.370022 0.0875019 -2.07102e-19)
(0.597607 0.158414 -2.85571e-19)
(0.802677 0.229397 -3.74691e-19)
(0.977034 0.294021 -3.70615e-20)
(1.11548 0.347403 1.39405e-19)
(1.21705 0.386869 -2.65778e-20)
(1.28478 0.412131 4.70443e-20)
(1.32444 0.424725 -7.3701e-20)
(1.34294 0.427209 1.24877e-19)
(1.34695 0.422401 -1.91165e-19)
(1.34203 0.41284 2.51826e-19)
(1.33227 0.400508 1.45631e-19)
(1.3204 0.386784 6.75773e-20)
(1.30805 0.372533 -1.01059e-19)
(1.2961 0.358257 -1.07962e-19)
(1.28491 0.344228 -1.04354e-19)
(1.27454 0.330514 7.64745e-21)
(1.26483 0.317138 1.41657e-19)
(1.25523 0.30504 -1.51837e-19)
(0.132545 0.0304148 -2.63708e-20)
(0.380899 0.0971231 1.61082e-19)
(0.611645 0.172673 2.04014e-19)
(0.817115 0.246721 -3.22169e-20)
(0.989611 0.312811 9.62859e-20)
(1.12469 0.366268 2.63264e-20)
(1.22222 0.404789 -1.42193e-19)
(1.28598 0.428514 1.13531e-19)
(1.32223 0.439356 1.07246e-19)
(1.33813 0.440142 -1.8761e-19)
(1.34037 0.433839 3.05072e-19)
(1.33439 0.423031 -2.55945e-19)
(1.32409 0.409685 1.49222e-19)
(1.31202 0.395135 -2.18856e-19)
(1.29969 0.380199 3.2537e-19)
(1.28788 0.365337 -2.07689e-19)
(1.27689 0.3508 -6.16473e-20)
(1.26676 0.336627 -8.36486e-20)
(1.2573 0.322847 -1.77962e-19)
(1.24791 0.310443 2.43164e-21)
(0.137067 0.0341585 1.88781e-19)
(0.391229 0.107085 2.0199e-19)
(0.624752 0.187288 -2.93512e-19)
(0.830288 0.26431 -1.79996e-19)
(1.0007 0.331723 2.67905e-19)
(1.13231 0.385107 -1.07268e-19)
(1.22586 0.422567 1.58467e-19)
(1.28579 0.444684 6.86806e-20)
(1.31884 0.453747 -1.60735e-19)
(1.33235 0.452839 -4.01803e-19)
(1.33302 0.445061 -7.15592e-20)
(1.32612 0.433031 -1.5302e-19)
(1.3154 0.418693 -2.28198e-19)
(1.30323 0.403332 1.85595e-20)
(1.29098 0.38772 -2.31352e-20)
(1.27935 0.37228 -2.39846e-20)
(1.2686 0.357237 1.92622e-19)
(1.25873 0.342606 1.40477e-19)
(1.24954 0.32842 1.48176e-20)
(1.24036 0.315716 8.46158e-20)
(0.141404 0.0380602 -4.55843e-20)
(0.400973 0.117356 3.59209e-19)
(0.636886 0.202212 1.40132e-19)
(0.842166 0.282108 2.86836e-19)
(1.01028 0.3507 9.40732e-20)
(1.13837 0.403868 3.61223e-20)
(1.22798 0.440159 -2.30978e-19)
(1.28425 0.460607 -7.4947e-20)
(1.3143 0.467871 3.68801e-20)
(1.32564 0.465279 2.98935e-19)
(1.32492 0.456048 -9.84598e-20)
(1.31727 0.442824 1.22589e-19)
(1.30623 0.427516 2.63613e-19)
(1.29404 0.411361 6.05598e-20)
(1.28192 0.395082 -5.28586e-20)
(1.27051 0.37907 7.24547e-20)
(1.26002 0.363526 1.4024e-19)
(1.25044 0.34844 6.55136e-20)
(1.24154 0.333855 1.66811e-19)
(1.23256 0.320849 1.31201e-19)
(0.145536 0.0421085 -1.19252e-19)
(0.410096 0.127905 -1.83908e-19)
(0.648011 0.217397 1.17745e-19)
(0.852725 0.300058 3.9959e-20)
(1.01836 0.369681 8.01024e-20)
(1.14288 0.422498 -3.27747e-19)
(1.22864 0.457521 1.19857e-19)
(1.2814 0.476248 -2.60745e-19)
(1.30866 0.481701 -1.46334e-19)
(1.31804 0.47744 1.71623e-19)
(1.31611 0.466784 -1.82414e-20)
(1.30784 0.452392 1.13239e-20)
(1.2966 0.436137 -3.21525e-19)
(1.28445 0.419204 -1.31333e-19)
(1.27251 0.40227 1.10416e-19)
(1.26136 0.385692 -1.936e-19)
(1.25117 0.369651 -1.04761e-19)
(1.24191 0.354118 -1.05889e-19)
(1.23333 0.339163 -1.88607e-19)
(1.22455 0.325826 -4.46473e-19)
(0.149448 0.0462914 6.94242e-20)
(0.418564 0.138697 -8.66827e-20)
(0.658094 0.232792 -4.77828e-19)
(0.861946 0.318102 2.59626e-19)
(1.02493 0.388611 -3.25139e-19)
(1.14586 0.440945 -4.68e-20)
(1.22787 0.474611 -4.53296e-19)
(1.2773 0.491574 4.86063e-19)
(1.30197 0.495212 2.79472e-19)
(1.30958 0.4893 -1.61778e-20)
(1.30661 0.477249 1.02085e-19)
(1.29785 0.461718 -1.30227e-19)
(1.2865 0.44454 -1.0955e-20)
(1.27447 0.426846 6.09519e-20)
(1.26277 0.409268 -6.408e-20)
(1.25191 0.392132 1.23167e-19)
(1.24204 0.375598 -1.66827e-19)
(1.23313 0.359617 -1.49599e-19)
(1.22489 0.344316 8.50294e-20)
(1.21639 0.330659 1.18732e-19)
(0.153124 0.0505956 1.59126e-19)
(0.426348 0.149697 1.61245e-19)
(0.667107 0.248345 1.25258e-19)
(0.869817 0.33618 -2.99096e-21)
(1.03001 0.407431 -8.49227e-20)
(1.14735 0.459158 5.76664e-19)
(1.22571 0.491388 3.28966e-19)
(1.27198 0.506552 2.25817e-19)
(1.29427 0.508378 3.23168e-19)
(1.3003 0.50084 4.08178e-20)
(1.29645 0.487424 -2.74215e-19)
(1.28733 0.470785 -3.08095e-20)
(1.27597 0.452707 -6.16437e-20)
(1.26411 0.43427 -2.01601e-19)
(1.25269 0.41606 -7.70658e-20)
(1.24216 0.398374 -1.07863e-19)
(1.23264 0.381354 3.41563e-19)
(1.2241 0.364934 -5.16797e-21)
(1.21621 0.34928 9.944e-20)
(1.20806 0.335318 8.18804e-20)
(0.156548 0.0550071 -5.34949e-20)
(0.433421 0.160867 -9.38797e-20)
(0.675029 0.264005 -2.05373e-19)
(0.87633 0.354235 -3.46825e-20)
(1.03361 0.426084 -3.47949e-19)
(1.14736 0.477088 -2.50837e-19)
(1.2222 0.507809 8.42213e-20)
(1.2655 0.52115 -6.17257e-19)
(1.28559 0.521173 -3.37185e-19)
(1.29023 0.512036 8.32638e-20)
(1.28565 0.497291 -4.47435e-20)
(1.2763 0.479573 2.52388e-19)
(1.265 0.460622 3.48467e-19)
(1.25338 0.44146 8.87717e-20)
(1.24229 0.422631 2.45295e-19)
(1.23211 0.404404 -1.31013e-19)
(1.22298 0.386904 1.83909e-19)
(1.21483 0.370053 1.03433e-19)
(1.20733 0.354051 9.17864e-20)
(1.19953 0.339788 -1.79807e-19)
(0.159709 0.0595112 8.07481e-20)
(0.43976 0.172168 -1.01031e-20)
(0.681841 0.279719 -3.1958e-19)
(0.881483 0.372208 -1.39051e-22)
(1.03575 0.444514 7.83057e-19)
(1.14594 0.494686 1.58687e-19)
(1.21737 0.523837 1.21031e-19)
(1.25788 0.535337 3.58657e-19)
(1.27599 0.533571 -2.93219e-19)
(1.27941 0.522868 -3.18088e-19)
(1.27425 0.506828 -4.66825e-21)
(1.26477 0.488066 -2.32456e-19)
(1.25361 0.468266 -1.3029e-19)
(1.24229 0.448398 3.56802e-19)
(1.23156 0.428963 -9.43001e-20)
(1.22178 0.410207 5.27816e-21)
(1.21304 0.392235 -1.32841e-19)
(1.20532 0.374961 -2.07465e-19)
(1.19823 0.358617 1.42159e-20)
(1.19081 0.344059 2.07498e-19)
(0.162593 0.0640925 -3.88399e-19)
(0.445346 0.183563 2.44109e-19)
(0.687531 0.295433 5.50131e-19)
(0.885279 0.390041 1.74791e-19)
(1.03643 0.462667 -9.25402e-19)
(1.14311 0.511905 -3.85899e-19)
(1.21128 0.539432 -3.05945e-19)
(1.24919 0.549082 -1.12878e-19)
(1.26549 0.545548 3.86932e-19)
(1.26787 0.533314 4.14324e-20)
(1.26227 0.516018 -8.47828e-20)
(1.25275 0.496244 1.52833e-19)
(1.24182 0.475622 2.29683e-20)
(1.23084 0.455067 -4.28507e-19)
(1.22052 0.435043 1.32264e-19)
(1.21115 0.415767 1.78093e-19)
(1.20285 0.397334 8.80677e-20)
(1.19557 0.379645 1.19601e-19)
(1.18891 0.362967 -2.16069e-19)
(1.1819 0.348122 -1.09449e-19)
(0.165189 0.0687348 -2.69185e-20)
(0.450162 0.19501 1.23609e-19)
(0.69209 0.311093 6.30835e-20)
(0.887724 0.407676 1.87721e-19)
(1.0357 0.480487 5.17487e-19)
(1.13892 0.528698 -3.41912e-19)
(1.20397 0.554556 -2.21529e-20)
(1.23945 0.562354 3.36433e-19)
(1.25414 0.557078 -4.13834e-19)
(1.25564 0.543352 1.36662e-19)
(1.24973 0.524839 3.57738e-19)
(1.24028 0.504088 8.23491e-20)
(1.22964 0.482671 -1.84398e-19)
(1.21906 0.461452 3.12275e-19)
(1.20917 0.440852 -3.70572e-19)
(1.20025 0.42107 1.41099e-20)
(1.1924 0.402186 -8.9001e-20)
(1.18559 0.384091 1.63132e-19)
(1.17939 0.36709 1.45311e-19)
(1.1728 0.351968 1.36319e-19)
(0.16749 0.0734217 5.04785e-20)
(0.454195 0.206469 1.98944e-19)
(0.695515 0.326647 1.98934e-19)
(0.888832 0.425057 -1.26061e-19)
(1.03357 0.497923 1.14578e-20)
(1.1334 0.545019 3.17898e-19)
(1.19548 0.569173 5.71246e-19)
(1.22872 0.575124 -5.80415e-20)
(1.24197 0.568138 5.60454e-20)
(1.24275 0.552961 -1.72165e-19)
(1.23665 0.533273 -3.68803e-19)
(1.22736 0.511581 6.01563e-20)
(1.21707 0.489397 2.15247e-19)
(1.20694 0.467534 -4.40678e-20)
(1.19753 0.446377 -4.01018e-20)
(1.18908 0.426103 -1.51128e-19)
(1.18171 0.406778 -2.73424e-20)
(1.17538 0.388289 -6.05189e-20)
(1.16966 0.370974 -5.13964e-20)
(1.16352 0.355587 -1.3099e-19)
(0.169485 0.0781363 -1.75729e-19)
(0.457437 0.217899 -4.5637e-19)
(0.697805 0.34204 -6.84421e-19)