/*--------------------------------*- C++ -*----------------------------------*\
  =========                 |
  \\      /  F ield         | OpenFOAM: The Open Source CFD Toolbox
   \\    /   O peration     | Website:  https://openfoam.org
    \\  /    A nd           | Version:  7
     \\/     M anipulation  |
\*---------------------------------------------------------------------------*/
FoamFile
{
    version     2.0;
    format      ascii;
    class       volScalarField;
    location    "60";
    object      p;
}
// * * * * * * * * * * * * * * * * * * * * * * * * * * * * * * * * * * * * * //

dimensions      [0 2 -2 0 0 0 0];

internalField   nonuniform List<scalar> 
34000
(
-0.127956
-0.128974
-0.129595
-0.130127
-0.130594
-0.130997
-0.131353
-0.131674
-0.131969
-0.132244
-0.132504
-0.132753
-0.132992
-0.133223
-0.133447
-0.133667
-0.133885
-0.134104
-0.134326
-0.134554
-0.128101
-0.129116
-0.129735
-0.130266
-0.130733
-0.131136
-0.131492
-0.131814
-0.132111
-0.132388
-0.132652
-0.132904
-0.133148
-0.133385
-0.133617
-0.133845
-0.134072
-0.134302
-0.134536
-0.134776
-0.128289
-0.129298
-0.129914
-0.130443
-0.130907
-0.131308
-0.131664
-0.131985
-0.132282
-0.13256
-0.132826
-0.133081
-0.133328
-0.133569
-0.133806
-0.134041
-0.134275
-0.134514
-0.134759
-0.135008
-0.128521
-0.129521
-0.130131
-0.130656
-0.131116
-0.131514
-0.131867
-0.132187
-0.132482
-0.13276
-0.133026
-0.133282
-0.133531
-0.133775
-0.134015
-0.134254
-0.134495
-0.134742
-0.134995
-0.13525
-0.128795
-0.129783
-0.130387
-0.130905
-0.13136
-0.131754
-0.132102
-0.132419
-0.132711
-0.132987
-0.133251
-0.133507
-0.133756
-0.134
-0.134242
-0.134484
-0.134729
-0.134982
-0.135242
-0.1355
-0.12911
-0.130084
-0.130679
-0.13119
-0.131638
-0.132025
-0.132369
-0.13268
-0.132968
-0.13324
-0.133501
-0.133754
-0.134001
-0.134245
-0.134487
-0.134729
-0.134976
-0.135234
-0.135498
-0.135756
-0.129466
-0.130422
-0.131008
-0.131509
-0.131949
-0.132329
-0.132665
-0.132969
-0.133252
-0.133518
-0.133774
-0.134023
-0.134267
-0.134507
-0.134747
-0.134988
-0.135235
-0.135495
-0.135763
-0.136017
-0.129861
-0.130798
-0.131371
-0.131863
-0.132292
-0.132663
-0.13299
-0.133287
-0.133561
-0.133821
-0.13407
-0.134312
-0.13455
-0.134786
-0.135021
-0.135258
-0.135503
-0.135764
-0.136032
-0.136278
-0.130294
-0.13121
-0.13177
-0.132249
-0.132667
-0.133026
-0.133343
-0.13363
-0.133895
-0.134146
-0.134386
-0.134621
-0.134851
-0.135078
-0.135307
-0.135539
-0.135778
-0.136038
-0.136305
-0.136538
-0.130765
-0.131657
-0.132201
-0.132667
-0.133072
-0.133419
-0.133724
-0.133999
-0.134253
-0.134492
-0.134722
-0.134946
-0.135166
-0.135384
-0.135603
-0.135826
-0.136059
-0.136314
-0.136577
-0.136794
-0.131271
-0.132137
-0.132665
-0.133115
-0.133506
-0.133839
-0.13413
-0.134392
-0.134632
-0.134859
-0.135076
-0.135287
-0.135495
-0.1357
-0.135907
-0.136119
-0.136341
-0.136591
-0.136847
-0.137043
-0.131811
-0.132649
-0.13316
-0.133593
-0.133968
-0.134285
-0.134561
-0.134807
-0.135033
-0.135244
-0.135446
-0.135642
-0.135835
-0.136025
-0.136217
-0.136415
-0.136623
-0.136863
-0.137111
-0.137279
-0.132383
-0.133192
-0.133684
-0.1341
-0.134456
-0.134756
-0.135015
-0.135244
-0.135452
-0.135647
-0.135832
-0.13601
-0.136185
-0.136357
-0.136531
-0.13671
-0.136902
-0.13713
-0.137365
-0.137501
-0.132987
-0.133766
-0.134237
-0.134634
-0.134971
-0.135252
-0.135492
-0.135701
-0.13589
-0.136065
-0.13623
-0.136388
-0.136542
-0.136694
-0.136846
-0.137004
-0.137175
-0.137387
-0.137606
-0.137702
-0.13362
-0.134367
-0.134818
-0.135194
-0.13551
-0.13577
-0.135989
-0.136178
-0.136345
-0.136498
-0.13664
-0.136776
-0.136906
-0.137033
-0.13716
-0.137292
-0.137438
-0.13763
-0.137832
-0.137878
-0.134282
-0.134997
-0.135425
-0.135779
-0.136073
-0.136311
-0.136506
-0.136671
-0.136815
-0.136943
-0.137061
-0.137171
-0.137274
-0.137373
-0.137472
-0.137574
-0.13769
-0.137857
-0.138037
-0.138025
-0.134971
-0.135652
-0.136057
-0.136388
-0.136658
-0.136872
-0.137042
-0.137182
-0.137299
-0.137401
-0.137491
-0.137572
-0.137645
-0.137713
-0.137778
-0.137846
-0.137927
-0.138065
-0.13822
-0.138135
-0.135686
-0.136333
-0.136714
-0.13702
-0.137265
-0.137452
-0.137596
-0.137708
-0.137796
-0.137868
-0.137928
-0.137977
-0.138018
-0.13805
-0.138077
-0.138106
-0.138146
-0.138249
-0.138376
-0.138203
-0.136425
-0.137038
-0.137394
-0.137674
-0.137892
-0.138052
-0.138166
-0.138248
-0.138305
-0.138345
-0.138372
-0.138386
-0.13839
-0.138383
-0.138369
-0.138353
-0.138346
-0.138406
-0.138504
-0.138216
-0.137188
-0.137767
-0.138097
-0.13835
-0.13854
-0.138669
-0.138752
-0.138801
-0.138825
-0.138831
-0.138821
-0.138798
-0.138761
-0.138712
-0.138651
-0.138585
-0.138525
-0.138535
-0.138615
-0.138145
-0.137975
-0.138519
-0.138822
-0.139048
-0.139207
-0.139304
-0.139353
-0.139368
-0.139355
-0.139323
-0.139275
-0.139211
-0.139131
-0.139035
-0.138923
-0.138802
-0.138681
-0.138638
-0.138733
-0.137995
-0.138785
-0.139294
-0.13957
-0.139766
-0.139892
-0.139955
-0.139969
-0.139946
-0.139895
-0.139823
-0.139733
-0.139625
-0.139499
-0.139352
-0.139185
-0.139002
-0.138814
-0.138701
-0.138677
-0.137935
-0.139618
-0.140092
-0.140339
-0.140504
-0.140597
-0.140624
-0.140599
-0.140536
-0.140443
-0.140328
-0.140194
-0.14004
-0.139864
-0.139663
-0.139436
-0.139187
-0.138923
-0.138736
-0.138619
-0.137758
-0.140473
-0.140913
-0.141131
-0.141263
-0.14132
-0.141308
-0.141243
-0.141137
-0.141
-0.14084
-0.140659
-0.140456
-0.140227
-0.139969
-0.139678
-0.139356
-0.139009
-0.13874
-0.138538
-0.13748
-0.141352
-0.141757
-0.141945
-0.142043
-0.142062
-0.142009
-0.1419
-0.141749
-0.141565
-0.141357
-0.141126
-0.140871
-0.140588
-0.14027
-0.139911
-0.139511
-0.139074
-0.13871
-0.138417
-0.137115
-0.142255
-0.142625
-0.142782
-0.142844
-0.142823
-0.142726
-0.142571
-0.142372
-0.142139
-0.141879
-0.141596
-0.141287
-0.140947
-0.140566
-0.140136
-0.139654
-0.139119
-0.138648
-0.138258
-0.136657
-0.143183
-0.143518
-0.143643
-0.143667
-0.143603
-0.143461
-0.143256
-0.143006
-0.14272
-0.142407
-0.142069
-0.141704
-0.141304
-0.140859
-0.140356
-0.139788
-0.139148
-0.138558
-0.138062
-0.136101
-0.144137
-0.144438
-0.144529
-0.144514
-0.144405
-0.144213
-0.143956
-0.143651
-0.14331
-0.14294
-0.142545
-0.142122
-0.141661
-0.141149
-0.140571
-0.139914
-0.139164
-0.138443
-0.137834
-0.135442
-0.14512
-0.145386
-0.145442
-0.145384
-0.145227
-0.144983
-0.144671
-0.144309
-0.143908
-0.14348
-0.143025
-0.142541
-0.142017
-0.141438
-0.140784
-0.140037
-0.139171
-0.138308
-0.137581
-0.134679
-0.146134
-0.146363
-0.146383
-0.146281
-0.146073
-0.145774
-0.145403
-0.144979
-0.144517
-0.144026
-0.143509
-0.142962
-0.142374
-0.141727
-0.140996
-0.140158
-0.139174
-0.138159
-0.137309
-0.133812
-0.147181
-0.147374
-0.147354
-0.147205
-0.146944
-0.146585
-0.146152
-0.145663
-0.145135
-0.144579
-0.143997
-0.143386
-0.142732
-0.142016
-0.141208
-0.14028
-0.139177
-0.138001
-0.137028
-0.132844
-0.148264
-0.148419
-0.148359
-0.14816
-0.147841
-0.14742
-0.14692
-0.146363
-0.145766
-0.14514
-0.14449
-0.143812
-0.143092
-0.142306
-0.141423
-0.140405
-0.139184
-0.13784
-0.136743
-0.131786
-0.149387
-0.149502
-0.149399
-0.149147
-0.148768
-0.14828
-0.147709
-0.147079
-0.146409
-0.145711
-0.14499
-0.144243
-0.143454
-0.142599
-0.141641
-0.140536
-0.139199
-0.137684
-0.136461
-0.130653
-0.150554
-0.150628
-0.150478
-0.15017
-0.149726
-0.149167
-0.148521
-0.147814
-0.147067
-0.146293
-0.145498
-0.144679
-0.14382
-0.142895
-0.141863
-0.140674
-0.139226
-0.137543
-0.136183
-0.129472
-0.151768
-0.151799
-0.1516
-0.151232
-0.150718
-0.150084
-0.149359
-0.148571
-0.147742
-0.146888
-0.146016
-0.145122
-0.144191
-0.143195
-0.142091
-0.140823
-0.139269
-0.137427
-0.135912
-0.128292
-0.153036
-0.15302
-0.152769
-0.152336
-0.151749
-0.151035
-0.150226
-0.149352
-0.148438
-0.147499
-0.146546
-0.145574
-0.144569
-0.143503
-0.142329
-0.140986
-0.139334
-0.137356
-0.135646
-0.127195
-0.154362
-0.154295
-0.153988
-0.153487
-0.152821
-0.152022
-0.151125
-0.150161
-0.149156
-0.14813
-0.147091
-0.146039
-0.144959
-0.143821
-0.142579
-0.141168
-0.139428
-0.137353
-0.135355
-0.126232
-0.155752
-0.15563
-0.155262
-0.154688
-0.153939
-0.153051
-0.15206
-0.151001
-0.149902
-0.148783
-0.147656
-0.14652
-0.145362
-0.144153
-0.142847
-0.141379
-0.139571
-0.13746
-0.134947
-0.125293
-0.157211
-0.15703
-0.156597
-0.155945
-0.155108
-0.154125
-0.153035
-0.151876
-0.150678
-0.149464
-0.148245
-0.147022
-0.145784
-0.144504
-0.14314
-0.141632
-0.139801
-0.137785
-0.134505
-0.124794
-0.158747
-0.1585
-0.157998
-0.157262
-0.156331
-0.155248
-0.154055
-0.152792
-0.151491
-0.150177
-0.148863
-0.147551
-0.146231
-0.14488
-0.143462
-0.141934
-0.140143
-0.138433
-0.134804
-0.128636
-0.160366
-0.160047
-0.159469
-0.158644
-0.157614
-0.156426
-0.155125
-0.153753
-0.152346
-0.150928
-0.149515
-0.148111
-0.146707
-0.145285
-0.143815
-0.142278
-0.140556
-0.139252
-0.136355
-0.143306
-0.162075
-0.161676
-0.161017
-0.160097
-0.158962
-0.157664
-0.15625
-0.154766
-0.153248
-0.151723
-0.150209
-0.148709
-0.147219
-0.145722
-0.144197
-0.142649
-0.14098
-0.140017
-0.137309
-0.146811
-0.16388
-0.163394
-0.162648
-0.161627
-0.160381
-0.158967
-0.157436
-0.155835
-0.154203
-0.152568
-0.150949
-0.149352
-0.147772
-0.146196
-0.14461
-0.143034
-0.141378
-0.140585
-0.13781
-0.147251
-0.165791
-0.165208
-0.164367
-0.163239
-0.161877
-0.160342
-0.158689
-0.156968
-0.155218
-0.15347
-0.151744
-0.150045
-0.148371
-0.14671
-0.145051
-0.143426
-0.141738
-0.140969
-0.138095
-0.146855
-0.167813
-0.167123
-0.166181
-0.164939
-0.163455
-0.161795
-0.160016
-0.158169
-0.156299
-0.154436
-0.152599
-0.150796
-0.149022
-0.147268
-0.145522
-0.143823
-0.142059
-0.141192
-0.138179
-0.145811
-0.169954
-0.169147
-0.168096
-0.166733
-0.165122
-0.163331
-0.161421
-0.159447
-0.157454
-0.155472
-0.153522
-0.151609
-0.149729
-0.147872
-0.146022
-0.144217
-0.142334
-0.141268
-0.138072
-0.144316
-0.172222
-0.171286
-0.170119
-0.168629
-0.166882
-0.164956
-0.162912
-0.160808
-0.158688
-0.156585
-0.154517
-0.15249
-0.150496
-0.148522
-0.146549
-0.144607
-0.142561
-0.141215
-0.137803
-0.142563
-0.174623
-0.173546
-0.172255
-0.17063
-0.168744
-0.166677
-0.164495
-0.162257
-0.160008
-0.15778
-0.155591
-0.153443
-0.151325
-0.149219
-0.147101
-0.144989
-0.142738
-0.141049
-0.137398
-0.14068
-0.177164
-0.175934
-0.17451
-0.172744
-0.170712
-0.168501
-0.166177
-0.163802
-0.16142
-0.159064
-0.156748
-0.154471
-0.152217
-0.149962
-0.147674
-0.145358
-0.142865
-0.140788
-0.136879
-0.138751
-0.179852
-0.178455
-0.176891
-0.174977
-0.172793
-0.170432
-0.167964
-0.165448
-0.162931
-0.160442
-0.157993
-0.155577
-0.153172
-0.150748
-0.148264
-0.145711
-0.142941
-0.140444
-0.136263
-0.136829
-0.182693
-0.181115
-0.179402
-0.177333
-0.174993
-0.172478
-0.169861
-0.167202
-0.164546
-0.161919
-0.159328
-0.156761
-0.154189
-0.151574
-0.148866
-0.146044
-0.142966
-0.140029
-0.135563
-0.134944
-0.185693
-0.18392
-0.18205
-0.179819
-0.177316
-0.174644
-0.171874
-0.169068
-0.166269
-0.163497
-0.160755
-0.158023
-0.155264
-0.152433
-0.149473
-0.146353
-0.142938
-0.13955
-0.134789
-0.133112
-0.188855
-0.186874
-0.184839
-0.18244
-0.179769
-0.176935
-0.17401
-0.171053
-0.168104
-0.16518
-0.162274
-0.15936
-0.156394
-0.15332
-0.150078
-0.14663
-0.142854
-0.139012
-0.133947
-0.131337
-0.192186
-0.189982
-0.187773
-0.1852
-0.182357
-0.179357
-0.176272
-0.173161
-0.170056
-0.166969
-0.163886
-0.160771
-0.157572
-0.154227
-0.150674
-0.146871
-0.142714
-0.138417
-0.133041
-0.129614
-0.195689
-0.193248
-0.190857
-0.188104
-0.185084
-0.181914
-0.178666
-0.175394
-0.172125
-0.168864
-0.165586
-0.162248
-0.158789
-0.155145
-0.15125
-0.147067
-0.142512
-0.137765
-0.132074
-0.127934
-0.199365
-0.196674
-0.194095
-0.191155
-0.187954
-0.184611
-0.181195
-0.177756
-0.174314
-0.170863
-0.167372
-0.163786
-0.160038
-0.156063
-0.151798
-0.147213
-0.142244
-0.137054
-0.131045
-0.126283
-0.203218
-0.200263
-0.197489
-0.194358
-0.190971
-0.187451
-0.183862
-0.180247
-0.17662
-0.172964
-0.169236
-0.165374
-0.161307
-0.15697
-0.152308
-0.1473
-0.141907
-0.13628
-0.129952
-0.124646
-0.207249
-0.204017
-0.20104
-0.197714
-0.194137
-0.190436
-0.186668
-0.18287
-0.179043
-0.175162
-0.171171
-0.167003
-0.162585
-0.157854
-0.152767
-0.147319
-0.141495
-0.13544
-0.128794
-0.123008
-0.211457
-0.207935
-0.204751
-0.201225
-0.197455
-0.193567
-0.189614
-0.18562
-0.181578
-0.177448
-0.173167
-0.16866
-0.163856
-0.158701
-0.153167
-0.147264
-0.141003
-0.134529
-0.127567
-0.121354
-0.21584
-0.212018
-0.208621
-0.204892
-0.200925
-0.196846
-0.192699
-0.188496
-0.184219
-0.179814
-0.175211
-0.170332
-0.165108
-0.1595
-0.153495
-0.147126
-0.140425
-0.133541
-0.126267
-0.119668
-0.220397
-0.216263
-0.212649
-0.208713
-0.204546
-0.200271
-0.195919
-0.191493
-0.186957
-0.182249
-0.17729
-0.172002
-0.166325
-0.160235
-0.153742
-0.146896
-0.139756
-0.132472
-0.124889
-0.117939
-0.225122
-0.220667
-0.216833
-0.212688
-0.208317
-0.203838
-0.199271
-0.194602
-0.189783
-0.18474
-0.179388
-0.173654
-0.167491
-0.160894
-0.153895
-0.146567
-0.13899
-0.131314
-0.123427
-0.116153
-0.230011
-0.225226
-0.221169
-0.216813
-0.212234
-0.207544
-0.202747
-0.197814
-0.192683
-0.187269
-0.181486
-0.17527
-0.16859
-0.161462
-0.153945
-0.146132
-0.13812
-0.130062
-0.121878
-0.1143
-0.235055
-0.229934
-0.225652
-0.221083
-0.216291
-0.21138
-0.206338
-0.201117
-0.195642
-0.189819
-0.183567
-0.176832
-0.169604
-0.161926
-0.153882
-0.145583
-0.137142
-0.128711
-0.120235
-0.11237
-0.240245
-0.234782
-0.230274
-0.22549
-0.220481
-0.215339
-0.210032
-0.204496
-0.198641
-0.192372
-0.18561
-0.17832
-0.170519
-0.162274
-0.153695
-0.144912
-0.136049
-0.127254
-0.118493
-0.110353
-0.24557
-0.239761
-0.235027
-0.230027
-0.224795
-0.219408
-0.213816
-0.207934
-0.201662
-0.194904
-0.187593
-0.179716
-0.171316
-0.162492
-0.153375
-0.144111
-0.134834
-0.125686
-0.116645
-0.108241
-0.251016
-0.244858
-0.239899
-0.234682
-0.229219
-0.223574
-0.217671
-0.21141
-0.204682
-0.197394
-0.189495
-0.180999
-0.171981
-0.162568
-0.152913
-0.143174
-0.133491
-0.123999
-0.114687
-0.106027
-0.256567
-0.25006
-0.244878
-0.239442
-0.233741
-0.22782
-0.221579
-0.214903
-0.207677
-0.199816
-0.191292
-0.18215
-0.172497
-0.162489
-0.152298
-0.142093
-0.132015
-0.122188
-0.112612
-0.103703
-0.262206
-0.255351
-0.249947
-0.24429
-0.238342
-0.232126
-0.225518
-0.218388
-0.210621
-0.202145
-0.192962
-0.183149
-0.172849
-0.162244
-0.151523
-0.140861
-0.130397
-0.120247
-0.110413
-0.101263
-0.267911
-0.260712
-0.25509
-0.24921
-0.243004
-0.23647
-0.229462
-0.221838
-0.213486
-0.204357
-0.194482
-0.183979
-0.173023
-0.161821
-0.150578
-0.139469
-0.128632
-0.118168
-0.108086
-0.0986999
-0.273661
-0.266123
-0.260286
-0.25418
-0.247703
-0.240827
-0.233385
-0.225225
-0.216245
-0.206423
-0.195829
-0.184619
-0.173003
-0.16121
-0.149454
-0.137911
-0.126711
-0.115945
-0.105623
-0.096008
-0.27943
-0.27156
-0.265512
-0.259177
-0.252414
-0.245171
-0.237256
-0.228517
-0.218868
-0.208318
-0.196981
-0.185052
-0.172776
-0.160399
-0.148142
-0.136178
-0.124629
-0.113571
-0.103018
-0.0931811
-0.285191
-0.276998
-0.270743
-0.264175
-0.25711
-0.24947
-0.241045
-0.231684
-0.221324
-0.210014
-0.197914
-0.185261
-0.172327
-0.159377
-0.146633
-0.134262
-0.122378
-0.11104
-0.100264
-0.0902131
-0.290915
-0.282409
-0.275952
-0.269145
-0.26176
-0.253693
-0.244718
-0.234692
-0.223583
-0.211487
-0.198609
-0.185228
-0.171645
-0.158134
-0.144918
-0.132156
-0.119949
-0.108344
-0.0973566
-0.0870981
-0.296568
-0.287764
-0.281109
-0.274057
-0.266333
-0.257805
-0.248239
-0.237508
-0.225616
-0.212709
-0.199044
-0.184938
-0.170716
-0.15666
-0.142989
-0.129852
-0.117337
-0.105477
-0.0942878
-0.0838306
-0.302118
-0.293029
-0.286182
-0.278877
-0.270792
-0.261771
-0.251574
-0.240097
-0.227392
-0.213656
-0.199198
-0.184374
-0.169527
-0.154944
-0.140836
-0.127341
-0.114533
-0.102431
-0.0910516
-0.0804048
-0.307528
-0.298172
-0.291136
-0.28357
-0.275101
-0.265552
-0.254686
-0.242427
-0.228881
-0.214303
-0.199054
-0.183522
-0.168067
-0.152976
-0.138451
-0.124615
-0.11153
-0.0992006
-0.0876418
-0.0768154
-0.31276
-0.303155
-0.295935
-0.288098
-0.279222
-0.269111
-0.257536
-0.244463
-0.230054
-0.214627
-0.198591
-0.182367
-0.166324
-0.150746
-0.135825
-0.121667
-0.10832
-0.095778
-0.0840525
-0.0730571
-0.317776
-0.30794
-0.30054
-0.292423
-0.283114
-0.272406
-0.260087
-0.246171
-0.230883
-0.214605
-0.197793
-0.180895
-0.164286
-0.148245
-0.132948
-0.118488
-0.104897
-0.0921572
-0.0802777
-0.0691248
-0.322535
-0.312489
-0.304913
-0.296503
-0.286737
-0.275399
-0.262303
-0.247519
-0.231342
-0.214216
-0.196644
-0.179093
-0.161944
-0.145463
-0.129814
-0.115071
-0.101253
-0.0883316
-0.0763116
-0.0650136
-0.326995
-0.316762
-0.309013
-0.300298
-0.290049
-0.278049
-0.264147
-0.248476
-0.231404
-0.21344
-0.195126
-0.176948
-0.159285
-0.142391
-0.126412
-0.111408
-0.0973812
-0.0842953
-0.0721488
-0.0607189
-0.331112
-0.320715
-0.312796
-0.303765
-0.293008
-0.280316
-0.265581
-0.24901
-0.231045
-0.212257
-0.193225
-0.174448
-0.1563
-0.13902
-0.122736
-0.107492
-0.0932756
-0.0800423
-0.0677842
-0.0562365
-0.334844
-0.324307
-0.316221
-0.306859
-0.295571
-0.282159
-0.266573
-0.249093
-0.230242
-0.21065
-0.190927
-0.171582
-0.15298
-0.135342
-0.118778
-0.103316
-0.0889297
-0.0755673
-0.0632128
-0.0515622
-0.338147
-0.327494
-0.319245
-0.309539
-0.297696
-0.283542
-0.267087
-0.248697
-0.228973
-0.208601
-0.188219
-0.16834
-0.149315
-0.131348
-0.11453
-0.0988732
-0.0843377
-0.070865
-0.0584303
-0.0466924
-0.340979
-0.330235
-0.321823
-0.311762
-0.299343
-0.284426
-0.267092
-0.247797
-0.227219
-0.206096
-0.18509
-0.164711
-0.145296
-0.127031
-0.109986
-0.0941578
-0.0794941
-0.0659307
-0.0534324
-0.0416237
-0.343295
-0.332487
-0.323914
-0.313485
-0.300472
-0.284776
-0.266559
-0.246368
-0.22496
-0.203119
-0.181527
-0.160686
-0.140917
-0.122384
-0.10514
-0.089164
-0.074394
-0.0607602
-0.0482156
-0.0363533
-0.345054
-0.334206
-0.325475
-0.314667
-0.301043
-0.284557
-0.265458
-0.244388
-0.22218
-0.19966
-0.17752
-0.156257
-0.136169
-0.117401
-0.0999843
-0.0838866
-0.0690328
-0.0553495
-0.0427764
-0.0308788
-0.346215
-0.335353
-0.326465
-0.315267
-0.30102
-0.283737
-0.263764
-0.241838
-0.218864
-0.195705
-0.173062
-0.151416
-0.131046
-0.112074
-0.0945153
-0.0783211
-0.0634066
-0.0496952
-0.0371122
-0.0251978
-0.346736
-0.335887
-0.326844
-0.315248
-0.300368
-0.282288
-0.261453
-0.2387
-0.214998
-0.191246
-0.168143
-0.146156
-0.125543
-0.106401
-0.0887279
-0.0724634
-0.0575119
-0.0437944
-0.0312205
-0.0193085
-0.346581
-0.335769
-0.326573
-0.314572
-0.299054
-0.28018
-0.258504
-0.234957
-0.210572
-0.186273
-0.162757
-0.140473
-0.119653
-0.100375
-0.0826184
-0.0663102
-0.051346
-0.0376447
-0.0250993
-0.0132094
-0.345712
-0.334962
-0.325616
-0.313206
-0.297048
-0.277391
-0.254898
-0.230595
-0.205574
-0.180779
-0.156899
-0.134361
-0.113374
-0.0939933
-0.0761835
-0.0598588
-0.0449066
-0.0312443
-0.0187476
-0.0069012
-0.344095
-0.333433
-0.323939
-0.311117
-0.294321
-0.273896
-0.250618
-0.225604
-0.199998
-0.174758
-0.150563
-0.127816
-0.106701
-0.0872533
-0.0694209
-0.0531073
-0.0381918
-0.0245915
-0.012166
-0.000388232
-0.341699
-0.331148
-0.321511
-0.308277
-0.29085
-0.269678
-0.245651
-0.219973
-0.193836
-0.168206
-0.143746
-0.120836
-0.0996329
-0.080153
-0.0623291
-0.0460542
-0.0312004
-0.0176852
-0.00535494
0.00633036
-0.338494
-0.328077
-0.318302
-0.304658
-0.286613
-0.26472
-0.239985
-0.213696
-0.187085
-0.16112
-0.136447
-0.113418
-0.0921681
-0.0726914
-0.0549075
-0.0386993
-0.0239318
-0.0105251
0.00168974
0.0132816
-0.334453
-0.324195
-0.314285
-0.300238
-0.281591
-0.259009
-0.233612
-0.206768
-0.17974
-0.153498
-0.128664
-0.105564
-0.0843065
-0.0648686
-0.0471563
-0.0310431
-0.0163877
-0.00311333
0.00897784
0.0205196
-0.329554
-0.319476
-0.309439
-0.294998
-0.275768
-0.252533
-0.226526
-0.199185
-0.171803
-0.145341
-0.120398
-0.0972724
-0.0760487
-0.0566855
-0.0390769
-0.0230874
-0.00857103
0.00454624
0.016508
0.0280302
-0.323776
-0.3139
-0.303744
-0.288919
-0.269132
-0.245286
-0.218722
-0.190946
-0.163272
-0.136649
-0.111651
-0.0885461
-0.0673967
-0.0481443
-0.0306714
-0.0148347
-0.000484564
0.0124527
0.0242589
0.0355818
-0.317103
-0.307449
-0.297183
-0.28199
-0.261676
-0.237263
-0.210201
-0.182054
-0.154151
-0.127427
-0.102425
-0.0793878
-0.0583536
-0.0392478
-0.021943
-0.00628823
0.00786869
0.0206008
0.032231
0.0433216
-0.309521
-0.30011
-0.289743
-0.274201
-0.253392
-0.228463
-0.200963
-0.172512
-0.144445
-0.117677
-0.0927257
-0.0698019
-0.0489232
-0.0300001
-0.0128955
0.00254797
0.0164848
0.028988
0.0404139
0.0512677
-0.301021
-0.291871
-0.281416
-0.265544
-0.244279
-0.218886
-0.191013
-0.162324
-0.134158
-0.107408
-0.0825579
-0.0597936
-0.0391108
-0.0204062
-0.00353404
0.0116692
0.0253595
0.0376091
0.0488073
0.0594162
-0.291596
-0.282727
-0.272195
-0.256019
-0.234338
-0.208538
-0.180358
-0.1515
-0.1233
-0.0966246
-0.0719289
-0.0493694
-0.0289226
-0.0104725
0.00613571
0.02107
0.0344873
0.0464592
0.0574085
0.0677595
-0.281244
-0.272673
-0.262079
-0.245625
-0.223573
-0.197426
-0.169006
-0.140047
-0.111878
-0.0853373
-0.0608469
-0.0385373
-0.0183667
-0.000205453
0.0161069
0.0307437
0.0438622
0.0555326
0.0662132
0.0762902
-0.269966
-0.26171
-0.25107
-0.234367
-0.211991
-0.185558
-0.156967
-0.127978
-0.0999048
-0.0735559
-0.0493216
-0.0273066
-0.00745053
0.0103865
0.0263718
0.0406829
0.0534769
0.0648227
0.0752153
0.0850011
-0.257766
-0.249842
-0.239172
-0.222253
-0.199603
-0.172948
-0.144257
-0.115306
-0.0873925
-0.0612924
-0.0373641
-0.0156871
0.0038158
0.0212943
0.0369218
0.0508794
0.0633236
0.0743221
0.0844079
0.0938848
-0.244654
-0.237076
-0.226394
-0.209294
-0.186423
-0.159611
-0.130889
-0.102046
-0.0743552
-0.0485599
-0.0249863
-0.00369008
0.0154217
0.0325079
0.0477471
0.0613238
0.0733933
0.0840226
0.0937831
0.102933
-0.23064
-0.223424
-0.21275
-0.195505
-0.172466
-0.145564
-0.116883
-0.0882147
-0.0608087
-0.0353728
-0.0122017
0.00867192
0.0273555
0.0440162
0.0588372
0.0720062
0.0836766
0.0939149
0.103332
0.112139
-0.21574
-0.2089
-0.198254
-0.180902
-0.157752
-0.130827
-0.102256
-0.0738308
-0.04677
-0.0217469
0.00097522
0.0213854
0.0396045
0.0558073
0.0701808
0.0829155
0.0941626
0.103989
0.113044
0.121491
-0.199973
-0.193522
-0.182925
-0.165506
-0.142303
-0.115422
-0.0870321
-0.0589137
-0.0322582
-0.00769945
0.0145287
0.0344358
0.0521552
0.0678682
0.0817657
0.0940401
0.10484
0.114234
0.12291
0.130979
-0.183361
-0.177311
-0.166786
-0.149342
-0.126143
-0.0993741
-0.0712313
-0.0434866
-0.017293
0.00675136
0.0284418
0.0478075
0.064993
0.0801854
0.0935787
0.105367
0.115697
0.124637
0.132917
0.140591
-0.165929
-0.160292
-0.149861
-0.132434
-0.1093
-0.0827086
-0.0548798
-0.0275718
-0.0018957
0.021586
0.0426967
0.061484
0.0781025
0.0927444
0.105606
0.116884
0.12672
0.135186
0.143051
0.150312
-0.147705
-0.142491
-0.132178
-0.114814
-0.0918033
-0.0654499
-0.0380068
-0.0111942
0.0139111
0.0367837
0.0572746
0.0754479
0.0914676
0.10553
0.117834
0.128576
0.137895
0.145868
0.153299
0.160127
-0.128719
-0.12394
-0.11377
-0.0965123
-0.0736758
-0.0476355
-0.0206383
0.00562028
0.0301036
0.052323
0.0721554
0.0896809
0.105071
0.118527
0.130248
0.14043
0.149208
0.156669
0.163646
0.170013
-0.109005
-0.104672
-0.0946695
-0.0775648
-0.0549531
-0.0292933
-0.00280422
0.0228443
0.0466568
0.0681809
0.0873184
0.104164
0.118896
0.131718
0.142831
0.152431
0.160646
0.167573
0.174072
0.179944
-0.0885989
-0.0847231
-0.0749116
-0.0579906
-0.0356859
-0.0104573
0.0154645
0.0404494
0.0635449
0.0843339
0.102742
0.118877
0.132924
0.145088
0.155571
0.164564
0.172193
0.178566
0.184559
0.189881
-0.0675369
-0.0641305
-0.0545315
-0.0378462
-0.015898
0.00883775
0.0341353
0.0584059
0.0807407
0.100757
0.118404
0.1338
0.147136
0.158619
0.168449
0.176816
0.183836
0.189637
0.195089
0.199791
-0.0458558
-0.0429381
-0.0335722
-0.0171696
0.00437136
0.0285558
0.0531749
0.0766833
0.0982164
0.117425
0.13428
0.148911
0.161513
0.172294
0.181453
0.189172
0.195562
0.200774
0.205655
0.209651
-0.023592
-0.0212004
-0.0120772
0.00400078
0.0250816
0.0486593
0.0725487
0.09525
0.115943
0.134312
0.150347
0.164188
0.176035
0.186095
0.194565
0.201618
0.207358
0.211976
0.216252
0.219366
-0.000809344
0.00105263
0.00990601
0.0256214
0.0461916
0.06911
0.0922212
0.114073
0.133891
0.15139
0.166579
0.179609
0.190682
0.200004
0.207771
0.214142
0.219221
0.223256
0.226837
0.228665
0.0224098
0.0238044
0.0323355
0.0476476
0.0676589
0.0898682
0.112156
0.13312
0.15203
0.168631
0.182952
0.195151
0.205431
0.214002
0.221054
0.226733
0.231162
0.234644
0.237346
0.237274
0.0460571
0.0469793
0.0551637
0.070034
0.0894401
0.110894
0.132316
0.152356
0.170328
0.186007
0.199439
0.210788
0.220262
0.228069
0.234396
0.239382
0.243189
0.246144
0.247783
0.245739
0.0700869
0.0705225
0.0783421
0.0927337
0.111491
0.132145
0.152663
0.171748
0.188754
0.203489
0.216012
0.226496
0.235151
0.242183
0.247777
0.252074
0.255279
0.257664
0.258115
0.256534
0.0944461
0.0943865
0.101822
0.1157
0.133766
0.153581
0.17316
0.191258
0.207276
0.221047
0.232645
0.242251
0.250074
0.256322
0.261176
0.264783
0.267374
0.269142
0.268888
0.267885
0.11908
0.11852
0.125553
0.138883
0.15622
0.175159
0.193766
0.210853
0.225861
0.238651
0.24931
0.258025
0.265006
0.270462
0.274571
0.277485
0.279443
0.280579
0.279768
0.278805
0.143935
0.142871
0.149483
0.162234
0.178807
0.196836
0.214443
0.230495
0.244475
0.25627
0.265978
0.273792
0.279924
0.28458
0.287939
0.290156
0.291468
0.291976
0.290658
0.289495
0.168956
0.167387
0.173561
0.185704
0.201481
0.218569
0.235151
0.250149
0.263086
0.273873
0.282621
0.289527
0.294803
0.298653
0.301257
0.302771
0.30343
0.303312
0.301486
0.300002
0.194088
0.192013
0.197734
0.209242
0.224193
0.240315
0.255851
0.269778
0.28166
0.29143
0.299211
0.305202
0.309617
0.312658
0.314503
0.31531
0.315308
0.314563
0.312217
0.310337
0.219277
0.216696
0.221948
0.232798
0.246898
0.262031
0.276502
0.289345
0.300163
0.308909
0.315718
0.320791
0.324341
0.326571
0.327655
0.327751
0.327084
0.32571
0.322829
0.320507
0.244467
0.241382
0.246152
0.256322
0.269548
0.283672
0.297065
0.308815
0.318562
0.32628
0.332114
0.336267
0.338951
0.340368
0.34069
0.340075
0.33874
0.336733
0.333309
0.330516
0.269602
0.266015
0.270293
0.279764
0.292096
0.305197
0.3175
0.32815
0.336822
0.343512
0.34837
0.351603
0.353423
0.354028
0.353588
0.35226
0.350256
0.347616
0.343641
0.340358
0.294627
0.290542
0.294316
0.303074
0.314497
0.326561
0.337767
0.347314
0.354912
0.360574
0.364459
0.366774
0.367732
0.367527
0.366328
0.364289
0.361617
0.358343
0.353816
0.350029
0.319486
0.314907
0.318171
0.326201
0.336703
0.347723
0.357829
0.366272
0.372797
0.377435
0.380351
0.381754
0.381854
0.380844
0.378889
0.376143
0.372805
0.3689
0.363821
0.359521
0.344126
0.339058
0.341805
0.349097
0.358669
0.368639
0.377644
0.384988
0.390446
0.394065
0.396019
0.396516
0.395765
0.393956
0.391252
0.387803
0.383803
0.379271
0.373643
0.368825
0.368491
0.362941
0.365165
0.371712
0.380349
0.389269
0.397177
0.403426
0.407824
0.410435
0.411435
0.411036
0.409442
0.406841
0.403395
0.399251
0.394596
0.389444
0.383272
0.377933
0.392527
0.386503
0.388202
0.393999
0.401699
0.409572
0.416387
0.421552
0.424902
0.426515
0.426573
0.425287
0.422861
0.41948
0.415301
0.41047
0.405167
0.399402
0.392694
0.386834
0.416182
0.409691
0.410865
0.415911
0.422675
0.429505
0.435239
0.439331
0.441646
0.442275
0.441405
0.439247
0.436001
0.43185
0.42695
0.421442
0.415501
0.409133
0.401898
0.395519
0.439404
0.432455
0.433105
0.4374
0.443234
0.449031
0.453696
0.456731
0.458027
0.457689
0.455906
0.45289
0.448839
0.443932
0.438323
0.43215
0.425582
0.418623
0.410871
0.403975
0.462141
0.454744
0.454872
0.458421
0.463333
0.46811
0.471723
0.473718
0.474014
0.472727
0.47005
0.466192
0.461352
0.455705
0.449402
0.442578
0.435395
0.427858
0.4196
0.412194
0.484344
0.476509
0.476121
0.478931
0.482931
0.486704
0.489284
0.49026
0.489578
0.487362
0.483811
0.479132
0.473521
0.46715
0.460168
0.452709
0.444925
0.436824
0.428074
0.420163
0.505963
0.497703
0.496805
0.498885
0.501989
0.504777
0.506345
0.506326
0.504689
0.501569
0.497165
0.491685
0.485323
0.478248
0.470606
0.462526
0.454159
0.445508
0.436279
0.427874
0.526951
0.518278
0.516879
0.518242
0.520467
0.522292
0.522874
0.521887
0.519321
0.51532
0.510088
0.503831
0.496739
0.48898
0.480696
0.472015
0.46308
0.453898
0.444204
0.435314
0.547262
0.53819
0.5363
0.53696
0.538327
0.539215
0.538838
0.536911
0.533445
0.528592
0.522558
0.515548
0.50775
0.499329
0.490424
0.481161
0.471676
0.46198
0.451838
0.442474
0.566851
0.557394
0.555025
0.555001
0.555534
0.555512
0.554207
0.551372
0.547036
0.541361
0.534553
0.526816
0.518336
0.509276
0.499772
0.489948
0.479934
0.469741
0.459168
0.449344
0.585676
0.575849
0.573016
0.572327
0.572052
0.571151
0.568952
0.565241
0.560068
0.553602
0.546049
0.537614
0.52848
0.518805
0.508726
0.498362
0.487839
0.477171
0.466184
0.455915
0.603696
0.593515
0.590232
0.588902
0.587848
0.586102
0.583043
0.578494
0.572518
0.565294
0.557028
0.547924
0.538162
0.5279
0.51727
0.50639
0.49538
0.484258
0.472874
0.462176
0.620871
0.610352
0.606637
0.60469
0.602889
0.600334
0.596454
0.591103
0.584363
0.576415
0.56747
0.557728
0.547368
0.536546
0.52539
0.514018
0.502544
0.490989
0.47923
0.468119
0.637164
0.626324
0.622196
0.61966
0.617146
0.61382
0.609159
0.603046
0.595579
0.586945
0.577355
0.567008
0.556081
0.544727
0.533074
0.521235
0.50932
0.497356
0.485239
0.473736
0.652538
0.641397
0.636876
0.633779
0.630589
0.626532
0.621133
0.614301
0.606147
0.596865
0.586666
0.575748
0.564286
0.55243
0.540307
0.528027
0.515698
0.503347
0.490894
0.479018
0.666962
0.655537
0.650645
0.647018
0.643191
0.638447
0.632353
0.624845
0.616047
0.606157
0.595387
0.583933
0.571968
0.559642
0.547078
0.534385
0.521666
0.508953
0.496185
0.483957
0.680403
0.668714
0.663474
0.659351
0.654927
0.649541
0.642798
0.63466
0.625261
0.614804
0.6035
0.591547
0.579114
0.566349
0.553375
0.540297
0.527215
0.514165
0.501105
0.488546
0.692833
0.680899
0.675335
0.670751
0.665772
0.659791
0.652448
0.643726
0.63377
0.622789
0.610993
0.598578
0.585712
0.572542
0.559188
0.545754
0.532336
0.518975
0.505644
0.492779
0.704224
0.692066
0.686204
0.681195
0.675707
0.669178
0.661284
0.652026
0.641561
0.630099
0.617851