/*--------------------------------*- C++ -*----------------------------------*\
  =========                 |
  \\      /  F ield         | OpenFOAM: The Open Source CFD Toolbox
   \\    /   O peration     | Website:  https://openfoam.org
    \\  /    A nd           | Version:  7
     \\/     M anipulation  |
\*---------------------------------------------------------------------------*/
FoamFile
{
    version     2.0;
    format      ascii;
    class       volVectorField;
    location    "60";
    object      U;
}
// * * * * * * * * * * * * * * * * * * * * * * * * * * * * * * * * * * * * * //

dimensions      [0 1 -1 0 0 0 0];

internalField   nonuniform List<vector> 
34000
(
(-0.000244405 0.000842679 -4.36541e-22)
(-0.00162423 0.00210702 -2.35702e-21)
(-0.00447581 0.00303026 2.88708e-22)
(-0.00828601 0.00366114 -5.0415e-22)
(-0.0128615 0.00404389 7.73563e-22)
(-0.0180237 0.00422054 -5.7097e-21)
(-0.0236045 0.00423004 9.83105e-22)
(-0.0294616 0.00410727 -3.8836e-21)
(-0.0354746 0.00388255 -8.36902e-21)
(-0.0415448 0.00358115 7.17185e-21)
(-0.047594 0.00322315 2.13771e-21)
(-0.0535642 0.00282356 -2.57183e-21)
(-0.0594163 0.00239257 3.16546e-21)
(-0.0651291 0.00193607 4.34113e-21)
(-0.0706977 0.00145613 -2.74786e-21)
(-0.0761322 0.000951537 -3.72122e-21)
(-0.081455 0.000418199 -8.94479e-21)
(-0.0866993 -0.000150549 -6.94674e-22)
(-0.0919021 -0.000763785 -1.52695e-21)
(-0.0970994 -0.00143341 -2.98426e-21)
(-0.000274296 0.00132225 -2.13725e-21)
(-0.00169811 0.00336947 1.78981e-21)
(-0.00457903 0.00492426 -2.1176e-21)
(-0.00840727 0.00605589 -4.76748e-21)
(-0.0129914 0.00682287 3.90873e-21)
(-0.0181547 0.00728126 2.38096e-20)
(-0.0237304 0.00748381 -1.47051e-20)
(-0.0295773 0.00747874 2.50172e-21)
(-0.0355762 0.00730918 1.20601e-20)
(-0.041629 0.00701276 -1.31218e-24)
(-0.0476584 0.00662137 7.19893e-21)
(-0.0536066 0.00616121 -9.56199e-21)
(-0.0594351 0.00565303 1.00439e-20)
(-0.065123 0.00511247 -8.66174e-21)
(-0.0706659 0.00455043 -3.38006e-21)
(-0.0760742 0.00397337 1.70473e-20)
(-0.0813712 0.00338348 -5.37302e-21)
(-0.0865907 0.00277866 8.31945e-22)
(-0.0917705 0.00215163 -1.01219e-20)
(-0.0969458 0.00149283 -1.08739e-21)
(-0.000322268 0.00179847 -1.65696e-20)
(-0.0018172 0.00462374 2.15467e-21)
(-0.00474516 0.00680677 3.32799e-21)
(-0.00860174 0.00843698 1.4652e-20)
(-0.0131983 0.00958686 -1.71051e-20)
(-0.0183606 0.0103263 -2.67181e-20)
(-0.0239239 0.0107217 2.43981e-20)
(-0.0297489 0.0108344 -6.69728e-21)
(-0.0357177 0.0107204 -3.36636e-21)
(-0.0417333 0.0104293 -1.71086e-20)
(-0.0477192 0.010005 4.69672e-21)
(-0.0536186 0.00948485 1.68579e-20)
(-0.0593932 0.00890006 -3.45295e-21)
(-0.0650228 0.00827614 1.39125e-20)
(-0.0705035 0.00763291 -1.15217e-20)
(-0.0758466 0.00698463 -3.48997e-21)
(-0.0810759 0.00633991 2.75006e-20)
(-0.0862269 0.00570133 -1.71334e-21)
(-0.0913379 0.00506352 4.33067e-20)
(-0.0964404 0.00441953 -1.02221e-20)
(-0.000388067 0.0022694 2.71206e-20)
(-0.0019809 0.0058649 -1.21947e-20)
(-0.00497339 0.00867062 -8.51547e-21)
(-0.00886848 0.0107956 -6.4899e-21)
(-0.0134812 0.0123258 1.20339e-20)
(-0.0186403 0.0133448 -2.2838e-21)
(-0.0241841 0.0139322 -4.083e-20)
(-0.0299753 0.0141623 -4.3422e-21)
(-0.0358979 0.0141036 -9.02219e-21)
(-0.0418563 0.0138181 -1.45484e-21)
(-0.0477752 0.0133611 -1.58484e-20)
(-0.0535986 0.0127811 1.80058e-20)
(-0.059289 0.0121199 -2.67203e-20)
(-0.0648267 0.011413 -8.1894e-22)
(-0.0702086 0.0106892 7.32625e-21)
(-0.0754467 0.00997071 -5.6984e-20)
(-0.080566 0.0092728 -4.60436e-20)
(-0.0856042 0.00860292 2.50165e-20)
(-0.0906 0.00795776 -3.35592e-20)
(-0.0955783 0.00733342 8.09248e-22)
(-0.000471323 0.00273315 -3.63698e-21)
(-0.00218834 0.00708818 4.82354e-20)
(-0.00526257 0.0105089 2.27066e-20)
(-0.00920617 0.0131231 -1.48227e-21)
(-0.0138386 0.01503 6.12427e-21)
(-0.0189926 0.016326 9.18868e-22)
(-0.0245096 0.0171039 2.09197e-20)
(-0.0302551 0.0174505 2.48429e-20)
(-0.0361154 0.0174468 1.05848e-20)
(-0.0419967 0.0171665 3.75192e-20)
(-0.0478249 0.0166765 -4.33449e-20)
(-0.0535451 0.0160365 -9.15498e-21)
(-0.0591206 0.0152989 1.93339e-20)
(-0.0645325 0.014509 -3.37721e-20)
(-0.0697785 0.0137048 1.54502e-20)
(-0.0748717 0.0129169 3.58441e-20)
(-0.0798383 0.0121674 8.58605e-21)
(-0.0847186 0.0114687 1.24306e-20)
(-0.0895521 0.0108201 -1.98891e-20)
(-0.0943543 0.0102211 2.15687e-21)
(-0.000571559 0.00318788 -1.77781e-20)
(-0.0024384 0.0082889 1.14333e-20)
(-0.00561122 0.0123148 -1.85533e-20)
(-0.00961315 0.0154112 5.43022e-21)
(-0.0142689 0.0176897 1.51943e-20)
(-0.0194155 0.0192593 6.9293e-21)
(-0.0248985 0.0202254 1.31723e-20)
(-0.0305866 0.0206872 -9.24438e-21)
(-0.0363685 0.0207375 -5.73393e-20)
(-0.0421527 0.0204618 -5.14588e-20)
(-0.0478665 0.0199385 -3.35384e-20)
(-0.0534563 0.019238 1.27175e-20)
(-0.0588862 0.0184233 -7.27392e-21)
(-0.0641381 0.01755 5.55955e-20)
(-0.0692107 0.0166654 -2.00538e-20)
(-0.0741183 0.0158084 1.64207e-20)
(-0.0788887 0.0150086 2.38986e-20)
(-0.0835656 0.014284 -1.34466e-20)
(-0.088189 0.0136361 1.17896e-19)
(-0.0927621 0.0130693 -4.38786e-20)
(-0.000688193 0.00363184 2.15835e-20)
(-0.00272973 0.0094626 -2.72947e-20)
(-0.00601755 0.0140818 -4.19943e-20)
(-0.0100874 0.0176516 -1.1089e-20)
(-0.0147699 0.0202955 4.90631e-21)
(-0.019907 0.0221344 7.5944e-21)
(-0.0253489 0.0232859 2.54799e-20)
(-0.0309677 0.0238609 5.67585e-21)
(-0.0366553 0.0239638 1.85497e-21)
(-0.0423224 0.0236918 9.24328e-20)
(-0.0478981 0.0231341 6.9644e-20)
(-0.0533299 0.0223722 -4.18757e-20)
(-0.0585833 0.0214797 -6.1806e-21)
(-0.0636408 0.020522 -1.67212e-20)
(-0.0685022 0.0195563 1.65763e-20)
(-0.0731829 0.0186304 -8.79651e-20)
(-0.0777129 0.0177816 -1.84729e-20)
(-0.0821398 0.0170337 -2.7695e-20)
(-0.0865046 0.0163914 -6.71095e-20)
(-0.0907948 0.0158646 3.62607e-20)
(-0.000820553 0.00406339 3.61765e-21)
(-0.00306074 0.010605 -1.33541e-20)
(-0.00647949 0.0158035 3.79323e-20)
(-0.0106267 0.0198364 -2.34223e-20)
(-0.0153392 0.0228382 -1.31513e-20)
(-0.0204648 0.0249413 2.10541e-20)
(-0.0258583 0.0262744 -3.56536e-20)
(-0.0313962 0.0269601 -4.86013e-21)
(-0.0369735 0.0271139 6.80196e-20)
(-0.0425035 0.0268441 -4.36181e-20)
(-0.0479173 0.0262509 -1.7995e-20)
(-0.0531638 0.0254263 2.12698e-20)
(-0.0582093 0.0244544 -5.61976e-21)
(-0.0630376 0.023411 -2.92316e-21)
(-0.0676492 0.0223632 2.42462e-20)
(-0.0720613 0.021368 -6.46981e-20)
(-0.0763057 0.0204712 2.25285e-20)
(-0.080435 0.0197027 -1.72061e-20)
(-0.0844914 0.0190712 -3.87338e-20)
(-0.088444 0.0185936 1.38048e-20)
(-0.00096788 0.00448096 -1.01321e-20)
(-0.00342965 0.0117121 7.34632e-20)
(-0.00699468 0.017474 -1.6339e-20)
(-0.0112282 0.0219582 1.00631e-20)
(-0.015974 0.0253093 7.31259e-20)
(-0.0210858 0.0276702 -4.96529e-20)
(-0.026424 0.0291806 -2.45362e-20)
(-0.0318693 0.0299739 -4.28147e-20)
(-0.0373204 0.0301764 -4.7013e-20)
(-0.0426933 0.029907 -3.11533e-20)
(-0.0479213 0.0292764 -4.22799e-20)
(-0.0529548 0.0283874 7.70739e-20)
(-0.0577612 0.0273343 -8.52438e-21)
(-0.0623249 0.0262033 -1.81207e-20)
(-0.0666479 0.0250716 -9.49054e-20)
(-0.0707485 0.0240063 5.33231e-20)
(-0.0746611 0.023062 1.3211e-20)
(-0.078444 0.0222758 3.35298e-20)
(-0.0821412 0.021661 2.28141e-20)
(-0.0856998 0.021243 -6.06838e-20)
(-0.00112934 0.00488317 -3.16023e-20)
(-0.00383449 0.0127802 4.30149e-20)
(-0.00756051 0.0190877 2.4316e-20)
(-0.011889 0.0240097 1.10987e-20)
(-0.0166711 0.0277002 9.39717e-21)
(-0.0217671 0.0303118 -3.34061e-20)
(-0.0270428 0.0319944 7.25105e-20)
(-0.0323839 0.0328915 4.06404e-21)
(-0.0376929 0.0331399 6.76681e-20)
(-0.0428888 0.0328687 -3.96547e-20)
(-0.0479071 0.0321988 6.39532e-20)
(-0.0526998 0.0312432 -6.36156e-20)
(-0.0572352 0.0301064 -5.74514e-20)
(-0.0614987 0.0288852 4.92522e-20)
(-0.0654931 0.0276674 1.75285e-19)
(-0.0692385 0.0265304 -9.71587e-20)
(-0.072772 0.0255387 8.01147e-20)
(-0.0761581 0.0247377 1.85789e-20)
(-0.0794437 0.0241458 -6.98853e-20)
(-0.0825505 0.0237996 5.81799e-20)
(-0.00130404 0.00526872 5.75189e-20)
(-0.00427312 0.0138059 -3.29444e-20)
(-0.00817413 0.0206394 1.13685e-20)
(-0.0126059 0.0259845 4.26878e-20)
(-0.0174272 0.0300032 -3.94368e-20)
(-0.0225049 0.0328573 7.7819e-20)
(-0.0277111 0.0347061 -1.41657e-20)
(-0.0329363 0.0357028 1.78209e-21)
(-0.0380873 0.0359939 -9.35535e-20)
(-0.0430861 0.0357181 5.93794e-20)
(-0.0478707 0.0350064 1.38036e-20)
(-0.0523944 0.0339814 -1.82997e-20)
(-0.0566268 0.0327581 2.29575e-20)
(-0.0605538 0.0314435 -9.11057e-20)
(-0.0641792 0.0301365 -5.09087e-20)
(-0.0675245 0.0289255 1.07829e-19)
(-0.0706297 0.0278862 -6.05189e-20)
(-0.0735671 0.0270728 -8.68505e-20)
(-0.0763868 0.0265109 1.61725e-19)
(-0.0789818 0.0262506 -1.51089e-22)
(-0.00149104 0.00563651 4.83531e-20)
(-0.00474328 0.0147861 -6.0901e-20)
(-0.00883247 0.0221244 -6.39137e-20)
(-0.0133754 0.0278762 -3.06365e-20)
(-0.0182384 0.0322108 -4.45929e-20)
(-0.0232954 0.0352983 -2.53036e-20)
(-0.0284248 0.0373066 -1.07627e-19)
(-0.0335224 0.0383979 1.32561e-20)
(-0.0384993 0.0387278 -4.61373e-20)
(-0.0432809 0.0384444 1.62187e-19)
(-0.0478074 0.0376879 -9.46677e-20)
(-0.0520339 0.0365905 5.82817e-20)
(-0.0559307 0.035277 -1.79117e-20)
(-0.0594841 0.0338653 9.91117e-20)
(-0.0626988 0.0324651 8.20762e-21)
(-0.0655978 0.0311771 -8.58387e-20)
(-0.0682241 0.0300891 -1.55291e-20)
(-0.0706584 0.0292657 3.7154e-21)
(-0.0729559 0.0287412 -6.53798e-21)
(-0.0749764 0.0285829 1.09184e-19)
(-0.00168935 0.00598557 -6.01451e-20)
(-0.00524258 0.0157181 -5.83893e-20)
(-0.00953229 0.0235384 2.43531e-20)
(-0.0141935 0.0296792 6.11572e-20)
(-0.0191004 0.0343162 -4.47799e-21)
(-0.024134 0.0376269 -4.25235e-20)
(-0.0291793 0.0397871 9.48555e-20)
(-0.0341375 0.0409675 -1.0756e-20)
(-0.038924 0.041332 1.16408e-19)
(-0.0434679 0.0410374 -1.29958e-19)
(-0.0477118 0.0402327 3.4385e-20)
(-0.0516122 0.0390593 4.09804e-20)
(-0.0551401 0.0376517 -1.23155e-21)
(-0.0582822 0.0361381 -7.05032e-22)
(-0.0610434 0.0346401 -7.90361e-20)
(-0.0634483 0.033271 1.07063e-20)
(-0.0655428 0.0321323 1.0673e-19)
(-0.0674173 0.031301 1.37972e-19)
(-0.0691336 0.0308219 -1.64338e-19)
(-0.0705135 0.0307841 -1.04751e-19)
(-0.00189797 0.00631509 2.53025e-20)
(-0.00576855 0.0165996 3.89095e-20)
(-0.0102702 0.0248776 4.77718e-20)
(-0.0150563 0.0313883 -8.09278e-20)
(-0.0200089 0.0363131 8.53887e-20)
(-0.0250161 0.0398358 8.16652e-20)
(-0.0299695 0.0421396 -3.19841e-20)
(-0.034776 0.0434027 1.40882e-19)
(-0.0393556 0.0437971 -1.43255e-19)
(-0.043641 0.0434873 6.38191e-20)
(-0.0475771 0.0426307 6.51779e-20)
(-0.051122 0.0413773 -5.03923e-21)
(-0.0542469 0.039871 8.92053e-22)
(-0.0569388 0.0382504 8.62888e-21)
(-0.0592025 0.0366488 -6.20354e-20)
(-0.0610635 0.0351935 6.17096e-20)
(-0.0625709 0.0340011 -3.18547e-20)
(-0.0638257 0.0331633 -7.18568e-20)
(-0.0648987 0.032738 9.32945e-20)
(-0.0655676 0.0328419 1.94286e-20)
(-0.00211587 0.00662443 -1.45593e-20)
(-0.00631863 0.0174285 1.83316e-20)
(-0.0110426 0.0261387 -3.99531e-20)
(-0.0159594 0.032999 -5.99566e-20)
(-0.0209588 0.0381957 -6.19498e-20)
(-0.0259361 0.0419182 -5.60797e-20)
(-0.0307895 0.0443564 9.18228e-20)
(-0.0354317 0.0456954 -4.65171e-20)
(-0.0397874 0.0461143 3.73277e-20)
(-0.0437927 0.0457851 4.23316e-21)
(-0.0473954 0.0448726 -1.02685e-20)
(-0.0505543 0.043535 2.57577e-20)
(-0.0532414 0.0419249 -5.0242e-20)
(-0.0554428 0.0401912 2.63039e-20)
(-0.0571631 0.0384796 8.54803e-20)
(-0.0584284 0.0369316 -1.2544e-19)
(-0.0592905 0.0356814 -8.05246e-20)
(-0.0598621 0.0348376 1.06239e-19)
(-0.0602261 0.034475 -6.24042e-20)
(-0.0601081 0.0347444 -9.64415e-20)
(-0.00234204 0.0069131 5.40498e-20)
(-0.00689024 0.0182033 -5.55117e-20)
(-0.0118457 0.0273188 4.50299e-20)
(-0.0168983 0.0345072 7.26366e-20)
(-0.0219451 0.0399587 -1.34675e-20)
(-0.0268882 0.043868 -4.82932e-20)
(-0.0316329 0.0464306 -9.01851e-20)
(-0.0360974 0.047838 -6.88517e-20)
(-0.0402113 0.0482757 -1.39342e-19)
(-0.0439145 0.0479224 1.42908e-20)
(-0.0471568 0.0469497 -1.25784e-20)
(-0.0498985 0.0455233 -9.98126e-20)
(-0.0521113 0.0438041 8.68946e-20)
(-0.0537804 0.0419509 1.06715e-19)
(-0.0549094 0.0401216 -5.43878e-21)
(-0.0555245 0.0384735 6.57317e-20)
(-0.0556797 0.0371597 -3.33797e-20)
(-0.0555003 0.0363095 5.41178e-21)
(-0.0550856 0.0360185 9.4698e-20)
(-0.0540976 0.0364798 2.25743e-19)
(-0.00257546 0.00718078 -2.33687e-20)
(-0.00748077 0.0189227 -1.65856e-20)
(-0.0126759 0.0284155 4.65035e-20)
(-0.0178682 0.0359094 -6.5158e-20)
(-0.0229619 0.0415977 -1.70374e-20)
(-0.027866 0.0456796 1.01289e-19)
(-0.0324923 0.0483558 -2.40665e-20)
(-0.036765 0.0498234 -6.97557e-20)
(-0.0406184 0.0502737 1.13448e-19)
(-0.0439959 0.0498914 -3.04563e-20)
(-0.0468499 0.0488543 2.23264e-20)
(-0.0491416 0.0473345 1.21968e-19)
(-0.050842 0.0455007 -1.69823e-19)
(-0.0519351 0.043521 -4.65458e-20)
(-0.0524225 0.0415658 -9.20446e-20)
(-0.0523297 0.0398086 1.87278e-19)
(-0.0517124 0.038424 5.87838e-21)
(-0.0507093 0.0375655 1.0394e-19)
(-0.0494414 0.0373547 -3.7534e-20)
(-0.0474915 0.0380368 -2.14057e-19)
(-0.00281514 0.00742728 -5.46121e-20)
(-0.00808758 0.0195858 7.93493e-20)
(-0.0135291 0.0294269 1.04398e-21)
(-0.0188641 0.0372025 -8.24471e-22)
(-0.0240033 0.0431086 8.33874e-20)
(-0.0288624 0.0473479 6.0187e-20)
(-0.0333596 0.0501261 -2.34965e-21)
(-0.0374251 0.0516452 1.81017e-19)
(-0.0409978 0.0521016 6.95175e-20)
(-0.0440249 0.0516853 -1.281e-19)
(-0.046461 0.0505794 6.01173e-21)
(-0.0482678 0.0489618 -4.26562e-21)
(-0.0494157 0.0470079 1.80124e-19)
(-0.0498865 0.0448948 -2.02029e-19)
(-0.0496791 0.0428047 5.58095e-20)
(-0.0488173 0.0409283 2.20214e-21)
(-0.0473573 0.0394638 -1.43656e-19)
(-0.0454516 0.0385938 -1.49545e-19)
(-0.0432518 0.0384716 -1.79921e-20)
(-0.0402356 0.0394035 2.17632e-19)
(-0.00306011 0.00765256 1.78057e-20)
(-0.00870807 0.0201919 -5.65047e-20)
(-0.0144015 0.0303517 5.48159e-20)
(-0.0198808 0.0383842 -8.21954e-20)
(-0.0250627 0.0444877 1.02378e-19)
(-0.0298695 0.0488685 -1.71621e-19)
(-0.0342257 0.0517363 -4.25243e-20)
(-0.0380671 0.0532976 -9.46132e-20)
(-0.0413374 0.0537534 -4.46997e-20)
(-0.0439874 0.0532981 7.98902e-20)
(-0.0459737 0.0521192 1.63422e-19)
(-0.0472586 0.0503997 -1.83583e-19)
(-0.0478111 0.0483207 -6.87363e-20)
(-0.0476101 0.0460671 2.50123e-19)
(-0.0466511 0.0438329 -9.10631e-20)
(-0.0449548 0.0418261 -1.31358e-19)
(-0.0425765 0.0402711 1.66978e-19)
(-0.0396821 0.0393855 3.5234e-20)
(-0.0364693 0.0393611 3.38223e-20)
(-0.0322678 0.0405707 -1.40303e-19)
(-0.00330946 0.0078567 7.00627e-21)
(-0.00933961 0.0207408 -2.95487e-20)
(-0.0152888 0.0311886 9.6409e-20)
(-0.0209126 0.0394523 -1.249e-19)
(-0.0261332 0.0457322 -1.03091e-19)
(-0.0308789 0.0502375 6.5188e-20)
(-0.0350804 0.0531818 1.81667e-19)
(-0.038679 0.0547755 -1.14874e-19)
(-0.0416231 0.0552237 2.78531e-20)
(-0.0438669 0.0547243 -5.54066e-20)
(-0.0453689 0.0534689 -2.24024e-19)
(-0.0460918 0.0516439 1.35823e-19)
(-0.0460026 0.0494354 1.10014e-19)
(-0.0450768 0.0470351 -1.95166e-19)
(-0.0433049 0.0446476 4.57027e-20)
(-0.0407034 0.0424985 1.82991e-19)
(-0.0373242 0.0408407 7.21152e-20)
(-0.0333447 0.0399322 2.53765e-20)
(-0.0290332 0.0400083 -1.49044e-19)
(-0.0235275 0.0415521 -7.24666e-20)
(-0.00356229 0.00803991 -4.82212e-20)
(-0.00997964 0.0212324 -8.89349e-20)
(-0.016187 0.031937 -5.11502e-20)
(-0.0219537 0.0404053 6.78131e-20)
(-0.0272073 0.0468394 -3.97143e-21)
(-0.0318813 0.0514515 1.52659e-19)
(-0.0359123 0.0544585 -1.4289e-20)
(-0.0392471 0.0560745 1.69995e-20)
(-0.0418385 0.0565078 1.10065e-19)
(-0.0436441 0.0559597 1.39414e-19)
(-0.0446242 0.0546245 -6.57803e-21)
(-0.0447411 0.0526916 -3.09246e-20)
(-0.0439598 0.0503505 -1.81589e-19)
(-0.0422513 0.0477983 1.36357e-19)
(-0.0396003 0.0452493 -1.21343e-20)
(-0.0360169 0.0429458 -8.18763e-20)
(-0.0315477 0.0411704 -4.10875e-19)
(-0.0263746 0.0402215 1.45949e-19)
(-0.0208398 0.04036 7.77367e-21)
(-0.0139577 0.042393 -8.97257e-20)
(-0.00381776 0.00820246 4.46913e-20)
(-0.0106256 0.0216669 1.16347e-19)
(-0.0170917 0.0325965 -8.8709e-20)
(-0.0229982 0.0412421 -4.30803e-20)
(-0.0282769 0.0478074 3.59206e-20)
(-0.0328664 0.0525076 -8.68607e-20)
(-0.0367089 0.0555629 -1.61655e-19)
(-0.0397561 0.0571904 9.58003e-20)
(-0.0419653 0.0576017 -1.08833e-20)
(-0.0432972 0.0570007 -2.20527e-19)
(-0.0437134 0.0555835 4.22684e-20)
(-0.0431759 0.0535414 2.39228e-20)
(-0.0416469 0.0510662 -4.16841e-20)
(-0.0390923 0.048359 1.10195e-19)
(-0.0354894 0.0456418 2.15052e-19)
(-0.0308409 0.0431725 -1.40277e-19)
(-0.025188 0.0412634 1.13957e-19)
(-0.0187264 0.0402534 2.78905e-20)
(-0.0117925 0.0404704 1.60061e-19)
(-0.00340124 0.0430365 7.14695e-20)
(-0.00407508 0.00834476 -4.90613e-20)
(-0.011275 0.0220449 -5.52456e-21)
(-0.0179985 0.0331672 1.25839e-19)
(-0.0240396 0.0419618 1.25092e-19)
(-0.0293334 0.0486345 -2.57194e-20)
(-0.033823 0.0534034 -1.62099e-20)
(-0.0374559 0.0564917 1.62933e-19)
(-0.0401887 0.0581199 -1.26624e-19)
(-0.0419825 0.0585022 3.87456e-20)
(-0.0428008 0.0578444 1.60412e-19)
(-0.0426065 0.056344 1.54023e-19)
(-0.0413607 0.0541934 6.02465e-20)
(-0.0390221 0.051585 2.63398e-19)
(-0.0355508 0.0487221 -3.62465e-20)
(-0.030916 0.0458328 -2.7973e-19)
(-0.0251103 0.0431887 1.37782e-19)
(-0.0181673 0.0411322 -7.37932e-20)
(-0.0102967 0.0400534 -1.7188e-19)
(-0.00184786 0.0403812 -1.22111e-19)
(0.00827317 0.0434277 -1.21797e-19)
(-0.00433349 0.00846725 3.15185e-20)
(-0.0119252 0.0223667 6.62671e-20)
(-0.0189031 0.0336491 -4.59308e-20)
(-0.0250712 0.0425639 -5.71453e-20)
(-0.0303674 0.0493195 -5.96607e-20)
(-0.0347389 0.0541368 -1.60334e-20)
(-0.0381381 0.0572426 -1.6849e-19)
(-0.0405256 0.0588603 8.65291e-20)
(-0.0418664 0.0592065 -7.97019e-20)
(-0.0421264 0.0584888 -1.34919e-19)
(-0.0412691 0.0569056 4.84971e-21)
(-0.0392542 0.0546489 -3.43003e-19)
(-0.0360369 0.051911 -2.66384e-19)
(-0.0315702 0.0488956 8.444e-20)
(-0.0258139 0.0458341 4.26987e-20)
(-0.0187492 0.0430096 -9.18875e-20)
(-0.0103978 0.0407932 3.56709e-19)
(-0.000979193 0.03963 -5.60972e-20)
(0.00912063 0.0400551 1.52873e-19)
(0.0211752 0.0436335 1.36666e-19)
(-0.0045923 0.00857043 -4.32435e-20)
(-0.0125738 0.0226333 -1.43808e-19)
(-0.0198007 0.0340427 4.59183e-20)
(-0.0260857 0.0430483 2.61044e-21)
(-0.0313688 0.0498613 1.94958e-19)
(-0.0356008 0.0547063 -1.16516e-19)
(-0.0387381 0.0578133 6.37424e-20)
(-0.0407453 0.0594091 9.13664e-20)
(-0.0415905 0.0597126 -7.17972e-21)
(-0.0412415 0.0589327 5.63575e-20)
(-0.039662 0.0572684 1.71964e-19)
(-0.0368097 0.0549108 3.59704e-19)
(-0.0326355 0.0520507 2.89226e-20)
(-0.0270848 0.0488902 -1.59765e-19)
(-0.0201068 0.0456616 2.905e-20)
(-0.0116696 0.0426561 2.83294e-19)
(-0.00177976 0.0402703 -1.92458e-19)
(0.00933914 0.0390046 8.4918e-22)
(0.0212476 0.0395033 1.48844e-19)
(0.0354538 0.0436854 -9.11045e-20)
(-0.00485082 0.00865485 -4.16461e-20)
(-0.0132183 0.0228453 1.7059e-19)
(-0.0206864 0.0343485 -1.30198e-19)
(-0.0270755 0.0434149 -2.66038e-20)
(-0.0323269 0.0502594 -4.4983e-20)
(-0.0363941 0.0551105 -1.17201e-19)
(-0.039237 0.0582023 1.16639e-19)
(-0.0408239 0.0597646 -3.8335e-20)
(-0.0411251 0.0600189 -6.8886e-20)
(-0.0401097 0.0591757 1.12916e-19)
(-0.0377411 0.0574337 -1.30758e-19)
(-0.0339742 0.0549831 -4.21062e-20)
(-0.0287546 0.052012 -4.68505e-21)
(-0.0220199 0.0487195 1.12267e-19)
(-0.0137075 0.0453356 -1.01699e-19)
(-0.00377111 0.0421553 -1.92211e-19)
(0.00780108 0.0395966 -5.90476e-20)
(0.0207864 0.0382127 -8.55194e-20)
(0.0346774 0.0387589 -2.61361e-19)
(0.0512817 0.0436105 -7.79093e-20)
(-0.00510842 0.00872105 5.92919e-20)
(-0.0138562 0.0230037 -7.48336e-20)
(-0.0215553 0.0345673 -9.43627e-20)
(-0.0280326 0.0436641 -8.90981e-20)
(-0.0332298 0.0505134 2.96496e-20)
(-0.0371027 0.0553486 1.64259e-20)
(-0.0396142 0.0584082 4.18135e-20)
(-0.040735 0.0599254 -1.08363e-19)
(-0.0404374 0.0601247 8.40505e-20)
(-0.0386908 0.0592177 -2.5158e-19)
(-0.0354571 0.0574036 -1.26237e-19)
(-0.030688 0.0548709 2.21832e-21)
(-0.0243231 0.0518048 1.12167e-19)
(-0.0162911 0.0483995 -7.35526e-20)
(-0.00651724 0.0448803 1.87779e-19)
(0.00506018 0.041541 -4.60102e-20)
(0.0184738 0.0388146 5.9885e-20)
(0.0335075 0.0373023 2.26456e-19)
(0.0495694 0.0378668 3.00334e-20)
(0.0688472 0.04345 1.43866e-19)
(-0.00536449 0.0087696 -1.25357e-19)
(-0.0144847 0.0231093 1.01443e-19)
(-0.022402 0.0346998 1.13626e-19)
(-0.0289482 0.0437961 -6.63888e-20)
(-0.0340649 0.0506232 1.13389e-19)
(-0.0377093 0.0554202 1.09214e-19)
(-0.0398468 0.0584302 -1.97367e-20)
(-0.0404496 0.0598909 -3.75201e-20)
(-0.0394911 0.0600295 -1.01946e-19)
(-0.0369398 0.0590598 4.75498e-20)
(-0.0327555 0.057181 4.60939e-21)
(-0.0268852 0.0545806 -1.25241e-19)
(-0.0192617 0.0514401 9.35277e-20)
(-0.00980445 0.0479483 -7.33578e-20)
(0.00157408 0.0443232 -1.33248e-19)
(0.0149513 0.0408525 -1.74152e-19)
(0.0303821 0.037976 4.26876e-20)
(0.0476631 0.0363346 5.94114e-20)
(0.0660985 0.0368864 -5.69812e-20)
(0.0883524 0.0432614 2.37427e-19)
(-0.00561843 0.00880105 -9.94962e-20)
(-0.0151013 0.0231631 -9.34557e-20)
(-0.0232208 0.0347469 7.39723e-20)
(-0.0298129 0.0438116 4.29868e-20)
(-0.0348183 0.0505891 1.78091e-20)
(-0.0381951 0.055325 -3.23616e-20)
(-0.0399099 0.0582682 -2.25909e-20)
(-0.039936 0.0596609 5.19847e-20)
(-0.0382463 0.059734 -4.90037e-20)
(-0.0348078 0.0587036 3.93311e-19)
(-0.0295762 0.0567698 2.87003e-20)
(-0.0224931 0.0541192 -4.41308e-20)
(-0.0134835 0.0509302 -2.90592e-19)
(-0.00245659 0.0473858 5.60245e-20)
(0.0106877 0.0436948 -1.43848e-19)
(0.026042 0.0401341 9.51488e-20)
(0.0436838 0.0371414 8.73159e-20)
(0.0634279 0.0353847 -3.32458e-19)
(0.0844519 0.0358937 -1.0352e-19)
(0.110008 0.0431205 -3.53871e-19)
(-0.00586962 0.0088159 4.80396e-20)
(-0.015703 0.0231659 9.70052e-20)
(-0.0240057 0.0347094 -1.74975e-19)
(-0.0306167 0.0437111 -1.34099e-19)
(-0.0354752 0.0504114 6.8244e-20)
(-0.0385393 0.0550634 6.37716e-20)
(-0.0397763 0.0579223 -1.32639e-19)
(-0.0391593 0.0592359 -1.19793e-20)
(-0.0366597 0.0592394 7.03021e-21)
(-0.032241 0.0581516 -1.18409e-19)
(-0.0258539 0.0561745 1.72669e-19)
(-0.0174327 0.0534948 8.82976e-22)
(-0.00689366 0.0502885 2.18284e-19)
(0.00586477 0.046733 1.48151e-19)
(0.0209551 0.0430274 2.4867e-20)
(0.0384836 0.0394337 3.12571e-19)
(0.0585487 0.036378 -2.83749e-19)
(0.0809881 0.0345404 1.31566e-19)
(0.104826 0.0349825 1.03051e-19)
(0.134026 0.0431245 8.75173e-20)
(-0.00611745 0.00881464 2.32969e-19)
(-0.0162869 0.0231186 -1.64656e-19)
(-0.0247502 0.0345882 3.96646e-20)
(-0.0313486 0.0434956 1.3031e-19)
(-0.0360192 0.0500909 -1.40404e-19)
(-0.0387196 0.0546359 6.85839e-21)
(-0.0394165 0.0573935 1.07134e-19)
(-0.0380818 0.0586174 1.96703e-19)
(-0.0346839 0.0585478 2.66462e-19)
(-0.0291812 0.0574075 -2.55172e-19)
(-0.0215177 0.0554011 -1.51845e-19)
(-0.0116188 0.0527165 7.21213e-20)
(0.000609508 0.049529 -2.07592e-19)
(0.0152798 0.0460117 1.42316e-20)
(0.0325163 0.0423543 8.09454e-20)
(0.0524366 0.0388012 6.2181e-20)
(0.075156 0.0357584 1.91267e-19)
(0.100537 0.0339005 4.00891e-20)
(0.127422 0.0342643 -1.44271e-19)
(0.160612 0.0433938 1.55015e-19)
(-0.00636122 0.00879766 -2.21245e-19)
(-0.0168496 0.0230218 1.64236e-19)
(-0.0254471 0.034384 3.972e-20)
(-0.0319966 0.0431657 -1.29647e-19)
(-0.0364327 0.0496285 5.48532e-20)
(-0.0387116 0.054044 -2.66333e-20)
(-0.0387985 0.0566834 -1.9756e-20)
(-0.0366627 0.0578077 -1.66354e-19)
(-0.0322679 0.0576627 -2.62161e-19)
(-0.025566 0.0564762 2.45294e-19)
(-0.0164918 0.0544568 -8.82761e-20)
(-0.00496036 0.0517949 2.71874e-21)
(0.00913402 0.0486671 5.00971e-20)
(0.0259154 0.0452444 1.06298e-19)
(0.0455185 0.0417088 -1.28725e-20)
(0.0680682 0.0382867 -2.99203e-20)
(0.0936904 0.0353569 -1.53927e-19)
(0.122272 0.0335713 -1.03009e-19)
(0.152442 0.033867 -9.73891e-20)
(0.189946 0.0440745 1.53742e-19)
(-0.00660021 0.00876531 1.78261e-19)
(-0.0173875 0.022876 -4.65003e-20)
(-0.0260887 0.0340977 1.58395e-19)
(-0.0325479 0.0427227 3.83757e-20)
(-0.0366966 0.0490256 -8.48058e-20)
(-0.0384888 0.0532894 1.3625e-20)
(-0.0378875 0.0557947 -1.80431e-19)
(-0.0348577 0.0568104 8.19217e-20)
(-0.0293568 0.0565891 4.45075e-20)
(-0.021328 0.0553646 -1.63868e-20)
(-0.0106953 0.0533505 -1.86828e-20)
(0.00263893 0.0507421 2.21052e-20)
(0.0187932 0.0477192 -1.00277e-19)
(0.0379033 0.0444538 -2.33329e-19)
(0.0601126 0.0411235 1.18358e-19)
(0.0855485 0.0379384 -5.89118e-20)
(0.114338 0.0352466 -1.43484e-20)
(0.146382 0.0336617 2.49273e-19)
(0.180078 0.0339324 2.60412e-19)
(0.22217 0.0453393 -3.9492e-19)
(-0.00683357 0.00871781 -4.52312e-20)
(-0.0178967 0.0226817 -5.042e-20)
(-0.0266665 0.0337299 -9.93459e-20)
(-0.0329881 0.0421675 7.31878e-20)
(-0.0367898 0.0482839 1.32189e-19)
(-0.0380225 0.0523747 -1.71225e-19)
(-0.0366459 0.0547309 2.73327e-19)
(-0.0326192 0.0556305 -5.34591e-20)
(-0.0258917 0.0553337 8.03306e-21)
(-0.0163959 0.0540812 -1.85165e-19)
(-0.00404263 0.0520936 -1.41531e-20)
(0.0112799 0.0495724 -1.52178e-19)
(0.0297044 0.0467036 2.04138e-19)
(0.0513783 0.0436637 1.34267e-19)
(0.0764511 0.0406303 -2.62197e-19)
(0.105046 0.0378016 -2.23023e-19)
(0.13728 0.0354962 5.14079e-20)
(0.173049 0.0342777 2.98569e-19)
(0.210515 0.0346133 1.37579e-19)
(0.257362 0.0473881 7.5874e-20)
(-0.00706033 0.00865531 1.46048e-20)
(-0.0183728 0.0224392 4.87855e-20)
(-0.0271711 0.0332813 5.91325e-20)
(-0.0333019 0.0415014 -4.90083e-20)
(-0.0366896 0.0474056 1.23282e-19)
(-0.0372818 0.0513033 1.65019e-19)
(-0.0350333 0.0534971 2.7613e-21)
(-0.0298962 0.0542747 -2.12841e-19)
(-0.0218099 0.0539053 -1.69887e-19)
(-0.0106939 0.0526376 1.77613e-19)
(0.00355587 0.0507003 -2.38038e-19)
(0.0210672 0.0483033 -2.67159e-19)
(0.0419877 0.0456414 -2.67311e-20)
(0.0664757 0.0428993 -1.39951e-20)
(0.0946839 0.0402601 9.2599e-20)
(0.126724 0.037917 6.07031e-20)
(0.162689 0.0361662 7.86278e-20)
(0.202431 0.035514 -3.6907e-19)
(0.243925 0.0360681 -1.01155e-19)
(0.295515 0.0504377 2.63687e-19)
(-0.00727936 0.00857783 -8.50158e-20)
(-0.0188106 0.0221485 8.38117e-20)
(-0.0275921 0.0327524 -6.14646e-20)
(-0.0334722 0.040726 -3.06833e-20)
(-0.0363713 0.0463935 -8.32319e-20)
(-0.036233 0.0500795 -6.30641e-20)
(-0.0330062 0.0520995 -1.12697e-19)
(-0.0266343 0.0527519 1.86111e-19)
(-0.0170447 0.0523155 7.37139e-20)
(-0.00414233 0.0510483 -1.81656e-19)
(0.0121936 0.0491884 2.8372e-19)
(0.0321081 0.046956 1.45321e-19)
(0.0557639 0.044557 -1.10004e-19)
(0.0833289 0.0421882 -1.5385e-19)
(0.114954 0.0400438 -1.96599e-20)
(0.150732 0.0383204 1.57932e-19)
(0.190716 0.0373067 -1.04969e-19)
(0.234662 0.0374451 4.01263e-20)
(0.280471 0.0384536 8.98273e-20)
(0.336516 0.0547019 2.19675e-19)
(-0.00748933 0.00848527 -8.50342e-21)
(-0.0192047 0.0218096 -2.07242e-19)
(-0.0279181 0.0321439 5.0753e-20)
(-0.0334804 0.0398429 1.12003e-19)
(-0.0358081 0.0452507 -2.0683e-20)
(-0.03484 0.0487088 -1.35632e-19)
(-0.0305181 0.0505461 1.4945e-19)
(-0.0227754 0.0510729 1.70719e-19)
(-0.0115259 0.0505785 6.52049e-20)
(0.00334196 0.0493313 3.2332e-19)
(0.0219668 0.0475799 -1.50096e-19)
(0.0445113 0.0455562 7.16816e-20)
(0.0711526 0.0434793 -7.42471e-20)
(0.102065 0.0415611 1.77873e-19)
(0.137395 0.0400124 -1.56749e-20)
(0.177202 0.039043 -4.07907e-20)
(0.22149 0.0389556 -6.5048e-20)
(0.269835 0.0401172 1.02007e-19)
(0.32029 0.0419407 -2.5621e-19)
(0.380089 0.060419 -3.39717e-19)
(-0.00768867 0.00837737 -4.97306e-20)
(-0.0195486 0.0214221 -1.89151e-20)
(-0.0281363 0.0314562 -1.67907e-19)
(-0.0333062 0.0388539 1.0273e-19)
(-0.0349709 0.0439814 -1.04883e-19)
(-0.033064 0.0471977 -1.06379e-19)
(-0.0275192 0.0488467 -9.47974e-21)
(-0.0182581 0.0492511 -1.72363e-19)
(-0.00517964 0.048712 -2.73406e-19)
(0.0118452 0.0475087 7.48221e-20)
(0.0329737 0.0459015 8.34601e-20)
(0.0583854 0.0441349 1.00417e-19)
(0.0882696 0.0424426 2.5598e-19)
(0.122804 0.0410532 -2.5148e-20)
(0.16212 0.0401979 -5.51341e-20)
(0.206241 0.0401095 -7.54413e-21)
(0.255106 0.0411323 1.38304e-19)
(0.308009 0.04354 2.44732e-19)
(0.363467 0.0467907 -6.83195e-20)
(0.425597 0.0679912 2.43138e-19)
(-0.0078755 0.00825377 1.57249e-19)
(-0.0198352 0.0209855 -2.5979e-20)
(-0.0282327 0.0306898 1.48947e-19)
(-0.0329276 0.0377614 -1.52475e-19)
(-0.0338285 0.0425901 2.24842e-19)
(-0.0308634 0.0455542 1.87698e-19)
(-0.023957 0.047013 -1.54102e-19)
(-0.013018 0.0473029 -2.8596e-19)
(0.00207066 0.0467372 4.72973e-19)
(0.021456 0.0456072 1.16682e-19)
(0.0453132 0.0441853 -9.04584e-20)
(0.0738367 0.0427292 -8.93254e-20)
(0.107224 0.0414872 -4.42938e-20)
(0.145648 0.0407047 -6.94048e-20)
(0.189221 0.040634 -2.29094e-19)
(0.23792 0.0415358 -6.21081e-20)
(0.291626 0.0438205 5.18767e-21)
(0.349276 0.0476601 -1.67853e-19)
(0.410192 0.0533699 8.28985e-20)
(0.472075 0.0776842 -1.76074e-19)
(-0.00804766 0.00811397 -2.51871e-19)
(-0.0200564 0.0204993 1.69157e-19)
(-0.0281919 0.0298451 -2.52263e-19)
(-0.0323205 0.036568 -1.37458e-19)
(-0.0323473 0.0410826 5.13e-20)
(-0.028194 0.0437876 -2.03518e-19)
(-0.0197757 0.0450588 3.18222e-19)
(-0.00698757 0.0452471 5.06143e-21)
(0.0103042 0.0446788 -1.75805e-19)
(0.0322642 0.0436577 -1.53508e-19)
(0.0590834 0.0424688 -2.73567e-19)
(0.0909669 0.0413825 -3.48476e-21)
(0.128113 0.0406605 1.00462e-20)
(0.170681 0.0405624 -6.24482e-20)
(0.218753 0.041357 2.76614e-19)
(0.272254 0.0433271 1.70339e-19)
(0.331029 0.0469513 4.22614e-20)
(0.393752 0.0523078 -1.82122e-19)
(0.461142 0.0616695 -1.02302e-20)
(0.520348 0.0873158 -2.93883e-19)
(-0.00820261 0.00795736 8.94752e-20)
(-0.0202032 0.0199627 -1.70463e-19)
(-0.0279969 0.0289228 2.18554e-19)
(-0.0314589 0.0352766 3.06765e-19)
(-0.0304912 0.0394652 -9.97685e-20)
(-0.025009 0.0419086 1.25661e-20)
(-0.0149173 0.0430002 -2.6914e-19)
(-9.7015e-05 0.0431059 -6.72448e-20)
(0.0196018 0.0425657 -2.07241e-19)
(0.0443596 0.0416963 2.69527e-19)
(0.0743797 0.0407952 2.48909e-19)
(0.109871 0.0401447 -4.42924e-20)
(0.151021 0.0400171 -3.30505e-20)
(0.197963 0.0406809 -2.81593e-21)
(0.250728 0.0424114 4.98889e-20)
(0.309173 0.0454915 -8.92919e-20)
(0.373122 0.0504335 -1.03313e-19)
(0.441152 0.0571744 2.18748e-19)
(0.516344 0.0703302 -7.07579e-20)
(0.577006 0.0903079 2.49382e-21)
(-0.00833742 0.00778317 2.37426e-20)
(-0.0202656 0.0193747 3.39833e-20)
(-0.0276294 0.0279236 -1.14812e-19)
(-0.0303151 0.0338908 -3.17391e-19)
(-0.028222 0.0377454 5.11261e-20)
(-0.0212592 0.0399297 1.55003e-19)
(-0.00932107 0.0408553 7.04261e-20)
(0.00772528 0.0409041 3.01789e-19)
(0.0300448 0.0404302 -1.89402e-19)
(0.0578309 0.0397635 -2.45041e-19)
(0.0912927 0.0392133 -4.46904e-20)