/*--------------------------------*- C++ -*----------------------------------*\
  =========                 |
  \\      /  F ield         | OpenFOAM: The Open Source CFD Toolbox
   \\    /   O peration     | Website:  https://openfoam.org
    \\  /    A nd           | Version:  7
     \\/     M anipulation  |
\*---------------------------------------------------------------------------*/
FoamFile
{
    version     2.0;
    format      ascii;
    class       volVectorField;
    location    "10";
    object      U;
}
// * * * * * * * * * * * * * * * * * * * * * * * * * * * * * * * * * * * * * //

dimensions      [0 1 -1 0 0 0 0];

internalField   nonuniform List<vector> 
9950
(
(-0.00171187 0.00123121 -2.00267e-20)
(-0.00972505 0.00277723 3.78192e-21)
(-0.0246376 0.00373221 1.00726e-20)
(-0.0423822 0.00428623 -5.35544e-21)
(-0.062011 0.00457145 2.95766e-21)
(-0.0825819 0.00470463 3.25378e-20)
(-0.103646 0.00478401 -3.91085e-21)
(-0.125175 0.00489444 -4.63257e-22)
(-0.147487 0.00510544 -3.29635e-21)
(-0.170868 0.00546386 1.08889e-20)
(-0.0018349 0.00366975 5.49986e-20)
(-0.00992039 0.00828522 6.29639e-21)
(-0.0247431 0.0111406 2.49128e-21)
(-0.0423071 0.0127984 5.00136e-20)
(-0.0616764 0.0136514 -8.37763e-20)
(-0.0819125 0.0140471 -2.72982e-20)
(-0.102558 0.0142788 2.09717e-20)
(-0.123567 0.0146002 2.44806e-21)
(-0.145246 0.0152212 3.05581e-20)
(-0.167769 0.0162814 -5.10137e-20)
(-0.00207701 0.00603775 -6.97789e-20)
(-0.0103066 0.0136555 5.30009e-20)
(-0.0249543 0.0183823 -3.56561e-20)
(-0.0421634 0.0211309 -1.0263e-19)
(-0.0610205 0.0225429 5.02867e-20)
(-0.0805953 0.0231893 -7.55576e-20)
(-0.100413 0.0235535 -6.04587e-20)
(-0.120396 0.0240562 1.06739e-20)
(-0.140825 0.0250516 -5.84586e-21)
(-0.161654 0.0267685 4.95326e-20)
(-0.00243051 0.00829154 9.6643e-20)
(-0.0108752 0.0188015 -1.42704e-19)
(-0.0252716 0.0253512 -1.00724e-20)
(-0.0419632 0.0291679 1.61923e-20)
(-0.0600697 0.0311241 1.74434e-20)
(-0.0786726 0.0320012 1.27222e-19)
(-0.0972742 0.0324655 8.63999e-20)
(-0.115747 0.0331004 8.39453e-20)
(-0.134348 0.0344113 -9.72228e-21)
(-0.152685 0.0367124 1.81605e-21)
(-0.00288454 0.0103922 -1.55447e-19)
(-0.0116138 0.0236443 1.07476e-19)
(-0.0256954 0.0319487 -1.20016e-19)
(-0.0417242 0.0368003 5.77918e-20)
(-0.0588613 0.0392786 8.2731e-20)
(-0.0762052 0.0403583 -1.27588e-19)
(-0.0932296 0.0408776 6.94457e-20)
(-0.109743 0.0415776 -2.58492e-19)
(-0.125988 0.043123 -1.45612e-19)
(-0.141096 0.0459111 1.39006e-20)
(-0.00342572 0.0123073 9.40412e-20)
(-0.012507 0.0281154 8.85336e-20)
(-0.0262262 0.038086 8.99414e-20)
(-0.041468 0.0439277 -1.10689e-20)
(-0.0574422 0.0468977 9.01074e-20)
(-0.073269 0.0481433 1.38119e-20)
(-0.0883914 0.0486608 1.05394e-19)
(-0.102539 0.0493414 1.48089e-19)
(-0.115966 0.0510193 2.38346e-19)
(-0.127173 0.054176 -5.58345e-20)
(-0.00403901 0.0140116 -4.73458e-21)
(-0.0135372 0.0321583 -3.60284e-20)
(-0.0268639 0.0436867 9.64695e-20)
(-0.0412187 0.0504604 7.41221e-20)
(-0.0558655 0.0538826 1.82098e-22)
(-0.0699508 0.0552488 -2.02594e-19)
(-0.0828882 0.0556966 -1.08036e-19)
(-0.0943096 0.0562577 2.84585e-20)
(-0.104533 0.057945 -1.29004e-20)
(-0.111238 0.0613335 -3.63812e-19)
(-0.00470869 0.0154885 1.90332e-19)
(-0.0146855 0.0357308 -2.38619e-19)
(-0.0276079 0.0486885 1.19092e-19)
(-0.0410015 0.0563218 -1.23884e-20)
(-0.054187 0.0601462 1.63641e-19)
(-0.0663431 0.0615794 2.57713e-19)
(-0.0768574 0.0618793 2.17412e-21)
(-0.0852448 0.0622073 -3.91264e-22)
(-0.0919617 0.0637594 -3.33564e-19)
(-0.0936305 0.0672241 4.59045e-19)
(-0.0054193 0.0167298 -1.77218e-19)
(-0.0159325 0.0388048 2.13575e-19)
(-0.0284565 0.0530443 -2.32168e-20)
(-0.0408397 0.0614494 1.21655e-19)
(-0.0524612 0.0656152 -3.43914e-19)
(-0.0625369 0.0670534 2.82062e-20)
(-0.0704358 0.0671191 1.65544e-19)
(-0.0755312 0.0670899 -1.56548e-19)
(-0.0785217 0.0683391 4.82055e-19)
(-0.0746812 0.0717113 1.90003e-19)
(-0.00615655 0.0177356 -7.32673e-20)
(-0.0172589 0.0413676 -2.33829e-21)
(-0.029406 0.0567233 -2.87191e-21)
(-0.040753 0.0657966 -3.03034e-19)
(-0.0507363 0.0702314 -5.44436e-20)
(-0.0586143 0.0716056 -2.74258e-19)
(-0.0637477 0.0713449 -3.57357e-19)
(-0.0653374 0.0708278 7.50946e-20)
(-0.0644578 0.0715797 -1.36108e-19)
(-0.0547011 0.0747353 -3.17675e-19)
(-0.00690814 0.0185139 2.16004e-19)
(-0.0186469 0.0434204 1.9305e-19)
(-0.0304505 0.0597107 2.78901e-19)
(-0.040754 0.069333 -3.54419e-19)
(-0.0490486 0.0739533 1.23521e-19)
(-0.0546394 0.0751889 -2.22172e-20)
(-0.0568913 0.0745072 2.74293e-20)
(-0.0547949 0.0733691 1.29032e-19)
(-0.0499241 0.0733708 3.48064e-19)
(-0.0339931 0.0763856 7.05527e-20)
(-0.00766436 0.0190796 -3.67391e-19)
(-0.0200799 0.0449775 6.76185e-22)
(-0.0315806 0.0620072 -1.15333e-19)
(-0.0408456 0.0720446 2.16653e-19)
(-0.0474168 0.0767565 3.94246e-20)
(-0.0506485 0.0777764 -1.20209e-20)
(-0.0499243 0.0765817 2.88343e-19)
(-0.0439951 0.0746992 -2.5693e-19)
(-0.0348984 0.0735793 -2.27215e-19)
(-0.0126788 0.0765613 -4.0386e-19)
(-0.00841846 0.0194528 4.26558e-19)
(-0.0215429 0.0460643 -3.2316e-19)
(-0.032782 0.0636275 -4.8009e-19)
(-0.0410174 0.0739333 3.23653e-20)
(-0.0458354 0.0786346 -1.8202e-19)
(-0.0466395 0.0793617 2.39908e-19)
(-0.0428418 0.077572 -5.02154e-19)
(-0.0329876 0.0748544 -1.74039e-19)
(-0.0193776 0.0723156 -2.21176e-19)
(0.00963672 0.0749994 3.07446e-19)
(-0.00916676 0.0196576 1.51246e-19)
(-0.0230222 0.0467153 4.01467e-19)
(-0.0340347 0.0645989 3.06006e-19)
(-0.0412424 0.0750157 1.33995e-19)
(-0.0442684 0.0795981 -1.32825e-19)
(-0.0425614 0.0799597 3.11291e-19)
(-0.0355512 0.0775111 7.71284e-19)
(-0.0216177 0.073888 3.28888e-19)
(-0.00332097 0.0697952 4.51137e-20)
(0.0333786 0.0717199 5.95717e-20)
(-0.0099084 0.0197205 -2.82033e-19)
(-0.0245051 0.0469708 -6.22875e-19)
(-0.0353105 0.0649585 -1.77306e-19)
(-0.0414739 0.0753217 1.87071e-19)
(-0.0426436 0.0796737 3.81855e-19)
(-0.0383059 0.0796049 1.77343e-19)
(-0.0278894 0.0764601 -6.84354e-19)
(-0.00958392 0.0718814 1.32578e-20)
(0.0136653 0.066091 6.22217e-19)
(0.0591469 0.0670579 2.71901e-19)
(-0.0106449 0.0196681 3.6114e-19)
(-0.0259782 0.0468745 3.13325e-19)
(-0.0365719 0.0647504 -2.74077e-19)
(-0.0416422 0.0748919 -1.0625e-19)
(-0.0408472 0.0789027 -1.55391e-19)
(-0.0336945 0.0783506 -5.09642e-19)
(-0.0195875 0.0745084 8.05785e-19)
(0.00352069 0.0690061 -2.25101e-19)
(0.0322364 0.0613329 -4.93177e-19)
(0.0878868 0.0614506 2.78637e-19)
(-0.0113795 0.019526 -7.96174e-19)
(-0.0274266 0.0464702 3.88681e-19)
(-0.0377699 0.0640233 3.66545e-19)
(-0.0416519 0.0737761 1.07451e-19)
(-0.03872 0.0773388 1.14742e-19)
(-0.0284765 0.0762659 -3.11009e-19)
(-0.0102565 0.0717637 -2.98092e-19)
(0.0182523 0.0654678 -1.0063e-19)
(0.0532773 0.0557561 2.69932e-19)
(0.12081 0.0555007 -2.68422e-19)
(-0.0121158 0.0193168 6.47266e-19)
(-0.0288313 0.045799 -4.14561e-20)
(-0.0388423 0.0628279 1.0038e-19)
(-0.0413798 0.0720302 -5.29427e-20)
(-0.036055 0.0750458 2.39081e-19)
(-0.0223271 0.0734338 -8.39984e-20)
(0.000606043 0.0683532 -4.9607e-19)
(0.0353132 0.0614888 3.41391e-19)
(0.0779104 0.0496638 -1.05144e-20)
(0.15922 0.0499996 -8.07977e-19)
(-0.012857 0.0190591 -1.67982e-19)
(-0.0301674 0.044897 -1.56593e-19)
(-0.0397118 0.0612148 -2.73497e-19)
(-0.0406732 0.0697135 -1.56397e-19)
(-0.0325968 0.0720966 -3.0485e-19)
(-0.014849 0.0699484 -2.98538e-19)
(0.0136056 0.0644207 3.74561e-19)
(0.0555181 0.0572973 -5.57083e-19)
(0.107462 0.0434161 2.22676e-19)
(0.204246 0.0458581 8.42722e-19)
(-0.0136052 0.0187664 -5.97442e-20)
(-0.0314034 0.0437955 -1.05413e-19)
(-0.0402824 0.0592302 2.97254e-19)
(-0.0393498 0.0668878 2.99075e-19)
(-0.0280429 0.0685716 -5.78682e-21)
(-0.00557898 0.0659146 -9.06706e-20)
(0.0294319 0.060124 2.86311e-19)
(0.0797487 0.0531092 -8.34984e-20)
(0.14339 0.0374599 -1.44258e-19)
(0.256501 0.0439505 2.07592e-19)
(-0.0143584 0.0184473 2.49462e-19)
(-0.0324993 0.0425183 1.35504e-19)
(-0.0404403 0.0569143 -5.25762e-20)
(-0.0371965 0.0636162 -4.71332e-20)
(-0.0220471 0.0645585 1.99456e-19)
(0.00600211 0.0614489 8.21898e-19)
(0.0488306 0.055637 -2.69332e-19)
(0.108904 0.0491087 9.44525e-20)
(0.187149 0.0323876 -3.49726e-19)
(0.315732 0.0449065 -1.03216e-18)
(-0.0151108 0.018104 2.05407e-20)
(-0.033403 0.0410787 -5.02531e-19)
(-0.0400536 0.0543036 -1.65255e-19)
(-0.0339716 0.0599626 -2.04506e-19)
(-0.014225 0.0601534 -6.63438e-19)
(0.0204559 0.0566834 -9.79391e-20)
(0.0725663 0.051155 1.96994e-19)
(0.14386 0.0454371 -5.62797e-19)
(0.239961 0.0290166 3.48443e-19)
(0.380503 0.0490401 2.84632e-19)
(-0.0158513 0.0177334 4.82493e-19)
(-0.0340489 0.0394812 9.02017e-20)
(-0.0389707 0.0514299 -7.14096e-22)
(-0.0294072 0.0559918 1.59978e-19)
(-0.00416134 0.0554611 6.08846e-19)
(0.0383703 0.0517692 1.62167e-19)
(0.10138 0.0468984 -1.94642e-19)
(0.18546 0.042201 7.77858e-20)
(0.302486 0.0284414 2.81307e-19)
(0.448059 0.056447 -3.32579e-19)
(-0.0165634 0.0173271 -2.40198e-19)
(-0.034358 0.0377227 1.61423e-19)
(-0.0370205 0.0483195 1.80721e-19)
(-0.0232124 0.0517694 -4.27477e-19)
(0.00858025 0.050597 -2.04858e-19)
(0.060339 0.0468809 -3.19761e-19)
(0.135938 0.0431057 -2.52671e-19)
(0.234521 0.039532 -2.38877e-19)
(0.374545 0.031882 6.70769e-19)
(0.515256 0.0662092 9.32995e-19)
(-0.0172223 0.0168706 -2.56751e-19)
(-0.0342385 0.0357954 -1.18867e-19)
(-0.0340139 0.0449956 5.22678e-20)
(-0.0150779 0.0473637 1.99941e-20)
(0.0244454 0.0456884 3.73399e-19)
(0.0869326 0.0422187 4.12695e-19)
(0.176761 0.040019 4.76852e-19)
(0.291697 0.037749 1.30958e-19)
(0.45474 0.0399475 -1.02399e-18)
(0.582028 0.0733284 -8.42738e-20)
(-0.0177925 0.0163451 8.01497e-19)
(-0.0335864 0.0336907 1.43774e-19)
(-0.0297464 0.0414797 -1.27786e-19)
(-0.0046814 0.0428474 -1.63202e-21)
(0.0438751 0.0408765 -4.25816e-19)
(0.118667 0.0380106 3.34314e-19)
(0.22418 0.0378872 -4.24252e-19)
(0.357077 0.0375198 -6.70857e-20)
(0.539467 0.0511011 9.25034e-19)
(0.655207 0.0701955 1.03143e-19)
(-0.0182353 0.0157382 -8.95505e-19)
(-0.0322779 0.0313956 -1.96557e-19)
(-0.0240005 0.037793 4.27954e-19)
(0.00830517 0.0383001 -9.12674e-20)
(0.0672904 0.0363177 2.60627e-19)
(0.155967 0.0345119 -4.45171e-19)
(0.278331 0.0369953 3.07163e-19)
(0.429914 0.0396754 3.59457e-19)
(0.62342 0.0608759 -7.98427e-19)
(0.757568 0.0675183 -2.09012e-19)
(-0.0185114 0.0150351 8.93329e-20)
(-0.0301787 0.0288942 -1.85933e-19)
(-0.0165461 0.0339632 -4.00001e-19)
(0.0242086 0.0338117 1.97162e-19)
(0.095075 0.0321855 2.18344e-19)
(0.199126 0.0319981 -9.08798e-20)
(0.339099 0.0376531 1.84958e-19)
(0.50858 0.0446087 -1.95717e-19)
(0.708266 0.0703391 -2.09382e-19)
(0.856534 0.076603 3.44203e-19)
(-0.0185698 0.014218 1.36837e-19)
(-0.0271481 0.0261802 -1.68725e-19)
(-0.00714744 0.0300271 3.06156e-19)
(0.0433446 0.0294861 -1.82688e-19)
(0.127554 0.0286714 -9.46947e-19)
(0.248262 0.0307541 6.25965e-20)
(0.406011 0.0401738 -1.00379e-19)
(0.591017 0.0522408 1.00776e-18)
(0.792762 0.0809207 -3.00875e-19)
(0.94517 0.089497 -1.03579e-18)
(-0.0183542 0.0132736 -6.70811e-20)
(-0.0230359 0.0232561 2.84352e-19)
(0.00443296 0.0260342 7.81079e-20)
(0.0660076 0.0254447 5.42476e-19)
(0.164972 0.025985 4.46354e-19)
(0.30327 0.0310617 -7.32458e-19)
(0.478146 0.0448132 2.49573e-19)
(0.674991 0.0622277 -7.70689e-19)
(0.874226 0.0928 5.13863e-19)
(1.02348 0.103421 1.00401e-18)
(-0.0178047 0.0121941 1.04079e-19)
(-0.0176849 0.0201352 -6.5775e-19)
(0.0184297 0.0220515 -2.22076e-19)
(0.0924577 0.0218302 -2.15099e-19)
(0.207457 0.0243534 -2.28602e-19)
(0.363776 0.0331804 9.87154e-19)
(0.554132 0.0517055 -2.43985e-19)
(0.75817 0.0741346 -1.07504e-19)
(0.95032 0.10565 9.12171e-20)
(1.09039 0.117497 -2.10047e-19)
(-0.0168583 0.0109777 -3.76387e-19)
(-0.0109344 0.0168458 6.54819e-19)
(0.0350679 0.0181671 -1.60922e-19)
(0.122906 0.0188094 2.04436e-19)
(0.255 0.0240168 3.2869e-19)
(0.429109 0.0373214 -4.13327e-19)
(0.632247 0.0608224 -5.22092e-19)
(0.838342 0.0874955 4.60684e-19)
(1.01929 0.119033 -4.8942e-19)
(1.14613 0.131122 -7.64572e-19)
(-0.015449 0.00962935 -1.35603e-19)
(-0.00262343 0.0134332 -5.46885e-19)
(0.0545555 0.0144932 4.8485e-19)
(0.157498 0.0165741 -3.17023e-20)
(0.307411 0.0252189 1.27535e-19)
(0.498288 0.0436173 1.37805e-19)
(0.710583 0.0719726 4.34908e-19)
(0.913627 0.101844 -2.37504e-19)
(1.08012 0.132538 5.38173e-19)
(1.19144 0.143992 -1.15182e-19)
(-0.0135092 0.00816124 3.74528e-19)
(0.00740551 0.00996171 5.2195e-19)
(0.0770739 0.0111673 -3.2354e-19)
(0.196293 0.0153384 -8.69644e-20)
(0.364298 0.0281898 -1.0559e-19)
(0.570061 0.0520959 2.44385e-19)
(0.787251 0.084844 -1.4028e-19)
(0.982632 0.116754 8.38058e-21)
(1.13246 0.145843 1.28412e-19)
(1.22743 0.155975 3.72104e-19)
(-0.0109702 0.00659348 3.11459e-19)
(0.0193019 0.00651529 -2.79947e-19)
(0.102768 0.00835176 3.53473e-19)
(0.239244 0.0153323 -3.31299e-19)
(0.425051 0.0331217 -6.73197e-19)
(0.642991 0.0626708 -1.72312e-19)
(0.860565 0.099063 4.09679e-19)
(1.04449 0.131866 -2.74911e-19)
(1.17649 0.158724 -2.4879e-19)
(1.25535 0.167063 2.26516e-19)
(-0.00776384 0.0049542 3.34295e-19)
(0.033202 0.00319758 -1.76851e-19)
(0.131733 0.00623129 9.39479e-20)
(0.286178 0.0167916 1.4616e-19)
(0.488848 0.0401436 2.89889e-19)
(0.71558 0.0751546 -9.56906e-20)
(0.929171 0.114252 -3.41813e-20)
(1.09881 0.146903 5.7107e-19)
(1.21272 0.171055 -2.16515e-19)
(1.27643 0.17732 -2.38758e-19)
(-0.00382374 0.0032797 -7.44912e-20)
(0.0492231 0.000131101 4.9913e-21)
(0.164004 0.00500873 2.88267e-19)
(0.336779 0.0199416 -1.31198e-19)
(0.554692 0.0493014 -3.56883e-19)
(0.786395 0.0892896 9.27986e-20)
(0.992107 0.130069 -8.18007e-19)
(1.1456 0.161667 -3.59535e-19)
(1.24189 0.182781 2.38538e-21)
(1.29187 0.186851 -6.92332e-20)
(0.000913032 0.00161431 -4.66347e-19)
(0.067457 -0.00254439 1.50369e-19)
(0.199542 0.00489893 -6.85377e-19)
(0.390582 0.0249794 5.6341e-20)
(0.621472 0.0605527 2.9058e-19)
(0.854178 0.104786 -6.06316e-20)
(1.0488 0.146226 6.75626e-19)
(1.18519 0.176034 6.28452e-19)
(1.26485 0.193909 1.94494e-19)
(1.30271 0.195779 -3.49066e-19)
(0.00650384 1.02355e-05 1.73963e-19)
(0.0879637 -0.00467424 2.76807e-19)
(0.238225 0.0061207 3.89612e-19)
(0.446983 0.0320553 1.96002e-19)
(0.688043 0.0737765 -1.80604e-19)
(0.917918 0.121354 -4.95805e-20)
(1.099 0.1625 9.85254e-20)
(1.21808 0.189937 -1.69756e-19)
(1.28245 0.204481 1.30987e-19)
(1.30985 0.204232 3.21354e-19)
(0.0129982 -0.00147291 1.8875e-19)
(0.110765 -0.00609199 6.99564e-20)
(0.279838 0.008887 1.39043e-19)
(0.505255 0.0412592 -7.42035e-20)
(0.753307 0.0887947 -6.56262e-20)
(0.976877 0.138727 3.63858e-19)
(1.14274 0.178722 -3.53727e-19)
(1.24487 0.203356 -1.46379e-19)
(1.29548 0.214564 1.91483e-20)
(1.31404 0.212328 1.53464e-19)
(0.0204355 -0.00276872 -1.31537e-19)
(0.135838 -0.00662317 4.72901e-20)
(0.324074 0.0133939 6.26143e-20)
(0.564593 0.0526146 -1.37039e-19)
(0.81628 0.105396 4.58395e-19)
(1.03058 0.156675 -3.8078e-19)
(1.18026 0.19478 6.19326e-20)
(1.26624 0.216302 -1.24238e-19)
(1.30469 0.224238 -1.29732e-19)
(1.31588 0.220172 1.88316e-19)
(0.0288426 -0.00380497 -1.14418e-19)
(0.163111 -0.00608982 -1.59712e-19)
(0.370532 0.0198093 4.29367e-20)
(0.624149 0.0660811 3.03182e-19)
(0.876131 0.123358 -3.18979e-19)
(1.07878 0.175003 2.0731e-19)
(1.21191 0.210598 8.21553e-20)
(1.28284 0.228813 1.29796e-19)
(1.31072 0.233586 -4.29279e-19)
(1.31586 0.227853 -1.4019e-11)
(0.0382315 -0.00450467 -1.86717e-20)
(0.192461 -0.00431584 5.76343e-20)
(0.418734 0.0282629 -1.82188e-19)
(0.683087 0.0815648 -2.48786e-19)
(0.932208 0.142463 2.90819e-19)
(1.12143 0.193555 -3.5738e-19)
(1.23815 0.226139 1.26258e-20)
(1.2953 0.240935 6.16696e-20)
(1.31411 0.242683 3.30934e-19)
(1.31435 0.235441 -3.59696e-12)
(0.0485974 -0.00478757 -1.20363e-20)
(0.223711 -0.00113293 6.21971e-20)
(0.468133 0.0388386 -1.43194e-19)
(0.740616 0.0989312 2.07272e-19)
(0.984037 0.162507 7.69486e-21)
(1.15863 0.212209 1.77894e-19)
(1.25944 0.241387 -1.74e-19)
(1.30418 0.252723 3.27713e-21)
(1.31534 0.251602 -1.8324e-19)
(1.31163 0.242988 -6.73585e-20)
(0.0599175 -0.00457182 1.42418e-20)
(0.256631 0.00361303 -4.78808e-20)
(0.518142 0.0515719 -1.84021e-20)
(0.796028 0.118019 -4.89642e-20)
(1.0313 0.183302 -1.5656e-19)
(1.19057 0.230869 -1.31621e-20)
(1.27627 0.256343 1.83128e-19)
(1.30999 0.264231 -1.27127e-19)
(1.31475 0.260399 1.9499e-19)
(1.30791 0.250533 -1.7131e-19)
(0.0721492 -0.00377587 -6.12272e-20)
(0.29094 0.0100556 -1.15818e-19)
(0.568154 0.0664496 1.89864e-19)
(0.848714 0.138649 -1.45913e-20)
(1.07384 0.204682 -4.39043e-21)
(1.21752 0.249462 7.90772e-20)
(1.28912 0.27102 -5.4957e-20)
(1.31316 0.275511 1.95253e-19)
(1.31265 0.269121 -2.69971e-20)
(1.30334 0.258095 1.56891e-19)
(0.0852301 -0.00232061 1.5193e-20)
(0.326314 0.0183018 2.33394e-20)
(0.617562 0.083414 -5.47579e-20)
(0.898173 0.160638 -1.30224e-19)
(1.11159 0.226498 -3.54469e-20)
(1.23981 0.267935 -3.20061e-20)
(1.29841 0.285435 6.00099e-20)
(1.31407 0.286605 -9.27794e-20)
(1.30926 0.277802 3.86137e-20)
(1.29802 0.265685 -2.63272e-20)
(0.0990779 -0.000131656 8.68675e-21)
(0.362395 0.0284276 9.98501e-20)
(0.665788 0.102368 5.46319e-20)
(0.944015 0.183798 5.04969e-20)
(1.14458 0.248616 -1.28024e-20)
(1.25775 0.286243 -4.03362e-20)
(1.30454 0.299606 -7.09392e-20)
(1.31302 0.297547 -1.7119e-20)
(1.30476 0.286462 -1.03286e-19)
(1.29203 0.2733 -3.49621e-20)
(0.113591 0.00285825 -4.88388e-20)
(0.398797 0.040474 -2.55357e-20)
(0.712291 0.123183 -5.03881e-20)
(0.985949 0.207944 7.78676e-21)
(1.17292 0.270918 9.52774e-20)
(1.27167 0.304352 4.88956e-20)
(1.30786 0.313548 -3.54046e-20)
(1.31026 0.308361 -6.85067e-21)
(1.29927 0.295109 3.46335e-20)
(1.28541 0.28093 2.234e-20)
(0.128649 0.0067069 3.43211e-20)
(0.435117 0.0544456 -8.07e-21)
(0.756585 0.145703 3.06503e-20)
(1.02378 0.232895 1.20976e-20)
(1.19677 0.293294 -1.91716e-20)
(1.2819 0.322234 -3.27369e-20)
(1.30867 0.327272 6.81996e-21)
(1.30599 0.31906 2.43497e-21)
(1.2929 0.303743 4.39538e-20)
(1.2782 0.288554 -6.75413e-21)
(0.144119 0.0114604 3.13556e-20)
(0.470951 0.0703102 -7.89621e-21)
(0.798246 0.169751 3.21097e-20)
(1.05739 0.258472 9.7376e-21)
(1.21629 0.315645 -2.01258e-20)
(1.28874 0.339859 -3.17113e-20)
(1.30724 0.340782 9.11058e-21)
(1.30038 0.329647 -1.01733e-21)
(1.28571 0.312349 4.41149e-20)
(1.27043 0.296147 -4.65615e-21)
(0.15985 0.0171514 -7.94831e-20)
(0.505899 0.0880004 -2.24906e-20)
(0.836915 0.195136 -4.55816e-20)
(1.08672 0.284505 -1.3739e-21)
(1.23171 0.337878 1.05112e-19)
(1.29247 0.3572 2.01596e-20)
(1.30379 0.354073 -1.14743e-20)
(1.29354 0.340115 -2.40088e-21)
(1.27774 0.320907 1.61537e-20)
(1.26209 0.303679 3.31913e-20)
(0.175683 0.0237972 7.44261e-21)
(0.539576 0.107415 1.11654e-19)
(0.872296 0.221655 5.49078e-20)
(1.11178 0.310823 4.11841e-20)
(1.24322 0.359902 -8.95465e-21)
(1.29333 0.374225 -2.44055e-20)
(1.29851 0.367133 -8.92179e-20)
(1.28559 0.350446 4.93054e-21)
(1.26903 0.329387 -7.59726e-20)
(1.25319 0.311116 -1.73173e-20)
(0.191452 0.0313989 -2.46548e-20)
(0.57162 0.128423 8.42775e-20)
(0.904159 0.249096 -6.82184e-20)
(1.13261 0.337264 -1.57783e-19)
(1.25104 0.381632 3.09767e-20)
(1.29156 0.3909 -7.31997e-20)
(1.29155 0.379942 5.1478e-20)
(1.27658 0.360615 -6.51685e-20)
(1.2596 0.337756 2.58778e-20)
(1.24375 0.31842 -1.36176e-21)
(0.206986 0.0399408 4.04499e-20)
(0.6017 0.150867 -2.23548e-19)
(0.932331 0.277244 1.84196e-19)
(1.1493 0.363668 9.06452e-20)
(1.25538 0.402982 -9.99699e-20)
(1.28736 0.407186 1.34781e-19)
(1.28306 0.392471 -6.04013e-20)
(1.26658 0.37059 1.97703e-19)
(1.24946 0.345969 -3.16692e-20)
(1.23378 0.325551 5.90079e-20)
(0.222114 0.0493902 1.19318e-19)
(0.629522 0.174566 -1.4282e-19)
(0.956694 0.30588 -1.33067e-19)
(1.16194 0.389877 2.10436e-20)
(1.25645 0.423869 -1.0328e-19)
(1.28092 0.423037 -5.29772e-20)
(1.27312 0.404685 1.81217e-19)
(1.25563 0.380328 -1.10892e-19)
(1.23864 0.353978 1.24453e-19)
(1.22328 0.332462 -7.53201e-20)
(0.236668 0.059698 6.38354e-20)
(0.654826 0.19932 1.54516e-19)
(0.977179 0.334784 -2.2787e-19)
(1.17068 0.415739 1.65143e-19)
(1.25445 0.444208 6.74347e-21)
(1.27239 0.438407 1.9557e-19)
(1.26184 0.416543 -1.41538e-19)
(1.24376 0.389784 -5.98587e-20)
(1.22712 0.361726 -1.21156e-19)
(1.21222 0.3391 1.65204e-20)
(0.250487 0.0707993 2.33245e-19)
(0.677398 0.224916 -1.11069e-19)
(0.99376 0.363737 -9.34749e-20)
(1.17564 0.441106 -3.06395e-19)
(1.24956 0.463913 2.09164e-19)
(1.26193 0.453241 -2.41211e-19)
(1.2493 0.427998 3.06148e-21)
(1.23102 0.398914 -3.6725e-20)
(1.21491 0.369171 2.15448e-19)
(1.20049 0.345421 -2.86935e-20)
(0.263416 0.0826145 -2.54776e-19)
(0.697061 0.251128 -2.28955e-19)
(1.00645 0.392524 4.45852e-20)
(1.177 0.465832 2.91429e-19)
(1.24197 0.4829 -3.2921e-19)
(1.24966 0.46748 1.93939e-19)
(1.23557 0.438997 1.91837e-19)
(1.21742 0.407671 1.91442e-20)
(1.20203 0.376307 -2.54171e-19)
(1.18801 0.351415 -4.97362e-20)
(0.275315 0.0950513 1.17754e-19)
(0.713679 0.277722 7.13652e-21)
(1.01529 0.420932 8.26187e-20)
(1.1749 0.489776 -1.20238e-19)
(1.23185 0.501082 2.81103e-19)
(1.23571 0.481062 -2.31569e-19)
(1.2207 0.449479 3.64057e-21)
(1.20301 0.41599 -7.54045e-21)
(1.18853 0.383145 -1.33846e-19)
(1.17489 0.357113 1.32343e-19)
(0.286056 0.108006 8.45794e-20)
(0.72716 0.304462 9.29601e-20)
(1.02037 0.448752 3.00452e-19)
(1.16953 0.512801 -1.09962e-19)
(1.21936 0.518372 -1.2269e-19)
(1.22019 0.493924 3.316e-19)
(1.20475 0.459385 -2.032e-19)
(1.18778 0.423791 -9.7659e-20)
(1.17437 0.389595 5.1846e-20)
(1.16141 0.362363 -2.38543e-20)
(0.295524 0.121363 1.41828e-19)
(0.737448 0.33111 3.55282e-19)
(1.02177 0.475783 1.44708e-19)
(1.16105 0.534773 2.14361e-19)
(1.20466 0.534684 -3.08536e-20)
(1.20318 0.505999 5.44537e-20)
(1.18778 0.468659 -3.98153e-20)
(1.17181 0.431045 -9.65781e-20)
(1.15952 0.395536 1.40791e-19)
(1.14755 0.367175 8.43008e-20)
(0.303625 0.135003 -4.24398e-19)
(0.744523 0.357431 9.03462e-21)
(1.01963 0.501831 -6.49834e-19)
(1.14963 0.555565 6.63075e-20)
(1.1879 0.549935 1.55008e-19)
(1.1848 0.517217 4.48968e-20)
(1.16986 0.477225 2.71763e-19)
(1.15515 0.437708 3.0031e-19)
(1.14401 0.400926 7.51603e-20)
(1.13324 0.371453 -6.62255e-20)
(0.31028 0.148796 -1.03243e-19)
(0.748396 0.383194 3.76262e-20)
(1.01407 0.526707 5.27953e-20)
(1.13547 0.575054 6.14687e-20)
(1.16923 0.564038 -1.8733e-19)
(1.16515 0.527504 -1.06275e-19)
(1.15106 0.48502 -3.40879e-19)
(1.13778 0.443716 -1.72168e-19)
(1.12793 0.405725 4.31863e-20)
(1.11849 0.375156 -3.45755e-20)
(0.31543 0.162612 2.88431e-19)
(0.749111 0.408174 -4.80873e-19)
(1.00525 0.550234 2.04531e-19)
(1.11875 0.593122 9.64778e-20)
(1.14879 0.576908 2.99405e-19)
(1.14431 0.536791 -1.092e-19)
(1.13141 0.491978 6.94759e-20)
(1.11973 0.44901 1.12122e-19)
(1.1113 0.409881 -2.82022e-20)
(1.10331 0.378237 -4.00892e-20)
(0.319034 0.176317 2.25166e-19)
(0.746739 0.432157 -2.07359e-19)
(0.993356 0.572244 1.54151e-19)
(1.09963 0.609657 -2.45968e-19)
(1.12672 0.588463 -3.578e-19)
(1.12239 0.545004 -5.79365e-20)
(1.11097 0.498038 1.29227e-19)
(1.10107 0.453535 -7.97043e-20)
(1.09415 0.413348 -6.52864e-20)
(1.08772 0.380656 6.76614e-20)
(0.321067 0.189778 2.51555e-19)
(0.74138 0.454937 6.81816e-19)
(0.978582 0.59259 -2.57714e-19)
(1.07829 0.624546 -2.23139e-19)
(1.10316 0.598627 6.47272e-20)
(1.09946 0.552074 1.25871e-19)
(1.08982 0.503137 -1.01014e-19)
(1.08184 0.457238 1.95375e-20)
(1.07652 0.416076 1.42025e-20)
(1.07176 0.382372 1.63722e-20)
(0.321525 0.202861 -1.4228e-19)
(0.733166 0.476315 -4.69744e-19)
(0.961125 0.611144 1.98768e-19)
(1.05487 0.637681 1.27738e-19)
(1.07825 0.607315 1.21683e-19)
(1.07563 0.557934 -1.49217e-20)
(1.06801 0.507215 1.48164e-19)
(1.06209 0.460069 -6.61756e-20)
(1.05845 0.418021 3.10031e-20)
(1.05549 0.383346 -1.56075e-20)
(0.320428 0.215439 -4.01344e-19)
(0.722262 0.49611 5.99107e-19)
(0.941098 0.627737 -2.44295e-19)
(1.0296 0.649006 1.62579e-19)
(1.05213 0.614446 1.66048e-19)
(1.05099 0.562522 -1.60865e-19)
(1.04562 0.510218 -3.08277e-20)
(1.04188 0.46198 3.9158e-20)
(1.03999 0.419136 -3.01401e-20)
(1.03897 0.383531 2.50854e-20)
(0.317817 0.227383 4.15456e-20)
(0.70884 0.51421 -3.50624e-19)
(0.918601 0.642177 -2.02493e-19)
(1.0027 0.658428 -1.38992e-19)
(1.02495 0.61997 -1.04615e-20)
(1.02563 0.565779 1.37861e-19)
(1.02272 0.512091 -2.04615e-20)
(1.02128 0.462927 -2.9001e-21)
(1.0212 0.419374 -1.66531e-21)
(1.02225 0.382868 4.44463e-20)
(0.313747 0.23855 -1.44802e-19)
(0.693023 0.530493 3.52282e-19)
(0.893907 0.654409 3.33593e-20)
(0.974373 0.665819 1.41161e-19)
(0.996842 0.623835 1.27672e-19)
(0.999663 0.567652 -1.21924e-19)
(0.999383 0.512788 1.41491e-20)
(1.00033 0.462869 2.66228e-20)
(1.00211 0.418681 -4.24981e-20)
(1.00537 0.381283 -1.19939e-19)
(0.308249 0.248788 6.81905e-20)
(0.674891 0.544743 -4.49876e-20)
(0.867372 0.664431 1.77101e-20)
(0.944789 0.671114 -6.42006e-20)
(0.967939 0.625984 -1.391e-19)
(0.973183 0.568092 1.07393e-20)
(0.975696 0.512265 1.38237e-20)
(0.979098 0.461769 -7.93283e-20)
(0.982793 0.417013 2.13608e-20)
(0.988488 0.378714 1.82815e-19)
(0.30135 0.257968 9.66564e-20)
(0.654655 0.556782 -1.27021e-19)
(0.839226 0.672135 -1.65967e-19)
(0.914117 0.674292 3.91869e-20)
(0.938378 0.626371 2.71151e-20)
(0.946291 0.567058 7.69889e-21)
(0.951725 0.510483 -2.50652e-20)
(0.957613 0.459583 3.16013e-20)
(0.963341 0.414325 3.54489e-20)
(0.97201 0.375172 -5.76098e-20)
(0.293184 0.265994 -3.71777e-19)
(0.632554 0.566487 -5.21909e-21)
(0.809629 0.677415 6.17748e-20)
(0.882534 0.675313 -8.13827e-21)
(0.908296 0.624956 5.83789e-22)
(0.919089 0.564513 5.67684e-20)
(0.92753 0.507408 -2.70518e-20)
(0.935916 0.456255 -7.43579e-20)
(0.943981 0.410528 1.79514e-19)
(0.956445 0.370752 1.32302e-19)
(0.283884 0.272858 2.39345e-19)
(0.608801 0.573792 9.72275e-20)
(0.778796 0.680186 -1.57244e-20)
(0.850221 0.674141 -2.34899e-20)
(0.87783 0.621711 2.73373e-20)
(0.891677 0.560432 -4.30069e-21)
(0.903172 0.503021 8.29738e-20)
(0.914093 0.451749 4.88359e-20)
(0.924996 0.405482 -3.23072e-19)
(0.941466 0.365193 -4.12898e-21)
(0.273511 0.278457 -2.51896e-20)
(0.583629 0.578638 -6.45822e-20)
(0.746946 0.680396 1.14815e-20)
(0.817359 0.670744 -2.40455e-20)
(0.847121 0.616612 -6.10455e-20)
(0.864157 0.554797 -1.05091e-19)
(0.878734 0.497316 -9.11549e-20)
(0.892307 0.44611 -9.43009e-20)
(0.906553 0.399345 3.78437e-19)
(0.925236 0.356065 6.85115e-20)
(0.262169 0.282711 -6.28954e-21)
(0.557264 0.580968 5.79301e-21)
(0.714302 0.678015 -2.60229e-20)
(0.784131 0.665105 5.93805e-20)
(0.816304 0.609644 9.74622e-20)
(0.836634 0.547594 6.73267e-20)
(0.854336 0.490274 5.65329e-20)
(0.870726 0.439341 1.31702e-19)
(0.888044 0.392994 -2.87421e-19)
(0.907246 0.350744 -5.06247e-19)
(0.249979 0.285561 -9.08904e-21)
(0.529927 0.580737 -3.86026e-20)
(0.681082 0.673027 -9.38828e-21)
(0.750714 0.657215 -5.65089e-20)
(0.785519 0.600801 -2.08949e-19)
(0.80922 0.538812 -3.65786e-20)
(0.830087 0.481875 1.65491e-19)
(0.849376 0.431355 -2.40294e-19)
(0.869436 0.385375 -5.42071e-20)
(0.889526 0.343351 1.57614e-19)
(0.237067 0.286957 3.59019e-20)
(0.501839 0.577915 7.42379e-20)
(0.647505 0.665429 8.6073e-20)
(0.717286 0.647076 6.7214e-20)
(0.7549 0.590084 2.42815e-19)
(0.782026 0.528449 1.17092e-19)
(0.806081 0.472121 -4.0587e-20)
(0.828275 0.422206 1.30115e-19)
(0.850876 0.376848 -1.25606e-19)
(0.872187 0.33559 -1.70691e-19)
(0.223564 0.286861 -7.787e-21)
(0.473223 0.572489 -1.52903e-20)
(0.613783 0.655231 4.66448e-20)
(0.684021 0.634701 2.4586e-20)
(0.724583 0.577502 -1.58879e-19)
(0.755162 0.516511 -3.46809e-19)
(0.782408 0.461016 -9.85847e-21)
(0.807478 0.411887 -9.77034e-20)
(0.832491 0.367321 3.12462e-19)
(0.855244 0.32702 5.69597e-19)
(0.2096 0.285248 2.70354e-20)
(0.444296 0.564461 -2.96614e-20)
(0.580127 0.642456 -1.10472e-19)
(0.651089 0.620113 -1.13373e-19)
(0.694703 0.563072 -1.5201e-19)
(0.728739 0.50301 1.7335e-19)
(0.759156 0.448571 -1.58187e-19)
(0.787056 0.400419 -8.20201e-20)
(0.814407 0.356836 6.6765e-20)
(0.838751 0.317647 -1.11938e-19)
(0.19531 0.282105 1.25731e-19)
(0.415277 0.553848 6.35014e-20)
(0.546743 0.627137 1.22632e-19)
(0.618658 0.603347 2.07375e-19)
(0.66539 0.546822 2.96606e-19)
(0.702865 0.487967 -1.87608e-20)
(0.736413 0.434802 -2.91873e-19)
(0.767088 0.387817 3.50136e-19)
(0.796716 0.345396 3.4224e-20)
(0.822742 0.307438 -6.27239e-19)
(0.180827 0.27743 -4.73212e-19)
(0.386378 0.540684 4.29986e-20)
(0.51383 0.609324 -9.18671e-20)
(0.586889 0.584446 7.48251e-20)
(0.636775 0.528785 -1.21386e-19)
(0.677645 0.471409 2.92662e-20)
(0.714268 0.419734 3.4548e-19)
(0.747653 0.374102 -1.81873e-19)
(0.779499 0.333011 9.18685e-20)
(0.807263 0.296388 4.77699e-19)
(0.166284 0.271232 6.87758e-19)
(0.357808 0.525016 -4.43814e-19)
(0.481582 0.589075 -1.61403e-19)
(0.55594 0.563462 -2.39307e-19)
(0.608982 0.509005 6.9978e-20)
(0.653185 0.45337 2.07157e-19)
(0.692808 0.403396 3.43278e-19)
(0.728827 0.359299 -1.00114e-19)
(0.762829 0.319696 -2.5315e-19)
(0.792355 0.284503 4.16344e-19)
(0.151812 0.263532 -2.4437e-19)
(0.329769 0.506905 -1.3966e-19)
(0.450187 0.56646 1.75457e-19)
(0.525961 0.54046 1.19093e-19)
(0.582133 0.487532 1.08983e-19)
(0.629583 0.433892 4.95251e-19)
(0.672118 0.385822 -6.98089e-19)
(0.710686 0.343438 2.12932e-19)
(0.746772 0.30547 5.4724e-19)
(0.778062 0.2718 -4.1873e-19)
(0.13754 0.254362 2.94782e-19)
(0.302455 0.486428 8.06493e-19)
(0.419824 0.541563 8.97557e-20)
(0.4971 0.515509 -4.00393e-19)
(0.556345 0.464426 -4.01098e-19)
(0.606939 0.413024 -5.58734e-20)
(0.652281 0.367055 5.44418e-19)
(0.693299 0.326553 -4.20591e-20)
(0.73139 0.290359 -4.10143e-19)
(0.764426 0.258304 -3.06424e-19)
(0.123592 0.243763 2.47429e-20)
(0.276055 0.463671 -6.23269e-19)
(0.390665 0.514477 -3.77749e-19)
(0.469495 0.488692 9.26377e-20)
(0.53173 0.439752 2.96125e-20)
(0.585345 0.390822 -4.19192e-19)
(0.633376 0.347142 -7.62308e-19)
(0.676738 0.308684 -4.94431e-19)
(0.716743 0.274394 2.06064e-19)
(0.751488 0.244045 -1.61191e-19)
(0.110088 0.231787 -2.94314e-19)
(0.250747 0.438736 3.81704e-19)
(0.362872 0.485305 2.70587e-19)
(0.443278 0.460098 1.77373e-19)
(0.508397 0.413585 3.06948e-19)
(0.564892 0.367346 -4.4198e-19)
(0.615479 0.326135 7.20941e-19)
(0.661065 0.289874 1.29065e-19)
(0.702887 0.257612 2.05398e-19)
(0.739288 0.22906 -2.91893e-19)
(0.0971448 0.218497 5.56398e-19)
(0.2267 0.411736 -2.82899e-20)
(0.336599 0.454159 4.47357e-19)
(0.418575 0.429823 -3.27727e-19)
(0.486446 0.386004 -2.0253e-19)
(0.545664 0.342664 3.34586e-20)
(0.598663 0.304091 -3.07871e-19)