/*--------------------------------*- C++ -*----------------------------------*\
  =========                 |
  \\      /  F ield         | OpenFOAM: The Open Source CFD Toolbox
   \\    /   O peration     | Website:  https://openfoam.org
    \\  /    A nd           | Version:  7
     \\/     M anipulation  |
\*---------------------------------------------------------------------------*/
FoamFile
{
    version     2.0;
    format      ascii;
    class       surfaceScalarField;
    location    "55";
    object      phi;
}
// * * * * * * * * * * * * * * * * * * * * * * * * * * * * * * * * * * * * * //

dimensions      [0 3 -1 0 0 0 0];

internalField   nonuniform List<scalar> 
10005
(
-5.28059e-05
9.76621e-06
-6.25721e-05
-0.000220741
1.03417e-05
-7.29138e-05
4.15802e-05
-0.00025198
9.54793e-05
-0.000476691
-0.000750403
1.09008e-05
-8.38146e-05
4.3628e-05
-0.000284707
9.97988e-05
-0.000532862
0.000181007
-0.000831612
-0.00118391
1.14404e-05
-9.52551e-05
4.55731e-05
-0.00031884
0.000103841
-0.00059113
0.0001876
-0.00091537
0.000297921
-0.00129423
-0.00172933
1.19563e-05
-0.000107211
4.73994e-05
-0.000354283
0.000107569
-0.0006513
0.000193553
-0.00100135
0.000306069
-0.00140674
0.000445218
-0.00186848
0.000610215
-0.00238598
-0.00295668
1.24437e-05
-0.000119655
4.90883e-05
-0.000390927
0.000110942
-0.000713154
0.000198796
-0.00108921
0.000312986
-0.00152093
0.000453143
-0.00200864
0.000617939
-0.00255078
0.000804867
-0.00314361
-0.00378106
1.28969e-05
-0.000132552
5.06191e-05
-0.000428649
0.000113916
-0.000776451
0.000203253
-0.00117854
0.000318561
-0.00163624
0.000458986
-0.00214907
0.000622658
-0.00271445
0.000806522
-0.00332747
0.00100629
-0.00398082
0.00121653
-0.00466487
-0.00536835
1.33101e-05
-0.000145862
5.197e-05
-0.000467309
0.000116445
-0.000840926
0.00020685
-0.00126895
0.000322687
-0.00175208
0.00046261
-0.00228899
0.000624216
-0.00287605
0.000803937
-0.0035072
0.000997066
-0.00417395
0.00119796
-0.00486577
0.00140038
-0.00557077
-0.00627626
0.00159786
1.36767e-05
-0.000159539
5.31188e-05
-0.000506751
0.000118483
-0.000906291
0.00020951
-0.00135998
0.00032526
-0.00186783
0.000463889
-0.00242762
0.000622479
-0.00303464
0.000796992
-0.00368171
0.000982373
-0.00435933
0.00117284
-0.00505623
0.00136231
-0.00576025
-0.00645876
0.00154482
1.39903e-05
-0.000173529
5.40428e-05
-0.000546804
0.000119985
-0.000972233
0.000211163
-0.00145115
0.000326186
-0.00198285
0.000462715
-0.00256415
0.000617345
-0.00318927
0.000785614
-0.00384998
0.000962196
-0.00453591
0.00114126
-0.0052353
0.00131696
-0.00593594
-0.00662567
0.00148386
1.42446e-05
-0.000187774
5.47206e-05
-0.00058728
0.000120907
-0.00103842
0.000211746
-0.00154199
0.000325385
-0.00209649
0.000459005
-0.00269777
0.000608745
-0.00333901
0.000769781
-0.00401101
0.00093659
-0.00470272
0.00110338
-0.00540209
0.0012646
-0.00609717
-0.00677649
0.00141543
1.44334e-05
-0.000202207
5.51317e-05
-0.000627978
0.000121213
-0.0011045
0.000211201
-0.00163198
0.00032279
-0.00220808
0.000452698
-0.00282767
0.000596648
-0.00348296
0.000749519
-0.00416388
0.000905672
-0.00485888
0.00105943
-0.00555585
0.00120563
-0.00624337
-0.00691091
0.00134006
1.45508e-05
-0.000216758
5.52578e-05
-0.000668685
0.000120867
-0.00117011
0.000209484
-0.0017206
0.000318354
-0.00231695
0.000443761
-0.00295308
0.000581063
-0.00362027
0.000724908
-0.00430773
0.000869622
-0.00500359
0.00100973
-0.00569595
0.00114049
-0.00637413
-0.00702874
0.00125831
1.45917e-05
-0.00023135
5.50826e-05
-0.000709176
0.000119842
-0.00123487
0.00020656
-0.00180732
0.000312049
-0.00242244
0.000432192
-0.00307323
0.000562037
-0.00375011
0.000696074
-0.00444177
0.00082867
-0.00513619
0.000954616
-0.0058219
0.00106964
-0.00648916
-0.0071299
0.0011708
1.45515e-05
-0.000245901
5.45928e-05
-0.000749218
0.000118118
-0.00129839
0.000202406
-0.0018916
0.000303864
-0.0025239
0.000418015
-0.00318738
0.000539654
-0.00387175
0.000663184
-0.0045653
0.000783092
-0.0052561
0.000894494
-0.0059333
0.000993629
-0.00658829
-0.00721444
0.00107817
1.44281e-05
-0.000260329
5.37818e-05
-0.000788571
0.000115684
-0.0013603
0.000197021
-0.00197294
0.00029382
-0.0026207
0.000401292
-0.00329485
0.000514042
-0.0039845
0.000626459
-0.00467771
0.000733214
-0.00536285
0.000829803
-0.00602989
0.000912992
-0.00667148
-0.0072825
0.000981054
1.42151e-05
-0.000274544
5.26353e-05
-0.000826991
0.000112524
-0.00142018
0.000190395
-0.00205081
0.000281932
-0.00271223
0.000382084
-0.003395
0.000485331
-0.00408775
0.000586115
-0.0047785
0.000679356
-0.00545609
0.000760969
-0.0061115
0.000828255
-0.00673876
-0.0073343
0.000880062
1.39121e-05
-0.000288456
5.11532e-05
-0.000864232
0.000108643
-0.00147767
0.000182551
-0.00212472
0.000268257
-0.00279794
0.000360503
-0.00348725
0.000453709
-0.00418095
0.000542432
-0.00486722
0.000621895
-0.00553555
0.000688464
-0.00617807
0.000739974
-0.00679028
-0.00737014
0.000775813
1.35178e-05
-0.000301974
4.93352e-05
-0.00090005
0.00010405
-0.00153239
0.000173518
-0.00219419
0.000252863
-0.00287728
0.000336676
-0.00357106
0.000419377
-0.00426366
0.0004957
-0.00494354
0.000561212
-0.00560107
0.000612752
-0.00622961
0.000648681
-0.0068262
-0.00739035
0.000668889
1.3032e-05
-0.000315006
4.71847e-05
-0.000934203
9.87605e-05
-0.00158396
0.000163339
-0.00225877
0.000235835
-0.00294978
0.000310748
-0.00364597
0.000382557
-0.00433546
0.000446225
-0.00500721
0.000497697
-0.00565254
0.000534295
-0.00626621
0.000554892
-0.0068468
-0.0073953
0.000559845
1.24553e-05
-0.000327462
4.47082e-05
-0.000966455
9.27972e-05
-0.00163205
0.000152067
-0.00231804
0.000217274
-0.00301499
0.000282882
-0.00371158
0.000343487
-0.00439607
0.000394324
-0.00505805
0.000431742
-0.00568996
0.000453545
-0.00628801
0.000459101
-0.00685236
-0.0073854
0.000449198
1.17894e-05
-0.000339251
4.19161e-05
-0.000996582
8.61895e-05
-0.00167633
0.000139764
-0.00237161
0.000197291
-0.00307251
0.000253255
-0.00376754
0.000302419
-0.00444523
0.000340324
-0.00509595
0.000363738
-0.00571337
0.000370944
-0.00629522
0.000361781
-0.00684319
-0.00736105
0.000337426
1.10369e-05
-0.000350288
3.88216e-05
-0.00102437
7.89732e-05
-0.00171648
0.000126503
-0.00241914
0.000176012
-0.00312202
0.000222057
-0.00381359
0.000259613
-0.00448279
0.000284554
-0.00512089
0.000294071
-0.00572289
0.000286908
-0.00628806
0.000263367
-0.00681965
-0.00732267
0.000224987
1.02012e-05
-0.000360489
3.54408e-05
-0.00104961
7.11897e-05
-0.00175223
0.000112365
-0.00246032
0.00015357
-0.00316323
0.000189486
-0.00384951
0.000215335
-0.00450864
0.000227346
-0.0051329
0.000223124
-0.00571866
0.000201843
-0.00626678
0.000164199
-0.00678201
-0.00727083
0.000112365
9.28657e-06
-0.000369776
3.17929e-05
-0.00107211
6.28851e-05
-0.00178332
9.74368e-05
-0.00249487
0.000130106
-0.0031959
0.000155745
-0.00387514
0.000169856
-0.00452275
0.000169033
-0.00513208
0.000151285
-0.00570092
0.000116197
-0.00623169
6.4584e-05
-0.00673039
-0.00720319
-3.0603e-06
8.29816e-06
-0.000378074
2.78989e-05
-0.00109171
5.41098e-05
-0.00180953
8.18113e-05
-0.00252257
0.000105767
-0.00321985
0.000121042
-0.00389042
0.000123447
-0.00452516
0.000109941
-0.00511858
7.89254e-05
-0.0056699
3.03582e-05
-0.00618312
-3.43234e-05
-0.00666571
-0.00712497
-0.000112544
7.24167e-06
-0.000385316
2.37822e-05
-0.00110825
4.49171e-05
-0.00183067
6.55844e-05
-0.00254324
8.07012e-05
-0.00323497
8.55843e-05
-0.0038953
7.63721e-05
-0.00451594
5.03882e-05
-0.00509259
6.38952e-06
-0.0056259
-5.53418e-05
-0.00612139
-0.000133123
-0.00658793
-0.00703402
-0.000224067
6.12344e-06
-0.000391439
1.94675e-05
-0.0011216
3.53627e-05
-0.00184656
4.88543e-05
-0.00255673
5.50586e-05
-0.00324117
4.95783e-05
-0.00388982
2.88947e-05
-0.00449526
-9.31597e-06
-0.00505438
-6.59802e-05
-0.00556924
-0.000140539
-0.00604683
-0.000231039
-0.00649743
-0.00693065
-0.00033441
4.95032e-06
-0.000396389
1.49807e-05
-0.00113163
2.55037e-05
-0.00185708
3.17198e-05
-0.00256294
2.89868e-05
-0.00323844
1.32254e-05
-0.00387406
-1.87329e-05
-0.0044633
-6.88738e-05
-0.00500424
-0.000137846
-0.00550027
-0.000224887
-0.00595979
-0.000327839
-0.00639448
-0.00681513
-0.000443366
3.72958e-06
-0.000400119
1.03483e-05
-0.00113825
1.53976e-05
-0.00186213
1.42786e-05
-0.00256182
2.63374e-06
-0.0032268
-2.32829e-05
-0.00384814
-6.62687e-05
-0.00442032
-0.000127992
-0.00494252
-0.000208878
-0.00541938
-0.000308036
-0.00586063
-0.000423192
-0.00627932
-0.00668764
-0.000550679
2.46954e-06
-0.000402588
5.59745e-06
-0.00114138
5.101e-06
-0.00186164
-3.37381e-06
-0.00255335
-2.38731e-05
-0.0032063
-5.97633e-05
-0.00381225
-0.000113483
-0.0043666
-0.000186397
-0.0048696
-0.000278753
-0.00532702
-0.000389631
-0.00574975
-0.000516759
-0.00615219
-0.0065483
-0.000656097
1.18176e-06
-0.00040377
7.51157e-07
-0.00114094
-5.33125e-06
-0.00185555
-2.11493e-05
-0.00253753
-5.03931e-05
-0.00317705
-9.60451e-05
-0.0037666
-0.000160168
-0.00430247
-0.000243833
-0.00478594
-0.000347161
-0.0052237
-0.000469305
-0.00562761
-0.000608181
-0.00601332
-0.00639711
-0.000759371
-1.79228e-07
-0.000403591
-4.16174e-06
-0.00113696
-1.58439e-05
-0.00184387
-3.8957e-05
-0.00251442
-7.68087e-05
-0.0031392
-0.000131975
-0.00371143
-0.000206135
-0.00422831
-0.000300074
-0.004692
-0.00041381
-0.00510996
-0.00054668
-0.00549474
-0.000697057
-0.00586294
-0.00623389
-0.000860274
-1.49275e-06
-0.000402098
-9.11123e-06
-0.00112934
-2.63863e-05
-0.0018266
-5.67169e-05
-0.00248409
-0.000103009
-0.00309291
-0.000167418
-0.00364703
-0.000251228
-0.0041445
-0.00035493
-0.0045883
-0.000478439
-0.00498645
-0.00062137
-0.00535181
-0.000782928
-0.00570138
-0.00605823
-0.000958597
-2.84803e-06
-0.00039925
-1.40793e-05
-0.00111811
-3.69088e-05
-0.00180377
-7.43532e-05
-0.00244664
-0.000128896
-0.00303837
-0.000202256
-0.00357367
-0.00029532
-0.00405144
-0.000408256
-0.00447536
-0.000540843
-0.00485386
-0.000693
-0.00519965
-0.000865208
-0.00552917
-0.00586955
-0.00105388
-4.20864e-06
-0.000395042
-1.90406e-05
-0.00110328
-4.73648e-05
-0.00177544
-9.17951e-05
-0.00240221
-0.000154377
-0.00297578
-0.000236392
-0.00349165
-0.000338316
-0.00394952
-0.000459969
-0.00435371
-0.000600899
-0.00471293
-0.000761194
-0.00503936
-0.000942805
-0.00534756
-0.00566664
-0.00114572
-5.56738e-06
-0.000389474
-2.39709e-05
-0.00108488
-5.77093e-05
-0.0017417
-0.000108976
-0.00235095
-0.000179372
-0.00290539
-0.000269741
-0.00340128
-0.000380157
-0.0038391
-0.000510068
-0.0042238
-0.000658667
-0.00456433
-0.000825749
-0.00487227
-0.00101437
-0.00515894
-0.00544572
-0.00123529
-6.91494e-06
-0.000382559
-2.88425e-05
-0.00106295
-6.78917e-05
-0.00170266
-0.000125823
-0.00229302
-0.000203791
-0.00282742
-0.000302215
-0.00330286
-0.000420786
-0.00372053
-0.000558614
-0.00408597
-0.000714535
-0.00440841
-0.000887395
-0.00469941
-0.00107496
-0.00497138
-0.00523878
-0.0012819
-8.24974e-06
-0.000374309
-3.3643e-05
-0.00103756
-7.78831e-05
-0.00165842
-0.00014229
-0.00222861
-0.000227575
-0.00274214
-0.000333749
-0.00319668
-0.000460157
-0.00359412
-0.000605647
-0.00394048
-0.000768854
-0.00424521
-0.000948458
-0.00451981
-0.00114323
-0.0047766
-0.0050261
-0.00135592
-9.56255e-06
-0.000364747
-3.83456e-05
-0.00100877
-8.76355e-05
-0.00160913
-0.000158307
-0.00215794
-0.000250634
-0.00264981
-0.000364235
-0.00308308
-0.000498139
-0.00346022
-0.000650975
-0.00378764
-0.000821255
-0.00407493
-0.00100765
-0.00433341
-0.00120928
-0.00457497
-0.00480862
-0.00142676
-1.08471e-05
-0.0003539
-4.29297e-05
-0.00097669
-9.71095e-05
-0.00155495
-0.000173815
-0.00208123
-0.000272891
-0.00255073
-0.000393577
-0.0029624
-0.000534604
-0.00331919
-0.0006944
-0.00362785
-0.000871358
-0.00389797
-0.00106409
-0.00414068
-0.00127168
-0.00436739
-0.0045864
-0.0014939
-1.20973e-05
-0.000341803
-4.73754e-05
-0.000941412
-0.000106268
-0.00149605
-0.000188761
-0.00199874
-0.000294277
-0.00244522
-0.000421689
-0.00283498
-0.000569448
-0.00317143
-0.000735788
-0.00346151
-0.000918984
-0.00371477
-0.00111757
-0.0039421
-0.00133051
-0.00415444
-0.0043597
-0.0015572
-1.33074e-05
-0.000328495
-5.16646e-05
-0.000903055
-0.000115078
-0.00143264
-0.000203095
-0.00191072
-0.000314727
-0.00233358
-0.0004485
-0.00270121
-0.000602593
-0.00301734
-0.00077506
-0.00328904
-0.000964061
-0.00352577
-0.00116805
-0.00373811
-0.00138593
-0.00393656
-0.00412873
-0.00161691
-1.4472e-05
-0.000314023
-5.57802e-05
-0.000861747
-0.000123507
-0.00136491
-0.000216772
-0.00181746
-0.000334189
-0.00221617
-0.00047395
-0.00256145
-0.000633981
-0.00285731
-0.000812167
-0.00311085
-0.00100657
-0.00333137
-0.00121559
-0.00352909
-0.00143807
-0.00371408
-0.00389362
-0.00167318
-1.55864e-05
-0.000298437
-5.97069e-05
-0.000817626
-0.000131529
-0.00129309
-0.000229755
-0.00171923
-0.000352618
-0.0020933
-0.000497992
-0.00241608
-0.00066357
-0.00269173
-0.000847082
-0.00292734
-0.0010465
-0.00313195
-0.0012602
-0.00331539
-0.00148702
-0.00348726
-0.00365451
-0.00172613
-1.6646e-05
-0.000281791
-6.34306e-05
-0.000770842
-0.000139118
-0.0012174
-0.000242008
-0.00161634
-0.000369972
-0.00196534
-0.000520586
-0.00226546
-0.000691326
-0.00252099
-0.000879785
-0.00273888
-0.00108387
-0.00292786
-0.00130193
-0.00309733
-0.00153284
-0.00325635
-0.00341153
-0.00177582
-1.76466e-05
-0.000264144
-6.69388e-05
-0.000721549
-0.000146252
-0.00113809
-0.000253503
-0.00150909
-0.000386219
-0.00183262
-0.0005417
-0.00210998
-0.000717224
-0.00234547
-0.000910262
-0.00254584
-0.00111867
-0.00271946
-0.0013408
-0.00287519
-0.00157557
-0.00302159
-0.00316484
-0.00182226
-1.85845e-05
-0.00024556
-7.02199e-05
-0.000669914
-0.000152911
-0.0010554
-0.000264211
-0.00139779
-0.000401328
-0.00169551
-0.000561305
-0.00195
-0.000741238
-0.00216553
-0.000938499
-0.00234858
-0.0011509
-0.00250705
-0.00137682
-0.00264928
-0.0016152
-0.00278321
-0.00291461
-0.00186543
-1.94564e-05
-0.000226103
-7.32636e-05
-0.000616107
-0.000159076
-0.000969587
-0.00027411
-0.00128276
-0.000415272
-0.00155434
-0.000579373
-0.0017859
-0.000763348
-0.00198156
-0.000964479
-0.00214745
-0.00118055
-0.00229098
-0.00140996
-0.00241987
-0.00165172
-0.00254145
-0.00266103
-0.0019053
-2.0259e-05
-0.000205844
-7.60605e-05
-0.000560305
-0.000164733
-0.000880914
-0.000283177
-0.00116431
-0.000428028
-0.00140949
-0.000595882
-0.00161805
-0.000783532
-0.00179391
-0.000988184
-0.0019428
-0.00120761
-0.00207155
-0.00144023
-0.00218725
-0.00168511
-0.00229658
-0.00240433
-0.0019418
-2.09896e-05
-0.000184855
-7.86022e-05
-0.000502693
-0.000169866
-0.00078965
-0.000291394
-0.00104278
-0.000439573
-0.00126131
-0.000610809
-0.00144682
-0.000801769
-0.00160295
-0.0010096
-0.00173497
-0.00123205
-0.00184909
-0.00146758
-0.00195172
-0.00171532
-0.00204884
-0.00214476
-0.00197489
-2.16456e-05
-0.000163209
-8.08809e-05
-0.000443457
-0.000174462
-0.000696069
-0.000298743
-0.000918504
-0.000449888
-0.00111017
-0.000624134
-0.00127257
-0.000818039
-0.00140904
-0.00102869
-0.00152432
-0.00125385
-0.00162393
-0.001492
-0.00171357
-0.00174231
-0.00179852
-0.00188258
-0.00200449
-2.22247e-05
-0.000140984
-8.289e-05
-0.000382792
-0.00017851
-0.000600449
-0.000305208
-0.000791806
-0.000458954
-0.000956423
-0.000635838
-0.00109569
-0.000832324
-0.00121255
-0.00104546
-0.00131119
-0.001273
-0.0013964
-0.00151345
-0.00147312
-0.00176605
-0.00154593
-0.00161807
-0.00203055
-2.27249e-05
-0.00011826
-8.46234e-05
-0.000320894
-0.000181999
-0.000503074
-0.000310776
-0.000663029
-0.000466756
-0.000800443
-0.000645904
-0.000916538
-0.000844605
-0.00101385
-0.00105987
-0.00109592
-0.00128945
-0.00116681
-0.0015319
-0.00123068
-0.00178648
-0.00129135
-0.00135155
-0.002053
-2.31445e-05
-9.51151e-05
-8.6076e-05
-0.000257962
-0.00018492
-0.00040423
-0.000315434
-0.000532515
-0.000473279
-0.000642598
-0.000654316
-0.000735501
-0.000854865
-0.000813304
-0.00107191
-0.000878878
-0.00130321
-0.000935515
-0.00154732
-0.000986565
-0.00180357
-0.0010351
-0.00108331
-0.0020718
-2.34819e-05
-7.16331e-05
-8.72433e-05
-0.000194201
-0.000187266
-0.000304207
-0.000319173
-0.000400608
-0.000478513
-0.000483258
-0.000661063
-0.000552951
-0.000863092
-0.000611275
-0.00108156
-0.000660409
-0.00131423
-0.000702843
-0.00155969
-0.000741106
-0.00181728
-0.00077751
-0.000813703
-0.00208689
-2.37361e-05
-4.7897e-05
-8.81219e-05
-0.000129815
-0.000189031
-0.000203298
-0.000321984
-0.000267654
-0.000482446
-0.000322796
-0.000666132
-0.000369265
-0.000869272
-0.000408134
-0.00108881
-0.000440868
-0.00132252
-0.000469138
-0.00156899
-0.000494635
-0.00182759
-0.000518906
-0.00054305
-0.00209825
-2.3906e-05
-2.3991e-05
-8.8709e-05
-6.50119e-05
-0.00019021
-0.000101797
-0.000323862
-0.000134002
-0.000485073
-0.000161585
-0.000669516
-0.000184822
-0.000873398
-0.000204253
-0.00109365
-0.000220613
-0.00132805
-0.000234742
-0.0015752
-0.000247487
-0.00183448
-0.000259623
-0.0002717
-0.00210583
-2.3991e-05
-9.4369e-14
-8.9003e-05
-2.38319e-13
-0.0001908
-3.43693e-13
-0.000324802
-4.15271e-13
-0.000486387
-4.63809e-13
-0.000671209
-5.0244e-13
-0.000875462
-5.42854e-13
-0.00109608
-5.91477e-13
-0.00133082
-6.46996e-13
-0.0015783
-7.0077e-13
-0.00183793
-7.40572e-13
-7.5449e-13
-0.00210963
-2.3991e-05
2.3991e-05
-8.9003e-05
6.50119e-05
-0.0001908
0.000101797
-0.000324802
0.000134002
-0.000486387
0.000161585
-0.000671209
0.000184822
-0.000875462
0.000204253
-0.00109608
0.000220613
-0.00133082
0.000234742
-0.0015783
0.000247487
-0.00183793
0.000259623
0.0002717
-0.00210963
-2.3906e-05
4.7897e-05
-8.8709e-05
0.000129815
-0.00019021
0.000203298
-0.000323862
0.000267654
-0.000485073
0.000322796
-0.000669516
0.000369265
-0.000873398
0.000408134
-0.00109365
0.000440868
-0.00132805
0.000469138
-0.0015752
0.000494635
-0.00183448
0.000518906
0.00054305
-0.00210583
-2.37361e-05
7.16331e-05
-8.81219e-05
0.000194201
-0.000189031
0.000304207
-0.000321984
0.000400608
-0.000482446
0.000483258
-0.000666132
0.000552951
-0.000869272
0.000611275
-0.00108881
0.000660409
-0.00132252
0.000702843
-0.00156899
0.000741106
-0.00182759
0.00077751
0.000813703
-0.00209825
-2.34819e-05
9.51151e-05
-8.72433e-05
0.000257962
-0.000187266
0.00040423
-0.000319173
0.000532515
-0.000478513
0.000642598
-0.000661063
0.000735501
-0.000863092
0.000813304
-0.00108156
0.000878878
-0.00131423
0.000935515
-0.00155969
0.000986565
-0.00181728
0.0010351
0.00108331
-0.00208689
-2.31445e-05
0.00011826
-8.6076e-05
0.000320894
-0.00018492
0.000503074
-0.000315434
0.000663029
-0.000473279
0.000800443
-0.000654316
0.000916538
-0.000854865
0.00101385
-0.00107191
0.00109592
-0.00130321
0.00116681
-0.00154732
0.00123068
-0.00180357
0.00129135
0.00135155
-0.0020718
-2.27249e-05
0.000140984
-8.46234e-05
0.000382792
-0.000181999
0.000600449
-0.000310776
0.000791806
-0.000466756
0.000956423
-0.000645904
0.00109569
-0.000844605
0.00121255
-0.00105987
0.00131119
-0.00128945
0.0013964
-0.0015319
0.00147312
-0.00178648
0.00154593
0.00161807
-0.002053
-2.22247e-05
0.000163209
-8.289e-05
0.000443457
-0.00017851
0.000696069
-0.000305208
0.000918504
-0.000458954
0.00111017
-0.000635838
0.00127257
-0.000832324
0.00140904
-0.00104546
0.00152432
-0.001273
0.00162393
-0.00151345
0.00171357
-0.00176605
0.00179852
0.00188258
-0.00203055
-2.16456e-05
0.000184855
-8.08809e-05
0.000502693
-0.000174462
0.00078965
-0.000298743
0.00104278
-0.000449888
0.00126131
-0.000624134
0.00144682
-0.000818039
0.00160295
-0.00102869
0.00173497
-0.00125385
0.00184909
-0.001492
0.00195172
-0.00174231
0.00204884
0.00214476
-0.00200449
-2.09896e-05
0.000205844
-7.86022e-05
0.000560305
-0.000169866
0.000880914
-0.000291394
0.00116431
-0.000439573
0.00140949
-0.000610809
0.00161805
-0.000801769
0.00179391
-0.0010096
0.0019428
-0.00123205
0.00207155
-0.00146758
0.00218725
-0.00171532
0.00229658
0.00240433
-0.00197489
-2.0259e-05
0.000226103
-7.60605e-05
0.000616107
-0.000164733
0.000969587
-0.000283177
0.00128276
-0.000428028
0.00155434
-0.000595882
0.0017859
-0.000783532
0.00198156
-0.000988184
0.00214745
-0.00120761
0.00229098
-0.00144023
0.00241987
-0.00168511
0.00254145
0.00266103
-0.0019418
-1.94564e-05
0.00024556
-7.32636e-05
0.000669914
-0.000159076
0.0010554
-0.00027411
0.00139779
-0.000415272
0.00169551
-0.000579373
0.00195
-0.000763348
0.00216553
-0.000964479
0.00234858
-0.00118055
0.00250705
-0.00140996
0.00264928
-0.00165172
0.00278321
0.00291461
-0.0019053
-1.85845e-05
0.000264144
-7.02199e-05
0.000721549
-0.000152911
0.00113809
-0.000264211
0.00150909
-0.000401328
0.00183262
-0.000561305
0.00210998
-0.000741238
0.00234547
-0.000938499
0.00254584
-0.0011509
0.00271946
-0.00137682
0.00287519
-0.0016152
0.00302159
0.00316484
-0.00186543
-1.76466e-05
0.000281791
-6.69388e-05
0.000770842
-0.000146252
0.0012174
-0.000253503
0.00161634
-0.000386219
0.00196534
-0.0005417
0.00226546
-0.000717224
0.00252099
-0.000910262
0.00273888
-0.00111867
0.00292786
-0.0013408
0.00309733
-0.00157557
0.00325635
0.00341153
-0.00182226
-1.6646e-05
0.000298437
-6.34306e-05
0.000817626
-0.000139118
0.00129309
-0.000242008
0.00171923
-0.000369972
0.0020933
-0.000520586
0.00241608
-0.000691326
0.00269173
-0.000879785
0.00292734
-0.00108387
0.00313195
-0.00130193
0.00331539
-0.00153284
0.00348726
0.00365451
-0.00177582
-1.55864e-05
0.000314023
-5.97069e-05
0.000861747
-0.000131529
0.00136491
-0.000229755
0.00181746
-0.000352618
0.00221617
-0.000497992
0.00256145
-0.00066357
0.00285731
-0.000847082
0.00311085
-0.0010465
0.00333137
-0.0012602
0.00352909
-0.00148702
0.00371408
0.00389362
-0.00172613
-1.4472e-05
0.000328495
-5.57802e-05
0.000903055
-0.000123507
0.00143264
-0.000216772
0.00191072
-0.000334189
0.00233358
-0.00047395
0.00270121
-0.000633981
0.00301734
-0.000812167
0.00328904
-0.00100657
0.00352577
-0.00121559
0.00373811
-0.00143807
0.00393656
0.00412873
-0.00167318
-1.33074e-05
0.000341803
-5.16646e-05
0.000941412
-0.000115078
0.00149605
-0.000203095
0.00199874
-0.000314727
0.00244522
-0.0004485
0.00283498
-0.000602593
0.00317143
-0.00077506
0.00346151
-0.000964061
0.00371477
-0.00116805
0.0039421
-0.00138593
0.00415444
0.0043597
-0.00161691
-1.20973e-05
0.0003539
-4.73754e-05
0.00097669
-0.000106268
0.00155495
-0.000188761
0.00208123
-0.000294277
0.00255073
-0.000421689
0.0029624
-0.000569448
0.00331919
-0.000735788
0.00362785
-0.000918984
0.00389797
-0.00111757
0.00414068
-0.00133051
0.00436739
0.0045864
-0.0015572
-1.08471e-05
0.000364747
-4.29297e-05
0.00100877
-9.71095e-05
0.00160913
-0.000173815
0.00215794
-0.000272891
0.00264981
-0.000393577
0.00308308
-0.000534604
0.00346022
-0.0006944
0.00378764
-0.000871358
0.00407493
-0.00106409
0.00433341
-0.00127168
0.00457497
0.00480862
-0.0014939
-9.56255e-06
0.000374309
-3.83456e-05
0.00103756
-8.76355e-05
0.00165842
-0.000158307
0.00222861
-0.000250634
0.00274214
-0.000364235
0.00319668
-0.000498139
0.00359412
-0.000650975
0.00394048
-0.000821255
0.00424521
-0.00100765
0.00451981
-0.00120928
0.0047766
0.0050261
-0.00142676
-8.24974e-06
0.000382559
-3.3643e-05
0.00106295
-7.78831e-05
0.00170266
-0.00014229
0.00229302
-0.000227575
0.00282742
-0.000333749
0.00330286
-0.000460157
0.00372053
-0.000605647
0.00408597
-0.000768854
0.00440841
-0.000948458
0.00469941
-0.00114323
0.00497138
0.00523878
-0.00135592
-6.91494e-06
0.000389474
-2.88425e-05
0.00108488
-6.78917e-05
0.0017417
-0.000125823
0.00235095
-0.000203791
0.00290539
-0.000302215
0.00340128
-0.000420786
0.0038391
-0.000558614
0.0042238
-0.000714535
0.00456433
-0.000887395
0.00487227
-0.00107496
0.00515894
0.00544572
-0.0012819
-5.56738e-06
0.000395042
-2.39709e-05
0.00110328
-5.77093e-05
0.00177544
-0.000108976
0.00240221
-0.000179372
0.00297578
-0.000269741
0.00349165
-0.000380157
0.00394952
-0.000510068
0.00435371
-0.000658667
0.00471293
-0.000825749
0.00503936
-0.00101437
0.00534756
0.00566664
-0.00123529
-4.20864e-06
0.00039925
-1.90406e-05
0.00111811
-4.73648e-05
0.00180377
-9.17951e-05
0.00244664
-0.000154377
0.00303837
-0.000236392
0.00357367
-0.000338316
0.00405144
-0.000459969
0.00447536
-0.000600899
0.00485386
-0.000761194
0.00519965
-0.000942805
0.00552917
0.00586955
-0.00114572
-2.84803e-06
0.000402098
-1.40793e-05
0.00112934
-3.69088e-05
0.0018266
-7.43532e-05
0.00248409
-0.000128896
0.00309291
-0.000202256
0.00364703
-0.00029532
0.0041445
-0.000408256
0.0045883
-0.000540843
0.00498645
-0.000693
0.00535181
-0.000865208
0.00570138
0.00605823
-0.00105388
-1.49275e-06
0.000403591
-9.11123e-06
0.00113696
-2.63863e-05
0.00184387
-5.67169e-05
0.00251442
-0.000103009
0.0031392
-0.000167418
0.00371143
-0.000251228
0.00422831
-0.00035493
0.004692
-0.000478439
0.00510996
-0.00062137
0.00549474
-0.000782928
0.00586294
0.00623389
-0.000958597
-1.79228e-07
0.00040377
-4.16174e-06
0.00114094
-1.58439e-05
0.00185555
-3.8957e-05
0.00253753
-7.68087e-05
0.00317705
-0.000131975
0.0037666
-0.000206135
0.00430247
-0.000300074
0.00478594
-0.00041381
0.0052237
-0.00054668
0.00562761
-0.000697057
0.00601332
0.00639711
-0.000860274
1.18176e-06
0.000402588
7.51157e-07
0.00114138
-5.33125e-06
0.00186164
-2.11493e-05
0.00255335
-5.03931e-05
0.0032063
-9.60451e-05
0.00381225
-0.000160168
0.0043666
-0.000243833
0.0048696
-0.000347161
0.00532702
-0.000469305
0.00574975
-0.000608181
0.00615219
0.0065483
-0.000759371
2.46954e-06
0.000400119
5.59745e-06
0.00113825
5.101e-06
0.00186213
-3.37381e-06
0.00256182
-2.38731e-05
0.0032268
-5.97633e-05
0.00384814
-0.000113483
0.00442032
-0.000186397
0.00494252
-0.000278753
0.00541938
-0.000389631
0.00586063
-0.000516759
0.00627932
0.00668764
-0.000656097
3.72958e-06
0.000396389
1.03483e-05
0.00113163
1.53976e-05
0.00185708
1.42786e-05
0.00256294
2.63374e-06
0.00323844
-2.32829e-05
0.00387406
-6.62687e-05
0.0044633
-0.000127992
0.00500424
-0.000208878
0.00550027
-0.000308036
0.00595979
-0.000423192
0.00639448
0.00681513
-0.000550679
4.95032e-06
0.000391439
1.49807e-05
0.0011216
2.55037e-05
0.00184656
3.17198e-05
0.00255673
2.89868e-05
0.00324117
1.32254e-05
0.00388982
-1.87329e-05
0.00449526
-6.88738e-05
0.00505438
-0.000137846
0.00556924
-0.000224887
0.00604683
-0.000327839
0.00649743
0.00693065
-0.000443366
6.12344e-06
0.000385316
1.94675e-05
0.00110825
3.53627e-05
0.00183067
4.88543e-05
0.00254324
5.50586e-05
0.00323497
4.95783e-05
0.0038953
2.88947e-05
0.00451594
-9.31597e-06
0.00509259
-6.59802e-05
0.0056259
-0.000140539
0.00612139
-0.000231039
0.00658793
0.00703402
-0.00033441
7.24167e-06
0.000378074
2.37822e-05
0.00109171
4.49171e-05
0.00180953
6.55844e-05
0.00252257
8.07012e-05
0.00321985
8.55843e-05
0.00389042
7.63721e-05
0.00452516
5.03882e-05
0.00511858
6.38952e-06
0.0056699
-5.53418e-05
0.00618312
-0.000133123
0.00666571
0.00712497
-0.000224067
8.29816e-06
0.000369776
2.78989e-05
0.00107211
5.41098e-05
0.00178332
8.18113e-05
0.00249487
0.000105767
0.0031959
0.000121042
0.00387514
0.000123447
0.00452275
0.000109941
0.00513208
7.89254e-05
0.00570092
3.03582e-05
0.00623169
-3.43234e-05
0.00673039
0.00720319
-0.000112544
9.28657e-06
0.000360489
3.17929e-05
0.00104961
6.28851e-05
0.00175223
9.74368e-05
0.00246032
0.000130106
0.00316323
0.000155745
0.00384951
0.000169856
0.00450864
0.000169033
0.0051329
0.000151285
0.00571866
0.000116197
0.00626678
6.4584e-05
0.00678201
0.00727083
-3.0603e-06
1.02012e-05
0.000350288
3.54408e-05
0.00102437
7.11897e-05
0.00171648
0.000112365
0.00241914
0.00015357
0.00312202
0.000189486
0.00381359
0.000215335
0.00448279
0.000227346
0.00512089
0.000223124
0.00572289
0.000201843
0.00628806
0.000164199
0.00681965
0.00732267
0.000112365
1.10369e-05
0.000339251
3.88216e-05
0.000996582
7.89732e-05
0.00167633
0.000126503
0.00237161
0.000176012
0.00307251
0.000222057
0.00376754
0.000259613
0.00444523
0.000284554
0.00509595
0.000294071
0.00571337
0.000286908
0.00629522
0.000263367
0.00684319
0.00736105
0.000224987
1.17894e-05
0.000327462
4.19161e-05
0.000966455
8.61895e-05
0.00163205
0.000139764
0.00231804
0.000197291
0.00301499
0.000253255
0.00371158
0.000302419
0.00439607
0.000340324
0.00505805
0.000363738
0.00568996
0.000370944
0.00628801
0.000361781
0.00685236
0.0073854
0.000337426
1.24553e-05
0.000315006
4.47082e-05
0.000934203
9.27972e-05
0.00158396
0.000152067
0.00225877
0.000217274
0.00294978
0.000282882
0.00364597
0.000343487
0.00433546
0.000394324
0.00500721
0.000431742
0.00565254
0.000453545
0.00626621
0.000459101
0.0068468
0.0073953
0.000449198
1.3032e-05
0.000301974
4.71847e-05
0.00090005
9.87605e-05
0.00153239
0.000163339
0.00219419
0.000235835
0.00287728
0.000310748
0.00357106
0.000382557
0.00426366
0.000446225
0.00494354
0.000497697
0.00560107
0.000534295
0.00622961
0.000554892
0.0068262
0.00739035
0.000559845
1.35178e-05
0.000288456
4.93352e-05
0.000864232
0.00010405
0.00147767
0.000173518
0.00212472
0.000252863
0.00279794
0.000336676
0.00348725
0.000419377
0.00418095
0.0004957
0.00486722
0.000561212
0.00553555
0.000612752
0.00617807
0.000648681
0.00679028
0.00737014
0.000668889
1.39121e-05
0.000274544
5.11532e-05
0.000826991
0.000108643
0.00142018
0.000182551
0.00205081
0.000268257
0.00271223
0.000360503
0.003395
0.000453709
0.00408775
0.000542432
0.0047785
0.000621895
0.00545609
0.000688464
0.0061115
0.000739974
0.00673876
0.0073343
0.000775813
1.42151e-05
0.000260329
5.26353e-05
0.000788571
0.000112524
0.0013603
0.000190395
0.00197294
0.000281932
0.0026207
0.000382084
0.00329485
0.000485331
0.0039845
0.000586115
0.00467771
0.000679356
0.00536285
0.000760969
0.00602989
0.000828255
0.00667148
0.0072825
0.000880062
1.44281e-05
0.000245901
5.37818e-05
0.000749218
0.000115684
0.00129839
0.000197021
0.0018916
0.00029382
0.0025239
0.000401292
0.00318738
0.000514042
0.00387175
0.000626459
0.0045653
0.000733214
0.0052561
0.000829803
0.0059333
0.000912992
0.00658829
0.00721444
0.000981054
1.45515e-05
0.00023135
5.45928e-05
0.000709176
0.000118118
0.00123487
0.000202406
0.00180732
0.000303864
0.00242244
0.000418015
0.00307323
0.000539654
0.00375011
0.000663184
0.00444177
0.000783092
0.00513619
0.000894494
0.0058219
0.000993629
0.00648916
0.0071299
0.00107817
1.45917e-05
0.000216758
5.50826e-05
0.000668685
0.000119842
0.00117011
0.00020656
0.0017206
0.000312049
0.00231695
0.000432192
0.00295308
0.000562037
0.00362027
0.000696074
0.00430773
0.00082867
0.00500359
0.000954616
0.00569595
0.00106964
0.00637413
0.00702874
0.0011708
1.45508e-05
0.000202207
5.52578e-05
0.000627978
0.000120867
0.0011045
0.000209484
0.00163198
0.000318354
0.00220808
0.000443761