/*--------------------------------*- C++ -*----------------------------------*\
  =========                 |
  \\      /  F ield         | OpenFOAM: The Open Source CFD Toolbox
   \\    /   O peration     | Website:  https://openfoam.org
    \\  /    A nd           | Version:  7
     \\/     M anipulation  |
\*---------------------------------------------------------------------------*/
FoamFile
{
    version     2.0;
    format      ascii;
    class       surfaceScalarField;
    location    "5";
    object      phi;
}
// * * * * * * * * * * * * * * * * * * * * * * * * * * * * * * * * * * * * * //

dimensions      [0 3 -1 0 0 0 0];

internalField   nonuniform List<scalar> 
25875
(
-1.63024e-06
1.63017e-06
6.26516e-11
-5.86038e-06
4.22997e-06
1.6848e-10
-1.22442e-05
6.38353e-06
2.58805e-10
-2.03538e-05
8.10929e-06
3.36062e-10
-2.97788e-05
9.42458e-06
4.05023e-10
-4.01312e-05
1.0352e-05
4.69869e-10
-5.10515e-05
1.09197e-05
5.33557e-10
-6.22161e-05
1.1164e-05
5.9762e-10
-7.33485e-05
1.11318e-05
6.62939e-10
-8.42329e-05
1.08836e-05
7.29989e-10
-9.4729e-05
1.04954e-05
7.97798e-10
-0.000104789
1.00593e-05
8.65756e-10
-0.000114468
9.678e-06
9.32427e-10
-0.000123914
9.44474e-06
9.96417e-10
9.51216e-06
1.05583e-09
-0.000133427
-1.61006e-06
3.24024e-06
-5.78211e-06
8.40202e-06
-1.20688e-05
1.26702e-05
-2.00404e-05
1.60808e-05
-2.92832e-05
1.86674e-05
-3.94054e-05
2.04742e-05
-5.00422e-05
2.15565e-05
-6.08638e-05
2.19855e-05
-7.1586e-05
2.1854e-05
-8.19842e-05
2.12819e-05
-9.19093e-05
2.04204e-05
-0.000101304
1.94541e-05
-0.000110215
1.85893e-05
-0.000118786
1.80151e-05
1.80389e-05
-0.000127312
-1.56996e-06
4.8102e-06
-5.62645e-06
1.24585e-05
-1.172e-05
1.87638e-05
-1.94166e-05
2.37774e-05
-2.82968e-05
2.75476e-05
-3.79607e-05
3.01381e-05
-4.80331e-05
3.1629e-05
-5.81716e-05
3.2124e-05
-6.8077e-05
3.17594e-05
-7.75076e-05
3.07124e-05
-8.62953e-05
2.92082e-05
-9.43649e-05
2.75236e-05
-0.000101747
2.59717e-05
-0.000108574
2.48415e-05
2.46001e-05
-0.000115135
-1.51044e-06
6.32064e-06
-5.39512e-06
1.63432e-05
-1.12012e-05
2.45699e-05
-1.84886e-05
3.10648e-05
-2.6829e-05
3.5888e-05
-3.58104e-05
3.91195e-05
-4.50426e-05
4.08612e-05
-5.41642e-05
4.12456e-05
-6.28536e-05
4.04489e-05
-7.08433e-05
3.87021e-05
-7.79375e-05
3.63024e-05
-8.40331e-05
3.36191e-05
-8.91371e-05
3.10757e-05
-9.33643e-05
2.90688e-05
2.82314e-05
-9.69957e-05
-1.4322e-06
7.75284e-06
-5.0906e-06
2.00016e-05
-1.05177e-05
2.9997e-05
-1.72652e-05
3.78123e-05
-2.48931e-05
4.35158e-05
-3.29738e-05
4.72002e-05
-4.10971e-05
4.89844e-05
-4.88769e-05
4.90254e-05
-5.59619e-05
4.75339e-05
-6.20504e-05
4.47906e-05
-6.69094e-05
4.11613e-05
-7.03985e-05
3.71082e-05
-7.2493e-05
3.31702e-05
-7.32852e-05
2.9861e-05
2.79851e-05
-7.3039e-05
-1.33614e-06
9.08898e-06
-4.71595e-06
2.33814e-05
-9.67588e-06
3.49569e-05
-1.57574e-05
4.38938e-05
-2.2506e-05
5.02644e-05
-2.94752e-05
5.41694e-05
-3.62302e-05
5.57395e-05
-4.23547e-05
5.51499e-05
-4.74608e-05
5.264e-05
-5.12041e-05
4.8534e-05
-5.33052e-05
4.32624e-05
-5.35769e-05
3.738e-05
-5.19543e-05
3.15475e-05
-4.85065e-05
2.64133e-05
2.29374e-05
-4.34588e-05
-1.22326e-06
1.03122e-05
-4.27469e-06
2.64328e-05
-8.68311e-06
3.93653e-05
-1.39777e-05
4.91885e-05
-1.96872e-05
5.59739e-05
-2.53427e-05
5.98249e-05
-3.0481e-05
6.08778e-05
-3.46502e-05
5.93191e-05
-3.74192e-05
5.5409e-05
-3.83933e-05
4.9508e-05
-3.72366e-05
4.21058e-05
-3.37053e-05
3.38486e-05
-2.76838e-05
2.55261e-05
-1.92256e-05
1.7955e-05
1.23947e-05
-8.68284e-06
-1.09464e-06
1.14069e-05
-3.7706e-06
2.91088e-05
-7.54735e-06
4.31421e-05
-1.194e-05
5.35811e-05
-1.64578e-05
6.04918e-05
-2.06069e-05
6.3974e-05
-2.38921e-05
6.4163e-05
-2.58212e-05
6.12483e-05
-2.5914e-05
5.55018e-05
-2.37172e-05
4.73112e-05
-1.88295e-05
3.72181e-05
-1.09391e-05
2.59581e-05
1.30986e-07
1.4456e-05
1.4388e-05
3.69797e-06
-4.71413e-06
3.14968e-05
-9.5136e-07
1.23582e-05
-3.20749e-06
3.13649e-05
-6.27668e-06
4.62113e-05
-9.65795e-06
5.69624e-05
-1.28394e-05
6.36732e-05
-1.52995e-05
6.64341e-05
-1.6508e-05
6.53714e-05
-1.59284e-05
6.06687e-05
-1.30262e-05
5.25995e-05
-7.28227e-06
4.15673e-05
1.77988e-06
2.8156e-05
1.45515e-05
1.31865e-05
3.12785e-05
-2.27099e-06
5.1997e-05
-1.70205e-05
-2.91451e-05
7.64279e-05
-7.94457e-07
1.31527e-05
-2.58901e-06
3.31595e-05
-4.87888e-06
4.85011e-05
-7.14528e-06
5.92288e-05
-8.85321e-06
6.53812e-05
-9.45157e-06
6.70325e-05
-8.3725e-06
6.42923e-05
-5.03249e-06
5.73287e-05
1.16227e-06
4.64047e-05
1.08027e-05
3.19269e-05
2.445e-05
1.45087e-05
4.25871e-05
-4.95061e-06
6.55439e-05
-2.52278e-05
9.34114e-05
-4.4888e-05
-6.16168e-05
0.000125883
-6.24843e-07
1.37775e-05
-1.91847e-06
3.44531e-05
-3.36108e-06
4.99437e-05
-4.41439e-06
6.02821e-05
-4.51881e-06
6.54856e-05
-3.09211e-06
6.56058e-05
4.72728e-07
6.07275e-05
6.80864e-06
5.09928e-05
1.65717e-05
3.66417e-05
3.04303e-05
1.80683e-05
4.90389e-05
-4.09982e-06
7.2985e-05
-2.88967e-05
0.0001027
-5.49424e-05
0.00013834
-8.05284e-05
-0.000102852
0.000179575
-4.43268e-07
1.42208e-05
-1.19865e-06
3.52085e-05
-1.72943e-06
5.04745e-05
-1.47614e-06
6.00288e-05
1.46573e-07
6.38629e-05
3.75306e-06
6.19993e-05
9.99053e-06
5.449e-05
1.95424e-05
4.14409e-05
3.31288e-05
2.30552e-05
5.14994e-05
-3.02247e-07
7.54092e-05
-2.80096e-05
0.000105564
-5.90515e-05
0.000142515
-9.18932e-05
0.000186505
-0.000124518
-0.000153538
0.00023719
-2.50302e-07
1.44711e-05
-4.31683e-07
3.53899e-05
1.16824e-08
5.00312e-05
1.66068e-06
5.83798e-05
5.12866e-06
6.03949e-05
1.10626e-05
5.60654e-05
2.01497e-05
4.54028e-05
3.3124e-05
2.84667e-05
5.07696e-05
5.40963e-06
7.39189e-05
-2.34515e-05
0.000103433
-5.75242e-05
0.00014015
-9.57678e-05
0.000184762
-0.000136505
0.000237627
-0.000177383
-0.000214297
0.000298386
-4.63346e-08
1.45174e-05
3.80702e-07
3.49628e-05
1.85732e-06
4.85546e-05
4.98926e-06
5.52478e-05
1.04167e-05
5.49675e-05
1.88199e-05
4.76622e-05
3.09261e-05
3.32966e-05
4.7518e-05
1.18747e-05
6.94422e-05
-1.65146e-05
9.76126e-05
-5.16219e-05
0.000133
-9.29112e-05
0.000176582
-0.00013935
0.000229222
-0.000189146
0.000291431
-0.000239592
-0.000285746
0.00036288
1.68577e-07
1.43489e-05
1.23783e-06
3.38936e-05
3.80649e-06
4.59859e-05
8.50521e-06
5.05491e-05
1.60031e-05
4.74696e-05
2.70136e-05
3.66517e-05
4.23027e-05
1.80075e-05
6.26998e-05
-8.52232e-06
8.91094e-05
-4.29242e-05
0.000122522
-8.50348e-05
0.000164016
-0.000134405
0.000214719
-0.000190053
0.000275689
-0.000250116
0.000347642
-0.000311546
-0.000368438
0.000430335
3.94345e-07
1.39545e-05
2.13923e-06
3.21487e-05
5.85728e-06
4.22678e-05
1.22056e-05
4.42008e-05
2.1883e-05
3.77922e-05
3.56363e-05
2.28984e-05
5.42693e-05
-6.25509e-07
7.86545e-05
-3.29075e-05
0.000109749
-7.40183e-05
0.000148611
-0.000123897
0.000196417
-0.000182211
0.000254445
-0.000248081
0.000323974
-0.000319645
0.00040599
-0.000393562
-0.000462872
0.000500424
6.3113e-07
1.33234e-05
3.08478e-06
2.96951e-05
8.00888e-06
3.73437e-05
1.60883e-05
3.61214e-05
2.80529e-05
2.58276e-05
4.46834e-05
6.26794e-06
6.68203e-05
-2.27624e-05
9.53759e-05
-6.14631e-05
0.000131351
-0.000109994
0.000175862
-0.000168407
0.000230165
-0.000236514
0.000295679
-0.000313595
0.000373918
-0.000397884
0.000466216
-0.00048586
-0.000569476
0.000572819
8.79058e-07
1.24443e-05
4.07437e-06
2.64997e-05
1.02604e-05
3.11577e-05
2.01513e-05
2.62305e-05
3.45093e-05
1.14696e-05
5.41503e-05
-1.33731e-05
7.99514e-05
-4.85635e-05
0.000112862
-9.43736e-05
0.00015392
-0.000151052
0.000204279
-0.000218767
0.000265257
-0.000297492
0.000338383
-0.000386721
0.000425406
-0.000484907
0.000528081
-0.000588535
-0.000688578
0.000647183
1.13818e-06
1.13061e-05
5.10754e-06
2.25304e-05
1.261e-05
2.36553e-05
2.43907e-05
1.44497e-05
4.12462e-05
-5.38596e-06
6.40294e-05
-3.61562e-05
9.36553e-05
-7.81894e-05
0.000131109
-0.000131827
0.000177458
-0.000197401
0.000233881
-0.00027519
0.00030172
-0.000365331
0.000382572
-0.000467572
0.000478383
-0.000580718
0.000591389
-0.000701541
-0.000820365
0.000723177
1.40837e-06
9.89777e-06
6.18312e-06
1.77556e-05
1.50544e-05
1.4784e-05
2.87999e-05
7.04268e-07
4.82528e-05
-2.48389e-05
7.43058e-05
-6.22093e-05
0.000107915
-0.000111798
0.000150101
-0.000174014
0.000201962
-0.000249262
0.000264686
-0.000337914
0.000339606
-0.000440251
0.000428319
-0.000556285
0.000532889
-0.000685288
0.000656024
-0.000824677
-0.000964813
0.000800472
1.6892e-06
8.20858e-06
7.29891e-06
1.21459e-05
1.75878e-05
4.49511e-06
3.33677e-05
-1.50756e-05
5.55108e-05
-4.6982e-05
8.4953e-05
-9.16516e-05
0.000122696
-0.000149541
0.000169803
-0.000221122
0.000227404
-0.000306862
0.000296694
-0.000407204
0.000378972
-0.000522529
0.000475757
-0.00065307
0.000589093
-0.000798624
0.000722029
-0.000957613
-0.00112158
0.000878793
1.97991e-06
6.22867e-06
8.45143e-06
5.67441e-06
2.02018e-05
-7.25524e-06
3.80776e-05
-3.29514e-05
6.29924e-05
-7.18967e-05
9.5929e-05
-0.000124588
0.00013794
-0.000191552
0.000190142
-0.000273324
0.000253708
-0.000370429
0.000329854
-0.00048335
0.000419839
-0.000612514
0.000525047
-0.000758278
0.000647316
-0.000920893
0.000789705
-0.0011
-0.00128992
0.000958049
2.27934e-06
3.94933e-06
9.63581e-06
-1.68206e-06
2.28844e-05
-2.05039e-05
4.29069e-05
-5.29739e-05
7.06589e-05
-9.96488e-05
0.000107173
-0.000161102
0.000153559
-0.000237937
0.000210998
-0.000330762
0.000280728
-0.000440159
0.00036402
-0.000566643
0.000462138
-0.000710632
0.000576333
-0.000872473
0.000708052
-0.00105261
0.000859708
-0.00125166
-0.00146899
0.00103878
2.58598e-06
1.36334e-06
1.08459e-05
-9.94198e-06
2.5621e-05
-3.5279e-05
4.7827e-05
-7.51798e-05
7.84609e-05
-0.000130283
0.000118606
-0.000201247
0.000169431
-0.000288763
0.000232191
-0.000393523
0.000308218
-0.000516186
0.000398897
-0.000657321
0.000505614
-0.000817349
0.000629684
-0.000996543
0.000772217
-0.00119514
0.000933722
-0.00141316
-0.0016579
0.00112263
2.89804e-06
-1.5347e-06
1.20745e-05
-1.91184e-05
2.83944e-05
-5.15989e-05
5.28043e-05
-9.95898e-05
8.63395e-05
-0.000163818
0.000130129
-0.000245037
0.0001854
-0.000344034
0.000253484
-0.000461606
0.000335819
-0.000598521
0.000433965
-0.000755467
0.000549611
-0.000932995
0.000684625
-0.00113156
0.000840949
-0.00135147
0.00101805
-0.00159026
-0.00185013
0.00121027
3.21365e-06
-4.74835e-06
1.33141e-05
-2.92188e-05
3.11863e-05
-6.94711e-05
5.78032e-05
-0.000126207
9.42313e-05
-0.000200246
0.000141637
-0.000292442
0.000201293
-0.00040369
0.00027459
-0.000534904
0.000363062
-0.000686993
0.000468436
-0.000860841
0.000592763
-0.00105732
0.000738732
-0.00127753
0.000910586
-0.00152332
0.00111895
-0.00179863
-0.00213174
0.00140057
3.53077e-06
-8.27912e-06
1.45565e-05
-4.02446e-05
3.39775e-05
-8.88922e-05
6.27859e-05
-0.000155015
0.00010207
-0.00023953
0.000153018
-0.000343391
0.000216928
-0.000467599
0.000295215
-0.000613191
0.000389448
-0.000781226
0.000501409
-0.000972802
0.00063325
-0.00118916
0.000787799
-0.00143207
0.000969246
-0.00170477
0.00118482
-0.0020142
-0.00238313
0.00143622
3.84766e-06
-1.21268e-05
1.57946e-05
-5.21915e-05
3.67507e-05
-0.000109848
6.77187e-05
-0.000185983
0.000109796
-0.000281607
0.000164175
-0.00039777
0.000232147
-0.000535572
0.000315111
-0.000696155
0.000414587
-0.000880702
0.000532264
-0.00109048
0.000670085
-0.00132698
0.000830349
-0.00159234
0.00101574
-0.00189017
0.00122887
-0.00222733
-0.00261903
0.00146477
4.16281e-06
-1.62896e-05
1.7022e-05
-6.50507e-05
3.94903e-05
-0.000132317
7.2571e-05
-0.000219064
0.000117356
-0.000326392
0.000175023
-0.000455436
0.000246826
-0.000607375
0.000334097
-0.000783426
0.000438239
-0.000984843
0.000560727
-0.00121297
0.000703108
-0.00146936
0.000866913
-0.00175614
0.00105331
-0.00207656
0.00126206
-0.00243609
-0.00284404
0.00148707
4.47501e-06
-2.07646e-05
1.82333e-05
-7.8809e-05
4.21829e-05
-0.000156266
7.73174e-05
-0.000254198
0.000124709
-0.000373784
0.000185496
-0.000516224
0.000260872
-0.000682751
0.00035206
-0.000874613
0.000460288
-0.00109307
0.000586753
-0.00133943
0.000732533
-0.00161514
0.000898405
-0.00192201
0.00108438
-0.00226253
0.00128871
-0.00264042
-0.00306076
0.00150543
4.78334e-06
-2.55479e-05
1.94241e-05
-9.34497e-05
4.48176e-05
-0.00018166
8.19368e-05
-0.000291317
0.000131819
-0.000423666
0.000195546
-0.000579951
0.000274222
-0.000761426
0.000368931
-0.000969323
0.000480695
-0.00120484
0.000610395
-0.00146913
0.000758648
-0.0017634
0.000925579
-0.00208894
0.00111037
-0.00244733
0.00131054
-0.00284059
-0.00327084
0.00152061
5.08705e-06
-3.0635e-05
2.05907e-05
-0.000108953
4.7385e-05
-0.000208454
8.64112e-05
-0.000330344
0.000138658
-0.000475912
0.000205133
-0.000646426
0.000286828
-0.000843122
0.00038467
-0.00106716
0.00049945
-0.00131962
0.000631731
-0.00160141
0.000781703
-0.00191337
0.000948953
-0.0022562
0.0011321
-0.00263047
0.00132828
-0.00303677
-0.00347508
0.00153253
5.38552e-06
-3.60205e-05
2.17297e-05
-0.000125297
4.98766e-05
-0.000236601
9.07247e-05
-0.000371192
0.0001452
-0.000530387
0.000214221
-0.000715448
0.000298653
-0.000927554
0.000399244
-0.00116776
0.000516548
-0.00143692
0.000650818
-0.00173568
0.000801858
-0.00206441
0.000968821
-0.00242316
0.00114993
-0.00281158
0.00134213
-0.00322898
-0.00367378
0.00154083
5.67811e-06
-4.16986e-05
2.28378e-05
-0.000142457
5.2284e-05
-0.000266047
9.48615e-05
-0.000413769
0.000151421
-0.000586947
0.000222779
-0.000786805
0.000309657
-0.00101443
0.000412616
-0.00127072
0.000531969
-0.00155627
0.000667671
-0.00187138
0.000819182
-0.00221592
0.000985299
-0.00258927
0.00116395
-0.00299023
0.001352
-0.00341703
-0.00386689
0.00154512
5.96406e-06
-4.76627e-05
2.39113e-05
-0.000160404
5.45981e-05
-0.000296734
9.88049e-05
-0.000457976
0.000157296
-0.000645438
0.000230769
-0.000860278
0.000319795
-0.00110346
0.000424739
-0.00137566
0.000545671
-0.00167721
0.000682262
-0.00200798
0.000833666
-0.00236733
0.000998379
-0.00275399
0.00117411
-0.00316596
0.00135768
-0.0036006
-0.00405416
0.00154495
6.24241e-06
-5.39051e-05
2.49459e-05
-0.000179108
5.68087e-05
-0.000328597
0.000102536
-0.000503703
0.000162794
-0.000705695
0.000238152
-0.000935637
0.000329018
-0.00119432
0.000435553
-0.00148219
0.00055759
-0.00179924
0.000694529
-0.00214491
0.000845243
-0.00251804
0.00100798
-0.00291672
0.00118027
-0.00333825
0.00135891
-0.00377924
-0.00423518
0.00153993
6.51191e-06
-6.0417e-05
2.59365e-05
-0.000198533
5.89039e-05
-0.000361564
0.000106034
-0.000550833
0.000167882
-0.000767544
0.000244881
-0.00101264
0.000337264
-0.00128671
0.000444988
-0.00158992
0.000567645
-0.0019219
0.000704381
-0.00228165
0.000853813
-0.00266747
0.00101397
-0.00307688
0.00118224
-0.00350653
0.00135543
-0.00395243
-0.00440949
0.00152974
6.77104e-06
-6.7188e-05
2.68771e-05
-0.000218639
6.08702e-05
-0.000395557
0.000109274
-0.000599237
0.000172524
-0.000830795
0.000250905
-0.00109102
0.000344468
-0.00138027
0.000452962
-0.00169841
0.000575743
-0.00204468
0.000711713
-0.00241762
0.000859256
-0.00281501
0.00101621
-0.00323383
0.00117988
-0.0036702
0.00134706
-0.00411961
-0.00457656
0.00151413
7.01801e-06
-7.42061e-05
2.77608e-05
-0.000239381
6.26924e-05
-0.000430489
0.00011223
-0.000648775
0.000176681
-0.000895245
0.000256168
-0.0011705
0.000350559
-0.00147466
0.000459389
-0.00180724
0.000581784
-0.00216708
0.000716414
-0.00255225
0.000861452
-0.00296005
0.00101458
-0.00338695
0.00117302
-0.00382864
0.00133361
-0.00428021
-0.00473587
0.00149292
7.25078e-06
-8.14568e-05
2.85799e-05
-0.00026071
6.43541e-05
-0.000466263
0.000114875
-0.000699295
0.000180308
-0.000960678
0.000260613
-0.00125081
0.000355464
-0.00156951
0.000464181
-0.00191596
0.000585669
-0.00228856
0.000718378
-0.00268496
0.000860293
-0.00310197
0.00100896
-0.00353562
0.00116156
-0.00398124
0.00131501
-0.00443366
-0.00488693
0.00146606
7.46716e-06
-8.8924e-05
2.93263e-05
-0.00028257
6.58379e-05
-0.000502775
0.000117178
-0.000750635
0.000183364
-0.00102686
0.00026418
-0.00133162
0.000359107
-0.00166444
0.000467252
-0.0020241
0.000587304
-0.00240862
0.00071751
-0.00281517
0.000855688
-0.00324014
0.000999282
-0.00367922
0.00114546
-0.00412741
0.00129122
-0.00457942
-0.00502925
0.00143355
7.66483e-06
-9.65888e-05
2.99917e-05
-0.000304896
6.71258e-05
-0.000539909
0.000119109
-0.000802619
0.000185803
-0.00109356
0.000266813
-0.00141263
0.000361421
-0.00175905
0.000468525
-0.00213121
0.000586608
-0.0025267
0.000713732
-0.00294229
0.000847573
-0.00337399
0.000985501
-0.00381714
0.0011247
-0.00426661
0.00126229
-0.00471701
-0.00516245
0.00139548
7.84137e-06
-0.00010443
3.05672e-05
-0.000327622
6.81997e-05
-0.000577541
0.000120639
-0.000855058
0.000187584
-0.0011605
0.000268456
-0.00149351
0.000362339
-0.00185293
0.000467928
-0.0022368
0.000583512
-0.00264228
0.000706987
-0.00306576
0.000835913
-0.00350291
0.000967614
-0.00394884
0.00109932
-0.00439831
0.00122829
-0.00484599
-0.00528615
0.001352
7.99432e-06
-0.000112425
3.10443e-05
-0.000350672
6.90419e-05
-0.000615539
0.000121739
-0.000907755
0.000188666
-0.00122743
0.000269059
-0.0015739
0.000361805
-0.00194568
0.000465405
-0.0023404
0.000577967
-0.00275485
0.000697242
-0.00318504
0.000820703
-0.00362637
0.000945659
-0.0040738
0.00106941
-0.00452206
0.00118939
-0.00496597
-0.00540009
0.00130332
8.12126e-06
-0.000120546
3.14145e-05
-0.000373966
6.96354e-05
-0.00065376
0.000122382
-0.000960502
0.000189012
-0.00129406
0.000268577
-0.00165346
0.000359772
-0.00203687
0.000460911
-0.00244154
0.000569941
-0.00286387
0.000684491
-0.00329959
0.000801974
-0.00374385
0.000919712
-0.00419154
0.0010351
-0.00463745
0.00114577
-0.00507664
-0.00550404
0.00124972
8.21985e-06
-0.000128766
3.16698e-05
-0.000397415
6.99644e-05
-0.000692055
0.000122544
-0.00101308
0.000188591
-0.00136011
0.000266975
-0.00173185
0.000356203
-0.0021261
0.000454419
-0.00253975
0.000559424
-0.00296888
0.000668753
-0.00340892
0.000779785
-0.00385489
0.000889885
-0.00430164
0.000996576
-0.00474414
0.00109769
-0.00517775
-0.00559785
0.0011915
8.28785e-06
-0.000137053
3.18027e-05
-0.00042093
7.00143e-05
-0.000730266
0.000122202
-0.00106527
0.000187376
-0.00142528
0.000264222
-0.00180869
0.000351075
-0.00221295
0.000445917
-0.00263459
0.000546428
-0.00306939
0.000650073
-0.00351256
0.000754225
-0.00395904
0.000856322
-0.00440374
0.000954032
-0.00484185
0.0010454
-0.00526912
-0.00568143
0.00112899
8.3232e-06
-0.000145377
3.18064e-05
-0.000444414
6.97725e-05
-0.000768232
0.000121339
-0.00111684
0.000185344
-0.00148929
0.0002603
-0.00188365
0.000344374
-0.00229703
0.000435409
-0.00272563
0.000530985
-0.00316497
0.000628521
-0.0036101
0.000725413
-0.00405593
0.000819196
-0.00449752
0.000907704
-0.00493036
0.000989212
-0.00535063
-0.00575476
0.00106254
8.32403e-06
-0.000153701
3.16752e-05
-0.000467765
6.92284e-05
-0.000805785
0.000119941
-0.00116755
0.000182482
-0.00155183
0.000255197
-0.00195637
0.000336103
-0.00237793
0.000422918
-0.00281244
0.000513147
-0.0032552
0.000604188
-0.00370114
0.000693489
-0.00414523
0.000778704
-0.00458273
0.000857848
-0.0050095
0.000929426
-0.00542221
-0.00581785
0.000992519
8.2887e-06
-0.000161989
3.1404e-05
-0.00049088
6.83736e-05
-0.000842755
0.000117997
-0.00121717
0.00017878
-0.00161261
0.000248913
-0.0020265
0.000326274
-0.00245529
0.000408481
-0.00289465
0.000492984
-0.0033397
0.000577189
-0.00378535
0.000658617
-0.00422666
0.000735062
-0.00465918
0.000804735
-0.00507918
0.000866371
-0.00548385
-0.00587078
0.000919303
8.21722e-06
-0.000170207
3.09916e-05
-0.000513654
6.72061e-05
-0.000878969
0.000115506
-0.00126547
0.000174243
-0.00167135
0.000241463
-0.00209372
0.000314923
-0.00252875
0.000392161
-0.00297189
0.000470594
-0.00341813
0.000547664
-0.00386242
0.000620988
-0.00429998
0.000688515
-0.0047267
0.000748658
-0.00513932
0.000800387
-0.00553558
-0.00591366
0.000843268
8.10594e-06
-0.000178313
3.04301e-05
-0.000535979
6.57145e-05
-0.000914254
0.000112457
-0.00131221
0.000168864
-0.00172775
0.00023285
-0.0021577
0.000302072
-0.00259798
0.000374006
-0.00304382
0.000446064
-0.00349019
0.000515742
-0.0039321
0.000580775
-0.00436502
0.000639283
-0.00478521
0.000689887
-0.00518992
0.000731783
-0.00557747
-0.00594663
0.000764757
7.9554e-06
-0.000186268
2.97204e-05
-0.000557744
6.39018e-05
-0.000948435
0.000108857
-0.00135717
0.000162661
-0.00178156
0.00022311
-0.00221815
0.000287779
-0.00266264
0.000354106
-0.00311015
0.00041952
-0.0035556
0.000481594
-0.00399417
0.000538196
-0.00442162
0.000587628
-0.00483464
0.000628722
-0.00523102
0.000660894
-0.00560964
-0.00596987
0.000684132
7.7651e-06
-0.000194033
2.8862e-05
-0.000578841
6.17694e-05
-0.000981343
0.000104715
-0.00140011
0.000155651
-0.00183249
0.000212278
-0.00227478
0.000272105
-0.00272247
0.000332554
-0.0031706
0.000391094
-0.00361414
0.000445392
-0.00404847
0.000493465
-0.00446969
0.000533804
-0.00487498
0.000565455
-0.00526267
0.000588038
-0.00563223
-0.00598357
0.000601732
7.53486e-06
-0.000201568
2.78556e-05
-0.000599161
5.93214e-05
-0.00101281
0.000100041
-0.00144083
0.00014786
-0.00188031
0.000200398
-0.00232732
0.00025512
-0.00277719
0.000309453
-0.00322493
0.000360925
-0.00366561
0.000407315
-0.00409486
0.000446801
-0.00450918
0.000478069
-0.00490625
0.000500369
-0.00528497
0.000513525
-0.00564538
-0.00598792
0.000517883
7.26483e-06
-0.000208833
2.67031e-05
-0.0006186
5.65644e-05
-0.00104267
9.48512e-05
-0.00147912
0.000139318
-0.00192478
0.000187521
-0.00237552
0.000236903
-0.00282658
0.000284915
-0.00327294
0.000329162
-0.00370986
0.000367551
-0.00413325
0.000398429
-0.00454006
0.000420674
-0.0049285
0.000433744
-0.00529804
0.000437648
-0.00564929
-0.00598317
0.000432891
6.95549e-06
-0.000215788
2.54076e-05
-0.000637052
5.35075e-05
-0.00107077
8.91653e-05
-0.00151478
0.000130061
-0.00196568
0.000173707
-0.00241917
0.000217541
-0.00287041
0.000259061
-0.00331446
0.000295962
-0.00374676
0.000326292
-0.00416358
0.000348571
-0.00456233
0.000361873
-0.0049418
0.000365849
-0.00530202
0.000360691
-0.00564413
-0.00596952
0.000347046
6.60763e-06
-0.000222396
2.39731e-05
-0.000654417
5.01621e-05
-0.00109696
8.30067e-05
-0.00154762
0.00012013
-0.0020028
0.000159019
-0.00245806
0.000197128
-0.00290852
0.000232015
-0.00334935
0.000261484
-0.00377623
0.000283731
-0.00418582
0.00029745
-0.00457605
0.000301908
-0.00494626
0.000296945
-0.00529705
0.000282921
-0.0056301
-0.00594722
0.000260614
6.22236e-06
-0.000228618
2.2405e-05
-0.0006706
4.65415e-05
-0.0011211
7.6402e-05
-0.00157748
0.00010957
-0.00203597
0.000143527
-0.00249201
0.000175761
-0.00294075
0.000203909
-0.0033775
0.000225894
-0.00379822
0.000240063
-0.00419999
0.000245288
-0.00458128
0.000241019
-0.00494199
0.000227275
-0.00528331
0.000204587
-0.00560742
-0.00591649
0.000173857
5.80108e-06
-0.000234419
2.07095e-05
-0.000685508
4.26612e-05
-0.00114305
6.9381e-05
-0.0016042
9.84315e-05
-0.00206502
0.000127306
-0.00252089
0.000153545
-0.00296699
0.000174878
-0.00339883
0.000189356
-0.0038127
0.000195484
-0.00420612
0.000192303
-0.0045781
0.000179438
-0.00492912
0.00015707
-0.00526094
0.000125868
-0.00557621
-0.0058777
8.70816e-05
5.34544e-06
-0.000239765
1.88938e-05
-0.000699057
3.85385e-05
-0.00116269
6.1976e-05
-0.00162764
8.67661e-05
-0.00208981
0.000110433
-0.00254455
0.000130586
-0.00298715
0.000145059
-0.0034133
0.00015204
-0.00381968
0.000150189
-0.00420427
0.000138715
-0.00456662
0.000117407
-0.00490781
8.65993e-05
-0.00523013
4.69085e-05
-0.00553652
-0.00582923
-1.56082e-06
4.85739e-06
-0.000244622
1.69659e-05
-0.000711165
3.41921e-05
-0.00117992
5.42214e-05
-0.00164767
7.46293e-05
-0.00211022
9.29881e-05
-0.00256291
0.000106992
-0.00300115
0.00011459
-0.0034209
0.000114111
-0.0038192
0.00010437
-0.00419453
8.47365e-05
-0.00454699
5.51537e-05
-0.00487823
1.61026e-05
-0.00519108
-3.14877e-05
-0.00548893
-0.0057745
-8.62174e-05
4.33905e-06
-0.000248961
1.49344e-05
-0.00072176
2.96419e-05
-0.00119463
4.61536e-05
-0.00166418
6.20783e-05
-0.00212614
7.50538e-05
-0.00257589
8.28728e-05
-0.00300897
8.36087e-05
-0.00342164
7.57348e-05
-0.00381132
5.82166e-05
-0.00417701
3.05708e-05
-0.00451934
-7.11808e-06
-0.00484054
-5.42374e-05
-0.00514396
-0.00010975
-0.00543342
-0.00571195
-0.000172298
3.79278e-06
-0.000252754
1.28087e-05
-0.000730776
2.4909e-05
-0.00120673
3.78099e-05
-0.00167708
4.91712e-05
-0.0021375
5.67122e-05
-0.00258343
5.83368e-05
-0.00301059
5.2251e-05
-0.00341555
3.70728e-05
-0.00379615
1.19118e-05
-0.00415185
-2.3582e-05
-0.00448385
-6.92019e-05
-0.00479492
-0.00012422
-0.00508894
-0.000187484
-0.00537016
-0.00564183
-0.000257602
3.22109e-06
-0.000255975
1.05984e-05
-0.000738154
2.00151e-05
-0.00121614
2.92286e-05
-0.0016863
3.59667e-05
-0.00214424
3.80454e-05
-0.00258551
3.34918e-05
-0.00300604
2.06506e-05
-0.00340271
-1.71562e-06
-0.00377378
-3.4364e-05
-0.0041192
-7.75248e-05
-0.00444069
-0.000130893
-0.00474155
-0.000193644
-0.00502619
-0.000264521
-0.00529928
-0.00556432
-0.000342037
2.62662e-06
-0.000258602
8.31367e-06
-0.000743841
1.49823e-05
-0.00122281
2.04482e-05
-0.00169176
2.25236e-05
-0.00214632
1.91334e-05
-0.00258212
8.44301e-06
-0.00299535
-1.10636e-05
-0.0033832
-4.04803e-05
-0.00374436
-8.04357e-05
-0.00407924
-0.000131064
-0.00439006
-0.000191986
-0.00468063
-0.000262307
-0.00495587
-0.000340671
-0.00522091
-0.00547953
-0.000425455
2.01217e-06
-0.000260614
5.96472e-06
-0.000747793
9.83294e-06
-0.00122668
1.15069e-05
-0.00169344
8.89998e-06
-0.00214371
6.95871e-08
-0.00257329
-1.67078e-05
-0.00297857
-4.27683e-05
-0.00335714
-7.9072e-05
-0.00370806
-0.000126134
-0.00403218
-0.000184011
-0.00433218
-0.000252278
-0.00461236
-0.000330003
-0.00487815
-0.000415748
-0.00513517
-0.00538758
-0.000507704
1.38079e-06
-0.000261995
3.56193e-06
-0.000749974
4.58894e-06
-0.00122771
2.442e-06
-0.00169129
-4.85262e-06
-0.00213641
-1.91095e-05
-0.00255903
-4.18695e-05
-0.00295581
-7.43466e-05
-0.00332466
-0.000117354
-0.00366505
-0.0001713
-0.00397824
-0.00023618
-0.0042673
-0.000311562
-0.00453698
-0.00039652
-0.00479319
-0.00048956
-0.00504213
-0.0052885
-0.000588636
7.37166e-07
-0.000262732
1.11491e-06
-0.000750352
-7.27872e-07
-0.00122586
-6.70979e-06
-0.00168531
-1.86766e-05
-0.00212445
-3.82933e-05
-0.00253941
-6.69476e-05
-0.00292716
-0.000105691
-0.00328592
-0.0001552
-0.00361554
-0.000215783
-0.00391765
-0.000287396
-0.00419569
-0.000369633
-0.00445475
-0.000461633
-0.00470119
-0.000561905
-0.00494186
-0.0051823
-0.000668107
6.64301e-08
-0.000262798
-1.3667e-06
-0.000748919
-6.09581e-06
-0.00122113
-1.59127e-05
-0.00167549
-3.25215e-05
-0.00210784
-5.74297e-05
-0.00251451
-9.18608e-05
-0.00289273
-0.000136704
-0.00324108
-0.000192497
-0.00355975
-0.000259451
-0.0038507
-0.000337494
-0.00411765
-0.000426282
-0.00436596
-0.000525099
-0.00460237
-0.000632556
-0.0048344
-0.00506889
-0.000745969
-5.92635e-07
-0.000262206
-3.86954e-06
-0.000745642
-1.14942e-05
-0.00121351
-2.51328e-05
-0.00166185
-4.63393e-05
-0.00208663
-7.64557e-05
-0.00248439
-0.000116535
-0.00285265
-0.0001673
-0.00319031
-0.000229147
-0.0034979
-0.000302189
-0.00377766
-0.000386328
-0.00403351
-0.00048131
-0.00427098
-0.000586648
-0.00449703
-0.000701242
-0.00471981
-0.00494804
-0.000822085
-1.26684e-06
-0.000260939
-6.38723e-06
-0.000740522
-1.6903e-05
-0.00120299
-3.43376e-05
-0.00164442
-6.00848e-05
-0.00206089
-9.5314e-05
-0.00244916
-0.000140902
-0.00280706
-0.000197406
-0.00313381
-0.000265074
-0.00343023
-0.00034391
-0.00369882
-0.000433784
-0.00394364
-0.000534534
-0.00417023
-0.000645991
-0.00438558
-0.000767634
-0.00459816
-0.00481935
-0.000896329
-1.94511e-06
-0.000258994
-8.90953e-06
-0.000733557
-2.23027e-05
-0.0011896
-4.3496e-05
-0.00162322
-7.3715e-05
-0.00203067
-0.000113952
-0.00240892
-0.000164905
-0.00275611
-0.000226961
-0.00307175
-0.000300217
-0.00335698
-0.00038456
-0.00361448
-0.000479793
-0.0038484
-0.000585813
-0.00406421
-0.000702825
-0.00426857
-0.000831273
-0.00446971
-0.00468223
-0.000968392
-2.62441e-06
-0.000256369
-1.14268e-05
-0.000724755
-2.76744e-05
-0.00117335
-5.25781e-05
-0.00159832
-8.71894e-05
-0.00199605
-0.000132319
-0.00236379
-0.000188488
-0.00269994
-0.000255913
-0.00300433
-0.000334539
-0.00327835
-0.000424117
-0.0035249
-0.000524344
-0.00374818
-0.000635083
-0.00395347
-0.000756823
-0.00414683
-0.000891266
-0.00433527
-0.00453548
-0.00103802
-3.30215e-06
-0.000253067
-1.39297e-05
-0.000714127
-3.29995e-05
-0.00115428
-6.1555e-05
-0.00156977
-0.000100469
-0.00195714
-0.00015037
-0.00231389
-0.000211602
-0.00263871
-0.000284218
-0.00293171
-0.000368012
-0.00319456
-0.000462597
-0.00343032
-0.000567518
-0.00364325
-0.000682466
-0.00383852
-0.000807801
-0.00402149
-0.000946357
-0.00419672
-0.00437577
-0.00110606
-3.97384e-06
-0.000249093
-1.64056e-05
-0.000701696
-3.82549e-05
-0.00113243
-7.03923e-05
-0.00153763
-0.000113509
-0.00191402
-0.000168051
-0.00225935
-0.000234191
-0.00257257
-0.000311823
-0.00285408
-0.000400605
-0.00310578
-0.000500023
-0.0033309
-0.000609484
-0.00353379
-0.000728461
-0.00371954
-0.000856526
-0.00389343
-0.000992532
-0.00406071
-0.00422761
-0.00114069
-4.64061e-06
-0.000244453
-1.8853e-05
-0.000687483
-4.34333e-05
-0.00110785
-7.90751e-05
-0.00150199
-0.000126286
-0.00186681
-0.000185333
-0.0022003
-0.00025622
-0.00250168
-0.000338694
-0.00277161
-0.000432292
-0.00301218
-0.000536405
-0.00322679
-0.000650368
-0.00341983
-0.000773581
-0.00359633
-0.000905551
-0.00376146
-0.00104596
-0.0039203
-0.00407632
-0.00119725
-5.29799e-06
-0.000239155
-2.12593e-05
-0.000671522
-4.85122e-05
-0.0010806
-8.75703e-05
-0.00146293
-0.000138758
-0.00181563
-0.000202163
-0.0021369
-0.000277628
-0.00242622
-0.000364763
-0.00268447
-0.000462995
-0.00291395
-0.00057164
-0.00311814
-0.000689995
-0.00330148
-0.000817444
-0.00346888
-0.000953543
-0.00362536
-0.00109818
-0.00377566
-0.00392251
-0.00125199
-5.94357e-06
-0.000233211
-2.36164e-05
-0.000653849
-5.34754e-05
-0.00105074
-9.58526e-05
-0.00142055
-0.000150889
-0.00176059
-0.000218498
-0.00206929
-0.000298365
-0.00234635
-0.000389967
-0.00259287
-0.000492633
-0.00281128
-0.000605612
-0.00300516
-0.000728162
-0.00317892
-0.000859648
-0.00333739
-0.000999607
-0.0034854
-0.00114783
-0.00362743
-0.00376602
-0.00130432
-6.57499e-06
-0.000226636
-2.5916e-05
-0.000634508
-5.8307e-05
-0.00101835
-0.000103898
-0.00137496
-0.000162647
-0.00170184
-0.000234297
-0.00199764
-0.00031838
-0.00226227
-0.00041425
-0.002497
-0.000521138
-0.00270439
-0.00063823
-0.00288807
-0.000764743
-0.00305241
-0.000900009
-0.00320213
-0.00104352