/*--------------------------------*- C++ -*----------------------------------*\
  =========                 |
  \\      /  F ield         | OpenFOAM: The Open Source CFD Toolbox
   \\    /   O peration     | Website:  https://openfoam.org
    \\  /    A nd           | Version:  7
     \\/     M anipulation  |
\*---------------------------------------------------------------------------*/
FoamFile
{
    version     2.0;
    format      ascii;
    class       surfaceScalarField;
    location    "60";
    object      phi;
}
// * * * * * * * * * * * * * * * * * * * * * * * * * * * * * * * * * * * * * //

dimensions      [0 3 -1 0 0 0 0];

internalField   nonuniform List<scalar> 
16607
(
1.89852e-05
5.23744e-07
1.84614e-05
4.05477e-05
6.36099e-07
1.78253e-05
3.49035e-06
3.76934e-05
4.25868e-05
7.59425e-07
1.70659e-05
4.02714e-06
3.44257e-05
3.57355e-05
8.94184e-07
1.61717e-05
4.60786e-06
3.0712e-05
1.2272e-05
2.80714e-05
7.15444e-06
1.04076e-06
1.51309e-05
5.23355e-06
2.65192e-05
1.37638e-05
1.95411e-05
2.78903e-05
-6.97207e-06
-5.4357e-05
1.19945e-06
1.39315e-05
5.90485e-06
2.18138e-05
1.53542e-05
1.00917e-05
3.08599e-05
-2.24777e-05
5.3808e-05
-7.73052e-05
-0.000155922
1.37047e-06
1.2561e-05
6.62202e-06
1.65623e-05
1.70428e-05
-3.29012e-07
3.39942e-05
-3.94291e-05
5.8903e-05
-0.000102214
9.32238e-05
-0.000190242
-0.000305031
1.55395e-06
1.10071e-05
7.38492e-06
1.07313e-05
1.88277e-05
-1.17718e-05
3.72876e-05
-5.7889e-05
6.42227e-05
-0.000129149
0.000101092
-0.000227112
0.000149262
-0.000353201
-0.000508424
1.7499e-06
9.25717e-06
8.19296e-06
4.28827e-06
2.07063e-05
-2.42851e-05
4.07325e-05
-7.79152e-05
6.975e-05
-0.000158167
0.000109204
-0.000266566
0.000160396
-0.000404393
0.000224319
-0.000572347
-0.000770156
1.95826e-06
7.29891e-06
9.04512e-06
-2.79859e-06
2.26747e-05
-3.79147e-05
4.43189e-05
-9.95594e-05
7.54636e-05
-0.000189311
0.000117522
-0.000308624
0.0001717
-0.000458571
0.000238815
-0.000639462
0.000319084
-0.000850425
-0.00108901
2.17885e-06
5.12006e-06
9.93987e-06
-1.05596e-05
2.47279e-05
-5.27027e-05
4.80346e-05
-0.000122866
8.13386e-05
-0.000222615
0.000125999
-0.000353285
0.000183099
-0.00051567
0.000253243
-0.000709606
0.000336343
-0.000933524
0.000431421
-0.00118409
-0.00145606
2.41136e-06
2.7087e-06
1.08752e-05
-1.90235e-05
2.68597e-05
-6.86872e-05
5.18651e-05
-0.000147871
8.73465e-05
-0.000258097
0.000134585
-0.000400524
0.000194511
-0.000575596
0.000267483
-0.000782579
0.000353076
-0.00101912
0.000449911
-0.00128093
0.000555618
-0.00156176
0.000666973
-0.0018538
-0.00214837
2.65541e-06
5.32898e-08
1.18487e-05
-2.82168e-05
2.90627e-05
-8.59012e-05
5.57938e-05
-0.000174602
9.34551e-05
-0.000295758
0.000143225
-0.000450294
0.000205849
-0.00063822
0.00028141
-0.00085814
0.00036912
-0.00110683
0.000467194
-0.001379
0.000572877
-0.00166745
0.000682666
-0.00196359
0.000792714
-0.00225842
-0.00254363
2.91044e-06
-2.85715e-06
1.28574e-05
-3.81637e-05
3.13283e-05
-0.000104372
5.98018e-05
-0.000203076
9.9629e-05
-0.000335585
0.000151859
-0.000502524
0.000217022
-0.000703383
0.000294896
-0.000936013
0.000384314
-0.00119625
0.000483091
-0.00147778
0.000588126
-0.00177248
0.000695706
-0.00207117
0.000801977
-0.00236469
0.000903457
-0.00264511
-0.0029067
3.17581e-06
-6.03296e-06
1.38975e-05
-4.88855e-05
3.36466e-05
-0.000124121
6.38681e-05
-0.000233297
0.00010583
-0.000377547
0.000160424
-0.000557119
0.000227937
-0.000770895
0.000307815
-0.00101589
0.000398505
-0.00128694
0.000497441
-0.00157671
0.000601222
-0.00187626
0.000706007
-0.00217596
0.000808019
-0.0024667
0.000904056
-0.00274114
0.000991872
-0.00299451
0.00107035
-0.00322492
-0.00343316
3.4507e-06
-9.48366e-06
1.49653e-05
-6.04e-05
3.60067e-05
-0.000145163
6.79698e-05
-0.000265261
0.000112016
-0.000421593
0.000168854
-0.000613957
0.000238497
-0.000840539
0.000320044
-0.00109744
0.000411553
-0.00137845
0.000510103
-0.00167526
0.00061206
-0.00197822
0.00071353
-0.00227742
0.000810892
-0.00256406
0.000901286
-0.00283154
0.00098291
-0.00307614
0.00105511
-0.00329712
0.00111825
-0.0034963
-0.00367734
3.7342e-06
-1.32179e-05
1.60559e-05
-7.27217e-05
3.83964e-05
-0.000167503
7.2082e-05
-0.000298946
0.000118144
-0.000467655
0.000177081
-0.000672894
0.00024861
-0.000912068
0.000331465
-0.00118029
0.000423329
-0.00147031
0.000520965
-0.0017729
0.000620569
-0.00207783
0.000718274
-0.00237513
0.00081069
-0.00265648
0.000895337
-0.00291618
0.000970864
-0.00315166
0.00103705
-0.00336331
0.00109459
-0.00355384
0.00114481
-0.00372756
0.00118935
-0.00388911
-0.00404394
4.02522e-06
-1.72431e-05
1.71644e-05
-8.58609e-05
4.08027e-05
-0.000191142
7.61786e-05
-0.000334322
0.00012417
-0.000515646
0.000185038
-0.000733763
0.000258183
-0.000985213
0.000341969
-0.00126408
0.000433722
-0.00156206
0.000529938
-0.00186912
0.000626712
-0.0021746
0.00072028
-0.0024687
0.000807541
-0.00274374
0.000886422
-0.00299507
0.000956017
-0.00322126
0.00101649
-0.00342378
0.00106882
-0.00360617
0.00111448
-0.00377322
0.00115513
-0.00392976
-0.00408104
0.00119224
4.32256e-06
-2.15656e-05
1.82852e-05
-9.98236e-05
4.32114e-05
-0.000216068
8.02319e-05
-0.000371343
0.000130046
-0.00056546
0.000192657
-0.000796373
0.000267128
-0.00105968
0.000351458
-0.00134841
0.000442641
-0.00165324
0.000536962
-0.00196344
0.000630486
-0.00226812
0.000719621
-0.00255783
0.0008016
-0.00282572
0.000874772
-0.00306824
0.000938649
-0.00328513
0.000993736
-0.00347886
0.00104124
-0.00365368
0.00108273
-0.0038147
0.00111983
-0.00396687
-0.00411514
0.00115393
4.62486e-06
-2.61905e-05
1.94122e-05
-0.000114611
4.56077e-05
-0.000242263
8.42135e-05
-0.000409948
0.000135728
-0.000616975
0.000199871
-0.000860516
0.000275362
-0.00113517
0.000359842
-0.00143289
0.000450011
-0.00174341
0.000542002
-0.00205543
0.000631919
-0.00235804
0.0007164
-0.00264231
0.000793044
-0.00290236
0.000860624
-0.00313582
0.000919036
-0.00334355
0.000969079
-0.00352891
0.00101213
-0.00369673
0.00104979
-0.00385237
0.00108365
-0.00400073
-0.00414647
0.00111498
4.93065e-06
-3.11211e-05
2.05391e-05
-0.000130219
4.7976e-05
-0.0002697
8.80941e-05
-0.000450067
0.000141168
-0.000670049
0.000206617
-0.000925964
0.00028281
-0.00121137
0.00036705
-0.00151713
0.000455783
-0.00183215
0.000545052
-0.0021447
0.000631066
-0.00244405
0.000710741
-0.00272199
0.000782066
-0.00297369
0.000844217
-0.00319797
0.000897442
-0.00339677
0.000942782
-0.00357425
0.000981726
-0.00373567
0.00101589
-0.00388653
0.00104677
-0.00403161
-0.00417523
0.00107553
5.23835e-06
-3.63595e-05
2.1659e-05
-0.00014664
5.03002e-05
-0.000298341
9.18445e-05
-0.000491611
0.000146321
-0.000724525
0.000212835
-0.000992478
0.000289406
-0.00128794
0.000373021
-0.00160074
0.000459923
-0.00191905
0.000546127
-0.0022309
0.000628005
-0.00252593
0.000702789
-0.00279677
0.000768862
-0.00303976
0.000825787
-0.00325489
0.000874117
-0.0034451
0.000915084
-0.00361521
0.000950248
-0.00377083
0.000981191
-0.00391747
0.00100932
-0.00405974
-0.00420159
0.00103568
5.54624e-06
-4.19057e-05
2.27649e-05
-0.000163859
5.2564e-05
-0.00032814
9.54354e-05
-0.000534482
0.000151144
-0.000780234
0.00021847
-0.0010598
0.000295093
-0.00136456
0.000377712
-0.00168336
0.000462421
-0.00200376
0.000545266
-0.00231375
0.000622834
-0.0026035
0.0006927
-0.00286664
0.000753637
-0.0031007
0.000805562
-0.00330682
0.000849293
-0.00348883
0.000886203
-0.00365212
0.000917883
-0.00380251
0.000945859
-0.00394545
0.00097143
-0.00408531
-0.00422568
0.000995522
5.85255e-06
-4.77583e-05
2.38496e-05
-0.000181856
5.4751e-05
-0.000359042
9.88383e-05
-0.00057857
0.000155596
-0.000836992
0.000223473
-0.00112768
0.000299822
-0.00144091
0.000381093
-0.00176463
0.000463283
-0.00208595
0.000542527
-0.00239299
0.000615667
-0.00267664
0.000680637
-0.00293161
0.000736589
-0.00315665
0.00078376
-0.00335399
0.000823183
-0.00352826
0.000856333
-0.00368527
0.000884796
-0.00383098
0.000910021
-0.00397067
0.000933195
-0.00410848
-0.00424762
0.000955128
6.1554e-06
-5.39137e-05
2.49057e-05
-0.000200606
5.68448e-05
-0.000390981
0.000102026
-0.00062375
0.000159639
-0.000894605
0.000227801
-0.00119584
0.000303557
-0.00151667
0.000383151
-0.00184423
0.000462535
-0.00216533
0.000537984
-0.00246844
0.000606629
-0.00274528
0.000666769
-0.00299175
0.000717913
-0.00320779
0.000760582
-0.00339666
0.000795981
-0.00356366
0.000825645
-0.00371494
0.000851127
-0.00385646
0.000873789
-0.00399333
0.000894698
-0.00412939
-0.00426748
0.000914561
6.45288e-06
-6.03666e-05
2.59258e-05
-0.000220079
5.88293e-05
-0.000423884
0.000104971
-0.000669892
0.000163237
-0.000952871
0.000231418
-0.00126402
0.000306274
-0.00159152
0.000383887
-0.00192184
0.000460218
-0.00224166
0.000531725
-0.00253995
0.000595853
-0.00280941
0.000651265
-0.00304716
0.000697798
-0.00325433
0.000736217
-0.00343508
0.000767861
-0.0035953
0.000794288
-0.00374136
0.000816999
-0.00387917
0.000837255
-0.00401359
0.000856011
-0.00414815
-0.00428534
0.000873872
6.74302e-06
-6.71096e-05
2.69024e-05
-0.000240238
6.06891e-05
-0.000457671
0.00010765
-0.000716853
0.000166361
-0.00101158
0.000234294
-0.00133196
0.000307958
-0.00166519
0.000383314
-0.0019972
0.000456383
-0.00231473
0.000523847
-0.00260741
0.000583478
-0.00286904
0.000634289
-0.00309797
0.000676419
-0.00329646
0.000710839
-0.0034695
0.000738979
-0.00362344
0.000762394
-0.00376478
0.000782516
-0.00389929
0.0008005
-0.00403157
0.000817192
-0.00416484
-0.00430125
0.000833105
7.02385e-06
-7.41334e-05
2.78284e-05
-0.000261043
6.24094e-05
-0.000492252
0.000110041
-0.000764485
0.000168985
-0.00107053
0.00023641
-0.00139938
0.000308604
-0.00173738
0.000381458
-0.00207005
0.000451097
-0.00238437
0.000514456
-0.00267077
0.000569641
-0.00292423
0.000616001
-0.00314433
0.000653943
-0.0033344
0.000684604
-0.00350016
0.000709472
-0.00364831
0.000730077
-0.00378538
0.000747766
-0.00391698
0.00076359
-0.0040474
0.00077829
-0.00417954
-0.00431526
0.000792297
7.29342e-06
-8.14269e-05
2.86968e-05
-0.000282446
6.39764e-05
-0.000527532
0.000112124
-0.000812632
0.000171087
-0.00112949
0.00023775
-0.00146605
0.000308219
-0.00180785
0.000378357
-0.00214019
0.000444434
-0.00245045
0.000503662
-0.00273
0.000554482
-0.00297505
0.000596555
-0.0031864
0.000630524
-0.00336837
0.000657653
-0.00352729
0.000679463
-0.00367012
0.000697435
-0.00380336
0.000712825
-0.00393237
0.00072658
-0.00406115
0.000739347
-0.00419231
-0.00432739
0.000751479
7.54978e-06
-8.89766e-05
2.95009e-05
-0.000304397
6.53774e-05
-0.000563408
0.00011388
-0.000861135
0.00017265
-0.00118826
0.00023831
-0.00153171
0.000306817
-0.00187636
0.000374056
-0.00220743
0.000436475
-0.00251287
0.000491579
-0.0027851
0.000538135
-0.00302161
0.000576095
-0.00322436
0.000606301
-0.00339857
0.000630115
-0.0035511
0.000649058
-0.00368906
0.000664552
-0.00381885
0.000677757
-0.00394558
0.00068952
-0.00407291
0.000700398
-0.00420319
-0.00433767
0.000710682
7.79106e-06
-9.67677e-05
3.02344e-05
-0.000326841
6.6601e-05
-0.000599775
0.000115297
-0.000909831
0.000173664
-0.00124663
0.00023809
-0.00159613
0.000304424
-0.00194269
0.000368609
-0.00227161
0.000427305
-0.00257156
0.000478318
-0.00283611
0.000520732
-0.00306402
0.000554757
-0.00325839
0.000581404
-0.00342522
0.000602101
-0.0035718
0.000618351
-0.00370531
0.000631502
-0.003832
0.000642617
-0.00395669
0.00065245
-0.00408275
0.000661476
-0.00421221
-0.00434613
0.000669928
8.01546e-06
-0.000104783
3.08916e-05
-0.000349717
6.7637e-05
-0.00063652
0.000116362
-0.000958555
0.000174122
-0.00130439
0.000237097
-0.00165911
0.000301068
-0.00200666
0.000362076
-0.00233262
0.000417015
-0.0026265
0.000463994
-0.00288309
0.000502396
-0.00310242
0.000532666
-0.00328866
0.00055595
-0.00344851
0.000573713
-0.00358956
0.000587423
-0.00371902
0.000598346
-0.00384292
0.000607452
-0.0039658
0.000615404
-0.0040907
0.000622607
-0.00421942
-0.00435276
0.000629243
8.22127e-06
-0.000113004
3.14671e-05
-0.000372963
6.84768e-05
-0.00067353
0.000117066
-0.00100714
0.000174022
-0.00136134
0.000235345
-0.00172043
0.000296789
-0.00206811
0.000354523
-0.00239035
0.000405694
-0.00267767
0.000448715
-0.00292611
0.000483247
-0.00313695
0.000509939
-0.00331535
0.000530042
-0.00346861
0.000545038
-0.00360456
0.000556343
-0.00373033
0.000565139
-0.00385172
0.000572303
-0.00397296
0.000578414
-0.00409681
0.000583816
-0.00422482
-0.00435759
0.000588645
8.4078e-06
-0.000121412
3.19581e-05
-0.000396513
6.91164e-05
-0.000710688
0.000117409
-0.00105544
0.000173371
-0.0014173
0.000232859
-0.00177992
0.000291634
-0.00212688
0.000346025
-0.00244475
0.000393442
-0.00272509
0.000432594
-0.00296527
0.000463402
-0.00316776
0.000486688
-0.00333863
0.000503783
-0.0034857
0.000516162
-0.00361694
0.000525182
-0.00373935
0.000531935
-0.00385847
0.00053721
-0.00397824
0.000541513
-0.00410111
0.000545131
-0.00422844
-0.00436062
0.000548163
8.5719e-06
-0.000129984
3.2357e-05
-0.000420298
6.95448e-05
-0.000747876
0.000117379
-0.00110327
0.000172168
-0.00147209
0.000229653
-0.0018374
0.000285638
-0.00218287
0.000336638
-0.00249574
0.000380333
-0.00276878
0.000415719
-0.00300065
0.00044295
-0.00319499
0.000462995
-0.00335868
0.00047724
-0.00349995
0.000487139
-0.00362683
0.000493976
-0.00374619
0.000498758
-0.00386325
0.00050219
-0.00398167
0.000504712
-0.00410364
0.000506559
-0.00423028
-0.00436186
0.0005078
8.71311e-06
-0.000138697
3.26622e-05
-0.000444247
6.97609e-05
-0.000784975
0.000116982
-0.00115049
0.000170427
-0.00152554
0.00022576
-0.00189273
0.000278858
-0.00223597
0.00032644
-0.00254333
0.000366463
-0.00280881
0.000398192
-0.00303238
0.000421992
-0.00321879
0.000438955
-0.00337564
0.000450497
-0.00351149
0.000458035
-0.00363437
0.00046278
-0.00375093
0.000465651
-0.00386613
0.000467278
-0.0039833
0.000468037
-0.00410439
0.000468124
-0.00423037
-0.00436132
0.00046758
8.83026e-06
-0.000147528
3.2871e-05
-0.000468288
6.97624e-05
-0.000821866
0.00011622
-0.00119695
0.000168164
-0.00157748
0.000221213
-0.00194578
0.000271346
-0.0022861
0.000315504
-0.00258748
0.000351915
-0.00284522
0.000380103
-0.00306057
0.000400617
-0.00323931
0.000414646
-0.00338967
0.000423618
-0.00352046
0.000428903
-0.00363966
0.000431633
-0.00375366
0.000432645
-0.00386714
0.000432495
-0.00398315
0.00043151
-0.00410341
0.000429845
-0.0042287
-0.004359
0.000427521
8.92235e-06
-0.00015645
3.29813e-05
-0.000492347
6.95487e-05
-0.000858434
0.000115098
-0.0012425
0.000165396
-0.00162778
0.000216046
-0.00199643
0.000263156
-0.00233321
0.000303899
-0.00262823
0.000336773
-0.00287809
0.000361537
-0.00308533
0.000378905
-0.00325668
0.000390139
-0.00340091
0.000396662
-0.00352699
0.000399788
-0.00364278
0.00040057
-0.00375444
0.000399765
-0.00386633
0.000397864
-0.00398125
0.000395146
-0.00410069
0.000391737
-0.0042253
-0.0043549
0.000387638
8.98855e-06
-0.000165438
3.29918e-05
-0.00051635
6.91206e-05
-0.000894562
0.000113624
-0.001287
0.000162143
-0.0016763
0.000210296
-0.00204459
0.000254342
-0.00237726
0.000291694
-0.00266558
0.000321111
-0.00290751
0.000342572
-0.00310679
0.000356929
-0.00327103
0.000365497
-0.00340947
0.000369681
-0.00353117
0.000370731
-0.00364383
0.000369621
-0.00375333
0.000367035
-0.00386375
0.000363403
-0.00397761
0.000358963
-0.00409625
0.000353816
-0.00422015
-0.00434903
0.000347947
9.02823e-06
-0.000174467
3.2902e-05
-0.000540224
6.84805e-05
-0.000930141
0.000111808
-0.00133033
0.000158429
-0.00172292
0.000204002
-0.00209016
0.000244959
-0.00241821
0.000278957
-0.00269958
0.000305005
-0.00293356
0.00032328
-0.00312507
0.000334754
-0.00328251
0.000340775
-0.00341549
0.000342718
-0.00353311
0.000341766
-0.00364288
0.000338815
-0.00375038
0.000334476
-0.00385941
0.000329129
-0.00397227
0.000322976
-0.0040901
0.000316096
-0.00421327
-0.00434139
0.000308461
9.04089e-06
-0.000183508
3.27117e-05
-0.000563895
6.76318e-05
-0.000965061
0.000109662
-0.00137236
0.000154277
-0.00176754
0.000197204
-0.00213309
0.000235061
-0.00245607
0.00026575
-0.00273027
0.00028852
-0.00295633
0.000303728
-0.00314028
0.000312441
-0.00329122
0.000316025
-0.00341908
0.000315815
-0.0035329
0.000312925
-0.00363999
0.000308173
-0.00374563
0.000302107
-0.00385334
0.000295058
-0.00396522
0.000287199
-0.00408224
0.00027859
-0.00420466
-0.004332
0.000269197
9.02626e-06
-0.000192534
3.24217e-05
-0.00058729
6.65795e-05
-0.000999219
0.000107199
-0.00141298
0.000149713
-0.00181005
0.000189942
-0.00217332
0.0002247
-0.00249083
0.000252136
-0.0027577
0.000271723
-0.00297591
0.000283976
-0.00315253
0.000290042
-0.00329729
0.00029129
-0.00342032
0.000289006
-0.00353062
0.000284233
-0.00363522
0.000277717
-0.00373911
0.000269945
-0.00384557
0.000261205
-0.00395648
0.000251645
-0.00407268
0.000241313
-0.00419433
-0.00432086
0.000230167
8.98421e-06
-0.000201518
3.20333e-05
-0.000610339
6.53295e-05
-0.00103251
0.000104435
-0.00145208
0.000144765
-0.00185038
0.000182255
-0.0022108
0.000213929
-0.0025225
0.000238173
-0.00278195
0.000254671
-0.00299241
0.000264081
-0.00316194
0.000267607
-0.00330081
0.000266609
-0.00341933
0.000262323
-0.00352634
0.000255716
-0.00362861
0.000247466
-0.00373086
0.000238004
-0.00383611
0.000227583
-0.00394606
0.000216328
-0.00406142
0.000204277
-0.00418228
-0.00430796
0.000191386
8.91477e-06
-0.000210433
3.15483e-05
-0.000632973
6.38886e-05
-0.00106486
0.000101384
-0.00148958
0.00013946
-0.00188846
0.000174184
-0.00224553
0.000202795
-0.00255111
0.000223915
-0.00280307
0.00023742
-0.00300592
0.000244091
-0.00316861
0.000245177
-0.0033019
0.000242018
-0.00341617
0.000235792
-0.00352011
0.000227394
-0.00362021
0.000217436
-0.00372091
0.000206301
-0.00382497
0.000194206
-0.00393396
0.00018126
-0.00404848
0.000167495
-0.00416851
-0.00429333
0.000152863
8.81816e-06
-0.000219251
3.09689e-05
-0.000655124
6.22646e-05
-0.00109615
9.80638e-05
-0.00152538
0.000133825
-0.00192422
0.000165767
-0.00227747
0.000191348
-0.00257669
0.000209413
-0.00282113
0.00022002
-0.00301652
0.000224053
-0.00317264
0.000222792
-0.00330064
0.000217548
-0.00341093
0.000209437
-0.003512
0.000199286
-0.00361006
0.000187644
-0.00370926
0.000174847
-0.00381218
0.000161084
-0.0039202
0.000146451
-0.00403385
0.00013098
-0.00415304
-0.00427696
0.00011461
8.69473e-06
-0.000227946
3.02981e-05
-0.000676727
6.04658e-05
-0.00112632
9.44914e-05
-0.00155941
0.00012789
-0.00195762
0.000157043
-0.00230662
0.000179631
-0.00259928
0.000194715
-0.00283622
0.000202516
-0.00302433
0.000204008
-0.00317413
0.000200486
-0.00329711
0.000193226
-0.00340367
0.00018328
-0.00350205
0.000171409
-0.00359819
0.000158103
-0.00369596
0.000143655
-0.00379773
0.000128229
-0.00390477
0.000111911
-0.00401753
9.47416e-05
-0.00413587
-0.00425887
7.66442e-05
8.54496e-06
-0.000236491
2.95389e-05
-0.000697721
5.85015e-05
-0.00115528
9.06846e-05
-0.00159159
0.000121681
-0.00198861
0.000148049
-0.00233299
0.000167687
-0.00261892
0.000179866
-0.00284839
0.000184952
-0.00302941
0.000183992
-0.00317318
0.000178289
-0.00329141
0.000169075
-0.00339445
0.00015734
-0.00349032
0.000143778
-0.00358463
0.000128827
-0.00368101
0.000112739
-0.00378164
9.56561e-05
-0.00388769
7.76516e-05
-0.00399952
5.87586e-05
-0.00411698
-0.00423912
3.90109e-05
8.36948e-06
-0.00024486
2.86949e-05
-0.000718046
5.63809e-05
-0.00118297
8.66613e-05
-0.00162187
0.000115226
-0.00201718
0.000138819
-0.00235658
0.000155558
-0.00263566
0.000164906
-0.00285774
0.000167365
-0.00303187
0.00016404
-0.00316985
0.000156228
-0.0032836
0.000145118
-0.00338334
0.000131634
-0.00347683
0.000116408
-0.0035694
9.98272e-05
-0.00366443
8.21117e-05
-0.00376393
6.33831e-05
-0.00386896
4.37085e-05
-0.00397985
2.30097e-05
-0.00409628
-0.00421678
6.69508e-07
8.16902e-06
-0.000253029
2.777e-05
-0.000737647
5.4114e-05
-0.00120931
8.24397e-05
-0.00165019
0.000108552
-0.00204329
0.000129387
-0.00237742
0.000143279
-0.00264955
0.000149873
-0.00286434
0.000149789
-0.00303179
0.00014418
-0.00316424
0.000134328
-0.00327375
0.000121373
-0.00337039
0.000106176
-0.00346164
8.931e-05
-0.00355253
7.11159e-05
-0.00364623
5.17823e-05
-0.00374459
3.14185e-05
-0.0038486
1.00799e-05
-0.00395851
-1.22105e-05
-0.00407399
-0.00419362
-3.53684e-05
7.9444e-06
-0.000260974
2.67684e-05
-0.000756471
5.17109e-05
-0.00123425
7.80377e-05
-0.00167652
0.000101685
-0.00206694
0.000119786
-0.00239552
0.000130886
-0.00266065
0.000134802
-0.00286825
0.000132257
-0.00302924
0.000124439
-0.00315642
0.00011261
-0.00326192
9.78569e-05
-0.00335563
8.098e-05
-0.00344476
6.24964e-05
-0.00353405
4.27033e-05
-0.00362644
2.17597e-05
-0.00372365
-2.49048e-07
-0.00382659
-2.32334e-05
-0.00393553
-4.72043e-05
-0.00405002
-0.00416874
-7.20839e-05
7.69657e-06
-0.00026867
2.56942e-05
-0.000774469
4.91818e-05
-0.00125774
7.3473e-05
-0.00170081
9.46487e-05
-0.00208811
0.000110046
-0.00241092
0.000118412
-0.00266902
0.000119724
-0.00286956
0.000114797
-0.00302432
0.000104841
-0.00314647
9.10927e-05
-0.00324817
7.45847e-05
-0.00333912
5.60582e-05
-0.00342623
3.59772e-05
-0.00351397
1.45991e-05
-0.00360506
-7.94214e-06
-0.00370111
-3.15626e-05
-0.00380297
-5.62121e-05
-0.00391088
-8.18446e-05
-0.00402438
-0.00414212
-0.000108464
7.42654e-06
-0.000276097
2.4552e-05
-0.000791594
4.6537e-05
-0.00127973
6.87629e-05
-0.00172304
8.74685e-05
-0.00210682
0.000100195
-0.00242365
0.000105888
-0.00267471
0.000104669
-0.00286835
9.74342e-05
-0.00301708
8.54071e-05
-0.00313444
6.97927e-05
-0.00323256
5.15697e-05
-0.0033209
3.14213e-05
-0.00340608
9.76204e-06
-0.00349231
-1.31874e-05
-0.00358211
-3.73172e-05
-0.00367698
-6.25583e-05
-0.00377773
-8.88522e-05
-0.00388458
-0.00011615
-0.00399709
-0.00411379
-0.000144476
7.13536e-06
-0.000283232
2.33463e-05
-0.000807805
4.37866e-05
-0.00130017
6.39244e-05
-0.00174318
8.01668e-05
-0.00212306
9.02608e-05
-0.00243374
9.33397e-05
-0.00267779
8.96628e-05
-0.00286467
8.01914e-05
-0.00300761
6.61557e-05
-0.0031204
4.8725e-05
-0.00321513
2.88234e-05
-0.003301
7.07879e-06
-0.00338434
-1.614e-05
-0.00346909
-4.06472e-05
-0.0035576
-6.63559e-05
-0.00365127
-9.32091e-05
-0.00375087
-0.000121144
-0.00385665
-0.000150105
-0.00396813
-0.00408378
-0.000180116
6.82417e-06
-0.000290056
2.20819e-05
-0.000823063
4.0941e-05
-0.00131903
5.89739e-05
-0.00176121
7.27656e-05
-0.00213685
8.02676e-05
-0.00244124
8.07944e-05
-0.00267831
7.47292e-05
-0.0028586
6.30895e-05
-0.00299597
4.71038e-05
-0.00310442
2.79026e-05
-0.00319592
6.35619e-06
-0.00327945
-1.696e-05
-0.00336102
-4.17208e-05
-0.00344433
-6.77721e-05
-0.00353155
-9.50486e-05
-0.00362399
-0.000123505
-0.00372242
-0.000153076
-0.00382708
-0.000183697
-0.0039375
-0.0040521
-0.000215377
6.49415e-06
-0.00029655
2.07633e-05
-0.000837332
3.80099e-05
-0.00133627
5.39271e-05
-0.00177713
6.52853e-05
-0.00214821
7.02389e-05
-0.0024462
6.82752e-05
-0.00267635
5.98898e-05
-0.00285022
4.61466e-05
-0.00298223
2.8266e-05
-0.00308654
7.33728e-06
-0.003175
-1.58223e-05
-0.00325629
-4.06874e-05
-0.00333616
-6.69727e-05
-0.00341805
-9.45537e-05
-0.00350397
-0.000123386
-0.00359516
-0.000153436
-0.00369237
-0.000184638
-0.00379587
-0.000216912
-0.00390523
-0.00401877
-0.000250249
6.14649e-06
-0.000302697
1.93952e-05
-0.000850581
3.50032e-05
-0.00135188
4.87993e-05
-0.00179092
5.77456e-05
-0.00215716
6.01966e-05
-0.00244865
5.58036e-05
-0.00267196
4.51642e-05
-0.00283958
2.93792e-05
-0.00296644
9.65546e-06
-0.00306681
-1.29607e-05
-0.00315238
-3.7704e-05
-0.00323155
-6.4096e-05
-0.00330977
-9.18885e-05
-0.00339025
-0.000120984
-0.00347488
-0.000151359
-0.00356478
-0.000182993
-0.00366073
-0.000215818
-0.00376305
-0.00024974
-0.00387131
-0.00398378
-0.000284725
5.78242e-06
-0.000308479
1.79823e-05
-0.000862781
3.19305e-05
-0.00136583
4.36049e-05
-0.0018026
5.01646e-05
-0.00216372
5.01606e-05
-0.00244864
4.33993e-05
-0.0026652
3.05699e-05
-0.00282675
1.28019e-05
-0.00294867
-8.71626e-06
-0.0030453
-3.29824e-05
-0.00312811
-5.92814e-05
-0.00320525
-8.71792e-05
-0.00328187
-0.000116461
-0.00336097
-0.000147056
-0.00344428
-0.00017896
-0.00353288
-0.000212165
-0.00362753
-0.000246605
-0.00372861
-0.000282169
-0.00383574
-0.00394716
-0.000318792
5.40318e-06
-0.000313882
1.65292e-05
-0.000873907
2.88008e-05
-0.0013781
3.83577e-05
-0.00181215
4.25594e-05
-0.00216792
4.01494e-05
-0.00244623
3.10803e-05
-0.00265613
1.61227e-05
-0.00281179
-3.57219e-06
-0.00292898
-2.68389e-05
-0.00302203
-5.27198e-05
-0.00310223
-8.0548e-05
-0.00317742
-0.000109931
-0.00325248
-0.000140685
-0.00333022
-0.000172763
-0.0034122
-0.000206178
-0.00349947
-0.000240941
-0.00359277
-0.000276988
-0.00369256
-0.00031419
-0.00379854
-0.00390891
-0.000352443
5.01004e-06
-0.000318892
1.50403e-05
-0.000883937
2.56231e-05
-0.00138868
3.30709e-05
-0.0018196
3.49462e-05
-0.00216979
3.01801e-05
-0.00244147
1.88626e-05
-0.00264481
1.83771e-06
-0.00279477
-1.97317e-05
-0.00290741
-4.47035e-05
-0.00299706
-7.21656e-05
-0.00307477
-0.000101498
-0.00314809
-0.000132346
-0.00322164
-0.000164555
-0.00329801
-0.000198097
-0.00337866
-0.000233007
-0.00346456
-0.000269312
-0.00355646
-0.000306955
-0.00365492
-0.00034579
-0.00375971
-0.00386903
-0.000385666
4.60427e-06
-0.000323497
1.35202e-05
-0.000892853
2.2406e-05
-0.00139757
2.77568e-05
-0.00182495
2.73398e-05
-0.00216938
2.02683e-05
-0.0024344
6.76133e-06
-0.0026313
-1.22751e-05
-0.00277573
-3.56664e-05
-0.00288402
-6.2302e-05
-0.00297042
-9.13137e-05
-0.00304576
-0.000122126
-0.00311728
-0.000154419
-0.00318934
-0.000188064
-0.00326436
-0.000223053
-0.00334367
-0.000259439
-0.00342817
-0.000297267
-0.00351863
-0.000336495
-0.00361569
-0.000376958
-0.00371924
-0.00382753
-0.000418453
4.18717e-06
-0.000327684
1.19732e-05
-0.000900639
1.91577e-05
-0.00140475
2.24273e-05
-0.00182822
1.97546e-05
-0.0021667
1.04275e-05
-0.00242507
-5.21026e-06
-0.00261566
-2.62016e-05
-0.00275474
-5.13672e-05
-0.00285885
-7.96275e-05
-0.00294216
-0.000110159
-0.00301523
-0.000142427
-0.00308501
-0.000176146
-0.00315562
-0.00021121
-0.0032293
-0.000247626
-0.00330726
-0.000285465
-0.00339033
-0.000324797
-0.0034793
-0.000365594
-0.00357489
-0.000407682
-0.00367716
-0.00378442
-0.000450792
3.76008e-06
-0.000331444
1.04034e-05
-0.000907282
1.58858e-05
-0.00141024
1.70931e-05
-0.00182943
1.22041e-05
-0.00216181
6.86952e-07
-0.00241355
-1.704e-05
-0.00259794
-3.9933e-05
-0.00273185
-6.68263e-05
-0.00283196
-9.66737e-05
-0.00291231
-0.000128695
-0.00298321
-0.000162397
-0.00305131
-0.000197523
-0.0031205
-0.000233986
-0.00319284
-0.00027181
-0.00326943
-0.000311081
-0.00335106
-0.000351891
-0.00343849
-0.00039424
-0.00353254
-0.000437949
-0.00363345
-0.0037397
-0.000482675
3.32445e-06
-0.000334768
8.81501e-06
-0.000912773
1.25979e-05
-0.00141402
1.17647e-05
-0.0018286
4.69774e-06
-0.00215475
-8.98511e-06
-0.00239987
-2.87197e-05
-0.0025782
-5.34601e-05
-0.00270711
-8.20363e-05
-0.00280338
-0.000113435
-0.00288092
-0.000146919
-0.00294972
-0.000182032
-0.0030162
-0.000218547
-0.00308398
-0.000256391
-0.00315499
-0.000295602
-0.00323022
-0.00033628
-0.00331038
-0.000378542
-0.00339623
-0.000422421
-0.00348867
-0.000467744
-0.00358813
2.88156e-06
-0.00033765
7.212e-06
-0.000917103
9.30143e-06
-0.00141611
6.4513e-06
-0.00182575
-2.75039e-06
-0.00214555
-1.85339e-05
-0.00238408
-4.02368e-05
-0.0025565
-6.67749e-05
-0.00268057
-9.6991e-05
-0.00277317
-0.000129907
-0.002848
-0.000164826
-0.0029148
-0.000201329
-0.00297969
-0.000239213
-0.0030461
-0.000278421
-0.00311578
-0.000318998
-0.00318965
-0.000361057
-0.00326832
-0.000404742
-0.00335254
-0.000450124
-0.00344328
2.43242e-06
-0.000340082
5.59801e-06
-0.000920269
6.00343e-06
-0.00141651
1.17282e-06
-0.00182091
-1.01376e-05
-0.00213423
-2.79663e-05
-0.00236626
-5.15828e-05
-0.00253288
-7.98701e-05
-0.00265228
-0.000111685
-0.00274135
-0.000146085
-0.0028136
-0.000182413
-0.00287847
-0.000220285
-0.00294182
-0.000259519
-0.00300687
-0.000300073
-0.00307523
-0.000341996
-0.00314772
-0.000385412
-0.00322491
-0.000430484
-0.00330747
1.97835e-06
-0.000342061
3.97698e-06
-0.000922267
2.70773e-06
-0.00141524
-4.09352e-06
-0.00181411
-1.74469e-05
-0.00212088
-3.7272e-05
-0.00234643
-6.27501e-05
-0.00250741
-9.27394e-05
-0.00262229
-0.000126113
-0.00270798
-0.000161964
-0.00277775
-0.000199677
-0.00284076
-0.000238896
-0.0029026
-0.000279463
-0.0029663
-0.000321345
-0.00303335
-0.000364596
-0.00310447
-0.000409341
-0.00318016
1.52023e-06
-0.000343581
2.35259e-06
-0.0009231
-5.66927e-07
-0.00141232
-9.30986e-06
-0.00180537
-2.46717e-05
-0.00210552
-4.64429e-05
-0.00232466
-7.37317e-05
-0.00248012
-0.000105377
-0.00259065
-0.000140271
-0.00267308
-0.000177543
-0.00274048
-0.000216614
-0.00280169
-0.00025716
-0.00286205
-0.000299042
-0.00292442
-0.000342235
-0.00299015
-0.000386795
-0.00305991
-0.00313411
1.05834e-06
-0.000344639
7.24553e-07
-0.000922766
-3.85007e-06
-0.00140775
-1.44799e-05
-0.00179474
-3.18042e-05
-0.0020882
-5.54715e-05
-0.00230099
-8.45212e-05
-0.00245107
-0.000117778
-0.00255739
-0.000154154
-0.00263671
-0.000192816
-0.00270181
-0.000233221
-0.00276129
-0.000275074
-0.0028202
-0.000318252
-0.00288124
-0.000362741
-0.00294567
-0.000408593
-0.00301406
5.88613e-07
-0.000345228
-9.02706e-07
-0.000921275
-7.10053e-06
-0.00140155
-1.95952e-05
-0.00178225
-3.88376e-05
-0.00206895
-6.4351e-05
-0.00227548
-9.51128e-05
-0.00242031
-0.000129937
-0.00252256
-0.00016776
-0.00259889
-0.000207782
-0.00266179
-0.000249497
-0.00271957
-0.000292635
-0.00277706
-0.000337092
-0.00283678
-0.000382859
-0.0028999
8.64108e-08
-0.000345314
-2.52877e-06
-0.000918659
-1.03254e-05
-0.00139376
-2.46496e-05
-0.00176792
-4.57649e-05
-0.00204784
-7.30753e-05
-0.00224817
-0.000105501
-0.00238788
-0.000141852
-0.00248621
-0.000181085
-0.00255965
-0.000222438
-0.00262044
-0.000265437
-0.00267657
-0.00030984
-0.00273266
-0.000355557
-0.00279107
-0.00285287
-3.70425e-07
-0.000344944
-4.14211e-06
-0.000914888
-1.35199e-05
-0.00138438
-2.96372e-05
-0.0017518
-5.25802e-05
-0.00202489
-8.16387e-05
-0.00221911
-0.000115683
-0.00235383
-0.000153517
-0.00244838
-0.000194126
-0.00251904
-0.000236781
-0.00257778
-0.00028104
-0.00263231
-0.000326686
-0.00268702
-0.000373643
-0.00274411
-8.21554e-07
-0.000344122
-5.74272e-06
-0.000909967
-1.66795e-05
-0.00137344
-3.45529e-05
-0.00173393
-5.92778e-05
-0.00200017
-9.00363e-05
-0.00218835
-0.000125652
-0.00231822
-0.00016493
-0.0024091
-0.00020688
-0.00247709
-0.000250808
-0.00253386
-0.000296303
-0.00258682
-0.000343169
-0.00264015
-0.00269593
-1.28611e-06
-0.000342836
-7.33141e-06