/*--------------------------------*- C++ -*----------------------------------*\
  =========                 |
  \\      /  F ield         | OpenFOAM: The Open Source CFD Toolbox
   \\    /   O peration     | Website:  https://openfoam.org
    \\  /    A nd           | Version:  7
     \\/     M anipulation  |
\*---------------------------------------------------------------------------*/
FoamFile
{
    version     2.0;
    format      ascii;
    class       volVectorField;
    location    "60";
    object      U;
}
// * * * * * * * * * * * * * * * * * * * * * * * * * * * * * * * * * * * * * //

dimensions      [0 1 -1 0 0 0 0];

internalField   nonuniform List<vector> 
8500
(
(-0.00879711 0.00679498 6.60207e-20)
(-0.00869828 0.00647522 5.58523e-20)
(-0.0180728 0.0148275 -7.37917e-20)
(-0.00853833 0.0061284 3.5557e-19)
(-0.0170236 0.0137943 -2.10794e-19)
(-0.0169643 0.0186383 -1.60869e-21)
(-0.00831031 0.0057545 -1.85256e-19)
(-0.0157464 0.0127007 1.02936e-21)
(-0.014017 0.0169915 1.52449e-19)
(-0.00800691 0.00535381 -6.58433e-20)
(-0.014221 0.0115502 3.84117e-20)
(-0.0106252 0.0152887 5.68634e-20)
(0.00264288 0.0171708 -1.66373e-19)
(-0.00762047 0.00492698 3.37701e-19)
(-0.0124266 0.0103471 -8.541e-20)
(-0.00675723 0.0135404 -1.22725e-19)
(0.00920222 0.0150913 6.34711e-20)
(0.0355053 0.0158259 2.97545e-19)
(-0.00714309 0.00447507 -1.51859e-19)
(-0.0103421 0.00909699 2.26668e-20)
(-0.00238166 0.0117587 -1.72406e-19)
(0.0165005 0.0130201 -2.41745e-19)
(0.0463277 0.0137306 -1.03432e-19)
(0.0871166 0.0146395 -5.75691e-20)
(-0.00656664 0.00399963 -1.49663e-19)
(-0.00794651 0.00780667 3.29414e-19)
(0.00253248 0.00995766 2.04505e-19)
(0.0245748 0.0109797 9.13609e-20)
(0.0581646 0.0117425 -3.30902e-20)
(0.103261 0.013008 -2.1558e-19)
(0.159728 0.0154209 2.97715e-20)
(-0.00588285 0.00350269 2.67112e-20)
(-0.00521849 0.00648439 -4.90303e-20)
(0.00801533 0.00815339 3.64173e-20)
(0.0334595 0.00899504 -8.8065e-20)
(0.0710492 0.00989546 1.86376e-19)
(0.120668 0.0116244 3.35866e-19)
(0.182063 0.0148209 1.03916e-19)
(0.254731 0.0200053 6.51227e-20)
(-0.00508337 0.00298683 -9.07545e-20)
(-0.00213723 0.00513982 -2.10623e-19)
(0.0140958 0.00636407 -1.59975e-19)
(0.0431865 0.00709351 4.96753e-20)
(0.0850087 0.00822577 -2.67308e-19)
(0.139352 0.0105324 -3.31272e-19)
(0.20582 0.0146386 -4.38771e-20)
(0.283695 0.0210315 -1.02205e-19)
(0.371789 0.0300208 -9.86763e-21)
(-0.00415982 0.00245521 -7.0663e-20)
(0.00131764 0.00378414 -5.53852e-20)
(0.020801 0.00461001 2.45967e-19)
(0.0537838 0.00530482 -1.51958e-19)
(0.100065 0.00677194 3.90968e-19)
(0.159318 0.00977752 1.6405e-19)
(0.230971 0.0149224 -1.07525e-19)
(0.314061 0.0226475 -1.83397e-19)
(0.407074 0.0331861 -2.90923e-19)
(0.507828 0.0465205 3.07754e-19)
(-0.00310393 0.00191158 1.39165e-19)
(0.0051657 0.00243009 2.25932e-19)
(0.0281562 0.00291361 9.52263e-21)
(0.0652754 0.00366097 1.39469e-19)
(0.116231 0.00557444 -3.36717e-19)
(0.180557 0.00940592 8.14171e-20)
(0.257475 0.0157201 -5.33925e-20)
(0.345737 0.0248959 -1.06375e-20)
(0.443471 0.0370725 -1.00162e-19)
(0.548083 0.0521051 -2.18264e-19)
(0.656283 0.0695407 1.07082e-19)
(-0.00190758 0.00136035 -2.49866e-20)
(0.00942546 0.00109196 -3.42822e-19)
(0.0361837 0.00129939 -2.63432e-19)
(0.0776803 0.00219614 -1.68668e-20)
(0.133513 0.00467533 5.93279e-20)
(0.203051 0.00946429 -1.14337e-19)
(0.285274 0.0170777 -1.08663e-21)
(0.378615 0.0278154 3.73934e-20)
(0.480809 0.0417032 5.51156e-20)
(0.588838 0.0584508 3.12103e-19)
(0.699019 0.0774423 1.28775e-19)
(0.807262 0.0977747 7.83612e-20)
(0.909475 0.118357 -1.03795e-19)
(-0.000562899 0.000806522 4.5165e-20)
(0.0141142 -0.000214384 1.82355e-19)
(0.0449031 -0.00020618 1.12963e-19)
(0.0910123 0.000946382 -2.09135e-19)
(0.15191 0.00411792 4.45554e-20)
(0.226769 0.00999913 2.70032e-19)
(0.314297 0.0190391 1.47129e-19)
(0.412567 0.0314396 1.91271e-20)
(0.5189 0.0470934 1.78164e-19)
(0.629849 0.0655485 -3.61054e-19)
(0.741368 0.0860174 -1.0112e-19)
(0.849153 0.107445 -4.29404e-20)
(0.94911 0.128637 2.52745e-19)
(1.03786 0.148426 -1.6613e-19)
(0.000937633 0.00025577 -4.21421e-20)
(0.0192473 -0.00147158 -2.61435e-20)
(0.0543304 -0.00157473 -6.74468e-20)
(0.105279 -5.05547e-05 2.18862e-19)
(0.171409 0.00394629 1.47274e-19)
(0.251669 0.0110561 -4.6285e-20)
(0.344453 0.0216447 -7.8893e-21)
(0.44745 0.0357963 1.8168e-19)
(0.557542 0.0532506 -2.76223e-19)
(0.670866 0.0733797 1.67545e-19)
(0.783056 0.0952216 1.70788e-19)
(0.889673 0.11758 4.54666e-20)
(0.986721 0.139182 -8.98339e-20)
(1.07115 0.158862 1.29899e-19)
(1.14118 0.175717 1.06314e-19)
(0.00260107 -0.000285605 -6.64488e-20)
(0.0248387 -0.00266077 2.90072e-20)
(0.0644775 -0.00277621 1.902e-19)
(0.120481 -0.000755603 2.99489e-21)
(0.191989 0.00420479 -3.18415e-19)
(0.277692 0.0126793 -2.18453e-19)
(0.375641 0.0249314 -1.85274e-19)
(0.483105 0.0409068 -9.66871e-20)
(0.596525 0.0601737 3.66559e-19)
(0.711639 0.0819176 -1.62891e-20)
(0.823824 0.105004 4.89745e-20)
(0.928593 0.128112 7.95086e-20)
(1.02215 0.14992 -2.64073e-19)
(1.10184 0.169295 -2.09252e-19)
(1.16644 0.185437 5.5726e-20)
(1.21607 0.197941 -1.04595e-20)
(1.25202 0.20682 -2.14165e-19)
(0.00443389 -0.00081067 8.41518e-20)
(0.0308998 -0.00376174 1.0797e-19)
(0.0753521 -0.00377905 -1.97512e-19)
(0.136612 -0.00112873 -1.08557e-20)
(0.213618 0.00493749 3.76823e-19)
(0.304771 0.0149105 2.33759e-19)
(0.407742 0.0289313 -9.43061e-20)
(0.519363 0.0467857 1.38187e-19)
(0.635631 0.0678538 -1.45655e-19)
(0.751925 0.0911278 -1.4688e-19)
(0.863433 0.115308 1.49176e-19)
(0.965716 0.138973 -2.99146e-19)
(1.05527 0.160784 3.69344e-20)
(1.12993 0.179672 1.4123e-19)
(1.18901 0.194964 -7.65557e-20)
(1.23319 0.206411 1.07922e-19)
(1.26418 0.21417 -1.29497e-19)
(1.28426 0.218562 2.09323e-20)
(0.00644193 -0.00131189 9.92876e-20)
(0.0374395 -0.00475299 -3.27916e-19)
(0.0869571 -0.00455044 5.22868e-20)
(0.15366 -0.00112935 -5.48098e-20)
(0.236256 0.00618759 -1.32227e-19)
(0.332823 0.017789 -1.06771e-19)
(0.440627 0.0336713 9.46042e-20)
(0.556044 0.0534403 -4.33466e-19)
(0.674642 0.0762739 -1.01533e-19)
(0.791489 0.100969 6.40355e-20)
(0.901667 0.126076 -8.13072e-20)
(1.00088 0.150099 2.32191e-19)
(1.08601 0.171713 1.61579e-19)
(1.15542 0.189948 5.58319e-20)
(1.209 0.204275 3.04e-19)
(1.24793 0.214607 -2.96305e-19)
(1.27428 0.221239 1.80641e-19)
(1.29056 0.224611 2.49727e-19)
(1.29933 0.22569 -1.74814e-19)
(1.30265 0.223766 4.89636e-20)
(0.00863019 -0.00178114 8.18254e-21)
(0.0444641 -0.00561188 -3.39539e-21)
(0.0992902 -0.00505662 2.40408e-19)
(0.171601 -0.000716781 -3.4976e-20)
(0.259849 0.00799682 -1.43803e-20)
(0.361756 0.0213499 2.5357e-19)
(0.474155 0.0391725 2.90803e-19)
(0.592962 0.0608708 7.80557e-20)
(0.713341 0.08541 1.68565e-19)
(0.830111 0.111396 -1.1086e-19)
(0.938339 0.137247 -9.28945e-20)
(1.03397 0.161425 -1.4826e-21)
(1.11434 0.182655 -1.11955e-19)
(1.17837 0.200088 -4.17355e-21)
(1.22653 0.213357 -2.14208e-19)
(1.26045 0.222535 8.30785e-20)
(1.28252 0.228048 1.91044e-19)
(1.29538 0.230438 -9.49114e-20)
(1.30157 0.23067 1.07593e-19)
(1.30309 0.228174 1.88737e-19)
(0.0110028 -0.00220978 3.13804e-20)
(0.0519768 -0.00631483 -8.539e-20)
(0.112344 -0.00526316 -4.98957e-21)
(0.190408 0.000149274 1.7444e-21)
(0.284335 0.0104049 -1.6884e-19)
(0.391464 0.0256247 -2.34709e-20)
(0.508175 0.0454501 -3.00598e-19)
(0.629927 0.0690701 3.1171e-19)
(0.751518 0.0952313 1.60088e-19)
(0.867591 0.122358 1.36759e-20)
(0.97329 0.148762 -1.50309e-21)
(1.06489 0.172895 -8.11795e-20)
(1.14025 0.193565 4.80112e-20)
(1.19887 0.210067 1.28952e-19)
(1.24176 0.222204 -2.21627e-19)
(1.27096 0.230209 1.66616e-19)
(1.28911 0.234624 -1.97004e-19)
(1.29891 0.236075 -8.59324e-21)
(1.30286 0.235515 1.96351e-22)
(1.30285 0.232488 8.39493e-20)
(0.0135629 -0.00258865 -6.80876e-20)
(0.0599775 -0.00683745 -7.82758e-20)
(0.126104 -0.00513534 1.10532e-19)
(0.210041 0.00150824 -4.93384e-20)
(0.309642 0.0134487 -1.55804e-20)
(0.421834 0.0306399 -1.49379e-19)
(0.54253 0.0525126 1.66528e-19)
(0.666749 0.0780245 -2.96733e-19)
(0.788973 0.105702 2.78709e-20)
(0.903749 0.133802 4.52388e-20)
(1.00639 0.160561 -2.43505e-20)
(1.0936 0.184455 1.78796e-20)
(1.16377 0.204403 -2.00239e-19)
(1.21702 0.219866 -1.50673e-19)
(1.25484 0.230819 1.25651e-19)
(1.27964 0.237647 -3.9795e-20)
(1.29422 0.240993 -2.33364e-19)
(1.30132 0.241552 -4.25622e-20)
(1.30334 0.240253 -1.86598e-19)
(1.30204 0.236734 -2.26675e-19)
(0.0163125 -0.00290821 -1.6333e-20)
(0.0684627 -0.00715479 1.14851e-19)
(0.140551 -0.00463851 8.4008e-20)
(0.230456 0.00339814 2.43488e-19)
(0.335689 0.0171622 -9.04452e-21)
(0.452742 0.036417 1.28064e-19)
(0.577059 0.0603624 -2.71827e-19)
(0.70324 0.0877134 9.46541e-20)
(0.825516 0.116781 -7.93214e-20)
(0.938426 0.145676 1.14486e-19)
(1.03755 0.172591 2.78008e-20)
(1.12007 0.19606 6.57834e-20)
(1.18497 0.215142 1.86274e-19)
(1.23294 0.229475 2.26817e-20)
(1.26594 0.23921 -1.12549e-19)
(1.28667 0.244868 1.83408e-19)
(1.29804 0.247184 6.28966e-20)
(1.30277 0.246899 -2.9256e-20)
(1.30313 0.24491 1.75269e-19)
(1.30074 0.240936 1.13817e-19)
(0.0192523 -0.00315852 5.37276e-20)
(0.0774251 -0.00724155 6.01972e-20)
(0.155661 -0.00373848 -1.48108e-19)
(0.251599 0.00585512 -3.33726e-20)
(0.362384 0.0215754 4.34888e-20)
(0.484058 0.0429719 -2.55922e-20)
(0.611595 0.0689952 1.54237e-19)
(0.73922 0.0981109 -4.90793e-20)
(0.860976 0.128423 -5.96011e-20)
(0.97149 0.157925 -2.02442e-19)
(1.06669 0.184798 -1.28727e-19)
(1.1443 0.207669 -1.16999e-19)
(1.20392 0.225759 -9.45128e-20)
(1.24677 0.238892 3.58442e-20)
(1.27523 0.247387 -6.84153e-20)
(1.29222 0.251896 8.27272e-21)
(1.30072 0.253222 1.26216e-19)
(1.30338 0.252141 1.31046e-19)
(1.30232 0.249508 8.48404e-21)
(1.29903 0.245111 7.7923e-20)
(0.022382 -0.00332939 2.80568e-20)
(0.0868536 -0.00707237 1.03593e-19)
(0.171401 -0.0024019 8.13503e-20)
(0.273408 0.00891292 -1.34708e-19)
(0.389631 0.0267141 1.2495e-19)
(0.515646 0.0503149 -4.05583e-20)
(0.645976 0.0784006 -8.55391e-20)
(0.774513 0.109186 2.04277e-19)
(0.895198 0.140584 -5.13466e-20)
(1.00283 0.170498 -2.36047e-21)
(1.09378 0.197135 1.37597e-19)
(1.16633 0.219247 -1.23584e-19)
(1.22071 0.236236 5.29038e-20)
(1.25864 0.248116 -1.33067e-19)
(1.28286 0.255367 2.20028e-19)
(1.29645 0.258754 -1.64239e-19)
(1.30239 0.259133 -9.68736e-20)
(1.30325 0.257302 -1.05397e-21)
(1.301 0.254066 -1.35925e-19)
(1.29696 0.249275 -1.92924e-21)
(0.0256995 -0.00341044 -1.25632e-19)
(0.0967334 -0.00662205 -4.5352e-20)
(0.187734 -0.000596709 -1.52419e-19)
(0.295815 0.0126024 -8.44734e-20)
(0.417324 0.0325997 -4.28299e-20)
(0.547367 0.0584504 -2.08923e-20)
(0.680039 0.0885623 9.44165e-20)
(0.808958 0.120902 -5.14293e-20)
(0.928046 0.153213 -2.52337e-20)
(1.03237 0.183342 6.27694e-20)
(1.11879 0.20956 -8.49712e-20)
(1.18622 0.230768 1.07048e-19)
(1.23545 0.246565 1.01959e-19)
(1.2687 0.257153 2.26831e-20)
(1.28898 0.263166 -6.23147e-20)
(1.29949 0.265462 -1.41618e-20)
(1.30318 0.26494 -8.27653e-20)
(1.3025 0.262402 -3.42713e-20)
(1.29923 0.2586 5.59635e-20)
(1.29457 0.253437 -9.06352e-20)
(0.0292016 -0.00339121 4.19965e-20)
(0.107046 -0.00586586 -7.06773e-20)
(0.204616 0.00170747 1.20043e-19)
(0.318744 0.0169512 5.5663e-20)
(0.445351 0.0392485 -8.05169e-20)
(0.57908 0.0673768 9.92811e-20)
(0.713626 0.0994583 2.46404e-20)
(0.842403 0.13322 -4.39969e-20)
(0.959402 0.166262 1.19084e-19)
(1.06004 0.196411 3.49393e-20)
(1.14173 0.222033 6.63584e-20)
(1.20401 0.242209 -6.81556e-20)
(1.24825 0.256739 -4.49955e-20)
(1.27708 0.266013 9.30136e-20)
(1.29373 0.270802 -2.65957e-20)
(1.30148 0.272044 1.47616e-19)
(1.30319 0.270663 7.64989e-20)
(1.30118 0.267459 -1.18993e-20)
(1.29707 0.26312 3.98253e-20)
(1.29189 0.257608 1.47595e-19)
(0.0328835 -0.00326125 -2.07291e-20)
(0.117767 -0.00477983 1.17097e-20)
(0.221999 0.00453896 -1.10691e-19)
(0.342114 0.0219831 7.0714e-20)
(0.473599 0.0466716 6.56944e-20)
(0.610642 0.077087 -9.39283e-20)
(0.746585 0.111062 4.35322e-20)
(0.874712 0.146098 -8.45731e-20)
(0.98917 0.179682 -1.19992e-19)
(1.08581 0.209658 4.30588e-20)
(1.16263 0.234522 8.06184e-21)
(1.2198 0.253551 6.56702e-20)
(1.25923 0.266756 4.33159e-20)
(1.28391 0.274704 -2.96702e-20)
(1.29725 0.278291 -6.03491e-21)
(1.30253 0.278518 -2.25431e-20)
(1.30252 0.276322 -1.13821e-19)
(1.29938 0.272486 9.8466e-21)
(1.29456 0.267638 -7.12783e-20)
(1.28896 0.261792 4.44946e-22)
(0.0367388 -0.00301025 -2.36889e-20)
(0.128872 -0.00334099 -3.01806e-20)
(0.239828 0.00792361 1.17278e-19)
(0.365838 0.027718 -1.43136e-20)
(0.501949 0.0548749 3.76989e-22)
(0.641913 0.087568 -6.45043e-20)
(0.778774 0.123341 -1.13312e-20)
(0.905763 0.159491 4.53251e-20)
(1.01727 0.193425 1.55251e-19)
(1.10965 0.223042 -4.96675e-20)
(1.18152 0.246998 8.25113e-21)
(1.23368 0.264783 2.62318e-20)
(1.26851 0.276618 -5.11114e-20)
(1.28933 0.28324 -3.23101e-20)
(1.29965 0.285652 8.96211e-21)
(1.30274 0.284903 2.92289e-20)
(1.30124 0.28193 7.23319e-20)
(1.29714 0.277493 -1.80771e-21)
(1.29173 0.272159 2.56994e-20)
(1.28579 0.265992 1.67156e-20)
(0.0407598 -0.00262815 4.13423e-20)
(0.140329 -0.00152773 8.48433e-20)
(0.258043 0.0118844 5.8673e-20)
(0.389824 0.0341713 -3.19818e-20)
(0.530281 0.0638589 1.18574e-19)
(0.672757 0.0988015 7.00783e-20)
(0.810059 0.136261 -1.05281e-19)
(0.935448 0.173354 -3.67462e-20)
(1.04365 0.207445 5.57767e-22)
(1.13156 0.236524 -3.04507e-20)
(1.19846 0.259435 -8.64235e-20)
(1.24573 0.275893 1.44537e-20)
(1.2762 0.286328 1.56429e-22)
(1.29345 0.291632 -8.65907e-20)
(1.30105 0.2929 3.90078e-20)
(1.3022 0.291213 -2.06881e-20)
(1.29942 0.2875 -8.82052e-20)
(1.29451 0.282491 4.18181e-20)
(1.28862 0.276689 -8.50358e-20)
(1.28239 0.270209 -4.9388e-20)
(0.044937 -0.00210523 -1.44393e-20)
(0.152104 0.000679951 -3.62741e-20)
(0.276581 0.0164414 -6.08918e-20)
(0.413978 0.0413537 -2.93079e-21)
(0.558473 0.0736186 -5.1807e-21)
(0.703041 0.110764 -6.67653e-20)
(0.840315 0.149783 1.49777e-20)
(0.963678 0.18764 1.41711e-20)
(1.06826 0.221696 -2.97244e-20)
(1.15155 0.250069 2.38569e-21)
(1.2135 0.271813 4.57842e-20)
(1.25604 0.286877 -5.90032e-21)
(1.28242 0.295891 3.35719e-20)
(1.29638 0.299892 1.48767e-20)
(1.30154 0.300049 -7.94495e-20)
(1.30099 0.297463 6.27087e-21)
(1.2971 0.293042 4.69302e-20)
(1.29152 0.287483 -1.07078e-20)
(1.28523 0.281228 2.59671e-21)
(1.27878 0.274443 -6.58513e-21)
(0.0492595 -0.00143229 -1.33699e-20)
(0.164159 0.0033002 -1.30897e-20)
(0.295373 0.0216108 -2.3206e-20)
(0.438202 0.0492714 -1.5272e-20)
(0.586406 0.0841436 -3.96455e-20)
(0.732637 0.123428 4.63322e-20)
(0.869433 0.163865 9.17228e-20)
(0.990376 0.202303 3.18803e-20)
(1.09107 0.236135 1.61784e-20)
(1.16966 0.263644 -3.86637e-20)
(1.22672 0.284114 -4.16086e-22)
(1.26473 0.297729 2.44124e-20)
(1.28727 0.305313 -3.09294e-20)
(1.29822 0.308031 1.12292e-20)
(1.3012 0.307112 3.80616e-20)
(1.29917 0.303662 -1.26819e-20)
(1.29435 0.298564 -2.20952e-20)
(1.2882 0.292475 -1.9823e-20)
(1.28159 0.285778 6.7389e-20)
(1.27496 0.278693 2.25302e-20)
(0.0537152 -0.000600686 -2.41636e-20)
(0.176454 0.00634903 2.91765e-20)
(0.31435 0.0274054 -6.73374e-21)
(0.462395 0.0579253 2.08271e-20)
(0.613962 0.0954184 -1.86616e-20)
(0.761428 0.136761 -1.14283e-20)
(0.897311 0.178464 -4.48408e-20)
(1.01548 0.217294 5.25789e-21)
(1.11208 0.250722 1.25112e-20)
(1.18591 0.277221 2.77833e-20)
(1.23819 0.296323 -1.07935e-20)
(1.27188 0.308447 -8.38954e-21)
(1.29084 0.314601 7.45645e-21)
(1.29907 0.316061 -1.28459e-20)
(1.30011 0.3141 2.88252e-20)
(1.2968 0.309819 1.8716e-20)
(1.29118 0.304069 -3.00906e-21)
(1.28457 0.297466 -1.93696e-21)
(1.27771 0.290337 -1.82642e-20)
(1.27093 0.282953 -2.15963e-20)
(0.0582901 0.000397486 5.22934e-21)
(0.188945 0.00984008 -9.16504e-21)
(0.333435 0.0338341 6.22735e-21)
(0.486459 0.0673117 -8.5935e-21)
(0.641025 0.107422 -3.30242e-20)
(0.789299 0.150727 1.52869e-20)
(0.923862 0.193534 7.32851e-21)
(1.03894 0.232569 -3.50797e-20)
(1.13129 0.265417 -2.1936e-20)
(1.20036 0.290774 -2.06603e-21)
(1.24799 0.308427 -2.9794e-20)
(1.27759 0.319029 3.03273e-20)
(1.29325 0.32376 -1.32596e-22)
(1.299 0.323989 -3.90602e-21)
(1.29833 0.32102 -7.40714e-21)
(1.29391 0.31594 3.46152e-21)
(1.28763 0.309561 2.49891e-21)
(1.28066 0.302456 -7.89925e-22)
(1.2736 0.294902 -6.42453e-21)
(1.26671 0.287221 7.42392e-21)
(0.0629693 0.00156933 1.76905e-21)
(0.201586 0.0137844 6.06942e-21)
(0.352554 0.0409015 3.38031e-21)
(0.510292 0.0774218 -1.5777e-21)
(0.667484 0.12013 2.18643e-20)
(0.816149 0.165286 -4.88069e-21)
(0.94901 0.209027 7.70287e-21)
(1.06073 0.248081 1.70157e-20)
(1.1487 0.280184 -3.03937e-21)
(1.21305 0.304277 7.75708e-22)
(1.2562 0.320415 8.22655e-21)
(1.28194 0.329476 -4.28667e-21)
(1.29456 0.332797 5.42763e-21)
(1.2981 0.331824 1.00557e-21)
(1.29592 0.32788 -9.76429e-21)
(1.29056 0.322028 5.18771e-22)
(1.28373 0.31504 1.18603e-20)
(1.27646 0.307444 -2.29929e-21)
(1.26925 0.299469 3.39291e-21)
(1.26228 0.291491 -3.61057e-21)
(0.0677369 0.00292103 7.41708e-22)
(0.214329 0.0181904 9.03203e-21)
(0.371628 0.0486082 4.84719e-21)
(0.533796 0.0882417 -1.01556e-21)
(0.693234 0.133512 2.0379e-20)
(0.841884 0.180396 -5.7907e-21)
(0.972691 0.224897 1.06894e-20)
(1.08083 0.263786 1.4258e-20)
(1.16434 0.294989 -2.93199e-21)
(1.22404 0.317711 6.50558e-22)
(1.26289 0.332277 9.2782e-21)
(1.28503 0.339787 -3.72621e-21)
(1.29487 0.341714 3.44202e-21)
(1.29642 0.339571 -8.18273e-22)
(1.29293 0.334684 -7.74005e-21)
(1.28678 0.328084 -2.14196e-22)
(1.2795 0.320504 1.14585e-20)
(1.27199 0.312424 -2.10749e-21)
(1.26468 0.304033 3.83385e-21)
(1.25765 0.295755 -3.81357e-21)
(0.0725755 0.00445779 6.40329e-21)
(0.227123 0.0230635 -1.16403e-20)
(0.39058 0.0569505 5.95601e-21)
(0.556875 0.0997531 -4.78444e-21)
(0.718174 0.147534 -3.23789e-20)
(0.866418 0.196011 1.30922e-20)
(0.994853 0.241096 6.05061e-21)
(1.09921 0.279642 -4.03624e-20)
(1.17823 0.309798 -1.67345e-20)
(1.23339 0.331054 -2.3395e-23)
(1.26815 0.344006 -2.5056e-20)
(1.28693 0.34996 2.0364e-20)
(1.29423 0.350516 -4.38612e-21)
(1.29402 0.347233 2.76366e-21)
(1.2894 0.341432 -9.97168e-21)
(1.28258 0.334109 7.38794e-21)
(1.27494 0.325951 4.30372e-21)
(1.26726 0.317393 -8.53766e-22)
(1.25988 0.308588 -7.94922e-21)
(1.25282 0.300009 6.7824e-21)
(0.0774666 0.00618373 -1.39274e-20)
(0.239917 0.0284062 -6.31538e-21)
(0.409331 0.0659203 -9.0817e-21)
(0.579431 0.111933 3.1519e-20)
(0.74221 0.162158 4.71437e-23)
(0.889677 0.212085 -1.66236e-20)
(1.01545 0.257573 -6.70107e-20)
(1.11589 0.295605 6.544e-21)
(1.19042 0.324581 7.55807e-21)
(1.24117 0.344289 3.24948e-20)
(1.27204 0.355594 4.8181e-21)
(1.28771 0.359996 -2.59351e-20)
(1.29272 0.359204 2.37424e-20)
(1.29096 0.354813 -9.32912e-21)
(1.28537 0.348126 3.33531e-20)
(1.27799 0.340099 -3.21632e-21)
(1.27007 0.331375 1.46203e-21)
(1.26227 0.322344 1.27242e-21)
(1.25486 0.313127 -1.99701e-20)
(1.24779 0.304244 -1.10595e-20)
(0.0823911 0.00810175 -5.36131e-21)
(0.252657 0.0342177 -3.04272e-20)
(0.427802 0.0755052 2.3916e-20)
(0.601376 0.124753 -3.04512e-20)
(0.765255 0.177343 -5.47155e-20)
(0.911594 0.228569 4.72217e-20)
(1.03446 0.274282 7.71206e-20)
(1.13087 0.311634 2.73551e-20)
(1.20095 0.339308 1.87707e-20)
(1.24743 0.357398 -5.20876e-20)
(1.27464 0.367032 3.92118e-20)
(1.28745 0.369892 4.25137e-21)
(1.2904 0.367779 -4.61682e-20)
(1.28727 0.36231 1.78117e-20)
(1.28086 0.354764 5.87767e-20)
(1.27302 0.346051 -3.87853e-20)
(1.26489 0.33677 -1.02194e-20)
(1.25702 0.327269 -9.15056e-21)
(1.24961 0.317641 4.03794e-20)
(1.24255 0.308451 2.12393e-20)
(0.0873292 0.0102136 3.64294e-20)
(0.265292 0.0404942 -6.23095e-20)
(0.445916 0.0856888 -9.02505e-20)
(0.622622 0.138182 4.02645e-21)
(0.787228 0.193045 -1.64383e-20)
(0.932114 0.245412 -6.50445e-20)
(1.05186 0.291173 -1.06373e-20)
(1.14416 0.327691 3.27842e-20)
(1.20985 0.353952 -5.13516e-20)
(1.25224 0.370365 4.13645e-20)
(1.27602 0.378313 4.62849e-20)
(1.2862 0.379645 -2.85721e-20)
(1.28731 0.376241 1.1624e-20)
(1.283 0.369723 5.40901e-20)
(1.27589 0.361341 -6.99145e-20)
(1.2677 0.351959 1.10557e-20)
(1.25942 0.342129 2.83003e-20)
(1.25152 0.332161 -8.10183e-21)
(1.24414 0.322123 -9.12533e-21)
(1.23711 0.312624 -1.63235e-21)
(0.0922606 0.0125196 5.42344e-20)
(0.277768 0.0472286 1.00138e-19)
(0.463599 0.0964502 5.28218e-20)
(0.643085 0.152185 -6.30031e-20)
(0.808057 0.209216 1.63585e-19)
(0.951189 0.262562 2.51945e-20)
(1.06763 0.308199 -6.79751e-20)
(1.15578 0.343736 -4.83163e-20)
(1.21718 0.368486 -3.75085e-20)
(1.25567 0.383173 1.28668e-20)
(1.27625 0.389428 -4.08602e-20)
(1.28403 0.389253 8.4702e-22)
(1.2835 0.384585 -2.55376e-20)
(1.27817 0.377049 -3.3712e-20)
(1.27049 0.367853 -5.40824e-21)
(1.26203 0.357815 -2.7834e-21)
(1.25366 0.347444 -5.24689e-20)
(1.24577 0.337011 3.60619e-20)
(1.23844 0.326563 -5.05228e-20)
(1.23146 0.316752 -2.59527e-20)
(0.0971645 0.015019 -6.59428e-20)
(0.290032 0.0544107 -2.70037e-20)
(0.480777 0.107765 1.19912e-19)
(0.66269 0.166721 3.01154e-20)
(0.827678 0.225806 -1.03051e-19)
(0.968782 0.279968 -5.89811e-20)
(1.08177 0.325313 -1.9087e-20)
(1.16576 0.359732 1.2429e-19)
(1.22299 0.382883 8.69617e-20)
(1.25776 0.395807 -2.85221e-20)
(1.27537 0.400371 -1.56973e-20)
(1.28099 0.398709 4.02858e-20)
(1.27902 0.392809 -4.02627e-20)
(1.27281 0.384281 1.83611e-20)
(1.26467 0.374293 6.6603e-21)
(1.25602 0.363611 -8.9206e-21)
(1.24761 0.352705 6.16077e-20)
(1.23977 0.341808 -2.39012e-20)
(1.23252 0.330952 4.35882e-20)
(1.22561 0.320828 -1.16596e-20)
(0.10202 0.0177096 -3.73361e-20)
(0.302031 0.0620272 -6.83672e-20)
(0.497381 0.119605 -1.07775e-19)
(0.681364 0.181749 6.51542e-20)
(0.846033 0.242765 3.59395e-20)
(0.984862 0.297577 -4.97892e-20)
(1.09428 0.342467 8.22249e-20)
(1.17414 0.375643 -1.24496e-19)
(1.22732 0.397119 -1.28965e-19)
(1.25859 0.408252 7.62417e-20)
(1.27346 0.411131 2.72349e-20)
(1.27712 0.408008 -2.93752e-20)
(1.27389 0.400907 4.43776e-20)
(1.26696 0.391414 3.22944e-20)
(1.25846 0.380652 -2.15956e-20)
(1.24967 0.369338 -6.34238e-21)
(1.24128 0.357903 -4.54865e-20)
(1.23351 0.346543 7.15304e-21)
(1.22638 0.33528 -3.04941e-20)
(1.21955 0.324841 -3.07588e-21)
(0.106806 0.020588 3.09852e-20)
(0.313715 0.0700617 -5.39044e-20)
(0.513344 0.131938 9.79831e-20)
(0.699042 0.197222 1.64958e-19)
(0.863073 0.260039 -2.35356e-19)
(0.999407 0.315335 2.05292e-19)
(1.10516 0.359616 5.38251e-20)
(1.18095 0.391433 -7.72587e-20)
(1.23023 0.41117 8.93137e-20)
(1.25821 0.420493 5.03756e-20)
(1.27055 0.421698 5.97725e-20)
(1.27247 0.417144 -1.00912e-19)
(1.26815 0.408871 -1.84425e-20)
(1.26062 0.39844 4.51457e-20)
(1.25185 0.386921 1.67372e-20)
(1.243 0.374986 6.68108e-20)
(1.23466 0.363026 7.64378e-20)
(1.22701 0.351204 -1.77639e-20)
(1.22001 0.339536 2.59388e-20)
(1.21328 0.328781 2.31239e-20)
(0.111502 0.0236492 -9.23753e-21)
(0.325034 0.078495 -1.25624e-19)
(0.528603 0.144728 -1.71448e-19)
(0.715662 0.213093 -2.22371e-19)
(0.878756 0.277574 -2.11109e-20)
(1.0124 0.33319 8.02642e-20)
(1.11445 0.376714 -1.50657e-20)
(1.18621 0.407069 2.643e-20)
(1.23177 0.425012 -3.95896e-20)
(1.25666 0.432514 6.28494e-20)
(1.26671 0.432063 -9.30373e-20)
(1.26709 0.426106 1.14955e-19)
(1.26184 0.416693 6.24809e-20)
(1.25382 0.405348 2.48285e-20)
(1.24486 0.39309 -3.68054e-20)
(1.23601 0.380543 -3.8109e-20)
(1.22776 0.368063 -3.07432e-20)
(1.22025 0.355782 2.08764e-21)
(1.21341 0.343708 2.74561e-20)
(1.20681 0.332641 -2.67184e-20)
(0.116087 0.0268872 -1.59561e-20)
(0.33594 0.0873049 9.78466e-20)
(0.543099 0.157938 1.2279e-19)
(0.731172 0.229311 -1.91457e-20)
(0.893048 0.295313 5.61386e-20)
(1.02384 0.351089 1.45844e-20)
(1.12214 0.393716 -8.07386e-20)
(1.18999 0.422515 6.24904e-20)
(1.23199 0.438622 5.69176e-20)
(1.25402 0.444299 -9.45562e-20)
(1.26198 0.442214 1.46204e-19)
(1.261 0.434887 -1.14311e-19)
(1.25496 0.424364 6.26269e-20)
(1.24657 0.412128 -8.45021e-20)
(1.2375 0.399147 1.14521e-19)
(1.2287 0.385998 -6.4278e-20)
(1.22058 0.373002 -1.57484e-20)
(1.21325 0.360263 -1.8296e-20)
(1.20659 0.347787 -3.1956e-20)
(1.20014 0.336409 2.03288e-21)
(0.120542 0.0302946 1.15519e-19)
(0.346388 0.0964666 1.22334e-19)
(0.556776 0.171527 -1.75918e-19)
(0.745524 0.245823 -1.06356e-19)
(0.905921 0.313201 1.56615e-19)
(1.03373 0.368979 -6.19542e-20)
(1.12828 0.41058 8.85786e-20)
(1.19231 0.43774 3.72963e-20)
(1.23094 0.451976 -8.36577e-20)
(1.25031 0.455832 -1.98295e-19)
(1.25641 0.452139 -3.52368e-20)
(1.25423 0.443474 -6.71543e-20)
(1.24755 0.431872 -9.49041e-20)
(1.23889 0.418769 7.38279e-21)
(1.22978 0.40508 -1.13073e-20)
(1.22107 0.391337 -5.65767e-21)
(1.21312 0.377831 4.85468e-20)
(1.20599 0.364636 2.86014e-20)
(1.19955 0.35176 6.07322e-21)
(1.19327 0.340078 9.48056e-21)
(0.124845 0.0338628 -2.78215e-20)
(0.356333 0.105953 2.16684e-19)
(0.569586 0.18545 8.38345e-20)
(0.758677 0.262575 1.70123e-19)
(0.917354 0.331181 5.50889e-20)
(1.04206 0.386807 2.13078e-20)
(1.13288 0.427263 -1.27726e-19)
(1.19322 0.452712 -3.97755e-20)
(1.22867 0.465052 2.0622e-20)
(1.2456 0.467097 1.46159e-19)
(1.25002 0.461825 -4.65223e-20)
(1.24683 0.451856 5.57202e-20)
(1.23963 0.439206 1.04068e-19)
(1.23079 0.425259 2.22543e-20)
(1.22171 0.410876 -1.91433e-20)
(1.21313 0.396548 2.07474e-20)
(1.20538 0.382536 3.01654e-20)
(1.19848 0.368887 7.09993e-21)
(1.19229 0.355612 1.94635e-20)
(1.1862 0.343639 4.07523e-21)
(0.128979 0.0375821 -7.25723e-20)
(0.365737 0.115734 -1.11238e-19)
(0.581483 0.199662 7.05683e-20)
(0.770596 0.279513 2.35854e-20)
(0.927334 0.349196 4.57028e-20)
(1.04884 0.404524 -1.87027e-19)
(1.13598 0.443721 6.62394e-20)
(1.19277 0.467398 -1.38388e-19)
(1.22524 0.477827 -7.36357e-20)
(1.23993 0.478077 8.18749e-20)
(1.24286 0.471258 -9.34874e-21)
(1.23881 0.460021 4.26852e-21)
(1.23122 0.446352 -1.23968e-19)
(1.22228 0.431583 -4.51866e-20)
(1.21328 0.416522 2.85097e-20)
(1.20489 0.401618 -4.76383e-20)
(1.19737 0.387105 -2.20874e-20)
(1.19073 0.373003 -2.0924e-20)
(1.18479 0.359329 -1.90092e-20)
(1.17889 0.347081 -9.81002e-21)
(0.132926 0.0414415 4.22782e-20)
(0.37456 0.125779 -5.26394e-20)
(0.592426 0.214116 -2.84279e-19)
(0.781252 0.296578 1.53038e-19)
(0.935852 0.367188 -1.87677e-19)
(1.05411 0.422076 -2.57165e-20)
(1.13761 0.459916 -2.47364e-19)
(1.191 0.481768 2.54794e-19)
(1.22067 0.490278 1.40301e-19)
(1.23334 0.488755 -9.47588e-21)
(1.23497 0.480424 4.36436e-20)
(1.23021 0.467954 -5.20993e-20)
(1.22233 0.453297 -3.20413e-21)
(1.21337 0.437728 2.27105e-20)
(1.20451 0.422003 -1.93249e-20)
(1.19634 0.406533 2.57885e-20)
(1.18909 0.391527 -2.38658e-20)
(1.18273 0.376977 -1.71648e-20)
(1.17706 0.362913 8.35874e-21)
(1.17129 0.350363 2.53853e-21)
(0.136667 0.0454291 9.61922e-20)
(0.382768 0.136054 9.57266e-20)
(0.602379 0.228761 7.39721e-20)
(0.790622 0.313715 -2.17651e-21)
(0.942908 0.385101 -4.77635e-20)
(1.05786 0.439416 3.22384e-19)
(1.13781 0.475805 1.80207e-19)
(1.18796 0.495792 1.16519e-19)
(1.21504 0.502383 1.58182e-19)
(1.22587 0.499114 1.64635e-20)
(1.22637 0.489307 -1.17563e-19)
(1.22104 0.475642 -8.71149e-21)
(1.21297 0.460026 -1.94355e-20)
(1.20407 0.443679 -5.78788e-20)
(1.1954 0.427305 -1.58654e-20)
(1.1875 0.411279 -2.27945e-20)
(1.18053 0.395787 5.35087e-20)
(1.17448 0.380803 1.48692e-21)
(1.1691 0.366392 -1.79214e-21)
(1.16355 0.353446 -6.42308e-21)
(0.140187 0.0495321 -3.2006e-20)
(0.39033 0.146523 -5.56273e-20)
(0.611313 0.243548 -1.22209e-19)
(0.79869 0.330865 -2.09134e-20)
(0.948504 0.402878 -1.96505e-19)
(1.06013 0.456493 -1.3962e-19)
(1.13661 0.491351 4.53044e-20)
(1.18368 0.509441 -3.14515e-19)
(1.20837 0.514119 -1.63705e-19)
(1.21756 0.509134 3.74597e-20)
(1.2171 0.497892 -1.37088e-20)
(1.21133 0.483069 9.5963e-20)
(1.20318 0.466525 1.14839e-19)
(1.1944 0.449422 2.60454e-20)
(1.18597 0.432414 5.56678e-20)
(1.17835 0.415842 -1.99573e-20)
(1.17171 0.399871 9.78662e-21)
(1.166 0.38446 2.0088e-21)
(1.16093 0.369705 -7.6568e-21)
(1.15571 0.356432 2.48563e-20)
(0.143471 0.0537367 4.75064e-20)
(0.397217 0.15715 -5.35219e-21)
(0.619201 0.258425 -1.87255e-19)
(0.805445 0.347971 -8.38653e-22)
(0.952649 0.420465 4.42544e-19)
(1.06095 0.473259 8.6281e-20)
(1.13406 0.506515 6.34677e-20)
(1.17823 0.522684 1.78998e-19)
(1.20071 0.525465 -1.39438e-19)
(1.20845 0.518799 -1.40235e-19)
(1.20719 0.506163 2.8669e-21)
(1.2011 0.490219 -7.73173e-20)
(1.19295 0.472778 -3.89764e-20)
(1.18436 0.45494 8.77183e-20)
(1.17621 0.437314 -2.10028e-20)
(1.16892 0.420208 7.01664e-21)
(1.16263 0.403766 -9.51152e-21)
(1.15728 0.387936 8.74186e-21)
(1.15256 0.372838 -7.248e-21)
(1.14766 0.359255 -4.28886e-20)
(0.146505 0.0580282 -2.31238e-19)
(0.403405 0.167897 1.44845e-19)
(0.626024 0.273338 3.20596e-19)
(0.81088 0.364974 9.87061e-20)
(0.955358 0.437805 -5.17467e-19)
(1.06034 0.489669 -2.09738e-19)
(1.13021 0.521259 -1.58003e-19)
(1.17164 0.535494 -5.52237e-20)
(1.19211 0.536397 1.76241e-19)
(1.19858 0.528089 2.06131e-20)
(1.19666 0.514102 -2.61829e-20)
(1.19037 0.497077 5.86175e-20)
(1.1823 0.478768 6.30293e-21)
(1.17396 0.460219 -9.6941e-20)
(1.16614 0.441991 1.52539e-20)
(1.15921 0.424362 1.18428e-20)
(1.15329 0.407459 -5.74588e-21)
(1.14833 0.391217 -7.98878e-21)
(1.14398 0.375784 3.91208e-20)
(1.13942 0.361903 2.96032e-20)
(0.149276 0.0623915 -1.52627e-20)
(0.408871 0.178725 7.25889e-20)
(0.631765 0.288236 3.48412e-20)
(0.814996 0.381818 1.04069e-19)
(0.956648 0.454846 2.877e-19)
(1.05835 0.505675 -1.81066e-19)
(1.12509 0.535549 -7.29743e-21)
(1.16396 0.547842 1.61897e-19)
(1.18261 0.546894 -1.82678e-19)
(1.18798 0.536986 5.64539e-20)
(1.18554 0.521692 1.28226e-19)
(1.17916 0.503624 2.7055e-20)
(1.17126 0.484479 -3.84339e-20)
(1.16322 0.465242 5.6296e-20)
(1.15576 0.446428 -4.06286e-20)
(1.14922 0.428289 -9.40438e-21)
(1.14369 0.410936 5.57844e-22)
(1.13915 0.394292 -3.2562e-20)
(1.1352 0.378531 -3.32287e-20)
(1.13099 0.364364 -4.9888e-20)
(0.151774 0.0668105 2.98832e-20)
(0.413599 0.189594 1.14431e-19)
(0.636413 0.303065 1.12728e-19)
(0.817798 0.398446 -7.31449e-20)
(0.956543 0.471534 5.45458e-21)
(1.055 0.521234 1.67853e-19)
(1.11874 0.549347 2.84199e-19)
(1.15523 0.559702 -3.09085e-20)
(1.17225 0.556935 2.61988e-20)
(1.17668 0.545471 -6.38064e-20)
(1.17386 0.528916 -1.23651e-19)
(1.16749 0.509846 1.78578e-20)
(1.15982 0.489896 4.87888e-20)
(1.15213 0.469993 -8.80503e-21)
(1.14508 0.450612 1.06459e-20)
(1.13895 0.431977 4.77976e-22)
(1.13385 0.414183 5.90252e-21)
(1.12974 0.397148 3.45322e-21)
(1.12622 0.38107 1.1435e-20)
(1.12239 0.366628 6.49105e-20)