2 	-3.8991 	1.33412e-17 	1.17967 	-0.000367189 	0
2 	-3.702 	1.33412e-17 	1.18147 	-0.00106472 	0
2 	-3.51411 	9.87175e-18 	1.18483 	-0.00175238 	0
2 	-3.33499 	9.87175e-18 	1.18954 	-0.00240993 	0
2 	-3.16423 	1.33412e-17 	1.19542 	-0.00305109 	0
2 	-3.00143 	1.4729e-17 	1.2023 	-0.00367901 	0
2 	-2.84624 	1.4382e-17 	1.21002 	-0.00429707 	0
2 	-2.69829 	1.4382e-17 	1.21845 	-0.00491293 	0
2 	-2.55725 	1.4382e-17 	1.22746 	-0.00553269 	0
2 	-2.42279 	1.26473e-17 	1.23693 	-0.00616568 	0
2 	-2.29461 	1.09126e-17 	1.24676 	-0.00682173 	0
2 	-2.17241 	9.52481e-18 	1.25684 	-0.00751285 	0
2 	-2.05592 	9.52481e-18 	1.26708 	-0.00825233 	0
2 	-1.94486 	1.09126e-17 	1.27741 	-0.00905502 	0
2 	-1.83899 	1.26473e-17 	1.28776 	-0.00993703 	0
2 	-1.73806 	1.09126e-17 	1.29806 	-0.0109152 	0
2 	-1.64184 	9.17787e-18 	1.30825 	-0.012005 	0
2 	-1.55011 	1.09126e-17 	1.31814 	-0.0132122 	0
2 	-1.46266 	1.23004e-17 	1.32726 	-0.0145152 	0
2 	-1.3793 	1.19534e-17 	1.33445 	-0.0158477 	0
2 	-1.29983 	1.19534e-17 	1.33749 	-0.0170689 	0
2 	-1.22406 	1.36881e-17 	1.33264 	-0.0179569 	0
2 	-1.15184 	1.36881e-17 	1.31471 	-0.0182551 	0
2 	-1.08298 	1.36881e-17 	1.2779 	-0.0177769 	0
2 	-1.01734 	1.50759e-17 	1.21754 	-0.0165648 	0
2 	-0.954763 	1.64637e-17 	1.13252 	-0.0150411 	0
2 	-0.895107 	1.68106e-17 	1.02681 	-0.0139547 	0
2 	-0.838235 	1.54229e-17 	0.908707 	-0.0140701 	0
2 	-0.784018 	1.36881e-17 	0.787907 	-0.0158361 	0
2 	-0.732332 	1.50759e-17 	0.672246 	-0.0195132 	0
2 	-0.699998 	1.65585e-17 	0.590352 	-0.0236048 	6.77079e-20
2 	-0.688028 	1.83881e-17 	0.578317 	-0.028769 	-4.00737e-20
2 	-0.670957 	1.56125e-17 	0.515879 	-0.0301546 	-2.2383e-20
2 	-0.646302 	7.63278e-18 	0.456522 	-0.0320891 	1.97245e-20
2 	-0.621183 	5.89806e-18 	0.400325 	-0.0345868 	3.26297e-20
2 	-0.595612 	7.34915e-18 	0.347129 	-0.0373261 	-2.75113e-20
2 	-0.569601 	4.71862e-18 	0.296602 	-0.0401525 	-5.62935e-20
2 	-0.543163 	1.46938e-18 	0.248299 	-0.0429466 	-5.68422e-20
2 	-0.516314 	2.08748e-18 	0.201732 	-0.0455807 	5.78771e-20
2 	-0.489068 	3.73451e-18 	0.156437 	-0.0479333 	-6.71896e-20
2 	-0.461443 	5.71607e-18 	0.112018 	-0.0498958 	4.78425e-20
2 	-0.443708 	7.22445e-18 	0.0681867 	-0.0513729 	-2.47913e-20
2 	-0.429626 	6.56142e-18 	0.0629856 	-0.0531296 	2.8858e-20
2 	-0.405125 	7.97973e-18 	0.0223704 	-0.0540671 	-7.66681e-20
2 	-0.37647 	1.42247e-17 	-0.0176238 	-0.0543575 	-1.00236e-20
2 	-0.347511 	1.70003e-17 	-0.0569418 	-0.053945 	-3.60208e-20
2 	-0.318268 	1.17961e-17 	-0.095391 	-0.0527911 	-1.32188e-20
2 	-0.288765 	8.32667e-18 	-0.132662 	-0.0508659 	1.32789e-20
2 	-0.259023 	1.00614e-17 	-0.168348 	-0.0481605 	-2.67773e-20
2 	-0.229065 	1.14226e-17 	-0.201972 	-0.0446857 	1.10468e-20
2 	-0.198916 	1.04554e-17 	-0.233007 	-0.0404704 	-4.51801e-20
2 	-0.168599 	1.22518e-17 	-0.260911 	-0.0355626 	1.11412e-21
2 	-0.138141 	1.51152e-17 	-0.285149 	-0.0300286 	1.03877e-20
2 	-0.107565 	1.52724e-17 	-0.305221 	-0.023953 	1.62448e-20
2 	-0.0768974 	1.62796e-17 	-0.320692 	-0.0174366 	5.78785e-21
2 	-0.0461647 	1.57945e-17 	-0.331211 	-0.0105944 	6.90966e-24
2 	-0.0153926 	1.19091e-17 	-0.336534 	-0.0035522 	-2.72134e-21
2 	0.0153926 	1.05214e-17 	-0.336534 	0.00355748 	1.81557e-21
2 	0.0461647 	1.10241e-17 	-0.331211 	0.0105997 	-6.07076e-21
2 	0.0768974 	1.14223e-17 	-0.320692 	0.0174418 	-5.30288e-21
2 	0.107565 	1.19765e-17 	-0.305221 	0.0239582 	-1.49621e-20
2 	0.138141 	1.41611e-17 	-0.285149 	0.0300337 	-1.30909e-20
2 	0.168599 	1.39431e-17 	-0.260912 	0.0355676 	1.01648e-20
2 	0.198916 	1.16372e-17 	-0.233008 	0.0404754 	1.99667e-20
2 	0.229065 	1.00457e-17 	-0.201972 	0.0446905 	1.82132e-20
2 	0.259023 	8.32667e-18 	-0.168348 	0.0481652 	-6.37467e-21
2 	0.288765 	6.59195e-18 	-0.132662 	0.0508704 	-1.84525e-21
2 	0.318268 	7.63278e-18 	-0.0953914 	0.0527955 	2.63409e-21
2 	0.347511 	1.04083e-17 	-0.0569422 	0.0539492 	2.63477e-20
2 	0.37647 	1.49186e-17 	-0.0176242 	0.0543617 	-1.54403e-20
2 	0.405125 	1.94289e-17 	0.0223699 	0.0540711 	1.06245e-19
2 	0.429626 	2.29289e-17 	0.062985 	0.0531334 	-6.39705e-21
2 	0.443708 	2.9143e-17 	0.0681866 	0.0513778 	2.90673e-20
2 	0.461443 	3.31247e-17 	0.112017 	0.0499005 	-4.59602e-20
2 	0.489068 	3.68677e-17 	0.156436 	0.0479378 	8.37044e-20
2 	0.516314 	3.9384e-17 	0.201731 	0.045585 	-9.00609e-20
2 	0.543163 	3.98935e-17 	0.248297 	0.0429507 	4.13953e-20
2 	0.569601 	3.82218e-17 	0.296601 	0.0401565 	6.98068e-20
2 	0.595612 	3.85105e-17 	0.347127 	0.0373299 	4.49537e-20
2 	0.621183 	4.26742e-17 	0.400322 	0.0345905 	-3.78527e-20
2 	0.646302 	4.44089e-17 	0.456519 	0.0320925 	-1.53503e-20
2 	0.670957 	4.44089e-17 	0.515876 	0.0301578 	2.14998e-20
2 	0.688028 	4.60136e-17 	0.578314 	0.0287721 	3.34132e-20
2 	0.699998 	4.73066e-17 	0.590349 	0.0236088 	-6.87831e-20
2 	0.732332 	4.69948e-17 	0.672243 	0.0195168 	0
2 	0.784018 	4.52601e-17 	0.787904 	0.0158395 	0
2 	0.838235 	4.35254e-17 	0.908703 	0.0140734 	0
2 	0.895107 	4.35254e-17 	1.0268 	0.0139578 	0
2 	0.954763 	4.52601e-17 	1.13252 	0.015044 	0
2 	1.01734 	4.69948e-17 	1.21754 	0.0165675 	0
2 	1.08298 	4.69948e-17 	1.2779 	0.0177794 	0
2 	1.15184 	4.69948e-17 	1.31471 	0.0182574 	0
2 	1.22406 	4.69948e-17 	1.33264 	0.0179589 	0
2 	1.29983 	4.69948e-17 	1.33749 	0.0170707 	0
2 	1.3793 	4.69948e-17 	1.33445 	0.0158492 	0
2 	1.46266 	4.69948e-17 	1.32726 	0.0145165 	0
2 	1.55011 	4.69948e-17 	1.31814 	0.0132133 	0
2 	1.64184 	4.69948e-17 	1.30825 	0.0120059 	0
2 	1.73806 	4.69948e-17 	1.29806 	0.010916 	0
2 	1.83899 	4.69948e-17 	1.28776 	0.00993766 	0
2 	1.94486 	4.69948e-17 	1.27741 	0.00905553 	0
2 	2.05592 	4.69948e-17 	1.26708 	0.00825274 	0
2 	2.17241 	4.69948e-17 	1.25684 	0.00751318 	0
2 	2.29461 	4.69948e-17 	1.24676 	0.00682198 	0
2 	2.42279 	4.69948e-17 	1.23693 	0.00616588 	0
2 	2.55725 	4.69948e-17 	1.22746 	0.00553284 	0
2 	2.69829 	4.69948e-17 	1.21845 	0.00491303 	0
2 	2.84624 	4.56071e-17 	1.21002 	0.00429715 	0
2 	3.00143 	4.28315e-17 	1.2023 	0.00367907 	0
2 	3.16423 	4.00559e-17 	1.19542 	0.00305113 	0
2 	3.33499 	4.00559e-17 	1.18954 	0.00240995 	0
2 	3.51411 	4.49132e-17 	1.18483 	0.0017524 	0
2 	3.702 	4.80357e-17 	1.18147 	0.00106472 	0
2 	3.8991 	4.77916e-17 	1.17967 	0.000367192 	0
