# Probe 0 (5.5 -0.05 0)
# Probe 1 (5.5 0.05 0)
#       Probe             0             1
#        Time
        0.005     -0.281974     -0.281974
         0.01     0.0232222     0.0232222
        0.015   -0.00954678    -0.0095468
         0.02   -0.00634426   -0.00634426
        0.025   -0.00498181   -0.00498181
         0.03   -0.00401849   -0.00401849
        0.035   -0.00336959   -0.00336959
         0.04   -0.00292102   -0.00292102
        0.045   -0.00259576   -0.00259576
         0.05   -0.00235289   -0.00235289
        0.055   -0.00216484   -0.00216484
         0.06   -0.00201172   -0.00201173
        0.065   -0.00188455   -0.00188455
         0.07   -0.00177814   -0.00177814
        0.075   -0.00168396   -0.00168396
         0.08   -0.00160245   -0.00160245
        0.085   -0.00152815   -0.00152815
         0.09   -0.00146078   -0.00146078
        0.095   -0.00139999   -0.00139999
          0.1   -0.00134407   -0.00134407
        0.105   -0.00129211   -0.00129211
         0.11   -0.00124425   -0.00124425
        0.115   -0.00119946   -0.00119946
         0.12   -0.00115763   -0.00115763
        0.125   -0.00111838   -0.00111838
         0.13    -0.0010813    -0.0010813
        0.135   -0.00104688   -0.00104688
         0.14   -0.00101418   -0.00101418
        0.145  -0.000983067  -0.000983068
         0.15    -0.0009535  -0.000953499
        0.155  -0.000926086  -0.000926086
         0.16  -0.000899318  -0.000899318
        0.165  -0.000874014  -0.000874014
         0.17  -0.000850208  -0.000850208
        0.175  -0.000826869  -0.000826869
         0.18  -0.000805107  -0.000805107
        0.185  -0.000783935  -0.000783935
         0.19  -0.000763507  -0.000763507
        0.195  -0.000743887  -0.000743887
          0.2  -0.000725332  -0.000725332
        0.205  -0.000707259  -0.000707259
         0.21  -0.000689849  -0.000689849
        0.215  -0.000673051  -0.000673051
         0.22   -0.00065691   -0.00065691
        0.225  -0.000641312  -0.000641313
         0.23  -0.000625972  -0.000625971
        0.235  -0.000611678  -0.000611678
         0.24    -0.0005975  -0.000597501
        0.245  -0.000583821  -0.000583821
         0.25  -0.000570465  -0.000570465
        0.255  -0.000557657  -0.000557657
         0.26  -0.000545244  -0.000545246
        0.265  -0.000533069  -0.000533068
         0.27  -0.000521055  -0.000521055
        0.275   -0.00050981   -0.00050981
         0.28  -0.000498593  -0.000498594
        0.285  -0.000487658  -0.000487658
         0.29  -0.000477096  -0.000477095
        0.295  -0.000466597  -0.000466598
          0.3  -0.000456642  -0.000456642
        0.305  -0.000446938  -0.000446938
         0.31  -0.000437258  -0.000437258
        0.315  -0.000427966  -0.000427966
         0.32  -0.000418815  -0.000418815
        0.325   -0.00040975   -0.00040975
         0.33  -0.000401052  -0.000401053
        0.335  -0.000392496  -0.000392496
         0.34  -0.000384134  -0.000384134
        0.345  -0.000375838  -0.000375838
         0.35  -0.000367852  -0.000367852
        0.355  -0.000360091  -0.000360091
         0.36  -0.000352323  -0.000352323
        0.365  -0.000344744  -0.000344744
         0.37  -0.000337189  -0.000337189
        0.375  -0.000330168  -0.000330168
         0.38  -0.000323003  -0.000323003
        0.385  -0.000315974  -0.000315974
         0.39  -0.000309079  -0.000309079
        0.395  -0.000302312  -0.000302313
          0.4  -0.000295628  -0.000295628
        0.405  -0.000289137  -0.000289137
         0.41  -0.000282671  -0.000282671
        0.415  -0.000276322  -0.000276322
         0.42  -0.000270064  -0.000270064
        0.425  -0.000264061  -0.000264061
         0.43  -0.000258098  -0.000258098
        0.435  -0.000252146  -0.000252147
         0.44   -0.00024629   -0.00024629
        0.445   -0.00024052   -0.00024052
         0.45  -0.000234826  -0.000234825
        0.455  -0.000229191  -0.000229191
         0.46  -0.000223751  -0.000223752
        0.465  -0.000218315  -0.000218317
         0.47  -0.000212949  -0.000212946
        0.475   -0.00020758  -0.000207582
         0.48  -0.000202354  -0.000202354
        0.485  -0.000197189   -0.00019719
         0.49  -0.000192071  -0.000192071
        0.495  -0.000187058  -0.000187058
          0.5  -0.000182088  -0.000182088
        0.505  -0.000177135  -0.000177133
         0.51  -0.000172317  -0.000172316
        0.515  -0.000167499    -0.0001675
         0.52  -0.000162785  -0.000162783
        0.525  -0.000158073  -0.000158076
         0.53   -0.00015342   -0.00015342
        0.535  -0.000148816  -0.000148816
         0.54   -0.00014426   -0.00014426
        0.545  -0.000139745  -0.000139746
         0.55  -0.000135278  -0.000135279
        0.555   -0.00013083   -0.00013083
         0.56  -0.000126469  -0.000126469
        0.565  -0.000122095  -0.000122095
         0.57  -0.000117837  -0.000117837
        0.575  -0.000113616  -0.000113616
         0.58  -0.000109431  -0.000109431
        0.585  -0.000105249   -0.00010525
         0.59  -0.000101108  -0.000101108
        0.595  -9.69871e-05  -9.69871e-05
          0.6  -9.29026e-05  -9.29027e-05
        0.605  -8.88516e-05  -8.88517e-05
         0.61  -8.48182e-05  -8.48186e-05
        0.615  -8.08783e-05  -8.08782e-05
         0.62  -7.69299e-05  -7.69301e-05
        0.625  -7.29402e-05  -7.29407e-05
         0.63  -6.90454e-05  -6.90451e-05
        0.635  -6.51766e-05  -6.51767e-05
         0.64   -6.1327e-05  -6.13267e-05
        0.645  -5.75031e-05  -5.75037e-05
         0.65  -5.36931e-05  -5.36935e-05
        0.655  -4.99144e-05  -4.99141e-05
         0.66  -4.62721e-05   -4.6272e-05
        0.665  -4.25032e-05  -4.25028e-05
         0.67   -3.8808e-05  -3.88085e-05
        0.675  -3.51752e-05  -3.51752e-05
         0.68  -3.15084e-05  -3.15075e-05
        0.685  -2.78816e-05  -2.78816e-05
         0.69   -2.4247e-05  -2.42467e-05
        0.695  -2.06497e-05  -2.06495e-05
          0.7  -1.70709e-05  -1.70705e-05
        0.705  -1.35152e-05  -1.35151e-05
         0.71  -9.97584e-06  -9.97573e-06
        0.715  -6.45368e-06  -6.45361e-06
         0.72  -2.95292e-06  -2.95282e-06
        0.725   5.70604e-07   5.70764e-07
         0.73   4.03211e-06   4.03217e-06
        0.735    7.5349e-06   7.53406e-06
         0.74   1.09985e-05   1.09994e-05
        0.745   1.44066e-05   1.44062e-05
         0.75   1.77809e-05    1.7781e-05
        0.755   2.11957e-05   2.11957e-05
         0.76   2.45976e-05   2.45981e-05
        0.765   2.79888e-05   2.79889e-05
         0.77    3.1323e-05    3.1323e-05
        0.775   3.46887e-05   3.46887e-05
         0.78   3.80047e-05   3.80043e-05
        0.785   4.12548e-05   4.12552e-05
         0.79   4.45685e-05   4.45686e-05
        0.795   4.78618e-05   4.78618e-05
          0.8   5.11896e-05   5.11897e-05
        0.805   5.44775e-05   5.44777e-05
         0.81   5.77659e-05    5.7766e-05
        0.815    6.1021e-05    6.1021e-05
         0.82   6.42547e-05   6.42547e-05
        0.825   6.74937e-05   6.74939e-05
         0.83   7.07113e-05   7.07113e-05
        0.835   7.39692e-05   7.39692e-05
         0.84   7.72933e-05   7.72938e-05
        0.845   8.04793e-05   8.04787e-05
         0.85   8.36556e-05   8.36557e-05
        0.855    8.6826e-05   8.68259e-05
         0.86   9.00108e-05   9.00109e-05
        0.865   9.31997e-05   9.31993e-05
         0.87   9.63912e-05   9.63918e-05
        0.875   9.95192e-05   9.95184e-05
         0.88   0.000102734   0.000102734
        0.885   0.000105907   0.000105907
         0.89   0.000109062   0.000109062
        0.895   0.000112226   0.000112226
          0.9   0.000115245   0.000115245
        0.905   0.000118522   0.000118522
         0.91   0.000121626   0.000121626
        0.915   0.000124741   0.000124741
         0.92   0.000127792   0.000127792
        0.925   0.000130957   0.000130957
         0.93   0.000134081   0.000134081
        0.935   0.000137197   0.000137197
         0.94    0.00014031   0.000140309
        0.945   0.000143427   0.000143427
         0.95   0.000146537   0.000146537
        0.955   0.000149586   0.000149586
         0.96   0.000152683   0.000152683
        0.965   0.000155773   0.000155773
         0.97   0.000158776   0.000158776
        0.975   0.000162007   0.000162007
         0.98   0.000165099   0.000165099
        0.985   0.000168194   0.000168195
         0.99   0.000171215   0.000171215
        0.995   0.000174304   0.000174304
            1   0.000177381   0.000177381
        1.005   0.000180458   0.000180458
         1.01   0.000183529   0.000183529
        1.015   0.000186582   0.000186582
         1.02   0.000189683   0.000189683
        1.025   0.000192567   0.000192567
         1.03   0.000195753   0.000195753
        1.035   0.000199035   0.000199036
         1.04   0.000202045   0.000202045
        1.045   0.000205056   0.000205057
         1.05    0.00020799    0.00020799
        1.055   0.000211265   0.000211264
         1.06   0.000214331   0.000214331
        1.065   0.000217352   0.000217352
         1.07   0.000220382   0.000220382
        1.075    0.00022345    0.00022345
         1.08   0.000226412   0.000226412
        1.085   0.000229485   0.000229485
         1.09   0.000232558   0.000232559
        1.095   0.000235636   0.000235636
          1.1   0.000238706   0.000238706
        1.105   0.000241768   0.000241768
         1.11   0.000244825   0.000244825
        1.115   0.000247911   0.000247911
         1.12   0.000250907   0.000250907
        1.125   0.000254123   0.000254122
         1.13   0.000257166   0.000257165
        1.135   0.000259937   0.000259939
         1.14   0.000263358   0.000263358
        1.145   0.000266427   0.000266427
         1.15   0.000269507   0.000269507
        1.155   0.000272557   0.000272557
         1.16   0.000275636   0.000275636
        1.165   0.000278728   0.000278729
         1.17   0.000281859   0.000281859
        1.175   0.000284877   0.000284877
         1.18   0.000287922   0.000287922
        1.185   0.000290934   0.000290934
         1.19   0.000294159   0.000294163
        1.195   0.000297238   0.000297237
          1.2   0.000300322   0.000300323
        1.205   0.000303365   0.000303365
         1.21   0.000306502   0.000306503
        1.215   0.000309634   0.000309635
         1.22   0.000312728   0.000312728
        1.225   0.000315823   0.000315822
         1.23   0.000318901   0.000318902
        1.235   0.000321991   0.000321991
         1.24   0.000325045   0.000325045
        1.245   0.000328311   0.000328311
         1.25   0.000331421   0.000331421
        1.255   0.000334545   0.000334546
         1.26   0.000337631    0.00033763
        1.265    0.00034074    0.00034074
         1.27   0.000343863   0.000343863
        1.275   0.000346929   0.000346929
         1.28    0.00035008    0.00035008
        1.285   0.000353222   0.000353222
         1.29   0.000356362   0.000356362
        1.295   0.000359475   0.000359475
          1.3   0.000362627   0.000362627
        1.305   0.000365746   0.000365746
         1.31   0.000368905   0.000368905
        1.315   0.000372023   0.000372022
         1.32   0.000375167    0.00037517
        1.325   0.000378366   0.000378365
         1.33   0.000381658   0.000381658
        1.335   0.000384802   0.000384803
         1.34   0.000387971   0.000387971
        1.345   0.000391085   0.000391086
         1.35   0.000394299     0.0003943
        1.355   0.000397441    0.00039744
         1.36   0.000400617   0.000400616
        1.365   0.000403805   0.000403805
         1.37    0.00040697   0.000406971
        1.375   0.000410224   0.000410223
         1.38   0.000413379   0.000413378
        1.385   0.000416561   0.000416561
         1.39   0.000419759   0.000419757
        1.395   0.000422803   0.000422806
          1.4   0.000426273   0.000426271
        1.405   0.000429465   0.000429465
         1.41   0.000432668   0.000432668
        1.415   0.000435883   0.000435884
         1.42   0.000439101     0.0004391
        1.425   0.000442322   0.000442322
         1.43   0.000445544   0.000445543
        1.435    0.00044875    0.00044875
         1.44   0.000451678   0.000451678
        1.445   0.000455189   0.000455188
         1.45   0.000458647   0.000458648
        1.455   0.000461759   0.000461759
         1.46   0.000465043   0.000465043
        1.465   0.000468444   0.000468444
         1.47   0.000471601     0.0004716
        1.475   0.000474881    0.00047488
         1.48   0.000478207   0.000478208
        1.485   0.000481448   0.000481447
         1.49    0.00048472    0.00048472
        1.495   0.000487998   0.000487997
          1.5    0.00049128    0.00049128
        1.505   0.000494563   0.000494563
         1.51   0.000497726   0.000497726
        1.515    0.00050125   0.000501251
         1.52   0.000504533   0.000504533
        1.525   0.000507813   0.000507813
         1.53   0.000511101   0.000511101
        1.535   0.000514401   0.000514401
         1.54   0.000517395   0.000517395
        1.545   0.000521195   0.000521193
         1.55   0.000524482   0.000524482
        1.555   0.000527676   0.000527676
         1.56   0.000531151   0.000531152
        1.565   0.000534482   0.000534482
         1.57   0.000537822   0.000537823
        1.575   0.000541171    0.00054117
         1.58     0.0005445     0.0005445
        1.585   0.000547875   0.000547875
         1.59   0.000551258   0.000551258
        1.595   0.000554543   0.000554543
          1.6   0.000557961   0.000557962
        1.605   0.000561336   0.000561336
         1.61   0.000564624   0.000564624
        1.615   0.000568119    0.00056812
         1.62   0.000571559   0.000571558
        1.625   0.000574609   0.000574609
         1.63    0.00057853    0.00057853
        1.635   0.000581909   0.000581909
         1.64   0.000585292   0.000585293
        1.645   0.000588683   0.000588682
         1.65   0.000592065   0.000592066
        1.655   0.000595516   0.000595514
         1.66   0.000598886   0.000598887
        1.665   0.000602208   0.000602208
         1.67   0.000605937   0.000605937
        1.675   0.000609368    0.00060937
         1.68   0.000612791   0.000612791
        1.685    0.00061624   0.000616239
         1.69   0.000619752   0.000619752
        1.695    0.00062312   0.000623119
          1.7   0.000626323   0.000626325
        1.705   0.000630336   0.000630337
         1.71   0.000633749   0.000633748
        1.715   0.000637155   0.000637155
         1.72   0.000640627   0.000640626
        1.725   0.000644095   0.000644095
         1.73   0.000647219    0.00064722
        1.735   0.000651271    0.00065127
         1.74   0.000654782   0.000654781
        1.745   0.000658224   0.000658224
         1.75   0.000661722   0.000661722
        1.755   0.000665246   0.000665245
         1.76   0.000668715   0.000668715
        1.765   0.000672245   0.000672245
         1.77    0.00067594   0.000675944
        1.775   0.000679425   0.000679421
         1.78   0.000682973   0.000682975
        1.785   0.000686528   0.000686528
         1.79   0.000690088   0.000690087
        1.795   0.000693651   0.000693651
          1.8    0.00069722    0.00069722
        1.805   0.000700793   0.000700793
         1.81    0.00070437    0.00070437
        1.815   0.000707836   0.000707836
         1.82   0.000711458    0.00071146
        1.825   0.000715187   0.000715187
         1.83   0.000718629   0.000718628
        1.835    0.00072188    0.00072188
         1.84   0.000726341   0.000726338
        1.845   0.000729866   0.000729868
         1.85    0.00073341    0.00073341
        1.855    0.00073691   0.000736909
         1.86   0.000740568   0.000740569
        1.865   0.000744207   0.000744206
         1.87     0.0007479   0.000747902
        1.875   0.000751539   0.000751538
         1.88   0.000755183   0.000755183
        1.885   0.000758846   0.000758846
         1.89    0.00076253    0.00076253
        1.895   0.000766098   0.000766097
          1.9   0.000769531   0.000769531
        1.905   0.000772519    0.00077252
         1.91   0.000777486   0.000777485
        1.915   0.000781012   0.000781011
         1.92   0.000784242   0.000784244
        1.925   0.000788505   0.000788504
         1.93   0.000792093   0.000792093
        1.935   0.000795756   0.000795756
         1.94   0.000799507    0.00079951
        1.945   0.000803279   0.000803277
         1.95   0.000806983   0.000806983
        1.955   0.000810657   0.000810656
         1.96   0.000814402   0.000814404
        1.965   0.000818136   0.000818135
         1.97   0.000821841    0.00082184
        1.975   0.000825374   0.000825375
         1.98   0.000829374   0.000829375
        1.985   0.000833312   0.000833311
         1.99   0.000836961   0.000836961
        1.995   0.000840559    0.00084056
            2   0.000844638   0.000844638
        2.005   0.000848404   0.000848405
         2.01   0.000852169   0.000852171
        2.015   0.000855952   0.000855952
         2.02   0.000859759   0.000859758
        2.025   0.000863647   0.000863647
         2.03    0.00086729    0.00086729
        2.035   0.000871101   0.000871101
         2.04   0.000874931   0.000874931
        2.045   0.000878765   0.000878766
         2.05   0.000882602   0.000882602
        2.055   0.000886299   0.000886301
         2.06   0.000890231    0.00089023
        2.065   0.000894169   0.000894169
         2.07   0.000897991   0.000897991
        2.075   0.000901564   0.000901565
         2.08   0.000905715   0.000905716
        2.085   0.000909645   0.000909646
         2.09    0.00091362   0.000913621
        2.095   0.000917421   0.000917422
          2.1    0.00092129    0.00092129
        2.105   0.000925494   0.000925497
         2.11   0.000929211   0.000929209
        2.115   0.000933182   0.000933183
         2.12    0.00093704    0.00093704
        2.125   0.000940922   0.000940922
         2.13   0.000944835   0.000944836
        2.135   0.000948729    0.00094873
         2.14   0.000952658   0.000952657
        2.145   0.000956591   0.000956591
         2.15    0.00096052   0.000960519
        2.155   0.000964365   0.000964367
         2.16   0.000968437   0.000968436
        2.165   0.000972449   0.000972449
         2.17   0.000976414   0.000976414
        2.175   0.000980367   0.000980367
         2.18   0.000984347   0.000984347
        2.185   0.000988315   0.000988316
         2.19   0.000992254   0.000992253
        2.195   0.000995897   0.000995897
          2.2   0.000999325   0.000999325
        2.205    0.00100488    0.00100488
         2.21    0.00100871    0.00100871
        2.215    0.00101248    0.00101248
         2.22    0.00101548    0.00101548
        2.225     0.0010206     0.0010206
         2.23    0.00102471    0.00102472
        2.235    0.00102871    0.00102871
         2.24    0.00103266    0.00103266
        2.245    0.00103666    0.00103666
         2.25    0.00104058    0.00104058
        2.255    0.00104476    0.00104476
         2.26    0.00104884    0.00104884
        2.265    0.00105292    0.00105292
         2.27    0.00105681    0.00105681
        2.275     0.0010609     0.0010609
         2.28    0.00106494    0.00106494
        2.285    0.00106888    0.00106888
         2.29    0.00107308    0.00107308
        2.295    0.00107746    0.00107746
          2.3    0.00108155    0.00108155
        2.305    0.00108563    0.00108563
         2.31    0.00108973    0.00108973
        2.315    0.00109383    0.00109383
         2.32    0.00109793    0.00109793
        2.325    0.00110205    0.00110204
         2.33    0.00110621    0.00110621
        2.335    0.00111025    0.00111025
         2.34    0.00111413    0.00111413
        2.345    0.00111843    0.00111843
         2.35    0.00112282    0.00112282
        2.355    0.00112695    0.00112695
         2.36     0.0011308     0.0011308
        2.365    0.00113543    0.00113543
         2.37    0.00113971    0.00113971
        2.375     0.0011439     0.0011439
         2.38    0.00114805    0.00114805
        2.385    0.00115221    0.00115221
         2.39    0.00115638    0.00115638
        2.395     0.0011606     0.0011606
          2.4    0.00116477    0.00116477
        2.405    0.00116896    0.00116896
         2.41    0.00117316    0.00117316
        2.415    0.00117735    0.00117735
         2.42    0.00118155    0.00118155
        2.425    0.00118482    0.00118482
         2.43    0.00119062    0.00119062
        2.435    0.00119468    0.00119468
         2.44    0.00119875    0.00119875
        2.445    0.00120101    0.00120101
         2.45    0.00120781    0.00120781
        2.455    0.00121187    0.00121187
         2.46    0.00121602    0.00121602
        2.465    0.00122022    0.00122022
         2.47     0.0012244     0.0012244
        2.475    0.00122854    0.00122854
         2.48    0.00123274    0.00123274
        2.485    0.00123742    0.00123742
         2.49    0.00124171    0.00124171
        2.495    0.00124594    0.00124594
          2.5    0.00125022    0.00125022
        2.505    0.00125451    0.00125451
         2.51     0.0012588     0.0012588
        2.515     0.0012631     0.0012631
         2.52    0.00126734    0.00126734
        2.525    0.00127158    0.00127158
         2.53    0.00127605    0.00127605
        2.535    0.00128024    0.00128024
         2.54    0.00128511    0.00128511
        2.545    0.00128949    0.00128949
         2.55    0.00129381    0.00129381
        2.555    0.00129809    0.00129809
         2.56    0.00130171    0.00130171
        2.565    0.00130717    0.00130717
         2.57     0.0013114     0.0013114
        2.575    0.00131566    0.00131566
         2.58    0.00131992    0.00131992
        2.585    0.00132426    0.00132426
         2.59    0.00132833    0.00132833
        2.595    0.00133318    0.00133318
          2.6    0.00133754    0.00133754
        2.605    0.00134168    0.00134168
         2.61    0.00134603    0.00134603
        2.615    0.00135053    0.00135053
         2.62    0.00135563    0.00135563
        2.625    0.00135997    0.00135997
         2.63    0.00136432    0.00136432
        2.635    0.00136865    0.00136865
         2.64    0.00137321    0.00137321
        2.645    0.00137759     0.0013776
         2.65    0.00138207    0.00138207
        2.655    0.00138649    0.00138649
         2.66    0.00139097    0.00139097
        2.665    0.00139537    0.00139537
         2.67    0.00139903    0.00139902
        2.675    0.00140452    0.00140453
         2.68     0.0014091     0.0014091
        2.685    0.00141358    0.00141358
         2.69    0.00141804    0.00141804
        2.695    0.00142253    0.00142253
          2.7    0.00142699    0.00142699
        2.705     0.0014315     0.0014315
         2.71    0.00143599    0.00143599
        2.715    0.00144047    0.00144047
         2.72    0.00144488    0.00144488
        2.725    0.00144688    0.00144688
         2.73    0.00145495    0.00145495
        2.735    0.00145932    0.00145932
         2.74    0.00146358    0.00146358
        2.745    0.00146803    0.00146803
         2.75    0.00147251    0.00147251
        2.755      0.001477      0.001477
         2.76    0.00148149    0.00148149
        2.765    0.00148593    0.00148593
         2.77    0.00148787    0.00148787
        2.775    0.00149613    0.00149613
         2.78    0.00150036    0.00150036
        2.785    0.00150478    0.00150478
         2.79    0.00150925    0.00150925
        2.795    0.00151373    0.00151373
          2.8    0.00151821    0.00151821
        2.805     0.0015225     0.0015225
         2.81    0.00152705    0.00152705
        2.815     0.0015322     0.0015322
         2.82    0.00153681    0.00153681
        2.825    0.00154139    0.00154139
         2.83    0.00154591    0.00154591
        2.835    0.00155034    0.00155034
         2.84    0.00155439     0.0015544
        2.845    0.00156003    0.00156003
         2.85    0.00156461    0.00156461
        2.855    0.00156916    0.00156916
         2.86    0.00157353    0.00157353
        2.865    0.00157805    0.00157805
         2.87     0.0015832     0.0015832
        2.875    0.00158775    0.00158775
         2.88    0.00159184    0.00159184
        2.885    0.00159701    0.00159701
         2.89    0.00160172    0.00160172
        2.895    0.00160453    0.00160453
          2.9    0.00161147    0.00161147
        2.905    0.00161604    0.00161604
         2.91    0.00162063    0.00162063
        2.915    0.00162525    0.00162525
         2.92    0.00162989    0.00162989
        2.925    0.00163456    0.00163456
         2.93    0.00163923    0.00163923
        2.935    0.00164391    0.00164391
         2.94    0.00164867    0.00164867
        2.945    0.00165327    0.00165327
         2.95    0.00165797    0.00165797
        2.955    0.00166268    0.00166269
         2.96     0.0016674     0.0016674
        2.965    0.00167211    0.00167211
         2.97    0.00167683    0.00167683
        2.975    0.00168159    0.00168159
         2.98    0.00168633    0.00168633
        2.985    0.00169101    0.00169101
         2.99     0.0016957     0.0016957
        2.995    0.00170043    0.00170044
            3    0.00170519    0.00170519
        3.005    0.00170993    0.00170993
         3.01    0.00171467    0.00171467
        3.015    0.00171942    0.00171942
         3.02    0.00172416    0.00172416
        3.025    0.00172893    0.00172893
         3.03    0.00173367    0.00173367
        3.035    0.00173833    0.00173833
         3.04    0.00174322    0.00174322
        3.045    0.00174798    0.00174798
         3.05     0.0017527     0.0017527
        3.055    0.00175743    0.00175743
         3.06     0.0017622    0.00176219
        3.065      0.001767      0.001767
         3.07    0.00177172    0.00177172
        3.075    0.00177648    0.00177648
         3.08    0.00178125    0.00178125
        3.085    0.00178603    0.00178603
         3.09    0.00179082    0.00179081
        3.095     0.0017956     0.0017956
          3.1    0.00180038    0.00180038
        3.105    0.00180517    0.00180517
         3.11    0.00180996    0.00180996
        3.115    0.00181476    0.00181476
         3.12    0.00181947    0.00181947
        3.125    0.00182426    0.00182426
         3.13    0.00182905    0.00182905
        3.135    0.00183385    0.00183385
         3.14    0.00183866    0.00183866
        3.145    0.00184345    0.00184345
         3.15     0.0018482    0.00184821
        3.155      0.001853      0.001853
         3.16    0.00185779    0.00185779
        3.165    0.00186258    0.00186258
         3.17    0.00186738    0.00186738
        3.175    0.00187216    0.00187216
         3.18    0.00187698    0.00187698
        3.185    0.00188182    0.00188182
         3.19     0.0018865     0.0018865
        3.195     0.0018913     0.0018913
          3.2    0.00189609    0.00189609
        3.205    0.00190087    0.00190087
         3.21    0.00190573    0.00190573
        3.215    0.00191047    0.00191047
         3.22    0.00191527    0.00191527
        3.225    0.00192006    0.00192006
         3.23     0.0019249     0.0019249
        3.235    0.00192964    0.00192964
         3.24    0.00193443    0.00193443
        3.245    0.00193921    0.00193921
         3.25      0.001944      0.001944
        3.255    0.00194878    0.00194878
         3.26    0.00195355    0.00195356
        3.265    0.00195833    0.00195833
         3.27    0.00196316    0.00196316
        3.275     0.0019679     0.0019679
         3.28    0.00197269    0.00197269
        3.285    0.00197745    0.00197745
         3.29    0.00198223    0.00198223
        3.295      0.001987      0.001987
          3.3    0.00199178    0.00199178
        3.305    0.00199661    0.00199661
         3.31    0.00200131    0.00200131
        3.315    0.00200608    0.00200608
         3.32    0.00201085    0.00201085
        3.325    0.00201563    0.00201563
         3.33    0.00202037    0.00202037
        3.335    0.00202511    0.00202511
         3.34    0.00202987    0.00202987
        3.345    0.00203467    0.00203467
         3.35    0.00203934    0.00203934
        3.355    0.00204407    0.00204407
         3.36    0.00204881    0.00204881
        3.365    0.00205356    0.00205356
         3.37     0.0020583     0.0020583
        3.375    0.00206303    0.00206303
         3.38    0.00206776    0.00206776
        3.385    0.00207249    0.00207249
         3.39    0.00207717    0.00207718
        3.395    0.00208189    0.00208189
          3.4     0.0020866     0.0020866
        3.405    0.00209132    0.00209132
         3.41    0.00209603    0.00209603
        3.415    0.00210074    0.00210074
         3.42    0.00210542    0.00210542
        3.425    0.00211006    0.00211006
         3.43    0.00211477    0.00211477
        3.435    0.00211961    0.00211961
         3.44    0.00212419    0.00212419
        3.445    0.00212885    0.00212885
         3.45    0.00213352    0.00213352
        3.455    0.00213819    0.00213819
         3.46    0.00214283    0.00214284
        3.465    0.00214747    0.00214747
         3.47    0.00215213    0.00215213
        3.475    0.00215677    0.00215677
         3.48    0.00216141    0.00216141
        3.485    0.00216611    0.00216611
         3.49    0.00217063    0.00217063
        3.495    0.00217524    0.00217524
          3.5    0.00217985    0.00217985
        3.505    0.00218446    0.00218446
         3.51    0.00218906    0.00218906
        3.515    0.00219365    0.00219365
         3.52    0.00219821    0.00219821
        3.525    0.00220283    0.00220283
         3.53     0.0022073     0.0022073
        3.535     0.0022119     0.0022119
         3.54    0.00221648    0.00221647
        3.545    0.00222099      0.002221
         3.55    0.00222557    0.00222557
        3.555    0.00223004    0.00223004