/*--------------------------------*- C++ -*----------------------------------*\
  =========                 |
  \\      /  F ield         | OpenFOAM: The Open Source CFD Toolbox
   \\    /   O peration     | Website:  https://openfoam.org
    \\  /    A nd           | Version:  7
     \\/     M anipulation  |
\*---------------------------------------------------------------------------*/
FoamFile
{
    version     2.0;
    format      ascii;
    class       volVectorField;
    location    "45";
    object      U;
}
// * * * * * * * * * * * * * * * * * * * * * * * * * * * * * * * * * * * * * //

dimensions      [0 1 -1 0 0 0 0];

internalField   nonuniform List<vector> 
8500
(
(1.02787 0.376766 -5.95396e-21)
(1.01552 0.39272 -7.17743e-20)
(1.01769 0.376193 9.82125e-20)
(1.00171 0.41082 -9.90045e-20)
(1.00452 0.391942 1.24395e-19)
(1.0074 0.375297 -1.56219e-19)
(0.987405 0.430708 -5.75746e-20)
(0.990076 0.409877 2.05146e-19)
(0.9934 0.39083 -1.30834e-19)
(0.997005 0.374064 4.1763e-20)
(0.97518 0.429577 9.32748e-20)
(0.978368 0.408592 9.48662e-20)
(0.982166 0.389378 -3.60062e-19)
(0.986509 0.372474 8.18921e-20)
(0.959826 0.450416 1.22394e-19)
(0.962912 0.428067 -1.56142e-19)
(0.96661 0.40696 5.61094e-20)
(0.970838 0.387575 3.80502e-19)
(0.975917 0.370497 2.18721e-19)
(0.943407 0.472397 -5.41231e-20)
(0.946871 0.448625 -1.9655e-19)
(0.950623 0.42617 -6.35554e-20)
(0.954829 0.404978 -2.31854e-19)
(0.959431 0.38541 1.10664e-19)
(0.965245 0.368095 -2.58906e-19)
(0.929643 0.470267 -4.19345e-20)
(0.933885 0.446407 -2.10686e-20)
(0.938332 0.423879 1.27896e-19)
(0.943044 0.40264 2.47136e-19)
(0.947984 0.382874 -4.19811e-19)
(0.954611 0.365238 2.7839e-19)
(0.910888 0.493018 -3.92215e-21)
(0.91584 0.467674 -9.03345e-21)
(0.920881 0.443753 2.33773e-19)
(0.926046 0.421181 -9.01654e-20)
(0.931269 0.399929 -1.76437e-19)
(0.936599 0.379945 -6.2989e-21)
(0.944242 0.361939 -3.89971e-19)
(0.896197 0.489994 -1.17478e-19)
(0.902013 0.464611 6.5666e-20)
(0.907867 0.440658 1.85033e-19)
(0.913762 0.41807 5.48914e-20)
(0.919526 0.396822 -3.25298e-19)
(0.925455 0.376551 -1.10937e-20)
(0.934137 0.358153 1.24027e-19)
(0.87476 0.513377 -7.001e-20)
(0.881492 0.486464 -1.27112e-20)
(0.888179 0.461075 -1.94888e-19)
(0.894849 0.437121 -1.03139e-19)
(0.901474 0.414545 -1.17705e-19)
(0.907859 0.393322 3.81634e-19)
(0.914724 0.37269 -8.91732e-20)
(0.923554 0.352694 3.39377e-19)
(0.851304 0.537773 -2.18129e-19)
(0.859126 0.509317 9.3712e-20)
(0.866792 0.482426 1.51508e-19)
(0.874354 0.457068 6.46915e-20)
(0.881839 0.433147 1.69449e-19)
(0.889199 0.410609 8.08189e-20)
(0.896295 0.38943 -2.34725e-20)
(0.90411 0.368814 1.85521e-19)
(0.913105 0.348765 2.72321e-20)
(0.834692 0.533117 -9.61843e-20)
(0.843514 0.504706 -2.79469e-19)
(0.85212 0.477877 -1.9525e-20)
(0.860558 0.452587 -1.22782e-19)
(0.868854 0.428736 1.91085e-19)
(0.876951 0.406268 -2.98352e-19)
(0.884757 0.385144 -7.73694e-20)
(0.89328 0.364549 -1.16475e-19)
(0.902384 0.344462 -4.26078e-19)
(0.807878 0.557691 -3.52807e-20)
(0.818122 0.527865 -9.45298e-21)
(0.827948 0.499544 -4.03562e-20)
(0.837495 0.472817 -9.54372e-20)
(0.84681 0.447633 -1.37351e-19)
(0.855918 0.423889 7.19774e-20)
(0.864757 0.401527 2.3906e-19)
(0.873272 0.380493 -1.28376e-19)
(0.882429 0.359985 1.68511e-19)
(0.891775 0.340047 4.8581e-19)
(0.790314 0.55173 -4.33172e-19)
(0.801619 0.522015 -2.05445e-19)
(0.812452 0.493829 5.99332e-20)
(0.822941 0.467245 8.02551e-20)
(0.833133 0.442206 2.79636e-19)
(0.84305 0.418606 -3.9281e-19)
(0.852633 0.396386 1.16222e-19)
(0.86185 0.375478 7.14865e-20)
(0.871614 0.355111 -1.02939e-19)
(0.881297 0.335413 -3.64356e-19)
(0.772839 0.545121 2.30403e-19)
(0.78521 0.515567 3.69536e-19)
(0.79705 0.487561 3.00614e-19)
(0.80848 0.461163 2.18563e-19)
(0.819546 0.436307 -4.75743e-19)
(0.830271 0.412889 -3.53549e-21)
(0.840599 0.390846 -1.29689e-19)
(0.850513 0.370101 5.01406e-19)
(0.860878 0.349925 -2.35033e-20)
(0.870958 0.330515 -2.48876e-19)
(0.741164 0.568435 -3.18126e-19)
(0.755484 0.537866 7.49451e-21)
(0.768921 0.508523 1.18956e-19)
(0.781766 0.480743 -1.88885e-19)
(0.794134 0.45457 -2.40096e-19)
(0.806072 0.429937 6.07548e-19)
(0.817603 0.406737 2.45867e-19)
(0.828674 0.384907 -2.54657e-19)
(0.839282 0.364363 -2.98363e-19)
(0.850249 0.34442 -3.36693e-19)
(0.860768 0.32533 -2.83817e-20)
(0.722852 0.560311 1.65055e-19)
(0.738277 0.529967 6.43829e-20)
(0.752776 0.500885 -3.31582e-19)
(0.766624 0.473375 3.51319e-19)
(0.779926 0.44747 2.14429e-19)
(0.792731 0.423098 -8.62392e-20)
(0.805064 0.400154 -1.66098e-19)
(0.816877 0.378572 1.46325e-19)
(0.828177 0.358263 -2.50787e-19)
(0.839749 0.338591 -3.51147e-19)
(0.850737 0.319842 3.41593e-19)
(0.686635 0.581972 5.16214e-19)
(0.704716 0.551491 -2.57754e-19)
(0.721245 0.521429 3.18378e-19)
(0.736803 0.492657 -3.70849e-19)
(0.751647 0.465462 4.87915e-20)
(0.765877 0.439866 -1.50776e-19)
(0.779544 0.415793 1.0729e-19)
(0.792675 0.39314 1.01784e-19)
(0.805226 0.371839 -6.36825e-20)
(0.817216 0.3518 6.25637e-19)
(0.829396 0.332431 -8.07171e-20)
(0.840874 0.31404 -2.90862e-19)
(0.667602 0.572196 -3.74024e-19)
(0.686787 0.541982 5.37746e-19)
(0.704416 0.512256 -6.11238e-20)
(0.721027 0.483843 1.54695e-19)
(0.736859 0.457007 1.86196e-19)
(0.752011 0.43176 7.49659e-20)
(0.766532 0.408025 -5.20426e-19)
(0.780455 0.385698 1.16383e-19)
(0.79374 0.364713 1.11874e-19)
(0.806416 0.344975 -3.73652e-19)
(0.819204 0.325938 1.43002e-19)
(0.831187 0.30792 5.47322e-20)
(0.625923 0.590276 -5.50531e-20)
(0.648807 0.561676 -5.99346e-21)
(0.669096 0.53179 8.4005e-20)
(0.687819 0.502454 -1.50286e-19)
(0.705474 0.474449 -1.94306e-20)
(0.722284 0.448015 -5.78859e-19)
(0.738348 0.423158 -4.47059e-19)
(0.753716 0.399798 -7.46227e-20)
(0.768423 0.377832 -6.50456e-20)
(0.782436 0.357194 -7.21049e-20)
(0.795795 0.337788 -1.47262e-19)
(0.809188 0.31911 -1.71994e-19)
(0.821685 0.30148 -2.32956e-19)
(0.606362 0.578761 -1.05584e-19)
(0.630284 0.550419 -4.82493e-20)
(0.651674 0.520923 -5.074e-19)
(0.67148 0.492031 -4.83916e-19)
(0.690168 0.464481 9.07291e-20)
(0.707946 0.438493 7.90642e-19)
(0.72491 0.414065 1.20667e-19)
(0.741114 0.391116 3.23565e-19)
(0.756597 0.369545 -5.04788e-19)
(0.771331 0.349286 -1.2105e-19)
(0.785366 0.330242 6.07109e-19)
(0.79936 0.311949 2.73099e-19)
(0.812378 0.294719 1.12226e-18)
(0.587106 0.566454 -6.63505e-20)
(0.612067 0.538438 3.43822e-19)
(0.634549 0.509391 -2.13308e-19)
(0.655427 0.480995 1.60086e-19)
(0.675134 0.453947 3.67517e-19)
(0.693866 0.428447 -2.56212e-19)
(0.711718 0.404487 6.63423e-20)
(0.728748 0.381985 3.17477e-19)
(0.744996 0.360843 4.05231e-19)
(0.760443 0.340992 -2.12391e-19)
(0.775146 0.322339 -1.24144e-19)
(0.789734 0.304455 1.8951e-19)
(0.803275 0.287639 -5.54842e-19)
(0.538275 0.576838 7.77779e-20)
(0.568191 0.553367 2.17737e-19)
(0.594188 0.525744 -3.26472e-19)
(0.61775 0.497205 7.78751e-19)
(0.639686 0.469356 3.27472e-19)
(0.660396 0.442855 -1.11801e-19)
(0.680068 0.417885 -3.62447e-20)
(0.698794 0.394431 1.50727e-19)
(0.716636 0.372412 -4.20771e-19)
(0.733637 0.35173 3.4709e-20)
(0.749786 0.332319 -2.74193e-19)
(0.765149 0.314084 -1.2329e-19)
(0.780322 0.296632 -5.50834e-19)
(0.794385 0.280245 -2.40802e-19)
(0.518865 0.562754 -2.71262e-19)
(0.549651 0.539515 1.4557e-19)
(0.576677 0.512351 -9.01787e-20)
(0.601307 0.484376 -2.80508e-19)
(0.624284 0.457125 3.05869e-19)
(0.64598 0.431216 3.31031e-19)
(0.666573 0.406816 -1.29951e-21)
(0.686157 0.383906 -7.70531e-20)
(0.704796 0.362404 -4.36129e-20)
(0.722538 0.342214 3.30383e-19)
(0.739377 0.323271 3.00633e-19)
(0.755387 0.305481 8.47606e-20)
(0.771136 0.288484 5.79336e-19)
(0.785718 0.272541 1.91217e-19)
(0.499864 0.54785 -9.75721e-20)
(0.531521 0.524914 -1.68757e-19)
(0.559566 0.498272 -6.4323e-20)
(0.585247 0.470918 -8.89059e-21)
(0.609245 0.444313 -6.71326e-19)
(0.631907 0.41904 -8.57521e-19)
(0.653404 0.39525 -1.33945e-19)
(0.673828 0.37292 3.03872e-19)
(0.693248 0.351969 -1.20563e-19)
(0.711715 0.332303 -6.21328e-19)
(0.729231 0.313856 5.88209e-19)
(0.745876 0.296537 8.55181e-20)
(0.762188 0.280016 -2.41461e-19)
(0.777285 0.264532 3.81732e-19)
(0.443459 0.546134 1.13343e-19)
(0.481309 0.532146 3.9441e-19)
(0.513835 0.509582 -1.38026e-19)
(0.542886 0.483524 2.10835e-19)
(0.569597 0.456844 4.0692e-19)
(0.594596 0.430934 2.24061e-19)
(0.618202 0.40634 9.53557e-19)
(0.640581 0.383199 4.4079e-19)
(0.661826 0.361484 -3.73656e-20)
(0.682009 0.341116 -2.28713e-20)
(0.701185 0.322004 7.90339e-20)
(0.719363 0.30408 -6.48041e-19)
(0.736629 0.287258 -3.50157e-19)
(0.75349 0.271235 1.52202e-19)
(0.769095 0.256225 -5.28947e-19)
(0.42483 0.529601 8.43654e-20)
(0.463237 0.515664 -5.00639e-19)
(0.496626 0.493538 3.81562e-19)
(0.526665 0.468123 -1.7903e-19)
(0.554385 0.442171 -4.15059e-19)
(0.580359 0.417001 -1.0147e-19)
(0.604886 0.393127 -3.92887e-19)
(0.628125 0.370673 -8.26103e-19)
(0.65017 0.349609 7.09477e-20)
(0.671096 0.329856 6.66983e-19)
(0.690964 0.311326 -2.94067e-19)
(0.709787 0.293953 3.63189e-19)
(0.727658 0.277652 4.91419e-19)
(0.745054 0.262148 3.19087e-19)
(0.761159 0.247628 2.45175e-19)
(0.406712 0.512243 3.02069e-19)
(0.445683 0.498424 5.29848e-19)
(0.479924 0.476802 -6.47174e-19)
(0.510932 0.452089 5.14086e-19)
(0.539635 0.426914 4.14709e-19)
(0.566559 0.40253 -1.20392e-19)
(0.591981 0.379416 -6.50071e-20)
(0.616055 0.357685 2.4011e-19)
(0.638878 0.337306 -4.17232e-19)
(0.660527 0.318199 -5.64414e-19)
(0.681066 0.30028 2.16545e-19)
(0.700518 0.283483 -2.20643e-19)
(0.718977 0.267727 -2.67128e-19)
(0.736891 0.252762 -2.33468e-19)
(0.753486 0.238748 2.32399e-20)
(0.389143 0.494088 -5.22848e-19)
(0.428682 0.480451 -4.24539e-20)
(0.463761 0.459394 3.17094e-20)
(0.495714 0.435439 -5.45016e-20)
(0.525374 0.411092 -5.19326e-19)
(0.553219 0.387537 -2.23938e-20)
(0.579509 0.365222 -8.64312e-20)
(0.604393 0.34425 5.25812e-19)
(0.627969 0.324587 -1.64952e-19)
(0.650318 0.306156 -4.74011e-20)
(0.671508 0.288876 2.84084e-19)
(0.691568 0.272681 8.36673e-19)
(0.710597 0.257493 -8.57569e-20)
(0.729013 0.243086 -1.019e-19)
(0.746087 0.229594 1.76451e-19)
(0.326227 0.474682 3.72902e-19)
(0.372161 0.475162 -2.20398e-19)
(0.412265 0.461769 -3.60572e-19)
(0.448167 0.441339 3.5871e-19)
(0.481038 0.418196 -1.21129e-19)
(0.511625 0.394722 3.40012e-19)
(0.540361 0.372038 1.5685e-19)
(0.567489 0.350561 -9.2701e-20)
(0.593155 0.330382 -3.57816e-19)
(0.617459 0.311467 4.46805e-19)
(0.640485 0.293741 -1.12831e-19)
(0.662304 0.277125 -4.97925e-19)
(0.682952 0.261556 -1.73273e-19)
(0.702532 0.246959 -5.49095e-20)
(0.721432 0.23313 8.70074e-19)
(0.738971 0.220174 -5.6481e-19)
(0.309783 0.455371 -2.77277e-19)
(0.355801 0.455493 5.47883e-19)
(0.396466 0.442405 9.99701e-20)
(0.433168 0.422659 2.70809e-19)
(0.46693 0.40038 2.03112e-19)
(0.498411 0.377826 -5.6123e-19)
(0.528006 0.356053 -2.97065e-19)
(0.555942 0.335449 5.5576e-19)
(0.582361 0.316096 -1.90851e-20)
(0.607366 0.29796 -4.61315e-19)
(0.631043 0.280967 1.19514e-19)
(0.653468 0.265041 5.80114e-19)
(0.674683 0.250121 -4.74234e-19)
(0.694792 0.236136 -1.94051e-19)
(0.714156 0.222902 -1.7243e-19)
(0.732148 0.2105 3.84817e-19)
(0.293978 0.435298 -3.72933e-19)
(0.340097 0.435111 -1.62693e-19)
(0.381314 0.422386 -6.86191e-20)
(0.418794 0.40338 -5.41558e-19)
(0.453414 0.382013 -4.15182e-19)
(0.485756 0.360423 5.55676e-19)
(0.516176 0.339599 3.11319e-19)
(0.544887 0.319903 -2.45851e-19)
(0.572028 0.301409 -2.86485e-19)
(0.597705 0.28408 3.13515e-19)
(0.622007 0.267846 -1.78642e-19)
(0.645013 0.252635 2.59705e-19)
(0.666771 0.238387 1.25959e-19)
(0.687388 0.225035 4.93758e-19)
(0.707198 0.212413 9.93339e-20)
(0.725626 0.20058 -4.54836e-19)
(0.278848 0.414495 -7.62392e-20)
(0.325081 0.414047 -2.17373e-19)
(0.366839 0.40174 1.92261e-19)
(0.405069 0.383527 7.19407e-20)
(0.440514 0.363121 -2.15433e-19)
(0.47368 0.342536 1.45219e-19)
(0.504889 0.322698 -3.89448e-19)
(0.534341 0.303943 -8.76574e-20)
(0.562173 0.286337 3.62054e-19)
(0.588492 0.269843 1.29663e-19)
(0.613391 0.254395 2.05979e-19)
(0.636953 0.239922 -3.92864e-19)
(0.659231 0.226367 -1.52814e-19)
(0.680333 0.213667 -5.23719e-20)
(0.700567 0.201675 7.23881e-20)
(0.719414 0.190426 4.17128e-19)
(0.264428 0.392996 -1.70166e-19)
(0.310784 0.392333 3.76539e-19)
(0.353068 0.380497 6.0208e-19)
(0.392019 0.363128 1.72939e-19)
(0.428253 0.343727 2.37518e-19)
(0.462205 0.324186 -3.81875e-21)
(0.494164 0.305369 1.15026e-19)
(0.524321 0.287588 4.05723e-19)
(0.552811 0.270899 -6.02315e-20)
(0.579741 0.255266 -7.38318e-19)
(0.605209 0.240627 6.32449e-21)
(0.629299 0.226915 4.23749e-20)
(0.652072 0.214075 3.93718e-20)
(0.673635 0.202046 -2.44834e-19)
(0.694273 0.190698 -2.28792e-19)
(0.713522 0.180049 -4.48141e-19)
(0.200197 0.353618 -1.14253e-19)
(0.250748 0.370838 2.26809e-19)
(0.297235 0.370003 2.24223e-19)
(0.340027 0.358688 -2.24424e-19)
(0.379668 0.34221 2.65836e-20)
(0.416651 0.323857 -1.48324e-19)
(0.451349 0.305398 3.69539e-20)
(0.48402 0.287636 -4.48552e-21)
(0.514845 0.270856 -1.81705e-19)
(0.543958 0.255112 -8.24633e-20)
(0.571467 0.240366 4.90307e-19)
(0.597474 0.22656 -3.70063e-19)
(0.622065 0.21363 2.50202e-19)
(0.645306 0.201522 1.02304e-19)
(0.667306 0.190183 -2.37599e-20)
(0.688325 0.179496 7.36267e-21)
(0.707956 0.169459 2.46671e-19)
(0.187774 0.332112 3.15818e-19)
(0.23784 0.348056 -1.75463e-19)
(0.284462 0.347091 -3.10516e-19)
(0.327741 0.336344 -1.89658e-19)
(0.368036 0.320803 -3.70201e-19)
(0.405729 0.303538 3.04915e-19)
(0.441131 0.286195 -2.51863e-19)
(0.474474 0.269518 5.42885e-20)
(0.505929 0.25377 3.83901e-20)
(0.535628 0.238996 -1.6835e-19)
(0.563683 0.225161 1.974e-19)
(0.590197 0.212209 3.00685e-19)
(0.61526 0.200081 -2.68799e-19)
(0.638943 0.188725 -3.10049e-19)
(0.661354 0.178092 5.97878e-19)
(0.682732 0.168079 -5.42417e-19)
(0.702725 0.158669 1.99711e-19)
(0.176109 0.310002 -2.63503e-19)
(0.225732 0.324689 5.63422e-20)
(0.272491 0.323632 1.23293e-19)
(0.316234 0.313499 -4.32678e-19)
(0.357146 0.298936 7.109e-20)
(0.395505 0.282796 -2.9729e-19)
(0.431568 0.266603 2.54506e-19)
(0.465541 0.251041 6.13005e-20)
(0.497586 0.236351 -2.80442e-19)
(0.527835 0.222571 -6.41942e-20)
(0.556401 0.209669 1.53339e-19)
(0.58339 0.197592 7.28811e-20)
(0.608895 0.186284 -2.16767e-20)
(0.632992 0.175698 1.81003e-20)
(0.655788 0.165787 -5.254e-19)
(0.677502 0.156461 3.7748e-19)
(0.697836 0.147691 3.52959e-19)
(0.16523 0.287329 2.40184e-19)
(0.214451 0.300775 1.64845e-19)
(0.261347 0.299664 3.14152e-19)
(0.305526 0.290185 4.41055e-20)
(0.347017 0.276639 3.07724e-20)
(0.385999 0.261661 -2.23943e-21)
(0.422677 0.246648 -3.25559e-19)
(0.457236 0.232228 1.72061e-19)
(0.48983 0.21862 -2.79328e-19)
(0.520591 0.205857 1.85625e-19)
(0.549633 0.193909 -3.009e-19)
(0.577064 0.182726 -1.78557e-19)
(0.602981 0.172257 3.63874e-19)
(0.627463 0.162456 3.26973e-20)
(0.650617 0.153282 8.30979e-20)
(0.672643 0.144655 3.36298e-20)
(0.693296 0.136538 -3.89277e-19)
(0.155163 0.264134 -1.609e-19)
(0.204022 0.276354 1.01978e-19)
(0.251051 0.275223 -2.31334e-19)
(0.295639 0.266437 1.77223e-19)
(0.337667 0.253946 2.54953e-20)
(0.377225 0.240159 1.51533e-19)
(0.414472 0.226355 -5.40392e-21)
(0.449573 0.213104 -1.51127e-19)
(0.482675 0.2006 1.50742e-19)
(0.513908 0.188876 -3.90623e-19)
(0.54339 0.177901 5.49924e-19)
(0.57123 0.167629 2.1225e-19)
(0.597527 0.158014 -4.48324e-19)
(0.622364 0.149014 4.54633e-20)
(0.645849 0.140591 2.97268e-19)
(0.668162 0.132675 -4.24499e-19)
(0.689111 0.125223 -2.34654e-21)
(0.145933 0.240458 1.05529e-19)
(0.194467 0.251468 -8.7225e-20)
(0.241624 0.250348 -4.35257e-20)
(0.286591 0.24229 -8.87799e-20)
(0.329113 0.230886 -1.13776e-19)
(0.3692 0.218322 -3.19062e-19)
(0.406969 0.205753 1.40542e-19)
(0.442565 0.193692 -1.973e-19)
(0.476132 0.182315 3.66009e-19)
(0.507797 0.171648 2.49366e-19)
(0.537682 0.161664 -4.43048e-19)
(0.565895 0.15232 -4.49373e-19)
(0.59254 0.143575 2.16473e-19)
(0.617703 0.135389 -2.4325e-19)
(0.641491 0.127729 -3.03474e-20)
(0.664067 0.120535 2.4289e-19)
(0.685287 0.113758 -4.53589e-19)
(0.137562 0.216345 -1.69557e-19)
(0.185808 0.226158 -2.44645e-19)
(0.233085 0.225077 3.6094e-19)
(0.278399 0.21778 5.04708e-20)
(0.32137 0.207494 1.83283e-19)
(0.361937 0.19618 1.94668e-19)
(0.400179 0.184869 -4.63973e-20)
(0.436224 0.17402 2.76794e-19)
(0.470211 0.163788 -1.64466e-19)
(0.502269 0.154196 -2.15342e-19)
(0.532517 0.145219 3.46113e-19)
(0.56107 0.136818 3.97234e-19)
(0.58803 0.128956 -4.5942e-19)
(0.613488 0.121597 6.37665e-20)
(0.637549 0.114712 -4.26771e-20)
(0.660362 0.108249 -1.51682e-19)
(0.68183 0.102157 6.07936e-20)
(0.13007 0.191838 1.86359e-19)
(0.178063 0.200467 1.35475e-19)
(0.225451 0.199451 -1.94958e-19)
(0.271077 0.192944 9.20682e-20)
(0.314452 0.183803 1.04664e-19)
(0.355449 0.173762 -3.31851e-19)
(0.394113 0.163731 1.6385e-19)
(0.430561 0.154113 1.85901e-20)
(0.464924 0.145044 1.59862e-19)
(0.497331 0.136542 -2.08563e-19)
(0.527906 0.128586 2.62704e-20)
(0.556761 0.121142 -1.66871e-20)
(0.584002 0.114175 2.34631e-20)
(0.609724 0.107655 1.43802e-19)
(0.634029 0.101555 2.6028e-20)
(0.657055 0.0958315 -3.23584e-20)
(0.678744 0.090434 3.83863e-21)
(0.123474 0.166981 -2.80434e-20)
(0.171248 0.174437 1.66076e-19)
(0.218738 0.17351 -2.11138e-19)
(0.264641 0.167818 5.29609e-20)
(0.308372 0.159846 -1.89111e-19)
(0.349747 0.1511 5.55516e-22)
(0.388783 0.142368 -3.07865e-19)
(0.425584 0.133998 -2.25808e-19)
(0.460278 0.126106 1.2222e-19)
(0.492993 0.118709 3.25413e-20)
(0.523854 0.111788 -8.68656e-20)
(0.552975 0.105311 1.17249e-19)
(0.580464 0.0992509 8.64744e-20)
(0.606417 0.0935793 1.46062e-19)
(0.630938 0.0882735 7.23951e-20)
(0.65415 0.0832975 1.67821e-19)
(0.676034 0.0786025 6.84906e-20)
(0.0724638 0.124485 2.70597e-19)
(0.117792 0.141821 -1.06315e-19)
(0.16538 0.148113 -4.90692e-20)
(0.212959 0.147294 -9.38816e-20)
(0.259101 0.14244 9.06792e-21)
(0.303139 0.135659 6.7246e-20)
(0.344841 0.128226 2.099e-19)
(0.384197 0.120809 2.59231e-19)
(0.421302 0.113701 1.01505e-19)
(0.45628 0.107001 -2.45673e-20)
(0.489261 0.100721 -5.35792e-20)
(0.520368 0.0948443 -1.35955e-19)
(0.549718 0.0893465 1.65637e-20)
(0.57742 0.0842019 -1.63301e-20)
(0.603573 0.0793875 -1.19406e-19)
(0.628279 0.0748841 -1.2581e-20)
(0.651652 0.070662 -2.42669e-19)
(0.673703 0.0666767 4.80664e-21)
(0.0682305 0.1022 -1.10715e-19)
(0.113035 0.116401 -5.87001e-21)
(0.16047 0.121539 -1.26409e-20)
(0.208125 0.120846 6.27819e-20)
(0.254468 0.116848 -1.97806e-19)
(0.298764 0.111275 -7.80922e-20)
(0.340739 0.105172 -1.343e-19)
(0.380364 0.0990836 5.43445e-21)
(0.417723 0.0932506 4.55224e-20)
(0.452939 0.0877525 1.02548e-19)
(0.486141 0.0825997 -2.0395e-20)
(0.517454 0.0777782 9.13559e-20)
(0.546996 0.0732675 -4.50347e-20)
(0.574877 0.0690469 -1.64569e-19)
(0.601196 0.0650972 -1.74285e-20)
(0.626056 0.0614029 -3.86364e-20)
(0.649563 0.0579404 1.85268e-19)
(0.671756 0.0546709 -3.16815e-20)
(0.0648301 0.0797127 -2.58903e-20)
(0.109216 0.0907702 5.71486e-20)
(0.156528 0.0947597 4.48494e-20)
(0.204246 0.0942064 1.29101e-20)
(0.250752 0.0910803 1.52649e-19)
(0.295255 0.0867301 -4.15114e-20)
(0.337448 0.0819691 3.72421e-20)
(0.377289 0.0772216 4.46648e-20)
(0.414852 0.0726736 3.12132e-20)
(0.450259 0.0683871 -8.56403e-20)
(0.483639 0.06437 1.13563e-19)
(0.515118 0.0606112 8.62673e-20)
(0.544813 0.0570949 -3.41605e-20)
(0.572836 0.0538048 1.40274e-19)
(0.59929 0.0507259 2.21854e-19)
(0.624274 0.0478463 -3.2813e-20)
(0.647888 0.0451479 8.40379e-20)
(0.670195 0.0425993 -3.82286e-20)
(0.0622717 0.0570675 1.75586e-20)
(0.106343 0.0649736 -9.04296e-20)
(0.153565 0.0678205 4.69413e-20)
(0.201329 0.0674178 1.38851e-19)
(0.247958 0.0651759 -1.1234e-19)
(0.292617 0.0620599 -6.55431e-21)
(0.334975 0.0586512 2.93183e-20)
(0.374977 0.055253 6.59321e-20)
(0.412694 0.0519981 6.18961e-21)
(0.448245 0.0489303 -2.14737e-20)
(0.481759 0.0460555 -3.51877e-20)
(0.513361 0.0433656 -3.75369e-20)
(0.543172 0.0408493 1.44805e-20)
(0.571303 0.0384948 1.46504e-20)
(0.597858 0.0362915 -7.46606e-20)
(0.622935 0.0342309 -7.37951e-21)
(0.64663 0.0323003 -1.81287e-19)
(0.669021 0.0304764 7.62282e-20)
(0.0605619 0.0343092 -8.33458e-21)
(0.104424 0.0390587 3.83197e-20)
(0.151585 0.0407669 -2.25126e-20)
(0.199381 0.0405225 -7.11335e-20)
(0.246092 0.0391735 3.46721e-20)
(0.290855 0.0372998 -7.98962e-22)
(0.333324 0.0352507 -1.01436e-19)
(0.373434 0.0332083 6.19978e-20)
(0.411253 0.0312519 -4.21207e-20)
(0.4469 0.0294082 3.36972e-20)
(0.480503 0.0276804 -2.78963e-20)
(0.512188 0.0260637 1.48116e-20)
(0.542077 0.0245513 2.70832e-20)
(0.570279 0.0231362 -7.99872e-20)
(0.596901 0.021812 7.61522e-21)
(0.62204 0.0205735 -3.65739e-21)
(0.645789 0.0194132 4.59956e-20)
(0.668238 0.0183169 1.04092e-21)
(0.0597053 0.0114829 5.75425e-21)
(0.103462 0.0130726 7.2197e-21)
(0.150593 0.0136446 -1.43748e-20)
(0.198406 0.0135632 2.77648e-20)
(0.245157 0.0131123 -1.10223e-20)
(0.289972 0.0124858 3.45706e-20)
(0.332496 0.0118007 3.19024e-20)
(0.37266 0.0111177 -4.00046e-20)
(0.410531 0.0104634 -1.48621e-20)
(0.446226 0.00984677 2.03746e-20)
(0.479873 0.00926882 -1.43926e-20)
(0.511601 0.00872798 -1.85736e-20)
(0.541528 0.00822197 1.62979e-21)
(0.569766 0.00774844 1.93765e-20)
(0.596421 0.00730527 3.81494e-20)
(0.621592 0.00689075 2.86747e-21)
(0.645368 0.00650238 4.29912e-21)
(0.667845 0.00613534 1.91013e-20)
(0.0597041 -0.011366 4.57634e-21)
(0.103461 -0.0129372 8.54565e-21)
(0.150591 -0.0135007 -7.23774e-21)
(0.198404 -0.0134175 2.62592e-20)
(0.245155 -0.0129686 -1.46265e-20)
(0.28997 -0.0123462 3.81514e-20)
(0.332495 -0.0116659 2.35098e-20)
(0.372659 -0.0109882 -3.1702e-20)
(0.41053 -0.0103392 -1.16783e-20)
(0.446224 -0.00972775 1.4572e-20)
(0.479872 -0.0091549 -1.21906e-20)
(0.511599 -0.00861903 -2.38844e-20)
(0.541526 -0.00811787 6.33619e-21)
(0.569765 -0.00764907 1.72283e-20)
(0.59642 -0.00721049 3.91566e-20)
(0.621591 -0.00680042 3.37885e-21)
(0.645367 -0.00641638 2.99656e-21)
(0.667844 -0.00605355 2.03471e-20)
(0.0605583 -0.0341922 3.11009e-20)
(0.10442 -0.0389233 2.39678e-20)
(0.15158 -0.0406231 -1.94714e-20)
(0.199377 -0.0403768 -1.16344e-19)
(0.246087 -0.0390298 7.07445e-20)
(0.29085 -0.0371602 -1.17562e-20)
(0.333319 -0.035116 -5.5461e-20)
(0.373429 -0.0330788 1.97675e-23)
(0.411249 -0.0311277 -3.09409e-20)
(0.446895 -0.0292892 4.05511e-20)
(0.480498 -0.0275665 -4.09317e-20)
(0.512184 -0.0259548 3.46807e-20)
(0.542072 -0.0244473 1.31282e-20)
(0.570275 -0.0230369 -6.35147e-20)
(0.596897 -0.0217172 1.91808e-20)
(0.622036 -0.0204832 -3.12994e-21)
(0.645785 -0.0193273 3.39775e-20)
(0.668234 -0.0182351 3.51468e-21)
(0.0622656 -0.0569505 -4.70284e-20)
(0.106336 -0.0648382 -7.35498e-20)
(0.153557 -0.0676767 8.47449e-20)
(0.201321 -0.0672721 1.3009e-19)
(0.24795 -0.0650322 -1.16684e-19)
(0.292609 -0.0619203 3.09197e-20)
(0.334967 -0.0585166 1.50984e-20)
(0.374969 -0.0551236 7.56394e-20)
(0.412687 -0.0518739 -2.04709e-20)
(0.448237 -0.0488114 -7.09864e-20)
(0.481751 -0.0459417 1.45789e-20)
(0.513354 -0.0432568 -5.50478e-20)
(0.543165 -0.0407453 4.40733e-20)
(0.571296 -0.0383956 1.26254e-20)
(0.597851 -0.0361969 -9.91757e-20)
(0.622928 -0.0341407 5.94024e-21)
(0.646623 -0.0322145 -1.4599e-19)
(0.669015 -0.0303948 3.30521e-20)
(0.0648217 -0.0795958 2.37817e-20)
(0.109206 -0.0906349 3.22529e-20)
(0.156518 -0.0946159 -5.95007e-20)
(0.204235 -0.0940608 1.11224e-20)
(0.25074 -0.0909367 1.94333e-19)
(0.295243 -0.0865906 1.99023e-20)
(0.337437 -0.0818345 4.05044e-20)
(0.377278 -0.0770923 5.62508e-21)
(0.414841 -0.0725496 6.82537e-20)
(0.450249 -0.0682683 -7.59492e-20)
(0.483629 -0.0642563 1.08149e-19)
(0.515108 -0.0605025 3.2169e-21)
(0.544803 -0.0569911 -2.75123e-20)
(0.572827 -0.0537057 2.10796e-19)
(0.599281 -0.0506314 1.64607e-19)
(0.624265 -0.0477562 -8.57484e-20)
(0.647879 -0.0450622 1.137e-19)
(0.670186 -0.0425177 -2.55606e-21)
(0.0682196 -0.102083 -1.6725e-19)
(0.113022 -0.116266 7.36032e-21)
(0.160456 -0.121395 -3.01655e-20)
(0.20811 -0.120701 -4.87475e-21)
(0.254454 -0.116704 -9.86678e-20)
(0.29875 -0.111135 -1.14574e-19)
(0.340724 -0.105037 -4.79162e-20)
(0.38035 -0.0989545 -1.65418e-19)
(0.417709 -0.0931268 1.85702e-19)
(0.452926 -0.0876339 3.82504e-20)
(0.486128 -0.0824862 -7.77188e-20)
(0.517441 -0.0776696 1.32823e-19)
(0.546983 -0.0731639 -5.79934e-20)
(0.574864 -0.0689479 -1.32033e-19)
(0.601184 -0.0650028 -3.1222e-20)
(0.626045 -0.061313 -4.19137e-20)
(0.649552 -0.0578548 6.73509e-20)
(0.671745 -0.0545895 -5.05531e-21)
(0.0724506 -0.124368 1.05028e-20)
(0.117776 -0.141685 -2.60611e-20)
(0.165363 -0.147969 -7.33487e-20)
(0.212941 -0.147149 -3.39923e-20)
(0.259083 -0.142296 -6.11296e-20)
(0.303122 -0.135519 4.30627e-20)
(0.344823 -0.128092 2.56225e-19)
(0.38418 -0.12068 2.23405e-19)
(0.421285 -0.113578 1.40838e-19)
(0.456264 -0.106882 -5.26214e-20)
(0.489245 -0.100607 2.9396e-20)
(0.520352 -0.0947359 -2.17364e-19)
(0.549703 -0.089243 7.57351e-20)
(0.577405 -0.0841032 -6.02054e-20)
(0.603559 -0.0792934 -8.53922e-20)
(0.628264 -0.0747945 4.56975e-20)
(0.651637 -0.0705767 -3.89803e-19)
(0.67369 -0.0665956 1.41209e-19)
(0.123456 -0.166846 5.30213e-20)
(0.171228 -0.174293 -2.31975e-20)
(0.218717 -0.173365 -3.5282e-20)
(0.26462 -0.167675 -1.16465e-19)
(0.308351 -0.159707 -2.46381e-20)
(0.349726 -0.150966 -1.06467e-20)
(0.388763 -0.142239 -4.00239e-19)
(0.425564 -0.133874 -2.92911e-19)
(0.460258 -0.125988 1.71473e-19)
(0.492974 -0.118596 2.5085e-20)
(0.523835 -0.111679 6.47528e-20)
(0.552956 -0.105208 -6.21772e-20)
(0.580446 -0.0991524 3.18044e-19)
(0.6064 -0.0934854 6.2531e-20)
(0.630921 -0.0881841 9.33087e-20)
(0.654133 -0.0832124 2.19507e-19)
(0.676018 -0.0785217 -1.17521e-19)
(0.130048 -0.191703 6.86634e-20)
(0.178039 -0.200323 6.1581e-20)
(0.225427 -0.199306 -9.4623e-20)
(0.271053 -0.192801 1.63102e-19)
(0.314428 -0.183664 2.31166e-20)
(0.355425 -0.173628 -2.96852e-19)
(0.39409 -0.163603 1.87047e-19)
(0.430538 -0.15399 7.48528e-20)
(0.464901 -0.144926 -8.70753e-20)
(0.497309 -0.136429 2.33889e-20)
(0.527884 -0.128478 1.09613e-20)
(0.556739 -0.121039 -8.98151e-20)
(0.583981 -0.114077 2.29156e-19)
(0.609704 -0.107561 -8.06375e-20)
(0.63401 -0.101466 5.84531e-20)
(0.657036 -0.0957467 1.25089e-19)
(0.678725 -0.0903534 -4.62829e-20)
(0.137538 -0.21621 -9.39247e-20)
(0.185782 -0.226015 -3.38846e-19)
(0.233057 -0.224932 2.2834e-19)
(0.278371 -0.217638 1.09828e-19)
(0.321343 -0.207356 1.88623e-19)
(0.36191 -0.196046 2.03574e-19)
(0.400152 -0.184741 1.2967e-19)
(0.436198 -0.173897 1.71233e-19)
(0.470186 -0.163671 -3.08621e-19)
(0.502244 -0.154084 3.43987e-20)
(0.532493 -0.145111 6.75546e-20)
(0.561046 -0.136715 3.48595e-19)
(0.588006 -0.128858 -1.90196e-19)
(0.613465 -0.121504 -4.78562e-20)
(0.637526 -0.114623 -1.10818e-19)
(0.660341 -0.108165 -7.24415e-20)
(0.681809 -0.102077 1.88959e-19)
(0.145906 -0.240323 2.38672e-21)
(0.194438 -0.251325 -3.8033e-20)
(0.241593 -0.250203 1.48181e-19)
(0.28656 -0.242148 -3.20044e-19)
(0.329083 -0.230748 -1.82476e-20)
(0.36917 -0.218189 -2.85882e-19)
(0.406939 -0.205625 1.6212e-19)
(0.442536 -0.19357 -2.60387e-19)
(0.476103 -0.182198 2.51293e-19)
(0.507769 -0.171536 2.23666e-19)
(0.537654 -0.161556 -1.83288e-19)
(0.565868 -0.152218 -6.35613e-19)
(0.592514 -0.143477 3.40266e-19)
(0.617678 -0.135296 -2.74119e-19)
(0.641466 -0.127641 -6.01148e-20)
(0.664042 -0.120451 2.23053e-19)
(0.685263 -0.113678 -1.82992e-19)
(0.155133 -0.263999 -1.42321e-19)
(0.203989 -0.276211 1.79157e-19)
(0.251017 -0.275078 -3.41884e-19)
(0.295605 -0.266295 6.31285e-20)
(0.337633 -0.253808 -6.97791e-21)
(0.377192 -0.240026 3.93195e-19)
(0.414439 -0.226228 -2.44727e-19)
(0.449541 -0.212981 -5.22e-20)
(0.482643 -0.200483 6.81915e-20)
(0.513877 -0.188764 -8.59609e-20)
(0.543359 -0.177794 3.33628e-19)
(0.5712 -0.167527 1.84737e-19)
(0.597497 -0.157917 -3.72695e-19)
(0.622336 -0.148922 2.02394e-19)
(0.645821 -0.140503 2.79235e-19)
(0.668135 -0.132592 -5.10892e-19)
(0.689085 -0.125143 1.75542e-21)
(0.165197 -0.287195 1.40639e-19)
(0.214415 -0.300632 1.94824e-19)
(0.261309 -0.29952 1.11417e-19)
(0.305489 -0.290043 4.54375e-19)
(0.34698 -0.276502 -5.74575e-20)
(0.385962 -0.261528 1.85919e-19)
(0.422641 -0.246521 -6.49175e-19)
(0.4572 -0.232107 3.70762e-19)
(0.489795 -0.218503 -2.28464e-19)
(0.520556 -0.205746 6.7139e-20)
(0.5496 -0.193803 -3.61422e-19)
(0.577032 -0.182625 -2.87414e-20)
(0.602949 -0.17216 2.9286e-19)
(0.627432 -0.162364 4.92772e-20)
(0.650587 -0.153194 -1.41887e-20)
(0.672613 -0.144572 2.40501e-20)
(0.693267 -0.13646 -3.27462e-19)
(0.176073 -0.309868 -1.96672e-19)
(0.225693 -0.324546 1.63607e-20)
(0.272451 -0.323488 1.75941e-19)
(0.316193 -0.313357 -3.95594e-19)
(0.357106 -0.298798 4.18532e-20)
(0.395465 -0.282664 -4.65621e-19)
(0.431528 -0.266476 5.1523e-19)
(0.465502 -0.25092 -1.35176e-19)
(0.497548 -0.236235 -1.53514e-19)
(0.527797 -0.22246 4.42307e-21)
(0.556365 -0.209563 1.81045e-21)
(0.583354 -0.197491 2.73393e-19)
(0.608861 -0.186188 -3.97938e-20)
(0.632958 -0.175607 -3.48409e-19)
(0.655755 -0.1657 -4.32916e-19)
(0.677469 -0.156378 5.04836e-19)
(0.697805 -0.147613 3.18577e-19)
(0.187735 -0.331977 2.28325e-19)
(0.237798 -0.347914 -3.52913e-19)
(0.284418 -0.346947 -3.34855e-19)
(0.327697 -0.336203 1.33663e-19)
(0.367992 -0.320666 -5.60143e-19)
(0.405685 -0.303406 5.62498e-19)
(0.441088 -0.286069 -2.4552e-19)
(0.474432 -0.269398 -2.4791e-19)
(0.505888 -0.253655 2.18602e-20)
(0.535588 -0.238886 -8.01448e-22)
(0.563644 -0.225056 -3.12671e-20)
(0.590158 -0.212109 2.10691e-19)
(0.615222 -0.199985 -2.00739e-19)
(0.638906 -0.188635 1.03499e-19)
(0.661318 -0.178006 2.24856e-19)
(0.682697 -0.167997 -2.82462e-19)
(0.702691 -0.158591 -5.80066e-20)
(0.200155 -0.353484 -3.24306e-20)
(0.250702 -0.370696 2.49681e-19)
(0.297188 -0.369859 2.24061e-19)
(0.339979 -0.358547 -3.53172e-19)
(0.37962 -0.342074 1.89481e-19)
(0.416604 -0.323726 -1.46135e-19)
(0.451303 -0.305272 -1.04582e-20)
(0.483975 -0.287515 3.71874e-20)
(0.514801 -0.270741 -8.9058e-20)
(0.543915 -0.255002 1.76751e-19)
(0.571425 -0.240262 -9.58706e-20)
(0.597432 -0.22646 -2.86414e-19)
(0.622024 -0.213535 4.0856e-19)
(0.645267 -0.201432 2.5417e-19)
(0.667267 -0.190097 -3.26425e-19)
(0.688288 -0.179414 1.89537e-19)
(0.70792 -0.169382 2.7767e-19)
(0.264379 -0.392855 4.85037e-20)
(0.310733 -0.39219 1.7897e-19)
(0.353017 -0.380357 3.52955e-19)
(0.391969 -0.362992 2.6604e-19)
(0.428203 -0.343596 5.14398e-19)