/*--------------------------------*- C++ -*----------------------------------*\
  =========                 |
  \\      /  F ield         | OpenFOAM: The Open Source CFD Toolbox
   \\    /   O peration     | Website:  https://openfoam.org
    \\  /    A nd           | Version:  7
     \\/     M anipulation  |
\*---------------------------------------------------------------------------*/
FoamFile
{
    version     2.0;
    format      ascii;
    class       volVectorField;
    location    "100";
    object      U;
}
// * * * * * * * * * * * * * * * * * * * * * * * * * * * * * * * * * * * * * //

dimensions      [0 1 -1 0 0 0 0];

internalField   nonuniform List<vector> 
34000
(
(0.000138094 -0.0293147 -1.31522e-21)
(-0.000434467 -0.0793763 -7.05576e-21)
(-0.00253401 -0.12237 8.67675e-22)
(-0.00595466 -0.158376 -1.50322e-21)
(-0.0106498 -0.187713 2.29178e-21)
(-0.0165045 -0.210939 -1.6894e-20)
(-0.0233403 -0.228815 2.89952e-21)
(-0.0309437 -0.242243 -1.14435e-20)
(-0.039084 -0.252181 -2.46944e-20)
(-0.0475333 -0.259565 2.11706e-20)
(-0.0560841 -0.265229 6.31494e-21)
(-0.0645627 -0.269857 -7.62044e-21)
(-0.072835 -0.273948 9.41391e-21)
(-0.0808079 -0.277817 1.29989e-20)
(-0.0884235 -0.281605 -8.26381e-21)
(-0.0956501 -0.285302 -1.12554e-20)
(-0.102473 -0.288775 -2.72839e-20)
(-0.108893 -0.29179 -2.14103e-21)
(-0.114868 -0.294029 -4.74821e-21)
(-0.120333 -0.295097 -9.53826e-21)
(0.000638817 -0.0288933 -6.37937e-21)
(0.000703655 -0.0781367 5.34907e-21)
(-0.0011995 -0.120341 -6.24809e-21)
(-0.00471662 -0.155604 -1.40624e-20)
(-0.00973367 -0.18427 1.15173e-20)
(-0.0160761 -0.206925 7.01475e-20)
(-0.0235134 -0.224349 -4.32558e-20)
(-0.0317911 -0.237453 7.43469e-21)
(-0.0406487 -0.247196 3.54583e-20)
(-0.0498391 -0.254503 -5.81473e-23)
(-0.059146 -0.260192 2.11296e-20)
(-0.068396 -0.264923 -2.81169e-20)
(-0.0774636 -0.269174 2.96641e-20)
(-0.0862704 -0.273239 -2.57741e-20)
(-0.094778 -0.277241 -1.00083e-20)
(-0.102977 -0.28116 5.12371e-20)
(-0.110876 -0.284858 -1.60301e-20)
(-0.118498 -0.288103 2.49812e-21)
(-0.125817 -0.290579 -3.10642e-20)
(-0.132788 -0.291883 -3.30925e-21)
(0.00111734 -0.0283458 -4.91514e-20)
(0.00178211 -0.0765926 6.40359e-21)
(4.83342e-05 -0.117891 9.83199e-21)
(-0.00358047 -0.152341 4.31301e-20)
(-0.00892154 -0.180304 -5.02492e-20)
(-0.0157404 -0.202383 -7.83807e-20)
(-0.0237546 -0.219369 7.14303e-20)
(-0.0326696 -0.232173 -1.95122e-20)
(-0.0421958 -0.241749 -9.97048e-21)
(-0.0520678 -0.249005 -4.99763e-20)
(-0.062061 -0.254739 1.35551e-20)
(-0.0720024 -0.259585 4.96652e-20)
(-0.0817745 -0.263998 -1.04212e-20)
(-0.091313 -0.268248 4.11451e-20)
(-0.100598 -0.272442 -3.40813e-20)
(-0.109643 -0.276552 -1.08166e-20)
(-0.118478 -0.280435 8.26793e-20)
(-0.12715 -0.283863 -5.21573e-21)
(-0.135643 -0.286529 1.31818e-19)
(-0.143931 -0.288024 -3.16487e-20)
(0.00156723 -0.0276745 8.01947e-20)
(0.0027872 -0.0747518 -3.57789e-20)
(0.00119373 -0.115033 -2.49935e-20)
(-0.00256091 -0.148605 -1.90665e-20)
(-0.00822513 -0.175838 3.53056e-20)
(-0.015505 -0.197341 -6.44808e-21)
(-0.0240671 -0.213904 -1.18893e-19)
(-0.0335781 -0.226435 -1.25469e-20)
(-0.0437204 -0.235873 -2.62661e-20)
(-0.054211 -0.243106 -3.92128e-21)
(-0.0648172 -0.248905 -4.63241e-20)
(-0.0753665 -0.25388 5.2375e-20)
(-0.0857486 -0.258457 -7.82586e-20)
(-0.0959122 -0.262885 -2.38325e-21)
(-0.105856 -0.267254 2.17428e-20)
(-0.115611 -0.271525 -1.68289e-19)
(-0.125234 -0.275555 -1.36582e-19)
(-0.134791 -0.27912 7.47532e-20)
(-0.144278 -0.281928 -1.01872e-19)
(-0.153676 -0.283567 3.42311e-21)
(0.0019823 -0.0268827 -1.07705e-20)
(0.00370581 -0.072624 1.40956e-19)
(0.00222175 -0.111782 6.59522e-20)
(-0.00167169 -0.144418 -4.32696e-21)
(-0.00765517 -0.170898 1.78827e-20)
(-0.0153768 -0.191826 2.9752e-21)
(-0.0244538 -0.207986 6.06825e-20)
(-0.0345155 -0.220271 7.17968e-20)
(-0.0452177 -0.229601 3.05092e-20)
(-0.0562607 -0.236838 1.08811e-19)
(-0.0674042 -0.242726 -1.25326e-19)
(-0.0784752 -0.247844 -2.67465e-20)
(-0.0893699 -0.252591 5.63701e-20)
(-0.100049 -0.257192 -9.78863e-20)
(-0.110526 -0.261721 4.50298e-20)
(-0.120853 -0.266127 1.05694e-19)
(-0.131106 -0.270269 2.654e-20)
(-0.141377 -0.27393 3.60144e-20)
(-0.151666 -0.276831 -5.84292e-20)
(-0.161956 -0.278568 7.55926e-21)
(0.00235666 -0.025975 -5.16564e-20)
(0.00452562 -0.0702216 3.26713e-20)
(0.00311859 -0.108158 -5.41978e-20)
(-0.000925302 -0.139805 1.55559e-20)
(-0.00722119 -0.165512 4.38132e-20)
(-0.0153615 -0.18587 2.02539e-20)
(-0.0249164 -0.201647 3.77249e-20)
(-0.0354799 -0.213714 -2.67781e-20)
(-0.0466829 -0.222966 -1.64758e-19)
(-0.0582098 -0.230236 -1.47482e-19)
(-0.0698124 -0.236236 -9.58835e-20)
(-0.0813172 -0.241514 3.66721e-20)
(-0.0926251 -0.24644 -2.10834e-20)
(-0.103707 -0.251214 1.61006e-19)
(-0.11459 -0.255891 -5.83198e-20)
(-0.125345 -0.260412 4.7514e-20)
(-0.136067 -0.264633 7.03018e-20)
(-0.146872 -0.268349 -4.03932e-20)
(-0.157762 -0.271299 3.45523e-19)
(-0.168719 -0.273088 -1.30943e-19)
(0.00268482 -0.0249569 6.24457e-20)
(0.00523532 -0.0675595 -7.89444e-20)
(0.00387174 -0.104182 -1.20667e-19)
(-0.000332791 -0.134791 -3.20947e-20)
(-0.00693126 -0.15971 1.40322e-20)
(-0.0154635 -0.179506 2.16716e-20)
(-0.0254557 -0.19492 7.26055e-20)
(-0.0364691 -0.206798 1.59457e-20)
(-0.048111 -0.216002 5.91134e-21)
(-0.0600509 -0.223334 2.64609e-19)
(-0.072033 -0.229471 1.99535e-19)
(-0.0838821 -0.234928 -1.19517e-19)
(-0.0955027 -0.240044 -1.77425e-20)
(-0.106873 -0.244994 -4.82477e-20)
(-0.118034 -0.249815 4.76828e-20)
(-0.12907 -0.254434 -2.52761e-19)
(-0.140096 -0.258708 -5.26658e-20)
(-0.15125 -0.262443 -8.05354e-20)
(-0.162537 -0.265397 -1.95807e-19)
(-0.173927 -0.267191 1.08611e-19)
(0.00296177 -0.0238353 1.01937e-20)
(0.00582472 -0.0646544 -3.79439e-20)
(0.00447024 -0.0998791 1.0866e-19)
(9.65139e-05 -0.129407 -6.68699e-20)
(-0.00679174 -0.153524 -3.72585e-20)
(-0.0156858 -0.172766 5.93415e-20)
(-0.0260715 -0.18784 -1.01581e-19)
(-0.0374796 -0.199557 -1.41782e-20)
(-0.049496 -0.208744 1.93361e-19)
(-0.0617763 -0.216166 -1.24067e-19)
(-0.0740571 -0.222465 -5.13039e-20)
(-0.0861603 -0.228121 6.11949e-20)
(-0.0979925 -0.233442 -1.61144e-20)
(-0.109538 -0.238577 -8.57119e-21)
(-0.120846 -0.24354 6.90465e-20)
(-0.132015 -0.248248 -1.828e-19)
(-0.143178 -0.252553 6.55277e-20)
(-0.154496 -0.256275 -4.89117e-20)
(-0.165972 -0.259193 -1.10514e-19)
(-0.177562 -0.260946 4.1173e-20)
(0.00318309 -0.0226178 -2.895e-20)
(0.00628501 -0.0615253 2.08679e-19)
(0.00490488 -0.0952749 -4.65211e-20)
(0.000355184 -0.123683 2.85739e-20)
(-0.00680715 -0.14699 2.07128e-19)
(-0.0160296 -0.165687 -1.40849e-19)
(-0.0267614 -0.180441 -6.91627e-20)
(-0.0385064 -0.192024 -1.20902e-19)
(-0.0508309 -0.201223 -1.32935e-19)
(-0.0633776 -0.208764 -8.77385e-20)
(-0.0758751 -0.215251 -1.19008e-19)
(-0.0881421 -0.221129 2.17977e-19)
(-0.100085 -0.226674 -2.46782e-20)
(-0.111691 -0.232006 -5.08079e-20)
(-0.123017 -0.237117 -2.67166e-19)
(-0.134172 -0.241909 1.51531e-19)
(-0.145304 -0.246231 3.87217e-20)
(-0.1566 -0.249913 9.45528e-20)
(-0.168057 -0.252756 6.39194e-20)
(-0.179614 -0.254424 -1.72199e-19)
(0.00334498 -0.0213129 -8.90625e-20)
(0.00660881 -0.0581931 1.20382e-19)
(0.00516837 -0.0903985 6.8293e-20)
(0.000437892 -0.117653 3.11279e-20)
(-0.00697986 -0.140141 2.56581e-20)
(-0.0164939 -0.158303 -9.36339e-20)
(-0.0275217 -0.172759 2.03867e-19)
(-0.039543 -0.184234 1.17396e-20)
(-0.0521071 -0.193473 1.89766e-19)
(-0.0648445 -0.20116 -1.10718e-19)
(-0.0774763 -0.20786 1.79972e-19)
(-0.0898165 -0.213984 -1.78206e-19)
(-0.101769 -0.219774 -1.61478e-19)
(-0.113323 -0.22532 1.38238e-19)
(-0.124539 -0.230592 4.91631e-19)
(-0.135533 -0.235472 -2.71339e-19)
(-0.146469 -0.239803 2.24362e-19)
(-0.157558 -0.243424 5.11596e-20)
(-0.16879 -0.246157 -1.93793e-19)
(-0.180084 -0.247695 1.64666e-19)
(0.00344436 -0.0199301 1.60852e-19)
(0.00679042 -0.0546804 -9.31804e-20)
(0.00525551 -0.0852806 3.10142e-20)
(0.000341581 -0.111353 1.19213e-19)
(-0.00730999 -0.133016 -1.10978e-19)
(-0.0170759 -0.150652 2.17559e-19)
(-0.0283463 -0.164828 -3.97597e-20)
(-0.0405808 -0.176219 5.17722e-21)
(-0.0533138 -0.185524 -2.6166e-19)
(-0.0661651 -0.193383 1.66463e-19)
(-0.078848 -0.200323 3.82371e-20)
(-0.0911708 -0.206717 -4.97999e-20)
(-0.103034 -0.212776 6.37928e-20)
(-0.114424 -0.218559 -2.53268e-19)
(-0.125402 -0.224009 -1.42231e-19)
(-0.136091 -0.228988 2.99e-19)
(-0.146667 -0.233328 -1.67179e-19)
(-0.157366 -0.236872 -2.38652e-19)
(-0.168172 -0.239465 4.43049e-19)
(-0.17898 -0.240829 -2.25212e-21)
(0.00347895 -0.0184797 1.33485e-19)
(0.00682587 -0.051011 -1.69629e-19)
(0.00516333 -0.0799536 -1.78302e-19)
(6.56232e-05 -0.104819 -8.55139e-20)
(-0.00779521 -0.125652 -1.24073e-19)
(-0.0177699 -0.142772 -7.06093e-20)
(-0.0292267 -0.156685 -2.9865e-19)
(-0.0416088 -0.168014 3.7059e-20)
(-0.054438 -0.177407 -1.27823e-19)
(-0.0673247 -0.185463 4.49887e-19)
(-0.0799746 -0.192667 -2.62673e-19)
(-0.0921893 -0.199356 1.62629e-19)
(-0.103863 -0.20571 -5.00481e-20)
(-0.114979 -0.211756 2.74816e-19)
(-0.125595 -0.21741 2.23984e-20)
(-0.135838 -0.222507 -2.36316e-19)
(-0.145892 -0.226862 -4.1673e-20)
(-0.15602 -0.230323 1.15243e-20)
(-0.166204 -0.232746 -2.03789e-20)
(-0.176307 -0.233891 2.9484e-19)
(0.00344727 -0.0169724 -1.66557e-19)
(0.00671305 -0.0472105 -1.60684e-19)
(0.00489124 -0.0744512 6.73481e-20)
(-0.000388063 -0.0980883 1.68861e-19)
(-0.00843058 -0.118089 -1.19955e-20)
(-0.0185679 -0.1347 -1.17164e-19)
(-0.030152 -0.148365 2.62482e-19)
(-0.0426133 -0.15965 -2.94475e-20)
(-0.0554637 -0.169152 3.21474e-19)
(-0.0683055 -0.177426 -3.59638e-19)
(-0.0808369 -0.184916 9.54265e-20)
(-0.0928522 -0.191926 1.12978e-19)
(-0.104238 -0.198602 -3.56278e-21)
(-0.11497 -0.204942 -1.86569e-21)
(-0.125101 -0.210828 -2.16514e-19)
(-0.134758 -0.21607 3.01214e-20)
(-0.144133 -0.220458 2.89704e-19)
(-0.153514 -0.223833 3.70715e-19)
(-0.162881 -0.226064 -4.39348e-19)
(-0.172069 -0.226941 -2.86065e-19)
(0.00334875 -0.0154197 6.90331e-20)
(0.00645179 -0.0433053 1.07794e-19)
(0.00444107 -0.0688086 1.30731e-19)
(-0.00101492 -0.0912012 -2.22811e-19)
(-0.00920854 -0.110366 2.34863e-19)
(-0.0194594 -0.126475 2.24766e-19)
(-0.0311085 -0.139904 -8.85055e-20)
(-0.0435777 -0.15116 3.87076e-19)
(-0.0563717 -0.160788 -3.94021e-19)
(-0.069086 -0.169296 1.75087e-19)
(-0.0814117 -0.177093 1.79279e-19)
(-0.093135 -0.184447 -1.42795e-20)
(-0.104134 -0.191473 1.99141e-21)
(-0.114372 -0.198139 2.38888e-20)
(-0.123898 -0.204295 -1.6817e-19)
(-0.13283 -0.209715 1.66415e-19)
(-0.141369 -0.21416 -8.61922e-20)
(-0.149828 -0.217458 -1.92545e-19)
(-0.158191 -0.219476 2.46647e-19)
(-0.166254 -0.220035 5.16436e-20)
(0.00318372 -0.0138336 -4.00538e-20)
(0.00604394 -0.0393229 5.03293e-20)
(0.00381717 -0.0630619 -1.09371e-19)
(-0.00180771 -0.0841973 -1.63487e-19)
(-0.0101188 -0.102524 -1.69592e-19)
(-0.0204307 -0.118136 -1.53546e-19)
(-0.0320796 -0.131338 2.50341e-19)
(-0.0444824 -0.142575 -1.28301e-19)
(-0.0571393 -0.15234 1.02535e-19)
(-0.0696406 -0.161097 1.08416e-20)
(-0.0816706 -0.169217 -2.79213e-20)
(-0.0930073 -0.176936 6.97166e-20)
(-0.103517 -0.184339 -1.37101e-19)
(-0.113154 -0.191365 7.24232e-20)
(-0.121951 -0.19783 2.3157e-19)
(-0.130023 -0.203471 -3.37299e-19)
(-0.13757 -0.208007 -2.14902e-19)
(-0.144935 -0.211242 2.80921e-19)
(-0.152104 -0.213033 -1.6508e-19)
(-0.158837 -0.213217 -2.50919e-19)
(0.00295345 -0.0122263 1.45575e-19)
(0.00549336 -0.0352913 -1.50533e-19)
(0.0030264 -0.0572479 1.22882e-19)
(-0.00275648 -0.0771172 1.97802e-19)
(-0.0111482 -0.0946041 -3.6456e-20)
(-0.0214659 -0.109721 -1.30832e-19)
(-0.0330458 -0.122701 -2.46458e-19)
(-0.0453046 -0.133926 -1.88083e-19)
(-0.0577403 -0.143837 -3.79133e-19)
(-0.0699394 -0.152852 3.81998e-20)
(-0.0815804 -0.161307 -3.37356e-20)
(-0.0924323 -0.169408 -2.71639e-19)
(-0.10235 -0.177213 2.34779e-19)
(-0.111272 -0.184632 2.88559e-19)
(-0.11922 -0.191449 -1.43253e-20)
(-0.126293 -0.197356 1.7614e-19)
(-0.132694 -0.202028 -8.88942e-20)
(-0.138789 -0.205225 1.35615e-20)
(-0.144578 -0.206779 2.43241e-19)
(-0.149769 -0.206527 5.86182e-19)
(0.00266017 -0.0106103 -6.37534e-20)
(0.00480596 -0.0312392 -4.46688e-20)
(0.00207814 -0.0514039 1.26117e-19)
(-0.00384864 -0.0700022 -1.76533e-19)
(-0.0122811 -0.0866477 -4.60379e-20)
(-0.0225458 -0.10127 2.7541e-19)
(-0.033985 -0.11403 -6.5055e-20)
(-0.0460184 -0.125245 -1.89227e-19)
(-0.0581446 -0.135304 3.08733e-19)
(-0.0699481 -0.144581 -8.33721e-20)
(-0.081102 -0.153378 6.09395e-20)
(-0.0913664 -0.161872 3.29938e-19)
(-0.100584 -0.1701 -4.58904e-19)
(-0.108677 -0.177944 -1.25665e-19)
(-0.115649 -0.185155 -2.45519e-19)
(-0.121585 -0.191381 4.97143e-19)
(-0.126681 -0.196238 1.55866e-20)
(-0.13133 -0.199434 2.68421e-19)
(-0.135545 -0.200748 -1.00102e-19)
(-0.138976 -0.199993 -5.49761e-19)
(0.00230702 -0.00899842 -1.46717e-19)
(0.00398967 -0.0271954 2.12888e-19)
(0.000984191 -0.0455677 3.05471e-21)
(-0.00506905 -0.0628937 -1.99339e-21)
(-0.0134992 -0.0786967 2.24801e-19)
(-0.0236492 -0.0928238 1.62528e-19)
(-0.0348721 -0.105361 -5.98163e-21)
(-0.0465948 -0.116564 4.89278e-19)
(-0.0583188 -0.126768 1.87962e-19)
(-0.0696279 -0.136305 -3.46393e-19)
(-0.0801909 -0.145443 1.65472e-20)
(-0.089759 -0.154338 -1.23886e-20)
(-0.0981615 -0.163002 4.84364e-19)
(-0.105304 -0.171298 -5.41146e-19)
(-0.111169 -0.178944 1.49316e-19)
(-0.115825 -0.185543 4.30425e-21)
(-0.119454 -0.190646 -3.75981e-19)
(-0.122476 -0.193885 -3.86243e-19)
(-0.124921 -0.194966 -4.77414e-20)
(-0.126358 -0.193638 5.50917e-19)
(0.00189809 -0.00740313 4.74172e-20)
(0.00305434 -0.0231885 -1.51209e-19)
(-0.000241288 -0.0397768 1.46993e-19)
(-0.00640011 -0.0558333 -2.2032e-19)
(-0.014782 -0.0707929 2.74245e-19)
(-0.0247521 -0.084421 -4.6151e-19)
(-0.0356799 -0.0967307 -1.1412e-19)
(-0.0470022 -0.107914 -2.55861e-19)
(-0.0582261 -0.118254 -1.20917e-19)
(-0.0689361 -0.128043 2.15829e-19)
(-0.0787972 -0.137518 4.40646e-19)
(-0.0875524 -0.146811 -4.94094e-19)
(-0.0950175 -0.15592 -1.84487e-19)
(-0.10108 -0.164687 6.68651e-19)
(-0.105701 -0.172805 -2.40867e-19)
(-0.108925 -0.17983 -3.45236e-19)
(-0.11092 -0.185241 4.33828e-19)
(-0.112125 -0.188583 9.08678e-20)
(-0.112594 -0.18945 8.40139e-20)
(-0.111785 -0.187476 -3.51746e-19)
(0.00143834 -0.00583691 1.85308e-20)
(0.00201169 -0.0192471 -7.86085e-20)
(-0.00158198 -0.0340685 2.56807e-19)
(-0.00782204 -0.0488623 -3.33292e-19)
(-0.0161064 -0.0629783 -2.77004e-19)
(-0.0258287 -0.0761024 1.75683e-19)
(-0.0363788 -0.0881757 4.88022e-19)
(-0.0472067 -0.0993286 -3.08796e-19)
(-0.057827 -0.109792 7.47556e-20)
(-0.0678263 -0.119818 -1.49074e-19)
(-0.0768667 -0.129615 -6.0228e-19)
(-0.0846831 -0.139297 3.6489e-19)
(-0.0910782 -0.148848 2.93757e-19)
(-0.0959204 -0.158097 -5.19828e-19)
(-0.099149 -0.166715 1.21916e-19)
(-0.100782 -0.174216 4.80366e-19)
(-0.100966 -0.180003 1.85702e-19)
(-0.100156 -0.183514 6.4981e-20)
(-0.0984358 -0.184202 -3.74988e-19)
(-0.095104 -0.181513 -1.81616e-19)
(0.00093353 -0.00431189 -1.27517e-19)
(0.0008751 -0.0153988 -2.35718e-19)
(-0.00301957 -0.0284794 -1.36859e-19)
(-0.00931305 -0.0420216 1.81433e-19)
(-0.017448 -0.0552947 -1.07409e-20)
(-0.0268514 -0.0679085 4.08325e-19)
(-0.0369374 -0.0797338 -3.88134e-20)
(-0.0471724 -0.0908402 4.59551e-20)
(-0.0570798 -0.101408 2.95069e-19)
(-0.0662495 -0.111651 3.74286e-19)
(-0.0743413 -0.12175 -1.73569e-20)
(-0.0810825 -0.131803 -8.29232e-20)
(-0.0862631 -0.141783 -4.85034e-19)
(-0.089733 -0.151513 3.62501e-19)
(-0.091408 -0.160648 -3.24819e-20)
(-0.0912788 -0.168666 -2.14741e-19)
(-0.0894637 -0.174895 -1.06035e-18)
(-0.0864301 -0.178653 3.69711e-19)
(-0.0822999 -0.179215 1.90543e-20)
(-0.0761412 -0.175749 -2.22986e-19)
(0.000390175 -0.00283968 1.17509e-19)
(-0.000340488 -0.0116703 3.07667e-19)
(-0.00453403 -0.0230452 -2.35147e-19)
(-0.0108497 -0.0353512 -1.142e-19)
(-0.0187804 -0.0477837 9.5795e-20)
(-0.027791 -0.0598798 -2.32052e-19)
(-0.0373235 -0.0714433 -4.32028e-19)
(-0.0468622 -0.0824843 2.56368e-19)
(-0.0559414 -0.0931338 -2.95385e-20)
(-0.0641547 -0.103567 -5.91296e-19)
(-0.0711603 -0.113941 1.13517e-19)
(-0.0766784 -0.124336 6.39989e-20)
(-0.0804868 -0.134722 -1.10968e-19)
(-0.0824175 -0.144918 2.92641e-19)
(-0.082363 -0.154572 5.66529e-19)
(-0.0802861 -0.163135 -3.65199e-19)
(-0.0762724 -0.169865 2.94823e-19)
(-0.070795 -0.173954 7.12261e-20)
(-0.0640282 -0.174464 3.97882e-19)
(-0.0547101 -0.170179 1.75881e-19)
(-0.000184584 -0.00143124 -1.28644e-19)
(-0.00161885 -0.00808723 -1.49459e-20)
(-0.00610384 -0.0178002 3.33113e-19)
(-0.0124071 -0.0288903 3.31588e-19)
(-0.0200764 -0.040486 -6.80283e-20)
(-0.0286177 -0.0520571 -4.32176e-20)
(-0.0375036 -0.0633431 4.3473e-19)
(-0.0462385 -0.074297 -3.38491e-19)
(-0.054368 -0.0850013 1.03512e-19)
(-0.0614904 -0.0955948 4.29571e-19)
(-0.0672623 -0.106208 4.12239e-19)
(-0.0713972 -0.11691 1.60844e-19)
(-0.0736613 -0.127665 7.02034e-19)
(-0.0738699 -0.138298 -9.61988e-20)
(-0.0718937 -0.148456 -7.36234e-19)
(-0.0676677 -0.157575 3.59603e-19)
(-0.0612419 -0.164853 -1.89656e-19)
(-0.0530886 -0.169355 -4.35855e-19)
(-0.0434582 -0.16991 -3.03351e-19)
(-0.0306201 -0.164792 -3.01313e-19)
(-0.000783091 -9.67063e-05 8.22916e-20)
(-0.0029427 -0.00467339 1.73641e-19)
(-0.00770638 -0.0127769 -1.21241e-19)
(-0.0139594 -0.0226764 -1.51492e-19)
(-0.0213076 -0.0334418 -1.5771e-19)
(-0.029301 -0.0444808 -4.27413e-20)
(-0.0374445 -0.0554729 -4.48895e-19)
(-0.0452637 -0.0663159 2.3078e-19)
(-0.0523164 -0.0770454 -2.13214e-19)
(-0.0582056 -0.0877635 -3.61027e-19)
(-0.0625864 -0.098576 1.28837e-20)
(-0.0651658 -0.109539 -9.16759e-19)
(-0.0656991 -0.120618 -7.09737e-19)
(-0.0639865 -0.131643 2.24032e-19)
(-0.0598783 -0.14227 1.12029e-19)
(-0.053285 -0.151933 -2.39398e-19)
(-0.0442192 -0.159786 9.149e-19)
(-0.0331467 -0.164775 -1.40782e-19)
(-0.0204333 -0.165495 3.76208e-19)
(-0.00368811 -0.159565 3.30128e-19)
(-0.00139731 0.00115479 -1.13111e-19)
(-0.00429396 -0.00145071 -3.77487e-19)
(-0.00931818 -0.00800589 1.20469e-19)
(-0.0154801 -0.0167456 6.65409e-21)
(-0.0224457 -0.0266898 5.15974e-19)
(-0.0298104 -0.0371909 -3.0899e-19)
(-0.0371129 -0.0478726 1.69753e-19)
(-0.0439008 -0.05858 2.43482e-19)
(-0.0497443 -0.0693031 -1.90975e-20)
(-0.0542509 -0.0801079 1.50784e-19)
(-0.057074 -0.0910753 4.59964e-19)
(-0.0579141 -0.102249 9.61117e-19)
(-0.0565163 -0.113594 7.70192e-20)
(-0.0526671 -0.124951 -4.23481e-19)
(-0.0461995 -0.135993 7.70091e-20)
(-0.0370032 -0.146162 7.38309e-19)
(-0.025055 -0.154589 -4.94075e-19)
(-0.0108099 -0.160121 9.14249e-22)
(0.00518442 -0.16113 3.62972e-19)
(0.0262259 -0.154415 -2.26291e-19)
(-0.00201898 0.00231525 -1.08565e-19)
(-0.00565409 0.00156115 4.46598e-19)
(-0.0109153 -0.00351518 -3.42138e-19)
(-0.0169424 -0.0111314 -7.03083e-20)
(-0.0234619 -0.0202674 -1.18988e-19)
(-0.0301156 -0.0302269 -3.10322e-19)
(-0.0364765 -0.0405823 3.09644e-19)
(-0.0421143 -0.0511293 -1.02229e-19)
(-0.0466116 -0.0618137 -1.83915e-19)
(-0.04958 -0.0726655 3.01751e-19)
(-0.0506706 -0.0837405 -3.49664e-19)
(-0.0495774 -0.0950694 -1.12347e-19)
(-0.0460357 -0.106615 -1.23812e-20)
(-0.0398199 -0.118232 2.97578e-19)
(-0.0307496 -0.129613 -2.67874e-19)
(-0.0186982 -0.140225 -4.99102e-19)
(-0.0036106 -0.149194 -1.50317e-19)
(0.0140778 -0.155293 -2.13533e-19)
(0.0335417 -0.156712 -6.38869e-19)
(0.0591591 -0.149118 -1.84444e-19)
(-0.00263978 0.00337794 1.54181e-19)
(-0.00700438 0.00434503 -1.9619e-19)
(-0.0124738 0.000670035 -2.47078e-19)
(-0.0183195 -0.00586504 -2.34284e-19)
(-0.024328 -0.0142098 7.80307e-20)
(-0.030187 -0.0236265 4.36278e-20)
(-0.035504 -0.0336418 1.10663e-19)
(-0.0398705 -0.0440047 -2.88585e-19)
(-0.0428808 -0.0546183 2.24017e-19)
(-0.0441501 -0.0654773 -6.72672e-19)
(-0.0433268 -0.0766111 -3.37704e-19)
(-0.0400978 -0.088036 6.21093e-21)
(-0.0341891 -0.0997127 2.99627e-19)
(-0.0253655 -0.111506 -1.95383e-19)
(-0.013436 -0.123135 4.94958e-19)
(0.00173534 -0.1341 -1.19999e-19)
(0.0202293 -0.143544 1.5427e-19)
(0.0416531 -0.150212 5.69575e-19)
(0.0648875 -0.152193 7.37857e-20)
(0.0951691 -0.143525 3.50214e-19)
(-0.00325149 0.00433753 -3.26197e-19)
(-0.00832626 0.00688661 2.6443e-19)
(-0.0139699 0.00452771 2.97954e-19)
(-0.019585 -0.000974699 -1.74014e-19)
(-0.0250162 -0.00854997 2.98424e-19)
(-0.029996 -0.0174264 2.88903e-19)
(-0.0341655 -0.0270899 -5.22057e-20)
(-0.0371375 -0.0372467 -9.97719e-20)
(-0.0385172 -0.0477591 -2.72111e-19)
(-0.0379228 -0.0585862 1.26977e-19)
(-0.0349991 -0.0697308 1.22448e-20)
(-0.0294258 -0.0811921 -3.35127e-19)
(-0.0209202 -0.0929262 2.50077e-19)
(-0.00923923 -0.104807 -1.95414e-19)
(0.00581392 -0.116579 -3.51398e-19)
(0.0243773 -0.127783 -4.55113e-19)
(0.0465413 -0.137606 1.10247e-19)
(0.0719472 -0.144807 1.51726e-19)
(0.0993393 -0.147412 -1.39144e-19)
(0.134546 -0.137812 5.74787e-19)
(-0.00384614 0.00519013 -2.58318e-19)
(-0.00960161 0.0091745 -2.43563e-19)
(-0.0153803 0.00803928 1.93406e-19)
(-0.0207131 0.00351484 1.12694e-19)
(-0.0254995 -0.00331773 4.63379e-20)
(-0.0295148 -0.0116604 -8.5058e-20)
(-0.0324325 -0.0209641 -5.99288e-20)
(-0.0338855 -0.0308956 1.38029e-19)
(-0.0334894 -0.0412784 -1.30797e-19)
(-0.030864 -0.0520368 1.05164e-18)
(-0.0256504 -0.0631456 7.69586e-20)
(-0.0175208 -0.0745852 -1.18196e-19)
(-0.00618473 -0.0863034 -7.764e-19)
(0.0086065 -0.0981793 1.48372e-19)
(0.0270506 -0.10998 -3.80792e-19)
(0.0492797 -0.121292 2.48942e-19)
(0.0753808 -0.131361 2.25684e-19)
(0.105007 -0.138998 -8.39146e-19)
(0.136739 -0.142211 -2.53952e-19)
(0.177356 -0.132025 -8.57936e-19)
(-0.0044162 0.00593339 1.2482e-19)
(-0.0108131 0.0112005 2.52517e-19)
(-0.0166827 0.01119 -4.56373e-19)
(-0.0216789 0.00758252 -3.50743e-19)
(-0.0257519 0.00146032 1.7903e-19)
(-0.0287168 -0.00635975 1.68625e-19)
(-0.0302778 -0.0152994 -3.51081e-19)
(-0.0300867 -0.0249897 -3.18039e-20)
(-0.0277682 -0.0352176 1.88079e-20)
(-0.0229436 -0.0458734 -3.16647e-19)
(-0.0152494 -0.0569029 4.62737e-19)
(-0.00435062 -0.0682653 2.17825e-21)
(0.0100497 -0.0798967 5.84301e-19)
(0.0282027 -0.0916767 3.95307e-19)
(0.0503016 -0.10339 6.65724e-20)
(0.0764629 -0.114666 8.1834e-19)
(0.106756 -0.124823 -7.33102e-19)
(0.140848 -0.132754 3.35339e-19)
(0.177023 -0.136563 2.55203e-19)
(0.223355 -0.125911 2.13598e-19)
(-0.00495471 0.00656648 6.03522e-19)
(-0.0119443 0.0129596 -4.27575e-19)
(-0.0178558 0.0139688 1.03998e-19)
(-0.0224584 0.0112114 3.40876e-19)
(-0.025748 0.00576152 -3.68543e-19)
(-0.0275762 -0.00155223 1.80576e-20)
(-0.0276753 -0.0101278 2.82955e-19)
(-0.0257146 -0.0195649 5.22523e-19)
(-0.021327 -0.029616 7.10862e-19)
(-0.0141345 -0.0401384 -6.82342e-19)
(-0.00376932 -0.0510486 -4.06731e-19)
(0.01011 -0.0622823 1.93203e-19)
(0.027805 -0.0737601 -5.55758e-19)
(0.0495655 -0.0853567 3.84158e-20)
(0.0755736 -0.0968681 2.16088e-19)
(0.105919 -0.10796 1.65799e-19)
(0.140635 -0.118028 4.93412e-19)
(0.179405 -0.126064 9.91537e-20)
(0.220114 -0.130448 -3.57584e-19)
(0.272296 -0.119304 3.71947e-19)
(-0.0054554 0.00709005 -5.72799e-19)
(-0.0129801 0.0144501 4.26338e-19)
(-0.0188794 0.0163691 1.03758e-19)
(-0.0230287 0.0143888 -3.38346e-19)
(-0.0254634 0.00956757 1.43628e-19)
(-0.0260676 0.00273868 -6.9602e-20)
(-0.0245992 -0.0054775 -5.20248e-20)
(-0.0207432 -0.0146531 -4.41289e-19)
(-0.0141399 -0.0245092 -6.99049e-19)
(-0.00441155 -0.034871 6.56062e-19)
(0.00881339 -0.0456253 -2.36516e-19)
(0.0258813 -0.0566827 7.35776e-21)
(0.0470954 -0.0679447 1.34429e-19)
(0.0726993 -0.0792759 2.84277e-19)
(0.102856 -0.0904752 -3.42809e-20)
(0.137616 -0.101238 -7.92146e-20)
(0.176957 -0.111031 -3.98716e-19)
(0.220567 -0.11895 -2.62801e-19)
(0.265865 -0.123828 -2.44572e-19)
(0.323897 -0.112093 3.77378e-19)
(-0.00591278 0.0075062 4.6075e-19)
(-0.0139067 0.0156733 -1.20345e-19)
(-0.0197348 0.0183882 4.11534e-19)
(-0.023368 0.0171069 1.00115e-19)
(-0.0248743 0.0128649 -2.21483e-19)
(-0.0241661 0.00649423 3.6052e-20)
(-0.0210238 -0.00137175 -4.76561e-19)
(-0.0151465 -0.0102817 2.17653e-19)
(-0.00618079 -0.0199278 1.18876e-19)
(0.0062504 -0.0301047 -4.35624e-20)
(0.0225215 -0.0406697 -4.98843e-20)
(0.0429814 -0.0515068 5.95484e-20)
(0.0679312 -0.0624955 -2.69187e-19)
(0.0976013 -0.0734849 -6.23713e-19)
(0.132127 -0.0842694 3.15518e-19)
(0.171504 -0.0945631 -1.53195e-19)
(0.215632 -0.103895 -3.5036e-20)
(0.264184 -0.111452 6.36117e-19)
(0.314086 -0.11668 6.45132e-19)
(0.377796 -0.104183 -9.63673e-19)
(-0.00632224 0.00781834 -1.17156e-19)
(-0.0147119 0.0166336 -1.30033e-19)
(-0.0204048 0.0200274 -2.57913e-19)
(-0.0234552 0.0193623 1.89803e-19)
(-0.0239572 0.0156451 3.45528e-19)
(-0.0218463 0.00970104 -4.49521e-19)
(-0.0169225 0.00217174 7.20847e-19)
(-0.00889704 -0.00647188 -1.41566e-19)
(0.00257781 -0.0158958 2.10934e-20)
(0.0178781 -0.0258659 -4.95002e-19)
(0.0373793 -0.0362104 -3.79068e-20)
(0.0614294 -0.0467856 -4.08697e-19)
(0.0903217 -0.0574465 5.47962e-19)
(0.124266 -0.0680227 3.59326e-19)
(0.163357 -0.0782967 -6.9838e-19)
(0.207521 -0.087991 -5.88737e-19)
(0.256556 -0.0966805 1.3414e-19)
(0.310078 -0.103625 7.63553e-19)
(0.36456 -0.108997 3.42605e-19)
(0.43355 -0.0954912 1.77024e-19)
(-0.00668002 0.00803104 3.71916e-20)
(-0.0153848 0.0173384 1.26035e-19)
(-0.0208731 0.0212923 1.52476e-19)
(-0.0232701 0.0211565 -1.27601e-19)
(-0.0226884 0.0179051 3.21341e-19)
(-0.019082 0.0123516 4.3226e-19)
(-0.012267 0.00514162 6.94546e-21)
(-0.00196495 -0.00323793 -5.63682e-19)
(0.0121666 -0.0124297 -4.52362e-19)
(0.0305018 -0.0221724 4.74828e-19)
(0.0534145 -0.0322657 -6.38393e-19)
(0.0812475 -0.0425381 -7.17634e-19)
(0.114279 -0.0528184 -7.19067e-20)
(0.152688 -0.0629129 -3.83282e-20)
(0.196515 -0.0725867 2.45699e-19)
(0.2456 -0.0815607 1.59577e-19)
(0.299615 -0.0894379 2.03657e-19)
(0.358051 -0.0955294 -9.44531e-19)
(0.417063 -0.100777 -2.50782e-19)
(0.490641 -0.0859603 6.49642e-19)
(-0.00698326 0.0081499 -2.19219e-19)
(-0.0159161 0.0177974 2.15597e-19)
(-0.0211251 0.0221919 -1.59182e-19)
(-0.0227929 0.0224959 -7.92954e-20)
(-0.0210441 0.0196474 -2.16684e-19)
(-0.0158457 0.0144447 -1.64762e-19)
(-0.00702653 0.00753359 -2.96762e-19)
(0.00568318 -0.000586322 4.92256e-19)
(0.0226207 -0.00953695 1.9661e-19)
(0.0441569 -0.0190315 -4.84635e-19)
(0.0706607 -0.0288423 7.60665e-19)
(0.102463 -0.0387697 3.90388e-19)
(0.13982 -0.0486154 -2.95126e-19)
(0.182867 -0.0581606 -4.11235e-19)
(0.231572 -0.0671484 -5.17399e-20)
(0.285667 -0.0752904 4.1745e-19)
(0.344683 -0.0821956 -2.71511e-19)
(0.407889 -0.0872212 1.04317e-19)
(0.471372 -0.0920213 2.25956e-19)
(0.548496 -0.0755765 5.50261e-19)
(-0.00722991 0.00818129 -2.22739e-20)
(-0.0162979 0.0180226 -5.32792e-19)
(-0.0211467 0.0227389 1.30154e-19)
(-0.0220042 0.0233913 2.90211e-19)
(-0.0189993 0.0208802 -5.29142e-20)
(-0.0121073 0.0159857 -3.53812e-19)
(-0.00116676 0.0093509 3.92157e-19)
(0.0140853 0.00148516 4.51127e-19)
(0.033981 -0.00721508 1.73007e-19)
(0.0588853 -0.0164394 8.62375e-19)
(0.089158 -0.0259337 -4.02043e-19)
(0.125112 -0.0354707 1.92522e-19)
(0.166967 -0.044825 -1.98863e-19)
(0.214801 -0.0537516 4.75933e-19)
(0.268496 -0.0619697 -4.17413e-20)
(0.327648 -0.0691755 -1.07271e-19)
(0.391626 -0.0749585 -1.68821e-19)
(0.459356 -0.0787496 2.60654e-19)
(0.527237 -0.0826849 -6.43234e-19)
(0.60643 -0.0642998 -8.41658e-19)
(-0.00741867 0.00813217 -1.27641e-19)
(-0.0165232 0.0180277 -4.76072e-20)
(-0.0209249 0.0229491 -4.31578e-19)
(-0.020884 0.0238582 2.6499e-19)
(-0.0165277 0.0216172 -2.71378e-19)
(-0.00783448 0.0169868 -2.76872e-19)
(0.00535057 0.0106048 -2.48483e-20)
(0.0232848 0.00298795 -4.54565e-19)
(0.0462945 -0.00545106 -7.24718e-19)
(0.0747361 -0.0143799 1.98855e-19)
(0.108954 -0.0235192 2.23283e-19)
(0.149233 -0.0326154 2.69202e-19)
(0.195745 -0.0414165 6.86429e-19)
(0.248494 -0.0496525 -6.74951e-20)
(0.30725 -0.0570188 -1.45888e-19)
(0.371454 -0.0631929 -1.92468e-20)
(0.440298 -0.0677168 3.60988e-19)
(0.512219 -0.0701585 6.26037e-19)
(0.584358 -0.0725838 -1.73004e-19)
(0.663452 -0.0518673 6.16961e-19)
(-0.00754883 0.00800986 4.01202e-19)
(-0.0165862 0.0178279 -6.53278e-20)
(-0.0204468 0.0228411 3.81504e-19)
(-0.0194121 0.0239159 -3.92184e-19)
(-0.013601 0.0218778 5.80569e-19)
(-0.0029914 0.0174671 4.87877e-19)
(0.0125684 0.0113147 -4.02362e-19)
(0.033331 0.00394312 -7.522e-19)
(0.0596155 -0.00422072 1.25089e-18)
(0.0917657 -0.0128242 3.09957e-19)
(0.130103 -0.0215642 -2.4181e-19)
(0.174872 -0.0301622 -2.38921e-19)
(0.226182 -0.0383422 -1.18617e-19)
(0.28394 -0.0458122 -1.85502e-19)
(0.347785 -0.0522476 -6.07804e-19)
(0.416979 -0.0573099 -1.62426e-19)
(0.49054 -0.0604737 1.33839e-20)
(0.566338 -0.061518 -4.28155e-19)
(0.642607 -0.0613943 2.10252e-19)
(0.718447 -0.0381529 -4.36503e-19)
(-0.00762013 0.0078218 -6.41284e-19)
(-0.0164815 0.0174394 4.31699e-19)
(-0.0196998 0.0224356 -6.44062e-19)
(-0.017567 0.0235877 -3.51917e-19)
(-0.0101891 0.0216864 1.31467e-19)
(0.00246129 0.0174522 -5.27047e-19)
(0.0205346 0.0115084 8.2946e-19)
(0.0442792 0.00438149 1.45232e-20)
(0.0740047 -0.0034886 -4.65363e-19)
(0.110037 -0.0117306 -4.07527e-19)
(0.152664 -0.0200193 -7.28718e-19)
(0.202078 -0.0280539 -8.68129e-21)
(0.258301 -0.0355378 2.69886e-20)
(0.321123 -0.0421631 -1.65681e-19)
(0.390022 -0.0475943 7.34231e-19)
(0.464069 -0.0514902 4.47006e-19)
(0.542118 -0.0532686 1.08351e-19)
(0.621607 -0.0529588 -4.64568e-19)
(0.702342 -0.0491287 -2.76681e-20)
(0.772466 -0.0255684 -7.1529e-19)
(-0.00763263 0.00757538 2.2783e-19)
(-0.0162042 0.0168788 -4.32019e-19)
(-0.0186705 0.0217552 5.56088e-19)
(-0.015326 0.0228999 7.83629e-19)
(-0.00625874 0.0210725 -2.55498e-19)
(0.00856683 0.0169744 3.38585e-20)
(0.029302 0.0112215 -6.98603e-19)
(0.0561905 0.0043435 -1.73875e-19)
(0.0895291 -0.00320809 -5.45353e-19)
(0.129618 -0.0110448 7.12944e-19)
(0.1767 -0.0188217 6.61882e-19)
(0.230894 -0.0262187 -1.17326e-19)
(0.292116 -0.032924 -8.80023e-20)
(0.360004 -0.0386224 -6.55286e-21)
(0.433848 -0.0429819 1.32041e-19)
(0.5125 -0.0456848 -2.34774e-19)
(0.594643 -0.0461405 -2.68765e-19)
(0.677518 -0.0446475 5.56099e-19)
(0.763086 -0.0370317 -1.70545e-19)
(0.831703 -0.0207357 2.64223e-20)
(-0.00758645 0.00727767 6.0198e-20)
(-0.0157489 0.016163 8.73833e-20)
(-0.0173452 0.0208238 -2.9111e-19)
(-0.0126648 0.0218818 -8.07594e-19)
(-0.00177437 0.0200697 1.31278e-19)
(0.0153723 0.0160721 3.99089e-19)
(0.0389283 0.0104976 1.82879e-19)
(0.0691312 0.00387894 7.87387e-19)
(0.10626 -0.00332189 -4.95687e-19)
(0.150579 -0.0107009 -6.46448e-19)