# Probe 0 (5.5 -0.05 0)
# Probe 1 (5.5 0.05 0)
#       Probe             0             1
#        Time
        0.005     -0.268425     -0.268425
         0.01      0.030115     0.0301149
        0.015   -0.00901769   -0.00901768
         0.02   -0.00516991    -0.0051699
        0.025    -0.0041557    -0.0041557
         0.03   -0.00335986   -0.00335986
        0.035   -0.00284943   -0.00284944
         0.04    -0.0025053    -0.0025053
        0.045   -0.00225884   -0.00225884
         0.05   -0.00207159   -0.00207158
        0.055   -0.00192503   -0.00192504
         0.06   -0.00180217   -0.00180217
        0.065   -0.00169795   -0.00169795
         0.07   -0.00160698   -0.00160699
        0.075   -0.00152668   -0.00152668
         0.08   -0.00145398   -0.00145398
        0.085   -0.00138829   -0.00138829
         0.09   -0.00132881   -0.00132881
        0.095   -0.00127392   -0.00127392
          0.1   -0.00122355   -0.00122355
        0.105   -0.00117679   -0.00117679
         0.11   -0.00113342   -0.00113342
        0.115   -0.00109298   -0.00109297
         0.12   -0.00105511   -0.00105511
        0.125   -0.00101957   -0.00101957
         0.13  -0.000986606  -0.000986608
        0.135  -0.000955345  -0.000955344
         0.14  -0.000925651  -0.000925652
        0.145  -0.000897672  -0.000897672
         0.15  -0.000871007  -0.000871006
        0.155  -0.000846093  -0.000846093
         0.16  -0.000822048  -0.000822048
        0.165  -0.000799364  -0.000799363
         0.17  -0.000777535  -0.000777534
        0.175  -0.000756704  -0.000756704
         0.18  -0.000736786  -0.000736786
        0.185  -0.000717492  -0.000717491
         0.19  -0.000699718  -0.000699718
        0.195  -0.000682109  -0.000682108
          0.2  -0.000665217  -0.000665217
        0.205  -0.000648825  -0.000648825
         0.21  -0.000633502  -0.000633502
        0.215  -0.000618392  -0.000618392
         0.22  -0.000603924  -0.000603923
        0.225  -0.000589883  -0.000589883
         0.23  -0.000576109  -0.000576108
        0.235  -0.000563396  -0.000563396
         0.24  -0.000550678  -0.000550678
        0.245  -0.000538446  -0.000538446
         0.25  -0.000526557  -0.000526557
        0.255  -0.000515019  -0.000515019
         0.26  -0.000503848  -0.000503848
        0.265  -0.000492922  -0.000492922
         0.27  -0.000482514  -0.000482514
        0.275  -0.000472285  -0.000472285
         0.28    -0.0004623  -0.000462301
        0.285  -0.000452617  -0.000452617
         0.29  -0.000443224  -0.000443225
        0.295  -0.000434027  -0.000434027
          0.3  -0.000425108  -0.000425108
        0.305  -0.000416381  -0.000416382
         0.31  -0.000407866  -0.000407866
        0.315  -0.000399547  -0.000399548
         0.32  -0.000391385  -0.000391385
        0.325  -0.000383561  -0.000383561
         0.33  -0.000375737  -0.000375738
        0.335  -0.000368202    -0.0003682
         0.34  -0.000360814  -0.000360813
        0.345  -0.000353577  -0.000353578
         0.35  -0.000346466  -0.000346464
        0.355  -0.000339547  -0.000339546
         0.36  -0.000332752  -0.000332753
        0.365  -0.000326077  -0.000326076
         0.37  -0.000319595  -0.000319593
        0.375  -0.000313226  -0.000313227
         0.38  -0.000307013  -0.000307012
        0.385  -0.000300839  -0.000300839
         0.39  -0.000294808  -0.000294809
        0.395  -0.000288894  -0.000288894
          0.4  -0.000283077  -0.000283077
        0.405  -0.000277361  -0.000277361
         0.41  -0.000271747  -0.000271748
        0.415  -0.000266236  -0.000266236
         0.42  -0.000260818  -0.000260818
        0.425  -0.000255457  -0.000255457
         0.43  -0.000250218  -0.000250219
        0.435  -0.000245028  -0.000245027
         0.44  -0.000239992  -0.000239991
        0.445   -0.00023499  -0.000234989
         0.45  -0.000230051  -0.000230051
        0.455  -0.000225206  -0.000225206
         0.46   -0.00022041   -0.00022041
        0.465  -0.000215713  -0.000215712
         0.47  -0.000211071  -0.000211071
        0.475  -0.000206477  -0.000206477
         0.48  -0.000201943  -0.000201943
        0.485    -0.0001975    -0.0001975
         0.49  -0.000193142  -0.000193142
        0.495  -0.000188814  -0.000188816
          0.5  -0.000184511  -0.000184509
        0.505  -0.000180282  -0.000180284
         0.51  -0.000176109  -0.000176107
        0.515   -0.00017197  -0.000171971
         0.52  -0.000167891   -0.00016789
        0.525  -0.000163866  -0.000163865
         0.53  -0.000159884  -0.000159884
        0.535  -0.000155957  -0.000155956
         0.54  -0.000151996  -0.000151996
        0.545  -0.000148183  -0.000148183
         0.55   -0.00014438  -0.000144381
        0.555  -0.000140578  -0.000140578
         0.56  -0.000136899  -0.000136899
        0.565  -0.000133198  -0.000133195
         0.57   -0.00012953  -0.000129532
        0.575  -0.000125911   -0.00012591
         0.58  -0.000122319  -0.000122318
        0.585  -0.000118765  -0.000118766
         0.59  -0.000115243  -0.000115242
        0.595  -0.000111741  -0.000111741
          0.6  -0.000108297  -0.000108296
        0.605  -0.000104875  -0.000104875
         0.61  -0.000101465  -0.000101465
        0.615  -9.81107e-05  -9.81103e-05
         0.62  -9.47606e-05  -9.47612e-05
        0.625  -9.14291e-05   -9.1429e-05
         0.63  -8.81513e-05  -8.81509e-05
        0.635  -8.48859e-05  -8.48863e-05
         0.64   -8.1685e-05  -8.16851e-05
        0.645  -7.84093e-05  -7.84099e-05
         0.65  -7.52205e-05  -7.52205e-05
        0.655  -7.20475e-05  -7.20476e-05
         0.66  -6.88961e-05   -6.8896e-05
        0.665  -6.57568e-05   -6.5757e-05
         0.67    -6.269e-05  -6.26897e-05
        0.675  -5.95939e-05  -5.95942e-05
         0.68  -5.65287e-05  -5.65288e-05
        0.685    -5.349e-05  -5.34896e-05
         0.69    -5.046e-05  -5.04608e-05
        0.695  -4.74472e-05  -4.74473e-05
          0.7   -4.4465e-05  -4.44652e-05
        0.705  -4.14929e-05  -4.14932e-05
         0.71  -3.85378e-05  -3.85379e-05
        0.715  -3.55984e-05  -3.55976e-05
         0.72  -3.26729e-05  -3.26725e-05
        0.725  -2.97495e-05  -2.97493e-05
         0.73  -2.68433e-05  -2.68427e-05
        0.735  -2.40335e-05  -2.40338e-05
         0.74  -2.11624e-05  -2.11622e-05
        0.745  -1.82978e-05  -1.82971e-05
         0.75  -1.54706e-05    -1.547e-05
        0.755  -1.26219e-05  -1.26216e-05
         0.76  -9.81102e-06  -9.81061e-06
        0.765   -7.0321e-06  -7.03159e-06
         0.77  -4.19517e-06  -4.19618e-06
        0.775  -1.45168e-06   -1.4506e-06
         0.78   1.31539e-06   1.31617e-06
        0.785   4.07068e-06   4.07054e-06
         0.79    6.8102e-06   6.81079e-06
        0.795   9.54717e-06   9.54604e-06
          0.8   1.23047e-05    1.2305e-05
        0.805   1.49768e-05   1.49766e-05
         0.81   1.76879e-05   1.76881e-05
        0.815   2.03788e-05   2.03788e-05
         0.82   2.30692e-05   2.30701e-05
        0.825   2.57848e-05   2.57837e-05
         0.83   2.84138e-05   2.84134e-05
        0.835   3.10409e-05   3.10414e-05
         0.84   3.37249e-05   3.37246e-05
        0.845   3.63625e-05   3.63616e-05
         0.85   3.89828e-05   3.89833e-05
        0.855   4.16458e-05   4.16453e-05
         0.86   4.42375e-05   4.42385e-05
        0.865   4.68662e-05   4.68653e-05
         0.87   4.94879e-05   4.94886e-05
        0.875    5.2087e-05   5.20875e-05
         0.88   5.46925e-05    5.4692e-05
        0.885   5.72894e-05    5.7289e-05
         0.89   5.98764e-05   5.98769e-05
        0.895   6.24554e-05   6.24552e-05
          0.9   6.50212e-05   6.50216e-05
        0.905   6.76077e-05   6.76085e-05
         0.91   7.02168e-05   7.02161e-05
        0.915   7.27721e-05    7.2773e-05
         0.92   7.53337e-05   7.53334e-05
        0.925   7.78716e-05   7.78724e-05
         0.93   8.04661e-05   8.04657e-05
        0.935   8.30004e-05   8.30007e-05
         0.94   8.55234e-05   8.55243e-05
        0.945   8.80978e-05   8.80981e-05
         0.95   9.05724e-05   9.05729e-05
        0.955   9.31347e-05   9.31354e-05
         0.96   9.56824e-05   9.56824e-05
        0.965   9.82199e-05   9.82204e-05
         0.97   0.000100712   0.000100712
        0.975   0.000103216   0.000103216
         0.98   0.000105732   0.000105733
        0.985   0.000108267   0.000108267
         0.99    0.00011077    0.00011077
        0.995   0.000113306   0.000113307
            1   0.000115816   0.000115816
        1.005   0.000118258   0.000118258
         1.01   0.000120859   0.000120858
        1.015   0.000123371   0.000123371
         1.02   0.000125883   0.000125884
        1.025   0.000128366   0.000128365
         1.03   0.000130848   0.000130848
        1.035   0.000133356   0.000133355
         1.04   0.000135876   0.000135876
        1.045   0.000138359    0.00013836
         1.05   0.000140798   0.000140797
        1.055   0.000143349   0.000143349
         1.06   0.000145843   0.000145843
        1.065   0.000148322   0.000148323
         1.07   0.000150839    0.00015084
        1.075   0.000153338   0.000153339
         1.08   0.000155833   0.000155833
        1.085   0.000158326   0.000158327
         1.09   0.000160815   0.000160816
        1.095   0.000163292   0.000163293
          1.1    0.00016578    0.00016578
        1.105   0.000168319   0.000168319
         1.11    0.00017079   0.000170788
        1.115   0.000173242   0.000173244
         1.12   0.000175752   0.000175752
        1.125   0.000178238   0.000178236
         1.13    0.00018073    0.00018073
        1.135   0.000183201     0.0001832
         1.14    0.00018573    0.00018573
        1.145   0.000188188   0.000188187
         1.15   0.000190715   0.000190715
        1.155   0.000193105   0.000193104
         1.16   0.000195765   0.000195766
        1.165   0.000198256   0.000198255
         1.17   0.000200494   0.000200494
        1.175   0.000203308   0.000203307
         1.18   0.000205781   0.000205783
        1.185   0.000208262    0.00020826
         1.19   0.000210752   0.000210753
        1.195    0.00021325   0.000213248
          1.2   0.000215748   0.000215749
        1.205   0.000218249   0.000218248
         1.21   0.000220749   0.000220751
        1.215    0.00022322    0.00022322
         1.22    0.00022579    0.00022579
        1.225   0.000228303   0.000228303
         1.23   0.000230825   0.000230825
        1.235   0.000233329   0.000233329
         1.24   0.000235848   0.000235847
        1.245   0.000238375   0.000238374
         1.25   0.000240899   0.000240899
        1.255   0.000243426   0.000243428
         1.26   0.000246006   0.000246005
        1.265   0.000248519    0.00024852
         1.27   0.000251083   0.000251084
        1.275   0.000253613   0.000253613
         1.28   0.000256142   0.000256142
        1.285   0.000258664   0.000258664
         1.29   0.000261219   0.000261219
        1.295    0.00026376    0.00026376
          1.3   0.000266276   0.000266276
        1.305   0.000268827   0.000268828
         1.31   0.000271303   0.000271304
        1.315   0.000273909   0.000273909
         1.32   0.000276457   0.000276458
        1.325   0.000279011   0.000279011
         1.33   0.000281565   0.000281565
        1.335   0.000284119    0.00028412
         1.34   0.000286675   0.000286673
        1.345   0.000289217   0.000289217
         1.35   0.000291644   0.000291645
        1.355   0.000294439    0.00029444
         1.36   0.000296976   0.000296976
        1.365   0.000299539    0.00029954
         1.37   0.000302104   0.000302104
        1.375   0.000304675   0.000304674
         1.38   0.000307245   0.000307245
        1.385   0.000309748   0.000309748
         1.39   0.000312446   0.000312446
        1.395   0.000314964   0.000314964
          1.4   0.000317644   0.000317645
        1.405   0.000320221   0.000320221
         1.41   0.000322807   0.000322808
        1.415   0.000325405   0.000325404
         1.42   0.000328002   0.000328002
        1.425   0.000330555   0.000330556
         1.43   0.000333105   0.000333105
        1.435   0.000335709    0.00033571
         1.44   0.000338491    0.00033849
        1.445   0.000341083   0.000341085
         1.45   0.000343687   0.000343688
        1.455   0.000346301     0.0003463
         1.46   0.000348923   0.000348923
        1.465   0.000351553   0.000351553
         1.47   0.000354135   0.000354136
        1.475   0.000356806   0.000356806
         1.48   0.000359441   0.000359442
        1.485    0.00036208    0.00036208
         1.49   0.000364719   0.000364719
        1.495   0.000367327   0.000367328
          1.5   0.000370029    0.00037003
        1.505   0.000372706   0.000372706
         1.51   0.000375355   0.000375355
        1.515   0.000378002   0.000378002
         1.52   0.000380638   0.000380638
        1.525   0.000383318   0.000383317
         1.53   0.000385984   0.000385985
        1.535   0.000388634   0.000388634
         1.54   0.000391081   0.000391081
        1.545   0.000394129   0.000394129
         1.55   0.000396767   0.000396767
        1.555   0.000399392   0.000399392
         1.56   0.000402083   0.000402083
        1.565    0.00040478    0.00040478
         1.57    0.00040746   0.000407461
        1.575   0.000409914   0.000409914
         1.58   0.000412998   0.000412999
        1.585   0.000415633   0.000415633
         1.59   0.000418268   0.000418269
        1.595   0.000420957   0.000420957
          1.6    0.00042338    0.00042338
        1.605   0.000426562   0.000426562
         1.61   0.000429104   0.000429104
        1.615   0.000431965   0.000431965
         1.62   0.000434667   0.000434668
        1.625   0.000437362   0.000437362
         1.63   0.000440057   0.000440057
        1.635   0.000442794   0.000442794
         1.64   0.000445593   0.000445592
        1.645   0.000448334   0.000448335
         1.65   0.000451072   0.000451073
        1.655   0.000453793   0.000453793
         1.66   0.000456579    0.00045658
        1.665   0.000459348   0.000459348
         1.67   0.000462107   0.000462107
        1.675    0.00046487    0.00046487
         1.68   0.000467637   0.000467637
        1.685   0.000470407   0.000470407
         1.69   0.000473177   0.000473177
        1.695   0.000475923   0.000475923
          1.7   0.000478456   0.000478455
        1.705   0.000481678   0.000481679
         1.71   0.000484403   0.000484404
        1.715   0.000487062   0.000487061
         1.72   0.000490006   0.000490006
        1.725   0.000492787   0.000492787
         1.73   0.000495542   0.000495544
        1.735   0.000498405   0.000498404
         1.74   0.000501166   0.000501166
        1.745   0.000503989   0.000503988
         1.75     0.0005068     0.0005068
        1.755   0.000509612   0.000509612
         1.76   0.000512392   0.000512393
        1.765   0.000515266   0.000515266
         1.77   0.000518133   0.000518134
        1.775   0.000521002   0.000521002
         1.78   0.000523819   0.000523819
        1.785    0.00052644   0.000526441
         1.79   0.000529641    0.00052964
        1.795   0.000532445   0.000532447
          1.8   0.000535246   0.000535247
        1.805   0.000537997   0.000537997
         1.81   0.000540866   0.000540866
        1.815   0.000543885   0.000543885
         1.82    0.00054675   0.000546751
        1.825   0.000549618   0.000549618
         1.83   0.000552484   0.000552485
        1.835   0.000555315   0.000555313
         1.84   0.000558194   0.000558195
        1.845   0.000561029   0.000561028
         1.85    0.00056403   0.000564031
        1.855   0.000566938   0.000566939
         1.86   0.000569854   0.000569852
        1.865   0.000572706   0.000572708
         1.87   0.000575616   0.000575615
        1.875   0.000578526   0.000578526
         1.88   0.000581442   0.000581442
        1.885   0.000584349    0.00058435
         1.89    0.00058727   0.000587271
        1.895    0.00059014    0.00059014
          1.9   0.000592749   0.000592749
        1.905   0.000596197   0.000596198
         1.91   0.000599103   0.000599102
        1.915    0.00060176   0.000601761
         1.92   0.000605084   0.000605083
        1.925    0.00060798   0.000607981
         1.93   0.000610892   0.000610892
        1.935   0.000613818   0.000613818
         1.94   0.000616753   0.000616753
        1.945   0.000619652   0.000619652
         1.95   0.000622689   0.000622688
        1.955    0.00062568    0.00062568
         1.96   0.000628643   0.000628644
        1.965   0.000631598   0.000631597
         1.97    0.00063455    0.00063455
        1.975   0.000637523   0.000637524
         1.98   0.000640431    0.00064043
        1.985   0.000643392   0.000643393
         1.99   0.000646654   0.000646655
        1.995   0.000649577   0.000649575
            2   0.000652513   0.000652513
        2.005   0.000655584   0.000655584
         2.01   0.000658572   0.000658573
        2.015   0.000661561    0.00066156
         2.02   0.000664514   0.000664515
        2.025   0.000667642   0.000667641
         2.03   0.000670664   0.000670665
        2.035    0.00067368    0.00067368
         2.04   0.000676655   0.000676655
        2.045   0.000679718   0.000679719
         2.05   0.000682759   0.000682759
        2.055   0.000685839   0.000685839
         2.06   0.000688969   0.000688969
        2.065   0.000691982   0.000691983
         2.07   0.000695023   0.000695024
        2.075   0.000698036   0.000698036
         2.08   0.000701138   0.000701137
        2.085   0.000704172   0.000704173
         2.09   0.000707234   0.000707234
        2.095   0.000710308   0.000710308
          2.1   0.000713396   0.000713395
        2.105   0.000716465   0.000716465
         2.11    0.00071954   0.000719541
        2.115   0.000722494   0.000722494
         2.12   0.000725769   0.000725769
        2.125   0.000728859   0.000728859
         2.13   0.000731842   0.000731842
        2.135   0.000735045   0.000735045
         2.14   0.000738189    0.00073819
        2.145   0.000741283   0.000741283
         2.15   0.000744296   0.000744296
        2.155    0.00074755   0.000747549
         2.16   0.000750754   0.000750753
        2.165   0.000753765   0.000753766
         2.17     0.0007565   0.000756499
        2.175   0.000760024   0.000760024
         2.18   0.000763178   0.000763179
        2.185    0.00076634   0.000766339
         2.19   0.000769446   0.000769446
        2.195    0.00077258    0.00077258
          2.2   0.000775733   0.000775733
        2.205   0.000778857   0.000778856
         2.21   0.000782013   0.000782013
        2.215   0.000785081   0.000785081
         2.22   0.000788334   0.000788335
        2.225   0.000791517   0.000791516
         2.23   0.000794658   0.000794657
        2.235    0.00079783    0.00079783
         2.24   0.000800984   0.000800984
        2.245   0.000803985   0.000803986
         2.25   0.000807439   0.000807438
        2.255   0.000810543   0.000810543
         2.26   0.000813317   0.000813319
        2.265   0.000817196   0.000817197
         2.27   0.000820296   0.000820296
        2.275   0.000823423   0.000823423
         2.28   0.000826591   0.000826592
        2.285   0.000829775   0.000829776
         2.29   0.000832849   0.000832849
        2.295   0.000836217   0.000836217
          2.3   0.000839429    0.00083943
        2.305    0.00084266   0.000842661
         2.31   0.000845843   0.000845844
        2.315   0.000849059   0.000849058
         2.32   0.000852132   0.000852132
        2.325   0.000855553   0.000855554
         2.33   0.000858729   0.000858729
        2.335   0.000862142   0.000862142
         2.34   0.000865368   0.000865369
        2.345   0.000868548   0.000868547
         2.35   0.000871794   0.000871794
        2.355   0.000874971   0.000874972
         2.36   0.000878192   0.000878192
        2.365   0.000881422   0.000881422
         2.37   0.000884276   0.000884277
        2.375   0.000888171   0.000888171
         2.38   0.000891406   0.000891405
        2.385   0.000894653   0.000894653
         2.39   0.000897946   0.000897945
        2.395    0.00090113   0.000901131
          2.4   0.000904154   0.000904155
        2.405   0.000907907   0.000907907
         2.41   0.000911142   0.000911142
        2.415   0.000914396   0.000914396
         2.42   0.000917656   0.000917656
        2.425   0.000920937   0.000920937
         2.43   0.000924245   0.000924245
        2.435   0.000927528   0.000927528
         2.44   0.000930827   0.000930826
        2.445   0.000934091   0.000934091
         2.45   0.000937391   0.000937391
        2.455   0.000940681   0.000940681
         2.46   0.000943516   0.000943516
        2.465   0.000947135   0.000947136
         2.47   0.000951049   0.000951049
        2.475    0.00095426    0.00095426
         2.48   0.000957521    0.00095752
        2.485   0.000960809    0.00096081
         2.49   0.000964104   0.000964103
        2.495   0.000967415   0.000967415
          2.5   0.000970762   0.000970762
        2.505   0.000974131   0.000974132
         2.51   0.000977397   0.000977396
        2.515   0.000980583   0.000980583
         2.52   0.000984353   0.000984354
        2.525    0.00098764   0.000987638
         2.53   0.000990958   0.000990959
        2.535   0.000994281   0.000994281
         2.54   0.000997578   0.000997579
        2.545    0.00100075    0.00100075
         2.55    0.00100441    0.00100442
        2.555    0.00100778    0.00100778
         2.56    0.00101064    0.00101064
        2.565    0.00101484    0.00101484
         2.57    0.00101809    0.00101809
        2.575    0.00102141    0.00102141
         2.58    0.00102471    0.00102471
        2.585    0.00102806    0.00102806
         2.59    0.00103144    0.00103144
        2.595    0.00103479    0.00103479
          2.6    0.00103787    0.00103787
        2.605    0.00104184    0.00104184
         2.61    0.00104515    0.00104515
        2.615    0.00104837    0.00104837
         2.62    0.00105171    0.00105171
        2.625    0.00105534    0.00105534
         2.63     0.0010587    0.00105869
        2.635     0.0010621     0.0010621
         2.64    0.00106561    0.00106561
        2.645     0.0010691     0.0010691
         2.65    0.00107249    0.00107249
        2.655     0.0010759     0.0010759
         2.66    0.00107917    0.00107917
        2.665    0.00108283    0.00108283
         2.67    0.00108621    0.00108621
        2.675    0.00108956    0.00108956
         2.68    0.00109157    0.00109158
        2.685     0.0010968     0.0010968
         2.69    0.00110031    0.00110031
        2.695    0.00110359    0.00110359
          2.7    0.00110691    0.00110691
        2.705    0.00111026    0.00111026
         2.71    0.00111371    0.00111371
        2.715    0.00111711    0.00111711
         2.72    0.00112057    0.00112057
        2.725      0.001124      0.001124
         2.73    0.00112737    0.00112737
        2.735    0.00113059    0.00113059
         2.74    0.00113449    0.00113449
        2.745    0.00113792    0.00113792
         2.75    0.00114136    0.00114136
        2.755    0.00114481    0.00114481
         2.76    0.00114826    0.00114826
        2.765    0.00115171    0.00115171
         2.77    0.00115515    0.00115515
        2.775    0.00115856    0.00115856
         2.78    0.00116051    0.00116051
        2.785    0.00116612    0.00116612
         2.79    0.00116938    0.00116938
        2.795    0.00117275    0.00117275
          2.8    0.00117615    0.00117615
        2.805    0.00117958    0.00117958
         2.81    0.00118303    0.00118303
        2.815    0.00118641    0.00118642
         2.82    0.00118831    0.00118831
        2.825    0.00119404    0.00119404
         2.83    0.00119728    0.00119728
        2.835    0.00120064    0.00120064
         2.84    0.00120405    0.00120405
        2.845    0.00120749    0.00120749
         2.85    0.00121081    0.00121081
        2.855    0.00121408    0.00121408
         2.86    0.00121802    0.00121802
        2.865    0.00122148    0.00122148
         2.87    0.00122493    0.00122493
        2.875    0.00122836    0.00122836
         2.88    0.00123159    0.00123159
        2.885    0.00123528    0.00123528
         2.89    0.00123894    0.00123894
        2.895    0.00124239    0.00124239
          2.9    0.00124582    0.00124582
        2.905    0.00124778    0.00124778
         2.91    0.00125346    0.00125346
        2.915    0.00125671    0.00125671
         2.92    0.00125998    0.00125998
        2.925    0.00126301    0.00126301
         2.93    0.00126708    0.00126708
        2.935    0.00127042    0.00127042
         2.94    0.00127384    0.00127384
        2.945    0.00127737    0.00127737
         2.95    0.00128072    0.00128073
        2.955    0.00128457    0.00128452
         2.96    0.00128797    0.00128798
        2.965    0.00129145    0.00129146
         2.97    0.00129492    0.00129492
        2.975    0.00129839    0.00129839
         2.98    0.00130189    0.00130189
        2.985    0.00130538    0.00130539
         2.99    0.00130888    0.00130889
        2.995     0.0013124     0.0013124
            3    0.00131588    0.00131588
        3.005    0.00131937    0.00131937
         3.01    0.00132282    0.00132282
        3.015    0.00132639    0.00132639
         3.02    0.00132989    0.00132989
        3.025    0.00133338    0.00133338
         3.03    0.00133688    0.00133688
        3.035    0.00134037    0.00134037
         3.04    0.00134387    0.00134387
        3.045    0.00134736    0.00134736
         3.05    0.00135085    0.00135085
        3.055    0.00135435    0.00135435
         3.06    0.00135785    0.00135785
        3.065    0.00136134    0.00136134
         3.07    0.00136482    0.00136482
        3.075    0.00136831    0.00136831
         3.08     0.0013718     0.0013718
        3.085    0.00137532    0.00137532
         3.09    0.00137876    0.00137876
        3.095    0.00138224    0.00138224
          3.1    0.00138573    0.00138573
        3.105    0.00138915    0.00138915
         3.11    0.00139267    0.00139267
        3.115    0.00139615    0.00139615
         3.12    0.00139962    0.00139962
        3.125     0.0014031     0.0014031
         3.13    0.00140657    0.00140657
        3.135    0.00141003    0.00141004
         3.14     0.0014135     0.0014135
        3.145    0.00141696    0.00141696
         3.15    0.00142043    0.00142043
        3.155     0.0014239     0.0014239
         3.16     0.0014273     0.0014273
        3.165    0.00143077    0.00143077
         3.17    0.00143423    0.00143423
        3.175    0.00143768    0.00143768
         3.18    0.00144116    0.00144116
        3.185    0.00144456    0.00144456
         3.19      0.001448      0.001448
        3.195    0.00145143    0.00145143
          3.2    0.00145486    0.00145486
        3.205     0.0014583     0.0014583
         3.21    0.00146173    0.00146173
        3.215    0.00146511    0.00146511
         3.22    0.00146851    0.00146851
        3.225    0.00147194    0.00147194
         3.23    0.00147536    0.00147536
        3.235    0.00147876    0.00147876
         3.24    0.00148217    0.00148217
        3.245    0.00148557    0.00148557
         3.25    0.00148898    0.00148898
        3.255    0.00149234    0.00149234
         3.26    0.00149573    0.00149573
        3.265     0.0014991     0.0014991
         3.27    0.00150248    0.00150248
        3.275    0.00150586    0.00150586
         3.28    0.00150925    0.00150925
        3.285    0.00151258    0.00151258
         3.29    0.00151592    0.00151592
        3.295    0.00151927    0.00151927
          3.3    0.00152262    0.00152262
        3.305    0.00152596    0.00152596
         3.31     0.0015293     0.0015293
        3.315    0.00153262    0.00153262
         3.32    0.00153594    0.00153594
        3.325    0.00153928    0.00153929
         3.33    0.00154256    0.00154256
        3.335    0.00154587    0.00154587
         3.34    0.00154917    0.00154918
        3.345    0.00155247    0.00155248
         3.35    0.00155572    0.00155573
        3.355    0.00155905    0.00155905
         3.36    0.00156229    0.00156229
        3.365    0.00156556    0.00156556
         3.37    0.00156885    0.00156885
        3.375    0.00157208    0.00157208
         3.38    0.00157533    0.00157533
        3.385    0.00157857    0.00157857
         3.39    0.00158183    0.00158183
        3.395    0.00158501    0.00158501
          3.4    0.00158825    0.00158825
        3.405    0.00159143    0.00159143
         3.41    0.00159464    0.00159464
        3.415    0.00159785    0.00159785
         3.42    0.00160101    0.00160101
        3.425    0.00160418    0.00160418
         3.43    0.00160735    0.00160735
        3.435    0.00161051    0.00161051
         3.44    0.00161369    0.00161369
        3.445    0.00161683    0.00161683
         3.45    0.00161997    0.00161997
        3.455    0.00162309    0.00162309
         3.46     0.0016262     0.0016262
        3.465    0.00162937    0.00162937
         3.47    0.00163242    0.00163243
        3.475    0.00163549    0.00163549
         3.48    0.00163857    0.00163857
        3.485    0.00164164    0.00164164
         3.49    0.00164469    0.00164469
        3.495    0.00164774    0.00164774
          3.5    0.00165079    0.00165079
        3.505     0.0016538     0.0016538
         3.51    0.00165683    0.00165683
        3.515     0.0016598     0.0016598
         3.52     0.0016628     0.0016628
        3.525    0.00166578    0.00166578
         3.53    0.00166875    0.00166875
        3.535    0.00167172    0.00167172
         3.54    0.00167466    0.00167467
        3.545    0.00167759    0.00167759
         3.55    0.00168053    0.00168053
        3.555    0.00168344    0.00168344