/*--------------------------------*- C++ -*----------------------------------*\
  =========                 |
  \\      /  F ield         | OpenFOAM: The Open Source CFD Toolbox
   \\    /   O peration     | Website:  https://openfoam.org
    \\  /    A nd           | Version:  7
     \\/     M anipulation  |
\*---------------------------------------------------------------------------*/
FoamFile
{
    version     2.0;
    format      ascii;
    class       volScalarField;
    location    "25";
    object      p;
}
// * * * * * * * * * * * * * * * * * * * * * * * * * * * * * * * * * * * * * //

dimensions      [0 2 -2 0 0 0 0];

internalField   nonuniform List<scalar> 
3025
(
0.133504
0.143513
0.157365
0.156571
0.168989
0.180722
0.183701
0.194126
0.202998
0.20087
0.210595
0.21807
0.222717
0.219979
0.229485
0.237209
0.240315
0.239104
0.250358
0.257975
0.263937
0.265349
0.264416
0.273347
0.280443
0.286173
0.290361
0.290486
0.289536
0.298819
0.304952
0.310095
0.313926
0.316292
0.314986
0.313343
0.33183
0.335999
0.339183
0.341108
0.341642
0.338838
0.33614
0.364159
0.366359
0.367585
0.367603
0.366305
0.36198
0.358025
0.395034
0.395666
0.395907
0.395184
0.393306
0.390184
0.384323
0.379001
0.42749
0.42622
0.424521
0.421873
0.41812
0.413195
0.405801
0.399052
0.46227
0.458836
0.455693
0.452086
0.44755
0.441958
0.435263
0.426356
0.418155
0.49412
0.488937
0.483962
0.478495
0.472118
0.464735
0.45632
0.445935
0.436283
0.524544
0.517662
0.510911
0.503641
0.495485
0.486373
0.476301
0.464487
0.453405
0.56291
0.553406
0.544887
0.536427
0.527428
0.517567
0.506799
0.495142
0.481962
0.469491
0.591531
0.580576
0.570495
0.560407
0.549763
0.538282
0.525943
0.512787
0.498312
0.484506
0.618259
0.605933
0.594376
0.582752
0.570558
0.557553
0.54374
0.529177
0.513489
0.498417
0.64297
0.629362
0.616427
0.60337
0.589733
0.575311
0.560127
0.544262
0.527447
0.51119
0.681974
0.66555
0.650759
0.636553
0.622177
0.607212
0.591489
0.575048
0.557989
0.540145
0.522791
0.703283
0.685893
0.670028
0.654668
0.639095
0.622927
0.606027
0.58845
0.570315
0.551541
0.533191
0.722157
0.703906
0.687082
0.670693
0.654054
0.636817
0.61887
0.600285
0.581196
0.561598
0.542359
0.738505
0.719504
0.701845
0.68456
0.666994
0.648827
0.629971
0.610511
0.590595
0.570284
0.550269
0.752249
0.732614
0.71425
0.696209
0.67786
0.658908
0.639287
0.61909
0.598479
0.577568
0.556898
0.763324
0.743177
0.724242
0.705588
0.686607
0.667022
0.646783
0.625992
0.60482
0.583426
0.562227
0.771678
0.751142
0.731775
0.712659
0.693199
0.673136
0.652431
0.631191
0.609597
0.587838
0.566238
0.777269
0.756473
0.736816
0.71739
0.697609
0.677226
0.656208
0.634667
0.61279
0.590787
0.568918
0.780071
0.759145
0.739343
0.71976
0.699819
0.679275
0.6581
0.636409
0.61439
0.592265
0.570261
0.780071
0.759145
0.739343
0.71976
0.699819
0.679275
0.6581
0.636409
0.61439
0.592265
0.570261
0.777269
0.756473
0.736816
0.71739
0.697609
0.677226
0.656208
0.634667
0.61279
0.590787
0.568918
0.771678
0.751142
0.731775
0.712659
0.693199
0.673136
0.652431
0.631191
0.609597
0.587838
0.566238
0.763324
0.743177
0.724242
0.705588
0.686607
0.667022
0.646783
0.625992
0.60482
0.583426
0.562227
0.752249
0.732614
0.71425
0.696209
0.67786
0.658908
0.639287
0.61909
0.598479
0.577568
0.556899
0.738505
0.719504
0.701845
0.68456
0.666994
0.648827
0.629971
0.610511
0.590595
0.570284
0.550269
0.722157
0.703906
0.687082
0.670693
0.654055
0.636817
0.61887
0.600285
0.581196
0.561598
0.542359
0.703283
0.685893
0.670028
0.654668
0.639095
0.622927
0.606027
0.58845
0.570315
0.551541
0.533191
0.681974
0.66555
0.650759
0.636553
0.622177
0.607212
0.591489
0.575048
0.557989
0.540145
0.522791
0.64297
0.629362
0.616427
0.60337
0.589733
0.575311
0.560127
0.544262
0.527447
0.51119
0.618259
0.605933
0.594376
0.582752
0.570558
0.557553
0.54374
0.529177
0.513489
0.498417
0.591531
0.580576
0.570495
0.560407
0.549763
0.538282
0.525943
0.512787
0.498312
0.484507
0.56291
0.553406
0.544887
0.536427
0.527428
0.517567
0.506799
0.495142
0.481962
0.469491
0.524544
0.517662
0.510911
0.503641
0.495485
0.486373
0.476301
0.464487
0.453405
0.49412
0.488937
0.483962
0.478495
0.472118
0.464735
0.45632
0.445935
0.436283
0.46227
0.458836
0.455693
0.452086
0.44755
0.441958
0.435263
0.426356
0.418155
0.42749
0.42622
0.424521
0.421873
0.41812
0.413195
0.405801
0.399052
0.395034
0.395666
0.395907
0.395184
0.393306
0.390184
0.384324
0.379001
0.364159
0.366359
0.367585
0.367603
0.366305
0.36198
0.358025
0.33183
0.335999
0.339183
0.341108
0.341642
0.338838
0.33614
0.304952
0.310095
0.313926
0.316292
0.314986
0.313343
0.273347
0.280443
0.286173
0.290361
0.290486
0.289536
0.250358
0.257976
0.263937
0.265349
0.264416
0.219979
0.229485
0.237209
0.240315
0.239104
0.20087
0.210595
0.21807
0.222717
0.183701
0.194126
0.202998
0.156571
0.168989
0.180722
0.143513
0.157365
0.133504
0.220136
0.193711
0.168371
0.145723
0.123212
0.100758
0.208206
0.184656
0.160117
0.138933
0.118155
0.0973276
0.192133
0.169927
0.147083
0.127652
0.108886
0.0901036
0.177081
0.156761
0.136082
0.11845
0.101489
0.0845196
0.163452
0.145054
0.1265
0.110574
0.0952561
0.0799385
0.151386
0.134708
0.118089
0.103719
0.089883
0.0760603
0.14074
0.125618
0.110761
0.0978193
0.0853297
0.0728588
0.131367
0.117671
0.104407
0.0927663
0.0814957
0.0702424
0.123158
0.11077
0.09893
0.0884622
0.0782888
0.0681274
0.116
0.104804
0.0942314
0.0848135
0.0756242
0.0664401
0.109779
0.0996653
0.090216
0.0817348
0.0734264
0.0651161
0.104388
0.095254
0.0867979
0.0791507
0.0716297
0.0641001
0.0997299
0.0914797
0.0839009
0.0769952
0.0701774
0.0957179
0.0882625
0.0814581
0.0752112
0.0690211
0.0922746
0.0855324
0.079411
0.0737493
0.0681194
0.0893315
0.083228
0.0777088
0.0725669
0.067437
0.0868283
0.0812958
0.0763075
0.0716269
0.0669433
0.0847115
0.0796892
0.0751684
0.0708972
0.0666116
0.0829337
0.0783667
0.0742573
0.0703492
0.0664183
0.0814526
0.0772916
0.073544
0.0699573
0.0663425
0.0802302
0.0764311
0.0730011
0.0696987
0.0663649
0.0792325
0.0757553
0.0726038
0.0695523
0.0664679
0.0784286
0.0752375
0.0723294
0.0694988
0.0666352
0.0777906
0.0748528
0.0721571
0.0695203
0.0668514
0.0772932
0.0745791
0.0720678
0.0696001
0.0671024
0.0769135
0.0743955
0.0720436
0.0697228
0.0673744
0.0766308
0.0742837
0.0720683
0.0698739
0.0676548
0.0764263
0.0742262
0.0721264
0.0700397
0.0679312
0.0762841
0.0742083
0.0722049
0.0702082
0.0681928
0.0761882
0.0742142
0.0722888
0.0703653
0.068426
0.0761288
0.0742353
0.0723706
0.0705042
0.068625
0.0760884
0.0742518
0.0724294
0.0706033
0.0687671
0.0760732
0.0742726
0.0724762
0.0706753
0.0688669
0.0760488
0.0742537
0.0724586
0.0706599
0.0688563
0.244997
0.246494
0.249989
0.254785
0.260932
0.268135
0.276256
0.285022
0.294124
0.303135
0.311505
0.318539
0.323356
0.32495
0.322068
0.313637
0.29781
0.275159
0.232126
0.244079
0.245508
0.248843
0.253406
0.25922
0.265984
0.27353
0.281562
0.28974
0.297607
0.304587
0.309969
0.312881
0.312357
0.307242
0.296598
0.278802
0.254921
0.213539
0.243082
0.244447
0.247614
0.251933
0.257399
0.26371
0.270674
0.277981
0.285269
0.29207
0.297805
0.301777
0.30316
0.301068
0.294477
0.282622
0.264109
0.240573
0.202343
0.241995
0.243284
0.246266
0.250314
0.255398
0.261212
0.267541
0.27406
0.280389
0.28605
0.290462
0.292953
0.292743
0.289035
0.280943
0.267875
0.248715
0.22516
0.189331
0.240812
0.242019
0.244801
0.248559
0.253237
0.258525
0.264189
0.269887
0.275227
0.279723
0.282805
0.283827
0.282069
0.276827
0.267356
0.253227
0.233608
0.21005
0.176521
0.23953
0.24065
0.243221
0.246673
0.250925
0.255667
0.260644
0.265507
0.269851
0.273197
0.274987
0.274617
0.271435
0.264836
0.254221
0.239303
0.219519
0.196239
0.165008
0.238144
0.239173
0.241521
0.244652
0.24846
0.252637
0.256911
0.260927
0.26428
0.266496
0.267048
0.265375
0.260906
0.253135
0.241605
0.226153
0.206455
0.183688
0.154667
0.236651
0.237582
0.239698
0.242492
0.24584
0.249434
0.252992
0.256157
0.258527
0.259645
0.259017
0.256138
0.250518
0.241752
0.229515
0.21375
0.194327
0.172247
0.14532
0.235047
0.235876
0.237747
0.240191
0.243065
0.246063
0.248897
0.251212
0.252616
0.252676
0.250937
0.246956
0.240326
0.230739
0.217987
0.202104
0.183108
0.161851
0.136901
0.233327
0.234049
0.235668
0.23775
0.240137
0.242529
0.244636
0.246111
0.246575
0.245626
0.242856
0.237885
0.230387
0.220147
0.207058
0.191227
0.172783
0.152452
0.12936
0.231491
0.232101
0.23346
0.235169
0.23706
0.238842
0.240224
0.240874
0.240434
0.238535
0.23482
0.228974
0.220751
0.210017
0.196753
0.181119
0.163323
0.143987
0.122635
0.229536
0.230031
0.231123
0.232451
0.23384
0.235011
0.235679
0.235527
0.234224
0.231442
0.226875
0.220272
0.211461
0.200381
0.187083
0.171769
0.154692
0.13639
0.116662
0.227462
0.227839
0.228658
0.229601
0.230486
0.231049
0.231018
0.230095
0.22798
0.224387
0.219063
0.211821
0.202554
0.191263
0.178055
0.163156
0.146848
0.129594
0.111377
0.22527
0.225526
0.22607
0.226624
0.227008
0.226973
0.226263
0.224606
0.221736
0.217409
0.211427
0.203659
0.194058
0.182678
0.169663
0.155256
0.139746
0.123534
0.106718
0.222962
0.223096
0.223364
0.223529
0.223417
0.222799
0.221438
0.21909
0.215525
0.210545
0.204003
0.195819
0.185999
0.174634
0.161898
0.148038
0.133338
0.118146
0.102628
0.220544
0.220554
0.220547
0.220326
0.219729
0.218548
0.216568
0.213577
0.209384
0.203833
0.196825
0.188329
0.17839
0.167132
0.154742
0.141467
0.127576
0.11337
0.0990484
0.21802
0.217908
0.217629
0.217029
0.215961
0.214241
0.21168
0.208099
0.203345
0.197305
0.189924
0.18121
0.171243
0.160166
0.148176
0.135508
0.122412
0.109149
0.0959281
0.2154
0.215166
0.214621
0.213652
0.212132
0.209901
0.206801
0.202686
0.19744
0.190992
0.183324
0.17448
0.164562
0.153728
0.142174
0.130122
0.117799
0.105429
0.0932186
0.212694
0.21234
0.211538
0.210213
0.208262
0.205554
0.20196
0.197368
0.191701
0.184922
0.177047
0.168148
0.158346
0.147802
0.136709
0.125271
0.113692
0.102162
0.0908752
0.209916
0.209445
0.208396
0.206731
0.204376
0.201227
0.197187
0.192177
0.186155
0.179118
0.17111
0.162223
0.152588
0.142371
0.131751
0.120916
0.110045
0.0993006
0.0888575
0.207081
0.206499
0.205214
0.20323
0.200499
0.196947
0.19251
0.187141
0.18083
0.173602
0.165525
0.156705
0.147282
0.137414
0.127271
0.11702
0.106819
0.0968038
0.0871284
0.20421
0.203521
0.202016
0.199733
0.196657
0.192744
0.187959
0.182288
0.175749
0.168391
0.160301
0.151595
0.142414
0.13291
0.123238
0.113548
0.103975
0.0946329
0.0856544
0.201323
0.200534
0.198825
0.196267
0.192879
0.188646
0.183563
0.177645
0.170933
0.1635
0.155445
0.146889
0.137972
0.128836
0.119624
0.110465
0.101477
0.0927529
0.0844049
0.198448
0.197566
0.19567
0.192863
0.189197
0.184685
0.179351
0.173236
0.166404
0.158942
0.150959
0.142581
0.13394
0.125171
0.116399
0.10774
0.0992913
0.0911319
0.0833524
0.195613
0.194645
0.192581
0.189552
0.185641
0.180892
0.175352
0.169087
0.162178
0.154726
0.146846
0.138663
0.130304
0.121891
0.113538
0.105343
0.097389
0.0897412
0.0824719
0.192851
0.191806
0.189593
0.186368
0.182246
0.177298
0.171595
0.16522
0.158273
0.150862
0.143107
0.135129
0.127048
0.118977
0.111015
0.103247
0.0957426
0.0885552
0.0817411
0.190198
0.189084
0.186741
0.183348
0.179048
0.173937
0.168107
0.16166
0.154705
0.147359
0.139741
0.131971
0.12416
0.116409
0.108807
0.101428
0.094328
0.087551
0.0811399
0.187694
0.18652
0.184066
0.18053
0.176083
0.170843
0.16492
0.158429
0.15149
0.144225
0.136751
0.129183
0.121626
0.114172
0.106897
0.0998654
0.0931242
0.0867087
0.0806506
0.185384
0.184158
0.181611
0.177958
0.173392
0.168052
0.162063
0.155553
0.148647
0.14147
0.134139
0.126763
0.11944
0.112251
0.105267
0.0985416
0.0921135
0.0860114
0.080258
0.183314
0.182046
0.179424
0.175676
0.171017
0.165603
0.159571
0.153058
0.146195
0.139108
0.131911
0.12471
0.117594
0.110639
0.103906
0.0974429
0.0912815
0.0854448
0.0799486
0.181537
0.180234
0.177554
0.173734
0.169005
0.163537
0.15748
0.150975
0.144159
0.137155
0.130078
0.123027
0.116088
0.109329
0.102806
0.0965597
0.0906177
0.0849984
0.0797127
0.18011
0.17878
0.176057
0.172184
0.167405
0.161902
0.155831
0.14934
0.142566
0.135634
0.128656
0.121727
0.114928
0.108324
0.101965
0.0958875
0.0901155
0.0846636
0.079539
0.179093
0.177743
0.174992
0.171085
0.166273
0.160748
0.154672
0.148194
0.141453
0.134574
0.127668
0.120826
0.114127
0.107632
0.101388
0.0954277
0.0897741
0.0844394
0.0794291
0.178552
0.177189
0.174425
0.1705
0.165672
0.160136
0.154058
0.147589
0.140867
0.134017
0.127149
0.120354
0.113708
0.107271
0.101087
0.0951884
0.0895958
0.0843202
0.0793654
0.252434
0.254065
0.258117
0.263703
0.27108
0.280001
0.290551
0.302692
0.316467
0.331902
0.349027
0.367872
0.388441
0.410731
0.434687
0.460223
0.487148
0.515298
0.544064
0.252409
0.254039
0.258089
0.263673
0.271047
0.279963
0.290506
0.302638
0.3164
0.331817
0.348916
0.367725
0.388246
0.410472
0.434342
0.459766
0.486545
0.514505
0.543038
0.252358
0.253987
0.258034
0.263614
0.270982
0.279888
0.290417
0.30253
0.316265
0.331645
0.348693
0.367432
0.387857
0.409955
0.433655
0.458853
0.485341
0.51292
0.54099
0.252282
0.25391
0.257952
0.263525
0.270883
0.279776
0.290284
0.302368
0.316064
0.331388
0.348359
0.366993
0.387275
0.409181
0.432624
0.457485
0.483537
0.510546
0.537926
0.252181
0.253807
0.257843
0.263408
0.270752
0.279626
0.290108
0.302153
0.315796
0.331046
0.347914
0.366408
0.386499
0.40815
0.431252
0.455665
0.481137
0.50739
0.533854
0.252054
0.253678
0.257707
0.263262
0.270589
0.279439
0.289887
0.301886
0.315462
0.330619
0.34736
0.365679
0.385532
0.406863
0.42954
0.453394
0.478146
0.503457
0.528786
0.251903
0.253524
0.257544
0.263079
0.270394
0.279215
0.289623
0.301565
0.315062
0.330109
0.346696
0.364806
0.384374
0.405323
0.427491
0.450678
0.474568
0.498756
0.522737
0.251727
0.253345
0.257354
0.262858
0.270166
0.278955
0.289316
0.301192
0.314597
0.329515
0.345925
0.363791
0.383027
0.403532
0.425108
0.44752
0.470409
0.493296
0.515723
0.251526
0.253141
0.257139
0.262673
0.269907
0.278659
0.288967
0.300768
0.314067
0.32884
0.345046
0.362635
0.381493
0.401492
0.422394
0.443924
0.465677
0.48709
0.507763
0.251301
0.252913
0.256897
0.262397
0.269616
0.278328
0.288576
0.300293
0.313475
0.328082
0.344062
0.361339
0.379773
0.399205
0.419351
0.439897
0.460378
0.48015
0.498878
0.251051
0.25266
0.25663
0.262102
0.269296
0.277962
0.288144
0.299769
0.312819
0.327245
0.342973
0.359905
0.37787
0.396675
0.415985
0.435444
0.454521
0.472489
0.489089
0.250778
0.252383
0.256337
0.261787
0.268946
0.277561
0.287672
0.299194
0.312102
0.326329
0.341781
0.358336
0.375786
0.393904
0.412298
0.430571
0.448114
0.464123
0.478417
0.25048
0.252082
0.25602
0.261446
0.268566
0.277127
0.28716
0.298572
0.311325
0.325336
0.340488
0.356632
0.373524
0.390897
0.408297
0.425285
0.441166
0.455068
0.466883
0.250159
0.251759
0.255677
0.261079
0.268158
0.276661
0.286609
0.297902
0.310489
0.324266
0.339095
0.354797
0.371087
0.387656
0.403984
0.419594
0.433683
0.44534
0.454508
0.249815
0.251412
0.255311
0.260686
0.267721
0.276161
0.28602
0.297186
0.309594
0.323122
0.337605
0.352833
0.368477
0.384185
0.399366
0.413504
0.425675
0.434957
0.441308
0.249449
0.251044
0.254927
0.260268
0.267257
0.275631
0.285394
0.296425
0.308643
0.321905
0.336019
0.350741
0.365698
0.380487
0.394447
0.407021
0.417147
0.423938
0.427295
0.249059
0.250653
0.254514
0.259826
0.266766
0.27507
0.284732
0.295621
0.307636
0.320617
0.334341
0.348525
0.362753
0.376569
0.389234
0.400154
0.40811
0.412299
0.412473
0.248648
0.250237
0.254079
0.25936
0.266249
0.274479
0.284035
0.294774
0.306577
0.31926
0.332572
0.34619
0.359648
0.372435
0.383734
0.39291
0.398571
0.400063
0.396844
0.248215
0.249797
0.253623
0.258872
0.265706
0.273859
0.283303
0.293884
0.305464
0.317834
0.330712
0.343733
0.356382
0.368085
0.377949
0.385291
0.388535
0.38724
0.380394
0.247761
0.249364
0.253145
0.258359
0.265137
0.273207
0.282533
0.292946
0.30429
0.316328
0.328746
0.341136
0.35293
0.36349
0.371845
0.377257
0.377965
0.373799
0.36306
0.247286
0.248883
0.252648
0.257826
0.264545
0.272531
0.281733
0.291971
0.303066
0.314758
0.326693
0.338419
0.349313
0.358671
0.365445
0.368827
0.366882
0.359753
0.344781
0.246791
0.248391
0.25214
0.257288
0.263954
0.271863
0.280953
0.291028
0.30189
0.313248
0.324715
0.33579
0.345792
0.35394
0.35911
0.360393
0.3557
0.345504
0.325861
0.246277
0.247887
0.25162
0.256744
0.263366
0.271211
0.280205
0.290139
0.300795
0.311852
0.322887
0.333347
0.342492
0.349456
0.353024
0.352152
0.344597
0.331138
0.306405
0.245735
0.24733
0.25101
0.256061
0.262574
0.270273
0.279064
0.28872
0.298997
0.309539
0.319876
0.329403
0.337314
0.342666
0.344177
0.340691
0.329913
0.312728
0.281673
0.245735
0.24733
0.25101
0.256061
0.262575
0.270273
0.279064
0.28872
0.298997
0.309539
0.319876
0.329403
0.337314
0.342666
0.344177
0.340691
0.329913
0.312728
0.281673
0.246277
0.247887
0.25162
0.256744
0.263366
0.271211
0.280206
0.290139
0.300795
0.311852
0.322887
0.333347
0.342492
0.349456
0.353024
0.352152
0.344597
0.331138
0.306405
0.246791
0.248391
0.25214
0.257288
0.263954
0.271864
0.280954
0.291028
0.30189
0.313248
0.324715
0.33579
0.345792
0.35394
0.35911
0.360393
0.3557
0.345504
0.325861
0.247286
0.248883
0.252648
0.257826
0.264545
0.272531
0.281733
0.291971
0.303066
0.314758
0.326693
0.338419
0.349313
0.358671
0.365445
0.368827
0.366882
0.359753
0.344781
0.247761
0.249364
0.253145
0.258359
0.265137
0.273207
0.282533
0.292946
0.30429
0.316328
0.328746
0.341137
0.35293
0.36349
0.371845
0.377257
0.377965
0.373799
0.36306
0.248215
0.249797
0.253623
0.258872
0.265706
0.273859
0.283304
0.293884
0.305464
0.317834
0.330712
0.343733
0.356382
0.368085
0.377949
0.385291
0.388535
0.38724
0.380394
0.248648
0.250237
0.254079
0.25936
0.266249
0.274479
0.284035
0.294774
0.306577
0.31926
0.332572
0.34619
0.359648
0.372435
0.383734
0.39291
0.398572
0.400063
0.396844
0.249059
0.250653
0.254514
0.259826
0.266766
0.27507
0.284732
0.295621
0.307636
0.320617
0.334341
0.348525
0.362753
0.376569
0.389234
0.400154
0.40811
0.412299
0.412473
0.249449
0.251044
0.254927
0.260268
0.267257
0.275631
0.285394
0.296425
0.308643
0.321905
0.336019
0.350741
0.365698
0.380487
0.394447
0.407021
0.417147
0.423938
0.427295
0.249815
0.251412
0.255311
0.260686
0.267721
0.276161
0.28602
0.297187
0.309594
0.323122
0.337605
0.352833
0.368477
0.384185
0.399366
0.413504
0.425675
0.434957
0.441308
0.250159
0.251759
0.255677
0.261079
0.268158
0.276661
0.286609
0.297902
0.310489
0.324266
0.339095
0.354797
0.371087
0.387656
0.403984
0.419594
0.433683
0.44534
0.454508
0.25048
0.252082
0.25602
0.261446
0.268566
0.277127
0.28716
0.298572
0.311325
0.325336
0.340488
0.356632
0.373524
0.390897
0.408297
0.425286
0.441166
0.455068
0.466883
0.250778
0.252383
0.256337
0.261787
0.268946
0.277561
0.287672
0.299194
0.312102
0.326329
0.341781
0.358336
0.375786
0.393904
0.412298
0.430571
0.448114
0.464123
0.478417
0.251051
0.25266
0.25663
0.262102
0.269296
0.277962
0.288144
0.299769
0.312819
0.327245
0.342973
0.359905
0.37787
0.396675
0.415985
0.435444
0.454521
0.472489
0.489089
0.251301
0.252913
0.256897
0.262397
0.269616
0.278328
0.288576
0.300293
0.313475
0.328083
0.344062
0.361339
0.379773
0.399205
0.419351
0.439897
0.460378
0.48015
0.498878
0.251526
0.253141
0.257139
0.262673
0.269907
0.278659
0.288967
0.300768
0.314067
0.32884
0.345046
0.362635
0.381493
0.401492
0.422394
0.443924
0.465677
0.48709
0.507763
0.251727
0.253345
0.257354
0.262858
0.270166
0.278955
0.289316
0.301192
0.314597
0.329515
0.345925
0.363791
0.383027
0.403532
0.425108
0.44752
0.470409
0.493296
0.515723
0.251903
0.253524
0.257544
0.263079
0.270394
0.279215
0.289623
0.301565
0.315062
0.330109
0.346696
0.364806
0.384374
0.405323
0.427491
0.450678
0.474568
0.498756
0.522737
0.252054
0.253678
0.257707
0.263262
0.270589
0.279439
0.289887
0.301886
0.315462
0.330619
0.34736
0.365679
0.385532
0.406863
0.42954
0.453394
0.478146
0.503457
0.528786
0.252181
0.253807
0.257843
0.263408
0.270752
0.279626
0.290108
0.302153
0.315796
0.331046
0.347914
0.366408
0.386499
0.40815
0.431252
0.455665
0.481137
0.50739
0.533854
0.252282
0.25391
0.257952
0.263525
0.270883
0.279776
0.290284
0.302368
0.316064
0.331388
0.348359
0.366993
0.387275
0.409181
0.432624
0.457485
0.483537
0.510546
0.537926
0.252358
0.253987
0.258034
0.263614
0.270982
0.279888
0.290417
0.30253
0.316265
0.331645
0.348693
0.367432
0.387857
0.409955
0.433655
0.458853
0.485341
0.51292
0.54099
0.252409
0.254039
0.258089
0.263673
0.271047
0.279963
0.290506
0.302638
0.3164
0.331817
0.348916
0.367725
0.388246
0.410472
0.434342
0.459766
0.486545
0.514505
0.543038
0.252434
0.254065
0.258117
0.263703
0.27108
0.280001
0.290551
0.302692
0.316467
0.331902
0.349027
0.367872
0.388441
0.410731
0.434687
0.460223
0.487148
0.515298
0.544064
0.178552
0.177189
0.174425
0.1705
0.165672
0.160136
0.154058
0.147589
0.140867
0.134017
0.127149
0.120354
0.113708
0.107271
0.101087
0.0951884
0.0895958
0.0843203
0.0793654
0.179093
0.177743
0.174992
0.171085
0.166273
0.160748
0.154672
0.148194
0.141453
0.134574
0.127668
0.120826
0.114127
0.107632
0.101388
0.0954278
0.0897741
0.0844395
0.0794292
0.18011
0.17878
0.176057
0.172184
0.167405
0.161902
0.155831
0.14934
0.142566
0.135634
0.128656
0.121727
0.114928
0.108324
0.101965
0.0958876
0.0901155
0.0846637
0.0795391
0.181538
0.180234
0.177554
0.173734
0.169005
0.163537
0.15748
0.150975
0.144159
0.137155
0.130078
0.123028
0.116088
0.109329
0.102806
0.0965598
0.0906178
0.0849985
0.0797128
0.183314
0.182046
0.179424
0.175676
0.171017
0.165603
0.159571
0.153058
0.146195
0.139108
0.131911
0.12471
0.117594
0.110639
0.103906
0.0974429
0.0912816
0.0854449
0.0799486
0.185384
0.184158
0.181611
0.177958
0.173392
0.168052
0.162063
0.155553
0.148647
0.14147
0.134139
0.126763
0.11944
0.112251
0.105268
0.0985417
0.0921136
0.0860115
0.0802581
0.187695
0.18652
0.184066
0.18053
0.176083
0.170843
0.16492
0.158429
0.15149
0.144225
0.136751
0.129184
0.121626
0.114172
0.106897
0.0998655
0.0931243
0.0867088
0.0806506
0.190198
0.189084
0.186741
0.183348
0.179048
0.173937
0.168107
0.16166
0.154705
0.147359
0.139741
0.131971
0.12416
0.116409
0.108808
0.101428
0.0943281
0.0875511
0.0811399
0.192851
0.191806
0.189593
0.186368
0.182246
0.177298
0.171595
0.16522
0.158273
0.150862
0.143107
0.135129
0.127048
0.118977
0.111015
0.103247
0.0957426
0.0885552
0.0817411
0.195613
0.194646
0.192581
0.189552
0.185641
0.180892
0.175352
0.169087
0.162178
0.154726
0.146846
0.138663
0.130304
0.121891
0.113538
0.105343
0.097389
0.0897413
0.082472
0.198448
0.197566
0.19567
0.192863
0.189197
0.184685
0.179352
0.173236
0.166404
0.158942
0.150959
0.142581
0.13394
0.125171
0.116399
0.10774
0.0992913
0.0911319
0.0833525
0.201323
0.200534
0.198825
0.196267
0.192879
0.188646
0.183563
0.177645
0.170934
0.1635
0.155445
0.146889
0.137972
0.128836
0.119624
0.110466
0.101477
0.0927529
0.084405
0.20421
0.203521
0.202016
0.199733
0.196657
0.192744
0.187959
0.182288
0.175749
0.168391
0.160301
0.151596
0.142414
0.13291
0.123238
0.113548
0.103975
0.094633
0.0856544
0.207081
0.206499
0.205214
0.20323
0.200499
0.196947
0.19251
0.187141
0.18083
0.173602
0.165525
0.156705
0.147282
0.137414
0.127271
0.11702
0.106819
0.0968039
0.0871285
0.209916
0.209445
0.208396
0.206731
0.204376
0.201227
0.197187
0.192177
0.186155
0.179118
0.17111
0.162223
0.152588
0.142371
0.131751
0.120916
0.110045
0.0993006
0.0888576
0.212694
0.21234
0.211538
0.210213
0.208262
0.205554
0.20196
0.197369
0.191701
0.184922
0.177047
0.168148
0.158346
0.147802
0.136709
0.125271
0.113692
0.102162
0.0908753
0.2154
0.215166
0.214621
0.213652
0.212132
0.209901
0.206801
0.202686
0.19744
0.190992
0.183324
0.17448
0.164562
0.153728
0.142174
0.130122
0.117799
0.105429
0.0932187
0.21802
0.217908
0.217629
0.217029
0.215961
0.214241
0.21168
0.208099
0.203345
0.197305
0.189924
0.18121
0.171243
0.160167
0.148176
0.135508
0.122412
0.109149
0.0959282
0.220544
0.220554
0.220548
0.220326
0.21973
0.218548
0.216568
0.213577
0.209384
0.203833
0.196825
0.188329
0.17839
0.167132
0.154742
0.141467
0.127576
0.11337
0.0990484
0.222962
0.223096
0.223364
0.223529
0.223417
0.2228
0.221438
0.21909
0.215525
0.210545
0.204003
0.195819
0.185999
0.174634
0.161898
0.148038
0.133338
0.118146
0.102628
0.22527
0.225526
0.22607
0.226624
0.227008
0.226973
0.226263
0.224606
0.221736
0.217409
0.211427
0.203659
0.194058
0.182678
0.169663
0.155256
0.139746
0.123534
0.106718
0.227462
0.227839
0.228658
0.229601
0.230486
0.23105
0.231018
0.230095
0.22798
0.224387
0.219063
0.211821
0.202554
0.191263
0.178055
0.163156
0.146848
0.129594
0.111377
0.229536
0.230031
0.231123
0.232451
0.233841
0.235011
0.235679
0.235527
0.234224
0.231442
0.226875
0.220272
0.211461
0.200381
0.187083
0.171769
0.154692
0.13639
0.116662
0.231491
0.232101
0.23346
0.235169
0.23706
0.238842
0.240225
0.240874
0.240434
0.238535
0.23482
0.228974
0.220751
0.210017
0.196753
0.181119
0.163323
0.143987
0.122635
0.233328
0.234049
0.235668
0.23775
0.240137
0.242529
0.244636
0.246111
0.246575
0.245626
0.242856
0.237885
0.230387
0.220147
0.207058
0.191227
0.172783
0.152452
0.12936
0.235047
0.235876
0.237747
0.240191
0.243065
0.246063
0.248897
0.251212
0.252616
0.252676
0.250937
0.246956
0.240326
0.230739
0.217987
0.202104
0.183108
0.161851
0.136901
0.236651
0.237583
0.239698
0.242492
0.24584
0.249434
0.252992
0.256157
0.258527
0.259645
0.259017
0.256138
0.250518
0.241752
0.229515
0.21375
0.194327
0.172247
0.14532
0.238145
0.239173
0.241521
0.244652
0.24846
0.252637
0.256911
0.260927
0.26428
0.266496
0.267048
0.265375
0.260906
0.253135
0.241605
0.226153
0.206455
0.183689
0.154667
0.23953
0.24065
0.243221
0.246673
0.250925
0.255667
0.260644
0.265507
0.269851
0.273197
0.274988
0.274617
0.271435
0.264836
0.254221
0.239303
0.21952
0.196239
0.165008
0.240812
0.242019
0.244801
0.248559
0.253237
0.258525
0.264189
0.269887
0.275227
0.279723
0.282805
0.283827
0.282069
0.276827
0.267356
0.253228
0.233608
0.21005
0.176521
0.241995
0.243284
0.246266
0.250314
0.255398
0.261212
0.267541
0.27406
0.280389
0.28605
0.290462
0.292953
0.292743
0.289035
0.280943
0.267875
0.248715
0.22516
0.189331
0.243082
0.244447
0.247614
0.251933
0.2574
0.26371
0.270674
0.277981
0.285269
0.29207
0.297805
0.301777
0.30316
0.301068
0.294477
0.282622
0.264109
0.240573
0.202343
0.244079
0.245508
0.248843
0.253406
0.25922
0.265984
0.27353
0.281562
0.28974
0.297607
0.304587
0.309969
0.312881
0.312357
0.307242
0.296598
0.278802
0.254921
0.213539
0.244997
0.246494
0.249989
0.254785
0.260932
0.268135
0.276256
0.285022
0.294124
0.303135
0.311505
0.318539
0.323356
0.32495
0.322068
0.313637
0.29781
0.275159
0.232126
0.0760489
0.0742538
0.0724587
0.07066
0.0688564
0.0760733
0.0742727
0.0724763
0.0706754
0.068867
0.0760884
0.0742518
0.0724294
0.0706033
0.0687672
0.0761289
0.0742354
0.0723706
0.0705043
0.0686251
0.0761882
0.0742142
0.0722889
0.0703653
0.0684261
0.0762842
0.0742083
0.072205
0.0702083
0.0681929
0.0764264
0.0742263
0.0721265
0.0700398
0.0679313
0.0766308
0.0742838
0.0720683
0.069874
0.0676549
0.0769135
0.0743956
0.0720436
0.0697228
0.0673744
0.0772933
0.0745791
0.0720678
0.0696002
0.0671024
0.0777907
0.0748529
0.0721572
0.0695203
0.0668515
0.0784287
0.0752375
0.0723295
0.0694989
0.0666352
0.0792326
0.0757554
0.0726038
0.0695524
0.0664679
0.0802303
0.0764311
0.0730012
0.0696988
0.0663649
0.0814526
0.0772917
0.0735441
0.0699574
0.0663425
0.0829338
0.0783668
0.0742574
0.0703492
0.0664184
0.0847116
0.0796893
0.0751685
0.0708973
0.0666116
0.0868284
0.0812959
0.0763076
0.071627
0.0669433
0.0893316
0.083228
0.0777089
0.0725669
0.0674371
0.0922746
0.0855324
0.079411
0.0737494
0.0681195
0.095718
0.0882626
0.0814582
0.0752113
0.0690212
0.09973
0.0914798
0.083901
0.0769953
0.0701775
0.104388
0.095254
0.086798
0.0791508
0.0716298
0.109779
0.0996654
0.090216
0.0817348
0.0734265
0.116
0.104804
0.0942315
0.0848136
0.0756243
0.123158
0.11077
0.0989301
0.0884622
0.0782888
0.131367
0.117671
0.104407
0.0927664
0.0814958
0.14074
0.125618
0.110761
0.0978194
0.0853298
0.151386
0.134708
0.118089
0.103719
0.089883
0.0760604
0.163452
0.145054
0.1265
0.110574
0.0952561
0.0799386
0.177081
0.156761
0.136082
0.11845
0.101489
0.0845196
0.192133
0.169927
0.147083
0.127652
0.108886
0.0901036
0.208206
0.184656
0.160117
0.138933
0.118155
0.0973277
0.220136
0.193712
0.168371
0.145723
0.123212
0.100758
)
;

boundaryField
{
    inlet
    {
        type            zeroGradient;
    }
    outlet
    {
        type            fixedValue;
        value           nonuniform 0();
    }
    cylinder
    {
        type            zeroGradient;
    }
    top
    {
        type            symmetryPlane;
    }
    bottom
    {
        type            symmetryPlane;
    }
    defaultFaces
    {
        type            empty;
    }
    procBoundary0to1
    {
        type            processor;
        value           nonuniform List<scalar> 
152
(
0.109534
0.109534
0.118032
0.118032
0.12941
0.12941
0.143328
0.172146
0.172146
0.189439
0.189439
0.209006
0.241319
0.241319
0.265265
0.265265
0.292442
0.327363
0.36161
0.36161
0.394873
0.429138
0.429138
0.467058
0.500529
0.532529
0.532529
0.574574
0.604502
0.632465
0.65833
0.65833
0.700697
0.72284
0.742455
0.759448
0.773736
0.785251
0.793937
0.799751
0.802665
0.802665
0.799751
0.793937
0.785251
0.773736
0.759448
0.742455
0.72284
0.700697
0.65833
0.65833
0.632465
0.604502
0.574574
0.532529
0.532529
0.500529
0.467058
0.429138
0.429138
0.394873
0.36161
0.36161
0.327363
0.298819
0.298819
0.265265
0.241319
0.241319
0.209006
0.189439
0.189439
0.172146
0.172146
0.143328
0.12941
0.12941
0.118032
0.118032
0.109534
0.109534
0.0786466
0.0768516
0.0716488
0.0678316
0.0648628
0.0624492
0.060571
0.0591451
0.0580969
0.0573642
0.0568937
0.0566406
0.0633451
0.0633451
0.0628116
0.0624663
0.0622809
0.0622313
0.0622963
0.0624573
0.0626975
0.0630015
0.063355
0.0637444
0.0641572
0.0645811
0.0650045
0.0654164
0.0658056
0.0661625
0.0664741
0.0667352
0.0669224
0.067052
0.0670485
0.0670486
0.067052
0.0669224
0.0667353
0.0664741
0.0661625
0.0658056
0.0654165
0.0650045
0.0645812
0.0641572
0.0637445
0.063355
0.0630016
0.0626976
0.0624574
0.0622964
0.0622314
0.062281
0.0624664
0.0628117
0.0633452
0.0641002
0.0651162
0.0664402
0.0681274
0.0702424
0.0728589
0.0728589
0.0624493
0.0648628
0.0678317
0.0716489
0.0768517
0.0786466
)
;
    }
}


// ************************************************************************* //
