/*--------------------------------*- C++ -*----------------------------------*\
  =========                 |
  \\      /  F ield         | OpenFOAM: The Open Source CFD Toolbox
   \\    /   O peration     | Website:  https://openfoam.org
    \\  /    A nd           | Version:  7
     \\/     M anipulation  |
\*---------------------------------------------------------------------------*/
FoamFile
{
    version     2.0;
    format      ascii;
    class       surfaceScalarField;
    location    "25";
    object      phi;
}
// * * * * * * * * * * * * * * * * * * * * * * * * * * * * * * * * * * * * * //

dimensions      [0 3 -1 0 0 0 0];

internalField   nonuniform List<scalar> 
5892
(
-0.00529846
-0.000821631
-0.000762563
-0.00489973
-0.00515768
-0.000903347
-0.000692285
-0.00452448
-0.000832133
-0.00475988
-0.00500718
-0.000982635
-0.00075094
-0.00439261
-0.000897745
-0.00461308
-0.00484572
-0.0010592
-0.000670041
-0.00404074
-0.000806389
-0.00425627
-0.000958122
-0.00446134
-0.00466984
-0.001134
-0.000590609
-0.00369151
-0.00071946
-0.00391189
-0.000859392
-0.00411634
-0.00100906
-0.00431168
-0.00450592
-0.00117298
-0.000633861
-0.00356893
-0.000767791
-0.00377796
-0.000912414
-0.00397171
-0.00106725
-0.00415684
-0.00433826
-0.00123491
-0.000547911
-0.00322215
-0.000675704
-0.00344113
-0.000814655
-0.00363901
-0.000964142
-0.00382223
-0.00112391
-0.00399707
-0.00416753
-0.00129465
-0.000462234
-0.00286774
-0.000583183
-0.0031012
-0.00071594
-0.00330838
-0.000859659
-0.00349529
-0.00101369
-0.0036682
-0.00117769
-0.00383306
-0.00399359
-0.00135164
-0.000491201
-0.00275457
-0.000617003
-0.0029754
-0.00075444
-0.00317094
-0.000902621
-0.00334711
-0.00106084
-0.00350998
-0.00122864
-0.00366526
-0.00381655
-0.00140568
-0.000518922
-0.00263672
-0.000649301
-0.00284502
-0.000791133
-0.00302911
-0.000943475
-0.00319477
-0.00110557
-0.00334788
-0.00127688
-0.00349395
-0.0036365
-0.00145693
-0.000423062
-0.00229034
-0.000545348
-0.00251443
-0.000680032
-0.00271033
-0.000825981
-0.00288316
-0.000982207
-0.00303854
-0.00114792
-0.00318217
-0.00132253
-0.00331934
-0.00345351
-0.00150552
-0.00044399
-0.00217744
-0.000570446
-0.00238797
-0.000709169
-0.00257161
-0.000858969
-0.00273336
-0.00101883
-0.00287869
-0.00118792
-0.00301307
-0.00136566
-0.00314159
-0.00326764
-0.00155154
-0.00034695
-0.00183401
-0.000463817
-0.00206057
-0.000594186
-0.0022576
-0.00073669
-0.0024291
-0.000890093
-0.00257995
-0.00105335
-0.00271543
-0.00122563
-0.00284079
-0.00140635
-0.00296087
-0.00307894
-0.00159505
-0.000361939
-0.00172839
-0.000482519
-0.00193999
-0.000616546
-0.00212358
-0.000762582
-0.00228307
-0.000919347
-0.00242319
-0.00108578
-0.002549
-0.00126106
-0.00266551
-0.00144463
-0.0027773
-0.0028875
-0.00163607
-0.000376026
-0.00161935
-0.000500072
-0.00181595
-0.000637508
-0.00198614
-0.000786832
-0.00213375
-0.00094673
-0.00226329
-0.00111613
-0.0023796
-0.00129424
-0.0024874
-0.00148052
-0.00259102
-0.00269342
-0.0016746
-0.000276965
-0.00129819
-0.000389191
-0.00150712
-0.000516457
-0.00168868
-0.000657055
-0.00184554
-0.000809428
-0.00198137
-0.000972235
-0.00210048
-0.00114441
-0.00220742
-0.00132517
-0.00230664
-0.00151401
-0.00240218
-0.00249681
-0.00171062
-0.000286244
-0.00119996
-0.000401416
-0.00139195
-0.000531655
-0.00155844
-0.000675172
-0.00170203
-0.000830358
-0.00182619
-0.000995855
-0.00193499
-0.0011706
-0.00203268
-0.00135383
-0.00212341
-0.00154508
-0.00221093
-0.00229779
-0.0017441
-0.000294805
-0.00109916
-0.000412684
-0.00127407
-0.000545651
-0.00142548
-0.000691843
-0.00155583
-0.00084961
-0.00166842
-0.00101758
-0.00176702
-0.00119469
-0.00185557
-0.00138021
-0.00193789
-0.00157371
-0.00201742
-0.00209651
-0.00177499
-0.000302635
-0.000996001
-0.000422979
-0.00115373
-0.000558428
-0.00129003
-0.000707054
-0.00140721
-0.00086717
-0.00150831
-0.00103739
-0.0015968
-0.00121667
-0.00167629
-0.0014043
-0.00175027
-0.00159988
-0.00182184
-0.00189313
-0.00180326
-0.000204438
-0.000729749
-0.00030972
-0.000890719
-0.000432287
-0.00103116
-0.000569973
-0.00115234
-0.000720791
-0.00125639
-0.000883024
-0.00134607
-0.00105528
-0.00142454
-0.00123652
-0.00149505
-0.00142606
-0.00156072
-0.00162355
-0.00162435
-0.00168782
-0.00182886
-0.000208872
-0.000642291
-0.000316048
-0.000783544
-0.000440595
-0.000906611
-0.000580271
-0.00101266
-0.000733041
-0.00110362
-0.000897159
-0.00118195
-0.00107123
-0.00125047
-0.00125422
-0.00131205
-0.00144549
-0.00136946
-0.00164469
-0.00142514
-0.00148077
-0.00185174
-0.000212772
-0.000553335
-0.000321608
-0.000674708
-0.000447891
-0.000780328
-0.000589311
-0.000871244
-0.00074379
-0.000949141
-0.000909561
-0.00101618
-0.00108522
-0.00107481
-0.00126976
-0.00112751
-0.00146254
-0.00117668
-0.00166326
-0.00122442
-0.00127217
-0.00187186
-0.000216129
-0.00046309
-0.000326392
-0.000564444
-0.000454165
-0.000652555
-0.000597082
-0.000728327
-0.000753027
-0.000793196
-0.000920217
-0.000848994
-0.00109725
-0.000897778
-0.00128312
-0.000941643
-0.00147721
-0.000982592
-0.00167925
-0.00102239
-0.00106223
-0.00188919
-0.000218937
-0.000371769
-0.000330392
-0.000452989
-0.000459408
-0.000523539
-0.000603573
-0.000584162
-0.000760742
-0.000636027
-0.000929116
-0.00068062
-0.00110729
-0.0007196
-0.00129428
-0.000754659
-0.00148947
-0.000787403
-0.00169261
-0.000819249
-0.000851153
-0.00190368
-0.00022119
-0.000279584
-0.0003336
-0.000340579
-0.000463612
-0.000393527
-0.000608777
-0.000438997
-0.000766925
-0.000477879
-0.000936249
-0.000511297
-0.00111534
-0.000540505
-0.00130322
-0.000566779
-0.0014993
-0.00059133
-0.00170332
-0.00061522
-0.000639169
-0.00191531
-0.000222883
-0.00018675
-0.000336011
-0.000227451
-0.00046677
-0.000262767
-0.000612686
-0.000293082
-0.00077157
-0.000318995
-0.000941606
-0.000341261
-0.00112139
-0.000360721
-0.00130994
-0.000378228
-0.00150668
-0.000394591
-0.00171138
-0.000410521
-0.000426497
-0.00192405
-0.000224014
-9.34834e-05
-0.00033762
-0.000113845
-0.000468879
-0.000131508
-0.000615294
-0.000146666
-0.000774669
-0.00015962
-0.00094518
-0.000170749
-0.00112543
-0.000180476
-0.00131443
-0.000189226
-0.00151161
-0.000197407
-0.00171676
-0.000205373
-0.000213364
-0.00192989
-0.00022458
1.35465e-11
-0.000338425
1.62461e-11
-0.000469933
1.84141e-11
-0.0006166
2.00782e-11
-0.00077622
2.12937e-11
-0.000946969
2.20821e-11
-0.00112744
2.24828e-11
-0.00131667
2.25521e-11
-0.00151408
2.23001e-11
-0.00171945
2.17993e-11
2.106e-11
-0.00193281
-0.00022458
9.34834e-05
-0.000338425
0.000113845
-0.000469933
0.000131508
-0.0006166
0.000146666
-0.00077622
0.00015962
-0.000946969
0.000170749
-0.00112744
0.000180476
-0.00131667
0.000189226
-0.00151408
0.000197407
-0.00171945
0.000205373
0.000213364
-0.00193281
-0.000224014
0.00018675
-0.00033762
0.000227451
-0.000468879
0.000262767
-0.000615294
0.000293082
-0.000774669
0.000318995
-0.00094518
0.000341261
-0.00112543
0.000360721
-0.00131443
0.000378228
-0.00151161
0.000394591
-0.00171676
0.000410521
0.000426497
-0.00192989
-0.000222883
0.000279584
-0.000336011
0.000340579
-0.00046677
0.000393527
-0.000612686
0.000438997
-0.00077157
0.000477879
-0.000941606
0.000511297
-0.00112139
0.000540505
-0.00130994
0.000566779
-0.00150668
0.00059133
-0.00171138
0.00061522
0.000639169
-0.00192405
-0.00022119
0.000371769
-0.0003336
0.000452989
-0.000463612
0.000523539
-0.000608777
0.000584162
-0.000766925
0.000636027
-0.000936249
0.00068062
-0.00111534
0.0007196
-0.00130322
0.000754659
-0.0014993
0.000787403
-0.00170332
0.000819249
0.000851153
-0.00191531
-0.000218937
0.00046309
-0.000330392
0.000564444
-0.000459408
0.000652555
-0.000603573
0.000728327
-0.000760742
0.000793196
-0.000929116
0.000848995
-0.00110729
0.000897778
-0.00129428
0.000941643
-0.00148947
0.000982592
-0.00169261
0.00102239
0.00106223
-0.00190368
-0.000216129
0.000553335
-0.000326392
0.000674708
-0.000454165
0.000780328
-0.000597082
0.000871244
-0.000753027
0.000949141
-0.000920217
0.00101618
-0.00109725
0.00107481
-0.00128312
0.00112751
-0.00147721
0.00117668
-0.00167925
0.00122442
0.00127217
-0.00188919
-0.000212772
0.000642291
-0.000321608
0.000783544
-0.000447891
0.000906611
-0.000589311
0.00101266
-0.00074379
0.00110362
-0.000909561
0.00118195
-0.00108522
0.00125047
-0.00126976
0.00131205
-0.00146254
0.00136946
-0.00166326
0.00142514
0.00148077
-0.00187186
-0.000208872
0.000729749
-0.000316048
0.000890719
-0.000440595
0.00103116
-0.000580271
0.00115234
-0.000733041
0.00125639
-0.000897159
0.00134607
-0.00107123
0.00142454
-0.00125422
0.00149505
-0.00144549
0.00156072
-0.00164469
0.00162435
0.00168782
-0.00185174
-0.000204438
-0.00030972
0.000996001
-0.000432287
0.00115373
-0.000569973
0.00129003
-0.000720791
0.00140721
-0.000883024
0.00150831
-0.00105528
0.0015968
-0.00123652
0.00167629
-0.00142606
0.00175027
-0.00162355
0.00182184
0.00189313
-0.00182886
-0.000302635
0.00109916
-0.000422979
0.00127407
-0.000558428
0.00142548
-0.000707054
0.00155583
-0.00086717
0.00166842
-0.00103739
0.00176702
-0.00121667
0.00185557
-0.0014043
0.00193789
-0.00159988
0.00201742
0.00209651
-0.00180326
-0.000294805
0.00119997
-0.000412684
0.00139195
-0.000545651
0.00155844
-0.000691843
0.00170203
-0.00084961
0.00182619
-0.00101758
0.00193499
-0.00119469
0.00203268
-0.00138021
0.00212341
-0.00157371
0.00221093
0.00229779
-0.00177499
-0.000286244
0.00129819
-0.000401416
0.00150712
-0.000531655
0.00168868
-0.000675172
0.00184554
-0.000830358
0.00198137
-0.000995855
0.00210048
-0.0011706
0.00220742
-0.00135383
0.00230664
-0.00154508
0.00240218
0.00249681
-0.0017441
-0.000276965
-0.000389191
0.00161935
-0.000516457
0.00181595
-0.000657055
0.00198614
-0.000809428
0.00213375
-0.000972235
0.00226329
-0.00114441
0.0023796
-0.00132517
0.0024874
-0.00151401
0.00259102
0.00269342
-0.00171062
-0.000376026
0.00172839
-0.000500072
0.00193999
-0.000637508
0.00212358
-0.000786832
0.00228307
-0.00094673
0.00242319
-0.00111613
0.002549
-0.00129424
0.00266551
-0.00148052
0.0027773
0.0028875
-0.0016746
-0.000361939
0.00183401
-0.000482519
0.00206057
-0.000616546
0.0022576
-0.000762582
0.00242911
-0.000919347
0.00257995
-0.00108578
0.00271543
-0.00126106
0.00284079
-0.00144463
0.00296087
0.00307894
-0.00163607
-0.00034695
-0.000463817
0.00217744
-0.000594186
0.00238797
-0.00073669
0.00257161
-0.000890093
0.00273336
-0.00105335
0.00287869
-0.00122563
0.00301307
-0.00140635
0.00314159
0.00326764
-0.00159505
-0.00044399
0.00229034
-0.000570446
0.00251443
-0.000709169
0.00271033
-0.000858969
0.00288316
-0.00101883
0.00303854
-0.00118792
0.00318217
-0.00136566
0.00331934
0.00345351
-0.00155154
-0.000423062
-0.000545348
0.00263672
-0.000680032
0.00284502
-0.000825981
0.00302911
-0.000982207
0.00319477
-0.00114792
0.00334788
-0.00132253
0.00349395
0.0036365
-0.00150552
-0.000518922
0.00275457
-0.000649301
0.0029754
-0.000791133
0.00317094
-0.000943475
0.00334711
-0.00110557
0.00350998
-0.00127688
0.00366526
0.00381655
-0.00145693
-0.000491201
-0.000617003
0.0031012
-0.00075444
0.00330838
-0.000902621
0.00349529
-0.00106084
0.0036682
-0.00122864
0.00383306
0.00399359
-0.00140568
-0.000583183
0.00322215
-0.00071594
0.00344113
-0.000859659
0.00363901
-0.00101369
0.00382223
-0.00117769
0.00399707
0.00416753
-0.00135164
-0.000547911
-0.000675704
0.00356893
-0.000814655
0.00377796
-0.000964142
0.00397171
-0.00112391
0.00415684
0.00433826
-0.00129465
-0.000633861
0.00369151
-0.000767791
0.00391189
-0.000912414
0.00411634
-0.00106725
0.00431168
0.00450592
-0.00123491
-0.000590609
-0.00071946
0.00404074
-0.000859392
0.00425627
-0.00100906
0.00446134
0.00466984
-0.00117298
-0.000670041
-0.000806389
0.00439261
-0.000958122
0.00461308
0.00484572
-0.001134
-0.00075094
0.00452448
-0.000897745
0.00475988
0.00500718
-0.0010592
-0.000692285
-0.000832133
0.00489973
0.00515768
-0.000982635
-0.000762563
0.00529846
-0.000903347
-0.000821631
0.00424518
-0.00118643
-0.00419275
0.00429981
-0.00111383
0.00435583
-0.00103866
0.00441165
-0.000959163
0.00446681
-0.000876794
-0.000792242
0.00452674
-0.00123649
-0.00447669
0.00457526
-0.00116235
0.00462384
-0.00108723
0.00467247
-0.00100779
0.00472092
-0.000925245
-0.000840491
0.00481318
-0.00127864
-0.00477102
0.00485516
-0.00120432
0.004897
-0.00112907
0.00493902
-0.00104982
0.00498123
-0.000967449
-0.000882843
0.00510693
-0.00131408
-0.00507149
0.00514265
-0.00124005
0.00517834
-0.00116476
0.00521427
-0.00108575
0.00525052
-0.00100371
-0.000919423
0.00540733
-0.00134349
-0.00537792
0.00543717
-0.00126988
0.00546707
-0.00119466
0.00549727
-0.00111594
0.00552788
-0.00103432
-0.000950478
0.00571449
-0.00136705
-0.00569093
0.00573858
-0.00129397
0.00576285
-0.00121893
0.00578751
-0.0011406
0.0058127
-0.00105951
-0.000976239
0.0060287
-0.00138482
-0.00601093
0.0060471
-0.00131238
0.00606585
-0.00123768
0.00608513
-0.00115988
0.00610508
-0.00107946
-0.000996908
0.00635033
-0.00139686
-0.00633829
0.00636312
-0.00132517
0.00637645
-0.00125101
0.00639048
-0.00117391
0.00640534
-0.00109432
-0.00101265
0.0066799
-0.00140324
-0.00667352
0.00668718
-0.00133245
0.00669518
-0.00125901
0.00670407
-0.0011828
0.00671397
-0.00110422
-0.00102362
0.00701799
-0.00140406
-0.00701717
0.00701983
-0.0013343
0.00702262
-0.0012618
0.00702648
-0.00118666
0.00703153
-0.00110927
-0.00102993
0.00736515
-0.00139941
-0.00736981
0.00736168
-0.00133083
0.00735935
-0.00125946
0.00735829
-0.0011856
0.00735861
-0.00110959
-0.00103169
0.00772197
-0.00138938
-0.007732
0.00771329
-0.00132214
0.00770594
-0.00125212
0.00770006
-0.00117973
0.00769576
-0.00110529
0.00808899
-0.00137409
-0.00810429
0.0080752
-0.00130835
0.00806295
-0.00123987
0.00805236
-0.00116914
-0.00109646
0.00846675
-0.00135362
-0.00848721
0.00844796
-0.00128956
0.00843091
-0.00122282
0.00841572
-0.00115394
-0.00108321
0.00885576
-0.00132809
-0.00888129
0.00883209
-0.00126589
0.00881034
-0.00120107
0.00879064
-0.00113424
-0.00106563
0.00925656
-0.00129762
-0.00928704
0.00922811
-0.00123743
0.00920177
-0.00117473
0.00917765
-0.00111012
-0.00104381
0.00966969
-0.0012623
-0.009705
0.00963656
-0.0012043
0.00960572
-0.0011439
0.00957729
-0.00108168
-0.00101785
0.0100957
-0.00122225
-0.0101358
0.010058
-0.0011666
0.0100228
-0.00110866
0.0099901
-0.00104901
-0.000987812
0.0105353
-0.00117757
-0.0105799
0.0104931
-0.00112443
0.0104535
-0.00106911
0.0104167
-0.00101218
-0.000953788
0.010989
-0.00112835
-0.0110382
0.0109424
-0.00107787
0.0108987
-0.00102534
0.0108578
-0.000971289
-0.000915847
0.0114577
-0.00107468
-0.0115113
0.0114068
-0.00102701
0.0113589
-0.000977421
0.011314
-0.000926397
-0.000874057
0.0119421
-0.00101666
-0.0120002
0.0118871
-0.000971939
0.0118351
-0.000925428
0.0117863
-0.000877574
-0.00082848
0.0124433
-0.000954367
-0.0125056
0.0123841
-0.000912723
0.0123281
-0.000869428
0.0122754
-0.000824882
-0.000779173
0.0129623
-0.000887863
-0.0130288
0.012899
-0.000849429
0.0128391
-0.000809482
0.0127826
-0.000768376
-0.000726187
0.0135003
-0.000817212
-0.013571
0.013433
-0.000782114
0.0133691
-0.00074564
0.0133089
-0.000708103
-0.000669566
0.0140586
-0.000742466
-0.0141334
0.0139873
-0.000710824
0.0139196
-0.000677945
0.0138556
-0.000644101
-0.000609345
0.0146388
-0.000663666
-0.0147176
0.0145635
-0.000635596
0.014492
-0.000606432
0.0144243
-0.000576403
-0.000545553
0.0152425
-0.00058084
-0.0153253
0.0151634
-0.000556457
0.015088
-0.000531123
0.0150167
-0.000505029
-0.000478212
0.0158717
-0.000494009
-0.0159585
0.0157887
-0.000473424
0.0157096
-0.000452034
0.0156345
-0.000429994
-0.000407334
0.0165285
-0.000403182
-0.0166193
0.0164416
-0.000386505
0.0163587
-0.000369171
0.01628
-0.000351304
-0.000332924
0.0172153
-0.000308362
-0.0173102
0.0171245
-0.000295701
0.0170379
-0.000282536
0.0169555
-0.00026896
-0.000254987
0.0179349
-0.00020955
-0.0180337
0.0178402
-0.000201011
0.0177498
-0.000192127
0.0176638
-0.00018296
-0.000173519
0.01869
-0.000106748
-0.0187928
0.0185915
-0.000102434
0.0184973
-9.79428e-05
0.0184076
-9.33047e-05
-8.85245e-05
0.0194843
-0.0195911
0.0193819
0.0192839
0.0191906
0.00444972
0.000100064
-9.53446e-05
0.00443704
0.000274109
-0.000261429
0.0044176
0.00043119
-0.00041175
0.0043922
0.000578897
-0.000553496
0.00436146
0.00072633
-0.000695596
0.00432596
0.000877108
-0.000841609
0.00428637
0.00103474
-0.000995143
0.00424351
0.00120101
-0.00115816
0.00419853
0.00137716
-0.00133218
0.00415291
0.00156352
-0.0015179
0.00410863
0.00175956
-0.00171528
0.0040682
0.00196378
-0.00192335
0.00403471
0.00217345
-0.00213996
0.00401179
0.00238447
-0.00236155
0.00400342
0.002591
-0.00258263
0.00401322
0.00278496
-0.00279476
0.00404368
0.00295602
-0.00298648
0.00409625
0.00308643
-0.003139
0.00314863
-0.00324514
0.00464085
0.000104766
0.00462813
0.000286826
0.00460869
0.000450632
0.00458336
0.000604225
0.00455288
0.000756811
0.00451791
0.000912071
0.00447928
0.00107337
0.004438
0.0012423
0.00439539
0.00141977
0.00435319
0.00160571
0.00431362
0.00179913
0.0042794
0.00199799
0.00425383
0.00219903
0.00424058
0.00239771
0.00424361
0.00258796
0.00426646
0.00276211
0.00431212
0.00291037
0.00438087
0.00301768
0.00305281
0.0048402
0.000109428
0.00482755
0.000299478
0.00480824
0.000469933
0.00478319
0.000629279
0.00475322
0.000786787
0.00471911
0.000946181
0.00468182
0.00111066
0.00464254
0.00128158
0.00460279
0.00145952
0.00456452
0.00164399
0.00453013
0.00183352
0.00450253
0.00202559
0.00448508
0.00221648
0.00448143
0.00240136
0.00449535
0.00257405
0.00453007
0.00272739
0.00458809
0.00285235
0.00466775
0.00293801
0.00294955
0.00504814
0.000114013
0.00503565
0.000311964
0.00501665
0.000488932
0.00499209
0.000653838
0.0049629
0.000815976
0.00492999
0.000979094
0.00489446
0.00114619
0.00485765
0.00131839
0.00482128
0.00149589
0.00478747
0.0016778
0.00475877
0.00186222
0.00473818
0.00204618
0.00472905
0.00222561
0.0047349
0.00239551
0.00475916
0.00254979
0.00480459
0.00268196
0.00487299
0.00278394
0.00496272
0.00284828
0.00284077
0.00526503
0.000118486
0.00525282
0.000324176
0.00523429
0.000507457
0.00521047
0.000677667
0.00518236
0.000844077
0.00515102
0.00101044
0.00511767
0.00117954
0.00508382
0.00135223
0.00505135
0.00152836
0.00502252
0.00170664
0.00499998
0.00188475
0.00498676
0.0020594
0.0049861
0.00222627
0.00500127
0.00238034
0.00503528
0.00251578
0.00509032
0.00262692
0.00516748
0.00270679
0.00526509
0.00275067
0.00272794
0.00549126
0.000122807
0.00547944
0.000336
0.00546157
0.000525323
0.00543873
0.000700513
0.00541203
0.000870775
0.00538263
0.00103985
0.0053519
0.00121026
0.00532151
0.00138262
0.00529345
0.00155642
0.00527008
0.00173001
0.00525412
0.00190071
0.00524853
0.00206499
0.00525638
0.00221842
0.0052806
0.00235612
0.00532367
0.00247271
0.00538721
0.00256338
0.00547157
0.00262243
0.00557497
0.00264727
0.00261199
0.00572724
0.000126934
0.00571592
0.000347314
0.00569891
0.000542336
0.00567731
0.000722114
0.00565235
0.000895738
0.00562528
0.00106691
0.00559763
0.00123792
0.00557116
0.00140909
0.00554799
0.00157959
0.00553054
0.00174745
0.00552151
0.00190975
0.00552373
0.00206277
0.00554001
0.00220214
0.00557289
0.00232325
0.00562429
0.00242131
0.00569524
0.00249243
0.0057854
0.00253227
0.00589288
0.00253978
0.00249394
0.00597337
0.000130824
0.0059627
0.000357991
0.00594674
0.000558294
0.00592666
0.000742193
0.00590377
0.000918625
0.00587945
0.00109124
0.00585531
0.00126206
0.00583323
0.00143116
0.00581541
0.00159742
0.00580427
0.0017586
0.00580243
0.00191159
0.00581254
0.00205266
0.0058371
0.00217758
0.00587817
0.00228218
0.00593713
0.00236235
0.00601442
0.00241514
0.00610915
0.00243754
0.0062193
0.00242963
0.00237495
0.00623011
0.00013443
0.0062202
0.000367895
0.00620551
0.000572981
0.00618724
0.000760464
0.00616678
0.000939088
0.00614559
0.00111242
0.0061254
0.00128225
0.00610816
0.0014484
0.00609609
0.00160949
0.00609158
0.0017631
0.00609712
0.00190605
0.00611512
0.00203466
0.00614769
0.00214501
0.00619643
0.00223344
0.00626217
0.00229662
0.0063448
0.0023325
0.00644302
0.00233932
0.00655463
0.00231802
0.00225606
0.00649789
0.000137701
0.0064889
0.000376884
0.0064757
0.000586178
0.00645953
0.000776636
0.00644185
0.000956773
0.0064242
0.00113007
0.00640837
0.00129807
0.00639638
0.00146039
0.00639041
0.00161545
0.00639279
0.00176072
0.00640582
0.00189302
0.0064316
0.00200888
0.00647185
0.00210476
0.00652768
0.0021776
0.0065994
0.0022249
0.00668645
0.00224545
0.00678717
0.0022386
0.00689926
0.00220593
0.00213816
0.0067772
0.000140586
0.00676927
0.000384812
0.0067578
0.000597656
0.00674402
0.00079041
0.00672946
0.00097133
0.00671574
0.0011438
0.00670467
0.00130913
0.00669829
0.00146678
0.00669873
0.00161501
0.00670818
0.00175128
0.0067287
0.0018725
0.00676207
0.0019755
0.00680959
0.00205724
0.00687189
0.0021153
0.00694883
0.00214796
0.00703943
0.00215484
0.00714181
0.00213622
0.00725359
0.00209415
0.00202195
0.00706853
0.000143029
0.00706182
0.000391524
0.00705229
0.000607184
0.00704122
0.000801487
0.00703013
0.000982413
0.0070207
0.00115324
0.00701476
0.00131507
0.0070143
0.00146724
0.00702138
0.00160794
0.00703799
0.00173467
0.00706593
0.00184457
0.00710662
0.00193481
0.00716093
0.00200293
0.00722907
0.00204715
0.00731047
0.00206656
0.00740385
0.00206146
0.00750716
0.00203291
0.00761801
0.0019833
0.00190796
0.0073724
0.000144974
0.00736706
0.000396864
0.00735972
0.000614526
0.00735163
0.000809573
0.00734436
0.000989687
0.00733956
0.00115804
0.00733907
0.00131556
0.0073448
0.0014615
0.00735867
0.00159407
0.00738246
0.00171088
0.00741766
0.00180937
0.00746532
0.00188715
0.00752591
0.00194234
0.00759924
0.00197383
0.00768439
0.00198142
0.00777984
0.00196601
0.00788346
0.00192928
0.0079929
0.00187386
0.00179658
0.00768934
0.000146365
0.00768553
0.000400676
0.00768061
0.00061945
0.0076758
0.000814378
0.00767266
0.000992834
0.00767281
0.00115788
0.00767805
0.00131033
0.00769017
0.00144938
0.00771092
0.00157332
0.00774181
0.00167998
0.00778403
0.00176715
0.00783826
0.00183293
0.00790458
0.00187602
0.00798245
0.00189596
0.00807068
0.00189319
0.00816757
0.00186912
0.00827099
0.00182585
0.00837867
0.00176618
0.00168803
0.00801992
0.000147145
0.00801779
0.000402801
0.00801552
0.000621727
0.00801427
0.000815625
0.00801554
0.000991561
0.00802093
0.00115249
0.00803212
0.00129914
0.00805077
0.00143073
0.0080784
0.00154569
0.00811627
0.00164212
0.00816521
0.00171821
0.00822555
0.00177259
0.00829703
0.00180453
0.0083788
0.00181419
0.00846948
0.00180251
0.00856727
0.00177133
0.00867007
0.00172305
0.00877573
0.00166052
0.00158248
0.0083647
0.000147258
0.00836442
0.000403086
0.00836501
0.000621137
0.00836758
0.000813056
0.00837354
0.000985599
0.0083844
0.00114163
0.00840172
0.00128182
0.00842697
0.00140548
0.00846142
0.00151123
0.00850604
0.0015975
0.00856134
0.00166291
0.0086273
0.00170662
0.00870337
0.00172847
0.00878845
0.0017291
0.00888101
0.00170995
0.00897922
0.00167312
0.00908106
0.00162122
0.00918452
0.00155706
0.00147996
0.00872431
0.00014665
0.00872601
0.000401383
0.00872967
0.000617472
0.0087363
0.00080643
0.00874718
0.000974715
0.00876371
0.0011251
0.00878727
0.00125826
0.00881912
0.00137364
0.00886027
0.00147008
0.00891137
0.00154639
0.00897262
0.00160166
0.0090437
0.00163555
0.00912378
0.00164839
0.0092116
0.00164128
0.00930554
0.00161601
0.00940376
0.0015749
0.00950437
0.00152061
0.00960553
0.00145591
0.00138048
0.00909936
0.00014527
0.00910319
0.000397555
0.00911012
0.00061054
0.00912101
0.000795538
0.00913701
0.000958713
0.00915935
0.00110277
0.0091892
0.00122841
0.00922759
0.00133525
0.00927525
0.00142242
0.00933251
0.00148913
0.00939928
0.0015349
0.00947495
0.00155987
0.00955851
0.00156483
0.00964854
0.00155125
0.0097434
0.00152115
0.00984131
0.00147699
0.00994048
0.00142143
0.0100393
0.00135712
0.00128399
0.00949051
0.000143073
0.00949659
0.000391474
0.00950696
0.00060017
0.0095223
0.000780198
0.00954358
0.000937439
0.00957181
0.00107453
0.00960796
0.00119226
0.00965277
0.00129043
0.00970669
0.00136851
0.00976975
0.00142606
0.00984158
0.00146307
0.00992134
0.0014801
0.0100079
0.00147832
0.0100996
0.00145947
0.010195
0.00142576
0.0102923
0.00137968
0.0103899
0.00132383
0.0104863
0.0012607
0.0011904
0.00989846
0.000140015
0.0099069
0.00038303
0.00992085
0.000586217
0.00994079
0.000760265
0.00996744
0.000910784
0.0100016
0.00104036
0.010044
0.00114988
0.0100951
0.00123937
0.0101549
0.00130862
0.0102234
0.00135758
0.0102999
0.00138665
0.0103832
0.00139674
0.0104722
0.00138933
0.0105653
0.00136637
0.0106609
0.00133017
0.0107574
0.00128318
0.0108533
0.0012279
0.0109474
0.00116664
0.0010996
0.0103239
0.000136062
0.0103348
0.000372128
0.0103525
0.000568561
0.0103771
0.000735632
0.0104092
0.000878687
0.0104493
0.00100027
0.0104978
0.00110138
0.0105549
0.00118228
0.0106204
0.00124308
0.0106939
0.00128409
0.0107745
0.00130606
0.010861
0.00131023
0.0109521
0.00129828
0.0110461
0.00127231
0.0111417
0.00123463
0.0112372
0.00118763
0.0113314
0.00113367
0.0114232
0.00107487
0.00101145
0.0107676
0.000131185
0.010781
0.000358693
0.0108025
0.000547114
0.0108319
0.000706231
0.0108694
0.000841129
0.0109154
0.000954313
0.0109699
0.0010469
0.0110327
0.0011194
0.0111036
0.00117222
0.0111817
0.00120599
0.011266
0.00122176
0.0113552
0.001221
0.011448
0.00120556
0.0115427
0.00117759
0.011638
0.00113935
0.0117324
0.00109316
0.0118249
0.00104116
0.0119145
0.000985303
0.000925805
0.0112303
0.000125362
0.0112463
0.000342672
0.0112716
0.000521818
0.0113058
0.000672033
0.0113488
0.000798139
0.0114005
0.0009026
0.0114608
0.000986654
0.0115291
0.00105102
0.011605
0.00109639
0.0116873
0.00112367
0.0117749
0.00113413
0.0118665
0.00112941
0.0119606
0.00111147
0.0120558
0.00108243
0.0121506
0.00104449
0.012244
0.000999786
0.0123348
0.000950321
0.0124223
0.000897816
0.000842488
0.0117128
0.000118579
0.0117315
0.000324032
0.0117606
0.000492647
0.0117996
0.000633047
0.011848
0.000749785
0.0119053
0.000845271
0.0119711
0.000920848
0.0120447
0.000977434
0.0121252
0.00101594
0.0122113
0.00103748
0.0123019
0.00104352
0.0123956
0.0010358
0.0124908
0.00101627
0.0125862
0.000987009
0.0126806
0.000950103
0.0127728
0.000907521
0.0128621
0.000861064
0.0129477
0.000812261
0.000761306
0.012216
0.00011083
0.0122373
0.000302763
0.0122703
0.000459608
0.0123141
0.000589319
0.0123677
0.000696168
0.0124305
0.000782496
0.0125016
0.000849722
0.0125801
0.000898919
0.0126649
0.000931171
0.0127546
0.000947765
0.0128479
0.000950246
0.0129433
0.000940391
0.0130394
0.000920127
0.013135
0.00089143
0.0132289
0.000856223
0.0133201
0.0008163
0.0134079
0.000773264
0.0134917
0.000728457
0.000682042
0.0127408
0.000102116
0.0127647
0.000278875
0.0128015
0.000422732
0.0128499
0.000540924
0.0129087
0.00063742
0.0129767
0.000714462
0.0130529
0.000773513
0.0131361
0.000815753
0.0132249
0.000842384
0.0133179
0.000854783
0.0134136
0.000854531
0.0135106
0.000843377
0.0136076
0.000823161
0.0137033
0.000795718
0.0137967
0.0007628
0.013887
0.000726008
0.0139735
0.000686749
0.0140558
0.000646186
0.000604452
0.013288
9.24462e-05
0.0133145
0.000252397
0.0133551
0.000382078
0.0134081
0.000487964
0.0134718
0.000573687
0.0135449
0.000641363
0.013626
0.00069245
0.0137135
0.000728181
0.0138061
0.000749816
0.0139021
0.000758751
0.0140001
0.000756541
0.0140987
0.000744852
0.0141964
0.000725392
0.0142923
0.000699827
0.0143854
0.000669718
0.0144749
0.000636469
0.0145604
0.000601297
0.0146414
0.000565192
0.00052826
0.0138586
8.18352e-05
0.0138876
0.000223376
0.013932
0.000337727
0.0139894
0.000430557
0.014058
0.000505126
0.0141359
0.000563386
0.0142216
0.000606737
0.0143134
0.000636407
0.0144096
0.000653644
0.0145085
0.000659805
0.0146087
0.000656355
0.0147088
0.000644828
0.0148074
0.000626762
0.0149036
0.00060363
0.0149965
0.000576791
0.0150855
0.000547447
0.0151702
0.000516631
0.0152502
0.000485173
0.000453152
0.0144537
7.03037e-05
0.0144852
0.000191872
0.0145331
0.000289773
0.0145949
0.000368832
0.0146681
0.000431894
0.0147508
0.0004807
0.014841
0.00051654
0.0149368
0.000540574
0.0150365
0.000553975
0.0151383
0.000557995
0.0152407
0.000553957
0.0153423
0.000543218
0.0154419
0.000527116
0.0155387
0.00050691
0.0156317
0.000483747
0.0157205
0.000458631
0.0158047
0.000432413
0.0158841
0.000405773
0.000378768
0.0150742
5.78771e-05
0.0151081
0.000157958
0.0151596
0.000238324
0.0152255
0.000302921
0.0153032
0.000354135
0.0153905
0.000393444
0.015485
0.000421975
0.0155849
0.000440757
0.015688
0.000450825
0.0157927
0.00045327
0.0158975
0.000449224
0.0160009
0.00043983
0.0161018
0.000426194
0.0161993
0.00040935
0.0162929
0.000390226
0.0163819
0.000369627
0.016466
0.00034823
0.0165452
0.000326568
0.000304683
0.0157213
4.45856e-05
0.0157575
0.000121716
0.0158123
0.000183496
0.0158823
0.000232956
0.0159645
0.000271973
0.0160562
0.000301718
0.0161551
0.000323096
0.0162589
0.000336946
0.0163656
0.000344112
0.0164734
0.000345469
0.0165807
0.000341916
0.0166862
0.000334346
0.0167888
0.000323617
0.0168876
0.000310521
0.016982
0.000295761
0.0170717
0.000279945
0.0171564
0.000263579
0.0172359
0.000247062
0.000230417
0.016396
3.04633e-05
0.0164345
8.32406e-05
0.0164926
0.000125411
0.0165665
0.000159062
0.0166529
0.000185512
0.0167491
0.000205574
0.0168523
0.000219883
0.0169602
0.000229037
0.0170707
0.000233638
0.0171818
0.000234302
0.0172921
0.000231656
0.0174001
0.000226317
0.0175049
0.000218872
0.0176055
0.000209861
0.0177015
0.000199761
0.0177925
0.000188977
0.0178782
0.000177849
0.0179587
0.00016664
0.000155363
0.0170997
1.55471e-05
0.0171403
4.26464e-05
0.0172015
6.42032e-05
0.0172792
8.13626e-05
0.0173698
9.48321e-05
0.0174704
0.000105016
0.017578
0.000112242
0.0176903
0.000116827
0.0178048
0.000119085
0.0179198
0.00011934
0.0180335
0.000117916
0.0181447
0.00011513
0.0182523
0.000111285
0.0183555
0.000106656
0.0184538
0.000101483
0.0185468
9.59753e-05
0.0186343
9.03029e-05
0.0187163
8.45996e-05
7.887e-05
0.0178333
0.0178759
0.0179401
0.0180215
0.0181163
0.0182214
0.0183336
0.0184504
0.0185695
0.0186888
0.0188068
0.0189219
0.0190332
0.0191398
0.0192413
0.0193373
0.0194276
0.0195122
0.00297407
-2.77884e-05
-9.72516e-12
0.00299298
-1.89182e-05
-1.85688e-11
0.00300372
-1.0731e-05
-1.88256e-11
0.0030067
-2.98721e-06
-1.65246e-11
0.00300208
4.62142e-06
-1.35572e-11
0.00298984
1.22453e-05
-9.57205e-12
0.0029698
2.00346e-05
-5.18536e-12
0.00294171
2.80952e-05
-1.17294e-12
0.00290517
3.65348e-05
3.58138e-12
0.00285972
4.54496e-05
7.59109e-12
0.00280478
5.49444e-05
1.12928e-11