/*--------------------------------*- C++ -*----------------------------------*\
  =========                 |
  \\      /  F ield         | OpenFOAM: The Open Source CFD Toolbox
   \\    /   O peration     | Website:  https://openfoam.org
    \\  /    A nd           | Version:  7
     \\/     M anipulation  |
\*---------------------------------------------------------------------------*/
FoamFile
{
    version     2.0;
    format      ascii;
    class       volVectorField;
    location    "80";
    object      U;
}
// * * * * * * * * * * * * * * * * * * * * * * * * * * * * * * * * * * * * * //

dimensions      [0 1 -1 0 0 0 0];

internalField   nonuniform List<vector> 
34000
(
(-0.000396562 0.00616572 -9.73176e-22)
(-0.00234195 0.0132731 -5.23535e-21)
(-0.00620688 0.0162548 6.35494e-22)
(-0.0112693 0.0159336 -1.11711e-21)
(-0.0172659 0.0130745 1.70606e-21)
(-0.0239681 0.00836438 -1.25977e-20)
(-0.0311704 0.00239233 2.17246e-21)
(-0.0387074 -0.00436607 -8.56037e-21)
(-0.0464436 -0.0115557 -1.84007e-20)
(-0.05427 -0.0189401 1.57587e-20)
(-0.0621003 -0.026391 4.69639e-21)
(-0.0698695 -0.0338716 -5.64532e-21)
(-0.0775328 -0.041415 6.93929e-21)
(-0.0850654 -0.0491031 9.49222e-21)
(-0.092463 -0.0570472 -6.00118e-21)
(-0.0997403 -0.065373 -8.13689e-21)
(-0.10693 -0.0742123 -1.95335e-20)
(-0.11408 -0.0836975 -1.51483e-21)
(-0.121242 -0.0939558 -3.33017e-21)
(-0.128476 -0.105146 -6.5044e-21)
(-0.00054303 0.00683565 -4.79047e-21)
(-0.00269571 0.0150029 3.99218e-21)
(-0.00672457 0.0188157 -4.71931e-21)
(-0.0119146 0.0191371 -1.06172e-20)
(-0.018015 0.0167613 8.69355e-21)
(-0.0248077 0.0124013 5.27448e-20)
(-0.0320956 0.0066696 -3.25563e-20)
(-0.039719 6.18716e-05 5.46188e-21)
(-0.0475469 -0.00704934 2.66207e-20)
(-0.0554729 -0.0144123 4.81916e-23)
(-0.0634124 -0.0218852 1.59452e-20)
(-0.0713015 -0.0294183 -2.11594e-20)
(-0.0790968 -0.0370325 2.22056e-20)
(-0.0867756 -0.0447978 -1.90436e-20)
(-0.0943362 -0.0528136 -7.49401e-21)
(-0.101798 -0.0611951 3.75193e-20)
(-0.1092 -0.0700647 -1.19875e-20)
(-0.116593 -0.0795486 1.82396e-21)
(-0.124047 -0.0897736 -2.2328e-20)
(-0.131639 -0.100898 -2.46331e-21)
(-0.000714603 0.00751274 -3.72766e-20)
(-0.00310829 0.0167552 4.82635e-21)
(-0.00731721 0.0214143 7.40983e-21)
(-0.0126384 0.0223932 3.26965e-20)
(-0.018836 0.0205142 -3.81266e-20)
(-0.025704 0.0165164 -5.94321e-20)
(-0.0330544 0.0110351 5.42573e-20)
(-0.0407348 0.00458626 -1.49345e-20)
(-0.0486187 -0.00243987 -7.36898e-21)
(-0.0566026 -0.00977587 -3.80381e-20)
(-0.0646037 -0.0172656 1.05787e-20)
(-0.0725591 -0.0248458 3.72517e-20)
(-0.0804263 -0.0325244 -7.44542e-21)
(-0.0881842 -0.0403582 3.08189e-20)
(-0.0958338 -0.0484344 -2.56296e-20)
(-0.103398 -0.0568563 -7.50604e-21)
(-0.110922 -0.0657366 6.08399e-20)
(-0.118462 -0.0751943 -3.78046e-21)
(-0.126101 -0.0853563 9.59972e-20)
(-0.13393 -0.0963787 -2.28789e-20)
(-0.000911424 0.0081925 6.11471e-20)
(-0.00357969 0.0185187 -2.75305e-20)
(-0.00798392 0.0240353 -1.91121e-20)
(-0.0134387 0.0256837 -1.44736e-20)
(-0.0197252 0.0243135 2.68534e-20)
(-0.0266511 0.0206887 -5.2886e-21)
(-0.0340393 0.0154673 -9.12808e-20)
(-0.0417449 0.0091852 -9.7637e-21)
(-0.0496468 0.00225051 -2.01221e-20)
(-0.0576447 -0.00505332 -3.49084e-21)
(-0.0656573 -0.0125552 -3.5253e-20)
(-0.0736226 -0.0201779 4.02845e-20)
(-0.0814989 -0.0279152 -5.95845e-20)
(-0.0892658 -0.0358105 -1.83618e-21)
(-0.0969266 -0.043937 1.62801e-20)
(-0.104508 -0.0523859 -1.27431e-19)
(-0.112058 -0.0612587 -1.03059e-19)
(-0.119643 -0.0706669 5.60307e-20)
(-0.127354 -0.0807367 -7.44879e-20)
(-0.135289 -0.0916214 1.40798e-21)
(-0.00113329 0.00887033 -8.16214e-21)
(-0.00410921 0.0202826 1.0908e-19)
(-0.00872304 0.0266634 5.13675e-20)
(-0.0143125 0.0289904 -3.32993e-21)
(-0.0206781 0.028139 1.3725e-20)
(-0.0276432 0.0248971 1.84589e-21)
(-0.0350424 0.0199444 4.69093e-20)
(-0.0427396 0.0138365 5.58446e-20)
(-0.0506195 0.0069993 2.38374e-20)
(-0.058585 -0.000267493 8.40384e-20)
(-0.0665568 -0.00777753 -9.74554e-20)
(-0.0744733 -0.0154387 -2.04101e-20)
(-0.0822929 -0.0232303 4.33223e-20)
(-0.0899958 -0.031181 -7.62107e-20)
(-0.0975863 -0.0393498 3.48614e-20)
(-0.105094 -0.047814 8.02967e-20)
(-0.112572 -0.0566633 1.85794e-20)
(-0.120091 -0.0660002 2.84853e-20)
(-0.127754 -0.07595 -4.50981e-20)
(-0.135659 -0.0866607 4.59393e-21)
(-0.00137969 0.0095413 -4.05096e-20)
(-0.00469545 0.0220348 2.61872e-20)
(-0.00953207 0.0292819 -4.18732e-20)
(-0.0152562 0.0322938 1.23614e-20)
(-0.0216897 0.0319695 3.43904e-20)
(-0.0286735 0.0291191 1.54861e-20)
(-0.0360554 0.0244434 2.98812e-20)
(-0.0437087 0.018517 -2.07409e-20)
(-0.0515246 0.0117832 -1.29523e-19)
(-0.0594097 0.00455809 -1.16559e-19)
(-0.0672862 -0.00295633 -7.6242e-20)
(-0.0750928 -0.0106527 2.87221e-20)
(-0.0827876 -0.0184952 -1.63837e-20)
(-0.0903505 -0.0264969 1.25615e-19)
(-0.0977861 -0.0347017 -4.53026e-20)
(-0.105126 -0.0431719 3.73484e-20)
(-0.112426 -0.0519838 5.38407e-20)
(-0.119766 -0.0612299 -3.00334e-20)
(-0.127255 -0.0710331 2.6861e-19)
(-0.134982 -0.0815341 -1.0043e-19)
(-0.00164977 0.0102004 4.93008e-20)
(-0.00533628 0.0237633 -6.21037e-20)
(-0.0104077 0.031874 -9.57065e-20)
(-0.0162651 0.0355738 -2.50704e-20)
(-0.0227543 0.0357829 1.11705e-20)
(-0.0297349 0.033332 1.7277e-20)
(-0.0370697 0.0289411 5.80211e-20)
(-0.0446422 0.0232031 1.30626e-20)
(-0.0523506 0.0165785 3.77644e-21)
(-0.0601053 0.00939966 2.09606e-19)
(-0.06783 0.00188427 1.58003e-19)
(-0.0754637 -0.00584471 -9.5462e-20)
(-0.0829632 -0.0137357 -1.40259e-20)
(-0.0903073 -0.0217858 -3.79317e-20)
(-0.0975002 -0.0300222 3.78001e-20)
(-0.104574 -0.0384915 -2.01384e-19)
(-0.111587 -0.0472549 -4.27625e-20)
(-0.118627 -0.0563931 -6.32854e-20)
(-0.125809 -0.0660251 -1.53482e-19)
(-0.133205 -0.076281 8.27713e-20)
(-0.00194234 0.0108425 8.3945e-21)
(-0.00602883 0.0254557 -3.07084e-20)
(-0.0113456 0.0344224 8.6592e-20)
(-0.0173339 0.0388101 -5.35178e-20)
(-0.0238653 0.039557 -3.01824e-20)
(-0.0308199 0.0375121 4.83467e-20)
(-0.0380764 0.0334134 -8.1196e-20)
(-0.0455298 0.0278708 -1.08375e-20)
(-0.0530855 0.0213612 1.55139e-19)
(-0.0606582 0.0142332 -9.94894e-20)
(-0.0681732 0.00671997 -4.10226e-20)
(-0.0755688 -0.00103959 4.81707e-20)
(-0.0828004 -0.00897782 -1.275e-20)
(-0.0898447 -0.0170751 -6.55907e-21)
(-0.096704 -0.0253414 5.57754e-20)
(-0.10341 -0.0338056 -1.50201e-19)
(-0.110023 -0.0425123 5.11851e-20)
(-0.116638 -0.0515284 -3.98838e-20)
(-0.123374 -0.0609668 -8.98901e-20)
(-0.130276 -0.0709428 3.15585e-20)
(-0.00225587 0.0114625 -2.33009e-20)
(-0.0067695 0.0270995 1.68914e-19)
(-0.0123409 0.0369098 -3.74968e-20)
(-0.0184564 0.0419818 2.30746e-20)
(-0.0250154 0.043269 1.67638e-19)
(-0.0319201 0.0416358 -1.1356e-19)
(-0.0390662 0.0378361 -5.63552e-20)
(-0.0463609 0.0324957 -9.81731e-20)
(-0.0537177 0.0261071 -1.07716e-19)
(-0.0610555 0.0190343 -7.17195e-20)
(-0.068301 0.0115264 -9.75247e-20)
(-0.0753919 0.00373776 1.77267e-19)
(-0.0822811 -0.00424749 -1.92278e-20)
(-0.0889422 -0.0123925 -4.21661e-20)
(-0.0953745 -0.0206892 -2.20393e-19)
(-0.101608 -0.0291473 1.2321e-19)
(-0.107703 -0.0377926 2.98226e-20)
(-0.113762 -0.0466757 7.82691e-20)
(-0.119907 -0.0559006 5.35748e-20)
(-0.126146 -0.0655628 -1.4321e-19)
(-0.00258848 0.0120554 -7.31249e-20)
(-0.00755395 0.0286825 9.97821e-20)
(-0.0133874 0.0393187 5.6206e-20)
(-0.0196256 0.0450684 2.56221e-20)
(-0.0261968 0.0468961 2.20259e-20)
(-0.0330268 0.045679 -7.70678e-20)
(-0.0400295 0.0421848 1.66847e-19)
(-0.0471251 0.0370532 9.14926e-21)
(-0.0542354 0.0307917 1.56154e-19)
(-0.0612841 0.023779 -9.19694e-20)
(-0.0681992 0.0162792 1.47509e-19)
(-0.0749172 0.0084626 -1.47541e-19)
(-0.0813877 0.000429528 -1.33041e-19)
(-0.0875801 -0.00776557 1.14539e-19)
(-0.0934896 -0.0160956 4.08553e-19)
(-0.099142 -0.0245499 -2.27652e-19)
(-0.104598 -0.0331328 1.87566e-19)
(-0.109966 -0.041876 4.40895e-20)
(-0.11537 -0.0508705 -1.65109e-19)
(-0.120771 -0.0601858 1.37642e-19)
(-0.00293799 0.0126163 1.33641e-19)
(-0.00837718 0.0301925 -7.60024e-20)
(-0.0144786 0.0416323 2.66815e-20)
(-0.0208335 0.0480494 9.88577e-20)
(-0.0274008 0.0504157 -9.07927e-20)
(-0.0341308 0.0496179 1.79838e-19)
(-0.0409564 0.0464349 -3.26288e-20)
(-0.0478116 0.0415189 4.02201e-21)
(-0.0546271 0.0353906 -2.16359e-19)
(-0.0613314 0.0284428 1.37258e-19)
(-0.0678539 0.0209543 3.23671e-20)
(-0.0741292 0.0131104 -4.35289e-20)
(-0.0801032 0.00502788 5.3782e-20)
(-0.08574 -0.00322126 -2.13686e-19)
(-0.0910287 -0.0115902 -1.19016e-19)
(-0.0959899 -0.0200464 2.54183e-19)
(-0.100681 -0.0285702 -1.43206e-19)
(-0.105221 -0.037171 -2.06408e-19)
(-0.109729 -0.0459215 3.85104e-19)
(-0.114109 -0.0548579 5.70026e-22)
(-0.00330192 0.0131406 1.13048e-19)
(-0.00923352 0.0316181 -1.41556e-19)
(-0.015607 0.0438338 -1.48235e-19)
(-0.0220717 0.0509046 -7.09764e-20)
(-0.0286183 0.0538054 -1.03438e-19)
(-0.0352222 0.0534288 -5.85482e-20)
(-0.0418366 0.0505622 -2.50104e-19)
(-0.0484096 0.0458682 3.0623e-20)
(-0.0548811 0.0398795 -1.07632e-19)
(-0.0611848 0.0330018 3.78341e-19)
(-0.0672512 0.0255277 -2.21205e-19)
(-0.073013 0.0176571 1.35634e-19)
(-0.0784114 0.00952273 -4.17827e-20)
(-0.0834038 0.00121409 2.32988e-19)
(-0.0879719 -0.00720187 1.95903e-20)
(-0.0921293 -0.0156693 -2.03561e-19)
(-0.0959287 -0.0241419 -3.75721e-20)
(-0.0994961 -0.0326023 7.99737e-21)
(-0.102951 -0.0410995 -1.41701e-20)
(-0.106121 -0.049626 2.6519e-19)
(-0.00367754 0.0136239 -1.4043e-19)
(-0.0101167 0.0329482 -1.36585e-19)
(-0.0167643 0.0459073 5.67647e-20)
(-0.0233309 0.0536147 1.42592e-19)
(-0.0298394 0.0570433 -1.06335e-20)
(-0.0362911 0.0570883 -9.92644e-20)
(-0.0426597 0.0545424 2.20867e-19)
(-0.048908 0.0500768 -2.52955e-20)
(-0.0549858 0.0442341 2.72202e-19)
(-0.0608318 0.0374319 -3.03827e-19)
(-0.0663777 0.0299756 8.03113e-20)
(-0.0715539 0.0220791 9.6546e-20)
(-0.0762962 0.01389 -2.8038e-21)
(-0.0805541 0.00551509 -1.75462e-21)
(-0.0843004 -0.0029584 -1.88096e-19)
(-0.0875394 -0.01145 2.48945e-20)
(-0.0903169 -0.0198839 2.55985e-19)
(-0.0927668 -0.0282118 3.33131e-19)
(-0.0950076 -0.0364508 -3.97579e-19)
(-0.0967749 -0.0445374 -2.52869e-19)
(-0.00406186 0.0140622 5.94988e-20)
(-0.01102 0.0341726 9.06999e-20)
(-0.0179417 0.047838 1.11985e-19)
(-0.0246013 0.056161 -1.89003e-19)
(-0.0310538 0.0601082 1.99503e-19)
(-0.0373268 0.0605734 1.90799e-19)
(-0.0434147 0.0583519 -7.44827e-20)
(-0.0492957 0.0541205 3.30239e-19)
(-0.0549294 0.0484304 -3.36169e-19)
(-0.0602598 0.0417096 1.50264e-19)
(-0.0652199 0.034275 1.53514e-19)
(-0.0697373 0.0263533 -1.14767e-20)
(-0.0737417 0.0181064 2.53438e-21)
(-0.0771739 0.00965752 2.02943e-20)
(-0.0799956 0.00111396 -1.491e-19)
(-0.0822002 -0.00741843 1.48924e-19)
(-0.0838242 -0.0158313 -7.65219e-20)
(-0.0850081 -0.02404 -1.73901e-19)
(-0.0858717 -0.0320214 2.27445e-19)
(-0.0860371 -0.0396395 4.75841e-20)
(-0.00445175 0.0144521 -3.40915e-20)
(-0.0119362 0.035282 4.29502e-20)
(-0.0191301 0.0496117 -9.36472e-20)
(-0.0258727 0.0585258 -1.40815e-19)
(-0.032251 0.0629799 -1.45162e-19)
(-0.0383185 0.0638622 -1.31469e-19)
(-0.0440909 0.0619673 2.16226e-19)
(-0.0495614 0.0579756 -1.08669e-19)
(-0.0547001 0.0524448 8.76609e-20)
(-0.0594564 0.0458113 1.06118e-20)
(-0.0637643 0.0384027 -2.44369e-20)
(-0.0675484 0.0304572 6.18304e-20)
(-0.0707321 0.0221496 -1.19868e-19)
(-0.0732458 0.0136186 6.21082e-20)
(-0.0750393 0.00499079 2.05575e-19)
(-0.0760923 -0.0036021 -3.03633e-19)
(-0.0764294 -0.0120167 -1.95751e-19)
(-0.076197 -0.0201261 2.59604e-19)
(-0.0755195 -0.0278564 -1.5201e-19)
(-0.0738787 -0.0349789 -2.3933e-19)
(-0.00484391 0.0147905 1.27871e-19)
(-0.0128578 0.0362681 -1.308e-19)
(-0.0203197 0.0512157 1.0574e-19)
(-0.0271344 0.0606928 1.70708e-19)
(-0.0334197 0.065639 -3.1805e-20)
(-0.039255 0.0669332 -1.14067e-19)
(-0.0446769 0.0653661 -2.11899e-19)
(-0.0496939 0.0616188 -1.62045e-19)
(-0.0542862 0.0562536 -3.30124e-19)
(-0.0584089 0.0497141 3.4397e-20)
(-0.0619971 0.0423365 -3.05153e-20)
(-0.0649724 0.0343692 -2.38249e-19)
(-0.0672509 0.0259987 2.09464e-19)
(-0.0687523 0.0173773 2.57216e-19)
(-0.0694124 0.00864994 -1.34111e-20)
(-0.0691957 -2.59078e-05 1.5946e-19)
(-0.0681115 -0.00846966 -8.15048e-20)
(-0.0663109 -0.0165064 1.39484e-20)
(-0.0639286 -0.0239996 2.35586e-19)
(-0.060271 -0.0306017 5.61389e-19)
(-0.00523499 0.0150749 -5.4944e-20)
(-0.0137772 0.0371238 -3.92025e-20)
(-0.0215008 0.0526389 1.09557e-19)
(-0.0283754 0.062647 -1.53583e-19)
(-0.0345489 0.0680675 -4.02755e-20)
(-0.0401252 0.069766 2.38566e-19)
(-0.0451614 0.0685262 -5.69735e-20)
(-0.0496814 0.0650273 -1.65227e-19)
(-0.0536755 0.0598339 2.68774e-19)
(-0.0571044 0.053395 -7.17353e-20)
(-0.0599043 0.0460541 5.31028e-20)
(-0.0619938 0.0380682 2.93224e-19)
(-0.0632812 0.0296334 -4.09249e-19)
(-0.0636747 0.0209142 -1.12331e-19)
(-0.063095 0.0120719 -2.24975e-19)
(-0.0614894 0.00328869 4.59066e-19)
(-0.058849 -0.0052161 1.45889e-20)
(-0.0553265 -0.0132136 2.58794e-19)
(-0.0510775 -0.0204926 -9.10795e-20)
(-0.045184 -0.0265549 -5.35687e-19)
(-0.00562162 0.0153034 -1.29346e-19)
(-0.0146865 0.0378434 1.87992e-19)
(-0.0226632 0.0538712 2.35534e-21)
(-0.0295848 0.0643749 -2.0706e-21)
(-0.035627 0.0702489 1.9723e-19)
(-0.0409175 0.0723417 1.42411e-19)
(-0.0455331 0.0714267 -5.86081e-21)
(-0.0495123 0.0681789 4.30154e-19)
(-0.0528558 0.0631631 1.65617e-19)
(-0.0555297 0.0568317 -3.06442e-19)
(-0.0574715 0.0495339 1.42027e-20)
(-0.0585962 0.0415336 -9.14143e-21)
(-0.0588047 0.0330348 4.36798e-19)
(-0.0579929 0.0242118 -4.92354e-19)
(-0.0560655 0.0152399 1.35984e-19)
(-0.0529506 0.00632425 6.76357e-21)
(-0.0486181 -0.00227683 -3.55788e-19)
(-0.0432193 -0.0102752 -3.72368e-19)
(-0.0369461 -0.0173736 -4.35806e-20)
(-0.0285844 -0.0228819 5.49072e-19)
(-0.00600044 0.0154748 4.23353e-20)
(-0.015578 0.0384223 -1.34046e-19)
(-0.023797 0.0549047 1.29896e-19)
(-0.0307514 0.0658648 -1.94898e-19)
(-0.0366427 0.0721679 2.43091e-19)
(-0.0416204 0.0746422 -4.07274e-19)
(-0.0457802 0.0740475 -1.01343e-19)
(-0.0491749 0.0710521 -2.24802e-19)
(-0.0518147 0.0662188 -1.06559e-19)
(-0.0536713 0.0600019 1.9103e-19)
(-0.0546834 0.0527545 3.9319e-19)
(-0.0547626 0.0447454 -4.44213e-19)
(-0.053802 0.0361848 -1.67073e-19)
(-0.0516851 0.0272543 6.11267e-19)
(-0.0482996 0.0181403 -2.24995e-19)
(-0.0435534 0.00906777 -3.25667e-19)
(-0.037392 0.000333116 4.16568e-19)
(-0.029961 -0.00771257 8.79179e-20)
(-0.0215131 -0.0146742 8.65863e-20)
(-0.0104462 -0.0195933 -3.55101e-19)
(-0.00636825 0.0155884 1.67069e-20)
(-0.0164441 0.0388574 -7.02976e-20)
(-0.0248923 0.055733 2.29195e-19)
(-0.0318644 0.0671067 -2.96865e-19)
(-0.0375846 0.0738114 -2.44433e-19)
(-0.0422225 0.076651 1.54377e-19)
(-0.0458913 0.0763697 4.32625e-19)
(-0.048657 0.0736262 -2.74198e-19)
(-0.0505393 0.0689795 6.70351e-20)
(-0.0515151 0.0628838 -1.33089e-19)
(-0.051524 0.0556945 -5.41505e-19)
(-0.0504745 0.047684 3.29331e-19)
(-0.0482517 0.0390663 2.69719e-19)
(-0.0447267 0.0300277 -4.79541e-19)
(-0.0397698 0.0207622 1.11868e-19)
(-0.0332679 0.011511 4.54912e-19)
(-0.0251398 0.00260544 1.82313e-19)
(-0.0155173 -0.00553949 6.39535e-20)
(-0.00473405 -0.0124246 -3.76941e-19)
(0.00921188 -0.0166528 -1.83507e-19)
(-0.00672197 0.0156443 -1.15071e-19)
(-0.0172776 0.0391474 -2.11894e-19)
(-0.0259398 0.0563517 -1.21348e-19)
(-0.0329131 0.0680928 1.60894e-19)
(-0.0384415 0.0751676 -9.43225e-21)
(-0.0427122 0.0783535 3.63575e-19)
(-0.0458544 0.0783757 -3.3835e-20)
(-0.0479463 0.0758815 4.02543e-20)
(-0.0490163 0.071424 2.6495e-19)
(-0.0490462 0.0654558 3.3671e-19)
(-0.0479764 0.0583331 -1.62207e-20)
(-0.0457119 0.05033 -7.51892e-20)
(-0.0421304 0.0416626 -4.44998e-19)
(-0.0370903 0.032519 3.35972e-19)
(-0.0304448 0.0230976 -2.99557e-20)
(-0.0220591 0.0136503 -2.04063e-19)
(-0.0118249 0.00453955 -1.03397e-18)
(0.000143889 -0.00375538 3.70325e-19)
(0.0134692 -0.0106292 1.91881e-20)
(0.030385 -0.0141732 -2.29401e-19)
(-0.00705877 0.0156432 1.06916e-19)
(-0.0180717 0.039292 2.77467e-19)
(-0.0269303 0.0567582 -2.11327e-19)
(-0.0338872 0.0688171 -1.02736e-19)
(-0.0392024 0.0762271 8.55503e-20)
(-0.0430782 0.0797365 -2.06941e-19)
(-0.0456577 0.0800493 -3.86439e-19)
(-0.0470303 0.0777993 2.29569e-19)
(-0.047232 0.0735321 -2.58896e-20)
(-0.046249 0.0676969 -5.32967e-19)
(-0.0440221 0.0606493 1.02186e-19)
(-0.0404532 0.0526641 5.85032e-20)
(-0.0354121 0.0439572 -1.02952e-19)
(-0.0287452 0.0347165 2.72753e-19)
(-0.0202884 0.0251403 5.3677e-19)
(-0.00988526 0.0154863 -3.53081e-19)
(0.00260091 0.00614205 2.86377e-19)
(0.0170692 -0.00235516 7.1897e-20)
(0.0331101 -0.00927716 4.09296e-19)
(0.0532632 -0.0122084 1.8468e-19)
(-0.00737612 0.0155865 -1.1753e-19)
(-0.0188199 0.0392928 -1.31047e-20)
(-0.0278553 0.056952 2.99991e-19)
(-0.0347768 0.0692759 2.98296e-19)
(-0.0398565 0.0769825 -6.14029e-20)
(-0.0433089 0.0807888 -3.864e-20)
(-0.0452891 0.0813759 3.90089e-19)
(-0.0458957 0.0793623 -3.04001e-19)
(-0.0451716 0.0752843 9.35981e-20)
(-0.0431066 0.0695865 3.88546e-19)
(-0.0396415 0.0626228 3.75612e-19)
(-0.0346746 0.0546669 1.48566e-19)
(-0.0280681 0.0459338 6.50043e-19)
(-0.0196567 0.0366087 -8.96206e-20)
(-0.0092597 0.0268861 -6.99475e-19)
(0.00330087 0.0170233 3.46323e-19)
(0.0181902 0.00742404 -1.88421e-19)
(0.0353266 -0.00132416 -4.38028e-19)
(0.0542359 -0.00835249 -3.13372e-19)
(0.0779026 -0.0106995 -3.15059e-19)
(-0.00767184 0.0154763 7.56256e-20)
(-0.0195167 0.0391527 1.58569e-19)
(-0.0287071 0.0569344 -1.0963e-19)
(-0.0355725 0.0694676 -1.36282e-19)
(-0.0403934 0.0774285 -1.42588e-19)
(-0.043393 0.0815013 -3.83356e-20)
(-0.044736 0.0823429 -4.04152e-19)
(-0.0445287 0.0805546 2.07837e-19)
(-0.0428196 0.0766623 -1.92588e-19)
(-0.0396008 0.0711049 -3.27671e-19)
(-0.0348129 0.0642332 1.20664e-20)
(-0.0283499 0.0563195 -8.41973e-19)
(-0.0200665 0.0475762 -6.5815e-19)
(-0.009786 0.0381842 2.10498e-19)
(0.00268806 0.0283314 1.06951e-19)
(0.0175537 0.0182686 -2.32494e-19)
(0.0350046 0.00840486 9.08839e-19)
(0.0549858 -0.000630545 -1.44041e-19)
(0.0769233 -0.00784376 3.94413e-19)
(0.104365 -0.00961327 3.55826e-19)
(-0.00794411 0.015315 -1.03661e-19)
(-0.0201571 0.038876 -3.4383e-19)
(-0.0294784 0.0567087 1.09726e-19)
(-0.0362656 0.0693928 6.24743e-21)
(-0.0408027 0.077562 4.65806e-19)
(-0.0433188 0.0818673 -2.78856e-19)
(-0.0439854 0.0829394 1.52889e-19)
(-0.0429146 0.0813621 2.20337e-19)
(-0.0401588 0.0776494 -1.71522e-20)
(-0.0357116 0.0722333 1.37137e-19)
(-0.0295121 0.0654612 4.2105e-19)
(-0.0214497 0.0576029 8.8509e-19)
(-0.0113715 0.048868 7.18476e-20)
(0.000910441 0.0394318 -3.98926e-19)
(0.0156073 0.0294731 7.24371e-20)
(0.0329352 0.0192307 7.18698e-19)
(0.0531146 0.0091086 -4.91833e-19)
(0.0761253 -0.000236182 2.62133e-21)
(0.101256 -0.00771644 3.87002e-19)
(0.132739 -0.00891815 -2.37606e-19)
(-0.00819153 0.015106 -9.98888e-20)
(-0.020737 0.0384685 4.08014e-19)
(-0.0301631 0.0562801 -3.11047e-19)
(-0.0368477 0.0690543 -6.35673e-20)
(-0.0410744 0.0773827 -1.07579e-19)
(-0.0430744 0.0818821 -2.80934e-19)
(-0.0430234 0.0831574 2.79892e-19)
(-0.0410372 0.0817731 -9.21646e-20)
(-0.0371703 0.0782308 -1.66935e-19)
(-0.0314165 0.0729549 2.74237e-19)
(-0.0237121 0.0662885 -3.20253e-19)
(-0.0139414 0.0584991 -1.03762e-19)
(-0.0019432 0.049793 -1.16306e-20)
(0.0124812 0.0403399 2.81075e-19)
(0.0295566 0.0303078 -2.56622e-19)
(0.049515 0.0199191 -4.88923e-19)
(0.0725996 0.00956213 -1.5318e-19)
(0.0988332 -9.44925e-05 -2.21744e-19)
(0.127326 -0.00791603 -6.80761e-19)
(0.163126 -0.00856352 -2.04491e-19)
(-0.00841316 0.0148529 1.42255e-19)
(-0.021253 0.037937 -1.78915e-19)
(-0.0307554 0.0556555 -2.25377e-19)
(-0.0373111 0.0684571 -2.12877e-19)
(-0.0411983 0.0768922 7.08106e-20)
(-0.0426472 0.081544 3.91721e-20)
(-0.041835 0.0829909 1.00266e-19)
(-0.0388786 0.0817781 -2.61453e-19)
(-0.0338328 0.0783939 2.03105e-19)
(-0.0266898 0.0732546 -6.13162e-19)
(-0.0173822 0.0666988 -3.09436e-19)
(-0.00578773 0.0589914 5.26671e-21)
(0.00826348 0.0503362 2.78561e-19)
(0.0249806 0.0408974 -1.84497e-19)
(0.044601 0.0308321 4.74906e-19)
(0.0673693 0.0203432 -1.17067e-19)
(0.0935466 0.00979418 1.5271e-19)
(0.123206 -0.000151578 5.86945e-19)
(0.155229 -0.00837372 7.7812e-20)
(0.195631 -0.00847803 3.78078e-19)
(-0.00860853 0.0145597 -3.00521e-19)
(-0.0217026 0.0372895 2.42578e-19)
(-0.0312506 0.0548435 2.71427e-19)
(-0.0376482 0.0676083 -1.58533e-19)
(-0.0411642 0.0760948 2.71033e-19)
(-0.0420242 0.0808537 2.61706e-19)
(-0.0404036 0.0824371 -4.72133e-20)
(-0.0364185 0.0813707 -9.05363e-20)
(-0.0301218 0.0781292 -2.47184e-19)
(-0.0215023 0.0731204 1.15454e-19)
(-0.010487 0.0666783 1.11839e-20)
(0.00305394 0.0590657 -3.088e-19)
(0.0192997 0.0504844 2.33502e-19)
(0.0384698 0.0410943 -1.84237e-19)
(0.0608126 0.0310429 -3.37147e-19)
(0.0865821 0.0205125 -4.45117e-19)
(0.116049 0.009834 1.09361e-19)
(0.149344 -0.000348863 1.54447e-19)
(0.185069 -0.00900964 -1.49742e-19)
(0.230358 -0.00857023 6.28625e-19)
(-0.00877762 0.0142309 -2.38303e-19)
(-0.0220841 0.0365348 -2.23269e-19)
(-0.0316446 0.053854 1.76516e-19)
(-0.0378518 0.0665169 1.02597e-19)
(-0.0409613 0.0749973 4.23632e-20)
(-0.0411906 0.079815 -7.7239e-20)
(-0.0387107 0.0814964 -5.43422e-20)
(-0.0336339 0.080548 1.2514e-19)
(-0.026009 0.0774308 -1.18925e-19)
(-0.0158195 0.0725439 9.58401e-19)
(-0.00298517 0.0662171 7.03135e-20)
(0.0126328 0.0587112 -1.09947e-19)
(0.0312238 0.0502275 -7.24074e-19)
(0.0530174 0.0409234 1.40806e-19)
(0.078271 0.0309388 -3.64207e-19)
(0.107244 0.0204368 2.42601e-19)
(0.140207 0.00971069 2.25069e-19)
(0.177353 -0.000625513 -8.65723e-19)
(0.216947 -0.00973536 -2.72947e-19)
(0.267396 -0.00872967 -9.39603e-19)
(-0.00892081 0.0138711 1.15101e-19)
(-0.0223965 0.0356826 2.31534e-19)
(-0.0319335 0.0526984 -4.1723e-19)
(-0.0379146 0.0651938 -3.19744e-19)
(-0.0405782 0.0736089 1.62768e-19)
(-0.0401304 0.0784343 1.52892e-19)
(-0.036735 0.0801724 -3.18314e-19)
(-0.0304978 0.0793108 -2.88217e-20)
(-0.0214613 0.0762969 1.71486e-20)
(-0.0096014 0.0715215 -2.88768e-19)
(0.00517131 0.06531 4.23171e-19)
(0.023006 0.0579224 2.40769e-21)
(0.0441028 0.0495606 5.43518e-19)
(0.0687009 0.040382 3.7139e-19)
(0.0970644 0.0305222 6.17966e-20)
(0.129452 0.020128 8.00634e-19)
(0.166124 0.00945362 -7.33077e-19)
(0.207334 -0.000920157 3.41369e-19)
(0.250957 -0.0104569 2.69476e-19)
(0.30681 -0.00882917 2.32626e-19)
(-0.00903889 0.013485 5.56816e-19)
(-0.0226394 0.0347428 -3.92598e-19)
(-0.0321141 0.0513888 9.48344e-20)
(-0.0378291 0.0636515 3.10571e-19)
(-0.0400022 0.071941 -3.3511e-19)
(-0.0388254 0.0767214 1.64202e-20)
(-0.034452 0.0784726 2.56496e-19)
(-0.026979 0.0776643 4.73714e-19)
(-0.01644 0.0747308 6.4519e-19)
(-0.00280078 0.0700548 -6.20606e-19)
(0.0140388 0.0639579 -3.72604e-19)
(0.0342399 0.0567001 1.77927e-19)
(0.0580136 0.0484856 -5.17161e-19)
(0.0856079 0.0394744 3.51994e-20)
(0.11729 0.0298014 2.03892e-19)
(0.153311 0.0196026 1.57595e-19)
(0.193907 0.00909416 4.95197e-19)
(0.239383 -0.0011717 1.05736e-19)
(0.287184 -0.011077 -3.80854e-19)
(0.34862 -0.00872756 4.09608e-19)
(-0.00913296 0.0130773 -5.28383e-19)
(-0.0228128 0.0337257 3.9123e-19)
(-0.032183 0.0499385 9.47768e-20)
(-0.0375871 0.0619042 -3.08465e-19)
(-0.0392194 0.0700074 1.30597e-19)
(-0.0372547 0.074689 -6.32268e-20)
(-0.0318335 0.0764084 -4.73125e-20)
(-0.0230411 0.0756184 -3.99823e-19)
(-0.0108995 0.0727413 -6.34407e-19)
(0.00463754 0.068152 5.96761e-19)
(0.0236832 0.062169 -2.15731e-19)
(0.0464112 0.0550533 6.83405e-21)
(0.0730443 0.0470131 1.24192e-19)
(0.103837 0.0382138 2.66873e-19)
(0.139054 0.0287941 -3.22889e-20)
(0.17893 0.0188846 -7.58719e-20)
(0.223661 0.00866848 -3.98567e-19)
(0.273584 -0.0013189 -2.69201e-19)
(0.325696 -0.0114956 -2.5702e-19)
(0.392785 -0.00827322 4.13577e-19)
(-0.00920433 0.0126527 4.24446e-19)
(-0.0229169 0.0326417 -1.1065e-19)
(-0.0321366 0.048361 3.76071e-19)
(-0.0371794 0.0599669 9.11836e-20)
(-0.0382135 0.0678239 -2.01415e-19)
(-0.0353944 0.0723529 3.26336e-20)
(-0.0288467 0.073995 -4.31663e-19)
(-0.0186416 0.0731882 1.97197e-19)
(-0.00478697 0.0703434 1.07661e-19)
(0.0127777 0.0658285 -3.92709e-20)
(0.0341803 0.0599599 -4.49117e-20)
(0.0596082 0.0530007 5.43745e-20)
(0.0892943 0.0451646 -2.49473e-19)
(0.123496 0.0366253 -5.86034e-19)
(0.16247 0.0275296 2.98951e-19)
(0.206424 0.0180088 -1.52293e-19)
(0.25549 0.00822108 -3.88414e-20)
(0.31 -0.00129878 6.50836e-19)
(0.366535 -0.0116057 6.88349e-19)
(0.439169 -0.00731709 -1.05756e-18)
(-0.00925447 0.0122155 -1.08234e-19)
(-0.022952 0.0315006 -1.19364e-19)
(-0.031971 0.04667 -2.35825e-19)
(-0.0365956 0.0578561 1.73116e-19)
(-0.0369664 0.0654082 3.14134e-19)
(-0.0332169 0.0697317 -4.07542e-19)
(-0.0254538 0.071252 6.52769e-19)
(-0.0137316 0.070394 -1.28126e-19)
(0.0019585 0.0675585 1.88738e-20)
(0.0216935 0.0631077 -4.48765e-19)
(0.0456172 0.0573566 -3.43827e-20)
(0.0739306 0.0505714 -3.75374e-19)
(0.106875 0.0429736 5.07013e-19)
(0.144705 0.034747 3.36716e-19)
(0.187661 0.0260509 -6.62881e-19)
(0.235904 0.0170233 -5.69535e-19)
(0.28949 0.00780778 1.32723e-19)
(0.348674 -0.0010454 7.79651e-19)
(0.409713 -0.0112903 3.63368e-19)
(0.487489 -0.00570132 1.96937e-19)
(-0.00928486 0.0117697 3.38771e-20)
(-0.0229181 0.0303121 1.15607e-19)
(-0.0316811 0.0448792 1.39394e-19)
(-0.0358235 0.0555885 -1.16272e-19)
(-0.0354565 0.0627799 2.91871e-19)
(-0.0306905 0.066847 3.91798e-19)
(-0.0216117 0.068203 6.22719e-21)
(-0.00825521 0.0672615 -5.09526e-19)
(0.00940637 0.0644152 -4.09153e-19)
(0.0314684 0.0600214 4.30548e-19)
(0.0580914 0.0543948 -5.80863e-19)
(0.0894888 0.0478064 -6.57379e-19)
(0.125906 0.0404864 -6.611e-20)
(0.167591 0.0326315 -3.35462e-20)
(0.214749 0.0244163 2.35481e-19)
(0.26748 0.0159903 1.55699e-19)
(0.325742 0.00749703 2.03842e-19)
(0.389618 -0.000493472 -9.63315e-19)
(0.455234 -0.0104192 -2.69706e-19)
(0.537462 -0.00318918 7.08857e-19)
(-0.00929685 0.0113188 -2.01692e-19)
(-0.0228146 0.0290849 1.97336e-19)
(-0.0312606 0.0430021 -1.45358e-19)
(-0.0348486 0.0531815 -7.22521e-20)
(-0.0336596 0.0599598 -1.97002e-19)
(-0.0277791 0.0637231 -1.49482e-19)
(-0.0172711 0.0648755 -2.68498e-19)
(-0.00214932 0.063822 4.45037e-19)
(0.0176346 0.0609487 1.77995e-19)
(0.0421955 0.0566096 -4.38373e-19)
(0.0717104 0.0511207 6.91617e-19)
(0.106403 0.0447583 3.57346e-19)
(0.146517 0.0377629 -2.72329e-19)
(0.192281 0.0303455 -3.85778e-19)
(0.243854 0.0226985 -5.05115e-20)
(0.301246 0.0149857 4.01794e-19)
(0.3643 0.00736906 -2.72103e-19)
(0.432801 0.00041461 1.03933e-19)
(0.503072 -0.00886132 2.35978e-19)
(0.58873 0.00037608 6.00036e-19)
(-0.00929153 0.0108657 -2.06238e-20)
(-0.0226403 0.0278268 -4.87377e-19)
(-0.0307019 0.0410513 1.18835e-19)
(-0.033654 0.0506525 2.64036e-19)
(-0.0315476 0.0569698 -4.85172e-20)
(-0.0244421 0.0603865 -3.20528e-19)
(-0.0123773 0.0613009 3.54369e-19)
(0.00465622 0.060112 4.07186e-19)
(0.0267292 0.0572013 1.56203e-19)
(0.0539764 0.0529213 7.79991e-19)
(0.0865898 0.0475902 -3.65134e-19)
(0.124799 0.0414911 1.76273e-19)
(0.168838 0.0348755 -1.82554e-19)
(0.2189 0.0279691 4.44022e-19)
(0.275081 0.020983 -3.90331e-20)
(0.33727 0.0140964 -1.05011e-19)
(0.405177 0.00751305 -1.67324e-19)
(0.478134 0.00172623 2.66105e-19)
(0.553112 -0.00646347 -6.75609e-19)
(0.640562 0.00500805 -9.22235e-19)
(-0.0092696 0.0104128 -1.17169e-19)
(-0.0223925 0.0265446 -4.34514e-20)
(-0.0299952 0.0390386 -3.9374e-19)
(-0.0322203 0.0480188 2.41061e-19)
(-0.0290888 0.0538328 -2.46284e-19)
(-0.0206337 0.0568657 -2.50545e-19)
(-0.00686947 0.0575138 -2.25322e-20)
(0.0122382 0.0561727 -4.10438e-19)
(0.0367831 0.0532216 -6.53977e-19)
(0.0669194 0.0490131 1.79647e-19)
(0.102851 0.043869 2.02384e-19)
(0.144805 0.0380797 2.45454e-19)
(0.192995 0.0319078 6.32253e-19)
(0.247563 0.0255932 -6.24537e-20)
(0.308512 0.0193646 -1.39239e-19)
(0.375585 0.0134154 -2.05064e-20)
(0.448334 0.00801638 3.54444e-19)
(0.525488 0.00347583 6.34759e-19)
(0.605132 -0.00295738 -1.79501e-19)
(0.691916 0.0108792 6.69709e-19)
(-0.00923119 0.00996154 3.67262e-19)
(-0.0220673 0.0252438 -5.95397e-20)
(-0.0291286 0.036975 3.47731e-19)
(-0.0305245 0.045297 -3.56589e-19)
(-0.0262477 0.0505719 5.26761e-19)
(-0.0163039 0.053191 4.41428e-19)
(-0.000681589 0.0535519 -3.63405e-19)
(0.0206792 0.0520499 -6.78479e-19)
(0.047895 0.0490641 1.12833e-18)
(0.0811372 0.044949 2.80068e-19)
(0.120616 0.040031 -2.19295e-19)
(0.166547 0.0346082 -2.18164e-19)
(0.219105 0.0289532 -1.09377e-19)
(0.278359 0.0233176 -1.72066e-19)
(0.344194 0.0179435 -5.74176e-19)
(0.416171 0.0130333 -1.58116e-19)
(0.493675 0.00894158 1.26558e-20)
(0.574747 0.00567068 -4.35986e-19)
(0.65895 0.00201841 2.17435e-19)
(0.741722 0.0178376 -4.75731e-19)
(-0.00917577 0.00951291 -5.86726e-19)
(-0.0216593 0.0239287 3.94303e-19)
(-0.0280876 0.0348699 -5.86918e-19)
(-0.028541 0.0425034 -3.19686e-19)
(-0.0229847 0.0472107 1.19275e-19)
(-0.0113982 0.0493939 -4.76942e-19)
(0.00625702 0.0494554 7.4898e-19)
(0.0300661 0.0477931 1.30969e-20)
(0.0601671 0.0447883 -4.19769e-19)
(0.096744 0.040799 -3.67879e-19)
(0.140005 0.0361572 -6.59901e-19)
(0.190139 0.0311681 -7.86529e-21)
(0.247264 0.026112 2.43103e-20)
(0.311346 0.0212473 -1.55137e-19)
(0.382119 0.0168216 6.91114e-19)
(0.458936 0.0130327 4.30132e-19)
(0.540995 0.0103095 1.07318e-19)
(0.625771 0.00828161 -4.64563e-19)
(0.714561 0.00847443 -2.43129e-20)
(0.790601 0.0234841 -7.7095e-19)
(-0.00910205 0.00906704 2.08406e-19)
(-0.0211609 0.022602 -3.9421e-19)
(-0.0268552 0.0327316 5.06723e-19)
(-0.0262406 0.039653 7.12346e-19)
(-0.0192571 0.0437725 -2.31873e-19)
(-0.00585812 0.0455066 3.03875e-20)
(0.0140207 0.0452663 -6.31034e-19)
(0.0404888 0.0434547 -1.56902e-19)
(0.0737023 0.0404577 -4.91795e-19)
(0.113851 0.0366383 6.43595e-19)
(0.161129 0.0323341 5.99525e-19)
(0.215682 0.0278562 -1.06887e-19)
(0.277542 0.0234891 -8.12821e-20)
(0.346539 0.0194904 -7.34082e-21)
(0.422219 0.0161013 1.23184e-19)
(0.503693 0.0134931 -2.24116e-19)
(0.589937 0.0121261 -2.62311e-19)
(0.678081 0.011258 5.58824e-19)
(0.771178 0.0152767 -1.79156e-19)
(0.842826 0.0229056 3.23707e-20)
(-0.00900782 0.00862339 5.50758e-20)
(-0.0205629 0.0212653 7.98584e-20)
(-0.0254117 0.0305671 -2.65215e-19)
(-0.0235912 0.0367603 -7.3402e-19)
(-0.0150183 0.0402801 1.19129e-19)
(0.000377744 0.0415618 3.61034e-19)
(0.0226862 0.0410279 1.65109e-19)
(0.052038 0.0390894 7.10197e-19)
(0.0886019 0.0361388 -4.47115e-19)
(0.132564 0.0325451 -5.8351e-19)
(0.184088 0.0286514 -1.07135e-19)