/*--------------------------------*- C++ -*----------------------------------*\
  =========                 |
  \\      /  F ield         | OpenFOAM: The Open Source CFD Toolbox
   \\    /   O peration     | Website:  https://openfoam.org
    \\  /    A nd           | Version:  7
     \\/     M anipulation  |
\*---------------------------------------------------------------------------*/
FoamFile
{
    version     2.0;
    format      ascii;
    class       surfaceScalarField;
    location    "20";
    object      phi;
}
// * * * * * * * * * * * * * * * * * * * * * * * * * * * * * * * * * * * * * //

dimensions      [0 3 -1 0 0 0 0];

internalField   nonuniform List<scalar> 
16730
(
-0.00360722
-0.000528624
-0.000510386
-0.00345565
-0.00355871
-0.000558903
-0.000489547
-0.00331274
-0.000538527
-0.00340667
-0.00350857
-0.00058867
-0.000467165
-0.00317949
-0.000515657
-0.00326425
-0.000566148
-0.00335618
-0.00345681
-0.000617905
-0.000491494
-0.00313157
-0.000541288
-0.00321446
-0.000593247
-0.00330422
-0.00340347
-0.00064659
-0.000466239
-0.00300671
-0.000515405
-0.00308241
-0.000566457
-0.00316341
-0.000619839
-0.00325084
-0.00334854
-0.000674769
-0.000439636
-0.00288815
-0.000488503
-0.00295784
-0.000538912
-0.003032
-0.000591193
-0.00311113
-0.000645966
-0.00319606
-0.00329198
-0.000702525
-0.000460235
-0.00283942
-0.000510377
-0.0029077
-0.000562037
-0.00298034
-0.000615544
-0.00305762
-0.000671638
-0.00313997
-0.0032338
-0.000729815
-0.000430439
-0.00272658
-0.000480432
-0.00278943
-0.000531852
-0.00285628
-0.000584805
-0.00292739
-0.000639603
-0.00300282
-0.000696832
-0.00308274
-0.00317382
-0.000756815
-0.000448975
-0.00267673
-0.000500211
-0.00273819
-0.000552909
-0.00280358
-0.000607203
-0.00287309
-0.000663435
-0.00294659
-0.000722283
-0.00302389
-0.00311365
-0.000782445
-0.000416045
-0.00256927
-0.000467093
-0.00262568
-0.000519547
-0.00268574
-0.000573503
-0.00274962
-0.000629139
-0.00281746
-0.000686611
-0.00288912
-0.00074524
-0.00296526
-0.00304824
-0.000810655
-0.000381711
-0.0024666
-0.000432579
-0.0025184
-0.000484797
-0.00257346
-0.000538438
-0.0026321
-0.000593607
-0.00269445
-0.000650462
-0.0027606
-0.000709072
-0.00283051
-0.000769537
-0.0029048
-0.00298351
-0.000834262
-0.000396716
-0.00241591
-0.000448717
-0.0024664
-0.000502077
-0.0025201
-0.000556873
-0.0025773
-0.000613211
-0.00263812
-0.000671222
-0.00270259
-0.000730991
-0.00277074
-0.000792797
-0.00284299
-0.00291867
-0.000857638
-0.000359557
-0.00231745
-0.000411348
-0.00236412
-0.000464455
-0.0024133
-0.000518928
-0.00246563
-0.000574848
-0.00252138
-0.000632317
-0.00258065
-0.000691448
-0.00264346
-0.000752342
-0.00270984
-0.000815258
-0.00278008
-0.00285331
-0.000880624
-0.000372736
-0.0022659
-0.000425604
-0.00231125
-0.00047979
-0.00235911
-0.000535349
-0.00241007
-0.000592362
-0.00246437
-0.000650926
-0.00252208
-0.000711145
-0.00258324
-0.000773123
-0.00264787
-0.000837058
-0.00271614
-0.00278722
-0.000903143
-0.000332953
-0.00217037
-0.000385564
-0.00221329
-0.000439482
-0.00225734
-0.00049472
-0.00230387
-0.000551336
-0.00235345
-0.000609412
-0.00240629
-0.000669041
-0.00246246
-0.000730318
-0.00252196
-0.000793343
-0.00258484
-0.000858263
-0.00265122
-0.00272031
-0.00092517
-0.000344398
-0.00211811
-0.000398038
-0.00215965
-0.00045298
-0.00220239
-0.000509243
-0.00224761
-0.000566889
-0.00229581
-0.000625999
-0.00234718
-0.000686662
-0.00240179
-0.00074897
-0.00245965
-0.000813012
-0.0025208
-0.000878903
-0.00258533
-0.00265252
-0.000946696
-0.000355517
-0.00206482
-0.000410159
-0.00210501
-0.000466098
-0.00214645
-0.000523359
-0.00219035
-0.000582008
-0.00223716
-0.000642123
-0.00228706
-0.000703793
-0.00234012
-0.000767104
-0.00239634
-0.00083214
-0.00245576
-0.000898995
-0.00251847
-0.00258381
-0.000967707
-0.000312032
-0.0019705
-0.000366309
-0.00201054
-0.000421925
-0.00204939
-0.000478834
-0.00208955
-0.000537066
-0.00213212
-0.00059669
-0.00217754
-0.000657784
-0.00222597
-0.000720434
-0.00227747
-0.000784724
-0.00233205
-0.000850733
-0.00238976
-0.000918543
-0.00245066
-0.00251416
-0.000988193
-0.000321536
-0.00191676
-0.000376773
-0.0019553
-0.000433335
-0.00199283
-0.000491187
-0.00203169
-0.000550364
-0.00207294
-0.000610935
-0.00211697
-0.000672981
-0.00216392
-0.000736585
-0.00221387
-0.000801831
-0.00226681
-0.000868792
-0.00232279
-0.000937549
-0.00238191
-0.00244357
-0.00100814
-0.000276041
-0.00181966
-0.000330739
-0.00186206
-0.000386907
-0.00189914
-0.000444388
-0.00193535
-0.000503156
-0.00197293
-0.00056325
-0.00201284
-0.000624743
-0.00205547
-0.000687714
-0.00210095
-0.000752248
-0.00214933
-0.000818425
-0.00220063
-0.00088632
-0.0022549
-0.00095601
-0.00231222
-0.00237203
-0.00102754
-0.000284017
-0.00176583
-0.000339643
-0.00180644
-0.000396712
-0.00184207
-0.000455084
-0.00187698
-0.00051474
-0.00191327
-0.000575725
-0.00195186
-0.000638112
-0.00199309
-0.000701982
-0.00203708
-0.00076742
-0.0020839
-0.000834505
-0.00213355
-0.000903314
-0.00218609
-0.000973924
-0.00224161
-0.00229957
-0.00104639
-0.000291723
-0.00171107
-0.000348245
-0.00174992
-0.000406187
-0.00178412
-0.000465422
-0.00181774
-0.000525939
-0.00185275
-0.000587788
-0.00189001
-0.000651042
-0.00192983
-0.000715785
-0.00197234
-0.000782101
-0.00201758
-0.000850071
-0.00206557
-0.000919772
-0.00211639
-0.000991284
-0.0021701
-0.00222619
-0.00106466
-0.000243487
-0.00160699
-0.000299159
-0.0016554
-0.000356545
-0.00169253
-0.000415331
-0.00172534
-0.000475401
-0.00175767
-0.000536751
-0.0017914
-0.000599436
-0.00182732
-0.000663531
-0.00186574
-0.000729121
-0.00190675
-0.00079629
-0.00195041
-0.00086512
-0.00199674
-0.000935691
-0.00204582
-0.00100808
-0.0020977
-0.00215191
-0.00108236
-0.000249781
-0.00155272
-0.000306323
-0.00159885
-0.000364544
-0.00163431
-0.000424144
-0.00166574
-0.00048502
-0.0016968
-0.000547176
-0.00172925
-0.00061067
-0.00176383
-0.000675579
-0.00180083
-0.000741988
-0.00184034
-0.000809984
-0.00188241
-0.00087965
-0.00192708
-0.000951067
-0.0019744
-0.00102432
-0.00202445
-0.00207675
-0.00109948
-0.000255837
-0.00149757
-0.000313217
-0.00154147
-0.00037224
-0.00157529
-0.000432625
-0.00160535
-0.000494279
-0.00163514
-0.000557213
-0.00166631
-0.000621487
-0.00169956
-0.000687182
-0.00173513
-0.000754384
-0.00177314
-0.00082318
-0.00181362
-0.000893656
-0.0018566
-0.000965895
-0.00190216
-0.00103999
-0.00195036
-0.00200074
-0.001116
-0.000205642
-0.00138054
-0.000261654
-0.00144155
-0.000319838
-0.00148329
-0.000379633
-0.00151549
-0.000440773
-0.00154421
-0.000503177
-0.00157274
-0.00056686
-0.00160263
-0.000631888
-0.00163453
-0.000698341
-0.00166868
-0.000766308
-0.00170517
-0.000835878
-0.00174405
-0.000907137
-0.00178534
-0.000980172
-0.00182913
-0.00105508
-0.00187545
-0.0019239
-0.00113192
-0.000210403
-0.00132679
-0.000267233
-0.00138472
-0.000326188
-0.00142434
-0.000386723
-0.00145496
-0.000448589
-0.00148235
-0.000511712
-0.00150961
-0.000576117
-0.00153822
-0.000641869
-0.00156878
-0.000709053
-0.0016015
-0.000777757
-0.00163647
-0.000848073
-0.00167373
-0.000920088
-0.00171333
-0.000993893
-0.00175532
-0.00106958
-0.00179976
-0.00184625
-0.00114723
-0.000214961
-0.0012722
-0.000272573
-0.00132711
-0.000332264
-0.00136465
-0.000393509
-0.00139371
-0.00045607
-0.00141979
-0.000519885
-0.0014458
-0.000584982
-0.00147313
-0.00065143
-0.00150233
-0.000719316
-0.00153361
-0.000788729
-0.00156705
-0.000859763
-0.0016027
-0.000932507
-0.00164058
-0.00100705
-0.00168078
-0.0010835
-0.00172332
-0.00176782
-0.00116192
-0.000219316
-0.0012168
-0.000277674
-0.00126875
-0.000338068
-0.00130425
-0.000399991
-0.00133179
-0.000463218
-0.00135656
-0.000527695
-0.00138132
-0.000593454
-0.00140737
-0.00066057
-0.00143521
-0.000729128
-0.00146505
-0.000799222
-0.00149696
-0.000870945
-0.00153098
-0.000944389
-0.00156714
-0.00101965
-0.00160552
-0.00109682
-0.00164614
-0.00168865
-0.00117599
-0.000167309
-0.00108443
-0.000223466
-0.00116064
-0.000282534
-0.00120969
-0.000343599
-0.00124319
-0.000406168
-0.00126922
-0.00047003
-0.0012927
-0.000535139
-0.00131621
-0.000601533
-0.00134097
-0.000669286
-0.00136746
-0.000738489
-0.00139585
-0.000809233
-0.00142622
-0.000881616
-0.0014586
-0.000955731
-0.00149302
-0.00103167
-0.00152957
-0.00110955
-0.00156827
-0.00160877
-0.00118943
-0.000170532
-0.00103186
-0.000227413
-0.00110376
-0.000287154
-0.00114995
-0.000348855
-0.00118148
-0.00041204
-0.00120604
-0.000476507
-0.00122823
-0.000542219
-0.0012505
-0.000609216
-0.00127398
-0.000677578
-0.0012991
-0.000747395
-0.00132603
-0.000818761
-0.00135485
-0.000891773
-0.00138558
-0.000966529
-0.00141827
-0.00104313
-0.00145298
-0.00112167
-0.00148973
-0.00152819
-0.00120224
-0.000173589
-0.000978553
-0.000231154
-0.0010462
-0.000291533
-0.00108957
-0.000353838
-0.00111918
-0.000417606
-0.00114227
-0.000482648
-0.00116319
-0.000548932
-0.00118422
-0.000616504
-0.0012064
-0.000685444
-0.00123016
-0.000755845
-0.00125563
-0.000827802
-0.00128289
-0.000901414
-0.00131197
-0.00097678
-0.0013429
-0.001054
-0.00137576
-0.00113318
-0.00141055
-0.00144697
-0.0012144
-0.000176479
-0.000924559
-0.00023469
-0.000987987
-0.00029567
-0.00102859
-0.000358546
-0.0010563
-0.000422866
-0.00107795
-0.000488452
-0.0010976
-0.000555277
-0.00111739
-0.000623394
-0.00113829
-0.000692882
-0.00116067
-0.000763836
-0.00118468
-0.000836355
-0.00121037
-0.000910536
-0.00123779
-0.000986481
-0.00126696
-0.00106429
-0.00129794
-0.00114408
-0.00133076
-0.00136513
-0.00122592
-0.000179202
-0.000869914
-0.00023802
-0.000929169
-0.000299567
-0.00096704
-0.00036298
-0.000992889
-0.00042782
-0.00101311
-0.000493918
-0.0010315
-0.000561255
-0.00105006
-0.000629885
-0.00106966
-0.000699891
-0.00109066
-0.000771368
-0.0011132
-0.000844417
-0.00113733
-0.000919136
-0.00116307
-0.000995629
-0.00119047
-0.001074
-0.00121957
-0.00115436
-0.00125041
-0.00128269
-0.00123679
-0.000126504
-0.000728328
-0.000181758
-0.00081466
-0.000241144
-0.000869783
-0.000303221
-0.000904962
-0.000367138
-0.000928973
-0.000432466
-0.00094778
-0.000499046
-0.000964924
-0.000566864
-0.000982238
-0.000635977
-0.00100055
-0.000706469
-0.00102017
-0.000778439
-0.00104123
-0.000851986
-0.00106378
-0.000927211
-0.00108784
-0.00100422
-0.00111346
-0.00108312
-0.00114068
-0.00116401
-0.00116951
-0.00119971
-0.001247
-0.000128323
-0.00067877
-0.000184145
-0.000758839
-0.000244061
-0.000809866
-0.000306634
-0.000842389
-0.000371021
-0.000864586
-0.000436805
-0.000881995
-0.000503835
-0.000897894
-0.000572103
-0.00091397
-0.000641667
-0.000930981
-0.000712616
-0.000949222
-0.000785046
-0.000968802
-0.00085906
-0.000989766
-0.00093476
-0.00101214
-0.00101225
-0.00103597
-0.00109164
-0.00106129
-0.00117304
-0.00108811
-0.00111621
-0.00125654
-0.000130014
-0.000628663
-0.000186363
-0.00070249
-0.000246772
-0.000749457
-0.000309804
-0.000779357
-0.000374628
-0.000799762
-0.000440836
-0.000815786
-0.000508286
-0.000830445
-0.000576972
-0.000845284
-0.000646957
-0.000860996
-0.000718329
-0.000877849
-0.000791189
-0.000895942
-0.000865637
-0.000915318
-0.000941779
-0.000936003
-0.00101972
-0.000958025
-0.00109957
-0.000981436
-0.00118144
-0.00100624
-0.00103222
-0.00126543
-0.000131577
-0.000578051
-0.000188412
-0.000645655
-0.000249275
-0.000688595
-0.000312731
-0.000715901
-0.000377959
-0.000734535
-0.000444559
-0.000749186
-0.000512396
-0.000762608
-0.000581469
-0.000776211
-0.000651843
-0.000790622
-0.000723609
-0.000806083
-0.000796865
-0.000822686
-0.000871716
-0.000840467
-0.000948267
-0.000859452
-0.00102663
-0.000879666
-0.0011069
-0.00090116
-0.00118921
-0.000923932
-0.000947789
-0.00127364
-0.000133011
-0.000526975
-0.000190292
-0.000588374
-0.00025157
-0.000627316
-0.000315416
-0.000652055
-0.000381013
-0.000668938
-0.000447973
-0.000682225
-0.000516166
-0.000694416
-0.000585594
-0.000706783
-0.000656326
-0.00071989
-0.000728452
-0.000733957
-0.000802073
-0.000749064
-0.000877295
-0.000765246
-0.000954222
-0.000782524
-0.00103296
-0.000800925
-0.00111363
-0.000820492
-0.00119634
-0.000841224
-0.000862945
-0.00128118
-0.000134317
-0.000475478
-0.000192002
-0.000530689
-0.000253658
-0.00056566
-0.000317857
-0.000587856
-0.000383791
-0.000603004
-0.000451078
-0.000614938
-0.000519594
-0.0006259
-0.000589347
-0.00063703
-0.000660404
-0.000648833
-0.000732859
-0.000661502
-0.000806813
-0.00067511
-0.000882371
-0.000689687
-0.000959641
-0.000705254
-0.00103873
-0.000721834
-0.00111976
-0.000739466
-0.00120283
-0.00075815
-0.000777726
-0.00128805
-0.000135492
-0.000423602
-0.000193542
-0.000472639
-0.000255538
-0.000503664
-0.000320055
-0.00052334
-0.000386291
-0.000536767
-0.000453874
-0.000547355
-0.000522682
-0.000557092
-0.000592726
-0.000566986
-0.000664076
-0.000577482
-0.000736828
-0.000588751
-0.000811082
-0.000600856
-0.000886944
-0.000613825
-0.000964523
-0.000627675
-0.00104393
-0.000642428
-0.00112528
-0.000658119
-0.00120868
-0.000674746
-0.000692169
-0.00129424
-0.000136538
-0.000371389
-0.000194911
-0.000414266
-0.000257209
-0.000441366
-0.000322009
-0.00045854
-0.000388515
-0.000470261
-0.00045636
-0.00047951
-0.000525427
-0.000488025
-0.000595731
-0.000496683
-0.000667343
-0.00050587
-0.000740358
-0.000515736
-0.000814879
-0.000526335
-0.000891013
-0.000537691
-0.000968867
-0.00054982
-0.00104855
-0.000562741
-0.00113019
-0.000576484
-0.00121389
-0.000591048
-0.00060631
-0.00129975
-0.000137454
-0.000318881
-0.00019611
-0.000355611
-0.000258672
-0.000378804
-0.000323719
-0.000393494
-0.000390461
-0.000403519
-0.000458536
-0.000411436
-0.00052783
-0.00041873
-0.000598362
-0.000426151
-0.000670203
-0.000434029
-0.000743449
-0.00044249
-0.000818204
-0.00045158
-0.000894575
-0.00046132
-0.000972671
-0.000471724
-0.0010526
-0.000482808
-0.00113449
-0.000494598
-0.00121845
-0.000507093
-0.000520187
-0.00130457
-8.54789e-05
-0.000219448
-0.00013824
-0.00026612
-0.000197138
-0.000296712
-0.000259927
-0.000316015
-0.000325185
-0.000328235
-0.000392129
-0.000336575
-0.000460401
-0.000343164
-0.000529891
-0.00034924
-0.000600617
-0.000355425
-0.000672655
-0.000361992
-0.0007461
-0.000369045
-0.000821056
-0.000376624
-0.00089763
-0.000384745
-0.000975934
-0.000393421
-0.00105608
-0.000402663
-0.00113818
-0.000412496
-0.00122236
-0.000422916
-0.000433836
-0.00130871
-8.59232e-05
-0.000175802
-0.000138895
-0.000213148
-0.000197995
-0.000237612
-0.000260972
-0.000253038
-0.000326407
-0.0002628
-0.00039352
-0.000269462
-0.000461956
-0.000274728
-0.000531608
-0.000279587
-0.000602498
-0.000284535
-0.000674699
-0.00028979
-0.00074831
-0.000295435
-0.000823433
-0.000301501
-0.000900178
-0.000308001
-0.000978654
-0.000314944
-0.00105898
-0.000322342
-0.00114126
-0.000330213
-0.00122562
-0.000338555
-0.000347297
-0.00131216
-8.62788e-05
-0.000131994
-0.000139419
-0.000160008
-0.000198681
-0.00017835
-0.000261808
-0.000189911
-0.000327385
-0.000197223
-0.000394633
-0.000202214
-0.0004632
-0.000206161
-0.000532983
-0.000209804
-0.000604003
-0.000213515
-0.000676335
-0.000217457
-0.000750078
-0.000221692
-0.000825336
-0.000226243
-0.000902217
-0.00023112
-0.000980832
-0.000236329
-0.00106129
-0.00024188
-0.00114372
-0.000247787
-0.00122823
-0.000254045
-0.000260605
-0.00131492
-8.65456e-05
-8.80634e-05
-0.000139812
-0.000106742
-0.000199195
-0.000118967
-0.000262436
-0.00012667
-0.000328118
-0.000131541
-0.000395467
-0.000134865
-0.000464133
-0.000137495
-0.000534014
-0.000139924
-0.000605131
-0.000142398
-0.000677563
-0.000145026
-0.000751405
-0.00014785
-0.000826764
-0.000150884
-0.000903747
-0.000154136
-0.000982466
-0.000157611
-0.00106303
-0.000161312
-0.00114557
-0.000165251
-0.00123019
-0.000169425
-0.0001738
-0.00131699
-8.67236e-05
-4.40517e-05
-0.000140074
-5.33918e-05
-0.000199538
-5.95033e-05
-0.000262854
-6.33532e-05
-0.000328607
-6.57876e-05
-0.000396024
-6.74491e-05
-0.000464755
-6.87637e-05
-0.000534701
-6.99777e-05
-0.000605884
-7.12148e-05
-0.000678381
-7.25291e-05
-0.00075229
-7.39412e-05
-0.000827715
-7.54587e-05
-0.000904767
-7.7085e-05
-0.000983555
-7.88224e-05
-0.00106419
-8.06737e-05
-0.0011468
-8.26435e-05
-0.0012315
-8.4731e-05
-8.6919e-05
-0.00131838
-8.68125e-05
7.15671e-10
-0.000140205
8.23572e-10
-0.000199709
8.72342e-10
-0.000263063
8.83708e-10
-0.000328852
8.73767e-10
-0.000396302
8.52222e-10
-0.000465066
8.23778e-10
-0.000535045
7.9012e-10
-0.00060626
7.51636e-10
-0.00067879
7.08405e-10
-0.000752732
6.60523e-10
-0.000828191
6.08194e-10
-0.000905277
5.51728e-10
-0.0009841
4.91386e-10
-0.00106477
4.2755e-10
-0.00114742
3.60592e-10
-0.00123215
2.90877e-10
2.1782e-10
-0.00131907
-8.68125e-05
4.40531e-05
-0.000140205
5.33934e-05
-0.000199709
5.9505e-05
-0.000263063
6.33549e-05
-0.000328852
6.57894e-05
-0.000396302
6.74508e-05
-0.000465066
6.87654e-05
-0.000535045
6.99793e-05
-0.00060626
7.12163e-05
-0.00067879
7.25305e-05
-0.000752732
7.39425e-05
-0.000828191
7.54599e-05
-0.000905277
7.70861e-05
-0.0009841
7.88234e-05
-0.00106477
8.06745e-05
-0.00114742
8.26442e-05
-0.00123215
8.47316e-05
8.69194e-05
-0.00131907
-8.67236e-05
8.80648e-05
-0.000140074
0.000106744
-0.000199538
0.000118969
-0.000262854
0.000126671
-0.000328607
0.000131543
-0.000396024
0.000134867
-0.000464755
0.000137497
-0.000534701
0.000139925
-0.000605884
0.000142399
-0.000678381
0.000145027
-0.00075229
0.000147851
-0.000827715
0.000150886
-0.000904767
0.000154138
-0.000983555
0.000157612
-0.00106419
0.000161313
-0.0011468
0.000165252
-0.0012315
0.000169426
0.000173801
-0.00131838
-8.65457e-05
0.000131995
-0.000139812
0.00016001
-0.000199195
0.000178352
-0.000262436
0.000189912
-0.000328118
0.000197225
-0.000395467
0.000202216
-0.000464133
0.000206163
-0.000534014
0.000209806
-0.000605132
0.000213517
-0.000677563
0.000217459
-0.000751405
0.000221694
-0.000826764
0.000226244
-0.000903747
0.000231121
-0.000982466
0.00023633
-0.00106303
0.000241881
-0.00114557
0.000247787
-0.00123019
0.000254046
0.000260606
-0.00131699
-8.62788e-05
0.000175804
-0.000139419
0.00021315
-0.000198681
0.000237614
-0.000261809
0.00025304
-0.000327385
0.000262802
-0.000394633
0.000269464
-0.0004632
0.00027473
-0.000532983
0.000279589
-0.000604003
0.000284537
-0.000676336
0.000289791
-0.000750078
0.000295436
-0.000825336
0.000301502
-0.000902217
0.000308002
-0.000980832
0.000314945
-0.00106129
0.000322343
-0.00114372
0.000330214
-0.00122823
0.000338555
0.000347297
-0.00131492
-8.59232e-05
0.00021945
-0.000138895
0.000266122
-0.000197995
0.000296714
-0.000260972
0.000316017
-0.000326407
0.000328237
-0.00039352
0.000336576
-0.000461956
0.000343166
-0.000531609
0.000349241
-0.000602498
0.000355426
-0.0006747
0.000361993
-0.00074831
0.000369047
-0.000823433
0.000376625
-0.000900178
0.000384747
-0.000978655
0.000393422
-0.00105898
0.000402664
-0.00114126
0.000412497
-0.00122562
0.000422917
0.000433837
-0.00131216
-8.54789e-05
-0.00013824
0.000318882
-0.000197138
0.000355612
-0.000259927
0.000378806
-0.000325185
0.000393496
-0.00039213
0.000403521
-0.000460401
0.000411438
-0.000529891
0.000418731
-0.000600618
0.000426153
-0.000672655
0.000434031
-0.0007461
0.000442491
-0.000821056
0.000451581
-0.000897631
0.000461321
-0.000975934
0.000471725
-0.00105608
0.000482809
-0.00113818
0.000494599
-0.00122236
0.000507093
0.000520187
-0.00130871
-0.000137454
0.000371391
-0.00019611
0.000414268
-0.000258672
0.000441368
-0.000323719
0.000458542
-0.000390461
0.000470263
-0.000458536
0.000479512
-0.000527831
0.000488026
-0.000598362
0.000496684
-0.000670203
0.000505872
-0.000743449
0.000515738
-0.000818204
0.000526336
-0.000894575
0.000537692
-0.000972671
0.000549821
-0.0010526
0.000562742
-0.00113449
0.000576485
-0.00121845
0.000591049
0.00060631
-0.00130457
-0.000136538
0.000423604
-0.000194911
0.000472641
-0.000257209
0.000503666
-0.000322009
0.000523342
-0.000388515
0.000536769
-0.00045636
0.000547357
-0.000525427
0.000557094
-0.000595731
0.000566988
-0.000667343
0.000577484
-0.000740358
0.000588753
-0.000814879
0.000600857
-0.000891013
0.000613826
-0.000968868
0.000627676
-0.00104855
0.000642429
-0.00113019
0.00065812
-0.00121389
0.000674747
0.000692169
-0.00129975
-0.000135493
0.00047548
-0.000193542
0.000530691
-0.000255538
0.000565662
-0.000320055
0.000587858
-0.000386292
0.000603006
-0.000453874
0.000614939
-0.000522682
0.000625902
-0.000592726
0.000637032
-0.000664077
0.000648834
-0.000736828
0.000661504
-0.000811082
0.000675111
-0.000886945
0.000689688
-0.000964524
0.000705255
-0.00104393
0.000721835
-0.00112528
0.000739467
-0.00120868
0.000758151
0.000777727
-0.00129424
-0.000134317
0.000526977
-0.000192002
0.000588376
-0.000253658
0.000627318
-0.000317857
0.000652057
-0.000383791
0.00066894
-0.000451079
0.000682227
-0.000519595
0.000694418
-0.000589347
0.000706784
-0.000660404
0.000719892
-0.000732859
0.000733959
-0.000806813
0.000749065
-0.000882372
0.000765247
-0.000959642
0.000782525
-0.00103873
0.000800926
-0.00111976
0.000820493
-0.00120283
0.000841225
0.000862946
-0.00128805
-0.000133012
0.000578053
-0.000190292
0.000645657
-0.000251571
0.000688597
-0.000315416
0.000715903
-0.000381013
0.000734537
-0.000447974
0.000749188
-0.000516166
0.00076261
-0.000585594
0.000776213
-0.000656326
0.000790623
-0.000728452
0.000806085
-0.000802074
0.000822687
-0.000877295
0.000840468
-0.000954222
0.000859453
-0.00103296
0.000879667
-0.00111363
0.000901161
-0.00119634
0.000923933
0.00094779
-0.00128118
-0.000131577
0.000628665
-0.000188412
0.000702492
-0.000249275
0.000749459
-0.000312732
0.000779359
-0.000377959
0.000799764
-0.00044456
0.000815788
-0.000512396
0.000830446
-0.000581469
0.000845286
-0.000651843
0.000860997
-0.000723609
0.00087785
-0.000796866
0.000895944
-0.000871717
0.000915319
-0.000948268
0.000936004
-0.00102663
0.000958026
-0.0011069
0.000981437
-0.00118921
0.00100624
0.00103222
-0.00127364
-0.000130014
0.000678772
-0.000186363
0.000758841
-0.000246772
0.000809868
-0.000309804
0.000842391
-0.000374628
0.000864588
-0.000440837
0.000881997
-0.000508286
0.000897896
-0.000576972
0.000913972
-0.000646957
0.000930983
-0.00071833
0.000949223
-0.000791189
0.000968803
-0.000865638
0.000989768
-0.00094178
0.00101215
-0.00101972
0.00103597
-0.00109957
0.00106129
-0.00118144
0.00108811
0.00111621
-0.00126543
-0.000128323
0.00072833
-0.000184145
0.000814662
-0.000244062
0.000869785
-0.000306634
0.000904964
-0.000371021
0.000928975
-0.000436806
0.000947781
-0.000503836
0.000964926
-0.000572104
0.00098224
-0.000641668
0.00100055
-0.000712617
0.00102017
-0.000785047
0.00104123
-0.000859061
0.00106378
-0.000934761
0.00108785
-0.00101225
0.00111346
-0.00109164
0.00114068
-0.00117304
0.00116951
0.00119971
-0.00125655
-0.000126504
-0.000181758
0.000869916
-0.000241144
0.000929171
-0.000303222
0.000967042
-0.000367138
0.000992891
-0.000432467
0.00101311
-0.000499046
0.00103151
-0.000566864
0.00105006
-0.000635977
0.00106966
-0.00070647
0.00109066
-0.00077844
0.0011132
-0.000851986
0.00113733
-0.000927212
0.00116307
-0.00100422
0.00119047
-0.00108312
0.00121958
-0.00116401
0.00125041
0.00128269
-0.001247
-0.000179203
0.000924561
-0.00023802
0.000987989
-0.000299567
0.00102859
-0.00036298
0.0010563
-0.00042782
0.00107795
-0.000493918
0.0010976
-0.000561256
0.0011174
-0.000629885
0.00113829
-0.000699892
0.00116067
-0.000771369
0.00118468
-0.000844417
0.00121038
-0.000919137
0.00123779
-0.000995629
0.00126696
-0.001074
0.00129795
-0.00115436
0.00133076
0.00136513
-0.00123679
-0.000176479
0.000978555
-0.00023469
0.0010462
-0.000295671
0.00108957
-0.000358547
0.00111918
-0.000422867
0.00114227
-0.000488452
0.00116319
-0.000555278
0.00118422
-0.000623394
0.00120641
-0.000692883
0.00123016
-0.000763837
0.00125564
-0.000836355
0.00128289
-0.000910537
0.00131197
-0.000986482
0.0013429
-0.00106429
0.00137576
-0.00114408
0.00141055
0.00144697
-0.00122592
-0.000173589
0.00103186
-0.000231154
0.00110377
-0.000291533
0.00114995
-0.000353839
0.00118149
-0.000417607
0.00120604
-0.000482648
0.00122823
-0.000548932
0.0012505
-0.000616504
0.00127398
-0.000685445
0.0012991
-0.000755845
0.00132604
-0.000827803
0.00135485
-0.000901415
0.00138558
-0.000976781
0.00141827
-0.001054
0.00145298
-0.00113318
0.00148973
0.0015282
-0.00121441
-0.000170532
0.00108443
-0.000227413
0.00116065
-0.000287154
0.00120969
-0.000348856
0.00124319
-0.00041204
0.00126922
-0.000476508
0.0012927
-0.000542219
0.00131622
-0.000609217
0.00134098
-0.000677579
0.00136746
-0.000747395
0.00139585
-0.000818762
0.00142622
-0.000891774
0.0014586
-0.00096653
0.00149303
-0.00104313
0.00152957
-0.00112167
0.00156827
0.00160877
-0.00120224
-0.000167309
-0.000223467
0.0012168
-0.000282534
0.00126876
-0.000343599
0.00130425
-0.000406169
0.00133179
-0.000470031
0.00135656
-0.00053514
0.00138133
-0.000601534
0.00140737
-0.000669287
0.00143522
-0.00073849
0.00146505
-0.000809234
0.00149696
-0.000881617
0.00153098
-0.000955732
0.00156714
-0.00103168
0.00160552
-0.00110955
0.00164614
0.00168865
-0.00118944
-0.000219316
0.0012722
-0.000277674
0.00132711
-0.000338069
0.00136465
-0.000399992
0.00139371
-0.000463219
0.00141979
-0.000527695
0.0014458
-0.000593455
0.00147313
-0.000660571
0.00150233
-0.000729129
0.00153361
-0.000799223
0.00156706
-0.000870946
0.0016027
-0.00094439
0.00164058
-0.00101965
0.00168078
-0.00109682
0.00172332
0.00176782
-0.00117599
-0.000214962
0.00132679
-0.000272574
0.00138473
-0.000332265
0.00142434
-0.00039351
0.00145496
-0.000456071
0.00148235
-0.000519886
0.00150962
-0.000584983
0.00153823
-0.000651431
0.00156878
-0.000719317
0.0016015
-0.00078873
0.00163647
-0.000859764
0.00167374
-0.000932508
0.00171333
-0.00100705
0.00175532
-0.0010835
0.00179976
0.00184625
-0.00116192
-0.000210403
-0.000267234
0.00144156
-0.000326188
0.00148329
-0.000386724
0.00151549
-0.00044859
0.00154421
-0.000511713
0.00157274
-0.000576118
0.00160263
-0.00064187
0.00163453
-0.000709054
0.00166868
-0.000777758
0.00170517
-0.000848074
0.00174405
-0.00092009
0.00178534
-0.000993894
0.00182913
-0.00106958
0.00187545
0.0019239
-0.00114723
-0.000261655
0.00149757
-0.000319839
0.00154148
-0.000379634
0.00157529
-0.000440774
0.00160535
-0.000503178
0.00163514
-0.000566861
0.00166631
-0.000631889
0.00169956
-0.000698342
0.00173514
-0.000766309
0.00177314
-0.000835879
0.00181362
-0.000907138
0.0018566
-0.000980174
0.00190216
-0.00105508
0.00195036
0.00200074
-0.00113192
-0.000255837
0.00155273
-0.000313217
0.00159886
-0.000372241
0.00163431
-0.000432626
0.00166574
-0.00049428
0.0016968
-0.000557214
0.00172925
-0.000621488
0.00176383
-0.000687184
0.00180083
-0.000754385
0.00184034
-0.000823182
0.00188242
-0.000893658
0.00192708
-0.000965897
0.0019744
-0.00103999
0.00202445
0.00207675
-0.001116
-0.000249781
0.00160699
-0.000306324
0.0016554
-0.000364545
0.00169253
-0.000424145
0.00172534
-0.000485021
0.00175767
-0.000547177
0.00179141
-0.000610671
0.00182733
-0.00067558
0.00186574
-0.000741989
0.00190675
-0.000809985
0.00195041
-0.000879651
0.00199675
-0.000951068
0.00204582
-0.00102432
0.0020977
0.00215191
-0.00109948
-0.000243488
-0.000299159
0.00171107
-0.000356546
0.00174992
-0.000415332
0.00178413
-0.000475402
0.00181774
-0.000536752
0.00185276
-0.000599437
0.00189001
-0.000663533
0.00192984
-0.000729122
0.00197234
-0.000796291
0.00201758
-0.000865122
0.00206558
-0.000935692
0.00211639
-0.00100809
0.0021701
0.00222619
-0.00108237
-0.000291724
0.00176584
-0.000348246
0.00180644
-0.000406188
0.00184207
-0.000465423
0.00187698
-0.00052594
0.00191327
-0.000587789
0.00195186
-0.000651043
0.00199309
-0.000715787
0.00203709
-0.000782103
0.0020839
-0.000850073
0.00213355
-0.000919773
0.00218609
-0.000991285
0.00224161
0.00229957
-0.00106467
-0.000284018
0.00181967
-0.000339643
0.00186207
-0.000396713
0.00189914
-0.000455085
0.00193535
-0.000514741
0.00197293
-0.000575727
0.00201285
-0.000638113
0.00205548
-0.000701984
0.00210096
-0.000767421
0.00214933
-0.000834507
0.00220063
-0.000903315
0.0022549
-0.000973925
0.00231222
0.00237204
-0.00104639
-0.000276042
-0.00033074
0.00191677
-0.000386908
0.00195531
-0.000444389
0.00199283
-0.000503157
0.0020317
-0.000563252
0.00207294
-0.000624744
0.00211697
-0.000687715
0.00216393
-0.000752249
0.00221387
-0.000818426
0.00226681
-0.000886322
0.0023228
-0.000956012
0.00238191
0.00244357
-0.00102755
-0.000321537
0.00197051
-0.000376774
0.00201054
-0.000433336
0.00204939
-0.000491188
0.00208955
-0.000550365
0.00213212
-0.000610936
0.00217754
-0.000672982
0.00222597
-0.000736587
0.00227747
-0.000801832
0.00233205
-0.000868794
0.00238976
-0.000937551
0.00245067
0.00251416
-0.00100814
-0.000312033
-0.00036631
0.00206482
-0.000421926
0.00210501
-0.000478835
0.00214646
-0.000537068
0.00219035
-0.000596691
0.00223716
-0.000657785
0.00228707
-0.000720436
0.00234012
-0.000784726
0.00239634
-0.000850735
0.00245577
-0.000918545
0.00251848
0.00258381
-0.000988195
-0.000355518
0.00211811
-0.00041016
0.00215965
-0.000466099
0.0022024
-0.000523361
0.00224761
-0.000582009
0.00229581
-0.000642125
0.00234718
-0.000703795
0.00240179
-0.000767106
0.00245966
-0.000832142
0.0025208
-0.000898997
0.00258533
0.00265252
-0.000967709
-0.000344399
-0.000398039
0.00221329
-0.000452982
0.00225734
-0.000509245
0.00230388
-0.000566891
0.00235346
-0.000626001
0.00240629
-0.000686664
0.00246246
-0.000748972
0.00252196
-0.000813014
0.00258484
-0.000878905
0.00265122
0.00272032
-0.000946698
-0.000385565
0.0022659
-0.000439483
0.00231126
-0.000494721
0.00235911
-0.000551338
0.00241007
-0.000609414
0.00246437
-0.000669042
0.00252209
-0.00073032
0.00258324
-0.000793345
0.00264787
-0.000858265
0.00271614
0.00278722
-0.000925172
-0.000372737
0.00231746
-0.000425605
0.00236412
-0.000479791
0.0024133
-0.00053535
0.00246563
-0.000592363
0.00252138
-0.000650928
0.00258065
-0.000711147
0.00264346
-0.000773125
0.00270985
-0.00083706
0.00278008
0.00285331
-0.000903145
-0.000359559
-0.00041135
0.00241592
-0.000464456
0.00246641
-0.00051893
0.00252011
-0.00057485
0.0025773
-0.000632319
0.00263812
-0.00069145
0.00270259
-0.000752344
0.00277074
-0.00081526
0.00284299
0.00291868
-0.000880627
-0.000396718
-0.000448719
0.00251841
-0.000502079
0.00257347
-0.000556875
0.0026321
-0.000613213
0.00269446
-0.000671224
0.0027606
-0.000730993
0.00283051
-0.000792799
0.0029048
0.00298352
-0.00085764
-0.000432581
0.00256928
-0.000484799
0.00262569
-0.00053844
0.00268574