/*--------------------------------*- C++ -*----------------------------------*\
  =========                 |
  \\      /  F ield         | OpenFOAM: The Open Source CFD Toolbox
   \\    /   O peration     | Website:  https://openfoam.org
    \\  /    A nd           | Version:  7
     \\/     M anipulation  |
\*---------------------------------------------------------------------------*/
FoamFile
{
    version     2.0;
    format      ascii;
    class       volVectorField;
    location    "20";
    object      U;
}
// * * * * * * * * * * * * * * * * * * * * * * * * * * * * * * * * * * * * * //

dimensions      [0 1 -1 0 0 0 0];

internalField   nonuniform List<vector> 
8500
(
(1.01391 0.376799 -4.27284e-21)
(1.00167 0.392183 -5.28224e-20)
(1.00392 0.376206 8.00349e-20)
(0.988094 0.409813 -7.5615e-20)
(0.990894 0.391388 1.02004e-19)
(0.99382 0.375298 -1.29048e-19)
(0.974074 0.429236 -4.60618e-20)
(0.976729 0.408852 1.6704e-19)
(0.980008 0.390267 -1.03959e-19)
(0.983621 0.374061 3.33653e-20)
(0.962136 0.428076 7.60692e-20)
(0.965303 0.407551 8.18009e-20)
(0.96903 0.38881 -2.99879e-19)
(0.97334 0.372471 6.96822e-20)
(0.94705 0.448409 1.02384e-19)
(0.95016 0.426536 -1.29965e-19)
(0.953843 0.405903 5.00528e-20)
(0.957981 0.387003 3.20862e-19)
(0.962989 0.370491 1.90334e-19)
(0.930868 0.469873 -4.49834e-20)
(0.934378 0.446582 -1.64976e-19)
(0.938167 0.424606 -5.47198e-20)
(0.942373 0.403899 -1.95955e-19)
(0.946886 0.38483 9.68923e-20)
(0.95261 0.368075 -2.25577e-19)
(0.917381 0.46771 -3.59574e-20)
(0.921673 0.444324 -1.95846e-20)
(0.926172 0.422273 1.09466e-19)
(0.930911 0.401528 2.13113e-19)
(0.935797 0.382279 -3.60764e-19)
(0.942368 0.365188 2.45268e-19)
(0.89886 0.489951 -3.85769e-21)
(0.903852 0.465083 -7.5268e-21)
(0.908944 0.441628 2.01102e-19)
(0.914175 0.419524 -7.76571e-20)
(0.919463 0.39876 -1.52735e-19)
(0.924822 0.379302 -5.47601e-21)
(0.932516 0.36184 -3.44883e-19)
(0.884444 0.486905 -1.02711e-19)
(0.890293 0.461989 5.77579e-20)
(0.896195 0.43849 1.61869e-19)
(0.902162 0.416348 4.87783e-20)
(0.908026 0.395555 -2.86014e-19)
(0.914095 0.375765 -9.58956e-21)
(0.92301 0.357862 1.08737e-19)
(0.863264 0.509791 -6.12253e-20)
(0.870009 0.483357 -1.20314e-20)
(0.87672 0.458427 -1.72005e-19)
(0.88343 0.434913 -9.09105e-20)
(0.890122 0.412759 -1.03346e-19)
(0.896615 0.391936 3.3666e-19)
(0.903686 0.371645 -7.88985e-20)
(0.912898 0.351673 2.98346e-19)
(0.840086 0.533683 -1.90871e-19)
(0.847906 0.505727 8.26819e-20)
(0.855576 0.479307 1.34081e-19)
(0.86315 0.454398 5.6725e-20)
(0.870664 0.430907 1.5049e-19)
(0.878073 0.408774 7.22778e-20)
(0.885253 0.38797 -2.0254e-20)
(0.893202 0.36768 1.64867e-19)
(0.902353 0.347792 2.5173e-20)
(0.823759 0.529037 -8.56178e-20)
(0.832567 0.501118 -2.49433e-19)
(0.841165 0.474752 -1.70396e-20)
(0.849605 0.449902 -1.09923e-19)
(0.857917 0.426472 1.71499e-19)
(0.866047 0.4044 -2.67224e-19)
(0.87391 0.383638 -6.90124e-20)
(0.882502 0.363369 -1.04173e-19)
(0.891647 0.343505 -3.80316e-19)
(0.797252 0.553103 -3.063e-20)
(0.80747 0.5238 -9.20039e-21)
(0.81727 0.495963 -3.76941e-20)
(0.826798 0.469692 -8.58857e-20)
(0.836104 0.444941 -1.23846e-19)
(0.845214 0.421609 6.56816e-20)
(0.854071 0.399635 2.14593e-19)
(0.86262 0.378958 -1.15922e-19)
(0.8718 0.358783 1.52002e-19)
(0.881137 0.339116 4.36675e-19)
(0.779979 0.547174 -3.90071e-19)
(0.791245 0.517973 -1.86547e-19)
(0.802039 0.490262 5.30706e-20)
(0.812498 0.464126 7.22619e-20)
(0.822668 0.439513 2.52717e-19)
(0.832576 0.416318 -3.54901e-19)
(0.842164 0.394479 1.0511e-19)
(0.851396 0.373927 6.41457e-20)
(0.861153 0.353901 -9.20715e-20)
(0.870808 0.334509 -3.27779e-19)
(0.749622 0.570781 -3.14976e-19)
(0.762792 0.540604 2.75514e-19)
(0.775108 0.511554 3.33989e-19)
(0.786898 0.484015 2.72558e-19)
(0.798286 0.458057 1.98947e-19)
(0.80932 0.433619 -4.32515e-19)
(0.820025 0.4106 -3.64427e-21)
(0.830345 0.388933 -1.17736e-19)
(0.840259 0.368542 4.55435e-19)
(0.850599 0.348713 -2.05665e-20)
(0.860646 0.329629 -2.25667e-19)
(0.731462 0.563415 2.7277e-19)
(0.745718 0.533394 6.7062e-21)
(0.759087 0.504546 1.08878e-19)
(0.77187 0.477224 -1.72615e-19)
(0.784186 0.451483 -2.1881e-19)
(0.796081 0.427261 5.54137e-19)
(0.80758 0.404454 2.24209e-19)
(0.818633 0.382995 -2.32503e-19)
(0.829228 0.362802 -2.7094e-19)
(0.84016 0.34321 -3.05921e-19)
(0.850647 0.324455 -2.65122e-20)
(0.713442 0.555356 1.50647e-19)
(0.728787 0.525548 5.89542e-20)
(0.743207 0.49695 -3.02919e-19)
(0.75698 0.469889 3.21261e-19)
(0.770218 0.444409 1.96625e-19)
(0.782971 0.420441 -7.8301e-20)
(0.795263 0.397881 -1.51429e-19)
(0.807046 0.376666 1.33322e-19)
(0.818324 0.356706 -2.29457e-19)
(0.829854 0.337384 -3.21082e-19)
(0.840813 0.318973 3.11159e-19)
(0.6776 0.576493 4.73416e-19)
(0.695593 0.546609 -2.37048e-19)
(0.712027 0.517069 2.92885e-19)
(0.727492 0.488771 -3.40858e-19)
(0.74225 0.462015 4.48856e-20)
(0.756407 0.436835 -1.38038e-19)
(0.770011 0.413159 9.89676e-20)
(0.783092 0.390884 9.38935e-20)
(0.795605 0.369945 -5.86202e-20)
(0.807564 0.350251 5.7281e-19)
(0.819697 0.331229 -7.49865e-20)
(0.831148 0.313175 -2.65378e-19)
(0.658865 0.566812 -3.43307e-19)
(0.677945 0.537178 4.9497e-19)
(0.695464 0.507962 -5.52531e-20)
(0.71197 0.480012 1.42132e-19)
(0.727705 0.453606 1.72082e-19)
(0.742772 0.428766 6.93361e-20)
(0.757222 0.40542 -4.79186e-19)
(0.771086 0.383464 1.07788e-19)
(0.784325 0.362834 1.0257e-19)
(0.796964 0.343437 -3.43364e-19)
(0.809701 0.324743 1.30457e-19)
(0.821657 0.307058 5.00489e-20)
(0.617594 0.58434 -5.07029e-20)
(0.640361 0.556393 -5.76188e-21)
(0.660529 0.527072 7.84186e-20)
(0.679127 0.498232 -1.38166e-19)
(0.696664 0.470678 -1.83893e-20)
(0.713367 0.444665 -5.34967e-19)
(0.729337 0.420206 -4.13265e-19)
(0.744625 0.397226 -6.92452e-20)
(0.759264 0.375625 -5.99297e-20)
(0.773224 0.355335 -6.65785e-20)
(0.786539 0.336265 -1.35977e-19)
(0.799878 0.317924 -1.58673e-19)
(0.812349 0.30062 -2.14293e-19)
(0.598337 0.572954 -9.77743e-20)
(0.622123 0.545246 -4.4912e-20)
(0.643374 0.516297 -4.70335e-19)
(0.663043 0.487888 -4.48625e-19)
(0.6816 0.460777 8.38459e-20)
(0.699261 0.4352 7.33134e-19)
(0.716122 0.411161 1.1114e-19)
(0.732238 0.388583 2.99142e-19)
(0.747645 0.367369 -4.67378e-19)
(0.762319 0.34745 -1.11775e-19)
(0.776304 0.328736 5.60127e-19)
(0.790241 0.310773 2.51119e-19)
(0.803232 0.293862 1.03258e-18)
(0.579377 0.560782 -6.18348e-20)
(0.604183 0.53338 3.19721e-19)
(0.62651 0.504864 -1.99288e-19)
(0.647238 0.476937 1.4862e-19)
(0.666803 0.450316 3.41724e-19)
(0.685408 0.425216 -2.37209e-19)
(0.703148 0.401635 6.11293e-20)
(0.720081 0.379496 2.94772e-19)
(0.736246 0.358702 3.75201e-19)
(0.751626 0.339185 -1.96827e-19)
(0.766274 0.320854 -1.14278e-19)
(0.780802 0.303292 1.74823e-19)
(0.794314 0.286787 -5.1077e-19)
(0.531016 0.570633 7.23041e-20)
(0.560748 0.547838 2.02844e-19)
(0.586573 0.520808 -3.0394e-19)
(0.609965 0.492783 7.25291e-19)
(0.631738 0.465389 3.05336e-19)
(0.652296 0.439303 -1.03663e-19)
(0.671831 0.414722 -3.34161e-20)
(0.690436 0.391637 1.40059e-19)
(0.708172 0.369971 -3.90928e-19)
(0.725085 0.349628 3.23177e-20)
(0.74116 0.330542 -2.54772e-19)
(0.756462 0.312622 -1.14204e-19)
(0.771572 0.295483 -5.09645e-19)
(0.785605 0.279398 -2.22344e-19)
(0.511904 0.556721 -2.53154e-19)
(0.542487 0.534135 1.36393e-19)
(0.569323 0.507543 -8.42129e-20)
(0.593769 0.480065 -2.6185e-19)
(0.61657 0.453254 2.86392e-19)
(0.638104 0.427748 3.09494e-19)
(0.658551 0.403726 -1.08293e-21)
(0.678006 0.381174 -7.1888e-20)
(0.696532 0.360015 -4.07359e-20)
(0.714178 0.340156 3.07836e-19)
(0.730938 0.321529 2.78868e-19)
(0.746882 0.304045 7.8618e-20)
(0.762564 0.287352 5.36713e-19)
(0.777114 0.271702 1.76755e-19)
(0.493192 0.541996 -9.15951e-20)
(0.524627 0.519689 -1.57549e-19)
(0.552466 0.493599 -6.01735e-20)
(0.577948 0.466724 -8.5764e-21)
(0.60176 0.440545 -6.27394e-19)
(0.624249 0.415662 -8.01704e-19)
(0.64559 0.392238 -1.25115e-19)
(0.665877 0.370256 2.83751e-19)
(0.685177 0.349637 -1.12482e-19)
(0.703542 0.330291 -5.78487e-19)
(0.720973 0.312151 5.47302e-19)
(0.737547 0.29513 7.94053e-20)
(0.753789 0.278904 -2.23966e-19)
(0.768851 0.263703 3.53533e-19)
(0.437347 0.539826 1.06119e-19)
(0.474915 0.526478 3.69703e-19)
(0.507202 0.504519 -1.29438e-19)
(0.53603 0.478991 1.97847e-19)
(0.56253 0.452773 3.8144e-19)
(0.58733 0.427274 2.10064e-19)
(0.610754 0.403056 8.92827e-19)
(0.632969 0.380269 4.12814e-19)
(0.654069 0.358891 -3.46697e-20)
(0.674125 0.338845 -2.16091e-20)
(0.693193 0.320043 7.35967e-20)
(0.71128 0.302417 -6.03939e-19)
(0.728471 0.285882 -3.25791e-19)
(0.745259 0.270145 1.41289e-19)
(0.760826 0.255408 -4.9061e-19)
(0.419003 0.523509 7.93134e-20)
(0.457112 0.510187 -4.70251e-19)
(0.490243 0.488642 3.58488e-19)
(0.520045 0.463737 -1.67901e-19)
(0.547541 0.438228 -3.89657e-19)
(0.573307 0.413454 -9.52368e-20)
(0.597642 0.389943 -3.68142e-19)
(0.620709 0.36783 -7.73858e-19)
(0.642601 0.347091 6.66081e-20)
(0.663394 0.32765 6.24e-19)
(0.683147 0.309419 -2.74856e-19)
(0.701874 0.292334 3.38402e-19)
(0.719665 0.276311 4.57908e-19)
(0.736986 0.261081 2.96694e-19)
(0.753049 0.246825 2.27668e-19)
(0.40116 0.506374 2.84429e-19)
(0.439816 0.493145 4.98424e-19)
(0.473784 0.472079 -6.08734e-19)
(0.50454 0.447854 4.83777e-19)
(0.533008 0.423105 3.89917e-19)
(0.559712 0.399101 -1.13332e-19)
(0.584934 0.376337 -6.09299e-20)
(0.608828 0.354935 2.25133e-19)
(0.631491 0.334868 -3.91082e-19)
(0.653 0.316061 -5.28234e-19)
(0.673419 0.29843 2.02361e-19)
(0.692769 0.281911 -2.06391e-19)
(0.711143 0.266423 -2.48711e-19)
(0.72898 0.251722 -2.17294e-19)
(0.74553 0.237961 2.16788e-20)
(0.383855 0.488448 -4.92592e-19)
(0.423061 0.475375 -3.96803e-20)
(0.457853 0.45485 2.96128e-20)
(0.48954 0.431362 -5.10377e-20)
(0.518953 0.407422 -4.88826e-19)
(0.54657 0.384231 -2.1392e-20)
(0.572651 0.362252 -8.12162e-20)
(0.597347 0.341596 4.94113e-19)
(0.620757 0.322233 -1.54978e-19)
(0.64296 0.304091 -4.45576e-20)
(0.664024 0.287087 2.66034e-19)
(0.683977 0.271159 7.82438e-19)
(0.702917 0.256228 -7.9861e-20)
(0.721253 0.242075 -9.5222e-20)
(0.738279 0.228825 1.64364e-19)
(0.321616 0.468801 3.52102e-19)
(0.367124 0.469756 -2.08379e-19)
(0.406882 0.456902 -3.40182e-19)
(0.44248 0.436979 3.38295e-19)
(0.475074 0.414281 -1.14115e-19)
(0.505403 0.391196 3.20369e-19)
(0.533901 0.36886 1.47719e-19)
(0.560813 0.347704 -8.7272e-20)
(0.586284 0.327828 -3.36168e-19)
(0.610415 0.309201 4.1984e-19)
(0.633288 0.291751 -1.06005e-19)
(0.654976 0.275401 -4.66688e-19)
(0.675513 0.260087 -1.61755e-19)
(0.694999 0.245736 -5.12684e-20)
(0.713816 0.232149 8.11919e-19)
(0.731304 0.219427 -5.2617e-19)
(0.305423 0.449753 -2.61575e-19)
(0.351004 0.450327 5.17409e-19)
(0.391309 0.437752 9.42299e-20)
(0.427694 0.418488 2.56056e-19)
(0.461166 0.396632 1.91884e-19)
(0.49238 0.374449 -5.29562e-19)
(0.521728 0.353007 -2.80052e-19)
(0.549439 0.332709 5.23704e-19)
(0.575657 0.313646 -1.76856e-20)
(0.600482 0.295784 -4.33808e-19)
(0.624001 0.279055 1.12158e-19)
(0.64629 0.263384 5.44256e-19)
(0.667388 0.248708 -4.44285e-19)
(0.6874 0.234958 -1.81624e-19)
(0.706679 0.221954 -1.60755e-19)
(0.724616 0.209775 3.59059e-19)
(0.289857 0.429947 -3.52688e-19)
(0.335528 0.43019 -1.53851e-19)
(0.376372 0.417952 -6.50181e-20)
(0.413522 0.399403 -5.11786e-19)
(0.447841 0.378438 -3.9223e-19)
(0.479905 0.357199 5.24736e-19)
(0.51007 0.33669 2.93625e-19)
(0.538549 0.317286 -2.31643e-19)
(0.565483 0.299066 -2.69963e-19)
(0.590974 0.281999 2.94886e-19)
(0.615113 0.266017 -1.68074e-19)
(0.637978 0.251048 2.44012e-19)
(0.659616 0.237032 1.18072e-19)
(0.680132 0.223903 4.62477e-19)
(0.699853 0.211501 9.30861e-20)
(0.718223 0.19988 -4.24563e-19)
(0.274954 0.409418 -7.2246e-20)
(0.320729 0.409377 -2.06007e-19)
(0.362101 0.39753 1.81895e-19)
(0.399989 0.379749 6.80179e-20)
(0.435122 0.359722 -2.03976e-19)
(0.468002 0.339469 1.37408e-19)
(0.498947 0.319929 -3.67955e-19)
(0.528161 0.301451 -8.2648e-20)
(0.555778 0.284106 3.41399e-19)
(0.581907 0.26786 1.22269e-19)
(0.606638 0.25265 1.93768e-19)
(0.630053 0.238407 -3.69144e-19)
(0.652207 0.225073 -1.43429e-19)
(0.673204 0.212585 -4.89852e-20)
(0.693347 0.200801 6.78818e-20)
(0.712134 0.189752 3.8967e-19)
(0.260747 0.388197 -1.61345e-19)
(0.306637 0.387918 3.56649e-19)
(0.348522 0.376515 5.70563e-19)
(0.38712 0.359552 1.63847e-19)
(0.423032 0.340509 2.24658e-19)
(0.456689 0.321281 -3.39917e-21)
(0.488378 0.302745 1.08627e-19)
(0.51829 0.285224 3.83284e-19)
(0.54656 0.268782 -5.67715e-20)
(0.573294 0.253384 -6.96095e-19)
(0.598589 0.238971 6.02505e-21)
(0.622529 0.225476 3.97832e-20)
(0.645173 0.212843 3.69551e-20)
(0.666628 0.201015 -2.29496e-19)
(0.687172 0.189864 -2.13952e-19)
(0.706357 0.179403 -4.18964e-19)
(0.197285 0.34893 -1.08349e-19)
(0.247269 0.366322 2.15183e-19)
(0.29328 0.365848 2.12674e-19)
(0.335663 0.354939 -2.12572e-19)
(0.374939 0.338841 2.53941e-20)
(0.411591 0.320823 -1.40571e-19)
(0.445986 0.302657 3.51377e-20)
(0.478381 0.28516 -4.25869e-21)
(0.508955 0.268626 -1.71583e-19)
(0.537842 0.253113 -7.76819e-20)
(0.56515 0.238588 4.6243e-19)
(0.590979 0.224994 -3.48909e-19)
(0.615415 0.212268 2.35435e-19)
(0.638524 0.200356 9.6258e-20)
(0.660413 0.189206 -2.22928e-20)
(0.681336 0.178702 6.9953e-21)
(0.7009 0.168844 2.30704e-19)
(0.185051 0.327722 2.99975e-19)
(0.234549 0.343827 -1.66591e-19)
(0.280688 0.343199 -2.94777e-19)
(0.323547 0.332831 -1.79852e-19)
(0.363468 0.317645 -3.51017e-19)
(0.400821 0.300692 2.89078e-19)
(0.435912 0.283624 -2.38455e-19)
(0.468972 0.267194 5.13727e-20)
(0.50017 0.251675 3.63308e-20)
(0.529639 0.237118 -1.59025e-19)
(0.557488 0.22349 1.86261e-19)
(0.58382 0.210736 2.83291e-19)
(0.608724 0.198799 -2.53241e-19)
(0.632272 0.187627 -2.91514e-19)
(0.654568 0.17717 5.61584e-19)
(0.675848 0.167329 -5.08649e-19)
(0.695772 0.158086 1.86916e-19)
(0.173562 0.305915 -2.50368e-19)
(0.222617 0.320752 5.34611e-20)
(0.268885 0.320008 1.17029e-19)
(0.312198 0.310226 -4.10837e-19)
(0.352727 0.295992 6.74289e-20)
(0.390738 0.280142 -2.81965e-19)
(0.426484 0.264204 2.41337e-19)
(0.460167 0.248872 5.7997e-20)
(0.49195 0.234394 -2.65403e-19)
(0.521964 0.220816 -6.0629e-20)
(0.55032 0.208107 1.44842e-19)
(0.577123 0.196215 6.88015e-20)
(0.602466 0.185085 -2.03873e-20)
(0.626424 0.174669 1.69845e-20)
(0.649103 0.164923 -4.93788e-19)
(0.670716 0.155756 3.54102e-19)
(0.690978 0.147142 3.30709e-19)
(0.162846 0.283549 2.28431e-19)
(0.211498 0.297133 1.56702e-19)
(0.257896 0.296311 2.98565e-19)
(0.301637 0.287155 4.18126e-20)
(0.342736 0.273913 2.92138e-20)
(0.381363 0.259201 -2.12638e-21)
(0.417717 0.244424 -3.08671e-19)
(0.451982 0.230216 1.63054e-19)
(0.484309 0.216805 -2.64536e-19)
(0.51483 0.204229 1.75688e-19)
(0.543658 0.192459 -2.84409e-19)
(0.5709 0.181446 -1.68491e-19)
(0.596651 0.171141 3.43116e-19)
(0.620991 0.161498 3.07753e-20)
(0.644025 0.152476 7.80637e-20)
(0.665949 0.143997 3.16448e-20)
(0.686527 0.136024 -3.64626e-19)
(0.152929 0.260664 -1.53056e-19)
(0.201218 0.273011 9.70821e-20)
(0.247742 0.272144 -2.19961e-19)
(0.291885 0.263654 1.68444e-19)
(0.333514 0.25144 2.41468e-20)
(0.37271 0.237898 1.43899e-19)
(0.409627 0.224309 -5.22976e-21)
(0.444429 0.211252 -1.43313e-19)
(0.477259 0.198929 1.4262e-19)
(0.508248 0.187376 -3.69679e-19)
(0.537512 0.176564 5.19893e-19)
(0.565159 0.166449 2.0043e-19)
(0.591288 0.156985 -4.2289e-19)
(0.61598 0.14813 4.28512e-20)
(0.639342 0.139846 2.79627e-19)
(0.661552 0.132065 -3.98651e-19)
(0.682423 0.124744 -2.12862e-21)
(0.143836 0.237302 1.00459e-19)
(0.1918 0.248427 -8.29411e-20)
(0.238446 0.247546 -4.14481e-20)
(0.28296 0.239757 -8.44316e-20)
(0.325075 0.228604 -1.082e-19)
(0.364794 0.216262 -3.03057e-19)
(0.402229 0.203888 1.3335e-19)
(0.437521 0.192004 -1.8719e-19)
(0.470812 0.180791 3.46794e-19)
(0.50223 0.170279 2.36039e-19)
(0.531893 0.160443 -4.19075e-19)
(0.559911 0.151242 -4.24575e-19)
(0.586384 0.142633 2.0418e-19)
(0.6114 0.13458 -2.29266e-19)
(0.635062 0.127046 -2.85513e-20)
(0.657533 0.119975 2.28154e-19)
(0.678674 0.113317 -4.2539e-19)
(0.135588 0.213506 -1.61471e-19)
(0.183263 0.223422 -2.32898e-19)
(0.230025 0.222556 3.43539e-19)
(0.274878 0.215499 4.7974e-20)
(0.317437 0.205438 1.74252e-19)
(0.357631 0.194322 1.84988e-19)
(0.395533 0.183187 -4.4062e-20)
(0.431271 0.172496 2.62649e-19)
(0.464979 0.162412 -1.55957e-19)
(0.496785 0.15296 -2.03916e-19)
(0.526809 0.144116 3.27459e-19)
(0.555163 0.135843 3.75284e-19)
(0.581949 0.128104 -4.33725e-19)
(0.607257 0.120864 6.00804e-20)
(0.631191 0.114092 -4.02113e-20)
(0.653898 0.10774 -1.4259e-19)
(0.675284 0.101755 5.70462e-20)
(0.128206 0.189318 1.77547e-19)
(0.175627 0.198038 1.28988e-19)
(0.222496 0.197212 -1.85583e-19)
(0.267656 0.190917 8.76288e-20)
(0.310613 0.181975 9.95796e-20)
(0.351231 0.17211 -3.15462e-19)
(0.389552 0.162234 1.55667e-19)
(0.425688 0.152757 1.76697e-20)
(0.459769 0.143818 1.5154e-19)
(0.491922 0.13544 -1.9763e-19)
(0.522269 0.127602 2.48986e-20)
(0.550923 0.120272 -1.57753e-20)
(0.577989 0.113414 2.21297e-20)
(0.603559 0.106999 1.35595e-19)
(0.627735 0.101 2.44728e-20)
(0.650653 0.0953743 -3.0388e-20)
(0.672258 0.090072 3.66365e-21)
(0.121707 0.164784 -2.67026e-20)
(0.168909 0.172318 1.58226e-19)
(0.215875 0.171555 -2.0108e-19)
(0.261307 0.166047 5.04354e-20)
(0.304614 0.158249 -1.79916e-19)
(0.345607 0.149655 5.06303e-22)
(0.384297 0.141058 -2.92557e-19)
(0.420782 0.13281 -2.14445e-19)
(0.455191 0.125032 1.15879e-19)
(0.48765 0.117744 3.08026e-20)
(0.518281 0.110925 -8.22194e-20)
(0.547199 0.104548 1.10877e-19)
(0.574509 0.0985822 8.16773e-20)
(0.600309 0.093002 1.37817e-19)
(0.624699 0.0877843 6.82446e-20)
(0.647803 0.0828934 1.57929e-19)
(0.669601 0.0782813 6.43045e-20)
(0.0713759 0.122706 2.58059e-19)
(0.116108 0.139947 -1.01345e-19)
(0.163123 0.146305 -4.67567e-20)
(0.210175 0.145626 -8.94453e-20)
(0.255842 0.140928 8.65186e-21)
(0.299453 0.134293 6.40011e-20)
(0.340768 0.12699 1.99626e-19)
(0.379775 0.119688 2.46354e-19)
(0.416562 0.112684 9.63522e-20)
(0.451253 0.10608 -2.33132e-20)
(0.483974 0.0998923 -5.07616e-20)
(0.51485 0.0941037 -1.28741e-19)
(0.543995 0.0886901 1.5681e-20)
(0.571517 0.0836265 -1.54101e-20)
(0.597515 0.07889 -1.12661e-19)
(0.622088 0.0744615 -1.17922e-20)
(0.645351 0.0703119 -2.28256e-19)
(0.667316 0.0663972 4.50562e-21)
(0.067207 0.100732 -1.05585e-19)
(0.111421 0.114854 -5.59586e-21)
(0.158282 0.120045 -1.20535e-20)
(0.205407 0.119465 5.97958e-20)
(0.251272 0.115595 -1.88401e-19)
(0.295137 0.110143 -7.43286e-20)
(0.336722 0.104146 -1.27745e-19)
(0.375995 0.0981525 5.15294e-21)
(0.413034 0.0924052 4.32226e-20)
(0.447961 0.0869869 9.73358e-20)
(0.480902 0.0819099 -1.93644e-20)
(0.511982 0.0771608 8.64867e-20)
(0.541317 0.0727196 -4.26225e-20)
(0.569016 0.0685657 -1.5553e-19)
(0.595179 0.0646803 -1.648e-20)
(0.619906 0.0610478 -3.64106e-20)
(0.643302 0.057645 1.74246e-19)
(0.665407 0.0544337 -2.98629e-20)
(0.0638585 0.078556 -2.46926e-20)
(0.107657 0.0895498 5.45148e-20)
(0.154397 0.0935799 4.27504e-20)
(0.201582 0.093115 1.22809e-20)
(0.247606 0.0900887 1.45395e-19)
(0.291675 0.0858327 -3.95213e-20)
(0.333478 0.0811552 3.54481e-20)
(0.372963 0.0764817 4.24644e-20)
(0.410205 0.072001 2.96662e-20)
(0.445321 0.0677773 -8.12662e-20)
(0.478438 0.0638197 1.07713e-19)
(0.509682 0.0601179 8.17201e-20)
(0.53917 0.0566563 -3.23461e-20)
(0.56701 0.0534187 1.3256e-19)
(0.593307 0.0503903 2.09384e-19)
(0.618157 0.0475593 -3.0953e-20)
(0.641659 0.044908 7.90495e-20)
(0.663877 0.0424051 -3.5938e-20)
(0.0613393 0.0562236 1.67528e-20)
(0.104827 0.0640817 -8.62563e-20)
(0.151475 0.0669564 4.47571e-20)
(0.198706 0.0666165 1.32344e-19)
(0.24485 0.0644463 -1.0702e-19)
(0.289073 0.0613981 -6.23605e-21)
(0.331039 0.0580498 2.7913e-20)
(0.370685 0.0547053 6.27035e-20)
(0.408079 0.0514992 5.89505e-21)
(0.443337 0.0484771 -2.03941e-20)
(0.476587 0.0456456 -3.33737e-20)
(0.507954 0.0429971 -3.55544e-20)
(0.537556 0.0405205 1.37059e-20)
(0.565503 0.0382043 1.38568e-20)
(0.591899 0.0360378 -7.04681e-20)
(0.616842 0.0340126 -6.95422e-21)
(0.640425 0.0321162 -1.70593e-19)
(0.662727 0.0303257 7.16325e-20)
(0.0596561 0.033779 -7.95403e-21)
(0.102936 0.0384959 3.65538e-20)
(0.149524 0.0402192 -2.14655e-20)
(0.196786 0.0400122 -6.78055e-20)
(0.24301 0.0387065 3.30284e-20)
(0.287336 0.0368744 -7.63865e-22)
(0.329411 0.0348626 -9.65278e-20)
(0.369164 0.0328533 5.89599e-20)
(0.406659 0.0309274 -4.00312e-20)
(0.442012 0.0291121 3.19843e-20)
(0.475351 0.0274113 -2.64645e-20)
(0.5068 0.0258205 1.40276e-20)
(0.536479 0.024333 2.56261e-20)
(0.564498 0.0229418 -7.56093e-20)
(0.59096 0.0216406 7.19137e-21)
(0.615964 0.0204242 -3.43863e-21)
(0.639601 0.0192854 4.32952e-20)
(0.66196 0.0182099 9.78904e-22)
(0.0588133 0.0112669 5.49034e-21)
(0.10199 0.0128395 6.88519e-21)
(0.148547 0.0134137 -1.37087e-20)
(0.195824 0.0133442 2.64666e-20)
(0.24209 0.0129084 -1.05013e-20)
(0.286467 0.0122972 3.29195e-20)
(0.328596 0.0116261 3.03575e-20)
(0.368402 0.0109559 -3.80444e-20)
(0.405949 0.0103136 -1.4118e-20)
(0.44135 0.00970817 1.93477e-20)
(0.474733 0.00914095 -1.36504e-20)
(0.506223 0.00861042 -1.75937e-20)
(0.53594 0.00811433 1.55339e-21)
(0.563994 0.00765037 1.83267e-20)
(0.59049 0.00721642 3.60178e-20)
(0.615525 0.00681078 2.70298e-21)
(0.639189 0.00643101 4.04698e-21)
(0.661576 0.00607236 1.79442e-20)
(0.0588134 -0.0112677 4.36768e-21)
(0.10199 -0.0128404 8.15135e-21)
(0.148547 -0.0134146 -6.90281e-21)
(0.195824 -0.013345 2.50301e-20)
(0.24209 -0.0129092 -1.39355e-20)
(0.286467 -0.0122979 3.6329e-20)
(0.328596 -0.0116268 2.23715e-20)
(0.368402 -0.0109566 -3.01469e-20)
(0.405949 -0.0103142 -1.10955e-20)
(0.44135 -0.00970872 1.38365e-20)
(0.474733 -0.00914144 -1.15621e-20)
(0.506223 -0.00861085 -2.26244e-20)
(0.53594 -0.00811471 6.00919e-21)
(0.563994 -0.0076507 1.62961e-20)
(0.59049 -0.00721669 3.69693e-20)
(0.615525 -0.006811 3.18486e-21)
(0.639189 -0.00643119 2.82132e-21)
(0.661576 -0.00607248 1.91151e-20)
(0.0596561 -0.0337798 2.96764e-20)
(0.102937 -0.0384968 2.28593e-20)
(0.149524 -0.0402201 -1.85671e-20)
(0.196786 -0.040013 -1.10892e-19)
(0.24301 -0.0387074 6.74046e-20)
(0.287336 -0.0368752 -1.11942e-20)
(0.329411 -0.0348633 -5.27819e-20)
(0.369164 -0.032854 1.89351e-23)
(0.406659 -0.030928 -2.93897e-20)
(0.442012 -0.0291126 3.85018e-20)
(0.475351 -0.0274118 -3.88129e-20)
(0.506801 -0.025821 3.28646e-20)
(0.536479 -0.0243334 1.2428e-20)
(0.564498 -0.0229421 -6.00302e-20)
(0.59096 -0.0216409 1.8099e-20)
(0.615964 -0.0204244 -2.95941e-21)
(0.639601 -0.0192856 3.1973e-20)
(0.66196 -0.0182101 3.30014e-21)
(0.0613393 -0.0562244 -4.48713e-20)
(0.104827 -0.0640825 -7.01463e-20)
(0.151475 -0.0669573 8.07997e-20)
(0.198706 -0.0666174 1.23985e-19)
(0.24485 -0.0644471 -1.11161e-19)
(0.289074 -0.0613989 2.94303e-20)
(0.331039 -0.0580505 1.43589e-20)
(0.370685 -0.054706 7.1909e-20)
(0.408079 -0.0514998 -1.94544e-20)
(0.443337 -0.0484776 -6.73834e-20)
(0.476587 -0.0456461 1.38381e-20)
(0.507954 -0.0429976 -5.21459e-20)
(0.537556 -0.0405209 4.17e-20)
(0.565504 -0.0382046 1.1917e-20)
(0.591899 -0.0360381 -9.36165e-20)
(0.616842 -0.0340128 5.59781e-21)
(0.640425 -0.0321164 -1.37409e-19)
(0.662727 -0.0303258 3.10325e-20)
(0.0638585 -0.0785568 2.26806e-20)
(0.107658 -0.0895507 3.07535e-20)
(0.154397 -0.0935808 -5.67284e-20)
(0.201582 -0.0931159 1.06011e-20)
(0.247606 -0.0900896 1.85115e-19)
(0.291675 -0.0858335 1.89406e-20)
(0.333478 -0.0811559 3.85244e-20)
(0.372963 -0.0764824 5.32849e-21)
(0.410205 -0.0720016 6.48372e-20)
(0.445321 -0.0677778 -7.21039e-20)
(0.478439 -0.0638202 1.02534e-19)
(0.509682 -0.0601184 3.04709e-21)
(0.53917 -0.0566567 -2.60128e-20)
(0.567011 -0.053419 1.992e-19)
(0.593307 -0.0503906 1.5534e-19)
(0.618157 -0.0475596 -8.07762e-20)
(0.641659 -0.0449081 1.07042e-19)
(0.663877 -0.0424052 -2.39182e-21)
(0.0672071 -0.100732 -1.59513e-19)
(0.111421 -0.114855 7.01813e-21)
(0.158282 -0.120045 -2.87576e-20)
(0.205408 -0.119466 -4.6541e-21)
(0.251272 -0.115596 -9.39682e-20)
(0.295137 -0.110144 -1.09056e-19)
(0.336723 -0.104147 -4.55866e-20)
(0.375995 -0.0981531 -1.57254e-19)
(0.413034 -0.0924058 1.76391e-19)
(0.447961 -0.0869875 3.63021e-20)
(0.480902 -0.0819104 -7.36685e-20)
(0.511982 -0.0771612 1.25813e-19)
(0.541317 -0.07272 -5.48386e-20)
(0.569016 -0.0685661 -1.24751e-19)
(0.595179 -0.0646806 -2.94754e-20)
(0.619906 -0.061048 -3.94639e-20)
(0.643302 -0.0576452 6.342e-20)
(0.665408 -0.0544339 -4.6565e-21)
(0.071376 -0.122707 1.00361e-20)
(0.116108 -0.139948 -2.48306e-20)
(0.163123 -0.146306 -6.98944e-20)
(0.210175 -0.145627 -3.24029e-20)
(0.255842 -0.140928 -5.81964e-20)
(0.299453 -0.134294 4.09989e-20)
(0.340768 -0.126991 2.43685e-19)
(0.379775 -0.119688 2.12301e-19)
(0.416562 -0.112685 1.33705e-19)
(0.451253 -0.106081 -4.99299e-20)
(0.483975 -0.0998928 2.78699e-20)
(0.51485 -0.0941041 -2.05851e-19)
(0.543995 -0.0886905 7.16323e-20)
(0.571517 -0.0836269 -5.68827e-20)
(0.597515 -0.0788903 -8.05877e-20)
(0.622088 -0.0744617 4.30295e-20)
(0.645351 -0.0703121 -3.66669e-19)
(0.667317 -0.0663973 1.32584e-19)
(0.121707 -0.164784 5.05415e-20)
(0.168909 -0.172319 -2.20946e-20)
(0.215875 -0.171556 -3.35906e-20)
(0.261307 -0.166048 -1.10836e-19)
(0.304615 -0.158249 -2.34168e-20)
(0.345607 -0.149656 -1.01823e-20)
(0.384297 -0.141059 -3.80318e-19)
(0.420783 -0.132811 -2.78087e-19)
(0.455191 -0.125033 1.62662e-19)
(0.48765 -0.117744 2.37883e-20)
(0.518281 -0.110925 6.1304e-20)
(0.547199 -0.104548 -5.8799e-20)
(0.57451 -0.0985825 3.00346e-19)
(0.60031 -0.0930023 5.88957e-20)
(0.624699 -0.0877845 8.78496e-20)
(0.647803 -0.0828935 2.06384e-19)
(0.669601 -0.0782815 -1.10378e-19)
(0.128206 -0.189319 6.54126e-20)
(0.175627 -0.198039 5.86399e-20)
(0.222496 -0.197213 -9.00142e-20)
(0.267656 -0.190918 1.55222e-19)
(0.310613 -0.181976 2.20196e-20)
(0.351231 -0.17211 -2.82156e-19)
(0.389553 -0.162235 1.77695e-19)
(0.425688 -0.152757 7.10431e-20)
(0.459769 -0.143818 -8.2594e-20)
(0.491923 -0.135441 2.21976e-20)
(0.52227 -0.127603 1.03637e-20)
(0.550924 -0.120272 -8.49041e-20)
(0.577989 -0.113414 2.16262e-19)
(0.603559 -0.106999 -7.61114e-20)
(0.627735 -0.101 5.50636e-20)
(0.650653 -0.0953745 1.17562e-19)
(0.672258 -0.0900721 -4.35388e-20)
(0.135588 -0.213507 -8.94578e-20)
(0.183263 -0.223423 -3.22583e-19)
(0.230025 -0.222556 2.17339e-19)
(0.274879 -0.2155 1.04467e-19)
(0.317438 -0.205439 1.79339e-19)
(0.357631 -0.194323 1.9346e-19)
(0.395533 -0.183188 1.23087e-19)
(0.431271 -0.172497 1.62401e-19)
(0.464979 -0.162413 -2.92577e-19)
(0.496785 -0.15296 3.261e-20)
(0.52681 -0.144116 6.38888e-20)
(0.555163 -0.135843 3.29471e-19)
(0.581949 -0.128104 -1.79535e-19)
(0.607258 -0.120864 -4.51881e-20)
(0.631192 -0.114093 -1.04273e-19)
(0.653899 -0.10774 -6.80397e-20)
(0.675284 -0.101755 1.77204e-19)
(0.143836 -0.237303 2.30171e-21)
(0.1918 -0.248428 -3.60825e-20)
(0.238446 -0.247547 1.40918e-19)
(0.28296 -0.239758 -3.04314e-19)
(0.325076 -0.228605 -1.73564e-20)
(0.364795 -0.216263 -2.71503e-19)
(0.402229 -0.203889 1.53819e-19)
(0.437521 -0.192004 -2.46999e-19)
(0.470812 -0.180791 2.38149e-19)
(0.50223 -0.170279 2.11851e-19)
(0.531893 -0.160443 -1.73327e-19)
(0.559911 -0.151242 -6.0047e-19)
(0.586385 -0.142634 3.21016e-19)
(0.611401 -0.13458 -2.58345e-19)
(0.635063 -0.127046 -5.65236e-20)
(0.657533 -0.119975 2.09572e-19)
(0.678674 -0.113317 -1.71689e-19)
(0.15293 -0.260665 -1.35353e-19)
(0.201218 -0.273012 1.70476e-19)
(0.247743 -0.272145 -3.25047e-19)
(0.291885 -0.263655 6.00414e-20)
(0.333514 -0.251441 -6.6104e-21)
(0.37271 -0.237899 3.73369e-19)
(0.409628 -0.22431 -2.32243e-19)
(0.444429 -0.211253 -4.9405e-20)
(0.477259 -0.19893 6.45216e-20)
(0.508248 -0.187376 -8.13215e-20)
(0.537513 -0.176565 3.15347e-19)
(0.56516 -0.16645 1.74538e-19)
(0.591288 -0.156985 -3.51451e-19)
(0.615981 -0.14813 1.90588e-19)
(0.639343 -0.139846 2.62482e-19)
(0.661552 -0.132066 -4.7984e-19)
(0.682424 -0.124744 1.68962e-21)
(0.162846 -0.28355 1.33768e-19)
(0.211498 -0.297134 1.85206e-19)
(0.257896 -0.296312 1.05937e-19)
(0.301638 -0.287156 4.31549e-19)
(0.342737 -0.273914 -5.46082e-20)
(0.381363 -0.259202 1.76338e-19)
(0.417718 -0.244424 -6.15577e-19)
(0.451982 -0.230217 3.51319e-19)
(0.48431 -0.216805 -2.16469e-19)
(0.51483 -0.204229 6.35105e-20)
(0.543658 -0.192459 -3.41576e-19)
(0.5709 -0.181447 -2.71277e-20)
(0.596651 -0.171141 2.76043e-19)
(0.620991 -0.161499 4.63107e-20)
(0.644025 -0.152476 -1.34169e-20)
(0.665949 -0.143997 2.27129e-20)
(0.686527 -0.136024 -3.06648e-19)
(0.173562 -0.305916 -1.86823e-19)
(0.222617 -0.320753 1.54763e-20)
(0.268885 -0.320009 1.67016e-19)
(0.312198 -0.310227 -3.756e-19)
(0.352728 -0.295993 3.966e-20)
(0.390739 -0.280143 -4.41545e-19)
(0.426484 -0.264204 4.88431e-19)
(0.460168 -0.248872 -1.28101e-19)
(0.491951 -0.234395 -1.45254e-19)
(0.521964 -0.220817 4.17239e-21)
(0.550321 -0.208108 1.68555e-21)
(0.577124 -0.196215 2.57879e-19)
(0.602467 -0.185085 -3.76324e-20)
(0.626425 -0.174669 -3.27813e-19)
(0.649103 -0.164923 -4.06594e-19)
(0.670717 -0.155756 4.73641e-19)
(0.690979 -0.147142 2.98505e-19)
(0.185051 -0.327723 2.16838e-19)
(0.234549 -0.343828 -3.35007e-19)
(0.280688 -0.3432 -3.17791e-19)
(0.323547 -0.332832 1.26914e-19)
(0.363468 -0.317645 -5.31122e-19)
(0.400821 -0.300693 5.33134e-19)
(0.435912 -0.283624 -2.32558e-19)
(0.468973 -0.267195 -2.34712e-19)
(0.500171 -0.251676 2.07758e-20)
(0.529639 -0.237118 -6.84253e-22)
(0.557489 -0.22349 -2.95393e-20)
(0.58382 -0.210737 1.9864e-19)
(0.608725 -0.198799 -1.8888e-19)
(0.632272 -0.187627 9.7361e-20)
(0.654568 -0.177171 2.1117e-19)
(0.675849 -0.167329 -2.64866e-19)
(0.695772 -0.158086 -5.43353e-20)
(0.197285 -0.348931 -3.08949e-20)
(0.247269 -0.366323 2.36853e-19)
(0.293281 -0.365848 2.12493e-19)
(0.335663 -0.354939 -3.34569e-19)
(0.37494 -0.338842 1.79785e-19)
(0.411592 -0.320824 -1.38497e-19)
(0.445987 -0.302658 -9.74495e-21)
(0.478382 -0.28516 3.5158e-20)
(0.508956 -0.268626 -8.40557e-20)
(0.537842 -0.253113 1.66866e-19)
(0.565151 -0.238589 -9.06105e-20)
(0.590979 -0.224994 -2.69857e-19)
(0.615416 -0.212268 3.84495e-19)
(0.638525 -0.200357 2.38841e-19)
(0.660413 -0.189206 -3.06352e-19)
(0.681337 -0.178702 1.77748e-19)
(0.700901 -0.168844 2.59574e-19)
(0.260748 -0.388198 4.58985e-20)
(0.306637 -0.387919 1.69363e-19)
(0.348523 -0.376516 3.34533e-19)
(0.387121 -0.359553 2.52055e-19)
(0.423032 -0.340509 4.86666e-19)
(0.456689 -0.321281 -4.45987e-20)