/*--------------------------------*- C++ -*----------------------------------*\
  =========                 |
  \\      /  F ield         | OpenFOAM: The Open Source CFD Toolbox
   \\    /   O peration     | Website:  https://openfoam.org
    \\  /    A nd           | Version:  7
     \\/     M anipulation  |
\*---------------------------------------------------------------------------*/
FoamFile
{
    version     2.0;
    format      ascii;
    class       surfaceScalarField;
    location    "60";
    object      phi;
}
// * * * * * * * * * * * * * * * * * * * * * * * * * * * * * * * * * * * * * //

dimensions      [0 3 -1 0 0 0 0];

internalField   nonuniform List<scalar> 
67470
(
-8.17844e-07
4.63073e-08
7.71537e-07
-3.08652e-06
-9.90402e-08
2.36771e-06
-6.69241e-06
-4.69435e-07
4.07533e-06
-1.15231e-05
-1.04627e-06
5.87699e-06
-1.74687e-05
-1.80989e-06
7.75548e-06
-2.44233e-05
-2.74155e-06
9.69616e-06
-3.22869e-05
-3.82474e-06
1.16884e-05
-4.09672e-05
-5.04695e-06
1.37273e-05
-5.03818e-05
-6.40082e-06
1.58154e-05
-6.04601e-05
-7.88489e-06
1.79632e-05
-7.11461e-05
-9.50368e-06
2.01896e-05
-8.24e-05
-1.12674e-05
2.25213e-05
-9.42009e-05
-1.31909e-05
2.49918e-05
-0.000106548
-1.52934e-05
2.76409e-05
-0.000119464
-1.75971e-05
3.05127e-05
-0.000132992
-2.01272e-05
3.36552e-05
-0.000147199
-2.29117e-05
3.71188e-05
-0.000162172
-2.59824e-05
4.09558e-05
-0.000178015
-2.93761e-05
4.52183e-05
-3.31328e-05
4.99641e-05
-0.000194846
-8.21396e-07
8.67703e-07
-3.09944e-06
2.17901e-06
-6.71966e-06
3.15078e-06
-1.15688e-05
3.80292e-06
-1.75363e-05
4.15758e-06
-2.45156e-05
4.23773e-06
-3.24061e-05
4.06576e-06
-4.11151e-05
3.66204e-06
-5.05597e-05
3.04382e-06
-6.06694e-05
2.22472e-06
-7.13876e-05
1.2146e-06
-8.2675e-05
1.99758e-08
-9.45106e-05
-1.35531e-06
-0.000106895
-2.90946e-06
-0.000119849
-4.64246e-06
-0.00013342
-6.55647e-06
-0.000147675
-8.65684e-06
-0.000162703
-1.09542e-05
-0.000178609
-1.34704e-05
-1.62274e-05
-0.000195514
-8.22501e-07
1.6902e-06
-3.10337e-06
4.45988e-06
-6.72763e-06
6.77504e-06
-1.15815e-05
8.65681e-06
-1.75537e-05
1.01298e-05
-2.45371e-05
1.12211e-05
-3.24303e-05
1.1959e-05
-4.114e-05
1.23717e-05
-5.05825e-05
1.24863e-05
-6.06864e-05
1.23286e-05
-7.13946e-05
1.19228e-05
-8.26668e-05
1.12922e-05
-9.44816e-05
1.04595e-05
-0.000106839
9.44766e-06
-0.00011976
8.27924e-06
-0.000133292
6.97554e-06
-0.000147504
5.55442e-06
-0.000162485
4.02682e-06
-0.000178341
2.3861e-06
6.28393e-07
-0.000195197
-8.21156e-07
2.51136e-06
-3.09827e-06
6.73699e-06
-6.71625e-06
1.0393e-05
-1.1561e-05
1.35016e-05
-1.75207e-05
1.60895e-05
-2.44875e-05
1.81879e-05
-3.23592e-05
1.98308e-05
-4.10415e-05
2.1054e-05
-5.04495e-05
2.18943e-05
-6.05105e-05
2.23896e-05
-7.1166e-05
2.25783e-05
-8.23743e-05
2.25004e-05
-9.41124e-05
2.21977e-05
-0.000106379
2.17141e-05
-0.000119195
2.10953e-05
-0.000132606
2.03866e-05
-0.000146681
1.96297e-05
-0.000161512
1.88577e-05
-0.000177206
1.80798e-05
1.731e-05
-0.000193887
-8.17377e-07
3.32874e-06
-3.0842e-06
9.00382e-06
-6.68563e-06
1.39945e-05
-1.15075e-05
1.83234e-05
-1.74374e-05
2.20194e-05
-2.4367e-05
2.51174e-05
-3.2193e-05
2.76568e-05
-4.08198e-05
2.96807e-05
-5.0161e-05
3.12355e-05
-6.0142e-05
3.23706e-05
-7.07023e-05
3.31386e-05
-8.17977e-05
3.35959e-05
-9.34032e-05
3.38032e-05
-0.000105515
3.38258e-05
-0.000118152
3.37328e-05
-0.00013136
3.35939e-05
-0.000145206
3.34757e-05
-0.000159783
3.34346e-05
-0.000175199
3.34959e-05
3.36918e-05
-0.000191581
-8.1121e-07
4.13995e-06
-3.06131e-06
1.12539e-05
-6.63606e-06
1.75692e-05
-1.14214e-05
2.31087e-05
-1.73046e-05
2.79027e-05
-2.41765e-05
3.19894e-05
-3.19328e-05
3.54131e-05
-4.04762e-05
3.82241e-05
-4.97184e-05
4.04777e-05
-5.95825e-05
4.22347e-05
-7.00051e-05
4.35612e-05
-8.09391e-05
4.45298e-05
-9.2356e-05
4.52201e-05
-0.000104249
4.57187e-05
-0.000116634
4.61183e-05
-0.000129555
4.65141e-05
-0.000143077
4.69985e-05
-0.000157295
4.76525e-05
-0.000172318
4.85188e-05
4.96477e-05
-0.000188274
-8.02725e-07
4.94267e-06
-3.02984e-06
1.3481e-05
-6.568e-06
2.11074e-05
-1.13034e-05
2.78441e-05
-1.71232e-05
3.37225e-05
-2.39173e-05
3.87835e-05
-3.15802e-05
4.3076e-05
-4.00126e-05
4.66566e-05
-4.91241e-05
4.95892e-05
-5.88346e-05
5.19452e-05
-6.90775e-05
5.3804e-05
-7.98015e-05
5.52539e-05
-9.09741e-05
5.63927e-05
-0.000102584
5.73287e-05
-0.000114644
5.81784e-05
-0.000127193
5.90634e-05
-0.000140298
6.01034e-05
-0.000154051
6.14055e-05
-0.000168564
6.30313e-05
6.50497e-05
-0.000183966
-7.92017e-07
5.73469e-06
-2.99009e-06
1.56791e-05
-6.48206e-06
2.45993e-05
-1.11546e-05
3.25166e-05
-1.68946e-05
3.94625e-05
-2.35912e-05
4.54801e-05
-3.11373e-05
5.06221e-05
-3.94317e-05
5.4951e-05
-4.83811e-05
5.85386e-05
-5.7902e-05
6.14661e-05
-6.79234e-05
6.38255e-05
-7.83895e-05
6.572e-05
-8.92624e-05
6.72656e-05
-0.000100525
6.85917e-05
-0.000112187
6.98395e-05
-0.000124281
7.11576e-05
-0.000136872
7.26947e-05
-0.000150053
7.45863e-05
-0.000163936
7.69149e-05
7.97691e-05
-0.000178656
-7.79202e-07
6.51389e-06
-2.94246e-06
1.78424e-05
-6.37901e-06
2.80359e-05
-1.09761e-05
3.71137e-05
-1.66205e-05
4.51068e-05
-2.32003e-05
5.20599e-05
-3.0607e-05
5.80288e-05
-3.87368e-05
6.30809e-05
-4.74933e-05
6.7295e-05
-5.6789e-05
7.07618e-05
-6.65481e-05
7.35845e-05
-7.67088e-05
7.58807e-05
-8.7227e-05
7.77839e-05
-9.80796e-05
7.94443e-05
-0.000109268
8.10279e-05
-0.000120822
8.27118e-05
-0.000132803
8.46757e-05
-0.000145303
8.70862e-05
-0.000158438
9.00495e-05
9.36753e-05
-0.000172344
-7.64416e-07
7.27831e-06
-2.8874e-06
1.99653e-05
-6.25975e-06
3.14082e-05
-1.07693e-05
4.16232e-05
-1.63028e-05
5.06403e-05
-2.27473e-05
5.85044e-05
-2.99924e-05
6.52739e-05
-3.79318e-05
7.10203e-05
-4.64653e-05
7.58286e-05
-5.55009e-05
7.97975e-05
-6.49572e-05
8.30407e-05
-7.47657e-05
8.56893e-05
-8.4875e-05
8.78931e-05
-9.52537e-05
8.9823e-05
-0.000105896
9.16701e-05
-0.000116825
9.3641e-05
-0.000128098
9.59488e-05
-0.000139807
9.87948e-05
-0.00015207
0.000102313
0.000106636
-0.00016503
-7.47811e-07
8.02612e-06
-2.82541e-06
2.20429e-05
-6.12526e-06
3.47081e-05
-1.05359e-05
4.60339e-05
-1.59438e-05
5.60481e-05
-2.2235e-05
6.47956e-05
-2.9297e-05
7.23359e-05
-3.70207e-05
7.8744e-05
-4.53019e-05
8.41097e-05
-5.40433e-05
8.85389e-05
-6.31572e-05
9.21546e-05
-7.25675e-05
9.50996e-05
-8.2214e-05
9.75395e-05
-9.2056e-05
9.9665e-05
-0.000102078
0.000101692
-0.000112297
0.000103859
-0.000122763
0.000106415
-0.000133567
0.000109599
-0.000144834
0.000113579
0.000118514
-0.000156712
-7.29553e-07
8.75567e-06
-2.75704e-06
2.40704e-05
-5.97662e-06
3.79277e-05
-1.02775e-05
5.03348e-05
-1.55458e-05
6.13164e-05
-2.16664e-05
7.09162e-05
-2.85247e-05
7.91942e-05
-3.60082e-05
8.62275e-05
-4.40083e-05
9.21099e-05
-5.24222e-05
9.69529e-05
-6.11549e-05
0.000100887
-7.01217e-05
0.000104066
-7.92523e-05
0.00010667
-8.84952e-05
0.000108908
-9.78243e-05
0.000111021
-0.000107245
0.00011328
-0.000116803
0.000115973
-0.000126589
0.000119385
-0.000136729
0.00012372
0.000129172
-0.000147387
-7.09818e-07
9.46549e-06
-2.68288e-06
2.60435e-05
-5.81498e-06
4.10598e-05
-9.9959e-06
5.45157e-05
-1.51113e-05
6.64319e-05
-2.10448e-05
7.68496e-05
-2.76792e-05
8.58286e-05
-3.48987e-05
9.3447e-05
-4.25899e-05
9.98011e-05
-5.06437e-05
0.000105007
-5.8957e-05
0.000109201
-6.74357e-05
0.000112545
-7.5998e-05
0.000115232
-8.45799e-05
0.00011749
-9.3142e-05
0.000119584
-0.000101678
0.000121817
-0.000110226
0.000124521
-0.000118873
0.000128032
-0.000127755
0.000132601
0.000138462
-0.000137046
-6.88786e-07
1.01543e-05
-2.60353e-06
2.79582e-05
-5.64151e-06
4.40977e-05
-9.69292e-06
5.85671e-05
-1.46429e-05
7.13818e-05
-2.03733e-05
8.25801e-05
-2.67646e-05
9.22199e-05
-3.3697e-05
0.000100379
-4.1052e-05
0.000107156
-4.87135e-05
0.000112668
-5.65701e-05
0.000117057
-6.45167e-05
0.000120492
-7.24589e-05
0.000123175
-8.0318e-05
0.000125349
-8.80396e-05
0.000127305
-9.56034e-05
0.000129381
-0.000103036
0.000131953
-0.000110422
0.000135418
-0.000117906
0.000140085
0.000146235
-0.000125679
-6.66642e-07
1.08209e-05
-2.51959e-06
2.98112e-05
-5.45739e-06
4.70355e-05
-9.37041e-06
6.24802e-05
-1.4143e-05
7.61544e-05
-1.96552e-05
8.80923e-05
-2.57846e-05
9.83493e-05
-3.24073e-05
0.000107002
-3.93992e-05
0.000114148
-4.66371e-05
0.000119906
-5.39999e-05
0.00012442
-6.1371e-05
0.000127863
-6.86416e-05
0.000130445
-7.57166e-05
0.000132424
-8.25236e-05
0.000134112
-8.90253e-05
0.000135882
-9.5235e-05
0.000138163
-0.000101234
0.000141417
-0.000107173
0.000146025
0.000152329
-0.000113267
-6.43572e-07
1.14645e-05
-2.43167e-06
3.15993e-05
-5.26378e-06
4.98676e-05
-9.03016e-06
6.62465e-05
-1.3614e-05
8.07383e-05
-1.88934e-05
9.33717e-05
-2.47427e-05
0.000104199
-3.10336e-05
0.000113293
-3.76361e-05
0.00012075
-4.4419e-05
0.000126689
-5.12514e-05
0.000131252
-5.80036e-05
0.000134615
-6.45513e-05
0.000136993
-7.07806e-05
0.000138653
-7.65987e-05
0.00013993
-8.19475e-05
0.000141231
-8.68235e-05
0.000143039
-9.13012e-05
0.000145894
-9.55434e-05
0.000150267
0.000156573
-9.97872e-05
-6.19754e-07
1.20842e-05
-2.34036e-06
3.33199e-05
-5.06181e-06
5.25891e-05
-8.67387e-06
6.98586e-05
-1.30583e-05
8.51227e-05
-1.80907e-05
9.84042e-05
-2.3642e-05
0.00010975
-2.95792e-05
0.00011923
-3.57658e-05
0.000126937
-4.20626e-05
0.000132986
-4.83276e-05
0.000137517
-5.44176e-05
0.000140705
-6.01907e-05
0.000142766
-6.55125e-05
0.000143975
-7.02663e-05
0.000144684
-7.43695e-05
0.000145334
-7.77977e-05
0.000146467
-8.06153e-05
0.000148712
-8.29961e-05
0.000152648
0.000158781
-8.52042e-05
-5.95363e-07
1.26796e-05
-2.24622e-06
3.49708e-05
-4.85253e-06
5.51954e-05
-8.3031e-06
7.33092e-05
-1.24778e-05
8.92974e-05
-1.72495e-05
0.000103176
-2.24851e-05
0.000114986
-2.80466e-05
0.000124792
-3.37909e-05
0.000132681
-3.95698e-05
0.000138765
-4.523e-05
0.000143177
-5.06135e-05
0.000146088
-5.55597e-05
0.000147712
-5.99111e-05
0.000148327
-6.35239e-05
0.000148297
-6.62867e-05
0.000148097
-6.81485e-05
0.000148329
-6.91595e-05
0.000149723
-6.95044e-05
0.000152993
0.000158752
-6.94749e-05
-5.70561e-07
1.32502e-05
-2.14975e-06
3.655e-05
-4.63691e-06
5.76826e-05
-7.91926e-06
7.65915e-05
-1.18743e-05
9.32525e-05
-1.63716e-05
0.000107673
-2.12738e-05
0.000119888
-2.64374e-05
0.000129955
-3.17121e-05
0.000137956
-3.69406e-05
0.000143993
-4.19573e-05
0.000148194
-4.65886e-05
0.00015072
-5.06539e-05
0.000151777
-5.39702e-05
0.000151643
-5.63634e-05
0.00015069
-5.7688e-05
0.000149422
-5.78605e-05
0.000148501
-5.69106e-05
0.000148773
-5.5032e-05
0.000151114
0.000156265
-5.25452e-05
-5.455e-07
1.37957e-05
-2.05144e-06
3.80559e-05
-4.41578e-06
6.00469e-05
-7.52353e-06
7.96993e-05
-1.12492e-05
9.69781e-05
-1.54584e-05
0.000111882
-2.00093e-05
0.000124439
-2.4752e-05
0.000134698
-2.95289e-05
0.000142733
-3.41727e-05
0.000148637
-3.85053e-05
0.000152527
-4.23366e-05
0.000154551
-4.54643e-05
0.000154905
-4.76782e-05
0.000153857
-4.877e-05
0.000151782
-4.85551e-05
0.000149207
-4.69099e-05
0.000146856
-4.38359e-05
0.000145699
-3.95345e-05
0.000146813
0.000151083
-3.43531e-05
-5.20315e-07
1.4316e-05
-1.9517e-06
3.94873e-05
-4.18988e-06
6.22851e-05
-7.11686e-06
8.26262e-05
-1.06034e-05
0.000100465
-1.45108e-05
0.00011579
-1.86916e-05
0.000128619
-2.29895e-05
0.000138996
-2.72386e-05
0.000146982
-3.12614e-05
0.00015266
-3.48665e-05
0.000156132
-3.78463e-05
0.000157531
-3.99762e-05
0.000157035
-4.10161e-05
0.000154897
-4.07206e-05
0.000151486
-3.88598e-05
0.000147346
-3.52622e-05
0.000143259
-2.98884e-05
0.000140325
-2.29578e-05
0.000139882
0.000142994
-1.48689e-05
-4.95125e-07
1.48111e-05
-1.85086e-06
4.0843e-05
-3.95976e-06
6.4394e-05
-6.69993e-06
8.53664e-05
-9.93759e-06
0.000103702
-1.35287e-05
0.000119381
-1.73198e-05
0.00013241
-2.11474e-05
0.000142823
-2.48366e-05
0.000150671
-2.81989e-05
0.000156022
-3.10292e-05
0.000158962
-3.31017e-05
0.000159603
-3.41679e-05
0.000158101
-3.39566e-05
0.000154686
-3.21817e-05
0.000149711
-2.85628e-05
0.000143727
-2.28717e-05
0.000137568
-1.50037e-05
0.000132457
-5.09404e-06
0.000129972
0.000132011
5.88904e-06
-4.7003e-07
1.52811e-05
-1.74921e-06
4.21222e-05
-3.72584e-06
6.63706e-05
-6.2731e-06
8.79137e-05
-9.25174e-06
0.000106681
-1.25116e-05
0.000122641
-1.58921e-05
0.000135791
-1.92217e-05
0.000146153
-2.23159e-05
0.000153765
-2.49746e-05
0.000158681
-2.69777e-05
0.000160965
-2.80807e-05
0.000160706
-2.80104e-05
0.000158031
-2.64628e-05
0.000153138
-2.31082e-05
0.000146357
-1.76106e-05
0.00013823
-9.67736e-06
0.000129634
8.32775e-07
0.000121947
1.38328e-05
0.000116972
0.00011721
2.8634e-05
-4.4511e-07
1.57262e-05
-1.64695e-06
4.3324e-05
-3.48833e-06
6.8212e-05
-5.83643e-06
9.02618e-05
-8.54539e-06
0.00010939
-1.14578e-05
0.000125553
-1.44052e-05
0.000138738
-1.72068e-05
0.000148955
-1.96675e-05
0.000156226
-2.15743e-05
0.000160588
-2.26916e-05
0.000162083
-2.27552e-05
0.00016077
-2.14663e-05
0.000156742
-1.84868e-05
0.000150159
-1.34414e-05
0.000141311
-5.93339e-06
0.000130722
4.40772e-06
0.000119293
1.78167e-05
0.000108538
3.41693e-05
0.00010062
9.85206e-05
5.2859e-05
-4.20426e-07
1.61467e-05
-1.54418e-06
4.44478e-05
-3.24729e-06
6.99151e-05
-5.38964e-06
9.24041e-05
-7.81755e-06
0.000111818
-1.03652e-05
0.000128101
-1.28548e-05
0.000141228
-1.50952e-05
0.000151195
-1.68794e-05
0.00015801
-1.79805e-05
0.000161689
-1.81459e-05
0.000162248
-1.70907e-05
0.000159715
-1.44895e-05
0.000154141
-9.96957e-06
0.000145639
-3.1079e-06
0.00013445
6.55663e-06
0.000121057
1.94796e-05
0.00010637
3.59897e-05
9.20284e-05
5.60382e-05
8.05713e-05
7.55806e-05
7.89781e-05
-3.96015e-07
1.65427e-05
-1.44093e-06
4.54927e-05
-3.00257e-06
7.14767e-05
-4.93209e-06
9.43336e-05
-7.06664e-06
0.000113952
-9.23057e-06
0.000130265
-1.12353e-05
0.000143233
-1.28779e-05
0.000152838
-1.39377e-05
0.00015907
-1.41723e-05
0.000161923
-1.33107e-05
0.000161386
-1.1046e-05
0.00015745
-7.02517e-06
0.00015012
-8.39802e-07
0.000139453
7.9812e-06
0.000125629
1.9966e-05
0.000109072
3.56625e-05
9.06737e-05
5.55137e-05
7.21772e-05
7.95662e-05
5.65189e-05
4.79919e-05
0.000107155
-3.7189e-07
1.69146e-05
-1.33714e-06
4.64579e-05
-2.7538e-06
7.28934e-05
-4.46279e-06
9.60426e-05
-6.29051e-06
0.00011578
-8.04989e-06
0.000132024
-9.53996e-06
0.000144723
-1.05439e-05
0.000153842
-1.08259e-05
0.000159352
-1.01256e-05
0.000161223
-8.15181e-06
0.000159413
-4.57364e-06
0.000153872
9.90582e-07
0.000144556
8.98561e-06
0.000131458
1.99308e-05
0.000114683
3.44218e-05
9.45812e-05
5.31035e-05
7.1992e-05
7.6549e-05
4.87317e-05
0.000104928
2.81398e-05
1.53306e-05
0.000137589
-3.48044e-07
1.72626e-05
-1.23266e-06
4.73426e-05
-2.50043e-06
7.41612e-05
-3.98036e-06
9.75226e-05
-5.48642e-06
0.000117286
-6.8183e-06
0.000133356
-7.76066e-06
0.000145665
-8.08085e-06
0.000154162
-7.52508e-06
0.000158796
-5.81302e-06
0.000159511
-2.63055e-06
0.00015623
2.37955e-06
0.000148862
9.62951e-06
0.000137306
1.9601e-05
0.000121487
3.28609e-05
0.000101424
5.00711e-05
7.7371e-05
7.19739e-05
5.00892e-05
9.92843e-05
2.14213e-05
0.000132325
-4.90116e-06
-2.28471e-05
0.000170503
-3.24438e-07
1.75871e-05
-1.12721e-06
4.81453e-05
-2.24164e-06
7.52756e-05
-3.48303e-06
9.87639e-05
-4.65102e-06
0.000118454
-5.53005e-06
0.000134235
-5.88822e-06
0.000146023
-5.47449e-06
0.000153748
-4.01448e-06
0.000157336
-1.20464e-06
0.000156701
3.29528e-06
0.00015173
9.87185e-06
0.000142285
1.89703e-05
0.000128207
3.11105e-05
0.000109347
4.69054e-05
8.56286e-05
6.70795e-05
5.71969e-05
9.24691e-05
2.46996e-05
0.000123935
-1.00451e-05
0.000161984
-4.29497e-05
-6.69897e-05
0.000206127
-3.0101e-07
1.78881e-05
-1.02043e-06
4.88648e-05
-1.9764e-06
7.62316e-05
-2.9686e-06
9.97561e-05
-3.7803e-06
0.000119266
-4.17851e-06
0.000134633
-3.91223e-06
0.000145757
-2.70922e-06
0.000152545
-2.71249e-07
0.000154898
3.73207e-06
0.000152698
9.67104e-06
0.000145791
1.79655e-05
0.000133991
2.90972e-05
0.000117076
4.36255e-05
9.48182e-05
6.22089e-05
6.70452e-05
8.56284e-05
3.37774e-05
0.000114805
-4.4769e-06
0.000150742
-4.59822e-05
0.000194152
-8.63597e-05
-0.000117531
0.000244694
-2.77661e-07
1.81657e-05
-9.11819e-07
4.94989e-05
-1.70342e-06
7.70232e-05
-2.43444e-06
0.000100487
-2.86963e-06
0.000119701
-2.75612e-06
0.00013452
-1.82108e-06
0.000144822
2.3211e-07
0.000150492
3.7292e-06
0.000151401
9.03163e-06
0.000147395
1.65444e-05
0.000138279
2.67255e-05
0.00012381
4.00974e-05
0.000103704
5.72621e-05
7.76535e-05
7.89222e-05
4.53851e-05
0.000105909
6.79073e-06
0.000139213
-3.77806e-05
0.000179962
-8.67318e-05
0.000229093
-0.000135491
-0.000174867
0.000286429
-2.54261e-07
1.842e-05
-8.00755e-07
5.00454e-05
-1.42111e-06
7.76435e-05
-1.87744e-06
0.000100944
-1.91365e-06
0.000119737
-1.25437e-06
0.000133861
3.98014e-07
0.00014317
3.36803e-06
0.000147522
8.01304e-06
0.000146756
1.47303e-05
0.000140678
2.39647e-05
0.000129044
3.62182e-05
0.000111556
5.20593e-05
8.78626e-05
7.21368e-05
5.7576e-05
9.71977e-05
2.03242e-05
0.000128115
-2.41269e-05
0.00016593
-7.55954e-05
0.000211864
-0.000132666
0.000267081
-0.000190707
-0.000239319
0.000331533
-2.30638e-07
1.86506e-05
-6.86463e-07
5.05012e-05
-1.12757e-06
7.80846e-05
-1.29398e-06
0.00010111
-9.06245e-07
0.00011935
3.36228e-07
0.000132618
2.75909e-06
0.000140747
6.71853e-06
0.000143562
1.2608e-05
0.000140867
2.08655e-05
0.000132421
3.19821e-05
0.000117927
4.65097e-05
9.70285e-05
6.50698e-05
6.93025e-05
8.83629e-05
3.42829e-05
0.000117182
-8.49485e-06
0.000152436
-5.93806e-05
0.000195191
-0.000118351
0.000246717
-0.000184192
0.00030839
-0.00025238
-0.000311095
0.000380166
-2.06577e-07
1.88572e-05
-5.6801e-07
5.08627e-05
-8.20596e-07
7.83372e-05
-6.7987e-07
0.000100969
1.59503e-07
0.00011851
2.02624e-06
0.000130751
5.27746e-06
0.000137496
1.0305e-05
0.000138535
1.7543e-05
0.000133629
2.74759e-05
0.000122488
4.06468e-05
0.000104757
5.76649e-05
8.00104e-05
7.92116e-05
4.77558e-05
0.000106046
7.44876e-06
0.00013901
-4.14587e-05
0.000179042
-9.94132e-05
0.000227213
-0.000166522
0.000284772
-0.000241751
0.000353283
-0.000320891
-0.000390235
0.000432423
-1.81811e-07
1.9039e-05
-4.44286e-07
5.11251e-05
-4.97578e-07
7.83905e-05
-3.02908e-08
0.000100502
1.29133e-06
0.000117189
3.82736e-06
0.000128215
7.96981e-06
0.000133353
1.41503e-05
0.000132354
2.28485e-05
0.000124931
3.46008e-05
0.000110735
5.00089e-05
8.93484e-05
6.9746e-05
6.02734e-05
9.45609e-05
2.29409e-05
0.000125278
-2.32687e-05
0.000162795
-7.89755e-05
0.000208078
-0.000144696
0.000262178
-0.000220622
0.000326257
-0.00030583
0.000402005
-0.000396639
-0.000476549
0.000488319
-1.5602e-07
1.9195e-05
-3.13988e-07
5.12831e-05
-1.55538e-07
7.82321e-05
6.6005e-07
9.96863e-05
2.49796e-06
0.000115351
5.75247e-06
0.000124961
1.08542e-05
0.000128251
1.82787e-05
0.00012493
2.85561e-05
0.000114653
4.22803e-05
9.70111e-05
6.01172e-05
7.15115e-05
8.2811e-05
3.75796e-05
0.000111185
-5.4333e-06
0.000146138
-5.8221e-05
0.000188626
-0.000121464
0.000239648
-0.000195719
0.000300221
-0.000281194
0.000371352
-0.000376961
0.00045477
-0.000480057
-0.000569557
0.000547778
-1.28821e-07
1.93239e-05
-1.75613e-07
5.13299e-05
2.08915e-07
7.78475e-05
1.39738e-06
9.84978e-05
3.78904e-06
0.000112959
7.81568e-06
0.000120934
1.39502e-05
0.000122117
2.27163e-05
0.000116164
3.4699e-05
0.000102671
5.05547e-05
8.11554e-05
7.10194e-05
5.10468e-05
9.69135e-05
1.16854e-05
0.000129141
-3.76609e-05
0.00016868
-9.77595e-05
0.000216556
-0.00016934
0.000273804
-0.000252967
0.000341403
-0.000348792
0.000420168
-0.000455726
0.000511721
-0.00057161
-0.000668539
0.000610702
-9.97705e-08
1.94236e-05
-2.7324e-08
5.12575e-05
5.99612e-07
7.72206e-05
2.18842e-06
9.6909e-05
5.17517e-06
0.000109972
1.00324e-05
0.000116077
1.72787e-05
0.00011487
2.74901e-05
0.000105952
4.1311e-05
8.88498e-05
5.94646e-05
6.30018e-05
8.2761e-05
2.77504e-05
0.000112101
-1.76545e-05
0.000148472
-7.40323e-05
0.000192936
-0.000142223
0.000246595
-0.000222999
0.000310535
-0.000316907
0.000385719
-0.000423976
0.000472769
-0.000542777
0.000572845
-0.000671685
-0.000772889
0.000677195
-6.83906e-08
1.9492e-05
1.32441e-07
5.10566e-05
1.02077e-06
7.63323e-05
3.04064e-06
9.48892e-05
6.66794e-06
0.000106345
1.24191e-05
0.000110326
2.08622e-05
0.000106427
3.26291e-05
9.41853e-05
4.84273e-05
7.30516e-05
6.90504e-05
4.23788e-05
9.53851e-05
1.41573e-06
0.000128413
-5.06829e-05
0.000169207
-0.000114826
0.000218909
-0.000191925
0.000278702
-0.000282793
0.000349747
-0.000387952
0.000433081
-0.00050731
0.000529307
-0.000639003
0.000638299
-0.000780677
-0.000882507
0.000747917
-3.40885e-08
1.95261e-05
3.06181e-07
5.07163e-05
1.47707e-06
7.51614e-05
3.96213e-06
9.24041e-05
8.2798e-06
0.000102027
1.49935e-05
0.000103612
2.47242e-05
9.66967e-05
3.8163e-05
8.07466e-05
5.60834e-05
5.51311e-05
7.93515e-05
1.91107e-05
0.000108931
-2.81638e-05
0.000145883
-8.76348e-05
0.000191356
-0.000160299
0.000246567
-0.000247136
0.000312768
-0.000348994
0.000391208
-0.000466392
0.000483129
-0.00059923
0.000589691
-0.000745565
0.000710168
-0.000901154
-0.000996765
0.000824427
3.68134e-09
1.95224e-05
4.9589e-07
5.02241e-05
1.97325e-06
7.3684e-05
4.96127e-06
8.94161e-05
1.00237e-05
9.69648e-05
1.7774e-05
9.58617e-05
2.88889e-05
8.55818e-05
4.41219e-05
6.55136e-05
6.43146e-05
3.49383e-05
9.04059e-05
-6.98063e-06
0.000123434
-6.11921e-05
0.000164532
-0.000128733
0.000214913
-0.00021068
0.000275844
-0.000308066
0.000348616
-0.000421766
0.000434526
-0.000552302
0.000534953
-0.000699657
0.000651663
-0.000862275
0.000788868
-0.00103836
-0.00119003
0.000982134
4.5717e-08
1.94767e-05
7.04452e-07
4.95654e-05
2.51517e-06
7.18733e-05
6.0478e-06
8.58835e-05
1.19141e-05
9.10986e-05
2.07803e-05
8.69955e-05
3.33819e-05
7.29802e-05
5.05367e-05
4.83589e-05
7.31555e-05
1.23195e-05
0.000102248
-3.60736e-05
0.000138923
-9.78666e-05
0.000184373
-0.000174183
0.000239853
-0.00026616
0.000306648
-0.000374861
0.000386029
-0.000501148
0.000479238
-0.000645511
0.000587569
-0.000807988
0.000712863
-0.000987569
0.000857736
-0.00118323
-0.00137042
0.00103812
9.27116e-08
1.9384e-05
9.34276e-07
4.87238e-05
3.10813e-06
6.96994e-05
7.23088e-06
8.17607e-05
1.39648e-05
8.43647e-05
2.40316e-05
7.69286e-05
3.82278e-05
5.8784e-05
5.74367e-05
2.915e-05
8.2638e-05
-1.28818e-05
0.000114909
-6.83448e-05
0.000155418
-0.000138376
0.000205402
-0.000224167
0.000266132
-0.00032689
0.000338864
-0.000447593
0.000424781
-0.000587065
0.000524951
-0.00074568
0.000640336
-0.000923373
0.000772184
-0.00111942
0.000921174
-0.00133222
-0.00154439
0.00109515
1.45385e-07
1.92386e-05
1.18806e-06
4.76812e-05
3.75783e-06
6.71297e-05
8.52014e-06
7.69984e-05
1.61901e-05
7.66947e-05
2.75473e-05
6.55714e-05
4.34506e-05
4.28807e-05
6.48497e-05
7.75089e-06
9.27906e-05
-4.08227e-05
0.000128412
-0.000103966
0.00017293
-0.000182893
0.000227604
-0.00027884
0.000293686
-0.000392973
0.000372355
-0.000526262
0.000464634
-0.000679344
0.000571314
-0.000852361
0.000692884
-0.00104494
0.000829799
-0.00125633
0.000981424
-0.00148385
-0.00171378
0.00115081
2.04506e-07
1.90341e-05
1.46855e-06
4.64171e-05
4.47001e-06
6.41282e-05
9.92514e-06
7.15433e-05
1.8604e-05
6.80158e-05
3.13458e-05
5.28296e-05
4.90729e-05
2.51537e-05
7.28002e-05
-1.59764e-05
0.000103636
-7.16587e-05
0.000142772
-0.000143102
0.000191454
-0.000231576
0.000250939
-0.000338325
0.000322424
-0.000464457
0.000406954
-0.000610792
0.000505323
-0.000777713
0.000617966
-0.000965004
0.000744829
-0.00117181
0.000885544
-0.00139705
0.0010385
-0.00163681
-0.00187932
0.00120404
2.70845e-07
1.87633e-05
1.77846e-06
4.49095e-05
5.25028e-06
6.06564e-05
1.14552e-05
6.53384e-05
2.12199e-05
5.82511e-05
3.54444e-05
3.86051e-05
5.51146e-05
5.48339e-06
8.13084e-05
-4.21702e-05
0.00011519
-0.00010554
0.000157991
-0.000185903
0.00021097
-0.000284554
0.000275348
-0.000402703
0.000352222
-0.000541331
0.000442453
-0.000701024
0.000546541
-0.000881801
0.0006645
-0.00108296
0.000795706
-0.00130301
0.000939001
-0.00154034
0.00109204
-0.00178985
-0.00204098
0.0012537
3.4516e-07
1.84181e-05
2.12043e-06
4.31342e-05
6.10407e-06
5.66727e-05
1.3119e-05
5.83235e-05
2.40499e-05
4.73202e-05
3.98583e-05
2.27968e-05
6.15924e-05
-1.62507e-05
9.03888e-05
-7.09665e-05
0.000127459
-0.000142611
0.00017406
-0.000232504
0.000231435
-0.00034193
0.000300738
-0.000472006
0.00038292
-0.000623513
0.000478602
-0.000796706
0.000587932
-0.000991131
0.00071046
-0.00120549
0.000844988
-0.00143754
0.000989641
-0.001685
0.00114153
-0.00194174
-0.00219823
0.00129878
4.28175e-07
1.79899e-05
2.49696e-06
4.10655e-05
7.0364e-06
5.21333e-05
1.49245e-05
5.04353e-05
2.71049e-05
3.51398e-05
4.46001e-05
5.30165e-06
6.85183e-05
-4.01689e-05
0.000100049
-0.000102497
0.000140438
-0.000183001
0.000190949
-0.000283015
0.000252785
-0.000403765
0.000326989
-0.00054621
0.000414321
-0.000710845
0.000515107
-0.000897492
0.000629097
-0.00110512
0.000755346
-0.00133174
0.000892106
-0.0015743
0.00103689
-0.00182978
0.00118643
-0.00209129
-0.00235029
0.00133849
5.20572e-07
1.74694e-05
2.91036e-06
3.86757e-05
8.05183e-06
4.69918e-05
1.68788e-05
4.16083e-05
3.03939e-05
2.16247e-05
4.96792e-05
-1.39837e-05
7.5899e-05
-6.63887e-05
0.000110287
-0.000136884
0.00015411
-0.000226825
0.000208615
-0.000337519
0.000274929
-0.000470079
0.000353947
-0.000625229
0.000446186
-0.000803084
0.000551631
-0.00100294
0.000669595
-0.00122308
0.00079863
-0.00146078
0.000936483
-0.00171215
0.00108017
-0.00197346
0.00122622
-0.00223734
-0.00249631
0.00137224
6.22969e-07
1.68464e-05
3.36269e-06
3.5936e-05
9.15427e-06
4.12003e-05
1.89876e-05
3.1775e-05
3.39234e-05
6.68891e-06
5.51012e-05
-3.51615e-05
8.37353e-05
-9.50228e-05
0.000121092
-0.000174241
0.000168444
-0.000274176
0.00022699
-0.000396065
0.00029775
-0.000540839
0.000381426
-0.000708905
0.000478244
-0.000899902
0.000587804
-0.0011125
0.000708961
-0.00134424
0.000839778
-0.00159159
0.000977558
-0.00184993
0.00111896
-0.00211486
0.00126045
-0.00237883
-0.00263552
0.00139966
7.35917e-07
1.61105e-05
3.85569e-06
3.28162e-05
1.03469e-05
3.4709e-05
2.12551e-05
2.08669e-05
3.76976e-05
-9.75362e-06
6.08673e-05
-5.83312e-05
9.20208e-05
-0.000126176
0.000132444
-0.000214665
0.000183392
-0.000325124
0.000245989
-0.000458662
0.000321107
-0.000615958
0.000409209
-0.000797006
0.000510188
-0.00100088
0.000623228
-0.00122554
0.000746719
-0.00146773
0.000878268
-0.00172314
0.00101482
-0.00198649
0.00115282
-0.00225286
0.00128883
-0.00251484
-0.00276728
0.0014206
8.59883e-07
1.52506e-05
4.39081e-06
2.92852e-05
1.16322e-05
2.74676e-05
2.3684e-05
8.81512e-06
4.17177e-05
-2.77874e-05
6.69741e-05
-8.35875e-05
0.000100742
-0.000159944
0.000144311
-0.000258234
0.000198892
-0.000379705
0.000265505
-0.000525275
0.000344831
-0.000695284
0.000437052
-0.000889227
0.000541689
-0.00110552
0.000657492
-0.00134134
0.000782398
-0.00159264
0.000913617
-0.00185436
0.00104784
-0.00212071
0.00118144
-0.00238646
0.00131118
-0.00264458
-0.00289116
0.00143506
9.95248e-07
1.42553e-05
4.96909e-06
2.53114e-05
1.30116e-05
1.94251e-05
2.62752e-05
-4.44846e-06
4.59818e-05
-4.7494e-05
7.34127e-05
-0.000111018
0.000109877
-0.000196408
0.000156648
-0.000305005
0.000214867
-0.000437924
0.000285411
-0.000595819
0.000368731
-0.000778605
0.000464688
-0.000985184
0.000572403
-0.00121323
0.000690184
-0.00145912
0.000815554
-0.00171801
0.000945397
-0.0019842
0.00107626
-0.00225157
0.00120459
-0.00251479
0.00132747
-0.00276746
-0.00300691
0.00144322
1.1423e-06
1.3113e-05
5.59121e-06
2.08625e-05
1.44856e-05
1.05307e-05
2.90277e-05
-1.89905e-05
5.04846e-05
-6.89509e-05
8.01694e-05
-0.000140703
0.000119396
-0.000235635
0.0001694
-0.000355008
0.000231222
-0.000499747
0.000305561
-0.000670157
0.000392597
-0.00086564
0.000491833
-0.00108442
0.000601976
-0.00132338
0.000720908
-0.00157805
0.000845781
-0.00184288
0.000973255
-0.00211168
0.00109984
-0.00237816
0.00122221
-0.00263715
0.00133782
-0.00288308
-0.00311448
0.00144539
1.30124e-06
1.18118e-05
6.25742e-06
1.59063e-05
1.60538e-05
7.34315e-07
3.19385e-05
-3.48753e-05
5.52175e-05
-9.22299e-05
8.72245e-05
-0.00017271
0.000129261
-0.000277671
0.0001825
-0.000408248
0.000247851
-0.000565097
0.000325793
-0.000748099
0.000416201
-0.000956049
0.000518196
-0.00118642
0.000630064
-0.00143524
0.00074929
-0.00169728
0.000872732
-0.00196632
0.000996922
-0.00223587
0.00111846
-0.0024997
0.00123432
-0.00275301
0.00134245
-0.00299121
-0.00321398
0.00144195
1.47216e-06
1.03396e-05
6.96756e-06
1.04109e-05
1.77146e-05
-1.00128e-05
3.50027e-05
-5.21634e-05
6.01683e-05
-0.000117396
9.45529e-05
-0.000207095
0.000139426
-0.000322545
0.000195872
-0.000464693
0.000264631
-0.000633857
0.000345932
-0.000829399
0.000439309
-0.00104943
0.000543485
-0.00129059
0.000656336
-0.0015481
0.000775001
-0.00181594
0.000896124
-0.00208745
0.00101622
-0.00235596
0.00113208
-0.00261556
0.00124109
-0.00286202
0.00134168
-0.0030918
-0.00330567
0.00143337
1.65506e-06
8.68458e-06
7.72105e-06
4.34492e-06
1.94656e-05
-2.17573e-05
3.82131e-05
-7.09109e-05
6.53212e-05
-0.000144504
0.000102124
-0.000243897
0.000149837
-0.000370258
0.000209425
-0.000524281
0.00028143
-0.000705862
0.00036579
-0.000913759
0.000461678
-0.00114531
0.000567411
-0.00139632
0.000680488
-0.00166117
0.000797758
-0.00193321
0.000915748
-0.00220544
0.00103106
-0.00247127
0.00114078
-0.00272528
0.00124273
-0.00296397
0.00133588
-0.00318494
-0.00338992
0.00142013
1.84983e-06
6.83475e-06
8.51685e-06
-2.32209e-06
2.13029e-05
-3.45434e-05
4.15605e-05
-9.11685e-05
7.06568e-05
-0.0001736
0.000109901
-0.000283142
0.000160432
-0.000420789
0.000223064
-0.000586913
0.000298106
-0.000780904
0.000385176
-0.00100083
0.000483068
-0.0012432
0.000589707
-0.00150296
0.000702248
-0.00177371
0.000817335
-0.0020483
0.000931472
-0.00231957
0.00104145
-0.00258125
0.0011447
-0.00282854
0.00123957
-0.00305884
0.00132548
-0.00327086
-0.00346718
0.00140275
2.05628e-06
4.77846e-06
9.35347e-06
-9.61928e-06
2.3222e-05
-4.84119e-05
4.50336e-05
-0.00011298
7.61521e-05
-0.000204718
0.000117843
-0.000324833
0.000171142
-0.000474088
0.000236683
-0.000652455
0.000314509
-0.000858729
0.000403895
-0.00109022
0.000503248
-0.00134256
0.000610122
-0.00160984
0.00072139
-0.00188498
0.00083357
-0.00216048
0.00094324
-0.00242924
0.00104746
-0.00268546
0.00114409
-0.00292517
0.00123195
-0.0031467
0.00131095
-0.00334986
-0.00353795
0.00138171
2.27411e-06
2.50435e-06
1.0229e-05
-1.75742e-05
2.52168e-05
-6.33996e-05
4.86188e-05
-0.000136382
8.17808e-05
-0.00023788
0.000125904
-0.000368956
0.000181893
-0.000530077
0.000250171
-0.000720732
0.000330485