/*--------------------------------*- C++ -*----------------------------------*\
  =========                 |
  \\      /  F ield         | OpenFOAM: The Open Source CFD Toolbox
   \\    /   O peration     | Website:  https://openfoam.org
    \\  /    A nd           | Version:  7
     \\/     M anipulation  |
\*---------------------------------------------------------------------------*/
FoamFile
{
    version     2.0;
    format      ascii;
    class       volVectorField;
    location    "60";
    object      U;
}
// * * * * * * * * * * * * * * * * * * * * * * * * * * * * * * * * * * * * * //

dimensions      [0 1 -1 0 0 0 0];

internalField   nonuniform List<vector> 
34000
(
(-0.000227784 -0.000212596 -3.54402e-22)
(-0.00155654 -0.000704708 -1.91712e-21)
(-0.00432612 -0.00126666 2.35247e-22)
(-0.00803826 -0.0018764 -4.10539e-22)
(-0.0125063 -0.00251667 6.31115e-22)
(-0.0175578 -0.00317301 -4.65876e-21)
(-0.0230302 -0.00383405 8.02244e-22)
(-0.0287859 -0.00449205 -3.17193e-21)
(-0.0347085 -0.00514299 -6.83942e-21)
(-0.0407026 -0.0057863 5.86356e-21)
(-0.0466927 -0.00642437 1.74831e-21)
(-0.0526226 -0.00706186 -2.10449e-21)
(-0.0584545 -0.00770506 2.59134e-21)
(-0.0641674 -0.00836109 3.55602e-21)
(-0.0697566 -0.00903743 -2.25167e-21)
(-0.0752306 -0.00974142 -3.05029e-21)
(-0.0806101 -0.0104801 -7.3356e-21)
(-0.0859255 -0.0112602 -5.70003e-22)
(-0.0912103 -0.0120878 -1.25333e-21)
(-0.0964976 -0.0129689 -2.45053e-21)
(-0.00023859 0.000257059 -1.7342e-21)
(-0.00158646 0.00053258 1.45434e-21)
(-0.00437562 0.000591 -1.72419e-21)
(-0.00810624 0.000474563 -3.88282e-21)
(-0.0125913 0.000214466 3.18503e-21)
(-0.0176583 -0.000161108 1.9421e-20)
(-0.0231445 -0.000627309 -1.19998e-20)
(-0.0289121 -0.00116346 2.0451e-21)
(-0.034845 -0.00175303 9.85257e-21)
(-0.0408475 -0.00238347 -2.73134e-24)
(-0.0468444 -0.00304569 5.88509e-21)
(-0.0527797 -0.00373356 -7.8188e-21)
(-0.0586156 -0.00444319 8.2174e-21)
(-0.0643319 -0.0051724 -7.09131e-21)
(-0.0699238 -0.00592028 -2.76612e-21)
(-0.0754008 -0.00668704 1.39661e-20)
(-0.080784 -0.00747394 -4.39789e-21)
(-0.0861047 -0.00828352 6.81748e-22)
(-0.091397 -0.00912037 -8.29844e-21)
(-0.0966934 -0.00998863 -8.88976e-22)
(-0.000267271 0.000727416 -1.34401e-20)
(-0.0016611 0.0017716 1.74977e-21)
(-0.0044874 0.00245108 2.71016e-21)
(-0.00824679 0.00282835 1.19305e-20)
(-0.0127529 0.00294861 -1.39368e-20)
(-0.0178336 0.00285379 -2.1786e-20)
(-0.0233267 0.00258228 1.99035e-20)
(-0.0290951 0.00216775 -5.46594e-21)
(-0.0350228 0.00163926 -2.75325e-21)
(-0.0410148 0.00102142 -1.39766e-20)
(-0.0469961 0.000334799 3.83358e-21)
(-0.052911 -0.000403573 1.37875e-20)
(-0.0587223 -0.00117961 -2.82946e-21)
(-0.0644102 -0.00198172 1.13844e-20)
(-0.0699705 -0.00280057 -9.42796e-21)
(-0.0754136 -0.00362908 -2.86569e-21)
(-0.0807614 -0.00446266 2.25263e-20)
(-0.0860466 -0.00529972 -1.40425e-21)
(-0.0913039 -0.00614338 3.54857e-20)
(-0.0965625 -0.00699571 -8.36983e-21)
(-0.000313787 0.00119654 2.19923e-20)
(-0.00178033 0.00300744 -9.89856e-21)
(-0.00466124 0.00430648 -6.92546e-21)
(-0.00845959 0.00517625 -5.28731e-21)
(-0.0129904 0.00567584 9.80406e-21)
(-0.018083 0.00586092 -1.85366e-21)
(-0.0235762 0.00578332 -3.32944e-20)
(-0.0293339 0.00548972 -3.54165e-21)
(-0.0352411 0.00502168 -7.36702e-21)
(-0.0412033 0.00441587 -1.18325e-21)
(-0.0471462 0.00370435 -1.29513e-20)
(-0.0530149 0.00291507 1.47118e-20)
(-0.0587726 0.00207239 -2.18481e-20)
(-0.0644001 0.0011974 -6.69652e-22)
(-0.0698943 0.00030798 5.99649e-21)
(-0.0752662 -0.000581385 -4.66226e-20)
(-0.0805391 -0.00146011 -3.76784e-20)
(-0.0857476 -0.0023224 2.04754e-20)
(-0.0909268 -0.00316987 -2.74941e-20)
(-0.0961002 -0.00400229 6.79056e-22)
(-0.000377976 0.00166251 -2.95427e-21)
(-0.00194377 0.0042353 3.91575e-20)
(-0.0048966 0.00615026 1.84542e-20)
(-0.00874398 0.00750969 -1.20633e-21)
(-0.0133032 0.0083864 4.98748e-21)
(-0.0184057 0.00884962 7.55382e-22)
(-0.023892 0.00896454 1.70576e-20)
(-0.0296275 0.00879069 2.02617e-20)
(-0.0354984 0.00838212 8.63493e-21)
(-0.0414115 0.00778746 3.06337e-20)
(-0.0472934 0.00705025 -3.53951e-20)
(-0.0530897 0.00620939 -7.48303e-21)
(-0.0587646 0.00529955 1.58038e-20)
(-0.0642995 0.00435141 -2.75978e-20)
(-0.0696923 0.00339158 1.26307e-20)
(-0.0749554 0.00244212 2.93234e-20)
(-0.0801133 0.00151983 7.04469e-21)
(-0.0852033 0.000634821 1.01539e-20)
(-0.0902609 -0.000212928 -1.62614e-20)
(-0.0953013 -0.0010205 1.7745e-21)
(-0.000459567 0.00212345 -1.44012e-20)
(-0.00215076 0.0054504 9.27769e-21)
(-0.00519257 0.00797544 -1.50735e-20)
(-0.00909888 0.00982008 4.41657e-21)
(-0.0136901 0.0110705 1.23663e-20)
(-0.0188003 0.0118093 5.64593e-21)
(-0.0242726 0.0121147 1.0732e-20)
(-0.0299743 0.0120589 -7.53931e-21)
(-0.0357934 0.0117085 -4.67756e-20)
(-0.041638 0.0111238 -4.19905e-20)
(-0.0474357 0.0103598 -2.73735e-20)
(-0.0531334 0.00946642 1.03862e-20)
(-0.0586958 0.0084886 -5.94301e-21)
(-0.0641056 0.00746675 4.54302e-20)
(-0.0693616 0.0064364 -1.63919e-20)
(-0.0744775 0.00542747 1.34183e-20)
(-0.0794799 0.00446321 1.95459e-20)
(-0.0844089 0.00355824 -1.10071e-20)
(-0.0893007 0.00271434 9.63546e-20)
(-0.0941595 0.00193767 -3.58438e-20)
(-0.00055818 0.00257753 1.74803e-20)
(-0.00240039 0.00664807 -2.21521e-20)
(-0.00554795 0.00977527 -3.41135e-20)
(-0.0095229 0.0120991 -9.02132e-21)
(-0.0141496 0.0137186 3.99243e-21)
(-0.0192654 0.0147294 6.18568e-21)
(-0.0247165 0.0152226 2.07597e-20)
(-0.0303727 0.0152829 4.62607e-21)
(-0.0361241 0.0149888 1.51642e-21)
(-0.0418806 0.0144126 7.54228e-20)
(-0.0475711 0.0136205 5.68499e-20)
(-0.0531436 0.0126733 -3.41838e-20)
(-0.0585639 0.0116263 -5.04744e-21)
(-0.0638155 0.0105299 -1.36608e-20)
(-0.0688987 0.00942863 1.3541e-20)
(-0.0738286 0.00836061 -7.18547e-20)
(-0.0786338 0.00735596 -1.50809e-20)
(-0.0833585 0.00643407 -2.26289e-20)
(-0.0880397 0.00559876 -5.48284e-20)
(-0.0926676 0.0048603 2.96285e-20)
(-0.000673331 0.00302296 2.92456e-21)
(-0.00269152 0.0078238 -1.08336e-20)
(-0.0059612 0.0115431 3.08164e-20)
(-0.0100143 0.0143384 -1.9038e-20)
(-0.0146797 0.0163213 -1.06927e-20)
(-0.0197988 0.0175997 1.71459e-20)
(-0.0252215 0.0182773 -2.90482e-20)
(-0.0308205 0.0184511 -3.96358e-21)
(-0.0364885 0.0182113 5.54722e-20)
(-0.0421371 0.0176418 -3.55827e-20)
(-0.0476972 0.0168199 -1.46868e-20)
(-0.0531177 0.0158173 1.73685e-20)
(-0.0583657 0.0146997 -4.58762e-21)
(-0.0634258 0.0135274 -2.38995e-21)
(-0.0682994 0.0123544 1.97981e-20)
(-0.0730037 0.0112275 -5.28083e-20)
(-0.0775695 0.0101839 1.84113e-20)
(-0.0820457 0.00924842 -1.40448e-20)
(-0.0864703 0.00842714 -3.16072e-20)
(-0.0908168 0.00773554 1.12812e-20)
(-0.000804439 0.00345806 -8.20218e-21)
(-0.00302277 0.00897326 5.96038e-20)
(-0.00643045 0.0132727 -1.32608e-20)
(-0.0105708 0.0165302 8.17871e-21)
(-0.0152781 0.0188694 5.94914e-20)
(-0.0203982 0.0204102 -4.04254e-20)
(-0.0257852 0.0212683 -1.99842e-20)
(-0.0313153 0.0215524 -3.48948e-20)
(-0.0368838 0.0213644 -3.83339e-20)
(-0.0424049 0.0207994 -2.54117e-20)
(-0.047811 0.0199458 -3.44976e-20)
(-0.0530526 0.0188858 6.29024e-20)
(-0.0580978 0.0176957 -6.96193e-21)
(-0.0629324 0.0164458 -1.47894e-20)
(-0.0675593 0.0152 -7.74636e-20)
(-0.0719973 0.0140139 4.35361e-20)
(-0.0762802 0.0129329 1.07989e-20)
(-0.0804623 0.0119873 2.73551e-20)
(-0.0845832 0.0111862 1.86011e-20)
(-0.0885967 0.0105517 -4.94402e-20)
(-0.000950838 0.00388124 -2.55972e-20)
(-0.00339255 0.0100923 3.4883e-20)
(-0.00695359 0.0149578 1.97454e-20)
(-0.0111901 0.0186669 9.02596e-21)
(-0.0159421 0.0213542 7.65607e-21)
(-0.0210608 0.0231511 -2.71982e-20)
(-0.0264048 0.024185 5.90713e-20)
(-0.031854 0.0245759 3.31633e-21)
(-0.0373071 0.0244368 5.5176e-20)
(-0.0426807 0.0238739 -3.23433e-20)
(-0.0479092 0.0229862 5.2178e-20)
(-0.0529445 0.0218666 -5.19084e-20)
(-0.0577561 0.0206016 -4.68865e-20)
(-0.0623307 0.0192721 4.01985e-20)
(-0.0666727 0.0179517 1.43054e-19)
(-0.0708029 0.0167058 -7.9275e-20)
(-0.0747582 0.0155886 6.53643e-20)
(-0.0785992 0.0146366 1.51436e-20)
(-0.0823678 0.0138627 -5.69641e-20)
(-0.0859951 0.0132973 4.74e-20)
(-0.00111178 0.00429104 4.65828e-20)
(-0.00379905 0.0111772 -2.67062e-20)
(-0.00752817 0.0165928 9.24462e-21)
(-0.0118693 0.0207411 3.47067e-20)
(-0.0166688 0.0237671 -3.20861e-20)
(-0.0217834 0.0258132 6.33638e-20)
(-0.0270768 0.0270174 -1.15349e-20)
(-0.0324332 0.0275109 1.45918e-21)
(-0.0377547 0.0274175 -7.6279e-20)
(-0.0429607 0.0268538 4.84328e-20)
(-0.0479878 0.0259295 1.12648e-20)
(-0.0527893 0.0247475 -1.49294e-20)
(-0.0573358 0.023405 1.87348e-20)
(-0.0616152 0.0219931 -7.4344e-20)
(-0.0656332 0.0205959 -4.15445e-20)
(-0.0694128 0.0192892 8.79644e-20)
(-0.0729941 0.0181366 -4.93515e-20)
(-0.0764452 0.0171821 -7.07847e-20)
(-0.0798112 0.0164432 1.31764e-19)
(-0.0829969 0.015961 -1.42685e-22)
(-0.00128645 0.00468611 3.91738e-20)
(-0.00424032 0.0122243 -4.94157e-20)
(-0.00815152 0.0181722 -5.19264e-20)
(-0.0126053 0.022746 -2.49063e-20)
(-0.0174546 0.0261003 -3.62841e-20)
(-0.0225623 0.0283873 -2.05953e-20)
(-0.0277975 0.0297559 -8.7695e-20)
(-0.0330489 0.0303474 1.08001e-20)
(-0.0382225 0.030296 -3.76301e-20)
(-0.0432406 0.0297284 1.32297e-19)
(-0.0480419 0.0287643 -7.72371e-20)
(-0.0525815 0.027517 4.75538e-20)
(-0.056831 0.0260938 -1.46166e-20)
(-0.0607791 0.0245962 8.08735e-20)
(-0.064433 0.0231194 6.69687e-21)
(-0.0678177 0.0217501 -7.00126e-20)
(-0.0709769 0.0205627 -1.26531e-20)
(-0.0739872 0.0196096 3.03913e-21)
(-0.0768978 0.0189144 -5.35201e-21)
(-0.079584 0.0185317 8.87909e-20)
(-0.00147399 0.00506522 -4.87133e-20)
(-0.00471423 0.0132302 -4.73971e-20)
(-0.00882072 0.019691 1.97896e-20)
(-0.0133946 0.0246751 4.97431e-20)
(-0.0182957 0.0283459 -3.64949e-21)
(-0.0233934 0.0308651 -3.46416e-20)
(-0.0285624 0.0323913 7.72998e-20)
(-0.0336965 0.0330756 -8.77461e-21)
(-0.0387056 0.033062 9.49467e-20)
(-0.0435151 0.032487 -1.06015e-19)
(-0.048066 0.0314799 2.8052e-20)
(-0.052315 0.0301639 3.34426e-20)
(-0.0562347 0.0286563 -1.00346e-21)
(-0.0598146 0.0270692 -5.7544e-22)
(-0.0630628 0.0255092 -6.4475e-20)
(-0.0660067 0.0240748 8.74028e-21)
(-0.0686934 0.0228526 8.70004e-20)
(-0.0712093 0.0219047 1.1239e-19)
(-0.0736093 0.0212628 -1.33792e-19)
(-0.0757348 0.0209987 -8.52198e-20)
(-0.00167346 0.0054273 2.05084e-20)
(-0.0052185 0.0141922 3.15737e-20)
(-0.00953261 0.0211447 3.88471e-20)
(-0.0142334 0.0265225 -6.58339e-20)
(-0.0191879 0.0304969 6.95307e-20)
(-0.0242721 0.0332384 6.65446e-20)
(-0.0293667 0.0349147 -2.60615e-20)
(-0.0343707 0.0356861 1.14897e-19)
(-0.0391981 0.0357058 -1.16866e-19)
(-0.0437778 0.0351196 5.20766e-20)
(-0.0480531 0.0340661 5.31871e-20)
(-0.0519822 0.0326776 -4.10888e-21)
(-0.0555385 0.0310815 7.31832e-22)
(-0.058712 0.0294005 7.0372e-21)
(-0.0615117 0.0277529 -5.06182e-20)
(-0.0639667 0.0262501 5.0313e-20)
(-0.0661281 0.0249922 -2.59611e-20)
(-0.068093 0.0240533 -5.85345e-20)
(-0.0699238 0.023475 7.59432e-20)
(-0.0714233 0.0233514 1.58091e-20)
(-0.00188391 0.00577142 -1.18002e-20)
(-0.00575076 0.0151074 1.48679e-20)
(-0.0102838 0.0225291 -3.24819e-20)
(-0.0151176 0.0282827 -4.87964e-20)
(-0.0201265 0.0325467 -5.04572e-20)
(-0.0251931 0.0354997 -4.57058e-20)
(-0.0302046 0.0373178 7.49043e-20)
(-0.0350652 0.0381701 -3.79232e-20)
(-0.0396934 0.0382183 3.04521e-20)
(-0.0440215 0.0376168 3.4695e-21)
(-0.0479953 0.036513 -8.38523e-21)
(-0.0515742 0.0350481 2.10368e-20)
(-0.0547324 0.033359 -4.09995e-20)
(-0.0574599 0.0315791 2.14576e-20)
(-0.0597663 0.0298388 6.97283e-20)
(-0.0616822 0.0282632 -1.02299e-19)
(-0.0632624 0.0269678 -6.56221e-20)
(-0.064616 0.0260413 8.65283e-20)
(-0.0658153 0.0255376 -5.07916e-20)
(-0.0666182 0.0255796 -7.83616e-20)
(-0.00210437 0.00609679 4.3864e-20)
(-0.00630852 0.0159736 -4.51337e-20)
(-0.0110708 0.0238404 3.66051e-20)
(-0.0160429 0.0299505 5.9147e-20)
(-0.0211064 0.0344891 -1.09878e-20)
(-0.0261508 0.0376419 -3.94082e-20)
(-0.0310697 0.039593 -7.35475e-20)
(-0.035773 0.0405193 -5.61702e-20)
(-0.0401837 0.0405908 -1.13764e-19)
(-0.0442376 0.0399698 1.16864e-20)
(-0.0478828 0.0388117 -1.02835e-20)
(-0.0510802 0.0372663 -8.1494e-20)
(-0.0538041 0.0354794 7.09503e-20)
(-0.0560445 0.0335951 8.71022e-20)
(-0.0578107 0.031756 -4.43114e-21)
(-0.0591345 0.0301021 5.35955e-20)
(-0.0600743 0.0287666 -2.72202e-20)
(-0.060752 0.0278549 4.41612e-21)
(-0.0612531 0.0274375 7.70637e-20)
(-0.0612823 0.0276738 1.83435e-19)
(-0.00233384 0.00640275 -1.89397e-20)
(-0.00688922 0.0167889 -1.3514e-20)
(-0.0118899 0.0250753 3.78224e-20)
(-0.0170045 0.0315215 -5.30864e-20)
(-0.022122 0.0363185 -1.39043e-20)
(-0.0271388 0.0396585 8.26014e-20)
(-0.031955 0.0417329 -1.96483e-20)
(-0.0364861 0.0427261 -5.69549e-20)
(-0.04066 0.0428153 9.26219e-20)
(-0.0444159 0.0421704 -2.48515e-20)
(-0.0477044 0.0409541 1.82233e-20)
(-0.0504874 0.0393238 9.96251e-20)
(-0.0527393 0.0374343 -1.38684e-19)
(-0.0544493 0.0354395 -3.79905e-20)
(-0.0556259 0.0334948 -7.51184e-20)
(-0.0563015 0.0317562 1.52759e-19)
(-0.0565376 0.0303762 4.80193e-21)
(-0.05647 0.0294809 8.46538e-20)
(-0.0562009 0.0291618 -3.05666e-20)
(-0.0553713 0.0296245 -1.73919e-19)
(-0.00257131 0.0066888 -4.43514e-20)
(-0.00749023 0.0175514 6.45611e-20)
(-0.0127371 0.0262309 8.40452e-22)
(-0.0179975 0.0329916 -6.88476e-22)
(-0.0231675 0.0380296 6.80328e-20)
(-0.0281501 0.0415434 4.91269e-20)
(-0.0328523 0.0437308 -1.93824e-21)
(-0.0371954 0.0447832 1.47882e-19)
(-0.0411118 0.0448845 5.68053e-20)
(-0.0445445 0.0442111 -1.04685e-19)
(-0.0474464 0.0429326 4.89338e-21)
(-0.0497804 0.0412135 -3.45711e-21)
(-0.0515204 0.0392164 1.47143e-19)
(-0.0526543 0.037105 -1.65006e-19)
(-0.0531892 0.0350473 4.55474e-20)
(-0.053157 0.0332161 1.79871e-21)
(-0.0526215 0.0317858 -1.17115e-19)
(-0.0517334 0.0309073 -1.21796e-19)
(-0.0506164 0.0306979 -1.46382e-20)
(-0.0488325 0.0314229 1.76799e-19)
(-0.00281581 0.00695456 1.45039e-20)
(-0.00810887 0.0182599 -4.59665e-20)
(-0.0136084 0.0273047 4.46978e-20)
(-0.0190165 0.0343572 -6.70659e-20)
(-0.0242361 0.039618 8.36198e-20)
(-0.029177 0.0432912 -1.40192e-19)
(-0.0337527 0.0455807 -3.47716e-20)
(-0.0378903 0.046684 -7.72872e-20)
(-0.0415271 0.0467914 -3.65229e-20)
(-0.0446097 0.0460852 6.52996e-20)
(-0.0470932 0.0447409 1.33599e-19)
(-0.0489412 0.0429292 -1.50055e-19)
(-0.0501269 0.0408198 -5.61424e-20)
(-0.0506361 0.0385858 2.04331e-19)
(-0.0504735 0.0364073 -7.43603e-20)
(-0.0496697 0.0344746 -1.07184e-19)
(-0.0482896 0.0329867 1.36143e-19)
(-0.0464991 0.0321234 2.87004e-20)
(-0.0444505 0.0320344 2.75369e-20)
(-0.0416036 0.0330605 -1.1398e-19)
(-0.00306632 0.00719976 5.72574e-21)
(-0.00874243 0.0189133 -2.40621e-20)
(-0.0144996 0.0282946 7.86879e-20)
(-0.0200561 0.035615 -1.0202e-19)
(-0.0253211 0.0410794 -8.41772e-20)
(-0.030211 0.0448968 5.32128e-20)
(-0.0346461 0.0472768 1.48528e-19)
(-0.0385591 0.0484226 -9.39465e-20)
(-0.0418922 0.0485301 2.2799e-20)
(-0.0445955 0.0477868 -4.53276e-20)
(-0.0466262 0.0463734 -1.8324e-19)
(-0.0479485 0.044466 1.11069e-19)
(-0.0485342 0.0422405 8.99722e-20)
(-0.0483665 0.039878 -1.59493e-19)
(-0.0474466 0.0375708 3.73216e-20)
(-0.0458025 0.035527 1.49364e-19)
(-0.0434988 0.0339724 5.88456e-20)
(-0.0407167 0.033121 2.06839e-20)
(-0.0376469 0.0331615 -1.21286e-19)
(-0.033612 0.0345323 -5.89376e-20)
(-0.00332189 0.00742428 -3.9256e-20)
(-0.00938816 0.0195107 -7.25716e-20)
(-0.0154064 0.0291989 -4.17117e-20)
(-0.0211101 0.0367625 5.53369e-20)
(-0.0264147 0.0424101 -3.25071e-21)
(-0.0312429 0.0463557 1.24861e-19)
(-0.0355213 0.048814 -1.16497e-20)
(-0.0391885 0.0499936 1.38723e-20)
(-0.0421912 0.050095 9.0125e-20)
(-0.0444833 0.0493107 1.14117e-19)
(-0.0460238 0.0478256 -5.42385e-21)
(-0.0467771 0.0458203 -2.52967e-20)
(-0.0467134 0.0434757 -1.48498e-19)
(-0.0458123 0.0409801 1.11457e-19)
(-0.0440704 0.0385368 -9.94199e-21)
(-0.0415117 0.0363719 -6.685e-20)
(-0.0381987 0.03474 -3.35138e-19)
(-0.0343266 0.0338942 1.1892e-19)
(-0.0301389 0.0340704 6.27909e-21)
(-0.0247808 0.0358495 -7.2922e-20)
(-0.00358157 0.00762807 3.64484e-20)
(-0.0100433 0.0200516 9.49769e-20)
(-0.0163241 0.0300162 -7.25095e-20)
(-0.0221723 0.0377972 -3.52538e-20)
(-0.0275088 0.0436069 2.93748e-20)
(-0.0322624 0.047664 -7.10537e-20)
(-0.0363659 0.0501879 -1.32362e-19)
(-0.0397633 0.0513919 7.84602e-20)
(-0.0424063 0.0514814 -8.87657e-21)
(-0.044252 0.0506527 -1.80602e-19)
(-0.0452612 0.0490943 3.45836e-20)
(-0.0453981 0.04699 1.95997e-20)
(-0.0446307 0.0445249 -3.41217e-20)
(-0.0429344 0.041893 9.01443e-20)
(-0.0403 0.0393074 1.75809e-19)
(-0.0367458 0.0370116 -1.14572e-19)
(-0.0323302 0.0352904 9.29672e-20)
(-0.0272592 0.0344401 2.27807e-20)
(-0.0218368 0.0347482 1.30321e-19)
(-0.015043 0.0370376 5.80033e-20)
(-0.00384442 0.00781119 -4.00147e-20)
(-0.010705 0.0205356 -4.42186e-21)
(-0.0172483 0.0307453 1.02906e-19)
(-0.0232362 0.0387172 1.02408e-19)
(-0.0285947 0.0446671 -2.10747e-20)
(-0.0332584 0.0488179 -1.32648e-20)
(-0.037166 0.0513941 1.33504e-19)
(-0.0402669 0.0526134 -1.03757e-19)
(-0.0425173 0.0526851 3.17865e-20)
(-0.0438774 0.0518092 1.31464e-19)
(-0.0443097 0.0501768 1.26203e-19)
(-0.0437776 0.0479743 4.93981e-20)
(-0.0422467 0.0453894 2.15709e-19)
(-0.0396871 0.0426203 -2.96392e-20)
(-0.0360828 0.0398884 -2.28712e-19)
(-0.0314447 0.0374532 1.12559e-19)
(-0.0258257 0.0356306 -6.02632e-20)
(-0.0194424 0.0347648 -1.40136e-19)
(-0.0126332 0.035206 -9.94804e-20)
(-0.00430679 0.0380515 -9.88131e-20)
(-0.00410954 0.00797378 2.57518e-20)
(-0.0113706 0.0209626 5.42882e-20)
(-0.018174 0.0313856 -3.75761e-20)
(-0.0242946 0.0395209 -4.67835e-20)
(-0.0296629 0.045588 -4.89602e-20)
(-0.0342186 0.0498144 -1.31263e-20)
(-0.0379063 0.0524291 -1.38185e-19)
(-0.0406805 0.0536541 7.09655e-20)
(-0.0425014 0.0537026 -6.53471e-20)
(-0.0433322 0.0527774 -1.10647e-19)
(-0.0431365 0.0510719 3.99427e-21)
(-0.041877 0.0487739 -2.81163e-19)
(-0.0395158 0.0460725 -2.18194e-19)
(-0.0360174 0.0431686 6.91692e-20)
(-0.0313576 0.0402895 3.48985e-20)
(-0.0255379 0.0377091 -7.51141e-20)
(-0.0186028 0.0357743 2.9118e-19)
(-0.0107831 0.0348806 -4.57354e-20)
(-0.00244518 0.0354619 1.24454e-19)
(0.00762008 0.0388842 1.10942e-19)
(-0.00437606 0.00811605 -3.53389e-20)
(-0.0120371 0.0213326 -1.17747e-19)
(-0.0190962 0.0319365 3.76868e-20)
(-0.0253402 0.0402069 2.1514e-21)
(-0.0307032 0.0463677 1.59908e-19)
(-0.0351299 0.0506508 -9.56247e-20)
(-0.0385701 0.0532897 5.22777e-20)
(-0.0409832 0.0545108 7.50493e-20)
(-0.0423331 0.0545309 -5.89162e-21)
(-0.0425854 0.0535552 4.62178e-20)
(-0.0417046 0.051779 1.41173e-19)
(-0.039652 0.0493908 2.95029e-19)
(-0.0363859 0.0465797 2.37107e-20)
(-0.0318643 0.0435473 -1.30863e-19)
(-0.0260536 0.0405247 2.37841e-20)
(-0.0189444 0.0377971 2.31661e-19)
(-0.0105695 0.0357407 -1.5716e-19)
(-0.00117041 0.0348047 6.6992e-22)
(0.00884219 0.0355259 1.21149e-19)
(0.0208698 0.0395765 -7.38555e-20)
(-0.00464313 0.00823826 -3.41173e-20)
(-0.0127017 0.0216458 1.39898e-19)
(-0.0200098 0.0323975 -1.06789e-19)
(-0.0263649 0.0407743 -2.18274e-20)
(-0.0317046 0.0470043 -3.69441e-20)
(-0.0359778 0.0513244 -9.63548e-20)
(-0.039139 0.053973 9.58189e-20)
(-0.0411519 0.0551806 -3.14339e-20)
(-0.0419839 0.0551675 -5.65895e-20)
(-0.0416025 0.0541414 9.27681e-20)
(-0.0399723 0.0522988 -1.07253e-19)
(-0.0370528 0.0498283 -3.44803e-20)
(-0.0327978 0.046918 -3.82493e-21)
(-0.0271582 0.0437686 9.20028e-20)
(-0.0200901 0.0406121 -8.32914e-20)
(-0.0115715 0.0377415 -1.57133e-19)
(-0.00162085 0.0355587 -4.82244e-20)
(0.00951494 0.0345674 -6.97305e-20)
(0.0213651 0.0354131 -2.12798e-19)
(0.0355887 0.0401599 -6.33186e-20)
(-0.00490992 0.00834071 4.86418e-20)
(-0.0133614 0.0219024 -6.13634e-20)
(-0.0209092 0.0327686 -7.75998e-20)
(-0.0273605 0.0412222 -7.32317e-20)
(-0.0326554 0.0474964 2.43568e-20)
(-0.0367465 0.0518335 1.34022e-20)
(-0.0395927 0.0544767 3.44163e-20)
(-0.0411613 0.0556612 -8.91001e-20)
(-0.0414225 0.0556106 6.91498e-20)
(-0.0403451 0.0545352 -2.06853e-19)
(-0.0378931 0.0526325 -1.03704e-19)
(-0.0340234 0.0500908 1.88968e-21)
(-0.0286848 0.0470964 9.2124e-20)
(-0.0218204 0.0438474 -6.03319e-20)
(-0.0133754 0.0405741 1.53849e-19)
(-0.00331421 0.0375727 -3.76432e-20)
(0.0083622 0.035266 4.8918e-20)
(0.0214061 0.0342094 1.8475e-19)
(0.0352719 0.0351574 2.44862e-20)
(0.0519468 0.0406703 1.16789e-19)
(-0.0051756 0.00842374 -1.02901e-19)
(-0.0140133 0.0221029 8.3436e-20)
(-0.0217888 0.0330497 9.33745e-20)
(-0.028318 0.04155 -5.46666e-20)
(-0.0335427 0.0478429 9.3356e-20)
(-0.0374189 0.0521763 8.98427e-20)
(-0.0399091 0.054799 -1.62085e-20)
(-0.0409835 0.0559507 -3.09018e-20)
(-0.0406143 0.055859 -8.3866e-20)
(-0.0387707 0.0547366 3.90006e-20)
(-0.0354153 0.0527823 3.76834e-21)
(-0.0305016 0.0501838 -1.02932e-19)
(-0.0239728 0.0471253 7.69029e-20)
(-0.0157633 0.0438011 -6.02506e-20)
(-0.00580714 0.0404367 -1.09191e-19)
(0.00594532 0.0373273 -1.42581e-19)
(0.0195125 0.0349094 3.48912e-20)
(0.0346513 0.0337843 4.85291e-20)
(0.050724 0.0348092 -4.639e-20)
(0.0701302 0.0411562 1.92631e-19)
(-0.00543937 0.00848771 -8.18575e-20)
(-0.0146543 0.0222475 -7.69088e-20)
(-0.0226425 0.033241 6.09371e-20)
(-0.0292277 0.0417575 3.5391e-20)
(-0.034353 0.0480429 1.47518e-20)
(-0.0379766 0.0523516 -2.67225e-20)
(-0.0400642 0.0549382 -1.85528e-20)
(-0.040588 0.0560478 4.28218e-20)
(-0.0395214 0.0559119 -4.03832e-20)
(-0.0368328 0.0547462 3.23871e-19)
(-0.0324824 0.0527509 2.3632e-20)
(-0.0264193 0.0501136 -3.63074e-20)
(-0.01858 0.0470163 -2.38785e-19)
(-0.00889013 0.0436486 4.59229e-20)
(0.00272778 0.0402294 -1.1801e-19)
(0.0163372 0.0370475 7.79019e-20)
(0.0319767 0.0345452 7.14033e-20)
(0.0494127 0.0333597 -2.71315e-19)
(0.067896 0.0344349 -8.42819e-20)
(0.0903357 0.0416831 -2.86827e-19)
(-0.00570042 0.00853296 3.94964e-20)
(-0.0152811 0.0223367 7.99361e-20)
(-0.023464 0.0333427 -1.44292e-19)
(-0.0300795 0.0418445 -1.10625e-19)
(-0.0350714 0.0480958 5.64018e-20)
(-0.0383996 0.0523584 5.2529e-20)
(-0.0400318 0.0548936 -1.09359e-19)
(-0.0399418 0.0559519 -9.89264e-21)
(-0.0381026 0.0557694 5.76726e-21)
(-0.0344807 0.0545654 -9.74902e-20)
(-0.0290328 0.052542 1.42329e-19)
(-0.021702 0.0498875 6.72424e-22)
(-0.0124174 0.046782 1.79558e-19)
(-0.00109542 0.0434104 1.21736e-19)
(0.0123527 0.0399837 2.04255e-20)
(0.0280032 0.0367798 2.56049e-19)
(0.0459138 0.0342376 -2.32058e-19)
(0.0658651 0.0330169 1.07461e-19)
(0.0869731 0.0341188 8.40187e-20)
(0.112765 0.0423366 7.0911e-20)
(-0.00595794 0.00855986 1.92158e-19)
(-0.0158904 0.0223711 -1.35892e-19)
(-0.0242465 0.033355 3.26267e-20)
(-0.0308625 0.041811 1.0757e-19)
(-0.035682 0.0480014 -1.15865e-19)
(-0.0386661 0.0521966 5.62555e-21)
(-0.0397838 0.0546648 8.85202e-20)
(-0.039009 0.055663 1.62401e-19)
(-0.0363131 0.0554324 2.1997e-19)
(-0.0316596 0.0541964 -2.10536e-19)
(-0.0249996 0.0521602 -1.25061e-19)
(-0.0162693 0.0495134 5.93744e-20)
(-0.00538918 0.0464355 -1.70809e-19)
(0.00773418 0.0431076 1.17469e-20)
(0.0232 0.0397324 6.6535e-20)
(0.0410951 0.0365735 5.11021e-20)
(0.0614937 0.0340571 1.564e-19)
(0.0841928 0.0328496 3.26446e-20)
(0.108148 0.0339638 -1.17468e-19)
(0.137616 0.0432257 1.26105e-19)
(-0.00621107 0.00856872 -1.8262e-19)
(-0.0164787 0.0223511 1.35651e-19)
(-0.0249826 0.0332785 3.27476e-20)
(-0.0315646 0.0416572 -1.07187e-19)
(-0.0361675 0.0477599 4.53792e-20)
(-0.0387527 0.0518662 -2.20709e-20)
(-0.0392895 0.0542523 -1.62368e-20)
(-0.0377507 0.0551821 -1.37465e-19)
(-0.0341048 0.0549028 -2.16427e-19)
(-0.0283104 0.0536428 2.02461e-19)
(-0.0203115 0.0516112 -7.28048e-20)
(-0.0100356 0.0490004 2.22157e-21)
(0.00260674 0.045991 4.12874e-20)
(0.0177188 0.042762 8.74878e-20)
(0.0354094 0.0395086 -1.05607e-20)
(0.0557725 0.0364785 -2.45479e-20)
(0.0788939 0.0340778 -1.25929e-19)
(0.104585 0.0329611 -8.41015e-20)
(0.131618 0.0340912 -7.93169e-20)
(0.165073 0.0444856 1.24381e-19)
(-0.00645891 0.00855987 1.4747e-19)
(-0.017042 0.0222771 -3.84609e-20)
(-0.0256646 0.0331134 1.31117e-19)
(-0.0321733 0.0413836 3.17568e-20)
(-0.0365094 0.0473719 -7.02397e-20)
(-0.0386342 0.051368 1.12484e-20)
(-0.0385159 0.0536573 -1.49299e-19)
(-0.0361251 0.0545113 6.77197e-20)
(-0.0314259 0.0541839 3.68515e-20)
(-0.0243698 0.0529092 -1.35626e-20)
(-0.0148922 0.050902 -1.54556e-20)
(-0.00290983 0.0483588 1.82849e-20)
(0.0116776 0.0454634 -8.26756e-20)
(0.0289839 0.0423951 -1.92022e-19)
(0.0491257 0.0393446 9.73635e-20)
(0.0721999 0.036544 -4.8202e-20)
(0.0982958 0.034374 -1.16365e-20)
(0.127232 0.0334604 2.03555e-19)
(0.157578 0.034639 2.11941e-19)
(0.195287 0.0462807 -3.20054e-19)
(-0.00670051 0.00853354 -3.7312e-20)
(-0.0175763 0.0221495 -4.18314e-20)
(-0.0262841 0.0328604 -8.22604e-20)
(-0.0326746 0.0409908 6.07336e-20)
(-0.0366877 0.0468382 1.09488e-19)
(-0.0382831 0.0507037 -1.41904e-19)
(-0.0374275 0.0528823 2.26398e-19)
(-0.0340875 0.053654 -4.4279e-20)
(-0.0282209 0.0532804 6.7298e-21)
(-0.0197708 0.0520025 -1.53241e-19)
(-0.00866122 0.0500416 -1.17146e-20)
(0.00520309 0.0476005 -1.25598e-19)
(0.0219349 0.0448686 1.68353e-19)
(0.0416584 0.0420289 1.10597e-19)
(0.0644962 0.0392711 -2.15659e-19)
(0.0905426 0.0368153 -1.83076e-19)
(0.11988 0.0350164 4.20925e-20)
(0.152318 0.0344558 2.43814e-19)
(0.186221 0.0357602 1.11977e-19)
(0.228361 0.0488061 6.21032e-20)
(-0.00693482 0.00848993 1.22597e-20)
(-0.018077 0.0219686 4.04405e-20)
(-0.0268316 0.0325199 4.91599e-20)
(-0.0330536 0.0404799 -4.06047e-20)
(-0.0366804 0.0461606 1.02342e-19)
(-0.0376701 0.0498757 1.36917e-19)
(-0.0359861 0.0519308 2.34745e-21)
(-0.0315898 0.0526153 -1.76485e-19)
(-0.024431 0.0521992 -1.40746e-19)
(-0.014442 0.0509317 1.46964e-19)
(-0.00153416 0.0490415 -1.96967e-19)
(0.014402 0.04674 -2.20806e-19)
(0.0334928 0.0442246 -2.20877e-20)
(0.0558724 0.0416857 -1.15995e-20)
(0.081667 0.0393173 7.60911e-20)
(0.110962 0.0373331 4.97825e-20)
(0.143822 0.0360678 6.43257e-20)
(0.180012 0.036047 -3.01414e-19)
(0.217735 0.0376173 -8.21115e-20)
(0.264322 0.0522805 2.13442e-19)
(-0.00716066 0.00842918 -7.05051e-20)
(-0.0185393 0.0217347 6.97233e-20)
(-0.0272973 0.0320926 -5.10098e-20)
(-0.033294 0.0398521 -2.55171e-20)
(-0.0364642 0.0453412 -6.90875e-20)
(-0.0367633 0.0488873 -5.23362e-20)
(-0.0341507 0.0508078 -9.35023e-20)
(-0.0285808 0.0514022 1.54334e-19)
(-0.0199936 0.0509497 6.1023e-20)
(-0.00830885 0.0497084 -1.50604e-19)
(0.00657693 0.0479165 2.34811e-19)
(0.0247886 0.045795 1.2008e-19)
(0.0464665 0.043552 -9.09064e-20)
(0.0717547 0.0413892 -1.26816e-19)
(0.10078 0.0395105 -1.61319e-20)
(0.133611 0.0381318 1.298e-19)
(0.170282 0.0375798 -8.58699e-20)
(0.210467 0.0383149 3.28466e-20)
(0.25231 0.0403743 7.31229e-20)
(0.30311 0.0569269 1.76884e-19)
(-0.00737669 0.00835133 -6.97698e-21)
(-0.0189576 0.0214478 -1.72493e-19)
(-0.0276701 0.0315792 4.23253e-20)
(-0.0333781 0.0391089 9.31433e-20)
(-0.0360137 0.0443828 -1.72002e-20)
(-0.0355288 0.0477433 -1.12798e-19)
(-0.0318776 0.0495201 1.2428e-19)
(-0.025006 0.0500238 1.41824e-19)
(-0.0148427 0.0495438 5.41118e-20)
(-0.00129295 0.048348 2.68131e-19)
(0.0157629 0.0466849 -1.24348e-19)
(0.036466 0.044787 5.92613e-20)
(0.0609709 0.0428751 -6.14713e-20)
(0.0894297 0.0411654 1.46762e-19)
(0.121966 0.0398772 -1.29442e-20)
(0.158627 0.0392388 -3.34307e-20)
(0.199402 0.0395895 -5.32994e-20)
(0.243802 0.0413115 8.32838e-20)
(0.29012 0.0442096 -2.08437e-19)
(0.344512 0.0629986 -2.74095e-19)
(-0.0075814 0.00825633 -4.13899e-20)
(-0.0193258 0.0211081 -1.59106e-20)
(-0.0279379 0.0309804 -1.39926e-19)
(-0.0332868 0.0382524 8.56029e-20)
(-0.0353015 0.0432892 -8.74042e-20)
(-0.0339299 0.0464495 -8.86183e-20)
(-0.02912 0.0480762 -7.84872e-21)
(-0.0208078 0.0484919 -1.43225e-19)
(-0.00890899 0.0479968 -2.27197e-19)
(0.00668692 0.0468695 6.21842e-20)
(0.0261165 0.0453699 6.92093e-20)
(0.0495376 0.0437426 8.31554e-20)
(0.0771174 0.0422229 2.11645e-19)
(0.109014 0.0410435 -2.07675e-20)
(0.145344 0.0404435 -4.53894e-20)
(0.186124 0.0406738 -6.10399e-21)
(0.231293 0.0421135 1.13441e-19)
(0.280106 0.0450513 2.00036e-19)
(0.331298 0.049392 -5.56152e-20)
(0.387959 0.0709213 1.95199e-19)
(-0.00777305 0.00814404 1.31358e-19)
(-0.0196372 0.0207154 -2.18627e-20)
(-0.0280875 0.030297 1.24363e-19)
(-0.0329991 0.0372848 -1.27242e-19)
(-0.034298 0.0420649 1.87557e-19)
(-0.0319276 0.0450131 1.56451e-19)
(-0.0258283 0.0464867 -1.28417e-19)
(-0.0159254 0.0468209 -2.38041e-19)
(-0.00212011 0.0463274 3.93339e-19)
(0.0157144 0.0452964 9.70039e-20)
(0.0377319 0.0439995 -7.50127e-20)
(0.0641053 0.0426944 -7.4042e-20)
(0.095012 0.0416304 -3.66353e-20)
(0.130611 0.0410575 -5.73661e-20)
(0.171008 0.0412359 -1.88926e-19)
(0.216187 0.0424457 -5.1026e-20)
(0.266041 0.0451299 4.29799e-21)
(0.319507 0.0494841 -1.37084e-19)
(0.376088 0.056303 6.74984e-20)
(0.432524 0.0810175 -1.42163e-19)
(-0.00794963 0.00801422 -2.10614e-19)
(-0.0198843 0.0202697 1.41347e-19)
(-0.0281044 0.02953 -2.10918e-19)
(-0.0324924 0.0362091 -1.1497e-19)
(-0.0329715 0.0407154 4.2925e-20)
(-0.02948 0.0434429 -1.69861e-19)
(-0.0219501 0.0447644 2.65397e-19)
(-0.0102951 0.0450282 4.07888e-21)
(0.00559882 0.0445584 -1.46204e-19)
(0.025875 0.043657 -1.27625e-19)
(0.0507029 0.0426078 -2.27231e-19)
(0.0802677 0.041681 -2.95271e-21)
(0.114752 0.0411395 8.33956e-21)
(0.154308 0.0412477 -5.16021e-20)
(0.199023 0.0422835 2.28272e-19)
(0.248846 0.0445513 1.40205e-19)
(0.303658 0.0485616 3.47091e-20)
(0.362166 0.0544383 -1.49522e-19)
(0.425254 0.0649499 -8.54983e-21)
(0.479043 0.0911553 -2.40013e-19)
(-0.00810882 0.00786654 7.48232e-20)
(-0.0200586 0.0197707 -1.4287e-19)
(-0.0279727 0.0286806 1.82976e-19)
(-0.0317424 0.0350286 2.56707e-19)
(-0.0312883 0.0392471 -8.34743e-20)
(-0.0265432 0.0417495 1.03916e-20)
(-0.0174304 0.0429245 -2.24733e-19)
(-0.00385072 0.0431344 -5.62625e-20)
(0.0143247 0.0427162 -1.72678e-19)
(0.0372548 0.0419843 2.24346e-19)
(0.0651218 0.0412343 2.06867e-19)
(0.0981178 0.0407481 -3.68228e-20)
(0.136422 0.0407998 -2.7367e-20)
(0.180168 0.041663 -2.30291e-21)
(0.229411 0.0436238 4.12707e-20)
(0.284053 0.0469898 -7.36e-20)
(0.343981 0.0523056 -8.49004e-20)
(0.407858 0.0595824 1.79444e-19)
(0.478983 0.0739264 -5.823e-20)
(0.534247 0.0945125 -1.02712e-21)
(-0.00824796 0.00770056 1.98902e-20)
(-0.0201509 0.0192181 2.8322e-20)
(-0.0276751 0.02775 -9.62524e-20)
(-0.0307228 0.0337473 -2.66002e-19)
(-0.0292121 0.0376676 4.27402e-20)
(-0.0230703 0.0399449 1.29676e-19)
(-0.0122116 0.0409844 5.88181e-20)
(0.00347606 0.0411632 2.51932e-19)