/*--------------------------------*- C++ -*----------------------------------*\
  =========                 |
  \\      /  F ield         | OpenFOAM: The Open Source CFD Toolbox
   \\    /   O peration     | Website:  https://openfoam.org
    \\  /    A nd           | Version:  7
     \\/     M anipulation  |
\*---------------------------------------------------------------------------*/
FoamFile
{
    version     2.0;
    format      ascii;
    class       volScalarField;
    location    "90";
    object      p;
}
// * * * * * * * * * * * * * * * * * * * * * * * * * * * * * * * * * * * * * //

dimensions      [0 2 -2 0 0 0 0];

internalField   nonuniform List<scalar> 
8500
(
-0.507913
-0.511778
-0.51121
-0.505311
-0.493311
-0.474713
-0.449467
-0.418268
-0.382634
-0.344782
-0.307205
-0.272074
-0.240983
-0.214854
-0.194084
-0.178757
-0.168881
-0.164565
-0.166064
-0.173521
-0.186381
-0.202835
-0.219697
-0.233034
-0.239107
-0.23544
-0.221456
-0.19892
-0.171159
-0.142241
-0.115232
-0.0925052
-0.0743733
-0.0616161
-0.0528498
-0.0492839
-0.048427
-0.0537232
-0.0616242
-0.077347
-0.0903295
-0.102707
-0.0999189
-0.0867174
-0.0591032
-0.0203643
-0.495619
-0.498915
-0.497962
-0.491893
-0.479974
-0.461768
-0.437258
-0.407143
-0.372875
-0.336565
-0.30059
-0.267011
-0.237363
-0.212541
-0.192949
-0.178701
-0.169847
-0.166554
-0.169113
-0.177654
-0.191538
-0.208824
-0.226207
-0.239697
-0.245568
-0.241386
-0.226652
-0.203231
-0.174565
-0.144798
-0.117048
-0.0936737
-0.0749912
-0.0617209
-0.0524899
-0.0484311
-0.0470986
-0.0518015
-0.0590857
-0.0740917
-0.0865375
-0.0985739
-0.0960257
-0.0834144
-0.0569512
-0.0195174
-0.482558
-0.485266
-0.483925
-0.477703
-0.46591
-0.448146
-0.424428
-0.395455
-0.362605
-0.327878
-0.293544
-0.261549
-0.233369
-0.209876
-0.191479
-0.178323
-0.170506
-0.16825
-0.171882
-0.181512
-0.196411
-0.214506
-0.232383
-0.24601
-0.251677
-0.246997
-0.231543
-0.207274
-0.177741
-0.147164
-0.118708
-0.0947134
-0.075502
-0.0617358
-0.052054
-0.0475133
-0.0457151
-0.0498341
-0.05651
-0.0708068
-0.082722
-0.0944249
-0.0921162
-0.0800958
-0.0547804
-0.0186617
-0.468799
-0.470895
-0.46917
-0.462796
-0.451162
-0.433899
-0.411017
-0.383236
-0.351844
-0.318734
-0.28607
-0.255683
-0.228992
-0.206843
-0.189655
-0.177603
-0.170838
-0.169636
-0.174355
-0.185077
-0.200978
-0.219858
-0.238205
-0.251954
-0.25742
-0.252262
-0.23612
-0.211041
-0.180684
-0.149339
-0.120211
-0.095626
-0.0759083
-0.0616641
-0.0515458
-0.046535
-0.0442814
-0.0478265
-0.0539035
-0.0674993
-0.0788905
-0.0902674
-0.0881972
-0.0767671
-0.0525946
-0.0177985
-0.454417
-0.455874
-0.453756
-0.447262
-0.435762
-0.419081
-0.397066
-0.370519
-0.340617
-0.309146
-0.278174
-0.249411
-0.224224
-0.203432
-0.187462
-0.176528
-0.170829
-0.170696
-0.176514
-0.188331
-0.205221
-0.224862
-0.243652
-0.257512
-0.262784
-0.257169
-0.240374
-0.214529
-0.183393
-0.151321
-0.121559
-0.0964136
-0.0762131
-0.0615094
-0.0509692
-0.0455006
-0.0428023
-0.0457843
-0.0512725
-0.0641763
-0.0750503
-0.0861086
-0.0842748
-0.0734335
-0.0503973
-0.016929
-0.439496
-0.440284
-0.437759
-0.431152
-0.419867
-0.403666
-0.382626
-0.357341
-0.328948
-0.29913
-0.269862
-0.242733
-0.219058
-0.19963
-0.184888
-0.175082
-0.170464
-0.171418
-0.178348
-0.191258
-0.209123
-0.229498
-0.24871
-0.262671
-0.267756
-0.261711
-0.2443
-0.217733
-0.185864
-0.153111
-0.122754
-0.0970788
-0.0764196
-0.0612752
-0.0503284
-0.0444146
-0.0412827
-0.043713
-0.048623
-0.0608446
-0.0712085
-0.0819557
-0.0803555
-0.0701003
-0.0481921
-0.0160545
-0.424123
-0.424207
-0.421259
-0.414539
-0.403479
-0.387764
-0.367746
-0.343739
-0.316864
-0.288702
-0.261144
-0.23565
-0.21349
-0.19543
-0.181923
-0.173256
-0.169735
-0.171792
-0.179845
-0.193848
-0.21267
-0.233754
-0.253364
-0.267418
-0.272328
-0.265881
-0.247893
-0.220651
-0.188099
-0.154709
-0.123796
-0.0976244
-0.0765311
-0.0609654
-0.0496274
-0.0432814
-0.0397275
-0.041618
-0.0459611
-0.0575108
-0.067372
-0.0778156
-0.0764451
-0.0667725
-0.0459822
-0.0151761
-0.408389
-0.407732
-0.40434
-0.397497
-0.386658
-0.371551
-0.352363
-0.329755
-0.304392
-0.27788
-0.252029
-0.228164
-0.207518
-0.190827
-0.17856
-0.171042
-0.168633
-0.171811
-0.180997
-0.19609
-0.21585
-0.237617
-0.257605
-0.271746
-0.276494
-0.269673
-0.251151
-0.223281
-0.190096
-0.156118
-0.12469
-0.0980536
-0.0765513
-0.0605839
-0.0488704
-0.0421056
-0.0381414
-0.0395045
-0.0432925
-0.0541813
-0.0635474
-0.0736947
-0.0725495
-0.0634547
-0.043771
-0.014295
-0.39239
-0.39095
-0.387084
-0.380097
-0.369471
-0.354992
-0.336589
-0.315447
-0.29156
-0.266683
-0.242527
-0.220281
-0.201141
-0.185818
-0.174795
-0.168437
-0.167157
-0.171472
-0.181801
-0.197977
-0.218657
-0.241079
-0.261424
-0.275648
-0.280249
-0.273085
-0.25407
-0.225624
-0.191856
-0.157338
-0.125437
-0.0983697
-0.0764839
-0.0601346
-0.0480616
-0.0408915
-0.0365292
-0.0373779
-0.0406229
-0.0508622
-0.059741
-0.0695992
-0.068674
-0.0601517
-0.0415617
-0.0134123
-0.376223
-0.373954
-0.369575
-0.362446
-0.35199
-0.338123
-0.320473
-0.300861
-0.2784
-0.25513
-0.232653
-0.212008
-0.194364
-0.180403
-0.170628
-0.165442
-0.165307
-0.170775
-0.182253
-0.199507
-0.221083
-0.244134
-0.264818
-0.279123
-0.283592
-0.276117
-0.256652
-0.227678
-0.193382
-0.158374
-0.126041
-0.0985764
-0.076333
-0.0596217
-0.0472051
-0.0396436
-0.0348956
-0.035243
-0.0379578
-0.0475594
-0.0559588
-0.0655352
-0.064824
-0.0568679
-0.0393575
-0.0125292
-0.356837
-0.351901
-0.344615
-0.334285
-0.32102
-0.30444
-0.285663
-0.264937
-0.243244
-0.22242
-0.203354
-0.187193
-0.174587
-0.166062
-0.162059
-0.163086
-0.169722
-0.182357
-0.200677
-0.223126
-0.24678
-0.267784
-0.282169
-0.286524
-0.278769
-0.258897
-0.229448
-0.194677
-0.159227
-0.126506
-0.0986777
-0.0761024
-0.0590493
-0.0463054
-0.0383664
-0.033245
-0.0331047
-0.0353022
-0.0442786
-0.0522068
-0.0615081
-0.0610043
-0.0536073
-0.0371612
-0.0116468
-0.339696
-0.334154
-0.326615
-0.316425
-0.303735
-0.288152
-0.270287
-0.251213
-0.231049
-0.211847
-0.194333
-0.179636
-0.168378
-0.161106
-0.158296
-0.160502
-0.168321
-0.182114
-0.201489
-0.224787
-0.249016
-0.270323
-0.284788
-0.289045
-0.281042
-0.260808
-0.230935
-0.195742
-0.159903
-0.126835
-0.0986776
-0.0757964
-0.0584216
-0.0453664
-0.037064
-0.0315818
-0.0309677
-0.0326614
-0.041025
-0.0484901
-0.0575233
-0.0572198
-0.0503741
-0.0349759
-0.010766
-0.322626
-0.31643
-0.308602
-0.298485
-0.286332
-0.271663
-0.254766
-0.237259
-0.218575
-0.200951
-0.18496
-0.171707
-0.161788
-0.15577
-0.154166
-0.157565
-0.166579
-0.181532
-0.201947
-0.226067
-0.250845
-0.27244
-0.286984
-0.291161
-0.282942
-0.262388
-0.232143
-0.196584
-0.160404
-0.127033
-0.0985803
-0.0754193
-0.0577427
-0.0443924
-0.0357408
-0.0299105
-0.0288366
-0.0300399
-0.0378038
-0.0448141
-0.0535856
-0.0534748
-0.047172
-0.0328043
-0.00988797
-0.305722
-0.298822
-0.290672
-0.280457
-0.268875
-0.255064
-0.239101
-0.223092
-0.205854
-0.189757
-0.175256
-0.163424
-0.154833
-0.15007
-0.149682
-0.154291
-0.16451
-0.18062
-0.202057
-0.226972
-0.252271
-0.274138
-0.288763
-0.292878
-0.284473
-0.263642
-0.233076
-0.197205
-0.160736
-0.127105
-0.0983904
-0.0749752
-0.0570169
-0.0433875
-0.0344007
-0.0282351
-0.0267156
-0.0274423
-0.0346198
-0.0411835
-0.0496997
-0.0497734
-0.0440045
-0.030649
-0.00901361
-0.289077
-0.281419
-0.27289
-0.262393
-0.251454
-0.23842
-0.223521
-0.208552
-0.192923
-0.178291
-0.165245
-0.154808
-0.147533
-0.144027
-0.144866
-0.150695
-0.162127
-0.179389
-0.201828
-0.227509
-0.253303
-0.275426
-0.290134
-0.294201
-0.285641
-0.264575
-0.233741
-0.197611
-0.160904
-0.127054
-0.0981123
-0.0744686
-0.0562483
-0.0423556
-0.0330479
-0.0265596
-0.0246088
-0.024873
-0.0314773
-0.0376028
-0.0458699
-0.0461196
-0.040875
-0.0285126
-0.00814388
-0.272781
-0.264303
-0.255365
-0.246209
-0.234171
-0.221776
-0.207915
-0.193859
-0.179826
-0.166583
-0.154955
-0.145886
-0.139914
-0.137665
-0.139738
-0.1468
-0.159447
-0.177851
-0.201269
-0.227686
-0.253948
-0.276314
-0.291105
-0.295141
-0.286454
-0.265195
-0.234142
-0.197809
-0.160913
-0.126887
-0.0977506
-0.0739037
-0.0554409
-0.0413007
-0.0316861
-0.0248879
-0.0225202
-0.0223359
-0.0283807
-0.0340762
-0.0421001
-0.042517
-0.0377866
-0.0263976
-0.00727968
-0.256921
-0.247557
-0.238071
-0.228429
-0.216982
-0.205189
-0.192262
-0.179152
-0.166602
-0.154671
-0.144421
-0.136689
-0.132006
-0.131011
-0.134326
-0.142626
-0.156489
-0.176023
-0.200394
-0.227514
-0.254217
-0.276812
-0.291687
-0.295707
-0.286919
-0.265508
-0.234288
-0.197804
-0.160768
-0.126608
-0.0973099
-0.0732849
-0.0545989
-0.0402266
-0.030319
-0.0232235
-0.0204535
-0.0198348
-0.0253339
-0.0306075
-0.038394
-0.0389688
-0.0347421
-0.0243061
-0.00642185
-0.24158
-0.231271
-0.221153
-0.211075
-0.200025
-0.188725
-0.176632
-0.164465
-0.153283
-0.142597
-0.133679
-0.127253
-0.123843
-0.124099
-0.128657
-0.1382
-0.153274
-0.17392
-0.199214
-0.227005
-0.254123
-0.276932
-0.291893
-0.295908
-0.287047
-0.265522
-0.234184
-0.197603
-0.160477
-0.126223
-0.096795
-0.0726164
-0.0537262
-0.0391371
-0.0289503
-0.0215701
-0.018412
-0.0173732
-0.0223405
-0.0272005
-0.0347549
-0.0354783
-0.0317443
-0.0222405
-0.00557124
-0.226836
-0.215531
-0.204722
-0.194269
-0.183372
-0.172459
-0.161112
-0.149824
-0.139912
-0.130411
-0.122775
-0.117619
-0.115462
-0.116962
-0.122764
-0.133548
-0.149823
-0.171558
-0.197745
-0.226173
-0.253678
-0.276689
-0.291734
-0.295758
-0.286847
-0.265246
-0.233839
-0.197213
-0.160045
-0.125737
-0.0962106
-0.0719024
-0.0528266
-0.0380356
-0.0275833
-0.0199309
-0.0163992
-0.0149545
-0.0194038
-0.0238582
-0.0311857
-0.0320483
-0.0287957
-0.0202028
-0.00472861
-0.212761
-0.200418
-0.188863
-0.177994
-0.167094
-0.156467
-0.145778
-0.135284
-0.126537
-0.118165
-0.111755
-0.107831
-0.106907
-0.10964
-0.116681
-0.128698
-0.14616
-0.168958
-0.196001
-0.225031
-0.252897
-0.276095
-0.291225
-0.295266
-0.286329
-0.26469
-0.233262
-0.196642
-0.159479
-0.125156
-0.0955614
-0.071147
-0.0519039
-0.0369257
-0.0262212
-0.0183089
-0.014418
-0.0125815
-0.0165269
-0.0205838
-0.0276894
-0.0286814
-0.0258984
-0.0181948
-0.0038947
-0.19942
-0.186002
-0.173646
-0.16228
-0.151596
-0.14083
-0.130699
-0.12092
-0.113209
-0.105916
-0.100672
-0.0979395
-0.0982212
-0.102172
-0.110442
-0.12368
-0.142307
-0.166136
-0.193999
-0.223594
-0.251794
-0.275166
-0.290383
-0.294446
-0.285504
-0.263863
-0.232461
-0.195897
-0.158785
-0.124484
-0.0948521
-0.0703544
-0.0509618
-0.0358107
-0.0248672
-0.0167072
-0.0124712
-0.0102571
-0.0137127
-0.01738
-0.0242682
-0.0253799
-0.0230545
-0.0162185
-0.00307023
-0.17235
-0.159139
-0.147171
-0.136188
-0.125609
-0.11595
-0.106818
-0.0999867
-0.0937263
-0.0895843
-0.087997
-0.0894542
-0.0946023
-0.104084
-0.118524
-0.138288
-0.163113
-0.191754
-0.221878
-0.250385
-0.273916
-0.289224
-0.293312
-0.284383
-0.262775
-0.231445
-0.194987
-0.157969
-0.123728
-0.0940872
-0.0695285
-0.0500036
-0.0346937
-0.0235242
-0.0151283
-0.0105615
-0.00798379
-0.0109636
-0.0142491
-0.0209245
-0.0221462
-0.020266
-0.0142756
-0.00225585
-0.15952
-0.145414
-0.132773
-0.121343
-0.110912
-0.101605
-0.093061
-0.0869371
-0.0816604
-0.0785515
-0.0780595
-0.0806559
-0.0869743
-0.0976449
-0.11326
-0.134128
-0.159907
-0.189284
-0.219898
-0.248685
-0.27236
-0.287757
-0.291875
-0.282978
-0.261437
-0.230225
-0.193919
-0.15704
-0.122894
-0.0932713
-0.0686731
-0.049033
-0.0335777
-0.0221948
-0.0135749
-0.00869124
-0.00576375
-0.00828185
-0.0111934
-0.0176602
-0.018982
-0.0175344
-0.0123677
-0.00145218
-0.147563
-0.132532
-0.119184
-0.107319
-0.0968393
-0.087738
-0.0797202
-0.0741428
-0.0697856
-0.0676375
-0.0681848
-0.0718779
-0.0793327
-0.0911611
-0.107918
-0.129849
-0.156537
-0.186603
-0.217669
-0.24671
-0.270513
-0.285973
-0.290145
-0.2813
-0.259859
-0.228808
-0.192702
-0.156003
-0.121986
-0.0924089
-0.067792
-0.0480529
-0.0324655
-0.0208817
-0.0120492
-0.00686255
-0.00359904
-0.00566959
-0.00821478
-0.0144768
-0.0158893
-0.0148614
-0.0104963
-0.000659819
-0.136517
-0.120544
-0.106465
-0.0941646
-0.0833843
-0.0744026
-0.0668694
-0.0616957
-0.058171
-0.0569071
-0.0584317
-0.0631721
-0.0717222
-0.0846697
-0.102526
-0.125474
-0.153021
-0.18373
-0.215208
-0.244475
-0.268392
-0.283872
-0.288136
-0.279361
-0.258053
-0.227206
-0.191344
-0.154866
-0.12101
-0.0915044
-0.0668887
-0.0470665
-0.0313599
-0.0195871
-0.0105534
-0.00507741
-0.00149142
-0.00312852
-0.00531491
-0.0113761
-0.0128697
-0.0122481
-0.00866276
0.000120694
-0.126415
-0.10949
-0.0946543
-0.0818627
-0.0706386
-0.0616314
-0.0546053
-0.0496903
-0.0468861
-0.0464255
-0.048859
-0.0545903
-0.0641866
-0.0782065
-0.0971147
-0.121027
-0.149378
-0.180678
-0.21253
-0.241997
-0.266012
-0.281546
-0.28586
-0.277172
-0.25603
-0.225429
-0.189855
-0.153635
-0.119972
-0.0905619
-0.0659666
-0.0460768
-0.0302634
-0.0183132
-0.00908944
-0.00333757
0.000557579
-0.000660193
-0.00249523
-0.00835905
-0.00992441
-0.00969582
-0.0068684
0.000888842
-0.11728
-0.099402
-0.0837767
-0.0704539
-0.0602353
-0.0494916
-0.0429936
-0.0382119
-0.0359993
-0.0362563
-0.039524
-0.0461825
-0.0567683
-0.0718061
-0.0917094
-0.116528
-0.145626
-0.177465
-0.209649
-0.23929
-0.263388
-0.278969
-0.283332
-0.274747
-0.2538
-0.223487
-0.188242
-0.152317
-0.118877
-0.0895856
-0.0650291
-0.0450864
-0.0291783
-0.0170622
-0.00765895
-0.00164456
0.00254664
0.0017341
0.000243029
-0.00542684
-0.00705486
-0.00720552
-0.00511442
0.00164414
-0.109132
-0.0903057
-0.0738576
-0.0598805
-0.0488017
-0.038296
-0.0318551
-0.0273253
-0.0255755
-0.0264602
-0.0304818
-0.0379968
-0.0495075
-0.0655008
-0.0863362
-0.111997
-0.14178
-0.174106
-0.206582
-0.236368
-0.260533
-0.276151
-0.280564
-0.272096
-0.251376
-0.22139
-0.186514
-0.150919
-0.11773
-0.0885796
-0.0640793
-0.044098
-0.0281067
-0.0158357
-0.00626354
2.56745e-07
0.00447469
0.00405327
0.00289886
-0.00258028
-0.00426211
-0.00477808
-0.00340193
0.00238615
-0.0822143
-0.0649123
-0.0502046
-0.0382486
-0.028046
-0.0213983
-0.0170777
-0.0156739
-0.0170935
-0.0217835
-0.0300778
-0.0424418
-0.0593209
-0.0810189
-0.107452
-0.137857
-0.170614
-0.203341
-0.233247
-0.257462
-0.273106
-0.277567
-0.269231
-0.248769
-0.219149
-0.18468
-0.149447
-0.116536
-0.0875475
-0.0631202
-0.0431139
-0.0270508
-0.0146356
-0.00490455
0.00159574
0.00634085
0.00629644
0.00547146
0.000179955
-0.00154713
-0.00241426
-0.00173193
0.00311445
-0.0751034
-0.0569891
-0.0415372
-0.0290214
-0.0185428
-0.0117703
-0.0075075
-0.00634819
-0.0082069
-0.0134758
-0.0224663
-0.0356052
-0.0532939
-0.0757793
-0.102913
-0.133871
-0.167005
-0.199941
-0.22994
-0.254186
-0.269844
-0.274353
-0.266165
-0.245991
-0.216774
-0.182748
-0.147908
-0.115299
-0.086493
-0.0621545
-0.0421363
-0.0260122
-0.0134631
-0.00358315
0.00314093
0.00814446
0.00846295
0.00796024
0.00285339
0.00108924
-0.000114668
-0.000105372
0.00382865
-0.0689486
-0.050171
-0.0340743
-0.0207912
-0.00990243
-0.00295435
0.00134622
0.00235548
0.00015542
-0.00559994
-0.0151988
-0.0290284
-0.0474447
-0.0706371
-0.0983944
-0.129838
-0.163291
-0.196396
-0.226459
-0.250718
-0.266378
-0.270933
-0.262909
-0.243053
-0.214275
-0.180726
-0.146309
-0.114026
-0.0854197
-0.0611849
-0.0411674
-0.0249927
-0.0123198
-0.00230036
0.00463503
0.00988507
0.0105523
0.0103648
0.00543971
0.0036463
0.00212018
0.0014769
0.00452838
-0.06389
-0.0442109
-0.0273611
-0.0135271
-0.00220763
0.00503901
0.00944647
0.0104004
0.00795639
0.00180903
-0.00830653
-0.0227379
-0.0417949
-0.0656098
-0.0939113
-0.12577
-0.159485
-0.192718
-0.222818
-0.247068
-0.262716
-0.267319
-0.259474
-0.239968
-0.211663
-0.178623
-0.144655
-0.11272
-0.0843312
-0.0602141
-0.0402093
-0.023994
-0.0112068
-0.00105711
0.00607735
0.0115624
0.0125642
0.0126848
0.00793869
0.00612342
0.00428984
0.0030141
0.0052133
-0.0598131
-0.0393249
-0.0217118
-0.00729293
0.00455471
0.0121781
0.0167663
0.0177579
0.0151659
0.00872214
-0.00181552
-0.016756
-0.0363628
-0.0607127
-0.0894767
-0.121679
-0.1556
-0.188918
-0.219025
-0.243246
-0.258869
-0.263519
-0.255873
-0.236746
-0.208948
-0.176448
-0.142954
-0.111386
-0.0832313
-0.059245
-0.0392642
-0.0230178
-0.0101255
0.000145757
0.00746731
0.0131761
0.0144984
0.0149203
0.0103502
0.00852006
0.00639397
0.0045055
0.00588308
-0.0566948
-0.0354579
-0.017096
-0.00204455
0.00984859
0.0184337
0.0232887
0.0244061
0.0217605
0.0151163
0.00425314
-0.0111009
-0.0311639
-0.0559586
-0.0851021
-0.117576
-0.151645
-0.185006
-0.21509
-0.23926
-0.254843
-0.259543
-0.252115
-0.233398
-0.20614
-0.174207
-0.14121
-0.110028
-0.0821218
-0.0582787
-0.0383326
-0.0220644
-0.00907613
0.00130813
0.00880492
0.0147267
0.0163552
0.0170714
0.0126746
0.0108359
0.00843229
0.00595041
0.00653738
-0.0325374
-0.0134495
0.00227311
0.0142134
0.02382
0.0290065
0.0303316
0.0277234
0.0209741
0.00988271
-0.00578767
-0.0262112
-0.0513593
-0.0807985
-0.113472
-0.147631
-0.180993
-0.211022
-0.235122
-0.250652
-0.255407
-0.248218
-0.229939
-0.203246
-0.171903
-0.139423
-0.108643
-0.0809994
-0.057312
-0.037412
-0.021132
-0.00805703
0.00243147
0.0100915
0.0162153
0.0181355
0.0191392
0.0149129
0.0130713
0.0104049
0.00734835
0.00717588
-0.0304899
-0.010709
0.005726
0.0185582
0.0283639
0.0339289
0.0355335
0.0330475
0.026285
0.0150611
-0.000828799
-0.0215174
-0.0469278
-0.0765798
-0.109382
-0.143576
-0.176896
-0.20684
-0.23085
-0.246315
-0.251132
-0.244201
-0.226383
-0.200277
-0.169542
-0.137594
-0.107232
-0.0798652
-0.0563456
-0.0365027
-0.0202205
-0.0070682
0.00351598
0.0113275
0.0176425
0.0198396
0.0211241
0.0170659
0.0152269
0.0123124
0.00869911
0.00779832
-0.0293162
-0.00887324
0.00827537
0.0219132
0.0320414
0.0380499
0.0400012
0.0377236
0.0310421
0.0197838
0.00377312
-0.0170836
-0.0426643
-0.0724454
-0.105304
-0.139474
-0.172705
-0.202528
-0.226437
-0.241812
-0.246699
-0.240054
-0.222735
-0.197252
-0.167158
-0.135765
-0.105836
-0.0787559
-0.0554106
-0.03563
-0.0193499
-0.00612544
0.0045497
0.0125033
0.0190025
0.0214629
0.0230218
0.0191285
0.017298
0.0141526
0.0100014
0.0084043
-0.0292923
-0.00818684
0.00968728
0.0240815
0.0347146
0.0412456
0.0436379
0.0416837
0.0352064
0.0240392
0.00803196
-0.0128729
-0.0385101
-0.0683151
-0.101136
-0.1352
-0.168274
-0.197921
-0.221728
-0.236989
-0.241983
-0.235703
-0.218975
-0.194202
-0.164812
-0.134015
-0.104535
-0.0777439
-0.0545682
-0.0348441
-0.0185594
-0.00525995
0.00550864
0.0135994
0.0202835
0.022996
0.024824
0.0210887
0.01927
0.015916
0.011249
0.00899211
-0.030325
-0.00858426
0.00998598
0.0250743
0.0363349
0.0434794
0.0463859
0.0448471
0.0386846
0.0277354
0.0118686
-0.00894267
-0.0344955
-0.0641899
-0.0968514
-0.130706
-0.163544
-0.192964
-0.216664
-0.231849
-0.237016
-0.231177
-0.215109
-0.191093
-0.162433
-0.132244
-0.103224
-0.0767294
-0.0537313
-0.0340717
-0.0177902
-0.00442289
0.00643188
0.0146483
0.0215087
0.0244602
0.0265506
0.0229665
0.0211555
0.0176062
0.0124407
0.00956006
-0.029717
-0.00762674
0.0113299
0.0267667
0.0383887
0.0459477
0.0491129
0.0477496
0.0416865
0.0307725
0.0148944
-0.00594746
-0.0315178
-0.0611858
-0.0937552
-0.127448
-0.160074
-0.189263
-0.212793
-0.22779
-0.232894
-0.227149
-0.211342
-0.187717
-0.159527
-0.129816
-0.101237
-0.0750944
-0.0523629
-0.0328631
-0.016681
-0.00331896
0.00755411
0.0158475
0.0228092
0.0259638
0.0283026
0.0248946
0.0231001
0.0193206
0.013636
0.010122
-0.00262733
0.0165618
0.0322893
0.0439931
0.0515263
0.0546244
0.0530579
0.0466219
0.035158
0.0185753
-0.00307779
-0.0294916
-0.059937
-0.0931039
-0.127117
-0.159752
-0.188688
-0.211911
-0.226043
-0.230333
-0.223822
-0.207442
-0.183547
-0.155417
-0.12602
-0.0978925
-0.0722167
-0.0499084
-0.0307187
-0.0147859
-0.00152744
0.00927583
0.0176072
0.0245691
0.0279185
0.0305529
0.0274475
0.0257444
0.0216103
0.0152257
0.0108396
-0.000170743
0.0187308
0.0342113
0.0457837
0.0532134
0.0562051
0.0545196
0.0479433
0.0363207
0.019586
-0.00216448
-0.0285541
-0.0587812
-0.0914812
-0.124765
-0.156433
-0.184205
-0.205639
-0.219227
-0.222668
-0.21572
-0.199435
-0.176137
-0.148956
-0.120653
-0.093575
-0.0687844
-0.0471625
-0.0284493
-0.0128403
0.000259424
0.0109657
0.0193238
0.0263378
0.0299029
0.0327455
0.0298687
0.0281768
0.0237397
0.0167355
0.0115408
0.00130555
0.0197326
0.0348185
0.0460705
0.0531964
0.0559319
0.0540268
0.0472733
0.0355353
0.0187845
-0.00282856
-0.0288645
-0.0584696
-0.0902641
-0.122394
-0.152723
-0.179067
-0.199204
-0.211501
-0.214121
-0.206879
-0.190875
-0.168351
-0.142253
-0.115128
-0.0891515
-0.0652798
-0.0443708
-0.0261579
-0.0108948
0.00202215
0.0126112
0.0209728
0.0280201
0.0317657
0.0347811
0.0321014
0.0303972
0.0256816
0.0180901
0.0121867
0.00189358
0.0198154
0.0344788
0.0453925
0.0522357
0.0547382
0.0526467
0.0457632
0.0339752
0.0172945
-0.00407413
-0.0296334
-0.0584865
-0.0892499
-0.120113
-0.149018
-0.173883
-0.192645
-0.203654
-0.205458
-0.197931
-0.182227
-0.160498
-0.1355
-0.109564
-0.0846948
-0.0617469
-0.0415578
-0.0238546
-0.00895026
0.00377035
0.0142298
0.0225778
0.0296365
0.0335358
0.0367138
0.034232
0.0325207
0.0275481
0.0193697
0.0128036
0.00146465
0.0188388
0.033046
0.0436264
0.0502227
0.0525482
0.0503506
0.0434419
0.0317304
0.0152643
-0.00570463
-0.0306311
-0.0585865
-0.0881919
-0.117685
-0.145086
-0.168412
-0.185729
-0.195493
-0.196508
-0.188753
-0.173416
-0.152544
-0.128691
-0.103969
-0.0802199
-0.0582042
-0.0387432
-0.0215596
-0.00702583
0.00548496
0.0158027
0.0241206
0.0311722
0.0351998
0.0385248
0.0362377
0.0345196
0.0293179
0.020564
0.0133852
9.68953e-05
0.0168688
0.0305921
0.0408204
0.0471781
0.0493653
0.0471311
0.0402973
0.0287928
0.0126973
-0.00769846
-0.0318125
-0.0586973
-0.0869911
-0.114987
-0.140792
-0.16252
-0.178373
-0.186934
-0.18723
-0.179344
-0.164468
-0.144525
-0.121858
-0.0983675
-0.0757457
-0.0546659
-0.035938
-0.019282
-0.00512944
0.00715804
0.0173217
0.0255933
0.0326199
0.0367496
0.0402022
0.0381023
0.0363729
0.0309697
0.0216568
0.0139239
-0.00206103
0.0140638
0.0272743
0.0371328
0.0432574
0.0453392
0.0431295
0.0364612
0.0252823
0.00970071
-0.00996136
-0.0330958
-0.0587495
-0.0855895
-0.111975
-0.136105
-0.156197
-0.170597
-0.178018
-0.177687
-0.169773
-0.155449
-0.136494
-0.115041
-0.0927892
-0.0712923
-0.0511462
-0.0331527
-0.01703
-0.00326767
0.00878362
0.0187813
0.0269907
0.033975
0.0381802
0.0417401
0.0398192
0.0380733
0.0324969
0.0226422
0.0144167
-0.00485756
0.010585
0.0232602
0.0327404
0.0386422
0.0406526
0.0385269
0.0321094
0.0213659
0.0064277
-0.0123585
-0.0343688
-0.0586559
-0.0839268
-0.108615
-0.131018
-0.149467
-0.162445
-0.16881
-0.167956
-0.160119
-0.146426
-0.128503
-0.108278
-0.0872613
-0.0668792
-0.0476594
-0.030398
-0.0148121
-0.00144742
0.0103555
0.0201758
0.0283075
0.0352329
0.0394873
0.0431335
0.0413827
0.0396156
0.0338956
0.0235173
0.014862
-0.00814083
0.00659494
0.018721
0.0278192
0.0335109
0.0354842
0.0334998
0.0274129
0.0172051
0.00302634
-0.0147601
-0.0355242
-0.0583352
-0.0819494
-0.104883
-0.125536
-0.142359
-0.153978
-0.159386
-0.15812
-0.150459
-0.137465
-0.120604
-0.101607
-0.0818099
-0.0625252
-0.0442191
-0.0276842
-0.0126368
0.0003244
0.0118673
0.0214992
0.0295383
0.0363889
0.0406667
0.0443776
0.042787
0.0409943
0.0351615
0.0242796
0.0152578
-0.0117577
0.00225633
0.0138246
0.0225409
0.0280366
0.0300048
0.0282138
0.0225293
0.0129458
-0.000373272
-0.0170557
-0.0364752
-0.0577272
-0.0796256
-0.100775
-0.119686
-0.134931
-0.145273
-0.149837
-0.148271
-0.140876
-0.128633
-0.112845
-0.0950621
-0.0764597
-0.0582479
-0.0408385
-0.0250216
-0.010512
0.00204105
0.0133133
0.022746
0.030678
0.0374389
0.041715
0.0454681
0.0440268
0.042204
0.0362898
0.0249265
0.0156018
-0.0155702
-0.00228052
0.00872781
0.0170664
0.0223804
0.0243725
0.0228199
0.0175986
0.00871337
-0.00366432
-0.0191609
-0.0371628
-0.0568009
-0.0769544
-0.0963212
-0.113527
-0.127265
-0.136431
-0.140267
-0.138507
-0.131452
-0.11999
-0.105272
-0.0886752
-0.0712333
-0.0540639
-0.0375301
-0.0224198
-0.00844591
0.00369602
0.0146877
0.023911
0.0317221
0.0383788
0.042629
0.0464019
0.0450974
0.0432405
0.0372767
0.0254568
0.0158919
-0.0194505
-0.00688226
0.00357033
0.0115387
0.0166851
0.0187252
0.0174471
0.0127368
0.00460654
-0.00676909
-0.0210225
-0.0375611
-0.0555595
-0.0739685
-0.0915832
-0.107143
-0.119465
-0.127564
-0.130785
-0.128922
-0.122261
-0.111593
-0.0979242
-0.0824745
-0.0661508
-0.0499882
-0.0343054
-0.0198879
-0.00644591
0.00528308
0.0159853
0.0249892
0.032666
0.0392053
0.0434068
0.0471763
0.0459951
0.0441004
0.0381183
0.0258701
0.0161263
-0.0232939
-0.0114358
-0.00152938
0.00607865
0.0110702
0.0131767
0.0121989
0.00803233
0.000694631
-0.00964121
-0.0226199
-0.0376776
-0.0540389
-0.0707312
-0.0866488
-0.100644
-0.11165
-0.118791
-0.121498
-0.119606
-0.113371
-0.103492
-0.0908352
-0.0764838
-0.0612299
-0.0460343
-0.0311752
-0.0174347
-0.00451915
0.0067963
0.017201
0.0259761
0.0335059
0.0399154
0.0440468
0.0477901
0.0467173
0.0447813
0.0388115
0.0261676
0.0163033
-0.0270162
-0.01585
-0.00647572
0.000783494
0.00563101
0.00781593
0.007153
0.00354715
-0.0029806
-0.0122626
-0.0239614
-0.0375473
-0.0523009
-0.0673281
-0.0816225
-0.0941451
-0.103939
-0.110225
-0.112504
-0.110635
-0.10484
-0.0957243
-0.084033
-0.070723
-0.0564855
-0.0422141
-0.0281491
-0.0150679
-0.00267227
0.00823018
0.0183303
0.0268678
0.0342384
0.0405064
0.0445485
0.0482427
0.0472624
0.045282
0.0393536
0.0263518
0.0164212
-0.030552
-0.0200548
-0.0111954
-0.00427267
0.000439245
0.00270834
0.002364
-0.000679584
-0.00639955
-0.0146366
-0.0250747
-0.0372233
-0.0504213
-0.0638545
-0.076613
-0.0877618
-0.0964437
-0.101967
-0.103885
-0.102072
-0.0967113
-0.0883214
-0.0775383
-0.0652075
-0.0519301
-0.0385378
-0.0252358
-0.012795
-0.000911336
0.00957963
0.0193693
0.0276608
0.0348606
0.0409763
0.044912
0.0485346
0.0476304
0.0456023
0.0397425
0.0264267
0.0164787
-0.0338537
-0.0239994
-0.0156355
-0.0090366
-0.0044542
-0.002101
-0.00213269
-0.00462625
-0.00955812
-0.0167793
-0.025998
-0.0367645
-0.048478
-0.0604027
-0.0717205
-0.0815954
-0.0892599
-0.0940963
-0.0957038
-0.0939623
-0.0890153
-0.0813038
-0.071366
-0.0599489
-0.0475733
-0.0350141
-0.0224428
-0.0106222
0.000758136
0.0108401
0.0203145
0.0283522
0.0353701
0.0413237
0.0451384
0.0486673
0.0478227
0.0457432
0.0399766
0.0263982
0.0164742
-0.0368889
-0.0276493
-0.0197604
-0.0134728
-0.00901605
-0.00658361
-0.00631661
-0.00828367
-0.0124614
-0.0187124
-0.0267701
-0.0362268
-0.0465408
-0.057052
-0.0670294
-0.0757267
-0.0824591
-0.0866731
-0.0880048
-0.0863352
-0.0817711
-0.0746835
-0.0655249
-0.0549549
-0.0434226
-0.03165
-0.0197767
-0.00855546
0.00233127
0.0120074
0.0211628
0.0289397
0.0357655
0.0415475
0.0452293
0.0486431
0.0478424
0.0457069
0.040055
0.0262733
0.0164063
-0.0396376
-0.0309837
-0.0235486
-0.0175604
-0.0132271
-0.010724
-0.0101782
-0.0116507
-0.0151189
-0.0204574
-0.0274253
-0.035656
-0.0446646
-0.0538626
-0.0625999
-0.0702123
-0.0760891
-0.0797332
-0.0808118
-0.079205
-0.0749863
-0.0684651
-0.0600189
-0.05023
-0.039483
-0.028451
-0.0172431
-0.00659969
0.00380386
0.0130782
0.0219118
0.0294216
0.0360458
0.0416476
0.0451874
0.0484653
0.0476943
0.0454968
0.0399775
0.0260606
0.0162733
-0.0420899
-0.033992
-0.0269897
-0.0212893
-0.0170789
-0.0145163
-0.0137157
-0.0147312
-0.0175414
-0.022033
-0.0279901
-0.0350852
-0.0428873
-0.0508742
-0.0584699
-0.0650847
-0.0701747
-0.0732926
-0.0741326
-0.0725734
-0.0686596
-0.0626468
-0.0548476
-0.0457756
-0.0357578
-0.0254213
-0.0148463
-0.00475905
0.00517236
0.0140496
0.0225598
0.0297971
0.0362109
0.041624
0.0450159
0.0481383
0.0473848
0.0451178
0.0397454
0.0257697
0.0160733
-0.0442426
-0.0366718
-0.0300816
-0.0246581
-0.0205708
-0.0179616
-0.0169326
-0.0175315
-0.019739
-0.0234534
-0.0284823
-0.0345353
-0.0412309
-0.0481074
-0.0546568
-0.0603562
-0.0647217
-0.0673505
-0.0679613
-0.0664318
-0.0627822
-0.057222
-0.0500072
-0.0415908
-0.0322486
-0.0225638
-0.0125898
-0.00303694
0.00643393
0.0149193
0.0231055
0.0300657
0.0362615
0.0414779
0.0447186
0.047667
0.0469221
0.044576
0.039361
0.0254102
0.0158043
-0.0460985
-0.0390263
-0.032828
-0.0276712
-0.0237081
-0.0210658
-0.0198355
-0.0200597
-0.0217209
-0.0247287
-0.0289127
-0.0340163
-0.0397036
-0.0455683
-0.0511618
-0.0560229
-0.0597211
-0.061894
-0.0622824
-0.0607645
-0.0573404
-0.05218
-0.0454912
-0.037673
-0.0289551
-0.0198802
-0.0104762
-0.00143592
0.00758642
0.015686
0.0235482
0.0302277
0.0361992
0.0412109
0.0442997
0.0470576
0.0463155
0.0438792
0.0388288
0.0249916
0.0154644
-0.0476638
-0.0410627
-0.0352371
-0.0303372
-0.0264997
-0.023838
-0.0224337
-0.0223246
-0.0234952
-0.0258657
-0.029286
-0.0335305
-0.038304
-0.0432501
-0.0479743
-0.0520696
-0.0551539
-0.0569013
-0.0570736
-0.0555508
-0.0523167
-0.047508
-0.0412912
-0.0340175
-0.0258761
-0.017371
-0.0085071
4.22341e-05
0.00862842
0.0163486
0.023888
0.0302842
0.0360263
0.0408255
0.0437639
0.0463168
0.0455754
0.0430366
0.0381554
0.024522
0.0150521
-0.0489476
-0.0427913
-0.0373198
-0.0326677
-0.0289572
-0.0262896
-0.0247377
-0.0243353
-0.0250692
-0.0268691
-0.0296036
-0.0330747
-0.0370242
-0.04114
-0.0450762
-0.0484739
-0.0509946
-0.0523457
-0.0523087
-0.0507667
-0.0476913
-0.0431909
-0.0373971
-0.0306186
-0.0230089
-0.0150358
-0.00668311
0.00139653
0.00955919
0.0169072
0.0241256
0.0302367
0.035746
0.0403251
0.0431161
0.0454527
0.0447127
0.0420595
0.0373502
0.0240073
0.0145676
-0.0499608
-0.0442242
-0.0390892
-0.0346761
-0.031094
-0.0284334
-0.0267592
-0.0261017
-0.0264497
-0.0277422
-0.0298642
-0.0326429
-0.0358526
-0.0392212
-0.0424454
-0.0452097
-0.0472144
-0.0481976
-0.0479595
-0.0463872
-0.0434433
-0.0392128
-0.0337978
-0.0274695
-0.0203502
-0.0128732
-0.0050041
0.00262677
0.0103787
0.0173623
0.0242622
0.0300876
0.0353621
0.0397138
0.0423619
0.0444736
0.0437385
0.0409605
0.0364247
0.0234506
0.0140133
-0.0507158
-0.045375
-0.0405597
-0.0363772
-0.0329249
-0.0302833
-0.0285104
-0.0276336
-0.0276437
-0.0284877
-0.0300659
-0.0322277
-0.0347772
-0.037475
-0.0400583
-0.0422494
-0.0437837
-0.0444269
-0.0439971
-0.0423865
-0.0395513
-0.0355571
-0.0304816
-0.0245625
-0.0178953
-0.0108809
-0.00346907
0.00373353
0.0110876
0.0177152
0.0242998
0.0298396
0.0348792
0.0389967
0.0415071
0.043389
0.0426639
0.0397542
0.0353928
0.0228524
0.0133952
-0.0512258
-0.0462581
-0.0417465
-0.0377867
-0.0344652
-0.0318538
-0.0300043
-0.0289415
-0.0286582
-0.0291087
-0.0302065
-0.0318212
-0.0337825
-0.0358823
-0.0378911
-0.0395658
-0.0406731
-0.0410039
-0.0403933
-0.0387393