/*--------------------------------*- C++ -*----------------------------------*\
  =========                 |
  \\      /  F ield         | OpenFOAM: The Open Source CFD Toolbox
   \\    /   O peration     | Website:  https://openfoam.org
    \\  /    A nd           | Version:  7
     \\/     M anipulation  |
\*---------------------------------------------------------------------------*/
FoamFile
{
    version     2.0;
    format      ascii;
    class       volVectorField;
    location    "25";
    object      U;
}
// * * * * * * * * * * * * * * * * * * * * * * * * * * * * * * * * * * * * * //

dimensions      [0 1 -1 0 0 0 0];

internalField   nonuniform List<vector> 
34000
(
(-0.000251977 0.000255991 -7.764e-22)
(-0.00169506 0.000672429 -4.17645e-21)
(-0.00468378 0.00100714 5.11152e-22)
(-0.00867409 0.00127138 -8.9128e-22)
(-0.0134597 0.00147302 1.36272e-21)
(-0.0188509 0.00161976 -1.00535e-20)
(-0.0246694 0.00171914 1.72932e-21)
(-0.0307645 0.00177838 -6.82125e-21)
(-0.0370095 0.00180438 -1.46901e-20)
(-0.0433 0.0018038 1.25769e-20)
(-0.0495542 0.00178294 3.74579e-21)
(-0.055711 0.00174779 -4.50152e-21)
(-0.0617297 0.00170399 5.53717e-21)
(-0.0675885 0.00165677 7.5888e-21)
(-0.0732834 0.00161088 -4.80157e-21)
(-0.0788262 0.00157048 -6.49411e-21)
(-0.0842424 0.00153902 -1.55988e-20)
(-0.0895697 0.00151904 -1.21051e-21)
(-0.0948494 0.00151158 -2.65827e-21)
(-0.100122 0.00151798 -5.19119e-21)
(-0.000271186 0.000761528 -3.79454e-21)
(-0.00174283 0.00200003 3.17346e-21)
(-0.00474983 0.00299498 -3.73392e-21)
(-0.00875041 0.00377999 -8.40337e-21)
(-0.0135393 0.0043785 6.88418e-21)
(-0.0189275 0.00481346 4.18877e-20)
(-0.0247376 0.0051073 -2.58455e-20)
(-0.0308195 0.00528151 4.39988e-21)
(-0.0370467 0.00535668 2.11565e-20)
(-0.0433155 0.00535254 -7.96139e-24)
(-0.049544 0.00528791 1.25911e-20)
(-0.0556714 0.00518062 -1.67194e-20)
(-0.0616572 0.00504746 1.75431e-20)
(-0.0674797 0.00490406 -1.51331e-20)
(-0.0731348 0.00476463 -5.8932e-21)
(-0.0786346 0.00464164 2.97192e-20)
(-0.0840049 0.00454544 -9.33728e-21)
(-0.0892837 0.00448364 1.45173e-21)
(-0.0945124 0.00445942 -1.75876e-20)
(-0.0997287 0.00447692 -1.87894e-21)
(-0.000309427 0.00126387 -2.93845e-20)
(-0.00183796 0.00331962 3.81769e-21)
(-0.00488141 0.00497127 5.8689e-21)
(-0.00890251 0.00627442 2.58184e-20)
(-0.0136979 0.00726789 -3.01051e-20)
(-0.0190804 0.00798969 -4.69674e-20)
(-0.0248738 0.00847701 4.28401e-20)
(-0.0309292 0.00876545 -1.17337e-20)
(-0.0371211 0.00888921 -5.9065e-21)
(-0.0433464 0.00888102 -2.99353e-20)
(-0.0495237 0.00877212 8.19804e-21)
(-0.0555926 0.00859214 2.94758e-20)
(-0.0615126 0.00836902 -6.05935e-21)
(-0.0672624 0.0081288 2.42722e-20)
(-0.0728381 0.00789521 -2.00699e-20)
(-0.0782519 0.00768912 -6.09932e-21)
(-0.0835302 0.00752787 4.78632e-20)
(-0.0887121 0.00742429 -2.97972e-21)
(-0.0938388 0.00738375 7.52044e-20)
(-0.0989419 0.00741345 -1.76978e-20)
(-0.000366448 0.00176095 4.80738e-20)
(-0.00197987 0.00462597 -2.15473e-20)
(-0.00507779 0.00692843 -1.50136e-20)
(-0.00912961 0.00874537 -1.14231e-20)
(-0.0139349 0.0101306 2.1174e-20)
(-0.0193087 0.011137 -3.99499e-21)
(-0.0250772 0.0118161 -7.16207e-20)
(-0.0310931 0.0122176 -7.5959e-21)
(-0.0372322 0.0123889 -1.57876e-20)
(-0.0433923 0.0123759 -2.50274e-21)
(-0.0494929 0.0122218 -2.77036e-20)
(-0.0554741 0.0119682 3.14257e-20)
(-0.0612957 0.0116541 -4.66015e-20)
(-0.0669364 0.011316 -1.42583e-21)
(-0.0723929 0.0109872 1.27572e-20)
(-0.0776778 0.0106972 -9.90917e-20)
(-0.0828179 0.0104704 -7.99804e-20)
(-0.0878545 0.010325 4.33977e-20)
(-0.0928281 0.010269 -5.82747e-20)
(-0.0977613 0.0103128 1.44633e-21)
(-0.000441875 0.00225073 -6.43534e-21)
(-0.0021677 0.00591397 8.51316e-20)
(-0.0053379 0.00885907 3.99577e-20)
(-0.00943054 0.0111837 -2.60768e-21)
(-0.0142489 0.0129563 1.07671e-20)
(-0.0196114 0.0142439 1.6444e-21)
(-0.0253469 0.0151126 3.66597e-20)
(-0.0313103 0.0156253 4.34698e-20)
(-0.0373792 0.015843 1.84996e-20)
(-0.0434528 0.0158238 6.55675e-20)
(-0.0494513 0.0156234 -7.56286e-20)
(-0.0553157 0.0152949 -1.59824e-20)
(-0.061006 0.0148884 3.3688e-20)
(-0.0665014 0.0144508 -5.87456e-20)
(-0.0717988 0.0140253 2.68418e-20)
(-0.0769115 0.01365 6.23076e-20)
(-0.0818673 0.013357 1.49943e-20)
(-0.0867096 0.01317 2.14811e-20)
(-0.091479 0.0130995 -3.4429e-20)
(-0.0961856 0.0131602 3.72195e-21)
(-0.000535219 0.00273126 -3.14191e-20)
(-0.00240034 0.00717868 2.00764e-20)
(-0.00566028 0.010756 -3.27107e-20)
(-0.00980375 0.0135806 9.51365e-21)
(-0.0146386 0.0157347 2.66441e-20)
(-0.0199871 0.0172996 1.21791e-20)
(-0.0256816 0.0183546 2.3026e-20)
(-0.0315797 0.0189764 -1.61879e-20)
(-0.0375612 0.0192386 -1.00116e-19)
(-0.0435268 0.0192117 -8.97126e-20)
(-0.0493981 0.0189635 -5.83742e-20)
(-0.0551166 0.0185583 2.21501e-20)
(-0.060643 0.0180575 -1.26661e-20)
(-0.0659567 0.0175185 9.66717e-20)
(-0.0710551 0.0169943 -3.48391e-20)
(-0.0759522 0.0165321 2.84752e-20)
(-0.0806769 0.0161719 4.14729e-20)
(-0.085276 0.0159432 -2.33295e-20)
(-0.0897895 0.0158598 2.03789e-19)
(-0.0942128 0.0159413 -7.5702e-20)
(-0.000645882 0.00320071 3.8115e-20)
(-0.00267641 0.0084154 -4.80631e-20)
(-0.00604318 0.0126123 -7.37395e-20)
(-0.0102473 0.0159274 -1.94732e-20)
(-0.015102 0.0184561 8.58681e-21)
(-0.020434 0.020293 1.32691e-20)
(-0.0260796 0.0215309 4.4479e-20)
(-0.0318998 0.0222589 9.86527e-21)
(-0.0377768 0.0225633 3.32911e-21)
(-0.0436133 0.0225268 1.61101e-19)
(-0.0493323 0.0222288 1.21263e-19)
(-0.054876 0.0217449 -7.27979e-20)
(-0.0602057 0.0211474 -1.07501e-20)
(-0.0653013 0.0205044 -2.90499e-20)
(-0.0701607 0.0198789 2.87503e-20)
(-0.0747984 0.0193277 -1.52331e-19)
(-0.079245 0.018899 -3.18806e-20)
(-0.0835511 0.0186289 -4.78789e-20)
(-0.0877571 0.0185345 -1.159e-19)
(-0.0918399 0.0186417 6.25938e-20)
(-0.000773171 0.00365735 6.36381e-21)
(-0.00299429 0.00961969 -2.34236e-20)
(-0.00648453 0.0144215 6.65479e-20)
(-0.010759 0.0182159 -4.1031e-20)
(-0.0156367 0.0211111 -2.29845e-20)
(-0.0209497 0.023214 3.66723e-20)
(-0.0265388 0.0246301 -6.2239e-20)
(-0.0322687 0.0254611 -8.52725e-21)
(-0.0380243 0.0258051 1.1846e-19)
(-0.0437108 0.0257566 -7.59188e-20)
(-0.0492524 0.0254064 -3.12964e-20)
(-0.0545925 0.0248413 3.70195e-20)
(-0.0596929 0.0241443 -9.78159e-21)
(-0.0645339 0.0233941 -5.08379e-21)
(-0.0691137 0.0226643 4.19816e-20)
(-0.073448 0.0220214 -1.11738e-19)
(-0.0775689 0.0215227 3.90456e-20)
(-0.0815317 0.0212111 -2.96906e-20)
(-0.0853776 0.0211083 -6.67268e-20)
(-0.0890623 0.0212476 2.38639e-20)
(-0.000916305 0.00409957 -1.78493e-20)
(-0.00335216 0.0107874 1.28832e-19)
(-0.00698196 0.0161773 -2.86576e-20)
(-0.0113361 0.0204385 1.76056e-20)
(-0.0162401 0.0236905 1.277e-19)
(-0.0215317 0.0260524 -8.66604e-20)
(-0.0270568 0.0276416 -4.27291e-20)
(-0.032684 0.0285716 -7.45195e-20)
(-0.0383017 0.0289521 -8.1784e-20)
(-0.0438172 0.0288889 -5.40801e-20)
(-0.0491566 0.0284838 -7.33165e-20)
(-0.0542643 0.0278344 1.33696e-19)
(-0.0591027 0.0270346 -1.48414e-20)
(-0.0636522 0.0261736 -3.13188e-20)
(-0.0679118 0.0253357 -1.6404e-19)
(-0.0718979 0.0245978 9.21789e-20)
(-0.0756447 0.024027 2.29249e-20)
(-0.079213 0.0236741 5.77534e-20)
(-0.0826456 0.0235659 3.92165e-20)
(-0.0858737 0.0237454 -1.04126e-19)
(-0.00107443 0.00452593 -5.54452e-20)
(-0.00374802 0.0119147 7.52092e-20)
(-0.00753284 0.0178741 4.24731e-20)
(-0.0119757 0.0225877 1.93421e-20)
(-0.0169092 0.0261859 1.62261e-20)
(-0.0221771 0.0287987 -5.81198e-20)
(-0.0276306 0.030555 1.26147e-19)
(-0.033143 0.0315796 7.10191e-21)
(-0.0386061 0.031993 1.17453e-19)
(-0.0439299 0.031912 -6.86976e-20)
(-0.0490423 0.0314488 1.10916e-19)
(-0.0538889 0.0307118 -1.10136e-19)
(-0.0584324 0.0298052 -9.94679e-20)
(-0.0626535 0.028829 8.5131e-20)
(-0.0665516 0.0278785 3.02698e-19)
(-0.0701441 0.0270417 -1.67512e-19)
(-0.0734673 0.0263964 1.38067e-19)
(-0.0765887 0.0260021 3.19063e-20)
(-0.0795536 0.0258923 -1.20044e-19)
(-0.0822653 0.0261217 9.9904e-20)
(-0.00124663 0.00493513 1.00748e-19)
(-0.00417968 0.0129981 -5.7783e-20)
(-0.00813429 0.0195066 1.96755e-20)
(-0.0126746 0.0246569 7.43343e-20)
(-0.0176405 0.0285892 -6.8746e-20)
(-0.0228822 0.031444 1.35281e-19)
(-0.0282569 0.0333607 -2.46515e-20)
(-0.0336423 0.0344747 3.09875e-21)
(-0.0389343 0.034917 -1.62283e-19)
(-0.0440457 0.0348145 1.02966e-19)
(-0.0489064 0.0342898 2.38199e-20)
(-0.0534628 0.0334612 -3.14754e-20)
(-0.0576783 0.0324434 3.96281e-20)
(-0.0615337 0.0313472 -1.5718e-19)
(-0.0650284 0.0302789 -8.78687e-20)
(-0.068181 0.0293384 1.85677e-19)
(-0.0710299 0.0286154 -1.04069e-19)
(-0.0736504 0.0281795 -1.49097e-19)
(-0.0760915 0.0280724 2.77414e-19)
(-0.0782253 0.0283638 -3.61225e-22)
(-0.00143193 0.00532604 8.43891e-20)
(-0.00464484 0.0140345 -1.06273e-19)
(-0.00878322 0.0210699 -1.11373e-19)
(-0.0134292 0.0266396 -5.33478e-20)
(-0.0184302 0.030893 -7.74965e-20)
(-0.0236432 0.0339798 -4.39911e-20)
(-0.0289315 0.0360494 -1.86542e-19)
(-0.0341779 0.037247 2.30249e-20)
(-0.0392823 0.0377136 -7.97833e-20)
(-0.0441605 0.0375858 2.8045e-19)
(-0.0487444 0.0369956 -1.63589e-19)
(-0.0529817 0.0360713 1.00812e-19)
(-0.0568358 0.0349373 -3.09489e-20)
(-0.0602876 0.0337153 1.70906e-19)
(-0.0633362 0.0325232 1.41048e-20)
(-0.0660012 0.0314733 -1.47628e-19)
(-0.0683236 0.0306687 -2.6583e-20)
(-0.0703871 0.0301908 6.49266e-21)
(-0.0722462 0.0300913 -1.14006e-20)
(-0.0737379 0.0304593 1.86447e-19)
(-0.00162934 0.00569771 -1.05091e-19)
(-0.00514106 0.0150212 -1.01527e-19)
(-0.00947632 0.0225597 4.23304e-20)
(-0.0142356 0.0285303 1.06126e-19)
(-0.0192742 0.0330903 -7.68861e-21)
(-0.0244558 0.0363981 -7.35883e-20)
(-0.02965 0.0386123 1.64252e-19)
(-0.0347452 0.0398873 -1.85397e-20)
(-0.0396452 0.0403732 2.01134e-19)
(-0.0442692 0.0402156 -2.24555e-19)
(-0.0485512 0.0395558 5.94294e-20)
(-0.0524398 0.038531 7.06404e-20)
(-0.0558986 0.0372754 -2.14164e-21)
(-0.0589079 0.0359213 -1.19762e-21)
(-0.0614669 0.0345985 -1.35871e-19)
(-0.0635953 0.0334326 1.84999e-20)
(-0.0653367 0.0325415 1.83062e-19)
(-0.0667846 0.0320207 2.36192e-19)
(-0.068001 0.0319344 -2.81075e-19)
(-0.0687826 0.0323962 -1.79135e-19)
(-0.00183783 0.00604933 4.40051e-20)
(-0.00566582 0.0159559 6.7802e-20)
(-0.0102101 0.0239723 8.27348e-20)
(-0.0150899 0.0303239 -1.40299e-19)
(-0.0201678 0.0351748 1.47793e-19)
(-0.0253149 0.0386917 1.41232e-19)
(-0.0304072 0.0410414 -5.53929e-20)
(-0.0353385 0.0423868 2.43178e-19)
(-0.0400171 0.0428865 -2.47182e-19)
(-0.0443656 0.0426946 1.09985e-19)
(-0.04832 0.0419606 1.12348e-19)
(-0.0518297 0.0408303 -8.76867e-21)
(-0.0548585 0.0394474 1.45165e-21)
(-0.0573858 0.0379543 1.48801e-20)
(-0.0594099 0.0364928 -1.06411e-19)
(-0.0609509 0.0352032 1.05738e-19)
(-0.0620544 0.0342197 -5.46131e-20)
(-0.062825 0.0336542 -1.22966e-19)
(-0.0633347 0.0335872 1.59343e-19)
(-0.0633334 0.0341631 3.30741e-20)
(-0.00205636 0.00638029 -2.53733e-20)
(-0.00621654 0.0168367 3.18974e-20)
(-0.010981 0.0253043 -6.92187e-20)
(-0.0159874 0.0320156 -1.03614e-19)
(-0.0211061 0.037141 -1.07052e-19)
(-0.0262151 0.0408539 -9.68201e-20)
(-0.0311971 0.0433292 1.58124e-19)
(-0.0359515 0.0447374 -8.04252e-20)
(-0.0403912 0.045245 6.43866e-20)
(-0.0444421 0.0450138 7.11362e-21)
(-0.0480423 0.0442009 -1.76309e-20)
(-0.0511423 0.0429601 4.414e-20)
(-0.0537054 0.0414436 -8.63299e-20)
(-0.0557096 0.039804 4.53125e-20)
(-0.057152 0.0381953 1.46605e-19)
(-0.0580524 0.0367729 -2.14822e-19)
(-0.0584583 0.0356896 -1.37747e-19)
(-0.0584859 0.0350771 1.81487e-19)
(-0.0582208 0.0350354 -1.06604e-19)
(-0.0573572 0.035749 -1.64105e-19)
(-0.00228391 0.00669013 9.35291e-20)
(-0.00679059 0.0176618 -9.594e-20)
(-0.0117852 0.0265531 7.79699e-20)
(-0.0169237 0.0336017 1.25387e-19)
(-0.0220837 0.0389835 -2.31444e-20)
(-0.0271503 0.0428787 -8.29838e-20)
(-0.0320129 0.0454688 -1.55474e-19)
(-0.0365766 0.0469317 -1.18608e-19)
(-0.0407589 0.047441 -2.39428e-19)
(-0.0444893 0.0471653 2.43796e-20)
(-0.047708 0.0462687 -2.14643e-20)
(-0.0503661 0.0449121 -1.7136e-19)
(-0.0524261 0.0432557 1.48843e-19)
(-0.0538646 0.0414617 1.82882e-19)
(-0.0546764 0.0396964 -9.28027e-21)
(-0.0548803 0.038131 1.12513e-19)
(-0.0545251 0.0369392 -5.70612e-20)
(-0.0537396 0.0362757 9.16434e-21)
(-0.052627 0.0362654 1.61184e-19)
(-0.0508126 0.0371431 3.84196e-19)
(-0.00251946 0.00697853 -4.06486e-20)
(-0.00738531 0.0184303 -2.85199e-20)
(-0.0126188 0.0277162 8.0332e-20)
(-0.0178937 0.0350786 -1.12234e-19)
(-0.0230947 0.040698 -2.92513e-20)
(-0.0281137 0.0447605 1.7439e-19)
(-0.0328469 0.047454 -4.12951e-20)
(-0.0372051 0.048963 -1.19772e-19)
(-0.0411107 0.0494673 1.94947e-19)
(-0.0444964 0.0491417 -5.24668e-20)
(-0.0473046 0.0481566 3.83843e-20)
(-0.0494869 0.0466792 2.08919e-19)
(-0.0510048 0.0448767 -2.90854e-19)
(-0.0518325 0.0429203 -7.97436e-20)
(-0.0519621 0.0409883 -1.5726e-19)
(-0.0514103 0.0392686 3.19854e-19)
(-0.0502263 0.0379578 1.00243e-20)
(-0.048552 0.0372379 1.76959e-19)
(-0.046514 0.0372636 -6.41522e-20)
(-0.0436484 0.0383334 -3.63884e-19)
(-0.002762 0.00724534 -9.43392e-20)
(-0.00799802 0.0191411 1.36617e-19)
(-0.0134778 0.0287919 1.86867e-21)
(-0.0188922 0.0364434 -1.3248e-21)
(-0.0241327 0.0422805 1.43137e-19)
(-0.0290979 0.0464945 1.03283e-19)
(-0.0336906 0.0492792 -3.89717e-21)
(-0.0378272 0.0508249 3.10209e-19)
(-0.0414349 0.0513173 1.19078e-19)
(-0.0444501 0.0509367 -2.19336e-19)
(-0.0468169 0.0498585 1.04044e-20)
(-0.0484874 0.0482554 -7.55523e-21)
(-0.0494216 0.046301 3.07947e-19)
(-0.0495908 0.0441742 -3.45136e-19)
(-0.0489832 0.0420652 9.54138e-20)
(-0.0476124 0.0401789 3.56559e-21)
(-0.0455268 0.038737 -2.44867e-19)
(-0.042882 0.0379533 -2.54602e-19)
(-0.0398355 0.0380166 -3.07426e-20)
(-0.0358009 0.0393075 3.69425e-19)
(-0.00301056 0.00749055 3.05431e-20)
(-0.00862606 0.0197937 -9.72482e-20)
(-0.0143581 0.0297787 9.40387e-20)
(-0.0199139 0.0376937 -1.40853e-19)
(-0.0251911 0.0437276 1.75115e-19)
(-0.0300947 0.0480764 -2.938e-19)
(-0.0345341 0.0509393 -7.26292e-20)
(-0.0384313 0.0525121 -1.62185e-19)
(-0.0417183 0.0529855 -7.65829e-20)
(-0.0443348 0.0525446 1.36722e-19)
(-0.0462271 0.0513691 2.79365e-19)
(-0.0473469 0.0496362 -3.13682e-19)
(-0.0476527 0.0475245 -1.17486e-19)
(-0.0471118 0.0452202 4.26943e-19)
(-0.0457079 0.0429239 -1.55173e-19)
(-0.0434501 0.040858 -2.23813e-19)
(-0.0403842 0.0392715 2.84245e-19)
(-0.03668 0.0384143 5.99673e-20)
(-0.0325391 0.0385163 5.72989e-20)
(-0.0272018 0.0400763 -2.37735e-19)
(-0.00326422 0.00771424 1.19326e-20)
(-0.00926677 0.0203879 -5.06973e-20)
(-0.0152554 0.0306757 1.64849e-19)
(-0.0209528 0.0388276 -2.13402e-19)
(-0.0262623 0.0450363 -1.76568e-19)
(-0.031095 0.0495023 1.11797e-19)
(-0.0353664 0.0524299 3.10427e-19)
(-0.0390044 0.0540196 -1.96204e-19)
(-0.0419454 0.0544668 4.74618e-20)
(-0.0441325 0.0539605 -9.45668e-20)
(-0.0455137 0.0526842 -3.82274e-19)
(-0.0460406 0.0508183 2.31784e-19)
(-0.0456692 0.0485452 1.87378e-19)
(-0.0443624 0.0460569 -3.32641e-19)
(-0.0420979 0.0435638 7.8011e-20)
(-0.0388788 0.0413052 3.11571e-19)
(-0.0347468 0.0395594 1.2247e-19)
(-0.0298846 0.0386171 4.31259e-20)
(-0.024552 0.0387637 -2.52923e-19)
(-0.0178125 0.0407146 -1.22408e-19)
(-0.00352207 0.00791663 -8.26494e-20)
(-0.00991751 0.0209237 -1.51922e-19)
(-0.0161655 0.0314821 -8.76902e-20)
(-0.022003 0.0398436 1.16132e-19)
(-0.0273385 0.0462042 -6.78649e-21)
(-0.0320888 0.050769 2.60399e-19)
(-0.0361754 0.0537469 -2.4608e-20)
(-0.0395316 0.055343 2.91968e-20)
(-0.0420984 0.0557567 1.8738e-19)
(-0.043822 0.0551805 2.37526e-19)
(-0.0446518 0.0538006 -1.10072e-20)
(-0.044539 0.0517996 -5.27166e-20)
(-0.0434367 0.0493627 -3.09353e-19)
(-0.0413026 0.0466859 2.32225e-19)
(-0.0381071 0.0439879 -2.06083e-20)
(-0.0338455 0.0415239 -1.39317e-19)
(-0.0285529 0.0396027 -6.98362e-19)
(-0.0224202 0.0385613 2.47733e-19)
(-0.0157439 0.0387558 1.32109e-20)
(-0.00755256 0.0411347 -1.52176e-19)
(-0.00378325 0.00809801 7.62563e-20)
(-0.0105756 0.0214012 1.98499e-19)
(-0.0170838 0.0321977 -1.51119e-19)
(-0.023058 0.0407406 -7.32481e-20)
(-0.028411 0.0472294 6.12423e-20)
(-0.0330651 0.0518738 -1.48082e-19)
(-0.0369474 0.054887 -2.75129e-19)
(-0.0399963 0.0564786 1.63007e-19)
(-0.0421571 0.0568516 -1.87245e-20)
(-0.0433789 0.0562014 -3.75268e-19)
(-0.0436124 0.0547161 7.20722e-20)
(-0.0428078 0.0525797 4.06349e-20)
(-0.0409149 0.0499785 -7.08195e-20)
(-0.0378853 0.0471111 1.87339e-19)
(-0.0336808 0.0442023 3.65425e-19)
(-0.0282869 0.0415219 -2.38259e-19)
(-0.02173 0.0394087 1.93712e-19)
(-0.0142096 0.03825 4.72922e-20)
(-0.00604615 0.0384818 2.71326e-19)
(0.00379787 0.0412746 1.21369e-19)
(-0.00404696 0.00825876 -8.36435e-20)
(-0.0112385 0.0218209 -9.79117e-21)
(-0.0180058 0.0328223 2.14129e-19)
(-0.0241109 0.0415176 2.12542e-19)
(-0.0294706 0.0481102 -4.36041e-20)
(-0.0340118 0.0528141 -2.76033e-20)
(-0.0376671 0.0558472 2.76824e-19)
(-0.0403795 0.0574231 -2.15183e-19)
(-0.0420984 0.0577484 6.56693e-20)
(-0.0427754 0.0570208 2.72508e-19)
(-0.0423621 0.0554296 2.61629e-19)
(-0.0408073 0.0531594 1.02102e-19)
(-0.0380568 0.0503962 4.4725e-19)
(-0.0340553 0.0473393 -6.16625e-20)
(-0.0287547 0.0442174 -4.75138e-19)
(-0.022129 0.0413122 2.34031e-19)
(-0.0141925 0.0389917 -1.25153e-19)
(-0.00515221 0.0376973 -2.91658e-19)
(0.00463697 0.0379608 -2.06939e-19)
(0.0163533 0.0412074 -2.07343e-19)
(-0.00431243 0.0083993 5.35139e-20)
(-0.0119036 0.0221832 1.12111e-19)
(-0.0189267 0.0333561 -7.80422e-20)
(-0.0251547 0.0421742 -9.70932e-20)
(-0.0305074 0.0488453 -1.00864e-19)
(-0.0349159 0.0535879 -2.72768e-20)
(-0.0383177 0.0566249 -2.85656e-19)
(-0.0406603 0.0581738 1.46729e-19)
(-0.0418964 0.0584445 -1.35275e-19)
(-0.04198 0.0576367 -2.2884e-19)
(-0.0408627 0.0559408 8.13823e-21)
(-0.0384916 0.0535406 -5.81854e-19)
(-0.0348078 0.0506211 -4.52122e-19)
(-0.0297484 0.0473801 1.4315e-19)
(-0.0232543 0.0440475 7.25363e-20)
(-0.0152856 0.0409137 -1.55869e-19)
(-0.00584173 0.0383734 6.05194e-19)
(0.00486699 0.0369239 -9.5106e-20)
(0.0164368 0.0372034 2.59142e-19)
(0.0302503 0.0409672 2.31822e-19)
(-0.0045789 0.00852009 -7.34324e-20)
(-0.0125681 0.0224889 -2.43637e-19)
(-0.0198415 0.0337995 7.74674e-20)
(-0.0261815 0.0427102 4.33974e-21)
(-0.0315103 0.0494337 3.30001e-19)
(-0.0357628 0.0541938 -1.97102e-19)
(-0.0388806 0.057218 1.08058e-19)
(-0.0408152 0.0587284 1.54426e-19)
(-0.0415222 0.0589378 -1.21585e-20)
(-0.0409571 0.0580482 9.55809e-20)
(-0.0390711 0.0562502 2.90963e-19)
(-0.0358089 0.0537268 6.09403e-19)
(-0.0311062 0.0506603 4.89963e-20)
(-0.0248915 0.0472456 -2.70826e-19)
(-0.0170937 0.043711 4.92803e-20)
(-0.00765782 0.0403512 4.80293e-19)
(0.00343555 0.0375836 -3.26406e-19)
(0.0159771 0.0359605 1.42164e-21)
(0.0295006 0.0362325 2.52317e-19)
(0.0456588 0.0405771 -1.55803e-19)
(-0.00484567 0.00862165 -7.03565e-20)
(-0.0132295 0.0227387 2.88018e-19)
(-0.0207452 0.0341528 -2.19989e-19)
(-0.0271833 0.0431254 -4.49927e-20)
(-0.0324679 0.0498747 -7.59533e-20)
(-0.0365368 0.0546302 -1.97544e-19)
(-0.0393354 0.0576248 1.96983e-19)
(-0.0408184 0.059085 -6.50238e-20)
(-0.0409435 0.059227 -1.16424e-19)
(-0.039667 0.0582547 1.90825e-19)
(-0.0369391 0.0563592 -2.21589e-19)
(-0.0327008 0.053722 -7.15246e-20)
(-0.0268819 0.0505224 -7.98725e-21)
(-0.0194016 0.0469505 1.90128e-19)
(-0.0101758 0.0432299 -1.72232e-19)
(0.000866853 0.0396553 -3.25876e-19)
(0.0137673 0.0366609 -1.00073e-19)
(0.0283229 0.0348497 -1.44989e-19)
(0.0439899 0.0350855 -4.43111e-19)
(0.0627692 0.0400719 -1.31883e-19)
(-0.00511206 0.00870446 9.98526e-20)
(-0.0138849 0.0229332 -1.26419e-19)
(-0.0216321 0.0344166 -1.58572e-19)
(-0.0281513 0.0434199 -1.50022e-19)
(-0.0333674 0.0501678 4.99828e-20)
(-0.0372206 0.0548963 2.80949e-20)
(-0.0396595 0.057844 7.03184e-20)
(-0.0406411 0.0592422 -1.82781e-19)
(-0.0401246 0.059311 1.41628e-19)
(-0.0380658 0.0582562 -4.24505e-19)
(-0.0344129 0.0562697 -2.13318e-19)
(-0.0291023 0.0535316 3.52686e-21)
(-0.022057 0.0502173 1.89482e-19)
(-0.0131861 0.0465113 -1.24395e-19)
(-0.0023918 0.0426299 3.17829e-19)
(0.0104142 0.0388626 -7.79507e-20)
(0.0252966 0.0356527 1.01536e-19)
(0.0420653 0.033647 3.83981e-19)
(0.060081 0.0338145 5.07286e-20)
(0.081787 0.0395014 2.4514e-19)
(-0.00537738 0.00876902 -2.10941e-19)
(-0.0145316 0.0230734 1.7021e-19)
(-0.0224966 0.0345915 1.91252e-19)
(-0.029076 0.0435939 -1.11335e-19)
(-0.034195 0.0503127 1.9038e-19)
(-0.0377956 0.0549913 1.83846e-19)
(-0.0398285 0.0578746 -3.33301e-20)
(-0.0402522 0.0591993 -6.30694e-20)
(-0.0390263 0.0591894 -1.71831e-19)
(-0.0361051 0.0580536 8.05923e-20)
(-0.0314333 0.0559846 7.85164e-21)
(-0.0249419 0.0531613 -2.11419e-19)
(-0.0165455 0.0497559 1.57674e-19)
(-0.00614259 0.0459462 -1.23836e-19)
(0.00637842 0.0419392 -2.2548e-19)
(0.0211231 0.0380142 -2.94817e-19)
(0.0381805 0.0346149 7.23426e-20)
(0.0573796 0.0324205 1.00793e-19)
(0.0779631 0.0324872 -9.67521e-20)
(0.102928 0.038932 4.05501e-19)
(-0.00564095 0.00881579 -1.66663e-19)
(-0.0151666 0.0231598 -1.56657e-19)
(-0.0233325 0.0346782 1.23888e-19)
(-0.0299474 0.0436478 7.21174e-20)
(-0.034936 0.0503095 2.95009e-20)
(-0.0382413 0.054915 -5.40338e-20)
(-0.0398154 0.0577162 -3.81593e-20)
(-0.0396174 0.0589559 8.73417e-20)
(-0.0376057 0.0588626 -8.23259e-20)
(-0.0337319 0.0576483 6.61822e-19)
(-0.0279359 0.0555072 4.83134e-20)
(-0.0201413 0.0526181 -7.43455e-20)
(-0.0102536 0.04915 -4.9043e-19)
(0.00184001 0.0452744 9.48174e-20)
(0.0162652 0.0411879 -2.43094e-19)
(0.0331437 0.0371551 1.61074e-19)
(0.0525884 0.0336104 1.47948e-19)
(0.0744532 0.0312513 -5.64074e-19)
(0.0978353 0.0311879 -1.76001e-19)
(0.126414 0.0384492 -6.05914e-19)
(-0.00590207 0.0088452 8.05821e-20)
(-0.0157867 0.0231931 1.62185e-19)
(-0.0241332 0.0346772 -2.92333e-19)
(-0.0307545 0.0435819 -2.24049e-19)
(-0.0355742 0.0501584 1.13721e-19)
(-0.0385356 0.0546674 1.07079e-19)
(-0.0395912 0.057369 -2.2237e-19)
(-0.0386995 0.0585124 -2.00344e-20)
(-0.0358163 0.0583317 1.19116e-20)
(-0.030889 0.0570426 -1.99291e-19)
(-0.0238507 0.054842 2.90075e-19)
(-0.0146162 0.0519094 1.65844e-21)
(-0.00308066 0.048412 3.67841e-19)
(0.0108811 0.0445161 2.49968e-19)
(0.0274081 0.0404073 4.19855e-20)
(0.0466362 0.0363324 5.28894e-19)
(0.0686994 0.0327074 -4.80836e-19)
(0.0934812 0.0302311 2.23094e-19)
(0.119901 0.0300176 1.7471e-19)
(0.152459 0.0381598 1.50047e-19)
(-0.00616 0.00885764 3.88287e-19)
(-0.0163886 0.023174 -2.74379e-19)
(-0.0248916 0.0345891 6.66422e-20)
(-0.0314855 0.0433967 2.17478e-19)
(-0.0360921 0.0498597 -2.34633e-19)
(-0.0386544 0.0542491 1.15928e-20)
(-0.0391243 0.0568336 1.78847e-19)
(-0.037458 0.0578701 3.29139e-19)
(-0.0336078 0.0575987 4.46245e-19)
(-0.0275145 0.05624 -4.27879e-19)
(-0.0191025 0.0539945 -2.55433e-19)
(-0.00827645 0.0510438 1.21398e-19)
(0.00508083 0.0475553 -3.49673e-19)
(0.0211069 0.0436915 2.3879e-20)
(0.0399535 0.0396286 1.3651e-19)
(0.0617674 0.0355939 1.04906e-19)
(0.0866985 0.0319767 3.24228e-19)
(0.114662 0.02946 6.82197e-20)
(0.144364 0.0290926 -2.45725e-19)
(0.181261 0.038193 2.63523e-19)
(-0.00641395 0.0088534 -3.68225e-19)
(-0.0169685 0.0231029 2.73294e-19)
(-0.0255999 0.0344144 6.64094e-20)
(-0.0321273 0.0430929 -2.15678e-19)
(-0.0364707 0.0494143 9.12156e-20)
(-0.0385716 0.053661 -4.41407e-20)
(-0.0383802 0.0561117 -3.32748e-20)
(-0.0358495 0.0570313 -2.77862e-19)
(-0.0309258 0.0566671 -4.38979e-19)
(-0.0235418 0.0552454 4.11057e-19)
(-0.0136113 0.0529717 -1.4816e-19)
(-0.00102627 0.0500315 4.63893e-21)
(0.0143437 0.0465942 8.41932e-20)
(0.0326491 0.0428215 1.78969e-19)
(0.0540527 0.0388826 -2.17471e-20)
(0.0787078 0.034986 -5.0529e-20)
(0.106772 0.0314888 -2.6094e-19)
(0.138188 0.0290419 -1.75113e-19)
(0.171419 0.0285422 -1.66167e-19)
(0.212984 0.0387014 2.65409e-19)
(-0.00666302 0.00883272 2.95424e-19)
(-0.0175226 0.02298 -7.71252e-20)
(-0.0262496 0.0341537 2.62664e-19)
(-0.0326661 0.0426712 6.37368e-20)
(-0.0366894 0.0488232 -1.40671e-19)
(-0.0382589 0.0529049 2.27891e-20)
(-0.0373221 0.0552057 -3.00433e-19)
(-0.033827 0.0559996 1.3678e-19)
(-0.0277123 0.0555418 7.41678e-20)
(-0.0189003 0.0540656 -2.73076e-20)
(-0.00729207 0.0517827 -3.11805e-20)
(0.00723477 0.0488843 3.69563e-20)
(0.0248253 0.0455446 -1.68448e-19)
(0.0456428 0.0419276 -3.92892e-19)
(0.0698588 0.0381995 1.99425e-19)
(0.097627 0.0345529 -9.98468e-20)
(0.129102 0.031311 -2.46491e-20)
(0.164243 0.0290799 4.23567e-19)
(0.201245 0.0285052 4.43995e-19)
(0.247735 0.0398611 -6.79247e-19)
(-0.00690623 0.00879572 -7.53544e-20)
(-0.0180462 0.0228057 -8.31238e-20)
(-0.0268314 0.0338073 -1.64626e-19)
(-0.0330865 0.0421324 1.20809e-19)
(-0.0367257 0.0480879 2.19289e-19)
(-0.0376858 0.0519832 -2.84001e-19)
(-0.0359101 0.0541192 4.54177e-19)
(-0.0313401 0.0547801 -8.89006e-20)
(-0.0239051 0.0542298 1.30795e-20)
(-0.0135148 0.0527096 -3.08877e-19)
(-5.55772e-05 0.050439 -2.36123e-20)
(0.0166112 0.0476169 -2.55201e-19)
(0.036646 0.0444249 3.42765e-19)
(0.0602245 0.0410328 2.25845e-19)
(0.0875234 0.0376089 -4.41862e-19)
(0.11869 0.0343353 -3.7675e-19)
(0.15386 0.0315045 8.70535e-20)
(0.192987 0.0296703 5.0788e-19)
(0.234005 0.0291267 2.34756e-19)
(0.285545 0.0418693 1.27363e-19)
(-0.00714242 0.00874244 2.35219e-20)
(-0.0185345 0.0225799 8.05873e-20)
(-0.027335 0.0333756 9.71687e-20)
(-0.0333716 0.0414774 -8.11871e-20)
(-0.0365552 0.0472105 2.03604e-19)
(-0.0368191 0.0508991 2.73058e-19)
(-0.0341013 0.0528572 4.34231e-21)
(-0.0283351 0.0533797 -3.53302e-19)
(-0.0194382 0.0527402 -2.82695e-19)
(-0.00730627 0.0511894 2.96372e-19)
(0.00819134 0.0489556 -3.97445e-19)
(0.0272106 0.0462474 -4.4709e-19)
(0.049928 0.0432563 -4.47733e-20)
(0.0765295 0.0401621 -2.33283e-20)
(0.107193 0.0371404 1.56256e-19)
(0.142049 0.0343704 1.02666e-19)
(0.181204 0.0321229 1.33452e-19)
(0.224555 0.0308954 -6.27872e-19)
(0.269837 0.0305533 -1.73627e-19)
(0.326342 0.0449326 4.55685e-19)
(-0.00737027 0.00867278 -1.40214e-19)
(-0.0189819 0.0223024 1.37479e-19)
(-0.0277493 0.0328589 -1.01407e-19)
(-0.0335034 0.0407076 -5.04276e-20)
(-0.0361518 0.0461933 -1.37445e-19)
(-0.0356233 0.049657 -1.04258e-19)
(-0.0318498 0.0514261 -1.8668e-19)
(-0.0247545 0.0518074 3.0881e-19)
(-0.0142421 0.0510852 1.22853e-19)
(-0.000191809 0.0495202 -3.02051e-19)
(0.0175451 0.0473512 4.73553e-19)
(0.0391428 0.0447981 2.43258e-19)
(0.0647928 0.0420646 -1.84198e-19)
(0.0946894 0.039344 -2.586e-19)
(0.129006 0.0368249 -3.32592e-20)
(0.167844 0.0346917 2.66533e-19)
(0.211264 0.03321 -1.78263e-19)
(0.259046 0.0328159 6.80124e-20)
(0.308865 0.0329273 1.53632e-19)
(0.369931 0.0492451 3.84918e-19)
(-0.00758823 0.00858654 -1.43243e-20)
(-0.0193822 0.0219729 -3.39622e-19)
(-0.0280616 0.0322574 8.28647e-20)
(-0.0334618 0.0398243 1.84183e-19)
(-0.0354867 0.0450396 -3.39183e-20)
(-0.0340602 0.0482622 -2.23355e-19)
(-0.0291066 0.0498339 2.46443e-19)
(-0.0205377 0.0500745 2.82388e-19)
(-0.00824343 0.0492796 1.08129e-19)
(0.00791479 0.047721 5.37337e-19)
(0.0281046 0.0456492 -2.50102e-19)
(0.052518 0.0432963 1.19908e-19)
(0.0813599 0.0408806 -1.23972e-19)
(0.114828 0.0386112 2.98574e-19)
(0.153084 0.0366947 -2.62936e-20)
(0.19619 0.0353299 -6.90576e-20)
(0.244141 0.0348001 -1.10318e-19)
(0.296508 0.0354647 1.73757e-19)
(0.351171 0.0364066 -4.38628e-19)
(0.415935 0.0550174 -5.92872e-19)
(-0.00779449 0.00848336 -8.14366e-20)
(-0.0197284 0.021591 -3.02963e-20)
(-0.0282584 0.0315714 -2.74625e-19)
(-0.0332253 0.0388291 1.68206e-19)
(-0.0345293 0.0437532 -1.71831e-19)
(-0.0320889 0.0467212 -1.74615e-19)
(-0.0258195 0.0480908 -1.57414e-20)
(-0.0156206 0.048195 -2.84878e-19)
(-0.00136564 0.0473418 -4.52345e-19)
(0.0171024 0.0458151 1.23856e-19)
(0.03997 0.0438777 1.38833e-19)
(0.0674454 0.0417752 1.67503e-19)
(0.0997431 0.0397409 4.28297e-19)
(0.137059 0.0380016 -4.21513e-20)
(0.179531 0.0367846 -9.2871e-20)
(0.227172 0.0363118 -1.29841e-20)
(0.279899 0.0369119 2.34149e-19)
(0.336955 0.0388402 4.16657e-19)
(0.396779 0.0412445 -1.17126e-19)
(0.463599 0.0626106 4.29911e-19)
(-0.00798697 0.00836281 2.55599e-19)
(-0.0200127 0.0211558 -4.15788e-20)
(-0.0283245 0.0308012 2.4266e-19)
(-0.0327702 0.0377243 -2.4889e-19)
(-0.0332464 0.0423388 3.67599e-19)
(-0.0296657 0.0450422 3.07721e-19)
(-0.0219337 0.0462086 -2.52991e-19)
(-0.00993613 0.0461855 -4.71038e-19)
(0.00647044 0.0452939 7.81212e-19)
(0.0274616 0.0438303 1.93055e-19)
(0.0532413 0.0420705 -1.50449e-19)
(0.0840307 0.0402739 -1.48796e-19)
(0.120048 0.0386887 -7.40814e-20)
(0.161476 0.0375587 -1.16216e-19)
(0.208424 0.0371318 -3.85002e-19)
(0.260838 0.0376567 -1.04953e-19)
(0.318562 0.0395312 8.69275e-21)
(0.380428 0.0428817 -2.86168e-19)
(0.445806 0.0477998 1.4226e-19)
(0.511869 0.0722006 -3.07181e-19)
(-0.00816321 0.00822428 -4.08519e-19)
(-0.0202263 0.0206668 2.74939e-19)
(-0.0282434 0.029947 -4.09743e-19)
(-0.0320711 0.0365122 -2.23317e-19)
(-0.0316027 0.0408018 8.33083e-20)
(-0.0267443 0.0432344 -3.32677e-19)
(-0.0173912 0.0442015 5.21566e-19)
(-0.00341457 0.0440657 8.91713e-21)
(0.0153461 0.0431616 -2.90445e-19)
(0.0390838 0.0417991 -2.53909e-19)
(0.068017 0.0402671 -4.53595e-19)
(0.102374 0.0388382 -5.5634e-21)
(0.142367 0.0377742 1.66875e-20)
(0.188155 0.0373325 -1.04632e-19)
(0.2398 0.037777 4.64395e-19)
(0.297174 0.0393747 2.87125e-19)
(0.360068 0.0425941 7.15167e-20)
(0.426987 0.0474239 -3.08336e-19)
(0.498817 0.0560554 -1.65913e-20)
(0.561517 0.0814682 -5.06283e-19)
(-0.00832043 0.00806709 1.45114e-19)
(-0.0203594 0.0201228 -2.75252e-19)
(-0.0279971 0.0290093 3.53936e-19)
(-0.0311007 0.0351958 4.97713e-19)
(-0.0295606 0.0391487 -1.62021e-19)
(-0.023276 0.041309 2.10318e-20)
(-0.0121317 0.042086 -4.39871e-19)
(0.00401591 0.0418582 -1.09471e-19)
(0.0253436 0.0409747 -3.40939e-19)
(0.0520595 0.0397588 4.44705e-19)
(0.0843914 0.0385123 4.1226e-19)
(0.122566 0.0375201 -7.33463e-20)
(0.166776 0.0370545 -5.51741e-20)
(0.217139 0.037381 -4.80963e-21)
(0.273648 0.0387682 8.34445e-20)
(0.336081 0.0414796 -1.5021e-19)
(0.404176 0.0460178 -1.74578e-19)
(0.476287 0.0521853 3.70789e-19)
(0.55565 0.064662 -1.19603e-19)
(0.618883 0.083942 1.35853e-20)
(-0.00845543 0.00789045 3.83453e-20)
(-0.0204014 0.019523 5.55519e-20)
(-0.027566 0.0279888 -1.85374e-19)
(-0.0298296 0.0337785 -5.13232e-19)
(-0.0270799 0.0373871 8.31857e-20)
(-0.0192097 0.0392784 2.52094e-19)
(-0.00609275 0.0398806 1.15077e-19)
(0.0124286 0.0395887 4.94047e-19)
(0.0365456 0.0387665 -3.10427e-19)
(0.0664771 0.0377511 -4.0358e-19)
(0.102453 0.0368565 -7.39059e-20)
(0.144685 0.0363777 1.84053e-19)