/*--------------------------------*- C++ -*----------------------------------*\
  =========                 |
  \\      /  F ield         | OpenFOAM: The Open Source CFD Toolbox
   \\    /   O peration     | Website:  https://openfoam.org
    \\  /    A nd           | Version:  7
     \\/     M anipulation  |
\*---------------------------------------------------------------------------*/
FoamFile
{
    version     2.0;
    format      ascii;
    class       volVectorField;
    location    "35";
    object      U;
}
// * * * * * * * * * * * * * * * * * * * * * * * * * * * * * * * * * * * * * //

dimensions      [0 1 -1 0 0 0 0];

internalField   nonuniform List<vector> 
34000
(
(-0.000253762 0.000243048 -9.0211e-22)
(-0.00170757 0.000637304 -4.8492e-21)
(-0.00471797 0.000952361 5.93283e-22)
(-0.00873513 0.0011992 -1.0344e-21)
(-0.0135493 0.00138542 1.58044e-21)
(-0.0189674 0.00151845 -1.1659e-20)
(-0.0248078 0.00160558 2.00522e-21)
(-0.0309173 0.00165382 -7.9071e-21)
(-0.0371666 0.00166987 -1.70257e-20)
(-0.0434502 0.00166023 1.45739e-20)
(-0.0496853 0.00163108 4.33994e-21)
(-0.055811 0.00158836 -5.2144e-21)
(-0.0617876 0.00153768 6.41315e-21)
(-0.0675954 0.0014843 8.78773e-21)
(-0.0732328 0.00143296 -5.55957e-21)
(-0.0787147 0.00138779 -7.5178e-21)
(-0.0840701 0.00135209 -1.80549e-20)
(-0.0893406 0.00132804 -1.40088e-21)
(-0.0945625 0.00131622 -3.0758e-21)
(-0.0997661 0.00131741 -6.1025e-21)
(-0.000272886 0.000752468 -4.40824e-21)
(-0.00175527 0.00197489 3.68542e-21)
(-0.00478423 0.00295429 -4.3322e-21)
(-0.00881206 0.00372394 -9.74911e-21)
(-0.01363 0.004307 7.98533e-21)
(-0.0190455 0.00472632 4.85744e-20)
(-0.024878 0.00500428 -2.99661e-20)
(-0.0309745 0.00516245 5.10031e-21)
(-0.0372064 0.00522161 2.452e-20)
(-0.0434683 0.00520174 -9.26364e-24)
(-0.0496776 0.005122 1.45863e-20)
(-0.0557738 0.00500065 -1.93674e-20)
(-0.0617171 0.00485498 2.0317e-20)
(-0.0674879 0.00470108 -1.75245e-20)
(-0.0730849 0.00455353 -6.82331e-21)
(-0.0785234 0.00442492 3.4403e-20)
(-0.0838324 0.00432527 -1.08065e-20)
(-0.0890545 0.00426124 1.68065e-21)
(-0.0942261 0.00423458 -2.03491e-20)
(-0.099375 0.00424761 -2.20866e-21)
(-0.000311227 0.00125882 -3.41334e-20)
(-0.0018509 0.00330475 4.43355e-21)
(-0.00491701 0.00494505 6.80925e-21)
(-0.00896614 0.00623492 2.99529e-20)
(-0.0137914 0.00721294 -3.49182e-20)
(-0.0192018 0.00791714 -5.44629e-20)
(-0.0250181 0.00838489 4.96672e-20)
(-0.0310885 0.0086522 -1.35994e-20)
(-0.0372852 0.00875378 -6.8444e-21)
(-0.0435034 0.00872306 -3.46846e-20)
(-0.049661 0.00859208 9.49753e-21)
(-0.0556977 0.00839143 3.41428e-20)
(-0.0615741 0.00815003 -7.01928e-21)
(-0.0672707 0.00789489 2.81057e-20)
(-0.0727867 0.00765049 -2.32355e-20)
(-0.0781375 0.00743802 -7.0599e-21)
(-0.0833534 0.00727441 5.53974e-20)
(-0.0884783 0.00717089 -3.44812e-21)
(-0.0935487 0.00713053 8.70137e-20)
(-0.0985879 0.00715739 -2.08015e-20)
(-0.000368542 0.00176006 5.58418e-20)
(-0.0019939 0.00462174 -2.50161e-20)
(-0.00511559 0.00691718 -1.74218e-20)
(-0.00919659 0.00872298 -1.32498e-20)
(-0.0140327 0.0100928 2.45588e-20)
(-0.0194355 0.0110795 -4.63308e-21)
(-0.0252276 0.0117353 -8.30304e-20)
(-0.0312588 0.0121104 -8.80301e-21)
(-0.0374026 0.0122533 -1.8294e-20)
(-0.0435552 0.0122107 -2.89651e-21)
(-0.0496351 0.0120274 -3.20936e-20)
(-0.0555826 0.0117463 3.64003e-20)
(-0.0613585 0.0114079 -5.39669e-20)
(-0.0669436 0.0110503 -1.65085e-21)
(-0.0723375 0.010708 1.47681e-20)
(-0.0775567 0.0104109 -1.14701e-19)
(-0.0826322 0.0101833 -9.25639e-20)
(-0.0876107 0.0100411 5.02159e-20)
(-0.0925289 0.00998896 -6.74271e-20)
(-0.097403 0.010033 1.70002e-21)
(-0.000444469 0.0022542 -7.47209e-21)
(-0.00218343 0.00592084 9.88218e-20)
(-0.00537891 0.00886339 4.63607e-20)
(-0.00950228 0.0111791 -3.02492e-21)
(-0.014353 0.0129362 1.24878e-20)
(-0.0197456 0.0142022 1.90842e-21)
(-0.0255054 0.0150436 4.24957e-20)
(-0.0314845 0.0155246 5.03798e-20)
(-0.0375578 0.0157072 2.14369e-20)
(-0.0436231 0.0156512 7.59667e-20)
(-0.0495995 0.0154142 -8.76063e-20)
(-0.055428 0.015051 -1.85117e-20)
(-0.0610697 0.0146139 3.90103e-20)
(-0.0665059 0.014152 -6.8017e-20)
(-0.0717368 0.0137102 3.1071e-20)
(-0.0767798 0.0133275 7.21205e-20)
(-0.0816676 0.0130356 1.73567e-20)
(-0.0864501 0.0128559 2.48526e-20)
(-0.0911645 0.0127947 -3.98345e-20)
(-0.0958178 0.0128608 4.37266e-21)
(-0.000538537 0.00273933 -3.64867e-20)
(-0.00241841 0.0071972 2.32918e-20)
(-0.0057056 0.0107766 -3.79624e-20)
(-0.0098817 0.0135945 1.10316e-20)
(-0.0147505 0.0157332 3.08958e-20)
(-0.0201305 0.0172742 1.4124e-20)
(-0.0258502 0.018298 2.66875e-20)
(-0.0317643 0.0188825 -1.87628e-20)
(-0.03775 0.0191028 -1.16e-19)
(-0.0437062 0.0190315 -1.03924e-19)
(-0.0495535 0.0187387 -6.76068e-20)
(-0.0552332 0.0182913 2.56525e-20)
(-0.0607072 0.0177533 -1.46674e-20)
(-0.065957 0.0171848 1.11925e-19)
(-0.0709836 0.0166412 -4.03293e-20)
(-0.0758056 0.0161713 3.2957e-20)
(-0.0804576 0.015815 4.79969e-20)
(-0.0849938 0.0155991 -2.69941e-20)
(-0.0894523 0.0155325 2.35756e-19)
(-0.0938286 0.0156272 -8.89631e-20)
(-0.000650166 0.00321364 4.42592e-20)
(-0.0026975 0.00844618 -5.57788e-20)
(-0.00609392 0.01265 -8.55395e-20)
(-0.010333 0.0159608 -2.25855e-20)
(-0.0152236 0.018474 9.95512e-21)
(-0.0205886 0.0202848 1.53788e-20)
(-0.0262605 0.0214872 5.15439e-20)
(-0.032097 0.0221721 1.14264e-20)
(-0.0379777 0.0224275 3.86718e-21)
(-0.0438034 0.0223387 1.86617e-19)
(-0.0494959 0.0219877 1.40444e-19)
(-0.0549973 0.0214535 -8.42984e-20)
(-0.0602699 0.0208115 -1.24481e-20)
(-0.0652958 0.0201334 -3.36312e-20)
(-0.0700765 0.0194853 3.32783e-20)
(-0.074632 0.0189263 -1.76291e-19)
(-0.0789995 0.0185049 -3.68829e-20)
(-0.0832383 0.0182545 -5.53938e-20)
(-0.087388 0.0181869 -1.34073e-19)
(-0.0914301 0.0183187 7.35542e-20)
(-0.000778684 0.00367543 7.38746e-21)
(-0.00301914 0.00966341 -2.71725e-20)
(-0.00654185 0.0144772 7.71884e-20)
(-0.0108538 0.0182698 -4.75808e-20)
(-0.0157698 0.0211493 -2.66457e-20)
(-0.0211176 0.0232238 4.24897e-20)
(-0.026734 0.0246001 -7.21251e-20)
(-0.0324804 0.0253817 -9.88567e-21)
(-0.0382391 0.0256693 1.37223e-19)
(-0.043913 0.0255601 -8.79341e-20)
(-0.0494253 0.0251481 -3.62435e-20)
(-0.0547188 0.0245239 4.28704e-20)
(-0.0597564 0.0237745 -1.13283e-20)
(-0.0645205 0.022983 -5.88524e-21)
(-0.0690134 0.0222269 4.8588e-20)
(-0.0732566 0.021576 -1.2929e-19)
(-0.0772898 0.0210887 4.51869e-20)
(-0.0811789 0.0208056 -3.43497e-20)
(-0.0849657 0.0207424 -7.71828e-20)
(-0.0886156 0.0209217 2.80416e-20)
(-0.000923333 0.00412313 -2.07213e-20)
(-0.00338154 0.0108448 1.49446e-19)
(-0.00704708 0.016252 -3.32424e-20)
(-0.0114417 0.0205138 2.04132e-20)
(-0.0163866 0.0237502 1.48017e-19)
(-0.0217148 0.0260812 -1.00433e-19)
(-0.0272683 0.0276259 -4.95056e-20)
(-0.0329123 0.0285002 -8.63253e-20)
(-0.0385322 0.0288164 -9.47294e-20)
(-0.0440331 0.0286836 -6.26228e-20)
(-0.0493398 0.0282071 -8.48841e-20)
(-0.054396 0.0274892 1.54788e-19)
(-0.0591648 0.0266282 -1.71868e-20)
(-0.063629 0.0257188 -3.62443e-20)
(-0.0677916 0.0248504 -1.89832e-19)
(-0.0716756 0.0241042 1.06665e-19)
(-0.0753238 0.0235496 2.65331e-20)
(-0.0788095 0.0232355 6.68068e-20)
(-0.0821779 0.0231832 4.5356e-20)
(-0.0853758 0.0234227 -1.22311e-19)
(-0.00108328 0.00455532 -6.43308e-20)
(-0.00378276 0.0119865 8.72163e-20)
(-0.00760703 0.0179688 4.92418e-20)
(-0.0120938 0.0226857 2.24152e-20)
(-0.0170708 0.0262681 1.87812e-20)
(-0.0223773 0.0288475 -6.73333e-20)
(-0.0278605 0.0305546 1.46134e-19)
(-0.0333898 0.0315166 8.22911e-21)
(-0.0388541 0.0318575 1.36013e-19)
(-0.044161 0.0316973 -7.95342e-20)
(-0.0492367 0.0311526 1.2842e-19)
(-0.054026 0.0303366 -1.27491e-19)
(-0.0584922 0.0293592 -1.15137e-19)
(-0.0626182 0.0283266 9.85195e-20)
(-0.0664074 0.0273405 3.50263e-19)
(-0.0698844 0.0264947 -1.93802e-19)
(-0.0730954 0.0258707 1.59726e-19)
(-0.0761223 0.0255273 3.69014e-20)
(-0.0790148 0.0254931 -1.38836e-19)
(-0.081699 0.0258084 1.17342e-19)
(-0.00125764 0.00497071 1.16871e-19)
(-0.00422066 0.0130852 -6.70352e-20)
(-0.00821886 0.0196223 2.27834e-20)
(-0.0128067 0.0247786 8.61395e-20)
(-0.0178191 0.0286951 -7.96672e-20)
(-0.0231016 0.0315138 1.56711e-19)
(-0.028507 0.0333763 -2.85597e-20)
(-0.0339094 0.0344208 3.58712e-21)
(-0.0392014 0.0347818 -1.87917e-19)
(-0.0442931 0.0345901 1.19219e-19)
(-0.0491126 0.0339729 2.75637e-20)
(-0.0536054 0.033054 -3.6413e-20)
(-0.0577349 0.0319545 4.58568e-20)
(-0.0614838 0.0307926 -1.81871e-19)
(-0.0648559 0.0296824 -1.01673e-19)
(-0.0678769 0.0287313 2.14797e-19)
(-0.0705968 0.0280349 -1.20375e-19)
(-0.0731073 0.0276638 -1.72434e-19)
(-0.0754642 0.0276557 3.20816e-19)
(-0.07757 0.0280652 -4.28007e-22)
(-0.00144547 0.00536819 9.78475e-20)
(-0.00469298 0.0141378 -1.23204e-19)
(-0.00887953 0.0212078 -1.29079e-19)
(-0.013577 0.0267864 -6.18205e-20)
(-0.0186277 0.0310238 -8.97767e-20)
(-0.0238837 0.0340717 -5.09624e-20)
(-0.0292038 0.0360819 -2.16008e-19)
(-0.034467 0.0372028 2.66681e-20)
(-0.0395699 0.0375789 -9.23526e-20)
(-0.0444254 0.0373512 3.24626e-19)
(-0.0489632 0.0366568 -1.89336e-19)
(-0.0531295 0.0356297 1.16687e-19)
(-0.0568878 0.034402 -3.58163e-20)
(-0.0602203 0.0331035 1.97745e-19)
(-0.0631304 0.0318616 1.63145e-20)
(-0.0656452 0.0307985 -1.70763e-19)
(-0.0678181 0.0300254 -3.07371e-20)
(-0.0697519 0.0296272 7.5186e-21)
(-0.0715105 0.0296542 -1.31969e-20)
(-0.0729697 0.0301794 2.18883e-19)
(-0.00164579 0.00574679 -1.21871e-19)
(-0.00519734 0.0151415 -1.17647e-19)
(-0.00958575 0.0227209 4.90452e-20)
(-0.0144008 0.0287034 1.22927e-19)
(-0.0194923 0.0332473 -8.89355e-21)
(-0.024719 0.0365134 -8.51996e-20)
(-0.0299461 0.0386628 1.90176e-19)
(-0.0350578 0.0398535 -2.14529e-20)
(-0.0399545 0.0402394 2.32802e-19)
(-0.0445523 0.0399707 -2.59905e-19)
(-0.0487827 0.0391939 6.87849e-20)
(-0.0525924 0.0380529 8.17349e-20)
(-0.0559445 0.03669 -2.47976e-21)
(-0.0588203 0.0352469 -1.38332e-21)
(-0.0612226 0.0338646 -1.5716e-19)
(-0.0631791 0.0326811 2.14082e-20)
(-0.0647467 0.0318254 2.11702e-19)
(-0.0660405 0.0314001 2.73106e-19)
(-0.0671347 0.0314713 -3.24988e-19)
(-0.0678744 0.032137 -2.10279e-19)
(-0.00185761 0.00610573 5.09989e-20)
(-0.00573124 0.016094 7.85901e-20)
(-0.0103341 0.0241579 9.58123e-20)
(-0.015274 0.0305244 -1.6249e-19)
(-0.0204082 0.0353593 1.71123e-19)
(-0.0256025 0.0388315 1.63502e-19)
(-0.0307285 0.041111 -6.41371e-20)
(-0.0356757 0.0423643 2.81441e-19)
(-0.040349 0.0427541 -2.86055e-19)
(-0.0446673 0.0424392 1.27263e-19)
(-0.048564 0.0415748 1.29997e-19)
(-0.0519862 0.0403137 -1.01566e-20)
(-0.0548964 0.0388081 1.66894e-21)
(-0.0572744 0.0372114 1.72173e-20)
(-0.0591217 0.0356786 -1.23057e-19)
(-0.0604659 0.0343645 1.22268e-19)
(-0.0613672 0.0334188 -6.31563e-20)
(-0.0619538 0.0329646 -1.4218e-19)
(-0.0623133 0.0330893 1.84209e-19)
(-0.0622544 0.0339238 3.87993e-20)
(-0.0020799 0.00644435 -2.94137e-20)
(-0.00629213 0.0169934 3.69674e-20)
(-0.0111209 0.0255154 -8.01646e-20)
(-0.0161921 0.0322449 -1.19953e-19)
(-0.0213704 0.0373541 -1.23926e-19)
(-0.0265286 0.0410195 -1.12064e-19)
(-0.0315448 0.0434191 1.82955e-19)
(-0.0363142 0.0447272 -9.30988e-20)
(-0.0407459 0.0451147 7.45096e-20)
(-0.0447623 0.0447481 8.20634e-21)
(-0.0482982 0.0437905 -2.03914e-20)
(-0.0513013 0.042403 5.10394e-20)
(-0.0537327 0.040747 -9.98533e-20)
(-0.0555703 0.038987 5.24251e-20)
(-0.0568136 0.0372922 1.69537e-19)
(-0.0574893 0.0358357 -2.48389e-19)
(-0.0576599 0.03479 -1.5926e-19)
(-0.0574679 0.0343035 2.09813e-19)
(-0.0570177 0.0344904 -1.2325e-19)
(-0.0560738 0.035525 -1.92526e-19)
(-0.00231166 0.00676219 1.08316e-19)
(-0.0068774 0.0178379 -1.11078e-19)
(-0.0119424 0.0267905 9.02942e-20)
(-0.0171504 0.0338607 1.45136e-19)
(-0.0223732 0.0392266 -2.67721e-20)
(-0.0274908 0.0430713 -9.59886e-20)
(-0.0323879 0.0455801 -1.79914e-19)
(-0.0369652 0.0469349 -1.37237e-19)
(-0.0411365 0.0473136 -2.76941e-19)
(-0.0448274 0.0468898 2.8175e-20)
(-0.0479744 0.0458335 -2.48066e-20)
(-0.0505253 0.0443131 -1.98186e-19)
(-0.0524397 0.0424987 1.72099e-19)
(-0.0536928 0.0405651 2.11469e-19)
(-0.054281 0.0386956 -1.07266e-20)
(-0.0542291 0.0370829 1.3009e-19)
(-0.053601 0.0359249 -6.59653e-20)
(-0.0525539 0.0354001 1.05831e-20)
(-0.0512135 0.0356565 1.8628e-19)
(-0.0492887 0.0369249 4.50639e-19)
(-0.00255187 0.00705891 -4.711e-20)
(-0.00748438 0.0186264 -3.29948e-20)
(-0.0127946 0.0279809 9.29998e-20)
(-0.0181438 0.0353683 -1.29872e-19)
(-0.0234107 0.040972 -3.38318e-20)
(-0.0284821 0.0449813 2.01774e-19)
(-0.0332496 0.047588 -4.77576e-20)
(-0.0376195 0.0489808 -1.38526e-19)
(-0.0415103 0.0493439 2.25493e-19)
(-0.0448507 0.0488572 -6.0706e-20)
(-0.0475791 0.0476969 4.44009e-20)
(-0.049643 0.0460376 2.41561e-19)
(-0.0510003 0.0440566 -3.36294e-19)
(-0.0516225 0.0419389 -9.22059e-20)
(-0.0515018 0.0398813 -1.81783e-19)
(-0.0506599 0.0380966 3.69725e-19)
(-0.0491607 0.0368112 1.15832e-20)
(-0.0471762 0.0362391 2.04506e-19)
(-0.0448596 0.0365701 -7.41673e-20)
(-0.0418463 0.0381071 -4.2669e-19)
(-0.00279955 0.00733429 -1.09225e-19)
(-0.00811041 0.0193578 1.58091e-19)
(-0.0136735 0.0290846 2.17387e-21)
(-0.0191669 0.0367648 -1.51723e-21)
(-0.0244762 0.0425864 1.6555e-19)
(-0.0294947 0.0467445 1.19448e-19)
(-0.0341207 0.049437 -4.4863e-21)
(-0.0382664 0.0508586 3.58692e-19)
(-0.0418548 0.0511994 1.3768e-19)
(-0.0448181 0.0506444 -2.5359e-19)
(-0.0470962 0.049375 1.20454e-20)
(-0.0486361 0.0475711 -8.76963e-21)
(-0.0493935 0.0454162 3.55985e-19)
(-0.0493355 0.0431038 -3.98944e-19)
(-0.048449 0.0408441 1.103e-19)
(-0.0467506 0.03887 4.09694e-21)
(-0.0443026 0.0374393 -2.82996e-19)
(-0.0412918 0.0368076 -2.94234e-19)
(-0.0379074 0.0372152 -3.55478e-20)
(-0.033684 0.0390587 4.3306e-19)
(-0.00305373 0.00758828 3.5325e-20)
(-0.00875277 0.0200314 -1.1253e-19)
(-0.0145749 0.0301 1.08759e-19)
(-0.0202142 0.0380474 -1.62874e-19)
(-0.0255625 0.0440662 2.02436e-19)
(-0.0305199 0.0483566 -3.39673e-19)
(-0.034991 0.0511222 -8.39425e-20)
(-0.0388937 0.0525631 -1.8754e-19)
(-0.0421559 0.0528745 -8.85495e-20)
(-0.0447129 0.0522461 1.58064e-19)
(-0.0465061 0.0508633 3.22931e-19)
(-0.0474821 0.04891 -3.62585e-19)
(-0.0475936 0.0465746 -1.3581e-19)
(-0.0468025 0.0440578 4.93455e-19)
(-0.0450889 0.0415817 -1.79315e-19)
(-0.0424629 0.0393997 -2.58636e-19)
(-0.0389824 0.0378032 3.28453e-19)
(-0.0348478 0.0370954 6.92986e-20)
(-0.030297 0.0375784 6.6169e-20)
(-0.0247347 0.0397861 -2.78576e-19)
(-0.00331345 0.00782089 1.37858e-20)
(-0.00940876 0.0206468 -5.86373e-20)
(-0.0154943 0.0310259 1.90565e-19)
(-0.0212795 0.0392141 -2.4666e-19)
(-0.026662 0.0454082 -2.04152e-19)
(-0.0315481 0.0498135 1.29284e-19)
(-0.0358486 0.0526388 3.58804e-19)
(-0.0394874 0.0540892 -2.26768e-19)
(-0.0423968 0.0543644 5.48395e-20)
(-0.0445154 0.053658 -1.0929e-19)
(-0.0457859 0.0521582 -4.41791e-19)
(-0.0461542 0.050052 2.67878e-19)
(-0.0455695 0.047531 2.16511e-19)
(-0.0439878 0.0448014 -3.84396e-19)
(-0.0413809 0.0420955 9.01653e-20)
(-0.0377502 0.0396864 3.60015e-19)
(-0.0331464 0.0379007 1.41467e-19)
(-0.0277801 0.0370946 4.98234e-20)
(-0.0219432 0.0376436 -2.92132e-19)
(-0.0149286 0.0403122 -1.43305e-19)
(-0.00357781 0.00803226 -9.55814e-20)
(-0.0100756 0.0212039 -1.756e-19)
(-0.0164273 0.0318613 -1.01407e-19)
(-0.0223566 0.040263 1.34275e-19)
(-0.0277663 0.0466098 -7.84383e-21)
(-0.0325686 0.0511118 3.00905e-19)
(-0.0366806 0.0539828 -2.84737e-20)
(-0.0400316 0.0554326 3.37701e-20)
(-0.0425584 0.055665 2.16481e-19)
(-0.0442028 0.0548763 2.74448e-19)
(-0.0449086 0.0532573 -1.26882e-20)
(-0.0446206 0.0509963 -6.09176e-20)
(-0.0432842 0.0482867 -3.57458e-19)
(-0.0408486 0.045338 2.68331e-19)
(-0.0372759 0.0423908 -2.38036e-20)
(-0.0325563 0.0397358 -1.60965e-19)
(-0.0267311 0.0377356 -8.06798e-19)
(-0.0200181 0.0368045 2.86165e-19)
(-0.0127392 0.0374093 1.52858e-20)
(-0.00415129 0.0405811 -1.78262e-19)
(-0.00384593 0.00822262 8.81286e-20)
(-0.0107507 0.0217027 2.29394e-19)
(-0.0173692 0.0326058 -1.74597e-19)
(-0.0234386 0.0411927 -8.46036e-20)
(-0.0288663 0.0476686 7.07645e-20)
(-0.0335699 0.0522483 -1.71104e-19)
(-0.0374724 0.0551506 -3.17829e-19)
(-0.0405083 0.0565895 1.88303e-19)
(-0.042619 0.0567725 -2.16629e-20)
(-0.0437488 0.0558984 -4.3353e-19)
(-0.0438428 0.0541592 8.32849e-20)
(-0.0428442 0.0517436 4.69353e-20)
(-0.0406941 0.0488451 -8.18056e-20)
(-0.0373341 0.0456744 2.16419e-19)
(-0.0327152 0.0424772 4.22128e-19)
(-0.0268144 0.0395594 -2.75215e-19)
(-0.0196595 0.0373184 2.23792e-19)
(-0.011475 0.0362317 5.46045e-20)
(-0.00260566 0.0368772 3.13358e-19)
(0.00775845 0.0405523 1.42106e-19)
(-0.00411695 0.00839222 -9.66545e-20)
(-0.0114312 0.0221432 -1.1379e-20)
(-0.0183153 0.0332588 2.47355e-19)
(-0.0245184 0.0420021 2.45465e-19)
(-0.0299522 0.0485826 -5.03427e-20)
(-0.0345391 0.0532203 -3.18895e-20)
(-0.0382077 0.0561388 3.1971e-19)
(-0.0408975 0.0575564 -2.48533e-19)
(-0.0425538 0.0576838 7.58216e-20)
(-0.0431236 0.0567219 3.14747e-19)
(-0.0425525 0.0548633 3.0219e-19)
(-0.0407819 0.052296 1.17902e-19)
(-0.0377482 0.0492117 5.16592e-19)
(-0.0333846 0.04582 -7.12401e-20)
(-0.02763 0.0423687 -5.48839e-19)
(-0.0204456 0.0391748 2.70333e-19)
(-0.0118419 0.0366678 -1.44529e-19)
(-0.00204588 0.0353902 -3.36865e-19)
(0.00856571 0.0360503 -2.38948e-19)
(0.0209266 0.0402562 -2.42739e-19)
(-0.00439006 0.00854142 6.17995e-20)
(-0.0121144 0.0225259 1.29397e-19)
(-0.0192604 0.0338202 -9.01327e-20)
(-0.0255884 0.0426901 -1.12133e-19)
(-0.0310133 0.0493501 -1.16404e-19)
(-0.0354622 0.0540254 -3.15086e-20)
(-0.0388686 0.0569445 -3.29813e-19)
(-0.0411767 0.0583302 1.69417e-19)
(-0.0423351 0.0583961 -1.5622e-19)
(-0.0422931 0.0573451 -2.64257e-19)
(-0.0409964 0.0553697 9.38532e-21)
(-0.0383843 0.0526564 -6.71964e-19)
(-0.0343877 0.0493938 -5.22192e-19)
(-0.028931 0.0457876 1.65315e-19)
(-0.0219397 0.0420842 8.37886e-20)
(-0.0133577 0.0386069 -1.80013e-19)
(-0.00317421 0.0358121 6.98941e-19)
(0.00838723 0.0343069 -1.09823e-19)
(0.020908 0.0349394 2.99282e-19)
(0.0355002 0.0397125 2.71256e-19)
(-0.00466446 0.00867057 -8.48034e-20)
(-0.0127974 0.0228511 -2.81261e-19)
(-0.0201993 0.03429 8.93727e-20)
(-0.0266405 0.0432562 4.99548e-21)
(-0.0320384 0.0499697 3.80909e-19)
(-0.036324 0.0546614 -2.2749e-19)
(-0.0394355 0.0575652 1.2476e-19)
(-0.0413208 0.0589082 1.78226e-19)
(-0.0419318 0.0589072 -1.40351e-20)
(-0.0412192 0.0577668 1.10374e-19)
(-0.0391283 0.0556794 3.35902e-19)
(-0.0355953 0.052829 7.03671e-19)
(-0.0305457 0.0494001 5.65776e-20)
(-0.0238939 0.0455924 -3.12759e-19)
(-0.0155518 0.0416469 5.69162e-20)
(-0.0054444 0.0378872 5.54651e-19)
(0.0064636 0.03479 -3.76938e-19)
(0.0199586 0.0330216 1.63371e-21)
(0.0345705 0.0335742 2.91328e-19)
(0.0516531 0.0389419 -1.82342e-19)
(-0.00493937 0.00878007 -8.11872e-20)
(-0.0134774 0.0231193 3.32321e-19)
(-0.0211266 0.0346682 -2.53857e-19)
(-0.027666 0.0436997 -5.19268e-20)
(-0.0330149 0.05044 -8.76384e-20)
(-0.0371077 0.0551264 -2.27881e-19)
(-0.0398865 0.0579984 2.27302e-19)
(-0.0413025 0.0592879 -7.50817e-20)
(-0.0413097 0.0592151 -1.34372e-19)
(-0.0398596 0.0579862 2.20245e-19)
(-0.0368962 0.0557936 -2.55868e-19)
(-0.0323523 0.0528187 -8.26182e-20)
(-0.0261466 0.0492407 -9.23025e-21)
(-0.0181839 0.0452518 2.19542e-19)
(-0.00836137 0.0410839 -1.98877e-19)
(0.00341517 0.0370544 -3.76321e-19)
(0.0172082 0.0336508 -1.15539e-19)
(0.0328206 0.0315898 -1.67388e-19)
(0.0497194 0.0320028 -5.1153e-19)
(0.0695792 0.0379791 -1.5412e-19)
(-0.00521405 0.00887032 1.15168e-19)
(-0.0141515 0.0233309 -1.45878e-19)
(-0.0220364 0.0349551 -1.82831e-19)
(-0.0286556 0.0440203 -1.73027e-19)
(-0.0339295 0.0507601 5.76574e-20)
(-0.0377952 0.0554189 3.24782e-20)
(-0.0401979 0.0582422 8.10903e-20)
(-0.0410913 0.0594673 -2.10889e-19)
(-0.0404308 0.0593181 1.63387e-19)
(-0.0381675 0.0580029 -4.89863e-19)
(-0.034243 0.055714 -2.46225e-19)
(-0.0285856 0.0526306 4.03693e-21)
(-0.0211068 0.0489264 2.18724e-19)
(-0.0117009 0.0447847 -1.43619e-19)
(-0.000250987 0.0404251 3.66978e-19)
(0.0133566 0.0361526 -9.00106e-20)
(0.0292125 0.0324542 1.17256e-19)
(0.0471428 0.0300829 4.43304e-19)
(0.0665369 0.030293 5.84849e-20)
(0.0894876 0.0368784 2.86499e-19)
(-0.00548772 0.00894172 -2.43265e-19)
(-0.0148165 0.0234866 1.96204e-19)
(-0.0229227 0.0351507 2.20565e-19)
(-0.0295994 0.0442176 -1.28328e-19)
(-0.0347678 0.0509291 2.1948e-19)
(-0.0383669 0.0555374 2.12037e-19)
(-0.0403439 0.058295 -3.84584e-20)
(-0.0406544 0.0594447 -7.27315e-20)
(-0.0392538 0.059215 -1.98244e-19)
(-0.0360915 0.0578167 9.30547e-20)
(-0.0311058 0.0554427 9.07141e-21)
(-0.0242188 0.0522704 -2.44012e-19)
(-0.0153342 0.0484685 1.81969e-19)
(-0.00433547 0.0442109 -1.42944e-19)
(0.00890845 0.0397028 -2.60342e-19)
(0.024529 0.0352306 -3.404e-19)
(0.0426449 0.0312687 8.35353e-20)
(0.0631109 0.0285883 1.1637e-19)
(0.0852189 0.0285346 -1.11646e-19)
(0.111598 0.0357182 4.73752e-19)
(-0.00575965 0.00899465 -1.92066e-19)
(-0.0154694 0.0235867 -1.80553e-19)
(-0.0237788 0.0352555 1.42766e-19)
(-0.0304868 0.0442916 8.3129e-20)
(-0.0355142 0.0509464 3.39384e-20)
(-0.0388011 0.0554809 -6.22401e-20)
(-0.0402964 0.0581554 -4.4035e-20)
(-0.0399557 0.059219 1.00712e-19)
(-0.0377335 0.0589051 -9.49374e-20)
(-0.033576 0.057428 7.6342e-19)
(-0.0274162 0.0549821 5.57376e-20)
(-0.0191691 0.051744 -8.57925e-20)
(-0.0087291 0.0478783 -5.66065e-19)
(0.00403131 0.0435502 1.09478e-19)
(0.0192566 0.0389495 -2.80643e-19)
(0.0370938 0.0343393 1.8598e-19)
(0.0576867 0.0301695 1.70823e-19)
(0.0809236 0.0272074 -6.51182e-19)
(0.105972 0.0268398 -2.03063e-19)
(0.136134 0.0346052 -7.07867e-19)
(-0.00602903 0.00902946 9.28846e-20)
(-0.0161067 0.0236318 1.86848e-19)
(-0.0245979 0.0352697 -3.36751e-19)
(-0.0313062 0.0442421 -2.58094e-19)
(-0.0361517 0.0508116 1.30951e-19)
(-0.0390748 0.0552488 1.23453e-19)
(-0.0400247 0.0578227 -2.56318e-19)
(-0.0389562 0.0587896 -2.30855e-20)
(-0.035821 0.0583885 1.3754e-20)
(-0.0305605 0.056838 -2.29895e-19)
(-0.0231007 0.0543353 3.34554e-19)
(-0.0133475 0.0510576 1.94092e-21)
(-0.00118484 0.0471672 4.2449e-19)
(0.0135261 0.0428221 2.88521e-19)
(0.0309418 0.0381974 4.84655e-20)
(0.0512217 0.0335301 6.10638e-19)
(0.0745291 0.029235 -5.55164e-19)
(0.100788 0.0260527 2.57579e-19)
(0.129005 0.0253419 2.01582e-19)
(0.163311 0.033678 1.75263e-19)
(-0.00629505 0.00904646 4.47116e-19)
(-0.0167248 0.0236221 -3.15938e-19)
(-0.0253722 0.0351934 7.68364e-20)
(-0.0320451 0.0440693 2.50483e-19)
(-0.036662 0.0505245 -2.70301e-19)
(-0.0391628 0.054841 1.33784e-20)
(-0.0394959 0.0572969 2.06013e-19)
(-0.0376138 0.0581568 3.79298e-19)
(-0.0334637 0.0576661 5.14356e-19)
(-0.0269803 0.0560488 -4.93309e-19)
(-0.0180804 0.0535063 -2.94658e-19)
(-0.00665913 0.0502182 1.4006e-19)
(0.00741153 0.0463466 -4.03504e-19)
(0.0242819 0.0420452 2.7542e-20)
(0.0441191 0.037477 1.57567e-19)
(0.0670897 0.0328523 1.21097e-19)
(0.0933683 0.0285431 3.74343e-19)
(0.122913 0.0252425 7.87371e-20)
(0.154529 0.024192 -2.83501e-19)
(0.193326 0.0331089 3.06767e-19)
(-0.00655683 0.0090459 -4.23919e-19)
(-0.0173198 0.0235581 3.14619e-19)
(-0.0260938 0.035027 7.6509e-20)
(-0.0326901 0.0437732 -2.48282e-19)
(-0.0370253 0.0500854 1.05e-19)
(-0.0390378 0.0542577 -5.07836e-20)
(-0.0386741 0.0565787 -3.83793e-20)
(-0.0358829 0.0573218 -3.20114e-19)
(-0.030605 0.05674 -5.05967e-19)
(-0.0227661 0.0550639 4.73874e-19)
(-0.0122717 0.0525004 -1.7085e-19)
(0.000995963 0.0492336 5.36378e-21)
(0.0171781 0.0454286 9.7122e-20)
(0.0364368 0.041238 2.06524e-19)
(0.0589471 0.0368166 -2.51059e-20)
(0.084877 0.0323514 -5.83328e-20)
(0.114401 0.0281675 -3.01276e-19)
(0.147502 0.0248949 -2.02198e-19)
(0.182742 0.0235534 -1.9171e-19)
(0.22634 0.0331046 3.09565e-19)
(-0.0068134 0.00902796 3.39876e-19)
(-0.0178874 0.0234398 -8.87409e-20)
(-0.0267535 0.0347706 3.02213e-19)
(-0.0332265 0.0433543 7.33527e-20)
(-0.03722 0.0494949 -1.61862e-19)
(-0.0386704 0.0535001 2.62585e-20)
(-0.037521 0.0556699 -3.45931e-19)
(-0.0337148 0.0562873 1.57574e-19)
(-0.0271844 0.0556142 8.54258e-20)
(-0.0178442 0.0538887 -3.14484e-20)
(-0.00558619 0.0513249 -3.59188e-20)
(0.00972233 0.0481139 4.25984e-20)
(0.028237 0.0444264 -1.94312e-19)
(0.0501312 0.0404186 -4.53388e-19)
(0.0755852 0.0362427 2.30156e-19)
(0.104761 0.0320677 -1.15289e-19)
(0.137817 0.0281743 -2.8465e-20)
(0.174747 0.0251211 4.88992e-19)
(0.213826 0.0235944 5.12248e-19)
(0.262455 0.0339045 -7.90667e-19)
(-0.00706368 0.00899277 -8.67664e-20)
(-0.018423 0.0232674 -9.55493e-20)
(-0.0273418 0.0344246 -1.89393e-19)
(-0.0336381 0.042813 1.38896e-19)
(-0.0372227 0.0487541 2.5233e-19)
(-0.0380287 0.05257 -3.26795e-19)
(-0.0359949 0.0545733 5.22784e-19)
(-0.0310571 0.0550578 -1.02348e-19)
(-0.0231373 0.0542947 1.50059e-20)
(-0.0121366 0.0525311 -3.55826e-19)
(0.00206887 0.0499901 -2.7203e-20)
(0.0196284 0.0468716 -2.94287e-19)
(0.040713 0.0433556 3.95362e-19)
(0.0655065 0.0396064 2.60582e-19)
(0.0941905 0.03578 -5.09962e-19)
(0.126911 0.0320362 -4.34916e-19)
(0.163795 0.0286192 1.0052e-19)
(0.204817 0.0260185 5.86299e-19)
(0.247943 0.0244811 2.70714e-19)
(0.301697 0.0357765 1.47232e-19)
(-0.00730646 0.00894031 2.69337e-20)
(-0.0189212 0.0230408 9.2663e-20)
(-0.0278478 0.033989 1.11633e-19)
(-0.0339077 0.0421501 -9.33971e-20)
(-0.0370082 0.0478645 2.3411e-19)
(-0.0370784 0.0514703 3.14078e-19)
(-0.0340513 0.0532935 4.95121e-21)
(-0.0278537 0.0536394 -4.06625e-19)
(-0.0183952 0.0527898 -3.25513e-19)
(-0.00556109 0.0510021 3.41436e-19)
(0.0107901 0.0485095 -4.57966e-19)
(0.0308257 0.0455231 -5.154e-19)
(0.0547323 0.0422353 -5.16249e-20)
(0.0827023 0.0388229 -2.68797e-20)
(0.114914 0.0354533 1.80369e-19)
(0.151486 0.0322869 1.18527e-19)
(0.192497 0.0295465 1.54081e-19)
(0.237853 0.0276633 -7.24824e-19)
(0.285236 0.0263675 -2.00424e-19)
(0.343997 0.0390001 5.29446e-19)
(-0.00754033 0.00887051 -1.61185e-19)
(-0.0193762 0.0227597 1.57898e-19)
(-0.0282597 0.033464 -1.16579e-19)
(-0.0340161 0.0413667 -5.79353e-20)
(-0.0365488 0.0468286 -1.58036e-19)
(-0.0357823 0.0502051 -1.199e-19)
(-0.0316425 0.0518365 -2.1477e-19)
(-0.0240452 0.0520407 3.55391e-19)
(-0.0128856 0.0511112 1.41499e-19)
(0.00196828 0.0493162 -3.47772e-19)
(0.0206773 0.0469009 5.45626e-19)
(0.0434276 0.0440896 2.80434e-19)
(0.0704202 0.0410891 -2.1237e-19)
(0.101853 0.0380935 -2.98338e-19)
(0.137895 0.0352881 -3.84046e-20)
(0.178627 0.0328453 3.07638e-19)
(0.224058 0.0309885 -2.0581e-19)
(0.273959 0.0301036 7.85431e-20)
(0.325831 0.0293841 1.77195e-19)
(0.389188 0.0438341 4.47483e-19)
(-0.00776366 0.00878315 -1.65236e-20)
(-0.0197816 0.0224239 -3.90001e-19)
(-0.0285645 0.0328499 9.50975e-20)
(-0.0339425 0.0404641 2.11626e-19)
(-0.0358149 0.0456493 -3.89525e-20)
(-0.0341008 0.0487795 -2.56702e-19)
(-0.0287174 0.0502102 2.83311e-19)
(-0.0195684 0.050273 3.24817e-19)
(-0.00653253 0.0492736 1.24432e-19)
(0.010541 0.0474924 6.18622e-19)
(0.0318329 0.0451875 -2.88084e-19)
(0.0575478 0.0425976 1.38219e-19)
(0.0878991 0.0399466 -1.42858e-19)
(0.123086 0.0374484 3.44377e-19)
(0.163259 0.0353123 -3.03201e-20)
(0.208448 0.0337341 -7.97353e-20)
(0.258578 0.0329665 -1.27353e-19)
(0.313187 0.0333556 2.00537e-19)
(0.369819 0.0336538 -5.05978e-19)
(0.436952 0.0505545 -6.87324e-19)
(-0.00797458 0.0086779 -9.35069e-20)
(-0.02013 0.0220327 -3.46562e-20)
(-0.028748 0.032147 -3.15259e-19)
(-0.0336644 0.0394439 1.93129e-19)
(-0.0347745 0.0443305 -1.97312e-19)
(-0.0319911 0.0472001 -2.00576e-19)
(-0.0252219 0.0484249 -1.81161e-20)
(-0.0143565 0.0483504 -3.27632e-19)
(0.000743665 0.0472956 -5.20348e-19)
(0.0202492 0.0455541 1.42494e-19)
(0.0443606 0.0433976 1.59868e-19)
(0.0732987 0.0410803 1.92983e-19)
(0.107286 0.0388438 4.93728e-19)
(0.146515 0.0369236 -4.86064e-20)
(0.19111 0.0355564 -1.07161e-19)
(0.241036 0.0349712 -1.50203e-20)
(0.296124 0.0354855 2.7032e-19)
(0.35555 0.0373955 4.80857e-19)
(0.41722 0.0393815 -1.35163e-19)
(0.486565 0.0596911 4.9861e-19)
(-0.00817089 0.00855432 2.93117e-19)
(-0.0204133 0.0215856 -4.75555e-20)
(-0.0287944 0.0313553 2.7838e-19)
(-0.0331573 0.0383083 -2.85619e-19)
(-0.033393 0.0428768 4.21962e-19)
(-0.0294077 0.0454752 3.53398e-19)
(-0.0210984 0.0464926 -2.90617e-19)
(-0.00833968 0.0462898 -5.41419e-19)
(0.00902533 0.0451997 8.98385e-19)
(0.0311869 0.0435297 2.22086e-19)
(0.0583637 0.0415658 -1.73239e-19)
(0.090789 0.0395776 -1.71387e-19)
(0.128686 0.0378242 -8.53919e-20)
(0.172235 0.0365616 -1.33986e-19)
(0.221519 0.0360534 -4.44107e-19)
(0.276432 0.0365656 -1.21147e-19)
(0.336718 0.0385108 1.00261e-20)
(0.401111 0.0421178 -3.3029e-19)
(0.468229 0.0468791 1.64108e-19)
(0.536951 0.071842 -3.54303e-19)
(-0.00835007 0.00841182 -4.68311e-19)
(-0.0206223 0.0210818 3.15288e-19)
(-0.0286865 0.0304754 -4.69817e-19)
(-0.0323945 0.0370599 -2.56066e-19)
(-0.0316336 0.0412941 9.55183e-20)
(-0.0263025 0.0436145 -3.81864e-19)
(-0.0162868 0.0444281 5.98963e-19)
(-0.00144538 0.0441118 1.03662e-20)
(0.018397 0.0430129 -3.34023e-19)
(0.0434489 0.0414531 -2.92072e-19)
(0.0739437 0.0397328 -5.2201e-19)
(0.11012 0.0381365 -6.35514e-21)
(0.152194 0.0369388 1.92118e-20)
(0.200316 0.036412 -1.20636e-19)
(0.254516 0.0368398 5.3561e-19)
(0.314607 0.0385153 3.31336e-19)
(0.380283 0.0419455 8.2588e-20)
(0.449952 0.0472713 -3.55882e-19)
(0.523699 0.0560879 -1.93118e-20)
(0.589389 0.0848274 -5.8324e-19)
(-0.00850921 0.00824974 1.66351e-19)
(-0.020747 0.0205203 -3.15294e-19)
(-0.0284055 0.0295078 4.05622e-19)
(-0.0313475 0.0357017 5.70571e-19)
(-0.0294568 0.0395892 -1.85766e-19)
(-0.0226245 0.0416295 2.42389e-20)
(-0.0107241 0.0422486 -5.04894e-19)
(0.00640128 0.0418398 -1.25565e-19)
(0.0289442 0.0407659 -3.91798e-19)
(0.0571289 0.039363 5.11313e-19)
(0.0911973 0.0379455 4.74342e-19)
(0.131385 0.0368112 -8.43863e-20)
(0.177883 0.0362465 -6.35738e-20)
(0.230795 0.0365333 -5.56122e-21)
(0.290075 0.0379618 9.61815e-20)
(0.355434 0.0408236 -1.73298e-19)
(0.426521 0.0456706 -2.0152e-19)
(0.501639 0.0524764 4.28058e-19)
(0.583593 0.0655515 -1.38232e-19)
(0.652205 0.0900578 1.56988e-20)
(-0.00864498 0.00806728 4.39262e-20)
(-0.020776 0.0199004 6.37668e-20)
(-0.0279309 0.0284533 -2.12336e-19)
(-0.0299858 0.0342376 -5.88023e-19)
(-0.0268211 0.0377699 9.54093e-20)
(-0.0183203 0.0395334 2.89113e-19)
(-0.00434517 0.0399735 1.32083e-19)
(0.0152766 0.0395008 5.67244e-19)
(0.0407527 0.0384938 -3.56493e-19)
(0.072318 0.0373031 -4.63876e-19)
(0.110215 0.0362563 -8.50121e-20)
(0.154661 0.0356622 2.11914e-19)
(0.205805 0.035814 4.64238e-20)