/*--------------------------------*- C++ -*----------------------------------*\
  =========                 |
  \\      /  F ield         | OpenFOAM: The Open Source CFD Toolbox
   \\    /   O peration     | Website:  https://openfoam.org
    \\  /    A nd           | Version:  7
     \\/     M anipulation  |
\*---------------------------------------------------------------------------*/
FoamFile
{
    version     2.0;
    format      ascii;
    class       volScalarField;
    location    "30";
    object      p;
}
// * * * * * * * * * * * * * * * * * * * * * * * * * * * * * * * * * * * * * //

dimensions      [0 2 -2 0 0 0 0];

internalField   nonuniform List<scalar> 
3025
(
0.133555
0.143564
0.157416
0.156623
0.16904
0.180773
0.183752
0.194177
0.203049
0.200921
0.210645
0.218121
0.222768
0.22003
0.229536
0.23726
0.240366
0.239154
0.250409
0.258026
0.263988
0.2654
0.264467
0.273398
0.280494
0.286224
0.290412
0.290537
0.289586
0.29887
0.305002
0.310146
0.313977
0.316343
0.315036
0.313394
0.331881
0.33605
0.339234
0.341158
0.341692
0.338889
0.33619
0.364209
0.36641
0.367635
0.367653
0.366356
0.36203
0.358075
0.395085
0.395717
0.395957
0.395235
0.393356
0.390234
0.384374
0.379051
0.427541
0.426271
0.424571
0.421924
0.418171
0.413245
0.405851
0.399103
0.462321
0.458887
0.455743
0.452137
0.4476
0.442008
0.435313
0.426406
0.418205
0.49417
0.488987
0.484012
0.478545
0.472168
0.464785
0.45637
0.445985
0.436333
0.524594
0.517712
0.510961
0.503692
0.495535
0.486423
0.476351
0.464537
0.453456
0.56296
0.553456
0.544937
0.536477
0.527479
0.517617
0.506849
0.495192
0.482012
0.469541
0.591581
0.580626
0.570545
0.560457
0.549813
0.538332
0.525994
0.512837
0.498362
0.484557
0.618309
0.605983
0.594426
0.582802
0.570608
0.557603
0.54379
0.529227
0.513539
0.498467
0.64302
0.629412
0.616477
0.60342
0.589783
0.575361
0.560177
0.544312
0.527497
0.51124
0.682023
0.6656
0.650809
0.636603
0.622227
0.607262
0.591539
0.575098
0.558039
0.540195
0.522841
0.703333
0.685943
0.670078
0.654718
0.639145
0.622977
0.606077
0.5885
0.570365
0.551591
0.533241
0.722206
0.703956
0.687132
0.670743
0.654104
0.636867
0.61892
0.600335
0.581246
0.561648
0.542409
0.738554
0.719553
0.701895
0.68461
0.667044
0.648876
0.630021
0.610561
0.590645
0.570334
0.550319
0.752299
0.732664
0.7143
0.696258
0.677909
0.658958
0.639337
0.61914
0.598529
0.577618
0.556948
0.763374
0.743226
0.724291
0.705638
0.686656
0.667072
0.646833
0.626042
0.60487
0.583476
0.562277
0.771727
0.751192
0.731825
0.712708
0.693249
0.673186
0.65248
0.631241
0.609647
0.587888
0.566287
0.777318
0.756523
0.736866
0.717439
0.697659
0.677275
0.656257
0.634717
0.61284
0.590837
0.568968
0.78012
0.759194
0.739392
0.71981
0.699869
0.679324
0.658149
0.636459
0.61444
0.592315
0.570311
0.78012
0.759194
0.739392
0.71981
0.699869
0.679324
0.658149
0.636459
0.61444
0.592315
0.570311
0.777318
0.756523
0.736866
0.717439
0.697659
0.677275
0.656257
0.634717
0.61284
0.590837
0.568968
0.771727
0.751192
0.731825
0.712708
0.693249
0.673186
0.65248
0.631241
0.609647
0.587888
0.566287
0.763374
0.743226
0.724291
0.705638
0.686656
0.667072
0.646833
0.626042
0.60487
0.583476
0.562277
0.752299
0.732664
0.7143
0.696258
0.677909
0.658958
0.639337
0.61914
0.598529
0.577618
0.556948
0.738554
0.719553
0.701895
0.68461
0.667044
0.648876
0.630021
0.610561
0.590645
0.570334
0.550319
0.722206
0.703956
0.687132
0.670743
0.654104
0.636867
0.61892
0.600335
0.581246
0.561648
0.542409
0.703333
0.685943
0.670078
0.654718
0.639145
0.622977
0.606077
0.5885
0.570365
0.551591
0.533241
0.682023
0.6656
0.650809
0.636603
0.622227
0.607262
0.591539
0.575098
0.558039
0.540195
0.522841
0.64302
0.629412
0.616477
0.60342
0.589783
0.575361
0.560177
0.544312
0.527497
0.51124
0.618309
0.605983
0.594426
0.582802
0.570608
0.557603
0.54379
0.529227
0.513539
0.498467
0.591581
0.580626
0.570545
0.560457
0.549813
0.538332
0.525994
0.512837
0.498362
0.484557
0.56296
0.553456
0.544937
0.536477
0.527479
0.517617
0.506849
0.495192
0.482012
0.469541
0.524594
0.517712
0.510961
0.503692
0.495536
0.486423
0.476351
0.464537
0.453456
0.49417
0.488987
0.484012
0.478545
0.472168
0.464785
0.45637
0.445985
0.436333
0.462321
0.458887
0.455743
0.452137
0.4476
0.442008
0.435313
0.426406
0.418205
0.427541
0.426271
0.424571
0.421924
0.418171
0.413245
0.405851
0.399103
0.395085
0.395717
0.395957
0.395235
0.393356
0.390234
0.384374
0.379051
0.364209
0.36641
0.367635
0.367653
0.366356
0.36203
0.358075
0.331881
0.33605
0.339234
0.341158
0.341692
0.338889
0.33619
0.305002
0.310146
0.313977
0.316343
0.315036
0.313394
0.273398
0.280494
0.286224
0.290412
0.290537
0.289586
0.250409
0.258026
0.263988
0.2654
0.264467
0.22003
0.229536
0.23726
0.240366
0.239154
0.200921
0.210646
0.218121
0.222768
0.183752
0.194177
0.203049
0.156623
0.16904
0.180773
0.143564
0.157416
0.133555
0.220187
0.193762
0.168422
0.145774
0.123263
0.100809
0.208257
0.184707
0.160168
0.138984
0.118206
0.0973788
0.192184
0.169978
0.147134
0.127703
0.108937
0.0901547
0.177132
0.156812
0.136133
0.118501
0.10154
0.0845706
0.163503
0.145105
0.126551
0.110625
0.095307
0.0799895
0.151437
0.134759
0.11814
0.10377
0.0899339
0.0761112
0.140791
0.125669
0.110812
0.0978702
0.0853806
0.0729097
0.131418
0.117722
0.104457
0.092817
0.0815465
0.0702931
0.123208
0.11082
0.0989807
0.0885128
0.0783395
0.068178
0.116051
0.104854
0.094282
0.0848641
0.0756748
0.0664907
0.10983
0.0997158
0.0902665
0.0817853
0.0734769
0.0651666
0.104438
0.0953044
0.0868483
0.0792011
0.0716801
0.0641505
0.0997803
0.09153
0.0839512
0.0770455
0.0702277
0.0957681
0.0883128
0.0815083
0.0752614
0.0690713
0.0923247
0.0855825
0.0794611
0.0737994
0.0681695
0.0893815
0.0832779
0.0777588
0.0726168
0.0674869
0.0868782
0.0813457
0.0763574
0.0716767
0.066993
0.0847613
0.079739
0.0752181
0.0709469
0.0666612
0.0829833
0.0784163
0.0743069
0.0703987
0.0664678
0.0815021
0.0773411
0.0735935
0.0700068
0.0663918
0.0802796
0.0764804
0.0730504
0.069748
0.0664141
0.0792817
0.0758046
0.072653
0.0696015
0.066517
0.0784777
0.0752865
0.0723785
0.0695478
0.0666842
0.0778396
0.0749018
0.072206
0.0695692
0.0669003
0.0773421
0.0746279
0.0721166
0.0696489
0.0671511
0.0769622
0.0744443
0.0720922
0.0697714
0.067423
0.0766794
0.0743323
0.0721168
0.0699225
0.0677033
0.0764749
0.0742747
0.0721749
0.0700881
0.0679796
0.0763326
0.0742567
0.0722533
0.0702565
0.0682411
0.0762365
0.0742625
0.0723371
0.0704135
0.0684743
0.0761771
0.0742835
0.0724188
0.0705524
0.0686732
0.0761366
0.0743
0.0724775
0.0706514
0.0688152
0.0761214
0.0743208
0.0725243
0.0707234
0.068915
0.076097
0.0743019
0.0725067
0.070708
0.0689043
0.245047
0.246544
0.250039
0.254835
0.260982
0.268185
0.276306
0.285072
0.294174
0.303185
0.311555
0.318589
0.323406
0.325001
0.322118
0.313687
0.29786
0.27521
0.232177
0.244129
0.245558
0.248892
0.253456
0.25927
0.266034
0.27358
0.281612
0.28979
0.297658
0.304637
0.310019
0.312931
0.312407
0.307293
0.296649
0.278852
0.254972
0.213589
0.243132
0.244497
0.247664
0.251983
0.257449
0.26376
0.270724
0.278031
0.285319
0.292121
0.297855
0.301827
0.30321
0.301118
0.294528
0.282673
0.264159
0.240624
0.202394
0.242044
0.243334
0.246316
0.250364
0.255448
0.261262
0.267591
0.27411
0.280439
0.2861
0.290513
0.293003
0.292793
0.289085
0.280993
0.267925
0.248765
0.22521
0.189382
0.240861
0.242069
0.244851
0.248609
0.253287
0.258575
0.264239
0.269937
0.275277
0.279773
0.282855
0.283877
0.28212
0.276877
0.267406
0.253278
0.233658
0.210101
0.176572
0.23958
0.2407
0.243271
0.246723
0.250975
0.255717
0.260694
0.265557
0.269901
0.273247
0.275038
0.274667
0.271486
0.264886
0.254271
0.239353
0.21957
0.196289
0.165058
0.238194
0.239223
0.241571
0.244701
0.24851
0.252687
0.256961
0.260977
0.26433
0.266546
0.267098
0.265425
0.260956
0.253185
0.241655
0.226204
0.206505
0.183739
0.154718
0.236701
0.237632
0.239747
0.242541
0.24589
0.249484
0.253042
0.256207
0.258577
0.259695
0.259067
0.256188
0.250568
0.241802
0.229565
0.213801
0.194377
0.172298
0.145371
0.235097
0.235925
0.237797
0.240241
0.243115
0.246113
0.248947
0.251262
0.252666
0.252726
0.250987
0.247006
0.240376
0.230789
0.218038
0.202154
0.183158
0.161902
0.136952
0.233377
0.234099
0.235718
0.2378
0.240187
0.242579
0.244686
0.24616
0.246625
0.245676
0.242906
0.237935
0.230437
0.220197
0.207109
0.191277
0.172833
0.152502
0.129411
0.231541
0.232151
0.23351
0.235219
0.23711
0.238891
0.240274
0.240924
0.240484
0.238585
0.23487
0.229024
0.220801
0.210067
0.196803
0.181169
0.163374
0.144037
0.122685
0.229586
0.230081
0.231172
0.232501
0.23389
0.235061
0.235728
0.235577
0.234274
0.231492
0.226925
0.220322
0.211511
0.200431
0.187133
0.171819
0.154743
0.13644
0.116712
0.227512
0.227889
0.228708
0.22965
0.230536
0.231099
0.231068
0.230145
0.22803
0.224437
0.219113
0.211871
0.202604
0.191313
0.178105
0.163206
0.146898
0.129644
0.111427
0.22532
0.225576
0.22612
0.226673
0.227058
0.227023
0.226313
0.224656
0.221785
0.217459
0.211477
0.203709
0.194108
0.182728
0.169713
0.155306
0.139796
0.123584
0.106768
0.223012
0.223146
0.223414
0.223578
0.223467
0.222849
0.221488
0.21914
0.215575
0.210595
0.204052
0.195869
0.186049
0.174684
0.161948
0.148088
0.133388
0.118196
0.102678
0.220593
0.220604
0.220597
0.220376
0.219779
0.218598
0.216618
0.213627
0.209434
0.203883
0.196875
0.188379
0.17844
0.167181
0.154792
0.141517
0.127626
0.11342
0.0990983
0.21807
0.217957
0.217679
0.217079
0.216011
0.21429
0.211729
0.208149
0.203394
0.197355
0.189973
0.18126
0.171293
0.160216
0.148226
0.135558
0.122462
0.109199
0.095978
0.21545
0.215215
0.214671
0.213702
0.212182
0.209951
0.20685
0.202735
0.19749
0.191042
0.183374
0.174529
0.164612
0.153778
0.142224
0.130172
0.117849
0.105479
0.0932683
0.212744
0.21239
0.211587
0.210262
0.208312
0.205604
0.20201
0.197418
0.19175
0.184971
0.177097
0.168198
0.158395
0.147852
0.136758
0.12532
0.113741
0.102211
0.0909248
0.209965
0.209495
0.208445
0.206781
0.204426
0.201277
0.197236
0.192227
0.186205
0.179168
0.17116
0.162272
0.152638
0.14242
0.1318
0.120965
0.110095
0.0993501
0.088907
0.207131
0.206548
0.205264
0.203279
0.200548
0.196997
0.192559
0.187191
0.18088
0.173651
0.165574
0.156755
0.147331
0.137463
0.12732
0.11707
0.106869
0.0968532
0.0871778
0.204259
0.20357
0.202065
0.199782
0.196706
0.192794
0.188009
0.182338
0.175798
0.168441
0.16035
0.151645
0.142464
0.132959
0.123288
0.113598
0.104024
0.0946822
0.0857036
0.201373
0.200584
0.198875
0.196317
0.192929
0.188696
0.183613
0.177694
0.170983
0.16355
0.155494
0.146939
0.138021
0.128886
0.119673
0.110515
0.101526
0.0928021
0.084454
0.198498
0.197615
0.19572
0.192913
0.189246
0.184735
0.179401
0.173286
0.166453
0.158991
0.151008
0.14263
0.133989
0.12522
0.116448
0.107789
0.0993404
0.0911809
0.0834014
0.195663
0.194695
0.192631
0.189602
0.185691
0.180941
0.175402
0.169136
0.162227
0.154775
0.146896
0.138712
0.130353
0.12194
0.113587
0.105392
0.097438
0.0897902
0.0825208
0.192901
0.191856
0.189642
0.186418
0.182296
0.177348
0.171644
0.16527
0.158322
0.150911
0.143156
0.135178
0.127097
0.119026
0.111064
0.103296
0.0957915
0.088604
0.0817898
0.190248
0.189134
0.18679
0.183397
0.179097
0.173987
0.168157
0.161709
0.154754
0.147408
0.13979
0.13202
0.124209
0.116458
0.108856
0.101477
0.0943768
0.0875997
0.0811885
0.187744
0.18657
0.184115
0.18058
0.176133
0.170892
0.164969
0.158478
0.15154
0.144274
0.1368
0.129233
0.121675
0.114221
0.106946
0.0999142
0.093173
0.0867574
0.0806992
0.185433
0.184208
0.181661
0.178008
0.173442
0.168101
0.162113
0.155602
0.148696
0.141519
0.134188
0.126812
0.119488
0.1123
0.105316
0.0985904
0.0921622
0.08606
0.0803065
0.183364
0.182095
0.179473
0.175726
0.171067
0.165652
0.159621
0.153107
0.146245
0.139157
0.13196
0.124759
0.117643
0.110688
0.103955
0.0974916
0.0913301
0.0854933
0.079997
0.181587
0.180284
0.177603
0.173783
0.169054
0.163587
0.157529
0.151025
0.144208
0.137204
0.130127
0.123076
0.116137
0.109378
0.102855
0.0966084
0.0906663
0.0850469
0.079761
0.18016
0.178829
0.176106
0.172234
0.167454
0.161951
0.15588
0.149389
0.142615
0.135683
0.128705
0.121776
0.114977
0.108373
0.102014
0.0959361
0.0901639
0.084712
0.0795873
0.179142
0.177793
0.175042
0.171134
0.166322
0.160797
0.154721
0.148243
0.141502
0.134623
0.127717
0.120875
0.114176
0.107681
0.101436
0.0954763
0.0898225
0.0844877
0.0794774
0.178601
0.177239
0.174474
0.17055
0.165721
0.160186
0.154108
0.147638
0.140916
0.134066
0.127198
0.120403
0.113757
0.10732
0.101136
0.0952369
0.0896442
0.0843686
0.0794136
0.252484
0.254115
0.258166
0.263753
0.27113
0.280051
0.290601
0.302742
0.316517
0.331953
0.349077
0.367922
0.388491
0.410781
0.434737
0.460273
0.487198
0.515348
0.544114
0.252459
0.254089
0.258139
0.263723
0.271097
0.280013
0.290556
0.302688
0.31645
0.331867
0.348966
0.367775
0.388296
0.410523
0.434393
0.459816
0.486595
0.514555
0.543088
0.252408
0.254037
0.258084
0.263664
0.271032
0.279938
0.290467
0.30258
0.316316
0.331695
0.348743
0.367482
0.387907
0.410006
0.433705
0.458903
0.485391
0.51297
0.54104
0.252332
0.25396
0.258002
0.263575
0.270933
0.279826
0.290334
0.302418
0.316114
0.331438
0.348409
0.367043
0.387325
0.409231
0.432674
0.457535
0.483587
0.510596
0.537976
0.252231
0.253857
0.257893
0.263458
0.270802
0.279676
0.290158
0.302203
0.315846
0.331096
0.347964
0.366458
0.38655
0.4082
0.431302
0.455715
0.481187
0.50744
0.533904
0.252104
0.253728
0.257757
0.263312
0.270639
0.279489
0.289937
0.301936
0.315512
0.33067
0.34741
0.365729
0.385582
0.406913
0.42959
0.453445
0.478196
0.503507
0.528836
0.251953
0.253574
0.257593
0.263129
0.270444
0.279265
0.289673
0.301615
0.315112
0.330159
0.346747
0.364856
0.384424
0.405373
0.427542
0.450728
0.474618
0.498806
0.522787
0.251777
0.253395
0.257404
0.262908
0.270216
0.279005
0.289366
0.301242
0.314647
0.329565
0.345975
0.363841
0.383077
0.403582
0.425158
0.44757
0.470459
0.493347
0.515773
0.251576
0.253191
0.257189
0.262723
0.269957
0.278709
0.289017
0.300818
0.314117
0.32889
0.345096
0.362685
0.381543
0.401542
0.422444
0.443974
0.465727
0.487141
0.507813
0.251351
0.252962
0.256947
0.262447
0.269666
0.278378
0.288626
0.300343
0.313525
0.328133
0.344112
0.361389
0.379823
0.399255
0.419401
0.439947
0.460428
0.4802
0.498928
0.251101
0.25271
0.25668
0.262152
0.269346
0.278012
0.288194
0.299819
0.312869
0.327295
0.343023
0.359955
0.37792
0.396725
0.416035
0.435494
0.454572
0.472539
0.489139
0.250828
0.252433
0.256387
0.261837
0.268996
0.277611
0.287722
0.299244
0.312152
0.326379
0.341831
0.358386
0.375836
0.393954
0.412349
0.430621
0.448165
0.464173
0.478467
0.25053
0.252132
0.25607
0.261496
0.268616
0.277177
0.28721
0.298622
0.311375
0.325386
0.340538
0.356683
0.373574
0.390947
0.408347
0.425336
0.441216
0.455118
0.466933
0.250209
0.251808
0.255727
0.261129
0.268208
0.276711
0.286659
0.297952
0.310539
0.324316
0.339146
0.354847
0.371137
0.387706
0.404034
0.419644
0.433733
0.44539
0.454558
0.249865
0.251462
0.255361
0.260736
0.267771
0.276211
0.28607
0.297237
0.309644
0.323172
0.337655
0.352883
0.368527
0.384235
0.399416
0.413554
0.425725
0.435007
0.441358
0.249499
0.251094
0.254977
0.260318
0.267307
0.275681
0.285444
0.296475
0.308693
0.321955
0.33607
0.350791
0.365748
0.380538
0.394497
0.407072
0.417198
0.423988
0.427345
0.249109
0.250703
0.254564
0.259876
0.266816
0.27512
0.284782
0.295671
0.307686
0.320667
0.334391
0.348576
0.362803
0.376619
0.389284
0.400204
0.40816
0.41235
0.412524
0.248698
0.250287
0.254129
0.25941
0.266299
0.274529
0.284085
0.294824
0.306627
0.319311
0.332622
0.34624
0.359699
0.372486
0.383785
0.392961
0.398622
0.400113
0.396894
0.248265
0.249846
0.253673
0.258922
0.265756
0.273909
0.283354
0.293934
0.305514
0.317885
0.330762
0.343784
0.356432
0.368135
0.377999
0.385341
0.388585
0.38729
0.380444
0.24781
0.249414
0.253195
0.258409
0.265187
0.273257
0.282583
0.292996
0.30434
0.316379
0.328796
0.341187
0.35298
0.36354
0.371896
0.377308
0.378015
0.373849
0.363111
0.247335
0.248933
0.252698
0.257876
0.264595
0.272581
0.281783
0.292021
0.303117
0.314808
0.326743
0.338469
0.349364
0.358721
0.365495
0.368877
0.366932
0.359803
0.344831
0.246841
0.248441
0.25219
0.257338
0.264004
0.271913
0.281004
0.291078
0.30194
0.313298
0.324765
0.33584
0.345842
0.35399
0.35916
0.360444
0.35575
0.345555
0.325911
0.246327
0.247937
0.25167
0.256794
0.263416
0.271261
0.280256
0.290189
0.300845
0.311902
0.322937
0.333398
0.342542
0.349506
0.353074
0.352202
0.344648
0.331188
0.306456
0.245784
0.24738
0.25106
0.256111
0.262624
0.270323
0.279114
0.28877
0.299047
0.309589
0.319927
0.329453
0.337364
0.342716
0.344227
0.340741
0.329963
0.312779
0.281724
0.245784
0.24738
0.25106
0.256111
0.262624
0.270323
0.279114
0.28877
0.299047
0.309589
0.319927
0.329453
0.337364
0.342716
0.344227
0.340741
0.329963
0.312779
0.281724
0.246327
0.247937
0.25167
0.256794
0.263416
0.271261
0.280256
0.290189
0.300845
0.311902
0.322937
0.333398
0.342542
0.349506
0.353074
0.352202
0.344648
0.331188
0.306456
0.246841
0.248441
0.25219
0.257338
0.264004
0.271913
0.281004
0.291078
0.30194
0.313298
0.324765
0.33584
0.345842
0.35399
0.35916
0.360444
0.35575
0.345555
0.325911
0.247335
0.248933
0.252698
0.257876
0.264595
0.272581
0.281783
0.292021
0.303117
0.314808
0.326743
0.338469
0.349364
0.358721
0.365496
0.368877
0.366932
0.359803
0.344831
0.24781
0.249414
0.253195
0.258409
0.265187
0.273257
0.282583
0.292996
0.30434
0.316379
0.328797
0.341187
0.35298
0.36354
0.371896
0.377308
0.378015
0.373849
0.363111
0.248265
0.249847
0.253673
0.258922
0.265756
0.273909
0.283354
0.293934
0.305514
0.317885
0.330762
0.343784
0.356432
0.368135
0.377999
0.385341
0.388585
0.38729
0.380444
0.248698
0.250287
0.254129
0.25941
0.266299
0.274529
0.284085
0.294824
0.306627
0.319311
0.332622
0.34624
0.359699
0.372486
0.383785
0.392961
0.398622
0.400113
0.396895
0.249109
0.250703
0.254564
0.259876
0.266816
0.27512
0.284782
0.295671
0.307686
0.320667
0.334391
0.348576
0.362803
0.376619
0.389284
0.400204
0.40816
0.41235
0.412524
0.249499
0.251094
0.254977
0.260318
0.267307
0.275681
0.285444
0.296475
0.308693
0.321955
0.33607
0.350791
0.365748
0.380538
0.394497
0.407072
0.417198
0.423988
0.427345
0.249865
0.251462
0.255361
0.260736
0.267771
0.276211
0.28607
0.297237
0.309644
0.323172
0.337655
0.352883
0.368527
0.384235
0.399416
0.413554
0.425725
0.435007
0.441358
0.250209
0.251808
0.255727
0.261129
0.268208
0.276711
0.286659
0.297952
0.310539
0.324316
0.339146
0.354847
0.371137
0.387706
0.404034
0.419644
0.433733
0.44539
0.454558
0.25053
0.252132
0.25607
0.261496
0.268616
0.277177
0.28721
0.298622
0.311375
0.325386
0.340538
0.356683
0.373574
0.390947
0.408347
0.425336
0.441216
0.455118
0.466933
0.250828
0.252433
0.256387
0.261837
0.268996
0.277611
0.287722
0.299244
0.312152
0.326379
0.341831
0.358386
0.375836
0.393954
0.412349
0.430621
0.448165
0.464173
0.478467
0.251101
0.25271
0.25668
0.262152
0.269346
0.278012
0.288194
0.299819
0.312869
0.327295
0.343023
0.359955
0.37792
0.396725
0.416035
0.435494
0.454572
0.472539
0.489139
0.251351
0.252962
0.256947
0.262447
0.269666
0.278378
0.288626
0.300343
0.313525
0.328133
0.344112
0.361389
0.379823
0.399255
0.419401
0.439947
0.460428
0.4802
0.498928
0.251576
0.253191
0.257189
0.262723
0.269957
0.278709
0.289017
0.300818
0.314117
0.32889
0.345096
0.362685
0.381543
0.401542
0.422444
0.443974
0.465727
0.487141
0.507813
0.251777
0.253395
0.257404
0.262908
0.270216
0.279005
0.289366
0.301242
0.314647
0.329565
0.345975
0.363841
0.383077
0.403582
0.425158
0.44757
0.470459
0.493347
0.515773
0.251953
0.253574
0.257593
0.263129
0.270444
0.279265
0.289673
0.301615
0.315112
0.330159
0.346747
0.364856
0.384424
0.405373
0.427542
0.450728
0.474618
0.498806
0.522787
0.252104
0.253728
0.257757
0.263312
0.270639
0.279489
0.289937
0.301936
0.315512
0.33067
0.34741
0.365729
0.385582
0.406913
0.42959
0.453445
0.478196
0.503507
0.528836
0.252231
0.253857
0.257893
0.263458
0.270802
0.279676
0.290158
0.302203
0.315846
0.331096
0.347964
0.366458
0.38655
0.4082
0.431302
0.455715
0.481188
0.50744
0.533904
0.252332
0.25396
0.258002
0.263575
0.270933
0.279826
0.290334
0.302418
0.316114
0.331438
0.348409
0.367043
0.387325
0.409231
0.432674
0.457535
0.483587
0.510596
0.537976
0.252408
0.254037
0.258084
0.263664
0.271032
0.279938
0.290467
0.30258
0.316316
0.331695
0.348743
0.367482
0.387907
0.410006
0.433705
0.458903
0.485391
0.51297
0.54104
0.252459
0.254089
0.258139
0.263723
0.271097
0.280013
0.290556
0.302688
0.31645
0.331867
0.348966
0.367775
0.388296
0.410523
0.434393
0.459816
0.486595
0.514555
0.543088
0.252484
0.254115
0.258166
0.263753
0.27113
0.280051
0.290601
0.302742
0.316517
0.331953
0.349077
0.367922
0.388491
0.410781
0.434737
0.460273
0.487198
0.515348
0.544114
0.178601
0.177239
0.174474
0.17055
0.165721
0.160186
0.154108
0.147638
0.140916
0.134066
0.127198
0.120403
0.113757
0.10732
0.101136
0.0952369
0.0896442
0.0843686
0.0794136
0.179142
0.177793
0.175042
0.171134
0.166322
0.160797
0.154721
0.148243
0.141502
0.134623
0.127717
0.120875
0.114176
0.107681
0.101436
0.0954763
0.0898225
0.0844878
0.0794774
0.18016
0.178829
0.176106
0.172234
0.167454
0.161951
0.15588
0.149389
0.142615
0.135683
0.128705
0.121776
0.114977
0.108373
0.102014
0.0959361
0.090164
0.0847121
0.0795874
0.181587
0.180284
0.177603
0.173783
0.169054
0.163587
0.157529
0.151025
0.144208
0.137204
0.130127
0.123076
0.116137
0.109378
0.102855
0.0966084
0.0906663
0.0850469
0.0797611
0.183364
0.182095
0.179473
0.175726
0.171067
0.165652
0.159621
0.153107
0.146245
0.139157
0.13196
0.124759
0.117643
0.110688
0.103955
0.0974916
0.0913302
0.0854934
0.079997
0.185433
0.184208
0.181661
0.178008
0.173442
0.168101
0.162113
0.155602
0.148696
0.141519
0.134188
0.126812
0.119489
0.1123
0.105316
0.0985904
0.0921622
0.08606
0.0803065
0.187744
0.18657
0.184116
0.18058
0.176133
0.170892
0.164969
0.158478
0.15154
0.144274
0.1368
0.129233
0.121675
0.114221
0.106946
0.0999143
0.093173
0.0867574
0.0806992
0.190248
0.189134
0.18679
0.183397
0.179097
0.173987
0.168157
0.161709
0.154754
0.147408
0.13979
0.13202
0.124209
0.116458
0.108856
0.101477
0.0943769
0.0875998
0.0811886
0.192901
0.191856
0.189642
0.186418
0.182296
0.177348
0.171644
0.16527
0.158322
0.150911
0.143156
0.135178
0.127097
0.119026
0.111064
0.103296
0.0957915
0.0886041
0.0817899
0.195663
0.194695
0.192631
0.189602
0.185691
0.180941
0.175402
0.169136
0.162227
0.154775
0.146896
0.138712
0.130353
0.12194
0.113587
0.105392
0.097438
0.0897902
0.0825209
0.198498
0.197616
0.19572
0.192913
0.189246
0.184735
0.179401
0.173286
0.166453
0.158991
0.151008
0.14263
0.133989
0.12522
0.116448
0.107789
0.0993404
0.091181
0.0834014
0.201373
0.200584
0.198875
0.196317
0.192929
0.188696
0.183613
0.177694
0.170983
0.16355
0.155494
0.146939
0.138021
0.128886
0.119673
0.110515
0.101526
0.0928021
0.0844541
0.204259
0.20357
0.202065
0.199782
0.196706
0.192794
0.188009
0.182338
0.175798
0.168441
0.160351
0.151645
0.142464
0.132959
0.123288
0.113598
0.104024
0.0946822
0.0857036
0.207131
0.206548
0.205264
0.203279
0.200548
0.196997
0.192559
0.187191
0.18088
0.173651
0.165574
0.156755
0.147331
0.137463
0.12732
0.11707
0.106869
0.0968532
0.0871778
0.209965
0.209495
0.208445
0.206781
0.204426
0.201277
0.197236
0.192227
0.186205
0.179168
0.17116
0.162272
0.152638
0.14242
0.1318
0.120966
0.110095
0.0993501
0.088907
0.212744
0.21239
0.211587
0.210262
0.208312
0.205604
0.20201
0.197418
0.19175
0.184971
0.177097
0.168198
0.158395
0.147852
0.136758
0.12532
0.113741
0.102211
0.0909249
0.21545
0.215215
0.214671
0.213702
0.212182
0.209951
0.20685
0.202735
0.19749
0.191042
0.183374
0.174529
0.164612
0.153778
0.142224
0.130172
0.117849
0.105479
0.0932683
0.21807
0.217957
0.217679
0.217079
0.216011
0.21429
0.211729
0.208149
0.203394
0.197355
0.189973
0.18126
0.171293
0.160216
0.148226
0.135558
0.122462
0.109199
0.095978
0.220594
0.220604
0.220597
0.220376
0.219779
0.218598
0.216618
0.213627
0.209434
0.203883
0.196875
0.188379
0.17844
0.167182
0.154792
0.141517
0.127626
0.11342
0.0990983
0.223012
0.223146
0.223414
0.223578
0.223467
0.222849
0.221488
0.21914
0.215575
0.210595
0.204052
0.195869
0.186049
0.174684
0.161948
0.148088
0.133388
0.118196
0.102678
0.22532
0.225576
0.22612
0.226673
0.227058
0.227023
0.226313
0.224656
0.221786
0.217459
0.211477
0.203709
0.194108
0.182728
0.169713
0.155306
0.139796
0.123584
0.106769
0.227512
0.227889
0.228708
0.22965
0.230536
0.231099
0.231068
0.230145
0.22803
0.224437
0.219113
0.211871
0.202604
0.191313
0.178105
0.163206
0.146898
0.129644
0.111427
0.229586
0.230081
0.231172
0.232501
0.23389
0.235061
0.235729
0.235577
0.234274
0.231492
0.226925
0.220322
0.211511
0.200431
0.187133
0.171819
0.154743
0.13644
0.116712
0.231541
0.232151
0.23351
0.235219
0.23711
0.238891
0.240274
0.240924
0.240484
0.238585
0.23487
0.229024
0.220801
0.210067
0.196803
0.181169
0.163374
0.144037
0.122685
0.233377
0.234099
0.235718
0.2378
0.240187
0.242579
0.244686
0.246161
0.246625
0.245676
0.242906
0.237935
0.230437
0.220197
0.207109
0.191277
0.172833
0.152502
0.129411
0.235097
0.235925
0.237797
0.240241
0.243115
0.246113
0.248947
0.251262
0.252666
0.252726
0.250987
0.247006
0.240376
0.230789
0.218038
0.202154
0.183159
0.161902
0.136952
0.236701
0.237632
0.239747
0.242541
0.24589
0.249484
0.253042
0.256207
0.258577
0.259695
0.259067
0.256188
0.250568
0.241802
0.229565
0.213801
0.194377
0.172298
0.145371
0.238194
0.239223
0.241571
0.244701
0.24851
0.252687
0.256961
0.260977
0.26433
0.266546
0.267098
0.265425
0.260956
0.253185
0.241655
0.226204
0.206505
0.183739
0.154718
0.23958
0.2407
0.243271
0.246723
0.250975
0.255717
0.260694
0.265557
0.269901
0.273247
0.275038
0.274667
0.271486
0.264886
0.254271
0.239353
0.21957
0.196289
0.165058
0.240861
0.242069
0.244851
0.248609
0.253287
0.258575
0.264239
0.269937
0.275277
0.279773
0.282855
0.283877
0.28212
0.276877
0.267406
0.253278
0.233658
0.210101
0.176572
0.242044
0.243334
0.246316
0.250364
0.255448
0.261262
0.267591
0.27411
0.280439
0.2861
0.290513
0.293003
0.292793
0.289085
0.280993
0.267926
0.248765
0.22521
0.189382
0.243132
0.244497
0.247664
0.251983
0.257449
0.26376
0.270724
0.278031
0.285319
0.292121
0.297855
0.301827
0.30321
0.301119
0.294528
0.282673
0.264159
0.240624
0.202394
0.244129
0.245558
0.248892
0.253456
0.25927
0.266034
0.27358
0.281612
0.28979
0.297658
0.304637
0.310019
0.312931
0.312407
0.307293
0.296649
0.278852
0.254972
0.21359
0.245047
0.246544
0.250039
0.254835
0.260982
0.268185
0.276306
0.285072
0.294174
0.303185
0.311555
0.318589
0.323406
0.325001
0.322118
0.313687
0.29786
0.27521
0.232177
0.076097
0.0743019
0.0725067
0.070708
0.0689044
0.0761214
0.0743208
0.0725243
0.0707235
0.068915
0.0761366
0.0743
0.0724776
0.0706514
0.0688152
0.0761772
0.0742836
0.0724188
0.0705524
0.0686732
0.0762366
0.0742625
0.0723371
0.0704136
0.0684743
0.0763326
0.0742567
0.0722533
0.0702566
0.0682411
0.0764749
0.0742747
0.0721749
0.0700882
0.0679796
0.0766794
0.0743323
0.0721169
0.0699225
0.0677034
0.0769622
0.0744443
0.0720923
0.0697715
0.067423
0.0773421
0.0746279
0.0721166
0.0696489
0.0671511
0.0778396
0.0749018
0.0722061
0.0695692
0.0669003
0.0784778
0.0752866
0.0723785
0.0695479
0.0666842
0.0792818
0.0758046
0.072653
0.0696015
0.066517
0.0802796
0.0764805
0.0730504
0.069748
0.0664141
0.0815021
0.0773411
0.0735935
0.0700068
0.0663919
0.0829834
0.0784164
0.074307
0.0703987
0.0664678
0.0847613
0.079739
0.0752182
0.0709469
0.0666612
0.0868782
0.0813457
0.0763574
0.0716768
0.0669931
0.0893815
0.083278
0.0777588
0.0726168
0.0674869
0.0923247
0.0855825
0.0794611
0.0737994
0.0681695
0.0957682
0.0883128
0.0815083
0.0752614
0.0690713
0.0997803
0.0915301
0.0839513
0.0770455
0.0702277
0.104438
0.0953044
0.0868483
0.0792011
0.0716801
0.10983
0.0997158
0.0902665
0.0817853
0.0734769
0.116051
0.104854
0.0942821
0.0848641
0.0756748
0.123208
0.11082
0.0989807
0.0885129
0.0783395
0.131418
0.117722
0.104457
0.0928171
0.0815465
0.140791
0.125669
0.110812
0.0978702
0.0853806
0.151437
0.134759
0.11814
0.10377
0.0899339
0.0761113
0.163503
0.145105
0.126551
0.110625
0.095307
0.0799896
0.177132
0.156812
0.136133
0.118501
0.10154
0.0845706
0.192184
0.169978
0.147134
0.127703
0.108937
0.0901547
0.208257
0.184707
0.160168
0.138984
0.118206
0.0973788
0.220187
0.193762
0.168422
0.145774
0.123263
0.100809
)
;

boundaryField
{
    inlet
    {
        type            zeroGradient;
    }
    outlet
    {
        type            fixedValue;
        value           nonuniform 0();
    }
    cylinder
    {
        type            zeroGradient;
    }
    top
    {
        type            symmetryPlane;
    }
    bottom
    {
        type            symmetryPlane;
    }
    defaultFaces
    {
        type            empty;
    }
    procBoundary0to1
    {
        type            processor;
        value           nonuniform List<scalar> 
152
(
0.109585
0.109585
0.118083
0.118083
0.129461
0.129461
0.143379
0.172197
0.172197
0.189491
0.189491
0.209057
0.24137
0.24137
0.265316
0.265316
0.292493
0.327413
0.361661
0.361661
0.394923
0.429189
0.429189
0.467109
0.500579
0.532579
0.532579
0.574624
0.604552
0.632515
0.65838
0.65838
0.700747
0.722889
0.742504
0.759497
0.773786
0.785301
0.793986
0.7998
0.802714
0.802714
0.7998
0.793986
0.785301
0.773786
0.759497
0.742504
0.722889
0.700747
0.65838
0.65838
0.632515
0.604552
0.574624
0.532579
0.532579
0.500579
0.467109
0.429189
0.429189
0.394923
0.361661
0.361661
0.327413
0.29887
0.29887
0.265316
0.24137
0.24137
0.209057
0.189491
0.189491
0.172197
0.172197
0.143379
0.129461
0.129461
0.118083
0.118083
0.109585
0.109585
0.0786979
0.0769028
0.0717
0.0678827
0.0649138
0.0625002
0.0606218
0.0591958
0.0581475
0.0574148
0.0569442
0.056691
0.0633954
0.0633954
0.0628617
0.0625163
0.0623308
0.062281
0.062346
0.0625068
0.0627468
0.0630507
0.063404
0.0637934
0.064206
0.0646298
0.0650531
0.0654648
0.0658539
0.0662107
0.0665223
0.0667834
0.0669704
0.0671
0.0670965
0.0670965
0.0671
0.0669705
0.0667834
0.0665223
0.0662108
0.065854
0.0654649
0.0650531
0.0646298
0.064206
0.0637934
0.0634041
0.0630507
0.0627469
0.0625068
0.062346
0.0622811
0.0623308
0.0625163
0.0628618
0.0633954
0.0641505
0.0651666
0.0664907
0.0681781
0.0702932
0.0729097
0.0729097
0.0625002
0.0649138
0.0678827
0.0717
0.0769029
0.0786979
)
;
    }
}


// ************************************************************************* //
