/*--------------------------------*- C++ -*----------------------------------*\
  =========                 |
  \\      /  F ield         | OpenFOAM: The Open Source CFD Toolbox
   \\    /   O peration     | Website:  https://openfoam.org
    \\  /    A nd           | Version:  7
     \\/     M anipulation  |
\*---------------------------------------------------------------------------*/
FoamFile
{
    version     2.0;
    format      ascii;
    class       volVectorField;
    location    "10";
    object      U;
}
// * * * * * * * * * * * * * * * * * * * * * * * * * * * * * * * * * * * * * //

dimensions      [0 1 -1 0 0 0 0];

internalField   nonuniform List<vector> 
3275
(
(0.0193675 -0.00829141 6.52314e-20)
(0.0634833 -0.022893 5.0089e-20)
(0.0221017 -0.00874136 -1.8808e-20)
(0.0713146 -0.0237608 -2.07845e-19)
(0.127755 -0.0334575 1.65967e-19)
(0.0249872 -0.00907204 5.21573e-20)
(0.0795231 -0.0242806 2.03088e-19)
(0.140963 -0.0336135 1.29441e-19)
(0.208114 -0.0385911 -1.72774e-19)
(0.280197 -0.0396643 -2.77753e-20)
(0.0280164 -0.00926976 -7.52648e-20)
(0.088082 -0.0244173 9.57726e-20)
(0.154649 -0.0331549 -7.41867e-20)
(0.226528 -0.0371511 -1.1637e-19)
(0.302907 -0.0369454 8.10532e-20)
(0.382948 -0.0329396 -1.52688e-19)
(0.46569 -0.0256307 9.2416e-20)
(0.0311794 -0.00932122 7.23041e-20)
(0.09696 -0.0241376 4.65923e-21)
(0.168759 -0.0320358 2.75699e-20)
(0.245396 -0.034833 -7.66615e-20)
(0.326032 -0.0331615 1.80539e-19)
(0.409778 -0.0275066 -6.54235e-20)
(0.49562 -0.0184505 -1.75129e-19)
(0.58244 -0.00659524 -5.56943e-20)
(0.669036 0.00743288 -2.89441e-20)
(0.0344651 -0.00921371 -1.0828e-19)
(0.106121 -0.0234106 8.97982e-20)
(0.183229 -0.0302144 -7.40168e-20)
(0.264629 -0.0315914 8.38928e-20)
(0.349455 -0.0282694 -5.91904e-20)
(0.436774 -0.0208206 8.42071e-20)
(0.525517 -0.00991596 2.6328e-19)
(0.614513 0.00375797 1.41577e-19)
(0.702504 0.0194961 1.00903e-19)
(0.788173 0.0365723 -1.55593e-19)
(0.870178 0.0542489 -1.32282e-19)
(0.0378602 -0.00893521 -6.51839e-21)
(0.115525 -0.0222077 -9.50773e-20)
(0.197994 -0.0276539 2.5981e-20)
(0.284133 -0.0273879 -6.87286e-20)
(0.373055 -0.0222355 6.14943e-20)
(0.463787 -0.0128593 2.95916e-20)
(0.555215 -2.0699e-05 1.24094e-20)
(0.646118 0.0155074 4.31007e-20)
(0.735199 0.0329411 3.92761e-21)
(0.821115 0.0514863 9.47606e-20)
(0.902527 0.0703532 -1.00461e-19)
(0.978147 0.0887844 -3.2565e-20)
(1.04681 0.106151 -3.0126e-20)
(0.0413498 -0.00847457 2.34384e-20)
(0.125127 -0.0205034 -1.10699e-20)
(0.212977 -0.0243229 5.39406e-20)
(0.303803 -0.0221921 4.18792e-20)
(0.396702 -0.0150369 -1.41253e-19)
(0.490666 -0.00361251 5.99501e-20)
(0.584541 0.0112276 -1.35864e-19)
(0.67707 0.0286239 -1.53334e-19)
(0.766929 0.0477149 -8.91861e-20)
(0.852769 0.0676419 -1.84804e-19)
(0.933271 0.0875685 8.88497e-21)
(1.00721 0.106713 6.1492e-20)
(1.07349 0.124435 8.06626e-20)
(1.13123 0.140046 7.29802e-20)
(1.17943 0.152135 -5.54596e-12)
(0.0449172 -0.00782172 3.54042e-20)
(0.134878 -0.0182759 -1.12626e-19)
(0.228099 -0.0201959 -1.01682e-19)
(0.323532 -0.0159821 1.6621e-20)
(0.42026 -0.0066613 7.19686e-20)
(0.517251 0.00691713 -1.29659e-20)
(0.61332 0.0238071 -1.39049e-20)
(0.707185 0.0430635 6.532e-20)
(0.797509 0.0637503 1.64285e-19)
(0.882956 0.0849492 1.13694e-19)
(0.96225 0.105784 -6.93992e-21)
(1.03424 0.125458 6.27346e-20)
(1.09795 0.143332 -5.4202e-20)
(1.15263 0.15876 -2.95395e-20)
(1.19752 0.17058 3.70246e-20)
(0.0485437 -0.00696785 -1.0345e-19)
(0.144725 -0.0155068 1.20802e-19)
(0.243276 -0.015254 -5.29088e-20)
(0.343204 -0.00874486 3.24362e-21)
(0.443591 0.0028925 6.57214e-20)
(0.543384 0.0187141 -5.84814e-20)
(0.641379 0.0376823 1.33937e-19)
(0.736282 0.0587688 4.69683e-20)
(0.826761 0.0809674 -1.11882e-19)
(0.911511 0.103307 1.84316e-20)
(0.989319 0.124883 5.36516e-20)
(1.05913 0.144892 -5.45903e-20)
(1.1201 0.162706 1.1569e-19)
(1.17164 0.177739 -3.02665e-20)
(1.2132 0.189064 -2.36214e-20)
(0.0522093 -0.00590562 8.7837e-20)
(0.15461 -0.0121825 -2.56007e-20)
(0.258416 -0.00948508 3.22572e-20)
(0.362701 -0.000476859 -6.46881e-20)
(0.466552 0.0136142 3.97684e-20)
(0.568904 0.0317503 1.80151e-21)
(0.668546 0.0528042 -9.57736e-20)
(0.764186 0.075669 -1.32731e-19)
(0.854516 0.0992746 3.92679e-20)
(0.938281 0.122607 -1.7458e-20)
(1.01435 0.144741 -6.67084e-20)
(1.08179 0.164881 -3.83577e-21)
(1.1399 0.182425 3.23432e-20)
(1.18824 0.196855 -3.92363e-20)
(1.22651 0.207474 7.3072e-20)
(0.0558922 -0.00462932 -8.24515e-20)
(0.164474 -0.00829379 -2.59242e-20)
(0.273427 -0.00288481 3.36186e-20)
(0.381902 0.00881561 5.09353e-20)
(0.488997 0.0254819 -2.21392e-20)
(0.593649 0.0459846 -2.32691e-20)
(0.694651 0.0691111 4.07481e-20)
(0.790731 0.0936813 9.44755e-20)
(0.880619 0.11857 -4.5235e-20)
(0.963131 0.14273 -1.66734e-20)
(1.03724 0.16523 -3.55465e-20)
(1.10214 0.185295 -1.4548e-20)
(1.15729 0.20236 4.45998e-20)
(1.20245 0.21599 4.53445e-20)
(1.23748 0.22571 1.20583e-20)
(0.0595693 -0.00313511 -4.81079e-21)
(0.174254 -0.00383677 4.60879e-20)
(0.288212 0.00454344 -4.15983e-20)
(0.400682 0.0191162 -8.61653e-21)
(0.510783 0.038462 2.3231e-20)
(0.617462 0.0613636 4.36995e-20)
(0.719534 0.0865286 -4.26867e-20)
(0.815758 0.112712 -4.56645e-20)
(0.904925 0.138742 5.87179e-21)
(0.985938 0.163553 4.13197e-20)
(1.05789 0.186219 6.84413e-21)
(1.12013 0.206001 -1.08602e-20)
(1.17228 0.222386 -3.12024e-20)
(1.21427 0.235033 7.31155e-21)
(1.24617 0.243679 -2.36573e-20)
(0.0632164 -0.00142114 2.15807e-20)
(0.183884 0.00118709 -2.59807e-20)
(0.302673 0.0127881 3.41151e-20)
(0.418916 0.030398 -2.7136e-20)
(0.531765 0.0525094 1.65165e-20)
(0.64019 0.0778219 -1.59381e-20)
(0.743038 0.104971 1.21987e-20)
(0.839121 0.132656 4.63079e-20)
(0.927305 0.159673 -2.5383e-21)
(1.0066 0.184947 8.10611e-22)
(1.07624 0.207577 2.94375e-20)
(1.13572 0.226872 3.16378e-21)
(1.18485 0.242384 3.07449e-20)
(1.22374 0.253878 -3.73093e-20)
(1.25264 0.261297 -1.65739e-20)
(0.0668083 0.0005123 -2.38306e-21)
(0.193298 0.00677055 7.75431e-21)
(0.31671 0.0218289 -2.05958e-20)
(0.43648 0.0426241 8.89147e-22)
(0.551803 0.0675672 -6.01425e-21)
(0.661685 0.0952823 1.51347e-21)
(0.765019 0.124342 -1.05427e-20)
(0.860686 0.153401 5.16771e-21)
(0.947646 0.181235 2.1103e-21)
(1.02503 0.20678 -1.47447e-21)
(1.09222 0.22917 4.6681e-21)
(1.1489 0.24778 3.75375e-21)
(1.19504 0.26224 -1.02713e-21)
(1.23092 0.27243 7.12277e-21)
(1.25696 0.278489 -5.33491e-21)
(0.0703195 0.00266263 -9.04141e-21)
(0.202429 0.0129005 6.07575e-21)
(0.330224 0.0316373 -1.22771e-20)
(0.453253 0.0557469 1.60449e-22)
(0.570762 0.0835676 -6.10859e-21)
(0.681806 0.113657 7.33666e-22)
(0.785342 0.144535 -1.07938e-20)
(0.880333 0.174825 5.21642e-21)
(0.96585 0.2033 -3.38344e-22)
(1.04116 0.228917 7.43787e-22)
(1.10582 0.250868 7.8004e-21)
(1.15966 0.268603 1.15643e-21)
(1.20286 0.281846 1.36364e-21)
(1.23586 0.290597 3.70699e-21)
(1.25923 0.295187 -2.45434e-21)
(0.0737237 0.00502498 8.36777e-21)
(0.211209 0.0195578 -2.25756e-20)
(0.343116 0.0421761 3.30841e-20)
(0.469114 0.0697088 -1.78273e-20)
(0.588512 0.100432 -3.56785e-21)
(0.700423 0.132847 -1.21834e-20)
(0.803883 0.165434 3.4751e-20)
(0.897955 0.196801 1.25628e-20)
(0.981836 0.225731 1.10755e-20)
(1.05495 0.251224 -1.79756e-21)
(1.117 0.27254 2.46931e-20)
(1.16803 0.289224 8.83001e-21)
(1.20838 0.301099 4.13818e-21)
(1.23864 0.308297 -1.50167e-20)
(1.25953 0.311331 -3.64017e-21)
(0.0769945 0.00759198 1.95141e-20)
(0.21957 0.0267173 2.05629e-20)
(0.355291 0.0533992 -3.4111e-20)
(0.483951 0.0844423 -4.80589e-21)
(0.604929 0.118072 3.07737e-20)
(0.717414 0.152744 5.11076e-22)
(0.820533 0.186916 -7.22719e-21)
(0.913463 0.219195 -4.98114e-20)
(0.99554 0.248392 -4.22891e-21)
(1.06635 0.273565 3.58491e-20)
(1.12577 0.294059 -9.33713e-22)
(1.17403 0.309528 1.25353e-20)
(1.21164 0.319903 -3.32044e-20)
(1.23934 0.325453 2.29988e-20)
(1.25795 0.326865 -7.20206e-21)
(0.0801056 0.0103538 -5.02083e-20)
(0.227448 0.0343473 -6.33698e-20)
(0.366657 0.0652525 3.81946e-20)
(0.497653 0.0998702 4.35591e-20)
(0.6199 0.136389 -6.5109e-21)
(0.73267 0.173234 -1.14841e-20)
(0.835195 0.208853 1.65574e-20)
(0.926781 0.24187 7.48492e-20)
(1.00691 0.271143 2.59047e-21)
(1.07535 0.295805 -1.50415e-20)
(1.13215 0.315303 -1.47692e-20)
(1.17771 0.329406 -4.36562e-20)
(1.21271 0.338167 4.75006e-20)
(1.23804 0.341993 -1.11526e-20)
(1.25459 0.341737 5.17445e-20)
(0.0830315 0.0132982 9.78367e-20)
(0.234779 0.0424108 -6.81277e-21)
(0.377124 0.0776737 4.28382e-21)
(0.51012 0.115907 7.90684e-21)
(0.633319 0.155276 -1.23171e-20)
(0.746092 0.194191 1.25418e-20)
(0.847789 0.231108 -9.86185e-20)
(0.937851 0.264685 -6.63191e-20)
(1.01593 0.293845 -2.19117e-20)
(1.08194 0.317813 -5.75893e-21)
(1.13615 0.33615 -3.65514e-20)
(1.17911 0.348755 1.19444e-20)
(1.21167 0.355806 -2.74195e-20)
(1.23483 0.357852 1.16394e-21)
(1.24954 0.355903 1.32015e-20)
(0.0857475 0.0164104 -8.11443e-20)
(0.241502 0.0508644 6.52812e-20)
(0.386611 0.0905929 1.62987e-20)
(0.521258 0.132458 1.20534e-20)
(0.645095 0.174618 -2.72466e-21)
(0.757599 0.215485 5.16234e-20)
(0.858247 0.253542 8.11287e-20)
(0.94663 0.287499 -9.53851e-21)
(1.02256 0.316359 -3.4819e-20)
(1.08615 0.339458 -1.72511e-20)
(1.13782 0.356486 6.64424e-20)
(1.17831 0.367477 -2.19268e-20)
(1.2086 0.372741 -1.60827e-21)
(1.2298 0.372968 2.44945e-20)
(1.24291 0.369318 -4.31678e-21)
(0.0882299 0.0196735 8.55945e-20)
(0.247562 0.0596596 -1.10192e-19)
(0.395041 0.103933 -3.19711e-20)
(0.530983 0.149421 5.18144e-20)
(0.655145 0.194295 -3.06943e-20)
(0.767118 0.236983 -6.96975e-20)
(0.866518 0.276012 3.36904e-20)
(0.95309 0.310166 9.34492e-20)
(1.02682 0.338548 1.12812e-19)
(1.08799 0.360616 1.16003e-19)
(1.13721 0.376199 -2.90678e-21)
(1.17537 0.385478 2.08363e-20)
(1.20359 0.388897 -6.69337e-20)
(1.22305 0.387283 1.2996e-20)
(1.23478 0.381943 8.82198e-21)
(0.0904565 0.0230682 5.24036e-20)
(0.252906 0.0687428 -8.1424e-22)
(0.402345 0.117611 1.1791e-19)
(0.539221 0.16669 -1.41346e-19)
(0.6634 0.214179 2.29999e-20)
(0.774597 0.258544 5.9452e-21)
(0.872568 0.298375 -8.19701e-20)
(0.957222 0.332547 -1.31061e-19)
(1.02871 0.360278 -6.96902e-20)
(1.08751 0.381164 -9.28429e-20)
(1.13438 0.395185 1.63523e-20)
(1.17037 0.402672 -6.12092e-21)
(1.19671 0.404204 2.27181e-20)
(1.21466 0.400746 -2.86815e-20)
(1.22526 0.393741 3.18351e-21)
(0.0924069 0.0265733 -4.2767e-20)
(0.257486 0.0780556 1.75178e-20)
(0.408464 0.131537 -3.40152e-20)
(0.54591 0.18415 -3.17696e-20)
(0.669805 0.234139 4.02118e-20)
(0.779993 0.280027 -8.16641e-21)
(0.876377 0.320485 3.14841e-20)
(0.959029 0.354499 1.9887e-21)
(1.02828 0.381417 1.58924e-20)
(1.08476 0.400985 9.63155e-22)
(1.12941 0.413343 -1.73638e-20)
(1.1634 0.418976 -3.3617e-21)
(1.18808 0.418597 -6.25706e-20)
(1.20475 0.413304 3.58837e-20)
(1.21443 0.404678 -6.41021e-20)
(0.0940626 0.0301654 -4.27583e-20)
(0.261261 0.0875356 4.59082e-20)
(0.413344 0.145618 -1.41246e-20)
(0.550998 0.201682 7.09033e-20)
(0.674319 0.254041 -1.07936e-19)
(0.783282 0.301288 1.92553e-19)
(0.877942 0.342199 1.12769e-19)
(0.958531 0.375884 1.27986e-19)
(1.02555 0.401838 -1.15153e-20)
(1.07979 0.419969 8.27281e-20)
(1.12236 0.430579 8.32152e-20)
(1.15454 0.434312 -1.89118e-20)
(1.17777 0.432015 -5.21701e-20)
(1.19338 0.424908 4.52203e-20)
(1.20238 0.414719 -7.93405e-22)
(0.0954073 0.0338198 6.85421e-21)
(0.264196 0.0971168 4.50815e-20)
(0.416945 0.159756 3.47236e-20)
(0.554447 0.219166 1.34395e-20)
(0.676913 0.273747 5.46441e-21)
(0.784454 0.322184 1.8996e-20)
(0.877272 0.363374 -1.72532e-19)
(0.95576 0.396567 -1.16238e-19)
(1.02058 0.42142 -4.49952e-20)
(1.07269 0.438008 -1.10928e-19)
(1.11332 0.446805 -1.04487e-19)
(1.14388 0.448611 -4.69093e-20)
(1.16587 0.444404 3.36426e-21)
(1.18066 0.435517 4.69413e-21)
(1.18916 0.42382 -4.89385e-21)
(0.0964273 0.0375101 -4.75881e-20)
(0.266262 0.10673 -3.78805e-20)
(0.419232 0.173848 -3.84915e-20)
(0.556229 0.236477 1.01625e-20)
(0.677576 0.29312 -8.75663e-20)
(0.783515 0.342573 -9.48694e-20)
(0.874395 0.38387 1.44163e-19)
(0.950766 0.416419 -5.40979e-20)
(1.01344 0.440046 9.49933e-20)
(1.06353 0.455004 3.89376e-20)
(1.10239 0.461939 -6.93987e-20)
(1.13152 0.461807 9.50777e-20)
(1.1525 0.455715 -2.20068e-21)
(1.16668 0.445113 -4.96846e-21)
(1.17489 0.431941 -4.56772e-20)
(0.0971114 0.0412087 1.38858e-19)
(0.267437 0.116304 1.50994e-20)
(0.420186 0.187792 6.31775e-20)
(0.556332 0.25349 1.3037e-19)
(0.676307 0.312022 -4.02569e-20)
(0.780483 0.362314 4.34569e-20)
(0.869351 0.403552 -1.02748e-19)
(0.943607 0.435314 7.26368e-20)
(1.00421 0.457607 -6.40168e-20)
(1.05241 0.470864 -4.70315e-20)
(1.08965 0.475904 9.22472e-20)
(1.11755 0.473835 4.49452e-20)
(1.13773 0.465891 1.27226e-20)
(1.15152 0.45365 2.6065e-20)
(1.15967 0.439085 1.92844e-20)
(0.0974511 0.0448873 -9.56826e-20)
(0.267707 0.125767 -6.07205e-20)
(0.419794 0.201483 -1.33888e-19)
(0.554754 0.270079 -4.86257e-20)
(0.673122 0.330318 7.27897e-20)
(0.775395 0.381269 9.51572e-20)
(0.862195 0.422287 3.74969e-20)
(0.934356 0.453132 2.60115e-20)
(0.992974 0.473998 4.62541e-20)
(1.0394 0.485501 9.96522e-20)
(1.07521 0.48863 -5.15546e-20)
(1.10207 0.484643 8.86492e-21)
(1.12165 0.474892 -3.97693e-20)
(1.13526 0.461072 4.95807e-21)
(1.14359 0.445216 -3.45338e-21)
(0.0974411 0.0485165 1.15663e-20)
(0.267065 0.135043 1.22023e-20)
(0.418056 0.214816 9.17821e-20)
(0.551508 0.28612 -1.2562e-19)
(0.668051 0.347873 5.26656e-20)
(0.768297 0.399305 -4.47448e-20)
(0.852994 0.439951 -5.77564e-21)
(0.923099 0.469762 6.07665e-21)
(0.979825 0.489123 3.53578e-20)
(1.02463 0.498836 4.17785e-20)
(1.05917 0.500055 2.66847e-20)
(1.08518 0.494179 -7.95961e-21)
(1.10435 0.482677 2.40582e-20)
(1.11799 0.467349 7.49664e-21)
(1.12668 0.450295 -1.97019e-21)
(0.0970787 0.052067 -4.27988e-21)
(0.26551 0.144059 -4.45195e-20)
(0.414982 0.227686 2.42536e-20)
(0.546619 0.30149 5.98426e-20)
(0.661137 0.364558 -1.20724e-19)
(0.759254 0.416293 -1.16759e-19)
(0.841829 0.456423 -4.95298e-20)
(0.909929 0.485096 -4.88166e-20)
(0.96487 0.502894 -3.44912e-20)
(1.0082 0.510797 -3.12452e-20)
(1.04164 0.510122 3.24359e-20)
(1.06697 0.502402 -1.71977e-20)
(1.08592 0.489211 -9.64343e-21)
(1.09977 0.47245 3.66608e-21)
(1.10902 0.454294 3.19271e-21)
(0.0963646 0.0555092 1.18376e-20)
(0.263052 0.152742 3.27354e-20)
(0.410593 0.239991 6.02329e-20)
(0.540124 0.316069 -8.47122e-20)
(0.652436 0.380247 3.3887e-20)
(0.74834 0.43211 1.13699e-19)
(0.828791 0.471591 -4.34907e-20)
(0.894953 0.499038 -4.06514e-21)
(0.948225 0.515229 4.97576e-22)
(0.990223 0.521321 -1.70366e-21)
(1.02272 0.518783 -3.03792e-20)
(1.04753 0.509273 -3.87878e-20)
(1.06644 0.494461 1.22973e-21)
(1.08068 0.476345 -1.94077e-22)
(1.09066 0.457181 3.60569e-21)
(0.0953022 0.0588136 1.76183e-20)
(0.259704 0.161018 -1.06782e-19)
(0.404919 0.25163 -9.81483e-21)
(0.532073 0.329741 7.32523e-20)
(0.642017 0.394818 -7.91111e-21)
(0.735642 0.446641 4.33815e-20)
(0.813985 0.485348 4.11913e-20)
(0.878286 0.511496 -1.82067e-20)
(0.93001 0.526054 5.06773e-20)
(0.970822 0.530351 -2.43562e-20)
(1.00253 0.525997 1.54846e-20)
(1.02698 0.514763 1.18386e-20)
(1.04598 0.498405 1.63152e-20)
(1.06077 0.479007 -2.25719e-20)
(1.07167 0.458925 2.35468e-20)
(0.0938981 0.0619517 3.27149e-20)
(0.25549 0.168817 7.63542e-20)
(0.398002 0.262505 2.71236e-20)
(0.522527 0.342396 -7.92309e-20)
(0.62996 0.408158 -6.3982e-20)
(0.721258 0.459775 -1.53039e-21)
(0.797523 0.497597 -1.18524e-20)
(0.860052 0.522388 -6.41007e-22)
(0.910355 0.535304 -4.25684e-20)
(0.950126 0.537838 -5.44797e-22)
(0.981187 0.531732 -1.38472e-20)
(1.00541 0.518849 -7.10993e-21)
(1.02462 0.501023 -1.06201e-20)
(1.04008 0.480413 -4.54089e-20)
(1.05208 0.459492 -9.5977e-20)
(0.0921611 0.0648952 -2.79611e-20)
(0.25044 0.176072 -9.1748e-20)
(0.389893 0.272524 3.91154e-20)
(0.511557 0.353927 4.66658e-20)
(0.616356 0.42016 4.21763e-20)
(0.705296 0.471412 -3.41207e-20)
(0.779527 0.508249 1.3848e-21)
(0.840383 0.531638 2.12206e-20)
(0.889397 0.54292 1.32848e-20)
(0.928272 0.543742 -1.80775e-21)
(0.958824 0.53596 -2.58193e-21)
(0.982924 0.52152 1.06232e-20)
(1.00243 0.502309 5.35604e-20)
(1.01867 0.480546 8.05558e-20)
(1.03193 0.45884 8.94495e-20)
(0.0901032 0.0676162 -1.47206e-20)
(0.244589 0.182716 3.67304e-20)
(0.38065 0.281598 -1.99642e-20)
(0.499244 0.364237 -2.0767e-20)
(0.601306 0.430723 -7.76516e-21)
(0.687876 0.481458 2.8395e-21)
(0.760128 0.51722 8.46774e-22)
(0.819416 0.539179 6.02525e-21)
(0.867278 0.548851 4.02883e-21)
(0.9054 0.548027 6.05975e-21)
(0.935571 0.538665 2.37068e-20)
(0.959644 0.522772 -2.42694e-20)
(0.979497 0.502269 1.89368e-20)
(0.996538 0.479397 2.20399e-20)
(0.0877403 0.0700886 -4.95265e-21)
(0.237982 0.188686 9.73694e-21)
(0.370343 0.289644 7.74735e-21)
(0.485679 0.373232 5.16876e-21)
(0.584922 0.439756 -4.04342e-22)
(0.669121 0.489828 -2.41987e-21)
(0.739462 0.524439 4.21827e-21)
(0.797297 0.544951 -1.21517e-20)
(0.844145 0.553053 -4.97523e-20)
(0.881659 0.550665 -2.33034e-20)
(0.911575 0.539833 -4.12061e-21)
(0.935698 0.522609 3.68583e-20)
(0.955899 0.500921 -1.27099e-19)
(0.0850897 0.0722886 -6.71986e-21)
(0.230665 0.193926 -9.66605e-21)
(0.359047 0.296586 1.01171e-20)
(0.470963 0.380828 6.90427e-21)
(0.56732 0.447175 -1.7328e-20)
(0.649165 0.496446 -1.75095e-20)
(0.717671 0.529839 -2.08592e-20)
(0.774172 0.548904 -4.52597e-20)
(0.820151 0.555486 8.51839e-20)
(0.857202 0.55163 -9.8706e-21)
(0.886991 0.539456 2.09297e-20)
(0.911236 0.521043 -9.57755e-20)
(0.0821709 0.0741934 2.51702e-20)
(0.222694 0.198382 -2.50218e-20)
(0.346844 0.302354 -2.47231e-20)
(0.455201 0.38695 1.90467e-20)
(0.548626 0.452907 1.1569e-20)
(0.628146 0.501247 -3.79325e-20)
(0.694902 0.533365 5.12589e-21)
(0.750192 0.550991 3.66496e-20)
(0.795445 0.556118 3.95315e-20)
(0.832186 0.550899 2.55565e-20)
(0.861984 0.537525 -8.33805e-22)
(0.886435 0.518094 4.97378e-21)
(0.0790059 0.075782 2.75602e-20)
(0.214127 0.202007 3.55474e-20)
(0.333825 0.306885 6.00401e-20)
(0.438506 0.391531 -2.58514e-20)
(0.528971 0.456888 5.43603e-20)
(0.606204 0.504173 1.30015e-20)
(0.671302 0.534971 1.77198e-20)
(0.725506 0.551176 4.88304e-20)
(0.77018 0.554918 -8.91832e-20)
(0.806765 0.548451 1.58768e-21)
(0.836725 0.534024 -2.2474e-20)
(0.0756188 0.077036 -1.19973e-19)
(0.205028 0.204757 -2.92653e-20)
(0.320084 0.310124 -6.84635e-20)
(0.420997 0.394514 3.07202e-20)
(0.50849 0.459064 -2.88824e-20)
(0.583488 0.505179 -7.33854e-20)
(0.647021 0.534619 6.73238e-21)
(0.700263 0.549432 -9.65667e-20)
(0.744499 0.551865 -6.37056e-20)
(0.781081 0.544262 -9.78867e-20)
(0.0720355 0.0779388 5.93752e-20)
(0.195465 0.206595 -8.19727e-20)
(0.305722 0.312027 1.25039e-20)
(0.402799 0.39585 -4.01622e-20)
(0.487323 0.459392 -7.62959e-20)
(0.560143 0.50423 -2.43721e-20)
(0.622208 0.532284 -4.84839e-21)
(0.674608 0.545739 -5.26076e-20)
(0.71854 0.546945 6.07953e-20)
(0.75526 0.538315 2.29239e-19)
(0.0682833 0.0784762 4.4695e-20)
(0.18551 0.207492 -1.99349e-20)
(0.290841 0.312554 6.82184e-20)
(0.384038 0.395504 6.47211e-20)
(0.465612 0.457842 1.1366e-19)
(0.536319 0.501302 1.63558e-20)
(0.597013 0.527952 4.46092e-20)
(0.648685 0.540091 7.34388e-20)
(0.692433 0.540158 -2.93156e-20)
(0.0643909 0.0786367 7.12852e-20)
(0.175234 0.207422 3.50243e-20)
(0.27555 0.311677 -3.25611e-20)
(0.364844 0.393449 1.36705e-20)
(0.443501 0.454391 -1.68069e-19)
(0.512168 0.496383 2.66445e-20)
(0.571587 0.521618 1.02663e-19)
(0.622637 0.532493 -6.34437e-20)
(0.0603883 0.0784114 -1.58075e-20)
(0.164717 0.206367 -1.16722e-19)
(0.259958 0.309377 1.25083e-19)
(0.345352 0.389667 -1.61477e-19)
(0.421137 0.449031 1.03088e-19)
(0.487841 0.489472 1.16369e-19)
(0.546078 0.51329 -5.4831e-20)
(0.596607 0.52296 2.36444e-19)
(0.0563066 0.0777944 7.24885e-20)
(0.154034 0.204316 5.92569e-20)
(0.244177 0.305643 -2.04471e-19)
(0.325694 0.384155 2.91339e-19)
(0.398667 0.441764 -6.46267e-20)
(0.463489 0.480579 -2.6828e-19)
(0.520636 0.502985 1.60144e-19)
(0.052177 0.0767823 -2.08478e-20)
(0.143266 0.201265 -2.06716e-19)
(0.22832 0.300475 1.9753e-19)
(0.306005 0.376916 -6.23511e-20)
(0.376238 0.432603 1.10329e-19)
(0.439263 0.469724 1.80647e-19)
(0.495411 0.49073 1.45084e-19)
(0.0480315 0.0753747 8.00511e-21)
(0.132492 0.197216 1.88109e-20)
(0.212499 0.29388 -6.64407e-20)
(0.286421 0.367968 -2.42292e-19)
(0.353996 0.42157 -1.76144e-19)
(0.415312 0.456938 4.20144e-20)
(0.0439019 0.0735739 -8.45647e-20)
(0.121791 0.192178 -1.59862e-19)
(0.196826 0.285876 -4.28065e-20)
(0.267072 0.357335 1.63806e-19)
(0.332083 0.408701 1.79016e-19)
(0.391783 0.442262 -1.19661e-19)
(0.03982 0.0713849 1.17911e-19)
(0.111243 0.186167 8.45521e-20)
(0.181413 0.276488 1.90627e-19)
(0.248091 0.345054 -1.66794e-19)
(0.31064 0.394038 -1.25909e-19)
(0.368818 0.425745 -1.82715e-19)
(0.035817 0.0688156 -2.17808e-20)
(0.100924 0.179205 2.33282e-19)
(0.166368 0.265752 -1.80032e-19)
(0.229604 0.331169 1.00865e-19)
(0.289804 0.377635 1.54186e-19)
(0.0319236 0.0658764 -8.40093e-20)
(0.0909093 0.171321 -1.61355e-19)
(0.151795 0.253711 1.58204e-19)
(0.211734 0.315736 -2.84631e-19)
(0.269707 0.359557 1.81392e-19)
(0.0281695 0.0625804 1.28926e-19)
(0.0812727 0.162548 2.28837e-19)
(0.137797 0.240416 -1.79634e-19)
(0.194602 0.29882 1.6689e-19)
(0.250475 0.339876 -7.20797e-20)
(0.0245832 0.0589431 -2.32991e-19)
(0.0720837 0.152927 1.13492e-19)
(0.124471 0.225926 -1.59945e-19)
(0.178319 0.280491 -7.18761e-20)
(0.0211921 0.0549824 2.35321e-19)
(0.0634089 0.142504 -1.49429e-19)
(0.111908 0.210309 1.75694e-19)
(0.162992 0.260832 -2.84951e-20)
(0.0180217 0.0507183 -2.12158e-19)
(0.0553108 0.13133 3.53396e-19)
(0.100197 0.193636 -9.24631e-20)
(0.148723 0.239931 -3.78155e-20)
(0.015096 0.046173 -9.95244e-21)
(0.0478478 0.119461 -1.19436e-19)
(0.0894156 0.175988 3.24939e-20)
(0.135604 0.217883 5.57907e-20)
(0.0124373 0.0413707 1.93201e-19)
(0.0410732 0.106958 -9.91558e-20)
(0.0796394 0.157452 -9.00171e-20)
(0.123721 0.194791 5.48805e-20)
(0.0100654 0.0363372 -7.75342e-20)
(0.0350358 0.0938847 -6.34893e-20)
(0.0709347 0.138117 1.05675e-19)
(0.00799818 0.0311001 2.98969e-20)
(0.0297786 0.0803096 3.41081e-20)
(0.0633608 0.118082 1.11418e-20)
(0.00625128 0.0256882 -5.13879e-20)
(0.0253392 0.0663045 -3.62099e-20)
(0.0569691 0.0974449 -8.14948e-20)
(0.00483777 0.0201317 -7.36155e-21)
(0.0217491 0.0519435 3.10241e-20)
(0.0518031 0.0763114 4.77117e-20)
(0.00376826 0.0144616 1.47078e-20)
(0.019034 0.0373035 1.98779e-20)
(0.0478977 0.0547885 5.94356e-21)
(0.00305077 0.00870976 3.15263e-20)
(0.0172131 0.0224627 -3.76591e-20)
(0.0452794 0.0329855 -1.60057e-20)
(0.00269068 0.00290873 -7.80704e-21)
(0.0162994 0.00750103 4.98583e-21)
(0.0439658 0.0110139 -1.30132e-20)
(0.00269068 -0.00290873 -1.22563e-20)
(0.0162994 -0.00750103 2.66745e-21)
(0.0439658 -0.011014 -1.15593e-21)
(0.00305077 -0.00870976 1.26711e-20)
(0.0172131 -0.0224627 -3.41704e-20)
(0.0452794 -0.0329855 -1.56765e-20)
(0.00376826 -0.0144616 8.15372e-21)
(0.019034 -0.0373035 7.77214e-20)
(0.0478977 -0.0547885 -3.04356e-20)
(0.00483777 -0.0201317 -3.37747e-20)
(0.0217491 -0.0519436 1.66494e-20)
(0.0518031 -0.0763115 5.88453e-20)
(0.00625128 -0.0256882 -2.15399e-20)
(0.0253392 -0.0663045 -1.27188e-20)
(0.0569691 -0.0974449 -7.7211e-20)
(0.00799819 -0.0311001 4.1997e-20)
(0.0297786 -0.0803096 -1.20061e-19)
(0.0633608 -0.118082 1.10235e-19)
(0.0100654 -0.0363372 -7.29299e-20)
(0.0350358 -0.0938847 -8.84231e-20)
(0.0709347 -0.138117 2.93363e-20)
(0.0124373 -0.0413707 8.9192e-20)
(0.0410733 -0.106958 8.39537e-20)
(0.0796394 -0.157452 2.95433e-20)
(0.123721 -0.194791 -6.83392e-20)
(0.015096 -0.046173 -6.97597e-20)
(0.0478478 -0.119461 2.66232e-20)
(0.0894156 -0.175988 -5.52708e-20)
(0.135604 -0.217883 9.04466e-20)
(0.0180217 -0.0507183 2.73246e-21)
(0.0553108 -0.13133 1.49476e-19)
(0.100197 -0.193636 -9.76977e-20)
(0.148723 -0.239931 4.78274e-20)
(0.0211921 -0.0549824 1.56409e-19)
(0.0634089 -0.142504 -7.95826e-20)
(0.111908 -0.210309 1.996e-19)
(0.162992 -0.260832 -4.20955e-20)
(0.0245832 -0.0589431 -2.3181e-19)
(0.0720837 -0.152927 -6.68695e-20)
(0.124471 -0.225926 -7.4264e-21)
(0.178319 -0.280491 -4.79421e-20)
(0.0281695 -0.0625804 1.86135e-19)
(0.0812727 -0.162548 2.92483e-20)
(0.137797 -0.240416 -8.4517e-20)
(0.194602 -0.29882 1.78153e-19)
(0.250475 -0.339876 1.489e-19)
(0.0319236 -0.0658764 -1.195e-19)
(0.0909093 -0.171321 -1.79811e-19)
(0.151795 -0.253711 5.31181e-20)
(0.211735 -0.315736 -1.39918e-19)
(0.269707 -0.359557 3.13069e-20)
(0.035817 -0.0688156 8.16892e-20)
(0.100924 -0.179205 8.17825e-20)
(0.166368 -0.265752 -8.98886e-21)
(0.229604 -0.331169 9.27275e-20)
(0.289804 -0.377635 -9.25991e-20)
(0.03982 -0.0713849 9.88428e-20)
(0.111243 -0.186167 1.25836e-19)
(0.181413 -0.276488 1.43836e-19)
(0.248091 -0.345054 -6.66914e-20)
(0.31064 -0.394038 -3.59216e-19)
(0.368818 -0.425745 2.12555e-19)
(0.0439019 -0.0735739 -8.22287e-20)
(0.121791 -0.192178 -3.88849e-20)
(0.196826 -0.285876 -1.85646e-19)
(0.267072 -0.357335 1.91805e-19)
(0.332083 -0.408701 1.72551e-19)
(0.391783 -0.442262 1.73633e-20)
(0.0480315 -0.0753747 9.74426e-20)
(0.132492 -0.197216 -1.27491e-19)
(0.212499 -0.29388 -3.02236e-20)
(0.286421 -0.367968 -7.93663e-20)
(0.353996 -0.42157 -2.57328e-19)
(0.415312 -0.456938 -1.58069e-20)
(0.052177 -0.0767823 -1.35676e-19)
(0.143266 -0.201265 4.48038e-20)
(0.22832 -0.300475 1.4119e-19)
(0.306005 -0.376916 -6.6682e-20)
(0.376238 -0.432603 1.74262e-19)
(0.439263 -0.469724 1.06105e-19)
(0.495411 -0.49073 -2.02394e-19)
(0.0563066 -0.0777944 9.32059e-20)
(0.154034 -0.204316 7.80518e-20)
(0.244177 -0.305644 -1.10465e-19)
(0.325694 -0.384155 1.71535e-19)
(0.398667 -0.441764 -1.83272e-19)
(0.463489 -0.480579 -1.72812e-20)
(0.520636 -0.502985 -6.86816e-20)
(0.0603883 -0.0784114 -9.70396e-20)
(0.164717 -0.206367 -5.95453e-21)
(0.259958 -0.309377 -7.3299e-21)
(0.345352 -0.389667 -9.83311e-20)
(0.421137 -0.449031 1.67931e-19)
(0.487841 -0.489472 9.94475e-20)
(0.546078 -0.51329 -1.58466e-19)
(0.596607 -0.52296 -6.44134e-20)
(0.0643909 -0.0786367 -2.85672e-20)
(0.175235 -0.207422 1.49759e-19)
(0.27555 -0.311677 -5.41363e-20)
(0.364844 -0.393449 -6.52071e-20)
(0.443501 -0.454391 -1.66604e-20)
(0.512168 -0.496383 -1.34454e-19)
(0.571587 -0.521618 8.42245e-20)
(0.622637 -0.532493 -1.43361e-19)
(0.0682833 -0.0784762 -4.47135e-20)
(0.18551 -0.207492 4.11932e-20)
(0.290841 -0.312554 3.26586e-20)
(0.384038 -0.395504 1.28037e-19)
(0.465612 -0.457842 7.36502e-20)
(0.536319 -0.501302 3.81897e-20)
(0.597013 -0.527952 9.42047e-20)
(0.648686 -0.540091 1.27885e-19)
(0.692433 -0.540158 -2.53594e-20)
(0.0720355 -0.0779388 -3.64526e-20)
(0.195465 -0.206595 3.29942e-20)
(0.305722 -0.312027 -4.98362e-20)
(0.402799 -0.39585 -7.7249e-20)
(0.487323 -0.459392 -9.4727e-21)
(0.560143 -0.50423 1.63186e-20)
(0.622208 -0.532284 -8.26403e-20)
(0.674608 -0.545739 -6.27749e-20)
(0.71854 -0.546945 1.69174e-19)
(0.75526 -0.538315 -1.0653e-19)
(0.0756188 -0.077036 -8.72901e-20)
(0.205028 -0.204757 -7.91639e-20)
(0.320084 -0.310124 -2.16699e-20)
(0.420997 -0.394514 -1.56105e-20)
(0.50849 -0.459064 -3.56656e-20)
(0.583488 -0.505179 -4.73306e-21)
(0.647021 -0.534619 -5.63833e-20)
(0.700263 -0.549432 -5.74451e-20)
(0.744499 -0.551865 -3.31603e-20)
(0.781081 -0.544262 -6.0719e-20)
(0.0790059 -0.075782 2.80241e-20)
(0.214127 -0.202007 7.14596e-20)
(0.333825 -0.306885 3.59947e-21)
(0.438506 -0.391531 2.82053e-20)
(0.528971 -0.456888 6.12974e-21)
(0.606205 -0.504173 1.71052e-20)
(0.671302 -0.534971 1.50378e-20)
(0.725506 -0.551176 8.00718e-20)
(0.77018 -0.554918 -6.34564e-20)
(0.806765 -0.548451 -8.20361e-20)
(0.836725 -0.534024 7.40323e-20)
(0.0821709 -0.0741934 2.1866e-20)
(0.222694 -0.198382 1.31812e-20)
(0.346844 -0.302354 -1.84902e-20)
(0.455201 -0.38695 -1.9927e-20)
(0.548626 -0.452907 2.12515e-20)
(0.628146 -0.501247 -4.78181e-21)
(0.694902 -0.533365 8.29605e-21)
(0.750192 -0.550991 -4.89733e-21)
(0.795445 -0.556118 1.07298e-20)
(0.832186 -0.550899 9.97648e-20)
(0.861984 -0.537525 -6.06234e-20)
(0.886435 -0.518094 1.65866e-19)
(0.0850897 -0.0722886 -5.67287e-21)
(0.230665 -0.193926 -1.40963e-20)
(0.359047 -0.296586 6.69638e-21)
(0.470963 -0.380828 1.28081e-20)
(0.56732 -0.447175 -1.62607e-20)
(0.649165 -0.496446 -1.24329e-20)
(0.717671 -0.529839 -1.78109e-20)
(0.774172 -0.548904 -2.61538e-20)
(0.820151 -0.555486 3.23162e-20)
(0.857202 -0.55163 7.25565e-20)
(0.886991 -0.539456 -5.72157e-20)
(0.911236 -0.521043 -1.33075e-19)
(0.0877403 -0.0700886 1.30924e-21)
(0.237982 -0.188686 1.90813e-21)
(0.370343 -0.289644 1.76979e-20)
(0.48568 -0.373232 1.25613e-21)
(0.584922 -0.439756 -4.42456e-21)
(0.669121 -0.489828 -2.59511e-21)
(0.739462 -0.524439 -4.01807e-21)
(0.797297 -0.544951 2.47578e-21)
(0.844145 -0.553053 -4.69352e-20)
(0.881659 -0.550665 -6.5809e-20)
(0.911575 -0.539833 3.57513e-20)
(0.935698 -0.522609 2.12729e-20)
(0.955899 -0.500921 1.69185e-20)
(0.0901032 -0.0676162 -1.25008e-20)
(0.244589 -0.182716 1.57268e-20)
(0.380651 -0.281598 5.36326e-21)
(0.499244 -0.364237 -3.27073e-20)
(0.601306 -0.430723 -9.26149e-23)
(0.687876 -0.481458 1.44414e-21)
(0.760128 -0.51722 -3.60061e-21)
(0.819416 -0.539179 2.1169e-21)
(0.867278 -0.548851 1.87625e-20)
(0.9054 -0.548027 -1.76887e-20)
(0.935571 -0.538665 2.92363e-20)
(0.959644 -0.522772 2.09576e-20)
(0.979497 -0.502269 1.54606e-20)
(0.996538 -0.479397 -9.95296e-20)
(0.0921611 -0.0648952 -3.34566e-20)
(0.25044 -0.176072 -7.45689e-20)
(0.389893 -0.272524 -8.7143e-21)
(0.511557 -0.353928 6.11346e-20)
(0.616356 -0.42016 5.53158e-20)
(0.705296 -0.471412 -3.0395e-20)
(0.779527 -0.508249 1.29428e-20)
(0.840383 -0.531638 7.79456e-21)
(0.889397 -0.54292 1.49038e-20)
(0.928272 -0.543742 6.94335e-21)
(0.958824 -0.53596 -1.88526e-20)
(0.982924 -0.52152 1.55511e-20)
(1.00243 -0.502309 2.48235e-20)
(1.01867 -0.480546 7.18052e-20)
(1.03193 -0.45884 8.25679e-20)
(0.0938981 -0.0619517 1.33776e-20)
(0.25549 -0.168818 1.15178e-19)
(0.398002 -0.262505 -1.3342e-20)
(0.522527 -0.342396 -7.66505e-20)
(0.62996 -0.408158 -3.56676e-20)
(0.721258 -0.459775 -2.15304e-20)
(0.797523 -0.497597 3.44491e-22)
(0.860052 -0.522388 -2.40385e-21)
(0.910355 -0.535304 -2.89437e-20)
(0.950127 -0.537838 -1.43689e-20)
(0.981187 -0.531732 -1.58427e-20)
(1.00541 -0.518849 -8.40427e-21)
(1.02462 -0.501023 -1.10918e-20)
(1.04008 -0.480413 -1.40255e-20)
(1.05208 -0.459492 -1.29728e-19)
(0.0953022 -0.0588136 1.96756e-20)
(0.259704 -0.161018 -8.88373e-20)