/*--------------------------------*- C++ -*----------------------------------*\
  =========                 |
  \\      /  F ield         | OpenFOAM: The Open Source CFD Toolbox
   \\    /   O peration     | Website:  https://openfoam.org
    \\  /    A nd           | Version:  7
     \\/     M anipulation  |
\*---------------------------------------------------------------------------*/
FoamFile
{
    version     2.0;
    format      ascii;
    class       volScalarField;
    location    "50";
    object      p;
}
// * * * * * * * * * * * * * * * * * * * * * * * * * * * * * * * * * * * * * //

dimensions      [0 2 -2 0 0 0 0];

internalField   nonuniform List<scalar> 
8500
(
0.0705892
0.0742235
0.0810473
0.0782348
0.0852636
0.0915597
0.0829205
0.0898696
0.0963698
0.102097
0.0952243
0.101579
0.107525
0.112627
0.100641
0.107604
0.113353
0.118721
0.123131
0.106118
0.113756
0.120046
0.125186
0.129955
0.133543
0.120012
0.126936
0.132541
0.137088
0.141198
0.143624
0.126365
0.13397
0.140167
0.145093
0.149075
0.152356
0.153054
0.141133
0.147972
0.153437
0.157703
0.161126
0.163328
0.162141
0.148391
0.155936
0.161999
0.166732
0.170354
0.173152
0.174032
0.172909
0.155689
0.164033
0.170749
0.17603
0.180031
0.182996
0.185128
0.185189
0.184432
0.172215
0.179671
0.18555
0.190044
0.193311
0.195601
0.197052
0.196477
0.195693
0.180422
0.18872
0.19528
0.200316
0.204018
0.206547
0.208152
0.20893
0.207793
0.206793
0.197836
0.205177
0.210835
0.215023
0.217929
0.219716
0.220629
0.220742
0.219058
0.21773
0.21518
0.221559
0.226311
0.229648
0.231755
0.232797
0.233014
0.232463
0.230229
0.228501
0.225215
0.232425
0.237838
0.241682
0.244166
0.245473
0.245768
0.245285
0.244073
0.24128
0.239103
0.243356
0.249541
0.253988
0.256923
0.258554
0.259061
0.258609
0.257425
0.25555
0.252191
0.249532
0.25428
0.261339
0.266499
0.269982
0.272009
0.272789
0.272498
0.271299
0.269415
0.266876
0.262947
0.259783
0.273152
0.279131
0.283271
0.285792
0.286916
0.286848
0.285761
0.283819
0.281236
0.278036
0.273534
0.269849
0.28493
0.291797
0.296703
0.299827
0.301393
0.301619
0.300708
0.298832
0.29615
0.29287
0.289013
0.283938
0.279723
0.304436
0.310184
0.314023
0.31614
0.316757
0.316094
0.314347
0.311687
0.308272
0.304302
0.299791
0.294148
0.289394
0.323641
0.328278
0.331061
0.332181
0.33186
0.330316
0.327743
0.324309
0.320167
0.315514
0.310357
0.30415
0.298855
0.337076
0.342508
0.346048
0.347787
0.347922
0.346676
0.344263
0.340875
0.336676
0.331818
0.32649
0.320696
0.313933
0.308096
0.356696
0.361004
0.363461
0.364172
0.363337
0.36118
0.357912
0.353721
0.34877
0.343207
0.337213
0.330793
0.323483
0.317105
0.375893
0.379094
0.380486
0.380186
0.378399
0.375347
0.371239
0.366261
0.360571
0.354316
0.34767
0.340634
0.332788
0.325874
0.390821
0.394632
0.396745
0.397092
0.395802
0.393082
0.389154
0.384223
0.378474
0.372061
0.365128
0.357843
0.350206
0.341836
0.33439
0.410148
0.412876
0.413925
0.41325
0.410992
0.407361
0.402577
0.396843
0.390341
0.383222
0.375627
0.367718
0.359495
0.350614
0.342644
0.428923
0.430592
0.430601
0.42893
0.425729
0.421211
0.415593
0.409077
0.401842
0.394036
0.385797
0.37728
0.368487
0.359109
0.350625
0.447108
0.447746
0.446744
0.444105
0.439988
0.434607
0.42818
0.420906
0.412958
0.404485
0.395622
0.386515
0.37717
0.367311
0.358323
0.463697
0.46467
0.464306
0.462324
0.458747
0.453742
0.447527
0.440317
0.432308
0.423672
0.414554
0.405086
0.395409
0.38553
0.375207
0.365727
0.481553
0.481573
0.480241
0.477311
0.472829
0.466968
0.459948
0.451983
0.443266
0.433966
0.424226
0.414175
0.403948
0.393555
0.382785
0.372827
0.498685
0.497787
0.49552
0.491679
0.486326
0.479642
0.471849
0.463158
0.45376
0.443823
0.433486
0.422874
0.412119
0.401234
0.390035
0.379614
0.515061
0.513278
0.510116
0.505401
0.499213
0.491742
0.483208
0.473823
0.463774
0.453227
0.442318
0.431171
0.419911
0.408554
0.396946
0.386079
0.530646
0.528019
0.524
0.518452
0.511468
0.503247
0.494007
0.483959
0.47329
0.462161
0.450708
0.439051
0.427309
0.415504
0.403507
0.392212
0.547972
0.545412
0.54198
0.537148
0.530807
0.523069
0.514135
0.504225
0.49355
0.482293
0.470612
0.458643
0.446502
0.434304
0.422075
0.409708
0.398006
0.562595
0.559328
0.555134
0.549533
0.542445
0.533994
0.524387
0.513846
0.502578
0.490766
0.478566
0.466109
0.453512
0.440884
0.428255
0.415541
0.403451
0.576301
0.572367
0.567457
0.561133
0.553343
0.544223
0.533986
0.522852
0.511029
0.498696
0.486009
0.473095
0.46007
0.447039
0.434035
0.420995
0.408541
0.589061
0.584504
0.578925
0.571927
0.563482
0.553739
0.542913
0.531228
0.518887
0.50607
0.492928
0.479589
0.466166
0.452759
0.439406
0.426064
0.413268
0.60085
0.595715
0.589516
0.581894
0.572843
0.562523
0.551154
0.538959
0.52614
0.512874
0.499312
0.485581
0.471789
0.458035
0.44436
0.430738
0.417625
0.611644
0.605978
0.59921
0.591015
0.581408
0.570561
0.558694
0.546031
0.532773
0.519097
0.505151
0.49106
0.47693
0.462858
0.448889
0.435011
0.421606
0.621422
0.615273
0.607987
0.599273
0.589163
0.577836
0.565518
0.552432
0.538777
0.524729
0.510434
0.496017
0.481582
0.467222
0.452986
0.438876
0.425206
0.630163
0.623581
0.615833
0.606653
0.596093
0.584338
0.571616
0.55815
0.544141
0.52976
0.515154
0.500445
0.485737
0.471119
0.456645
0.442327
0.428419
0.637851
0.630887
0.622731
0.613142
0.602184
0.590052
0.576975
0.563176
0.548854
0.534181
0.519301
0.504335
0.489387
0.474543
0.459859
0.445359
0.431241
0.650969
0.644469
0.637176
0.628668
0.618726
0.607427
0.59497
0.581587
0.567501
0.55291
0.537985
0.522869
0.507682
0.492527
0.477488
0.462624
0.447967
0.433667
0.656736
0.650005
0.642436
0.633633
0.623396
0.611811
0.599082
0.585444
0.571117
0.556301
0.541165
0.525852
0.51048
0.495152
0.47995
0.464935
0.450147
0.435695
0.661365
0.654447
0.646656
0.637617
0.627142
0.615328
0.602381
0.588537
0.574018
0.559021
0.543716
0.528244
0.512725
0.497257
0.481924
0.466788
0.451896
0.437321
0.664845
0.657787
0.649829
0.640612
0.629959
0.617972
0.604861
0.590863
0.576199
0.561066
0.545634
0.530043
0.514412
0.49884
0.483408
0.468181
0.45321
0.438543
0.66717
0.660018
0.651949
0.642612
0.63184
0.619738
0.606518
0.592416
0.577655
0.562432
0.546914
0.531244
0.515539
0.499897
0.484399
0.469112
0.454087
0.439359
0.668334
0.661136
0.65301
0.643614
0.632782
0.620622
0.607347
0.593194
0.578385
0.563116
0.547556
0.531846
0.516103
0.500427
0.484896
0.469578
0.454527
0.439768
0.668335
0.661137
0.653012
0.643616
0.632784
0.620624
0.607349
0.593196
0.578386
0.563118
0.547558
0.531847
0.516105
0.500428
0.484898
0.46958
0.454529
0.43977
0.667174
0.660023
0.651953
0.642617
0.631845
0.619742
0.606522
0.592421
0.57766
0.562437
0.546919
0.531249
0.515544
0.499902
0.484404
0.469117
0.454092
0.439364
0.664852
0.657795
0.649837
0.64062
0.629967
0.61798
0.604869
0.590871
0.576207
0.561074
0.545642
0.530051
0.51442
0.498848
0.483416
0.468189
0.453218
0.438551
0.661375
0.654458
0.646667
0.637628
0.627153
0.615339
0.602393
0.588549
0.57403
0.559033
0.543728
0.528256
0.512736
0.497269
0.481936
0.4668
0.451907
0.437332
0.656749
0.650018
0.642449
0.633647
0.62341
0.611825
0.599097
0.585458
0.571132
0.556316
0.54118
0.525866
0.510495
0.495167
0.479964
0.464949
0.450162
0.435709
0.650985
0.644485
0.637192
0.628685
0.618743
0.607444
0.594988
0.581605
0.567519
0.552929
0.538003
0.522887
0.507701
0.492545
0.477506
0.462642
0.447985
0.433684
0.63787
0.630906
0.622751
0.613162
0.602205
0.590073
0.576997
0.563198
0.548876
0.534203
0.519323
0.504357
0.489408
0.474564
0.45988
0.44538
0.431261
0.630185
0.623604
0.615856
0.606677
0.596117
0.584362
0.571641
0.558175
0.544166
0.529785
0.515179
0.50047
0.485761
0.471144
0.456669
0.442351
0.428442
0.621447
0.615299
0.608014
0.5993
0.58919
0.577864
0.565547
0.55246
0.538806
0.524758
0.510463
0.496046
0.48161
0.46725
0.453014
0.438903
0.425232
0.611673
0.606007
0.59924
0.591045
0.581439
0.570592
0.558726
0.546063
0.532806
0.519129
0.505183
0.491092
0.476962
0.46289
0.44892
0.435041
0.421636
0.600882
0.595748
0.58955
0.581928
0.572877
0.562558
0.55119
0.538994
0.526175
0.51291
0.499348
0.485616
0.471824
0.45807
0.444395
0.430772
0.417658
0.589097
0.584541
0.578962
0.571965
0.56352
0.553778
0.542952
0.531267
0.518927
0.506109
0.492967
0.479629
0.466204
0.452797
0.439444
0.426101
0.413304
0.576341
0.572407
0.567498
0.561175
0.553385
0.544266
0.534029
0.522895
0.511072
0.49874
0.486052
0.473138
0.460113
0.447081
0.434076
0.421036
0.40858
0.562639
0.559372
0.555179
0.549579
0.542491
0.53404
0.524434
0.513893
0.502626
0.490813
0.478613
0.466156
0.453558
0.44093
0.428299
0.415585
0.403494
0.548021
0.54546
0.542029
0.537197
0.530857
0.52312
0.514185
0.504276
0.493601
0.482344
0.470663
0.458693
0.446552
0.434353
0.422123
0.409756
0.398052
0.530699
0.528072
0.524054
0.518506
0.511523
0.503302
0.494062
0.484014
0.473345
0.462216
0.450762
0.439104
0.427362
0.415556
0.403558
0.392262
0.515118
0.513336
0.510174
0.50546
0.499272
0.491802
0.483268
0.473882
0.463833
0.453285
0.442376
0.431228
0.419967
0.408609
0.397
0.386132
0.498747
0.497849
0.495583
0.491742
0.486389
0.479706
0.471913
0.463221
0.453824
0.443886
0.433548
0.422936
0.41218
0.401293
0.390094
0.379671
0.48162
0.48164
0.480308
0.477379
0.472897
0.467037
0.460016
0.452051
0.443334
0.434033
0.424293
0.41424
0.404013
0.393618
0.382847
0.372887
0.463769
0.464742
0.464378
0.462396
0.458819
0.453815
0.4476
0.44039
0.43238
0.423744
0.414625
0.405156
0.395477
0.385597
0.375273
0.36579
0.447186
0.447824
0.446822
0.444183
0.440066
0.434685
0.428257
0.420982
0.413034
0.404561
0.395696
0.386588
0.377241
0.367381
0.35839
0.429005
0.430675
0.430684
0.429013
0.425812
0.421293
0.415675
0.409159
0.401922
0.394115
0.385875
0.377357
0.368562
0.359183
0.350696
0.410237
0.412965
0.414013
0.413338
0.41108
0.407449
0.402664
0.396929
0.390426
0.383306
0.37571
0.367799
0.359574
0.350691
0.342719
0.394726
0.396839
0.397186
0.395895
0.393175
0.389246
0.384315
0.378564
0.37215
0.365215
0.357928
0.350289
0.341917
0.334469
0.375994
0.379194
0.380585
0.380285
0.378498
0.375445
0.371335
0.366356
0.360664
0.354408
0.347759
0.340722
0.332873
0.325957
0.356802
0.36111
0.363566
0.364276
0.363441
0.361283
0.358013
0.353821
0.348868
0.343303
0.337308
0.330885
0.323572
0.317192
0.337189
0.34262
0.346159
0.347898
0.348032
0.346785
0.34437
0.34098
0.336779
0.33192
0.326589
0.320792
0.314027
0.308187
0.323759
0.328396
0.331178
0.332296
0.331975
0.330429
0.327854
0.324417
0.320274
0.315618
0.310458
0.304248
0.29895
0.304562
0.310308
0.314146
0.316262
0.316877
0.316212
0.314463
0.311801
0.308383
0.30441
0.299897
0.29425
0.289494
0.285062
0.291929
0.296833
0.299955
0.301519
0.301743
0.300829
0.298951
0.296266
0.292984
0.289123
0.284045
0.279826
0.27329
0.279268
0.283405
0.285924
0.287046
0.286975
0.285886
0.283941
0.281354
0.278151
0.273646
0.269957
0.254425
0.261482
0.26664
0.27012
0.272146
0.272922
0.272628
0.271426
0.269538
0.266996
0.263064
0.259896
0.243507
0.249689
0.254134
0.257065
0.258693
0.259197
0.258742
0.257554
0.255675
0.252313
0.249649
0.225373
0.23258
0.237991
0.241831
0.244311
0.245615
0.245907
0.24542
0.244203
0.241407
0.239225
0.215343
0.221718
0.226466
0.2298
0.231903
0.232941
0.233154
0.232599
0.23036
0.228628
0.198006
0.205344
0.210998
0.215182
0.218084
0.219866
0.220775
0.220883
0.219194
0.217862
0.1806
0.188894
0.195449
0.200482
0.204179
0.206703
0.208303
0.209076
0.207934
0.206929
0.172397
0.179848
0.185723
0.190212
0.193473
0.195758
0.197204
0.196624
0.195835
0.164217
0.170928
0.176205
0.1802
0.183159
0.185285
0.185341
0.184579
0.148583
0.156122
0.16218
0.166907
0.170523
0.173316
0.174189
0.173061
0.141328
0.14816
0.153619
0.157879
0.161295
0.163491
0.162299
0.126567
0.134165
0.140356
0.145275
0.14925
0.152524
0.153216
0.120215
0.127132
0.13273
0.137269
0.141372
0.143791
0.106328
0.113959
0.120241
0.125373
0.130135
0.133715
0.100851
0.107806
0.113547
0.118906
0.123308
0.095433
0.10178
0.107716
0.11281
0.0900763
0.096567
0.102284
0.078448
0.0854669
0.0917531
0.0744329
0.0812463
0.0707939
0.157674
0.147965
0.138204
0.128599
0.118686
0.108649
0.0986374
0.0886529
0.0787047
0.0688199
0.0590175
0.152381
0.142555
0.132216
0.12279
0.113274
0.103597
0.0939828
0.0844522
0.0749825
0.0655872
0.0562829
0.145891
0.136082
0.125591
0.116407
0.107377
0.0981635
0.0889979
0.0799463
0.0709715
0.0620712
0.0532612
0.139042
0.129542
0.119301
0.110476
0.101945
0.0932171
0.0845013
0.0759057
0.0673983
0.0589643
0.050617
0.132239
0.123175
0.113323
0.104878
0.0968005
0.0885354
0.080256
0.0720951
0.0640316
0.0560427
0.0481367
0.125688
0.117072
0.107658
0.0995923
0.0919335
0.0841074
0.0762523
0.0685097
0.0608692
0.0533039
0.0458172
0.119422
0.111234
0.102279
0.094595
0.0873326
0.0799252
0.0724811
0.0651411
0.0579034
0.0507403
0.0436513
0.113444
0.105665
0.0971743
0.0898728
0.0829888
0.0759793
0.0689299
0.0619755
0.0551205
0.0483383
0.0416258
0.107759
0.100374
0.0923418
0.0854155
0.0788923
0.0722601
0.0655871
0.0590002
0.0525082
0.0460862
0.0397293
0.102367
0.0953617
0.087774
0.081211
0.0750312
0.0687559
0.0624404
0.0562029
0.0500547
0.0439728
0.0379516
0.0972635
0.0906217
0.0834605
0.0772463
0.0713926
0.0654549
0.0594782
0.0535718
0.0477486
0.0419878
0.0362829
0.0924393
0.0861442
0.0793897
0.0735085
0.067964
0.0623451
0.0566888
0.0510956
0.0455794
0.0401213
0.0347145
0.0878824
0.0819177
0.0755493
0.0699849
0.064733
0.0594151
0.0540612
0.0487639
0.0435374
0.0383644
0.0332383
0.0835805
0.0779301
0.0719271
0.066663
0.0616878
0.0566536
0.051585
0.0465668
0.0416131
0.0367087
0.0318468
0.0795209
0.074169
0.0685108
0.0635309
0.0588169
0.0540498
0.04925
0.0444948
0.0397982
0.0351464
0.030533
0.0756906
0.0706217
0.0652885
0.0605769
0.0561092
0.0515936
0.0470468
0.0425392
0.0380845
0.0336705
0.0292908
0.072077
0.0672762
0.0622486
0.05779
0.0535544
0.0492753
0.0449664
0.0406918
0.0364648
0.0322743
0.0281145
0.0686679
0.0641205
0.05938
0.0551597
0.0511426
0.0470858
0.0430006
0.0389452
0.0349322
0.0309519
0.0269988
0.0654513
0.0611434
0.0566722
0.052676
0.0488645
0.0450166
0.0411415
0.0372922
0.0334805
0.0296979
0.0259391
0.0624158
0.0583339
0.0541151
0.0503296
0.0467114
0.0430597
0.0393821
0.0357264
0.032104
0.0285071
0.0249311
0.0595506
0.0556818
0.0516993
0.0481117
0.0446753
0.0412078
0.0377156
0.0342419
0.0307973
0.0273752
0.023971
0.0568453
0.0531775
0.049416
0.0460141
0.0427485
0.0394541
0.0361359
0.0328331
0.0295558
0.0262979
0.0230554
0.0542903
0.0508116
0.0472569
0.0440292
0.0409241
0.037792
0.0346373
0.0314952
0.028375
0.0252716
0.0221812
0.0518762
0.0485757
0.0452142
0.0421499
0.0391955
0.0362159
0.0332146
0.0302234
0.027251
0.0242928
0.0213456
0.0495946
0.0464616
0.0432807
0.0403695
0.0375568
0.0347203
0.031863
0.0290136
0.0261802
0.0233587
0.0205461
0.0474374
0.044462
0.0414497
0.0386821
0.0360024
0.0333002
0.0305782
0.027862
0.0251592
0.0224663
0.0197806
0.045397
0.0425698
0.0397151
0.0370819
0.0345271
0.0319512
0.0293561
0.0267652
0.0241853
0.0216134
0.019047
0.0434665
0.0407785
0.038071
0.0355638
0.0331264
0.0306689
0.0281931
0.0257199
0.0232556
0.0207976
0.0183437
0.0416393
0.0390823
0.0365121
0.0341232
0.031796
0.0294497
0.027086
0.0247234
0.0223678
0.020017
0.017669
0.0399096
0.0374755
0.0350337
0.0327554
0.0305318
0.0282901
0.0260315
0.0237729
0.0215197
0.0192698
0.0170216
0.0382717
0.0359531
0.0336312
0.0314566
0.0293303
0.0271867
0.025027
0.0228662
0.0207093
0.0185545
0.0164003
0.0367205
0.0345104
0.0323005
0.0302231
0.0281882
0.0261368
0.0240699
0.0220011
0.0199347
0.0178694
0.0352513
0.033143
0.0310377
0.0290515
0.0271023
0.0251375
0.0231579
0.0211755
0.0191944
0.0172135
0.0338598
0.0318471
0.0298394
0.0279386
0.02607
0.0241866
0.0222889
0.0203878
0.0184869
0.0165854
0.0325418
0.0306189
0.0287025
0.0268816
0.0250887
0.0232817
0.021461
0.0196363
0.0178109
0.0159841
0.0312939
0.029455
0.0276238
0.0258779
0.0241561
0.0224208
0.0206724
0.0189195
0.0171651
0.0154086
0.0301125
0.0283525
0.0266009
0.0249251
0.02327
0.021602
0.0199215
0.0182361
0.0165485
0.0148582
0.0289945
0.0273085
0.0256311
0.024021
0.0224285
0.0208237
0.0192068
0.0175848
0.01596
0.014332
0.0279372
0.0263205
0.0247124
0.0231636
0.0216298
0.0200842
0.0185271
0.0169645
0.0153987
0.0138293
0.0269379
0.025386
0.0238425
0.0223512
0.0208723
0.0193822
0.0178811
0.0163743
0.0148638
0.0133495
0.0259943
0.024503
0.0230196
0.021582
0.0201545
0.0187163
0.0172677
0.0158132
0.0143546
0.0128919
0.0251042
0.0236694
0.022242
0.0208545
0.0194751
0.0180855
0.0166858
0.0152803
0.0138704
0.012456
0.0242657
0.0228837
0.0215083
0.0201673
0.0188328
0.0174886
0.0161347
0.0147749
0.0134105
0.0120415
0.0234771
0.0221441
0.0208169
0.0195194
0.0182266
0.0169246
0.0156135
0.0142963
0.0129744
0.0116477
0.0227367
0.0214492
0.0201668
0.0189095
0.0176556
0.0163929
0.0151214
0.013844
0.0125617
0.0112745
0.0220434
0.020798
0.0195568
0.0183367
0.0171188
0.0158926
0.014658
0.0134174
0.0121719
0.0109215
0.0213957
0.0201893
0.018986
0.0178003
0.0166157
0.0154231
0.0142225
0.0130161
0.0118047
0.0105884
0.020793
0.0196222
0.0184537
0.0172995
0.0161455
0.0149839
0.0138147
0.0126398
0.0114599
0.010275
0.0202342
0.019096
0.0179593
0.0168339
0.0157078
0.0145746
0.0134342
0.0122881
0.0111371
0.00998117
0.0197189
0.0186103
0.0175022
0.0164029
0.0153023
0.0141949
0.0130807
0.011961
0.0108363
0.00970679
0.0192466
0.0181645
0.0170823
0.0160065
0.0149288
0.0138447
0.0127541
0.0116581
0.0105574
0.00945183
0.0188172
0.0177588
0.0166994
0.0156445
0.0145872
0.0135238
0.0124543
0.0113797
0.0103003
0.00921631
0.0184308
0.017393
0.0163536
0.015317
0.0142776
0.0132325
0.0121816
0.0111257
0.0100653
0.00900038
0.0180876
0.0170675
0.0160452
0.0150242
0.0140002
0.0129708
0.011936
0.0108964
0.00985244
0.00880413
0.0177885
0.0167829
0.0157748
0.0147669
0.0137557
0.0127394
0.0117182
0.0106923
0.00966229
0.00862812
0.017534
0.01654
0.0155431
0.0145454
0.0135444
0.0125386
0.0115282
0.0105134
0.00949471
0.00847206
0.017326
0.0163403
0.0153517
0.0143616
0.0133681
0.0123702
0.011368
0.0103619
0.00935194
0.00833834
0.0171651
0.0161843
0.0152004
0.0142147
0.0132257
0.0122327
0.0112356
0.0102349
0.00923068
0.00822303
0.017056
0.0160772
0.0150955
0.0141117
0.0131249
0.0121345
0.0111406
0.0101432
0.00914269
0.00813904
0.0169962
0.0160144
0.0150295
0.0140426
0.0130529
0.0120599
0.0110636
0.0100644
0.00906226
0.0080574
0.16025
0.160872
0.162115
0.163882
0.166147
0.168865
0.172008
0.175544
0.179443
0.18367
0.188187
0.192947
0.197895
0.202963
0.208074
0.213126
0.218015
0.222594
0.226726
0.230209
0.232878
0.234451
0.234768
0.233417
0.230346
0.224846
0.217312
0.20606
0.193091
0.171914
0.159858
0.160467
0.161681
0.16341
0.165621
0.168272
0.171332
0.174768
0.178548
0.182634
0.186987
0.191553
0.196277
0.201085
0.205897
0.210607
0.215106
0.219247
0.222888
0.225825
0.227896
0.228822
0.22845
0.226379
0.222567
0.216344
0.208082
0.196261
0.182586
0.163094
0.159446
0.16004
0.161225
0.16291
0.165062
0.167639
0.170609
0.173936
0.177587
0.181521
0.185695
0.190056
0.194543
0.199081
0.203585
0.207949
0.21206
0.215771
0.218941
0.221369
0.222899
0.223258
0.22231
0.21967
0.215324
0.208631
0.199998
0.188051
0.174515
0.156578
0.159013
0.159591
0.160744
0.162383
0.164473
0.166973
0.169846
0.173059
0.176574
0.180348
0.184337
0.188484
0.192726
0.196983
0.20117
0.205177
0.208893
0.212166
0.214861
0.216778
0.217769
0.217572
0.216064
0.212881
0.208034
0.200927
0.191984
0.180019
0.166627
0.149557
0.158557
0.15912
0.160239
0.16183
0.163856
0.166274
0.169049
0.172143
0.175518
0.179129
0.182928
0.186855
0.190847
0.194819
0.198685
0.202333
0.20565
0.208487
0.210709
0.212122
0.212585
0.211846
0.209798
0.2061
0.20078
0.193303
0.184081
0.172121
0.158808
0.142351
0.158079
0.158624
0.159709
0.16125
0.16321
0.165544
0.168217
0.171189
0.17442
0.177862
0.181467
0.185171
0.188907
0.192592
0.196134
0.199422
0.202343
0.204749
0.206507
0.20743
0.207383
0.206131
0.203576
0.199407
0.193663
0.185875
0.176433
0.164513
0.151318
0.135432
0.157576
0.158105
0.159154
0.160643
0.162533
0.164781
0.167349
0.170194
0.173277
0.176547
0.179953
0.183429
0.186907
0.1903
0.193518
0.196446
0.198973
0.200954
0.202259
0.202708
0.202174
0.200437
0.197413
0.19282
0.186706
0.178668
0.169066
0.157232
0.144211
0.128874
0.15705
0.15756
0.158573
0.160008
0.161826
0.163985
0.166443
0.169159
0.172089
0.175182
0.178385
0.181629
0.184845
0.187945
0.190836
0.193406
0.195544
0.197106
0.19797
0.197962
0.196964
0.194773
0.191316
0.186344
0.179909
0.171675
0.161969
0.150257
0.137448
0.122635
0.156499
0.15699
0.157964
0.159343
0.161088
0.163153
0.165499
0.168082
0.170855
0.173768
0.176763
0.179773
0.182724
0.185528
0.188093
0.190307
0.192059
0.193213
0.193647
0.1932
0.191763
0.189148
0.185295
0.179986
0.173279
0.164895
0.155134
0.143573
0.131002
0.116691
0.155922
0.156393
0.157327
0.158649
0.160317
0.162287
0.164517
0.166963
0.169576
0.172305
0.175089
0.17786
0.180544
0.183052
0.185292
0.187152
0.188526
0.18928
0.1893
0.188434
0.186581
0.183574
0.179361
0.173757
0.166821
0.15833
0.148557
0.137171
0.12486
0.11104
0.155318
0.15577
0.156663
0.157925
0.159514
0.161385
0.163497
0.165801
0.168252
0.170792
0.173362
0.175893
0.178308
0.18052
0.182436
0.183947
0.18495
0.185315
0.184936
0.183671
0.181429
0.17806
0.173523
0.167663
0.160541
0.151983
0.142235
0.131046
0.119013
0.105674
0.154687
0.155118
0.155969
0.157169
0.158677
0.160448
0.162437
0.164598
0.166881
0.169231
0.171585
0.173872
0.176018
0.177934
0.179529
0.180697
0.181336
0.181325
0.180564
0.178921
0.176316
0.172616
0.16779
0.161712
0.154443
0.145853
0.136164
0.12519
0.113451
0.100586
0.154029
0.154439
0.155245
0.156382
0.157807
0.159473
0.161338
0.163352
0.165466
0.167621
0.169756
0.1718
0.173676
0.175298
0.176575
0.177405
0.177691
0.177318
0.176192
0.174193
0.171251
0.167251
0.162171
0.15591
0.14853
0.139941
0.13034
0.119597
0.108164
0.0957648
0.153343
0.15373
0.154491
0.155563
0.156902
0.158462
0.160199
0.162064
0.164005
0.165964
0.167879
0.169677
0.171285
0.172614
0.173578
0.174079
0.174022
0.1733
0.171827
0.169496
0.166243
0.161973
0.156671
0.150261
0.142805
0.134243
0.124757
0.114258
0.103142
0.0911988
0.152627
0.152992
0.153707
0.154712
0.155963
0.157414
0.159021
0.160733
0.1625
0.164261
0.165954
0.167507
0.168847
0.169887
0.170544
0.170722
0.170334
0.169279
0.167478
0.164836
0.161299
0.156789
0.151297
0.144769
0.137268
0.12876
0.119411
0.109166
0.0983722
0.0868768
0.151882
0.152223
0.152891
0.153828
0.154989
0.156329
0.157803
0.159361
0.160951
0.162512
0.163983
0.165291
0.166365
0.16712
0.167476
0.167342
0.166634
0.165262
0.163153
0.160224
0.156429
0.151707
0.146054
0.139438
0.131919
0.123488
0.114294
0.104312
0.0938451
0.0827873
0.151108
0.151425
0.152044
0.15291
0.153979
0.155207
0.156546
0.157948
0.159359
0.160719
0.161967
0.163033
0.163843
0.164318
0.16438
0.163943
0.16293
0.161257
0.158859
0.155665
0.151639
0.146731
0.140947
0.134269
0.126758
0.118423
0.109401
0.0996885
0.0895499
0.0789186
0.150303
0.150595
0.151165
0.15196
0.152935
0.154047
0.15525
0.156494
0.157725
0.158884
0.15991
0.160734
0.161284
0.161485
0.161261
0.160532
0.159227
0.157269
0.154603
0.151168
0.146934
0.141868
0.135979
0.129263
0.121785
0.113563
0.104725
0.0952863
0.0854757
0.0752593
0.149468
0.149735
0.150254
0.150975
0.151856
0.152851
0.153916
0.155
0.15605
0.157008
0.157813
0.158397
0.158692
0.158625
0.158124
0.157115
0.155531
0.153308
0.150393
0.146739
0.142322
0.137122
0.131152
0.124423
0.116995
0.108903
0.10026
0.0910968
0.0816122
0.0717984
0.148602
0.148843
0.149311
0.149958
0.150741
0.151618
0.152544
0.153467
0.154336
0.155094
0.155679
0.156027
0.156072
0.155743
0.154974
0.153697
0.151851
0.149378
0.146235
0.142383
0.137807
0.132496
0.12647
0.119747
0.112389
0.104437
0.0959977
0.0871114
0.0779491
0.0685248
0.147705
0.14792
0.148335
0.148907
0.149592
0.15035
0.151134
0.151897
0.152585
0.153142
0.15351
0.153626
0.153425
0.152843
0.151817
0.150284
0.148191
0.145486
0.142135
0.138107
0.133394
0.127995
0.121932
0.115235
0.107962
0.100162
0.091932
0.0833213
0.0744764
0.0654284
0.146777
0.146965
0.147327
0.147822
0.148409
0.149046
0.149689
0.15029
0.150798
0.151157
0.15131
0.151198
0.150759
0.149931
0.148658
0.146883
0.144557
0.141639
0.138099
0.133915
0.129087
0.12362
0.117541
0.110885
0.103711
0.0960719
0.0880556
0.0797181
0.0711845
0.0624989
0.145818
0.145979
0.146288
0.146705
0.147192
0.147708
0.148209
0.148649
0.148977
0.149139
0.149082
0.148746
0.148075
0.147012
0.145503
0.143499
0.140957
0.137842
0.134132
0.129813
0.124889
0.119373
0.113296
0.106697
0.0996329
0.0921608
0.084361
0.0762934
0.0680639
0.0597271
0.144828
0.144962
0.145217
0.145556
0.145942
0.146336
0.146695
0.146974
0.147124
0.147093
0.146828
0.146275
0.14538
0.14409
0.142357
0.140137
0.137394
0.1341
0.130239
0.125804
0.120803
0.115256
0.109197
0.102667
0.095723
0.0884234
0.0808411
0.0730389
0.0651058
0.0571039
0.143809
0.143915
0.144114
0.144375
0.14466
0.144932
0.14515
0.145269
0.145242
0.14502
0.144553
0.143788
0.142676
0.14117
0.139225
0.136804
0.133876
0.130419
0.126424
0.121891
0.116832
0.11127
0.105242
0.0987932
0.0919774
0.0848538
0.077489
0.0699468
0.0623015
0.0546208
0.142759
0.142837
0.142981
0.143163
0.143347
0.143497
0.143574
0.143534
0.143334
0.142925
0.142259
0.14129
0.13997
0.138257
0.136113
0.133504
0.130406
0.126804
0.122693
0.118078
0.112976
0.107415
0.101432
0.0950729
0.0883915
0.0814463
0.0742975
0.0670093
0.059643
0.0522697
0.141679
0.141729
0.141819
0.141921
0.142004
0.142032
0.141969
0.141773
0.141402
0.140809
0.139952
0.138785
0.137266
0.135357
0.133025
0.130242
0.12699
0.123258
0.119047
0.114367
0.109237
0.10369
0.0977626
0.0915026
0.0849607
0.0781949
0.0712599
0.0642192
0.0571226
0.0500432
0.140572
0.140593
0.140628
0.14065
0.140632
0.14054
0.140338
0.139988
0.139448
0.138678
0.137634
0.136277
0.134568
0.132475
0.129967
0.127024
0.123632
0.119786
0.115491
0.11076
0.105617
0.100095
0.0942335
0.088079
0.0816803
0.0750941
0.0683697
0.0615692
0.0547329
0.0479343
0.139436
0.13943
0.139409
0.139352
0.139234
0.139022
0.138683
0.138181
0.137478
0.136533
0.13531
0.13377
0.131881
0.129614
0.126944
0.123854
0.120337
0.116392
0.112026
0.107259
0.102115
0.0966302
0.0908422
0.0847986
0.0785455
0.072138
0.0656203
0.0590528
0.052467
0.0459363
0.138274
0.138239
0.138163
0.138028
0.13781
0.13748
0.137007
0.136356
0.135492
0.13438
0.132983
0.13127
0.12921
0.12678
0.12396
0.120737
0.117109
0.113078
0.108656
0.103865
0.0987323
0.093293
0.087586
0.0816577
0.0755518
0.0693212
0.0630057
0.0566634
0.0503184
0.0440432
0.137087
0.137024
0.136893
0.13668
0.136363
0.135917
0.135311
0.134515
0.133496
0.132221
0.130659
0.12878
0.12656
0.123978
0.121019
0.117677
0.11395
0.109847
0.105382
0.10058
0.0954675
0.0900824
0.0844622
0.0786525
0.0726943
0.0666382
0.0605199
0.054395
0.0482812
0.0422492
0.135875
0.135784
0.1356
0.13531
0.134896
0.134335
0.1336
0.132662
0.131493
0.130061
0.12834
0.126305
0.123934
0.121211
0.118127
0.114677
0.110865
0.106702
0.102206
0.0974026
0.0923204
0.0869966
0.0814682
0.0757793
0.0699685
0.0640839
0.0581573
0.0522418
0.0463495
0.040549
0.134642
0.134524
0.134286
0.133919
0.13341
0.132737
0.131875
0.1308
0.129485
0.127904
0.126033
0.123849
0.121338
0.118486
0.115287
0.111742
0.107857
0.103646
0.0991298
0.0943345
0.0892903
0.0840337
0.0786009
0.0730343
0.0673698
0.0616531
0.0559126
0.0501984
0.0445181
0.0389377
0.133389
0.133243
0.132952
0.132511
0.131908
0.131125
0.130141
0.128933
0.127479
0.125754
0.12374
0.121418
0.118776
0.115805
0.112503
0.108874
0.104927
0.10068
0.0961534
0.0913752
0.0863761
0.0811919
0.0758575
0.0704136
0.0648938
0.059341
0.0537806
0.0482597
0.042782
0.0374107
0.132118
0.131945
0.131602
0.131088
0.130393
0.129504
0.128401
0.127065
0.125476
0.123615
0.121466
0.119015
0.116252
0.113173
0.109779
0.106077
0.10208
0.0978059
0.093278
0.0885247
0.0835766
0.0784688
0.0732349
0.0679136
0.0625362
0.057143
0.0517565
0.0464209
0.0411366
0.0359639
0.130831
0.130631
0.130239
0.129653
0.128869
0.127876
0.126658
0.125199
0.123482
0.121492
0.119216
0.116644
0.11377
0.110594
0.107118
0.103354
0.0993165
0.095025
0.0905041
0.0857825
0.0808905
0.0758623
0.0707302
0.0655307
0.060293
0.0550547
0.0498357
0.0446774
0.0395776
0.0345933
0.129531
0.129306
0.128864
0.128208
0.127338
0.126244
0.124916
0.123339
0.121501
0.119389
0.116995
0.114311
0.111336
0.108071
0.104525
0.100708
0.0966391
0.0923387
0.087832
0.083148
0.0783163
0.0733702
0.0683403
0.0632613
0.0581601
0.0530718
0.048014
0.0430251
0.0381011
0.0332953
0.128222
0.127971
0.127481
0.126758
0.125804
0.124614
0.123179
0.12149
0.119537
0.117311
0.114806
0.11202
0.108952
0.105609
0.102001
0.0981416
0.0940497
0.089748
0.085262
0.0806205
0.0758526
0.0709902
0.0660625
0.0611021
0.0561339
0.0511904
0.0462873
0.0414602
0.0367033
0.0320666
0.126906
0.126631
0.126094
0.125306
0.124271
0.122988
0.121452
0.119657
0.117595
0.115262
0.112655
0.109774
0.106623
0.103212
0.0995505
0.0956566
0.0915497
0.0872537
0.082794
0.0781992
0.0734977
0.0687201
0.0638939
0.0590498
0.0542107
0.0494069
0.0446519
0.039979
0.0353808
0.0309043
0.125587
0.125288
0.124706
0.123855
0.122743
0.121371
0.119739
0.117843
0.115679
0.113246
0.110545
0.107578
0.104354
0.100881
0.0971759
0.0932554
0.0891409
0.0848565
0.080428
0.0758835
0.0712503
0.0665577
0.0618319
0.0571013
0.0523873
0.0477176
0.0431044
0.0385781
0.0341307
0.0298055
0.124268
0.123947
0.123322
0.12241
0.121224
0.119768
0.118045
0.116053
0.113794
0.111269
0.108481
0.105437
0.102146
0.098622
0.0948801
0.0909403
0.0868244
0.0825571
0.0781639
0.0736723
0.0691087
0.064501
0.0598738
0.0552538
0.0506605
0.0461195
0.0416415
0.0372545
0.0329499
0.0287677
0.122955
0.122611
0.121945
0.120976
0.119719
0.118183
0.116373
0.114293
0.111945
0.109335
0.106468
0.103354
0.100006
0.0964368
0.0926658
0.0887132
0.0846017
0.080356
0.0760015
0.0715648
0.0670715
0.062548
0.0580174
0.0535044
0.0490273
0.0446094
0.0402602
0.0360054
0.0318358
0.0277886
0.12165
0.121286
0.12058
0.119556
0.118232
0.116621
0.11473
0.112567
0.110137
0.107448
0.10451
0.101335
0.0979352
0.0943291
0.0905356
0.0865762
0.082474
0.0782538
0.0739407
0.0695604
0.0651374
0.0606968
0.0562603
0.0518508
0.0474852
0.0431848
0.038958
0.0348281
0.0307863
0.026866
0.12036
0.119976
0.119233
0.118157
0.116769
0.115087
0.113121
0.11088
0.108375
0.105615
0.102613
0.0993818
0.0959388
0.0923021
0.088492
0.084531
0.0804425
0.0762511
0.0719813
0.0676581