/*--------------------------------*- C++ -*----------------------------------*\
  =========                 |
  \\      /  F ield         | OpenFOAM: The Open Source CFD Toolbox
   \\    /   O peration     | Website:  https://openfoam.org
    \\  /    A nd           | Version:  7
     \\/     M anipulation  |
\*---------------------------------------------------------------------------*/
FoamFile
{
    version     2.0;
    format      ascii;
    class       surfaceScalarField;
    location    "50";
    object      phi;
}
// * * * * * * * * * * * * * * * * * * * * * * * * * * * * * * * * * * * * * //

dimensions      [0 3 -1 0 0 0 0];

internalField   nonuniform List<scalar> 
16730
(
-0.00364635
-0.000544248
-0.00052513
-0.00349362
-0.00359678
-0.000574698
-0.000503354
-0.00334912
-0.00055343
-0.00344355
-0.00354556
-0.000604646
-0.000479935
-0.00321429
-0.000529562
-0.00329949
-0.000581198
-0.00339191
-0.00349268
-0.000634075
-0.000504304
-0.00316531
-0.00055526
-0.00324854
-0.000608422
-0.00333875
-0.00343815
-0.000662957
-0.000477993
-0.00303921
-0.000528222
-0.00311508
-0.000580452
-0.00319631
-0.000635096
-0.0032841
-0.00338196
-0.000691291
-0.000450424
-0.00291959
-0.000500248
-0.00298939
-0.0005517
-0.00306363
-0.000605153
-0.00314285
-0.000661232
-0.00322802
-0.00332404
-0.000719146
-0.000471018
-0.00286997
-0.00052209
-0.00293832
-0.000574753
-0.00301097
-0.000629397
-0.00308821
-0.000686829
-0.00317059
-0.0032644
-0.000746473
-0.00044034
-0.00275619
-0.0004912
-0.00281912
-0.000543515
-0.002886
-0.000597407
-0.00295707
-0.000653252
-0.00303236
-0.000711801
-0.00311204
-0.00320299
-0.000773206
-0.000458873
-0.00270551
-0.000510957
-0.00276703
-0.000564513
-0.00283245
-0.000619669
-0.00290192
-0.000676774
-0.00297526
-0.000736646
-0.00305217
-0.00314106
-0.00079858
-0.000425112
-0.00259716
-0.000476984
-0.00265363
-0.000530272
-0.00271374
-0.00058506
-0.00277766
-0.000641502
-0.00284548
-0.000699694
-0.00291707
-0.000758822
-0.00299304
-0.0030762
-0.000823683
-0.000389972
-0.00249364
-0.000441645
-0.00254548
-0.00049468
-0.0026006
-0.000549145
-0.00265928
-0.000605137
-0.00272167
-0.000662794
-0.00278782
-0.000722151
-0.00285771
-0.000783206
-0.00293199
-0.00301106
-0.00084834
-0.000404978
-0.00244216
-0.000457778
-0.00249268
-0.000511948
-0.00254643
-0.000567562
-0.00260366
-0.000624719
-0.00266451
-0.000683539
-0.002729
-0.000744084
-0.00279716
-0.000806594
-0.00286948
-0.0029455
-0.000872161
-0.000367029
-0.00234293
-0.000419606
-0.00238958
-0.000473508
-0.00243878
-0.000528786
-0.00249115
-0.000585519
-0.00254693
-0.000643805
-0.00260622
-0.000703752
-0.00266905
-0.00076545
-0.00273547
-0.000829151
-0.00280578
-0.00287925
-0.000895393
-0.000380206
-0.0022906
-0.000433856
-0.00233593
-0.000488832
-0.0023838
-0.000545191
-0.00243479
-0.000603013
-0.00248911
-0.000662394
-0.00254684
-0.000723434
-0.00260801
-0.000786236
-0.00267266
-0.000851008
-0.00274101
-0.00281224
-0.000918028
-0.000393028
-0.00223722
-0.000447724
-0.00228124
-0.000503749
-0.00232778
-0.000561161
-0.00237738
-0.000620042
-0.00243023
-0.000680485
-0.0024864
-0.000742587
-0.00254591
-0.000806449
-0.0026088
-0.000872234
-0.00267522
-0.00274438
-0.000940091
-0.000351084
-0.00214137
-0.000405494
-0.00218281
-0.00046121
-0.00222552
-0.000518256
-0.00227074
-0.000576693
-0.00231894
-0.000636605
-0.00237032
-0.00069808
-0.00242492
-0.000761213
-0.00248278
-0.000826098
-0.00254392
-0.000892865
-0.00260845
-0.00267564
-0.000961602
-0.000362196
-0.00208731
-0.000417604
-0.0021274
-0.000474313
-0.00216881
-0.000532352
-0.0022127
-0.000591788
-0.00225951
-0.000652701
-0.0023094
-0.00071518
-0.00236244
-0.000779315
-0.00241864
-0.000845195
-0.00247804
-0.000912925
-0.00254072
-0.002606
-0.000982567
-0.000317938
-0.00199245
-0.000372978
-0.00203227
-0.000429356
-0.00207102
-0.000487031
-0.00211114
-0.000546037
-0.00215369
-0.000606443
-0.0021991
-0.00066833
-0.00224752
-0.000731786
-0.00229899
-0.000796896
-0.00235353
-0.000863745
-0.00241119
-0.000932424
-0.00247204
-0.00253544
-0.00100298
-0.000327434
-0.00193794
-0.00038343
-0.00197628
-0.00044075
-0.0020137
-0.000499364
-0.00205252
-0.00055931
-0.00209374
-0.000620659
-0.00213775
-0.000683493
-0.00218468
-0.000747898
-0.00223458
-0.000813958
-0.00228747
-0.000881753
-0.0023434
-0.000951369
-0.00240243
-0.00246396
-0.00102285
-0.000281167
-0.00184041
-0.000336628
-0.00188248
-0.00039355
-0.00191936
-0.000451785
-0.00195547
-0.00051131
-0.001993
-0.00057217
-0.00203288
-0.000634435
-0.00207549
-0.000698189
-0.00212093
-0.000763517
-0.00216926
-0.000830502
-0.00222049
-0.000899222
-0.00227468
-0.000969759
-0.00233189
-0.00239155
-0.00104216
-0.000289136
-0.00178581
-0.000345519
-0.0018261
-0.00040334
-0.00186154
-0.000462461
-0.00189634
-0.00052287
-0.00193259
-0.000584615
-0.00197114
-0.00064777
-0.00201233
-0.000712417
-0.00205628
-0.000778642
-0.00210303
-0.000846528
-0.0021526
-0.000916151
-0.00220505
-0.000987595
-0.00226045
-0.00231823
-0.00106091
-0.000296833
-0.00173028
-0.000354108
-0.00176882
-0.000412797
-0.00180285
-0.000472777
-0.00183636
-0.000534043
-0.00187132
-0.000596646
-0.00190854
-0.000660663
-0.00194831
-0.000726177
-0.00199077
-0.000793273
-0.00203593
-0.000862034
-0.00208384
-0.00093254
-0.00213455
-0.00100487
-0.00218812
-0.00224402
-0.00107909
-0.000247824
-0.00162582
-0.000304258
-0.00167384
-0.000362394
-0.00171069
-0.000421922
-0.00174332
-0.000482732
-0.00177555
-0.000544827
-0.00180923
-0.000608262
-0.0018451
-0.000673113
-0.00188346
-0.000739467
-0.00192441
-0.000807408
-0.00196799
-0.000877021
-0.00201423
-0.000948385
-0.00206318
-0.00102159
-0.00211492
-0.00216892
-0.00109668
-0.000254111
-0.00157078
-0.000311411
-0.00161654
-0.000370376
-0.00165172
-0.000430714
-0.00168298
-0.000492327
-0.00171394
-0.000555223
-0.00174633
-0.00061946
-0.00178086
-0.00068512
-0.0018178
-0.000752286
-0.00185725
-0.000821046
-0.00189923
-0.000891485
-0.00194379
-0.000963685
-0.00199098
-0.00103773
-0.00204087
-0.00209296
-0.00111369
-0.000260158
-0.00151486
-0.000318291
-0.00155841
-0.000378055
-0.00159196
-0.000439173
-0.00162186
-0.00050156
-0.00165155
-0.000565228
-0.00168266
-0.000630242
-0.00171585
-0.000696681
-0.00175136
-0.000764633
-0.00178929
-0.000834186
-0.00182968
-0.000905425
-0.00187255
-0.000978435
-0.00191797
-0.00105331
-0.001966
-0.00201617
-0.0011301
-0.00020919
-0.00139739
-0.000265967
-0.00145808
-0.000324899
-0.00149948
-0.00038543
-0.00153143
-0.000447299
-0.00155999
-0.00051043
-0.00158842
-0.000574844
-0.00161825
-0.000640605
-0.00165009
-0.000707796
-0.00168417
-0.000776506
-0.00172058
-0.000846824
-0.00175936
-0.000918837
-0.00180054
-0.000992632
-0.00184418
-0.0010683
-0.00189033
-0.00193855
-0.00114591
-0.000213946
-0.00134287
-0.000271536
-0.00140049
-0.000331233
-0.00143978
-0.0003925
-0.00147016
-0.000455091
-0.0014974
-0.000518938
-0.00152458
-0.000584068
-0.00155312
-0.000650548
-0.00158361
-0.000718464
-0.00161626
-0.000787904
-0.00165114
-0.000858959
-0.00168831
-0.000931719
-0.00172778
-0.00100627
-0.00176962
-0.00108271
-0.00181389
-0.00186015
-0.00116112
-0.000218498
-0.00128751
-0.000276865
-0.00134212
-0.000337295
-0.00137935
-0.000399267
-0.00140819
-0.000462549
-0.00143412
-0.000527083
-0.00146004
-0.0005929
-0.0014873
-0.000660071
-0.00151644
-0.000728682
-0.00154765
-0.000798824
-0.001581
-0.000870589
-0.00161654
-0.000944068
-0.0016543
-0.00101935
-0.00169434
-0.00109654
-0.0017367
-0.00178099
-0.0011757
-0.000222846
-0.00123135
-0.000281954
-0.00128302
-0.000343083
-0.00131822
-0.000405729
-0.00134554
-0.000469672
-0.00137017
-0.000534864
-0.00139485
-0.000601339
-0.00142083
-0.000669172
-0.00144861
-0.000738449
-0.00147837
-0.000809265
-0.00151019
-0.000881711
-0.0015441
-0.00095588
-0.00158013
-0.00103187
-0.00161835
-0.00110977
-0.0016588
-0.00170109
-0.00118967
-0.000170072
-0.00109828
-0.000226989
-0.00117443
-0.000286802
-0.0012232
-0.000348597
-0.00125643
-0.000411885
-0.00128226
-0.00047646
-0.0013056
-0.00054228
-0.00132903
-0.000609384
-0.00135372
-0.000677849
-0.00138014
-0.000747765
-0.00140845
-0.000819224
-0.00143873
-0.000892322
-0.001471
-0.000967153
-0.0015053
-0.00104381
-0.00154169
-0.0011224
-0.00158021
-0.00162049
-0.001203
-0.000173291
-0.00104495
-0.000230927
-0.0011168
-0.000291409
-0.00116272
-0.000353837
-0.001194
-0.000417737
-0.00121836
-0.000482913
-0.00124042
-0.00054933
-0.00126261
-0.000617034
-0.00128602
-0.000686102
-0.00131107
-0.000756626
-0.00133793
-0.0008287
-0.00136665
-0.00090242
-0.00139728
-0.000977883
-0.00142983
-0.00105519
-0.00146439
-0.00113443
-0.00150096
-0.00153922
-0.00121571
-0.000176344
-0.0009909
-0.00023466
-0.00105848
-0.000295776
-0.00110161
-0.000358804
-0.00113097
-0.000423283
-0.00115388
-0.000489029
-0.00117468
-0.000556015
-0.00119563
-0.000624288
-0.00121775
-0.00069393
-0.00124143
-0.000765032
-0.00126683
-0.00083769
-0.001294
-0.000912002
-0.00132297
-0.000988067
-0.00135377
-0.00106598
-0.00138647
-0.00114586
-0.00142109
-0.0014573
-0.00122777
-0.00017923
-0.000936158
-0.000238188
-0.000999522
-0.000299901
-0.00103989
-0.000363495
-0.00106738
-0.000428523
-0.00108885
-0.000494809
-0.00110839
-0.000562333
-0.0011281
-0.000631146
-0.00114893
-0.000701331
-0.00117125
-0.00077298
-0.00119518
-0.000846193
-0.00122078
-0.000921067
-0.00124809
-0.000997703
-0.00127713
-0.0010762
-0.00130798
-0.00115667
-0.00134062
-0.00137478
-0.00123919
-0.000181948
-0.000880769
-0.000241509
-0.000939961
-0.000303785
-0.000977616
-0.000367913
-0.00100325
-0.000433456
-0.00102331
-0.000500252
-0.0010416
-0.000568283
-0.00106007
-0.000637606
-0.00107961
-0.000708303
-0.00110055
-0.000780471
-0.00112301
-0.000854207
-0.00114705
-0.000929612
-0.00117269
-0.00100679
-0.00119996
-0.00108584
-0.00122893
-0.00116687
-0.0012596
-0.00129168
-0.00124996
-0.000128503
-0.000738108
-0.000184498
-0.000824773
-0.000244624
-0.000879835
-0.000307428
-0.000914812
-0.000372055
-0.000938622
-0.000438084
-0.000957278
-0.000505357
-0.000974322
-0.000573866
-0.000991564
-0.000643667
-0.00100981
-0.000714846
-0.00102937
-0.0007875
-0.00105036
-0.000861729
-0.00107282
-0.000937634
-0.00109678
-0.00101532
-0.00112228
-0.00109488
-0.00114936
-0.00117644
-0.00117804
-0.00120805
-0.00126008
-0.00013032
-0.000687839
-0.00018688
-0.000768213
-0.000247533
-0.000819182
-0.000310828
-0.000851518
-0.000375923
-0.000873527
-0.000442404
-0.000890797
-0.000510125
-0.000906601
-0.000579079
-0.00092261
-0.000649328
-0.00093956
-0.000720959
-0.000957739
-0.000794069
-0.000977247
-0.000868759
-0.000998128
-0.000945131
-0.00102041
-0.00102329
-0.00104412
-0.00110334
-0.00106931
-0.0011854
-0.00109598
-0.0011239
-0.00126955
-0.000132009
-0.000637024
-0.000189094
-0.000711128
-0.000250235
-0.00075804
-0.000313987
-0.000787766
-0.000379515
-0.000807999
-0.000446417
-0.000823894
-0.000514554
-0.000838465
-0.000583923
-0.00085324
-0.000654589
-0.000868895
-0.00072664
-0.000885688
-0.000800174
-0.000903713
-0.000875294
-0.000923009
-0.000952102
-0.0009436
-0.0010307
-0.000965515
-0.00111121
-0.000988803
-0.00119373
-0.00101346
-0.00103928
-0.00127835
-0.00013357
-0.000585705
-0.000191138
-0.00065356
-0.00025273
-0.000696448
-0.000316903
-0.000723594
-0.000382832
-0.00074207
-0.000450123
-0.000756603
-0.000518644
-0.000769944
-0.000588397
-0.000783487
-0.000659449
-0.000797844
-0.000731888
-0.000813249
-0.000805815
-0.000829786
-0.000881332
-0.000847492
-0.000958544
-0.000866389
-0.00103756
-0.000886502
-0.00111848
-0.000907879
-0.00120143
-0.000930518
-0.000954216
-0.00128649
-0.000135002
-0.000533925
-0.000193013
-0.000595549
-0.000255018
-0.000634442
-0.000319577
-0.000659035
-0.000385873
-0.000675774
-0.000453521
-0.000688954
-0.000522395
-0.00070107
-0.000592501
-0.000713381
-0.000663906
-0.000726438
-0.000736703
-0.000740452
-0.00081099
-0.000755498
-0.000886873
-0.000771609
-0.000964456
-0.000788806
-0.00104385
-0.000807111
-0.00112516
-0.00082657
-0.00120849
-0.000847178
-0.000868752
-0.00129396
-0.000136305
-0.000481725
-0.000194718
-0.000537136
-0.000257099
-0.000572062
-0.000322008
-0.000594126
-0.000388638
-0.000609144
-0.000456611
-0.000620981
-0.000525806
-0.000631875
-0.000596233
-0.000642955
-0.000667961
-0.000654711
-0.000741082
-0.000667331
-0.000815699
-0.000680882
-0.000891914
-0.000695394
-0.000969835
-0.000710885
-0.00104957
-0.000727377
-0.00113123
-0.00074491
-0.00121493
-0.000763479
-0.00078292
-0.00130076
-0.000137478
-0.000429147
-0.000196254
-0.000478361
-0.000258972
-0.000509343
-0.000324196
-0.000528902
-0.000391127
-0.000542213
-0.000459393
-0.000552714
-0.000528878
-0.000562391
-0.000599593
-0.000572239
-0.000671612
-0.000582692
-0.000745027
-0.000593916
-0.00081994
-0.000605969
-0.000896455
-0.000618878
-0.000974681
-0.000632659
-0.00105473
-0.000647332
-0.0011367
-0.000662933
-0.00122073
-0.000679456
-0.000696757
-0.00130689
-0.000138522
-0.000376234
-0.000197619
-0.000419264
-0.000260637
-0.000446326
-0.000326142
-0.000463396
-0.00039334
-0.000475015
-0.000461866
-0.000484188
-0.000531608
-0.000492649
-0.000602582
-0.000501265
-0.000674859
-0.000510415
-0.000748535
-0.00052024
-0.000823711
-0.000530792
-0.000900495
-0.000542095
-0.000978992
-0.000554162
-0.00105931
-0.000567011
-0.00114157
-0.000580674
-0.00122588
-0.000595145
-0.000610298
-0.00131234
-0.000139436
-0.000323027
-0.000198814
-0.000359886
-0.000262094
-0.000383045
-0.000327845
-0.000397646
-0.000395277
-0.000407583
-0.000464031
-0.000415434
-0.000533998
-0.000422681
-0.000605197
-0.000430067
-0.000677701
-0.000437911
-0.000751606
-0.000446335
-0.000827014
-0.000455384
-0.000904031
-0.000465077
-0.000982766
-0.000475427
-0.00106333
-0.000486448
-0.00114584
-0.000498167
-0.0012304
-0.000510581
-0.00052358
-0.00131712
-8.67614e-05
-0.00022253
-0.000140219
-0.000269569
-0.000199838
-0.000300267
-0.000263343
-0.000319541
-0.000329304
-0.000331685
-0.000396937
-0.000339951
-0.000465886
-0.000346485
-0.000536047
-0.00035252
-0.00060744
-0.000358674
-0.000680138
-0.000365212
-0.000754239
-0.000372235
-0.000829845
-0.000379778
-0.000907064
-0.000387859
-0.000986003
-0.000396487
-0.00106677
-0.000405676
-0.00114949
-0.000415448
-0.00123428
-0.000425799
-0.000436639
-0.00132122
-8.72051e-05
-0.000178264
-0.000140873
-0.000215902
-0.000200692
-0.000240448
-0.000264384
-0.000255849
-0.00033052
-0.000265549
-0.00039832
-0.000272151
-0.000467433
-0.000277372
-0.000537755
-0.000282198
-0.000609309
-0.000287121
-0.000682169
-0.000292351
-0.000756434
-0.00029797
-0.000832206
-0.000304006
-0.000909592
-0.000310472
-0.000988702
-0.000317377
-0.00106965
-0.000324731
-0.00115254
-0.000332552
-0.00123751
-0.000340837
-0.000349513
-0.00132463
-8.75602e-05
-0.000133836
-0.000141395
-0.000162067
-0.000201375
-0.000180467
-0.000265217
-0.000192007
-0.000331493
-0.000199272
-0.000399427
-0.000204217
-0.00046867
-0.000208129
-0.000539121
-0.000211747
-0.000610804
-0.000215438
-0.000683795
-0.00021936
-0.00075819
-0.000223574
-0.000834095
-0.000228102
-0.000911616
-0.000232952
-0.000990862
-0.000238131
-0.00107195
-0.000243647
-0.00115498
-0.000249514
-0.00124009
-0.000255729
-0.000262238
-0.00132737
-8.78265e-05
-8.92859e-05
-0.000141787
-0.000108106
-0.000201888
-0.000120367
-0.000265842
-0.000128053
-0.000332223
-0.000132891
-0.000400257
-0.000136183
-0.000469597
-0.000138789
-0.000540146
-0.000141199
-0.000611925
-0.000143658
-0.000685014
-0.000146272
-0.000759508
-0.00014908
-0.000835512
-0.000152098
-0.000913133
-0.00015533
-0.000992482
-0.000158782
-0.00107367
-0.000162459
-0.00115681
-0.00016637
-0.00124203
-0.000170512
-0.000174851
-0.00132942
-8.8004e-05
-4.46552e-05
-0.000142049
-5.4061e-05
-0.000202229
-6.01865e-05
-0.000266258
-6.40248e-05
-0.000332709
-6.64396e-05
-0.00040081
-6.80828e-05
-0.000470216
-6.9383e-05
-0.000540828
-7.05859e-05
-0.000612673
-7.18136e-05
-0.000685826
-7.31186e-05
-0.000760385
-7.45208e-05
-0.000836456
-7.60273e-05
-0.000914145
-7.76413e-05
-0.000993562
-7.93651e-05
-0.00107482
-8.12012e-05
-0.00115803
-8.31542e-05
-0.00124332
-8.5223e-05
-8.73899e-05
-0.00133079
-8.80926e-05
1.60017e-08
-0.000142179
2.54571e-08
-0.0002024
3.40083e-08
-0.000266465
4.10821e-08
-0.000332952
4.67118e-08
-0.000401086
5.1287e-08
-0.000470524
5.52908e-08
-0.000541169
5.91217e-08
-0.000613046
6.30322e-08
-0.000686231
6.71469e-08
-0.000760824
7.1511e-08
-0.000836927
7.61305e-08
-0.00091465
8.09967e-08
-0.000994101
8.60955e-08
-0.00107539
9.14107e-08
-0.00115864
9.69216e-08
-0.00124397
1.02613e-07
1.08499e-07
-0.00133147
-8.80924e-05
4.4687e-05
-0.000142179
5.41118e-05
-0.000202399
6.02544e-05
-0.000266465
6.41068e-05
-0.000332951
6.65329e-05
-0.000401085
6.81852e-05
-0.000470523
6.94935e-05
-0.000541168
7.0704e-05
-0.000613045
7.19396e-05
-0.00068623
7.32528e-05
-0.000760823
7.46637e-05
-0.000836926
7.61795e-05
-0.000914648
7.78033e-05
-0.000994099
7.95372e-05
-0.00107539
8.13839e-05
-0.00115864
8.3348e-05
-0.00124397
8.54282e-05
8.76068e-05
-0.00133147
-8.80032e-05
8.93174e-05
-0.000142048
0.000108156
-0.000202228
0.000120435
-0.000266256
0.000128135
-0.000332707
0.000132984
-0.000400807
0.000136286
-0.000470213
0.000138899
-0.000540825
0.000141317
-0.000612669
0.000143784
-0.000685822
0.000146406
-0.000760382
0.000149223
-0.000836452
0.00015225
-0.00091414
0.000155492
-0.000993557
0.000158954
-0.00107481
0.000162642
-0.00115803
0.000166563
-0.00124332
0.000170717
0.000175068
-0.00133078
-8.78252e-05
0.000133867
-0.000141785
0.000162116
-0.000201885
0.000180534
-0.000265839
0.000192088
-0.000332219
0.000199365
-0.000400253
0.000204319
-0.000469593
0.000208239
-0.000540141
0.000211864
-0.00061192
0.000215563
-0.000685008
0.000219494
-0.000759501
0.000223717
-0.000835505
0.000228253
-0.000913126
0.000233113
-0.000992475
0.000238303
-0.00107366
0.000243829
-0.00115681
0.000249708
-0.00124202
0.000255934
0.000262454
-0.00132941
-8.75583e-05
0.000178294
-0.000141393
0.000215951
-0.000201372
0.000240514
-0.000265213
0.000255929
-0.000331488
0.00026564
-0.000399421
0.000272252
-0.000468663
0.000277481
-0.000539114
0.000282315
-0.000610796
0.000287245
-0.000683787
0.000292484
-0.000758182
0.000298112
-0.000834086
0.000304157
-0.000911606
0.000310633
-0.000990852
0.000317548
-0.00107194
0.000324913
-0.00115497
0.000332745
-0.00124008
0.000341041
0.000349729
-0.00132736
-8.72027e-05
0.000222559
-0.000140869
0.000269617
-0.000200688
0.000300332
-0.000264379
0.00031962
-0.000330514
0.000331776
-0.000398313
0.000340051
-0.000467424
0.000346593
-0.000537746
0.000352636
-0.000609299
0.000358798
-0.000682159
0.000365344
-0.000756423
0.000372376
-0.000832194
0.000379928
-0.00090958
0.000388019
-0.000988689
0.000396658
-0.00106963
0.000405857
-0.00115253
0.000415641
-0.00123749
0.000426003
0.000436855
-0.00132462
-8.67585e-05
-0.000140215
0.000323074
-0.000199833
0.00035995
-0.000263336
0.000383124
-0.000329296
0.000397735
-0.000396928
0.000407682
-0.000465876
0.000415541
-0.000536036
0.000422796
-0.000607428
0.00043019
-0.000680125
0.000438042
-0.000754225
0.000446476
-0.000829831
0.000455534
-0.000907049
0.000465237
-0.000985987
0.000475596
-0.00106676
0.000486628
-0.00114948
0.000498359
-0.00123426
0.000510784
0.000523795
-0.0013212
-0.000139431
0.000376279
-0.000198807
0.000419326
-0.000262086
0.000446402
-0.000327835
0.000463485
-0.000395266
0.000475113
-0.000464019
0.000484294
-0.000533985
0.000492763
-0.000605183
0.000501387
-0.000677686
0.000510545
-0.00075159
0.000520379
-0.000826996
0.000530941
-0.000904013
0.000542253
-0.000982747
0.000554331
-0.00106331
0.000567191
-0.00114582
0.000580865
-0.00123038
0.000595348
0.000610513
-0.0013171
-0.000138516
0.00042919
-0.000197611
0.000478421
-0.000260627
0.000509418
-0.000326131
0.000528988
-0.000393328
0.00054231
-0.000461853
0.000552819
-0.000531593
0.000562503
-0.000602565
0.000572359
-0.000674841
0.000582821
-0.000748516
0.000594054
-0.000823692
0.000606117
-0.000900474
0.000619035
-0.00097897
0.000632827
-0.00105929
0.000647511
-0.00114155
0.000663123
-0.00122586
0.000679658
0.000696971
-0.00131232
-0.000137472
0.000481765
-0.000196245
0.000537194
-0.000258961
0.000572134
-0.000324184
0.000594211
-0.000391113
0.000609239
-0.000459377
0.000621084
-0.00052886
0.000631986
-0.000599575
0.000643074
-0.000671592
0.000654838
-0.000745005
0.000667467
-0.000819917
0.000681028
-0.000896432
0.00069555
-0.000974656
0.000711052
-0.0010547
0.000727555
-0.00113668
0.000745099
-0.0012207
0.00076368
0.000783133
-0.00130686
-0.000136297
0.000533963
-0.000194708
0.000595605
-0.000257087
0.000634513
-0.000321994
0.000659118
-0.000388622
0.000675867
-0.000456594
0.000689055
-0.000525787
0.000701179
-0.000596212
0.000713499
-0.000667938
0.000726565
-0.000741058
0.000740587
-0.000815673
0.000755643
-0.000891888
0.000771764
-0.000969807
0.000788971
-0.00104954
0.000807288
-0.0011312
0.000826758
-0.0012149
0.000847378
0.000868964
-0.00130073
-0.000134994
0.000585741
-0.000193002
0.000653614
-0.000255005
0.000696516
-0.000319561
0.000723674
-0.000385855
0.000742161
-0.000453502
0.000756702
-0.000522374
0.000770051
-0.000592478
0.000783603
-0.000663881
0.000797968
-0.000736676
0.000813382
-0.000810962
0.000829929
-0.000886843
0.000847645
-0.000964425
0.000866553
-0.00104381
0.000886677
-0.00112512
0.000908066
-0.00120846
0.000930716
0.000954427
-0.00129392
-0.000133561
0.000637056
-0.000191126
0.000711179
-0.000252716
0.000758106
-0.000316886
0.000787844
-0.000382812
0.000808087
-0.000450102
0.000823992
-0.000518621
0.00083857
-0.000588372
0.000853354
-0.000659421
0.000869017
-0.000731859
0.00088582
-0.000805784
0.000903855
-0.0008813
0.000923161
-0.00095851
0.000943763
-0.00103752
0.000965689
-0.00111844
0.000988989
-0.00120139
0.00101366
0.00103949
-0.00128645
-0.000131999
0.000687868
-0.000189081
0.00076826
-0.000250219
0.000819244
-0.000313968
0.000851593
-0.000379494
0.000873613
-0.000446394
0.000890892
-0.000514528
0.000906704
-0.000583896
0.000922721
-0.000654559
0.000939681
-0.000726608
0.000957869
-0.00080014
0.000977387
-0.000875258
0.000998279
-0.000952065
0.00102057
-0.00103067
0.00104429
-0.00111117
0.00106949
-0.00119369
0.00109618
0.00112411
-0.00127831
-0.000130309
0.000738134
-0.000186866
0.000824817
-0.000247516
0.000879894
-0.000310808
0.000914885
-0.0003759
0.000938705
-0.000442379
0.000957371
-0.000510097
0.000974423
-0.000579049
0.000991673
-0.000649296
0.00100993
-0.000720924
0.0010295
-0.000794032
0.00105049
-0.00086872
0.00107297
-0.000945091
0.00109694
-0.00102325
0.00112245
-0.0011033
0.00114954
-0.00118535
0.00117823
0.00120825
-0.0012695
-0.000128491
-0.000184483
0.000880809
-0.000244606
0.000940017
-0.000307406
0.000977685
-0.00037203
0.00100333
-0.000438056
0.0010234
-0.000505327
0.00104169
-0.000573833
0.00106018
-0.000643632
0.00107973
-0.000714809
0.00110067
-0.000787461
0.00112315
-0.000861688
0.00114719
-0.000937591
0.00117284
-0.00101527
0.00120013
-0.00109484
0.00122911
-0.00117639
0.00125979
0.00129189
-0.00126003
-0.000181932
0.000936194
-0.000241489
0.000999574
-0.000303762
0.00103996
-0.000367886
0.00106745
-0.000433427
0.00108894
-0.00050022
0.00110849
-0.000568248
0.00112821
-0.000637568
0.00114905
-0.000708263
0.00117137
-0.000780428
0.00119531
-0.000854162
0.00122093
-0.000929565
0.00124825
-0.00100674
0.0012773
-0.00108579
0.00130815
-0.00116681
0.00134082
0.00137499
-0.00124991
-0.000179212
0.000990933
-0.000238166
0.00105853
-0.000299876
0.00110167
-0.000363467
0.00113104
-0.000428491
0.00115396
-0.000494774
0.00117477
-0.000562295
0.00119573
-0.000631106
0.00121786
-0.000701288
0.00124155
-0.000772935
0.00126696
-0.000846145
0.00129414
-0.000921017
0.00132312
-0.000997651
0.00135393
-0.00107615
0.00138665
-0.00115661
0.00142128
0.00145751
-0.00123913
-0.000176325
0.00104498
-0.000234637
0.00111684
-0.000295749
0.00116278
-0.000358773
0.00119407
-0.000423249
0.00121844
-0.000488992
0.00124051
-0.000555975
0.00126271
-0.000624246
0.00128613
-0.000693884
0.00131119
-0.000764983
0.00133806
-0.000837639
0.00136679
-0.000911949
0.00139743
-0.000988012
0.00143
-0.00106593
0.00146457
-0.0011458
0.00150115
0.00153942
-0.00122771
-0.000173271
0.0010983
-0.000230903
0.00117447
-0.000291381
0.00122326
-0.000353805
0.00125649
-0.000417701
0.00128233
-0.000482873
0.00130569
-0.000549288
0.00132913
-0.000616989
0.00135383
-0.000686054
0.00138026
-0.000756575
0.00140858
-0.000828646
0.00143886
-0.000902363
0.00147115
-0.000977824
0.00150546
-0.00105513
0.00154187
-0.00113437
0.0015804
0.00162069
-0.00121564
-0.000170051
-0.000226963
0.00123138
-0.000286772
0.00128307
-0.000348563
0.00131828
-0.000411847
0.00134562
-0.000476419
0.00137026
-0.000542235
0.00139494
-0.000609336
0.00142093
-0.000677798
0.00144872
-0.00074771
0.00147849
-0.000819167
0.00151032
-0.000892262
0.00154424
-0.00096709
0.00158029
-0.00104375
0.00161852
-0.00112234
0.00165899
0.00170129
-0.00120293
-0.000222818
0.00128754
-0.000281921
0.00134217
-0.000343046
0.00137941
-0.000405688
0.00140826
-0.000469628
0.0014342
-0.000534816
0.00146013
-0.000601288
0.0014874
-0.000669117
0.00151655
-0.000738392
0.00154777
-0.000809204
0.00158113
-0.000881647
0.00161668
-0.000955814
0.00165445
-0.0010318
0.00169451
-0.0011097
0.00173689
0.00178118
-0.00118959
-0.000218469
0.00134289
-0.000276831
0.00140053
-0.000337256
0.00143983
-0.000399224
0.00147023
-0.000462502
0.00149748
-0.000527033
0.00152466
-0.000592846
0.00155321
-0.000660013
0.00158371
-0.000728621
0.00161637
-0.00079876
0.00165127
-0.000870522
0.00168845
-0.000943998
0.00172793
-0.00101928
0.00176979
-0.00109646
0.00181407
0.00186034
-0.00117563
-0.000213915
-0.0002715
0.00145812
-0.000331193
0.00149953
-0.000392455
0.00153149
-0.000455042
0.00156006
-0.000518885
0.0015885
-0.000584011
0.00161834
-0.000650488
0.00165019
-0.0007184
0.00168429
-0.000787836
0.00172071
-0.000858889
0.0017595
-0.000931646
0.00180069
-0.0010062
0.00184434
-0.00108264
0.00189051
0.00193874
-0.00116104
-0.000265929
0.00151489
-0.000324856
0.00155845
-0.000385382
0.00159202
-0.000447247
0.00162193
-0.000510374
0.00165163
-0.000574784
0.00168275
-0.000640541
0.00171595
-0.000707729
0.00175147
-0.000776435
0.00178942
-0.00084675
0.00182981
-0.00091876
0.0018727
-0.000992553
0.00191813
-0.00106822
0.00196617
0.00201636
-0.00114583
-0.000260119
0.00157081
-0.000318246
0.00161658
-0.000378005
0.00165177
-0.000439119
0.00168304
-0.000501501
0.00171401
-0.000565165
0.00174641
-0.000630175
0.00178096
-0.00069661
0.00181791
-0.000764559
0.00185736
-0.000834108
0.00189936
-0.000905344
0.00194393
-0.000978351
0.00199114
-0.00105322
0.00204104
0.00209315
-0.00113001
-0.000254069
0.00162584
-0.000311364
0.00167388
-0.000370324
0.00171073
-0.000430657
0.00174337
-0.000492265
0.00177562
-0.000555156
0.0018093
-0.00061939
0.00184519
-0.000685045
0.00188356
-0.000752208
0.00192453
-0.000820965
0.00196812
-0.000891401
0.00201437
-0.000963597
0.00206334
-0.00103764
0.00211509
0.00216911
-0.0011136
-0.00024778
-0.000304208
0.0017303
-0.000362339
0.00176886
-0.000421862
0.0018029
-0.000482668
0.00183643
-0.000544758
0.00187139
-0.000608188
0.00190862
-0.000673035
0.00194841
-0.000739385
0.00199088
-0.000807323
0.00203606
-0.000876932
0.00208398
-0.000948293
0.0021347
-0.00102149
0.00218828
0.0022442
-0.00109658
-0.000296781
0.00178583
-0.00035405
0.00182613
-0.000412734
0.00186158
-0.000472709
0.0018964
-0.00053397
0.00193266
-0.000596569
0.00197122
-0.000660581
0.00201242
-0.000726091
0.00205639
-0.000793183
0.00210315
-0.000861942
0.00215274
-0.000932444
0.0022052
-0.00100477
0.00226061
0.00231841
-0.00107898
-0.000289081
0.00184042
-0.000345459
0.00188251
-0.000403274
0.0019194
-0.00046239
0.00195552
-0.000522794
0.00199306
-0.000584534
0.00203296
-0.000647684
0.00207557
-0.000712327
0.00212103
-0.000778549
0.00216937
-0.00084643
0.00222062
-0.000916051
0.00227482
-0.000987491
0.00233205
0.00239173
-0.0010608
-0.00028111
-0.000336565
0.00193797
-0.000393482
0.00197631
-0.000451711
0.00201375
-0.000511231
0.00205258
-0.000572085
0.00209381
-0.000634346
0.00213783
-0.000698095
0.00218478
-0.000763419
0.0022347
-0.0008304
0.0022876
-0.000899117
0.00234354
-0.000969651
0.00240259
0.00246413
-0.00104205
-0.000327368
0.00199247
-0.000383358
0.0020323
-0.000440672
0.00207106
-0.000499281
0.00211119
-0.000559222
0.00215376
-0.000620566
0.00219918
-0.000683396
0.00224761
-0.000747796
0.0022991
-0.000813852
0.00235366
-0.000881644
0.00241133
-0.000951256
0.0024722
0.00253561
-0.00102274
-0.000317869
-0.000372903
0.00208734
-0.000429275
0.00212743
-0.000486944
0.00216886
-0.000545945
0.00221276
-0.000606346
0.00225958
-0.000668229
0.00230949
-0.00073168
0.00236255
-0.000796786
0.00241876
-0.000863631
0.00247817
-0.000932307
0.00254087
0.00260617
-0.00100286
-0.000362118
0.00214139
-0.000417519
0.00218284
-0.000474223
0.00222556
-0.000532256
0.00227079
-0.000591687
0.00231901
-0.000652595
0.0023704
-0.00071507
0.00242502
-0.0007792
0.00248289
-0.000845076
0.00254405
-0.000912802
0.0026086
0.0026758
-0.000982441
-0.000351002
-0.000405406
0.00223724
-0.000461116
0.00228127
-0.000518156
0.00232783
-0.000576588
0.00237744
-0.000636494
0.00243031
-0.000697965
0.00248649
-0.000761094
0.00254602
-0.000825974
0.00260893
-0.000892738
0.00267536
0.00274454
-0.000961471
-0.000392936
0.00229062
-0.000447626
0.00233596
-0.000503645
0.00238385
-0.000561051
0.00243485
-0.000619927
0.00248918
-0.000680365
0.00254693
-0.000742463
0.00260812
-0.00080632
0.00267279
-0.000872101
0.00274114
0.00281239
-0.000939955
-0.00038011
0.00234294
-0.000433754
0.00238961
-0.000488724
0.00243882
-0.000545077
0.0024912
-0.000602894
0.002547
-0.000662269
0.00260631
-0.000723305
0.00266915
-0.000786102
0.00273558
-0.00085087
0.00280591
0.00287941
-0.000917885
-0.00036693
-0.0004195
0.00244218
-0.000473396
0.00249271
-0.000528668
0.00254647
-0.000585395
0.00260373
-0.000643675
0.00266459
-0.000703617
0.0027291
-0.00076531
0.00279728
-0.000829008
0.00286961
0.00294565
-0.000895246
-0.000404867
-0.000457661
0.00254551
-0.000511825
0.00260064
-0.000567433
0.00265933
-0.000624584
0.00272174
-0.000683399
0.00278791
-0.00074394
0.00285782
-0.000806445
0.00293212
0.00301121
-0.000872008
-0.000441524
0.00259717
-0.000494552
0.00265367
-0.000549011
0.00271379
-0.000604997
0.00277772
-0.000662649