/*--------------------------------*- C++ -*----------------------------------*\
  =========                 |
  \\      /  F ield         | OpenFOAM: The Open Source CFD Toolbox
   \\    /   O peration     | Website:  https://openfoam.org
    \\  /    A nd           | Version:  7
     \\/     M anipulation  |
\*---------------------------------------------------------------------------*/
FoamFile
{
    version     2.0;
    format      ascii;
    class       volVectorField;
    location    "80";
    object      U;
}
// * * * * * * * * * * * * * * * * * * * * * * * * * * * * * * * * * * * * * //

dimensions      [0 1 -1 0 0 0 0];

internalField   nonuniform List<vector> 
34000
(
(-0.000523569 0.0119489 -1.20139e-21)
(-0.00291945 0.0272144 -6.46138e-21)
(-0.0075825 0.0357092 7.82324e-22)
(-0.0136464 0.0387309 -1.37839e-21)
(-0.0207994 0.0374996 2.1042e-21)
(-0.0287764 0.0331215 -1.55419e-20)
(-0.0373442 0.0265531 2.6821e-21)
(-0.046319 0.0185733 -1.05686e-20)
(-0.0555542 0.0097698 -2.2712e-20)
(-0.0649331 0.000540763 1.94598e-20)
(-0.0743645 -0.00888954 5.8026e-21)
(-0.0837796 -0.0184427 -6.98029e-21)
(-0.0931309 -0.0281515 8.58318e-21)
(-0.102393 -0.0381251 1.17431e-20)
(-0.111561 -0.0485173 -7.42598e-21)
(-0.120655 -0.0595048 -1.00859e-20)
(-0.129712 -0.0712739 -2.42273e-20)
(-0.138786 -0.0840144 -1.88004e-21)
(-0.14793 -0.097913 -4.13789e-21)
(-0.157204 -0.113204 -8.17253e-21)
(-0.000780773 0.0127452 -5.92693e-21)
(-0.00352131 0.0292643 4.9328e-21)
(-0.00841169 0.0387394 -5.83658e-21)
(-0.0146173 0.0425178 -1.31288e-20)
(-0.0218536 0.0418564 1.07481e-20)
(-0.0298773 0.0378947 6.51594e-20)
(-0.0384718 0.0316183 -4.02266e-20)
(-0.0474651 0.0238308 6.72345e-21)
(-0.0567186 0.0151406 3.28978e-20)
(-0.0661201 0.00596323 7.98417e-23)
(-0.0755807 -0.00346187 1.97618e-20)
(-0.0850329 -0.0130424 -2.62276e-20)
(-0.0944299 -0.0227979 2.75498e-20)
(-0.103748 -0.032824 -2.35975e-20)
(-0.112985 -0.0432616 -9.32144e-21)
(-0.122166 -0.054275 4.66187e-20)
(-0.131334 -0.0660405 -1.49905e-20)
(-0.140551 -0.078741 2.26216e-21)
(-0.149888 -0.092565 -2.78745e-20)
(-0.159428 -0.107747 -3.14621e-21)
(-0.00106646 0.0135346 -4.61864e-20)
(-0.00418745 0.031306 5.97268e-21)
(-0.00931762 0.0417686 9.16084e-21)
(-0.0156616 0.0463162 4.0457e-20)
(-0.022965 0.0462395 -4.71736e-20)
(-0.0310086 0.0427091 -7.35177e-20)
(-0.0395938 0.0367383 6.71384e-20)
(-0.0485616 0.0291545 -1.85106e-20)
(-0.0577815 0.020587 -9.08958e-21)
(-0.067146 0.0114689 -4.71585e-20)
(-0.0765685 0.00205554 1.31718e-20)
(-0.0859817 -0.00754596 4.61633e-20)
(-0.0953392 -0.0173406 -9.15364e-21)
(-0.104617 -0.0274095 3.82969e-20)
(-0.113817 -0.0378792 -3.19299e-20)
(-0.122965 -0.0489006 -9.26246e-21)
(-0.132111 -0.0606385 7.58216e-20)
(-0.141324 -0.0732681 -4.71431e-21)
(-0.150691 -0.0869792 1.20041e-19)
(-0.160311 -0.102003 -2.90776e-20)
(-0.00137994 0.0143106 7.5823e-20)
(-0.00491602 0.0333236 -3.41685e-20)
(-0.010297 0.0447753 -2.36859e-20)
(-0.0167744 0.0501011 -1.79093e-20)
(-0.024127 0.0506217 3.32387e-20)
(-0.0321617 0.0475362 -6.61702e-21)
(-0.0406996 0.0418838 -1.13137e-19)
(-0.0495956 0.0345151 -1.21324e-20)
(-0.0587279 0.0260791 -2.49586e-20)
(-0.0679937 0.0170273 -4.43259e-21)
(-0.0773081 0.00763142 -4.37449e-20)
(-0.0866039 -0.0019858 5.01037e-20)
(-0.0958339 -0.0118138 -7.41357e-20)
(-0.104974 -0.0219181 -2.2894e-21)
(-0.114025 -0.0324095 2.02882e-20)
(-0.123017 -0.0434242 -1.5922e-19)
(-0.132003 -0.055114 -1.28985e-19)
(-0.141058 -0.0676452 7.02704e-20)
(-0.150285 -0.0812075 -9.31689e-20)
(-0.159786 -0.0960274 1.60367e-21)
(-0.00172 0.0150667 -1.01078e-20)
(-0.00570419 0.0353021 1.35475e-19)
(-0.0113456 0.0477387 6.3826e-20)
(-0.0179501 0.0538477 -4.12949e-21)
(-0.0253325 0.054976 1.70113e-20)
(-0.033328 0.0523478 2.21067e-21)
(-0.041779 0.0470261 5.8201e-20)
(-0.0505551 0.039883 6.93712e-20)
(-0.0595438 0.0315872 2.96387e-20)
(-0.0686472 0.0226082 1.04418e-19)
(-0.0777817 0.0132346 -1.21316e-19)
(-0.0868795 0.0036056 -2.53666e-20)
(-0.0958919 -0.00625188 5.39926e-20)
(-0.104793 -0.0163865 -9.52468e-20)
(-0.113582 -0.0268924 4.36479e-20)
(-0.122289 -0.0378894 1.00398e-19)
(-0.130972 -0.0495147 2.29869e-20)
(-0.139711 -0.0619236 3.60117e-20)
(-0.14862 -0.0753048 -5.68164e-20)
(-0.157797 -0.0898761 5.83722e-21)
(-0.00208506 0.0157963 -5.04293e-20)
(-0.00654827 0.0372254 3.26694e-20)
(-0.012458 0.0506365 -5.19819e-20)
(-0.019182 0.0575301 1.53943e-20)
(-0.0265736 0.0592741 4.27579e-20)
(-0.0344983 0.0571144 1.91821e-20)
(-0.0428215 0.0521349 3.72013e-20)
(-0.0514283 0.0452278 -2.57457e-20)
(-0.0602161 0.0370807 -1.61226e-19)
(-0.0690917 0.0281807 -1.45308e-19)
(-0.077973 0.0188336 -9.52345e-20)
(-0.0867908 0.00919558 3.58386e-20)
(-0.0954935 -0.00068923 -2.04472e-20)
(-0.104052 -0.0108519 1.57075e-19)
(-0.112463 -0.0213684 -5.67268e-20)
(-0.120756 -0.0323408 4.69144e-20)
(-0.128989 -0.0438894 6.75251e-20)
(-0.137249 -0.0561569 -3.76625e-20)
(-0.145656 -0.069328 3.39298e-19)
(-0.154298 -0.0836086 -1.28644e-19)
(-0.00247307 0.0164929 6.14277e-20)
(-0.00744364 0.0390777 -7.72959e-20)
(-0.0136282 0.0534467 -1.19202e-19)
(-0.0204628 0.0611221 -3.11547e-20)
(-0.0278421 0.0634875 1.3916e-20)
(-0.0356636 0.0618061 2.15207e-20)
(-0.0438169 0.05718 7.23218e-20)
(-0.052204 0.0505191 1.63396e-20)
(-0.0607323 0.042529 4.53954e-21)
(-0.0693138 0.0337139 2.61391e-19)
(-0.0778674 0.024397 1.97247e-19)
(-0.0863218 0.0147517 -1.19419e-19)
(-0.0946219 0.0048399 -1.75309e-20)
(-0.102733 -0.00535099 -4.75043e-20)
(-0.11065 -0.0158778 4.74665e-20)
(-0.118396 -0.0268231 -2.53548e-19)
(-0.126029 -0.0382881 -5.41656e-20)
(-0.133643 -0.0503998 -7.99307e-20)
(-0.141362 -0.0633361 -1.94205e-19)
(-0.14925 -0.0772865 1.05897e-19)
(-0.00288155 0.0171499 1.05166e-20)
(-0.0083848 0.0408431 -3.83527e-20)
(-0.0148487 0.0561473 1.07908e-19)
(-0.0217842 0.0645976 -6.67156e-20)
(-0.0291289 0.0675876 -3.76744e-20)
(-0.0368141 0.0663931 6.03901e-20)
(-0.0447552 0.0621308 -1.01205e-19)
(-0.0528714 0.0557262 -1.34309e-20)
(-0.061081 0.0479013 1.93666e-19)
(-0.0693013 0.0391771 -1.24267e-19)
(-0.0774519 0.0298937 -5.12879e-20)
(-0.085459 0.0202419 6.01835e-20)
(-0.0932625 0.0103017 -1.59256e-20)
(-0.100822 7.9701e-05 -8.20817e-21)
(-0.108125 -0.0104608 7.02144e-20)
(-0.11519 -0.021381 -1.899e-19)
(-0.122073 -0.0327607 6.43678e-20)
(-0.128873 -0.0447079 -5.05304e-20)
(-0.135713 -0.0573896 -1.14266e-19)
(-0.142625 -0.0709731 4.02833e-20)
(-0.00330764 0.0177611 -2.91028e-20)
(-0.00936539 0.0425064 2.10957e-19)
(-0.0161114 0.0587167 -4.68029e-20)
(-0.023137 0.0679309 2.87936e-20)
(-0.0304245 0.071546 2.09216e-19)
(-0.0379403 0.0708455 -1.41661e-19)
(-0.0456262 0.0669567 -7.03988e-20)
(-0.0534201 0.0608184 -1.22644e-19)
(-0.0612515 0.0531671 -1.34614e-19)
(-0.0690431 0.0445398 -8.98264e-20)
(-0.076715 0.0352929 -1.22311e-19)
(-0.0841905 0.0256347 2.22335e-19)
(-0.0914034 0.0156633 -2.40307e-20)
(-0.0983059 0.00540462 -5.31628e-20)
(-0.104877 -0.00515667 -2.78051e-19)
(-0.111127 -0.0160589 1.55546e-19)
(-0.117108 -0.0273574 3.74427e-20)
(-0.122923 -0.0391376 9.94717e-20)
(-0.128694 -0.0515499 6.83405e-20)
(-0.134407 -0.064733 -1.85167e-19)
(-0.0037481 0.0183206 -9.15204e-20)
(-0.0103783 0.0440529 1.24959e-19)
(-0.0174074 0.0611339 7.03038e-20)
(-0.0245116 0.0710966 3.20394e-20)
(-0.031719 0.0753346 2.76577e-20)
(-0.0390319 0.0751335 -9.63677e-20)
(-0.0464201 0.0716274 2.08552e-19)
(-0.0538403 0.0657652 1.13904e-20)
(-0.0612338 0.0582962 1.95519e-19)
(-0.0685291 0.0497718 -1.15375e-19)
(-0.0756466 0.0405645 1.84961e-19)
(-0.0825062 0.0308993 -1.85382e-19)
(-0.0890346 0.0208924 -1.6725e-19)
(-0.0951752 0.0105894 1.44414e-19)
(-0.100896 -3.45317e-06 5.16092e-19)
(-0.106199 -0.0108997 -2.8841e-19)
(-0.111126 -0.0221273 2.37958e-19)
(-0.115787 -0.0337448 5.62636e-20)
(-0.120298 -0.0458791 -2.10765e-19)
(-0.124586 -0.0586312 1.77779e-19)
(-0.00419936 0.018823 1.67478e-19)
(-0.0114157 0.0454688 -9.50295e-20)
(-0.0187269 0.063379 3.35078e-20)
(-0.0258974 0.0740704 1.23708e-19)
(-0.0330018 0.0789261 -1.13449e-19)
(-0.0400789 0.0792282 2.24964e-19)
(-0.047127 0.076113 -4.07791e-20)
(-0.0541224 0.0705364 5.03804e-21)
(-0.0610188 0.0632583 -2.71023e-19)
(-0.0677503 0.0548433 1.72076e-19)
(-0.074238 0.0456787 4.07846e-20)
(-0.0803976 0.0360058 -5.496e-20)
(-0.0861483 0.0259582 6.78242e-20)
(-0.0914228 0.015601 -2.69928e-19)
(-0.0961771 0.00496257 -1.5039e-19)
(-0.1004 -0.00594474 3.22505e-19)
(-0.104125 -0.0171184 -1.82216e-19)
(-0.107464 -0.0285846 -2.63539e-19)
(-0.110526 -0.0404389 4.92481e-19)
(-0.113165 -0.0527328 9.81565e-22)
(-0.00465759 0.0192633 1.4193e-19)
(-0.0124692 0.0467414 -1.77358e-19)
(-0.0200592 0.0654333 -1.85577e-19)
(-0.0272833 0.0768292 -8.88256e-20)
(-0.0342619 0.0822943 -1.29489e-19)
(-0.041071 0.0831013 -7.32472e-20)
(-0.0477373 0.0803842 -3.13344e-19)
(-0.0542576 0.0751025 3.83172e-20)
(-0.0605978 0.0680242 -1.35128e-19)
(-0.0666985 0.0597253 4.75184e-19)
(-0.0724813 0.0506069 -2.78187e-19)
(-0.0778575 0.0409254 1.70547e-19)
(-0.082738 0.0308314 -5.26923e-20)
(-0.0870436 0.0204086 2.94441e-19)
(-0.0907164 0.00970734 2.48329e-20)
(-0.0937305 -0.00123287 -2.5863e-19)
(-0.096105 -0.012376 -4.80573e-20)
(-0.0979558 -0.0237104 9.98446e-21)
(-0.0993858 -0.0352902 -1.77251e-20)
(-0.100153 -0.047102 3.44789e-19)
(-0.00511872 0.0196374 -1.76246e-19)
(-0.0135297 0.0478593 -1.7141e-19)
(-0.0213936 0.0672796 7.11531e-20)
(-0.0286578 0.0793511 1.78725e-19)
(-0.0354884 0.085414 -1.33787e-20)
(-0.0419977 0.0867255 -1.24451e-19)
(-0.0482416 0.0844124 2.76826e-19)
(-0.054237 0.0794343 -3.17862e-20)
(-0.059963 0.0725647 3.41812e-19)
(-0.0653666 0.0643891 -3.81778e-19)
(-0.0703699 0.0553208 1.0099e-19)
(-0.0748799 0.0456305 1.21739e-19)
(-0.0787986 0.0354841 -3.5654e-21)
(-0.082034 0.0249831 -2.25827e-21)
(-0.0845124 0.0141995 -2.38705e-19)
(-0.0861907 0.00320024 3.13857e-20)
(-0.0870716 -0.0079424 3.26552e-19)
(-0.0872723 -0.0191727 4.26497e-19)
(-0.0868909 -0.0304918 -5.10067e-19)
(-0.0855635 -0.041802 -3.28163e-19)
(-0.00557853 0.0199415 7.48103e-20)
(-0.0145881 0.0488127 1.13733e-19)
(-0.0227185 0.0689025 1.40546e-19)
(-0.0300091 0.0816162 -2.36983e-19)
(-0.0366698 0.0882617 2.50146e-19)
(-0.0428487 0.0900747 2.39255e-19)
(-0.0486305 0.0881701 -9.33681e-20)
(-0.0540525 0.0835036 4.14599e-19)
(-0.059107 0.0768514 -4.22409e-19)
(-0.0637476 0.0688068 1.88979e-19)
(-0.0678976 0.0597933 1.93323e-19)
(-0.0714594 0.0500943 -1.43425e-20)
(-0.0743257 0.03989 3.29095e-21)
(-0.0763909 0.0292982 2.57026e-20)
(-0.0775644 0.018411 -1.89297e-19)
(-0.0777834 0.00732283 1.89916e-19)
(-0.0770313 -0.00385547 -9.76902e-20)
(-0.0754241 -0.0150181 -2.22664e-19)
(-0.0730598 -0.0260999 2.92068e-19)
(-0.0694184 -0.0368943 6.18408e-20)
(-0.00603276 0.0201731 -4.2816e-20)
(-0.0156349 0.0495932 5.39392e-20)
(-0.0240225 0.0702885 -1.17528e-19)
(-0.0313251 0.0836065 -1.76761e-19)
(-0.0377947 0.0908156 -1.82107e-19)
(-0.0436138 0.0931244 -1.64949e-19)
(-0.0488951 0.0916307 2.71558e-19)
(-0.0536962 0.0872828 -1.36358e-19)
(-0.0580229 0.0808568 1.10151e-19)
(-0.0618357 0.0729509 1.34643e-20)
(-0.0650589 0.0639978 -3.07955e-20)
(-0.067591 0.0542915 7.81562e-20)
(-0.0693152 0.0440248 -1.51813e-19)
(-0.0701118 0.0333298 7.8571e-20)
(-0.0698718 0.0223172 2.61404e-19)
(-0.0685114 0.0111077 -3.86906e-19)
(-0.0659914 -0.000147867 -2.50273e-19)
(-0.0624238 -0.0112878 3.32734e-19)
(-0.0579138 -0.0221669 -1.95231e-19)
(-0.0517393 -0.0324408 -3.11717e-19)
(-0.00647712 0.0203301 1.60963e-19)
(-0.0166605 0.0501945 -1.64365e-19)
(-0.0252938 0.0714264 1.32778e-19)
(-0.0325939 0.085306 2.14281e-19)
(-0.0388518 0.0930558 -3.99499e-20)
(-0.0442828 0.0958514 -1.4327e-19)
(-0.0490265 0.0947689 -2.66003e-19)
(-0.0531606 0.0907454 -2.03537e-19)
(-0.0567042 0.0845537 -4.15341e-19)
(-0.0596249 0.0767949 4.33136e-20)
(-0.0618488 0.0679085 -3.86163e-20)
(-0.06327 0.0581976 -3.00976e-19)
(-0.0637629 0.0478654 2.65404e-19)
(-0.0631933 0.0370563 3.26378e-19)
(-0.0614333 0.0258971 -1.72082e-20)
(-0.0583766 0.0145329 2.03381e-19)
(-0.0539581 0.00315428 -1.04009e-19)
(-0.048283 -0.00801578 1.78607e-20)
(-0.0414767 -0.0187404 3.03008e-19)
(-0.0325469 -0.0285012 7.30591e-19)
(-0.00690742 0.0204115 -6.90915e-20)
(-0.0176555 0.050612 -4.92571e-20)
(-0.0265209 0.0723072 1.3765e-19)
(-0.0338035 0.0867012 -1.92866e-19)
(-0.03983 0.0949647 -5.0585e-20)
(-0.0448457 0.0982346 2.99531e-19)
(-0.0490163 0.0975611 -7.15711e-20)
(-0.0524386 0.0938659 -2.07712e-19)
(-0.0551447 0.0879159 3.3817e-19)
(-0.05711 0.0803125 -9.02197e-20)
(-0.058262 0.0715 6.70444e-20)
(-0.0584915 0.0617888 3.70755e-19)
(-0.0576639 0.0513903 -5.18211e-19)
(-0.055631 0.0404588 -1.42572e-19)
(-0.0522456 0.0291338 -2.86414e-19)
(-0.0473778 0.0175817 5.85663e-19)
(-0.0409344 0.00603219 1.85615e-20)
(-0.0330098 -0.00522761 3.32137e-19)
(-0.0237725 -0.0158563 -1.16854e-19)
(-0.0118696 -0.025098 -6.9717e-19)
(-0.00731965 0.0204173 -1.62818e-19)
(-0.0186109 0.0508432 2.36462e-19)
(-0.0276928 0.0729246 2.94399e-21)
(-0.0349425 0.0877813 -2.60797e-21)
(-0.0407183 0.0965269 2.47721e-19)
(-0.045293 0.100255 1.78878e-19)
(-0.0488563 0.0999849 -7.39864e-21)
(-0.0515232 0.09662 5.4088e-19)
(-0.0533387 0.0909179 2.08409e-19)
(-0.0542855 0.0834781 -3.86215e-19)
(-0.0542934 0.0747477 1.80081e-20)
(-0.0532501 0.0650421 -1.13972e-20)
(-0.0510125 0.0545792 5.53498e-19)
(-0.0474186 0.0435199 -6.24969e-19)
(-0.0423024 0.0320134 1.73011e-19)
(-0.03551 0.0202432 8.82656e-21)
(-0.0269183 0.00847487 -4.55175e-19)
(-0.0166039 -0.00293932 -4.7792e-19)
(-0.00480153 -0.013542 -5.60964e-20)
(0.0102247 -0.0221679 7.1461e-19)
(-0.00771005 0.0203482 5.32676e-20)
(-0.019518 0.0508876 -1.68673e-19)
(-0.0287986 0.0732746 1.63235e-19)
(-0.0359998 0.0885381 -2.44884e-19)
(-0.0415063 0.0977297 3.05381e-19)
(-0.0456155 0.101895 -5.11627e-19)
(-0.0485386 0.10202 -1.27365e-19)
(-0.0504077 0.0989847 -2.827e-19)
(-0.0512803 0.0935352 -1.34148e-19)
(-0.0511462 0.0862667 2.40614e-19)
(-0.0499376 0.077627 4.96108e-19)
(-0.0475396 0.0679348 -5.61693e-19)
(-0.0438012 0.0574122 -2.11897e-19)
(-0.0385476 0.0462241 7.75922e-19)
(-0.031594 0.0345253 -2.8648e-19)
(-0.0227631 0.0225115 -4.1567e-19)
(-0.0119011 0.0104793 5.33109e-19)
(0.000939253 -0.00115391 1.12819e-19)
(0.0154944 -0.0118086 1.11139e-19)
(0.0337263 -0.0198408 -4.62206e-19)
(-0.00807521 0.0202058 2.10007e-20)
(-0.0203688 0.0507469 -8.84726e-20)
(-0.0298286 0.0733561 2.88078e-19)
(-0.0369649 0.0889662 -3.72974e-19)
(-0.0421842 0.0985631 -3.07039e-19)
(-0.0458041 0.103141 1.93933e-19)
(-0.0480555 0.103648 5.43676e-19)
(-0.0490857 0.100938 -3.44749e-19)
(-0.0489637 0.0957442 8.44027e-20)
(-0.0476865 0.0886538 -1.67606e-19)
(-0.0451886 0.0801137 -6.83438e-19)
(-0.0413527 0.0704444 4.16215e-19)
(-0.036021 0.0598698 3.41704e-19)
(-0.0290063 0.0485566 -6.08809e-19)
(-0.0201063 0.036661 1.4222e-19)
(-0.00912021 0.024385 5.80308e-19)
(0.00413656 0.0120494 2.33039e-19)
(0.0196323 0.000130382 8.19653e-20)
(0.0370829 -0.0106633 -4.84497e-19)
(0.0587461 -0.0182225 -2.3826e-19)
(-0.00841209 0.0199929 -1.44944e-19)
(-0.0211561 0.0504248 -2.66488e-19)
(-0.0307736 0.0731705 -1.52525e-19)
(-0.0378282 0.0890632 2.02173e-19)
(-0.0427425 0.0990199 -1.18379e-20)
(-0.0458505 0.103981 4.56675e-19)
(-0.0473995 0.104852 -4.25749e-20)
(-0.0475506 0.102461 5.06248e-20)
(-0.046383 0.0975225 3.33428e-19)
(-0.0439003 0.0906155 4.24325e-19)
(-0.0400394 0.0821839 -2.02917e-20)
(-0.0346809 0.0725482 -9.50282e-20)
(-0.0276606 0.0619326 -5.6378e-19)
(-0.0187799 0.050503 4.26532e-19)
(-0.00782007 0.0384132 -3.78265e-20)
(0.00544158 0.0258655 -2.60196e-19)
(0.0212205 0.0131952 -1.32255e-18)
(0.0395107 0.00092821 4.74872e-19)
(0.0599778 -0.0100844 2.50114e-20)
(0.0852975 -0.0172236 -2.97998e-19)
(-0.0087182 0.0197129 1.34621e-19)
(-0.0218737 0.0499268 3.48956e-19)
(-0.0316255 0.0727221 -2.65529e-19)
(-0.0385808 0.0888296 -1.29029e-19)
(-0.0431725 0.099096 1.0746e-19)
(-0.0457464 0.104405 -2.59923e-19)
(-0.0465632 0.105619 -4.85434e-19)
(-0.0457955 0.103536 2.8849e-19)
(-0.0435315 0.0988492 -3.26446e-20)
(-0.0397807 0.092129 -6.71259e-19)
(-0.0344818 0.0838141 1.28907e-19)
(-0.0275138 0.0742236 7.38267e-20)
(-0.0187061 0.0635807 -1.30364e-19)
(-0.00784983 0.0520484 3.45927e-19)
(0.00528893 0.0397752 6.82471e-19)
(0.0209529 0.0269573 -4.50184e-19)
(0.0393869 0.013934 3.6615e-19)
(0.0606175 0.00126995 9.16717e-20)
(0.0842266 -0.0100555 5.25687e-19)
(0.113419 -0.016811 2.3937e-19)
(-0.00899156 0.01937 -1.48024e-19)
(-0.0225163 0.0492606 -1.6632e-20)
(-0.0323773 0.0720177 3.76895e-19)
(-0.0392151 0.088269 3.74543e-19)
(-0.0434661 0.0987902 -7.70711e-20)
(-0.045484 0.104407 -4.85264e-20)
(-0.0455391 0.105937 4.89895e-19)
(-0.0438131 0.104145 -3.82006e-19)
(-0.0404018 0.099705 1.17625e-19)
(-0.0353193 0.0931726 4.89151e-19)
(-0.028506 0.0849813 4.73682e-19)
(-0.0198384 0.0754478 1.87546e-19)
(-0.00914032 0.0647935 8.22285e-19)
(0.00380682 0.0531773 -1.13746e-19)
(0.0192509 0.0407397 -8.89248e-19)
(0.0374522 0.027665 4.41306e-19)
(0.0586823 0.0142864 -2.4037e-19)
(0.0830075 0.00119192 -5.6096e-19)
(0.10989 -0.0105413 -4.02125e-19)
(0.143179 -0.0169571 -4.08134e-19)
(-0.00923077 0.0189693 9.51912e-20)
(-0.0230799 0.0484354 1.99197e-19)
(-0.0330234 0.0710664 -1.3774e-19)
(-0.039724 0.0873879 -1.71115e-19)
(-0.0436159 0.0981048 -1.78843e-19)
(-0.0450554 0.103985 -4.81569e-20)
(-0.044319 0.105799 -5.07368e-19)
(-0.0415951 0.104278 2.60983e-19)
(-0.0369849 0.100073 -2.42197e-19)
(-0.030506 0.0937262 -4.12385e-19)
(-0.0220994 0.0856637 1.5164e-20)
(-0.0116389 0.0761989 -1.06244e-18)
(0.00105765 0.0655507 -8.32405e-19)
(0.0162179 0.0538734 2.66493e-19)
(0.0341022 0.0412981 1.36093e-19)
(0.0549862 0.0279931 -2.959e-19)
(0.0791638 0.0142747 1.16051e-18)
(0.106748 0.000737494 -1.84387e-19)
(0.13704 -0.0114878 5.06194e-19)
(0.174661 -0.0176133 4.60567e-19)
(-0.00943508 0.0185163 -1.3044e-19)
(-0.0235617 0.0474624 -4.3198e-19)
(-0.0335592 0.0698801 1.37662e-19)
(-0.0401016 0.0861955 7.82796e-21)
(-0.0436146 0.0970447 5.84393e-19)
(-0.0444525 0.103137 -3.49785e-19)
(-0.0428942 0.105198 1.9193e-19)
(-0.0391318 0.103923 2.76506e-19)
(-0.0332698 0.0999386 -2.15087e-20)
(-0.0253277 0.093772 1.72648e-19)
(-0.0152459 0.0858412 5.29947e-19)
(-0.00289493 0.0764556 1.11624e-18)
(0.0119139 0.065832 9.07985e-20)
(0.029417 0.05412 -5.05196e-19)
(0.0498863 0.0414408 9.18231e-20)
(0.0736098 0.0279443 9.13998e-19)
(0.100898 0.0139209 -6.27396e-19)
(0.131918 -4.48201e-05 3.50892e-21)
(0.165761 -0.0128282 4.96297e-19)
(0.207968 -0.0187095 -3.073e-19)
(-0.00960437 0.0180173 -1.25546e-19)
(-0.0239599 0.0463539 5.12241e-19)
(-0.0339814 0.0684724 -3.90343e-19)
(-0.0403427 0.0847041 -7.97386e-20)
(-0.0434555 0.0956186 -1.34875e-19)
(-0.0436668 0.101869 -3.52068e-19)
(-0.0412545 0.104134 3.50972e-19)
(-0.0364111 0.103075 -1.15772e-19)
(-0.0292423 0.0992911 -2.0962e-19)
(-0.0197675 0.0932954 3.44434e-19)
(-0.00792504 0.0854963 -4.03535e-19)
(0.00641927 0.0761992 -1.31192e-19)
(0.023461 0.0656186 -1.47977e-20)
(0.0434454 0.0539006 3.55684e-19)
(0.0666547 0.0411575 -3.25245e-19)
(0.0933868 0.02752 -6.22158e-19)
(0.123961 0.0132459 -1.95062e-19)
(0.158608 -0.00110424 -2.83415e-19)
(0.196149 -0.0144867 -8.72153e-19)
(0.243205 -0.0201572 -2.6366e-19)
(-0.00973915 0.0174786 1.78675e-19)
(-0.0242741 0.0451233 -2.24606e-19)
(-0.0342878 0.066859 -2.82444e-19)
(-0.040443 0.0829282 -2.66805e-19)
(-0.0431315 0.0938379 8.87694e-20)
(-0.0426889 0.100187 4.93043e-20)
(-0.0393878 0.102609 1.25551e-19)
(-0.0334183 0.10173 -3.27842e-19)
(-0.0248845 0.0981233 2.54584e-19)
(-0.0138035 0.0922854 -7.69844e-19)
(-0.00010979 0.0846152 -3.89179e-19)
(0.0163368 0.0754141 6.2377e-21)
(0.0357397 0.0648947 3.5094e-19)
(0.0583532 0.0532012 -2.33093e-19)
(0.0844688 0.040439 6.01433e-19)
(0.114391 0.0267211 -1.48697e-19)
(0.14844 0.0122688 1.94766e-19)
(0.186914 -0.00238978 7.49072e-19)
(0.228303 -0.0163813 9.98163e-20)
(0.280482 -0.02185 4.87297e-19)
(-0.00984058 0.0169073 -3.7729e-19)
(-0.0245051 0.0437852 3.04091e-19)
(-0.0344771 0.0650573 3.40273e-19)
(-0.0403984 0.0808849 -1.98497e-19)
(-0.0426354 0.0917172 3.39328e-19)
(-0.041508 0.0981022 3.2783e-19)
(-0.0372797 0.100629 -5.92051e-20)
(-0.0301348 0.0998899 -1.13378e-19)
(-0.0201731 0.0964329 -3.09986e-19)
(-0.00740718 0.0907362 1.45264e-19)
(0.00823452 0.0831894 1.41339e-20)
(0.0268998 0.0740897 -3.88416e-19)
(0.0488011 0.0636493 2.9375e-19)
(0.074202 0.0520118 -2.32208e-19)
(0.103401 0.0392791 -4.26806e-19)
(0.136707 0.0255498 -5.64233e-19)
(0.174428 0.0110083 1.39197e-19)
(0.216939 -0.00385114 1.96228e-19)
(0.262326 -0.0184264 -1.91316e-19)
(0.319893 -0.0236659 8.08469e-19)
(-0.00991033 0.0163102 -2.98794e-19)
(-0.0246544 0.0423545 -2.79778e-19)
(-0.0345489 0.0630858 2.20984e-19)
(-0.0402049 0.0785932 1.28467e-19)
(-0.041959 0.089274 5.28463e-20)
(-0.0401112 0.0956287 -9.65034e-20)
(-0.0349121 0.0982057 -6.81757e-20)
(-0.0265372 0.0975625 1.56661e-19)
(-0.0150788 0.094223 -1.48919e-19)
(-0.000542174 0.0886477 1.20139e-18)
(0.0171523 0.0812163 8.81817e-20)
(0.0381619 0.0722223 -1.38204e-19)
(0.0627092 0.0618782 -9.11699e-19)
(0.0910667 0.0503295 1.7811e-19)
(0.123539 0.037678 -4.59939e-19)
(0.160433 0.0240135 3.07619e-19)
(0.202032 0.00948488 2.85701e-19)
(0.248788 -0.005438 -1.10214e-18)
(0.298317 -0.0205346 -3.47973e-19)
(0.361509 -0.0254697 -1.20836e-18)
(-0.0099506 0.0156942 1.44373e-19)
(-0.0247245 0.0408465 2.89907e-19)
(-0.0345032 0.060964 -5.22069e-19)
(-0.0398585 0.0760742 -3.99903e-19)
(-0.0410929 0.0865284 2.03291e-19)
(-0.038483 0.0927847 1.91356e-19)
(-0.0322631 0.0953533 -3.98166e-19)
(-0.0225962 0.0947596 -3.60093e-20)
(-0.00956424 0.091503 2.15645e-20)
(0.00683755 0.0860269 -3.62046e-19)
(0.0266995 0.0787013 5.30088e-19)
(0.05019 0.0698166 3.31129e-21)
(0.0775428 0.0595866 6.83205e-19)
(0.109038 0.0481612 4.67712e-19)
(0.144984 0.0356459 7.79755e-20)
(0.185678 0.0221278 1.01298e-18)
(0.231366 0.00772541 -9.29601e-19)
(0.282567 -0.00709798 4.34112e-19)
(0.336366 -0.0226168 3.43871e-19)
(0.405362 -0.0271151 2.99167e-19)
(-0.00996396 0.0150661 6.97087e-19)
(-0.0247186 0.0392764 -4.9117e-19)
(-0.0343402 0.0587121 1.18818e-19)
(-0.0393541 0.0733499 3.88256e-19)
(-0.0400259 0.0835031 -4.18953e-19)
(-0.0366048 0.089592 2.0611e-20)
(-0.0293057 0.0920921 3.20333e-19)
(-0.0182758 0.0914992 5.92006e-19)
(-0.00358349 0.088289 8.06522e-19)
(0.014789 0.0828887 -7.76324e-19)
(0.0369452 0.075659 -4.67218e-19)
(0.0630663 0.0668875 2.2331e-19)
(0.0933973 0.0567911 -6.49802e-19)
(0.128225 0.0455262 4.39838e-20)
(0.167855 0.0332061 2.56585e-19)
(0.212568 0.019922 1.98127e-19)
(0.26255 0.00576739 6.27665e-19)
(0.318373 -0.00877347 1.34693e-19)
(0.376551 -0.024581 -4.84112e-19)
(0.451428 -0.0284472 5.23585e-19)
(-0.00995328 0.0144323 -6.61197e-19)
(-0.0246398 0.037659 4.89211e-19)
(-0.0340597 0.05635 1.18595e-19)
(-0.0386859 0.0704438 -3.85282e-19)
(-0.0387441 0.0802227 1.63014e-19)
(-0.0344539 0.0860754 -7.88225e-20)
(-0.0260071 0.0884468 -5.93208e-20)
(-0.0135321 0.0878052 -4.99297e-19)
(0.00291952 0.0846046 -7.92996e-19)
(0.0233816 0.0792568 7.46247e-19)
(0.047973 0.0721139 -2.70045e-19)
(0.0768892 0.0634618 8.66104e-21)
(0.110386 0.0535218 1.55662e-19)
(0.148753 0.042459 3.35076e-19)
(0.192286 0.0303985 -4.08585e-20)
(0.241235 0.0174413 -9.59194e-20)
(0.295708 0.00366362 -5.04061e-19)
(0.356292 -0.0103986 -3.41015e-19)
(0.418926 -0.0263295 -3.25442e-19)
(0.499609 -0.0293046 5.28933e-19)
(-0.00992152 0.0137985 5.30379e-19)
(-0.0244916 0.0360082 -1.38266e-19)
(-0.0336611 0.0538978 4.69482e-19)
(-0.0378461 0.0673796 1.13818e-19)
(-0.0372308 0.0767139 -2.51239e-19)
(-0.0320028 0.0822633 4.07695e-20)
(-0.022328 0.0844465 -5.3853e-19)
(-0.00831272 0.0837077 2.4619e-19)
(0.0100117 0.0804811 1.34232e-19)
(0.0326977 0.0751641 -4.896e-20)
(0.0598817 0.0681018 -5.6011e-20)
(0.091774 0.0595792 6.78328e-20)
(0.128639 0.0498233 -3.12505e-19)
(0.170764 0.0390105 -7.35894e-19)
(0.218424 0.0272807 3.75386e-19)
(0.271821 0.0147504 -1.92673e-19)
(0.330962 0.00148542 -4.91406e-20)
(0.396385 -0.011897 8.24279e-19)
(0.463516 -0.0277551 8.74729e-19)
(0.549707 -0.0295225 -1.34928e-18)
(-0.00987162 0.0131701 -1.35493e-19)
(-0.0242768 0.0343371 -1.48876e-19)
(-0.0331422 0.0513744 -2.94363e-19)
(-0.0368248 0.0641815 2.15767e-19)
(-0.0354658 0.0730045 3.9182e-19)
(-0.0292191 0.0781866 -5.07986e-19)
(-0.0182221 0.0801249 8.13808e-19)
(-0.00255601 0.079243 -1.59721e-19)
(0.017771 0.0759574 2.32947e-20)
(0.0428329 0.0706533 -5.59728e-19)
(0.072785 0.0636698 -4.28736e-20)
(0.107851 0.0552926 -4.69601e-19)
(0.148301 0.0457559 6.3488e-19)
(0.194412 0.035249 4.22176e-19)
(0.246423 0.0239297 -8.3253e-19)
(0.304463 0.011933 -7.16737e-19)
(0.368416 -0.000676283 1.67708e-19)
(0.438678 -0.0131833 9.85153e-19)
(0.510305 -0.0287377 4.60337e-19)
(0.60141 -0.0289399 2.50004e-19)
(-0.00980633 0.0125514 4.19395e-20)
(-0.0239976 0.032657 1.44255e-19)
(-0.0324997 0.0487979 1.73602e-19)
(-0.0356092 0.0608732 -1.45033e-19)
(-0.0334247 0.0691233 3.63537e-19)
(-0.0260647 0.0738787 4.88022e-19)
(-0.0136358 0.0755197 7.62389e-21)
(0.00380885 0.0744529 -6.34625e-19)
(0.0262869 0.0710802 -5.09879e-19)
(0.0538958 0.0657766 5.371e-19)
(0.0868101 0.0588766 -7.24604e-19)
(0.125266 0.0506683 -8.21018e-19)
(0.16953 0.0413946 -8.25756e-20)
(0.219858 0.0312591 -4.18355e-20)
(0.276434 0.0204394 2.95966e-19)
(0.339284 0.00909032 1.96115e-19)
(0.408147 -0.0027128 2.57033e-19)
(0.483146 -0.0141665 -1.21667e-18)
(0.559228 -0.0291439 -3.42557e-19)
(0.654276 -0.0274187 9.01602e-19)
(-0.00972796 0.011946 -2.51644e-19)
(-0.023655 0.030978 2.45704e-19)
(-0.0317278 0.046185 -1.81184e-19)
(-0.0341837 0.0574778 -8.994e-20)
(-0.0310788 0.0650997 -2.45414e-19)
(-0.0224956 0.0693748 -1.86194e-19)
(-0.00850784 0.0706721 -3.34355e-19)
(0.0108617 0.0693849 5.5429e-19)
(0.0356589 0.0659035 2.21935e-19)
(0.0660059 0.0605952 -5.45943e-19)
(0.102095 0.053792 8.62608e-19)
(0.14417 0.0457856 4.46407e-19)
(0.192487 0.0368287 -3.40067e-19)
(0.24726 0.0271405 -4.83001e-19)
(0.308596 0.0169189 -6.349e-20)
(0.376379 0.0063373 5.04276e-19)
(0.450184 -0.00450185 -3.42774e-19)
(0.529702 -0.0147574 1.31182e-19)
(0.610153 -0.0288273 2.97422e-19)
(0.707723 -0.0248671 7.62374e-19)
(-0.00963828 0.0113563 -2.58852e-20)
(-0.0232484 0.029308 -6.06644e-19)
(-0.0308184 0.0435504 1.47737e-19)
(-0.0325288 0.0540173 3.28612e-19)
(-0.0283947 0.060963 -6.04422e-20)
(-0.018462 0.0647118 -3.98696e-19)
(-0.00277 0.0656263 4.40645e-19)
(0.0186908 0.064091 5.06489e-19)
(0.0459959 0.0604879 1.94415e-19)
(0.0792917 0.0551789 9.71173e-19)
(0.118786 0.0484956 -4.54977e-19)
(0.164722 0.0407347 2.20068e-19)
(0.21733 0.0321596 -2.27485e-19)
(0.276763 0.0230045 5.55283e-19)
(0.343019 0.0134876 -4.87032e-20)
(0.415801 0.00379659 -1.32286e-19)
(0.494492 -0.00591514 -2.10109e-19)
(0.578182 -0.0148741 3.35424e-19)
(0.662845 -0.0276053 -8.53036e-19)
(0.760988 -0.0212053 -1.16964e-18)
(-0.00953827 0.0107839 -1.45876e-19)
(-0.0227755 0.0276531 -5.37689e-20)
(-0.0297607 0.0409069 -4.89653e-19)
(-0.0306216 0.0505122 2.99702e-19)
(-0.0253344 0.056742 -3.06091e-19)
(-0.0139083 0.0599271 -3.11325e-19)
(0.00365259 0.060429 -2.81022e-20)
(0.0273913 0.0586274 -5.10496e-19)
(0.0574133 0.0548994 -8.13185e-19)
(0.0938874 0.0496044 2.23327e-19)
(0.137031 0.0430754 2.51976e-19)
(0.187074 0.0356153 3.05948e-19)
(0.244204 0.0274977 7.89104e-19)
(0.308486 0.0189706 -7.80553e-20)
(0.379772 0.0102693 -1.74323e-19)
(0.457543 0.00159053 -2.61212e-20)
(0.540964 -0.00683454 4.44968e-19)
(0.628364 -0.0144539 7.98009e-19)
(0.716951 -0.0252039 -2.26133e-19)
(0.813032 -0.0162714 8.48524e-19)
(-0.00942801 0.0102291 4.56266e-19)
(-0.0222317 0.0260174 -7.36572e-20)
(-0.0285403 0.038265 4.31973e-19)
(-0.028435 0.0469812 -4.42971e-19)
(-0.0218549 0.0524647 6.54331e-19)
(-0.00877364 0.0550586 5.48346e-19)
(0.0108403 0.0551283 -4.51357e-19)
(0.0370639 0.0530531 -8.42934e-19)
(0.0700308 0.0492085 1.40238e-18)
(0.109928 0.0439542 3.48103e-19)
(0.156973 0.0376262 -2.73036e-19)
(0.211368 0.0305338 -2.71677e-19)
(0.273232 0.0229597 -1.36443e-19)
(0.342508 0.0151618 -2.14742e-19)
(0.418866 0.00738696 -7.17661e-19)
(0.501526 -0.000168723 -1.98117e-19)
(0.589409 -0.00717861 1.56423e-20)
(0.680035 -0.013472 -5.48049e-19)
(0.772142 -0.0212853 2.73543e-19)
(0.862819 -0.0101941 -6.00762e-19)
(-0.00930652 0.00969146 -7.28513e-19)
(-0.0216101 0.0244027 4.89727e-19)
(-0.0271401 0.0356332 -7.28584e-19)
(-0.025938 0.0434411 -3.96638e-19)
(-0.0179092 0.0481575 1.4793e-19)
(-0.00299287 0.0501436 -5.9208e-19)
(0.0188777 0.0497731 9.2984e-19)
(0.0478119 0.047429 1.65121e-20)
(0.0839687 0.0434888 -5.21696e-19)
(0.127546 0.0383146 -4.57243e-19)
(0.178747 0.0322469 -8.2063e-19)
(0.237725 0.0256007 -9.6121e-21)
(0.304501 0.0186648 3.02465e-20)
(0.378858 0.0117012 -1.93543e-19)
(0.460241 0.00495773 8.63262e-19)
(0.547574 -0.00138518 5.38041e-19)
(0.639516 -0.00691899 1.34217e-19)
(0.732933 -0.011942 -5.81572e-19)
(0.828268 -0.0158243 -3.02415e-20)
(0.91105 -0.00512288 -9.66199e-19)
(-0.00917168 0.00916935 2.58754e-19)
(-0.0209011 0.0228092 -4.88834e-19)
(-0.0255392 0.0330174 6.28618e-19)
(-0.0230959 0.0399066 8.83677e-19)
(-0.0134464 0.0438456 -2.8761e-19)
(0.00350285 0.0452186 3.78427e-20)
(0.0278518 0.0444123 -7.8299e-19)
(0.0597395 0.0418171 -1.94459e-19)
(0.0993442 0.0378155 -6.10593e-19)
(0.146863 0.0327742 7.99409e-19)
(0.202469 0.0270384 7.45276e-19)
(0.266238 0.0209275 -1.32821e-19)
(0.338056 0.0147316 -1.01269e-19)
(0.417505 0.00870806 -9.15303e-21)
(0.503758 0.00309187 1.53489e-19)
(0.595409 -0.00197424 -2.79995e-19)
(0.690818 -0.00605015 -3.28332e-19)
(0.78647 -0.00987947 6.9968e-19)
(0.884425 -0.00981625 -2.23931e-19)
(0.961904 -0.0058178 4.532e-20)
(-0.00902014 0.00866035 6.83195e-20)
(-0.0200925 0.0212349 9.93027e-20)
(-0.0237136 0.0304215 -3.2879e-19)
(-0.0198704 0.0363901 -9.09878e-19)
(-0.00841215 0.0395519 1.4782e-19)
(0.0107846 0.0403187 4.47655e-19)
(0.0378501 0.0390939 2.04834e-19)
(0.0729482 0.036279 8.81082e-19)
(0.116267 0.032264 -5.54673e-19)
(0.167989 0.0274215 -7.24472e-19)
(0.228232 0.0221012 -1.3314e-19)
(0.296963 0.0166237 3.35004e-19)
(0.373892 0.0112742 7.38157e-20)
(0.458351 0.00629466 3.99583e-19)
(0.549199 0.00189113 -4.92045e-19)
(0.644665 -0.00185317 1.00358e-19)
(0.742771 -0.00452762 -1.26924e-19)