/*--------------------------------*- C++ -*----------------------------------*\
  =========                 |
  \\      /  F ield         | OpenFOAM: The Open Source CFD Toolbox
   \\    /   O peration     | Website:  https://openfoam.org
    \\  /    A nd           | Version:  7
     \\/     M anipulation  |
\*---------------------------------------------------------------------------*/
FoamFile
{
    version     2.0;
    format      ascii;
    class       surfaceScalarField;
    location    "30";
    object      phi;
}
// * * * * * * * * * * * * * * * * * * * * * * * * * * * * * * * * * * * * * //

dimensions      [0 3 -1 0 0 0 0];

internalField   nonuniform List<scalar> 
16708
(
-8.68129e-07
8.71455e-07
-3.32677e-09
-3.27011e-06
2.40842e-06
-6.44086e-09
-7.07964e-06
3.81608e-06
-6.54827e-09
-1.2172e-05
5.09635e-06
-3.9866e-09
-1.84253e-05
6.25242e-06
8.93463e-10
-2.57223e-05
7.28928e-06
7.74751e-09
-3.39522e-05
8.2136e-06
1.62564e-08
-4.30123e-05
9.03399e-06
2.61478e-08
-5.28107e-05
9.76114e-06
3.72152e-08
-6.3268e-05
1.0408e-05
4.93315e-08
-7.43201e-05
1.09896e-05
6.24583e-08
-8.59205e-05
1.15238e-05
7.66481e-08
-9.80429e-05
1.20303e-05
9.20425e-08
-0.000110683
1.25315e-05
1.08866e-07
-0.000123862
1.30512e-05
1.27418e-07
-0.000137625
1.36146e-05
1.48066e-07
-0.000152043
1.42467e-05
1.71242e-07
-0.000167211
1.49714e-05
1.97435e-07
-0.000183244
1.58058e-05
2.27185e-07
1.6771e-05
2.61157e-07
-0.000200276
-8.65489e-07
1.73694e-06
-3.26042e-06
4.80335e-06
-7.05892e-06
7.61458e-06
-1.21365e-05
1.01739e-05
-1.83715e-05
1.24874e-05
-2.56465e-05
1.45643e-05
-3.38506e-05
1.64177e-05
-4.28808e-05
1.80642e-05
-5.26448e-05
1.95251e-05
-6.30625e-05
2.08257e-05
-7.40691e-05
2.19963e-05
-8.56172e-05
2.30719e-05
-9.76795e-05
2.40926e-05
-0.000110251
2.51029e-05
-0.000123351
2.61509e-05
-0.000137024
2.72874e-05
-0.00015134
2.85633e-05
-0.000166395
3.00264e-05
-0.000182302
3.17122e-05
3.36634e-05
-0.000199194
-8.60216e-07
2.59716e-06
-3.24106e-06
7.1842e-06
-7.01749e-06
1.1391e-05
-1.20656e-05
1.5222e-05
-1.82638e-05
1.86856e-05
-2.54948e-05
2.17953e-05
-3.36472e-05
2.45701e-05
-4.26176e-05
2.70346e-05
-5.23125e-05
2.922e-05
-6.26509e-05
3.1164e-05
-7.35664e-05
3.29117e-05
-8.50097e-05
3.45153e-05
-9.69516e-05
3.60345e-05
-0.000109385
3.7536e-05
-0.000122326
3.90925e-05
-0.000135819
4.07802e-05
-0.000149932
4.26762e-05
-0.000164759
4.48532e-05
-0.000180411
4.73649e-05
5.02755e-05
-0.000197024
-8.52371e-07
3.44953e-06
-3.21223e-06
9.54405e-06
-6.95576e-06
1.51345e-05
-1.19598e-05
2.02261e-05
-1.81031e-05
2.48289e-05
-2.52684e-05
2.89606e-05
-3.33436e-05
3.26454e-05
-4.22246e-05
3.59156e-05
-5.18164e-05
3.88118e-05
-6.20361e-05
4.13838e-05
-7.28152e-05
4.36908e-05
-8.41017e-05
4.58018e-05
-9.58632e-05
4.7796e-05
-0.000108089
4.97621e-05
-0.000120794
5.1797e-05
-0.000134017
5.40031e-05
-0.000147824
5.64838e-05
-0.000162308
5.93375e-05
-0.00017758
6.26367e-05
6.64671e-05
-0.000193772
-8.42042e-07
4.29157e-06
-3.17423e-06
1.18762e-05
-6.87434e-06
1.88347e-05
-1.18202e-05
2.51719e-05
-1.7891e-05
3.08997e-05
-2.49692e-05
3.60388e-05
-3.29422e-05
4.06185e-05
-4.17046e-05
4.46779e-05
-5.11596e-05
4.82668e-05
-6.1222e-05
5.14462e-05
-7.18201e-05
5.42888e-05
-8.28983e-05
5.68801e-05
-9.44203e-05
5.9318e-05
-0.000106371
6.1713e-05
-0.00011876
6.41863e-05
-0.000131624
6.68665e-05
-0.000145025
6.98847e-05
-0.000159053
7.33654e-05
-0.000173817
7.74012e-05
8.20993e-05
-0.000189449
-8.29345e-07
5.12092e-06
-3.12746e-06
1.41744e-05
-6.77402e-06
2.24812e-05
-1.1648e-05
3.00458e-05
-1.7629e-05
3.68808e-05
-2.45995e-05
4.30092e-05
-3.2446e-05
4.84649e-05
-4.10613e-05
5.32932e-05
-5.03467e-05
5.75522e-05
-6.02138e-05
6.13133e-05
-7.05871e-05
6.46622e-05
-8.14066e-05
6.76997e-05
-9.26308e-05
7.05421e-05
-0.000104239
7.33213e-05
-0.000116236
7.61828e-05
-0.000128651
7.92819e-05
-0.000141544
8.27781e-05
-0.000155003
8.68239e-05
-0.000169134
9.15328e-05
9.7034e-05
-0.000184069
-8.1442e-07
5.93534e-06
-3.07239e-06
1.64323e-05
-6.65575e-06
2.60646e-05
-1.14447e-05
3.48348e-05
-1.73196e-05
4.27556e-05
-2.41623e-05
4.9852e-05
-3.18585e-05
5.61611e-05
-4.02993e-05
6.1734e-05
-4.9383e-05
6.66359e-05
-5.90178e-05
7.0948e-05
-6.91236e-05
7.4768e-05
-7.9635e-05
7.82111e-05
-9.0504e-05
8.14112e-05
-0.000101704
8.45209e-05
-0.000113231
8.771e-05
-0.00012511
9.11614e-05
-0.000137396
9.50639e-05
-0.000150172
9.96e-05
-0.000163546
0.000104906
0.000111134
-0.000177646
-7.97433e-07
6.73277e-06
-3.00959e-06
1.86445e-05
-6.52063e-06
2.95756e-05
-1.12122e-05
3.95264e-05
-1.69651e-05
4.85085e-05
-2.3661e-05
5.65478e-05
-3.11842e-05
6.36843e-05
-3.94236e-05
6.99734e-05
-4.82747e-05
7.5487e-05
-5.76412e-05
8.03146e-05
-6.74379e-05
8.45647e-05
-7.75929e-05
8.8366e-05
-8.80508e-05
9.18691e-05
-9.87766e-05
9.52466e-05
-0.000109759
9.86926e-05
-0.000121016
0.000102418
-0.000132595
0.000106643
-0.000144576
0.000111581
-0.000157066
0.000117397
0.000124264
-0.000170196
-7.78565e-07
7.51134e-06
-2.93965e-06
2.08056e-05
-6.36991e-06
3.30059e-05
-1.09524e-05
4.4109e-05
-1.65684e-05
5.41245e-05
-2.30992e-05
6.30785e-05
-3.04276e-05
7.10127e-05
-3.84401e-05
7.79859e-05
-4.70286e-05
8.40755e-05
-5.60921e-05
8.93781e-05
-6.55394e-05
9.40119e-05
-7.52911e-05
9.81177e-05
-8.52834e-05
0.000101861
-9.54717e-05
0.000105435
-0.000105835
0.000109056
-0.000116383
0.000112966
-0.000127156
0.000117415
-0.00013823
0.000122656
-0.000149713
0.00012888
0.000136287
-0.000161736
-7.58015e-07
8.26935e-06
-2.86327e-06
2.29108e-05
-6.20494e-06
3.63475e-05
-1.06675e-05
4.85715e-05
-1.61326e-05
5.95896e-05
-2.24809e-05
6.94268e-05
-2.95938e-05
7.81255e-05
-3.73548e-05
8.5747e-05
-4.5652e-05
9.23727e-05
-5.43792e-05
9.81053e-05
-6.3438e-05
0.000103071
-7.27409e-05
0.000107421
-8.22144e-05
0.000111335
-9.1803e-05
0.000115024
-0.000101475
0.000118728
-0.000111228
0.000122719
-0.000121096
0.000127283
-0.000131152
0.000132711
-0.000141502
0.000139229
0.000147068
-0.000152283
-7.35994e-07
9.00534e-06
-2.78115e-06
2.4956e-05
-6.02712e-06
3.95935e-05
-1.03597e-05
5.29042e-05
-1.56609e-05
6.48908e-05
-2.18105e-05
7.55765e-05
-2.86881e-05
8.50031e-05
-3.61743e-05
9.32332e-05
-4.41527e-05
0.000100351
-5.25111e-05
0.000106464
-6.11439e-05
0.000111704
-6.99542e-05
0.000116231
-7.88573e-05
0.000120238
-8.77854e-05
0.000123952
-9.6694e-05
0.000127637
-0.000105569
0.000131594
-0.000114434
0.000136148
-0.000123357
0.000141635
-0.000132448
0.00014832
0.000156471
-0.00014185
-7.12724e-07
9.71807e-06
-2.69404e-06
2.69373e-05
-5.83793e-06
4.27374e-05
-1.00314e-05
5.70976e-05
-1.51566e-05
7.00159e-05
-2.10922e-05
8.15121e-05
-2.77159e-05
9.16267e-05
-3.49049e-05
0.000100422
-4.25381e-05
0.000107984
-5.0497e-05
0.000114423
-5.86676e-05
0.000119874
-6.69426e-05
0.000124506
-7.52252e-05
0.00012852
-8.34336e-05
0.00013216
-9.15083e-05
0.000135712
-9.94208e-05
0.000139506
-0.000107184
0.000143911
-0.000114861
0.000149312
-0.000122564
0.000156024
0.000164356
-0.000130449
-6.88427e-07
1.04065e-05
-2.60269e-06
2.88516e-05
-5.63887e-06
4.57736e-05
-9.68497e-06
6.11437e-05
-1.46229e-05
7.49539e-05
-2.03304e-05
8.72196e-05
-2.66826e-05
9.79789e-05
-3.35532e-05
0.000107293
-4.0816e-05
0.000115247
-4.83455e-05
0.000121952
-5.60188e-05
0.000127547
-6.37175e-05
0.000132205
-7.13309e-05
0.000136134
-7.87616e-05
0.000139591
-8.59329e-05
0.000142883
-9.28e-05
0.000146373
-9.93622e-05
0.000150473
-0.000105677
0.000155626
-0.000111861
0.000162208
0.000170579
-0.000118084
-6.63328e-07
1.10698e-05
-2.50784e-06
3.06961e-05
-5.43142e-06
4.86972e-05
-9.32271e-06
6.5035e-05
-1.40632e-05
7.96944e-05
-1.95293e-05
9.26857e-05
-2.55933e-05
0.000104043
-3.21252e-05
0.000113825
-3.89933e-05
0.000122115
-4.60647e-05
0.000129023
-5.32068e-05
0.00013469
-6.02891e-05
0.000139287
-6.71859e-05
0.000143031
-7.3782e-05
0.000146187
-7.99815e-05
0.000149083
-8.57201e-05
0.000152112
-9.09811e-05
0.000155734
-9.58145e-05
0.00016046
-0.000100344
0.000166737
0.000174991
-0.000104756
-6.37648e-07
1.17075e-05
-2.41024e-06
3.24687e-05
-5.21702e-06
5.15039e-05
-8.9469e-06
6.87649e-05
-1.34807e-05
8.42281e-05
-1.86928e-05
9.78978e-05
-2.44529e-05
0.000109803
-3.06266e-05
0.000119999
-3.70764e-05
0.000128565
-4.36616e-05
0.000135609
-5.02395e-05
0.000141268
-5.66662e-05
0.000145714
-6.27998e-05
0.000149164
-6.85054e-05
0.000151893
-7.36651e-05
0.000154242
-7.8192e-05
0.000156639
-8.20501e-05
0.000159593
-8.52797e-05
0.000163689
-8.80111e-05
0.000169469
0.000177434
-9.04537e-05
-6.116e-07
1.23191e-05
-2.31059e-06
3.41677e-05
-4.99705e-06
5.41904e-05
-8.55967e-06
7.23275e-05
-1.28781e-05
8.85465e-05
-1.78246e-05
0.000102844
-2.32656e-05
0.000115244
-2.90623e-05
0.000125795
-3.50707e-05
0.000134573
-4.11422e-05
0.00014168
-4.71231e-05
0.000147248
-5.28554e-05
0.000151446
-5.81795e-05
0.000154488
-6.2939e-05
0.000156652
-6.6991e-05
0.000158294
-7.02223e-05
0.00015987
-7.25734e-05
0.000161944
-7.40719e-05
0.000165188
-7.48558e-05
0.000170252
0.000177736
-7.51581e-05
-5.85384e-07
1.29045e-05
-2.20955e-06
3.57918e-05
-4.77277e-06
5.67536e-05
-8.16296e-06
7.57177e-05
-1.22581e-05
9.26417e-05
-1.69279e-05
0.000107514
-2.20351e-05
0.000120351
-2.74361e-05
0.000131196
-3.29803e-05
0.000140117
-3.85104e-05
0.00014721
-4.38613e-05
0.000152599
-4.88602e-05
0.000156445
-5.33285e-05
0.000158957
-5.7086e-05
0.00016041
-5.99618e-05
0.00016117
-6.18122e-05
0.00016172
-6.25493e-05
0.000162681
-6.21835e-05
0.000164822
-6.08602e-05
0.000168929
0.000175714
-5.88377e-05
-5.59186e-07
1.34636e-05
-2.10772e-06
3.73404e-05
-4.54533e-06
5.91912e-05
-7.75849e-06
7.89309e-05
-1.16229e-05
9.65061e-05
-1.60053e-05
0.000111896
-2.07642e-05
0.00012511
-2.57507e-05
0.000136183
-3.08075e-05
0.000145174
-3.5768e-05
0.000152171
-4.04552e-05
0.000157286
-4.46808e-05
0.000160671
-4.82456e-05
0.000162521
-5.0944e-05
0.000163108
-5.25736e-05
0.0001628
-5.29557e-05
0.000162102
-5.1968e-05
0.000161693
-4.95982e-05
0.000162452
-4.59973e-05
0.000165328
0.000171165
-4.14485e-05
-5.33174e-07
1.39968e-05
-2.00564e-06
3.88128e-05
-4.31571e-06
6.15013e-05
-7.34767e-06
8.19629e-05
-1.09743e-05
0.000100133
-1.50586e-05
0.000115981
-1.94547e-05
0.000129506
-2.40077e-05
0.000140736
-2.85529e-05
0.000149719
-3.29144e-05
0.000156532
-3.69026e-05
0.000161275
-4.03127e-05
0.000164081
-4.29243e-05
0.000165133
-4.4504e-05
0.000164688
-4.48148e-05
0.000163111
-4.36376e-05
0.000160925
-4.08092e-05
0.000158865
-3.62873e-05
0.00015793
-3.02327e-05
0.000159274
0.000163873
-2.29409e-05
-5.07494e-07
1.45043e-05
-1.90375e-06
4.02091e-05
-4.08472e-06
6.36823e-05
-6.93164e-06
8.48098e-05
-1.03136e-05
0.000103515
-1.40892e-05
0.000119756
-1.81073e-05
0.000133524
-2.22067e-05
0.000144835
-2.62149e-05
0.000153728
-2.99458e-05
0.000160263
-3.3197e-05
0.000164526
-3.57466e-05
0.00016663
-3.73516e-05
0.000166738
-3.77489e-05
0.000165085
-3.6664e-05
0.000162026
-3.38317e-05
0.000158093
-2.90394e-05
0.000154072
-2.22009e-05
0.000151092
-1.34953e-05
0.000150568
0.000153929
-3.55088e-06
-4.82268e-07
1.49866e-05
-1.80242e-06
4.15292e-05
-3.85299e-06
6.57328e-05
-6.51114e-06
8.74679e-05
-9.64139e-06
0.000106645
-1.30972e-05
0.000123212
-1.67214e-05
0.000137149
-2.03458e-05
0.000148459
-2.37893e-05
0.000157171
-2.68554e-05
0.000163329
-2.93278e-05
0.000166998
-3.09672e-05
0.00016827
-3.15068e-05
0.000167278
-3.06524e-05
0.000164231
-2.80886e-05
0.000159462
-2.34988e-05
0.000153503
-1.66118e-05
0.000147185
-7.28108e-06
0.000141761
4.443e-06
0.000138844
0.000140627
1.77449e-05
-4.57594e-07
1.54442e-05
-1.70193e-06
4.27736e-05
-3.6209e-06
6.76518e-05
-6.08656e-06
8.99336e-05
-8.95782e-06
0.000109516
-1.2082e-05
0.000126336
-1.52951e-05
0.000140362
-1.84211e-05
0.000151585
-2.12696e-05
0.00016002
-2.36326e-05
0.000165692
-2.52796e-05
0.000168645
-2.59527e-05
0.000168943
-2.5361e-05
0.000166686
-2.31776e-05
0.000162047
-1.90431e-05
0.000155327
-1.25847e-05
0.000147045
-3.46246e-06
0.000138063
8.526e-06
0.000129773
2.32712e-05
0.000124099
0.000123654
4.02436e-05
-4.33541e-07
1.58777e-05
-1.60242e-06
4.39425e-05
-3.38862e-06
6.9438e-05
-5.65786e-06
9.22028e-05
-8.26232e-06
0.000112121
-1.10421e-05
0.000129116
-1.38253e-05
0.000143145
-1.64269e-05
0.000154187
-1.86463e-05
0.000162239
-2.0263e-05
0.000167309
-2.10316e-05
0.000169414
-2.06747e-05
0.000168586
-1.88762e-05
0.000164887
-1.52754e-05
0.000158446
-9.46702e-06
0.000149519
-1.01656e-06
0.000138594
1.04928e-05
0.000126554
2.53459e-05
0.00011492
4.34842e-05
0.000105961
0.000102817
6.43214e-05
-4.10153e-07
1.62879e-05
-1.50396e-06
4.50363e-05
-3.1561e-06
7.10901e-05
-5.2246e-06
9.42713e-05
-7.55364e-06
0.00011445
-9.97479e-06
0.000131537
-1.2307e-05
0.000145477
-1.43552e-05
0.000156235
-1.59071e-05
0.000163791
-1.67286e-05
0.00016813
-1.65579e-05
0.000169243
-1.50973e-05
0.000167125
-1.20047e-05
0.000161795
-6.88434e-06
0.000153326
7.16302e-07
0.000141918
1.12971e-05
0.000128013
2.53623e-05
0.000112489
4.32965e-05
9.69852e-05
6.51122e-05
8.41449e-05
7.7748e-05
9.01811e-05
-3.87442e-07
1.66753e-05
-1.4065e-06
4.60553e-05
-2.923e-06
7.26066e-05
-4.78587e-06
9.61342e-05
-6.82981e-06
0.000116494
-8.8765e-06
0.000133584
-1.07343e-05
0.000147335
-1.21962e-05
0.000157697
-1.30369e-05
0.000164632
-1.30071e-05
0.000168101
-1.18271e-05
0.000168063
-9.17746e-06
0.000164476
-4.68875e-06
0.000157306
2.0701e-06
0.000146567
1.16004e-05
0.000132388
2.447e-05
0.000115144
4.12772e-05
9.56813e-05
6.25252e-05
7.57373e-05
8.83222e-05
5.83478e-05
4.80467e-05
0.000118024
-3.6539e-07
1.70407e-05
-1.30986e-06
4.69998e-05
-2.68877e-06
7.39855e-05
-4.34032e-06
9.77857e-05
-6.08819e-06
0.000118242
-7.7425e-06
0.000135238
-9.09921e-06
0.000148692
-9.93788e-06
0.000158536
-1.00179e-05
0.000164712
-9.07273e-06
0.000167156
-6.8027e-06
0.000165793
-2.86492e-06
0.000160538
3.13871e-06
0.000151302
1.16756e-05
0.00013803
2.32958e-05
0.000120768
3.86362e-05
9.98034e-05
5.83946e-05
7.59229e-05
8.32079e-05
5.0924e-05
0.00011331
2.82455e-05
1.32803e-05
0.000148077
-3.43951e-07
1.73846e-05
-1.21375e-06
4.78696e-05
-2.45255e-06
7.52243e-05
-3.88612e-06
9.92193e-05
-5.32538e-06
0.000119681
-6.56704e-06
0.00013648
-7.39272e-06
0.000149517
-7.56622e-06
0.000158709
-6.82936e-06
0.000163975
-4.89585e-06
0.000165222
-1.44334e-06
0.000162341
3.89704e-06
0.000155198
1.15539e-05
0.000143645
2.20319e-05
0.000127552
3.59295e-05
0.00010687
5.39518e-05
8.17811e-05
7.68973e-05
5.29774e-05
0.00010555
2.22718e-05
0.000140299
-6.50374e-06
-2.70085e-05
0.000180588
-3.23042e-07
1.77077e-05
-1.11774e-06
4.86643e-05
-2.21323e-06
7.63198e-05
-3.42099e-06
0.000100427
-4.53725e-06
0.000120797
-5.34332e-06
0.000137286
-5.60417e-06
0.000149778
-5.06535e-06
0.000158171
-3.44826e-06
0.000162358
-4.43645e-07
0.000162217
4.29674e-06
0.0001576
1.1171e-05
0.000148323
2.06408e-05
0.000134176
3.32494e-05
0.000114944
4.96432e-05
9.04765e-05
7.0592e-05
6.08323e-05
9.69926e-05
2.65768e-05
0.000129782
-1.05171e-05
0.000169535
-4.62572e-05
-7.32893e-05
0.000215816
-3.02551e-07
1.80102e-05
-1.02131e-06
4.9383e-05
-1.96941e-06
7.72679e-05
-2.94213e-06
0.0001014
-3.71895e-06
0.000121574
-4.06347e-06
0.000137631
-3.72154e-06
0.000149436
-2.41753e-06
0.000156867
1.50905e-07
0.000159789
4.31966e-06
0.000158049
1.04669e-05
0.000151453
1.9024e-05
0.000139766
3.04894e-05
0.00012271
4.54469e-05
9.99862e-05
6.45897e-05
7.13337e-05
8.87479e-05
3.66741e-05
0.000118908
-3.58361e-06
0.000156159
-4.77674e-05
0.000201286
-9.13844e-05
-0.000126027
0.000254024
-2.82325e-07
1.82926e-05
-9.23753e-07
5.00245e-05
-1.7194e-06
7.80636e-05
-2.44625e-06
0.000102127
-2.86482e-06
0.000121992
-2.71858e-06
0.000137484
-1.7314e-06
0.000148449
3.96752e-07
0.000154738
3.99571e-06
0.00015619
9.43237e-06
0.000152612
1.71196e-05
0.000143766
2.75269e-05
0.000129359
4.1194e-05
0.000109043
5.87482e-05
8.2432e-05
8.09291e-05
4.91528e-05
0.00010862
8.98275e-06
0.000142886
-3.78493e-05
0.000184951
-8.98326e-05
0.000235831
-0.000142264
-0.00018566
0.000295464
-2.62175e-07
1.85547e-05
-8.24249e-07
5.05865e-05
-1.4612e-06
7.87005e-05
-1.92952e-06
0.000102595
-1.96845e-06
0.000122031
-1.29864e-06
0.000136814
3.81038e-07
0.000146769
3.39863e-06
0.000151721
8.11566e-06
0.000151473
1.49349e-05
0.000145793
2.43092e-05
0.000134391
3.67523e-05
0.000116916
5.28504e-05
9.29451e-05
7.32784e-05
6.20039e-05
9.88225e-05
2.36087e-05
0.000130413
-2.26079e-05
0.000169173
-7.66089e-05
0.000216436
-0.000137096
0.000273453
-0.000199282
-0.000252567
0.000340361
-2.41872e-07
1.87966e-05
-7.21813e-07
5.10665e-05
-1.19247e-06
7.91712e-05
-1.38759e-06
0.00010279
-1.02262e-06
0.000121666
2.07434e-07
0.000135584
2.63194e-06
0.000144345
6.61089e-06
0.000147742
1.2542e-05
0.000145542
2.08692e-05
0.000137466
3.20916e-05
0.000123169
4.67732e-05
0.000102234
6.55535e-05
7.41648e-05
8.91601e-05
3.83973e-05
0.000118427
-5.65783e-06
0.000154323
-5.85042e-05
0.000198008
-0.000120294
0.000250883
-0.000189971
0.000314424
-0.000262823
-0.000327032
0.000388889
-2.21137e-07
1.90177e-05
-6.15297e-07
5.14607e-05
-9.10535e-07
7.94664e-05
-8.15488e-07
0.000102695
-1.91144e-08
0.00012087
1.81183e-06
0.000133753
5.03885e-06
0.000141118
1.00578e-05
0.000142723
1.73076e-05
0.000138292
2.72788e-05
0.000127494
4.0523e-05
0.000109925
5.76619e-05
8.50954e-05
7.9395e-05
5.24317e-05
0.000106508
1.12838e-05
0.000139886
-3.90353e-05
0.00018053
-9.91482e-05
0.000229611
-0.000169374
0.000288537
-0.000248897
0.000358991
-0.000333277
-0.000409191
0.00044115
-1.99647e-07
1.92174e-05
-5.0338e-07
5.17644e-05
-6.12361e-07
7.95754e-05
-2.07702e-07
0.00010229
1.05062e-06
0.000119612
3.52788e-06
0.000131276
7.6207e-06
0.000137025
1.37653e-05
0.000136578
2.24467e-05
0.000129611
3.4208e-05
0.000115733
4.96599e-05
9.44729e-05
6.94884e-05
6.52669e-05
9.44607e-05
2.74594e-05
0.000125428
-1.96834e-05
0.000163327
-7.69341e-05
0.000209187
-0.000145008
0.000264165
-0.000224353
0.000329606
-0.000314339
0.000407358
-0.000411029
-0.000498979
0.000497147
-1.77024e-07
1.93944e-05
-3.84555e-07
5.19719e-05
-2.94529e-07
7.94854e-05
4.41951e-07
0.000101554
2.1968e-06
0.000117857
5.37014e-06
0.000128103
1.03978e-05
0.000131997
1.77608e-05
0.000129215
2.7995e-05
0.000119377
4.17019e-05
0.000102026
5.95576e-05
7.66173e-05
8.23193e-05
4.25052e-05
0.000110828
-1.04973e-06
0.000146007
-5.48623e-05
0.000188849
-0.000119776
0.000240409
-0.000196568
0.000301806
-0.00028575
0.000374245
-0.000386777
0.000459677
-0.000496462
-0.000596058
0.000556756
-1.52838e-07
1.95473e-05
-2.57127e-07
5.20762e-05
4.68066e-08
7.91814e-05
1.14028e-06
0.00010046
3.43002e-06
0.000115567
7.35429e-06
0.000124179
1.33919e-05
0.00012596
2.20729e-05
0.000120534
3.39893e-05
0.00010746
4.98061e-05
8.62094e-05
7.02704e-05
5.6153e-05
9.62165e-05
1.6559e-05
0.000128566
-3.3399e-05
0.000168317
-9.46131e-05
0.000216523
-0.000167983
0.000274262
-0.000254306
0.0003426
-0.000354088
0.000422535
-0.000466712
0.000516029
-0.000589956
-0.000699759
0.00061973
-1.26597e-07
1.96739e-05
-1.19209e-07
5.20688e-05
4.15714e-07
7.86465e-05
1.89468e-06
9.89815e-05
4.76191e-06
0.0001127
9.49716e-06
0.000119443
1.66261e-05
0.000118831
2.67319e-05
0.000110429
4.04674e-05
9.37249e-05
5.85659e-05
6.81108e-05
8.18503e-05
3.28686e-05
0.000111236
-1.28267e-05
0.000147728
-6.98907e-05
0.000192403
-0.000139288
0.000246379
-0.000221958
0.000310754
-0.000318682
0.000386535
-0.000429869
0.000474473
-0.00055465
0.000576378
-0.000691861
-0.000809148
0.000685767
-9.77593e-08
1.97716e-05
3.13504e-08
5.19397e-05
8.16881e-07
7.7861e-05
2.7132e-06
9.70852e-05
6.20493e-06
0.000109208
1.18166e-05
0.000113832
2.01245e-05
0.000110523
3.17689e-05
9.87841e-05
4.74676e-05
7.80262e-05
6.80263e-05
4.75521e-05
9.43464e-05
6.54853e-06
0.000127427
-4.59069e-05
0.000168355
-0.000110819
0.000218287
-0.00018922
0.000278403
-0.000282074
0.000349831
-0.00039011
0.000433524
-0.000513562
0.000529999
-0.000651124
0.000640492
-0.000802355
-0.000923405
0.00075475
-6.57509e-08
1.98374e-05
1.96495e-07
5.16775e-05
1.25515e-06
7.68023e-05
3.6044e-06
9.47359e-05
7.77233e-06
0.00010504
1.43315e-05
0.000107272
2.39123e-05
0.000100942
3.7216e-05
8.54803e-05
5.50287e-05
6.02136e-05
7.82308e-05
2.435e-05
0.000107804
-2.30244e-05
0.000144828
-8.29309e-05
0.00019047
-0.000156461
0.000245956
-0.000244707
0.000312525
-0.000348643
0.000391346
-0.00046893
0.000483395
-0.000605611
0.000589135
-0.000756864
0.000708293
-0.000921513
-0.00104223
0.000827119
-2.99028e-08
1.98673e-05
3.78977e-07
5.12686e-05
1.73577e-06
7.54455e-05
4.57734e-06
9.18943e-05
9.47796e-06
0.00010014
1.70614e-05
9.9689e-05
2.80154e-05
8.99883e-05
4.31055e-05
7.03902e-05
6.31883e-05
4.01307e-05
8.92205e-05
-1.68214e-06
0.000122261
-5.60652e-05
0.000163467
-0.000124137
0.000214074
-0.000207068
0.000275361
-0.000305994
0.000348606
-0.000421888
0.000435017
-0.000555341
0.000535701
-0.000706296
0.000651626
-0.00087279
0.000781594
-0.00105148
-0.00116504
0.000904406
1.03873e-08
1.98569e-05
5.80994e-07
5.0698e-05
2.26394e-06
7.37626e-05
5.64114e-06
8.85171e-05
1.13358e-05
9.44449e-05
2.0026e-05
9.09988e-05
3.24596e-05
7.75547e-05
4.9469e-05
5.33807e-05
7.1983e-05
1.76168e-05
0.000101033
-3.0732e-05
0.000137752
-9.2784e-05
0.000183361
-0.000169747
0.000239147
-0.000262853
0.000306413
-0.00037326
0.000386434
-0.00050191
0.000480405
-0.000649311
0.000589473
-0.000815364
0.000715079
-0.000998395
0.00086033
-0.00119673
-0.00136623
0.00106152
5.59837e-08
1.98009e-05
8.0559e-07
4.99484e-05
2.84582e-06
7.17224e-05
6.80602e-06
8.45569e-05
1.3361e-05
8.78899e-05
2.32457e-05
8.11141e-05
3.7271e-05
6.35294e-05
5.63376e-05
3.43141e-05
8.14461e-05
-7.49175e-06
0.0001137
-6.29856e-05
0.000154297
-0.000133381
0.000204508
-0.000219959
0.000265643
-0.000323988
0.00033899
-0.000446607
0.000425755
-0.000588675
0.000527009
-0.000750566
0.00064372
-0.000932075
0.000777288
-0.00113196
0.00092922
-0.00134866
-0.00155312
0.0011161
1.07571e-07
1.96933e-05
1.05524e-06
4.90007e-05
3.48684e-06
6.92908e-05
8.08135e-06
7.99624e-05
1.55676e-05
8.04037e-05
2.67399e-05
6.99418e-05
4.24739e-05
4.77954e-05
6.37395e-05
1.30486e-05
9.16071e-05
-3.53594e-05
0.000127246
-9.86243e-05
0.000171907
-0.000178042
0.000226891
-0.000274943
0.000293496
-0.000390592
0.000372942
-0.000526053
0.000466293
-0.000682026
0.00057438
-0.000858652
0.00069776
-0.00105546
0.000837146
-0.00127135
0.000992275
-0.00150379
-0.00173216
0.00117132
1.65883e-07
1.95274e-05
1.33265e-06
4.78339e-05
4.19269e-06
6.64307e-05
9.47667e-06
7.46784e-05
1.79696e-05
7.19107e-05
3.05273e-05
5.73842e-05
4.80912e-05
3.02315e-05
7.16996e-05
-1.05598e-05
0.000102489
-6.61491e-05
0.000141686
-0.000137821
0.000190579
-0.000226934
0.00025047
-0.000334834
0.000322607
-0.000462729
0.000408088
-0.000611534
0.000507756
-0.000781694
0.000622099
-0.000972995
0.000751141
-0.0011845
0.000894732
-0.00141494
0.00105145
-0.00166051
-0.00190518
0.00122446
2.31666e-07
1.92958e-05
1.64047e-06
4.64251e-05
4.9689e-06
6.31023e-05
1.10011e-05
6.86462e-05
2.05804e-05
6.23315e-05
3.4625e-05
4.33396e-05
5.41429e-05
1.07136e-05
8.02383e-05
-3.66552e-05
0.000114108
-0.000100019
0.000157024
-0.000180737
0.00021029
-0.0002802
0.00027518
-0.000399724
0.000352848
-0.000540396
0.000444209
-0.000702896
0.000549815
-0.0008873
0.000669733
-0.00109291
0.000803398
-0.00131816
0.000949797
-0.00156134
0.00110664
-0.00181735
-0.00207285
0.00127432
3.05646e-07
1.98127e-06
4.47495e-05
5.82076e-06
5.92628e-05
1.26634e-05
6.18036e-05
2.34119e-05
5.1583e-05
3.90481e-05
2.77033e-05
6.06453e-05
-1.08836e-05
8.937e-05
-6.53799e-05
0.000126471
-0.00013712
0.000173248
-0.000227514
0.000230998
-0.00033795
0.000300929
-0.000469656
0.000384053
-0.00062352
0.000481045
-0.000799888
0.000592101
-0.000998356
0.000716809
-0.00121762
0.000854001
-0.00145535
0.00100187
-0.00170921
0.00115749
-0.00197298
-0.00223511
0.00131976
2.35745e-06
6.75315e-06
5.48671e-05
1.44712e-05
5.40855e-05
2.64747e-05
3.95795e-05
4.38092e-05
1.03688e-05
6.76105e-05
-3.46849e-05
9.91018e-05
-9.68711e-05
0.000139572
-0.00017759
0.00019033
-0.000278272
0.000252636
-0.000400256
0.000327594
-0.000544614
0.000416021
-0.000711947
0.000518294
-0.000902161
0.000634201
-0.00111426
0.000762814
-0.00134623
0.000902383
-0.00159492
0.00105041
-0.00185724
0.00120353
-0.0021261
-0.00239148
0.00135989
7.77048e-06
1.64313e-05
4.54247e-05
2.97777e-05
2.62331e-05
4.89173e-05
-8.77075e-06
7.50452e-05
-6.08128e-05
0.000109432
-0.000131258
0.000153393
-0.00022155
0.000208224
-0.000333103
0.000275113
-0.000467145
0.000355017
-0.000624517
0.000448506
-0.000805437
0.00055561
-0.00100926
0.000675662
-0.00123431
0.00080721
-0.00147778
0.000947959
-0.00173567
0.00109486
-0.00200413
0.0012443
-0.00227554
-0.00254126
0.00139407
1.85493e-05
3.57519e-05
3.33272e-05
1.14552e-05
5.43779e-05
-2.98214e-05
8.29497e-05
-8.93847e-05
0.000120351
-0.00016866
0.000167903
-0.000269103
0.000226863
-0.000392063
0.000298311
-0.000538593
0.000383008
-0.000709214
0.000481231
-0.00090366
0.000592612
-0.00112065
0.000716008
-0.00135771
0.000849449
-0.00161122
0.000990167
-0.00187639
0.00113471
-0.00214867
0.00127937
-0.0024202
-0.00268377
0.00142188
2.08294e-05
3.71274e-05
-4.84283e-06
6.01921e-05
-5.28861e-05
9.1318e-05
-0.000120511
0.000131837
-0.000209179
0.000183056
-0.000320322
0.000246161
-0.000455168
0.000322086
-0.000614517
0.000411348
-0.000798476
0.000513884
-0.0010062
0.000628895
-0.00123566
0.000754751
-0.00148357
0.000889
-0.00174547
0.00102849
-0.00201588
0.00116952
-0.0022897
0.00130846
-0.00255915
-0.00281843
0.00144313
4.11792e-05
6.63565e-05
-7.80635e-05
0.000100136
-0.00015429
0.000143857
-0.0002529
0.000198789
-0.000375253
0.00026601
-0.00052239
0.000346266
-0.000694773
0.000439788
-0.000891998
0.000546129
-0.00111254
0.000664037
-0.00135356
0.000791409
-0.00161094
0.000925368
-0.00187943
0.00106248
-0.00215299
0.00119896
-0.00242618
0.00133141
-0.00269159
-0.00294486
0.00145783
7.28626e-05
0.000109383
-0.000190811
0.000156369
-0.000299886
0.000215023
-0.000433906
0.000286283
-0.00059365
0.000370659
-0.00077915
0.000468056
-0.000989395
0.000577612
-0.00122209
0.000697616
-0.00147357
0.000825523
-0.00173885
0.000958113
-0.00201202
0.00109179
-0.00228666
0.00122284
-0.00255723
0.00134818
-0.00281693
-0.00306281
0.00146614
0.000119029
0.000169317
-0.000350174
0.000231665
-0.000496254
0.000306831
-0.000668817
0.000395052
-0.000867371
0.000495864
-0.00109021
0.000607975
-0.0013342
0.000729224
-0.00159482
0.000856679
-0.0018663
0.000986871
-0.00214221
0.00111617
-0.00241596
0.00124106
-0.00268213
0.0013589
-0.00293477
-0.00317228
0.00146836
0.000182635
0.000248607
-0.000562226
0.000327492
-0.000747702
0.000419214
-0.000959092
0.000522914
-0.00119391
0.00063686
-0.00144815
0.000758477
-0.00171643
0.000884514
-0.00199234
0.00101137
-0.00226906
0.00113548
-0.00254007
0.00125368
-0.00280032
0.00136378
-0.00304487
-0.0032734
0.0014649
0.000265726
0.000348088
-0.000830064
0.000442905
-0.00105391
0.000548905
-0.00129991
0.000663929
-0.00156318
0.000785033
-0.00183754
0.000908738
-0.00211604
0.00103141
-0.00239174
0.0011497
-0.00265836
0.00126083
-0.00291146
0.00136317
-0.00314721
-0.00336645
0.00145622
0.00036843
0.000465878
-0.00115136
0.000573544
-0.00140757
0.000688868
-0.0016785
0.0008086
-0.00195727
0.000929131
-0.00223658
0.00104691
-0.00250952
0.00115889
-0.00277034
0.00126277
-0.00301534
0.00135744
-0.00324188
-0.00345185
0.00144283
0.000487889
0.000596553
-0.00151624
0.000711396
-0.00179334
0.000828943
-0.00207482
0.000945556
-0.00235319
0.00105787
-0.00262183
0.00116321
-0.00287568
0.0012598
-0.00311193
0.00134704
-0.00332912
-0.00353004
0.00142524
0.000617675
0.000731277
0.000845891
-0.00218943
0.00095795
-0.00246525
0.00106437
-0.00272825
0.0011629
-0.00297421
0.00125229
-0.00320132
0.00133243
-0.00340925
-0.00360156
0.00140395
0.000859338
0.000966326
-0.00257223
0.00106655
-0.00282848
0.00115824
-0.0030659
0.00124064
-0.00328372
0.00131407
-0.00348268
-0.00366694
0.00137945
0.000970763
0.00106463
-0.00292235
0.00114956
-0.00315083
0.00122526
-0.00335942
0.00129242
-0.00354984
-0.00372671
0.00135219
0.00105887
0.0011372
0.00120656
-0.00342877
0.00126791
-0.00361119
-0.00378139
0.00132259
0.00118493
0.00124094
-0.00366721
-0.00383145
0.00129101
0.00121189
0.00125778
0.00121192
0.00366713
0.00383138
0.00125781
0.00118495
0.00342868
0.00124098
0.0036111
0.00378131
0.00129104
0.00105888
0.00292224
0.00113722
0.00315072
0.00120658
0.00335932
0.00126794
0.00354974
0.00372663
0.00132262
0.000970764
0.00257211
0.00106464
0.00282836
0.00114957
0.00306579
0.00122528
0.00328361
0.00129245
0.00348258
0.00366685
0.00135223
0.000748312
0.00190682
0.000859331
0.00218931
0.000966324
0.00246512
0.00106656
0.00272813
0.00115825
0.00297409
0.00124066
0.0032012
0.00131409
0.00340915
0.00360146
0.00137948
0.000617659
0.00151612
0.000731263
0.00179322
0.000845881
0.00207469
0.000957944
0.00235306
0.00106437
0.0026217
0.00116291
0.00287555
0.00125231
0.0031118
0.00133245
0.00332901
0.00352993
0.00140398
0.000487871
0.00115125
0.000596535
0.00140746
0.000711379
0.00167838
0.000828929
0.00195714
0.000945546
0.00223644
0.00105787
0.00250938
0.00116322
0.0027702
0.00125981
0.00301521
0.00134706
0.00324176
0.00345173
0.00142526
0.000368412
0.000829976
0.000465859
0.00105381
0.000573524
0.00129979
0.000688848
0.00156305
0.000808582
0.0018374
0.000929118
0.00211591
0.0010469
0.00239159
0.00115889
0.00265822
0.00126278
0.00291132
0.00135746
0.00314708
0.00336633
0.00144286
0.00026571
0.000562154
0.00034807
0.000747617
0.000442884
0.000958994
0.000548883
0.00119379
0.000663907
0.00144803
0.000785012
0.0017163
0.00090872
0.0019922
0.0010314
0.00226892
0.00114969
0.00253993
0.00126083
0.00280018
0.00136318
0.00304473
0.00327326
0.00145625
0.000182621
0.000350118
0.00024859
0.000496185
0.000327473
0.000668735
0.000419192
0.000867275
0.000522889
0.0010901
0.000636835
0.00133408
0.000758452
0.00159468
0.000884493
0.00186616
0.00101135
0.00214206
0.00113547
0.00241581
0.00125367
0.00268197
0.00136379
0.00293461
0.00317213
0.00146492
0.000119018
0.000190768
0.000169303
0.000299833
0.000231647
0.000433841
0.00030681
0.000593572
0.000395028
0.000779057
0.000495838
0.000989287
0.000607947
0.00122197
0.000729196
0.00147343
0.000856653
0.0017387
0.00098685
0.00201187
0.00111615
0.0022865
0.00124105
0.00255707
0.0013589
0.00281677
0.00306265
0.00146837
7.28541e-05
7.80333e-05
0.000109372
0.000154251
0.000156355