/*--------------------------------*- C++ -*----------------------------------*\
  =========                 |
  \\      /  F ield         | OpenFOAM: The Open Source CFD Toolbox
   \\    /   O peration     | Website:  https://openfoam.org
    \\  /    A nd           | Version:  7
     \\/     M anipulation  |
\*---------------------------------------------------------------------------*/
FoamFile
{
    version     2.0;
    format      ascii;
    class       volScalarField;
    location    "95";
    object      p;
}
// * * * * * * * * * * * * * * * * * * * * * * * * * * * * * * * * * * * * * //

dimensions      [0 2 -2 0 0 0 0];

internalField   nonuniform List<scalar> 
8500
(
-0.469866
-0.472985
-0.470694
-0.476228
-0.473765
-0.471504
-0.479609
-0.47696
-0.474526
-0.483138
-0.480288
-0.477675
-0.474778
-0.486827
-0.483758
-0.480959
-0.47786
-0.474557
-0.490681
-0.487377
-0.484386
-0.481081
-0.477555
-0.473917
-0.494707
-0.491151
-0.487961
-0.484445
-0.480694
-0.476811
-0.472805
-0.498907
-0.495083
-0.491688
-0.487958
-0.483977
-0.479845
-0.475556
-0.471048
-0.503283
-0.499175
-0.495568
-0.491619
-0.487405
-0.483017
-0.478435
-0.473581
-0.468312
-0.507833
-0.503427
-0.499602
-0.49543
-0.490978
-0.486326
-0.481438
-0.476218
-0.470509
-0.464106
-0.512555
-0.507837
-0.503788
-0.49939
-0.494693
-0.489769
-0.48456
-0.478951
-0.472771
-0.465808
-0.457849
-0.517442
-0.5124
-0.508123
-0.503494
-0.498547
-0.493339
-0.487791
-0.481768
-0.475084
-0.467525
-0.458888
-0.449022
-0.437859
-0.522488
-0.517112
-0.512603
-0.507738
-0.502533
-0.497029
-0.491122
-0.484656
-0.477433
-0.469239
-0.459888
-0.449261
-0.437333
-0.424179
-0.527683
-0.521964
-0.517219
-0.512115
-0.506645
-0.500828
-0.494539
-0.487599
-0.479799
-0.470931
-0.46083
-0.449416
-0.436711
-0.422835
-0.407984
-0.533015
-0.526946
-0.521964
-0.516616
-0.510871
-0.504726
-0.498027
-0.490578
-0.482162
-0.472579
-0.461695
-0.449472
-0.43598
-0.421385
-0.405916
-0.389829
-0.373358
-0.53847
-0.532047
-0.526826
-0.52123
-0.515199
-0.508706
-0.50157
-0.493574
-0.484499
-0.474163
-0.462464
-0.449412
-0.435128
-0.41982
-0.403747
-0.387176
-0.370342
-0.353495
-0.544033
-0.537253
-0.531793
-0.525944
-0.519614
-0.512752
-0.505146
-0.496564
-0.486788
-0.475658
-0.463115
-0.449219
-0.434142
-0.418132
-0.40147
-0.384433
-0.367252
-0.350155
-0.333094
-0.316987
-0.549685
-0.542548
-0.536848
-0.530742
-0.5241
-0.516844
-0.508734
-0.499524
-0.489003
-0.477042
-0.463629
-0.448877
-0.433009
-0.416309
-0.399077
-0.381592
-0.36408
-0.346745
-0.329549
-0.313318
-0.555406
-0.547912
-0.541974
-0.535605
-0.528637
-0.52096
-0.512308
-0.502426
-0.491118
-0.478291
-0.463985
-0.44837
-0.431717
-0.414341
-0.396558
-0.378644
-0.360815
-0.343253
-0.325928
-0.309576
-0.561172
-0.553326
-0.54715
-0.540512
-0.533201
-0.525074
-0.515841
-0.505243
-0.493106
-0.47938
-0.464162
-0.447682
-0.430253
-0.412219
-0.393905
-0.37558
-0.357449
-0.33967
-0.322221
-0.305751
-0.566959
-0.558766
-0.552355
-0.545441
-0.537767
-0.529159
-0.519304
-0.507945
-0.494938
-0.480284
-0.464142
-0.446796
-0.428604
-0.409932
-0.391106
-0.37239
-0.353972
-0.335987
-0.318419
-0.301834
-0.572739
-0.564207
-0.557562
-0.550365
-0.542308
-0.533186
-0.522666
-0.510502
-0.496587
-0.48098
-0.463903
-0.445698
-0.426759
-0.407468
-0.388154
-0.369065
-0.350374
-0.332193
-0.314512
-0.297816
-0.578482
-0.56962
-0.562744
-0.555256
-0.546794
-0.537121
-0.525893
-0.512881
-0.498023
-0.481442
-0.463426
-0.444372
-0.424704
-0.404818
-0.385036
-0.365593
-0.346644
-0.328279
-0.31049
-0.293687
-0.584156
-0.574975
-0.567872
-0.560082
-0.551191
-0.540932
-0.528952
-0.515049
-0.499217
-0.481646
-0.462693
-0.442802
-0.422427
-0.40197
-0.381743
-0.361965
-0.342772
-0.324233
-0.306343
-0.289438
-0.589726
-0.580241
-0.572912
-0.56481
-0.555464
-0.54458
-0.531806
-0.516975
-0.500141
-0.48157
-0.461684
-0.440974
-0.419916
-0.398912
-0.378264
-0.35817
-0.338748
-0.320047
-0.302064
-0.285062
-0.595156
-0.585382
-0.57783
-0.569405
-0.559576
-0.54803
-0.53442
-0.518623
-0.500766
-0.48119
-0.460382
-0.438874
-0.417159
-0.395635
-0.374587
-0.354197
-0.334561
-0.31571
-0.297642
-0.28055
-0.600409
-0.590361
-0.582589
-0.573827
-0.563489
-0.551242
-0.536755
-0.519962
-0.501065
-0.480485
-0.458769
-0.436487
-0.414142
-0.392125
-0.370703
-0.350036
-0.330201
-0.311213
-0.293069
-0.275894
-0.605443
-0.595141
-0.58715
-0.578039
-0.567162
-0.554176
-0.538776
-0.520959
-0.501011
-0.479432
-0.456828
-0.4338
-0.410855
-0.388373
-0.366601
-0.345677
-0.32566
-0.306547
-0.288336
-0.271087
-0.610218
-0.599681
-0.591474
-0.581998
-0.570554
-0.556791
-0.540444
-0.521581
-0.500577
-0.478011
-0.454543
-0.430799
-0.407285
-0.384366
-0.362269
-0.341108
-0.320925
-0.301702
-0.283436
-0.266121
-0.61469
-0.603939
-0.595517
-0.585661
-0.573621
-0.559048
-0.541723
-0.521798
-0.499739
-0.476202
-0.451898
-0.42747
-0.40342
-0.380095
-0.357697
-0.336322
-0.31599
-0.296671
-0.278359
-0.26099
-0.618816
-0.607873
-0.599238
-0.588986
-0.576321
-0.560905
-0.542577
-0.521579
-0.498471
-0.473987
-0.448878
-0.423801
-0.39925
-0.375548
-0.352876
-0.331306
-0.310843
-0.291444
-0.2731
-0.255686
-0.622551
-0.61144
-0.602591
-0.591928
-0.57861
-0.562322
-0.54297
-0.520895
-0.496753
-0.471347
-0.445469
-0.419781
-0.394762
-0.370715
-0.347795
-0.326053
-0.305478
-0.286014
-0.26765
-0.250205
-0.62585
-0.614594
-0.605533
-0.594442
-0.580446
-0.56326
-0.54287
-0.519719
-0.49456
-0.468266
-0.441656
-0.415396
-0.389947
-0.365586
-0.342444
-0.320554
-0.299885
-0.280374
-0.262003
-0.244539
-0.628669
-0.617292
-0.60802
-0.596485
-0.581786
-0.56368
-0.542242
-0.518024
-0.491875
-0.464727
-0.437428
-0.410636
-0.384793
-0.360151
-0.336815
-0.314799
-0.294056
-0.274517
-0.256154
-0.238685
-0.630962
-0.619488
-0.610004
-0.598011
-0.582589
-0.563546
-0.541057
-0.515787
-0.488677
-0.460717
-0.432771
-0.40549
-0.379292
-0.354401
-0.330899
-0.308781
-0.287986
-0.268436
-0.250095
-0.232637
-0.632684
-0.621139
-0.611443
-0.598978
-0.582813
-0.562821
-0.539285
-0.512984
-0.484949
-0.456221
-0.427675
-0.399948
-0.373433
-0.348327
-0.324689
-0.302493
-0.281666
-0.262126
-0.243823
-0.226391
-0.633792
-0.622201
-0.612293
-0.599343
-0.582421
-0.561473
-0.536899
-0.509594
-0.480676
-0.451226
-0.422129
-0.394001
-0.367209
-0.341922
-0.318175
-0.295927
-0.275092
-0.25558
-0.237333
-0.219943
-0.634243
-0.62263
-0.612512
-0.599066
-0.581374
-0.55947
-0.533874
-0.505599
-0.475842
-0.445723
-0.416123
-0.387641
-0.360611
-0.335178
-0.311353
-0.289079
-0.268257
-0.248795
-0.23062
-0.213291
-0.633995
-0.622387
-0.612058
-0.598107
-0.579639
-0.556783
-0.530188
-0.500981
-0.470436
-0.4397
-0.40965
-0.380859
-0.353633
-0.328088
-0.304215
-0.281941
-0.261156
-0.241766
-0.223681
-0.20643
-0.633011
-0.621432
-0.610893
-0.59643
-0.577183
-0.553386
-0.52582
-0.495726
-0.464445
-0.433149
-0.402702
-0.37365
-0.346269
-0.320647
-0.296757
-0.27451
-0.253787
-0.23449
-0.216514
-0.199358
-0.631251
-0.619725
-0.608979
-0.593999
-0.573974
-0.549253
-0.520752
-0.48982
-0.457861
-0.426062
-0.395272
-0.366006
-0.338512
-0.31285
-0.288973
-0.266782
-0.246144
-0.226963
-0.209115
-0.192075
-0.628681
-0.617233
-0.60628
-0.590783
-0.569988
-0.544365
-0.514968
-0.483252
-0.450676
-0.418433
-0.387355
-0.357925
-0.330358
-0.304692
-0.280861
-0.258752
-0.238226
-0.219183
-0.201483
-0.184583
-0.625268
-0.613921
-0.602766
-0.586753
-0.565198
-0.538702
-0.508456
-0.476014
-0.442882
-0.410257
-0.378946
-0.349401
-0.321805
-0.296171
-0.272418
-0.25042
-0.23003
-0.211148
-0.193616
-0.17688
-0.620982
-0.609759
-0.598407
-0.581881
-0.559583
-0.532248
-0.501204
-0.468098
-0.434476
-0.401531
-0.370044
-0.340432
-0.312848
-0.287284
-0.263641
-0.241783
-0.221554
-0.202857
-0.185512
-0.168944
-0.615796
-0.60472
-0.593175
-0.576146
-0.553126
-0.524991
-0.493204
-0.4595
-0.425455
-0.392253
-0.360646
-0.331016
-0.303488
-0.27803
-0.25453
-0.23284
-0.2128
-0.194312
-0.177171
-0.160749
-0.609686
-0.598778
-0.587048
-0.569526
-0.545811
-0.516922
-0.484452
-0.450217
-0.415817
-0.382422
-0.350752
-0.321154
-0.293724
-0.268409
-0.245085
-0.223593
-0.203768
-0.185514
-0.168598
-0.152332
-0.602632
-0.591914
-0.580006
-0.562006
-0.537626
-0.508032
-0.474943
-0.440247
-0.405562
-0.37204
-0.340363
-0.310845
-0.283556
-0.258422
-0.235306
-0.214042
-0.194458
-0.176463
-0.159782
-0.143772
-0.594615
-0.584107
-0.572032
-0.553572
-0.528563
-0.498318
-0.464677
-0.429594
-0.394694
-0.361107
-0.32948
-0.300093
-0.272986
-0.24807
-0.225196
-0.204189
-0.184875
-0.167162
-0.150737
-0.135012
-0.585623
-0.575345
-0.563113
-0.544215
-0.518617
-0.487778
-0.453657
-0.418259
-0.383216
-0.349629
-0.318108
-0.288899
-0.262017
-0.237356
-0.214757
-0.194037
-0.17502
-0.157614
-0.14147
-0.126043
-0.575645
-0.565616
-0.553241
-0.533929
-0.507786
-0.476416
-0.441885
-0.406249
-0.371134
-0.337611
-0.306252
-0.277269
-0.250654
-0.226285
-0.203994
-0.183591
-0.164897
-0.147822
-0.131982
-0.116868
-0.564674
-0.554913
-0.542408
-0.522711
-0.496072
-0.464234
-0.429369
-0.39357
-0.358454
-0.325058
-0.293916
-0.265207
-0.238901
-0.214862
-0.192911
-0.172854
-0.15451
-0.13779
-0.122276
-0.107493
-0.552707
-0.543232
-0.530614
-0.510563
-0.483478
-0.451241
-0.416118
-0.380232
-0.345186
-0.31198
-0.281109
-0.252721
-0.226767
-0.203092
-0.181514
-0.161832
-0.143865
-0.127525
-0.112357
-0.0979223
-0.539746
-0.530574
-0.517859
-0.497489
-0.470012
-0.437447
-0.402142
-0.366246
-0.331341
-0.298387
-0.26784
-0.239821
-0.214256
-0.190983
-0.169809
-0.150532
-0.132968
-0.117031
-0.102229
-0.0881629
-0.525794
-0.516942
-0.50415
-0.483496
-0.455686
-0.422864
-0.387456
-0.351626
-0.31693
-0.284288
-0.254119
-0.226513
-0.201379
-0.178543
-0.157806
-0.13896
-0.121826
-0.106315
-0.0918984
-0.0782209
-0.51086
-0.502343
-0.489494
-0.468597
-0.440512
-0.407507
-0.372074
-0.336385
-0.301967
-0.269698
-0.239958
-0.21281
-0.188145
-0.165781
-0.145511
-0.127126
-0.110447
-0.0953843
-0.0813729
-0.0681031
-0.494955
-0.486788
-0.473904
-0.452806
-0.424508
-0.391394
-0.356014
-0.320542
-0.286467
-0.254629
-0.225368
-0.198722
-0.174566
-0.152707
-0.132936
-0.115039
-0.0988384
-0.0842473
-0.0706599
-0.0578171
-0.478094
-0.470293
-0.457396
-0.43614
-0.407692
-0.374544
-0.339298
-0.304116
-0.270447
-0.239097
-0.210365
-0.184264
-0.160653
-0.139333
-0.12009
-0.102708
-0.087011
-0.0729128
-0.0597679
-0.0473708
-0.460296
-0.452873
-0.43999
-0.418621
-0.390087
-0.35698
-0.321945
-0.287122
-0.253927
-0.223119
-0.194963
-0.169448
-0.14642
-0.125672
-0.106985
-0.0901441
-0.0749747
-0.0613902
-0.0487062
-0.036773
-0.441583
-0.434552
-0.421706
-0.400272
-0.371718
-0.338734
-0.303969
-0.269583
-0.236925
-0.206712
-0.179179
-0.15429
-0.131881
-0.111735
-0.0936346
-0.0773596
-0.0627407
-0.0496902
-0.0374846
-0.0260331
-0.42198
-0.415353
-0.40257
-0.381119
-0.352617
-0.319843
-0.285388
-0.251521
-0.219462
-0.189896
-0.16303
-0.138807
-0.11705
-0.0975384
-0.0800507
-0.0643668
-0.0503207
-0.037824
-0.026114
-0.0151613
-0.401514
-0.395303
-0.382611
-0.361193
-0.332806
-0.300274
-0.266283
-0.232965
-0.20156
-0.172692
-0.146535
-0.123015
-0.101943
-0.0830959
-0.066248
-0.0511791
-0.0377276
-0.0258034
-0.014606
-0.00416889
-0.380216
-0.374434
-0.361859
-0.340526
-0.312314
-0.28011
-0.246635
-0.21394
-0.183243
-0.15512
-0.129714
-0.106933
-0.0865788
-0.0684236
-0.0522412
-0.0378106
-0.0249747
-0.0136412
-0.00297278
0.00693194
-0.358119
-0.352777
-0.340349
-0.319154
-0.291172
-0.259381
-0.226479
-0.194472
-0.164536
-0.137203
-0.112587
-0.0905794
-0.0709734
-0.0535381
-0.0380458
-0.0242761
-0.0120763
-0.00135095
0.0087723
0.0181274
-0.33526
-0.330372
-0.31812
-0.297094
-0.269429
-0.238113
-0.205848
-0.17459
-0.145465
-0.118965
-0.0951768
-0.0739745
-0.0551457
-0.0384564
-0.023678
-0.0105908
0.000952904
0.0110534
0.0206152
-0.311675
-0.307256
-0.295215
-0.274388
-0.247114
-0.216342
-0.184776
-0.154322
-0.126057
-0.100431
-0.0775047
-0.057139
-0.0391148
-0.0231963
-0.00915441
0.00322939
0.0140976
0.0235572
-0.287404
-0.283468
-0.271638
-0.251116
-0.224267
-0.194103
-0.163297
-0.1337
-0.106339
-0.0816254
-0.0595944
-0.0400942
-0.0229005
-0.00777608
0.00550805
0.0171684
0.0273421
-0.262482
-0.259061
-0.247468
-0.227288
-0.200929
-0.171435
-0.141444
-0.112755
-0.086341
-0.0625751
-0.04147
-0.0228623
-0.00652307
0.00778556
0.0202921
0.0312099
-0.236948
-0.23409
-0.222751
-0.202949
-0.177141
-0.148376
-0.119255
-0.0915196
-0.0660918
-0.0433069
-0.0231563
-0.00546593
0.00999665
0.0234696
0.0351804
0.0453378
-0.210903
-0.208563
-0.197527
-0.178148
-0.152946
-0.124965
-0.0967656
-0.0700276
-0.0456221
-0.023849
-0.00467889
0.0120714
0.0266373
0.0392565
0.0501553
-0.184398
-0.182519
-0.171842
-0.15293
-0.128387
-0.101245
-0.0740133
-0.0483129
-0.0249632
-0.00422964
0.0139361
0.0297259
0.043377
0.0551268
-0.15744
-0.156041
-0.145745
-0.127343
-0.10351
-0.0772558
-0.0510364
-0.0264105
-0.00414699
0.0155218
0.032662
0.0474729
0.0601935
0.0710605
-0.130082
-0.129181
-0.119287
-0.101435
-0.0783607
-0.0530405
-0.0278737
-0.00435586
0.0167941
0.0353756
0.0514715
0.0652875
0.0770639
-0.102384
-0.101989
-0.0925179
-0.0752572
-0.0529852
-0.0286419
-0.00456475
0.0178149
0.0378271
0.0553016
0.0703366
0.0831439
0.0939647
-0.0744008
-0.0745198
-0.0654919
-0.0488586
-0.0274309
-0.00410378
0.0188506
0.0400654
0.0589186
0.075269
0.0892292
0.101016
-0.046187
-0.0468245
-0.0382611
-0.0222901
-0.00174524
0.0205301
0.0423321
0.0623586
0.0800346
0.0952466
0.10812
-0.0177996
-0.0189588
-0.0108798
0.00439685
0.0240237
0.0452155
0.065839
0.0846573
0.101141
0.115203
0.126981
0.0107043
0.00902136
0.0165977
0.0311505
0.0498277
0.0699077
0.0893307
0.106924
0.122204
0.135107
0.0392676
0.0370601
0.0441168
0.0579189
0.0756184
0.0945624
0.112766
0.129122
0.143188
0.154926
0.0678328
0.0651011
0.0716229
0.0846502
0.101347
0.119135
0.136105
0.151213
0.16406
0.174629
0.0963426
0.093088
0.099061
0.111293
0.126966
0.143581
0.159306
0.17316
0.184785
0.12474
0.120964
0.126377
0.137794
0.152427
0.167856
0.182328
0.194926
0.205328
0.152966
0.148674
0.153515
0.164104
0.177683
0.191916
0.205132
0.216473
0.180966
0.17616
0.180423
0.19017
0.202685
0.215718
0.227678
0.237766
0.208683
0.203369
0.207046
0.215943
0.227387
0.239218
0.249925
0.23606
0.230244
0.233332
0.241373
0.251743
0.262375
0.271835
0.263043
0.256732
0.259229
0.266409
0.275707
0.285146
0.29337
0.289577
0.282779
0.284684
0.291006
0.299234
0.307489
0.315609
0.308333
0.309648
0.315113
0.322282
0.329366
0.341086
0.333342
0.334071
0.338687
0.344806
0.350735
0.365958
0.357756
0.357905
0.36168
0.366765
0.390175
0.381527
0.381104
0.384049
0.388118
0.413687
0.404606
0.40362
0.405752
0.408826
0.436448
0.426948
0.425411
0.426747
0.42885
0.458413
0.448507
0.446433
0.446993
0.479537
0.469241
0.466645
0.466452
0.499779
0.489108
0.486007
0.485087
0.519097
0.508069
0.504483
0.502864
0.537454
0.526086
0.522035
0.519747
0.554813
0.543123
0.538629
0.571139
0.559147
0.554234
0.586401
0.574125
0.568819
0.600567
0.588028
0.582354
0.61361
0.600829
0.594816
0.625504
0.612502
0.606178
0.636225
0.623024
0.616419
0.645753
0.632374
0.62552
0.654068
0.640535
0.633463
0.661153
0.647489
0.666996
0.653224
0.671585
0.657727
0.674909
0.660991
0.676964
0.663008
0.677745
0.663775
0.67725
0.66329
0.67548
0.661555
0.672439
0.658573
0.668134
0.654349
0.662572
0.648893
0.655765
0.642214
0.647726
0.634327
0.627505
0.638471
0.625247
0.618679
0.628019
0.614991
0.60871
0.616391
0.603581
0.597616
0.603609
0.59104
0.585419
0.589699
0.577391
0.572143
0.574689
0.562662
0.557814
0.558609
0.546883
0.542461
0.541492
0.530086
0.526112
0.52337
0.512303
0.508802
0.507358
0.504282
0.493571
0.490562
0.489831
0.484265
0.473927
0.47143
0.47144
0.463359
0.453411
0.451443
0.452221
0.441607
0.432063
0.430641
0.432209
0.419052
0.409928
0.409065
0.411444
0.41484
0.395741
0.38705
0.386757
0.389966
0.394377
0.371719
0.363474
0.363763
0.367817
0.373265
0.347037
0.33925
0.340127
0.345038
0.351542
0.357882
0.321744
0.314425
0.315898
0.321676
0.32925
0.336768
0.295891
0.289052
0.291124
0.297775
0.306431
0.315144
0.269532
0.263181
0.265854
0.273382
0.283128
0.293049
0.24272
0.236865
0.24014
0.248544
0.259386
0.270524
0.280471
0.21551
0.210159
0.214033
0.223311
0.235249
0.247612
0.258828
0.187957
0.183117
0.187586
0.197732
0.210764
0.224353
0.236847
0.160119
0.155795
0.160852
0.171858
0.185977
0.200792
0.214567
0.22641
0.132053
0.128249
0.133886
0.145739
0.160936
0.176971
0.192027
0.205149
0.103815
0.100535
0.106743
0.119428
0.135689
0.152935
0.169268
0.18367
0.195767
0.0754653
0.0727109
0.0794774
0.0929758
0.110284
0.128729
0.146332
0.16201
0.175348
0.0470607
0.0448342
0.0521452
0.066436
0.0847697
0.104397
0.123259
0.140207
0.154784
0.166951
0.0186602
0.0169621
0.0248022
0.039861
0.0591956
0.0799842
0.10009
0.118299
0.134109
0.147457
-0.00967757
-0.0108478
-0.00249584
0.0133037
0.0336109
0.0555367
0.0768682
0.0963242
0.113358
0.127881
-0.0378944
-0.0385383
-0.0296932
-0.0131828
0.00806488
0.0310994
0.0536341
0.0743206
0.092566
0.108255
0.121519
-0.065932
-0.0660525
-0.0567343
-0.0395458
-0.0173932
0.00671796
0.0304296
0.0523265
0.071768
0.0886111
0.102974
0.115082
-0.0937324
-0.0933342
-0.0835639
-0.0657326
-0.0427143
-0.0175625
0.00729614
0.0303798
0.0509988
0.0689812
0.084431
0.0975678
-0.121237
-0.120327
-0.110127
-0.0916908
-0.0678493
-0.0416969
-0.015725
0.00851821
0.0302932
0.0493973
0.0659194
0.0800734
0.0921075
-0.148392
-0.146979
-0.13637
-0.117369
-0.0927502
-0.0656407
-0.038593
-0.0132208
0.00968534
0.0298909
0.0474683
0.0626252
0.0756085
-0.175136
-0.173236
-0.16224
-0.142717
-0.117369
-0.0893496
-0.0612673
-0.0348002
-0.0107908
0.0104932
0.0291065
0.0452496
0.059168
0.0711069
-0.201414
-0.199045
-0.187685
-0.167684
-0.141659
-0.11278
-0.083708
-0.0561836
-0.0311019
-0.00876538
0.0108619
0.0279723
0.0428096
0.0556193
-0.227213
-0.224324
-0.212653
-0.19222
-0.165572
-0.135889
-0.105876
-0.077335
-0.0512152
-0.0278547
-0.00723788
0.0108187
0.0265563
0.0402209
0.0520471
-0.252486
-0.249027
-0.237097
-0.216279
-0.189065
-0.158634
-0.127732
-0.0982191
-0.0710984
-0.0467454
-0.0251659
-0.00618667
0.0104305
0.0249317
0.0375527
0.048511
-0.277131
-0.273145
-0.260974
-0.239812
-0.212092
-0.180974
-0.149238
-0.118801
-0.0907201
-0.0654087
-0.0428959
-0.0230197
-0.00554585
0.00977133
0.0231685
0.0348676
0.0450085
-0.301104
-0.296624
-0.284233
-0.262774
-0.234609
-0.20287
-0.170358
-0.139048
-0.11005
-0.0838165
-0.0604022
-0.039657
-0.0213514
-0.00524072
0.00891205
0.0213318
0.0321642
-0.324365
-0.319409
-0.306813
-0.285134
-0.256575
-0.224281
-0.191055
-0.158926
-0.129057
-0.101942
-0.07766
-0.0560758
-0.0369653
-0.0200854
-0.0051994
0.00791972
0.019423
0.0294189
-0.346877
-0.341456
-0.328686
-0.306839
-0.277945
-0.245169
-0.211295
-0.178405
-0.147713
-0.119758
-0.094645
-0.0722538
-0.0523672
-0.0347442
-0.0191487
-0.00535258
0.00680035
0.0174118
0.027389
-0.368598
-0.362727
-0.34981
-0.32782
-0.298706
-0.2655
-0.231043
-0.197452
-0.16599
-0.137239
-0.111334
-0.0881698
-0.0675374
-0.0491988
-0.0329189
-0.0184691
-0.0056882
0.0055208
0.0160316
0.0257609
-0.389492
-0.383182
-0.370149
-0.348074
-0.318788
-0.285236
-0.250267
-0.216038
-0.183861
-0.154361
-0.127704
-0.103803
-0.082457
-0.0634317
-0.0464936
-0.0314143
-0.0180276
-0.00623985
0.00478661
0.0150356
-0.409522
-0.402785
-0.389664
-0.367561
-0.338159
-0.304346
-0.268935
-0.234135
-0.2013
-0.171101
-0.143735
-0.119134
-0.0971076
-0.0774258
-0.0598569
-0.0441729
-0.0302034
-0.0178564
-0.00633239
0.00441694
-0.428656
-0.421504
-0.408323
-0.386243
-0.356796
-0.32279
-0.287023
-0.251716
-0.218282
-0.187435
-0.159404
-0.134143
-0.111472
-0.0911649
-0.0729936
-0.0567306
-0.0422015
-0.0293157
-0.0173125
-0.00608158
-0.446865
-0.439309
-0.426095
-0.404088
-0.374666
-0.340545
-0.304497
-0.268754
-0.234784
-0.203342
-0.174694
-0.148813
-0.125533
-0.104633
-0.0858889
-0.0690735
-0.054009
-0.0406053
-0.0281417
-0.016448
-0.464121
-0.456173
-0.442952
-0.421069
-0.391741
-0.357584
-0.321328
-0.285227
-0.250783
-0.218803
-0.189585
-0.163126
-0.139274
-0.117816
-0.0985291
-0.0811885
-0.0656133
-0.0517136
-0.0388087
-0.0266716
-0.4804
-0.472074
-0.458871
-0.437159
-0.407993
-0.373878
-0.337496
-0.301109
-0.26626
-0.233797
-0.204059
-0.177067
-0.152682
-0.1307
-0.110901
-0.0930634
-0.0770029
-0.0626297
-0.0493033
-0.0367424
-0.495682
-0.486993
-0.473831
-0.452335
-0.423398
-0.389405
-0.352977
-0.31638
-0.281193
-0.248308
-0.218101
-0.190621
-0.165743
-0.143272
-0.122993
-0.104687
-0.088167
-0.0733436
-0.0596158
-0.0466514
-0.50995
-0.500911
-0.487814
-0.466579
-0.437936
-0.404141
-0.36775
-0.331021
-0.295565
-0.262319
-0.231696
-0.203773
-0.178443
-0.155519
-0.134793
-0.116048
-0.0990957
-0.0838459
-0.0697373
-0.0563903
-0.523191
-0.513818
-0.500806
-0.479873
-0.451586
-0.418069
-0.381796
-0.345013
-0.30936
-0.275815
-0.24483
-0.216511
-0.19077
-0.167431
-0.146291
-0.127137
-0.10978
-0.0941281
-0.0796599
-0.0659512
-0.535395
-0.525703
-0.512796
-0.492204
-0.464335
-0.43117
-0.395097
-0.358341
-0.322563
-0.288782
-0.257491
-0.228824
-0.202715
-0.178998
-0.157478
-0.137945
-0.120211
-0.104183
-0.089376
-0.0753271
-0.546557
-0.536563
-0.523778
-0.503564
-0.476169
-0.443431
-0.40764
-0.37099
-0.33516
-0.301209
-0.269667
-0.240702
-0.214267
-0.190211
-0.168345
-0.148464
-0.130382
-0.114002
-0.0988794
-0.0845114
-0.556673
-0.546395
-0.533748
-0.513945
-0.48708
-0.45484
-0.419411
-0.382947
-0.34714
-0.313083
-0.281348
-0.252135
-0.225418
-0.201062
-0.178885
-0.158688
-0.140286
-0.123581
-0.108164
-0.0934977
-0.565747
-0.555202
-0.542708
-0.523345
-0.49706
-0.465389
-0.4304
-0.394203
-0.358493
-0.324397
-0.292527
-0.263115
-0.236161
-0.211544
-0.189091
-0.16861
-0.149917
-0.132915
-0.117227
-0.10228
-0.573783
-0.56299
-0.550662
-0.531766
-0.506109
-0.47507
-0.440599
-0.404747
-0.369209
-0.335142
-0.303196
-0.273636
-0.24649
-0.221651
-0.198958
-0.178225
-0.15927
-0.141997
-0.126064
-0.11085
-0.580792
-0.56977
-0.557619
-0.539212
-0.514225
-0.483882
-0.450003
-0.414575
-0.379284
-0.345313
-0.313349
-0.283694
-0.2564
-0.231379
-0.208481
-0.187528
-0.168341
-0.150824
-0.134676
-0.119204
-0.586786
-0.575556
-0.563591
-0.545692
-0.521414
-0.491824
-0.458608
-0.423681
-0.388711
-0.354904
-0.322982
-0.293283
-0.265886
-0.240724
-0.217657
-0.196517
-0.177127
-0.159391
-0.143062
-0.127343
-0.591784
-0.580366
-0.568595
-0.55122
-0.527682
-0.498898
-0.466415
-0.432062
-0.397487
-0.363911
-0.332091
-0.302401
-0.274947
-0.249684
-0.226484
-0.205188
-0.185625
-0.167693
-0.151173
-0.135337
-0.595805
-0.584221
-0.57265
-0.55581
-0.533042
-0.505112
-0.473425
-0.43972
-0.405612
-0.372335
-0.340676
-0.311046
-0.283581
-0.258256
-0.234959
-0.21354
-0.193835
-0.175738
-0.159061
-0.143165
-0.598874
-0.587146
-0.57578
-0.559482
-0.537507
-0.510474
-0.479643
-0.446654
-0.413085
-0.380173
-0.348736
-0.319218
-0.291788
-0.266441
-0.243082
-0.221572
-0.201754
-0.183521
-0.166708
-0.150708
-0.601019
-0.58917
-0.578012
-0.562262
-0.541096
-0.514997
-0.485077
-0.452871
-0.419909
-0.387428
-0.356272
-0.326919
-0.299567
-0.274239
-0.250853
-0.229284
-0.209381
-0.191039
-0.174106
-0.157994
-0.602271
-0.590325
-0.579377
-0.564174
-0.543831
-0.518696
-0.489736
-0.458375
-0.426087
-0.394102
-0.363286
-0.334149
-0.306922
-0.281651
-0.258274
-0.236677
-0.216718
-0.198291
-0.181262
-0.165062
-0.602664
-0.590646
-0.579909
-0.565251
-0.545736
-0.52159
-0.493633
-0.463175
-0.431626
-0.4002
-0.369781
-0.340912
-0.313854
-0.28868
-0.265346
-0.243752
-0.223764
-0.205278
-0.188178
-0.171918
-0.602236
-0.590169
-0.579644
-0.565524
-0.546839
-0.5237
-0.496785
-0.467283
-0.436532
-0.405726
-0.375763
-0.347211
-0.320368
-0.295329
-0.272073
-0.250512
-0.230523
-0.212005
-0.194857
-0.17856
-0.601024
-0.588935
-0.578621
-0.565032
-0.547172
-0.525051
-0.499208
-0.470709
-0.440815
-0.410689
-0.381236
-0.353054
-0.326467
-0.301603
-0.278458
-0.25696
-0.236999
-0.218472
-0.201298
-0.184987
-0.599073
-0.586987
-0.576883
-0.563812
-0.546769
-0.525671
-0.500925
-0.473471
-0.444485
-0.415095
-0.386208
-0.358444
-0.332159
-0.307506
-0.284506
-0.263101
-0.243193
-0.224684
-0.207505
-0.1912
-0.596424
-0.584367
-0.574473
-0.561906
-0.545666
-0.52559
-0.501957
-0.475584
-0.447556
-0.418956
-0.390687
-0.36339
-0.337448
-0.313045
-0.290222
-0.26894
-0.249111
-0.230643
-0.21348
-0.197203
-0.593124
-0.581123
-0.571436
-0.559359
-0.543904
-0.52484
-0.502331
-0.477069
-0.450041
-0.422282
-0.394682
-0.367899
-0.342343
-0.318226
-0.295612
-0.27448
-0.254757
-0.236355
-0.219227
-0.202999
-0.589221
-0.577301
-0.567821
-0.556216
-0.541524
-0.523458
-0.502076
-0.477946
-0.451957
-0.425085
-0.398203
-0.371979
-0.346851
-0.323055
-0.300682
-0.279729
-0.260136
-0.241822
-0.224751
-0.20859
-0.584761
-0.57295
-0.563674
-0.552523
-0.538568
-0.521482
-0.501221
-0.478239
-0.453321
-0.427379
-0.401261
-0.375641
-0.35098
-0.327542
-0.305441
-0.284693
-0.265255
-0.247052
-0.230055
-0.213982
-0.579794
-0.568116
-0.559045
-0.548329
-0.535083
-0.51895
-0.4998
-0.477974
-0.454153
-0.429178
-0.403867
-0.378895
-0.35474
-0.331694
-0.309894
-0.289379
-0.270119
-0.252048
-0.235146
-0.219177
-0.574369
-0.562851
-0.553983
-0.543683
-0.531116
-0.515904
-0.497847
-0.477177
-0.454473
-0.430498
-0.406034
-0.38175
-0.35814
-0.335519
-0.314051
-0.293794
-0.274735
-0.256818
-0.240027
-0.224181
-0.568536
-0.557202
-0.548538
-0.538633
-0.526712
-0.512388
-0.495399
-0.475879
-0.454304
-0.431358
-0.407777
-0.384219
-0.36119
-0.339028
-0.31792
-0.297946
-0.27911
-0.261368
-0.244706
-0.228999
-0.562343
-0.551218
-0.542757
-0.533229
-0.52192
-0.508446
-0.492494
-0.47411
-0.453669
-0.431773
-0.409108
-0.386312
-0.363901
-0.342229
-0.321509
-0.301843
-0.283252
-0.265703
-0.249187
-0.233636
-0.555839
-0.544945
-0.536689
-0.52752
-0.516788
-0.504122
-0.489171
-0.471902
-0.452595
-0.431765
-0.410043
-0.388043
-0.366281
-0.345132
-0.324828
-0.305493
-0.287168
-0.269833
-0.253478
-0.238097
-0.54907
-0.53843
-0.530381
-0.521552
-0.511364
-0.499462
-0.485472
-0.46929
-0.451107
-0.431353
-0.410597
-0.389423
-0.368344
-0.347746
-0.327885
-0.308905
-0.290866
-0.273763
-0.257586
-0.24239
-0.542083
-0.531717
-0.523877
-0.515373
-0.505694
-0.494511
-0.481436
-0.466308
-0.449234
-0.430559
-0.410787
-0.390466
-0.370099
-0.350082
-0.33069
-0.312087
-0.294354
-0.2775
-0.261517
-0.246519
-0.534923
-0.524851
-0.517222
-0.509028
-0.499824
-0.489314
-0.477106
-0.462992
-0.447005
-0.429406
-0.41063
-0.391185
-0.371557
-0.352148
-0.333251
-0.315049
-0.29764
-0.281054
-0.265277
-0.250492
-0.527632
-0.517871
-0.510457
-0.502558
-0.493798
-0.483916
-0.472524
-0.45938
-0.444449
-0.427916
-0.410143
-0.391593
-0.372729
-0.353956
-0.335577
-0.317797
-0.300733
-0.284431
-0.268875
-0.254314
-0.52025
-0.510817
-0.503621
-0.496006
-0.487659
-0.478359
-0.467731
-0.455509
-0.441599
-0.426114
-0.409346
-0.391704
-0.373627
-0.355513
-0.337678
-0.320341
-0.303639
-0.287638
-0.272318
-0.257993
-0.512817
-0.503726
-0.496751
-0.489409
-0.481448
-0.472685
-0.462768
-0.451415
-0.438486
-0.424025
-0.408255
-0.391532
-0.37426
-0.356829
-0.33956
-0.322689
-0.306368
-0.290683
-0.275613
-0.261535
-0.505368
-0.496631
-0.489882
-0.482804
-0.475202
-0.466935
-0.457675
-0.447136
-0.435142
-0.421675
-0.406893
-0.391092
-0.374641
-0.357913
-0.341233
-0.324848
-0.308926
-0.293574
-0.278766
-0.264947
-0.497937
-0.489564
-0.483045
-0.476223
-0.468957
-0.461145
-0.45249
-0.44271
-0.431599
-0.41909
-0.405277
-0.390398
-0.374779
-0.358774
-0.342703
-0.326824
-0.31132
-0.296318
-0.281785
-0.268236
-0.490555
-0.482554
-0.476269
-0.469697
-0.462746
-0.455351
-0.44725
-0.438171
-0.427891
-0.416299
-0.40343
-0.389465
-0.374686
-0.359419
-0.343978
-0.328626
-0.313557
-0.298921
-0.284677
-0.271408
-0.483249
-0.475627
-0.469579
-0.463253
-0.456598
-0.449586
-0.44199
-0.433555
-0.424049
-0.413327
-0.401372
-0.388309
-0.374373
-0.359857
-0.345064
-0.330259
-0.315644
-0.301389
-0.287448
-0.274471
-0.476045
-0.468806
-0.462999
-0.456914
-0.450539
-0.443879
-0.436742
-0.428894
-0.420105
-0.410202
-0.399126
-0.386946
-0.373849
-0.360095
-0.345967
-0.331727
-0.317585
-0.30373
-0.290104
-0.27743
-0.468966
-0.462112
-0.456549
-0.450703
-0.444594
-0.438256
-0.431535
-0.424221
-0.416089
-0.406952
-0.396712
-0.385392
-0.373127
-0.36014
-0.346691
-0.333036
-0.319386
-0.305947
-0.292651
-0.280292
-0.462032
-0.455564
-0.450246
-0.444637
-0.438782
-0.432742
-0.426397
-0.419564
-0.412031
-0.403604
-0.394155
-0.383662
-0.372217
-0.359999
-0.347242
-0.334189
-0.321049
-0.308045
-0.455259
-0.449175
-0.444106
-0.438731
-0.43312
-0.427357
-0.421351
-0.41495
-0.407959
-0.400183
-0.391475
-0.381775
-0.37113
-0.359679
-0.347623
-0.335189
-0.322579
-0.448661
-0.442959
-0.43814
-0.432999
-0.427624
-0.422117
-0.416418
-0.410403
-0.403898
-0.396715
-0.388694
-0.379748
-0.369879
-0.359187
-0.347838
-0.44225
-0.436927
-0.432358
-0.427449
-0.422303
-0.417036
-0.411615
-0.405944
-0.399873
-0.393225
-0.385836
-0.377596
-0.368475
-0.358529
-0.436037
-0.431086
-0.426767
-0.42209
-0.417168
-0.412126
-0.406957
-0.401591
-0.395904
-0.389734
-0.382921
-0.37534
-0.430027
-0.425443
-0.421373
-0.416926
-0.412222
-0.407395
-0.402456
-0.39736
-0.392009
-0.386263
-0.379969
-0.424226
-0.420002
-0.416179
-0.411962
-0.407472
-0.402847
-0.398118
-0.393262
-0.388206
-0.382831
-0.418638
-0.414766
-0.411188
-0.407197
-0.402917
-0.398486
-0.39395
-0.389307
-0.384506
-0.413265
-0.409737
-0.406401
-0.402633
-0.398557
-0.394313
-0.389955
-0.385499
-0.408108
-0.404915
-0.401816
-0.398268
-0.394392
-0.390325
-0.386132
-0.403167
-0.400302
-0.397434
-0.3941
-0.390418
-0.386522
-0.398444
-0.395895
-0.393252
-0.390126
-0.386633
-0.393938
-0.391696
-0.38927
-0.386345
-0.38965
-0.387703
-0.385486
-0.385582
-0.383918
-0.381736
-0.38034
-0.378113
-0.231102
-0.236596
-0.241923
-0.247089
-0.252099
-0.256958
-0.261671
-0.266244
-0.270684
-0.274998
-0.27919
-0.28327
-0.287242
-0.291114
-0.294893
-0.298585
-0.220903
-0.22623
-0.231406
-0.236434
-0.24132
-0.246067
-0.25068
-0.255165
-0.259526
-0.26377
-0.267901
-0.271926
-0.275849
-0.279678
-0.283419
-0.287076
-0.211072
-0.216222
-0.221237
-0.226119
-0.230872
-0.235501
-0.240009
-0.2444
-0.24868
-0.252853
-0.256924
-0.260897
-0.264779
-0.268574
-0.272289
-0.275928
-0.201596
-0.206572
-0.211426
-0.21616
-0.220779
-0.225285