/*--------------------------------*- C++ -*----------------------------------*\
  =========                 |
  \\      /  F ield         | OpenFOAM: The Open Source CFD Toolbox
   \\    /   O peration     | Website:  https://openfoam.org
    \\  /    A nd           | Version:  7
     \\/     M anipulation  |
\*---------------------------------------------------------------------------*/
FoamFile
{
    version     2.0;
    format      ascii;
    class       surfaceScalarField;
    location    "95";
    object      phi;
}
// * * * * * * * * * * * * * * * * * * * * * * * * * * * * * * * * * * * * * //

dimensions      [0 3 -1 0 0 0 0];

internalField   nonuniform List<scalar> 
16607
(
1.35528e-05
1.38299e-06
1.21698e-05
1.84365e-05
1.47859e-06
1.06912e-05
6.79612e-06
1.3119e-05
-3.82187e-06
1.58891e-06
9.10227e-06
7.30992e-06
7.398e-06
-1.47718e-05
1.71516e-06
7.38711e-06
7.87878e-06
1.23438e-06
1.96598e-05
-2.65528e-05
-7.76829e-05
1.85815e-06
5.52895e-06
8.50508e-06
-5.41255e-06
2.11759e-05
-3.92236e-05
4.11709e-05
-9.76779e-05
-0.000182629
2.01827e-06
3.51068e-06
9.18988e-06
-1.25842e-05
2.2809e-05
-5.28428e-05
4.42278e-05
-0.000119097
7.483e-05
-0.000213231
-0.000337003
2.19552e-06
1.31516e-06
9.93275e-06
-2.03214e-05
2.45571e-05
-6.74671e-05
4.74622e-05
-0.000142002
8.00488e-05
-0.000245817
0.000123631
-0.000380585
-0.000547455
2.38952e-06
-1.07436e-06
1.0732e-05
-2.86639e-05
2.6415e-05
-8.31501e-05
5.08627e-05
-0.000166449
8.54759e-05
-0.000280431
0.000131517
-0.000426627
0.000189943
-0.00060588
-0.000817871
2.59962e-06
-3.67398e-06
1.15849e-05
-3.76491e-05
2.83756e-05
-9.99408e-05
5.44134e-05
-0.000192487
9.10815e-05
-0.000317099
0.000139567
-0.000475112
0.000200668
-0.000666982
0.000274568
-0.000891771
-0.00114667
2.82492e-06
-6.49889e-06
1.24876e-05
-4.73118e-05
3.04295e-05
-0.000117883
5.80954e-05
-0.000220153
9.68308e-05
-0.000355834
0.000147721
-0.000526002
0.000211377
-0.000730638
0.000287701
-0.000968095
0.00037567
-0.00123464
-0.00152428
3.06434e-06
-9.56324e-06
1.34358e-05
-5.76832e-05
3.25657e-05
-0.000137013
6.18863e-05
-0.000249474
0.000102685
-0.000396632
0.000155916
-0.000579234
0.000221976
-0.000796698
0.000300455
-0.00104657
0.000389957
-0.00132415
0.00048804
-0.00162236
-0.00193224
3.31668e-06
-1.28799e-05
1.44243e-05
-6.87908e-05
3.47717e-05
-0.00015736
6.57618e-05
-0.000280464
0.0001086
-0.000439471
0.000164086
-0.000634719
0.000232367
-0.000864979
0.000312705
-0.00112691
0.00040332
-0.00141476
0.000501406
-0.00172045
0.000603354
-0.00203419
0.000705192
-0.00234561
-0.0026451
3.5806e-06
-1.64605e-05
1.54476e-05
-8.06578e-05
3.70341e-05
-0.000178947
6.96954e-05
-0.000313125
0.000114533
-0.000484308
0.000172161
-0.000692348
0.000242455
-0.000935273
0.000324328
-0.00120878
0.000415621
-0.00150605
0.000513194
-0.00181802
0.000613235
-0.00213423
0.000711753
-0.00244413
0.000805145
-0.00273849
-0.0030106
3.85472e-06
-2.03152e-05
1.64998e-05
-9.33029e-05
3.93384e-05
-0.000201785
7.36596e-05
-0.000347446
0.000120436
-0.000531084
0.000180071
-0.000751983
0.000252143
-0.00100735
0.000335205
-0.00129185
0.000426735
-0.00159758
0.000523297
-0.00191458
0.000620938
-0.00223187
0.000715731
-0.00253892
0.000804327
-0.00282709
0.000884373
-0.00309065
-0.00332719
4.13756e-06
-2.44528e-05
1.75747e-05
-0.00010674
4.16697e-05
-0.00022588
7.76254e-05
-0.000383402
0.000126261
-0.000579719
0.000187745
-0.000813466
0.000261338
-0.00108094
0.00034523
-0.00137574
0.000436553
-0.00168891
0.000531627
-0.00200966
0.000626429
-0.00232667
0.000717161
-0.00262965
0.000800783
-0.00291071
0.000875357
-0.00316522
0.00094015
-0.00339198
0.000995508
-0.00359278
-0.00377147
4.42762e-06
-2.88804e-05
1.86658e-05
-0.000120978
4.40122e-05
-0.000251227
8.15634e-05
-0.000420953
0.000131961
-0.000630117
0.000195114
-0.000876619
0.000269952
-0.00115578
0.000354303
-0.00146009
0.000444985
-0.00177959
0.000538127
-0.0021028
0.000629704
-0.00241825
0.00071611
-0.00271606
0.000794655
-0.00298926
0.000863821
-0.00323439
0.000923281
-0.00345144
0.000973699
-0.0036432
0.00101642
-0.00381419
-0.00396976
4.72332e-06
-3.36037e-05
1.97664e-05
-0.000136021
4.63501e-05
-0.00027781
8.54437e-05
-0.000460047
0.000137489
-0.000682162
0.000202112
-0.000941243
0.000277902
-0.00123157
0.00036234
-0.00154453
0.00045196
-0.00186921
0.000542763
-0.0021936
0.000630785
-0.00250627
0.00071267
-0.00279795
0.000786102
-0.00306269
0.000849979
-0.00329826
0.000904345
-0.00350581
0.000950138
-0.00368899
0.000988843
-0.0038529
0.00102215
-0.00400307
0.0010517
-0.00414439
-0.00428182
5.02306e-06
-3.86268e-05
2.08697e-05
-0.000151868
4.86672e-05
-0.000305608
8.92365e-05
-0.000500616
0.000142796
-0.000735722
0.000208675
-0.00100712
0.000285116
-0.00130801
0.000369266
-0.00162868
0.000457426
-0.00195737
0.000545525
-0.0022817
0.000629721
-0.00259047
0.000706955
-0.00287518
0.000775296
-0.00313103
0.000834044
-0.00335701
0.000883579
-0.00355535
0.000925058
-0.00373047
0.000960066
-0.00388791
0.000990281
-0.00403328
0.00101726
-0.00417137
-0.00430672
0.00104216
5.32517e-06
-4.3952e-05
2.19687e-05
-0.000168512
5.09469e-05
-0.000334586
9.29122e-05
-0.000542581
0.00014784
-0.00079065
0.000214744
-0.00107403
0.000291525
-0.00138479
0.000375024
-0.00171218
0.000461351
-0.0020437
0.000546425
-0.00236678
0.000626584
-0.00267063
0.000699092
-0.00294769
0.000762416
-0.00319435
0.000816229
-0.00341082
0.000861204
-0.00360032
0.000898673
-0.00376794
0.000930276
-0.00391951
0.000957653
-0.00406066
0.000982257
-0.00419598
-0.0043296
0.00100513
5.62794e-06
-4.95799e-05
2.30563e-05
-0.00018594
5.31731e-05
-0.000364703
9.64417e-05
-0.00058585
0.000152575
-0.000846783
0.000220265
-0.00114172
0.000297074
-0.0014616
0.000379569
-0.00179467
0.000463721
-0.00212785
0.000545496
-0.00244855
0.00062146
-0.00274659
0.000689225
-0.00301545
0.000747644
-0.00325277
0.000796739
-0.00345992
0.000837429
-0.00364101
0.000871177
-0.00380169
0.000899642
-0.00394797
0.000924399
-0.00408542
0.000946792
-0.00421837
-0.00435055
0.000967751
5.9296e-06
-5.55095e-05
2.41253e-05
-0.000204136
5.53293e-05
-0.000395907
9.97967e-05
-0.000630318
0.000156961
-0.000903947
0.000225188
-0.00120994
0.000301716
-0.00153812
0.000382871
-0.00187583
0.000464541
-0.00220952
0.000542791
-0.0025268
0.000614453
-0.00281825
0.000677501
-0.0030785
0.000731162
-0.00330643
0.000775769
-0.00350453
0.000812446
-0.00367769
0.000842744
-0.00383199
0.00086831
-0.00397354
0.000890639
-0.00410774
0.000910957
-0.00423869
-0.00436968
0.000930085
6.22835e-06
-6.17379e-05
2.51685e-05
-0.000223076
5.73995e-05
-0.000428138
0.00010295
-0.000675868
0.000160962
-0.000961959
0.000229471
-0.00127845
0.000305413
-0.00161407
0.000384915
-0.00195533
0.00046383
-0.00228843
0.000538375
-0.00260135
0.000605676
-0.00288555
0.000664073
-0.0031369
0.000713147
-0.00335551
0.000753503
-0.00354488
0.000786429
-0.00371061
0.000813528
-0.00385909
0.000836408
-0.00399642
0.000856471
-0.00412781
0.000874827
-0.00425704
-0.00438705
0.000892191
6.52235e-06
-6.82602e-05
2.61788e-05
-0.000242732
5.93682e-05
-0.000461327
0.000105877
-0.000722377
0.000164543
-0.00102063
0.000233079
-0.00134699
0.000308141
-0.00168913
0.000385699
-0.00203289
0.000461625
-0.00236436
0.000532328
-0.00267205
0.00059525
-0.00294847
0.000649095
-0.00319074
0.000693768
-0.00340018
0.000730111
-0.00358123
0.000759536
-0.00374004
0.000783664
-0.00388321
0.000804046
-0.0040168
0.000821982
-0.00414574
0.000838466
-0.00427353
-0.0044027
0.000854119
6.80974e-06
-7.507e-05
2.71489e-05
-0.000263071
6.12203e-05
-0.000495398
0.000108552
-0.000769708
0.000167674
-0.00107975
0.000235981
-0.0014153
0.000309882
-0.00176303
0.000385234
-0.00210824
0.000457973
-0.0024371
0.000524737
-0.00273882
0.000583301
-0.00300704
0.000632717
-0.00324016
0.000673187
-0.00344065
0.000705752
-0.00361379
0.000731909
-0.0037662
0.000753273
-0.00390458
0.000771319
-0.00403485
0.000787243
-0.00416167
0.000801929
-0.00428821
-0.00441668
0.000815909
7.08864e-06
-8.21586e-05
2.80721e-05
-0.000284055
6.29414e-05
-0.000530268
0.000110954
-0.000817721
0.000170328
-0.00113912
0.000238158
-0.00148312
0.000310631
-0.0018355
0.000383541
-0.00218115
0.000452932
-0.00250649
0.0005157
-0.00280158
0.000569956
-0.00306129
0.000615086
-0.00328529
0.000651556
-0.00347712
0.000680568
-0.0036428
0.000703674
-0.0037893
0.000722456
-0.00392336
0.000738308
-0.0040507
0.000752316
-0.00417568
0.000765261
-0.00430116
-0.00442901
0.000777595
7.3572e-06
-8.95158e-05
2.89414e-05
-0.000305639
6.45182e-05
-0.000565845
0.000113064
-0.000866267
0.000172486
-0.00119854
0.000239593
-0.00155023
0.000310392
-0.0019063
0.000380652
-0.00225141
0.000446569
-0.0025724
0.000505317
-0.00286033
0.000555342
-0.00311132
0.000596343
-0.00332629
0.000629016
-0.0035098
0.00065469
-0.00366848
0.000674942
-0.00380955
0.000691306
-0.00393972
0.000705082
-0.00406448
0.000717253
-0.00418785
0.000728502
-0.00431241
-0.00443972
0.00073921
7.61356e-06
-9.71294e-05
2.97506e-05
-0.000327776
6.59381e-05
-0.000602032
0.000114864
-0.000915194
0.000174129
-0.00125781
0.000240279
-0.00161638
0.000309176
-0.0019752
0.00037661
-0.00231884
0.000438958
-0.00263475
0.000493692
-0.00291507
0.000539585
-0.00315721
0.000576621
-0.00336333
0.000605697
-0.00353887
0.000628235
-0.00369101
0.000645812
-0.00382713
0.000659899
-0.00395381
0.0006717
-0.00407628
0.000682097
-0.00419824
0.000691684
-0.00432199
-0.00444882
0.000700779
7.85594e-06
-0.000104985
3.04935e-05
-0.000350414
6.71899e-05
-0.000638728
0.00011634
-0.000964344
0.000175246
-0.00131671
0.000240215
-0.00168135
0.000307004
-0.00204199
0.000371462
-0.0023833
0.000430179
-0.00269347
0.00048093
-0.00296582
0.000522804
-0.00319909
0.000556046
-0.00339657
0.000581719
-0.00356455
0.000601307
-0.0037106
0.00061637
-0.00384219
0.000628304
-0.00396574
0.000638214
-0.00408619
0.000646888
-0.00420692
0.000654839
-0.00432994
-0.00445631
0.000662327
8.0826e-06
-0.000113068
3.11644e-05
-0.000373495
6.82636e-05
-0.000675828
0.00011748
-0.00101356
0.000175828
-0.00137506
0.000239407
-0.00174493
0.000303904
-0.00210649
0.000365264
-0.00244466
0.000420314
-0.00274852
0.000467134
-0.00301264
0.000505115
-0.00323707
0.000534734
-0.00342619
0.000557188
-0.003587
0.000574
-0.00372741
0.000586692
-0.00385489
0.000596577
-0.00397563
0.000604667
-0.00409428
0.000611658
-0.00421391
0.000617991
-0.00433628
-0.00446219
0.000623877
8.29189e-06
-0.00012136
3.17581e-05
-0.000396962
6.91506e-05
-0.00071322
0.000118275
-0.00106269
0.000175874
-0.00143266
0.000237866
-0.00180692
0.000299907
-0.00216853
0.000358074
-0.00250283
0.000409445
-0.00279989
0.000452407
-0.0030556
0.000486629
-0.00327129
0.000512794
-0.00345235
0.000532204
-0.00360641
0.000546396
-0.00374161
0.000556843
-0.00386533
0.00056477
-0.00398356
0.000571097
-0.00410061
0.000576436
-0.00421925
0.000581163
-0.004341
-0.00446648
0.000585448
8.48225e-06
-0.000129842
3.227e-05
-0.000420749
6.98436e-05
-0.000750794
0.000118719
-0.00111156
0.000175383
-0.00148932
0.000235608
-0.00186715
0.000295054
-0.00222797
0.000349956
-0.00255773
0.000397659
-0.00284759
0.000436848
-0.00309479
0.00046745
-0.00330189
0.000490324
-0.00347522
0.000506853
-0.00362294
0.000518569
-0.00375332
0.00052688
-0.00387364
0.000532926
-0.0039896
0.000537536
-0.00410521
0.000541246
-0.00422296
0.000544377
-0.00434413
-0.00446916
0.000547059
8.65226e-06
-0.000138494
3.2696e-05
-0.000444793
7.0337e-05
-0.000788435
0.000118808
-0.00116003
0.000174362
-0.00154488
0.000232656
-0.00192544
0.000289387
-0.0022847
0.000340975
-0.00260932
0.000385039
-0.00289166
0.00042055
-0.0031303
0.000447673
-0.00332901
0.000467416
-0.00349497
0.000481215
-0.00363674
0.000490581
-0.00376269
0.000496853
-0.00387991
0.000501082
-0.00399383
0.000504012
-0.00410815
0.000506113
-0.00422506
0.000507651
-0.00434567
-0.00447024
0.000508728
8.80059e-06
-0.000147295
3.30326e-05
-0.000469025
7.06266e-05
-0.000826029
0.000118541
-0.00120795
0.00017282
-0.00159916
0.000229033
-0.00198165
0.000282951
-0.00233862
0.000331197
-0.00265756
0.000371667
-0.00293213
0.000403605
-0.00316224
0.000427389
-0.0033528
0.000444151
-0.00351173
0.00045536
-0.00364795
0.00046249
-0.00376982
0.000466805
-0.00388423
0.000469271
-0.0039963
0.000470552
-0.00410943
0.000471055
-0.00422556
0.000471004
-0.00434562
-0.0044697
0.000470473
8.92721e-06
-0.000156222
3.32793e-05
-0.000493377
7.0713e-05
-0.000863462
0.000117925
-0.00125516
0.000170773
-0.001652
0.000224776
-0.00203566
0.000275803
-0.00238965
0.000320697
-0.00270246
0.00035763
-0.00296906
0.000386104
-0.00319071
0.000406689
-0.00337338
0.000420612
-0.00352565
0.000429357
-0.00365669
0.000434352
-0.00377481
0.000436782
-0.00388666
0.000437529
-0.00399705
0.000437183
-0.00410908
0.000436098
-0.00422448
0.000434459
-0.00434398
-0.00446756
0.000432316
9.029e-06
-0.000165251
3.34295e-05
-0.000517778
7.05883e-05
-0.000900621
0.000116955
-0.00130153
0.000168229
-0.00170328
0.000219905
-0.00208733
0.000267978
-0.00243772
0.000309526
-0.00274401
0.00034299
-0.00300253
0.000368114
-0.00321583
0.000385632
-0.0033909
0.000396849
-0.00353687
0.000403247
-0.00366309
0.000406196
-0.00377776
0.000406802
-0.00388727
0.000405866
-0.00399611
0.000403912
-0.00410713
0.000401245
-0.00422181
0.000398017
-0.00434075
-0.0044638
0.000394259
9.10616e-06
-0.000174357
3.34838e-05
-0.000542155
7.02561e-05
-0.000937394
0.000115643
-0.00134691
0.000165209
-0.00175284
0.000214458
-0.00213658
0.000259534
-0.0024828
0.000297755
-0.00278223
0.000327827
-0.0030326
0.000349714
-0.00323772
0.000364296
-0.00340548
0.000372932
-0.00354551
0.000377086
-0.00366725
0.000378067
-0.00377874
0.0003769
-0.0038861
0.000374312
-0.00399352
0.000370764
-0.00410358
0.000366519
-0.00421756
0.0003617
-0.00433594
-0.00445843
0.000356324
9.15798e-06
-0.000183515
3.34413e-05
-0.000566439
6.97179e-05
-0.00097367
0.000113996
-0.00139119
0.000161734
-0.00180058
0.000208473
-0.00218332
0.000250523
-0.00252485
0.000285449
-0.00281715
0.00031221
-0.00305936
0.000330975
-0.00325649
0.000342744
-0.00341725
0.000348913
-0.00355168
0.000350918
-0.00366925
0.000349999
-0.00377782
0.000347103
-0.0038832
0.000342886
-0.00398931
0.000337755
-0.00409845
0.000331934
-0.00421174
0.000325523
-0.00432953
-0.00445143
0.000318525
9.18394e-06
-0.000192699
3.33016e-05
-0.000590556
6.89763e-05
-0.00100934
0.000112025
-0.00143424
0.000157826
-0.00184638
0.000201985
-0.00222748
0.000240995
-0.00256386
0.000272668
-0.00284883
0.000296206
-0.00308289
0.000311961
-0.00327224
0.000321033
-0.00342632
0.000324841
-0.00355548
0.00032478
-0.00366919
0.00032202
-0.00377506
0.000317434
-0.00387862
0.000311607
-0.00398348
0.0003049
-0.00409174
0.000297503
-0.00420435
0.000289499
-0.00432152
-0.00444281
0.000280877
9.18363e-06
-0.000201883
3.30652e-05
-0.000614438
6.80355e-05
-0.00104432
0.000109741
-0.00147594
0.00015351
-0.00189015
0.000195033
-0.002269
0.000231
-0.00259982
0.000259471
-0.0028773
0.000279874
-0.0031033
0.000292728
-0.0032851
0.000299216
-0.00343281
0.000300759
-0.00355703
0.000298706
-0.00366714
0.000294158
-0.00377051
0.000287911
-0.00387237
0.000280491
-0.00397606
0.000272213
-0.00408346
0.000263241
-0.00419537
0.000253641
-0.00431192
-0.00443256
0.000243394
9.15687e-06
-0.00021104
3.27328e-05
-0.000638014
6.69004e-05
-0.00107848
0.000107159
-0.0015162
0.00014881
-0.0019318
0.000187653
-0.00230785
0.000220587
-0.00263276
0.000245912
-0.00290262
0.000263272
-0.00312066
0.000273332
-0.00329516
0.000277337
-0.00343682
0.000276703
-0.00355639
0.000272727
-0.00366316
0.000266434
-0.00376422
0.000258552
-0.00386449
0.000249552
-0.00396706
0.000239707
-0.00407362
0.00022916
-0.00418483
0.000217961
-0.00430072
-0.00442069
0.000206088
9.10359e-06
-0.000220143
3.23059e-05
-0.000661216
6.55771e-05
-0.00111175
0.000104292
-0.00155492
0.000143752
-0.00197126
0.000179885
-0.00234398
0.000209803
-0.00266268
0.000232044
-0.00292486
0.000246453
-0.00313507
0.00025382
-0.00330253
0.000255439
-0.00343843
0.000252709
-0.00355366
0.000246867
-0.00365732
0.000238869
-0.00375622
0.000229375
-0.003855
0.000218804
-0.00395649
0.000207395
-0.00406221
0.000195272
-0.0041727
0.000182473
-0.00428792
-0.00440719
0.000168972
9.02389e-06
-0.000229167
3.17865e-05
-0.000683979
6.40724e-05
-0.00114404
0.000101155
-0.001592
0.000138362
-0.00200847
0.000171764
-0.00237738
0.000198693
-0.00268961
0.000217917
-0.00294409
0.000229464
-0.00314661
0.000234237
-0.0033073
0.00023356
-0.00343776
0.000228806
-0.00354891
0.000221152
-0.00364966
0.000211482
-0.00374655
0.000200394
-0.00384391
0.000188259
-0.00394435
0.000175289
-0.00404924
0.000161587
-0.004159
0.000147186
-0.00427352
-0.00439206
0.000132057
8.91801e-06
-0.000238085
3.11768e-05
-0.000706238
6.23939e-05
-0.00117526
9.77658e-05
-0.00162737
0.000132666
-0.00204337
0.000163326
-0.00240804
0.000187301
-0.00271358
0.000203577
-0.00296036
0.000212352
-0.00315539
0.000214623
-0.00330957
0.000211733
-0.00343487
0.000205021
-0.0035422
0.000195601
-0.00364024
0.000184288
-0.00373524
0.000171623
-0.00383124
0.000157931
-0.00393066
0.000143399
-0.00403471
0.000128117
-0.00414372
0.000112112
-0.00425752
-0.0043753
9.53536e-05
8.78634e-06
-0.000246871
3.04797e-05
-0.000727931
6.05498e-05
-0.00120533
9.41395e-05
-0.00166096
0.000126691
-0.00207592
0.000154608
-0.00243596
0.000175667
-0.00273464
0.000189066
-0.00297376
0.000195157
-0.00316148
0.000195013
-0.00330942
0.000189988
-0.00342984
0.000181377
-0.00353358
0.000170232
-0.0036291
0.000157303
-0.00372231
0.000143073
-0.00381701
0.000127831
-0.00391542
0.000111738
-0.00401861
9.48738e-05
-0.00412686
7.72593e-05
-0.0042399
-0.00435691
5.88654e-05
8.62937e-06
-0.000255501
2.96983e-05
-0.000749
5.85488e-05
-0.00123418
9.02934e-05
-0.00169271
0.000120463
-0.00210609
0.000145643
-0.00246114
0.000163831
-0.00275283
0.000174425
-0.00298435
0.000177917
-0.00316497
0.000175441
-0.00330695
0.000168351
-0.00342275
0.000157896
-0.00352313
0.000145063
-0.00361627
0.00013054
-0.00370779
0.000114757
-0.00380123
9.79701e-05
-0.00389863
8.03196e-05
-0.00400096
6.1877e-05
-0.00410841
4.26482e-05
-0.00422067
-0.0043368
2.25411e-05
8.44773e-06
-0.000263949
2.8836e-05
-0.000769388
5.63999e-05
-0.00126174
8.62442e-05
-0.00172255
0.000114006
-0.00213385
0.000136463
-0.00248359
0.000151829
-0.00276819
0.000159691
-0.00299222
0.000160665
-0.00316595
0.000155936
-0.00330222
0.000146846
-0.00341366
0.000134596
-0.00351088
0.000120108
-0.00360178
0.00010401
-0.00369169
8.66861e-05
-0.00378391
6.83584e-05
-0.0038803
4.91528e-05
-0.00398176
2.91423e-05
-0.0040884
8.34079e-06
-0.00419987
-0.00431494
-1.35155e-05
8.24211e-06
-0.000272191
2.78966e-05
-0.000789043
5.41126e-05
-0.00128796
8.20091e-05
-0.00175045
0.000107347
-0.00215919
0.000127099
-0.00250335
0.000139695
-0.00278079
0.000144898
-0.00299742
0.000143432
-0.00316448
0.000136524
-0.00329531
0.000125494
-0.00340263
0.000111493
-0.00349688
9.53808e-05
-0.00358567
7.7726e-05
-0.00367403
5.88697e-05
-0.00376505
3.90062e-05
-0.00386044
1.82465e-05
-0.003961
-3.34752e-06
-0.00406681
-2.57632e-05
-0.00417746
-0.00429168
-4.90286e-05
8.01335e-06
-0.000280204
2.6884e-05
-0.000807913
5.16963e-05
-0.00131277
7.76049e-05
-0.00177636
0.000100508
-0.0021821
0.000117582
-0.00252042
0.000127462
-0.00279067
0.000130076
-0.00300003
0.000126247
-0.00316065
0.000117228
-0.00328629
0.000104314
-0.00338972
8.86031e-05
-0.00348117
7.08924e-05
-0.00356796
5.16972e-05
-0.00365484
3.13179e-05
-0.00374467
9.92296e-06
-0.00383905
-1.23879e-05
-0.00393869
-3.55509e-05
-0.00404365
-5.95652e-05
-0.00415344
-0.00426681
-8.44279e-05
7.76234e-06
-0.000287966
2.58022e-05
-0.000825953
4.91608e-05
-0.00133613
7.3048e-05
-0.00180024
9.3514e-05
-0.00220256
0.000107938
-0.00253484
0.000115158
-0.00279789
0.000115255
-0.00300013
0.000109136
-0.00315453
9.80698e-05
-0.00327523
8.33238e-05
-0.00337497
6.59388e-05
-0.00346378
4.6654e-05
-0.00354867
2.59336e-05
-0.00363412
4.0395e-06
-0.00372278
-1.88817e-05
-0.00381612
-4.27418e-05
-0.00391483
-6.74792e-05
-0.00401891
-9.3078e-05
-0.00412784
-0.00424033
-0.000119559
7.49002e-06
-0.000295456
2.46556e-05
-0.000843119
4.65156e-05
-0.00135799
6.83548e-05
-0.00182208
8.6386e-05
-0.00222059
9.81943e-05
-0.00254665
0.000102812
-0.00280251
0.000100461
-0.00299778
9.21198e-05
-0.00314619
7.9068e-05
-0.00326218
6.25368e-05
-0.00335844
4.35119e-05
-0.00344476
2.26757e-05
-0.00352784
4.4198e-07
-0.00361188
-2.29558e-05
-0.00369938
-4.73987e-05
-0.00379168
-7.28059e-05
-0.00388942
-9.91149e-05
-0.0039926
-0.0001263
-0.00410066
-0.00421224
-0.000154393
7.19742e-06
-0.000302654
2.34484e-05
-0.00085937
4.37705e-05
-0.00137831
6.3541e-05
-0.00184185
7.91457e-05
-0.0022362
8.83753e-05
-0.00255588
9.04481e-05
-0.00280458
8.57168e-05
-0.00299305
7.52205e-05
-0.00313569
6.02394e-05
-0.00324719
4.19667e-05
-0.00334017
2.13332e-05
-0.00342412
-1.0367e-06
-0.00350547
-2.47638e-05
-0.00358816
-4.96598e-05
-0.00367448
-7.5619e-05
-0.00376572
-0.00010257
-0.00386247
-0.000130449
-0.00396472
-0.00015922
-0.00407189
-0.00418254
-0.000188918
6.88561e-06
-0.000309539
2.21851e-05
-0.000874669
4.09348e-05
-0.00139706
5.86219e-05
-0.00185954
7.18131e-05
-0.00224939
7.8504e-05
-0.00256257
7.80909e-05
-0.00280417
7.10449e-05
-0.002986
5.84561e-05
-0.00312311
4.1599e-05
-0.00323034
2.16251e-05
-0.00332019
-5.91476e-07
-0.00340191
-2.44664e-05
-0.00348159
-4.96806e-05
-0.00356294
-7.60643e-05
-0.0036481
-0.000103534
-0.00373825
-0.000132025
-0.00383398
-0.000161471
-0.00393528
-0.000191827
-0.00404153
-0.00415125
-0.000223122
6.5557e-06
-0.000316095
2.08699e-05
-0.000888983
3.80181e-05
-0.00141421
5.36123e-05
-0.00187513
6.44075e-05
-0.00226018
6.86018e-05
-0.00256677
6.57613e-05
-0.00280133
5.64646e-05
-0.00297671
4.18432e-05
-0.00310848
2.31599e-05
-0.00321165
1.52334e-06
-0.00329856
-2.22424e-05
-0.00337814
-4.7614e-05
-0.00345622
-7.42995e-05
-0.00353626
-0.000102161
-0.00362024
-0.000131133
-0.00370928
-0.00016116
-0.00380395
-0.00019217
-0.00390426
-0.000224109
-0.00400959
-0.00411836
-0.000256994
6.2088e-06
-0.000322304
1.95073e-05
-0.000902282
3.50293e-05
-0.00142973
4.85261e-05
-0.00188863
5.69467e-05
-0.0022686
5.86886e-05
-0.00256851
5.3479e-05
-0.00279612
4.19937e-05
-0.00296522
2.53968e-05
-0.00309189
4.93426e-06
-0.00319119
-1.83295e-05
-0.00327529
-4.36237e-05
-0.00335285
-7.04698e-05
-0.00342937
-9.86135e-05
-0.00350811
-0.000127943
-0.00359091
-0.000158409
-0.00367881
-0.000189966
-0.00377239
-0.000222538
-0.00387169
-0.000256056
-0.00397607
-0.00408389
-0.000290524
5.8461e-06
-0.00032815
1.81017e-05
-0.000914538
3.19775e-05
-0.00144361
4.33771e-05
-0.00190003
4.94478e-05
-0.00227468
4.87828e-05
-0.00256784
4.12622e-05
-0.0027886
2.76481e-05
-0.00295161
9.12987e-06
-0.00307337
-1.30676e-05
-0.00316899
-3.79256e-05
-0.00325044
-6.4724e-05
-0.00332605
-9.30275e-05
-0.00340107
-0.000122616
-0.00347853
-0.000153401
-0.00356012
-0.000185353
-0.00364686
-0.000218433
-0.00373931
-0.000252562
-0.00383756
-0.000287656
-0.00394098
-0.00404785
-0.0003237
5.46874e-06
-0.000333619
1.66574e-05
-0.000925726
2.88711e-05
-0.00145582
3.81779e-05
-0.00190934
4.19267e-05
-0.00227842
3.89016e-05
-0.00256482
2.91274e-05
-0.00277882
1.34419e-05
-0.00293592
-6.94532e-06
-0.00305298
-3.08363e-05
-0.0031451
-5.72574e-05
-0.00322402
-8.5537e-05
-0.00329777
-0.000115281
-0.00337133
-0.0001463
-0.00344751
-0.00017853
-0.00352789
-0.000211956
-0.00361344
-0.00024655
-0.00370472
-0.000282233
-0.00380188
-0.0003189
-0.00390431
-0.00401024
-0.000356514
5.07793e-06
-0.000338697
1.51786e-05
-0.000935827
2.57186e-05
-0.00146636
3.29409e-05
-0.00191656
3.43979e-05
-0.00227988
2.90608e-05
-0.00255948
1.70895e-05
-0.00276685
-6.05678e-07
-0.00291823
-2.28179e-05
-0.00303077
-4.83637e-05
-0.00311956
-7.63181e-05
-0.00319606
-0.000106057
-0.00326803
-0.000137225
-0.00334016
-0.00016966
-0.00341507
-0.00020332
-0.00349423
-0.000238208
-0.00357855
-0.000274308
-0.00366862
-0.000311539
-0.00376465
-0.000349777
-0.00386607
-0.00397106
-0.000388955
4.67487e-06
-0.000343372
1.36695e-05
-0.000944822
2.2528e-05
-0.00147522
2.76778e-05
-0.00192171
2.68757e-05
-0.00227908
1.92742e-05
-0.00255188
5.16139e-06
-0.00275274
-1.44996e-05
-0.00289857
-3.84803e-05
-0.00300679
-6.56422e-05
-0.00309239
-9.51018e-05
-0.0031666
-0.000126279
-0.00323685
-0.000158854
-0.00330758
-0.000192691
-0.00338123
-0.000227767
-0.00345916
-0.000264103
-0.00354221
-0.000301697
-0.00363102
-0.000340468
-0.00372588
-0.000380275
-0.00382627
-0.00393032
-0.000421011
4.2608e-06
-0.000347632
1.21342e-05
-0.000952695
1.9307e-05
-0.00148239
2.23997e-05
-0.0019248
1.93747e-05
-0.00227605
9.55147e-06
-0.00254206
-6.64327e-06
-0.00273654
-2.82123e-05
-0.002877
-5.39225e-05
-0.00298108
-8.26654e-05
-0.00306365
-0.000113603
-0.00313566
-0.000146198
-0.00320426
-0.000180163
-0.00327362
-0.000215387
-0.00334601
-0.000251863
-0.00342268
-0.000289631
-0.00350444
-0.000328705
-0.00359195
-0.00036901
-0.00368557
-0.000410384
-0.00378489
-0.00388803
-0.000452675
3.83701e-06
-0.000351469
1.05765e-05
-0.000959435
1.60624e-05
-0.00148788
1.71159e-05
-0.00192586
1.19097e-05
-0.00227085
-2.7408e-08
-0.00253012
-1.83088e-05
-0.00271826
-4.1742e-05
-0.00285356
-6.91378e-05
-0.00295368
-9.94275e-05
-0.00303336
-0.000131818
-0.00310327
-0.000165811
-0.00317027
-0.000201149
-0.00323828
-0.000237743
-0.00330942
-0.000275603
-0.00338482
-0.000314786
-0.00346526
-0.000355323
-0.00355141
-0.000397152
-0.00364374
-0.000440091
-0.00374195
-0.00384419
-0.000483934
3.40485e-06
-0.000354874
9.0004e-06
-0.00096503
1.28014e-05
-0.00149168
1.18362e-05
-0.00192489
4.47752e-06
-0.00226349
-9.63277e-06
-0.00251601
-2.98427e-05
-0.00269805
-5.50798e-05
-0.00282833
-8.41197e-05
-0.00292464
-0.000115923
-0.00300156
-0.000149741
-0.00306946
-0.000185112
-0.00313489
-0.000221808
-0.00320158
-0.000259756
-0.00327147
-0.000298982
-0.00334559
-0.000339559
-0.00342468
-0.000381541
-0.00350943
-0.000424882
-0.0036004
-0.000469385
-0.00369745
-0.0037988
-0.000514779
2.96527e-06
-0.000357839
7.4095e-06
-0.000969474
9.53124e-06
-0.0014938
6.56963e-06
-0.00192193
-2.89795e-06
-0.00225402
-1.90718e-05
-0.00249983
-4.12205e-05
-0.0026759
-6.82179e-05
-0.00280133
-9.88619e-05
-0.002894
-0.000132148
-0.00296827
-0.000167369
-0.00303424
-0.000204099
-0.00309816
-0.000242135
-0.00316355
-0.000281421
-0.00323218
-0.000321995
-0.00330502
-0.000363945
-0.00338273
-0.00040735
-0.00346602
-0.000452186
-0.00355557
-0.000498251
-0.00365139
-0.00375185
-0.000545199
2.51964e-06
-0.000360359
5.8074e-06
-0.000972762
6.25832e-06
-0.00149425
1.33562e-06
-0.00191701
-1.02169e-05
-0.00224247
-2.84036e-05
-0.00248165
-5.24361e-05
-0.00265187
-8.11493e-05
-0.00277262
-0.000113359
-0.00286179
-0.000148098
-0.00293353
-0.000184698
-0.00299764
-0.000222768
-0.00306009
-0.000262128
-0.00312419
-0.000302735
-0.00319158
-0.000344637
-0.00326312
-0.000387937
-0.00333943
-0.000432739
-0.00342122
-0.000479051
-0.00350926
-0.000526676
-0.00360376
2.0693e-06
-0.000362428
4.19848e-06
-0.000974891
2.98471e-06
-0.00149304
-3.88822e-06
-0.00191013
-1.74615e-05
-0.0022289
-3.76173e-05
-0.00246149
-6.34831e-05
-0.002626
-9.38682e-05
-0.00274223
-0.000127607
-0.00282805
-0.000163769
-0.00289737
-0.000201726
-0.00295968
-0.000241117
-0.0030207
-0.000281784
-0.00308352
-0.000323696
-0.00314966
-0.000366907
-0.00321991
-0.000411533
-0.00329481
-0.000457703
-0.00337505
-0.000505465
-0.00346149
1.61482e-06
-0.000364043
2.58732e-06
-0.000975864
-2.45546e-07
-0.0014902
-9.0645e-06
-0.00190131
-2.46276e-05
-0.00221333
-4.67049e-05
-0.00243942
-7.43551e-05
-0.00259835
-0.000106369
-0.00271022
-0.000141601
-0.00279282
-0.000179158
-0.00285981
-0.000218448
-0.00292039
-0.000259143
-0.00298001
-0.0003011
-0.00304156
-0.0003443
-0.00310646
-0.000388802
-0.0031754
-0.000434728
-0.00324888
-0.000482233
-0.00332755
1.15637e-06
-0.0003652
9.67504e-07
-0.000975675
-3.53057e-06
-0.00148571
-1.42022e-05
-0.00189064
-3.17076e-05
-0.00219583
-5.5659e-05
-0.00241546
-8.50465e-05
-0.00256897
-0.000118647
-0.00267662
-0.000155338
-0.00275613
-0.000194262
-0.00282089
-0.000234863
-0.00287979
-0.000276842
-0.00293803
-0.000320074
-0.00299833
-0.000364546
-0.00306199
-0.00041032
-0.00312963
-0.000457523
-0.00320168
6.91615e-07
-0.000365891
-6.51318e-07
-0.000974332
-6.76186e-06
-0.0014796
-1.92881e-05
-0.00187812
-3.86948e-05
-0.00217642
-6.4473e-05
-0.00238969
-9.55515e-05
-0.00253789
-0.000130699
-0.00264147
-0.000168814
-0.00271801
-0.000209077
-0.00278063
-0.000250968
-0.0028379
-0.000294213
-0.00289478
-0.000338702
-0.00295384
-0.000384432
-0.00301626
-0.000431461
-0.0030826
-0.00315323
1.89792e-07
-0.000366081
-2.27065e-06
-0.000971872
-9.97119e-06
-0.00147189
-2.43171e-05
-0.00186377
-4.55827e-05
-0.00215515
-7.3141e-05
-0.00236213
-0.000105865
-0.00250516
-0.000142519
-0.00260482
-0.000182026
-0.00267851
-0.000223602
-0.00273905
-0.00026676
-0.00279474
-0.000311252
-0.00285029
-0.000356983
-0.00290811
-0.000403954
-0.00296929
-0.000452225
-0.00303433
-2.79602e-07
-0.000365801
-3.87993e-06
-0.000968271
-1.31532e-05
-0.00146262
-2.9284e-05
-0.00184764
-5.23655e-05
-0.00213207
-8.16576e-05
-0.00233284
-0.000115984
-0.00247084
-0.000154105
-0.00256669
-0.000194971
-0.00263764
-0.000237833
-0.00269619
-0.000282237
-0.00275033
-0.000327956
-0.00280457
-0.000374912
-0.00286116
-0.000423111
-0.00292109
-7.17326e-07
-0.000365084
-5.47512e-06
-0.000963513
-1.63035e-05
-0.00145179
-3.41838e-05
-0.00182976
-5.9038e-05
-0.00210722
-9.00182e-05
-0.00230185
-0.000125903
-0.00243495
-0.000165454
-0.00252714
-0.000207647
-0.00259545
-0.000251769
-0.00265207
-0.000297396
-0.00270471
-0.000344324
-0.00275765
-0.000392487
-0.00281299
-0.00287168
-1.17906e-06
-0.000363905
-7.06026e-06
-0.000957632
-1.94182e-05
-0.00143943
-3.9012e-05
-0.00181017
-6.55953e-05
-0.00208064
-9.82182e-05
-0.00226923
-0.000135619
-0.00239755
-0.000176562
-0.0024862
-0.000220052
-0.00255196
-0.000265407
-0.00260671
-0.000312234
-0.00265788
-0.00036035
-0.00270953
-0.000409704
-0.00276364
-1.64315e-06
-0.000362262
-8.63253e-06
-0.000950643
-2.24939e-05
-0.00142557
-4.37642e-05
-0.00178889
-7.2033e-05
-0.00205237
-0.000106254
-0.00223501
-0.000145128
-0.00235868
-0.000187427
-0.0024439
-0.000232182
-0.0025072
-0.000278745
-0.00256015
-0.000326749
-0.00260988
-0.000376033
-0.00266025