/*--------------------------------*- C++ -*----------------------------------*\
  =========                 |
  \\      /  F ield         | OpenFOAM: The Open Source CFD Toolbox
   \\    /   O peration     | Website:  https://openfoam.org
    \\  /    A nd           | Version:  7
     \\/     M anipulation  |
\*---------------------------------------------------------------------------*/
FoamFile
{
    version     2.0;
    format      ascii;
    class       volVectorField;
    location    "95";
    object      U;
}
// * * * * * * * * * * * * * * * * * * * * * * * * * * * * * * * * * * * * * //

dimensions      [0 1 -1 0 0 0 0];

internalField   nonuniform List<vector> 
8500
(
(-0.00636236 0.00521996 1.46558e-19)
(-0.00583574 0.00464075 1.23063e-19)
(-0.00773563 0.00922607 -1.6203e-19)
(-0.00524487 0.00405811 7.73109e-19)
(-0.00547207 0.0075762 -4.58436e-19)
(0.00519125 0.0086371 -1.60041e-21)
(-0.0045819 0.00347113 -4.0197e-19)
(-0.0029552 0.005921 4.59703e-21)
(0.0101346 0.00616889 3.31917e-19)
(-0.00383823 0.00287889 -1.4031e-19)
(-0.000163114 0.00426389 8.45953e-20)
(0.0155771 0.00372629 1.22008e-19)
(0.0431187 0.00148213 -3.62319e-19)
(-0.00300456 0.00228073 7.20157e-19)
(0.00292687 0.00260861 -1.81102e-19)
(0.021551 0.00132198 -2.64045e-19)
(0.052567 -0.00137546 1.35323e-19)
(0.0960074 -0.00475882 6.44712e-19)
(-0.00207118 0.00167638 -3.24716e-19)
(0.00633788 0.000959637 5.02284e-20)
(0.028088 -0.00103091 -3.65741e-19)
(0.0628289 -0.00411361 -5.18616e-19)
(0.110547 -0.00753979 -2.23815e-19)
(0.171088 -0.0106437 -1.25776e-19)
(-0.00102814 0.00106615 -3.15529e-19)
(0.010093 -0.000677438 6.95455e-19)
(0.0352183 -0.00331812 4.35419e-19)
(0.0739361 -0.00670771 1.94907e-19)
(0.126168 -0.0100777 -7.03607e-20)
(0.191651 -0.0127558 -4.6323e-19)
(0.269792 -0.0141889 6.52189e-20)
(0.000134548 0.000451042 5.60648e-20)
(0.0142149 -0.00229569 -1.05843e-19)
(0.0429705 -0.00552404 7.76066e-20)
(0.0859153 -0.00913196 -1.8689e-19)
(0.142888 -0.0123368 3.96606e-19)
(0.213485 -0.0144661 7.20709e-19)
(0.296905 -0.0149876 2.23116e-19)
(0.391779 -0.0135001 1.39722e-19)
(0.0014267 -0.000167143 -1.88011e-19)
(0.0187251 -0.00388649 -4.38994e-19)
(0.0513702 -0.0076313 -3.32049e-19)
(0.0987886 -0.0113593 1.03933e-19)
(0.160714 -0.0142807 -5.63897e-19)
(0.236575 -0.0157314 -7.05015e-19)
(0.325318 -0.0152111 -9.57188e-20)
(0.425239 -0.0123778 -2.2166e-19)
(0.533829 -0.00710181 -2.3897e-20)
(0.00285781 -0.000785709 -1.44527e-19)
(0.023644 -0.00543938 -1.12539e-19)
(0.0604404 -0.00962043 5.11384e-19)
(0.112573 -0.0133608 -3.1673e-19)
(0.179646 -0.0158723 8.20929e-19)
(0.260888 -0.0165091 3.47493e-19)
(0.354959 -0.0148164 -2.28898e-19)
(0.459777 -0.0105273 -3.92957e-19)
(0.572398 -0.00362113 -6.28772e-19)
(0.689028 0.00564082 6.67187e-19)
(0.0044369 -0.00140106 2.83775e-19)
(0.02899 -0.00694195 4.63029e-19)
(0.0702001 -0.0114697 1.836e-20)
(0.127277 -0.0151059 2.90544e-19)
(0.199673 -0.0170737 -7.03348e-19)
(0.286383 -0.0167576 1.70283e-19)
(0.385738 -0.0137635 -1.10882e-19)
(0.49525 -0.00791744 -2.15696e-20)
(0.61152 0.000674543 -2.12589e-19)
(0.730326 0.0115997 -4.69794e-19)
(0.846929 0.0241604 2.32844e-19)
(0.00617237 -0.00200867 -5.11047e-20)
(0.0347797 -0.00837976 -6.96913e-19)
(0.0806645 -0.0131551 -5.38118e-19)
(0.142907 -0.0165619 -3.41173e-20)
(0.220778 -0.017846 1.22939e-19)
(0.313003 -0.0164362 -2.3805e-19)
(0.417553 -0.0120159 -4.89614e-22)
(0.5315 -0.004523 8.03533e-20)
(0.650985 0.00579219 1.18615e-19)
(0.771386 0.0183541 6.66061e-19)
(0.887718 0.0323089 2.76055e-19)
(0.995209 0.0466337 1.68779e-19)
(1.08991 0.0602896 -2.2427e-19)
(0.00807191 -0.00260313 9.00112e-20)
(0.0410273 -0.00973646 3.68943e-19)
(0.0918445 -0.0146505 2.31781e-19)
(0.159458 -0.0176944 -4.23811e-19)
(0.242929 -0.0181499 9.1433e-20)
(0.340682 -0.0155055 5.5894e-19)
(0.450287 -0.00954078 3.06611e-19)
(0.568359 -0.000324839 4.15926e-20)
(0.69058 0.0117312 3.75686e-19)
(0.811967 0.0258806 -7.65912e-19)
(0.927369 0.0411178 -2.1484e-19)
(1.0321 0.0563168 -9.19904e-20)
(1.12255 0.0704041 5.39814e-19)
(1.1966 0.0825164 -3.56135e-19)
(0.0101424 -0.00317817 -8.39995e-20)
(0.0477442 -0.0109938 -5.20819e-20)
(0.103746 -0.0159276 -1.34402e-19)
(0.176919 -0.0184676 4.45422e-19)
(0.266089 -0.0179457 2.97888e-19)
(0.369339 -0.0139278 -9.62064e-20)
(0.483813 -0.0063092 -1.7806e-20)
(0.60565 0.00468996 3.78771e-19)
(0.73009 0.0184833 -5.76947e-19)
(0.851844 0.0341489 3.52983e-19)
(0.965677 0.0505384 3.61213e-19)
(1.06709 0.0664441 9.55919e-20)
(1.15289 0.0807852 -1.92849e-19)
(1.22154 0.0927584 2.77084e-19)
(1.27311 0.101919 2.29202e-19)
(0.0123897 -0.0037267 -1.29622e-19)
(0.054939 -0.0121319 5.72077e-20)
(0.11637 -0.0169561 3.79165e-19)
(0.195274 -0.0188442 6.5914e-21)
(0.290208 -0.017194 -6.45061e-19)
(0.398884 -0.0116674 -4.43425e-19)
(0.517992 -0.00229683 -3.80498e-19)
(0.643188 0.010528 -2.00372e-19)
(0.769302 0.0260334 7.61722e-19)
(0.8908 0.0431227 -3.4481e-20)
(1.00246 0.0605187 1.01588e-19)
(1.10006 0.0769573 1.65838e-19)
(1.1809 0.0913784 -5.57767e-19)
(1.24404 0.103062 -4.43523e-19)
(1.29014 0.111684 1.19305e-19)
(1.32108 0.117276 -2.33424e-20)
(1.33949 0.120173 -4.61845e-19)
(0.0148189 -0.00424092 1.65195e-19)
(0.0626172 -0.0131292 2.0997e-19)
(0.129711 -0.0177046 -3.91102e-19)
(0.214494 -0.0187864 -2.11398e-20)
(0.315227 -0.0158559 7.54923e-19)
(0.429217 -0.00869174 4.74565e-19)
(0.552676 0.00251579 -1.90432e-19)
(0.680789 0.0171894 2.81091e-19)
(0.808011 0.0343598 -3.00952e-19)
(0.928642 0.0527607 -3.03504e-19)
(1.03756 0.0710054 3.08373e-19)
(1.13093 0.0878002 -6.24969e-19)
(1.20658 0.102134 7.87834e-20)
(1.2642 0.113392 2.98975e-19)
(1.30498 0.121379 -1.61752e-19)
(1.33122 0.126253 2.30063e-19)
(1.34577 0.128441 -2.77446e-19)
(1.35152 0.128388 4.57152e-20)
(0.0174338 -0.00471234 1.92798e-19)
(0.0707809 -0.0139629 -6.39246e-19)
(0.143759 -0.01814 1.03063e-19)
(0.234548 -0.0182559 -1.07319e-19)
(0.341078 -0.0138942 -2.66407e-19)
(0.460225 -0.00497139 -2.1226e-19)
(0.587714 0.00814286 1.91882e-19)
(0.718267 0.024668 -8.79394e-19)
(0.84602 0.0434351 -2.0505e-19)
(0.965193 0.0630183 1.33425e-19)
(1.07087 0.0819443 -1.69374e-19)
(1.15964 0.0989193 4.80968e-19)
(1.22996 0.113008 3.36635e-19)
(1.2821 0.123718 1.16254e-19)
(1.31778 0.130991 6.42125e-19)
(1.33964 0.135106 -6.31117e-19)
(1.35068 0.136577 3.87426e-19)
(1.35381 0.135913 5.41898e-19)
(1.35158 0.134078 -3.83323e-19)
(1.34561 0.12982 1.07151e-19)
(0.0202371 -0.00513192 1.51762e-20)
(0.0794287 -0.0146093 -6.78539e-21)
(0.158499 -0.0182289 4.66765e-19)
(0.255392 -0.017215 -6.68274e-20)
(0.367683 -0.0112734 -3.00306e-20)
(0.491791 -0.000480911 5.04741e-19)
(0.622946 0.014593 5.80167e-19)
(0.755439 0.0329518 1.60635e-19)
(0.883148 0.0532268 3.43367e-19)
(1.0003 0.0738481 -2.2426e-19)
(1.10228 0.0932824 -1.90766e-19)
(1.18618 0.110265 -4.95424e-21)
(1.25109 0.123961 -2.33058e-19)
(1.29787 0.134017 -9.07259e-21)
(1.32869 0.140511 -4.51013e-19)
(1.34649 0.143841 1.77125e-19)
(1.35437 0.144593 4.10987e-19)
(1.3552 0.14333 -2.06327e-19)
(1.3514 0.140971 2.36061e-19)
(1.34444 0.136419 4.20051e-19)
(0.0232303 -0.00549012 5.85217e-20)
(0.0885556 -0.0150437 -1.62935e-19)
(0.173907 -0.0179374 -9.70104e-21)
(0.276978 -0.0156266 5.11358e-21)
(0.394957 -0.00796075 -3.30203e-19)
(0.52379 0.00480075 -4.74561e-20)
(0.658214 0.0218693 -5.97768e-19)
(0.792127 0.0420228 6.21328e-19)
(0.919224 0.0636982 3.20127e-19)
(1.03384 0.0852013 2.93784e-20)
(1.13172 0.104968 -2.81117e-21)
(1.21055 0.121793 -1.67394e-19)
(1.27004 0.134962 9.79953e-20)
(1.31162 0.14427 2.67688e-19)
(1.33786 0.149936 -4.64287e-19)
(1.35193 0.152464 3.52795e-19)
(1.35698 0.152502 -4.23482e-19)
(1.3558 0.150656 -1.88584e-20)
(1.35065 0.147793 1.29783e-21)
(1.34289 0.142954 1.88706e-19)
(0.0264137 -0.005777 -1.28607e-19)
(0.0981529 -0.015241 -1.46347e-19)
(0.189956 -0.0172317 2.1117e-19)
(0.299247 -0.0134551 -9.39808e-20)
(0.422806 -0.00392648 -2.93128e-20)
(0.556088 0.0108898 -2.91736e-19)
(0.693356 0.0299688 3.27107e-19)
(0.828162 0.0518576 -5.88023e-19)
(0.954098 0.074809 5.29819e-20)
(1.06569 0.0970287 9.11955e-20)
(1.15915 0.116952 -4.91213e-20)
(1.23278 0.133461 3.52635e-20)
(1.28691 0.145983 -4.09784e-19)
(1.32348 0.154466 -3.12455e-19)
(1.34544 0.159265 2.6241e-19)
(1.35611 0.160983 -8.41401e-20)
(1.35864 0.160318 -5.01532e-19)
(1.35572 0.157905 -9.44212e-20)
(1.34942 0.154555 -4.14885e-19)
(1.34099 0.14944 -5.10181e-19)
(0.0297861 -0.00598233 -3.02948e-20)
(0.108208 -0.0151759 2.17081e-19)
(0.206612 -0.0160788 1.57252e-19)
(0.322136 -0.0106672 4.63623e-19)
(0.45113 0.000855318 -1.61448e-20)
(0.588553 0.0177973 2.49282e-19)
(0.728215 0.0388832 -5.28643e-19)
(0.863383 0.0624283 1.86464e-19)
(0.987634 0.0865166 -1.57367e-19)
(1.09578 0.109281 2.2603e-19)
(1.18456 0.129189 5.64139e-20)
(1.25291 0.145235 1.31451e-19)
(1.30177 0.157001 3.80031e-19)
(1.33358 0.164596 4.7059e-20)
(1.35157 0.168501 -2.34855e-19)
(1.35915 0.169408 3.88259e-19)
(1.35946 0.168054 1.36407e-19)
(1.35503 0.165091 -6.4232e-20)
(1.34777 0.161271 3.89852e-19)
(1.33879 0.155884 2.56617e-19)
(0.0333451 -0.00609569 9.889e-20)
(0.118704 -0.0148232 1.1187e-19)
(0.223836 -0.0144465 -2.78524e-19)
(0.345574 -0.00723162 -6.47302e-20)
(0.479821 0.00640643 8.28426e-20)
(0.621046 0.0255289 -4.85049e-20)
(0.762636 0.0485984 2.99126e-19)
(0.897643 0.0737025 -9.47687e-20)
(1.01972 0.0987763 -1.16936e-19)
(1.12404 0.121911 -3.99493e-19)
(1.20794 0.141636 -2.54094e-19)
(1.271 0.157082 -2.36163e-19)
(1.31475 0.168 -1.91575e-19)
(1.34206 0.174654 7.34e-20)
(1.35638 0.177649 -1.42365e-19)
(1.36119 0.17775 1.69736e-20)
(1.35953 0.175722 2.71587e-19)
(1.35381 0.172225 2.87549e-19)
(1.34575 0.16795 2.03207e-20)
(1.33632 0.162297 1.78666e-19)
(0.0370867 -0.00610657 5.04227e-20)
(0.129622 -0.0141581 1.89757e-19)
(0.241581 -0.0123043 1.51282e-19)
(0.369482 -0.00312059 -2.52958e-19)
(0.508771 0.0127441 2.34357e-19)
(0.653429 0.0340847 -7.59955e-20)
(0.796471 0.0590952 -1.63092e-19)
(0.930806 0.0856443 3.9299e-19)
(1.05025 0.111542 -9.90632e-20)
(1.15044 0.134871 -3.16543e-21)
(1.22931 0.154253 2.72878e-19)
(1.28712 0.168975 -2.45309e-19)
(1.32596 0.178964 1.07932e-19)
(1.34903 0.184638 -2.71695e-19)
(1.35999 0.186714 4.583e-19)
(1.36232 0.186018 -3.47267e-19)
(1.35895 0.183334 -2.09221e-19)
(1.35213 0.179318 -2.27543e-21)
(1.3434 0.174599 -3.06099e-19)
(1.33361 0.168682 -3.72861e-21)
(0.0410055 -0.00600448 -2.28259e-19)
(0.140936 -0.0131565 -8.51945e-20)
(0.259796 -0.00962373 -2.80733e-19)
(0.39378 0.00169039 -1.5553e-19)
(0.537863 0.0198805 -8.12995e-20)
(0.685565 0.0434596 -3.85463e-20)
(0.829578 0.0703495 1.80285e-19)
(0.96275 0.0982147 -9.93606e-20)
(1.07915 0.124769 -4.80827e-20)
(1.17494 0.148118 1.22784e-19)
(1.24872 0.167005 -1.65855e-19)
(1.30137 0.180891 2.12528e-19)
(1.33549 0.189883 2.04512e-19)
(1.35462 0.194548 4.63193e-20)
(1.36252 0.195703 -1.30121e-19)
(1.36264 0.194222 -3.03578e-20)
(1.35778 0.190898 -1.7907e-19)
(1.35002 0.186376 -7.61006e-20)
(1.34074 0.181224 1.25508e-19)
(1.33066 0.175046 -2.12942e-19)
(0.0450946 -0.00577907 7.51021e-20)
(0.152618 -0.0117954 -1.28851e-19)
(0.278427 -0.00637844 2.19609e-19)
(0.418378 0.00722189 1.03635e-19)
(0.566982 0.0278231 -1.49391e-19)
(0.717321 0.0536428 1.84811e-19)
(0.861825 0.0823329 4.66028e-20)
(0.993369 0.111372 -8.44422e-20)
(1.10637 0.13841 2.26931e-19)
(1.19755 0.161609 6.79689e-20)
(1.2662 0.179859 1.29863e-19)
(1.31381 0.19281 -1.34043e-19)
(1.34346 0.20075 -8.98608e-20)
(1.35894 0.204386 1.90359e-19)
(1.36407 0.204622 -5.47389e-20)
(1.36223 0.20237 3.13555e-19)
(1.35609 0.198422 1.66051e-19)
(1.34754 0.193407 -2.74507e-20)
(1.3378 0.18783 9.13161e-20)
(1.3275 0.18139 3.47215e-19)
(0.0493457 -0.00542024 -3.72862e-20)
(0.164638 -0.0100528 2.0848e-20)
(0.297413 -0.00254496 -1.99534e-19)
(0.443186 0.0134903 1.29152e-19)
(0.59601 0.0365739 1.21592e-19)
(0.748564 0.0646184 -1.74665e-19)
(0.893088 0.0950129 8.08348e-20)
(1.02257 0.125074 -1.58386e-19)
(1.13185 0.152421 -2.26855e-19)
(1.21827 0.175304 8.23745e-20)
(1.28181 0.192786 1.52564e-20)
(1.32456 0.204716 1.29847e-19)
(1.34998 0.211558 8.7408e-20)
(1.36209 0.214153 -5.99375e-20)
(1.36472 0.213478 -1.25409e-20)
(1.36116 0.21047 -4.76969e-20)
(1.35392 0.205913 -2.48881e-19)
(1.34472 0.200414 2.09292e-20)
(1.33461 0.194418 -1.65112e-19)
(1.32412 0.187715 1.63448e-21)
(0.053749 -0.00491825 -4.15547e-20)
(0.17696 -0.00790862 -5.35642e-20)
(0.316688 0.00189715 2.10648e-19)
(0.46811 0.0205075 -2.64949e-20)
(0.624829 0.0461296 1.27415e-21)
(0.77917 0.0763655 -1.18118e-19)
(0.923256 0.108353 -2.12621e-20)
(1.05028 0.139276 8.49447e-20)
(1.15556 0.166756 2.9194e-19)
(1.23712 0.189167 -9.435e-20)
(1.29562 0.205761 1.61033e-20)
(1.33368 0.216594 5.1868e-20)
(1.35515 0.222305 -1.01806e-19)
(1.36416 0.223851 -6.58597e-20)
(1.36456 0.222275 1.78061e-20)
(1.3595 0.218527 6.21613e-20)
(1.35132 0.213376 1.5872e-19)
(1.34157 0.207401 -4.20301e-21)
(1.33117 0.200989 6.06567e-20)
(1.32055 0.19402 4.16388e-20)
(0.0582932 -0.00426383 7.23471e-20)
(0.189547 -0.00534447 1.49397e-19)
(0.336186 0.00696496 1.03603e-19)
(0.493052 0.0282807 -5.73604e-20)
(0.653323 0.0564817 2.13942e-19)
(0.809019 0.0888586 1.27504e-19)
(0.952227 0.122315 -1.92516e-19)
(1.07642 0.153933 -6.76168e-20)
(1.17749 0.181373 8.6289e-22)
(1.25415 0.203161 -5.70834e-20)
(1.30769 0.21876 -1.65651e-19)
(1.34129 0.228433 2.77766e-20)
(1.35906 0.232986 2.81812e-22)
(1.36526 0.233484 -1.7635e-19)
(1.36367 0.231019 8.1243e-20)
(1.3573 0.226547 -4.40213e-20)
(1.34832 0.220813 -1.95017e-19)
(1.33812 0.214367 9.48907e-20)
(1.32749 0.207542 -2.01562e-19)
(1.31677 0.200304 -1.21296e-19)
(0.0629657 -0.00344831 -2.53869e-20)
(0.202355 -0.00234403 -6.42241e-20)
(0.355834 0.012672 -1.07917e-19)
(0.517915 0.0368123 -5.24642e-21)
(0.681377 0.0676167 -1.03513e-20)
(0.837999 0.102068 -1.20259e-19)
(0.979911 0.136858 2.80337e-20)
(1.10096 0.168999 2.63947e-20)
(1.19764 0.196229 -5.50744e-20)
(1.26937 0.217256 4.50579e-21)
(1.3181 0.231763 8.72655e-20)
(1.34746 0.240222 -1.15388e-20)
(1.3618 0.243599 6.70835e-20)
(1.36545 0.243053 3.02655e-20)
(1.36209 0.239714 -1.66961e-19)
(1.35459 0.234531 1.29133e-20)
(1.34495 0.228226 1.03408e-19)
(1.33439 0.221314 -2.4766e-20)
(1.32358 0.214077 4.84806e-21)
(1.31279 0.206565 -1.69859e-20)
(0.0677526 -0.0024637 -2.32001e-20)
(0.215343 0.00110667 -2.27423e-20)
(0.37556 0.0190277 -4.06391e-20)
(0.5426 0.0461 -2.69487e-20)
(0.708882 0.0795159 -7.10785e-20)
(0.866006 0.115959 8.29756e-20)
(1.00623 0.151936 1.65469e-19)
(1.12385 0.184428 5.80822e-20)
(1.21601 0.211286 2.99306e-20)
(1.28285 0.23142 -7.1907e-20)
(1.32693 0.244749 -7.99103e-22)
(1.35227 0.251952 4.72629e-20)
(1.36346 0.254142 -6.10831e-20)
(1.3648 0.25256 2.34329e-20)
(1.35989 0.24836 7.95093e-20)
(1.35143 0.242481 -2.76206e-20)
(1.34123 0.235613 -4.92543e-20)
(1.33038 0.228238 -4.58838e-20)
(1.31945 0.22059 1.64042e-19)
(1.30861 0.212798 5.76833e-20)
(0.0726386 -0.00130283 -4.12417e-20)
(0.228464 0.00501911 5.01586e-20)
(0.395287 0.026038 -1.15113e-20)
(0.56701 0.0561364 3.65575e-20)
(0.735731 0.0921562 -3.30746e-20)
(0.892944 0.130496 -2.03464e-20)
(1.03112 0.167506 -8.02655e-20)
(1.14506 0.200176 9.37591e-21)
(1.23262 0.226503 2.29508e-20)
(1.29464 0.245625 5.20203e-20)
(1.33424 0.257703 -2.05002e-20)
(1.35582 0.263616 -1.61018e-20)
(1.36411 0.264613 1.49369e-20)
(1.36339 0.262005 -2.64059e-20)
(1.35712 0.256959 6.05051e-20)
(1.34783 0.250396 4.04749e-20)
(1.33718 0.242974 -6.93734e-21)
(1.32611 0.235136 -4.58665e-21)
(1.31509 0.227076 -4.42578e-20)
(1.30424 0.219 -5.54761e-20)
(0.0776075 4.05842e-05 8.87815e-21)
(0.241668 0.00940208 -1.56376e-20)
(0.414939 0.0337042 1.07788e-20)
(0.591048 0.0669093 -1.49194e-20)
(0.761823 0.10551 -5.7609e-20)
(0.918725 0.145636 2.68668e-20)
(1.05452 0.18352 1.32448e-20)
(1.16458 0.216197 -6.30571e-20)
(1.24749 0.241844 -4.00115e-20)
(1.30478 0.259846 -3.83994e-21)
(1.34011 0.270608 -5.64176e-20)
(1.35818 0.275205 5.86802e-20)
(1.36382 0.275009 -1.18113e-22)
(1.36125 0.271387 -7.91356e-21)
(1.3538 0.265511 -1.5376e-20)
(1.34382 0.258276 7.56523e-21)
(1.33281 0.250305 5.3416e-21)
(1.32158 0.242005 -2.08559e-21)
(1.31051 0.233532 -1.61706e-20)
(1.29966 0.225165 1.9777e-20)
(0.0826418 0.00157186 2.95775e-21)
(0.254907 0.0142615 1.02919e-20)
(0.434438 0.0420236 5.78007e-21)
(0.61462 0.0784019 -2.70634e-21)
(0.787062 0.119544 3.80011e-20)
(0.943271 0.161338 -8.55208e-21)
(1.07638 0.199932 1.36713e-20)
(1.18241 0.232448 3.04175e-20)
(1.26067 0.257273 -5.51587e-21)
(1.31335 0.274057 1.3912e-21)
(1.34461 0.283449 1.54844e-20)
(1.35942 0.286711 -8.30606e-21)
(1.36265 0.285327 1.08592e-20)
(1.35845 0.280705 1.9858e-21)
(1.34998 0.274013 -2.08112e-20)
(1.33943 0.266116 1.0343e-21)
(1.32813 0.257601 2.73095e-20)
(1.31679 0.248839 -5.71735e-21)
(1.3057 0.239951 8.53452e-21)
(1.29488 0.231286 -9.59863e-21)
(0.0877236 0.00329526 1.20816e-21)
(0.26813 0.0196005 1.51343e-20)
(0.453709 0.0509896 8.23603e-21)
(0.637634 0.0905927 -1.69276e-21)
(0.811359 0.134224 3.49473e-20)
(0.966513 0.177556 -9.94123e-21)
(1.09668 0.216693 1.87018e-20)
(1.19855 0.248884 2.52942e-20)
(1.27217 0.272756 -5.26207e-21)
(1.3204 0.288234 1.18826e-21)
(1.34781 0.296212 1.74973e-20)
(1.3596 0.298129 -7.11254e-21)
(1.36066 0.295563 7.0481e-21)
(1.35502 0.289956 -1.75475e-21)
(1.34568 0.282462 -1.68935e-20)
(1.33466 0.273913 -5.0036e-22)
(1.32315 0.264858 2.70294e-20)
(1.31175 0.255632 -5.32664e-21)
(1.30068 0.246326 1.00455e-20)
(1.28989 0.237359 -1.07784e-20)
(0.0928341 0.00521394 1.05287e-20)
(0.281285 0.0254191 -1.94258e-20)
(0.472674 0.0605909 9.94858e-21)
(0.660003 0.103456 -8.0756e-21)
(0.834632 0.149509 -5.53246e-20)
(0.988391 0.194241 2.26006e-20)
(1.11538 0.233754 1.03634e-20)
(1.213 0.265463 -7.13212e-20)
(1.28205 0.28826 -3.00793e-20)
(1.32598 0.302355 -2.70504e-23)
(1.34978 0.308884 -4.71105e-20)
(1.3588 0.309449 3.9566e-20)
(1.3579 0.305712 -8.95319e-21)
(1.351 0.299136 5.66656e-21)
(1.34093 0.290853 -2.21492e-20)
(1.32953 0.281659 1.69192e-20)
(1.31787 0.272068 1.08426e-20)
(1.30645 0.262376 -1.9353e-21)
(1.29542 0.252652 -2.15885e-20)
(1.28469 0.243375 1.97361e-20)
(0.0979531 0.00732987 -2.27278e-20)
(0.294319 0.0317142 -1.04344e-20)
(0.491258 0.0708124 -1.53178e-20)
(0.681642 0.116962 5.28549e-20)
(0.856804 0.165358 2.76706e-22)
(1.00885 0.211344 -2.83838e-20)
(1.13246 0.251067 -1.16164e-19)
(1.22578 0.282143 1.14758e-20)
(1.29034 0.303754 1.33429e-20)
(1.33016 0.316399 5.92599e-20)
(1.35058 0.321451 8.95129e-21)
(1.35705 0.320663 -5.05492e-20)
(1.35441 0.315769 4.77903e-20)
(1.34642 0.308239 -1.93926e-20)
(1.33574 0.29918 7.35777e-20)
(1.32405 0.289349 -6.77732e-21)
(1.3123 0.279223 3.84112e-21)
(1.3009 0.269063 3.32049e-21)
(1.28995 0.258919 -5.73384e-20)
(1.27929 0.249328 -3.45292e-20)
(0.103061 0.00964376 -8.53194e-21)
(0.307179 0.0384796 -5.00689e-20)
(0.509388 0.0816349 3.97598e-20)
(0.702471 0.131076 -5.07992e-20)
(0.877807 0.181724 -9.16527e-20)
(1.02786 0.228816 8.03786e-20)
(1.14793 0.268584 1.3296e-19)
(1.23692 0.298884 4.78019e-20)
(1.29709 0.319205 3.334e-20)
(1.333 0.330344 -9.59253e-20)
(1.35026 0.3339 7.38369e-20)
(1.35442 0.331763 8.57225e-21)
(1.35023 0.325726 -9.41729e-20)
(1.34131 0.317258 3.69417e-20)
(1.33013 0.307436 1.31774e-19)
(1.31824 0.296974 -9.08536e-20)
(1.30645 0.286315 -2.60291e-20)
(1.29509 0.275685 -2.51943e-20)
(1.28424 0.265119 1.16741e-19)
(1.27368 0.255208 6.67281e-20)
(0.108136 0.0121551 5.93233e-20)
(0.319814 0.045706 -1.0132e-19)
(0.526991 0.0930351 -1.48342e-19)
(0.722417 0.14576 6.72647e-21)
(0.89758 0.198559 -2.68375e-20)
(1.04537 0.246603 -1.10266e-19)
(1.16176 0.286256 -1.87848e-20)
(1.24645 0.315645 5.69648e-20)
(1.30236 0.334586 -9.20269e-20)
(1.33455 0.34417 7.56876e-20)
(1.34888 0.346216 8.81419e-20)
(1.35095 0.342739 -5.57829e-20)
(1.3454 0.335576 2.29355e-20)
(1.33569 0.326186 1.16319e-19)
(1.32412 0.315611 -1.56082e-19)
(1.31208 0.304525 2.73855e-20)
(1.3003 0.293334 7.46459e-20)
(1.28904 0.282233 -2.2687e-20)
(1.2783 0.271245 -2.42566e-20)
(1.26785 0.261009 -4.11058e-21)
(0.113159 0.0148619 8.72057e-20)
(0.332173 0.0533811 1.63112e-19)
(0.544001 0.104986 8.7169e-20)
(0.741409 0.160974 -1.03981e-19)
(0.916068 0.215813 2.72711e-19)
(1.06136 0.264653 4.22144e-20)
(1.17397 0.304034 -1.16781e-19)
(1.25438 0.332388 -8.45154e-20)
(1.30618 0.349866 -6.77427e-20)
(1.33486 0.357857 2.27369e-20)
(1.3465 0.358387 -7.71834e-20)
(1.34669 0.353582 2.50993e-21)
(1.33995 0.345309 -5.27329e-20)
(1.32958 0.335014 -7.23601e-20)
(1.31771 0.323697 -1.23617e-20)
(1.3056 0.311992 -7.6572e-21)
(1.29387 0.300271 -1.3805e-19)
(1.28272 0.288697 1.04521e-19)
(1.27214 0.277285 -1.59075e-19)
(1.26181 0.266721 -9.2666e-20)
(0.118108 0.0177613 -1.05694e-19)
(0.344205 0.0614895 -4.37561e-20)
(0.560352 0.117457 1.95321e-19)
(0.759385 0.176674 4.99608e-20)
(0.933225 0.233433 -1.71397e-19)
(1.0758 0.282913 -9.9595e-20)
(1.18457 0.321872 -3.30752e-20)
(1.26077 0.349073 2.16153e-19)
(1.30861 0.365017 1.55131e-19)
(1.334 0.371386 -5.3332e-20)
(1.34316 0.370398 -3.1109e-20)
(1.34167 0.364278 7.88491e-20)
(1.33391 0.354916 -8.6187e-20)
(1.323 0.343731 4.01891e-20)
(1.31091 0.331683 1.75073e-20)
(1.29879 0.319365 -2.20801e-20)
(1.28715 0.307115 1.67879e-19)
(1.27616 0.295067 -7.09413e-20)
(1.26574 0.283231 1.43329e-19)
(1.25556 0.272335 -5.0353e-20)
(0.122964 0.0208488 -5.91974e-20)
(0.355861 0.070013 -1.1e-19)
(0.575983 0.130415 -1.75378e-19)
(0.776285 0.192813 1.06313e-19)
(0.949012 0.251366 5.8549e-20)
(1.0887 0.301331 -8.35137e-20)
(1.19358 0.339723 1.40006e-19)
(1.26563 0.365663 -2.16684e-19)
(1.30969 0.380012 -2.31173e-19)
(1.332 0.384736 1.40141e-19)
(1.3389 0.382235 5.2571e-20)
(1.33592 0.374818 -5.8802e-20)
(1.3273 0.364385 8.9516e-20)
(1.31596 0.352326 7.05531e-20)
(1.30374 0.339558 -5.17358e-20)
(1.29165 0.326631 -1.76613e-20)
(1.28015 0.313854 -1.27995e-19)
(1.26933 0.301331 2.61965e-20)
(1.25911 0.289073 -1.09517e-19)
(1.24909 0.277843 -1.78161e-20)
(0.127705 0.0241186 4.92456e-20)
(0.367094 0.0789307 -8.60274e-20)
(0.590835 0.143823 1.58024e-19)
(0.792058 0.209341 2.6831e-19)
(0.963394 0.269557 -3.87535e-19)
(1.10003 0.319851 3.42616e-19)
(1.201 0.357539 9.20582e-20)
(1.26902 0.382123 -1.34134e-19)
(1.30948 0.394824 1.59428e-19)
(1.32892 0.397887 9.44084e-20)
(1.33378 0.393882 1.17457e-19)
(1.32949 0.385188 -2.04642e-19)
(1.32014 0.373705 -4.2275e-20)
(1.30848 0.360788 1.01908e-19)
(1.29619 0.347309 3.90328e-20)
(1.28419 0.333779 1.80204e-19)
(1.27286 0.320476 2.26807e-19)
(1.26225 0.30748 -5.60041e-20)
(1.25225 0.2948 9.75459e-20)
(1.24242 0.283234 1.09227e-19)
(0.132312 0.0275641 -1.4056e-20)
(0.37786 0.0882189 -1.99367e-19)
(0.604855 0.15764 -2.75787e-19)
(0.806659 0.226206 -3.61666e-19)
(0.976346 0.28795 -3.4906e-20)
(1.10981 0.338421 1.33571e-19)
(1.20686 0.375276 -2.58931e-20)
(1.27097 0.398415 4.55441e-20)
(1.30801 0.409425 -7.03768e-20)
(1.3248 0.41082 1.17967e-19)
(1.32782 0.405325 -1.80915e-19)
(1.3224 0.395375 2.36681e-19)
(1.31245 0.382863 1.36436e-19)
(1.30056 0.369104 6.22028e-20)
(1.28828 0.354924 -9.33386e-20)
(1.27642 0.340796 -1.00054e-19)
(1.26529 0.326971 -9.53249e-20)
(1.25491 0.313501 7.00221e-21)
(1.24515 0.3004 1.26422e-19)
(1.23553 0.288497 -1.32736e-19)
(0.136765 0.0311769 -2.50056e-20)
(0.388115 0.0978514 1.55847e-19)
(0.617995 0.171826 1.96537e-19)
(0.820046 0.243357 -3.07008e-20)
(0.987849 0.306488 9.27936e-20)
(1.11803 0.356988 2.47045e-20)
(1.2112 0.392888 -1.3614e-19)
(1.27152 0.414504 1.08301e-19)
(1.30534 0.423789 1.01677e-19)
(1.31969 0.423514 -1.77671e-19)
(1.32106 0.416546 2.86698e-19)
(1.31467 0.405363 -2.39728e-19)
(1.30425 0.391844 1.38728e-19)
(1.29223 0.37726 -2.02896e-19)
(1.28001 0.36239 2.99421e-19)
(1.26833 0.347669 -1.89649e-19)
(1.25743 0.333324 -5.55073e-20)
(1.24732 0.319382 -7.48289e-20)
(1.23782 0.30586 -1.58029e-19)
(1.22843 0.293619 2.53113e-21)
(0.141047 0.034948 1.81363e-19)
(0.39782 0.1078 1.94031e-19)
(0.630209 0.186334 -2.81176e-19)
(0.832186 0.260739 -1.71583e-19)
(0.997889 0.325114 2.56054e-19)
(1.1247 0.375499 -1.02618e-19)
(1.21404 0.410331 1.50214e-19)
(1.27072 0.430356 6.4939e-20)
(1.30151 0.43789 -1.51656e-19)
(1.31363 0.43595 -3.77383e-19)
(1.31354 0.427529 -6.78353e-20)
(1.30633 0.41514 -1.4211e-19)
(1.29555 0.400635 -2.12014e-19)
(1.28348 0.385241 1.72811e-20)
(1.27139 0.369691 -2.22855e-20)
(1.25992 0.354386 -2.12068e-20)
(1.24929 0.339525 1.73492e-19)
(1.23947 0.325114 1.2519e-19)
(1.23026 0.311174 1.40032e-20)
(1.22109 0.298596 7.25435e-20)
(0.145137 0.0388669 -4.36496e-20)
(0.406937 0.118034 3.42986e-19)
(0.641457 0.20112 1.34471e-19)
(0.84305 0.278294 2.74083e-19)
(1.00646 0.34377 8.93039e-20)
(1.12984 0.393902 3.40719e-20)
(1.21542 0.427561 -2.18756e-19)
(1.2686 0.445937 -7.08719e-20)
(1.29657 0.451703 3.54136e-20)
(1.30666 0.448108 2.80287e-19)
(1.30529 0.438258 -9.22401e-20)
(1.2974 0.424687 1.14627e-19)
(1.28638 0.40922 2.42668e-19)
(1.27433 0.393034 5.55336e-20)
(1.26241 0.376815 -4.87283e-20)
(1.2512 0.360931 6.55955e-20)
(1.24087 0.34556 1.24706e-19)
(1.23137 0.330684 5.68158e-20)
(1.22246 0.316342 1.45488e-19)
(1.21351 0.303437 1.09929e-19)
(0.149021 0.0429222 -1.13453e-19)
(0.415432 0.128521 -1.7616e-19)
(0.651704 0.216133 1.12211e-19)
(0.852617 0.295968 3.77019e-20)
(1.01355 0.362401 7.53858e-20)
(1.13348 0.412145 -3.10329e-19)
(1.21536 0.444537 1.13102e-19)
(1.26522 0.461214 -2.4459e-19)
(1.29055 0.4652 -1.36094e-19)
(1.29881 0.459966 1.59482e-19)
(1.29634 0.448714 -1.7245e-20)
(1.28791 0.433991 1.06054e-20)
(1.27674 0.417584 -2.95026e-19)
(1.26478 0.400622 -1.19381e-19)
(1.25309 0.383746 9.86044e-20)
(1.24218 0.367292 -1.72993e-19)
(1.23218 0.351416 -9.30746e-20)
(1.22301 0.33608 -9.39654e-20)
(1.21444 0.321352 -1.63499e-19)
(1.20575 0.308101 -3.72817e-19)
(0.15268 0.0471016 6.63211e-20)
(0.423273 0.139227 -8.27133e-20)
(0.66092 0.231326 -4.532e-19)
(0.860868 0.313701 2.4556e-19)
(1.01918 0.380947 -3.07139e-19)
(1.13562 0.430178 -4.34972e-20)
(1.2139 0.461216 -4.2497e-19)
(1.2606 0.476154 4.54643e-19)
(1.28351 0.478358 2.60699e-19)
(1.29013 0.471504 -1.58751e-20)
(1.28672 0.45888 9.3793e-20)
(1.27788 0.443033 -1.18849e-19)
(1.26665 0.425711 -9.56868e-21)
(1.25485 0.407991 5.58494e-20)
(1.24343 0.39047 -5.79748e-20)
(1.23285 0.373453 1.08918e-19)
(1.2232 0.357079 -1.45068e-19)
(1.21441 0.34129 -1.29763e-19)
(1.20619 0.326182 7.36906e-20)
(1.19782 0.312596 9.91157e-20)
(0.156102 0.0513919 1.50718e-19)
(0.430432 0.150116 1.52256e-19)
(0.669079 0.246646 1.18364e-19)
(0.867792 0.331438 -3.50271e-21)
(1.02334 0.399354 -7.90372e-20)
(1.1363 0.44795 5.40581e-19)
(1.2111 0.477558 3.08521e-19)
(1.25481 0.490725 2.09069e-19)
(1.27548 0.49115 2.98684e-19)
(1.28064 0.482701 3.67658e-20)
(1.27644 0.468737 -2.51253e-19)
(1.26732 0.451797 -2.68611e-20)
(1.25612 0.433585 -5.49904e-20)
(1.24454 0.415124 -1.80032e-19)
(1.23344 0.396971 -6.75664e-20)
(1.22322 0.379402 -9.53745e-20)
(1.21396 0.362536 2.98269e-19)
(1.20556 0.346301 -3.91178e-21)
(1.19772 0.33082 8.3549e-20)
(1.18968 0.316906 6.64485e-20)
(0.15927 0.0557789 -5.06333e-20)
(0.436883 0.16115 -8.8197e-20)
(0.67616 0.262042 -1.93987e-19)
(0.873384 0.34912 -3.3164e-20)
(1.02606 0.417565 -3.24526e-19)
(1.13554 0.465414 -2.35071e-19)
(1.20697 0.493523 7.81237e-20)
(1.24787 0.504895 -5.71731e-19)
(1.2665 0.503552 -3.11639e-19)
(1.27039 0.493536 7.57618e-20)
(1.26555 0.478267 -3.93254e-20)
(1.25625 0.460265 2.28758e-19)
(1.24517 0.441187 3.1288e-19)
(1.23386 0.422005 7.94687e-20)
(1.22312 0.403233 2.16116e-19)
(1.2133 0.385122 -1.13595e-19)
(1.20445 0.367774 1.56029e-19)
(1.19647 0.351102 8.72941e-20)
(1.18903 0.335255 7.55462e-20)
(1.18135 0.321019 -1.43137e-19)
(0.162174 0.0602479 7.51936e-20)
(0.442606 0.172293 -8.55469e-21)
(0.682147 0.277462 -2.99388e-19)
(0.877641 0.366689 -5.77082e-22)
(1.02734 0.435526 7.30804e-19)
(1.13339 0.482521 1.46603e-19)
(1.20158 0.509072 1.11532e-19)
(1.23984 0.518635 3.30751e-19)
(1.25661 0.515539 -2.68661e-19)
(1.2594 0.50399 -2.90122e-19)
(1.25406 0.48745 -2.8186e-21)
(1.24469 0.46842 -2.07596e-19)
(1.2338 0.448503 -1.16148e-19)
(1.22283 0.428619 3.1365e-19)
(1.21249 0.409243 -8.29579e-20)
(1.20308 0.3906 6.09964e-21)
(1.19467 0.372779 -1.1341e-19)
(1.18714 0.35568 -1.72002e-19)
(1.18013 0.339477 1.02748e-20)
(1.17283 0.324927 1.61851e-19)
(0.1648 0.0647834 -3.63606e-19)
(0.447582 0.183505 2.28704e-19)
(0.687028 0.292853 5.13725e-19)
(0.880569 0.384089 1.62089e-19)
(1.02721 0.453182 -8.58894e-19)
(1.12987 0.499225 -3.5765e-19)
(1.19495 0.524168 -2.81386e-19)
(1.23076 0.531913 -1.03118e-19)
(1.24586 0.527087 3.51869e-19)
(1.2477 0.51404 3.82674e-20)
(1.24201 0.496269 -7.46642e-20)
(1.23266 0.476244 1.37989e-19)
(1.22203 0.455514 2.02683e-20)
(1.21144 0.434948 -3.74182e-19)
(1.20153 0.414984 1.12584e-19)
(1.19259 0.395823 1.50455e-19)
(1.18463 0.377538 7.20709e-20)
(1.17758 0.360022 9.85356e-20)
(1.17101 0.343474 -1.72885e-19)
(1.16411 0.328619 -8.36823e-20)
(0.16714 0.0693695 -2.47581e-20)
(0.451795 0.194747 1.15124e-19)
(0.690796 0.308162 5.76466e-20)
(0.882174 0.401262 1.72424e-19)
(1.02569 0.47048 4.7939e-19)
(1.12502 0.515481 -3.13849e-19)
(1.18713 0.538774 -1.87864e-20)
(1.22067 0.544702 3.06224e-19)
(1.23427 0.538172 -3.74385e-19)
(1.23534 0.523666 1.22775e-19)
(1.2294 0.504703 3.18382e-19)
(1.22017 0.483718 7.31902e-20)
(1.20988 0.462203 -1.58891e-19)
(1.19972 0.440978 2.68778e-19)
(1.19028 0.420441 -3.14254e-19)
(1.18181 0.400774 9.3936e-21)
(1.17434 0.382039 -7.39472e-20)
(1.16778 0.364116 1.29041e-19)
(1.16169 0.347235 1.14542e-19)
(1.15522 0.332086 1.01131e-19)
(0.169184 0.0739895 4.70474e-20)
(0.455234 0.205977 1.83656e-19)
(0.693449 0.323336 1.82863e-19)
(0.882469 0.418154 -1.17863e-19)
(1.02282 0.487369 1.04331e-20)
(1.11888 0.531244 2.91138e-19)
(1.17816 0.552854 5.19746e-19)
(1.2096 0.556972 -5.38579e-20)
(1.2219 0.54877 5.0844e-20)
(1.22233 0.532847 -1.52654e-19)
(1.21627 0.512735 -3.25524e-19)
(1.20725 0.490825 5.28082e-20)
(1.19735 0.468554 1.86444e-19)
(1.18766 0.446691 -3.82518e-20)
(1.17873 0.4256 -3.00679e-20)
(1.17076 0.405442 -1.24992e-19)
(1.1638 0.386267 -2.14542e-20)
(1.15776 0.36795 -4.99277e-20)
(1.15217 0.35075 -4.06502e-20)
(1.14614 0.335318 -9.35018e-20)
(0.170925 0.0786268 -1.6165e-19)
(0.457891 0.217157 -4.20684e-19)
(0.694987 0.338323 -6.30346e-19)