/*--------------------------------*- C++ -*----------------------------------*\
  =========                 |
  \\      /  F ield         | OpenFOAM: The Open Source CFD Toolbox
   \\    /   O peration     | Website:  https://openfoam.org
    \\  /    A nd           | Version:  7
     \\/     M anipulation  |
\*---------------------------------------------------------------------------*/
FoamFile
{
    version     2.0;
    format      ascii;
    class       volVectorField;
    location    "15";
    object      U;
}
// * * * * * * * * * * * * * * * * * * * * * * * * * * * * * * * * * * * * * //

dimensions      [0 1 -1 0 0 0 0];

internalField   nonuniform List<vector> 
8500
(
(-0.0086859 0.00670962 9.86227e-20)
(-0.00858973 0.00639417 8.29855e-20)
(-0.0179436 0.0147041 -1.0942e-19)
(-0.00843448 0.00605294 5.2296e-19)
(-0.0169222 0.0136848 -3.10415e-19)
(-0.0170731 0.0185708 -1.41233e-21)
(-0.00821327 0.00568575 -2.72021e-19)
(-0.0156795 0.0126084 2.71246e-21)
(-0.0142057 0.0169454 2.24878e-19)
(-0.00791886 0.00529275 -9.54478e-20)
(-0.0141959 0.0114779 5.7102e-20)
(-0.0109063 0.0152681 8.30052e-20)
(0.00181381 0.0172484 -2.45547e-19)
(-0.00754372 0.00487449 4.89945e-19)
(-0.0124508 0.0102971 -1.23546e-19)
(-0.00714415 0.0135486 -1.79509e-19)
(0.00819291 0.0151978 9.22663e-20)
(0.0336087 0.0160483 4.37692e-19)
(-0.0070801 0.00443192 -2.2076e-19)
(-0.0104238 0.00907126 3.37594e-20)
(-0.00288842 0.0117982 -2.49673e-19)
(0.0152907 0.013158 -3.5302e-19)
(0.0441319 0.0139774 -1.52015e-19)
(0.083649 0.0149845 -8.52091e-20)
(-0.00652001 0.00396647 -2.15397e-19)
(-0.00809406 0.0078068 4.75213e-19)
(0.00189114 0.0100302 2.9693e-19)
(0.0231431 0.0111503 1.32912e-19)
(0.0556424 0.0120139 -4.80392e-20)
(0.0993469 0.0133615 -3.1542e-19)
(0.154129 0.01582 4.41685e-20)
(-0.00585538 0.0034801 3.83272e-20)
(-0.00544086 0.00651156 -7.18358e-20)
(0.00722397 0.00826001 5.28935e-20)
(0.0317842 0.00919863 -1.27642e-19)
(0.0681726 0.0101901 2.70782e-19)
(0.116276 0.011983 4.91047e-19)
(0.175854 0.0151993 1.52128e-19)
(0.246436 0.020346 9.54539e-20)
(-0.00507805 0.00297528 -1.2915e-19)
(-0.00244385 0.00519484 -3.01235e-19)
(0.0131383 0.00650506 -2.28291e-19)
(0.0412448 0.00732908 7.13118e-20)
(0.0817495 0.00854085 -3.86079e-19)
(0.13445 0.0108912 -4.81639e-19)
(0.198968 0.0149889 -6.48678e-20)
(0.274634 0.0213102 -1.50671e-19)
(0.36033 0.030161 -1.54458e-20)
(-0.00417987 0.00245508 -9.96597e-20)
(0.000916849 0.00386743 -7.78635e-20)
(0.0196607 0.00478489 3.51374e-19)
(0.0515527 0.00557031 -2.17618e-19)
(0.0963943 0.00710333 5.62943e-19)
(0.153873 0.0101299 2.3773e-19)
(0.223447 0.0152359 -1.56519e-19)
(0.30421 0.0228537 -2.68531e-19)
(0.394738 0.0332174 -4.29417e-19)
(0.492973 0.0463206 4.56678e-19)
(-0.00315277 0.00192316 1.95962e-19)
(0.00466034 0.00254164 3.19546e-19)
(0.0268158 0.00312115 1.29489e-20)
(0.0627314 0.00395323 1.99647e-19)
(0.112121 0.00591659 -4.83185e-19)
(0.17454 0.00974376 1.17014e-19)
(0.249252 0.0159865 -7.65164e-20)
(0.335079 0.0250185 -1.50617e-20)
(0.430257 0.0369844 -1.46338e-19)
(0.532334 0.0517568 -3.22652e-19)
(0.638185 0.0689119 1.60348e-19)
(-0.00198886 0.00138379 -3.52412e-20)
(0.0088047 0.00123136 -4.82253e-19)
(0.0346255 0.00153759 -3.72038e-19)
(0.0747999 0.00251093 -2.37202e-20)
(0.128937 0.0050214 8.46567e-20)
(0.196435 0.00977821 -1.63888e-19)
(0.276328 0.0172857 -8.59049e-22)
(0.367137 0.0278425 5.48393e-20)
(0.466722 0.0414855 8.10297e-20)
(0.572225 0.0579483 4.59081e-19)
(0.680138 0.0766497 1.90917e-19)
(0.786532 0.096727 1.17208e-19)
(0.887438 0.117125 -1.57346e-19)
(-0.000680494 0.000841857 6.26577e-20)
(0.0133667 -4.8022e-05 2.55743e-19)
(0.0431092 5.98926e-05 1.60021e-19)
(0.0877719 0.00127841 -2.93983e-19)
(0.146841 0.00445983 6.32098e-20)
(0.219528 0.0102785 3.85685e-19)
(0.304609 0.0191764 2.11379e-19)
(0.400264 0.0313592 2.81515e-20)
(0.503956 0.0467366 2.5954e-19)
(0.612413 0.0648873 -5.29862e-19)
(0.72177 0.0850639 -1.49592e-19)
(0.827876 0.106253 -6.41235e-20)
(0.926737 0.127297 3.81249e-19)
(1.015 0.147044 -2.53578e-19)
(0.000779642 0.000302893 -5.84382e-20)
(0.0183617 -0.0012796 -3.62664e-20)
(0.0522825 -0.00128437 -9.37668e-20)
(0.101655 0.000292352 3.08523e-19)
(0.165822 0.00427481 2.06996e-19)
(0.24378 0.0112893 -6.62642e-20)
(0.33401 0.0216987 -1.17853e-20)
(0.434322 0.0355964 2.61938e-19)
(0.541764 0.0527462 -3.99924e-19)
(0.652656 0.0725573 2.45405e-19)
(0.762815 0.0941121 2.52344e-19)
(0.86794 0.116257 6.76215e-20)
(0.964109 0.137751 -1.35321e-19)
(1.04826 0.157437 1.98213e-19)
(1.11852 0.174402 1.63858e-19)
(0.0023984 -0.000226965 -9.09185e-20)
(0.0238029 -0.00244504 4.00928e-20)
(0.0621575 -0.00246596 2.64437e-19)
(0.116452 -0.000409196 4.39868e-21)
(0.18586 0.00450962 -4.4805e-19)
(0.269136 0.0128539 -3.082e-19)
(0.364433 0.0248889 -2.63854e-19)
(0.469162 0.040576 -1.38926e-19)
(0.579944 0.0595146 5.29618e-19)
(0.692712 0.0809333 -2.35588e-20)
(0.803017 0.103745 7.23366e-20)
(0.906494 0.126672 1.18844e-19)
(0.999387 0.148416 -3.97351e-19)
(1.07901 0.167847 -3.19894e-19)
(1.14399 0.184146 8.57998e-20)
(1.19432 0.196873 -1.66504e-20)
(1.23111 0.206 -3.44647e-19)
(0.00418211 -0.000740963 1.15615e-19)
(0.0297018 -0.00352466 1.47678e-19)
(0.0727419 -0.00345412 -2.73447e-19)
(0.132156 -0.000787188 -1.49116e-20)
(0.206927 0.00520737 5.26538e-19)
(0.295533 0.0150134 3.29924e-19)
(0.395766 0.0287791 -1.3294e-19)
(0.504621 0.0463131 1.96199e-19)
(0.618287 0.0670341 -2.10159e-19)
(0.732343 0.0899828 -2.13165e-19)
(0.842141 0.11391 2.18514e-19)
(0.94334 0.137431 -4.42881e-19)
(1.03244 0.159226 5.64047e-20)
(1.10721 0.178219 2.16019e-19)
(1.16682 0.19371 -1.18823e-19)
(1.21178 0.205412 1.71272e-19)
(1.24362 0.213437 -2.07557e-19)
(1.26452 0.218078 3.4374e-20)
(0.00613642 -0.00123176 1.35597e-19)
(0.0360672 -0.00449751 -4.49265e-19)
(0.084039 -0.0042169 7.21385e-20)
(0.148756 -0.000801988 -7.5452e-20)
(0.228983 0.00641042 -1.85464e-19)
(0.322892 0.0178064 -1.48838e-19)
(0.427887 0.0333963 1.33863e-19)
(0.540525 0.0528162 -6.15278e-19)
(0.656581 0.0752896 -1.44489e-19)
(0.771319 0.0996668 9.36056e-20)
(0.879972 0.124548 -1.18816e-19)
(0.978315 0.148469 3.43816e-19)
(1.0632 0.170118 2.42661e-19)
(1.13288 0.188505 8.48436e-20)
(1.18709 0.20307 4.71826e-19)
(1.22685 0.213682 -4.68498e-19)
(1.25406 0.220593 2.89655e-19)
(1.27111 0.224217 4.12607e-19)
(1.28051 0.225487 -2.95867e-19)
(1.28431 0.223738 8.31665e-20)
(0.00826627 -0.00169145 1.0844e-20)
(0.0429054 -0.00534155 -4.79729e-21)
(0.0960471 -0.00472133 3.28836e-19)
(0.166232 -0.000413806 -4.74303e-20)
(0.251979 0.00815979 -2.05795e-20)
(0.351124 0.0212681 3.53681e-19)
(0.460659 0.0387622 4.07539e-19)
(0.576696 0.0600865 1.11926e-19)
(0.694615 0.0842586 2.41328e-19)
(0.809425 0.109941 -1.59446e-19)
(0.916322 0.1356 -1.3586e-19)
(1.01129 0.159724 -2.54294e-21)
(1.0916 0.181038 -1.6804e-19)
(1.15606 0.198669 -6.01533e-21)
(1.20494 0.212209 -3.31977e-19)
(1.23971 0.221687 1.31898e-19)
(1.26263 0.227488 3.11443e-19)
(1.27621 0.230129 -1.5762e-19)
(1.28297 0.230549 1.82271e-19)
(1.2849 0.22822 3.30498e-19)
(0.0105757 -0.00211162 4.18224e-20)
(0.0502196 -0.00603379 -1.15553e-19)
(0.108759 -0.00493381 -6.80644e-21)
(0.184555 0.000416827 3.1702e-21)
(0.275855 0.0104946 -2.32567e-19)
(0.380131 0.0254297 -3.30137e-20)
(0.493938 0.0448925 -4.20452e-19)
(0.61295 0.0681185 4.3838e-19)
(0.732183 0.0939124 2.2694e-19)
(0.846461 0.120756 2.01286e-20)
(0.95103 0.147008 -2.33013e-21)
(1.04217 0.171136 -1.20356e-19)
(1.11765 0.191939 7.1531e-20)
(1.17681 0.208681 1.97197e-19)
(1.22049 0.221118 -3.4442e-19)
(1.25056 0.229439 2.63749e-19)
(1.26952 0.234145 -3.2026e-19)
(1.27999 0.235844 -1.45573e-20)
(1.28445 0.235467 1.51456e-21)
(1.28479 0.232601 1.48912e-19)
(0.0130678 -0.00248335 -9.14481e-20)
(0.0580101 -0.00655047 -1.04659e-19)
(0.122162 -0.00482042 1.49801e-19)
(0.20369 0.00172858 -6.68082e-20)
(0.300544 0.0134513 -2.106e-20)
(0.409801 0.030318 -2.06248e-19)
(0.527573 0.0517967 2.31389e-19)
(0.649102 0.0768996 -4.16356e-19)
(0.769089 0.104216 3.84452e-20)
(0.882247 0.132062 6.45861e-20)
(0.983964 0.158713 -3.59349e-20)
(1.07091 0.182652 2.56054e-20)
(1.14136 0.202782 -2.99884e-19)
(1.19525 0.218521 -2.30423e-19)
(1.2339 0.229799 1.94282e-19)
(1.25957 0.236952 -6.30561e-20)
(1.27492 0.240591 -3.8146e-19)
(1.28264 0.241392 -7.36925e-20)
(1.28511 0.240271 -3.23992e-19)
(1.2841 0.236908 -4.03508e-19)
(0.0157445 -0.00279735 -2.17102e-20)
(0.0662737 -0.00686724 1.54503e-19)
(0.136238 -0.00434726 1.12491e-19)
(0.223594 0.00355883 3.2977e-19)
(0.325966 0.0170636 -1.17824e-20)
(0.440018 0.0359546 1.76576e-19)
(0.561407 0.0594781 -3.75593e-19)
(0.68497 0.086411 1.32606e-19)
(0.805148 0.115131 -1.11583e-19)
(0.916624 0.143806 1.62968e-19)
(1.01502 0.170659 4.03039e-20)
(1.09746 0.194225 9.65069e-20)
(1.16277 0.213535 2.78589e-19)
(1.21148 0.228178 3.49896e-20)
(1.24534 0.238255 -1.76113e-19)
(1.26691 0.244246 2.9324e-19)
(1.279 0.246851 1.04344e-19)
(1.28429 0.246803 -4.98046e-20)
(1.28505 0.244987 3.04185e-19)
(1.28291 0.241164 2.03149e-19)
(0.0186068 -0.00304395 7.11406e-20)
(0.0750037 -0.00695944 8.02474e-20)
(0.150964 -0.00348085 -1.989e-19)
(0.244216 0.00594314 -4.56261e-20)
(0.352036 0.0213613 5.90308e-20)
(0.470656 0.0423561 -3.48157e-20)
(0.595281 0.0679336 2.13004e-19)
(0.720376 0.0966282 -6.79425e-20)
(0.840187 0.126613 -8.38691e-20)
(0.949458 0.155935 -2.879e-19)
(1.04413 0.182795 -1.85489e-19)
(1.12182 0.205814 -1.72488e-19)
(1.18197 0.224173 -1.41872e-19)
(1.22562 0.237644 5.47488e-20)
(1.25494 0.246497 -1.07728e-19)
(1.27275 0.251341 1.30925e-20)
(1.28192 0.252952 2.0777e-19)
(1.28509 0.252101 2.22414e-19)
(1.28438 0.249635 1.63731e-20)
(1.28129 0.245387 1.42291e-19)
(0.0216542 -0.00321322 3.6693e-20)
(0.0841897 -0.00680229 1.37036e-19)
(0.166308 -0.00218853 1.08639e-19)
(0.265496 0.00891483 -1.81047e-19)
(0.378659 0.0263703 1.68217e-19)
(0.501583 0.0495334 -5.47741e-20)
(0.629036 0.077154 -1.17279e-19)
(0.755149 0.107521 2.82785e-19)
(0.874053 0.138618 -7.15214e-20)
(0.980637 0.168395 -2.72233e-21)
(1.07124 0.195073 1.99069e-19)
(1.14403 0.217381 -1.80378e-19)
(1.19904 0.234677 7.98117e-20)
(1.23781 0.246919 -2.03025e-19)
(1.26288 0.254538 3.45349e-19)
(1.27725 0.258259 -2.63805e-19)
(1.28382 0.258918 -1.6049e-19)
(1.28513 0.25731 -1.71276e-21)
(1.28318 0.254237 -2.40116e-19)
(1.27931 0.249592 -2.89786e-21)
(0.0248851 -0.00329504 -1.65184e-19)
(0.0938176 -0.00637117 -6.08233e-20)
(0.182236 -0.000438807 -2.02412e-19)
(0.287369 0.0125044 -1.12302e-19)
(0.405734 0.0321122 -5.78891e-20)
(0.532666 0.0574918 -2.80146e-20)
(0.662512 0.0871243 1.29409e-19)
(0.789129 0.119056 -7.10613e-20)
(0.906608 0.151098 -3.50205e-20)
(1.01007 0.181138 8.90368e-20)
(1.09632 0.207447 -1.22035e-19)
(1.16412 0.228899 1.56831e-19)
(1.21406 0.245036 1.52309e-19)
(1.24818 0.256007 3.4088e-20)
(1.2693 0.262393 -9.8347e-20)
(1.28055 0.265021 -2.36684e-20)
(1.28481 0.264772 -1.37874e-19)
(1.28453 0.26245 -5.92528e-20)
(1.28152 0.258807 9.81458e-20)
(1.277 0.253792 -1.70755e-19)
(0.0282962 -0.00327922 5.47633e-20)
(0.103869 -0.00564189 -9.32222e-20)
(0.198705 0.00179819 1.58841e-19)
(0.309764 0.0167394 7.44194e-20)
(0.433155 0.0386036 -1.07782e-19)
(0.563766 0.0662306 1.3374e-19)
(0.695555 0.0978238 3.34533e-20)
(0.822166 0.131193 -6.1068e-20)
(0.937733 0.164004 1.65545e-19)
(1.0377 0.194113 4.97526e-20)
(1.11938 0.219879 9.55739e-20)
(1.18215 0.240341 -9.96394e-20)
(1.22717 0.255242 -6.67142e-20)
(1.25686 0.264914 1.43465e-19)
(1.27434 0.270079 -4.13366e-20)
(1.28277 0.271649 2.39851e-19)
(1.28501 0.270534 1.28137e-19)
(1.28336 0.26754 -2.16833e-20)
(1.27947 0.263358 7.18613e-20)
(1.27441 0.257995 2.7778e-19)
(0.0318832 -0.00315556 -2.71206e-20)
(0.114323 -0.00459097 1.52624e-20)
(0.215669 0.00455036 -1.45334e-19)
(0.3326 0.0216435 9.3719e-20)
(0.460811 0.0458562 8.79842e-20)
(0.594746 0.0757436 -1.26265e-19)
(0.728017 0.109227 5.89133e-20)
(0.854123 0.143893 -1.15726e-19)
(0.967329 0.177288 -1.6625e-19)
(1.06347 0.207276 6.08707e-20)
(1.14044 0.232335 1.13529e-20)
(1.1982 0.25169 9.65956e-20)
(1.23845 0.265292 6.63505e-20)
(1.264 0.273649 -4.51165e-20)
(1.27813 0.277613 -9.54097e-21)
(1.28405 0.278161 -3.64975e-20)
(1.28451 0.276224 -1.92799e-19)
(1.28169 0.272592 1.60416e-20)
(1.27705 0.2679 -1.30618e-19)
(1.27155 0.262207 1.14745e-21)
(0.0356398 -0.002914 -3.06023e-20)
(0.125154 -0.00319589 -3.92854e-20)
(0.233075 0.00784324 1.53741e-19)
(0.355795 0.0272366 -1.91221e-20)
(0.488586 0.0538765 7.28866e-22)
(0.625469 0.0860191 -8.60449e-20)
(0.759756 0.121304 -1.5173e-20)
(0.884879 0.157111 6.20958e-20)
(0.995316 0.190902 2.15113e-19)
(1.08737 0.220584 -6.96386e-20)
(1.15952 0.244783 1.22871e-20)
(1.21234 0.262931 3.87846e-20)
(1.24803 0.275184 -7.64676e-20)
(1.26971 0.282223 -4.99423e-20)
(1.28079 0.285011 1.341e-20)
(1.28446 0.284576 4.78546e-20)
(1.28339 0.281856 1.23205e-19)
(1.27957 0.27762 -3.30352e-21)
(1.27432 0.272441 4.80328e-20)
(1.26846 0.266432 3.35007e-20)
(0.0395588 -0.00254468 5.33404e-20)
(0.136331 -0.00143542 1.09996e-19)
(0.250866 0.0116997 7.63188e-20)
(0.37926 0.0335344 -4.19349e-20)
(0.516363 0.0626657 1.56726e-19)
(0.655801 0.09704 9.35214e-20)
(0.79064 0.13402 -1.41469e-19)
(0.914324 0.170803 -4.99118e-20)
(1.02163 0.204799 1.08041e-21)
(1.10937 0.233997 -4.23994e-20)
(1.17667 0.257198 -1.24184e-19)
(1.22467 0.274052 2.08107e-20)
(1.25602 0.284923 2.51335e-22)
(1.2741 0.290648 -1.34552e-19)
(1.28242 0.292288 6.23423e-20)
(1.28412 0.29091 -3.39164e-20)
(1.28172 0.287443 -1.51817e-19)
(1.27705 0.282631 7.43695e-20)
(1.2713 0.276985 -1.59942e-19)
(1.26514 0.27067 -9.77764e-20)
(0.0436311 -0.00203812 -1.86894e-20)
(0.147823 0.000710142 -4.71814e-20)
(0.268981 0.0161394 -7.93292e-20)
(0.402904 0.040548 -3.84999e-21)
(0.544027 0.0722197 -7.15917e-21)
(0.685611 0.108784 -8.86345e-20)
(0.820546 0.147337 2.03761e-20)
(0.942367 0.184923 1.94522e-20)
(1.04622 0.218935 -4.08666e-20)
(1.1295 0.247479 3.43003e-21)
(1.19195 0.269557 6.54507e-20)
(1.23528 0.285046 -8.79692e-21)
(1.26253 0.294511 5.11642e-20)
(1.2773 0.298935 2.29965e-20)
(1.28313 0.29946 -1.28707e-19)
(1.28309 0.297175 9.91448e-21)
(1.27955 0.292995 8.04796e-20)
(1.27417 0.287632 -1.95213e-20)
(1.26801 0.281536 3.69237e-21)
(1.26161 0.274922 -1.3749e-20)
(0.0478463 -0.00138526 -1.7184e-20)
(0.159594 0.0032587 -1.68652e-20)
(0.287354 0.021179 -3.00903e-20)
(0.426631 0.048284 -1.99703e-20)
(0.571458 0.0825291 -5.22855e-20)
(0.714776 0.121225 6.1332e-20)
(0.849363 0.161216 1.228e-19)
(0.968929 0.199424 4.33531e-20)
(1.06907 0.233266 2.24545e-20)
(1.14777 0.260997 -5.40731e-20)
(1.20542 0.281841 -5.05016e-22)
(1.24426 0.295907 3.58275e-20)
(1.26766 0.303953 -4.65821e-20)
(1.2794 0.307095 1.80637e-20)
(1.28301 0.306538 6.11771e-20)
(1.28144 0.303382 -2.14733e-20)
(1.27692 0.298521 -3.84678e-20)
(1.27096 0.292626 -3.61194e-20)
(1.26446 0.286092 1.30494e-19)
(1.25788 0.279185 4.66341e-20)
(0.0521925 -0.000577644 -3.08452e-20)
(0.171603 0.00622613 3.74237e-20)
(0.305917 0.0268313 -8.60872e-21)
(0.450345 0.0567442 2.71191e-20)
(0.598542 0.0935794 -2.44803e-20)
(0.743176 0.13433 -1.51455e-20)
(0.876989 0.175613 -5.98529e-20)
(0.993946 0.214259 7.22125e-21)
(1.09014 0.24775 1.74209e-20)
(1.16422 0.274521 3.92682e-20)
(1.21716 0.294034 -1.54196e-20)
(1.2517 0.306632 -1.23317e-20)
(1.27152 0.313256 1.14059e-20)
(1.28049 0.315138 -2.03525e-20)
(1.28212 0.313533 4.68276e-20)
(1.27922 0.309541 3.14397e-20)
(1.27388 0.304024 -5.46008e-21)
(1.26744 0.297616 -3.62462e-21)
(1.26068 0.290654 -3.51764e-20)
(1.25394 0.283458 -4.48137e-20)
(0.0566566 0.000392523 6.65738e-21)
(0.183808 0.00962599 -1.17211e-20)
(0.324596 0.0331053 8.03101e-21)
(0.473948 0.0659253 -1.11293e-20)
(0.625166 0.105351 -4.30643e-20)
(0.770701 0.148066 2.01081e-20)
(0.903336 0.190483 9.80858e-21)
(1.01737 0.229383 -4.74293e-20)
(1.10945 0.262349 -3.01772e-20)
(1.17888 0.288025 -2.91908e-21)
(1.22723 0.306123 -4.3011e-20)
(1.2577 0.317218 4.49068e-20)
(1.27419 0.322424 -9.32307e-23)
(1.28066 0.323073 -6.12453e-21)
(1.28053 0.320454 -1.18429e-20)
(1.27649 0.315657 5.88458e-21)
(1.27046 0.309509 4.14462e-21)
(1.26363 0.3026 -1.67393e-21)
(1.25666 0.295219 -1.29032e-20)
(1.24981 0.287734 1.60135e-20)
(0.061224 0.00153225 2.23671e-21)
(0.196166 0.0134694 7.73992e-21)
(0.343319 0.0400063 4.33863e-21)
(0.497343 0.0758194 -2.03557e-21)
(0.65122 0.11782 2.8462e-20)
(0.797247 0.162394 -6.39612e-21)
(0.928326 0.20578 1.02559e-20)
(1.03916 0.244749 2.29754e-20)
(1.127 0.277024 -4.19008e-21)
(1.1918 0.301482 1.05305e-21)
(1.23572 0.318096 1.18304e-20)
(1.26233 0.327665 -6.37141e-21)
(1.27577 0.331464 8.37551e-21)
(1.27998 0.330908 1.52078e-21)
(1.2783 0.327308 -1.61771e-20)
(1.27329 0.321734 7.92392e-22)
(1.26668 0.314976 2.14659e-20)
(1.25954 0.307578 -4.54281e-21)
(1.25241 0.299784 6.79506e-21)
(1.24548 0.29201 -7.76791e-21)
(0.0658794 0.00284767 9.26536e-22)
(0.208629 0.0177648 1.14723e-20)
(0.36201 0.0475351 6.21835e-21)
(0.520432 0.0864138 -1.27586e-21)
(0.6766 0.130958 2.64427e-20)
(0.822722 0.177273 -7.53355e-21)
(0.951895 0.221458 1.42391e-20)
(1.05929 0.260315 1.92898e-20)
(1.14281 0.291741 -4.01573e-21)
(1.20304 0.314871 9.11604e-22)
(1.2427 0.329942 1.34868e-20)
(1.2657 0.337971 -5.49685e-21)
(1.27632 0.340378 5.48424e-21)
(1.27851 0.338647 -1.3611e-21)
(1.27549 0.334098 -1.32207e-20)
(1.26964 0.327774 -3.92647e-22)
(1.26256 0.320424 2.13112e-20)
(1.25518 0.312546 -4.23676e-21)
(1.24794 0.304342 8.02178e-21)
(1.24095 0.296278 -8.73572e-21)
(0.070606 0.00434398 8.06122e-21)
(0.22115 0.0225179 -1.47694e-20)
(0.380593 0.0556888 7.57802e-21)
(0.543122 0.0976909 -6.13584e-21)
(0.701207 0.144731 -4.1928e-20)
(0.847039 0.192657 1.71661e-20)
(0.973988 0.237467 8.02408e-21)
(1.07775 0.276035 -5.45845e-20)
(1.15689 0.306468 -2.3154e-20)
(1.21266 0.328172 -1.88032e-23)
(1.24824 0.341652 -3.64109e-20)
(1.26787 0.348136 3.06906e-20)
(1.27593 0.349171 -6.95237e-21)
(1.27632 0.346296 4.42777e-21)
(1.27213 0.340828 -1.74065e-20)
(1.26558 0.333778 1.33105e-20)
(1.25813 0.32585 8.60128e-21)
(1.25056 0.317499 -1.51784e-21)
(1.24325 0.308889 -1.72672e-20)
(1.23622 0.300533 1.60432e-20)
(0.075386 0.00602528 -1.74752e-20)
(0.233676 0.0277315 -7.98178e-21)
(0.398991 0.0644599 -1.16388e-20)
(0.565318 0.109629 4.03145e-20)
(0.724948 0.159103 1.04247e-22)
(0.870123 0.208502 -2.16743e-20)
(0.99456 0.253761 -8.90184e-20)
(1.09454 0.291869 8.63661e-21)
(1.1693 0.321171 1.01576e-20)
(1.2207 0.341364 4.58794e-20)
(1.25242 0.353218 6.82066e-21)
(1.26892 0.358158 -3.92572e-20)
(1.27466 0.357845 3.72898e-20)
(1.27345 0.353856 -1.51511e-20)
(1.26825 0.347498 5.7705e-20)
(1.26113 0.339742 -5.28483e-21)
(1.25338 0.33125 3.05153e-21)
(1.24568 0.322431 2.64344e-21)
(1.23834 0.313417 -4.59577e-20)
(1.2313 0.304767 -2.8119e-20)
(0.0802007 0.00789456 -6.68878e-21)
(0.246158 0.0334051 -3.84562e-20)
(0.417127 0.073837 3.04536e-20)
(0.58693 0.122201 -3.88327e-20)
(0.747734 0.174034 -7.05046e-20)
(0.891908 0.224759 6.18156e-20)
(1.01358 0.270291 1.02395e-19)
(1.10965 0.307774 3.68494e-20)
(1.18005 0.335822 2.57847e-20)
(1.22724 0.354431 -7.44768e-20)
(1.2553 0.364632 5.73993e-20)
(1.26892 0.368036 6.73847e-21)
(1.27256 0.3664 -7.36503e-20)
(1.26995 0.361328 2.89171e-20)
(1.2639 0.354107 1.03681e-19)
(1.2563 0.345664 -7.16386e-20)
(1.24833 0.336618 -2.06451e-20)
(1.24055 0.327334 -2.0082e-20)
(1.23321 0.317919 9.35254e-20)
(1.22618 0.308971 5.42876e-20)
(0.085031 0.00995361 4.57846e-20)
(0.258543 0.0395354 -7.84527e-20)
(0.434927 0.0838043 -1.1444e-19)
(0.607874 0.135376 5.16317e-21)
(0.769488 0.189481 -2.11562e-20)
(0.912335 0.241378 -8.50285e-20)
(1.03102 0.287008 -1.42078e-20)
(1.12311 0.323711 4.42958e-20)
(1.1892 0.350392 -7.1681e-20)
(1.23234 0.367354 5.89683e-20)
(1.25697 0.375886 6.89824e-20)
(1.26793 0.377766 -4.3617e-20)
(1.26969 0.374835 1.7917e-20)
(1.26587 0.368711 9.14669e-20)
(1.25909 0.360651 -1.22802e-19)
(1.25112 0.351538 2.16691e-20)
(1.24298 0.341947 5.9286e-20)
(1.23518 0.332202 -1.80418e-20)
(1.22786 0.322386 -1.93948e-20)
(1.22086 0.313138 -3.32841e-21)
(0.0898572 0.012203 6.79252e-20)
(0.27078 0.0461158 1.26277e-19)
(0.452316 0.0943421 6.70691e-20)
(0.628068 0.149121 -8.0523e-20)
(0.790136 0.205398 2.10939e-19)
(0.931356 0.258308 3.26619e-20)
(1.04687 0.303865 -9.07536e-20)
(1.13492 0.33964 -6.58066e-20)
(1.19679 0.364853 -5.32153e-20)
(1.23605 0.380119 1.77616e-20)
(1.25747 0.386971 -6.04329e-20)
(1.26601 0.387345 1.99822e-21)
(1.2661 0.383149 -4.14734e-20)
(1.26122 0.376001 -5.6903e-20)
(1.25384 0.367125 -9.77111e-21)
(1.24558 0.357358 -6.08747e-21)
(1.23735 0.347229 -1.09575e-19)
(1.22955 0.337025 8.34084e-20)
(1.22229 0.326809 -1.27479e-19)
(1.21534 0.317258 -7.53936e-20)
(0.094659 0.0146421 -8.25453e-20)
(0.282817 0.0531369 -3.39898e-20)
(0.469224 0.105427 1.51945e-19)
(0.647434 0.163396 3.86023e-20)
(0.809612 0.221735 -1.33043e-19)
(0.948931 0.275498 -7.77254e-20)
(1.06112 0.320816 -2.61707e-20)
(1.14511 0.355526 1.69368e-19)
(1.20286 0.379181 1.21719e-19)
(1.23843 0.392708 -4.2034e-20)
(1.25687 0.39788 -2.45835e-20)
(1.26322 0.396769 6.21561e-20)
(1.26183 0.391337 -6.80791e-20)
(1.25604 0.383194 3.16722e-20)
(1.24818 0.373524 1.3883e-20)
(1.23971 0.363115 -1.74883e-20)
(1.23143 0.352456 1.33391e-19)
(1.22367 0.341794 -5.66066e-20)
(1.2165 0.331179 1.14995e-19)
(1.20962 0.321322 -4.09805e-20)
(0.0994162 0.0172688 -4.6665e-20)
(0.294603 0.0605858 -8.61205e-20)
(0.48558 0.117031 -1.36682e-19)
(0.665902 0.178161 8.29882e-20)
(0.82786 0.238443 4.59323e-20)
(0.965029 0.292896 -6.59388e-20)
(1.07376 0.337812 1.09707e-19)
(1.15372 0.37133 -1.70211e-19)
(1.20747 0.393348 -1.82036e-19)
(1.23955 0.405108 1.10418e-19)
(1.25523 0.408603 4.14244e-20)
(1.25959 0.406032 -4.6218e-20)
(1.25691 0.399394 7.05218e-20)
(1.25036 0.390284 5.57217e-20)
(1.24212 0.379839 -4.09484e-20)
(1.23351 0.3688 -1.40303e-20)
(1.22523 0.357616 -1.01727e-19)
(1.21755 0.346498 2.10006e-20)
(1.21049 0.335487 -8.76857e-20)
(1.2037 0.325322 -1.43428e-20)
(0.104108 0.0200799 3.87527e-20)
(0.306088 0.0684471 -6.79244e-20)
(0.50132 0.129124 1.24137e-19)
(0.683406 0.193371 2.11008e-19)
(0.844828 0.25547 -3.04294e-19)
(0.979626 0.31045 2.69137e-19)
(1.08482 0.354809 7.27806e-20)
(1.16077 0.387017 -1.06159e-19)
(1.21067 0.407332 1.25946e-19)
(1.23945 0.417301 7.48199e-20)
(1.25259 0.41913 9.31177e-20)
(1.25519 0.415126 -1.61895e-19)
(1.25138 0.407314 -3.35833e-20)
(1.2442 0.397262 8.07232e-20)
(1.23567 0.386061 3.09011e-20)
(1.22698 0.374404 1.43015e-19)
(1.21875 0.362701 1.80417e-19)
(1.21118 0.351128 -4.46194e-20)
(1.20426 0.339721 7.8324e-20)
(1.19758 0.329246 8.89602e-20)
(0.108715 0.023071 -1.14609e-20)
(0.317223 0.0767021 -1.58246e-19)
(0.516381 0.141672 -2.1725e-19)
(0.699886 0.208979 -2.84496e-19)
(0.860474 0.272761 -2.8261e-20)
(0.992705 0.328106 1.05809e-19)
(1.09429 0.371761 -2.00696e-20)
(1.1663 0.402553 3.55934e-20)
(1.2125 0.421108 -5.57058e-20)
(1.2382 0.429273 9.39251e-20)
(1.24902 0.429452 -1.43423e-19)
(1.25003 0.424044 1.87865e-19)
(1.24526 0.415089 1.08152e-19)
(1.23758 0.404121 4.94655e-20)
(1.22884 0.392181 -7.40738e-20)
(1.22013 0.379916 -7.93976e-20)
(1.21199 0.367698 -7.58426e-20)
(1.20457 0.355672 5.63332e-21)
(1.19781 0.34387 1.01398e-19)
(1.19126 0.333086 -1.0783e-19)
(0.113216 0.026236 -2.0239e-20)
(0.327961 0.0853296 1.22923e-19)
(0.530705 0.154638 1.55437e-19)
(0.715287 0.224936 -2.45543e-20)
(0.874763 0.290262 7.3009e-20)
(1.00426 0.345812 2.00291e-20)
(1.1022 0.388624 -1.07847e-19)
(1.17035 0.417904 8.59815e-20)
(1.21302 0.434652 8.1012e-20)
(1.23585 0.441009 -1.41133e-19)
(1.24456 0.439558 2.28377e-19)
(1.24417 0.432777 -1.9049e-19)
(1.23859 0.422709 1.10357e-19)
(1.2305 0.410849 -1.61038e-19)
(1.22164 0.398188 2.37714e-19)
(1.21297 0.385323 -1.50642e-19)
(1.20495 0.372595 -4.41058e-20)
(1.19771 0.360119 -5.96079e-20)
(1.19113 0.347924 -1.26445e-19)
(1.18474 0.336831 2.14376e-21)
(0.117591 0.0295681 1.44877e-19)
(0.338257 0.0943056 1.54376e-19)
(0.544237 0.16798 -2.23828e-19)
(0.729562 0.24119 -1.37152e-19)
(0.887665 0.307917 2.03728e-19)
(1.01428 0.363516 -8.14734e-20)
(1.10856 0.405354 1.20243e-19)
(1.17295 0.433037 5.19874e-20)
(1.21228 0.447942 -1.21221e-19)
(1.23243 0.452491 -3.01511e-19)
(1.23924 0.449434 -5.37881e-20)
(1.23764 0.441314 -1.13455e-19)
(1.23138 0.430164 -1.68641e-19)
(1.223 0.417437 1.37074e-20)
(1.21408 0.404069 -1.76449e-20)
(1.2055 0.390615 -1.68303e-20)
(1.19764 0.377382 1.37954e-19)
(1.1906 0.364457 9.97098e-20)
(1.18424 0.351871 1.12927e-20)
(1.17802 0.340468 5.88531e-20)
(0.121822 0.0330589 -3.49903e-20)
(0.348069 0.103604 2.74751e-19)
(0.556928 0.181658 1.06756e-19)
(0.74267 0.257688 2.18481e-19)
(0.899158 0.325671 7.16685e-20)
(1.02278 0.381167 2.75568e-20)
(1.11341 0.421908 -1.75113e-19)
(1.17416 0.447921 -5.6614e-20)
(1.21032 0.460955 2.80323e-20)
(1.22801 0.463704 2.24086e-19)
(1.23311 0.45907 -7.35955e-20)
(1.23047 0.449644 9.13364e-20)
(1.22366 0.437443 1.93446e-19)
(1.21508 0.423871 4.4194e-20)
(1.20617 0.409813 -3.87074e-20)
(1.19772 0.395778 5.20804e-20)
(1.19006 0.382045 9.89846e-20)
(1.18325 0.368674 4.51021e-20)
(1.17712 0.355697 1.16055e-19)
(1.17111 0.343988 8.88859e-20)
(0.125889 0.036699 -9.1674e-20)
(0.357356 0.113196 -1.40626e-19)
(0.568731 0.195626 8.99276e-20)
(0.754573 0.274376 3.0526e-20)
(0.909228 0.343466 6.09573e-20)
(1.02976 0.398712 -2.49154e-19)
(1.11677 0.438244 9.08885e-20)
(1.17401 0.462522 -1.96983e-19)
(1.20719 0.473668 -1.09886e-19)
(1.22263 0.474631 1.28175e-19)
(1.22621 0.468451 -1.37721e-20)
(1.22268 0.457754 8.33742e-21)
(1.21544 0.444533 -2.35269e-19)
(1.20675 0.430139 -9.50565e-20)
(1.19791 0.415405 7.82561e-20)
(1.18963 0.400799 -1.37269e-19)
(1.1822 0.386572 -7.38356e-20)
(1.17565 0.372757 -7.46849e-20)
(1.16978 0.35939 -1.29951e-19)
(1.16397 0.347379 -3.01219e-19)
(0.129776 0.0404778 5.32877e-20)
(0.366081 0.12305 -6.64597e-20)
(0.579607 0.209838 -3.64963e-19)
(0.765244 0.291198 1.98104e-19)
(0.917864 0.361247 -2.47503e-19)
(1.03523 0.416102 -3.55022e-20)
(1.11868 0.454322 -3.43362e-19)
(1.17255 0.476811 3.66685e-19)
(1.20294 0.486058 2.09877e-19)
(1.21633 0.485256 -1.24864e-20)
(1.21858 0.477564 7.52839e-20)
(1.2143 0.465632 -9.52948e-20)
(1.20675 0.451421 -7.70459e-21)
(1.19802 0.436228 4.45031e-20)
(1.18931 0.420833 -4.60425e-20)
(1.18125 0.405666 8.62769e-20)
(1.17408 0.390952 -1.14591e-19)
(1.1678 0.376699 -1.02763e-19)
(1.16222 0.362948 5.86347e-20)
(1.1566 0.350636 8.02477e-20)
(0.133464 0.044384 1.22234e-19)
(0.374208 0.133134 1.23197e-19)
(0.589519 0.224245 9.5561e-20)
(0.774657 0.308097 -2.26391e-21)
(0.925064 0.378957 -6.45597e-20)
(1.03922 0.433286 4.37832e-19)
(1.11917 0.470102 2.49301e-19)
(1.16983 0.490758 1.69918e-19)
(1.19761 0.498103 2.41736e-19)
(1.20915 0.49556 2.98025e-20)
(1.21024 0.486393 -2.0208e-19)
(1.20536 0.473263 -2.16307e-20)
(1.19761 0.458092 -4.39387e-20)
(1.18891 0.442122 -1.432e-19)
(1.18038 0.426082 -5.34649e-20)
(1.17257 0.410364 -7.55835e-20)
(1.16569 0.39517 2.35875e-19)
(1.15973 0.380488 -2.91294e-21)
(1.15445 0.366382 6.60043e-20)
(1.14902 0.353753 5.31014e-20)
(0.136938 0.0484048 -4.09301e-20)
(0.381708 0.143415 -7.17354e-20)
(0.598437 0.238798 -1.57053e-19)
(0.782796 0.325017 -2.65105e-20)
(0.930829 0.39654 -2.64483e-19)
(1.04174 0.450216 -1.90378e-19)
(1.11829 0.485544 6.36682e-20)
(1.16588 0.504333 -4.63839e-19)
(1.19125 0.509781 -2.52014e-19)
(1.20113 0.505527 6.15194e-20)
(1.20122 0.494923 -3.1673e-20)
(1.19588 0.480633 1.83469e-19)
(1.18801 0.464533 2.49867e-19)
(1.17943 0.447808 6.3216e-20)
(1.17112 0.431138 1.71229e-19)
(1.1636 0.414879 -8.95811e-20)
(1.15703 0.399212 1.22472e-19)
(1.15141 0.384104 6.85408e-20)
(1.14646 0.369665 5.90922e-20)
(1.14129 0.356729 -1.13739e-19)
(0.140183 0.052527 6.18509e-20)
(0.388551 0.153855 -7.78058e-21)
(0.606334 0.253446 -2.43972e-19)
(0.789648 0.341901 -2.12134e-22)
(0.935167 0.413942 5.95175e-19)
(1.04283 0.466845 1.20064e-19)
(1.11605 0.50061 9.11647e-20)
(1.16075 0.517506 2.68735e-19)
(1.18391 0.52107 -2.18291e-19)
(1.1923 0.515139 -2.34707e-19)
(1.19157 0.503138 -2.24909e-21)
(1.18587 0.487725 -1.66273e-19)
(1.17799 0.470727 -9.25766e-20)
(1.16958 0.453271 2.4912e-19)
(1.16155 0.435986 -6.57298e-20)
(1.15434 0.419198 5.13672e-21)
(1.14812 0.403065 -8.91999e-20)
(1.14286 0.387541 -1.34254e-19)
(1.13825 0.372768 7.58849e-21)
(1.13341 0.359543 1.27965e-19)
(0.143185 0.0567364 -2.98164e-19)
(0.394713 0.164417 1.87044e-19)
(0.61319 0.268137 4.19779e-19)
(0.795206 0.358692 1.32827e-19)
(0.938089 0.431107 -7.02423e-19)
(1.04251 0.483125 -2.92009e-19)
(1.11252 0.515264 -2.30002e-19)
(1.15449 0.53025 -8.42459e-20)
(1.17563 0.531948 2.86234e-19)
(1.18272 0.524377 3.10959e-20)
(1.18129 0.511023 -5.99671e-20)
(1.17537 0.494526 1.1104e-19)
(1.16755 0.47666 1.61734e-20)
(1.15938 0.458495 -2.96859e-19)
(1.15166 0.440611 8.84582e-20)
(1.14481 0.423306 1.17763e-19)
(1.13896 0.406717 5.5838e-20)
(1.13408 0.390786 7.6767e-20)
(1.12984 0.375685 -1.33644e-19)
(1.12534 0.362177 -6.55604e-20)
(0.145932 0.061018 -2.04496e-20)
(0.400172 0.175065 9.46106e-20)
(0.618987 0.28282 4.77914e-20)
(0.799469 0.375334 1.42237e-19)
(0.939614 0.447983 3.92508e-19)
(1.04081 0.49901 -2.57667e-19)
(1.10773 0.529469 -1.57266e-20)
(1.14714 0.542537 2.50427e-19)
(1.16644 0.542393 -3.047e-19)
(1.1724 0.533222 9.97288e-20)
(1.17044 0.518559 2.56866e-19)
(1.16439 0.501018 5.8722e-20)
(1.15672 0.482316 -1.26159e-19)
(1.14883 0.463464 2.12497e-19)
(1.14147 0.445 -2.46705e-19)
(1.135 0.427189 6.63975e-21)
(1.12954 0.410154 -5.75725e-20)
(1.12507 0.393826 9.87287e-20)
(1.12123 0.378405 8.78528e-20)
(1.1171 0.364622 7.78983e-20)
(0.148412 0.0653564 3.87475e-20)
(0.404909 0.185758 1.51661e-19)
(0.623715 0.297442 1.51197e-19)
(0.802439 0.391769 -9.61669e-20)
(0.939761 0.464517 8.52838e-21)
(1.03777 0.514457 2.39403e-19)
(1.10173 0.54319 4.26765e-19)
(1.13876 0.554339 -4.39545e-20)
(1.1564 0.552383 4.15676e-20)
(1.16139 0.541657 -1.23784e-19)
(1.15901 0.525731 -2.62483e-19)
(1.15295 0.507185 4.23488e-20)
(1.1455 0.487678 1.48241e-19)
(1.13795 0.468164 -3.02849e-20)
(1.13098 0.449136 -2.25501e-20)
(1.12492 0.430834 -9.71042e-20)
(1.11988 0.413363 -1.63143e-20)
(1.11584 0.396647 -3.89453e-20)
(1.11242 0.380917 -3.13038e-20)
(1.10867 0.366869 -7.12296e-20)
(0.150616 0.0697354 -1.34226e-19)