/*--------------------------------*- C++ -*----------------------------------*\
  =========                 |
  \\      /  F ield         | OpenFOAM: The Open Source CFD Toolbox
   \\    /   O peration     | Website:  https://openfoam.org
    \\  /    A nd           | Version:  7
     \\/     M anipulation  |
\*---------------------------------------------------------------------------*/
FoamFile
{
    version     2.0;
    format      ascii;
    class       volVectorField;
    location    "85";
    object      U;
}
// * * * * * * * * * * * * * * * * * * * * * * * * * * * * * * * * * * * * * //

dimensions      [0 1 -1 0 0 0 0];

internalField   nonuniform List<vector> 
8500
(
(-0.00715448 0.00576753 1.45896e-19)
(-0.00667701 0.00520415 1.22525e-19)
(-0.00997247 0.010721 -1.61335e-19)
(-0.00613353 0.00463549 7.70229e-19)
(-0.00775524 0.00905032 -4.56737e-19)
(0.00185238 0.0108819 -1.72886e-21)
(-0.0055143 0.00405907 -4.0052e-19)
(-0.00527665 0.00737646 4.42461e-21)
(0.0068254 0.00833098 3.30622e-19)
(-0.00480909 0.00347287 -1.39969e-19)
(-0.00251172 0.00569897 8.42065e-20)
(0.0123154 0.00581576 1.21667e-19)
(0.0394211 0.00416175 -3.6085e-19)
(-0.00400743 0.00287555 7.18401e-19)
(0.000564772 0.00401871 -1.80754e-19)
(0.0183568 0.00334323 -2.63254e-19)
(0.0490591 0.00117573 1.35028e-19)
(0.0927042 -0.00168746 6.42415e-19)
(-0.00309875 0.00226657 -3.23862e-19)
(0.00397776 0.00233825 4.99546e-20)
(0.024983 0.000922228 -3.65068e-19)
(0.0595377 -0.00167982 -5.17209e-19)
(0.107614 -0.00464386 -2.23051e-19)
(0.169045 -0.00725998 -1.2528e-19)
(-0.00207255 0.00164628 -3.15026e-19)
(0.00775157 0.000662071 6.94394e-19)
(0.0322249 -0.00143615 4.3449e-19)
(0.0708881 -0.00438545 1.94485e-19)
(0.123634 -0.0073403 -7.02353e-20)
(0.190172 -0.00958114 -4.62118e-19)
(0.269877 -0.0105318 6.49761e-20)
(-0.000918621 0.00101596 5.59947e-20)
(0.0119094 -0.00100322 -1.05501e-19)
(0.0401115 -0.00371816 7.74341e-20)
(0.0831364 -0.00691919 -1.86574e-19)
(0.140779 -0.00974647 3.95936e-19)
(0.212595 -0.011479 7.19206e-19)
(0.29773 -0.0115601 2.22799e-19)
(0.394743 -0.00958436 1.39682e-19)
(0.000372894 0.000377916 -1.87985e-19)
(0.0164732 -0.00264878 -4.38785e-19)
(0.0486683 -0.00590731 -3.32065e-19)
(0.0963037 -0.00925624 1.03895e-19)
(0.159054 -0.0118299 -5.63415e-19)
(0.236292 -0.0129154 -7.04139e-19)
(0.326894 -0.0119882 -9.53736e-20)
(0.429061 -0.00870245 -2.2117e-19)
(0.540155 -0.00294349 -2.34865e-20)
(0.00181133 -0.000264576 -1.44641e-19)
(0.0214631 -0.00426345 -1.12715e-19)
(0.0579178 -0.00798417 5.11318e-19)
(0.110405 -0.011369 -3.16732e-19)
(0.178457 -0.0135559 8.20614e-19)
(0.261228 -0.0138516 3.47193e-19)
(0.357289 -0.0117778 -2.28762e-19)
(0.464444 -0.00706547 -3.92795e-19)
(0.579599 0.000289325 -6.28672e-19)
(0.698784 0.00999175 6.67719e-19)
(0.00340541 -0.00090724 2.84086e-19)
(0.0268971 -0.00583379 4.6345e-19)
(0.0678783 -0.00992644 1.84746e-20)
(0.125449 -0.0132268 2.90555e-19)
(0.198974 -0.0148876 -7.0346e-19)
(0.287357 -0.014248 1.70364e-19)
(0.388822 -0.0108922 -1.11112e-19)
(0.500743 -0.00464648 -2.169e-20)
(0.619553 0.00436391 -2.12989e-19)
(0.740846 0.0156907 -4.70531e-19)
(0.8597 0.0285911 2.33485e-19)
(0.00516319 -0.00154486 -5.1146e-20)
(0.0327913 -0.00734415 -6.97988e-19)
(0.0785641 -0.011709 -5.38889e-19)
(0.141439 -0.0147966 -3.42376e-20)
(0.220585 -0.0157865 1.23023e-19)
(0.314619 -0.014065 -2.38303e-19)
(0.421383 -0.0092969 -7.09389e-22)
(0.537792 -0.00142314 8.03001e-20)
(0.659803 0.00928358 1.18609e-19)
(0.782599 0.0222104 6.67599e-19)
(0.901019 0.0364585 2.76962e-19)
(1.01016 0.0509624 1.69535e-19)
(1.10603 0.0646513 -2.25852e-19)
(0.00709191 -0.00217134 9.02658e-20)
(0.0391588 -0.00877681 3.69658e-19)
(0.0899848 -0.0133042 2.32052e-19)
(0.158369 -0.0160429 -4.24815e-19)
(0.243256 -0.0162126 9.16036e-20)
(0.342943 -0.0132634 5.59886e-19)
(0.454852 -0.00696001 3.07143e-19)
(0.575419 0.00262164 4.14804e-20)
(0.700129 0.0150448 3.76684e-19)
(0.823801 0.0295239 -7.68285e-19)
(0.941117 0.0450095 -2.15818e-19)
(1.04729 0.0603374 -9.24612e-20)
(1.13867 0.0744094 5.43955e-19)
(1.21321 0.0863542 -3.59552e-19)
(0.00919803 -0.00277974 -8.42263e-20)
(0.0460103 -0.0101121 -5.22324e-20)
(0.102145 -0.0146822 -1.34879e-19)
(0.176227 -0.0169282 4.46331e-19)
(0.266947 -0.0161253 2.98803e-19)
(0.372245 -0.0118052 -9.63265e-20)
(0.489096 -0.00385326 -1.76514e-20)
(0.613441 0.00749938 3.79801e-19)
(0.740314 0.0216373 -5.78864e-19)
(0.864225 0.0375984 3.54419e-19)
(0.979789 0.0541926 3.63056e-19)
(1.08243 0.0701796 9.62867e-20)
(1.16895 0.084461 -1.94151e-19)
(1.2379 0.096233 2.79869e-19)
(1.28946 0.105065 2.31779e-19)
(0.011487 -0.00336238 -1.30178e-19)
(0.0533535 -0.0113288 5.74552e-20)
(0.115044 -0.015811 3.80445e-19)
(0.194992 -0.0174137 6.5351e-21)
(0.291605 -0.0154837 -6.46989e-19)
(0.402432 -0.00965409 -4.44932e-19)
(0.523972 4.75655e-05 -3.81687e-19)
(0.651672 0.0132156 -2.01029e-19)
(0.780142 0.0290441 7.6472e-19)
(0.903657 0.0463955 -3.45131e-20)
(1.01686 0.0639541 1.02419e-19)
(1.11548 0.0804291 1.6737e-19)
(1.19686 0.0947502 -5.62598e-19)
(1.26013 0.106205 -4.48402e-19)
(1.3061 0.114484 1.20687e-19)
(1.33679 0.119645 -2.37495e-20)
(1.35491 0.122043 -4.70502e-19)
(0.0139635 -0.00391088 1.65836e-19)
(0.0611928 -0.012404 2.10998e-19)
(0.128676 -0.0166573 -3.92627e-19)
(0.214637 -0.0174598 -2.12756e-20)
(0.31717 -0.0142477 7.57859e-19)
(0.4334 -0.00677666 4.76221e-19)
(0.559332 0.00476195 -1.9129e-19)
(0.689923 0.0197698 2.8238e-19)
(0.819407 0.0372423 -3.02381e-19)
(0.941904 0.0558725 -3.05244e-19)
(1.05218 0.0742391 3.10577e-19)
(1.14637 0.0910284 -6.29557e-19)
(1.22238 0.105226 7.95686e-20)
(1.28 0.116232 3.02314e-19)
(1.32056 0.123869 -1.63945e-19)
(1.3465 0.12832 2.33814e-19)
(1.36075 0.130031 -2.82262e-19)
(1.36625 0.129459 4.68834e-20)
(0.0166309 -0.00441626 1.93729e-19)
(0.0695293 -0.0133138 -6.42286e-19)
(0.143029 -0.0171867 1.03476e-19)
(0.235125 -0.0170267 -1.07889e-19)
(0.343569 -0.0123786 -2.67363e-19)
(0.465033 -0.00314265 -2.13382e-19)
(0.595017 0.0103042 1.92733e-19)
(0.728006 0.0271553 -8.83825e-19)
(0.857914 0.0462035 -2.06329e-19)
(0.978793 0.0659835 1.34172e-19)
(1.08564 0.0849925 -1.70344e-19)
(1.17506 0.101923 4.85031e-19)
(1.24558 0.115845 3.39955e-19)
(1.2976 0.126284 1.17598e-19)
(1.333 0.133204 6.5082e-19)
(1.35451 0.136908 -6.41076e-19)
(1.36525 0.137925 3.94284e-19)
(1.36815 0.136775 5.53427e-19)
(1.36577 0.134432 -3.92678e-19)
(1.3597 0.12962 1.10113e-19)
(0.0194915 -0.00486903 1.52864e-20)
(0.0783608 -0.0140332 -6.8431e-21)
(0.158085 -0.0173641 4.69265e-19)
(0.256413 -0.0160749 -6.72955e-20)
(0.370723 -0.0098397 -3.00451e-20)
(0.497211 0.00127412 5.07318e-19)
(0.630868 0.016683 5.83476e-19)
(0.765737 0.0353593 1.6134e-19)
(0.89548 0.0558942 3.45363e-19)
(1.01418 0.0766804 -2.25931e-19)
(1.11714 0.0961605 -1.9224e-19)
(1.20152 0.113064 -4.84738e-21)
(1.2665 0.126567 -2.35362e-19)
(1.31307 0.136337 -9.08445e-21)
(1.34355 0.142479 -4.57096e-19)
(1.36099 0.145412 1.80001e-19)
(1.36857 0.145734 4.18721e-19)
(1.36918 0.144017 -2.10777e-19)
(1.36523 0.141186 2.41571e-19)
(1.35819 0.136118 4.31629e-19)
(0.0225466 -0.00525926 5.89565e-20)
(0.0876811 -0.0145366 -1.6398e-19)
(0.173821 -0.0171542 -9.73564e-21)
(0.278449 -0.014566 5.05018e-21)
(0.398542 -0.006597 -3.3213e-19)
(0.529805 0.00649528 -4.76379e-20)
(0.666721 0.0239014 -6.01311e-19)
(0.802937 0.0443634 6.25332e-19)
(0.931938 0.066277 3.22395e-19)
(1.04793 0.0879137 2.94613e-20)
(1.14663 0.107691 -2.89004e-21)
(1.22579 0.124405 -1.68922e-19)
(1.28523 0.137359 9.90535e-20)
(1.32652 0.146373 2.71061e-19)
(1.35239 0.15169 -4.70773e-19)
(1.36609 0.153835 3.58334e-19)
(1.37084 0.153469 -4.31364e-19)
(1.36945 0.151199 -1.9276e-20)
(1.36417 0.147896 1.32559e-21)
(1.35632 0.142578 1.93595e-19)
(0.025796 -0.00557667 -1.29462e-19)
(0.0974805 -0.0147981 -1.47477e-19)
(0.190206 -0.0165222 2.12571e-19)
(0.301173 -0.0124633 -9.46545e-20)
(0.426931 -0.00261997 -2.95943e-20)
(0.56268 0.0125374 -2.93697e-19)
(0.702415 0.0319564 3.29349e-19)
(0.839435 0.0541438 -5.92127e-19)
(0.967139 0.0773111 5.35258e-20)
(1.07994 0.0996336 9.18321e-20)
(1.17406 0.119535 -4.96522e-20)
(1.24788 0.135906 3.55993e-20)
(1.30186 0.148194 -4.14362e-19)
(1.33809 0.156377 -3.16405e-19)
(1.35966 0.160834 2.65969e-19)
(1.36995 0.162186 -8.54608e-20)
(1.37219 0.16114 -5.10775e-19)
(1.36907 0.158332 -9.65674e-20)
(1.36266 0.154573 -4.24875e-19)
(1.35414 0.149009 -5.23791e-19)
(0.0292384 -0.00581071 -3.05314e-20)
(0.107745 -0.0147915 2.18583e-19)
(0.207205 -0.015434 1.58496e-19)
(0.324518 -0.00973236 4.67015e-19)
(0.455787 0.002118 -1.6326e-20)
(0.5957 0.0194119 2.51037e-19)
(0.73779 0.0408394 -5.3262e-19)
(0.875074 0.0646721 1.87878e-19)
(1.00095 0.0889534 -1.58505e-19)
(1.11015 0.111791 2.28079e-19)
(1.19944 0.131647 5.68763e-20)
(1.26785 0.147529 1.32897e-19)
(1.31649 0.159049 3.84318e-19)
(1.34792 0.166341 4.76941e-20)
(1.36549 0.169914 -2.38304e-19)
(1.37271 0.170471 3.94586e-19)
(1.37274 0.168759 1.39095e-19)
(1.36812 0.165427 -6.55037e-20)
(1.36075 0.161227 3.98848e-19)
(1.35168 0.155421 2.63402e-19)
(0.0328708 -0.00595069 9.97203e-20)
(0.118458 -0.0144911 1.12786e-19)
(0.224777 -0.0138565 -2.80665e-19)
(0.348411 -0.00634142 -6.51072e-20)
(0.485 0.00763914 8.34919e-20)
(0.628723 0.0271243 -4.89446e-20)
(0.77269 0.050536 3.01475e-19)
(0.909705 0.0759154 -9.55915e-20)
(1.03326 0.101159 -1.17938e-19)
(1.13849 0.124337 -4.03098e-19)
(1.22275 0.143982 -2.56718e-19)
(1.28577 0.159245 -2.38666e-19)
(1.32923 0.169905 -1.93907e-19)
(1.35613 0.176258 7.43715e-20)
(1.37003 0.178931 -1.44526e-19)
(1.37449 0.1787 1.72087e-20)
(1.37256 0.176336 2.76528e-19)
(1.36667 0.172495 2.93455e-19)
(1.35849 0.167864 2.07857e-20)
(1.34898 0.161819 1.83327e-19)
(0.0366891 -0.00598586 5.09276e-20)
(0.129598 -0.0138714 1.91499e-19)
(0.242874 -0.0117588 1.52588e-19)
(0.372773 -0.002262 -2.55053e-19)
(0.514457 0.0139609 2.3644e-19)
(0.661612 0.0356747 -7.67195e-20)
(0.806966 0.0610266 -1.64584e-19)
(0.943194 0.0878374 3.96567e-19)
(1.06398 0.113882 -9.99934e-20)
(1.16492 0.137227 -3.25544e-21)
(1.24404 0.156503 2.75677e-19)
(1.30172 0.171024 -2.4802e-19)
(1.3402 0.180748 1.09245e-19)
(1.36285 0.186124 -2.75302e-19)
(1.37339 0.18789 4.65122e-19)
(1.37538 0.186879 -3.52938e-19)
(1.37176 0.18388 -2.131e-19)
(1.36476 0.179542 -2.36792e-21)
(1.35592 0.17449 -3.13074e-19)
(1.34604 0.168207 -3.87204e-21)
(0.0406876 -0.00590553 -2.30358e-19)
(0.141139 -0.0129079 -8.58465e-20)
(0.261444 -0.0091116 -2.83295e-19)
(0.397518 0.00253072 -1.57012e-19)
(0.544041 0.0210956 -8.19251e-20)
(0.694225 0.0450576 -3.89534e-20)
(0.840476 0.0722868 1.81895e-19)
(0.975423 0.100399 -1.00205e-19)
(1.09302 0.127075 -4.85779e-20)
(1.18943 0.150414 1.23974e-19)
(1.26334 0.169173 -1.67683e-19)
(1.31578 0.182844 2.14953e-19)
(1.34951 0.191567 2.07062e-19)
(1.3682 0.19594 4.68766e-20)
(1.37569 0.196796 -1.32098e-19)
(1.37548 0.195018 -3.08846e-20)
(1.37038 0.191397 -1.82334e-19)
(1.36246 0.186574 -7.76919e-20)
(1.35306 0.18111 1.28218e-19)
(1.34289 0.174588 -2.18446e-19)
(0.0448589 -0.00569914 7.58634e-20)
(0.153052 -0.0115771 -1.30057e-19)
(0.28043 -0.00588841 2.21706e-19)
(0.422557 0.00805748 1.04545e-19)
(0.573635 0.0290505 -1.50826e-19)
(0.726429 0.055262 1.86662e-19)
(0.873089 0.0842876 4.70264e-20)
(1.00629 0.113558 -8.52535e-20)
(1.12034 0.140694 2.29296e-19)
(1.21201 0.163857 6.8687e-20)
(1.28069 0.181959 1.31297e-19)
(1.32804 0.194684 -1.35648e-19)
(1.35727 0.202354 -9.09497e-20)
(1.3723 0.205704 1.93036e-19)
(1.37703 0.205654 -5.55318e-20)
(1.37487 0.203121 3.18797e-19)
(1.3685 0.198895 1.69083e-19)
(1.3598 0.193597 -2.80774e-20)
(1.34994 0.187725 9.32682e-20)
(1.33954 0.180962 3.55795e-19)
(0.0491944 -0.00535644 -3.76554e-20)
(0.165305 -0.00985697 2.10757e-20)
(0.299768 -0.00206544 -2.01614e-19)
(0.447796 0.0143347 1.30474e-19)
(0.603118 0.0378274 1.22808e-19)
(0.758092 0.0662713 -1.76394e-19)
(0.904682 0.096996 8.17007e-20)
(1.03569 0.127271 -1.60093e-19)
(1.14589 0.154692 -2.29322e-19)
(1.23269 0.177517 8.33146e-20)
(1.29617 0.194834 1.5438e-20)
(1.3386 0.206528 1.31425e-19)
(1.36359 0.213101 8.86506e-20)
(1.37524 0.215417 -6.07541e-20)
(1.37749 0.214469 -1.27316e-20)
(1.37363 0.211196 -4.84822e-20)
(1.36616 0.206377 -2.53489e-19)
(1.35681 0.200612 2.1281e-20)
(1.34658 0.194337 -1.68884e-19)
(1.33599 0.18733 1.56514e-21)
(0.053684 -0.00486754 -4.20235e-20)
(0.177862 -0.00772704 -5.41592e-20)
(0.319394 0.00237786 2.12903e-19)
(0.47314 0.0213741 -2.67505e-20)
(0.632371 0.0474225 1.25405e-21)
(0.789087 0.0780644 -1.19395e-19)
(0.935143 0.110375 -2.14515e-20)
(1.06357 0.141494 8.5863e-20)
(1.16965 0.169026 2.95256e-19)
(1.25148 0.191356 -9.54241e-20)
(1.30984 0.20777 1.63309e-20)
(1.34755 0.218362 5.2518e-20)
(1.36856 0.223805 -1.03138e-19)
(1.37713 0.225082 -6.68083e-20)
(1.37715 0.223245 1.8039e-20)
(1.3718 0.219246 6.31972e-20)
(1.36341 0.213848 1.61638e-19)
(1.3535 0.207621 -4.28015e-21)
(1.34298 0.200945 6.19704e-20)
(1.33224 0.193689 4.25985e-20)
(0.0583161 -0.00422306 7.31715e-20)
(0.190683 -0.00516878 1.51116e-19)
(0.339237 0.0074586 1.04829e-19)
(0.49849 0.0291828 -5.79942e-20)
(0.661277 0.0578271 2.1639e-19)
(0.819294 0.090615 1.2897e-19)
(0.964374 0.124387 -1.94744e-19)
(1.08985 0.156181 -6.84136e-20)
(1.1916 0.18365 9.17973e-22)
(1.26842 0.205339 -5.77669e-20)
(1.32177 0.220745 -1.67737e-19)
(1.35498 0.230172 2.81241e-20)
(1.37229 0.23446 2.90158e-22)
(1.37805 0.234699 -1.78952e-19)
(1.37609 0.231985 8.2519e-20)
(1.36945 0.227275 -4.47561e-20)
(1.36026 0.221307 -1.98626e-19)
(1.34991 0.214623 9.67641e-20)
(1.33915 0.207547 -2.06039e-19)
(1.32831 0.200038 -1.24261e-19)
(0.0630776 -0.00341423 -2.5677e-20)
(0.203726 -0.0021658 -6.49552e-20)
(0.359225 0.0131902 -1.09167e-19)
(0.523747 0.0377629 -5.30715e-21)
(0.689721 0.069027 -1.04091e-20)
(0.848603 0.103893 -1.21704e-19)
(0.992286 0.138988 2.83274e-20)
(1.1145 0.171287 2.66981e-20)
(1.21174 0.198525 -5.57368e-20)
(1.28356 0.219433 4.56646e-21)
(1.33204 0.233736 8.83666e-20)
(1.36098 0.241948 -1.16999e-20)
(1.37486 0.245065 6.80458e-20)
(1.37808 0.244268 3.07021e-20)
(1.37437 0.240692 -1.69651e-19)
(1.3666 0.235283 1.31075e-20)
(1.35676 0.228756 1.05286e-19)
(1.34604 0.221617 -2.52939e-20)
(1.3351 0.214141 4.94694e-21)
(1.32418 0.206372 -1.7392e-20)
(0.0679542 -0.002433 -2.34769e-20)
(0.216947 0.0012959 -2.30216e-20)
(0.379283 0.019582 -4.11433e-20)
(0.54881 0.0471115 -2.72914e-20)
(0.717591 0.0810031 -7.19245e-20)
(0.876909 0.117863 8.39975e-20)
(1.0188 0.154134 1.67534e-19)
(1.13746 0.186765 5.88181e-20)
(1.23009 0.213609 3.03136e-20)
(1.29694 0.233609 -7.28353e-20)
(1.34072 0.246726 -8.00996e-22)
(1.36563 0.25368 4.79022e-20)
(1.37636 0.255615 -6.19474e-20)
(1.37728 0.253791 2.38038e-20)
(1.37204 0.249365 8.07711e-20)
(1.36331 0.243271 -2.80991e-20)
(1.35291 0.236192 -5.01523e-20)
(1.34191 0.2286 -4.67999e-20)
(1.33083 0.220723 1.67615e-19)
(1.31986 0.212687 5.90547e-20)
(0.0729304 -0.00127215 -4.17748e-20)
(0.230298 0.00522776 5.08064e-20)
(0.399334 0.0266396 -1.16628e-20)
(0.573582 0.0572209 3.70237e-20)
(0.744781 0.0937315 -3.34887e-20)
(0.904116 0.132488 -2.0609e-20)
(1.04386 0.16978 -8.13019e-20)
(1.15874 0.20257 9.51614e-21)
(1.24667 0.228864 2.32647e-20)
(1.30862 0.247838 5.27044e-20)
(1.34789 0.259695 -2.07643e-20)
(1.36903 0.265359 -1.63308e-20)
(1.37686 0.266108 1.5152e-20)
(1.37573 0.263267 -2.68154e-20)
(1.36913 0.258006 6.14811e-20)
(1.35959 0.251238 4.11695e-20)
(1.34874 0.243613 -7.06211e-21)
(1.33751 0.235568 -4.67947e-21)
(1.32634 0.227287 -4.52138e-20)
(1.31535 0.218979 -5.67698e-20)
(0.0779894 7.4646e-05 8.99462e-21)
(0.24373 0.00963848 -1.5847e-20)
(0.4193 0.034364 1.09194e-20)
(0.597964 0.0680784 -1.51173e-20)
(0.771189 0.107184 -5.83851e-20)
(0.930138 0.147727 2.72284e-20)
(1.06739 0.18588 1.34084e-20)
(1.17829 0.218657 -6.38992e-20)
(1.26149 0.244253 -4.05445e-20)
(1.31866 0.262092 -3.89263e-21)
(1.35362 0.272629 -5.72011e-20)
(1.37124 0.276978 5.95168e-20)
(1.37642 0.27654 -1.18351e-22)
(1.37346 0.272694 -8.03617e-21)
(1.3657 0.266611 -1.56193e-20)
(1.35547 0.25918 7.69776e-21)
(1.34425 0.251014 5.4367e-21)
(1.33286 0.242515 -2.13309e-21)
(1.32164 0.233829 -1.65231e-20)
(1.31064 0.22524 2.02362e-20)
(0.0831136 0.00161269 2.99851e-21)
(0.257192 0.0145339 1.04325e-20)
(0.439103 0.0427524 5.85955e-21)
(0.621862 0.0796665 -2.74426e-21)
(0.79672 0.121327 3.852e-20)
(0.954898 0.163536 -8.66737e-21)
(1.08937 0.202385 1.38548e-20)
(1.19614 0.234982 3.08343e-20)
(1.2746 0.259739 -5.59235e-21)
(1.32711 0.276348 1.41013e-21)
(1.35799 0.285511 1.5702e-20)
(1.37234 0.288528 -8.42591e-21)
(1.37512 0.286908 1.10235e-20)
(1.37054 0.28207 2.01448e-21)
(1.36176 0.275179 -2.11561e-20)
(1.35096 0.267093 1.04987e-21)
(1.33947 0.258391 2.78183e-20)
(1.32796 0.249435 -5.83485e-21)
(1.31672 0.240341 8.714e-21)
(1.30573 0.231465 -9.81932e-21)
(0.0882847 0.00334623 1.22588e-21)
(0.270632 0.0199168 1.53526e-20)
(0.458665 0.0517973 8.35446e-21)
(0.645183 0.0919632 -1.71655e-21)
(0.821285 0.136125 3.54551e-20)
(0.978329 0.179868 -1.00865e-20)
(1.10976 0.219246 1.89735e-20)
(1.21227 0.2515 2.56583e-20)
(1.28603 0.275288 -5.33728e-21)
(1.33404 0.290581 1.20546e-21)
(1.36105 0.298327 1.77552e-20)
(1.37239 0.300001 -7.21874e-21)
(1.37301 0.297206 7.16052e-21)
(1.36699 0.29139 -1.78382e-21)
(1.35736 0.283704 -1.71824e-20)
(1.34609 0.274972 -5.10525e-22)
(1.33438 0.265736 2.75366e-20)
(1.32281 0.256322 -5.43616e-21)
(1.31157 0.246817 1.0259e-20)
(1.30062 0.237647 -1.10227e-20)
(0.0934833 0.0052784 1.06866e-20)
(0.283999 0.0257871 -1.97118e-20)
(0.477909 0.0614874 1.00985e-20)
(0.66784 0.104942 -8.19643e-21)
(0.844801 0.151537 -5.61368e-20)
(1.00037 0.196676 2.29317e-20)
(1.12853 0.236415 1.05278e-20)
(1.22671 0.26817 -7.23673e-20)
(1.29583 0.290867 -3.05255e-20)
(1.33951 0.304769 -2.72657e-23)
(1.36289 0.311063 -4.78148e-20)
(1.37145 0.311388 4.01722e-20)
(1.37012 0.307428 -9.09451e-21)
(1.36287 0.300649 5.75855e-21)
(1.3525 0.292181 -2.25354e-20)
(1.34086 0.28281 1.72224e-20)
(1.329 0.273042 1.10527e-20)
(1.3174 0.263167 -1.96952e-21)
(1.30621 0.253249 -2.20497e-20)
(1.29531 0.243777 2.01913e-20)
(0.0986892 0.00741109 -2.30739e-20)
(0.297238 0.0321413 -1.0592e-20)
(0.496759 0.0718069 -1.55476e-20)
(0.689748 0.118573 5.36619e-20)
(0.867194 0.167521 2.69008e-22)
(1.02097 0.213909 -2.88137e-20)
(1.14567 0.253844 -1.17914e-19)
(1.23946 0.284948 1.16335e-20)
(1.30403 0.306444 1.35328e-20)
(1.34357 0.318889 6.01585e-20)
(1.36356 0.323705 9.07524e-21)
(1.36958 0.322681 -5.13301e-20)
(1.36652 0.317568 4.85559e-20)
(1.35818 0.309842 -1.97101e-20)
(1.34721 0.300603 7.48494e-20)
(1.33529 0.290599 -6.89222e-21)
(1.32334 0.2803 3.91283e-21)
(1.31175 0.269962 3.38813e-21)
(1.30062 0.259628 -5.85755e-20)
(1.28979 0.249849 -3.53277e-20)
(0.103882 0.00974495 -8.67586e-21)
(0.310297 0.0389731 -5.08504e-20)
(0.515142 0.082736 4.03787e-20)
(0.710826 0.13282 -5.15843e-20)
(0.888395 0.184029 -9.31093e-20)
(1.04009 0.231517 8.16327e-20)
(1.16116 0.271482 1.35013e-19)
(1.25056 0.301794 4.85321e-20)
(1.3107 0.321988 3.38496e-20)
(1.34629 0.33292 -9.73978e-20)
(1.36312 0.336239 7.49771e-20)
(1.36683 0.333869 8.71405e-21)
(1.36224 0.327619 -9.57068e-20)
(1.35297 0.31896 3.75505e-20)
(1.34151 0.308961 1.34086e-19)
(1.32938 0.298331 -9.25066e-20)
(1.31738 0.287502 -2.65374e-20)
(1.30584 0.276697 -2.5709e-20)
(1.29481 0.265946 1.19249e-19)
(1.28406 0.255854 6.82514e-20)
(0.109041 0.0122793 6.02575e-20)
(0.323123 0.0462727 -1.02962e-19)
(0.532984 0.094251 -1.50737e-19)
(0.731002 0.147645 6.83246e-21)
(0.908344 0.201014 -2.73147e-20)
(1.0577 0.249447 -1.12012e-19)
(1.17501 0.289281 -1.90475e-20)
(1.26003 0.318667 5.78725e-20)
(1.31586 0.337469 -9.34756e-20)
(1.34772 0.346841 7.68733e-20)
(1.36162 0.34865 8.95537e-20)
(1.36325 0.344944 -5.66768e-20)
(1.35731 0.337572 2.33013e-20)
(1.34725 0.327995 1.18309e-19)
(1.3354 0.317248 -1.58811e-19)
(1.32313 0.305996 2.79027e-20)
(1.31114 0.294638 7.61097e-20)
(1.29968 0.283364 -2.31369e-20)
(1.28877 0.272193 -2.47678e-20)
(1.27813 0.261783 -4.20049e-21)
(0.114145 0.0150123 8.86351e-20)
(0.335665 0.0540275 1.65765e-19)
(0.550218 0.106324 8.85594e-20)
(0.750204 0.163008 -1.05695e-19)
(0.926987 0.218423 2.77156e-19)
(1.07377 0.267645 4.28997e-20)
(1.18722 0.307194 -1.18656e-19)
(1.26791 0.335528 -8.58626e-20)
(1.31959 0.352857 -6.8852e-20)
(1.34792 0.360632 2.3101e-20)
(1.35912 0.360924 -7.84211e-20)
(1.35888 0.355892 2.55761e-21)
(1.35175 0.347416 -5.36205e-20)
(1.34105 0.336937 -7.35959e-20)
(1.3289 0.325451 -1.25832e-20)
(1.31655 0.313582 -7.80788e-21)
(1.30461 0.301696 -1.40732e-19)
(1.29327 0.289952 1.06677e-19)
(1.2825 0.27836 -1.62495e-19)
(1.27198 0.267627 -9.47717e-20)
(0.119173 0.0179407 -1.07448e-19)
(0.347871 0.0622217 -4.44778e-20)
(0.566779 0.118925 1.98612e-19)
(0.768371 0.178862 5.07741e-20)
(0.944278 0.236205 -1.74233e-19)
(1.08827 0.28606 -1.0125e-19)
(1.19781 0.325171 -3.36418e-20)
(1.27422 0.352338 2.19714e-19)
(1.32191 0.368124 1.57667e-19)
(1.34694 0.374272 -5.42184e-20)
(1.35567 0.373048 -3.16386e-20)
(1.35375 0.366704 8.01716e-20)
(1.34561 0.357141 -8.76889e-20)
(1.33438 0.345776 4.08884e-20)
(1.32202 0.333561 1.78426e-20)
(1.30965 0.32108 -2.24914e-20)
(1.2978 0.308666 1.71176e-19)
(1.2866 0.296449 -7.24034e-20)
(1.276 0.284437 1.46447e-19)
(1.26562 0.273376 -5.15102e-20)
(0.124105 0.0210598 -6.02197e-20)
(0.359692 0.0708367 -1.11888e-19)
(0.582605 0.132019 -1.78361e-19)
(0.785444 0.195162 1.08136e-19)
(0.960179 0.254305 5.95766e-20)
(1.10121 0.304635 -8.49736e-20)
(1.20678 0.343166 1.42351e-19)
(1.27901 0.36906 -2.20294e-19)
(1.32289 0.383242 -2.35023e-19)
(1.34483 0.387741 1.42473e-19)
(1.3513 0.385005 5.34488e-20)
(1.3479 0.377367 -5.97778e-20)
(1.3389 0.366736 9.10225e-20)
(1.32725 0.354499 7.1792e-20)
(1.31475 0.341565 -5.26852e-20)
(1.30242 0.328476 -1.80067e-20)
(1.2907 0.315536 -1.30522e-19)
(1.27968 0.302846 2.677e-20)
(1.26926 0.290413 -1.11887e-19)
(1.25905 0.279022 -1.82072e-20)
(0.128919 0.0243641 5.00912e-20)
(0.371082 0.0798512 -8.75671e-20)
(0.597637 0.145568 1.60811e-19)
(0.801372 0.211856 2.7306e-19)
(0.974657 0.272667 -3.94292e-19)
(1.11257 0.323319 3.48523e-19)
(1.21417 0.361132 9.36557e-20)
(1.28232 0.385657 -1.36457e-19)
(1.32257 0.398183 1.62132e-19)
(1.34163 0.401018 9.6035e-20)
(1.34606 0.396779 1.19497e-19)
(1.34137 0.387866 -2.08183e-19)
(1.33165 0.376188 -4.30536e-20)
(1.31967 0.363095 1.03747e-19)
(1.30712 0.349451 3.97429e-20)
(1.29487 0.335758 1.8368e-19)
(1.28332 0.322294 2.31354e-19)
(1.2725 0.30913 -5.71529e-20)
(1.2623 0.296277 9.97069e-20)
(1.25227 0.284554 1.11767e-19)
(0.133597 0.0278464 -1.43264e-20)
(0.381995 0.0892411 -2.03005e-19)
(0.611824 0.159533 -2.8071e-19)
(0.81611 0.228893 -3.68075e-19)
(0.987688 0.291235 -3.55885e-20)
(1.12236 0.342057 1.35961e-19)
(1.21999 0.379023 -2.63018e-20)
(1.28418 0.402092 4.62854e-20)
(1.32099 0.41292 -7.15853e-20)
(1.3374 0.414085 1.20058e-19)
(1.34 0.408355 -1.84054e-19)
(1.33417 0.398188 2.40884e-19)
(1.32386 0.385483 1.38882e-19)
(1.31167 0.371549 6.33916e-20)
(1.29912 0.357205 -9.51069e-20)
(1.28701 0.342914 -1.01968e-19)
(1.27565 0.328927 -9.72556e-20)
(1.26507 0.31529 7.15527e-21)
(1.2551 0.302017 1.29274e-19)
(1.24528 0.289961 -1.35786e-19)
(0.138117 0.0314984 -2.55046e-20)
(0.392389 0.0989798 1.58603e-19)
(0.625115 0.173871 2.00105e-19)
(0.829617 0.246219 -3.12915e-20)
(0.999253 0.309952 9.44185e-20)
(1.13057 0.360795 2.51863e-20)
(1.22427 0.396794 -1.38547e-19)
(1.28464 0.418329 1.10203e-19)
(1.31821 0.427426 1.03491e-19)
(1.33218 0.426918 -1.80778e-19)
(1.33313 0.419716 2.91844e-19)
(1.32634 0.408319 -2.4404e-19)
(1.31557 0.394607 1.41289e-19)
(1.30324 0.379848 -2.0668e-19)
(1.29075 0.364813 3.05163e-19)
(1.27882 0.34993 -1.93413e-19)
(1.2677 0.335422 -5.66557e-20)
(1.25737 0.321313 -7.64342e-20)
(1.24767 0.30762 -1.61581e-19)
(1.23808 0.29523 2.58445e-21)
(0.142462 0.0353108 1.847e-19)
(0.402222 0.109039 1.97617e-19)
(0.637466 0.188536 -2.86445e-19)
(0.84186 0.26378 -1.74849e-19)
(1.00934 0.328761 2.60791e-19)
(1.13723 0.37948 -1.04478e-19)
(1.22704 0.4144 1.53003e-19)
(1.28374 0.434334 6.61371e-20)
(1.31427 0.441674 -1.5441e-19)
(1.326 0.4395 -3.84249e-19)
(1.3255 0.430845 -6.9004e-20)
(1.3179 0.418242 -1.44763e-19)
(1.30678 0.403546 -2.15938e-19)
(1.2944 0.387977 1.75986e-20)
(1.28204 0.372261 -2.26574e-20)
(1.27032 0.356792 -2.16552e-20)
(1.25946 0.341769 1.77103e-19)
(1.24943 0.327189 1.27905e-19)
(1.24001 0.313079 1.42843e-20)
(1.23063 0.300355 7.42531e-20)
(0.146614 0.0392731 -4.44689e-20)
(0.411458 0.119387 3.49552e-19)
(0.648837 0.203481 1.36962e-19)
(0.852812 0.281518 2.79249e-19)
(1.01794 0.347603 9.10313e-20)
(1.14235 0.398061 3.47606e-20)
(1.22834 0.431797 -2.22801e-19)
(1.28152 0.450072 -7.21575e-20)
(1.30921 0.455638 3.60153e-20)
(1.31892 0.451807 2.85418e-19)
(1.31715 0.441725 -9.39182e-20)
(1.30888 0.427941 1.16712e-19)
(1.29751 0.412283 2.4731e-19)
(1.28515 0.395921 5.66062e-20)
(1.27297 0.379535 -4.96569e-20)
(1.26151 0.363487 6.69212e-20)
(1.25095 0.347951 1.27362e-19)
(1.24122 0.332907 5.81193e-20)
(1.23211 0.318395 1.48852e-19)
(1.22295 0.305346 1.1261e-19)
(0.150554 0.0433737 -1.15662e-19)
(0.420063 0.129991 -1.79473e-19)
(0.659194 0.218658 1.14381e-19)
(0.862451 0.299376 3.84649e-20)
(1.02505 0.366421 7.68827e-20)
(1.14594 0.416484 -3.1626e-19)
(1.2282 0.448942 1.15243e-19)
(1.27802 0.46551 -2.49253e-19)
(1.30308 0.469292 -1.38748e-19)
(1.31096 0.46382 1.62529e-19)
(1.30809 0.452336 -1.75503e-20)
(1.29928 0.4374 1.07892e-20)
(1.28778 0.420802 -3.00732e-19)
(1.27551 0.403664 -1.21751e-19)
(1.26355 0.38662 1.00661e-19)
(1.25239 0.369999 -1.76607e-19)
(1.24215 0.353957 -9.50608e-20)
(1.23277 0.338452 -9.5999e-20)
(1.22399 0.323556 -1.67279e-19)
(1.21509 0.310163 -3.81943e-19)
(0.154268 0.0476001 6.75842e-20)
(0.428004 0.140817 -8.43047e-20)
(0.668506 0.234017 -4.62161e-19)
(0.870759 0.317298 2.50458e-19)
(1.03068 0.385158 -3.13175e-19)
(1.14803 0.4347 -4.44004e-20)
(1.22666 0.465794 -4.33279e-19)
(1.2733 0.480615 4.63402e-19)
(1.29592 0.48261 2.65681e-19)
(1.30216 0.475517 -1.61102e-20)
(1.29835 0.462661 9.56338e-20)
(1.28914 0.446602 -1.21221e-19)
(1.27759 0.429088 -9.78844e-21)
(1.26548 0.41119 5.69328e-20)
(1.2538 0.393499 -5.91401e-20)
(1.24296 0.376314 1.11251e-19)
(1.23308 0.359772 -1.48305e-19)
(1.22406 0.343812 -1.32713e-19)
(1.21563 0.328537 7.54004e-20)
(1.20705 0.314811 1.01551e-19)
(0.15774 0.0519388 1.53727e-19)
(0.435254 0.151829 1.55351e-19)
(0.676749 0.249506 1.20751e-19)
(0.877728 0.335224 -3.50011e-21)
(1.03483 0.403758 -8.07022e-20)
(1.14865 0.452657 5.51392e-19)
(1.22376 0.482312 3.14555e-19)
(1.26739 0.495354 2.13328e-19)
(1.28777 0.495566 3.0465e-19)
(1.29255 0.486878 3.75566e-20)
(1.28797 0.472681 -2.56262e-19)
(1.27848 0.455529 -2.74858e-20)
(1.26696 0.437123 -5.61591e-20)
(1.25508 0.418483 -1.83799e-19)
(1.24371 0.400157 -6.90436e-20)
(1.23323 0.382418 -9.74176e-20)
(1.22373 0.365383 3.04871e-19)
(1.21511 0.348977 -4.02107e-21)
(1.20706 0.333328 8.56016e-20)
(1.19881 0.319275 6.81331e-20)
(0.160955 0.0563758 -5.16515e-20)
(0.441787 0.162989 -9.00505e-20)
(0.683901 0.265073 -1.97918e-19)
(0.88335 0.353097 -3.37936e-20)
(1.03753 0.422162 -3.31309e-19)
(1.14783 0.470308 -2.3976e-19)
(1.21953 0.498455 7.97428e-20)
(1.26034 0.509696 -5.83252e-19)
(1.27867 0.508136 -3.1784e-19)
(1.28218 0.49788 7.73609e-20)
(1.27697 0.482377 -4.02208e-20)
(1.2673 0.464163 2.33433e-19)
(1.2559 0.44489 3.19389e-19)
(1.2443 0.425527 8.11187e-20)
(1.23329 0.40658 2.20786e-19)
(1.2232 0.388296 -1.16141e-19)
(1.21411 0.370776 1.59703e-19)
(1.20592 0.353931 8.93809e-20)
(1.19826 0.337917 7.74519e-20)
(1.19037 0.323543 -1.46866e-19)
(0.163902 0.060896 7.68327e-20)
(0.447583 0.174259 -8.82843e-21)
(0.689946 0.280665 -3.05703e-19)
(0.887625 0.370859 -5.53475e-22)
(1.03877 0.440318 7.46031e-19)
(1.1456 0.487603 1.49754e-19)
(1.21403 0.514184 1.13905e-19)
(1.25219 0.52361 3.37523e-19)
(1.26866 0.520295 -2.74245e-19)
(1.27107 0.508503 -2.96118e-19)
(1.26536 0.491729 -2.97306e-21)
(1.25564 0.472485 -2.12035e-19)
(1.24443 0.452372 -1.18606e-19)
(1.23316 0.432304 3.20531e-19)
(1.22255 0.412751 -8.47583e-20)
(1.21289 0.393933 6.1576e-21)
(1.20423 0.375938 -1.16045e-19)
(1.19648 0.358664 -1.76252e-19)
(1.18925 0.342293 1.05931e-20)
(1.18174 0.327606 1.66209e-19)
(0.166568 0.0654838 -3.71315e-19)
(0.452623 0.1856 2.33545e-19)
(0.694874 0.29623 5.2473e-19)
(0.890558 0.388452 1.65615e-19)
(1.0386 0.45817 -8.77286e-19)
(1.142 0.504497 -3.65179e-19)
(1.20729 0.529462 -2.87379e-19)
(1.24298 0.537065 -1.05335e-19)
(1.25778 0.532016 3.59374e-19)
(1.25926 0.518725 3.90387e-20)
(1.25319 0.500719 -7.63531e-20)
(1.2435 0.480479 1.40875e-19)
(1.23256 0.459552 2.07123e-20)
(1.22167 0.4388 -3.8255e-19)
(1.21149 0.418655 1.15237e-19)
(1.20228 0.399316 1.54033e-19)
(1.19409 0.380856 7.38945e-20)
(1.1868 0.363162 1.00999e-19)
(1.18003 0.346446 -1.77455e-19)
(1.17291 0.331455 -8.59945e-20)
(0.168944 0.0701231 -2.53326e-20)
(0.456892 0.196972 1.17632e-19)
(0.698678 0.311714 5.90006e-20)
(0.892157 0.40582 1.76359e-19)
(1.03703 0.475664 4.89731e-19)
(1.13706 0.520944 -3.20757e-19)
(1.19936 0.544252 -1.93059e-20)
(1.23276 0.550032 3.12904e-19)
(1.24607 0.543277 -3.82515e-19)
(1.24677 0.528526 1.25481e-19)
(1.24047 0.509327 3.2545e-19)
(1.2309 0.488125 7.47901e-20)
(1.22029 0.466411 -1.6263e-19)
(1.20984 0.444996 2.75026e-19)
(1.20013 0.424276 -3.21748e-19)
(1.1914 0.404429 9.74922e-21)
(1.18369 0.385515 -7.57637e-20)
(1.1769 0.367413 1.32511e-19)
(1.1706 0.350364 1.17644e-19)
(1.16391 0.335078 1.04038e-19)
(0.171021 0.0747973 4.80667e-20)
(0.460379 0.208333 1.87841e-19)
(0.701356 0.327064 1.87104e-19)
(0.892435 0.422906 -1.20348e-19)
(1.0341 0.492751 1.06533e-20)
(1.13082 0.536899 2.97629e-19)
(1.19027 0.558518 5.31351e-19)
(1.22157 0.562483 -5.49547e-20)
(1.23356 0.554053 5.19566e-20)
(1.23364 0.537883 -1.56151e-19)
(1.22722 0.517534 -3.32951e-19)
(1.21786 0.495405 5.40124e-20)
(1.20765 0.472932 1.90774e-19)
(1.19768 0.450877 -3.91166e-20)
(1.18847 0.4296 -3.10142e-20)
(1.18024 0.409259 -1.28107e-19)
(1.17304 0.389903 -2.20409e-20)
(1.16676 0.371405 -5.11703e-20)
(1.16096 0.354035 -4.17453e-20)
(1.15472 0.338468 -9.63614e-20)
(0.172791 0.0794895 -1.65382e-19)
(0.463075 0.219645 -4.30332e-19)