/*--------------------------------*- C++ -*----------------------------------*\
  =========                 |
  \\      /  F ield         | OpenFOAM: The Open Source CFD Toolbox
   \\    /   O peration     | Website:  https://openfoam.org
    \\  /    A nd           | Version:  7
     \\/     M anipulation  |
\*---------------------------------------------------------------------------*/
FoamFile
{
    version     2.0;
    format      ascii;
    class       surfaceScalarField;
    location    "85";
    object      phi;
}
// * * * * * * * * * * * * * * * * * * * * * * * * * * * * * * * * * * * * * //

dimensions      [0 3 -1 0 0 0 0];

internalField   nonuniform List<scalar> 
16753
(
-0.000199295
0.00197945
-0.00201772
-0.000155852
0.00186517
-0.00190862
-0.000107948
0.00169072
-0.00173862
-5.64844e-05
0.00145228
-0.00150374
-2.45643e-06
0.00114765
-0.00120168
5.31945e-05
0.000776027
-0.000831678
0.000109738
0.000337527
-0.00039407
0.000166934
-0.000166178
0.000108981
0.000225054
-0.000731433
0.000673314
0.000284825
-0.00134967
0.0012899
0.000346926
-0.00200387
0.00194177
0.000411184
-0.00266615
0.00260189
0.000475956
-0.00330052
0.00323575
0.00053825
-0.00387197
0.00380967
0.000594482
-0.00435633
0.0043001
0.000641413
-0.0047449
0.00469797
0.000676512
-0.0050429
0.0050078
0.000697862
-0.00526512
0.00524377
0.000703928
-0.00543244
0.00542637
0.00069385
-0.00556916
0.00557924
0.000668929
-0.00569641
0.00572133
0.00063492
-0.00581555
0.00584956
0.000603117
-0.00588549
0.00591729
0.000587742
-0.00581363
0.005829
0.000599749
-0.00548282
0.00547082
0.00064173
-0.0048082
0.00476622
0.000708494
-0.00377857
0.0037118
0.00079151
-0.00244851
0.00236549
0.000882353
-0.000910321
0.000819479
0.000974049
0.000730651
-0.000822347
0.00106075
0.00235392
-0.00244063
0.00113729
0.00384642
-0.00392296
0.00119932
0.00509901
-0.00516104
0.00124377
0.00606414
-0.00610858
0.00126891
0.00672182
-0.00674697
0.00127558
0.00714802
-0.00715469
0.00126635
0.0073512
-0.00734196
0.00124062
0.00746756
-0.00744183
0.00119495
0.00753114
-0.00748547
0.00113008
0.0077811
-0.00771623
0.00105732
0.00788049
-0.00780773
0.000991154
0.00763385
-0.00756768
0.000942836
0.0064698
-0.00642148
0.000908351
0.00439126
-0.00435678
0.000889479
0.00195961
-0.00194074
-0.00210431
0.0021138
-0.00013979
0.00194
-9.57308e-05
0.00182112
-4.78223e-05
0.00164281
3.01248e-06
0.00140145
5.57157e-05
0.00109495
0.000109399
0.000722344
0.000163344
0.000283581
0.000217339
-0.000220173
0.000271745
-0.00078584
0.000327446
-0.00140537
0.000385313
-0.00206174
0.000445333
-0.00272617
0.000505956
-0.00336114
0.000564234
-0.00393024
0.00061665
-0.00440875
0.000660051
-0.0047883
0.000692018
-0.00507486
0.000710719
-0.00528382
0.000714615
-0.00543633
0.000702614
-0.00555716
0.00067545
-0.00566925
0.000638126
-0.00577822
0.000601467
-0.00584883
0.000580045
-0.0057922
0.000585997
-0.00548878
0.000623188
-0.00484539
0.000687048
-0.00384243
0.000769047
-0.00253051
0.000860454
-0.00100173
0.000953876
0.000637229
0.00104305
0.00226475
0.00112248
0.00376699
0.00118756
0.00503393
0.00123495
0.00601675
0.00126279
0.00669398
0.00127185
0.00713895
0.00126461
0.00735844
0.00124029
0.00749188
0.00119561
0.00757582
0.00113174
0.00784497
0.00106014
0.0079521
0.000994939
0.00769906
0.00094709
0.00651764
0.000912751
0.0044256
0.000893286
0.00197908
-0.00209423
-7.85257e-05
0.00189957
-3.40244e-05
0.00177661
1.37226e-05
0.00159506
6.3735e-05
0.00135143
0.000115026
0.00104366
0.000166649
0.000670721
0.00021792
0.00023231
0.000268652
-0.000270905
0.000319296
-0.000836483
0.000370882
-0.00145696
0.000424465
-0.00211532
0.000480185
-0.00278189
0.000536579
-0.00341754
0.00059075
-0.00398442
0.000639255
-0.00445725
0.000679045
-0.00482809
0.000707818
-0.00510363
0.000723843
-0.00529985
0.0007256
-0.00543809
0.000711809
-0.00554337
0.000682668
-0.00564011
0.000642385
-0.00573794
0.000601196
-0.00580764
0.000573873
-0.00576488
0.000573683
-0.00548859
0.000605847
-0.00487755
0.000666536
-0.00390312
0.000747271
-0.00261124
0.000839034
-0.00109349
0.000934022
0.000542241
0.00102555
0.00217322
0.00110781
0.00368474
0.00117589
0.00496584
0.0012262
0.00596644
0.00125672
0.00666346
0.00126821
0.00712747
0.00126299
0.00736366
0.00124011
0.00751476
0.0011965
0.00761942
0.00113371
0.00790776
0.00106332
0.00802248
0.000999112
0.00776327
0.000951748
0.00656501
0.000917581
0.00445977
0.000897566
0.00199909
-0.00208358
-1.58637e-05
0.00185828
2.88669e-05
0.00173188
7.62838e-05
0.00154765
0.000125389
0.00130233
0.000175156
0.00099389
0.000224647
0.00062123
0.000273192
0.000183765
0.000320632
-0.000318345
0.000367496
-0.000883346
0.000414957
-0.00150442
0.000464243
-0.00216461
0.000515633
-0.00283328
0.000567745
-0.00346965
0.000617736
-0.00403441
0.00066225
-0.00450177
0.000698358
-0.0048642
0.000723884
-0.00512916
0.000737208
-0.00531317
0.000736851
-0.00543773
0.000721387
-0.00552791
0.000690518
-0.00560924
0.000647638
-0.00569506
0.000602274
-0.00576228
0.000569241
-0.00573185
0.000562855
-0.0054822
0.000589769
-0.00490447
0.000647018
-0.00396037
0.000726237
-0.00269046
0.000818141
-0.00118539
0.000914524
0.000445857
0.00100829
0.00207945
0.00109328
0.00359975
0.00116431
0.00489481
0.00121751
0.00591324
0.00125074
0.00663024
0.00126466
0.00711354
0.00126148
0.00736684
0.00124008
0.00753616
0.00119761
0.0076619
0.00113597
0.00796939
0.00106686
0.00809159
0.00100367
0.00782645
0.000956812
0.00661187
0.000922848
0.00449373
0.000902325
0.00201961
-0.00207241
4.76597e-05
0.00181638
9.25474e-05
0.001687
0.000139531
0.00150066
0.000187615
0.00125424
0.000235778
0.000945727
0.000283085
0.000573923
0.000328878
0.000137971
0.000373023
-0.000362491
0.000416124
-0.000926447
0.000459489
-0.00154778
0.000504501
-0.00220962
0.000551564
-0.00288034
0.000599365
-0.00351745
0.000645123
-0.00408016
0.000685583
-0.00454223
0.000717949
-0.00489656
0.000740184
-0.0051514
0.000750786
-0.00532377
0.000748333
-0.00543528
0.000731298
-0.00551087
0.000698936
-0.00557687
0.000653817
-0.00564994
0.000604658
-0.00571312
0.00056615
-0.00569334
0.000553555
-0.0054696
0.00057501
-0.00492592
0.000628551
-0.00401391
0.000705999
-0.00276791
0.00079782
-0.00127722
0.00089542
0.000348256
0.000991293
0.00198358
0.00107893
0.00351211
0.00115285
0.00482089
0.00120891
0.00585718
0.00124482
0.00659433
0.0012612
0.00709716
0.00126009
0.00736794
0.00124022
0.00755604
0.00119893
0.00770318
0.00113853
0.0080298
0.00107075
0.00815937
0.00100862
0.00788858
0.000962283
0.0066582
0.000928553
0.00452746
0.00090757
0.0020406
-0.00206072
0.000111759
0.00177392
0.000156651
0.0016421
0.000203085
0.00145423
0.000250062
0.00120727
0.00029656
0.000899229
0.000341651
0.000528832
0.000384688
9.49339e-05
0.000425565
-0.000403368
0.000464955
-0.000965837
0.000504289
-0.00158712
0.000545088
-0.00225042
0.000587858
-0.00292311
0.000631347
-0.00356094
0.000672839
-0.00412166
0.000709196
-0.00457859
0.000737773
-0.00492514
0.000756684
-0.00517031
0.000764546
-0.00533164
0.000760014
-0.00543075
0.000741496
-0.00549235
0.000707854
-0.00554323
0.000660849
-0.00560294
0.000608295
-0.00566057
0.00056459
-0.00564963
0.000545814
-0.00545083
0.000561624
-0.00494173
0.000611188
-0.00406347
0.000686605
-0.00284333
0.000778114
-0.00136872
0.000876745
0.000249626
0.000974581
0.00188574
0.00106477
0.00342192
0.0011415
0.00474416
0.00120039
0.00579829
0.00123899
0.00655573
0.00125784
0.00707831
0.00125882
0.00736696
0.0012405
0.00757436
0.00120048
0.00774321
0.00114138
0.0080889
0.00107499
0.00822576
0.00101395
0.00794962
0.000968165
0.00670399
0.000934701
0.00456093
0.000913307
0.00206199
-0.00204856
0.000176002
0.00173105
0.000220788
0.00159732
0.00026658
0.00140844
0.00031238
0.00116147
0.00035717
0.000854438
0.000400031
0.000485971
0.000440333
5.46318e-05
0.000477997
-0.000441032
0.000513762
-0.0010016
0.000549167
-0.00162252
0.000585851
-0.0022871
0.000624395
-0.00296165
0.000663594
-0.00360014
0.000700805
-0.00415887
0.000733025
-0.00461081
0.000757779
-0.00494989
0.000773343
-0.00518587
0.000778457
-0.00533675
0.000771859
-0.00542415
0.000751932
-0.00547243
0.000717206
-0.00550851
0.000668657
-0.00555439
0.000613123
-0.00560503
0.000564541
-0.00560105
0.000539658
-0.00542595
0.000549656
-0.00495173
0.000594978
-0.00410879
0.0006681
-0.00291645
0.000759065
-0.00145969
0.00085853
0.00015016
0.000958182
0.00178609
0.00105081
0.0033293
0.00113029
0.00466467
0.00119196
0.00573663
0.00123323
0.00651446
0.00125456
0.00705698
0.00125765
0.00736387
0.00124094
0.00759107
0.00120223
0.00778191
0.00114452
0.00814661
0.00107958
0.0082907
0.00101967
0.00800954
0.000974456
0.0067492
0.000941294
0.00459409
0.00091954
0.00208374
-0.00203596
0.000239994
0.00168787
0.000284582
0.00155273
0.000329657
0.00136336
0.000374226
0.0011169
0.000417282
0.000811382
0.000457917
0.000445337
0.000495529
1.70192e-05
0.000530062
-0.000475565
0.00056232
-0.00103386
0.000593936
-0.00165414
0.000626636
-0.0023198
0.000661052
-0.00299607
0.000696007
-0.00363509
0.000728939
-0.0041918
0.000757003
-0.00463887
0.000777915
-0.0049708
0.000790118
-0.00519807
0.000792482
-0.00533912
0.000783834
-0.0054155
0.000762562
-0.00545115
0.000726925
-0.00547287
0.000677159
-0.00550462
0.00061907
-0.00554694
0.000565969
-0.00554795
0.000535098
-0.00539507
0.000539147
-0.00495578
0.000579966
-0.00414961
0.000650527
-0.00298701
0.000740708
-0.00154987
0.000840808
5.00597e-05
0.000942117
0.00168478
0.00103707
0.00323435
0.00111922
0.00458253
0.00118362
0.00567222
0.00122756
0.00647052
0.00125138
0.00703316
0.00125659
0.00735866
0.00124152
0.00760615
0.0012042
0.00781923
0.00114794
0.00820287
0.00108451
0.00835413
0.00102576
0.00806828
0.000981157
0.00679381
0.000948335
0.00462691
0.000926273
0.0021058
-0.00202294
0.000303356
0.000347666
0.00150842
0.000391965
0.00131906
0.000435266
0.0010736
0.000476578
0.00077007
0.00051501
0.000406904
0.00055
-1.79698e-05
0.000581511
-0.000507076
0.000610413
-0.00106276
0.000638414
-0.00168214
0.000667295
-0.00234868
0.000697705
-0.00302648
0.000728483
-0.00366587
0.000757158
-0.00422047
0.000781062
-0.00466277
0.000798123
-0.00498787
0.000806965
-0.00520691
0.000806585
-0.00533874
0.000795904
-0.00540482
0.00077334
-0.00542859
0.000736946
-0.00543647
0.000686271
-0.00545395
0.000626056
-0.00548673
0.000568828
-0.00549072
0.00053214
-0.00535839
0.000530134
-0.00495377
0.000566194
-0.00418567
0.000633923
-0.00305474
0.000723078
-0.00163902
0.000823607
-5.04688e-05
0.00092641
0.00158197
0.00102356
0.00313719
0.00110829
0.0044978
0.00117538
0.00560513
0.00122197
0.00642393
0.00124828
0.00700685
0.00125564
0.0073513
0.00124224
0.00761955
0.00120637
0.0078551
0.00115164
0.0082576
0.00108977
0.008416
0.00103224
0.00812581
0.000988268
0.00683777
0.000955824
0.00465936
0.000933511
0.00212812
-0.00200954
0.000409688
0.00146445
0.000453167
0.00127559
0.00049518
0.00103158
0.000534755
0.000730495
0.000571031
0.000370628
0.000603481
-5.04205e-05
0.000632111
-0.000535705
0.000657839
-0.00108849
0.000682429
-0.00170673
0.000707685
-0.00237394
0.000734235
-0.00305303
0.000760922
-0.00369256
0.000785374
-0.00424492
0.000805128
-0.00468253
0.000818343
-0.00500108
0.000823834
-0.0052124
0.000820726
-0.00533563
0.000808033
-0.00539213
0.000784224
-0.00540478
0.000747205
-0.00539946
0.000695907
-0.00540265
0.000633993
-0.00542481
0.000573063
-0.00542979
0.000530776
-0.0053161
0.000522645
-0.00494564
0.000553699
-0.00421672
0.000618324
-0.00311937
0.000706207
-0.00172691
0.000806952
-0.000151214
0.000911079
0.00147785
0.00101031
0.00303796
0.00109752
0.00441059
0.00116725
0.0055354
0.00121646
0.00637472
0.00124527
0.00697804
0.00125478
0.0073418
0.0012431
0.00763123
0.00120874
0.00788946
0.00115561
0.00831073
0.00109536
0.00847625
0.00103908
0.00818209
0.000995787
0.00688107
0.000963764
0.00469138
0.000941256
0.00215063
-0.00199579
0.000470315
0.00142087
0.000512946
0.00123295
0.000553667
0.000990864
0.000591531
0.000692631
0.000625711
0.000336448
0.000655734
-8.04435e-05
0.000681644
-0.000561615
0.000704408
-0.00111125
0.000725821
-0.00172814
0.00074767
-0.00239579
0.000770527
-0.00307589
0.000793222
-0.00371525
0.0008135
-0.0042652
0.000829127
-0.00469816
0.000838513
-0.00501047
0.000840673
-0.00521456
0.000834862
-0.00532982
0.000820183
-0.00537745
0.00079517
-0.00537977
0.00075764
-0.00536193
0.000705983
-0.00535099
0.00064279
-0.00536162
0.000578605
-0.00536561
0.000530987
-0.00526848
0.000516703
-0.00493136
0.000542518
-0.00424254
0.00060376
-0.00318061
0.000690121
-0.00181327
0.000790868
-0.000251961
0.000896142
0.00137257
0.000997312
0.00293679
0.00108691
0.00432099
0.00115922
0.0054631
0.00121104
0.0063229
0.00124235
0.00694673
0.00125402
0.00733012
0.00124409
0.00764115
0.0012113
0.00792226
0.00115984
0.00836219
0.00110127
0.00853482
0.00104629
0.00823707
0.00100371
0.00692365
0.000972154
0.00472294
0.00094951
0.00217327
-0.00198174
0.000529235
0.0013777
0.000571006
0.00119118
0.000610447
0.000951423
0.000646645
0.000656433
0.00067881
0.000304283
0.000706539
-0.000108172
0.000729915
-0.000584992
0.000749951
-0.00113129
0.000768443
-0.00174663
0.000787123
-0.00241447
0.000806468
-0.00309523
0.000825285
-0.00373407
0.000841449
-0.00428137
0.000852982
-0.00470969
0.00085857
-0.00501606
0.000857431
-0.00521343
0.000848951
-0.00532134
0.000832316
-0.00536081
0.000806138
-0.00535359
0.000768191
-0.00532398
0.000716412
-0.00529921
0.000652347
-0.00529756
0.000585376
-0.00529864
0.000532742
-0.00521585
0.000512322
-0.00491094
0.00053268
-0.0042629
0.00059026
-0.00323819
0.000674845
-0.00189785
0.000775375
-0.000352491
0.000881616
0.00126633
0.000984585
0.00283382
0.00107647
0.0042291
0.0011513
0.00538828
0.0012057
0.00626849
0.00123949
0.00691294
0.00125334
0.00731628
0.00124521
0.00764929
0.00121405
0.00795342
0.00116433
0.00841191
0.0011075
0.00859165
0.00105387
0.0082907
0.00101204
0.00696548
0.000980993
0.00475399
0.000958276
0.00219599
-0.00196741
0.00058616
0.00133498
0.000627075
0.00115027
0.000665267
0.000913231
0.00069986
0.00062184
0.000730115
0.000274028
0.000755701
-0.000133757
0.000776754
-0.000606046
0.000794317
-0.00114885
0.000810167
-0.00176248
0.000825931
-0.00243023
0.000841954
-0.00311125
0.000857013
-0.00374913
0.000869133
-0.00429349
0.000876619
-0.00471717
0.000878448
-0.00501788
0.000874054
-0.00520903
0.000862946
-0.00531023
0.000844393
-0.00534226
0.000817085
-0.00532628
0.000778803
-0.0052857
0.000727111
-0.00524752
0.000662563
-0.00523301
0.000593288
-0.00522936
0.000536001
-0.00515856
0.000509508
-0.00488444
0.000524213
-0.0042776
0.000577852
-0.00329183
0.000660402
-0.0019804
0.000760492
-0.000452581
0.000867515
0.00115931
0.000972137
0.0027292
0.00106621
0.00413503
0.00114348
0.00531101
0.00120044
0.00621153
0.00123672
0.00687666
0.00125275
0.00730024
0.00124644
0.00765559
0.00121697
0.00798289
0.00116906
0.00845982
0.00111402
0.00864669
0.0010618
0.00834292
0.00102077
0.00700651
0.00099028
0.00478448
0.000967553
0.00221871
-0.00195285
0.000640832
0.00129269
0.000680913
0.00111019
0.000717903
0.00087624
0.000750972
0.000588771
0.000779438
0.000245562
0.000803055
-0.000157374
0.000822015
-0.000625006
0.000837382
-0.00116422
0.000850881
-0.00177598
0.000863989
-0.00244334
0.000876887
-0.00312415
0.000888312
-0.00376056
0.000896464
-0.00430164
0.000899959
-0.00472067
0.000898082
-0.00501601
0.000890486
-0.00520144
0.000876802
-0.00529654
0.000856375
-0.00532183
0.000827974
-0.00529788
0.000789421
-0.00524714
0.000737998
-0.0051961
0.000673335
-0.00516835
0.000602245
-0.00515827
0.000540708
-0.00509702
0.000508259
-0.004852
0.000517141
-0.00428648
0.000566558
-0.00334124
0.000646809
-0.00206066
0.000746236
-0.000552008
0.000853851
0.00105169
0.000959976
0.00262308
0.00105612
0.00403888
0.00113578
0.00523135
0.00119525
0.00615206
0.001234
0.0068379
0.00125223
0.00728202
0.00124778
0.00766004
0.00122006
0.00801062
0.00117402
0.00850585
0.00112084
0.00869987
0.00107008
0.00839368
0.00102989
0.00704669
0.00100001
0.00481436
0.000977342
0.00224138
-0.00193811
0.000693024
0.00125084
0.000732305
0.00107091
0.000768161
0.000840385
0.000799807
0.000557124
0.000826622
0.000218748
0.000848467
-0.000179219
0.000865581
-0.00064212
0.000879044
-0.00117768
0.000890491
-0.00178743
0.000901209
-0.00245406
0.000911175
-0.00313412
0.000919092
-0.00376847
0.000923358
-0.0043059
0.000922927
-0.00472024
0.000917408
-0.00501049
0.000906672
-0.0051907
0.000890473
-0.00528034
0.00086822
-0.00529958
0.000838763
-0.00526842
0.000799993
-0.00520837
0.000748995
-0.0051451
0.000684558
-0.00510391
0.000612143
-0.00508586
0.000546797
-0.00503168
0.000508563
-0.00481376
0.000511484
-0.0042894
0.000556401
-0.00338616
0.000634085
-0.00213834
0.000732619
-0.000650542
0.000840634
0.000943679
0.000948107
0.0025156
0.00104621
0.00394079
0.00112818
0.00514938
0.00119014
0.00609009
0.00123135
0.00679669
0.00125177
0.00726161
0.00124923
0.00766258
0.0012233
0.00803655
0.00117921
0.00854994
0.00112794
0.00875115
0.00107869
0.00844293
0.00103941
0.00708597
0.00101019
0.00484358
0.000987641
0.00226393
-0.00192321
0.00074254
0.00120939
0.000781075
0.00103237
0.000815878
0.000805582
0.000846225
0.000526777
0.000871545
0.000193428
0.000891833
-0.000199507
0.000907365
-0.000657652
0.000919224
-0.00118954
0.000928925
-0.00179713
0.000937511
-0.00246264
0.000944732
-0.00314134
0.000949264
-0.003773
0.00094973
-0.00430637
0.000945448
-0.00471596
0.00093636
-0.0050014
0.000922558
-0.0051769
0.00090391
-0.0052617
0.000879889
-0.00527556
0.000849416
-0.00523795
0.000810473
-0.00516943
0.000760027
-0.00509466
0.000696127
-0.00504001
0.000622871
-0.0050126
0.000554193
-0.004963
0.000510397
-0.00476997
0.000507256
-0.00428626
0.000547401
-0.00342631
0.000622244
-0.00221318
0.000719654
-0.000747952
0.000827874
0.000835459
0.000936538
0.00240694
0.00103648
0.00384085
0.00112069
0.00506516
0.0011851
0.00602568
0.00122876
0.00675303
0.00125137
0.007239
0.00125076
0.00766319
0.00122669
0.00806062
0.00118461
0.00859202
0.0011353
0.00880045
0.00108764
0.0084906
0.00104931
0.0071243
0.0010208
0.00487209
0.00099845
0.00228628
-0.0019082
0.000789225
0.00116831
0.00082708
0.000994515
0.000860931
0.000771731
0.000890112
0.000497595
0.000914129
0.000169411
0.000933083
-0.000218462
0.000947311
-0.000671879
0.000957873
-0.0012001
0.000966127
-0.00180538
0.00097283
-0.00246935
0.000977483
-0.00314599
0.000978744
-0.00377427
0.000975499
-0.00430313
0.000967449
-0.00470791
0.000954875
-0.00498883
0.00093809
-0.00516011
0.000917068
-0.00524067
0.00089134
-0.00524983
0.000859893
-0.0052065
0.000820814
-0.00513035
0.000771025
-0.00504487
0.00070794
-0.00497692
0.000634314
-0.00493898
0.000562806
-0.00489149
0.00051373
-0.00472089
0.000504467
-0.004277
0.000539579
-0.00346142
0.000611299
-0.0022849
0.000707348
-0.000844001
0.000815576
0.000727231
0.00092527
0.00229725
0.00102693
0.00373919
0.00111331
0.00497879
0.00118012
0.00595887
0.00122621
0.00670695
0.00125102
0.00721419
0.00125237
0.00766183
0.00123021
0.00808277
0.0011902
0.00863203
0.00114293
0.00884773
0.0010969
0.00853662
0.00105958
0.00716161
0.00103185
0.00489982
0.00100976
0.00230837
-0.00189314
0.000832958
0.00112755
0.000870216
0.000957258
0.000903232
0.000738715
0.000931406
0.000469422
0.000954311
0.000146505
0.000972181
-0.000236331
0.000985389
-0.000685088
0.000994962
-0.00120968
0.00100206
-0.00181248
0.00100711
-0.0024744
0.00100935
-0.00314823
0.00100745
-0.00377237
0.00100059
-0.00429626
0.000988856
-0.00469618
0.000972892
-0.00497286
0.000953213
-0.00514044
0.0009299
-0.00521736
0.000902533
-0.00522247
0.000870158
-0.00517413
0.000830974
-0.00509117
0.000781923
-0.00499582
0.000719898
-0.0049149
0.000646355
-0.00486543
0.000572541
-0.00481768
0.000518515
-0.00466686
0.000503121
-0.00426161
0.00053295
-0.00349125
0.000601263
-0.00235322
0.00069571
-0.000938449
0.000803746
0.000619194
0.000914308
0.00218669
0.00101756
0.00363594
0.00110603
0.00489032
0.0011752
0.00588969
0.0012237
0.00665846
0.0012507
0.00718718
0.00125406
0.00765848
0.00123386
0.00810297
0.00119598
0.00866991
0.00115079
0.00889292
0.00110647
0.00858094
0.00107023
0.00719786
0.00104332
0.00492672
0.00102158
0.00233011
-0.00187805
0.000873664
0.00108704
0.000910419
0.000920502
0.000942733
0.000706402
0.000970081
0.000442073
0.00099207
0.000124517
0.00100912
-0.000253385
0.0010216
-0.000697568
0.00103049
-0.00121856
0.0010367
-0.00181869
0.00104031
-0.002478
0.00104028
-0.00314821
0.00103531
-0.0037674
0.00102491
-0.00428586
0.0010096
-0.00468087
0.00099035
-0.00495361
0.000967878
-0.00511796
0.000942361
-0.00519184
0.000913427
-0.00519353
0.000880174
-0.00514088
0.000840914
-0.00505191
0.00079266
-0.00494756
0.000731905
-0.00485414
0.000658874
-0.0047924
0.000583289
-0.00474209
0.0005247
-0.00460827
0.000503214
-0.00424012
0.000527532
-0.00351556
0.000592147
-0.00241783
0.000684746
-0.00103105
0.000792388
0.000511552
0.000903653
0.00207542
0.00100838
0.00353121
0.00109885
0.00479985
0.00117034
0.0058182
0.00122121
0.00660758
0.00125042
0.00715798
0.0012558
0.0076531
0.00123762
0.00812115
0.00120193
0.0087056
0.00115888
0.00893596
0.00111633
0.00862349
0.00108123
0.00723297
0.00105522
0.00495273
0.0010339
0.00235144
-0.001863
0.000911309
0.000947669
0.000884142
0.000979425
0.000674646
0.00100614
0.000415361
0.00102744
0.000103214
0.00104394
-0.000269887
0.00105599
-0.000709612
0.00106447
-0.00122705
0.00107005
-0.00182426
0.00107238
-0.00248034
0.00107019
-0.00314602
0.00106225
-0.00375946
0.0010484
-0.00427201
0.00102962
-0.00466208
0.00100719
-0.00493118
0.000982033
-0.00509281
0.000954407
-0.00516422
0.000923982
-0.00516311
0.000889905
-0.0051068
0.000850595
-0.0050126
0.000803181
-0.00490015
0.00074387
-0.00479483
0.00067175
-0.00472028
0.000594938
-0.00466528
0.000532216
-0.00454555
0.000504736
-0.00421264
0.000523338
-0.00353417
0.000583963
-0.00247846
0.00067446
-0.00112154
0.000781503
0.00040451
0.000893305
0.00196362
0.000999379
0.00342514
0.00109177
0.00470746
0.00116552
0.00574445
0.00121875
0.00655435
0.00125015
0.00712658
0.00125759
0.00764566
0.00124147
0.00813727
0.00120803
0.00873904
0.00116718
0.00897681
0.00112648
0.00866419
0.00109258
0.00726687
0.00106753
0.00497777
0.0010467
0.00237226
-0.00184804
0.00098199
0.000848059
0.00101334
0.000643292
0.00103961
0.000389099
0.00106049
8.23276e-05
0.0010767
-0.000286097
0.0010886
-0.000721505
0.00109695
-0.00123541
0.0011021
-0.00182941
0.00110331
-0.00248155
0.00109904
-0.00314175
0.00108819
-0.0037486
0.00107099
-0.00425482
0.00104884
-0.00463994
0.00102336
-0.0049057
0.000995631
-0.00506508
0.000965995
-0.00513458
0.000934161
-0.00513127
0.000899316
-0.00507195
0.000859982
-0.00497326
0.000813436
-0.0048536
0.000755709
-0.0047371
0.000684865
-0.00464944
0.000607368
-0.00458778
0.000540987
-0.00447917
0.000507667
-0.00417932
0.000520382
-0.00354688
0.000576724
-0.0025348
0.000664858
-0.00120968
0.000771093
0.000298275
0.000883265
0.00185145
0.000990558
0.00331784
0.00108479
0.00461323
0.00116075
0.00566849
0.00121631
0.00649879
0.00124989
0.007093
0.00125941
0.00763614
0.0012454
0.00815128
0.00121427
0.00877016
0.00117568
0.0090154
0.0011369
0.00870298
0.00110427
0.0072995
0.00108024
0.0050018
0.00105999
0.00239251
-0.0018332
0.00101345
0.000812128
0.00104457
0.000612174
0.0010706
0.000363069
0.00109131
6.16236e-05
0.0011075
-0.000302296
0.00111952
-0.000733516
0.00112798
-0.00124387
0.00113288
-0.00183431
0.00113305
-0.00248172
0.00112676
-0.00313546
0.00111306
-0.0037349
0.0010926
-0.00423436
0.00106721
-0.00461455
0.00103881
-0.00487729
0.00100863
-0.0050349
0.000977086
-0.00510304
0.000943926
-0.00509811
0.000908373
-0.0050364
0.000869043
-0.00493393
0.000823379
-0.00480794
0.000767343
-0.00468107
0.000698102
-0.0045802
0.000620453
-0.00451013
0.000550924
-0.00440964
0.000511979
-0.00414037
0.000518671
-0.00355358
0.00057044
-0.00258657
0.000655943
-0.00129518
0.000761157
0.00019306
0.000873532
0.00173907
0.000981916
0.00320946
0.00107789
0.00451725
0.00115601
0.00559037
0.00121386
0.00644094
0.00124962
0.00705725
0.00126125
0.0076245
0.0012494
0.00816314
0.00122064
0.00879893
0.00118437
0.00905167
0.00114757
0.00873978
0.00111628
0.00733079
0.00109335
0.00502473
0.00107377
0.0024121
-0.00181855
0.00104218
0.000776219
0.00107323
0.000581121
0.00109925
0.000337052
0.00112001
4.08603e-05
0.00113647
-0.000318755
0.00114885
-0.000745894
0.00115763
-0.00125265
0.0011624
-0.00183908
0.00116159
-0.00248091
0.00115331
-0.00312718
0.0011368
-0.0037184
0.00111318
-0.00421073
0.00108468
-0.00458604
0.00105348
-0.0048461
0.00102098
-0.00500239
0.000987641
-0.0050697
0.000953241
-0.00506371
0.000917043
-0.0050002
0.000877745
-0.00489463
0.000832969
-0.00476316
0.0007787
-0.0046268
0.00071135
-0.00451285
0.000634065
-0.00443285
0.00056193
-0.00433751
0.000517633
-0.00409608
0.000518212
-0.00355415
0.000565126
-0.00263348
0.00064772
-0.00137777
0.000751696
8.90843e-05
0.000864104
0.00162666
0.000973449
0.00310011
0.00107109
0.00441962
0.00115129
0.00551017
0.00121141
0.00638082
0.00124933
0.00701932
0.00126311
0.00761073
0.00125345
0.0081728
0.00122711
0.00882527
0.00119321
0.00908557
0.00115847
0.00877451
0.0011286
0.00736066
0.00110684
0.00504649
0.00108801
0.00243093
-0.00180413
0.00106834
0.000740203
0.0010995
0.000549966
0.00112567
0.00031088
0.00114686
1.96726e-05
0.00116376
-0.000335655
0.00117672
-0.000758852
0.00118597
-0.00126191
0.00119069
-0.0018438
0.00118891
-0.00247913
0.00117862
-0.00311689
0.00115935
-0.00369913
0.00113266
-0.00418404
0.00110118
-0.00455456
0.00106734
-0.00481226
0.00103265
-0.0049677
0.000997623
-0.00503468
0.000962073
-0.00502816
0.000925294
-0.00496342
0.000886059
-0.0048554
0.000842171
-0.00471927
0.000789716
-0.00457434
0.000724503
-0.00444763
0.000648076
-0.00435642
0.000573898
-0.00426333
0.000524582
-0.00404676
0.000519004
-0.00354858
0.000560794
-0.00267527
0.000640196
-0.00145718
0.00074271
-1.34299e-05
0.000854979
0.00151439
0.000965156
0.00298994
0.00106436
0.00432041
0.0011466
0.00542793
0.00120894
0.00631848
0.00124902
0.00697924
0.00126496
0.00759479
0.00125754
0.00818022
0.00123367
0.00884913
0.0012022
0.00911704
0.0011696
0.00880711
0.00114123
0.00738903
0.00112071
0.00506701
0.00110271
0.00244893
-0.00179001
0.00109217
0.000703951
0.0011236
0.000518538
0.00114999
0.000284497
0.00117211
-2.4475e-06
0.00118954
-0.000353085
0.00120326
-0.000772574
0.00121309
-0.00127174
0.00121777
-0.00184848
0.00121497
-0.00247633
0.00120264
-0.00310456
0.00118064
-0.00367713
0.00115098
-0.00415438
0.00111667
-0.00452025
0.00108034
-0.00477594
0.0010436
-0.00493096
0.001007
-0.00499808
0.00097039
-0.00499155
0.000933096
-0.00492613
0.000893958
-0.00481626
0.000850952
-0.00467627
0.000800333
-0.00452372
0.000737458
-0.00438476
0.000662355
-0.00428132
0.000586715
-0.00418769
0.000532767
-0.00399281
0.000521044
-0.00353685
0.000557458
-0.00271169
0.000633378
-0.0015331
0.000734198
-0.000114251
0.000846154
0.00140244
0.000957031
0.00287906
0.00105771
0.00421973
0.00114191
0.00534373
0.00120644
0.00625395
0.00124867
0.00693701
0.00126679
0.00757667
0.00126165
0.00818536
0.00124031
0.00887047
0.00121132
0.00914604
0.00118093
0.0088375
0.00115414
0.00741583
0.00113493
0.00508621
0.00111786
0.002466
-0.00177624
0.00111394
0.000667347
0.00114581
0.000486672
0.0011728
0.000257505
0.00119564
-2.52841e-05
0.00121398
-0.000371433
0.0012286
-0.000787189
0.00123905
-0.00128219
0.00124364
-0.00185307
0.00123973
-0.00247242
0.00122532
-0.00309015
0.00120062
-0.00365243
0.0011681
-0.00412186
0.00113111
-0.00448325
0.00109245
-0.00473728
0.00105379
-0.0048923
0.00101574
-0.00496003
0.000978163
-0.00495397
0.000940421
-0.00488839
0.000901415
-0.00477726
0.000859284
-0.00463414
0.000810501
-0.00447494
0.000750125
-0.00432438
0.000676775
-0.00420797
0.000600258
-0.00411117
0.000542118
-0.00393467
0.000524318
-0.00351905
0.000555131
-0.0027425
0.000627276
-0.00160524
0.000726162
-0.000213136
0.000837627
0.00129097
0.000949071
0.00276762
0.00105113
0.00411768
0.00113723
0.00525763
0.0012039
0.00618728
0.00124826
0.00689266
0.00126859
0.00755634
0.00126577
0.00818818
0.001247
0.00888924
0.00122054
0.00917249
0.00119245
0.00886559
0.00116731
0.00744097
0.00114951
0.00510401
0.00113346
0.00248205
-0.00176287
0.00113397
0.00063029
0.00116643
0.000454213
0.00119419
0.000229745
0.00121789
-4.89771e-05
0.00123729
-0.000390835
0.00125288
-0.000802783
0.00126393
-0.00129323
0.00126832
-0.00185746
0.00126316
-0.00246726
0.00124659
-0.00307357
0.00121922
-0.00362507
0.00118397
-0.0040866
0.00114445
-0.00444374
0.00110363
-0.00469645
0.0010632
-0.00485188
0.00102382
-0.00492064
0.000985363
-0.00491552
0.000947242
-0.00485027
0.000908406
-0.00473842
0.000867142
-0.00459287
0.000820177
-0.00442798
0.000762415
-0.00426662
0.00069121
-0.00413676
0.000614404
-0.00403437
0.000552557
-0.00387283
0.000528809
-0.0034953
0.000553823
-0.00276751
0.0006219
-0.00167332
0.000718604
-0.000309841
0.000829396
0.00118018
0.000941273
0.00265574
0.00104461
0.00401434
0.00113254
0.0051697
0.00120132
0.0061185
0.00124779
0.00684619
0.00127034
0.00753379
0.00126987
0.00818864
0.00125373
0.00890538
0.00122986
0.00919637
0.00120413
0.00889132
0.00118074
0.00746436
0.00116441
0.00512034
0.00114948
0.00249698
-0.00174997
0.00115264
0.0011858
0.000421052
0.00121443
0.000201113
0.00123912
-7.36716e-05
0.00125966
-0.000411376
0.00127624
-0.000819361
0.00128778
-0.00130477
0.00129179
-0.00186147
0.00128522
-0.00246069
0.0012664
-0.00305475
0.0012364
-0.00359507
0.00119854
-0.00404874
0.00115668
-0.00440187
0.00111385
-0.00465362
0.00107181
-0.00480983
0.0010312
-0.00488004
0.000991966
-0.00487628
0.000953533
-0.00481183
0.000914907
-0.00469979
0.000874503
-0.00455247
0.000829324
-0.0043828
0.000774255
-0.00421155
0.000705541
-0.00406805
0.000629022
-0.00395785
0.000563995
-0.0038078
0.000534488
-0.0034658
0.000553546
-0.00278657
0.000617263
-0.00173704
0.000711531
-0.000404109
0.000821459
0.00107025
0.000933631
0.00254357
0.00103815
0.00390982
0.00112784
0.00508002
0.00119867
0.00604767
0.00124723
0.00679762
0.00127203
0.00750899
0.00127396
0.00818671
0.00126049
0.00891884
0.00123925
0.0092176
0.00121597
0.0089146
0.00119439
0.00748594
0.00117964
0.0051351
0.00116591
0.00251071
-0.00173759
0.00120426
0.000387119
0.00123384
0.000171532