/*--------------------------------*- C++ -*----------------------------------*\
  =========                 |
  \\      /  F ield         | OpenFOAM: The Open Source CFD Toolbox
   \\    /   O peration     | Website:  https://openfoam.org
    \\  /    A nd           | Version:  7
     \\/     M anipulation  |
\*---------------------------------------------------------------------------*/
FoamFile
{
    version     2.0;
    format      ascii;
    class       volVectorField;
    location    "85";
    object      U;
}
// * * * * * * * * * * * * * * * * * * * * * * * * * * * * * * * * * * * * * //

dimensions      [0 1 -1 0 0 0 0];

internalField   nonuniform List<vector> 
8500
(
(-0.116552 0.374609 -3.58463e-21)
(-0.0951921 0.345439 7.84368e-22)
(-0.0711877 0.306592 2.21597e-21)
(-0.0449624 0.258108 7.02255e-23)
(-0.0170224 0.200331 -4.34307e-21)
(0.0121125 0.133855 5.02811e-21)
(0.0419759 0.0594141 -2.26199e-21)
(0.07229 -0.0220277 1.1303e-21)
(0.103055 -0.109252 -2.17442e-21)
(0.134555 -0.200388 1.88088e-21)
(0.167235 -0.292503 -3.6096e-22)
(0.201296 -0.381405 -6.14392e-22)
(0.236256 -0.462185 -1.42036e-21)
(0.270792 -0.530521 1.64914e-21)
(0.303036 -0.583926 1.43505e-21)
(0.331122 -0.622152 -1.26956e-21)
(0.353534 -0.646793 -6.56546e-22)
(0.369144 -0.660546 7.05908e-23)
(0.377058 -0.666664 -1.41202e-22)
(0.376527 -0.668532 5.03959e-22)
(0.367356 -0.668784 -3.44677e-22)
(0.351052 -0.667425 3.0824e-22)
(0.332128 -0.659652 -5.6133e-22)
(0.317972 -0.635615 -2.1616e-22)
(0.316315 -0.584119 6.631e-23)
(0.331184 -0.498706 -3.62283e-23)
(0.361533 -0.38109 -1.34744e-22)
(0.403091 -0.239248 -9.94323e-22)
(0.451242 -0.0840092 1.07281e-21)
(0.501696 0.0735503 7.65592e-22)
(0.551407 0.221919 -3.06179e-22)
(0.597072 0.351289 9.47713e-23)
(0.636512 0.453143 -2.22042e-22)
(0.666959 0.525135 -3.41984e-22)
(0.688009 0.567552 -4.82522e-22)
(0.697672 0.588693 -2.36446e-22)
(0.699203 0.590713 1.67227e-22)
(0.691207 0.585477 -1.4639e-22)
(0.675184 0.575988 7.43032e-23)
(0.644376 0.580631 -1.9439e-23)
(0.607655 0.574143 2.81799e-23)
(0.566876 0.543412 5.83623e-23)
(0.538316 0.450105 2.96238e-23)
(0.516435 0.298314 -2.33279e-22)
(0.504142 0.129849 -5.74961e-26)
(0.498141 -0.137391 -3.08295e-23)
(-0.0923044 0.367408 -4.3676e-21)
(-0.0698292 0.337502 3.65405e-21)
(-0.0448639 0.298087 3.18002e-21)
(-0.0178679 0.249219 6.26169e-23)
(0.0106303 0.191251 -1.22754e-20)
(0.0400884 0.124746 1.33481e-20)
(0.0700292 0.0503928 -9.08834e-21)
(0.100167 -0.0309263 -3.50933e-21)
(0.130504 -0.118083 6.79255e-22)
(0.161355 -0.209274 4.16912e-22)
(0.193213 -0.301551 -9.77367e-21)
(0.226312 -0.390586 1.28902e-20)
(0.260158 -0.471256 -1.24456e-21)
(0.293394 -0.539063 -1.00773e-20)
(0.324154 -0.591472 2.37686e-21)
(0.350623 -0.628314 1.57855e-21)
(0.371379 -0.651307 -2.4428e-21)
(0.385404 -0.663247 1.27167e-21)
(0.39189 -0.667441 2.28026e-21)
(0.390097 -0.667352 -1.93369e-21)
(0.379666 -0.665853 1.33652e-21)
(0.36172 -0.66344 -8.6852e-22)
(0.340315 -0.655901 4.55388e-22)
(0.32265 -0.633667 6.3215e-22)
(0.316802 -0.585135 1.42547e-22)
(0.327548 -0.502897 -4.21188e-23)
(0.354448 -0.387824 -5.48141e-22)
(0.39346 -0.24757 5.38887e-24)
(0.439999 -0.093019 1.36951e-21)
(0.489682 0.0645661 -1.28848e-21)
(0.539343 0.213525 -3.26633e-21)
(0.585532 0.343951 2.56457e-22)
(0.625997 0.447219 4.69802e-22)
(0.657773 0.520848 -1.55047e-22)
(0.680329 0.564988 1.80103e-22)
(0.691493 0.587714 -3.27096e-22)
(0.694551 0.591048 -1.23554e-22)
(0.687792 0.587122 3.05616e-22)
(0.672743 0.579144 -2.01563e-22)
(0.642678 0.585159 1.59555e-23)
(0.606966 0.579148 -1.102e-22)
(0.56723 0.547848 -2.10495e-22)
(0.539692 0.45322 7.89557e-23)
(0.518402 0.300437 7.20085e-22)
(0.506576 0.130918 1.92061e-22)
(0.499986 -0.13694 -1.4591e-22)
(-0.0668602 0.359972 2.23375e-20)
(-0.0433412 0.329438 -1.65281e-20)
(-0.0174888 0.289566 -3.33438e-22)
(0.0102081 0.240429 8.8365e-21)
(0.039201 0.18238 -2.034e-21)
(0.0689278 0.11595 -3.05487e-21)
(0.098901 0.0417844 1.70513e-20)
(0.128825 -0.0393241 -5.06052e-21)
(0.158705 -0.126341 7.96033e-21)
(0.188888 -0.217542 5.52392e-22)
(0.219911 -0.309965 -5.31792e-21)
(0.252029 -0.399141 -7.53446e-22)
(0.284726 -0.479722 1.3487e-20)
(0.316607 -0.547026 -2.45123e-21)
(0.345807 -0.598473 -4.57718e-21)
(0.370576 -0.633979 7.11027e-22)
(0.389597 -0.655385 7.35496e-22)
(0.401965 -0.665581 -3.67448e-21)
(0.406969 -0.66792 4.25079e-21)
(0.403902 -0.665915 -3.29009e-21)
(0.392269 -0.66264 -2.38866e-21)
(0.372824 -0.659059 1.44222e-21)
(0.34914 -0.651586 3.14238e-21)
(0.328142 -0.631027 -1.59992e-21)
(0.318176 -0.58546 3.1072e-22)
(0.324763 -0.506537 -2.07211e-21)
(0.348123 -0.394215 1.43242e-21)
(0.384482 -0.255752 -1.10757e-21)
(0.429302 -0.102055 -4.07366e-21)
(0.478114 0.0554343 1.73989e-21)
(0.527642 0.204906 4.26311e-22)
(0.574286 0.336343 2.55607e-21)
(0.61572 0.441005 3.31855e-22)
(0.648777 0.516279 2.27598e-21)
(0.672804 0.562163 -8.84106e-22)
(0.685452 0.586498 1.22266e-21)
(0.69003 0.591182 -4.0284e-22)
(0.684503 0.588616 -3.49935e-22)
(0.670436 0.58218 1.78586e-22)
(0.641139 0.589567 -1.57192e-22)
(0.606475 0.584022 -1.87849e-23)
(0.567801 0.552172 4.55931e-22)
(0.541303 0.456265 -2.63134e-22)
(0.520608 0.302524 -7.03916e-22)
(0.509274 0.132013 -1.95559e-22)
(0.502113 -0.136442 2.77492e-22)
(-0.0403942 0.352329 6.1204e-21)
(-0.0158989 0.321279 4.05813e-21)
(0.0107731 0.281058 1.75953e-20)
(0.0391063 0.231762 -3.07563e-21)
(0.0685358 0.173734 -1.79491e-20)
(0.0984832 0.107482 1.88424e-20)
(0.12845 0.0335983 -2.4515e-21)
(0.158132 -0.0472127 -1.63529e-20)
(0.187538 -0.13402 -4.93955e-21)
(0.21705 -0.225185 7.08325e-21)
(0.24724 -0.317739 -3.7697e-21)
(0.278376 -0.407061 1.58594e-20)
(0.309903 -0.48757 -2.16953e-20)
(0.340384 -0.554397 6.01343e-21)
(0.36796 -0.604917 -6.60605e-21)
(0.390954 -0.639135 3.44772e-21)
(0.408165 -0.659016 3.20769e-21)
(0.418809 -0.667543 -3.19807e-21)
(0.422281 -0.668103 -4.52061e-21)
(0.417919 -0.664235 2.33512e-21)
(0.40513 -0.659175 -3.36988e-22)
(0.384322 -0.654324 -2.689e-21)
(0.358559 -0.646748 -1.2129e-21)
(0.334422 -0.627715 -2.64704e-22)
(0.320436 -0.585087 -1.83139e-21)
(0.322839 -0.509604 3.38472e-21)
(0.342576 -0.400234 5.43335e-22)
(0.376182 -0.263766 1.79316e-21)
(0.419174 -0.111094 2.06175e-21)
(0.467014 0.0461727 -9.7234e-23)
(0.516323 0.196074 2.35755e-22)
(0.56335 0.328472 -5.31385e-21)
(0.605694 0.43451 7.31027e-22)
(0.639979 0.511433 4.046e-22)
(0.665442 0.559078 1.77837e-21)
(0.679555 0.585047 7.56364e-23)
(0.685644 0.591113 -2.25063e-22)
(0.681341 0.589954 2.77563e-22)
(0.668265 0.58509 -2.05805e-22)
(0.63976 0.593849 2.55518e-22)
(0.606184 0.588761 2.1203e-22)
(0.568591 0.556381 -1.11254e-22)
(0.543151 0.459241 1.28608e-21)
(0.523055 0.304574 7.67922e-22)
(0.512239 0.133132 9.64975e-22)
(0.504527 -0.135898 -2.23976e-22)
(-0.0130807 0.344512 -3.01653e-20)
(0.0123278 0.313051 2.64719e-20)
(0.0397538 0.272587 -7.49202e-21)
(0.0686641 0.223234 3.12547e-21)
(0.0984778 0.165329 -2.80007e-20)
(0.128602 0.0993527 5.61539e-21)
(0.158529 0.0258418 1.28738e-20)
(0.187949 -0.054588 7.06789e-21)
(0.216878 -0.141117 -4.10943e-21)
(0.245729 -0.232203 6.78411e-21)
(0.275108 -0.324871 -1.65717e-20)
(0.305277 -0.414344 2.40653e-21)
(0.33563 -0.494795 1.84793e-20)
(0.364677 -0.561165 2.18881e-21)
(0.390571 -0.610792 2.93545e-21)
(0.411723 -0.643771 -1.3225e-20)
(0.427057 -0.662194 7.63307e-22)
(0.435917 -0.66913 7.20817e-21)
(0.437807 -0.667992 -2.07441e-21)
(0.432129 -0.662326 -1.46126e-21)
(0.418219 -0.655486 4.20391e-21)
(0.396171 -0.649278 -4.34867e-21)
(0.368531 -0.641429 -1.84723e-21)
(0.341461 -0.623754 2.17149e-21)
(0.323572 -0.584014 8.44727e-22)
(0.321788 -0.512074 5.00063e-22)
(0.337823 -0.405853 -5.31356e-21)
(0.368576 -0.271586 4.70571e-21)
(0.409636 -0.120114 -1.53552e-21)
(0.456402 0.0368002 1.68141e-21)
(0.505403 0.187043 -9.92733e-22)
(0.552738 0.32035 1.15026e-21)
(0.595928 0.42774 -1.97155e-21)
(0.631388 0.506314 -7.44695e-22)
(0.658247 0.555736 -2.50662e-21)
(0.673806 0.583359 -1.19332e-21)
(0.681395 0.590842 1.65436e-21)
(0.678307 0.591135 1.06378e-21)
(0.666233 0.587871 -2.92939e-22)
(0.638543 0.597998 5.22756e-22)
(0.606092 0.593361 -5.39215e-22)
(0.5696 0.560474 5.08466e-22)
(0.545238 0.462145 -8.0793e-22)
(0.525747 0.306586 2.35905e-22)
(0.515473 0.134272 -8.15251e-23)
(0.507232 -0.13531 -2.58335e-22)
(0.0149047 0.33655 -2.94361e-20)
(0.0411656 0.304776 -1.44273e-20)
(0.0692859 0.264172 5.64733e-20)
(0.0987182 0.214865 -2.27312e-20)
(0.128868 0.157179 -1.16879e-20)
(0.15913 0.0915702 5.99989e-20)
(0.18899 0.018518 -2.52371e-21)
(0.218136 -0.0614505 -4.00869e-20)
(0.246597 -0.147638 5.70481e-20)
(0.274815 -0.238602 -5.40939e-20)
(0.303421 -0.331365 2.71091e-21)
(0.332657 -0.420987 -6.22928e-21)
(0.361845 -0.50139 1.11769e-20)
(0.389435 -0.567322 -5.83377e-21)
(0.413599 -0.616089 -1.73401e-21)
(0.43285 -0.64788 7.25907e-21)
(0.446247 -0.664912 9.56464e-21)
(0.453269 -0.670338 -1.29178e-21)
(0.45353 -0.667589 -5.00841e-21)
(0.44651 -0.660198 -5.5395e-21)
(0.431506 -0.6516 -1.04622e-21)
(0.40833 -0.643962 2.22072e-21)
(0.379009 -0.635674 7.23339e-21)
(0.349224 -0.619175 1.96797e-21)
(0.327575 -0.582242 -7.87718e-21)
(0.321616 -0.513928 9.31454e-21)
(0.333878 -0.411046 2.74717e-22)
(0.361684 -0.279186 -4.20866e-21)
(0.400708 -0.12909 -5.34684e-22)
(0.446299 0.0273361 -2.51321e-22)
(0.494899 0.177829 -3.87477e-21)
(0.542465 0.311988 7.62426e-21)
(0.586434 0.420703 2.49486e-21)
(0.623011 0.500926 -2.06491e-21)
(0.651229 0.552139 2.53428e-21)
(0.66821 0.581435 -1.09102e-21)
(0.677287 0.590368 -8.14169e-22)
(0.675403 0.592156 -1.49555e-21)
(0.66434 0.590517 3.70388e-22)
(0.637489 0.602008 -4.41449e-23)
(0.606201 0.597817 5.51532e-22)
(0.570828 0.564447 -1.83303e-22)
(0.547564 0.464976 -1.10105e-21)
(0.528685 0.308557 -1.14372e-21)
(0.518979 0.135431 -2.92326e-22)
(0.510232 -0.13468 4.9334e-22)
(0.0433876 0.328464 2.33609e-20)
(0.0704437 0.296476 3.72822e-20)
(0.0992029 0.255834 1.25687e-20)
(0.129106 0.206667 -2.90198e-20)
(0.159547 0.149293 8.40904e-21)
(0.189912 0.0841393 6.36383e-21)
(0.219684 0.0116264 -3.18203e-20)
(0.248554 -0.0678052 8.56863e-22)
(0.276566 -0.153589 6.04862e-20)
(0.304195 -0.244392 -5.0647e-20)
(0.332087 -0.337231 1.06126e-21)
(0.360439 -0.426999 4.71504e-20)
(0.388484 -0.507355 -4.44909e-20)
(0.414604 -0.572862 6.99639e-21)
(0.436999 -0.620799 3.40244e-21)
(0.454296 -0.651453 2.43222e-20)
(0.465705 -0.667165 -3.2716e-20)
(0.470841 -0.671165 1.76146e-20)
(0.469434 -0.666895 -1.83264e-21)
(0.461045 -0.657861 4.18835e-21)
(0.444963 -0.647542 -5.29435e-21)
(0.420759 -0.638417 -9.10225e-21)
(0.389947 -0.629529 1.32605e-21)
(0.357674 -0.614011 -2.47488e-21)
(0.332428 -0.57978 -9.85038e-22)
(0.322325 -0.515148 1.5013e-22)
(0.330753 -0.415784 -3.86299e-21)
(0.355519 -0.286538 4.02172e-21)
(0.392407 -0.137999 1.13006e-21)
(0.43672 0.0178005 3.05732e-21)
(0.484827 0.168447 -6.45973e-22)
(0.532543 0.303397 -9.37242e-21)
(0.577223 0.413407 -4.38187e-21)
(0.614858 0.495277 -4.62187e-22)
(0.644391 0.548288 -2.03674e-21)
(0.662772 0.579275 1.39509e-23)
(0.673322 0.589689 6.88185e-22)
(0.672631 0.593016 2.01021e-22)
(0.662587 0.593024 4.0946e-22)
(0.636598 0.605875 -1.05689e-21)
(0.606509 0.602125 5.19719e-22)
(0.572275 0.568299 6.15448e-23)
(0.550132 0.467732 4.25143e-22)
(0.53187 0.310484 2.7246e-22)
(0.522759 0.136605 -5.00262e-22)
(0.513529 -0.134008 4.08306e-23)
(0.0721966 0.320275 -5.0904e-20)
(0.0999942 0.288171 -1.5461e-20)
(0.12934 0.247587 4.93909e-20)
(0.159665 0.198654 -5.27847e-20)
(0.190357 0.141679 4.64777e-20)
(0.220794 0.0770624 -2.90934e-20)
(0.250464 0.00516499 -3.62449e-20)
(0.279066 -0.073661 -3.41239e-21)
(0.306663 -0.158987 3.53102e-20)
(0.333763 -0.24959 -4.27672e-20)
(0.361013 -0.342485 3.13902e-20)
(0.388547 -0.432387 -1.43424e-20)
(0.415483 -0.512694 2.47477e-20)
(0.440129 -0.577783 -2.58217e-20)
(0.460724 -0.624917 7.37659e-21)
(0.476023 -0.654486 2.15664e-20)
(0.4854 -0.668949 -1.94167e-20)
(0.488611 -0.671608 -1.51193e-20)
(0.4855 -0.66591 8.56012e-21)
(0.475716 -0.655322 7.10949e-21)
(0.458565 -0.643332 6.11545e-21)
(0.433419 -0.632681 -2.6871e-21)
(0.401298 -0.623044 5.61957e-22)
(0.36677 -0.608303 2.28784e-21)
(0.33811 -0.576638 2.27785e-21)
(0.323917 -0.51572 -1.5031e-21)
(0.328457 -0.420042 2.37058e-21)
(0.350094 -0.293617 1.02494e-22)
(0.384748 -0.146816 -1.20302e-21)
(0.427682 0.00821431 1.63357e-21)
(0.475202 0.158914 7.84984e-21)
(0.522984 0.29459 -5.32357e-22)
(0.568302 0.405863 8.24112e-21)
(0.606934 0.48937 -5.32562e-22)
(0.63774 0.544188 3.41244e-21)
(0.657495 0.57688 -1.22427e-21)
(0.669501 0.588807 -1.0653e-21)
(0.669992 0.593711 2.83755e-22)
(0.660976 0.595388 2.29947e-22)
(0.635872 0.609593 -9.1984e-23)
(0.607018 0.60628 -7.11761e-22)
(0.57394 0.572026 -8.19801e-23)
(0.552941 0.470412 3.00074e-21)
(0.535304 0.312366 -9.24956e-22)
(0.526817 0.13779 -1.89647e-24)
(0.517129 -0.133298 2.44503e-22)
(0.101165 0.312003 -1.24059e-20)
(0.129653 0.27988 -3.86559e-20)
(0.159536 0.239447 6.95443e-21)
(0.190239 0.190834 3.80776e-20)
(0.221145 0.134341 -1.68126e-20)
(0.251629 0.0703388 2.14536e-21)
(0.281189 -0.000870334 -2.99686e-20)
(0.30954 -0.0790314 2.32616e-20)
(0.33677 -0.163849 2.62881e-20)
(0.363415 -0.254218 1.81661e-20)
(0.390114 -0.347145 -5.3461e-20)
(0.416909 -0.437165 6.73667e-20)
(0.442779 -0.517411 -3.22053e-20)
(0.465956 -0.582084 2.5267e-20)
(0.484725 -0.628441 -1.42629e-20)
(0.497991 -0.656976 2.3263e-20)
(0.505298 -0.670263 1.18469e-21)
(0.506552 -0.671667 6.49752e-21)
(0.501707 -0.664637 -1.09137e-20)
(0.490506 -0.652589 -1.20838e-20)
(0.472288 -0.638991 2.941e-21)
(0.446273 -0.626792 4.76458e-21)
(0.413015 -0.616267 5.17189e-21)
(0.376468 -0.602092 -3.71395e-21)
(0.344595 -0.572834 -3.21756e-21)
(0.326388 -0.515632 -1.00286e-20)
(0.326996 -0.423793 6.87894e-21)
(0.345419 -0.300394 -2.03147e-21)
(0.377744 -0.155517 -4.31452e-21)
(0.4192 -0.00140124 8.79622e-22)
(0.466036 0.149246 -1.07907e-20)
(0.5138 0.285579 -3.35647e-21)
(0.559681 0.398079 -2.67964e-21)
(0.599246 0.483213 2.93025e-21)
(0.631281 0.53984 -2.85318e-21)
(0.652382 0.574251 8.67634e-22)
(0.665826 0.58772 2.82048e-22)
(0.667485 0.594241 -9.67609e-23)
(0.659507 0.597604 5.12894e-22)
(0.635309 0.613157 -2.34599e-22)
(0.607725 0.610279 -6.96827e-22)
(0.575824 0.575625 -1.7685e-21)
(0.555993 0.473014 -4.26223e-21)
(0.538989 0.314201 -1.71949e-21)
(0.531152 0.138985 -2.64829e-21)
(0.521032 -0.13255 -5.40097e-22)
(0.15926 0.271617 -1.97359e-20)
(0.189636 0.231423 1.01179e-20)
(0.220677 0.183216 -2.45292e-21)
(0.251765 0.127282 1.38102e-20)
(0.282276 0.0639649 -1.52424e-20)
(0.311726 -0.00649226 1.8217e-20)
(0.339853 -0.0839342 -8.99405e-21)
(0.366774 -0.168199 2.01467e-21)
(0.393056 -0.258301 -1.39734e-20)
(0.419308 -0.351237 2.48241e-20)
(0.445452 -0.441352 4.93113e-21)
(0.47031 -0.521516 -1.30592e-20)
(0.492027 -0.585767 -4.96545e-20)
(0.508953 -0.631367 1.046e-20)
(0.520156 -0.65892 -6.26709e-21)
(0.525367 -0.671105 1.15995e-20)
(0.524639 -0.671342 -1.64907e-20)
(0.518038 -0.663076 1.79219e-20)
(0.505397 -0.649667 -1.64106e-21)
(0.486111 -0.634535 -1.62871e-21)
(0.459286 -0.620785 -3.41327e-21)
(0.42505 -0.609247 -4.8552e-22)
(0.386719 -0.595426 -3.47641e-21)
(0.351854 -0.568392 7.07058e-21)
(0.329732 -0.514876 4.26601e-21)
(0.326378 -0.427013 5.57714e-21)
(0.341503 -0.306843 -1.17591e-20)
(0.371405 -0.164077 2.68897e-21)
(0.411285 -0.0110246 1.13274e-21)
(0.457342 0.139461 2.20742e-21)
(0.505001 0.27638 3.95928e-21)
(0.551368 0.390066 1.74097e-21)
(0.591801 0.476813 2.87947e-21)
(0.625018 0.535249 2.53045e-21)
(0.647436 0.571391 -2.32889e-21)
(0.662298 0.586431 2.69108e-21)
(0.665112 0.594603 1.76963e-22)
(0.65818 0.599669 -1.68088e-21)
(0.634909 0.616561 1.33327e-21)
(0.60863 0.614117 9.50924e-23)
(0.577924 0.579094 2.55107e-21)
(0.559288 0.475535 9.82192e-22)
(0.542925 0.315986 1.35644e-21)
(0.535767 0.140185 1.24572e-21)
(0.525241 -0.131767 1.30401e-21)
(0.188664 0.263394 7.74509e-20)
(0.21949 0.223525 -1.02334e-19)
(0.250833 0.175803 -4.63781e-20)
(0.282077 0.120502 1.25882e-19)
(0.312603 0.0579331 1.96928e-21)
(0.34195 -0.011717 -5.35234e-20)
(0.369891 -0.0883914 4.15096e-20)
(0.396577 -0.172067 -1.62171e-20)
(0.422599 -0.261873 -3.36707e-20)
(0.44852 -0.354789 1.37798e-20)
(0.474114 -0.444967 -4.86279e-20)
(0.498015 -0.525019 6.87111e-20)
(0.518287 -0.588835 -2.16325e-20)
(0.533357 -0.633697 -8.18238e-22)
(0.542476 -0.660318 1.37345e-20)
(0.54557 -0.671475 -7.64295e-21)
(0.542843 -0.670635 -1.46014e-21)
(0.53447 -0.66123 -7.07636e-21)
(0.520372 -0.64656 4.21427e-21)
(0.500012 -0.629977 7.23816e-21)
(0.472427 -0.61469 -5.70367e-21)
(0.437358 -0.602033 7.05462e-21)
(0.397475 -0.588352 -1.63426e-21)
(0.359852 -0.563338 -9.62864e-21)
(0.333936 -0.51345 7.94256e-21)
(0.326604 -0.429678 -8.56022e-22)
(0.338353 -0.312935 2.49383e-21)
(0.36574 -0.172471 -7.35161e-21)
(0.403949 -0.0206342 1.08381e-20)
(0.449131 0.129578 -5.11908e-21)
(0.496595 0.267005 -6.89172e-22)
(0.54337 0.381835 -5.5822e-21)
(0.584603 0.470177 -4.63125e-21)
(0.618956 0.530418 -4.43327e-22)
(0.642661 0.5683 8.49586e-22)
(0.658919 0.584938 -3.21889e-21)
(0.662873 0.594795 -8.13487e-22)
(0.656995 0.601579 1.0441e-21)
(0.634671 0.619801 -3.23417e-22)
(0.609732 0.617791 9.35186e-22)
(0.580239 0.58243 -2.74253e-21)
(0.562826 0.477973 -2.10013e-21)
(0.547113 0.317719 2.71907e-21)
(0.540664 0.141388 2.14189e-21)
(0.529759 -0.13095 -9.92804e-22)
(0.217721 0.255222 -2.35333e-20)
(0.24896 0.215759 -1.50264e-20)
(0.280574 0.168597 -2.21239e-20)
(0.311954 0.113996 5.41285e-20)
(0.342489 0.0522334 5.46272e-20)
(0.37175 -0.0165608 -8.87979e-20)
(0.399553 -0.0924283 1.3535e-19)
(0.426089 -0.175483 -4.72497e-20)
(0.451968 -0.264967 -4.71077e-20)
(0.477685 -0.357833 2.15911e-20)
(0.502831 -0.448034 7.95479e-21)
(0.525836 -0.527933 -9.7376e-21)
(0.544681 -0.591293 -2.64117e-20)
(0.557887 -0.635433 1.2884e-20)
(0.564908 -0.661172 1.50557e-20)
(0.565871 -0.671377 9.03527e-21)
(0.561136 -0.669548 -4.72696e-21)
(0.550982 -0.659102 -2.72974e-21)
(0.535415 -0.643272 -8.15223e-22)
(0.513974 -0.62533 -4.07745e-21)
(0.485664 -0.608537 1.53e-21)
(0.449893 -0.594672 -8.27533e-21)
(0.408685 -0.580924 1.14687e-20)
(0.368548 -0.557706 -1.11955e-21)
(0.338987 -0.511354 -3.93349e-21)
(0.327676 -0.431766 -7.7569e-21)
(0.335972 -0.318644 1.18846e-21)
(0.360756 -0.180674 -1.62091e-21)
(0.397199 -0.0302081 9.23349e-22)
(0.441411 0.119616 5.09268e-21)
(0.488591 0.25747 -3.68558e-21)
(0.535693 0.373397 5.85138e-21)
(0.577659 0.463311 9.09664e-22)
(0.613099 0.525351 -4.70567e-22)
(0.638058 0.56498 1.8299e-21)
(0.655689 0.583243 4.29577e-21)
(0.660767 0.594815 4.90706e-22)
(0.655952 0.603329 1.20724e-21)
(0.634595 0.622872 6.41212e-22)
(0.611027 0.621298 -1.76365e-21)
(0.582767 0.585629 7.23211e-22)
(0.566606 0.480327 5.0321e-21)
(0.551552 0.319397 -4.72539e-21)
(0.545841 0.142589 -1.11917e-21)
(0.534587 -0.130102 -1.48434e-22)
(0.246297 0.247108 6.197e-21)
(0.277917 0.20813 8.0157e-20)
(0.309777 0.161599 -4.59319e-20)
(0.341278 0.10776 -1.66186e-20)
(0.371824 0.0468553 -3.48544e-21)
(0.401028 -0.0210436 -2.83736e-20)
(0.428752 -0.096074 1.30747e-19)
(0.455235 -0.178485 -8.55404e-20)
(0.481098 -0.267622 2.04277e-20)
(0.506744 -0.360403 -6.87176e-20)
(0.53155 -0.450577 1.52759e-20)
(0.553718 -0.530273 3.83446e-20)
(0.571152 -0.59315 -1.74447e-20)
(0.582491 -0.636578 -9.02221e-21)
(0.587406 -0.661484 1.2564e-20)
(0.586235 -0.670813 -1.22737e-20)
(0.579489 -0.668085 -3.5496e-22)
(0.567551 -0.656694 9.45138e-21)
(0.550508 -0.639809 -6.05675e-21)
(0.527978 -0.620604 1.17512e-20)
(0.498971 -0.60235 -7.9058e-22)
(0.462612 -0.587208 -8.98604e-22)
(0.420297 -0.573194 -4.75559e-21)
(0.377901 -0.551534 -4.92306e-21)
(0.344863 -0.508595 1.65012e-21)
(0.329594 -0.433258 3.26368e-21)
(0.334365 -0.323942 4.38917e-21)
(0.356457 -0.18866 4.29652e-21)
(0.391042 -0.0397236 -1.21034e-21)
(0.43419 0.109592 -3.04356e-21)
(0.480996 0.247791 2.44053e-21)
(0.528343 0.364764 7.56579e-22)
(0.570972 0.456225 2.33225e-22)
(0.607451 0.520054 -9.28473e-22)
(0.633629 0.561435 4.53963e-22)
(0.652607 0.581346 -7.61093e-22)
(0.658794 0.594663 -3.97514e-22)
(0.655048 0.604917 -1.06376e-21)
(0.634678 0.62577 -7.33113e-22)
(0.612514 0.624632 1.24878e-21)
(0.585506 0.58869 2.89633e-21)
(0.570626 0.482594 -4.71265e-21)
(0.556244 0.321018 2.47272e-21)
(0.5513 0.143785 2.85897e-21)
(0.539726 -0.129224 8.82416e-22)
(0.274272 0.239058 -7.51781e-21)
(0.306244 0.200638 -7.08998e-21)
(0.338331 0.154804 -7.85573e-20)
(0.369946 0.101783 1.1476e-19)
(0.400516 0.0417842 -9.01569e-20)
(0.429699 -0.0251889 1.73252e-19)
(0.457416 -0.099361 -1.02539e-19)
(0.483954 -0.181112 8.45707e-20)
(0.509938 -0.26988 -4.10789e-20)
(0.535651 -0.362536 -1.92764e-20)
(0.56022 -0.452623 -3.28278e-20)
(0.581607 -0.532054 8.43496e-20)
(0.597649 -0.594413 -6.1552e-21)
(0.60712 -0.637137 -2.0086e-20)
(0.609927 -0.66126 1.12224e-20)
(0.606623 -0.669789 -4.55956e-21)
(0.597873 -0.666252 -2.41782e-20)
(0.584156 -0.654012 -6.46896e-21)
(0.565634 -0.636172 3.9086e-22)
(0.542009 -0.615806 -1.56961e-21)
(0.512322 -0.596153 -3.25486e-21)
(0.475474 -0.579684 5.04031e-21)
(0.432259 -0.565216 -2.03488e-22)
(0.387864 -0.544865 -3.13428e-21)
(0.351541 -0.505183 -1.70816e-21)
(0.332352 -0.434136 -1.25444e-21)
(0.333534 -0.328802 -1.58154e-21)
(0.352846 -0.196402 -1.63612e-21)
(0.385483 -0.049158 2.34123e-21)
(0.427474 0.0995272 3.15978e-21)
(0.473816 0.237983 -2.43622e-21)
(0.521325 0.355947 -3.01631e-21)
(0.564546 0.448925 4.47151e-21)
(0.602013 0.514531 -2.15964e-21)
(0.629375 0.557667 -2.88402e-21)
(0.649675 0.57925 -6.45227e-22)
(0.656952 0.594336 -7.01929e-22)
(0.654284 0.606339 -9.51131e-22)
(0.634918 0.62849 -8.44574e-22)
(0.614191 0.627792 -9.37967e-23)
(0.588454 0.591608 -4.42502e-21)
(0.574887 0.48477 4.51736e-21)
(0.561187 0.32258 1.11825e-22)
(0.557041 0.144972 7.49225e-23)
(0.545177 -0.128319 -2.67897e-21)
(0.301537 0.231076 5.56877e-20)
(0.333838 0.193283 5.84732e-20)
(0.366139 0.148207 -1.49742e-20)
(0.397872 0.0960551 -8.92463e-20)
(0.428486 0.0369964 1.41416e-20)
(0.457696 -0.029025 -6.38802e-20)
(0.485489 -0.102325 1.19643e-19)
(0.512201 -0.183405 -9.34306e-20)
(0.53845 -0.271783 4.14135e-20)
(0.564367 -0.364267 4.34392e-20)
(0.588799 -0.454196 -5.03534e-20)
(0.609454 -0.533291 1.37613e-21)
(0.624117 -0.595091 -7.12348e-20)
(0.631722 -0.637117 5.53718e-20)
(0.632425 -0.660506 4.45543e-20)
(0.627 -0.668311 -4.20344e-20)
(0.616258 -0.664053 -1.28306e-20)
(0.600772 -0.651059 4.28475e-20)
(0.580775 -0.632366 -2.09597e-20)
(0.55605 -0.610943 -1.35156e-20)
(0.525694 -0.589964 -2.67024e-21)
(0.48844 -0.57214 2.03659e-21)
(0.444519 -0.557044 -1.15638e-21)
(0.398387 -0.537746 -2.6574e-21)
(0.358992 -0.501138 -1.25938e-22)
(0.335945 -0.434387 3.82054e-21)
(0.33348 -0.333196 -3.85651e-21)
(0.349925 -0.203876 1.82055e-21)
(0.380525 -0.0584885 -7.3903e-21)
(0.421268 0.0894404 1.62578e-21)
(0.467055 0.228061 1.97515e-21)
(0.514641 0.34696 1.02417e-21)
(0.558384 0.441421 -1.10189e-21)
(0.596788 0.508787 1.66428e-21)
(0.625298 0.553679 -1.72283e-21)
(0.64689 0.576955 1.31502e-21)
(0.655242 0.593834 1.12794e-21)
(0.653658 0.607591 1.29483e-21)
(0.635314 0.631029 3.08937e-22)
(0.616052 0.630773 -1.4057e-21)
(0.591607 0.594381 1.67368e-21)
(0.579386 0.486855 6.46399e-22)
(0.56638 0.324079 2.19618e-21)
(0.563062 0.146147 -6.21099e-21)
(0.550941 -0.127389 3.09229e-22)
(0.327998 0.223162 6.97983e-21)
(0.360611 0.186059 -4.87135e-20)
(0.393121 0.141797 -2.84719e-20)
(0.424982 0.0905594 -3.06732e-20)
(0.455672 0.0324655 -1.51087e-20)
(0.484971 -0.0325831 -3.4151e-20)
(0.512933 -0.105004 1.11781e-21)
(0.539948 -0.185408 1.09034e-20)
(0.566607 -0.273375 -3.80625e-20)
(0.592863 -0.365634 6.96302e-20)
(0.617249 -0.455324 -5.25232e-20)
(0.637212 -0.534001 7.77556e-21)
(0.650505 -0.595193 3.58604e-20)
(0.656249 -0.636525 -6.00275e-20)
(0.654859 -0.659229 4.55032e-20)
(0.647329 -0.666387 -2.28436e-20)
(0.634614 -0.661497 3.75124e-20)
(0.617376 -0.647842 -5.2028e-21)
(0.595915 -0.628395 -8.83421e-21)
(0.570088 -0.60602 -1.82478e-21)
(0.539066 -0.583798 2.37549e-20)
(0.501474 -0.564612 -1.14026e-20)
(0.457025 -0.548733 4.64808e-21)
(0.409417 -0.530227 -9.18576e-22)
(0.367181 -0.49648 3.06627e-22)
(0.340362 -0.433999 1.50185e-21)
(0.334202 -0.337098 -2.08238e-21)
(0.347694 -0.211054 5.63096e-21)
(0.37617 -0.0676922 7.46593e-21)
(0.415574 0.0793516 -1.68097e-21)
(0.460717 0.218044 -9.41883e-21)
(0.508297 0.337815 6.20654e-21)
(0.552491 0.433722 -2.83505e-21)
(0.591779 0.502828 -5.45326e-21)
(0.621397 0.549475 3.15924e-21)
(0.644254 0.574463 -1.81493e-21)
(0.65366 0.593156 -1.14829e-21)
(0.653167 0.608672 -8.41707e-22)
(0.635862 0.633383 -1.31591e-21)
(0.618097 0.633573 1.77276e-21)
(0.594961 0.597005 1.06259e-21)
(0.58412 0.488845 -5.44217e-21)
(0.571822 0.325513 -3.70136e-21)
(0.569364 0.147307 4.2699e-21)
(0.557015 -0.126436 1.59842e-21)
(0.353579 0.215316 -1.29118e-19)
(0.386491 0.178962 1.28897e-19)
(0.419213 0.135564 -1.01141e-19)
(0.451221 0.0852776 -4.378e-20)
(0.482033 0.0281747 9.12164e-20)
(0.511492 -0.0358942 1.05661e-19)
(0.539729 -0.107438 -1.44963e-19)
(0.567182 -0.187166 1.10459e-19)
(0.5944 -0.2747 -9.22939e-20)
(0.621121 -0.366673 1.76688e-20)
(0.645536 -0.45603 7.32796e-20)
(0.664834 -0.534197 3.75265e-21)
(0.676762 -0.59473 -9.49746e-21)
(0.680651 -0.635371 3.41992e-21)
(0.677184 -0.657438 3.58685e-21)
(0.667574 -0.664025 7.02045e-22)
(0.652913 -0.658591 5.57577e-21)
(0.633946 -0.644367 -8.91331e-21)
(0.611034 -0.624262 -1.98233e-21)
(0.584106 -0.60104 -5.23931e-21)
(0.552421 -0.577668 1.28386e-21)
(0.514543 -0.557133 -1.73015e-21)
(0.469728 -0.540335 -1.1829e-21)
(0.420902 -0.522362 3.72686e-22)
(0.376072 -0.491238 6.03555e-21)
(0.345592 -0.432968 -2.21535e-21)
(0.335701 -0.340483 -9.8007e-22)
(0.346152 -0.21791 2.53144e-21)
(0.372417 -0.0767457 -1.19339e-21)
(0.410395 0.0692807 -1.25233e-21)
(0.454805 0.207947 -4.61784e-21)
(0.502294 0.328526 4.71909e-21)
(0.546867 0.425836 -1.3173e-21)
(0.586987 0.496659 3.3828e-21)
(0.617673 0.545058 -1.10195e-22)
(0.641763 0.571777 1.64562e-21)
(0.652206 0.5923 1.33265e-21)
(0.65281 0.609578 -7.1207e-22)
(0.636559 0.635548 1.13553e-21)
(0.620319 0.636188 7.68283e-22)
(0.598513 0.599477 2.12852e-21)
(0.589088 0.490737 2.87519e-21)
(0.57751 0.326879 -1.50039e-21)
(0.575944 0.148446 5.37061e-21)
(0.563401 -0.125461 -5.25748e-22)
(0.37822 0.207533 1.73091e-20)
(0.411426 0.171982 2.17371e-20)
(0.44437 0.129491 -3.65724e-20)
(0.476557 0.0801885 1.22489e-19)
(0.507544 0.0241014 -1.3198e-19)
(0.537247 -0.0389935 7.7699e-20)
(0.565875 -0.10967 -9.18989e-20)
(0.593907 -0.188724 4.69846e-20)
(0.62183 -0.275799 9.03758e-21)
(0.649129 -0.367416 -3.77862e-20)
(0.673632 -0.456337 1.0963e-20)
(0.692279 -0.533894 1.84374e-20)
(0.70284 -0.593713 3.53245e-21)
(0.704879 -0.633665 -3.51352e-21)
(0.699359 -0.655144 -2.17055e-20)
(0.6877 -0.661235 -1.92825e-20)
(0.671126 -0.655344 2.21229e-20)
(0.650459 -0.640641 -1.86712e-20)
(0.626115 -0.619973 -1.01192e-21)
(0.598092 -0.596007 1.6443e-20)
(0.565742 -0.571583 9.57973e-21)
(0.527616 -0.54973 -9.04499e-21)
(0.482579 -0.5319 6.85888e-21)
(0.432784 -0.514206 -4.89793e-22)
(0.385621 -0.485447 -1.41946e-21)
(0.351616 -0.431291 2.50302e-21)
(0.337974 -0.343327 -8.03525e-22)
(0.345298 -0.224415 -4.091e-21)
(0.369266 -0.0856256 5.81217e-21)
(0.40573 0.0592478 6.83952e-22)
(0.449318 0.197787 1.0482e-20)
(0.496633 0.319104 -2.66066e-21)
(0.541514 0.417772 -5.90783e-22)
(0.582413 0.490287 -1.64496e-21)
(0.614126 0.540432 -1.55373e-21)
(0.639417 0.568897 -6.35845e-22)
(0.650876 0.591266 -3.46163e-22)
(0.652584 0.610306 1.19401e-21)
(0.637403 0.637521 1.88758e-21)
(0.622716 0.638615 -2.67402e-21)
(0.602259 0.601795 4.57792e-22)
(0.594285 0.492528 -2.08488e-21)
(0.583442 0.328175 4.63262e-21)
(0.5828 0.149562 -9.56458e-21)
(0.570097 -0.124468 -6.08154e-22)
(0.401882 0.199808 2.00081e-20)
(0.435384 0.165106 -1.12075e-20)
(0.468568 0.123562 3.58506e-20)
(0.500974 0.0752676 -4.85926e-21)
(0.532202 0.0201968 -6.44775e-20)
(0.562245 -0.0419229 8.22417e-20)
(0.591388 -0.111743 -3.19689e-20)
(0.620145 -0.190128 1.55268e-20)
(0.648911 -0.276714 -9.99325e-20)
(0.676885 -0.367894 6.25887e-20)
(0.701512 -0.456263 -5.13657e-20)
(0.719503 -0.533105 4.0835e-20)
(0.728689 -0.592152 3.81266e-21)
(0.728889 -0.631418 1.68745e-20)
(0.721344 -0.652359 2.18152e-21)
(0.707675 -0.658029 1.78615e-20)
(0.689226 -0.651765 -1.96441e-23)
(0.666891 -0.636671 -7.90634e-21)
(0.64114 -0.615532 6.80092e-21)
(0.612032 -0.590924 -4.04092e-21)
(0.579014 -0.565552 -3.85928e-21)
(0.540667 -0.542429 7.9874e-21)
(0.495532 -0.523477 -2.58995e-21)
(0.445009 -0.505817 -5.91173e-21)
(0.395783 -0.479145 -3.36697e-21)
(0.358415 -0.428973 -1.84856e-21)
(0.341018 -0.345607 2.30002e-21)
(0.34513 -0.230543 1.5438e-21)
(0.366713 -0.0943079 -6.79871e-21)
(0.401578 0.0492733 4.29919e-21)
(0.444259 0.187581 -8.12188e-21)
(0.491316 0.309565 2.07056e-21)
(0.536434 0.409541 -3.42321e-21)
(0.578058 0.483719 1.22408e-21)
(0.610755 0.535602 -4.50785e-22)
(0.637214 0.565828 1.40805e-21)
(0.64967 0.590053 -3.25491e-22)
(0.652486 0.610855 -4.805e-22)
(0.638388 0.639299 -1.74424e-21)
(0.625283 0.640853 3.88486e-22)
(0.606194 0.603953 7.1111e-23)
(0.599708 0.494216 3.83698e-21)
(0.589615 0.329398 9.85146e-21)
(0.58993 0.150651 -2.97673e-21)
(0.577101 -0.123458 -5.52481e-22)
(0.42455 0.192134 4.36589e-20)
(0.458353 0.158322 6.18243e-20)
(0.491804 0.117755 -9.02039e-21)
(0.524479 0.0704865 -3.56093e-20)
(0.556027 0.0164143 -1.26533e-20)
(0.586517 -0.0447233 1.07697e-20)
(0.616307 -0.1137 5.00921e-20)
(0.645933 -0.19142 -1.24701e-19)
(0.675668 -0.277481 -2.27463e-20)
(0.704389 -0.368133 4.63742e-20)
(0.729153 -0.455825 6.8176e-20)
(0.746468 -0.53184 -1.84975e-20)
(0.754262 -0.590058 5.8794e-21)
(0.752633 -0.628643 -5.34566e-20)
(0.743097 -0.649096 -2.39813e-20)
(0.727464 -0.654419 2.55547e-20)
(0.707185 -0.647866 -9.5162e-21)
(0.68322 -0.632467 1.96915e-20)
(0.656091 -0.610945 1.9617e-20)
(0.625913 -0.585793 -1.55588e-20)
(0.592223 -0.559577 2.92528e-21)
(0.553672 -0.53525 -2.27589e-21)
(0.508545 -0.515108 1.07662e-20)
(0.457521 -0.497253 -2.72568e-21)
(0.406508 -0.472376 6.83824e-22)
(0.365962 -0.426022 -6.2683e-21)
(0.344827 -0.347304 4.13141e-21)