/*--------------------------------*- C++ -*----------------------------------*\
  =========                 |
  \\      /  F ield         | OpenFOAM: The Open Source CFD Toolbox
   \\    /   O peration     | Website:  https://openfoam.org
    \\  /    A nd           | Version:  7
     \\/     M anipulation  |
\*---------------------------------------------------------------------------*/
FoamFile
{
    version     2.0;
    format      ascii;
    class       volScalarField;
    location    "25";
    object      p;
}
// * * * * * * * * * * * * * * * * * * * * * * * * * * * * * * * * * * * * * //

dimensions      [0 2 -2 0 0 0 0];

internalField   nonuniform List<scalar> 
34000
(
-0.229352
-0.230415
-0.231061
-0.231614
-0.232097
-0.232513
-0.232879
-0.233209
-0.233511
-0.233792
-0.234057
-0.234309
-0.234549
-0.23478
-0.235002
-0.235218
-0.235429
-0.23564
-0.235853
-0.23607
-0.229399
-0.230459
-0.231103
-0.231654
-0.232135
-0.232549
-0.232914
-0.233243
-0.233543
-0.233823
-0.234086
-0.234337
-0.234575
-0.234804
-0.235025
-0.235238
-0.235448
-0.235658
-0.235869
-0.236082
-0.229492
-0.230546
-0.231187
-0.231734
-0.232212
-0.232623
-0.232985
-0.23331
-0.233608
-0.233884
-0.234144
-0.234391
-0.234627
-0.234852
-0.235069
-0.235279
-0.235486
-0.235692
-0.2359
-0.236107
-0.229632
-0.230676
-0.231311
-0.231853
-0.232326
-0.232733
-0.23309
-0.233411
-0.233703
-0.233975
-0.234231
-0.234473
-0.234703
-0.234924
-0.235135
-0.23534
-0.235541
-0.235743
-0.235945
-0.236142
-0.229817
-0.230849
-0.231476
-0.232012
-0.232478
-0.232878
-0.233229
-0.233544
-0.23383
-0.234096
-0.234345
-0.234581
-0.234804
-0.235017
-0.235222
-0.235419
-0.235613
-0.235809
-0.236004
-0.236187
-0.230047
-0.231064
-0.231682
-0.232208
-0.232667
-0.233059
-0.233402
-0.233709
-0.233988
-0.234245
-0.234486
-0.234714
-0.234929
-0.235133
-0.235328
-0.235516
-0.235701
-0.235889
-0.236074
-0.236241
-0.23032
-0.23132
-0.231926
-0.232443
-0.232891
-0.233274
-0.233608
-0.233905
-0.234175
-0.234423
-0.234654
-0.234871
-0.235075
-0.235269
-0.235453
-0.23563
-0.235803
-0.235981
-0.236155
-0.236302
-0.230637
-0.231616
-0.23221
-0.232714
-0.233152
-0.233523
-0.233846
-0.234132
-0.234391
-0.234627
-0.234847
-0.235051
-0.235243
-0.235424
-0.235594
-0.235757
-0.235917
-0.236084
-0.236245
-0.236367
-0.230995
-0.231951
-0.23253
-0.233022
-0.233446
-0.233805
-0.234116
-0.234389
-0.234634
-0.234857
-0.235063
-0.235254
-0.235431
-0.235596
-0.235751
-0.235898
-0.236042
-0.236195
-0.236341
-0.236435
-0.231393
-0.232324
-0.232888
-0.233364
-0.233774
-0.234119
-0.234415
-0.234674
-0.234904
-0.235112
-0.235302
-0.235477
-0.235637
-0.235785
-0.235921
-0.23605
-0.236175
-0.236312
-0.236441
-0.236502
-0.23183
-0.232734
-0.23328
-0.233741
-0.234134
-0.234463
-0.234743
-0.234986
-0.2352
-0.235391
-0.235563
-0.235719
-0.23586
-0.235987
-0.236103
-0.23621
-0.236314
-0.236433
-0.236542
-0.236566
-0.232304
-0.23318
-0.233708
-0.23415
-0.234526
-0.234838
-0.2351
-0.235324
-0.235519
-0.235691
-0.235844
-0.235979
-0.236098
-0.236203
-0.236295
-0.236378
-0.236457
-0.236555
-0.236641
-0.236623
-0.232814
-0.23366
-0.234168
-0.234592
-0.234949
-0.235241
-0.235483
-0.235688
-0.235862
-0.236013
-0.236143
-0.236255
-0.23635
-0.236429
-0.236494
-0.236549
-0.236601
-0.236674
-0.236736
-0.23667
-0.233359
-0.234173
-0.23466
-0.235064
-0.2354
-0.235671
-0.235893
-0.236075
-0.236227
-0.236353
-0.236459
-0.236545
-0.236613
-0.236664
-0.236699
-0.236723
-0.236743
-0.236789
-0.236823
-0.236702
-0.233937
-0.234719
-0.235184
-0.235565
-0.235879
-0.236128
-0.236326
-0.236485
-0.236611
-0.236712
-0.236791
-0.236849
-0.236887
-0.236906
-0.236908
-0.236897
-0.236881
-0.236896
-0.236899
-0.236715
-0.234546
-0.235295
-0.235737
-0.236096
-0.236386
-0.236611
-0.236784
-0.236916
-0.237015
-0.237088
-0.237137
-0.237164
-0.237169
-0.237153
-0.237118
-0.237068
-0.237012
-0.236991
-0.236962
-0.236704
-0.235186
-0.235901
-0.23632
-0.236654
-0.236919
-0.237118
-0.237263
-0.237367
-0.237438
-0.23748
-0.237497
-0.23749
-0.23746
-0.237405
-0.237329
-0.237236
-0.237135
-0.237074
-0.237008
-0.236663
-0.235856
-0.236537
-0.23693
-0.237239
-0.237477
-0.237648
-0.237765
-0.237838
-0.237877
-0.237886
-0.237869
-0.237826
-0.237756
-0.23766
-0.237539
-0.237398
-0.237246
-0.237139
-0.237036
-0.236584
-0.236554
-0.2372
-0.237568
-0.23785
-0.23806
-0.238201
-0.238287
-0.238328
-0.238332
-0.238306
-0.238252
-0.238169
-0.238058
-0.237917
-0.237747
-0.237553
-0.237344
-0.237185
-0.237041
-0.236435
-0.23728
-0.237891
-0.238232
-0.238487
-0.238667
-0.238776
-0.238828
-0.238835
-0.238803
-0.238739
-0.238645
-0.238521
-0.238365
-0.238175
-0.237952
-0.2377
-0.237429
-0.237211
-0.23702
-0.23618
-0.238034
-0.23861
-0.238923
-0.239148
-0.239297
-0.239373
-0.239389
-0.239359
-0.239288
-0.239184
-0.239048
-0.238879
-0.238675
-0.238433
-0.238153
-0.237838
-0.237498
-0.237213
-0.236975
-0.236051
-0.238814
-0.239355
-0.239641
-0.239835
-0.23995
-0.23999
-0.239969
-0.239899
-0.239787
-0.239641
-0.23946
-0.239244
-0.23899
-0.238693
-0.238352
-0.237969
-0.237552
-0.23719
-0.236869
-0.23584
-0.239621
-0.240127
-0.240384
-0.240546
-0.240626
-0.240628
-0.240567
-0.240455
-0.2403
-0.240108
-0.23988
-0.239615
-0.239308
-0.238953
-0.238547
-0.238091
-0.237592
-0.237145
-0.236735
-0.235534
-0.240455
-0.240926
-0.241153
-0.241282
-0.241325
-0.241287
-0.241183
-0.241027
-0.240826
-0.240586
-0.240309
-0.239993
-0.23963
-0.239215
-0.238741
-0.238207
-0.237617
-0.237077
-0.236575
-0.23515
-0.241317
-0.241753
-0.241949
-0.242043
-0.242046
-0.241966
-0.241818
-0.241614
-0.241364
-0.241075
-0.240746
-0.240376
-0.239957
-0.239479
-0.238934
-0.238318
-0.23763
-0.236985
-0.236386
-0.234686
-0.242208
-0.242608
-0.242772
-0.242829
-0.242791
-0.242666
-0.24247
-0.242216
-0.241916
-0.241574
-0.241192
-0.240766
-0.240288
-0.239745
-0.239127
-0.238425
-0.237634
-0.236873
-0.236169
-0.234136
-0.243128
-0.243493
-0.243624
-0.243642
-0.24356
-0.243387
-0.243141
-0.242834
-0.24248
-0.242083
-0.241645
-0.241162
-0.240624
-0.240016
-0.239323
-0.238533
-0.237632
-0.236743
-0.235926
-0.233495
-0.24408
-0.244409
-0.244505
-0.244482
-0.244354
-0.244131
-0.24383
-0.243468
-0.243057
-0.242603
-0.242107
-0.241565
-0.240965
-0.24029
-0.239522
-0.238642
-0.237627
-0.236599
-0.235664
-0.232758
-0.245064
-0.245358
-0.245418
-0.245351
-0.245174
-0.244897
-0.24454
-0.244119
-0.243647
-0.243133
-0.242577
-0.241975
-0.241312
-0.240571
-0.239726
-0.238755
-0.237624
-0.236447
-0.235389
-0.231926
-0.246085
-0.246341
-0.246363
-0.246251
-0.246021
-0.245687
-0.24527
-0.244786
-0.244252
-0.243675
-0.243056
-0.242391
-0.241665
-0.240856
-0.239937
-0.238875
-0.237625
-0.23629
-0.235109
-0.230999
-0.247143
-0.247361
-0.247343
-0.247183
-0.246897
-0.246503
-0.246021
-0.245472
-0.244871
-0.244228
-0.243545
-0.242815
-0.242025
-0.241148
-0.240154
-0.239004
-0.237635
-0.236135
-0.234832
-0.229984
-0.248244
-0.248421
-0.248361
-0.248149
-0.247805
-0.247346
-0.246796
-0.246178
-0.245507
-0.244794
-0.244043
-0.243247
-0.242391
-0.241447
-0.240378
-0.239142
-0.237657
-0.235986
-0.234563
-0.228894
-0.249389
-0.249525
-0.249419
-0.249152
-0.248745
-0.248218
-0.247596
-0.246904
-0.246159
-0.245374
-0.244552
-0.243687
-0.242764
-0.241752
-0.240611
-0.23929
-0.237694
-0.235851
-0.234306
-0.227748
-0.250583
-0.250675
-0.250521
-0.250196
-0.249721
-0.249122
-0.248424
-0.247653
-0.246831
-0.245969
-0.245073
-0.244137
-0.243145
-0.242065
-0.240853
-0.239451
-0.237746
-0.235737
-0.23406
-0.226578
-0.25183
-0.251875
-0.25167
-0.251282
-0.250737
-0.25006
-0.249281
-0.248428
-0.247523
-0.246581
-0.245608
-0.244598
-0.243535
-0.242386
-0.241104
-0.239626
-0.237819
-0.235656
-0.233823
-0.225436
-0.253136
-0.253131
-0.25287
-0.252416
-0.251795
-0.251035
-0.250171
-0.249231
-0.24824
-0.247214
-0.246159
-0.245072
-0.243936
-0.242718
-0.241367
-0.239817
-0.237914
-0.235625
-0.233589
-0.224414
-0.254505
-0.254445
-0.254126
-0.2536
-0.252898
-0.252052
-0.251098
-0.250066
-0.248984
-0.247869
-0.24673
-0.245562
-0.244351
-0.243063
-0.241646
-0.240031
-0.23804
-0.235668
-0.233318
-0.223561
-0.255943
-0.255824
-0.255441
-0.254839
-0.254052
-0.253114
-0.252064
-0.250936
-0.249759
-0.248551
-0.247323
-0.246073
-0.244785
-0.243426
-0.241946
-0.240276
-0.238217
-0.23583
-0.23291
-0.222767
-0.257456
-0.257273
-0.256822
-0.256138
-0.255259
-0.254224
-0.253074
-0.251845
-0.250568
-0.249265
-0.247945
-0.246608
-0.24524
-0.243811
-0.242274
-0.240565
-0.238482
-0.236217
-0.232446
-0.222494
-0.259051
-0.258797
-0.258272
-0.257502
-0.256526
-0.255389
-0.254133
-0.252799
-0.251418
-0.250014
-0.248599
-0.247173
-0.245724
-0.244224
-0.242633
-0.240905
-0.23886
-0.236926
-0.232707
-0.226763
-0.260734
-0.260402
-0.259798
-0.258935
-0.257857
-0.256612
-0.255246
-0.253802
-0.252313
-0.250805
-0.249291
-0.247773
-0.24624
-0.244668
-0.243025
-0.241289
-0.23931
-0.237797
-0.234233
-0.241844
-0.262512
-0.262094
-0.261405
-0.260443
-0.259257
-0.257899
-0.256418
-0.25486
-0.25326
-0.251644
-0.250028
-0.248415
-0.246795
-0.245148
-0.243448
-0.241699
-0.239773
-0.238607
-0.235249
-0.245448
-0.264392
-0.26388
-0.263099
-0.262032
-0.260732
-0.259255
-0.257655
-0.255978
-0.254263
-0.252537
-0.250816
-0.249104
-0.247393
-0.245666
-0.243902
-0.242123
-0.240207
-0.239209
-0.235852
-0.245853
-0.266381
-0.265766
-0.264885
-0.263707
-0.262287
-0.260687
-0.258963
-0.257164
-0.25533
-0.25349
-0.251661
-0.249847
-0.24804
-0.246225
-0.244385
-0.242551
-0.240601
-0.23961
-0.236219
-0.245335
-0.268487
-0.267758
-0.266771
-0.265475
-0.263929
-0.2622
-0.260347
-0.258422
-0.256467
-0.25451
-0.25257
-0.250649
-0.24874
-0.246828
-0.244895
-0.242978
-0.240946
-0.239832
-0.236352
-0.244122
-0.270716
-0.269863
-0.268762
-0.267341
-0.265663
-0.2638
-0.261815
-0.25976
-0.25768
-0.255604
-0.253549
-0.251516
-0.249497
-0.247475
-0.24543
-0.243397
-0.241235
-0.239891
-0.236264
-0.242441
-0.273076
-0.272086
-0.270865
-0.269311
-0.267495
-0.265494
-0.263372
-0.261185
-0.258977
-0.256778
-0.254603
-0.252452
-0.250314
-0.248167
-0.245988
-0.243802
-0.241464
-0.239805
-0.235983
-0.240499
-0.275574
-0.274436
-0.273085
-0.271392
-0.269432
-0.267288
-0.265025
-0.262702
-0.260363
-0.258037
-0.255737
-0.253461
-0.251191
-0.248903
-0.246565
-0.24419
-0.24163
-0.239592
-0.23554
-0.238434
-0.278217
-0.276916
-0.275428
-0.273589
-0.27148
-0.269187
-0.26678
-0.264318
-0.261844
-0.259387
-0.256957
-0.254545
-0.25213
-0.24968
-0.247155
-0.244556
-0.241732
-0.23927
-0.234959
-0.236332
-0.28101
-0.279535
-0.2779
-0.275909
-0.273644
-0.271198
-0.268644
-0.266039
-0.263427
-0.260834
-0.258265
-0.255706
-0.253129
-0.250495
-0.247755
-0.244896
-0.24177
-0.238855
-0.234261
-0.234246
-0.28396
-0.282296
-0.280507
-0.278356
-0.27593
-0.273328
-0.270622
-0.267871
-0.265117
-0.262381
-0.259663
-0.256944
-0.254187
-0.251343
-0.248357
-0.245204
-0.241744
-0.238357
-0.233461
-0.232206
-0.287072
-0.285205
-0.283254
-0.280937
-0.278344
-0.275581
-0.27272
-0.269819
-0.266917
-0.264031
-0.261154
-0.258258
-0.255298
-0.252218
-0.248955
-0.245477
-0.241652
-0.237786
-0.232573
-0.230226
-0.290351
-0.288268
-0.286146
-0.283656
-0.280892
-0.277964
-0.274944
-0.271889
-0.268833
-0.265787
-0.262736
-0.259644
-0.256457
-0.253112
-0.249542
-0.245707
-0.241493
-0.237148
-0.231606
-0.228308
-0.293801
-0.291487
-0.289187
-0.286519
-0.283578
-0.280481
-0.277299
-0.274084
-0.270866
-0.267649
-0.264408
-0.261099
-0.257658
-0.254017
-0.250107
-0.245889
-0.241267
-0.236444
-0.230568
-0.226445
-0.297426
-0.294868
-0.292381
-0.289528
-0.286407
-0.283138
-0.279788
-0.276407
-0.273019
-0.269617
-0.266167
-0.262615
-0.258891
-0.254923
-0.250644
-0.246018
-0.24097
-0.235677
-0.229463
-0.224627
-0.301228
-0.298412
-0.295732
-0.292689
-0.289383
-0.285937
-0.282415
-0.278862
-0.275291
-0.271688
-0.268008
-0.264186
-0.260148
-0.25582
-0.251141
-0.246085
-0.240599
-0.234845
-0.228292
-0.22284
-0.30521
-0.302122
-0.299242
-0.296005
-0.29251
-0.288882
-0.285182
-0.281448
-0.277682
-0.273859
-0.269922
-0.265801
-0.261415
-0.256695
-0.25159
-0.246084
-0.240152
-0.233946
-0.227056
-0.221069
-0.309371
-0.305999
-0.302913
-0.299476
-0.295788
-0.291975
-0.288092
-0.284165
-0.280188
-0.276122
-0.271902
-0.267448
-0.262681
-0.257537
-0.251979
-0.246007
-0.239624
-0.232977
-0.225754
-0.219297
-0.313711
-0.310042
-0.306746
-0.303106
-0.299221
-0.295218
-0.291142
-0.287011
-0.282804
-0.278471
-0.273936
-0.269115
-0.263932
-0.258333
-0.252298
-0.245849
-0.23901
-0.231934
-0.224383
-0.21751
-0.318228
-0.314252
-0.310739
-0.306893
-0.302809
-0.29861
-0.294333
-0.289981
-0.285524
-0.280895
-0.276011
-0.270787
-0.265152
-0.25907
-0.252538
-0.2456
-0.238307
-0.230813
-0.222939
-0.215692
-0.32292
-0.318626
-0.314893
-0.310838
-0.306549
-0.302148
-0.297659
-0.293071
-0.288337
-0.28338
-0.278112
-0.272447
-0.266328
-0.259734
-0.252688
-0.245255
-0.237509
-0.229608
-0.221418
-0.213831
-0.32778
-0.32316
-0.319204
-0.314937
-0.310441
-0.30583
-0.301115
-0.29627
-0.291232
-0.285914
-0.280222
-0.274079
-0.267441
-0.260312
-0.252738
-0.244807
-0.236611
-0.228313
-0.219816
-0.211913
-0.332804
-0.327849
-0.323667
-0.319187
-0.314478
-0.30965
-0.304694
-0.299568
-0.294195
-0.288478
-0.282323
-0.275664
-0.268478
-0.260791
-0.252678
-0.244247
-0.235609
-0.226925
-0.218127
-0.209929
-0.337982
-0.332686
-0.328278
-0.323581
-0.318656
-0.313599
-0.308385
-0.302952
-0.297209
-0.291054
-0.284396
-0.277185
-0.26942
-0.261158
-0.252499
-0.243569
-0.234496
-0.225437
-0.216345
-0.207867
-0.343304
-0.337663
-0.333026
-0.328113
-0.322965
-0.317668
-0.312175
-0.306406
-0.300256
-0.293621
-0.28642
-0.278621
-0.270253
-0.261401
-0.252191
-0.242767
-0.233266
-0.223843
-0.214465
-0.205719
-0.348759
-0.342768
-0.337904
-0.332772
-0.327396
-0.321844
-0.316048
-0.30991
-0.303315
-0.296157
-0.288372
-0.279953
-0.27096
-0.261508
-0.251746
-0.241834
-0.231915
-0.222137
-0.212481
-0.203477
-0.354331
-0.347989
-0.342899
-0.337547
-0.331934
-0.326112
-0.319987
-0.313444
-0.306361
-0.298638
-0.290231
-0.281163
-0.271526
-0.261466
-0.251155
-0.240761
-0.230435
-0.220313
-0.210387
-0.201132
-0.360004
-0.353311
-0.347996
-0.342422
-0.336565
-0.330453
-0.323971
-0.316985
-0.309371
-0.30104
-0.291974
-0.28223
-0.271936
-0.261265
-0.250408
-0.239543
-0.22882
-0.218365
-0.208177
-0.198677
-0.365758
-0.358716
-0.35318
-0.347382
-0.341269
-0.334847
-0.327975
-0.320506
-0.312317
-0.303337
-0.293578
-0.283136
-0.272173
-0.260892
-0.249497
-0.238172
-0.227064
-0.216287
-0.205845
-0.196107
-0.371573
-0.364187
-0.358432
-0.352407
-0.346026
-0.339271
-0.331974
-0.32398
-0.315171
-0.305502
-0.295021
-0.283862
-0.272226
-0.260337
-0.248413
-0.236641
-0.225159
-0.214071
-0.203384
-0.193414
-0.377425
-0.3697
-0.363729
-0.357475
-0.350813
-0.343697
-0.33594
-0.327377
-0.317906
-0.30751
-0.296279
-0.284391
-0.272078
-0.259589
-0.247149
-0.234941
-0.223099
-0.211711
-0.200788
-0.190591
-0.383287
-0.375231
-0.36905
-0.362562
-0.355602
-0.348098
-0.339842
-0.330667
-0.32049
-0.309333
-0.297331
-0.284704
-0.271717
-0.258637
-0.245693
-0.233065
-0.220877
-0.2092
-0.19805
-0.187634
-0.389132
-0.380754
-0.374366
-0.367639
-0.360364
-0.352443
-0.343647
-0.333816
-0.322893
-0.310945
-0.298155
-0.284784
-0.27113
-0.257471
-0.244039
-0.231006
-0.218484
-0.206532
-0.195165
-0.184536
-0.394927
-0.386241
-0.37965
-0.372678
-0.36507
-0.356698
-0.347321
-0.336791
-0.325086
-0.312321
-0.298729
-0.284616
-0.270303
-0.25608
-0.242177
-0.228755
-0.215914
-0.203698
-0.192124
-0.181291
-0.400641
-0.391659
-0.384871
-0.377647
-0.369683
-0.360827
-0.350828
-0.339558
-0.327037
-0.313434
-0.299034
-0.284183
-0.269225
-0.254455
-0.240098
-0.226304
-0.21316
-0.200693
-0.188923
-0.177894
-0.406238
-0.396976
-0.389994
-0.38251
-0.374169
-0.364794
-0.354133
-0.342084
-0.328717
-0.31426
-0.29905
-0.28347
-0.267882
-0.252585
-0.237794
-0.223646
-0.210213
-0.19751
-0.185554
-0.174338
-0.411682
-0.402157
-0.394986
-0.387232
-0.37849
-0.36856
-0.357197
-0.344334
-0.330097
-0.314775
-0.298758
-0.282462
-0.266264
-0.25046
-0.235255
-0.220771
-0.207066
-0.194141
-0.182012
-0.170619
-0.416933
-0.407164
-0.399808
-0.391774
-0.382605
-0.372086
-0.359983
-0.346274
-0.331147
-0.314955
-0.29814
-0.281146
-0.264359
-0.248071
-0.232473
-0.217673
-0.203711
-0.190579
-0.17829
-0.166731
-0.421952
-0.411958
-0.404421
-0.396096
-0.386475
-0.375332
-0.362454
-0.347871
-0.33184
-0.31478
-0.297178
-0.279507
-0.262155
-0.245407
-0.22944
-0.214342
-0.200143
-0.186819
-0.174382
-0.16267
-0.426697
-0.4165
-0.408785
-0.400157
-0.390058
-0.378257
-0.364571
-0.349092
-0.33215
-0.314228
-0.295858
-0.277532
-0.259642
-0.24246
-0.226146
-0.210772
-0.196352
-0.182854
-0.170283
-0.15843
-0.431126
-0.420749
-0.412859
-0.403915
-0.393312
-0.380821
-0.3663
-0.349908
-0.332052
-0.313278
-0.294162
-0.27521
-0.25681
-0.23922
-0.222583
-0.206955
-0.192334
-0.178678
-0.165987
-0.154007
-0.435194
-0.42466
-0.416599
-0.407325
-0.396193
-0.382984
-0.367602
-0.350286
-0.33152
-0.311913
-0.292077
-0.272528
-0.253648
-0.235679
-0.218744
-0.202883
-0.18808
-0.174284
-0.161489
-0.149396
-0.43886
-0.428193
-0.419962
-0.410345
-0.39866
-0.384705
-0.368445
-0.350199
-0.330533
-0.310116
-0.289588
-0.269476
-0.250148
-0.231828
-0.214621
-0.19855
-0.183585
-0.169668
-0.156785
-0.144594
-0.442078
-0.431303
-0.422905
-0.412932
-0.400671
-0.385948
-0.368795
-0.34962
-0.32907
-0.307869
-0.286684
-0.266042
-0.2463
-0.227659
-0.210207
-0.19395
-0.178843
-0.164825
-0.151869
-0.139596
-0.444805
-0.433948
-0.425384
-0.415042
-0.402184
-0.386674
-0.368621
-0.348524
-0.327111
-0.305158
-0.283353
-0.262218
-0.242095
-0.223165
-0.205495
-0.189075
-0.173849
-0.159749
-0.146737
-0.134401
-0.446999
-0.436084
-0.427356
-0.416633
-0.40316
-0.386848
-0.367892
-0.346887
-0.324639
-0.30197
-0.279583
-0.257995
-0.237526
-0.218339
-0.200478
-0.183921
-0.168597
-0.154436
-0.141387
-0.129004
-0.448616
-0.43767
-0.428779
-0.417663
-0.403561
-0.386438
-0.366583
-0.344689
-0.321637
-0.298291
-0.275366
-0.253364
-0.232587
-0.213173
-0.195151
-0.178481
-0.163084
-0.148883
-0.135814
-0.123403
-0.449616
-0.438664
-0.429612
-0.418093
-0.403349
-0.38541
-0.364666
-0.341909
-0.318091
-0.294112
-0.270691
-0.248318
-0.22727
-0.207664
-0.189509
-0.172753
-0.157304
-0.143085
-0.130015
-0.117596
-0.449959
-0.439026
-0.429815
-0.417885
-0.402491
-0.383738
-0.362121
-0.338531
-0.313988
-0.289423
-0.265553
-0.24285
-0.221569
-0.201805
-0.183548
-0.166732
-0.151256
-0.137041
-0.123989
-0.11158
-0.449606
-0.438719
-0.42935
-0.417003
-0.400954
-0.381393
-0.358925
-0.334539
-0.309317
-0.284214
-0.259944
-0.236956
-0.215481
-0.195592
-0.177263
-0.160414
-0.144936
-0.130748
-0.117734
-0.105356
-0.448522
-0.437704
-0.428181
-0.415413
-0.398708
-0.378351
-0.355061
-0.32992
-0.304069
-0.278481
-0.253858
-0.23063
-0.209001
-0.189023
-0.170652
-0.153797
-0.138342
-0.124203
-0.111248
-0.0989228
-0.446672
-0.435949
-0.426275
-0.413083
-0.395728
-0.374593
-0.350513
-0.324664
-0.298237
-0.272216
-0.247292
-0.223869
-0.202127
-0.182094
-0.163712
-0.14688
-0.131472
-0.117405
-0.10453
-0.0922828
-0.444027
-0.433422
-0.4236
-0.409985
-0.391989
-0.370099
-0.345269
-0.318762
-0.291814
-0.265417
-0.240244
-0.216672
-0.194855
-0.174803
-0.156442
-0.13966
-0.124325
-0.110353
-0.0975794
-0.085427
-0.440557
-0.430093
-0.420128
-0.406095
-0.38747
-0.364854
-0.339317
-0.312207
-0.284797
-0.258081
-0.23271
-0.209035
-0.187186
-0.167151
-0.148842
-0.132139
-0.116901
-0.103046
-0.0903914
-0.0783261
-0.436236
-0.425937
-0.415834
-0.401389
-0.382153
-0.358845
-0.332651
-0.304995
-0.277184
-0.250206
-0.22469
-0.20096
-0.179119
-0.159136
-0.140913
-0.124317
-0.109203
-0.0954922
-0.0829712
-0.0709526
-0.431042
-0.420929
-0.410696
-0.395849
-0.376025
-0.352064
-0.325264
-0.297124
-0.268974
-0.241793
-0.216186
-0.192447
-0.170655
-0.150762
-0.132656
-0.116196
-0.101233
-0.0876945
-0.0753354
-0.0633732
-0.424956
-0.415051
-0.404695
-0.389459
-0.369074
-0.344503
-0.317155
-0.288594
-0.260168
-0.232844
-0.2072
-0.183499
-0.161797
-0.142029
-0.124072
-0.107778
-0.0929935
-0.0796487
-0.0674437
-0.0556928
-0.417962
-0.408285
-0.397815
-0.382207
-0.361292
-0.336159
-0.308323
-0.279406
-0.25077
-0.223363
-0.197734
-0.174118
-0.152547
-0.132941
-0.115166
-0.0990675
-0.0844883
-0.07136
-0.0593377
-0.0478201
-0.410048
-0.400619
-0.390046
-0.374084
-0.352675
-0.327031
-0.29877
-0.269565
-0.240784
-0.213355
-0.187794
-0.164309
-0.142911
-0.123502
-0.105941
-0.0900688
-0.0757209
-0.0628328
-0.0510221
-0.0397445
-0.401205
-0.392042
-0.381379
-0.365086
-0.343222
-0.317122
-0.288502
-0.259077
-0.230217
-0.202825
-0.177386
-0.154079
-0.132893
-0.113718
-0.0964044
-0.0807843
-0.066696
-0.0540726
-0.0424976
-0.0314693
-0.391428
-0.38255
-0.371809
-0.35521
-0.332934
-0.306437
-0.277525
-0.24795
-0.219077
-0.191782
-0.166516
-0.143433
-0.1225
-0.103596
-0.0865606
-0.0712223
-0.0574192
-0.0450848
-0.0337667
-0.0230011
-0.380715
-0.37214
-0.361336
-0.344459
-0.321817
-0.294984
-0.265849
-0.236195
-0.207374
-0.180234
-0.155195
-0.13238
-0.11174
-0.0931413
-0.0764169
-0.0613892
-0.0478973
-0.0358756
-0.0248341
-0.0143466
-0.369068
-0.360813
-0.349962
-0.332838
-0.309879
-0.282773
-0.253486
-0.223822
-0.19512
-0.168193
-0.14343
-0.120929
-0.100622
-0.0823636
-0.0659813
-0.0512929
-0.0381378
-0.0264519
-0.015706
-0.005513
-0.356494
-0.348574
-0.337694
-0.320356
-0.297132
-0.269818
-0.24045
-0.210847
-0.182327
-0.155671
-0.131235
-0.109091
-0.0891553
-0.071272
-0.0552629
-0.0409418
-0.0281491
-0.0168215
-0.00638989
0.00349216
-0.343001
-0.335432
-0.324541
-0.307026
-0.28359
-0.256135
-0.226757
-0.197285
-0.169011
-0.142682
-0.118621
-0.0968774
-0.077351
-0.0598769
-0.0442718
-0.0303457
-0.0179404
-0.00699336
0.00310574
0.0126604
-0.328603
-0.321399
-0.310517
-0.292862
-0.26927
-0.241741
-0.212425
-0.183152
-0.155187
-0.129239
-0.105602
-0.0843006
-0.0652208
-0.0481895
-0.0330186
-0.019515
-0.00752201
0.0030227
0.0127712
0.0219821
-0.313316
-0.30649
-0.295638
-0.277882
-0.254192
-0.226658
-0.197477
-0.168465
-0.140872
-0.115359
-0.0921923
-0.0713744
-0.0527778
-0.0362221
-0.0215151
-0.00846094
0.00309499
0.0132158
0.0225955
0.0314463
-0.297158
-0.290725
-0.279925
-0.262109
-0.238379
-0.21091
-0.181941
-0.153241
-0.126084
-0.10106
-0.0784084
-0.0581136
-0.0400356
-0.0239876
-0.00977366
0.00280428
0.0138986
0.023574
0.0325666
0.0410404
-0.280155
-0.274125
-0.2634
-0.245566
-0.221855
-0.19452
-0.165814
-0.137524
-0.110846
-0.0863595
-0.0642671
-0.0445339
-0.0270089
-0.0114997
0.00219253
0.0142679
0.0248761
0.0340846
0.0426709
0.0507492
-0.26233
-0.256716
-0.246089
-0.228282
-0.204655
-0.177508
-0.149143
-0.121319
-0.095179
-0.0712779
-0.0497865
-0.0306518
-0.013713
0.001227
0.0143698
0.0259166
0.0360139
0.0447338
0.0528936
0.0605551
-0.243714
-0.238526
-0.228022
-0.210288
-0.186813
-0.159896
-0.131952
-0.104652
-0.0791057
-0.0558359
-0.0349857
-0.0164849
-0.000164191
0.0141777
0.026744
0.0377365
0.0472982
0.0555074
0.0632183
0.0704373
-0.224338
-0.219587
-0.20923
-0.191613
-0.168318
-0.141757
-0.114271
-0.0875508
-0.0626499
-0.0400554
-0.0198845
-0.00205145
0.0136209
0.0273367
0.0393006
0.0497137
0.0587148
0.0663908
0.0736274
0.08037
-0.204234
-0.199933
-0.189748
-0.172289
-0.149243
-0.123088
-0.0961289
-0.0700436
-0.0458367
-0.0239592
-0.00450387
0.0126295
0.0276247
0.0406882
0.052025
0.0618344
0.0702497
0.0773694
0.084101
0.090318
-0.183441
-0.1796
-0.169614
-0.152349
-0.129622
-0.103927
-0.077557
-0.0521592
-0.0286922
-0.00757125
0.0111345
0.0275382
0.0418295
0.054216
0.0649026
0.0740849
0.08189
0.0884298
0.0946188
0.10024
-0.161994
-0.158627
-0.148855
-0.131845
-0.109488
-0.0843102
-0.0585876
-0.0339275
-0.0112437
0.00908375
0.027008
0.0426541
0.0562165
0.0679035
0.0779188
0.0864525
0.0936234
0.0995613
0.105166
0.110104
-0.13993
-0.137062
-0.127524
-0.110812
-0.0888783
-0.0642752
-0.0392543
-0.0153794
0.00648069
0.0259801
0.0430932
0.057956
0.0707666
0.0817337
0.0910591
0.0989243
0.105439
0.110758
0.115739
0.119882
-0.117284
-0.114959
-0.105665
-0.0892892
-0.0678339
-0.0438599
-0.0195919
0.00345317
0.0244518
0.0430913
0.0593661
0.0734219
0.0854602
0.0956896
0.104309
0.111488
0.117327
0.12202
0.126332
0.129465
-0.0941418
-0.0923333
-0.0833231
-0.0673223
-0.0463959
-0.0231033
0.000363716
0.0225376
0.0426399
0.06039
0.0758015
0.089029
0.100277
0.109753
0.117654
0.124134
0.129291
0.13337
0.136904
0.13857
-0.0705661
-0.0692163
-0.0605403
-0.0449562
-0.0246071
-0.0020452
0.020576
0.0418402
0.0610141
0.0778481
0.0923737
0.104754
0.115195
0.123906
0.131079
0.136854
0.141347
0.144853
0.147427
0.146983
-0.0465626
-0.0456868
-0.0373654
-0.0222366
-0.00251117
0.0192737
0.0410075
0.0613268
0.0795431
0.0954369
0.109056
0.120572
0.130193
0.138128
0.144565
0.149639
0.153509
0.156491
0.157987
0.155493
-0.0221834
-0.0217967
-0.0138473
0.000789143
0.0198471
0.0408118
0.06162
0.0809625
0.0981949
0.113127
0.125822
0.136458
0.145246
0.152396
0.158091
0.162471
0.165745
0.168177
0.168551
0.166871
0.00251757
0.00240686
0.00996504
0.0240735
0.0424227
0.0625273
0.082375
0.100712
0.116937
0.130888
0.142643
0.152386
0.160331
0.166686
0.171634
0.175321
0.177984
0.179812
0.179553
0.178663
0.0274853
0.0268722
0.0340203
0.0475673
0.0651695
0.0843775
0.103233
0.120539
0.135736
0.148689
0.159491
0.16833
0.175422
0.180974
0.18517
0.188161
0.190192
0.191396
0.190626
0.18984
0.0526653
0.0515467
0.0582665
0.0712209
0.088041
0.106319
0.124155
0.140407
0.154559
0.166501
0.176338
0.184263
0.190494
0.195238
0.198675
0.200965
0.20235
0.20293
0.201678
0.200695
0.0780029
0.0763771
0.0826515
0.0949845
0.11099
0.128309
0.145101
0.160281
0.173373
0.184292
0.193154
0.200159
0.205522
0.209451
0.212126
0.213709
0.214437
0.214391
0.212642
0.21132
0.103443
0.101309
0.107122
0.118808
0.133971
0.150305
0.166031
0.180122
0.192143
0.20203
0.209912
0.21599
0.220481
0.223592
0.2255
0.226369
0.226432
0.225757
0.223487
0.221747
0.12893
0.126289
0.131626
0.14264
0.156935
0.172261
0.186905
0.199896
0.210836
0.219686
0.226581
0.231729
0.235346
0.237635
0.238775
0.238926
0.238318
0.237008
0.234198
0.231995
0.154409
0.151262
0.15611
0.166431
0.179835
0.194135
0.207683
0.219564
0.229418
0.237226
0.243134
0.247351
0.250091
0.251558
0.251927
0.25136
0.250076
0.248127
0.244764
0.242071
0.179823
0.176173
0.180521
0.190131
0.202626
0.215884
0.228326
0.23909
0.247856
0.254621
0.259542
0.262827
0.264693
0.265338
0.264937
0.263649
0.26169
0.259099
0.255176
0.251976
0.205117
0.200968
0.204805
0.213688
0.225259
0.237465
0.248793
0.258439
0.266116
0.27184
0.275775
0.278133
0.279126
0.278952
0.277784
0.275777
0.273141
0.269908
0.265423
0.261704
0.230235
0.225591
0.228911
0.237054
0.247689
0.258834
0.269046
0.277574
0.284164
0.288852
0.291807
0.293241
0.293366
0.292379
0.290446
0.287724
0.284414
0.280541
0.275495
0.271251
0.255124
0.24999
0.252785
0.260179
0.269869
0.27995
0.289046
0.296459
0.301969
0.305627
0.307608
0.308126
0.307391
0.305595
0.302905
0.299472
0.295492
0.290985
0.285381
0.280608
0.279727
0.27411
0.276376
0.283014
0.291754
0.30077
0.308753
0.315059
0.319497
0.322134
0.323152
0.322763
0.321176
0.31858
0.31514
0.311004
0.30636
0.301224
0.295069
0.289766
0.303992
0.297898
0.299634
0.30551
0.3133
0.321254
0.328132
0.33334
0.336717
0.338346
0.338411
0.337126
0.334698
0.331313
0.327132
0.322301
0.317002
0.311246
0.304547
0.298714
0.327865
0.321303
0.322507
0.327621
0.334463
0.34136
0.347144
0.351266
0.353597
0.354231
0.353358
0.351191
0.347935
0.343773
0.338862
0.333347
0.327403
0.321037
0.313803
0.307443
0.351294
0.344273
0.344946
0.3493
0.355199
0.36105
0.365752
0.368806
0.370107
0.369763
0.367968
0.364934
0.360864
0.355939
0.350312
0.344125
0.337547
0.330583
0.322826
0.315942
0.374227
0.366758
0.366904
0.370502
0.375466
0.380285
0.383922
0.385925
0.386216
0.384913
0.382214
0.378332
0.373465
0.367792
0.361463
0.354619
0.347419
0.33987
0.331601
0.324201
0.396616
0.388709
0.388332
0.391182
0.395223
0.399026
0.401619
0.402592
0.401894
0.399654
0.396073
0.39136
0.385715
0.379311
0.372298
0.364811
0.357005
0.348885
0.340118
0.332208
0.41841
0.410077
0.409185
0.411296
0.41443
0.417237
0.418807
0.418776
0.417114
0.41396
0.409518
0.403998
0.397594
0.390479
0.382799
0.374686
0.36629
0.357615
0.348365
0.339953
0.439563
0.430816
0.429418
0.430803
0.433049
0.434882
0.435456
0.434447
0.431847
0.427805
0.422527
0.416222
0.409082
0.401277
0.392949
0.384229
0.375259
0.366048
0.356328
0.347426
0.460029
0.450882
0.448988
0.449663
0.451041
0.451926
0.451532
0.449574
0.446065
0.441164
0.435077
0.428012
0.420159
0.411686
0.402731
0.393423
0.3839
0.374169
0.363997
0.354616
0.479762
0.47023
0.467852
0.467835
0.46837
0.468337
0.467006
0.46413
0.459744
0.454013
0.447145
0.439347
0.430807
0.421689
0.41213
0.402256
0.392198
0.381967
0.371359
0.361514
0.498721
0.488818
0.485972
0.485283
0.485001
0.48408
0.481846
0.478088
0.472858
0.466329
0.45871
0.450208
0.441007
0.43127
0.421131
0.410712
0.400141
0.38943
0.378404
0.36811
0.516864
0.506606
0.503307
0.501969
0.500901
0.499127
0.496026
0.491421
0.485382
0.478089
0.469751
0.460575
0.450742
0.440412
0.429717
0.418778
0.407716
0.396547
0.385122
0.374394
0.534152
0.523556
0.519821
0.51786
0.516038
0.513447
0.509518
0.504105
0.497295
0.489272
0.48025
0.47043
0.459995
0.4491
0.437876
0.426441
0.414911
0.403305
0.391501
0.380357
0.550547
0.539631
0.535479
0.532923
0.530381
0.527013
0.522296
0.516115
0.508572
0.499858
0.490186
0.479757
0.46875
0.457319
0.445594
0.433688
0.421714
0.409696
0.397532
0.385992
0.566015
0.554796
0.550248
0.547126
0.543902
0.539797
0.534335
0.52743
0.519195
0.509829
0.499543
0.488538
0.476992
0.465056
0.452857
0.440508
0.428115
0.415708
0.403205
0.391289
0.580521
0.569018
0.564096
0.56044
0.556573
0.551775
0.545614
0.538027
0.529144
0.519164
0.508303
0.496759
0.484707
0.472297
0.459655
0.446889
0.434104
0.421332
0.408512
0.396241
0.594034
0.582267
0.576994
0.572838
0.568369
0.562924
0.556109
0.547888
0.538399
0.527849
0.516452
0.504405
0.491882
0.47903
0.465974
0.452821
0.43967
0.426559
0.413443
0.40084
0.606526
0.594514
0.588916
0.584294
0.579267
0.573222
0.565802
0.556993
0.546945
0.535867
0.523973
0.511462
0.498503
0.485243
0.471805
0.458294
0.444806
0.431381
0.417993
0.405081
0.61797
0.605733
0.599835
0.594785
0.589244
0.582649
0.574674
0.565326
0.554765
0.543203