/*--------------------------------*- C++ -*----------------------------------*\
  =========                 |
  \\      /  F ield         | OpenFOAM: The Open Source CFD Toolbox
   \\    /   O peration     | Website:  https://openfoam.org
    \\  /    A nd           | Version:  7
     \\/     M anipulation  |
\*---------------------------------------------------------------------------*/
FoamFile
{
    version     2.0;
    format      ascii;
    class       surfaceScalarField;
    location    "25";
    object      phi;
}
// * * * * * * * * * * * * * * * * * * * * * * * * * * * * * * * * * * * * * //

dimensions      [0 3 -1 0 0 0 0];

internalField   nonuniform List<scalar> 
67470
(
-8.78939e-07
8.862e-07
-7.26083e-09
-3.30947e-06
2.45074e-06
-2.02108e-08
-7.16255e-06
3.88526e-06
-3.21818e-08
-1.23109e-05
5.19148e-06
-4.3156e-08
-1.86302e-05
6.37243e-06
-5.31463e-08
-2.60009e-05
7.43295e-06
-6.22006e-08
-3.43102e-05
8.37966e-06
-7.04003e-08
-4.34535e-05
9.22117e-06
-7.78591e-08
-5.33371e-05
9.96831e-06
-8.47179e-08
-6.38801e-05
1.06342e-05
-9.11381e-08
-7.50172e-05
1.12344e-05
-9.72924e-08
-8.67008e-05
1.1787e-05
-1.03355e-07
-9.89039e-05
1.23125e-05
-1.09494e-07
-0.000111622
1.28339e-05
-1.15859e-07
-0.000124876
1.33762e-05
-1.22581e-07
-0.000138711
1.39654e-05
-1.29764e-07
-0.000153202
1.46279e-05
-1.37483e-07
-0.000168444
1.53887e-05
-1.45785e-07
-0.000184556
1.62662e-05
-1.54682e-07
1.7283e-05
-1.64151e-07
-0.000201675
-8.76193e-07
1.76239e-06
-3.29939e-06
4.87394e-06
-7.14101e-06
7.72688e-06
-1.2274e-05
1.03245e-05
-1.85743e-05
1.26727e-05
-2.59222e-05
1.47809e-05
-3.42048e-05
1.66622e-05
-4.33172e-05
1.83336e-05
-5.31652e-05
1.98163e-05
-6.36674e-05
2.11364e-05
-7.47575e-05
2.23245e-05
-8.63871e-05
2.34166e-05
-9.8528e-05
2.44534e-05
-0.000111175
2.54807e-05
-0.000124347
2.65481e-05
-0.000138089
2.77079e-05
-0.000152474
2.9013e-05
-0.000167599
3.05132e-05
-0.000183578
3.22458e-05
3.42559e-05
-0.000200551
-8.70755e-07
2.63315e-06
-3.27944e-06
7.28262e-06
-7.09832e-06
1.15458e-05
-1.22009e-05
1.54271e-05
-1.84634e-05
1.89351e-05
-2.57661e-05
2.20836e-05
-3.39956e-05
2.48918e-05
-4.30466e-05
2.73845e-05
-5.28238e-05
2.95935e-05
-6.32446e-05
3.15572e-05
-7.42412e-05
3.33211e-05
-8.57632e-05
3.49386e-05
-9.77804e-05
3.64706e-05
-0.000110285
3.79853e-05
-0.000123294
3.95572e-05
-0.000136851
4.12648e-05
-0.000151026
4.31878e-05
-0.000165914
4.54016e-05
-0.000181631
4.79624e-05
5.09376e-05
-0.000198313
-8.62688e-07
3.49584e-06
-3.2498e-06
9.66974e-06
-7.0349e-06
1.53309e-05
-1.20923e-05
2.04845e-05
-1.82985e-05
2.51413e-05
-2.55338e-05
2.93189e-05
-3.36843e-05
3.30423e-05
-4.26437e-05
3.63439e-05
-5.23153e-05
3.92652e-05
-6.26147e-05
4.18565e-05
-7.34717e-05
4.41781e-05
-8.48331e-05
4.63e-05
-9.66655e-05
4.83029e-05
-0.000108958
5.02774e-05
-0.000121723
5.23228e-05
-0.000135002
5.4544e-05
-0.000148863
5.7048e-05
-0.000163397
5.99365e-05
-0.00017872
6.32852e-05
6.71839e-05
-0.000194967
-8.52082e-07
4.34792e-06
-3.21081e-06
1.20285e-05
-6.95138e-06
1.90714e-05
-1.19491e-05
2.54823e-05
-1.8081e-05
3.12731e-05
-2.52272e-05
3.64652e-05
-3.32732e-05
4.10882e-05
-4.21113e-05
4.5182e-05
-5.16432e-05
4.87971e-05
-6.17818e-05
5.19951e-05
-7.24537e-05
5.485e-05
-8.36022e-05
5.74485e-05
-9.51893e-05
5.98901e-05
-0.000107199
6.22876e-05
-0.000119642
6.47648e-05
-0.000132551
6.74539e-05
-0.000145993
7.04896e-05
-0.000160058
7.4001e-05
-0.000174857
7.80843e-05
8.28515e-05
-0.000190524
-8.39057e-07
5.18698e-06
-3.16285e-06
1.43523e-05
-6.84855e-06
2.27571e-05
-1.17727e-05
3.04065e-05
-1.78128e-05
3.73132e-05
-2.48489e-05
4.35012e-05
-3.27654e-05
4.90048e-05
-4.14534e-05
5.387e-05
-5.0812e-05
5.81557e-05
-6.07512e-05
6.19342e-05
-7.11935e-05
6.52924e-05
-8.20776e-05
6.83325e-05
-9.33601e-05
7.11727e-05
-0.00010502
7.3947e-05
-0.000117059
7.68043e-05
-0.000129509
7.99038e-05
-0.000142429
8.34095e-05
-0.000155907
8.74789e-05
-0.000170053
9.22305e-05
9.77984e-05
-0.000185
-8.23757e-07
6.01073e-06
-3.10642e-06
1.66349e-05
-6.72741e-06
2.63781e-05
-1.15646e-05
3.52437e-05
-1.74961e-05
4.32447e-05
-2.44017e-05
5.04068e-05
-3.21648e-05
5.67679e-05
-4.06745e-05
6.23797e-05
-4.98273e-05
6.73085e-05
-5.95294e-05
7.16363e-05
-6.96987e-05
7.54618e-05
-8.0268e-05
7.89018e-05
-9.11877e-05
8.20923e-05
-0.000102429
8.51883e-05
-0.000113988
8.83632e-05
-0.000125888
9.18041e-05
-0.000138184
9.57051e-05
-0.00015096
0.000100255
-0.000164324
0.000105595
0.000111884
-0.00017841
-8.06349e-07
6.81708e-06
-3.04209e-06
1.88707e-05
-6.58908e-06
2.99251e-05
-1.13267e-05
3.99813e-05
-1.71335e-05
4.90515e-05
-2.3889e-05
5.71623e-05
-3.14756e-05
6.43544e-05
-3.97799e-05
7.06841e-05
-4.86954e-05
7.6224e-05
-5.81238e-05
8.10647e-05
-6.79778e-05
8.53158e-05
-7.81834e-05
8.91074e-05
-8.86832e-05
9.25921e-05
-9.94402e-05
9.59453e-05
-0.000110442
9.93646e-05
-0.000121703
0.000103066
-0.000133273
0.000107275
-0.000145232
0.000112214
-0.000157688
0.000118051
0.000124969
-0.000170772
-7.87022e-07
7.6041e-06
-2.97049e-06
2.10541e-05
-6.43483e-06
3.33895e-05
-1.10609e-05
4.46075e-05
-1.67279e-05
5.47184e-05
-2.33148e-05
6.37492e-05
-3.07025e-05
7.17422e-05
-3.87755e-05
7.8757e-05
-4.74232e-05
8.48718e-05
-5.65428e-05
9.01843e-05
-6.60405e-05
9.48135e-05
-7.58348e-05
9.89017e-05
-8.58593e-05
0.000102617
-9.60671e-05
0.000106153
-0.000106436
0.000109733
-0.000116971
0.000113601
-0.000127714
0.000118018
-0.000138741
0.000123241
-0.00015016
0.00012947
0.000136913
-0.000162105
-7.65978e-07
8.37008e-06
-2.89231e-06
2.31805e-05
-6.26603e-06
3.67632e-05
-1.07696e-05
4.9111e-05
-1.62824e-05
6.02313e-05
-2.26831e-05
7.01499e-05
-2.98509e-05
7.891e-05
-3.76675e-05
8.65735e-05
-4.60183e-05
9.32226e-05
-5.4795e-05
9.8961e-05
-6.38969e-05
0.000103915
-7.32337e-05
0.000108238
-8.2729e-05
0.000112112
-9.23246e-05
0.000115749
-0.000101986
0.000119394
-0.000111709
0.000123324
-0.000121524
0.000127834
-0.000131505
0.000133222
-0.000141759
0.000139724
0.00014758
-0.000152426
-7.43433e-07
9.11351e-06
-2.80827e-06
2.52453e-05
-6.08414e-06
4.00391e-05
-1.04549e-05
5.34817e-05
-1.58003e-05
6.55767e-05
-2.19983e-05
7.63479e-05
-2.89261e-05
8.58379e-05
-3.64625e-05
9.41098e-05
-4.44885e-05
0.000101249
-5.28897e-05
0.000107362
-6.15576e-05
0.000112583
-7.03924e-05
0.000117073
-7.93062e-05
0.000121026
-8.8228e-05
0.000124671
-9.71096e-05
0.000128276
-0.000105934
0.000132148
-0.000114722
0.000136622
-0.000123541
0.000142041
-0.000132502
0.000148684
0.000156828
-0.00014175
-7.19613e-07
9.83313e-06
-2.71914e-06
2.72448e-05
-5.89066e-06
4.32106e-05
-1.01193e-05
5.77103e-05
-1.5285e-05
7.07424e-05
-2.12647e-05
8.23276e-05
-2.79337e-05
9.25069e-05
-3.51672e-05
0.000101343
-4.28416e-05
0.000108923
-5.08359e-05
0.000115356
-5.90331e-05
0.00012078
-6.73228e-05
0.000125363
-7.56044e-05
0.000129307
-8.37923e-05
0.000132858
-9.18227e-05
0.000136307
-9.96634e-05
0.000139989
-0.000107324
0.000144282
-0.000114866
0.000149583
-0.000122402
0.000156221
0.000164516
-0.00013009
-6.94745e-07
1.05279e-05
-2.62569e-06
2.91758e-05
-5.68712e-06
4.6272e-05
-9.76515e-06
6.17883e-05
-1.47398e-05
7.57171e-05
-2.04867e-05
8.80745e-05
-2.6879e-05
9.88991e-05
-3.37881e-05
0.000108252
-4.10852e-05
0.00011622
-4.86424e-05
0.000122914
-5.63335e-05
0.000128472
-6.40365e-05
0.000133066
-7.16367e-05
0.000136908
-7.9032e-05
0.000140254
-8.61411e-05
0.000143416
-9.29141e-05
0.000146762
-9.93462e-05
0.000150714
-0.000105492
0.000155729
-0.00011147
0.000162198
0.000170497
-0.000117451
-6.69059e-07
1.11969e-05
-2.52867e-06
3.10354e-05
-5.47501e-06
4.92184e-05
-9.39494e-06
6.57083e-05
-1.41681e-05
8.04902e-05
-1.96687e-05
9.35752e-05
-2.57673e-05
0.000104998
-3.23314e-05
0.000114817
-3.92267e-05
0.000123116
-4.63175e-05
0.000130004
-5.34682e-05
0.000135622
-6.05439e-05
0.000140142
-6.74147e-05
0.000143778
-7.39602e-05
0.000146799
-8.00787e-05
0.000149534
-8.57e-05
0.000152383
-9.08023e-05
0.000155817
-9.54322e-05
0.000160359
-9.97127e-05
0.000166479
0.000174618
-0.000103834
-6.4278e-07
1.18397e-05
-2.42885e-06
3.28214e-05
-5.25583e-06
5.20453e-05
-9.01092e-06
6.94633e-05
-1.3573e-05
8.50523e-05
-1.88148e-05
9.88169e-05
-2.46035e-05
0.000110786
-3.08028e-05
0.000121016
-3.72723e-05
0.000129585
-4.38685e-05
0.000136601
-5.0445e-05
0.000142199
-5.68539e-05
0.000146551
-6.29483e-05
0.000149873
-6.85874e-05
0.000152438
-7.36467e-05
0.000154593
-7.80323e-05
0.000156769
-8.17018e-05
0.000159486
-8.46909e-05
0.000163348
-8.71292e-05
0.000168917
0.000176716
-8.92276e-05
-6.16126e-07
1.24558e-05
-2.32694e-06
3.45323e-05
-5.03097e-06
5.47494e-05
-8.61527e-06
7.30476e-05
-1.29576e-05
8.93947e-05
-1.79285e-05
0.000103788
-2.33921e-05
0.00011625
-2.92073e-05
0.000126831
-3.52275e-05
0.000135605
-4.1301e-05
0.000142674
-4.72703e-05
0.000148168
-5.29731e-05
0.000152253
-5.82442e-05
0.000155144
-6.29209e-05
0.000157115
-6.68526e-05
0.000158525
-6.99179e-05
0.000159834
-7.20494e-05
0.000161618
-7.32687e-05
0.000164568
-7.37118e-05
0.00016936
0.000176616
-7.36117e-05
-5.89301e-07
1.30451e-05
-2.22361e-06
3.61666e-05
-4.80172e-06
5.73275e-05
-8.20996e-06
7.64559e-05
-1.23245e-05
9.35092e-05
-1.70132e-05
0.000108476
-2.21366e-05
0.000121374
-2.75488e-05
0.000132243
-3.30964e-05
0.000141153
-3.86191e-05
0.000148197
-4.39477e-05
0.000153497
-4.89048e-05
0.000157211
-5.33058e-05
0.000159545
-5.69636e-05
0.000160773
-5.96987e-05
0.00016126
-6.13578e-05
0.000161493
-6.18433e-05
0.000162103
-6.1158e-05
0.000163882
-5.9443e-05
0.000167645
0.000174126
-5.69532e-05
-5.62494e-07
1.36076e-05
-2.11948e-06
3.77235e-05
-4.56926e-06
5.97773e-05
-7.79675e-06
7.96834e-05
-1.16759e-05
9.73884e-05
-1.60715e-05
0.000112872
-2.084e-05
0.000126142
-2.583e-05
0.000137233
-3.08815e-05
0.000146204
-3.58245e-05
0.00015314
-4.04781e-05
0.00015815
-4.46489e-05
0.000161381
-4.81316e-05
0.000163028
-5.07127e-05
0.000163354
-5.21805e-05
0.000162728
-5.23453e-05
0.000161658
-5.10734e-05
0.000160831
-4.83428e-05
0.000161152
-4.42962e-05
0.000163599
0.000169036
-3.92057e-05
-5.35878e-07
1.41435e-05
-2.01509e-06
3.92028e-05
-4.33459e-06
6.20968e-05
-7.37709e-06
8.27259e-05
-1.10136e-05
0.000101025
-1.51053e-05
0.000116964
-1.9504e-05
0.000130541
-2.40524e-05
0.000141782
-2.8583e-05
0.000150735
-3.29165e-05
0.000157473
-3.6859e-05
0.000162093
-4.02007e-05
0.000164723
-4.27144e-05
0.000165541
-4.41584e-05
0.000164798
-4.42856e-05
0.000162855
-4.28644e-05
0.000160237
-3.97186e-05
0.000157685
-3.4794e-05
0.000156227
-2.82444e-05
0.000157049
0.000161106
-2.03148e-05
-5.09602e-07
1.46531e-05
-1.91092e-06
4.06041e-05
-4.09854e-06
6.42844e-05
-6.95214e-06
8.55795e-05
-1.0339e-05
0.000104412
-1.41159e-05
0.000120741
-1.81293e-05
0.000134554
-2.22157e-05
0.000145868
-2.61994e-05
0.000154719
-2.98911e-05
0.000161165
-3.30837e-05
0.000165285
-3.55502e-05
0.00016719
-3.70405e-05
0.000167032
-3.72828e-05
0.00016504
-3.59911e-05
0.000161563
-3.28871e-05
0.000157133
-2.7743e-05
0.000152541
-2.04571e-05
0.000148941
-1.12085e-05
0.0001478
0.000150816
-9.18827e-07
-4.83793e-07
1.51369e-05
-1.80733e-06
4.19276e-05
-3.86176e-06
6.63388e-05
-6.52268e-06
8.82404e-05
-9.65281e-06
0.000107542
-1.31035e-05
0.000124191
-1.67155e-05
0.000138166
-2.03178e-05
0.00014947
-2.37265e-05
0.000158127
-2.67411e-05
0.000164179
-2.91412e-05
0.000167685
-3.06815e-05
0.00016873
-3.10883e-05
0.000167438
-3.0058e-05
0.00016401
-2.72629e-05
0.000158768
-2.23716e-05
0.000152241
-1.50956e-05
0.000145265
-5.27624e-06
0.000139122
7.0245e-06
0.0001355
0.000136677
2.11637e-05
-4.5855e-07
1.55955e-05
-1.7046e-06
4.31737e-05
-3.62465e-06
6.82589e-05
-6.08912e-06
9.07049e-05
-8.95507e-06
0.000110408
-1.20677e-05
0.000127304
-1.52606e-05
0.000141359
-1.8355e-05
0.000152565
-2.11574e-05
0.00016093
-2.34558e-05
0.000166478
-2.50154e-05
0.000169245
-2.55723e-05
0.000169287
-2.48279e-05
0.000166694
-2.24456e-05
0.000161628
-1.80533e-05
0.000154376
-1.12614e-05
0.000145449
-1.70994e-06
0.000135714
1.0825e-05
0.000126587
2.62559e-05
0.000120069
0.000118882
4.40508e-05
-4.33948e-07
1.60294e-05
-1.60291e-06
4.43426e-05
-3.38741e-06
7.00434e-05
-5.65146e-06
9.29689e-05
-8.24526e-06
0.000113002
-1.10067e-05
0.000130065
-1.37613e-05
0.000144114
-1.63212e-05
0.000155125
-1.84825e-05
0.000163091
-2.00207e-05
0.000168016
-2.06853e-05
0.00016991
-2.01931e-05
0.000168795
-1.822e-05
0.000164721
-1.43951e-05
0.000157803
-8.2996e-06
0.000148281
5.19164e-07
0.000136631
1.25004e-05
0.000123733
2.79553e-05
0.000111132
4.68475e-05
0.000101177
9.71389e-05
6.85908e-05
-4.10031e-07
1.64394e-05
-1.50232e-06
4.54349e-05
-3.14999e-06
7.16911e-05
-5.20925e-06
9.50282e-05
-7.52217e-06
0.000115315
-9.91796e-06
0.000132461
-1.22129e-05
0.000146409
-1.42087e-05
0.00015712
-1.56895e-05
0.000164572
-1.64171e-05
0.000168744
-1.61243e-05
0.000169617
-1.45073e-05
0.000167177
-1.12156e-05
0.000161429
-5.84307e-06
0.00015243
2.07711e-06
0.00014036
1.30639e-05
0.000125644
2.76469e-05
0.00010915
4.62409e-05
9.25379e-05
6.88845e-05
7.85329e-05
7.10701e-05
9.49533e-05
-3.86816e-07
1.68263e-05
-1.40279e-06
4.64509e-05
-2.91207e-06
7.32003e-05
-4.76162e-06
9.68777e-05
-6.78387e-06
0.000117337
-8.79792e-06
0.000134475
-1.06092e-05
0.00014822
-1.20073e-05
0.000158519
-1.27631e-05
0.000165328
-1.26227e-05
0.000168603
-1.13007e-05
0.000168295
-8.47109e-06
0.000164348
-3.75596e-06
0.000156714
3.28675e-06
0.000145387
1.31729e-05
0.000130474
2.64905e-05
0.000112326
4.38652e-05
9.1775e-05
6.58343e-05
7.05688e-05
9.25383e-05
5.1829e-05
4.02679e-05
0.00012334
-3.64289e-07
1.71905e-05
-1.30415e-06
4.73907e-05
-2.67311e-06
7.45693e-05
-4.30722e-06
9.85118e-05
-6.0277e-06
0.000119057
-7.64183e-06
0.000136089
-8.94236e-06
0.00014952
-9.70517e-06
0.000159281
-9.68531e-06
0.000165308
-8.61132e-06
0.000167529
-6.17743e-06
0.000165861
-2.03359e-06
0.000160204
4.22721e-06
0.000150453
1.30837e-05
0.000136531
2.51009e-05
0.000118457
4.09364e-05
9.64908e-05
6.13166e-05
7.13948e-05
8.69166e-05
4.49688e-05
0.000118009
2.07366e-05
4.29176e-06
0.000153985
-3.42402e-07
1.75329e-05
-1.20611e-06
4.82544e-05
-2.43226e-06
7.57955e-05
-3.84426e-06
9.99238e-05
-5.25028e-06
0.000120463
-6.44395e-06
0.000137283
-7.20332e-06
0.00015028
-7.28812e-06
0.000159366
-6.43539e-06
0.000164455
-4.35328e-06
0.000165447
-7.1286e-07
0.000162221
4.86254e-06
0.000154629
1.2811e-05
0.000142505
2.3649e-05
0.000125693
3.79903e-05
0.000104116
5.65605e-05
7.79205e-05
8.01879e-05
4.77675e-05
0.000109697
1.54595e-05
0.000145524
-1.50899e-05
-3.73219e-05
0.000187137
-3.21076e-07
1.7854e-05
-1.10826e-06
4.90416e-05
-2.18842e-06
7.68756e-05
-3.37042e-06
0.000101106
-4.44748e-06
0.00012154
-5.19747e-06
0.000138033
-5.3814e-06
0.000150464
-4.74026e-06
0.000158725
-2.99013e-06
0.000162705
1.84447e-07
0.000162272
5.13902e-06
0.000157266
1.22802e-05
0.000147487
2.20801e-05
0.000132705
3.50941e-05
0.000112679
5.19841e-05
8.72257e-05
7.35407e-05
5.6364e-05
0.00010069
2.06182e-05
0.000134412
-1.82623e-05
0.000175333
-5.60117e-05
-8.50466e-05
0.000223058
-3.00199e-07
1.81542e-05
-1.01006e-06
4.97515e-05
-1.94018e-06
7.78057e-05
-2.88293e-06
0.000102049
-3.61443e-06
0.000122272
-3.89448e-06
0.000138313
-3.46451e-06
0.000150034
-2.04378e-06
0.000157304
6.76e-07
0.000159985
5.03773e-06
0.000157911
1.14278e-05
0.000150876
2.02869e-05
0.000138628
3.21248e-05
0.000120867
4.75383e-05
9.72655e-05
6.72364e-05
6.75276e-05
9.20693e-05
3.1531e-05
0.000123053
-1.0365e-05
0.000161317
-5.65271e-05
0.000207707
-0.000102402
-0.000139348
0.000262009
-2.79617e-07
1.84338e-05
-9.10806e-07
5.03827e-05
-1.68584e-06
7.85808e-05
-2.37845e-06
0.000102741
-2.74545e-06
0.000122639
-2.52604e-06
0.000138094
-1.4392e-06
0.000148947
8.20859e-07
0.000155044
4.59065e-06
0.000156215
1.02449e-05
0.000152256
1.82057e-05
0.000142915
2.89532e-05
0.000127881
4.30392e-05
0.000106781
6.11052e-05
7.91996e-05
8.39068e-05
4.4726e-05
0.000112348
3.0901e-06
0.000147518
-4.55356e-05
0.000190686
-9.96944e-05
0.000242925
-0.000154641
-0.000200661
0.000304238
-2.5914e-07
1.8693e-05
-8.0967e-07
5.09332e-05
-1.42338e-06
7.91945e-05
-1.85315e-06
0.000103171
-1.83406e-06
0.00012262
-1.08208e-06
0.000137342
7.09428e-07
0.000147155
3.87492e-06
0.000151879
8.78342e-06
0.000151307
1.58465e-05
0.000145193
2.55274e-05
0.000133234
3.83516e-05
0.000115057
5.49189e-05
9.02139e-05
7.59193e-05
5.81992e-05
0.000102156
1.84896e-05
0.000134578
-2.93319e-05
0.000174332
-8.52898e-05
0.000222791
-0.000148154
0.000281266
-0.000213117
-0.000269358
0.000349963
-2.38533e-07
1.89315e-05
-7.0565e-07
5.14003e-05
-1.15043e-06
7.96393e-05
-1.30258e-06
0.000103323
-8.72962e-07
0.00012219
4.48602e-07
0.00013602
2.99765e-06
0.000144606
7.14129e-06
0.000147735
1.32857e-05
0.000145163
2.18845e-05
0.000136595
3.34485e-05
0.00012167
4.85548e-05
9.99503e-05
6.78579e-05
7.09108e-05
9.21015e-05
3.39555e-05
0.000122137
-1.15458e-05
0.000158953
-6.61474e-05
0.000203728
-0.000130066
0.000257897
-0.000202323
0.000322996
-0.000278216
-0.000345708
0.000399346
-2.17513e-07
1.9149e-05
-5.97577e-07
5.17804e-05
-8.6426e-07
7.9906e-05
-7.21738e-07
0.000103181
1.46036e-07
0.000121322
2.07833e-06
0.000134088
5.44319e-06
0.000141241
1.06445e-05
0.000142534
1.81304e-05
0.000137677
2.84026e-05
0.000126322
4.20253e-05
0.000108048
5.96348e-05
8.23408e-05
8.19469e-05
4.85987e-05
0.000109765
6.13696e-06
0.000143992
-4.57725e-05
0.000185647
-0.000107803
0.00023592
-0.000180338
0.000296241
-0.000262644
0.00036835
-0.000350326
-0.00042983
0.000452472
-1.95749e-07
1.93448e-05
-4.84102e-07
5.20687e-05
-5.61785e-07
7.99836e-05
-1.04962e-07
0.000102724
1.23197e-06
0.000119986
3.82065e-06
0.000131499
8.0652e-06
0.000136997
1.44106e-05
0.000136188
2.33522e-05
0.000128735
3.54451e-05
0.000114229
5.13141e-05
9.21787e-05
7.1661e-05
6.19938e-05
9.72707e-05
2.2989e-05
0.000129013
-2.56053e-05
0.000167843
-8.46027e-05
0.000214808
-0.000154768
0.00027108
-0.000236609
0.000338015
-0.00032958
0.000417516
-0.000429826
-0.00052163
0.000509316
-1.72852e-07
1.95176e-05
-3.63684e-07
5.22596e-05
-2.39514e-07
7.98595e-05
5.53985e-07
0.00010193
2.39488e-06
0.000118145
5.69029e-06
0.000128204
1.08843e-05
0.000131803
1.84674e-05
0.000128605
2.8987e-05
0.000118215
4.30576e-05
0.000100159
6.13704e-05
7.38659e-05
8.46998e-05
3.86644e-05
0.000113906
-6.2171e-06
0.00014993
-6.16298e-05
0.000193786
-0.000128458
0.000246542
-0.000207524
0.00030933
-0.000299398
0.000383357
-0.000403606
0.000470621
-0.00051709
-0.000620736
0.000569727
-1.4838e-07
1.9666e-05
-2.34589e-07
5.23458e-05
1.0645e-07
7.95184e-05
1.26208e-06
0.000100775
3.64569e-06
0.000115761
7.70323e-06
0.000124146
1.39225e-05
0.000125584
2.2844e-05
0.000119684
3.50719e-05
0.000105987
5.12857e-05
8.39451e-05
7.22485e-05
5.29031e-05
9.88127e-05
1.21002e-05
0.000131919
-3.93233e-05
0.000172585
-0.000102296
0.000221884
-0.000177756
0.000280905
-0.000266545
0.000350724
-0.000369216
0.000432327
-0.00048521
0.000527719
-0.000612482
-0.000726438
0.000633421
-1.21831e-07
1.97878e-05
-9.48657e-08
5.23188e-05
4.80348e-07
7.89432e-05
2.02688e-06
9.92281e-05
4.99625e-06
0.000112792
9.87659e-06
0.000119266
1.72033e-05
0.000118257
2.75709e-05
0.000109316
4.16454e-05
9.1913e-05
6.01754e-05
6.5415e-05
8.40007e-05
2.90778e-05
0.000114056
-1.79546e-05
0.000151364
-7.66316e-05
0.000197022
-0.000147954
0.000252163
-0.000232898
0.000317898
-0.000332279
0.000395232
-0.000446551
0.000484899
-0.000574877
0.000588738
-0.000716321
-0.000837756
0.000700055
-9.26517e-08
1.98805e-05
5.75748e-08
5.21686e-05
8.86885e-07
7.81139e-05
2.85658e-06
9.72584e-05
6.45927e-06
0.000109189
1.22286e-05
0.000113496
2.07512e-05
0.000109734
3.26798e-05
9.73876e-05
4.87462e-05
7.58466e-05
6.97719e-05
4.43892e-05
9.66763e-05
2.1735e-06
0.000130477
-5.17549e-05
0.00017228
-0.000118435
0.000223258
-0.000198933
0.000284606
-0.000294245
0.000357455
-0.000405128
0.000442753
-0.000531849
0.000540989
-0.000673113
0.000653405
-0.000828736
-0.000953825
0.000769475
-6.0236e-08
1.99407e-05
2.24966e-07
5.18834e-05
1.33105e-06
7.70078e-05
3.75992e-06
9.48295e-05
8.04822e-06
0.000104901
1.47783e-05
0.000106766
2.45918e-05
9.99208e-05
3.82032e-05
8.37762e-05
5.64133e-05
5.76366e-05
8.01192e-05
2.06833e-05
0.00011032
-2.80275e-05
0.000148115
-8.95496e-05
0.000194688
-0.000165008
0.000251279
-0.000255524
0.000319135
-0.000362101
0.000399422
-0.000485415
0.0004931
-0.000625527
0.000600598
-0.00078061
0.000721599
-0.000949738
-0.00107431
0.000842079
-2.39158e-08
1.99646e-05
4.09898e-07
5.14496e-05
1.8182e-06
7.55995e-05
4.74613e-06
9.19016e-05
9.7772e-06
9.98696e-05
1.75457e-05
9.89978e-05
2.87514e-05
8.87152e-05
4.41738e-05
6.83538e-05
6.4685e-05
3.71254e-05
9.12585e-05
-5.89018e-06
0.000124972
-6.17406e-05
0.000166998
-0.000131576
0.000218588
-0.000216597
0.000281031
-0.000317968
0.000355606
-0.000436676
0.000443508
-0.000573317
0.000545812
-0.000727831
0.00066344
-0.000898239
0.000795086
-0.00108138
-0.00119862
0.0009194
1.69231e-08
1.99477e-05
6.14691e-07
5.08518e-05
2.3536e-06
7.38606e-05
5.82448e-06
8.84307e-05
1.16604e-05
9.40336e-05
2.05507e-05
9.01075e-05
3.32561e-05
7.60097e-05
5.06236e-05
5.09863e-05
7.35978e-05
1.41512e-05
0.000103227
-3.55197e-05
0.000140662
-9.91755e-05
0.00018714
-0.000178054
0.000243957
-0.000273415
0.000312423
-0.000386434
0.000393804
-0.000518057
0.000489268
-0.000668781
0.000599911
-0.000838474
0.000727103
-0.00102543
0.000873719
-0.001228
-0.00140104
0.00107614
6.31815e-08
1.98845e-05
8.42435e-07
5.00726e-05
2.94353e-06
7.17595e-05
7.00534e-06
8.43689e-05
1.37132e-05
8.73257e-05
2.38141e-05
8.00066e-05
3.81323e-05
6.16915e-05
5.75838e-05
3.15349e-05
8.31854e-05
-1.14504e-05
0.000116057
-6.83914e-05
0.000157413
-0.000140532
0.000208539
-0.000229179
0.000270748
-0.000335624
0.000345327
-0.000461013
0.000433464
-0.000606194
0.000536192
-0.000771509
0.000654408
-0.00095669
0.000789417
-0.00116044
0.000942502
-0.00138108
-0.00158887
0.00113034
1.15533e-07
1.9769e-05
1.09564e-06
4.90924e-05
3.5935e-06
6.92617e-05
8.29819e-06
7.96642e-05
1.59498e-05
7.96741e-05
2.73552e-05
6.86012e-05
4.34044e-05
4.56424e-05
6.50825e-05
9.85675e-06
9.34766e-05
-3.98445e-05
0.000129772
-0.000104687
0.000175234
-0.000185993
0.000231173
-0.000285118
0.000298887
-0.000403338
0.000379587
-0.000541713
0.000474307
-0.000700914
0.000583825
-0.000881027
0.000708614
-0.00108148
0.000849276
-0.0013011
0.00100536
-0.00153717
-0.00176858
0.00118507
1.74731e-07
1.95943e-05
1.37705e-06
4.78901e-05
4.30923e-06
6.63295e-05
9.71266e-06
7.42608e-05
1.83843e-05
7.10025e-05
3.1193e-05
5.57925e-05
4.90951e-05
2.77402e-05
7.31446e-05
-1.41927e-05
0.000104494
-7.11944e-05
0.000144385
-0.000144578
0.000194118
-0.000235726
0.000255
-0.000346
0.000328273
-0.000476612
0.000415015
-0.000628456
0.000516029
-0.000801928
0.000631737
-0.000996734
0.000762067
-0.00121181
0.000906749
-0.00144578
0.0010642
-0.00169462
-0.00194199
0.00123761
2.41528e-07
1.93527e-05
1.68933e-06
4.64423e-05
5.09632e-06
6.29225e-05
1.1258e-05
6.80992e-05
2.10299e-05
6.12306e-05
3.53444e-05
4.14779e-05
5.52243e-05
7.86028e-06
8.17899e-05
-4.07582e-05
0.000116254
-0.000105658
0.000159899
-0.000188224
0.00021404
-0.000289867
0.000279951
-0.00041191
0.00035877
-0.000555431
0.000451384
-0.00072107
0.000558292
-0.000908835
0.000679483
-0.00111793
0.000814289
-0.00134662
0.000961573
-0.00159307
0.00111892
-0.00185197
-0.00210977
0.0012867
3.16656e-07
1.90361e-05
2.03507e-06
4.47239e-05
5.96004e-06
5.89975e-05
1.29427e-05
6.11165e-05
2.38987e-05
5.02746e-05
3.98245e-05
2.55522e-05
6.18082e-05
-1.41235e-05
9.1032e-05
-6.99821e-05
0.000128759
-0.000143385
0.0001763
-0.000235764
0.000234955
-0.000348522
0.000305928
-0.000482883
0.000390207
-0.00063971
0.000488426
-0.000819289
0.000600717
-0.00102113
0.000726581
-0.00124379
0.000864743
-0.00148478
0.00101327
-0.0017416
0.00116914
-0.00200784
-0.00227187
0.00133124
4.0081e-07
1.86353e-05
2.41666e-06
4.27081e-05
6.90529e-06
5.45089e-05
1.47746e-05
5.32472e-05
2.70013e-05
3.80479e-05
4.46453e-05
7.90814e-06
6.88581e-05
-3.83362e-05
0.000100877
-0.000102001
0.000142004
-0.000184512
0.000193557
-0.000287317
0.000256793
-0.000411758
0.000332803
-0.000558894
0.000422373
-0.00072928
0.000525829
-0.000922745
0.000642882
-0.00113818
0.00077251
-0.00137342
0.000912857
-0.00162512
0.00106131
-0.00189005
0.00121443
-0.00216096
-0.0024278
0.00137036
4.94636e-07
1.81406e-05
2.83632e-06
4.03664e-05
7.93641e-06
4.94088e-05
1.67603e-05
4.44233e-05
3.0346e-05
2.44622e-05
4.98158e-05
-1.15617e-05
7.638e-05
-6.49003e-05
0.000111323
-0.000136944
0.00015597
-0.000229158
0.00021162
-0.000342968
0.000279457
-0.000479595
0.000360412
-0.000639849
0.000455018
-0.000823886
0.00056324
-0.00103097
0.000684327
-0.00125927
0.000816728
-0.00150582
0.000958049
-0.00176644
0.00110514
-0.00203714
0.00125433
-0.00231015
-0.0025769
0.00140343
5.9872e-07
1.75419e-05
3.29599e-06
3.76691e-05
9.05714e-06
4.36476e-05
1.89054e-05
3.4575e-05
3.39392e-05
9.42842e-06
5.53409e-05
-3.29634e-05
8.43734e-05
-9.39329e-05
0.000122357
-0.000174928
0.000170621
-0.000277423
0.000230421
-0.000402768
0.000302824
-0.000551998
0.000388561
-0.000725585
0.000487857
-0.000923182
0.000600271
-0.00114338
0.000724572
-0.00138357
0.000858689
-0.00163993
0.000999761
-0.00190752
0.00114426
-0.00218163
0.00128845
-0.00245434
-0.00271854
0.00143008
7.13574e-07
1.68283e-05
3.79734e-06
3.45853e-05
1.02705e-05
3.71745e-05
2.12137e-05
2.36318e-05
3.77845e-05
-7.14235e-06
6.12211e-05
-5.64e-05
9.28313e-05
-0.000125543
0.000133957
-0.000216054
0.00018591
-0.000329375
0.000249869
-0.000466727
0.000326747
-0.000628875
0.000417022
-0.000815861
0.000520571
-0.00102673
0.000636513
-0.00125932
0.000763126
-0.00151018
0.000897862
-0.00177467
0.00103749
-0.00204714
0.00117825
-0.0023224
0.00131653
-0.00259261
-0.00285217
0.00145016
8.39637e-07
1.59887e-05
4.34169e-06
3.10833e-05
1.15787e-05
2.99375e-05
2.36877e-05
1.15228e-05
4.18826e-05
-2.53373e-05
6.74522e-05
-8.19696e-05
0.000101739
-0.00015983
0.000146089
-0.000260405
0.000201771
-0.000385057
0.000269853
-0.000534809
0.00035105
-0.000710072
0.000445544
-0.000910355
0.00055282
-0.00113401
0.00067154
-0.00137804
0.000799508
-0.00163815
0.000933759
-0.00190892
0.0010708
-0.00218418
0.00120682
-0.00245842
0.00133843
-0.00272422
-0.00297744
0.00146369
9.77263e-07
1.50114e-05
4.93001e-06
2.71305e-05
1.2983e-05
2.18845e-05
2.63279e-05
-1.82207e-06
4.62313e-05
-4.52407e-05
7.4025e-05
-0.000109763
0.000111073
-0.000196878
0.000158707
-0.000308039
0.000218123
-0.000444474
0.000290241
-0.000606928
0.000375535
-0.000795365
0.000473849
-0.00100867
0.000584248
-0.00124441
0.000704931
-0.00149873
0.000833265
-0.00176648
0.000965954
-0.00204161
0.00109936
-0.00231759
0.00122977
-0.00258883
0.00135415
-0.0028486
-0.00309417
0.00147088
1.12672e-06
1.38847e-05
5.56291e-06
2.26943e-05
1.44839e-05
1.29636e-05
2.91332e-05
-1.64714e-05
5.08249e-05
-6.69324e-05
8.09248e-05
-0.000139863
0.000120804
-0.000236756
0.000171754
-0.000358989
0.00023487
-0.000507589
0.000310884
-0.000682941
0.000399986
-0.000884467
0.000501647
-0.00111033
0.000614494
-0.00135725
0.000736279
-0.00162051
0.000863988
-0.00189419
0.000994095
-0.00217172
0.00112295
-0.00244644
0.00124706
-0.00271294
0.00136383
-0.00296537
-0.00320237
0.00147203
1.2882e-06
1.25965e-05
6.24061e-06
1.77419e-05
1.60808e-05
3.12337e-06
3.21004e-05
-3.2491e-05
5.56546e-05
-9.04867e-05
8.81318e-05
-0.00017234
0.000130891
-0.000279516
0.000185163
-0.000413261
0.000251901
-0.000574328
0.000331614
-0.000762654
0.000424169
-0.000977022
0.000528636
-0.0012148
0.000643202
-0.00147182
0.000765205
-0.00174251
0.000891326
-0.00202031
0.00101792
-0.00229831
0.00114143
-0.00256996
0.00125873
-0.00283024
0.00136772
-0.00307436
-0.00330222
0.00146757
1.46179e-06
1.11347e-05
6.96295e-06
1.22408e-05
1.77722e-05
-7.68587e-06
3.52245e-05
-4.99433e-05
6.0708e-05
-0.00011597
9.56201e-05
-0.000207252
0.000141289
-0.000325185
0.000198852
-0.000470823
0.000269092
-0.000644568
0.00035225
-0.000845812
0.000447842
-0.00107261
0.000554517
-0.00132147
0.000670035
-0.00158734
0.000791373
-0.00186385
0.000914999
-0.00214394
0.00103726
-0.00242057
0.00115482
-0.00268752
0.00126497
-0.00294039
0.00136616
-0.00317555
-0.00339403
0.00145797
1.6475e-06
9.48724e-06
7.72936e-06
6.1589e-06
1.95555e-05
-1.9512e-05
3.84983e-05
-6.88861e-05
6.59689e-05
-0.000143441
0.000103359
-0.000244642
0.000151942
-0.000373768
0.000212733
-0.000531614
0.000286306
-0.000718142
0.000372603
-0.000932109
0.000470757
-0.00117077
0.000578997
-0.00142971
0.000694683
-0.00170302
0.000814501
-0.00198367
0.000934801
-0.00226424
0.00105203
-0.00253781
0.00116319
-0.00279867
0.00126603
-0.00304324
0.00135955
-0.00326907
-0.00347822
0.00144375
1.84525e-06
7.64199e-06
8.53884e-06
-5.34691e-07
2.14271e-05
-3.24003e-05
4.19127e-05
-8.93717e-05
7.14181e-05
-0.000172946
0.000111311
-0.000284535
0.000162787
-0.000425244
0.000226705
-0.000595533
0.000303398
-0.000794835
0.000392474
-0.00102118
0.000492668
-0.00127096
0.000601798
-0.00153884
0.000716872
-0.0018181
0.000834362
-0.00210116
0.000950607
-0.00238048
0.00106226
-0.00264946
0.00116671
-0.00290311
0.00126224
-0.00313877
0.00134835
-0.00335517
-0.00355528
0.0014254
2.05486e-06
5.58714e-06
9.38998e-06
-7.86981e-06
2.33824e-05
-4.63928e-05
4.54563e-05
-0.000111446
7.70325e-05
-0.000204522
0.000119435
-0.000326938
0.000173754
-0.000479563
0.000240663
-0.000662441
0.000320216
-0.000874388
0.000411664
-0.00111263
0.000513338
-0.00137263
0.000622669
-0.00164817
0.000736372
-0.0019318
0.000850795
-0.00221558
0.000962368
-0.00249206
0.00106804
-0.00275513
0.00116563
-0.0030007
0.00125396
-0.0032271
0.001333
-0.00343421
-0.00362573
0.00140345
2.27604e-06
3.3111e-06
1.02809e-05
-1.58747e-05
2.54156e-05
-6.15275e-05
4.91159e-05
-0.000135146
8.27857e-05
-0.000238192
0.000127684
-0.000371837
0.000184768
-0.000536646
0.000254491
-0.000732165
0.000336602
-0.000956499
0.000429976
-0.00120601
0.000532544
-0.0014752
0.000641388
-0.00175702
0.000753002
-0.00204341
0.000863706
-0.00232629
0.000970108
-0.00259846
0.00106952
-0.00285455
0.00116025
-0.00309143
0.00124161
-0.00330846
0.00131399
-0.00350659
-0.00369012
0.00137837
2.50842e-06
8.02676e-07
1.12093e-05
-2.45756e-05
2.75198e-05
-7.7838e-05
5.28758e-05
-0.000160502
8.86478e-05
-0.000273964
0.000136007
-0.000419196
0.000195747
-0.000596386
0.000268073
-0.00080449
0.0003524
-0.00104083
0.000447219
-0.00130082