/*--------------------------------*- C++ -*----------------------------------*\
  =========                 |
  \\      /  F ield         | OpenFOAM: The Open Source CFD Toolbox
   \\    /   O peration     | Website:  https://openfoam.org
    \\  /    A nd           | Version:  7
     \\/     M anipulation  |
\*---------------------------------------------------------------------------*/
FoamFile
{
    version     2.0;
    format      ascii;
    class       surfaceScalarField;
    location    "10";
    object      phi;
}
// * * * * * * * * * * * * * * * * * * * * * * * * * * * * * * * * * * * * * //

dimensions      [0 3 -1 0 0 0 0];

internalField   nonuniform List<scalar> 
16730
(
-0.00362122
-0.000538686
-0.000519631
-0.00346944
-0.00357221
-0.000568637
-0.000498155
-0.00332687
-0.000547502
-0.00342009
-0.00352165
-0.000598068
-0.000475303
-0.00319386
-0.000524088
-0.00327808
-0.000574873
-0.00336931
-0.00346955
-0.00062697
-0.000499526
-0.0031456
-0.000549581
-0.00322803
-0.000601761
-0.00331713
-0.00341596
-0.000655355
-0.00047385
-0.00302065
-0.000523363
-0.00309609
-0.000574662
-0.00317673
-0.000628207
-0.00326358
-0.00336086
-0.000683303
-0.000446755
-0.00290188
-0.000496051
-0.00297136
-0.000546829
-0.00304531
-0.00059937
-0.00312419
-0.000654276
-0.00320868
-0.00330422
-0.00071092
-0.000467278
-0.00285268
-0.000517872
-0.00292076
-0.000569944
-0.00299324
-0.000623766
-0.00307037
-0.000679996
-0.00315245
-0.00324599
-0.000738223
-0.000436934
-0.0027396
-0.0004874
-0.00280222
-0.0005393
-0.00286886
-0.000592728
-0.00293981
-0.000647951
-0.00301514
-0.000705406
-0.00309499
-0.00318587
-0.000765528
-0.000455381
-0.00268928
-0.000507098
-0.0027505
-0.0005603
-0.00281566
-0.000615139
-0.00288497
-0.000671964
-0.00295832
-0.000731389
-0.00303557
-0.0031255
-0.000791753
-0.000421893
-0.00258161
-0.000473406
-0.00263777
-0.000526342
-0.00269756
-0.000580811
-0.00276119
-0.000637028
-0.00282876
-0.000695207
-0.00290014
-0.000754753
-0.00297602
-0.00305821
-0.000822048
-0.000387014
-0.00247874
-0.000438334
-0.00253029
-0.000491012
-0.00258509
-0.000545128
-0.00264345
-0.000600803
-0.00270552
-0.000658218
-0.00277134
-0.000717476
-0.00284088
-0.000778764
-0.00291473
-0.00299246
-0.000844511
-0.000401931
-0.00242761
-0.000454376
-0.00247784
-0.000508188
-0.00253128
-0.00056345
-0.00258819
-0.000620277
-0.00264869
-0.000678817
-0.0027128
-0.00073917
-0.00278053
-0.000801662
-0.00285224
-0.00292694
-0.000867181
-0.000364248
-0.00232899
-0.000416474
-0.00237539
-0.000470016
-0.0024243
-0.000524932
-0.00247636
-0.000581305
-0.00253181
-0.000639244
-0.00259075
-0.00069887
-0.00265318
-0.000760291
-0.00271911
-0.000823775
-0.00278876
-0.00286109
-0.000889626
-0.000377344
-0.002277
-0.000430639
-0.00232209
-0.000485252
-0.00236969
-0.000541243
-0.00242037
-0.000598694
-0.00247436
-0.000657709
-0.00253174
-0.000718391
-0.0025925
-0.000780845
-0.00265665
-0.000845259
-0.00272434
-0.00279462
-0.000911728
-0.000337056
-0.00218134
-0.000390089
-0.00222397
-0.000444426
-0.00226776
-0.000500082
-0.00231403
-0.000557118
-0.00236333
-0.000615619
-0.00241586
-0.000675677
-0.00247168
-0.000737389
-0.00253078
-0.000800848
-0.0025932
-0.000866184
-0.00265901
-0.00272738
-0.000933421
-0.000348428
-0.00212865
-0.000402482
-0.00216992
-0.000457833
-0.0022124
-0.000514505
-0.00225736
-0.000572559
-0.00230528
-0.000632079
-0.00235634
-0.000693153
-0.0024106
-0.000755869
-0.00246807
-0.000820312
-0.00252875
-0.000886577
-0.00259274
-0.00265929
-0.000954669
-0.000359474
-0.00207495
-0.000414521
-0.00211487
-0.00047086
-0.00215606
-0.00052852
-0.0021997
-0.000587565
-0.00224623
-0.000648076
-0.00229583
-0.00071014
-0.00234854
-0.000773837
-0.00240437
-0.000839247
-0.00246334
-0.000906445
-0.00252554
-0.00259029
-0.000975442
-0.000315511
-0.00198054
-0.000370193
-0.00202027
-0.000426206
-0.00205886
-0.000483506
-0.00209876
-0.000542127
-0.00214108
-0.000602136
-0.00218623
-0.000663612
-0.00223435
-0.00072664
-0.00228551
-0.000791297
-0.00233971
-0.000857658
-0.00239698
-0.00092579
-0.00245741
-0.00252037
-0.000995715
-0.000324951
-0.00192639
-0.000380585
-0.00196464
-0.000437536
-0.00200191
-0.00049577
-0.00204053
-0.000555326
-0.00208152
-0.000616272
-0.00212528
-0.000678687
-0.00217194
-0.000742654
-0.00222155
-0.000808251
-0.00227412
-0.000875546
-0.00232969
-0.000944609
-0.00238835
-0.00244951
-0.00101547
-0.000278993
-0.00182922
-0.000334092
-0.00187129
-0.000390649
-0.00190808
-0.00044851
-0.00194404
-0.000507652
-0.00198139
-0.000568116
-0.00202106
-0.000629973
-0.00206342
-0.000693302
-0.00210861
-0.000758184
-0.00215666
-0.000824698
-0.0022076
-0.000892912
-0.00226147
-0.000962897
-0.00231836
-0.00237771
-0.00103469
-0.000286915
-0.00177499
-0.000342934
-0.00181527
-0.000400384
-0.00185063
-0.000459129
-0.0018853
-0.000519151
-0.00192136
-0.000580496
-0.00195971
-0.000643237
-0.00200068
-0.000707454
-0.00204439
-0.000773229
-0.00209089
-0.000840638
-0.00214019
-0.000909753
-0.00219236
-0.000980648
-0.00224747
-0.00230499
-0.00105337
-0.000294569
-0.00171982
-0.000351475
-0.00175836
-0.000409791
-0.00179231
-0.000469391
-0.0018257
-0.000530266
-0.00186049
-0.000592466
-0.00189751
-0.000656065
-0.00193708
-0.000721145
-0.00197931
-0.000787787
-0.00202425
-0.00085607
-0.00207191
-0.000926067
-0.00212236
-0.000997854
-0.00217568
-0.00223136
-0.00107149
-0.000245889
-0.00161568
-0.000301953
-0.00166376
-0.000359717
-0.0017006
-0.000418869
-0.00173316
-0.000479296
-0.00176527
-0.000540997
-0.00179879
-0.000604025
-0.00183448
-0.000668456
-0.00187265
-0.000734372
-0.0019134
-0.000801857
-0.00195676
-0.000870991
-0.00200278
-0.000941848
-0.0020515
-0.00101451
-0.00210302
-0.00215683
-0.00108904
-0.000252141
-0.00156101
-0.000309068
-0.00160683
-0.000367658
-0.00164201
-0.000427617
-0.0016732
-0.000488843
-0.00170405
-0.000551342
-0.00173629
-0.000615171
-0.00177066
-0.000680408
-0.00180742
-0.000747135
-0.00184667
-0.000815438
-0.00188846
-0.000885397
-0.00193282
-0.000957092
-0.00197981
-0.00103061
-0.0020295
-0.00208144
-0.00110601
-0.000258155
-0.00150546
-0.000315912
-0.00154907
-0.000375299
-0.00158262
-0.000436035
-0.00161246
-0.000498033
-0.00164205
-0.000561302
-0.00167302
-0.000625905
-0.00170605
-0.000691919
-0.0017414
-0.000759431
-0.00177916
-0.000828526
-0.00181936
-0.000899287
-0.00186205
-0.000971796
-0.0019073
-0.00104614
-0.00195516
-0.00200519
-0.00112239
-0.000207535
-0.00138831
-0.000263933
-0.00144906
-0.000322487
-0.00149052
-0.000382638
-0.00152247
-0.000444123
-0.00155098
-0.000506863
-0.00157931
-0.000570875
-0.00160901
-0.000636224
-0.0016407
-0.000702989
-0.00167464
-0.000771258
-0.00171089
-0.000841119
-0.0017495
-0.000912656
-0.00179052
-0.000985954
-0.001834
-0.0010611
-0.00188001
-0.00192811
-0.00113818
-0.000212264
-0.00133417
-0.000269473
-0.00139185
-0.00032879
-0.0014312
-0.000389675
-0.00146159
-0.00045188
-0.00148877
-0.000515334
-0.00151586
-0.00058006
-0.00154428
-0.000646127
-0.00157464
-0.000713616
-0.00160715
-0.000782615
-0.00164189
-0.000853214
-0.00167891
-0.000925501
-0.00171823
-0.000999562
-0.00175994
-0.00107549
-0.00180408
-0.00185024
-0.00115336
-0.000216792
-0.00127919
-0.000274775
-0.00133387
-0.000334823
-0.00137115
-0.000396411
-0.0014
-0.000459305
-0.00142588
-0.000523444
-0.00145172
-0.000588857
-0.00147887
-0.000655613
-0.00150788
-0.000723797
-0.00153896
-0.000793499
-0.00157219
-0.000864809
-0.00160759
-0.000937818
-0.00164522
-0.00101261
-0.00168514
-0.0010893
-0.0017274
-0.0017716
-0.00116794
-0.000221117
-0.00122342
-0.000279839
-0.00127515
-0.000340584
-0.00131041
-0.000402844
-0.00133774
-0.000466398
-0.00136233
-0.000531193
-0.00138692
-0.000597264
-0.0014128
-0.000664681
-0.00144047
-0.000733532
-0.00147011
-0.000803908
-0.00150181
-0.000875901
-0.0015356
-0.000949603
-0.00157152
-0.00102511
-0.00160964
-0.00110251
-0.00164999
-0.00169221
-0.0011819
-0.00016871
-0.00109077
-0.000225239
-0.00116689
-0.000284665
-0.00121572
-0.000346074
-0.001249
-0.000408975
-0.00127484
-0.000473159
-0.00129814
-0.000538581
-0.0013215
-0.000605279
-0.0013461
-0.000673329
-0.00137242
-0.000742818
-0.00140062
-0.000813839
-0.00143079
-0.000886486
-0.00146295
-0.000960854
-0.00149715
-0.00103704
-0.00153346
-0.00111513
-0.0015719
-0.00161212
-0.00119523
-0.000171912
-0.00103783
-0.000229158
-0.00110964
-0.000289251
-0.00115563
-0.000351292
-0.00118696
-0.000414803
-0.00121133
-0.000479586
-0.00123336
-0.000545606
-0.00125548
-0.000612903
-0.0012788
-0.000681556
-0.00130376
-0.000751653
-0.00133052
-0.00082329
-0.00135915
-0.000896562
-0.00138968
-0.000971565
-0.00142215
-0.0010484
-0.00145663
-0.00112716
-0.00149313
-0.00153134
-0.00120793
-0.000174949
-0.00098416
-0.000232873
-0.00105172
-0.000293599
-0.0010949
-0.000356237
-0.00112432
-0.000420327
-0.00114724
-0.00048568
-0.00116801
-0.000552267
-0.00118889
-0.000620133
-0.00121094
-0.000689359
-0.00123454
-0.000760036
-0.00125985
-0.00083226
-0.00128693
-0.000906126
-0.00131582
-0.000981734
-0.00134654
-0.00105918
-0.00137918
-0.00113858
-0.00141374
-0.00144992
-0.00122
-0.00017782
-0.000929807
-0.000236385
-0.000993153
-0.000297706
-0.00103358
-0.00036091
-0.00106112
-0.000425547
-0.0010826
-0.000491439
-0.00110211
-0.000558563
-0.00112177
-0.000626969
-0.00114253
-0.000696739
-0.00116477
-0.000767965
-0.00118862
-0.000840744
-0.00121415
-0.000915176
-0.00124138
-0.000991358
-0.00127036
-0.00106939
-0.00130114
-0.00114939
-0.00133374
-0.00136788
-0.00123143
-0.000180525
-0.000874808
-0.000239691
-0.000933987
-0.000301574
-0.0009717
-0.000365311
-0.000997382
-0.000430463
-0.00101745
-0.000496863
-0.00103571
-0.000564495
-0.00105414
-0.00063341
-0.00107361
-0.000703693
-0.00109448
-0.000775438
-0.00111688
-0.000848742
-0.00114084
-0.000923707
-0.00116642
-0.00100043
-0.00119363
-0.00107902
-0.00122255
-0.00115959
-0.00125318
-0.00128525
-0.00124221
-0.000127461
-0.00073275
-0.000183063
-0.000819206
-0.000242793
-0.000874257
-0.000305202
-0.00090929
-0.000369437
-0.000933146
-0.000435074
-0.000951813
-0.000501952
-0.000968834
-0.00057006
-0.000986031
-0.000639454
-0.00100422
-0.00071022
-0.00102372
-0.000782452
-0.00104464
-0.000856252
-0.00106705
-0.000931719
-0.00109095
-0.00100896
-0.0011164
-0.00108807
-0.00114344
-0.00116917
-0.00117208
-0.00120208
-0.00125234
-0.000129268
-0.000682857
-0.000185434
-0.00076304
-0.000245689
-0.000814002
-0.000308589
-0.000846391
-0.000373291
-0.000868444
-0.00043938
-0.000885725
-0.000506704
-0.000901509
-0.000575258
-0.000917478
-0.000645101
-0.000934378
-0.000716318
-0.000952501
-0.000789008
-0.000971955
-0.00086327
-0.000992783
-0.000939207
-0.00101502
-0.00101692
-0.00103868
-0.00109653
-0.00106384
-0.00117813
-0.00109049
-0.00111839
-0.00126181
-0.000130948
-0.00063242
-0.000187637
-0.000706351
-0.00024838
-0.000753259
-0.000311736
-0.000783035
-0.000376871
-0.000803309
-0.00044338
-0.000819216
-0.00051112
-0.000833769
-0.000580089
-0.000848509
-0.000650348
-0.000864118
-0.000721987
-0.000880863
-0.000795102
-0.00089884
-0.000869795
-0.00091809
-0.000946171
-0.000938639
-0.00102433
-0.000960517
-0.00110439
-0.000983776
-0.00118646
-0.00100842
-0.00103423
-0.00127063
-0.000132501
-0.000581482
-0.000189672
-0.00064918
-0.000250865
-0.000692066
-0.000314641
-0.000719259
-0.000380176
-0.000737775
-0.000447074
-0.000752318
-0.000515199
-0.000765644
-0.000584551
-0.000779156
-0.000655197
-0.000793473
-0.000727224
-0.000808835
-0.000800733
-0.000825331
-0.000875826
-0.000842996
-0.000952608
-0.000861857
-0.00103119
-0.00088194
-0.00111167
-0.000903294
-0.00119417
-0.000925919
-0.000949618
-0.00127878
-0.000133927
-0.000530083
-0.000191539
-0.000591567
-0.000253144
-0.000630461
-0.000317306
-0.000655098
-0.000383207
-0.000671873
-0.000450462
-0.000685063
-0.000518939
-0.000697167
-0.000588644
-0.000709451
-0.000659644
-0.000722473
-0.00073203
-0.00073645
-0.000805901
-0.00075146
-0.000881361
-0.000767536
-0.000958516
-0.000784702
-0.00103747
-0.000802983
-0.00111834
-0.000822423
-0.00120124
-0.000843021
-0.000864599
-0.00128626
-0.000135223
-0.000478266
-0.000193237
-0.000533553
-0.000255217
-0.000568481
-0.000319729
-0.000590586
-0.000385964
-0.000605638
-0.000453543
-0.000617484
-0.000522341
-0.000628368
-0.000592368
-0.000639424
-0.00066369
-0.00065115
-0.000736402
-0.000663739
-0.000810603
-0.000677259
-0.000886398
-0.000691741
-0.000963893
-0.000707207
-0.0010432
-0.000723679
-0.00112442
-0.000741197
-0.00120768
-0.00075976
-0.000779208
-0.00129307
-0.000136391
-0.000426073
-0.000194766
-0.000475178
-0.000257083
-0.000506164
-0.00032191
-0.00052576
-0.000388446
-0.000539102
-0.000456317
-0.000549613
-0.000525405
-0.000559281
-0.000595721
-0.000569109
-0.000667334
-0.000579537
-0.00074034
-0.000590733
-0.000814838
-0.00060276
-0.000890935
-0.000615645
-0.000968737
-0.000629405
-0.00104835
-0.000644062
-0.0011299
-0.000659652
-0.00121349
-0.000676172
-0.00069348
-0.00129922
-0.000137431
-0.000373546
-0.000196126
-0.000416482
-0.000258742
-0.000443548
-0.000323849
-0.000460653
-0.000390652
-0.000472299
-0.000458784
-0.000481481
-0.000528129
-0.000489935
-0.000598702
-0.000498535
-0.000670575
-0.000507663
-0.000743843
-0.000517466
-0.000818606
-0.000527997
-0.000894971
-0.00053928
-0.000973047
-0.00055133
-0.00105294
-0.000564166
-0.00113477
-0.000577822
-0.00121865
-0.000592291
-0.000607453
-0.00130468
-0.00013834
-0.000320726
-0.000197317
-0.000357506
-0.000260195
-0.00038067
-0.000325547
-0.000395301
-0.000392583
-0.000405263
-0.000460943
-0.000413122
-0.000530513
-0.000420364
-0.000601313
-0.000427736
-0.000673413
-0.000435563
-0.000746909
-0.00044397
-0.000821905
-0.000453001
-0.000898506
-0.000462679
-0.000976821
-0.000473015
-0.00105696
-0.000484027
-0.00113904
-0.000495741
-0.00122318
-0.000508155
-0.000521164
-0.00130947
-8.60497e-05
-0.000220819
-0.000139121
-0.000267655
-0.000198338
-0.000298289
-0.00026144
-0.000317568
-0.000327002
-0.000329738
-0.000394239
-0.000338025
-0.000462794
-0.000344567
-0.000532558
-0.0003506
-0.000603551
-0.000356744
-0.000675846
-0.000363268
-0.000749539
-0.000370276
-0.000824734
-0.000377807
-0.000901537
-0.000385875
-0.000980058
-0.000394494
-0.00106041
-0.000403677
-0.0011427
-0.000413446
-0.00122706
-0.000423799
-0.000434648
-0.00131357
-8.64913e-05
-0.000176897
-0.000139771
-0.000214375
-0.000199188
-0.000238872
-0.000262477
-0.000254279
-0.000328215
-0.000264001
-0.000395619
-0.000270621
-0.000464336
-0.00027585
-0.000534262
-0.000280674
-0.000605416
-0.000285589
-0.000677874
-0.00029081
-0.000751732
-0.000296419
-0.000827093
-0.000302445
-0.000904065
-0.000308903
-0.000982757
-0.000315802
-0.00106328
-0.000323152
-0.00114576
-0.000330973
-0.00123029
-0.00033926
-0.000347945
-0.001317
-8.68447e-05
-0.000132815
-0.000140292
-0.000160928
-0.000199869
-0.000179295
-0.000263308
-0.000190841
-0.000329185
-0.000198124
-0.000396723
-0.000203083
-0.000465571
-0.000207002
-0.000535626
-0.000210619
-0.000606909
-0.000214306
-0.000679498
-0.000218222
-0.000753487
-0.00022243
-0.000828981
-0.000226951
-0.000906088
-0.000231796
-0.000984918
-0.000236972
-0.00106558
-0.000242487
-0.0011482
-0.000248356
-0.00123289
-0.000254574
-0.000261091
-0.00131974
-8.71099e-05
-8.86108e-05
-0.000140682
-0.000107355
-0.00020038
-0.000119597
-0.000263931
-0.00012729
-0.000329913
-0.000132142
-0.000397551
-0.000135445
-0.000466497
-0.000138056
-0.000536649
-0.000140467
-0.000608029
-0.000142925
-0.000680715
-0.000145536
-0.000754803
-0.000148342
-0.000830397
-0.000151357
-0.000907606
-0.000154588
-0.000986539
-0.00015804
-0.00106731
-0.000161717
-0.00115003
-0.000165631
-0.00123483
-0.000169778
-0.000174124
-0.0013218
-8.72868e-05
-4.43262e-05
-0.000140943
-5.36993e-05
-0.00020072
-5.98193e-05
-0.000264346
-6.36645e-05
-0.000330398
-6.60891e-05
-0.000398103
-6.77402e-05
-0.000467114
-6.90453e-05
-0.000537331
-7.02507e-05
-0.000608776
-7.14795e-05
-0.000681527
-7.27853e-05
-0.000755681
-7.41883e-05
-0.000831342
-7.5696e-05
-0.000908618
-7.73118e-05
-0.00098762
-7.90379e-05
-0.00106846
-8.08771e-05
-0.00115126
-8.28342e-05
-0.00123613
-8.49083e-05
-8.7082e-05
-0.00132317
-8.73752e-05
-1.29434e-09
-0.000141073
-1.5255e-09
-0.000200891
-1.65582e-09
-0.000264553
-1.72044e-09
-0.000330641
-1.74693e-09
-0.000398379
-1.75442e-09
-0.000467423
-1.7543e-09
-0.000537672
-1.75226e-09
-0.00060915
-1.75065e-09
-0.000681933
-1.75005e-09
-0.00075612
-1.75044e-09
-0.000831814
-1.75158e-09
-0.000909124
-1.75328e-09
-0.00098816
-1.75533e-09
-0.00106904
-1.75764e-09
-0.00115187
-1.76018e-09
-0.00123677
-1.76286e-09
-1.76502e-09
-0.00132385
-8.73752e-05
4.43237e-05
-0.000141073
5.36963e-05
-0.000200891
5.9816e-05
-0.000264553
6.36611e-05
-0.000330641
6.60857e-05
-0.000398379
6.77367e-05
-0.000467423
6.90418e-05
-0.000537672
7.02472e-05
-0.00060915
7.1476e-05
-0.000681933
7.27818e-05
-0.00075612
7.41848e-05
-0.000831814
7.56925e-05
-0.000909124
7.73082e-05
-0.00098816
7.90344e-05
-0.00106904
8.08736e-05
-0.00115187
8.28307e-05
-0.00123677
8.49048e-05
8.70784e-05
-0.00132385
-8.72868e-05
8.86082e-05
-0.000140943
0.000107352
-0.00020072
0.000119594
-0.000264346
0.000127287
-0.000330398
0.000132138
-0.000398103
0.000135442
-0.000467114
0.000138053
-0.000537331
0.000140464
-0.000608776
0.000142921
-0.000681527
0.000145533
-0.000755681
0.000148338
-0.000831342
0.000151353
-0.000908618
0.000154584
-0.00098762
0.000158036
-0.00106846
0.000161714
-0.00115126
0.000165627
-0.00123613
0.000169775
0.000174121
-0.00132317
-8.71099e-05
0.000132812
-0.000140682
0.000160925
-0.00020038
0.000179291
-0.000263931
0.000190837
-0.000329913
0.00019812
-0.000397551
0.00020308
-0.000466497
0.000206998
-0.000536649
0.000210616
-0.000608029
0.000214302
-0.000680715
0.000218218
-0.000754803
0.000222426
-0.000830397
0.000226948
-0.000907606
0.000231793
-0.000986539
0.000236969
-0.00106731
0.000242484
-0.00115003
0.000248352
-0.00123483
0.000254571
0.000261088
-0.0013218
-8.68447e-05
0.000176895
-0.000140292
0.000214372
-0.000199869
0.000238869
-0.000263308
0.000254276
-0.000329185
0.000263998
-0.000396723
0.000270618
-0.000465571
0.000275846
-0.000535626
0.000280671
-0.000606909
0.000285586
-0.000679498
0.000290807
-0.000753487
0.000296415
-0.000828981
0.000302442
-0.000906088
0.0003089
-0.000984918
0.000315799
-0.00106558
0.000323149
-0.0011482
0.000330969
-0.00123289
0.000339257
0.000347942
-0.00131974
-8.64913e-05
0.000220816
-0.000139771
0.000267652
-0.000199188
0.000298286
-0.000262477
0.000317565
-0.000328215
0.000329735
-0.000395619
0.000338022
-0.000464336
0.000344564
-0.000534262
0.000350597
-0.000605416
0.00035674
-0.000677874
0.000363264
-0.000751732
0.000370273
-0.000827093
0.000377803
-0.000904065
0.000385872
-0.000982757
0.000394491
-0.00106328
0.000403673
-0.00114576
0.000413443
-0.00123029
0.000423796
0.000434645
-0.001317
-8.60497e-05
-0.000139121
0.000320723
-0.000198338
0.000357503
-0.00026144
0.000380667
-0.000327002
0.000395297
-0.000394239
0.000405259
-0.000462794
0.000413119
-0.000532558
0.000420361
-0.000603551
0.000427733
-0.000675846
0.00043556
-0.000749539
0.000443966
-0.000824734
0.000452998
-0.000901537
0.000462675
-0.000980058
0.000473012
-0.00106041
0.000484023
-0.0011427
0.000495738
-0.00122706
0.000508152
0.00052116
-0.00131357
-0.00013834
0.000373543
-0.000197317
0.000416479
-0.000260195
0.000443545
-0.000325547
0.000460649
-0.000392583
0.000472296
-0.000460943
0.000481478
-0.000530513
0.000489932
-0.000601312
0.000498532
-0.000673413
0.00050766
-0.000746909
0.000517463
-0.000821905
0.000527993
-0.000898506
0.000539276
-0.000976821
0.000551326
-0.00105696
0.000564163
-0.00113904
0.000577818
-0.00122318
0.000592288
0.00060745
-0.00130947
-0.000137431
0.00042607
-0.000196126
0.000475175
-0.000258742
0.000506161
-0.000323849
0.000525756
-0.000390652
0.000539098
-0.000458784
0.000549609
-0.000528129
0.000559277
-0.000598702
0.000569105
-0.000670575
0.000579533
-0.000743842
0.00059073
-0.000818606
0.000602757
-0.000894971
0.000615641
-0.000973046
0.000629402
-0.00105294
0.000644059
-0.00113477
0.000659648
-0.00121865
0.000676168
0.000693477
-0.00130468
-0.000136391
0.000478263
-0.000194766
0.00053355
-0.000257083
0.000568477
-0.00032191
0.000590583
-0.000388446
0.000605634
-0.000456317
0.000617481
-0.000525405
0.000628365
-0.00059572
0.000639421
-0.000667334
0.000651147
-0.00074034
0.000663735
-0.000814838
0.000677255
-0.000890935
0.000691738
-0.000968737
0.000707204
-0.00104835
0.000723675
-0.0011299
0.000741194
-0.00121349
0.000759757
0.000779204
-0.00129922
-0.000135223
0.00053008
-0.000193237
0.000591564
-0.000255217
0.000630457
-0.000319729
0.000655094
-0.000385964
0.000671869
-0.000453543
0.00068506
-0.000522341
0.000697163
-0.000592368
0.000709447
-0.00066369
0.00072247
-0.000736402
0.000736446
-0.000810603
0.000751456
-0.000886398
0.000767533
-0.000963893
0.000784699
-0.0010432
0.000802979
-0.00112442
0.00082242
-0.00120768
0.000843017
0.000864596
-0.00129307
-0.000133927
0.000581479
-0.000191539
0.000649177
-0.000253144
0.000692062
-0.000317306
0.000719256
-0.000383207
0.000737771
-0.000450462
0.000752314
-0.000518939
0.000765641
-0.000588644
0.000779152
-0.000659644
0.00079347
-0.00073203
0.000808832
-0.000805901
0.000825327
-0.000881361
0.000842993
-0.000958516
0.000861854
-0.00103747
0.000881937
-0.00111834
0.000903291
-0.00120124
0.000925915
0.000949615
-0.00128626
-0.000132501
0.000632417
-0.000189672
0.000706348
-0.000250865
0.000753255
-0.000314641
0.000783032
-0.000380176
0.000803306
-0.000447074
0.000819212
-0.000515199
0.000833765
-0.000584551
0.000848505
-0.000655197
0.000864115
-0.000727224
0.00088086
-0.000800733
0.000898836
-0.000875826
0.000918086
-0.000952608
0.000938636
-0.00103119
0.000960514
-0.00111167
0.000983773
-0.00119417
0.00100842
0.00103422
-0.00127878
-0.000130948
0.000682854
-0.000187637
0.000763036
-0.00024838
0.000813998
-0.000311736
0.000846387
-0.000376871
0.000868441
-0.00044338
0.000885721
-0.00051112
0.000901506
-0.000580089
0.000917474
-0.000650348
0.000934374
-0.000721987
0.000952498
-0.000795102
0.000971951
-0.000869795
0.00099278
-0.000946171
0.00101501
-0.00102433
0.00103868
-0.00110439
0.00106383
-0.00118646
0.00109048
0.00111839
-0.00127063
-0.000129268
0.000732747
-0.000185434
0.000819202
-0.000245689
0.000874254
-0.000308589
0.000909287
-0.000373291
0.000933143
-0.000439379
0.00095181
-0.000506704
0.000968831
-0.000575258
0.000986028
-0.0006451
0.00100422
-0.000716318
0.00102372
-0.000789008
0.00104464
-0.00086327
0.00106704
-0.000939207
0.00109095
-0.00101692
0.00111639
-0.00109653
0.00114344
-0.00117813
0.00117208
0.00120208
-0.00126181
-0.000127461
-0.000183063
0.000874805
-0.000242793
0.000933984
-0.000305202
0.000971696
-0.000369437
0.000997378
-0.000435074
0.00101745
-0.000501952
0.00103571
-0.00057006
0.00105414
-0.000639454
0.00107361
-0.00071022
0.00109448
-0.000782452
0.00111687
-0.000856251
0.00114084
-0.000931718
0.00116642
-0.00100896
0.00119363
-0.00108807
0.00122255
-0.00116917
0.00125318
0.00128525
-0.00125234
-0.000180525
0.000929803
-0.000239691
0.00099315
-0.000301574
0.00103358
-0.00036531
0.00106111
-0.000430463
0.0010826
-0.000496863
0.00110211
-0.000564495
0.00112177
-0.00063341
0.00114253
-0.000703693
0.00116476
-0.000775437
0.00118862
-0.000848742
0.00121415
-0.000923707
0.00124138
-0.00100043
0.00127036
-0.00107902
0.00130114
-0.00115959
0.00133374
0.00136787
-0.00124221
-0.00017782
0.000984157
-0.000236385
0.00105171
-0.000297706
0.0010949
-0.00036091
0.00112432
-0.000425547
0.00114723
-0.000491439
0.001168
-0.000558563
0.00118889
-0.000626969
0.00121093
-0.000696739
0.00123453
-0.000767965
0.00125984
-0.000840744
0.00128693
-0.000915175
0.00131581
-0.000991358
0.00134654
-0.00106939
0.00137917
-0.00114939
0.00141374
0.00144991
-0.00123143
-0.000174949
0.00103782
-0.000232873
0.00110964
-0.000293599
0.00115563
-0.000356237
0.00118696
-0.000420327
0.00121132
-0.00048568
0.00123336
-0.000552267
0.00125548
-0.000620133
0.0012788
-0.000689359
0.00130376
-0.000760036
0.00133052
-0.000832259
0.00135915
-0.000906126
0.00138968
-0.000981734
0.00142215
-0.00105918
0.00145662
-0.00113858
0.00149313
0.00153134
-0.00122
-0.000171912
0.00109077
-0.000229158
0.00116688
-0.000289251
0.00121572
-0.000351292
0.001249
-0.000414803
0.00127483
-0.000479586
0.00129814
-0.000545605
0.0013215
-0.000612903
0.0013461
-0.000681555
0.00137241
-0.000751653
0.00140062
-0.00082329
0.00143079
-0.000896562
0.00146295
-0.000971565
0.00149715
-0.0010484
0.00153345
-0.00112716
0.00157189
0.00161211
-0.00120793
-0.00016871
-0.000225239
0.00122341
-0.000284665
0.00127514
-0.000346074
0.00131041
-0.000408975
0.00133774
-0.000473159
0.00136232
-0.000538581
0.00138692
-0.000605279
0.00141279
-0.000673329
0.00144046
-0.000742818
0.00147011
-0.000813839
0.00150181
-0.000886486
0.0015356
-0.000960854
0.00157152
-0.00103704
0.00160964
-0.00111513
0.00164999
0.00169221
-0.00119523
-0.000221117
0.00127919
-0.000279839
0.00133387
-0.000340584
0.00137115
-0.000402844
0.0014
-0.000466398
0.00142588
-0.000531193
0.00145171
-0.000597263
0.00147886
-0.000664681
0.00150788
-0.000733532
0.00153896
-0.000803908
0.00157218
-0.000875901
0.00160759
-0.000949603
0.00164522
-0.00102511
0.00168514
-0.00110251
0.00172739
0.00177159
-0.0011819
-0.000216792
0.00133417
-0.000274775
0.00139185
-0.000334823
0.0014312
-0.000396411
0.00146158
-0.000459305
0.00148877
-0.000523444
0.00151585
-0.000588857
0.00154428
-0.000655613
0.00157463
-0.000723797
0.00160714
-0.000793499
0.00164188
-0.000864809
0.0016789
-0.000937818
0.00171823
-0.00101261
0.00175994
-0.0010893
0.00180408
0.00185024
-0.00116794
-0.000212264
-0.000269473
0.00144906
-0.00032879
0.00149052
-0.000389675
0.00152247
-0.00045188
0.00155098
-0.000515334
0.00157931
-0.00058006
0.001609
-0.000646127
0.0016407
-0.000713616
0.00167463
-0.000782615
0.00171088
-0.000853214
0.0017495
-0.000925501
0.00179051
-0.000999562
0.001834
-0.00107549
0.00188001
0.00192811
-0.00115336
-0.000263933
0.00150546
-0.000322487
0.00154907
-0.000382638
0.00158262
-0.000444123
0.00161246
-0.000506863
0.00164205
-0.000570875
0.00167302
-0.000636223
0.00170605
-0.000702989
0.0017414
-0.000771258
0.00177915
-0.000841119
0.00181936
-0.000912656
0.00186205
-0.000985954
0.0019073
-0.0010611
0.00195516
0.00200518
-0.00113818
-0.000258155
0.00156101
-0.000315912
0.00160683
-0.000375298
0.00164201
-0.000436035
0.0016732
-0.000498032
0.00170404
-0.000561302
0.00173629
-0.000625904
0.00177065
-0.000691919
0.00180741
-0.000759431
0.00184667
-0.000828525
0.00188846
-0.000899287
0.00193281
-0.000971796
0.00197981
-0.00104614
0.0020295
0.00208143
-0.00112239
-0.000252141
0.00161568
-0.000309068
0.00166375
-0.000367658
0.0017006
-0.000427617
0.00173316
-0.000488843
0.00176527
-0.000551342
0.00179878
-0.000615171
0.00183448
-0.000680407
0.00187265
-0.000747135
0.00191339
-0.000815437
0.00195676
-0.000885397
0.00200277
-0.000957092
0.0020515
-0.00103061
0.00210302
0.00215683
-0.00110601
-0.000245889
-0.000301953
0.00171982
-0.000359717
0.00175836
-0.000418869
0.00179231
-0.000479296
0.0018257
-0.000540996
0.00186049
-0.000604025
0.00189751
-0.000668456
0.00193708
-0.000734372
0.00197931
-0.000801857
0.00202424
-0.00087099
0.00207191
-0.000941847
0.00212236
-0.00101451
0.00217568
0.00223136
-0.00108903
-0.000294569
0.00177498
-0.000351475
0.00181527
-0.000409791
0.00185062
-0.000469391
0.0018853
-0.000530266
0.00192136
-0.000592466
0.00195971
-0.000656065
0.00200068
-0.000721145
0.00204439
-0.000787787
0.00209089
-0.00085607
0.00214019
-0.000926066
0.00219235
-0.000997853
0.00224746
0.00230499
-0.00107149
-0.000286915
0.00182922
-0.000342933
0.00187129
-0.000400384
0.00190808
-0.000459128
0.00194404
-0.00051915
0.00198138
-0.000580496
0.00202105
-0.000643237
0.00206342
-0.000707454
0.00210861
-0.000773229
0.00215666
-0.000840638
0.0022076
-0.000909753
0.00226147
-0.000980647
0.00231836
0.00237771
-0.00105337
-0.000278993
-0.000334092
0.00192638
-0.000390648
0.00196463
-0.00044851
0.0020019
-0.000507652
0.00204052
-0.000568116
0.00208152
-0.000629972
0.00212528
-0.000693301
0.00217193
-0.000758184
0.00222154
-0.000824698
0.00227411
-0.000892912
0.00232968
-0.000962897
0.00238834
0.0024495
-0.00103469
-0.000324951
0.00198053
-0.000380585
0.00202027
-0.000437535
0.00205885
-0.00049577
0.00209876
-0.000555326
0.00214107
-0.000616272
0.00218622
-0.000678687
0.00223435
-0.000742654
0.00228551
-0.00080825
0.00233971
-0.000875546
0.00239698
-0.000944609
0.00245741
0.00252037
-0.00101547
-0.000315511
-0.000370193
0.00207495
-0.000426205
0.00211487
-0.000483506
0.00215606
-0.000542127
0.0021997
-0.000602136
0.00224623
-0.000663612
0.00229583
-0.000726639
0.00234854
-0.000791297
0.00240437
-0.000857657
0.00246334
-0.00092579
0.00252554
0.00259029
-0.000995714
-0.000359474
0.00212865
-0.000414521
0.00216991
-0.00047086
0.0022124
-0.00052852
0.00225736
-0.000587565
0.00230528
-0.000648076
0.00235634
-0.000710139
0.0024106
-0.000773837
0.00246806
-0.000839246
0.00252875
-0.000906445
0.00259274
0.00265929
-0.000975441
-0.000348428
-0.000402482
0.00222397
-0.000457833
0.00226775
-0.000514504
0.00231403
-0.000572559
0.00236333
-0.000632078
0.00241586
-0.000693152
0.00247167
-0.000755869
0.00253078
-0.000820311
0.00259319
-0.000886576
0.002659
0.00272738
-0.000954669
-0.000390089
0.002277
-0.000444426
0.00232209
-0.000500082
0.00236968
-0.000557118
0.00242037
-0.000615618
0.00247436
-0.000675677
0.00253173
-0.000737388
0.00259249
-0.000800847
0.00265665
-0.000866184
0.00272434
0.00279462
-0.000933421
-0.000377344
0.00232898
-0.000430639
0.00237538
-0.000485252
0.0024243
-0.000541242
0.00247636
-0.000598694
0.00253181
-0.000657708
0.00259075
-0.000718391
0.00265317
-0.000780845
0.0027191
-0.000845259
0.00278875
0.00286108
-0.000911727
-0.000364247
-0.000416473
0.00242761
-0.000470016
0.00247784
-0.000524932
0.00253127
-0.000581305
0.00258818
-0.000639244
0.00264869
-0.000698869
0.0027128
-0.00076029
0.00278052
-0.000823774
0.00285224
0.00292694
-0.000889626
-0.000401931
-0.000454376
0.00253028
-0.000508188
0.00258508
-0.000563449
0.00264344
-0.000620277
0.00270551
-0.000678816
0.00277134
-0.00073917
0.00284088
-0.000801662
0.00291473
0.00299245
-0.00086718
-0.000438334
0.0025816
-0.000491011
0.00263776