/*--------------------------------*- C++ -*----------------------------------*\
  =========                 |
  \\      /  F ield         | OpenFOAM: The Open Source CFD Toolbox
   \\    /   O peration     | Website:  https://openfoam.org
    \\  /    A nd           | Version:  7
     \\/     M anipulation  |
\*---------------------------------------------------------------------------*/
FoamFile
{
    version     2.0;
    format      ascii;
    class       volScalarField;
    location    "70";
    object      p;
}
// * * * * * * * * * * * * * * * * * * * * * * * * * * * * * * * * * * * * * //

dimensions      [0 2 -2 0 0 0 0];

internalField   nonuniform List<scalar> 
3275
(
0.138087
0.148296
0.16097
0.161265
0.172546
0.183341
0.186989
0.196416
0.204629
0.203813
0.212455
0.219046
0.223325
0.222386
0.230843
0.23765
0.239968
0.238598
0.251004
0.257785
0.263041
0.263904
0.263066
0.272985
0.279364
0.284476
0.288181
0.288002
0.287326
0.297017
0.302696
0.307337
0.310771
0.312879
0.311492
0.310278
0.327994
0.331909
0.334808
0.336557
0.337055
0.334384
0.332262
0.355647
0.358362
0.36051
0.361666
0.36173
0.360614
0.356624
0.353393
0.387033
0.388003
0.38839
0.387812
0.386194
0.383465
0.378135
0.373684
0.418291
0.417566
0.416803
0.415445
0.41315
0.409865
0.405536
0.398857
0.393125
0.449509
0.447126
0.444653
0.441576
0.437591
0.432666
0.42676
0.418742
0.4117
0.479607
0.475596
0.471448
0.466689
0.461052
0.454524
0.447078
0.437745
0.429387
0.514538
0.508464
0.502866
0.497088
0.490694
0.483454
0.47537
0.466434
0.455823
0.446162
0.543492
0.535962
0.528829
0.521476
0.513506
0.504722
0.495142
0.484774
0.472932
0.461997
0.570918
0.56199
0.553384
0.544522
0.535045
0.524786
0.513778
0.502045
0.48903
0.476863
0.608018
0.596703
0.586444
0.576437
0.566142
0.555235
0.543579
0.53122
0.518199
0.504076
0.490731
0.633212
0.620737
0.609223
0.597897
0.586255
0.574005
0.561039
0.547414
0.533189
0.518028
0.50357
0.656475
0.64292
0.630236
0.617682
0.604786
0.591289
0.577107
0.562309
0.54697
0.530849
0.515351
0.677709
0.663159
0.649398
0.635714
0.621667
0.607026
0.59173
0.575858
0.5595
0.542502
0.526046
0.696822
0.681369
0.666632
0.651924
0.636835
0.62116
0.604857
0.588016
0.570741
0.552953
0.535626
0.731511
0.713731
0.697473
0.681868
0.666249
0.650233
0.63364
0.616445
0.598744
0.580657
0.56217
0.544068
0.74677
0.728362
0.711405
0.695043
0.678633
0.661813
0.644422
0.626452
0.608008
0.589217
0.570125
0.551349
0.75959
0.740653
0.723106
0.706105
0.689027
0.671529
0.653467
0.634846
0.615775
0.596394
0.576793
0.557447
0.769915
0.75055
0.732526
0.71501
0.697392
0.679346
0.660743
0.641596
0.622021
0.602164
0.582154
0.562348
0.777698
0.758011
0.739625
0.72172
0.703695
0.685235
0.666222
0.64668
0.626723
0.606509
0.586189
0.566035
0.782907
0.763002
0.744375
0.726208
0.70791
0.689173
0.669887
0.650079
0.629867
0.609413
0.588887
0.5685
0.785517
0.765504
0.746755
0.728457
0.710022
0.691146
0.671722
0.651781
0.631442
0.610867
0.590238
0.569734
0.785517
0.765504
0.746755
0.728457
0.710022
0.691146
0.671722
0.651781
0.631442
0.610867
0.590238
0.569734
0.782907
0.763002
0.744375
0.726208
0.70791
0.689173
0.669887
0.650079
0.629867
0.609413
0.588887
0.5685
0.777698
0.758011
0.739625
0.72172
0.703695
0.685235
0.666222
0.64668
0.626723
0.606509
0.586189
0.566035
0.769915
0.75055
0.732526
0.71501
0.697392
0.679346
0.660743
0.641596
0.622021
0.602164
0.582154
0.562348
0.75959
0.740653
0.723106
0.706105
0.689027
0.671529
0.653467
0.634846
0.615775
0.596394
0.576793
0.557447
0.74677
0.728362
0.711405
0.695043
0.678633
0.661813
0.644422
0.626452
0.608008
0.589217
0.570125
0.551349
0.731511
0.713731
0.697473
0.681868
0.666249
0.650233
0.63364
0.616445
0.598744
0.580657
0.56217
0.544068
0.696822
0.681369
0.666632
0.651924
0.636835
0.62116
0.604857
0.588016
0.570741
0.552953
0.535626
0.677709
0.663159
0.649398
0.635714
0.621667
0.607026
0.59173
0.575858
0.5595
0.542502
0.526046
0.656475
0.64292
0.630236
0.617682
0.604786
0.591289
0.577107
0.562309
0.54697
0.530849
0.515351
0.633212
0.620737
0.609223
0.597897
0.586255
0.574005
0.561039
0.547414
0.533189
0.518028
0.50357
0.608018
0.596703
0.586444
0.576437
0.566142
0.555235
0.543579
0.53122
0.518199
0.504076
0.490731
0.570918
0.56199
0.553384
0.544522
0.535045
0.524786
0.513778
0.502045
0.48903
0.476863
0.543492
0.535962
0.528829
0.521476
0.513506
0.504722
0.495142
0.484774
0.472932
0.461997
0.514538
0.508464
0.502866
0.497088
0.490694
0.483454
0.47537
0.466434
0.455823
0.446162
0.479607
0.475596
0.471448
0.466689
0.461052
0.454524
0.447078
0.437745
0.429387
0.449509
0.447126
0.444653
0.441576
0.437591
0.432666
0.42676
0.418742
0.4117
0.418291
0.417566
0.416803
0.415445
0.41315
0.409865
0.405536
0.398857
0.393125
0.387033
0.388003
0.38839
0.387812
0.386194
0.383465
0.378135
0.373684
0.355647
0.358362
0.36051
0.361666
0.36173
0.360614
0.356624
0.353393
0.327994
0.331909
0.334808
0.336557
0.337055
0.334384
0.332262
0.297017
0.302696
0.307337
0.310771
0.312879
0.311492
0.310278
0.272985
0.279364
0.284476
0.288181
0.288002
0.287326
0.251004
0.257785
0.263041
0.263904
0.263066
0.222386
0.230843
0.23765
0.239968
0.238598
0.203813
0.212455
0.219046
0.223325
0.186989
0.196416
0.204629
0.161265
0.172546
0.183341
0.148296
0.16097
0.138087
0.221042
0.195446
0.170949
0.149126
0.127429
0.105769
0.209436
0.186708
0.16294
0.14247
0.122387
0.102231
0.193665
0.172178
0.149991
0.131148
0.112948
0.094713
0.178839
0.159131
0.138996
0.121848
0.105348
0.0888236
0.165376
0.147487
0.129372
0.113838
0.0988918
0.0839331
0.153417
0.137151
0.120878
0.106821
0.0932814
0.0797442
0.142821
0.128027
0.113436
0.10074
0.0884843
0.0762379
0.133453
0.120012
0.106946
0.0954951
0.0844062
0.073327
0.125212
0.113017
0.10132
0.090995
0.0809602
0.0709318
0.117994
0.106938
0.0964645
0.0871509
0.078065
0.0689804
0.111692
0.101674
0.0922882
0.0838807
0.0756471
0.106204
0.0971299
0.0887093
0.0811112
0.0736419
0.101438
0.093219
0.085654
0.078778
0.0719934
0.0973122
0.0898642
0.083057
0.0768247
0.0706532
0.0937506
0.0869974
0.0808611
0.0752022
0.0695794
0.0906875
0.084559
0.0790161
0.0738681
0.0687364
0.0880644
0.0824965
0.0774785
0.0727856
0.0680934
0.0858293
0.0807641
0.0762101
0.0719223
0.0676235
0.083936
0.0793212
0.0751772
0.0712499
0.0673028
0.0823436
0.0781319
0.0743497
0.0707429
0.0671101
0.0810149
0.0771639
0.0737008
0.0703785
0.0670264
0.0799168
0.0763882
0.0732061
0.070136
0.067034
0.0790192
0.0757785
0.0728432
0.0699963
0.0671167
0.078295
0.0753107
0.0725919
0.0699418
0.0672596
0.0777193
0.0749628
0.0724333
0.0699562
0.0674485
0.0772697
0.0747147
0.0723501
0.0700244
0.0676701
0.0769257
0.074548
0.0723261
0.070132
0.0679119
0.076669
0.0744461
0.0723466
0.0702661
0.0681623
0.0764827
0.074393
0.0723975
0.0704136
0.0684094
0.0763526
0.0743758
0.072467
0.0705641
0.0686438
0.0762642
0.0743799
0.0725412
0.070704
0.0688524
0.0762093
0.074398
0.0726138
0.0708281
0.0690304
0.076171
0.0744113
0.072665
0.0709151
0.069156
0.0761569
0.0744298
0.0727065
0.0709791
0.0692448
0.0761332
0.0744105
0.0726877
0.0709615
0.0692307
0.24506
0.246391
0.249561
0.253917
0.259529
0.266127
0.273612
0.281759
0.290336
0.29901
0.307368
0.314871
0.320858
0.324514
0.324917
0.320964
0.311699
0.295594
0.273063
0.231403
0.244172
0.245444
0.248473
0.252628
0.257951
0.264172
0.271167
0.278694
0.286493
0.294208
0.3014
0.307514
0.311882
0.313706
0.312112
0.306097
0.294828
0.276976
0.253428
0.213394
0.24321
0.244428
0.247312
0.251255
0.256278
0.262111
0.268608
0.275518
0.282562
0.289372
0.295501
0.300398
0.303416
0.303807
0.300775
0.29344
0.281119
0.262679
0.239554
0.202535
0.242162
0.243317
0.246039
0.249748
0.25444
0.259846
0.265801
0.272039
0.278265
0.2841
0.289091
0.292694
0.294289
0.29318
0.288656
0.279961
0.266571
0.247587
0.224506
0.189788
0.241026
0.24211
0.244658
0.248116
0.252457
0.257411
0.262794
0.268329
0.273708
0.278542
0.282378
0.284685
0.284875
0.282313
0.276376
0.266438
0.25212
0.232765
0.209736
0.17723
0.239796
0.240806
0.243171
0.246364
0.250337
0.25482
0.259612
0.264429
0.268949
0.272784
0.275486
0.276545
0.275415
0.271527
0.264352
0.253395
0.238404
0.218949
0.196231
0.165925
0.23847
0.239401
0.241572
0.244488
0.248077
0.252071
0.256257
0.260342
0.264001
0.266847
0.268444
0.268314
0.265959
0.260883
0.25265
0.240889
0.225461
0.206134
0.183938
0.155741
0.237042
0.237891
0.239859
0.242483
0.245673
0.249163
0.252728
0.256073
0.258872
0.260744
0.261276
0.260022
0.256541
0.250411
0.24129
0.228919
0.213255
0.194226
0.172708
0.146509
0.235511
0.236272
0.238029
0.240349
0.243126
0.246099
0.249033
0.251634
0.253579
0.254503
0.254014
0.251712
0.247209
0.240163
0.230317
0.217515
0.201792
0.183199
0.162481
0.138168
0.233871
0.234541
0.236078
0.238084
0.240437
0.242882
0.245179
0.247039
0.248145
0.248152
0.246699
0.243429
0.238016
0.230191
0.219778
0.206708
0.191081
0.173037
0.153211
0.130673
0.232122
0.232697
0.234007
0.235689
0.237609
0.239518
0.241177
0.242303
0.242593
0.241723
0.239369
0.23522
0.22901
0.220541
0.20971
0.196521
0.181121
0.163712
0.144842
0.123965
0.230261
0.230738
0.231815
0.233165
0.234645
0.236015
0.23704
0.237446
0.236948
0.23525
0.232062
0.227127
0.220235
0.211252
0.20014
0.186961
0.171897
0.155189
0.137309
0.117985
0.228288
0.228663
0.229503
0.230514
0.231551
0.232384
0.232782
0.232489
0.231239
0.228765
0.224819
0.219192
0.21173
0.202357
0.191089
0.178031
0.163391
0.147426
0.13055
0.112674
0.226203
0.226474
0.227073
0.227743
0.228335
0.228635
0.228421
0.227454
0.225492
0.222302
0.217677
0.211453
0.20353
0.193882
0.182567
0.169725
0.155576
0.140382
0.124503
0.107974
0.224007
0.224174
0.22453
0.224856
0.225008
0.224784
0.223976
0.222366
0.219739
0.215896
0.210671
0.203945
0.195665
0.185846
0.174581
0.162032
0.148423
0.134011
0.119109
0.103828
0.221705
0.221765
0.221879
0.221863
0.22158
0.220845
0.219467
0.217251
0.21401
0.20958
0.203835
0.196699
0.188157
0.178261
0.167129
0.154934
0.141899
0.128267
0.114312
0.100185
0.219301
0.219255
0.219127
0.218774
0.218066
0.216837
0.214917
0.212135
0.208334
0.203386
0.197201
0.189742
0.181027
0.171136
0.160204
0.148411
0.135969
0.123104
0.110055
0.0969928
0.216802
0.216649
0.216285
0.2156
0.21448
0.21278
0.21035
0.207046
0.202742
0.197344
0.190796
0.183095
0.174287
0.164473
0.153797
0.142438
0.130596
0.118478
0.10629
0.0942067
0.214217
0.213959
0.213364
0.212356
0.210842
0.208695
0.20579
0.202011
0.197263
0.191482
0.184645
0.176776
0.167946
0.158267
0.14789
0.136987
0.125744
0.114345
0.102969
0.091784
0.211555
0.211195
0.210377
0.20906
0.20717
0.204604
0.201264
0.197059
0.191924
0.185825
0.178769
0.1708
0.162008
0.152514
0.142467
0.132031
0.121375
0.110663
0.100049
0.0896855
0.208832
0.208372
0.207341
0.205728
0.203485
0.200533
0.196797
0.192216
0.186751
0.180398
0.173184
0.165177
0.156474
0.147202
0.137506
0.12754
0.117455
0.107394
0.0974882
0.0878759
0.206063
0.205508
0.204274
0.202384
0.199812
0.196507
0.192417
0.187508
0.18177
0.17522
0.167907
0.159912
0.15134
0.142319
0.132987
0.123485
0.113947
0.104499
0.0952508
0.0863226
0.203267
0.202621
0.201197
0.199048
0.196176
0.192551
0.18815
0.182963
0.177004
0.170311
0.162948
0.155008
0.146601
0.137851
0.128887
0.119837
0.110821
0.101945
0.0933028
0.0849962
0.200465
0.199734
0.198135
0.195748
0.192603
0.188694
0.184024
0.178606
0.172474
0.165685
0.158317
0.150468
0.14225
0.133781
0.125183
0.116569
0.108045
0.0996998
0.0916135
0.08387
0.197682
0.196872
0.195113
0.19251
0.189121
0.184965
0.180065
0.174459
0.1682
0.161357
0.15402
0.146289
0.138277
0.130095
0.121853
0.113654
0.105589
0.0977342
0.0901548
0.0829195
0.194946
0.194063
0.19216
0.189364
0.18576
0.181391
0.176302
0.170549
0.1642
0.15734
0.150062
0.142471
0.134673
0.126775
0.118876
0.111068
0.103429
0.0960215
0.0889017
0.0821229
0.192287
0.191339
0.189308
0.186343
0.182553
0.178004
0.172761
0.166897
0.160494
0.153645
0.146449
0.139009
0.131428
0.123806
0.116233
0.108788
0.101538
0.0945379
0.0878314
0.0814603
0.18974
0.188733
0.186592
0.183479
0.179531
0.174835
0.169471
0.163528
0.157099
0.150283
0.143184
0.135901
0.128535
0.121176
0.113905
0.106793
0.0998972
0.093262
0.0869239
0.0809142
0.187342
0.186285
0.184048
0.180812
0.176732
0.171916
0.16646
0.160465
0.154032
0.147267
0.140272
0.133147
0.125985
0.118871
0.111878
0.105067
0.0984867
0.0921753
0.0861617
0.0804687
0.185135
0.184034
0.181717
0.178378
0.174192
0.169283
0.16376
0.157734
0.151314
0.144609
0.137721
0.130747
0.123775
0.116884
0.110139
0.103594
0.0972914
0.0912623
0.08553
0.0801107
0.183162
0.182025
0.179644
0.176222
0.171952
0.166971
0.161402
0.155362
0.148966
0.142324
0.135539
0.128704
0.121903
0.115208
0.108679
0.102364
0.0962991
0.0905103
0.0850162
0.0798278
0.181473
0.180305
0.177875
0.174389
0.170054
0.165022
0.159423
0.15338
0.147013
0.140432
0.133739
0.127026
0.120371
0.113843
0.107495
0.10137
0.0955014
0.0899101
0.0846111
0.0796119
0.180118
0.178928
0.17646
0.172927
0.168547
0.163479
0.157862
0.151823
0.145483
0.138956
0.132341
0.125726
0.119189
0.112792
0.106586
0.100611
0.0948944
0.0894559
0.0843071
0.0794525
0.179155
0.177948
0.175456
0.171893
0.167482
0.162392
0.156765
0.150731
0.144415
0.137927
0.131369
0.124825
0.118371
0.112067
0.105961
0.10009
0.0944795
0.0891475
0.0841037
0.079352
0.178644
0.177425
0.174922
0.171343
0.166917
0.161816
0.156185
0.150156
0.143852
0.137387
0.130859
0.124353
0.117944
0.111689
0.105635
0.0998185
0.0942635
0.0889861
0.0839952
0.0792929
0.252474
0.253915
0.257582
0.262632
0.269319
0.277398
0.286951
0.297931
0.310381
0.324313
0.339764
0.356754
0.375306
0.395423
0.417091
0.440256
0.464831
0.490648
0.517545
0.545013
0.25245
0.253891
0.257557
0.262605
0.26929
0.277365
0.286913
0.297885
0.310325
0.324243
0.339675
0.356639
0.375157
0.395227
0.416833
0.439919
0.464389
0.490073
0.516799
0.544061
0.252404
0.253844
0.257507
0.262552
0.269231
0.277299
0.286836
0.297794
0.310213
0.324103
0.339497
0.356409
0.374858
0.394836
0.41632
0.439245
0.463507
0.488925
0.515307
0.542159
0.252334
0.253772
0.257432
0.262471
0.269143
0.277199
0.28672
0.297656
0.310045
0.323894
0.33923
0.356066
0.37441
0.394249
0.41555
0.438235
0.462185
0.487206
0.513074
0.539313
0.252241
0.253678
0.257332
0.262365
0.269026
0.277067
0.286567
0.297473
0.309822
0.323615
0.338876
0.355608
0.373814
0.393468
0.414524
0.43689
0.460425
0.484918
0.510103
0.53553
0.252124
0.25356
0.257208
0.262232
0.268879
0.276902
0.286375
0.297245
0.309543
0.323267
0.338433
0.355037
0.37307
0.392493
0.413245
0.435212
0.45823
0.482065
0.5064
0.530821
0.251985
0.253418
0.257059
0.262073
0.268704
0.276704
0.286146
0.296972
0.30921
0.322851
0.337903
0.354353
0.37218
0.391327
0.411714
0.433204
0.455603
0.478653
0.501973
0.525198
0.251823
0.253254
0.256886
0.261888
0.268501
0.276474
0.28588
0.296655
0.308822
0.322367
0.337287
0.353558
0.371144
0.389969
0.409932
0.430867
0.452548
0.474686
0.49683
0.518675
0.251638
0.253066
0.256688
0.26167
0.268269
0.276213
0.285576
0.296294
0.308381
0.321815
0.336585
0.352652
0.369963
0.388421
0.407901
0.428204
0.449069
0.470171
0.490982
0.51127
0.251431
0.252856
0.256467
0.261417
0.268008
0.27592
0.285236
0.295889
0.307886
0.321197
0.335799
0.351636
0.36864
0.386686
0.405625
0.425219
0.445171
0.465114
0.484439
0.502999
0.251201
0.252623
0.256223
0.261204
0.26772
0.275596
0.284861
0.295442
0.30734
0.320514
0.334928
0.350512
0.367175
0.384766
0.403105
0.421915
0.440859
0.459523
0.477212
0.493883
0.250949
0.252368
0.255955
0.260902
0.267405
0.275241
0.28445
0.294952
0.306741
0.319766
0.333976
0.349281
0.36557
0.382662
0.400345
0.418296
0.436139
0.453406
0.469317
0.48394
0.250675
0.252092
0.255665
0.260584
0.267064
0.274857
0.284004
0.294421
0.306092
0.318954
0.332942
0.347945
0.363828
0.380377
0.397347
0.414366
0.431017
0.446769
0.460765
0.47319
0.250379
0.251794
0.255352
0.26025
0.266697
0.274443
0.283524
0.29385
0.305393
0.31808
0.331828
0.346505
0.36195
0.377914
0.394116
0.410129
0.425499
0.439622
0.451573
0.461653
0.250061
0.251474
0.255011
0.259894
0.266304
0.274001
0.283011
0.293238
0.304646
0.317144
0.330635
0.344963
0.359938
0.375275
0.390653
0.405589
0.419592
0.43197
0.441756
0.449344
0.249723
0.251134
0.25464
0.259513
0.265886
0.27353
0.282465
0.292588
0.30385
0.316149
0.329365
0.343321
0.357795
0.372463
0.386964
0.400752
0.413302
0.423822
0.431329
0.436278
0.249363
0.250774
0.254301
0.25911
0.265444
0.273032
0.281887
0.291899
0.303008
0.315094
0.32802
0.341581
0.355522
0.36948
0.38305
0.395621
0.406636
0.415183
0.420308
0.422463
0.248983
0.250393
0.253889
0.258685
0.264978
0.272507
0.281279
0.291174
0.30212
0.313983
0.326602
0.339745
0.353123
0.366332
0.378917
0.390203
0.399599
0.40606
0.408709
0.407904
0.248583
0.249993
0.253464
0.25824
0.264489
0.271956
0.28064
0.290413
0.301189
0.312817
0.325112
0.337816
0.350603
0.363022
0.374571
0.384507
0.392201
0.396463
0.396553
0.392596
0.248163
0.249573
0.253025
0.257773
0.263976
0.271379
0.279972
0.289616
0.300214
0.311594
0.323551
0.335793
0.347958
0.359549
0.37001
0.37853
0.38444
0.386391
0.383847
0.376526
0.247723
0.249137
0.252567
0.257285
0.26344
0.270775
0.27927
0.288779
0.299187
0.310306
0.321904
0.33366
0.345168
0.355888
0.365204
0.372239
0.376278
0.375809
0.370558
0.35963
0.247264
0.24868
0.252091
0.256779
0.262884
0.270148
0.278542
0.28791
0.298121
0.308967
0.320189
0.331433
0.342254
0.352059
0.360173
0.365655
0.36773
0.364735
0.3567
0.341842
0.246787
0.24821
0.251605
0.256268
0.262329
0.26953
0.277833
0.287071
0.297097
0.307684
0.318547
0.329295
0.339439
0.348336
0.355243
0.359149
0.359196
0.353584
0.34268
0.32347
0.246293
0.247725
0.251108
0.255751
0.261776
0.268925
0.277151
0.286279
0.296145
0.306503
0.317039
0.327328
0.336834
0.344858
0.350582
0.352914
0.350874
0.342532
0.328576
0.304616
0.245772
0.247192
0.250528
0.255109
0.26104
0.268066
0.276122
0.285022
0.294582
0.304529
0.314514
0.324072
0.332617
0.339392
0.343514
0.343833
0.339276
0.327875
0.310426
0.280495
0.245772
0.247192
0.250528
0.255109
0.26104
0.268066
0.276122
0.285022
0.294582
0.304529
0.314514
0.324072
0.332617
0.339392
0.343514
0.343833
0.339276
0.327875
0.310426
0.280495
0.246293
0.247725
0.251108
0.255751
0.261776
0.268925
0.277151
0.286279
0.296145
0.306503
0.317039
0.327328
0.336834
0.344858
0.350582
0.352914
0.350874
0.342532
0.328576
0.304616
0.246787
0.24821
0.251605
0.256268
0.262329
0.26953
0.277833
0.287071
0.297097
0.307684
0.318547
0.329295
0.339439
0.348336
0.355243
0.359149
0.359196
0.353584
0.34268
0.32347
0.247264
0.24868
0.252091
0.256779
0.262884
0.270148
0.278542
0.28791
0.298121
0.308967
0.320189
0.331433
0.342254
0.352059
0.360173
0.365655
0.36773
0.364735
0.3567
0.341842
0.247723
0.249137
0.252567
0.257285
0.26344
0.270775
0.27927
0.288779
0.299187
0.310306
0.321904
0.33366
0.345168
0.355888
0.365204
0.372239
0.376278
0.375809
0.370558
0.35963
0.248163
0.249573
0.253025
0.257773
0.263976
0.271379
0.279972
0.289616
0.300214
0.311594
0.323551
0.335793
0.347958
0.359549
0.37001
0.37853
0.38444
0.386391
0.383847
0.376526
0.248583
0.249993
0.253464
0.25824
0.264489
0.271956
0.28064
0.290413
0.301189
0.312817
0.325112
0.337816
0.350603
0.363022
0.374571
0.384507
0.392201
0.396463
0.396553
0.392596
0.248983
0.250393
0.253889
0.258685
0.264978
0.272507
0.281279
0.291174
0.30212
0.313983
0.326602
0.339745
0.353123
0.366332
0.378917
0.390203
0.399599
0.40606
0.408709
0.407904
0.249363
0.250774
0.254301
0.25911
0.265444
0.273032
0.281887
0.291899
0.303008
0.315094
0.32802
0.341581
0.355522
0.36948
0.38305
0.395621
0.406636
0.415183
0.420308
0.422463
0.249723
0.251134
0.25464
0.259513
0.265886
0.27353
0.282465
0.292588
0.30385
0.316149
0.329365
0.343321
0.357795
0.372463
0.386964
0.400752
0.413302
0.423822
0.431329
0.436278
0.250061
0.251474
0.255011
0.259894
0.266304
0.274001
0.283011
0.293238
0.304646
0.317144
0.330635
0.344963
0.359938
0.375275
0.390653
0.405589
0.419592
0.43197
0.441756
0.449344
0.250379
0.251794
0.255352
0.26025
0.266697
0.274443
0.283524
0.29385
0.305393
0.31808
0.331828
0.346505
0.36195
0.377914
0.394116
0.410129
0.425499
0.439622
0.451573
0.461653
0.250675
0.252092
0.255665
0.260584
0.267064
0.274857
0.284004
0.294421
0.306092
0.318954
0.332942
0.347945
0.363828
0.380377
0.397347
0.414366
0.431017
0.446769
0.460765
0.47319
0.250949
0.252368
0.255955
0.260902
0.267405
0.275241
0.28445
0.294952
0.306741
0.319766
0.333976
0.349281
0.36557
0.382662
0.400345
0.418296
0.436139
0.453406
0.469317
0.48394
0.251201
0.252623
0.256223
0.261204
0.26772
0.275596
0.284861
0.295442
0.30734
0.320514
0.334928
0.350512
0.367175
0.384766
0.403105
0.421915
0.440859
0.459523
0.477212
0.493883
0.251431
0.252856
0.256467
0.261417
0.268008
0.27592
0.285236
0.295889
0.307886
0.321197
0.335799
0.351636
0.36864
0.386686
0.405625
0.425219
0.445171
0.465114
0.484439
0.502999
0.251638
0.253066
0.256688
0.26167
0.268269
0.276213
0.285576
0.296294
0.308381
0.321815
0.336585
0.352652
0.369963
0.388421
0.407901
0.428204
0.449069
0.470171
0.490982
0.51127
0.251823
0.253254
0.256886
0.261888
0.268501
0.276474
0.28588
0.296655
0.308822
0.322367
0.337287
0.353558
0.371144
0.389969
0.409932
0.430867
0.452548
0.474686
0.49683
0.518675
0.251985
0.253418
0.257059
0.262073
0.268704
0.276704
0.286146
0.296972
0.30921
0.322851
0.337903
0.354353
0.37218
0.391327
0.411714
0.433204
0.455603
0.478653
0.501973
0.525198
0.252124
0.25356
0.257208
0.262232
0.268879
0.276902
0.286375
0.297245
0.309543
0.323267
0.338433
0.355037
0.37307
0.392493
0.413245
0.435212
0.45823
0.482065
0.5064
0.530821
0.252241
0.253678
0.257332
0.262365
0.269026
0.277067
0.286567
0.297473
0.309822
0.323615
0.338876
0.355608
0.373814
0.393468
0.414524
0.43689
0.460425
0.484918
0.510103
0.53553
0.252334
0.253772
0.257432
0.262471
0.269143
0.277199
0.28672
0.297656
0.310045
0.323894
0.33923
0.356066
0.37441
0.394249
0.41555
0.438235
0.462185
0.487206
0.513074
0.539313
0.252404
0.253844
0.257507
0.262552
0.269231
0.277299
0.286836
0.297794
0.310213
0.324103
0.339497
0.356409
0.374858
0.394836
0.41632
0.439245
0.463507
0.488925
0.515307
0.542159
0.25245
0.253891
0.257557
0.262605
0.26929
0.277365
0.286913
0.297885
0.310325
0.324243
0.339675
0.356639
0.375157
0.395227
0.416833
0.439919
0.464389
0.490073
0.516799
0.544061
0.252474
0.253915
0.257582
0.262632
0.269319
0.277398
0.286951
0.297931
0.310381
0.324313
0.339764
0.356754
0.375306
0.395423
0.417091
0.440256
0.464831
0.490648
0.517545
0.545013
0.178644
0.177425
0.174922
0.171343
0.166917
0.161816
0.156185
0.150156
0.143852
0.137387
0.130859
0.124353
0.117944
0.111689
0.105635
0.0998185
0.0942635
0.0889861
0.0839952
0.0792929
0.179155
0.177948
0.175456
0.171893
0.167482
0.162392
0.156765
0.150731
0.144415
0.137927
0.131369
0.124825
0.118371
0.112067
0.105961
0.10009
0.0944795
0.0891475
0.0841037
0.079352
0.180118
0.178928
0.17646
0.172927
0.168547
0.163479
0.157862
0.151823
0.145483
0.138956
0.132341
0.125726
0.119189
0.112792
0.106586
0.100611
0.0948944
0.0894559
0.0843071
0.0794525
0.181473
0.180305
0.177875
0.174389
0.170054
0.165022
0.159423
0.15338
0.147013
0.140432
0.133739
0.127026
0.120371
0.113843
0.107495
0.10137
0.0955014
0.0899101
0.0846111
0.0796119
0.183162
0.182025
0.179644
0.176222
0.171952
0.166971
0.161402
0.155362
0.148966
0.142324
0.135539
0.128704
0.121903
0.115208
0.108679
0.102364
0.0962991
0.0905103
0.0850162
0.0798278
0.185135
0.184034
0.181717
0.178378
0.174192
0.169283
0.16376
0.157734
0.151314
0.144609
0.137721
0.130747
0.123775
0.116884
0.110139
0.103594
0.0972914
0.0912623
0.08553
0.0801107
0.187342
0.186285
0.184048
0.180812
0.176732
0.171916
0.16646
0.160465
0.154032
0.147267
0.140272
0.133147
0.125985
0.118871
0.111878
0.105067
0.0984867
0.0921753
0.0861617
0.0804687
0.18974
0.188733
0.186592
0.183479
0.179531
0.174835
0.169471
0.163528
0.157099
0.150283
0.143184
0.135901
0.128535
0.121176
0.113905
0.106793
0.0998972
0.093262
0.0869239
0.0809142
0.192287
0.191339
0.189308
0.186343
0.182553
0.178004
0.172761
0.166897
0.160494
0.153645
0.146449
0.139009
0.131428
0.123806
0.116233
0.108788
0.101538
0.0945379
0.0878314
0.0814603
0.194946
0.194063
0.19216
0.189364
0.18576
0.181391
0.176302
0.170549
0.1642
0.15734
0.150062
0.142471
0.134673
0.126775
0.118876
0.111068
0.103429
0.0960215
0.0889017
0.0821229
0.197682
0.196872
0.195113
0.19251
0.189121
0.184965
0.180065
0.174459
0.1682
0.161357
0.15402
0.146289
0.138277
0.130095
0.121853
0.113654
0.105589
0.0977342
0.0901548
0.0829195
0.200465
0.199734
0.198135
0.195748
0.192603
0.188694
0.184024
0.178606
0.172474
0.165685
0.158317
0.150468
0.14225
0.133781
0.125183
0.116569
0.108045
0.0996998
0.0916135
0.08387
0.203267
0.202621
0.201197
0.199048
0.196176
0.192551
0.18815
0.182963
0.177004
0.170311
0.162948
0.155008
0.146601
0.137851
0.128887
0.119837
0.110821
0.101945
0.0933028
0.0849962
0.206063
0.205508
0.204274
0.202384
0.199812
0.196507
0.192417
0.187508
0.18177
0.17522
0.167907
0.159912
0.15134
0.142319
0.132987
0.123485
0.113947
0.104499
0.0952508
0.0863226
0.208832
0.208372
0.207341
0.205728
0.203485
0.200533
0.196797
0.192216
0.186751
0.180398
0.173184
0.165177
0.156474
0.147202
0.137506
0.12754
0.117455
0.107394
0.0974882
0.0878759
0.211555
0.211195
0.210377
0.20906
0.20717
0.204604
0.201264
0.197059
0.191924
0.185825
0.178769
0.1708
0.162008
0.152514
0.142467
0.132031
0.121375
0.110663
0.100049
0.0896855
0.214217
0.213959
0.213364
0.212356
0.210842
0.208695
0.20579
0.202011
0.197263
0.191482
0.184645
0.176776
0.167946
0.158267
0.14789
0.136987
0.125744
0.114345
0.102969
0.091784
0.216802
0.216649
0.216285
0.2156
0.21448
0.21278
0.21035
0.207046
0.202742
0.197344
0.190796
0.183095
0.174287
0.164473
0.153797
0.142438
0.130596
0.118478
0.10629
0.0942067
0.219301
0.219255
0.219127
0.218774
0.218066
0.216837
0.214917
0.212135
0.208334
0.203386
0.197201
0.189742
0.181027
0.171136
0.160204
0.148411
0.135969
0.123104
0.110055
0.0969928
0.221705
0.221765
0.221879
0.221863
0.22158
0.220845
0.219467
0.217251
0.21401
0.20958
0.203835
0.196699
0.188157
0.178261
0.167129
0.154934
0.141899
0.128267
0.114312
0.100185
0.224007
0.224174
0.22453
0.224856
0.225008
0.224784
0.223976
0.222366
0.219739
0.215896
0.210671
0.203945
0.195665
0.185846
0.174581
0.162032
0.148423
0.134011
0.119109
0.103828
0.226203
0.226474
0.227073
0.227743
0.228335
0.228635
0.228421
0.227454
0.225492
0.222302
0.217677
0.211453
0.20353
0.193882
0.182567
0.169725
0.155576
0.140382
0.124503
0.107974
0.228288
0.228663
0.229503
0.230514
0.231551
0.232384
0.232782
0.232489
0.231239
0.228765
0.224819
0.219192
0.21173
0.202357
0.191089
0.178031
0.163391
0.147426
0.13055
0.112674
0.230261
0.230738
0.231815
0.233165
0.234645
0.236015
0.23704
0.237446
0.236948
0.23525
0.232062
0.227127
0.220235
0.211252
0.20014
0.186961
0.171897
0.155189
0.137309
0.117985
0.232122
0.232697
0.234007
0.235689
0.237609
0.239518
0.241177
0.242303
0.242593
0.241723
0.239369
0.23522
0.22901
0.220541
0.20971
0.196521
0.181121
0.163712
0.144842
0.123965
0.233871
0.234541
0.236078
0.238084
0.240437
0.242882
0.245179
0.247039
0.248145
0.248152
0.246699
0.243429
0.238016
0.230191
0.219778
0.206708
0.191081
0.173037
0.153211
0.130673
0.235511
0.236272
0.238029
0.240349
0.243126
0.246099
0.249033
0.251634
0.253579
0.254503
0.254014
0.251712
0.247209
0.240163
0.230317
0.217515
0.201792
0.183199
0.162481
0.138168
0.237042
0.237891
0.239859
0.242483
0.245673
0.249163
0.252728
0.256073
0.258872
0.260744
0.261276
0.260022
0.256541
0.250411
0.24129
0.228919
0.213255
0.194226
0.172708
0.146509
0.23847
0.239401
0.241572
0.244488
0.248077
0.252071
0.256257
0.260342
0.264001
0.266847
0.268444
0.268314
0.265959
0.260883
0.25265
0.240889
0.225461
0.206134
0.183938
0.155741
0.239796
0.240806
0.243171
0.246364
0.250337
0.25482
0.259612
0.264429
0.268949
0.272784
0.275486
0.276545
0.275415
0.271527
0.264352
0.253395
0.238404
0.218949
0.196231
0.165925
0.241026
0.24211
0.244658
0.248116
0.252457
0.257411
0.262794
0.268329
0.273708
0.278542
0.282378
0.284685
0.284875
0.282313
0.276376
0.266438
0.25212
0.232765
0.209736
0.17723
0.242163
0.243317
0.246039
0.249748
0.25444
0.259846
0.265801
0.272039
0.278265
0.2841
0.289091
0.292694
0.294289
0.29318
0.288656
0.279961
0.266571
0.247587
0.224506
0.189788
0.24321
0.244428
0.247312
0.251255
0.256278
0.262111
0.268608
0.275518
0.282562
0.289372
0.295501
0.300398
0.303416
0.303807
0.300775
0.29344
0.281119
0.262679
0.239554
0.202535
0.244172
0.245444
0.248473
0.252628
0.257951
0.264172
0.271167
0.278694
0.286493
0.294208
0.3014
0.307514
0.311882
0.313706
0.312112
0.306097
0.294828
0.276976
0.253428
0.213394
0.24506
0.246391
0.249561
0.253917
0.259529
0.266127
0.273612
0.281759
0.290336
0.29901
0.307368
0.314871
0.320858
0.324514
0.324917
0.320964
0.311699
0.295594
0.273063
0.231403
0.0761332
0.0744105
0.0726877
0.0709615
0.0692307
0.0761569
0.0744298
0.0727065
0.0709791
0.0692448
0.076171
0.0744113
0.072665
0.0709151
0.069156
0.0762093
0.074398
0.0726138
0.0708281
0.0690304
0.0762642
0.0743799
0.0725412
0.070704
0.0688524
0.0763526
0.0743758
0.072467
0.0705641
0.0686438
0.0764827
0.074393
0.0723975
0.0704136
0.0684094
0.076669
0.0744461
0.0723466
0.0702661
0.0681623
0.0769257
0.074548
0.0723261
0.070132
0.0679119
0.0772697
0.0747147
0.0723501
0.0700244
0.0676701
0.0777193
0.0749628
0.0724333
0.0699562
0.0674485
0.078295
0.0753107
0.0725919
0.0699418
0.0672596
0.0790192
0.0757785
0.0728432
0.0699963
0.0671167
0.0799168
0.0763882
0.0732061
0.070136
0.067034
0.0810149
0.0771639
0.0737008
0.0703785
0.0670264
0.0823436
0.0781319
0.0743497
0.0707429
0.0671101
0.083936
0.0793212
0.0751772
0.0712499
0.0673028
0.0858293
0.0807641
0.0762101
0.0719223
0.0676235
0.0880644
0.0824965
0.0774785
0.0727856
0.0680934
0.0906875
0.084559
0.0790161
0.0738681
0.0687364
0.0937506
0.0869974
0.0808611
0.0752022
0.0695794
0.0973122
0.0898642
0.083057
0.0768247
0.0706532
0.101438
0.093219
0.085654
0.078778
0.0719934
0.106204
0.0971299
0.0887093
0.0811112
0.0736419
0.111692
0.101674
0.0922882
0.0838807
0.0756471
0.117994
0.106938
0.0964645
0.0871509
0.078065
0.125212
0.113017
0.10132
0.090995
0.0809602
0.133453
0.120012
0.106946
0.0954951
0.0844062
0.142821
0.128027
0.113436
0.10074
0.0884843
0.153417
0.137151
0.120878
0.106821
0.0932814
0.165376
0.147487
0.129372
0.113838
0.0988918
0.0839331
0.178839
0.159131
0.138996
0.121848
0.105348