/*--------------------------------*- C++ -*----------------------------------*\
  =========                 |
  \\      /  F ield         | OpenFOAM: The Open Source CFD Toolbox
   \\    /   O peration     | Website:  https://openfoam.org
    \\  /    A nd           | Version:  7
     \\/     M anipulation  |
\*---------------------------------------------------------------------------*/
FoamFile
{
    version     2.0;
    format      ascii;
    class       volVectorField;
    location    "90";
    object      U;
}
// * * * * * * * * * * * * * * * * * * * * * * * * * * * * * * * * * * * * * //

dimensions      [0 1 -1 0 0 0 0];

internalField   nonuniform List<vector> 
8500
(
(1.0479 0.35376 8.95592e-24)
(1.03651 0.371305 -1.60128e-20)
(1.03728 0.353798 4.61854e-20)
(1.02337 0.391012 -3.169e-20)
(1.025 0.371094 6.74267e-20)
(1.02654 0.353484 -7.97793e-20)
(1.00944 0.41258 -2.59364e-20)
(1.01116 0.390588 1.05496e-19)
(1.01337 0.370519 -5.82898e-20)
(1.01571 0.352804 1.77749e-20)
(0.996589 0.411913 4.77197e-20)
(0.998881 0.38979 6.63546e-20)
(1.00164 0.369572 -2.12594e-19)
(1.00478 0.351741 4.89449e-20)
(0.981407 0.434389 7.17293e-20)
(0.983703 0.410837 -8.99135e-20)
(0.986566 0.388615 4.51531e-20)
(0.989819 0.368245 2.39878e-19)
(0.99377 0.350263 1.47953e-19)
(0.965023 0.458027 -3.03356e-20)
(0.96779 0.432976 -1.17139e-19)
(0.97081 0.409342 -4.35324e-20)
(0.974238 0.387059 -1.4631e-19)
(0.977931 0.366524 8.34597e-20)
(0.982686 0.348332 -1.76052e-19)
(0.950555 0.456219 -2.77928e-20)
(0.954157 0.431104 -1.98089e-20)
(0.957927 0.407422 8.47993e-20)
(0.961916 0.385117 1.71946e-19)
(0.966012 0.364401 -2.90443e-19)
(0.971658 0.345916 2.01006e-19)
(0.931655 0.480588 -4.39364e-21)
(0.936065 0.453915 -5.23824e-21)
(0.94052 0.428766 1.57705e-19)
(0.945062 0.405066 -6.14189e-20)
(0.949612 0.382774 -1.25271e-19)
(0.954168 0.36185 -5.61447e-21)
(0.960943 0.343031 -2.88436e-19)
(0.916241 0.477793 -8.44594e-20)
(0.921569 0.451111 4.85554e-20)
(0.926889 0.425959 1.34722e-19)
(0.93221 0.402267 4.30565e-20)
(0.937348 0.380005 -2.45669e-19)
(0.942587 0.358797 -8.7571e-21)
(0.950565 0.339623 8.92211e-20)
(0.894484 0.502741 -5.02228e-20)
(0.900832 0.474461 -1.2641e-20)
(0.907083 0.447807 -1.46566e-19)
(0.91327 0.422682 -7.73752e-20)
(0.919367 0.399029 -8.74816e-20)
(0.925172 0.376818 2.92223e-19)
(0.931452 0.355246 -6.91111e-20)
(0.939711 0.334464 2.63191e-19)
(0.870571 0.528714 -1.5665e-19)
(0.878113 0.498813 6.98771e-20)
(0.885449 0.470593 1.14801e-19)
(0.892625 0.444003 4.71966e-20)
(0.899675 0.418941 1.31147e-19)
(0.90655 0.395354 6.46891e-20)
(0.913115 0.373213 -1.67605e-20)
(0.920424 0.351679 1.46797e-19)
(0.928899 0.330836 2.43393e-20)
(0.853192 0.524117 -7.44248e-20)
(0.86179 0.494305 -2.18852e-19)
(0.870115 0.466186 -1.38959e-20)
(0.878216 0.439699 -9.80012e-20)
(0.886123 0.414739 1.5423e-19)
(0.893777 0.39125 -2.4034e-19)
(0.901096 0.36919 -6.1609e-20)
(0.909167 0.347696 -9.41889e-20)
(0.917781 0.326809 -3.44694e-19)
(0.825765 0.550214 -2.44972e-20)
(0.835882 0.518894 -1.01418e-20)
(0.845536 0.489219 -3.76385e-20)
(0.854851 0.461242 -7.73849e-20)
(0.863875 0.434897 -1.12551e-19)
(0.872637 0.410076 6.17884e-20)
(0.881074 0.386722 1.94278e-19)
(0.889145 0.364777 -1.06624e-19)
(0.89789 0.343392 1.40467e-19)
(0.90677 0.322667 4.01692e-19)
(0.807433 0.544202 -3.51348e-19)
(0.818666 0.513048 -1.72162e-19)
(0.829376 0.483554 4.54301e-20)
(0.839681 0.455762 6.50906e-20)
(0.849625 0.429598 2.31063e-19)
(0.859238 0.404954 -3.2551e-19)
(0.86846 0.381771 9.67198e-20)
(0.877273 0.359978 5.80639e-20)
(0.886659 0.338759 -8.33832e-20)
(0.895897 0.318294 -3.02275e-19)
(0.789221 0.537518 1.86211e-19)
(0.801571 0.506579 3.04088e-19)
(0.813336 0.477312 2.50652e-19)
(0.824625 0.449746 1.85395e-19)
(0.835487 0.423803 -4.01996e-19)
(0.845949 0.399374 -4.37516e-21)
(0.855954 0.376399 -1.09556e-19)
(0.865502 0.354796 4.2642e-19)
(0.875519 0.333794 -1.782e-20)
(0.885176 0.313642 -2.12372e-19)
(0.756775 0.562236 -2.63837e-19)
(0.771159 0.530164 5.9286e-21)
(0.784623 0.499491 1.0264e-19)
(0.797438 0.470496 -1.62192e-19)
(0.809708 0.443198 -2.04329e-19)
(0.821482 0.417515 5.19726e-19)
(0.832789 0.39334 2.10751e-19)
(0.843575 0.370609 -2.19775e-19)
(0.853852 0.349233 -2.53521e-19)
(0.864501 0.328492 -2.87527e-19)
(0.874619 0.308686 -2.66575e-20)
(0.737733 0.553925 1.41058e-19)
(0.753274 0.522143 5.56285e-20)
(0.767848 0.491785 -2.84197e-19)
(0.781707 0.463108 3.02351e-19)
(0.794952 0.43612 1.86544e-19)
(0.807633 0.410737 -7.26549e-20)
(0.819778 0.386852 -1.42393e-19)
(0.831342 0.364401 1.25066e-19)
(0.842346 0.34329 -2.18647e-19)
(0.853628 0.322848 -3.06128e-19)
(0.864239 0.303411 2.95371e-19)
(0.700645 0.576995 4.49404e-19)
(0.718902 0.544898 -2.26343e-19)
(0.735596 0.513461 2.79747e-19)
(0.751273 0.483468 -3.24882e-19)
(0.766168 0.455153 4.28781e-20)
(0.78038 0.428516 -1.30472e-19)
(0.793959 0.403473 9.54944e-20)
(0.806939 0.379914 9.08284e-20)
(0.819275 0.357777 -5.65406e-20)
(0.831002 0.336965 5.46454e-19)
(0.842919 0.316857 -7.39881e-20)
(0.854044 0.297806 -2.52989e-19)
(0.680896 0.566914 -3.26523e-19)
(0.700313 0.535161 4.73627e-19)
(0.718152 0.504124 -5.04838e-20)
(0.734923 0.474544 1.35359e-19)
(0.750845 0.446636 1.66296e-19)
(0.766014 0.420392 6.71521e-20)
(0.780483 0.395726 -4.60234e-19)
(0.794288 0.37253 1.0485e-19)
(0.807392 0.350741 9.80254e-20)
(0.819838 0.330261 -3.30092e-19)
(0.832388 0.310516 1.23774e-19)
(0.844043 0.291866 4.81284e-20)
(0.638271 0.586468 -4.87076e-20)
(0.661423 0.556072 -6.09769e-21)
(0.681995 0.524723 7.75983e-20)
(0.700971 0.494139 -1.31775e-19)
(0.718823 0.465021 -1.87539e-20)
(0.73576 0.437563 -5.17007e-19)
(0.751876 0.411753 -4.00033e-19)
(0.767225 0.387501 -6.78178e-20)
(0.781847 0.364704 -5.76246e-20)
(0.795711 0.343296 -6.45621e-20)
(0.808869 0.323179 -1.32417e-19)
(0.822051 0.303824 -1.54483e-19)
(0.834244 0.28559 -2.0805e-19)
(0.618014 0.574525 -9.51856e-20)
(0.642261 0.544477 -4.41431e-20)
(0.663978 0.513592 -4.57742e-19)
(0.684078 0.483515 -4.36594e-19)
(0.702999 0.454905 8.09784e-20)
(0.720938 0.427942 7.13991e-19)
(0.737987 0.402604 1.0671e-19)
(0.754205 0.378804 2.90141e-19)
(0.769634 0.35644 -4.55103e-19)
(0.784249 0.335445 -1.0847e-19)
(0.798113 0.315721 5.43452e-19)
(0.81192 0.296782 2.4243e-19)
(0.824658 0.278977 1.00231e-18)
(0.598102 0.561775 -6.0952e-20)
(0.62344 0.532143 3.13704e-19)
(0.646293 0.50178 -1.97375e-19)
(0.667503 0.472261 1.45109e-19)
(0.687476 0.444207 3.34771e-19)
(0.706401 0.41778 -2.30213e-19)
(0.72437 0.392954 5.8747e-20)
(0.741443 0.369642 2.88419e-19)
(0.757667 0.347744 3.65418e-19)
(0.773023 0.327193 -1.92459e-19)
(0.787583 0.307892 -1.10479e-19)
(0.802009 0.289393 1.69931e-19)
(0.815293 0.272032 -4.96315e-19)
(0.548248 0.573639 7.10293e-20)
(0.578572 0.548233 2.00039e-19)
(0.604994 0.519081 -2.98862e-19)
(0.628968 0.489299 7.13476e-19)
(0.65127 0.460389 3.00955e-19)
(0.672279 0.432935 -1.00945e-19)
(0.692172 0.407086 -3.21213e-20)
(0.711044 0.382811 1.37179e-19)
(0.728958 0.360023 -3.83017e-19)
(0.745963 0.338623 3.18594e-20)
(0.762049 0.318546 -2.50474e-19)
(0.777295 0.299696 -1.11678e-19)
(0.792329 0.281661 -4.9862e-19)
(0.806159 0.264757 -2.17558e-19)
(0.52821 0.558988 -2.50853e-19)
(0.559457 0.533915 1.36051e-19)
(0.586953 0.505307 -8.33469e-20)
(0.612032 0.476161 -2.58771e-19)
(0.635406 0.447909 2.84783e-19)
(0.65743 0.421101 3.06767e-19)
(0.678274 0.395871 -8.07937e-22)
(0.698031 0.372184 -7.09636e-20)
(0.716769 0.349953 -4.03616e-20)
(0.734541 0.329084 3.03667e-19)
(0.751343 0.309511 2.73008e-19)
(0.767262 0.291138 7.69962e-20)
(0.782893 0.273591 5.262e-19)
(0.797266 0.257159 1.72852e-19)
(0.508624 0.543509 -9.18147e-20)
(0.540792 0.518837 -1.56079e-19)
(0.569349 0.490835 -5.98217e-20)
(0.595511 0.46238 -9.05859e-21)
(0.619937 0.434835 -6.21397e-19)
(0.642955 0.408717 -7.9452e-19)
(0.664728 0.384144 -1.2379e-19)
(0.685351 0.361082 2.80696e-19)
(0.704895 0.339444 -1.11224e-19)
(0.723417 0.319137 -5.70059e-19)
(0.740921 0.300095 5.39382e-19)
(0.757499 0.282226 7.81598e-20)
(0.773713 0.265188 -2.1998e-19)
(0.788623 0.249243 3.47954e-19)
(0.451122 0.543294 1.05954e-19)
(0.489527 0.527224 3.69503e-19)
(0.52261 0.50302 -1.29246e-19)
(0.55221 0.475684 1.97796e-19)
(0.579435 0.447973 3.80244e-19)
(0.604888 0.421181 2.09378e-19)
(0.628875 0.395794 8.87488e-19)
(0.651554 0.371919 4.1058e-19)
(0.673023 0.349517 -3.38768e-20)
(0.693354 0.328504 -2.18511e-20)
(0.712608 0.308789 7.2559e-20)
(0.730797 0.290306 -5.96968e-19)
(0.748018 0.272968 -3.21605e-19)
(0.764801 0.25646 1.39159e-19)
(0.78024 0.241018 -4.83454e-19)
(0.431945 0.526069 7.97545e-20)
(0.470956 0.510153 -4.71705e-19)
(0.504943 0.486481 3.59402e-19)
(0.535566 0.45987 -1.67628e-19)
(0.563828 0.432954 -3.89513e-19)
(0.590282 0.406962 -9.51313e-20)
(0.615213 0.382348 -3.6649e-19)
(0.638775 0.359208 -7.70038e-19)
(0.661065 0.337501 6.65825e-20)
(0.682162 0.317145 6.20016e-19)
(0.702129 0.298051 -2.72919e-19)
(0.720985 0.280155 3.34447e-19)
(0.738833 0.26337 4.53366e-19)
(0.756169 0.247414 2.93205e-19)
(0.772129 0.232491 2.24927e-19)
(0.413325 0.508018 2.8681e-19)
(0.452944 0.492319 5.01247e-19)
(0.487823 0.469243 -6.11508e-19)
(0.519445 0.443413 4.8606e-19)
(0.548717 0.417343 3.90844e-19)
(0.576143 0.392195 -1.13803e-19)
(0.60199 0.368393 -6.06898e-20)
(0.626409 0.346025 2.24439e-19)
(0.649498 0.325046 -3.89731e-19)
(0.671337 0.305377 -5.25252e-19)
(0.691997 0.286933 2.00794e-19)
(0.711501 0.26965 -2.05502e-19)
(0.729956 0.253444 -2.45937e-19)
(0.747829 0.238059 -2.1513e-19)
(0.764297 0.22367 2.17672e-20)
(0.395299 0.489166 -4.97117e-19)
(0.435526 0.473748 -3.94456e-20)
(0.471278 0.451328 2.94234e-20)
(0.503874 0.426333 -5.08702e-20)
(0.534126 0.401157 -4.91046e-19)
(0.562494 0.376895 -2.20558e-20)
(0.589229 0.353945 -8.12859e-20)
(0.614476 0.332383 4.94564e-19)
(0.638337 0.312166 -1.55106e-19)
(0.660896 0.293215 -4.46476e-20)
(0.682226 0.275448 2.6509e-19)
(0.702357 0.258803 7.78435e-19)
(0.721401 0.243199 -7.90324e-20)
(0.739791 0.228405 -9.48759e-20)
(0.756757 0.214566 1.63258e-19)
(0.331217 0.471165 3.56847e-19)
(0.377904 0.469541 -2.11431e-19)
(0.418733 0.454464 -3.43797e-19)
(0.455339 0.432759 3.41336e-19)
(0.488879 0.408653 -1.14899e-19)
(0.52008 0.384416 3.2232e-19)
(0.549358 0.361082 1.48441e-19)
(0.576948 0.339021 -8.76091e-20)
(0.602995 0.3183 -3.36351e-19)
(0.627601 0.298875 4.20245e-19)
(0.650854 0.280671 -1.06179e-19)
(0.67283 0.263608 -4.65708e-19)
(0.693567 0.247624 -1.60473e-19)
(0.713178 0.232645 -5.09629e-20)
(0.732068 0.21846 8.07261e-19)
(0.749516 0.205188 -5.22702e-19)
(0.314368 0.451067 -2.64773e-19)
(0.361173 0.449173 5.24134e-19)
(0.402597 0.434495 9.51009e-20)
(0.440033 0.413562 2.59461e-19)
(0.474487 0.390393 1.94042e-19)
(0.506601 0.367141 -5.34061e-19)
(0.536754 0.344775 -2.81875e-19)
(0.565169 0.323638 5.26685e-19)
(0.591985 0.303791 -1.72952e-20)
(0.617307 0.285189 -4.34848e-19)
(0.641227 0.267759 1.12054e-19)
(0.663825 0.251425 5.43978e-19)
(0.685145 0.236127 -4.43395e-19)
(0.705301 0.221793 -1.81199e-19)
(0.724669 0.208236 -1.59622e-19)
(0.742585 0.195547 3.57636e-19)
(0.298203 0.430209 -3.58268e-19)
(0.34514 0.428092 -1.56149e-19)
(0.387148 0.413869 -6.61098e-20)
(0.425387 0.393761 -5.18107e-19)
(0.46072 0.371579 -3.9657e-19)
(0.493711 0.349353 5.29925e-19)
(0.524704 0.327993 2.95793e-19)
(0.553908 0.307815 -2.3294e-19)
(0.581461 0.288873 -2.7148e-19)
(0.60747 0.271123 2.95704e-19)
(0.63203 0.254494 -1.68689e-19)
(0.655223 0.238913 2.44546e-19)
(0.677101 0.224323 1.17983e-19)
(0.697779 0.210656 4.61923e-19)
(0.717605 0.197744 9.31919e-20)
(0.735972 0.185653 -4.23069e-19)
(0.282757 0.408624 -7.35787e-20)
(0.329837 0.40633 -2.0971e-19)
(0.372414 0.392616 1.84567e-19)
(0.411427 0.373383 6.88895e-20)
(0.447603 0.352235 -2.0693e-19)
(0.481433 0.331076 1.39135e-19)
(0.513228 0.310758 -3.717e-19)
(0.543185 0.291572 -8.31771e-20)
(0.571441 0.273564 3.43691e-19)
(0.598105 0.256693 1.23108e-19)
(0.623275 0.240891 1.94402e-19)
(0.647037 0.226088 -3.6992e-19)
(0.669449 0.212227 -1.43559e-19)
(0.690625 0.199246 -4.8741e-20)
(0.710887 0.186996 6.81358e-20)
(0.729687 0.175518 3.88901e-19)
(0.268062 0.386347 -1.64428e-19)
(0.315293 0.38392 3.6286e-19)
(0.358422 0.370765 5.80298e-19)
(0.398177 0.352457 1.664e-19)
(0.435157 0.332385 2.27565e-19)
(0.469786 0.312333 -3.11206e-21)
(0.502343 0.29309 1.09657e-19)
(0.533017 0.274927 3.87001e-19)
(0.561941 0.257884 -5.71121e-20)
(0.589228 0.241918 -7.00699e-19)
(0.614978 0.226966 6.13963e-21)
(0.63928 0.212962 3.97915e-20)
(0.662198 0.199852 3.70076e-20)
(0.683848 0.187577 -2.29557e-19)
(0.704523 0.176003 -2.13545e-19)
(0.723738 0.165153 -4.18577e-19)
(0.202686 0.34829 -1.10506e-19)
(0.254151 0.363413 2.19492e-19)
(0.301537 0.360895 2.16718e-19)
(0.345197 0.348348 -2.16117e-19)
(0.385659 0.331012 2.60437e-20)
(0.423403 0.312057 -1.42766e-19)
(0.458789 0.293147 3.5828e-20)
(0.492068 0.275013 -4.32458e-21)
(0.523419 0.257902 -1.73128e-19)
(0.552976 0.24185 -7.80967e-20)
(0.580852 0.226815 4.65748e-19)
(0.607151 0.212737 -3.513e-19)
(0.631964 0.199553 2.36484e-19)
(0.655361 0.187212 9.66981e-20)
(0.677458 0.17566 -2.2332e-20)
(0.698524 0.164779 7.17195e-21)
(0.718132 0.154571 2.30605e-19)
(0.190053 0.325967 3.06532e-19)
(0.241052 0.339861 -1.70089e-19)
(0.288597 0.337292 -3.0074e-19)
(0.332764 0.325398 -1.83097e-19)
(0.373897 0.309076 -3.56965e-19)
(0.412361 0.291278 2.93756e-19)
(0.44846 0.273544 -2.41656e-19)
(0.48242 0.25655 5.20329e-20)
(0.514408 0.240519 3.67635e-20)
(0.54456 0.225483 -1.6053e-19)
(0.57299 0.211402 1.87733e-19)
(0.599805 0.198219 2.84983e-19)
(0.6251 0.185876 -2.54774e-19)
(0.648948 0.174323 -2.92677e-19)
(0.671464 0.163511 5.6345e-19)
(0.692897 0.153336 -5.09647e-19)
(0.712878 0.143785 1.8714e-19)
(0.178218 0.303047 -2.55923e-19)
(0.228793 0.315729 5.45418e-20)
(0.276497 0.313145 1.19356e-19)
(0.321146 0.301947 -4.18816e-19)
(0.362909 0.286681 6.86196e-20)
(0.402051 0.270076 -2.86663e-19)
(0.438817 0.253551 2.45113e-19)
(0.473413 0.237724 5.87163e-20)
(0.505998 0.2228 -2.68655e-19)
(0.536706 0.208805 -6.11873e-20)
(0.565655 0.1957 1.46208e-19)
(0.592953 0.183432 6.93921e-20)
(0.618697 0.171948 -2.05016e-20)
(0.642967 0.161201 1.70274e-20)
(0.665877 0.151144 -4.95789e-19)
(0.687652 0.141688 3.5505e-19)
(0.707983 0.132806 3.31578e-19)
(0.16721 0.279572 2.33682e-19)
(0.217401 0.291056 1.60137e-19)
(0.265261 0.288493 3.04819e-19)
(0.310363 0.278031 4.25354e-20)
(0.352717 0.263858 2.97915e-20)
(0.392488 0.248479 -2.11638e-21)
(0.429876 0.233193 -3.13435e-19)
(0.465063 0.218561 1.65393e-19)
(0.498202 0.204768 -2.67998e-19)
(0.529427 0.191835 1.77832e-19)
(0.558858 0.179727 -2.87342e-19)
(0.586604 0.168394 -1.69878e-19)
(0.612767 0.157786 3.45691e-19)
(0.637429 0.14786 3.09252e-20)
(0.660703 0.138574 7.8339e-20)
(0.682796 0.129849 3.18994e-20)
(0.703454 0.121649 -3.65443e-19)
(0.157052 0.255581 -1.56616e-19)
(0.2069 0.265883 9.93398e-20)
(0.25491 0.263373 -2.24709e-19)
(0.300436 0.253684 1.71834e-19)
(0.343336 0.240639 2.44662e-20)
(0.383689 0.226518 1.46448e-19)
(0.421651 0.212498 -5.44527e-21)
(0.457383 0.199086 -1.45523e-19)
(0.491033 0.186446 1.44308e-19)
(0.522735 0.174596 -3.74132e-19)
(0.55261 0.163504 5.25405e-19)
(0.580769 0.153123 2.02284e-19)
(0.607317 0.143407 -4.26273e-19)
(0.63234 0.134318 4.31539e-20)
(0.655951 0.125816 2.81156e-19)
(0.678336 0.117834 -4.00337e-19)
(0.699296 0.110327 -2.04372e-21)
(0.147769 0.231117 1.02815e-19)
(0.19731 0.240251 -8.48429e-20)
(0.245466 0.237824 -4.23866e-20)
(0.291382 0.228942 -8.62036e-20)
(0.334783 0.217057 -1.10402e-19)
(0.37567 0.204223 -3.08568e-19)
(0.414156 0.191494 1.35536e-19)
(0.450386 0.179324 -1.90129e-19)
(0.484503 0.167858 3.51546e-19)
(0.51664 0.15711 2.38917e-19)
(0.54692 0.147051 -4.23809e-19)
(0.575457 0.137638 -4.2878e-19)
(0.602357 0.12883 2.05822e-19)
(0.62771 0.12059 -2.30977e-19)
(0.651628 0.112885 -2.87042e-20)
(0.674279 0.105656 2.29232e-19)
(0.695516 0.0988544 -4.27143e-19)
(0.139382 0.206225 -1.65306e-19)
(0.188653 0.214203 -2.38258e-19)
(0.236945 0.211886 3.5116e-19)
(0.283218 0.203841 4.89288e-20)
(0.327074 0.193145 1.7768e-19)
(0.368444 0.181623 1.88406e-19)
(0.407403 0.17021 -4.48038e-20)
(0.444083 0.159302 2.66832e-19)
(0.478622 0.149029 -1.58244e-19)
(0.511152 0.1394 -2.0652e-19)
(0.541799 0.13039 3.31252e-19)
(0.570677 0.12196 3.78985e-19)
(0.597894 0.114073 -4.3771e-19)
(0.623546 0.106695 6.04939e-20)
(0.64774 0.0997985 -4.05034e-20)
(0.670632 0.0933315 -1.43381e-19)
(0.69212 0.0872443 5.72741e-20)
(0.13191 0.180948 1.81805e-19)
(0.180947 0.18778 1.31941e-19)
(0.229364 0.185599 -1.8976e-19)
(0.275958 0.178418 8.9494e-20)
(0.320222 0.168938 1.01587e-19)
(0.362022 0.158752 -3.21395e-19)
(0.401404 0.148673 1.58411e-19)
(0.438485 0.139047 1.79851e-20)
(0.4734 0.129983 1.53698e-19)
(0.506281 0.121489 -2.00312e-19)
(0.537253 0.113542 2.52395e-20)
(0.566435 0.106108 -1.59417e-20)
(0.593936 0.0991535 2.22896e-20)
(0.619852 0.0926497 1.36683e-19)
(0.644293 0.0865712 2.4613e-20)
(0.667399 0.0808751 -3.05517e-20)
(0.689111 0.0755115 3.69723e-21)
(0.125371 0.15533 -2.73331e-20)
(0.174208 0.161028 1.6191e-19)
(0.222739 0.159003 -2.05596e-19)
(0.269616 0.152712 5.15095e-20)
(0.314238 0.14447 -1.83555e-19)
(0.356416 0.13564 5.32917e-22)
(0.396168 0.126914 -2.97732e-19)
(0.433601 0.118586 -2.18007e-19)
(0.468845 0.110746 1.17533e-19)
(0.502032 0.103401 3.11712e-20)
(0.533291 0.0965292 -8.32139e-20)
(0.562739 0.0901023 1.12103e-19)
(0.590487 0.0840916 8.24689e-20)
(0.616636 0.0784714 1.39029e-19)
(0.641293 0.0732202 6.87991e-20)
(0.664586 0.0683024 1.59019e-19)
(0.686495 0.0636704 6.46491e-20)
(0.0734259 0.114625 2.64365e-19)
(0.119779 0.129418 -1.03782e-19)
(0.168449 0.133991 -4.7843e-20)
(0.217081 0.13214 -9.14328e-20)
(0.264203 0.126759 8.84647e-21)
(0.309133 0.119775 6.52834e-20)
(0.351635 0.11232 2.03417e-19)
(0.391705 0.104963 2.50719e-19)
(0.429439 0.0979464 9.79013e-20)
(0.464964 0.0913433 -2.36709e-20)
(0.498415 0.0851586 -5.14297e-20)
(0.529918 0.0793736 -1.30352e-19)
(0.559594 0.0739643 1.58716e-20)
(0.587555 0.0689064 -1.55466e-20)
(0.613903 0.0641783 -1.13673e-19)
(0.638744 0.0597622 -1.18279e-20)
(0.662197 0.0556292 -2.29762e-19)
(0.684275 0.0517357 4.51068e-21)
(0.0692904 0.091628 -1.08158e-19)
(0.115148 0.103258 -5.72855e-21)
(0.163684 0.106712 -1.2328e-20)
(0.212402 0.105053 6.11233e-20)
(0.25973 0.100599 -1.92428e-19)
(0.304916 0.0948904 -7.58293e-20)
(0.347688 0.0888236 -1.30162e-19)
(0.388022 0.0828496 5.23971e-21)
(0.426006 0.0771564 4.39197e-20)
(0.461765 0.0718012 9.88367e-20)
(0.495434 0.0667868 -1.96664e-20)
(0.52714 0.0620977 8.75453e-20)
(0.557005 0.0577144 -4.31296e-20)
(0.585142 0.0536171 -1.57157e-19)
(0.611656 0.0497884 -1.66674e-20)
(0.63665 0.046214 -3.6696e-20)
(0.660236 0.0428712 1.75421e-19)
(0.682454 0.0397224 -3.01118e-20)
(0.066019 0.0684383 -2.52775e-20)
(0.111489 0.0768954 5.58064e-20)
(0.159921 0.0792373 4.37358e-20)
(0.208712 0.0777818 1.25406e-20)
(0.256204 0.0742707 1.48459e-19)
(0.301595 0.0698508 -4.03085e-20)
(0.344582 0.0651851 3.61451e-20)
(0.385125 0.0606042 4.3239e-20)
(0.423307 0.0562443 3.01704e-20)
(0.459253 0.0521459 -8.24865e-20)
(0.493095 0.0483099 1.09258e-19)
(0.524962 0.0447242 8.27713e-20)
(0.554977 0.0413738 -3.27454e-20)
(0.583254 0.0382435 1.33937e-19)
(0.609899 0.0353201 2.1133e-19)
(0.635015 0.0325928 -3.12239e-20)
(0.658706 0.0300447 7.96098e-20)
(0.681036 0.027645 -3.61951e-20)
(0.0636199 0.0451011 1.71513e-20)
(0.108809 0.0503782 -8.82704e-20)
(0.15717 0.0516125 4.57753e-20)
(0.206017 0.0503706 1.35248e-19)
(0.253632 0.047813 -1.09265e-19)
(0.299175 0.0446923 -6.34302e-21)
(0.342321 0.0414371 2.84549e-20)
(0.383019 0.0382577 6.38376e-20)
(0.421348 0.0352386 6.00261e-21)
(0.457431 0.0324038 -2.07132e-20)
(0.491401 0.0297525 -3.3854e-20)
(0.523387 0.0272759 -3.60044e-20)
(0.553514 0.0249637 1.38705e-20)
(0.581894 0.0228054 1.40111e-20)
(0.608635 0.0207918 -7.11292e-20)
(0.633841 0.0189158 -7.01175e-21)
(0.657609 0.0171656 -1.71844e-19)
(0.680021 0.0155186 7.21179e-20)
(0.0620993 0.0216613 -8.13525e-21)
(0.107116 0.0237534 3.7399e-20)
(0.155436 0.0238833 -2.19471e-20)
(0.204322 0.0228619 -6.92826e-20)
(0.252019 0.0212655 3.37096e-20)
(0.297661 0.0194513 -7.76451e-22)
(0.340909 0.0176132 -9.83281e-20)
(0.381707 0.0158409 5.99958e-20)
(0.420131 0.0141679 -4.07054e-20)
(0.456302 0.0126014 3.24682e-20)
(0.490355 0.0111392 -2.68474e-20)
(0.522418 0.00977586 1.42018e-20)
(0.552616 0.00850556 2.59225e-20)
(0.581063 0.00732268 -7.6414e-20)
(0.607867 0.00622221 7.26145e-21)
(0.63313 0.00520035 -3.46186e-21)
(0.656947 0.00425086 4.36228e-20)
(0.679411 0.00336042 9.84804e-22)
(0.0614612 -0.00183566 5.6153e-21)
(0.106412 -0.0029316 7.03715e-21)
(0.154723 -0.00390426 -1.40103e-20)
(0.203632 -0.00470134 2.70334e-20)
(0.251367 -0.00533232 -1.07158e-20)
(0.297055 -0.00583591 3.35625e-20)
(0.34035 -0.00625327 3.0917e-20)
(0.381193 -0.00661499 -3.87091e-20)
(0.419659 -0.00693907 -1.43425e-20)
(0.45587 -0.00723443 1.96461e-20)
(0.489959 -0.00750506 -1.38408e-20)
(0.522057 -0.0077529 -1.78149e-20)
(0.552286 -0.00797911 1.58194e-21)
(0.580763 -0.00818463 1.85304e-20)
(0.607594 -0.00837017 3.63651e-20)
(0.632883 -0.00853609 2.72603e-21)
(0.656722 -0.0086834 4.07794e-21)
(0.679209 -0.00881482 1.80677e-20)
(0.0617071 -0.0253443 4.46424e-21)
(0.1067 -0.029629 8.328e-21)
(0.155032 -0.031704 -7.0511e-21)
(0.203947 -0.0322761 2.55428e-20)
(0.251679 -0.0319407 -1.42116e-20)
(0.297359 -0.0311328 3.70163e-20)
(0.340644 -0.0301285 2.27686e-20)
(0.381477 -0.0290789 -3.06557e-20)
(0.419933 -0.0280533 -1.12697e-20)
(0.456134 -0.027077 1.40437e-20)
(0.490214 -0.0261554 -1.17197e-20)
(0.522304 -0.0252872 -2.29051e-20)
(0.552525 -0.0244688 6.0901e-21)
(0.580994 -0.0236965 1.64762e-20)
(0.607819 -0.0229666 3.73242e-20)
(0.633101 -0.0222763 3.21194e-21)
(0.656934 -0.0216212 2.8433e-21)
(0.679417 -0.0209942 1.92488e-20)
(0.0628368 -0.0488193 3.03088e-20)
(0.10798 -0.0562913 2.33313e-20)
(0.156363 -0.0594699 -1.89471e-20)
(0.205267 -0.0598192 -1.13116e-19)
(0.252954 -0.05852 6.87171e-20)
(0.298573 -0.0564028 -1.14104e-20)
(0.341791 -0.053979 -5.37214e-20)
(0.382558 -0.0515199 2.32781e-23)
(0.420952 -0.0491461 -2.98318e-20)
(0.457095 -0.0468994 3.90644e-20)
(0.49112 -0.044787 -3.93254e-20)
(0.523159 -0.0428039 3.32817e-20)
(0.553333 -0.040942 1.25716e-20)
(0.581758 -0.0391928 -6.06494e-20)
(0.608541 -0.0375485 1.82626e-20)
(0.633784 -0.0360027 -2.9901e-21)
(0.657583 -0.0345462 3.2213e-20)
(0.680031 -0.0331622 3.32264e-21)
(0.0648474 -0.072215 -4.58076e-20)
(0.110247 -0.0828709 -7.15755e-20)
(0.158713 -0.0871557 8.24195e-20)
(0.20759 -0.0872877 1.26414e-19)
(0.255189 -0.0850305 -1.13265e-19)
(0.300694 -0.0816097 2.99423e-20)
(0.34379 -0.0777711 1.46067e-20)
(0.384436 -0.0739067 7.30567e-20)
(0.422715 -0.0701885 -1.97465e-20)
(0.45875 -0.066675 -6.83532e-20)
(0.492676 -0.0633748 1.40452e-20)
(0.524621 -0.0602798 -5.27808e-20)
(0.554708 -0.0573771 4.21606e-20)
(0.583052 -0.0546536 1.20314e-20)
(0.609758 -0.0520972 -9.44906e-20)
(0.634931 -0.0496981 5.64444e-21)
(0.658669 -0.0474418 -1.38454e-19)
(0.681051 -0.0453025 3.12398e-20)
(0.067734 -0.0954864 2.31295e-20)
(0.113499 -0.10932 3.13743e-20)
(0.162078 -0.114716 -5.78554e-20)
(0.210911 -0.114639 1.07699e-20)
(0.258382 -0.111433 1.88512e-19)
(0.303719 -0.106717 1.92552e-20)
(0.346636 -0.101471 3.91556e-20)
(0.387107 -0.0962083 5.36393e-21)
(0.425219 -0.0911519 6.58101e-20)
(0.461099 -0.086377 -7.31189e-20)
(0.494878 -0.0818942 1.03844e-19)
(0.526688 -0.0776919 3.08187e-21)
(0.556649 -0.0737527 -2.62852e-20)
(0.584874 -0.0700588 2.01185e-19)
(0.611471 -0.066594 1.56739e-19)
(0.63654 -0.0633449 -8.14193e-20)
(0.660189 -0.0602916 1.07869e-19)
(0.682477 -0.0574 -2.40692e-21)
(0.0714895 -0.118588 -1.62477e-19)
(0.117727 -0.135592 7.1533e-21)
(0.16645 -0.142104 -2.93125e-20)
(0.215225 -0.141829 -4.79815e-21)
(0.262526 -0.137688 -9.56405e-20)
(0.307643 -0.131688 -1.10893e-19)
(0.350327 -0.125046 -4.6321e-20)
(0.390568 -0.118394 -1.59698e-19)
(0.428461 -0.112008 1.78931e-19)
(0.464136 -0.105979 3.68054e-20)
(0.497725 -0.10032 -7.45861e-20)
(0.529357 -0.0950172 1.27272e-19)
(0.559152 -0.0900474 -5.53992e-20)
(0.587223 -0.0853886 -1.25976e-19)
(0.613675 -0.0810204 -2.97654e-20)
(0.63861 -0.076926 -3.97546e-20)
(0.662141 -0.0730795 6.38983e-20)
(0.684306 -0.0694397 -4.65821e-21)
(0.0761047 -0.141476 1.03158e-20)
(0.122921 -0.16164 -2.52372e-20)
(0.171822 -0.169275 -7.11157e-20)
(0.220523 -0.168817 -3.30322e-20)
(0.267614 -0.163756 -5.91392e-20)
(0.31246 -0.156488 4.17083e-20)
(0.354855 -0.148463 2.47456e-19)
(0.394812 -0.140433 2.1536e-19)
(0.432436 -0.132727 1.35474e-19)
(0.467858 -0.125454 -5.05849e-20)
(0.501211 -0.118629 2.82185e-20)
(0.532623 -0.112233 -2.08192e-19)
(0.562214 -0.10624 7.23766e-20)
(0.590095 -0.100623 -5.74199e-20)
(0.616367 -0.0953581 -8.13071e-20)
(0.641137 -0.090424 4.33684e-20)
(0.664524 -0.0857892 -3.69249e-19)
(0.686536 -0.0814065 1.33449e-19)
(0.129072 -0.187417 5.14566e-20)
(0.178182 -0.196184 -2.24493e-20)
(0.226796 -0.195561 -3.41214e-20)
(0.273638 -0.189598 -1.12533e-19)
(0.318161 -0.181081 -2.37165e-20)
(0.360213 -0.171688 -1.04658e-20)
(0.399833 -0.162295 -3.8574e-19)
(0.437136 -0.153283 -2.81807e-19)
(0.472258 -0.144777 1.64673e-19)
(0.505332 -0.136796 2.40801e-20)
(0.536483 -0.129317 6.19793e-20)
(0.565831 -0.12231 -5.93866e-20)
(0.593485 -0.115743 3.03029e-19)
(0.619545 -0.109589 5.93153e-20)
(0.644117 -0.103822 8.84981e-20)
(0.667333 -0.0984048 2.07786e-19)
(0.689165 -0.0932856 -1.11115e-19)
(0.136163 -0.212877 6.64251e-20)
(0.185518 -0.222786 5.94777e-20)
(0.234032 -0.222018 -9.12323e-20)
(0.280587 -0.215177 1.57599e-19)
(0.324738 -0.205431 2.24272e-20)
(0.366393 -0.19469 -2.86107e-19)
(0.405623 -0.18395 1.80102e-19)
(0.442556 -0.173646 7.1952e-20)
(0.47733 -0.163922 -8.36474e-20)
(0.51008 -0.154796 2.24859e-20)
(0.54093 -0.146246 1.04747e-20)
(0.569996 -0.138235 -8.56992e-20)
(0.597389 -0.130729 2.17999e-19)
(0.623204 -0.123694 -7.67877e-20)
(0.647548 -0.117103 5.54632e-20)
(0.670564 -0.11091 1.18307e-19)
(0.692189 -0.105062 -4.3846e-20)
(0.144181 -0.237976 -9.07397e-20)
(0.193814 -0.249037 -3.27185e-19)
(0.242218 -0.248147 2.20534e-19)
(0.288448 -0.240454 1.05877e-19)
(0.332178 -0.229503 1.81768e-19)
(0.373385 -0.217436 1.96037e-19)
(0.412173 -0.205369 1.2456e-19)
(0.448686 -0.19379 1.64221e-19)
(0.483067 -0.182862 -2.95861e-19)
(0.515449 -0.172607 3.30214e-20)
(0.545957 -0.162999 6.44553e-20)
(0.574705 -0.153997 3.32352e-19)
(0.601801 -0.145562 -1.8103e-19)
(0.627337 -0.137657 -4.56106e-20)
(0.651422 -0.130251 -1.04957e-19)
(0.674213 -0.12329 -6.84297e-20)
(0.695603 -0.116721 1.78181e-19)
(0.153106 -0.262667 2.37185e-21)
(0.203054 -0.274895 -3.62901e-20)
(0.251338 -0.273908 1.42637e-19)
(0.297208 -0.265392 -3.08237e-19)
(0.34047 -0.253264 -1.76538e-20)
(0.381177 -0.239895 -2.74723e-19)
(0.419472 -0.226521 1.55461e-19)
(0.455516 -0.213687 -2.49799e-19)
(0.489458 -0.201573 2.40582e-19)
(0.52143 -0.190205 2.13987e-19)
(0.551557 -0.179553 -1.74868e-19)
(0.57995 -0.169574 -6.05445e-19)
(0.606714 -0.160222 3.23385e-19)
(0.631939 -0.15146 -2.60161e-19)
(0.655736 -0.14325 -5.68408e-20)
(0.678275 -0.13553 2.10751e-19)
(0.699403 -0.128249 -1.72622e-19)
(0.162919 -0.286908 -1.36755e-19)
(0.213218 -0.300314 1.72682e-19)
(0.261374 -0.29926 -3.28811e-19)
(0.306852 -0.289953 6.07963e-20)
(0.3496 -0.276679 -6.73198e-21)
(0.389756 -0.262034 3.77625e-19)
(0.427509 -0.247379 -2.3487e-19)
(0.463036 -0.233311 -4.98028e-20)
(0.496494 -0.22003 6.49179e-20)
(0.528015 -0.207567 -8.19968e-20)
(0.557721 -0.195888 3.17858e-19)
(0.585722 -0.184946 1.7595e-19)
(0.612121 -0.174693 -3.53842e-19)
(0.637004 -0.165084 1.91762e-19)
(0.660482 -0.156082 2.63913e-19)
(0.682744 -0.147613 -4.82325e-19)
(0.703585 -0.139631 1.75544e-21)
(0.173596 -0.310655 1.35146e-19)
(0.224286 -0.325255 1.87035e-19)
(0.272308 -0.324165 1.07094e-19)
(0.317362 -0.314103 4.35772e-19)
(0.359551 -0.299715 -5.52459e-20)
(0.399109 -0.283825 1.7796e-19)
(0.43627 -0.267914 -6.21318e-19)
(0.471235 -0.252635 3.54486e-19)
(0.504164 -0.23821 -2.18563e-19)
(0.535193 -0.22467 6.40789e-20)
(0.564439 -0.211982 -3.44206e-19)
(0.592014 -0.200094 -2.72812e-20)
(0.618015 -0.188954 2.77757e-19)
(0.642524 -0.178515 4.64952e-20)
(0.665655 -0.168733 -1.35782e-20)
(0.687614 -0.159525 2.29508e-20)
(0.708142 -0.150853 -3.07875e-19)
(0.185114 -0.333867 -1.88097e-19)
(0.236235 -0.349676 1.54094e-20)
(0.284119 -0.348584 1.68242e-19)
(0.328719 -0.337804 -3.78976e-19)
(0.370308 -0.32234 3.98935e-20)
(0.409219 -0.305236 -4.45264e-19)
(0.445741 -0.288098 4.92719e-19)
(0.480097 -0.271634 -1.29274e-19)
(0.512456 -0.256087 -1.46325e-19)
(0.542952 -0.241492 4.23443e-21)
(0.571703 -0.227815 1.67585e-21)
(0.598815 -0.215 2.5941e-19)
(0.624386 -0.202989 -3.79477e-20)
(0.648492 -0.191734 -3.29434e-19)
(0.671246 -0.181187 -4.08307e-19)
(0.692877 -0.171252 4.75543e-19)
(0.713069 -0.161902 2.99813e-19)
(0.197447 -0.356501 2.18188e-19)
(0.249039 -0.373536 -3.37086e-19)
(0.296785 -0.372478 -3.20026e-19)
(0.340904 -0.361023 1.28068e-19)
(0.381851 -0.344521 -5.34762e-19)
(0.42007 -0.326239 5.37e-19)
(0.455908 -0.307904 -2.3406e-19)
(0.489611 -0.290283 -2.36382e-19)
(0.521357 -0.273639 2.10458e-20)
(0.551281 -0.258013 -5.65282e-22)
(0.5795 -0.243367 -2.97821e-20)
(0.606116 -0.229644 1.99497e-19)
(0.631224 -0.21678 -1.89661e-19)
(0.654897 -0.204726 9.78368e-20)
(0.677247 -0.193428 2.12012e-19)
(0.698526 -0.182779 -2.6573e-19)
(0.718359 -0.172764 -5.45205e-20)
(0.210564 -0.378519 -3.12701e-20)
(0.262672 -0.396797 2.37841e-19)
(0.31028 -0.395812 2.13525e-19)
(0.353893 -0.383725 -3.35757e-19)
(0.394162 -0.366228 1.81279e-19)
(0.431645 -0.346805 -1.39448e-19)
(0.466753 -0.327307 -9.46538e-21)
(0.49976 -0.308558 3.52783e-20)
(0.530853 -0.290843 -8.42543e-20)
(0.560168 -0.27421 1.6777e-19)
(0.587818 -0.258619 -9.12746e-20)
(0.613905 -0.244008 -2.71053e-19)
(0.638521 -0.230311 3.85871e-19)
(0.661732 -0.217475 2.39649e-19)
(0.683651 -0.205443 -3.0725e-19)
(0.704553 -0.194093 1.78364e-19)
(0.724005 -0.183426 2.60144e-19)
(0.277105 -0.41942 4.58594e-20)
(0.32458 -0.418549 1.69319e-19)
(0.367665 -0.405878 3.36028e-19)
(0.407218 -0.38743 2.53204e-19)
(0.443924 -0.366906 4.88171e-19)