/*--------------------------------*- C++ -*----------------------------------*\
  =========                 |
  \\      /  F ield         | OpenFOAM: The Open Source CFD Toolbox
   \\    /   O peration     | Website:  https://openfoam.org
    \\  /    A nd           | Version:  7
     \\/     M anipulation  |
\*---------------------------------------------------------------------------*/
FoamFile
{
    version     2.0;
    format      ascii;
    class       volScalarField;
    location    "30";
    object      p;
}
// * * * * * * * * * * * * * * * * * * * * * * * * * * * * * * * * * * * * * //

dimensions      [0 2 -2 0 0 0 0];

internalField   nonuniform List<scalar> 
8500
(
0.0926817
0.0961305
0.102695
0.0999879
0.106692
0.11275
0.104567
0.111126
0.117312
0.122809
0.116364
0.122338
0.127973
0.132838
0.121679
0.12824
0.133615
0.138667
0.142813
0.127061
0.134286
0.140184
0.144954
0.149389
0.152641
0.140438
0.146967
0.152193
0.156369
0.160097
0.162046
0.14668
0.153888
0.159713
0.164276
0.16789
0.170724
0.170748
0.160924
0.167394
0.172513
0.176444
0.17952
0.181274
0.179299
0.168037
0.175212
0.180936
0.185353
0.188672
0.191168
0.191709
0.190202
0.175179
0.183144
0.18952
0.194492
0.198207
0.200901
0.202769
0.20259
0.201665
0.191146
0.198255
0.203825
0.208039
0.211051
0.213101
0.214325
0.213579
0.212692
0.199161
0.207102
0.213347
0.218105
0.221556
0.223859
0.225254
0.225839
0.224577
0.223487
0.216002
0.22302
0.228395
0.232335
0.23502
0.236609
0.237339
0.237288
0.235512
0.234095
0.224889
0.232784
0.238873
0.243374
0.246492
0.248406
0.249278
0.249337
0.24865
0.246346
0.244527
0.24257
0.249478
0.254635
0.258258
0.260553
0.261695
0.261845
0.26123
0.259904
0.257058
0.254792
0.260137
0.266055
0.270278
0.273024
0.274493
0.274862
0.27429
0.272998
0.271031
0.267634
0.264891
0.270782
0.277558
0.282486
0.285777
0.287645
0.288291
0.287888
0.286594
0.284623
0.282014
0.27806
0.27482
0.28907
0.294803
0.298744
0.301105
0.302099
0.301924
0.300752
0.298737
0.296089
0.292838
0.288325
0.284574
0.300545
0.307146
0.31184
0.314799
0.316235
0.31636
0.31537
0.313432
0.3107
0.307378
0.303488
0.298416
0.294145
0.319459
0.324977
0.328641
0.330624
0.331142
0.330405
0.328605
0.325908
0.322466
0.318473
0.313948
0.308321
0.303525
0.338088
0.342533
0.345173
0.346192
0.345801
0.344211
0.34161
0.338162
0.334015
0.329358
0.324206
0.318029
0.312706
0.35118
0.356396
0.359779
0.361409
0.361474
0.360186
0.357754
0.354362
0.350172
0.34533
0.340018
0.334246
0.327527
0.321676
0.370221
0.374351
0.376685
0.377319
0.376444
0.374273
0.371011
0.366841
0.361921
0.356394
0.350437
0.344055
0.336803
0.330426
0.388859
0.391917
0.39322
0.392875
0.391077
0.388038
0.383961
0.379027
0.373389
0.36719
0.360598
0.353619
0.345844
0.338945
0.403413
0.407057
0.409063
0.409354
0.408049
0.405345
0.401456
0.396581
0.390898
0.384559
0.377701
0.370488
0.362923
0.354637
0.347222
0.422183
0.424781
0.425756
0.425057
0.422813
0.419225
0.414505
0.408851
0.402437
0.395411
0.387911
0.380091
0.371956
0.363172
0.355247
0.440423
0.441997
0.441965
0.4403
0.437141
0.432692
0.427163
0.420749
0.413622
0.405929
0.397803
0.389392
0.380703
0.371435
0.363009
0.458095
0.458671
0.45766
0.455056
0.451008
0.445722
0.439406
0.432255
0.424437
0.416096
0.407362
0.398378
0.389151
0.379414
0.370498
0.474277
0.475166
0.474772
0.472811
0.469297
0.464388
0.458291
0.451215
0.44335
0.434863
0.425895
0.416573
0.407034
0.397287
0.387098
0.377704
0.491634
0.491602
0.49027
0.48739
0.482997
0.477257
0.470378
0.462568
0.454015
0.444883
0.43531
0.42542
0.415347
0.4051
0.394475
0.384616
0.508291
0.507371
0.505134
0.50137
0.496132
0.489592
0.481962
0.473446
0.464232
0.45448
0.444325
0.433891
0.423304
0.412577
0.401534
0.391226
0.524216
0.522441
0.519336
0.514724
0.508676
0.501371
0.493021
0.48383
0.473983
0.463637
0.452926
0.441971
0.430892
0.419706
0.408265
0.397522
0.539377
0.536784
0.532849
0.527428
0.520606
0.512572
0.503535
0.493701
0.483251
0.472339
0.461099
0.449647
0.4381
0.426478
0.414656
0.403498
0.556286
0.553743
0.55037
0.545647
0.539457
0.531902
0.523175
0.513488
0.503043
0.49202
0.480572
0.46883
0.456907
0.444915
0.43288
0.420698
0.409143
0.570512
0.567285
0.563175
0.557705
0.550789
0.542542
0.533161
0.522859
0.511838
0.500275
0.488322
0.476105
0.463738
0.451327
0.438903
0.426382
0.414451
0.583847
0.579976
0.575172
0.569001
0.561403
0.552506
0.542511
0.531634
0.520072
0.508003
0.495574
0.482914
0.47013
0.457327
0.444537
0.431699
0.419412
0.596265
0.591791
0.586339
0.579513
0.571279
0.561776
0.55121
0.539795
0.52773
0.515189
0.502318
0.489243
0.476072
0.462903
0.449773
0.43664
0.424021
0.607739
0.602706
0.596653
0.589222
0.580399
0.570335
0.55924
0.547329
0.534798
0.521821
0.508542
0.495084
0.481554
0.468047
0.454603
0.441197
0.42827
0.618247
0.612699
0.606094
0.598107
0.588745
0.578167
0.566587
0.554221
0.541265
0.527887
0.514234
0.500426
0.486567
0.47275
0.45902
0.445364
0.432152
0.627766
0.621751
0.614645
0.606153
0.596301
0.585258
0.573239
0.560461
0.547117
0.533378
0.519385
0.50526
0.491103
0.477006
0.463015
0.449134
0.435664
0.636278
0.629843
0.622288
0.613344
0.603054
0.591594
0.579182
0.566035
0.552346
0.538283
0.523987
0.509577
0.495155
0.480806
0.466584
0.4525
0.438798
0.643763
0.636959
0.629008
0.619667
0.608991
0.597164
0.584407
0.570935
0.556942
0.542593
0.528031
0.513371
0.498714
0.484145
0.469718
0.455457
0.44155
0.65658
0.650209
0.643085
0.634793
0.625109
0.614101
0.601958
0.588903
0.575152
0.560896
0.546303
0.53151
0.516635
0.501777
0.487018
0.472415
0.458001
0.443918
0.662195
0.6556
0.648209
0.639631
0.62966
0.618373
0.605966
0.592662
0.578677
0.564203
0.549403
0.534419
0.519364
0.504337
0.489419
0.474669
0.460127
0.445896
0.666702
0.659926
0.65232
0.643512
0.633311
0.621801
0.609182
0.595678
0.581505
0.566855
0.551891
0.536751
0.521553
0.50639
0.491344
0.476477
0.461832
0.447482
0.67009
0.663179
0.655411
0.64643
0.636055
0.624378
0.611599
0.597944
0.58363
0.568848
0.55376
0.538505
0.523197
0.507933
0.492791
0.477835
0.463113
0.448673
0.672353
0.665351
0.657475
0.648379
0.637888
0.626099
0.613213
0.599458
0.58505
0.570179
0.555008
0.539675
0.524295
0.508963
0.493757
0.478742
0.463968
0.449469
0.673486
0.666438
0.658508
0.649354
0.638805
0.62696
0.614021
0.600215
0.58576
0.570845
0.555633
0.540261
0.524845
0.509479
0.494241
0.479196
0.464396
0.449867
0.673486
0.666438
0.658508
0.649354
0.638806
0.62696
0.614021
0.600216
0.58576
0.570845
0.555633
0.540261
0.524845
0.509479
0.494241
0.479196
0.464397
0.449867
0.672354
0.665352
0.657476
0.648379
0.637889
0.626099
0.613213
0.599458
0.58505
0.570179
0.555009
0.539676
0.524296
0.508964
0.493758
0.478742
0.463969
0.449469
0.670091
0.66318
0.655412
0.646431
0.636056
0.624379
0.6116
0.597945
0.583631
0.568849
0.553761
0.538505
0.523198
0.507934
0.492792
0.477836
0.463114
0.448674
0.666703
0.659928
0.652322
0.643514
0.633312
0.621802
0.609183
0.595679
0.581506
0.566856
0.551892
0.536752
0.521553
0.506391
0.491345
0.476478
0.461833
0.447482
0.662197
0.655601
0.648211
0.639632
0.629661
0.618375
0.605968
0.592663
0.578678
0.564204
0.549405
0.53442
0.519365
0.504338
0.48942
0.47467
0.460128
0.445896
0.656582
0.650211
0.643087
0.634795
0.62511
0.614102
0.601959
0.588904
0.575153
0.560898
0.546304
0.531511
0.516637
0.501778
0.487019
0.472416
0.458002
0.443919
0.643766
0.636961
0.62901
0.619669
0.608993
0.597166
0.584409
0.570937
0.556944
0.542595
0.528032
0.513373
0.498716
0.484147
0.46972
0.455458
0.441552
0.63628
0.629846
0.62229
0.613347
0.603056
0.591596
0.579185
0.566037
0.552348
0.538285
0.523989
0.509579
0.495156
0.480808
0.466585
0.452501
0.438799
0.627769
0.621754
0.614648
0.606156
0.596304
0.58526
0.573241
0.560463
0.54712
0.53338
0.519387
0.505262
0.491105
0.477008
0.463017
0.449135
0.435665
0.61825
0.612703
0.606097
0.59811
0.588747
0.57817
0.56659
0.554224
0.541267
0.52789
0.514236
0.500428
0.486569
0.472752
0.459022
0.445366
0.432154
0.607743
0.60271
0.596656
0.589225
0.580402
0.570338
0.559243
0.547332
0.534801
0.521823
0.508544
0.495087
0.481556
0.468049
0.454606
0.4412
0.428272
0.596269
0.591795
0.586343
0.579517
0.571283
0.561779
0.551213
0.539798
0.527733
0.515192
0.502321
0.489246
0.476074
0.462905
0.449776
0.436642
0.424023
0.583852
0.57998
0.575176
0.569005
0.561407
0.55251
0.542515
0.531637
0.520076
0.508006
0.495578
0.482917
0.470133
0.457329
0.444539
0.431702
0.419415
0.570517
0.567289
0.56318
0.55771
0.550793
0.542546
0.533164
0.522863
0.511842
0.500279
0.488325
0.476108
0.463741
0.451331
0.438905
0.426385
0.414453
0.556291
0.553748
0.550375
0.545651
0.539461
0.531906
0.523179
0.513492
0.503047
0.492024
0.480576
0.468833
0.45691
0.444918
0.432883
0.420701
0.409146
0.539382
0.536789
0.532854
0.527432
0.520611
0.512576
0.50354
0.493706
0.483255
0.472343
0.461103
0.449651
0.438103
0.426481
0.414659
0.403501
0.524222
0.522447
0.519341
0.514729
0.508681
0.501375
0.493025
0.483835
0.473987
0.463641
0.45293
0.441975
0.430896
0.41971
0.408268
0.397526
0.508297
0.507377
0.50514
0.501375
0.496137
0.489597
0.481966
0.473451
0.464237
0.454484
0.44433
0.433895
0.423308
0.412581
0.401538
0.391229
0.49164
0.491608
0.490276
0.487396
0.483003
0.477262
0.470383
0.462573
0.45402
0.444888
0.435314
0.425425
0.415351
0.405104
0.394479
0.38462
0.474284
0.475173
0.474779
0.472817
0.469303
0.464394
0.458297
0.451221
0.443356
0.434868
0.4259
0.416577
0.407038
0.397291
0.387102
0.377708
0.458102
0.458678
0.457667
0.455062
0.451014
0.445727
0.439412
0.432261
0.424443
0.416101
0.407367
0.398383
0.389155
0.379419
0.370503
0.44043
0.442004
0.441972
0.440307
0.437148
0.432698
0.427169
0.420755
0.413628
0.405935
0.397808
0.389397
0.380707
0.37144
0.363014
0.422191
0.424788
0.425763
0.425064
0.42282
0.419232
0.414512
0.408857
0.402442
0.395417
0.387916
0.380096
0.371961
0.363177
0.355252
0.407065
0.409071
0.409361
0.408056
0.405352
0.401463
0.396588
0.390904
0.384565
0.377707
0.370493
0.362929
0.354643
0.347227
0.388867
0.391925
0.393228
0.392883
0.391084
0.388045
0.383967
0.379033
0.373395
0.367196
0.360604
0.353624
0.345849
0.33895
0.37023
0.374359
0.376693
0.377327
0.376452
0.37428
0.371018
0.366848
0.361927
0.356401
0.350443
0.344061
0.336808
0.330431
0.351189
0.356405
0.359787
0.361417
0.361482
0.360194
0.357761
0.354369
0.350179
0.345337
0.340024
0.334252
0.327533
0.321682
0.338097
0.342541
0.345182
0.3462
0.345809
0.344218
0.341617
0.338168
0.334021
0.329365
0.324212
0.318035
0.312712
0.319468
0.324986
0.328649
0.330633
0.33115
0.330413
0.328613
0.325915
0.322473
0.31848
0.313955
0.308327
0.303531
0.300555
0.307155
0.311849
0.314808
0.316243
0.316368
0.315377
0.313439
0.310708
0.307385
0.303494
0.298422
0.294151
0.289079
0.294812
0.298753
0.301113
0.302107
0.301932
0.300759
0.298745
0.296096
0.292845
0.288332
0.28458
0.270793
0.277568
0.282496
0.285786
0.287654
0.2883
0.287896
0.286602
0.284631
0.282021
0.278067
0.274826
0.260147
0.266065
0.270288
0.273033
0.274502
0.274871
0.274299
0.273006
0.271038
0.267641
0.264898
0.242581
0.249488
0.254645
0.258268
0.260562
0.261703
0.261853
0.261238
0.259912
0.257066
0.254799
0.232794
0.238883
0.243384
0.246501
0.248415
0.249286
0.249346
0.248658
0.246353
0.244535
0.216013
0.22303
0.228405
0.232345
0.235029
0.236618
0.237347
0.237296
0.23552
0.234102
0.199172
0.207113
0.213358
0.218115
0.221566
0.223868
0.225262
0.225847
0.224585
0.223495
0.191157
0.198266
0.203836
0.208049
0.21106
0.21311
0.214334
0.213587
0.2127
0.183155
0.18953
0.194502
0.198217
0.20091
0.202778
0.202599
0.201673
0.168049
0.175222
0.180946
0.185363
0.188681
0.191177
0.191718
0.190211
0.160935
0.167405
0.172524
0.176454
0.17953
0.181283
0.179308
0.146691
0.153899
0.159724
0.164287
0.167899
0.170734
0.170758
0.140449
0.146978
0.152203
0.156379
0.160106
0.162055
0.127073
0.134297
0.140195
0.144964
0.149399
0.15265
0.12169
0.128251
0.133625
0.138677
0.142823
0.116375
0.122349
0.127983
0.132848
0.111137
0.117323
0.122819
0.0999993
0.106703
0.112761
0.0961417
0.102706
0.0926926
0.173378
0.16452
0.155308
0.146353
0.137097
0.127628
0.118162
0.108735
0.0993418
0.090009
0.0807628
0.165062
0.156091
0.145971
0.137032
0.128304
0.119364
0.110444
0.101657
0.0929755
0.0843838
0.075896
0.155348
0.146545
0.136504
0.127951
0.119939
0.111756
0.103539
0.0954619
0.0875124
0.0796529
0.0718848
0.145371
0.137063
0.127636
0.119693
0.112375
0.104913
0.0973706
0.0899417
0.0826425
0.0754327
0.0683051
0.136034
0.128351
0.119652
0.112318
0.1056
0.0987608
0.0918293
0.0849904
0.0782772
0.0716541
0.065108
0.127525
0.120427
0.112432
0.105664
0.0994728
0.0931872
0.0868139
0.0805197
0.0743434
0.0682546
0.0622378
0.119756
0.113184
0.10585
0.0996174
0.0939096
0.0881272
0.082267
0.0764757
0.0707917
0.0651894
0.0596531
0.112653
0.106567
0.0998499
0.0941204
0.0888589
0.0835354
0.078144
0.072813
0.067578
0.0624173
0.0573164
0.106169
0.100536
0.0943875
0.0891222
0.0842699
0.0793641
0.074399
0.0694871
0.0646605
0.0599007
0.0551942
0.100255
0.0950422
0.0894124
0.0845713
0.0800928
0.075567
0.0709892
0.0664585
0.0620032
0.0576071
0.0532583
0.0948569
0.090033
0.0848747
0.08042
0.0762826
0.0721025
0.0678769
0.0636927
0.0595748
0.055509
0.0514849
0.0899257
0.0854596
0.0807292
0.076626
0.0727995
0.0689342
0.0650289
0.0611596
0.0573484
0.0535829
0.0498536
0.085415
0.081278
0.0769354
0.0731517
0.0696088
0.0660301
0.0624159
0.0588331
0.0553008
0.0518084
0.0483473
0.0812833
0.0774487
0.0734572
0.0699639
0.0666794
0.0633618
0.0600125
0.0566904
0.0534122
0.0501683
0.0469516
0.077493
0.073936
0.0702624
0.0670328
0.0639842
0.0609046
0.0577966
0.0547119
0.0516652
0.0486481
0.0456541
0.0740103
0.070708
0.0673224
0.0643324
0.0614991
0.0586367
0.0557486
0.0528805
0.0500451
0.0472351
0.0444447
0.070805
0.0677365
0.0646118
0.0618397
0.059203
0.056539
0.0538518
0.0511815
0.0485392
0.0459186
0.0433146
0.0678502
0.0649963
0.0621081
0.0595344
0.0570777
0.0545952
0.0520915
0.0496021
0.0471366
0.0446895
0.0422563
0.065122
0.0624651
0.0597917
0.0573988
0.0551068
0.0527905
0.0504549
0.0481311
0.0458278
0.0435399
0.0412637
0.062599
0.0601232
0.0576449
0.0554171
0.0532763
0.0511124
0.0489308
0.0467591
0.0446047
0.0424632
0.0403313
0.0602625
0.0579531
0.0556526
0.0535756
0.0515736
0.0495498
0.0475096
0.0454776
0.0434602
0.0414535
0.0394546
0.0580957
0.0559395
0.0538009
0.0518621
0.0499877
0.0480927
0.0461827
0.0442792
0.042388
0.0405056
0.0386296
0.0560838
0.0540687
0.052078
0.0502658
0.0485089
0.0467327
0.0449425
0.0431576
0.0413829
0.0396153
0.0378528
0.0542134
0.0523285
0.0504731
0.0487771
0.0471287
0.0454621
0.0437825
0.042107
0.0404399
0.0387786
0.0371212
0.0524729
0.0507081
0.0489767
0.0473877
0.0458395
0.0442741
0.0426966
0.0411223
0.0395548
0.037992
0.0364321
0.0508518
0.0491981
0.0475803
0.0460899
0.0446343
0.0431626
0.0416797
0.040199
0.0387239
0.0372524
0.035783
0.0493406
0.0477897
0.0462764
0.0448769
0.0435071
0.0421222
0.0407269
0.0393331
0.0379437
0.036557
0.0351718
0.047931
0.0464753
0.0450581
0.0437426
0.0424524
0.0411481
0.039834
0.0385208
0.0372111
0.0359034
0.0345964
0.0466153
0.0452479
0.0439193
0.0426815
0.0414653
0.0402357
0.0389971
0.0377589
0.0365233
0.035289
0.034055
0.0453866
0.0441013
0.0428544
0.0416886
0.0405411
0.0393811
0.0382126
0.0370442
0.0358776
0.0347118
0.033546
0.0442388
0.0430298
0.0418583
0.0407594
0.0396757
0.0385805
0.0374774
0.0363739
0.0352717
0.0341698
0.0330675
0.0431663
0.0420281
0.0409265
0.0398896
0.0388655
0.0378306
0.0367883
0.0357454
0.0347033
0.033661
0.0326181
0.0421637
0.0410916
0.0400547
0.0390754
0.0381068
0.0371282
0.0361427
0.0351563
0.0341702
0.0331838
0.0321964
0.0412265
0.040216
0.039239
0.0383133
0.0373965
0.0364704
0.0355379
0.0346042
0.0336706
0.0327363
0.0403503
0.0393972
0.0384758
0.0376
0.0367316
0.0358545
0.0349715
0.0340872
0.0332026
0.0323171
0.0395312
0.0386316
0.0377619
0.0369326
0.0361094
0.0352781
0.0344414
0.0336031
0.0327644
0.0319246
0.0387655
0.0379159
0.0370942
0.0363082
0.0355272
0.0347388
0.0339453
0.0331502
0.0323544
0.0315574
0.0380498
0.0372469
0.0364698
0.0357243
0.0349828
0.0342345
0.0334814
0.0327266
0.031971
0.0312141
0.0373811
0.0366218
0.0358862
0.0351784
0.0344739
0.033763
0.0330477
0.0323307
0.0316127
0.0308934
0.0367566
0.036038
0.035341
0.0346684
0.0339984
0.0333226
0.0326426
0.031961
0.0312782
0.0305941
0.0361735
0.0354929
0.0348319
0.0341921
0.0335544
0.0329114
0.0322645
0.0316159
0.0309661
0.0303149
0.0356296
0.0349844
0.0343568
0.0337478
0.0331402
0.0325278
0.0319118
0.0312941
0.0306752
0.0300548
0.0351226
0.0345105
0.033914
0.0333335
0.0327542
0.0321703
0.0315832
0.0309944
0.0304043
0.0298128
0.0346505
0.0340692
0.0335016
0.0329478
0.0323947
0.0318376
0.0312774
0.0307155
0.0301523
0.0295877
0.0342117
0.0336589
0.0331181
0.0325891
0.0320605
0.0315282
0.0309931
0.0304563
0.0299183
0.0293788
0.0338043
0.033278
0.0327621
0.0322561
0.0317503
0.0312411
0.0307293
0.0302159
0.0297013
0.0291852
0.033427
0.0329253
0.0324323
0.0319476
0.031463
0.0309752
0.0304851
0.0299934
0.0295004
0.029006
0.0330786
0.0325995
0.0321276
0.0316626
0.0311975
0.0307296
0.0302595
0.0297878
0.0293149
0.0288406
0.0327579
0.0322995
0.0318471
0.0314003
0.0309531
0.0305034
0.0300517
0.0295985
0.0291441
0.0286884
0.032464
0.0320246
0.0315899
0.0311596
0.0307289
0.030296
0.0298611
0.0294249
0.0289874
0.0285487
0.0321963
0.031774
0.0313554
0.0309402
0.0305245
0.0301067
0.0296872
0.0292663
0.0288443
0.0284211
0.0319542
0.0315472
0.031143
0.0307414
0.0303392
0.0299351
0.0295294
0.0291224
0.0287143
0.0283051
0.0317373
0.031344
0.0309526
0.0305631
0.0301728
0.0297809
0.0293875
0.0289929
0.0285973
0.0282006
0.0315454
0.031164
0.0307837
0.0304047
0.0300249
0.0296437
0.0292611
0.0288774
0.0284926
0.0281069
0.0313788
0.0310075
0.0306368
0.0302668
0.0298959
0.0295238
0.0291505
0.0287761
0.0284008
0.0280246
0.0312373
0.0308742
0.0305112
0.0301486
0.0297851
0.0294205
0.0290549
0.0286882
0.0283207
0.0279523
0.0311224
0.0307657
0.0304089
0.030052
0.0296944
0.0293357
0.0289761
0.0286157
0.0282544
0.0278924
0.0310328
0.0306804
0.0303277
0.0299747
0.0296211
0.0292666
0.0289112
0.0285551
0.0281983
0.0278408
0.0309735
0.0306238
0.0302735
0.0299229
0.0295717
0.0292197
0.0288671
0.0285139
0.02816
0.0278056
0.0309396
0.0305896
0.0302391
0.0298883
0.029537
0.0291851
0.0288327
0.0284797
0.0281263
0.0277724
0.164405
0.165134
0.166574
0.168624
0.171231
0.174341
0.177911
0.181897
0.18626
0.190953
0.195931
0.201139
0.206517
0.211991
0.217479
0.222881
0.228083
0.232948
0.237329
0.241041
0.243902
0.245669
0.246141
0.244995
0.242065
0.236865
0.229455
0.218777
0.205737
0.186387
0.163677
0.164385
0.16578
0.167766
0.170287
0.173289
0.176724
0.180549
0.184719
0.189185
0.193897
0.198795
0.203814
0.208876
0.213892
0.218758
0.223356
0.227546
0.23118
0.234074
0.236051
0.236879
0.236371
0.23423
0.230316
0.224198
0.215946
0.204718
0.191379
0.174616
0.162899
0.163584
0.164931
0.166848
0.169275
0.172158
0.175449
0.1791
0.183063
0.187287
0.191717
0.196291
0.200937
0.205575
0.210112
0.214441
0.218443
0.221978
0.224901
0.227034
0.228214
0.228223
0.226899
0.223976
0.219356
0.21267
0.20405
0.192885
0.180089
0.164863
0.162068
0.162729
0.164024
0.165867
0.168195
0.170954
0.174092
0.17756
0.181308
0.185281
0.18942
0.193658
0.197923
0.202128
0.20618
0.209969
0.213376
0.216263
0.218491
0.219889
0.220308
0.219549
0.217475
0.213853
0.208624
0.201494
0.192622
0.181595
0.169141
0.154648
0.161183
0.161818
0.163059
0.164825
0.16705
0.169678
0.172659
0.175938
0.179464
0.183179
0.18702
0.190919
0.194797
0.198569
0.202137
0.205392
0.208216
0.210475
0.212036
0.21274
0.212449
0.210987
0.20824
0.204015
0.198277
0.190808
0.181767
0.170867
0.158686
0.144819
0.160242
0.16085
0.162036
0.16372
0.165838
0.168332
0.171149
0.174234
0.177533
0.180984
0.184523
0.188077
0.191569
0.194908
0.197998
0.20073
0.202989
0.204647
0.205577
0.205635
0.204697
0.20261
0.199281
0.194555
0.188421
0.180722
0.171608
0.160888
0.149056
0.135855
0.159244
0.159823
0.160952
0.162552
0.164558
0.166913
0.169562
0.172448
0.175514
0.178696
0.181929
0.185137
0.188242
0.191152
0.193772
0.195995
0.197711
0.198797
0.199137
0.1986
0.197078
0.194442
0.190618
0.18549
0.17906
0.171227
0.162133
0.151659
0.140239
0.127697
0.158188
0.158738
0.159806
0.161319
0.163211
0.165422
0.167898
0.17058
0.173408
0.176319
0.179243
0.182105
0.184825
0.187312
0.189473
0.191203
0.192398
0.192945
0.192736
0.191656
0.189613
0.1865
0.182263
0.176818
0.170182
0.162295
0.153293
0.143113
0.132129
0.120225
0.157072
0.157592
0.158598
0.160021
0.161794
0.163859
0.166158
0.168632
0.17122
0.173855
0.17647
0.178987
0.181326
0.183398
0.185113
0.186369
0.187071
0.187112
0.186398
0.184827
0.182323
0.178803
0.174228
0.168542
0.161776
0.153901
0.145049
0.135194
0.124657
0.113372
0.155896
0.156384
0.157327
0.158657
0.160309
0.162224
0.164342
0.166605
0.16895
0.17131
0.173616
0.17579
0.177755
0.179423
0.180706
0.181511
0.181747
0.181318
0.180142
0.178132
0.175228
0.171364
0.16652
0.160662
0.153831
0.146024
0.137365
0.127857
0.117775
0.107093
0.154659
0.155114
0.155991
0.157227
0.158755
0.160516
0.162452
0.164502
0.166602
0.168687
0.170686
0.172523
0.174121
0.175397
0.176267
0.176643
0.176443
0.175582
0.173988
0.17159
0.168341
0.164195
0.159143
0.153175
0.146334
0.13864
0.130209
0.121063
0.11144
0.101339
0.153359
0.153781
0.154592
0.155731
0.157133
0.158738
0.160489
0.162324
0.16418
0.165991
0.167686
0.169193
0.170435
0.171333
0.171809
0.171782
0.171177
0.169921
0.167952
0.165215
0.161675
0.157302
0.152099
0.146072
0.13927
0.131726
0.123547
0.114773
0.105605
0.0960646
0.151997
0.152384
0.153128
0.154168
0.155442
0.156891
0.158455
0.160076
0.161688
0.163227
0.164625
0.165809
0.166706
0.167243
0.167346
0.166941
0.165963
0.164349
0.162049
0.15902
0.155238
0.150689
0.145386
0.139345
0.13262
0.125255
0.117348
0.108949
0.100228
0.0912237
0.150571
0.150924
0.151599
0.15254
0.153684
0.154975
0.156353
0.157759
0.15913
0.160402
0.161508
0.162378
0.162945
0.163138
0.162889
0.162135
0.160817
0.158882
0.156292
0.153014
0.149038
0.144359
0.138998
0.132982
0.126367
0.119202
0.11158
0.103555
0.0952697
0.0867762
0.149083
0.149401
0.150006
0.150846
0.151861
0.152993
0.154185
0.155378
0.156511
0.157521
0.158342
0.158911
0.159161
0.159029
0.158453
0.157376
0.155749
0.15353
0.150689
0.147206
0.143076
0.138308
0.132928
0.12697
0.120491
0.113544
0.106213
0.0985568
0.0906941
0.082685
0.147532
0.147814
0.148349
0.149088
0.149973
0.150947
0.151954
0.152937
0.153836
0.15459
0.155137
0.155416
0.155365
0.154927
0.154048
0.152677
0.150773
0.148305
0.14525
0.141599
0.137356
0.132535
0.127169
0.121296
0.114973
0.108255
0.101218
0.0939236
0.0864676
0.0789167
0.145919
0.146165
0.14663
0.147268
0.148022
0.148839
0.149663
0.150439
0.15111
0.151615
0.151898
0.151901
0.151567
0.150844
0.149685
0.148047
0.145899
0.143214
0.139982
0.136198
0.131875
0.127034
0.12171
0.115945
0.109793
0.103312
0.0965689
0.0896258
0.0825596
0.0754411
0.144243
0.144454
0.144849
0.145386
0.146011
0.146672
0.147317
0.14789
0.148338
0.148604
0.148635
0.148375
0.147775
0.146789
0.145374
0.143498
0.141134
0.138266
0.134888
0.131005
0.126633
0.1218
0.116541
0.110901
0.104933
0.0986928
0.0922398
0.0856363
0.0789425
0.072231
0.142507
0.142682
0.143008
0.143444
0.143942
0.14445
0.144918
0.145295
0.145527
0.145564
0.145353
0.144847
0.144
0.142771
0.141126
0.139037
0.136487
0.133465
0.129972
0.126018
0.121626
0.116823
0.11165
0.10615
0.100373
0.0943747
0.0882068
0.0819304
0.0755909
0.069262
0.140712
0.140851
0.141108
0.141445
0.141817
0.142175
0.142472
0.142657
0.142683
0.1425
0.142062
0.141325
0.140249
0.138799
0.136947
0.134672
0.131963
0.128815
0.125235
0.121238
0.116848
0.112098
0.107025
0.101675
0.0960952
0.0903376
0.0844479
0.0784851
0.0724821
0.0665123
0.138858
0.138962
0.139151
0.139392
0.13964
0.139852
0.139982
0.139983
0.139811
0.13942
0.138769
0.137817
0.136531
0.134881
0.132846
0.13041
0.127567
0.12432
0.120677
0.11666
0.112294
0.107613
0.102654
0.0974633
0.0920823
0.0865623
0.0809426
0.0752795
0.0695953
0.0639626
0.136949
0.137018
0.13714
0.137286
0.137414
0.137484
0.137453
0.137279
0.136918
0.136331
0.13548
0.134331
0.132853
0.131025
0.128829
0.126256
0.123304
0.11998
0.116299
0.112283
0.107958
0.10336
0.098526
0.0934986
0.0883175
0.0830307
0.0776719
0.0722946
0.0669121
0.0615953
0.134986
0.135021
0.135078
0.135131
0.135143
0.135076
0.134891
0.134548
0.13401
0.133239
0.132204
0.130873
0.129223
0.127237
0.124902
0.122214
0.119176
0.115798
0.112098
0.1081
0.103832
0.0993298
0.0946277
0.0897674
0.0847851
0.0797258
0.0746182
0.069513
0.0644155
0.0593948
0.132971
0.132973
0.132968
0.132931
0.13283
0.132632
0.132299
0.131798
0.131093
0.130151
0.128946
0.127451
0.125648
0.123523
0.121069
0.118287
0.115184
0.111772
0.108072
0.104108
0.0999101
0.095512
0.0909476
0.086256
0.0814701
0.0766319
0.0717656
0.0669188
0.0620904
0.0573473
0.130908
0.130878
0.130812
0.130688
0.13048
0.130156
0.129685
0.129033
0.128172
0.127074
0.125713
0.124071
0.122132
0.119887
0.117335
0.114479
0.111329
0.107901
0.104216
0.100301
0.0961834
0.0918972
0.0874743
0.0829514
0.0783585
0.0737344
0.0690993
0.0644977
0.0599233
0.0554403
0.1288
0.128739
0.128614
0.128408
0.128097
0.127654
0.127051
0.12626
0.125255
0.124012
0.122512
0.120738
0.118681
0.116336
0.113704
0.110792
0.107613
0.104184
0.100529
0.0966727
0.0926443
0.0884756
0.0841965
0.0798414
0.0754372
0.0710197
0.0666056
0.0622366
0.0579016
0.0536626
0.12665
0.12656
0.126379
0.126094
0.125686
0.125131
0.124405
0.123485
0.122347
0.120973
0.119348
0.117459
0.1153
0.112871
0.110176
0.107225
0.104033
0.100618
0.0970042
0.0932174
0.0892852
0.0852379
0.0811036
0.0769142
0.0726938
0.0684753
0.0642723
0.0601235
0.0560144
0.0520041
0.124462
0.124344
0.12411
0.123751
0.123251
0.122591
0.121752
0.120712
0.119454
0.117962
0.116226
0.114237
0.111993
0.109497
0.106755
0.10378
0.100588
0.0972002
0.0936382
0.0899287
0.086098
0.0821749
0.0781853
0.0741588
0.0701168
0.0660895
0.0620877
0.0581475
0.0542514
0.0504557
0.12224
0.122096
0.121812
0.121383
0.120797
0.120041
0.119096
0.117947
0.116581
0.114985
0.113152
0.111078
0.108764
0.106216
0.103442
0.100457
0.0972784
0.0939271
0.090426
0.0868003
0.0830752
0.0792778
0.075432
0.0715649
0.0676956
0.0638517
0.0600417
0.0562987
0.0526035
0.0490094
0.119989
0.11982
0.119489
0.118995
0.11833
0.117484
0.116443
0.115197
0.113733
0.112046
0.11013
0.107986
0.105616
0.103029
0.100237
0.0972545
0.0941003
0.0907955
0.0873625
0.0838258
0.0802093
0.0765381
0.0728343
0.0691227
0.0654203
0.061752
0.0581244
0.0545683
0.0510625
0.0476576
0.117713
0.117521
0.117147
0.116593
0.115855
0.114927
0.1138
0.112465
0.110917
0.10915
0.107165
0.104963
0.102551
0.0999391
0.0971406
0.0941718
0.0910517
0.0878013
0.0844426
0.080999
0.0774928
0.0739476
0.0703835
0.0668231
0.0632815
0.0597813
0.0563273
0.0529478
0.0496207
0.0463937
0.115418
0.115204
0.11479
0.114181
0.113377
0.112375
0.111171
0.109759
0.108136
0.106302
0.10426
0.102013
0.0995715
0.0969466
0.0941528
0.0912076
0.08813
0.0849408
0.0816613
0.0783136
0.0749187
0.0714985
0.0680713
0.0646576
0.0612708
0.0579311
0.0546421
0.0514297
0.0482712
0.0452115
0.113108
0.112875
0.112424
0.111765
0.110902
0.109834
0.108561
0.107082
0.105396
0.103507
0.101419
0.0991394
0.0966794
0.0940522
0.0912731
0.0883602
0.0853323
0.0822099
0.0790133
0.0757637
0.0724804
0.0691836
0.0658901
0.0626184
0.0593801
0.0561938
0.0530615
0.0500072
0.0470079
0.0441055
0.110789
0.110538
0.110055
0.109351
0.108434
0.107308
0.105976
0.104439
0.102701
0.100767
0.0986449
0.0963437
0.093876
0.0912563
0.0885008
0.0856276
0.0826556
0.0796045
0.0764939
0.0733434
0.0701712
0.0669959
0.0638325
0.0606979
0.0576022
0.0545621
0.0515787
0.048674
0.0458248
0.0430706
0.108467
0.1082
0.107688
0.106944
0.10598
0.104804
0.103421
0.101836
0.100056
0.0980877
0.0959413
0.0936284
0.0911625
0.088559
0.0858348
0.0830079
0.0800968
0.0771207
0.074098
0.0710472
0.0679851
0.0649287
0.0618917
0.0588893
0.0559302
0.0530296
0.0501875
0.0474242
0.0447168
0.042102
0.106147
0.105867
0.105328
0.10455
0.103546
0.102327
0.100901
0.0992773
0.097464
0.0954713
0.0933106
0.0909951
0.0885396
0.0859602
0.083274
0.0804989
0.0776529
0.0747544
0.0718209
0.0688697
0.0659162
0.0629761
0.0600615
0.0571862
0.0543579
0.05159
0.0488822
0.0462525
0.043679
0.0411956
0.103836
0.103543
0.102983
0.102175
0.101137
0.0998814
0.0984214
0.0967671
0.0949298
0.0929214
0.0907552
0.0884455
0.0860081
0.0834596
0.0808171
0.0780983
0.0753207
0.0725019
0.0696582
0.0668059
0.0639591
0.0611321
0.0583359
0.0555828
0.0528795
0.050238
0.0476574
0.0451542
0.0427071
0.0403473
0.101539
0.101236
0.100657
0.0998242
0.0987575
0.0974735
0.0959866
0.09431
0.0924569
0.0904411
0.0882773
0.085981
0.0835685
0.0810566
0.0784627
0.0758039
0.0730973
0.0703593
0.0676055
0.0648509
0.0621086
0.0593914
0.0567094
0.0540735
0.0514895
0.0489682
0.0465083
0.0441246
0.0417968
0.0395536
0.099263
0.0989516
0.0983571
0.097504
0.0964146
0.0951082
0.0936016
0.0919101
0.0900489
0.0880332
0.085879
0.0836027
0.0812209
0.0787508
0.0762095
0.0736136
0.0709796
0.0683232
0.0656588
0.0630004
0.0603599
0.0577491
0.055177
0.0526534
0.0501832
0.0477762
0.0454305
0.0431598
0.0409446
0.0388112
0.0970144
0.096696
0.0960892
0.0952202
0.0941136
0.0927909
0.0912711
0.0895717
0.0877093
0.0857005
0.0835623
0.0813117
0.0789657
0.0765416
0.074056
0.0715253
0.068965
0.0663901
0.0638142
0.06125
0.0587085
0.0562006
0.053734
0.0513177
0.048956
0.0466574
0.04442
0.042256
0.040147
0.038117
0.0947996
0.0944758
0.0938595
0.0929787
0.0918598
0.0905265
0.0889998
0.0872987
0.0854413
0.0834455
0.0813289
0.079109
0.0768032
0.0744283
0.0720009
0.0695368
0.0670508
0.064557
0.0620681
0.0595958
0.0571504
0.0547415
0.0523761
0.0500624
0.0478038
0.045608
0.043473
0.0414097
0.0394009
0.0374682
0.092625
0.0922973
0.0916744
0.0907856
0.0896591
0.0883204
0.0867922
0.0850951
0.0832484
0.0812708
0.0791806
0.0769956
0.0747333
0.0724105
0.0700431
0.0676464
0.0652346
0.0628209
0.0604172
0.0580344
0.0556817
0.0533679
0.0510995
0.0488834
0.0467228
0.0446244
0.0425862
0.0406178
0.0387033
0.0368623
0.0904972
0.090167
0.08954
0.0886468
0.0875169
0.0861775
0.0846529
0.0829648
0.0811336
0.0791788
0.077119
0.0749725
0.0727564
0.0704875
0.0681812
0.0658522
0.0635141
0.0611792
0.0588586
0.0565624
0.054299
0.0520765
0.0499005
0.0477773
0.0457097
0.0437034
0.0417565
0.0398776
0.0380519
0.0362969