/*--------------------------------*- C++ -*----------------------------------*\
  =========                 |
  \\      /  F ield         | OpenFOAM: The Open Source CFD Toolbox
   \\    /   O peration     | Website:  https://openfoam.org
    \\  /    A nd           | Version:  7
     \\/     M anipulation  |
\*---------------------------------------------------------------------------*/
FoamFile
{
    version     2.0;
    format      ascii;
    class       volVectorField;
    location    "20";
    object      U;
}
// * * * * * * * * * * * * * * * * * * * * * * * * * * * * * * * * * * * * * //

dimensions      [0 1 -1 0 0 0 0];

internalField   nonuniform List<vector> 
8500
(
(-0.276604 0.00128414 -5.74682e-22)
(-0.289668 0.00130921 7.35673e-22)
(-0.303318 0.00132529 -1.58075e-21)
(-0.317477 0.00132664 3.42262e-22)
(-0.331995 0.00130674 8.61477e-22)
(-0.34663 0.00125854 -2.09174e-22)
(-0.361037 0.00117477 -4.67949e-22)
(-0.374753 0.00104846 7.37673e-22)
(-0.387192 0.000873391 -2.43073e-22)
(-0.39764 0.000645161 8.68869e-22)
(-0.405279 0.000361151 -2.21559e-22)
(-0.40918 2.40586e-05 4.00298e-23)
(-0.408397 -0.000363855 1.68098e-21)
(-0.402019 -0.000788672 -2.22519e-21)
(-0.389205 -0.00123539 -2.94216e-22)
(-0.369371 -0.0016819 1.35068e-21)
(-0.342218 -0.00210452 1.60557e-22)
(-0.307861 -0.00247922 2.1699e-22)
(-0.266759 -0.00278787 -4.12228e-22)
(-0.21977 -0.0030183 4.96203e-22)
(-0.167881 -0.00316813 -4.27205e-22)
(-0.112334 -0.00323863 5.14577e-22)
(-0.0542468 -0.00324004 3.35773e-22)
(0.00513971 -0.00317925 6.06163e-23)
(0.0648109 -0.00307302 -6.83099e-23)
(0.123848 -0.00292558 -7.34267e-23)
(0.181306 -0.0027587 1.77688e-23)
(0.236923 -0.0025684 -2.62669e-23)
(0.289552 -0.00238147 7.57851e-23)
(0.339992 -0.00218206 2.60863e-23)
(0.386356 -0.00200391 -7.51415e-23)
(0.431072 -0.00181567 -1.02222e-23)
(0.470652 -0.00166277 9.1206e-23)
(0.51003 -0.00149384 -2.16418e-23)
(0.542837 -0.00137307 -3.73389e-23)
(0.577899 -0.0012235 5.98138e-23)
(0.604127 -0.00113599 2.60101e-23)
(0.636299 -0.00100171 3.94699e-23)
(0.656071 -0.000946432 -2.66893e-23)
(0.687069 -0.000822242 3.01144e-24)
(0.700278 -0.000797498 -3.33549e-23)
(0.732071 -0.000681618 -5.52383e-24)
(0.738432 -0.000681743 -9.83186e-24)
(0.773069 -0.000586014 5.90239e-24)
(-0.275114 0.00373295 4.8365e-21)
(-0.288078 0.00381078 -6.4712e-21)
(-0.301623 0.00386654 4.62406e-21)
(-0.315671 0.00388364 -1.47725e-21)
(-0.330073 0.00384291 2.3248e-21)
(-0.344588 0.00372331 1.85116e-21)
(-0.358872 0.00350273 -4.54517e-21)
(-0.372464 0.00315945 1.94544e-21)
(-0.384777 0.00267356 -3.46021e-21)
(-0.395101 0.00202981 5.86905e-21)
(-0.402621 0.0012183 -1.66704e-21)
(-0.406411 0.000242717 -1.00518e-21)
(-0.405527 -0.000889776 -2.60196e-21)
(-0.399061 -0.00214346 3.94063e-21)
(-0.386175 -0.00347482 -8.4859e-22)
(-0.366289 -0.00481915 -1.07545e-21)
(-0.339104 -0.00610562 2.18756e-21)
(-0.304739 -0.00726078 -1.24681e-21)
(-0.263653 -0.00822753 1.38623e-21)
(-0.216704 -0.00896627 -8.09244e-22)
(-0.164876 -0.00946573 3.43012e-22)
(-0.109411 -0.00972653 -1.41929e-21)
(-0.0514226 -0.00977517 8.30163e-23)
(0.0078505 -0.00963015 -2.47668e-22)
(0.0673989 -0.00933984 1.44285e-22)
(0.126304 -0.0089157 7.38936e-23)
(0.183628 -0.00842323 2.60232e-23)
(0.239106 -0.00785084 6.76752e-24)
(0.2916 -0.00728073 -1.56544e-22)
(0.341903 -0.00666625 2.02884e-24)
(0.38814 -0.00611141 2.09301e-23)
(0.432725 -0.00552294 -9.0428e-23)
(0.472191 -0.00504004 -2.03955e-22)
(0.511448 -0.00450904 -1.67766e-23)
(0.544156 -0.00412467 -2.10511e-22)
(0.579108 -0.00365657 -4.29065e-23)
(0.605253 -0.00337773 3.39741e-23)
(0.637323 -0.00296371 -9.00498e-23)
(0.65703 -0.0027883 6.67111e-23)
(0.687931 -0.00241432 -3.16246e-24)
(0.701094 -0.00233598 -2.34458e-23)
(0.732792 -0.00199683 -5.58812e-24)
(0.739129 -0.00199589 2.02803e-23)
(0.773665 -0.00172578 -1.43297e-23)
(-0.272148 0.00615105 -5.14892e-21)
(-0.284913 0.00628076 5.95666e-21)
(-0.298248 0.00637555 9.10247e-22)
(-0.312077 0.00640799 -1.98437e-21)
(-0.326249 0.00634634 7.33552e-22)
(-0.340526 0.00615561 -1.35311e-21)
(-0.354566 0.00579892 -5.86307e-21)
(-0.367909 0.00523983 2.86948e-21)
(-0.379974 0.0044448 3.82031e-21)
(-0.390054 0.00338777 -3.81795e-21)
(-0.397338 0.00205149 3.1612e-21)
(-0.400906 0.000439868 -2.34261e-21)
(-0.399821 -0.00143255 2.10143e-21)
(-0.39318 -0.00351106 -6.1166e-21)
(-0.380152 -0.0057228 2.1796e-21)
(-0.36016 -0.00796064 2.45729e-22)
(-0.332913 -0.0101067 -2.76634e-21)
(-0.298531 -0.0120383 1.0109e-21)
(-0.257475 -0.0136593 6.72426e-22)
(-0.210603 -0.014903 1.20196e-21)
(-0.158897 -0.0157492 -7.81947e-22)
(-0.103594 -0.016198 1.477e-21)
(-0.0458004 -0.0162922 -1.70457e-22)
(0.0132478 -0.0160618 1.10498e-22)
(0.0725525 -0.0155867 -8.98202e-23)
(0.131195 -0.0148857 1.39077e-23)
(0.188253 -0.0140679 -5.4575e-23)
(0.243453 -0.0131139 6.88086e-24)
(0.295679 -0.0121613 1.07336e-23)
(0.345707 -0.0111328 -1.32749e-22)
(0.391691 -0.0102022 1.539e-22)
(0.436015 -0.00921476 9.9683e-23)
(0.475252 -0.0084029 1.10616e-22)
(0.514269 -0.00751109 2.24025e-22)
(0.546779 -0.00686409 -2.19917e-22)
(0.58151 -0.00607871 -1.57826e-22)
(0.607491 -0.00560934 3.97032e-22)
(0.639357 -0.00491675 4.28565e-22)
(0.658936 -0.00462179 -1.14186e-22)
(0.689645 -0.00399918 2.61845e-22)
(0.702718 -0.00386755 2.59404e-23)
(0.734226 -0.00330628 -1.32192e-22)
(0.740515 -0.00330433 -7.5225e-23)
(0.774852 -0.00286097 -1.54093e-23)
(-0.267726 0.00851845 -7.85358e-21)
(-0.280197 0.00869859 1.64254e-20)
(-0.293221 0.0088313 -1.33529e-20)
(-0.306722 0.00887843 3.54395e-21)
(-0.320553 0.00879571 -3.83951e-21)
(-0.334477 0.00853432 -1.65825e-21)
(-0.348154 0.00804269 7.76057e-21)
(-0.36113 0.00726975 -5.15488e-21)
(-0.372826 0.00616839 3.07101e-21)
(-0.382544 0.00470176 -1.88403e-21)
(-0.389479 0.00284535 8.29476e-21)
(-0.392719 0.000603824 -4.26488e-21)
(-0.391337 -0.00200305 -1.33909e-20)
(-0.384438 -0.00489965 6.98798e-21)
(-0.371201 -0.0079847 -7.54123e-22)
(-0.351056 -0.0111089 3.85236e-21)
(-0.323718 -0.0141076 -5.16809e-21)
(-0.289312 -0.0168089 -1.76925e-22)
(-0.248303 -0.0190781 -4.51097e-21)
(-0.201546 -0.0208211 -1.54705e-21)
(-0.150021 -0.0220094 1.59668e-21)
(-0.094958 -0.0226425 -5.93e-22)
(-0.0374544 -0.0227793 4.42491e-22)
(0.0212606 -0.0224617 -3.11521e-22)
(0.0802041 -0.0218007 -4.15949e-23)
(0.138458 -0.0208227 3.22752e-22)
(0.19512 -0.0196796 1.15975e-23)
(0.24991 -0.018345 2.49356e-23)
(0.301738 -0.017011 8.19177e-23)
(0.351359 -0.0155701 -3.31253e-22)
(0.396966 -0.0142654 -2.44192e-22)
(0.440905 -0.012881 3.43252e-22)
(0.479803 -0.0117419 -3.10319e-22)
(0.518463 -0.0104914 -5.89064e-22)
(0.550679 -0.00958335 2.46334e-22)
(0.585083 -0.00848277 -2.9074e-22)
(0.61082 -0.00782418 -5.8533e-22)
(0.642385 -0.00685502 -5.86108e-22)
(0.661772 -0.00644146 1.6987e-22)
(0.692196 -0.0055721 -2.02998e-22)
(0.705134 -0.00538773 -1.0788e-22)
(0.736362 -0.00460623 2.23029e-22)
(0.742579 -0.00460336 1.65974e-23)
(0.776622 -0.00398859 7.36295e-23)
(-0.26188 0.0108159 -2.44556e-21)
(-0.273963 0.0110444 4.6568e-21)
(-0.286578 0.0112135 8.44455e-21)
(-0.29965 0.0112744 -5.10843e-21)
(-0.313032 0.0111705 1.07792e-20)
(-0.326492 0.0108391 -3.21424e-21)
(-0.339692 0.0102142 -1.33125e-20)
(-0.352185 0.00923013 6.53355e-21)
(-0.363398 0.00782636 -6.87349e-21)
(-0.372641 0.00595533 5.26856e-21)
(-0.379119 0.00358521 -4.08649e-21)
(-0.381931 0.000721839 6.20666e-21)
(-0.380162 -0.00261132 2.60371e-21)
(-0.372928 -0.00631665 -8.06584e-21)
(-0.359419 -0.0102652 8.98029e-21)
(-0.339077 -0.014266 -8.90131e-21)
(-0.311624 -0.0181077 8.6441e-21)
(-0.277192 -0.0215694 2.89478e-21)
(-0.236247 -0.0244782 3.4451e-21)
(-0.189646 -0.0267131 5.2945e-22)
(-0.13836 -0.0282371 3.12284e-21)
(-0.0836151 -0.0290493 -3.59376e-21)
(-0.0264923 -0.0292249 9.02885e-22)
(0.0317852 -0.0288176 -5.32104e-22)
(0.0902553 -0.0279693 8.47501e-22)
(0.148 -0.0267138 -2.80149e-22)
(0.204145 -0.0252459 1.96459e-22)
(0.258397 -0.023532 -2.16193e-23)
(0.309704 -0.0218182 -1.63097e-22)
(0.358793 -0.0199672 -2.50028e-23)
(0.403907 -0.0182905 -6.43229e-23)
(0.447341 -0.0165119 -8.53336e-23)
(0.485793 -0.0150479 7.38329e-22)
(0.523985 -0.0134417 8.34562e-22)
(0.555816 -0.0122748 1.66364e-22)
(0.589792 -0.0108619 2.57088e-22)
(0.615209 -0.0100159 1.80903e-22)
(0.646378 -0.00877284 -2.7973e-22)
(0.665514 -0.008242 -4.0426e-22)
(0.695564 -0.00712852 -2.16454e-22)
(0.708326 -0.00689215 4.70558e-23)
(0.739183 -0.00589304 -3.22244e-22)
(0.745307 -0.00588935 1.09534e-22)
(0.778962 -0.00510574 -8.94426e-23)
(-0.25465 0.0130249 -5.41288e-21)
(-0.266258 0.0132993 -1.41727e-20)
(-0.27837 0.0135029 -1.25426e-20)
(-0.290913 0.0135764 2.14705e-20)
(-0.303745 0.013451 7.05103e-22)
(-0.316634 0.0130506 -1.4125e-20)
(-0.32925 0.0122945 2.89465e-20)
(-0.34115 0.0111029 -1.63984e-20)
(-0.351772 0.00940184 6.19493e-21)
(-0.360434 0.00713305 -5.87983e-21)
(-0.366353 0.00425748 1.07012e-20)
(-0.368644 0.000782786 -1.51083e-21)
(-0.366405 -0.00326634 6.1672e-22)
(-0.358765 -0.00776853 2.17049e-21)
(-0.344931 -0.0125682 3.07989e-21)
(-0.324354 -0.0174329 7.89349e-22)
(-0.296767 -0.0221055 -3.35465e-21)
(-0.26231 -0.0263161 -5.43056e-21)
(-0.221451 -0.029854 -6.94633e-21)
(-0.175047 -0.0325714 -4.32166e-21)
(-0.124059 -0.0344231 2.015e-21)
(-0.0697061 -0.0354082 3.98319e-21)
(-0.0130517 -0.035618 -2.84628e-21)
(0.0446896 -0.0351179 1.01274e-21)
(0.10258 -0.0340805 -3.02653e-22)
(0.159703 -0.0325473 8.39671e-22)
(0.215215 -0.0307549 2.24657e-22)
(0.268811 -0.0286635 -3.5632e-23)
(0.319483 -0.0265717 7.25198e-22)
(0.367922 -0.0243135 3.92301e-22)
(0.412435 -0.0222676 -1.30932e-22)
(0.455251 -0.0200983 1.42294e-22)
(0.49316 -0.0183124 -5.66091e-22)
(0.530781 -0.0163541 -1.29478e-22)
(0.56214 -0.0149311 9.57637e-22)
(0.595592 -0.0132094 -1.03846e-22)
(0.620616 -0.0121783 6.07119e-22)
(0.651301 -0.0106648 -1.26862e-22)
(0.67013 -0.0100184 -1.29286e-22)
(0.699721 -0.00866407 -1.84497e-22)
(0.712266 -0.00837661 2.04153e-22)
(0.742669 -0.0071632 4.24629e-22)
(0.748679 -0.00715882 -1.60173e-22)
(0.781856 -0.0062096 1.176e-22)
(-0.246087 0.0151283 8.52101e-21)
(-0.257135 0.0154455 -1.20921e-20)
(-0.268656 0.0156812 2.36633e-20)
(-0.280579 0.0157661 -5.83064e-21)
(-0.292763 0.0156191 -2.68606e-20)
(-0.304982 0.0151507 5.40439e-21)
(-0.316913 0.0142662 1.78352e-20)
(-0.328119 0.0128714 -5.37182e-21)
(-0.338047 0.0108792 -2.34645e-20)
(-0.34603 0.00822082 8.16909e-21)
(-0.351298 0.00484999 -2.4339e-20)
(-0.352983 0.00078035 4.28327e-21)
(-0.350198 -0.0039758 3.7037e-21)
(-0.342091 -0.00926064 1.95344e-20)
(-0.327883 -0.0148963 -1.57587e-20)
(-0.307041 -0.02061 8.12136e-21)
(-0.279308 -0.026099 6.51273e-21)
(-0.244832 -0.0310448 1.391e-20)
(-0.204084 -0.0351993 -3.31008e-21)
(-0.157918 -0.0383882 4.92843e-21)
(-0.107287 -0.0405585 4.38478e-21)
(-0.0533978 -0.0417093 -2.29194e-21)
(0.00270493 -0.0419478 -3.09777e-21)
(0.0598172 -0.0413516 1.48183e-21)
(0.11703 -0.0401231 -8.87404e-22)
(0.173426 -0.038312 3.13015e-22)
(0.228201 -0.0361958 5.12012e-24)
(0.281032 -0.0337287 7.52235e-24)
(0.330963 -0.0312614 -2.98298e-22)
(0.378644 -0.0285994 -4.3612e-22)
(0.422456 -0.0261875 6.60904e-22)
(0.464552 -0.0236317 3.20687e-22)
(0.501828 -0.0215273 -7.15158e-22)
(0.538781 -0.0192213 4.41557e-22)
(0.56959 -0.0175454 -4.38161e-22)
(0.602428 -0.0155193 2.83849e-22)
(0.626994 -0.0143057 -1.72845e-22)
(0.657112 -0.012526 1.02428e-22)
(0.675581 -0.0117658 1.59035e-22)
(0.704633 -0.0101746 -1.9703e-22)
(0.716924 -0.00983713 -8.75628e-23)
(0.746793 -0.00841338 9.55855e-23)
(0.752669 -0.00840844 8.00824e-25)
(0.785284 -0.00729747 4.06084e-23)
(-0.236245 0.0171103 -9.30503e-21)
(-0.246657 0.0174667 -1.13353e-20)
(-0.257505 0.0177319 1.99368e-20)
(-0.268722 0.0178265 -1.28676e-20)
(-0.280169 0.0176577 -5.74264e-21)
(-0.291627 0.0171228 5.65581e-22)
(-0.302778 0.016113 8.42452e-21)
(-0.313195 0.0145203 -1.42876e-20)
(-0.322338 0.0122445 -1.09919e-20)
(-0.329553 0.00920595 1.59834e-20)
(-0.334085 0.00535208 1.41873e-20)
(-0.335087 0.000714035 -6.30239e-21)
(-0.331692 -0.00474625 1.02195e-20)
(-0.323062 -0.0107971 -5.57285e-21)
(-0.308441 -0.0172512 1.05881e-20)
(-0.287312 -0.0237966 -1.84219e-20)
(-0.259427 -0.0300853 -1.23349e-20)
(-0.224943 -0.0357506 -1.92919e-21)
(-0.184332 -0.0405076 -2.51464e-24)
(-0.138449 -0.0441557 -1.08487e-20)
(-0.0882317 -0.0466344 -2.95367e-21)
(-0.0348767 -0.0479429 2.33174e-21)
(0.0205958 -0.0482043 2.07804e-21)
(0.0769929 -0.0475084 -1.21479e-21)
(0.133436 -0.0460868 1.09996e-22)
(0.18901 -0.0439976 -7.68491e-22)
(0.242952 -0.0415584 -3.01153e-22)
(0.29492 -0.038718 2.12437e-23)
(0.344015 -0.0358779 -6.82254e-22)
(0.390843 -0.0328161 -3.933e-23)
(0.433863 -0.0300419 2.21675e-22)
(0.475148 -0.0271043 -1.24766e-22)
(0.511707 -0.0246854 4.14995e-22)
(0.547907 -0.0220367 -9.9255e-22)
(0.578093 -0.0201116 -7.14235e-22)
(0.610238 -0.0177859 -2.06442e-22)
(0.634285 -0.0163928 -4.68297e-23)
(0.66376 -0.0143515 1.189e-21)
(0.68182 -0.0134797 1.15438e-22)
(0.710261 -0.0116563 9.15555e-22)
(0.722263 -0.01127 -3.33332e-22)
(0.751525 -0.00964045 -1.58218e-22)
(0.757249 -0.00963507 1.54526e-22)
(0.789222 -0.00836681 1.10712e-22)
(-0.225188 0.0189566 7.30973e-21)
(-0.234893 0.0193481 2.32381e-20)
(-0.244994 0.0196398 -1.42438e-20)
(-0.255426 0.0197425 9.32758e-21)
(-0.266055 0.0195517 -1.82017e-20)
(-0.276668 0.018952 7.66383e-21)
(-0.286953 0.0178207 -9.07116e-21)
(-0.296497 0.0160361 1.38887e-20)
(-0.304771 0.013485 -8.55097e-22)
(-0.311137 0.0100774 1.33172e-20)
(-0.314856 0.00575395 -9.23716e-21)
(-0.315111 0.000550461 -1.5756e-20)
(-0.311051 -0.00558313 -2.162e-20)
(-0.301852 -0.0123808 2.55792e-20)
(-0.286788 -0.0196335 -1.07327e-20)
(-0.265354 -0.0269909 2.40382e-20)
(-0.237317 -0.0340607 9.21349e-21)
(-0.202841 -0.0404282 -4.3478e-21)
(-0.1624 -0.0457721 6.01157e-22)
(-0.116845 -0.0498659 2.03647e-21)
(-0.0670979 -0.0526418 -1.34285e-21)
(-0.0143431 -0.0541 -4.76683e-21)
(0.0404254 -0.0543779 2.76668e-21)
(0.0960275 -0.0535785 -1.11229e-21)
(0.151619 -0.0519619 1.99633e-23)
(0.206286 -0.0495947 4.57782e-22)
(0.259307 -0.0468337 6.9945e-22)
(0.310326 -0.0436228 5.02423e-23)
(0.358501 -0.0404128 5.30416e-22)
(0.404389 -0.0369556 -7.23636e-23)
(0.446538 -0.0338233 -5.34407e-22)
(0.486931 -0.0305092 -1.39666e-21)
(0.522701 -0.0277802 -2.36532e-22)
(0.558072 -0.0247942 1.10724e-21)
(0.587571 -0.0226239 3.17115e-22)
(0.618952 -0.020004 -8.27969e-23)
(0.642425 -0.0184349 -8.53782e-22)
(0.671189 -0.0161371 -4.83155e-22)
(0.688798 -0.0151563 -5.44547e-24)
(0.71656 -0.0131056 -3.34357e-22)
(0.728244 -0.0126717 3.805e-22)
(0.75683 -0.0108415 2.66204e-22)
(0.762386 -0.0108358 1.71324e-22)
(0.793645 -0.00941523 -3.15567e-22)
(-0.212981 0.0206546 -2.99019e-20)
(-0.221917 0.0210768 3.606e-21)
(-0.231205 0.0213917 2.33811e-21)
(-0.240782 0.0215004 1.87026e-20)
(-0.25052 0.0212876 -1.56434e-20)
(-0.260212 0.020625 4.0555e-21)
(-0.269556 0.0193766 -1.22864e-20)
(-0.278151 0.0174069 -3.97094e-21)
(-0.285482 0.0145902 -2.42769e-21)
(-0.290929 0.0108258 2.34474e-20)
(-0.293771 0.00604757 1.67536e-22)
(-0.29322 0.000274142 -1.44399e-20)
(-0.288446 -0.00649007 2.03875e-20)
(-0.278642 -0.0140131 -2.16175e-20)
(-0.263112 -0.0220425 -5.64715e-21)
(-0.241366 -0.0301903 -8.50939e-21)
(-0.213182 -0.0380207 -6.37563e-21)
(-0.178736 -0.0450714 7.45137e-21)
(-0.138498 -0.0509855 -2.90781e-24)
(-0.0933165 -0.0555106 -2.70155e-21)
(-0.0440961 -0.0585728 1.10712e-20)
(0.00799464 -0.0601711 6.98109e-21)
(0.0619899 -0.0604596 1.9031e-21)
(0.116724 -0.0595532 -3.00197e-21)
(0.171388 -0.0577398 3.86556e-21)
(0.225071 -0.0550949 -2.27556e-21)
(0.277098 -0.0520135 -4.23641e-22)
(0.32709 -0.0484352 -9.06521e-23)
(0.374271 -0.0448589 1.53779e-22)
(0.419148 -0.0410111 7.66232e-22)
(0.460356 -0.0375251 1.16376e-21)
(0.499787 -0.0338402 4.96446e-22)
(0.534706 -0.0308058 -3.98072e-22)
(0.569182 -0.0274885 -1.6307e-22)
(0.597938 -0.0250774 -3.34004e-22)
(0.628492 -0.0221693 1.15037e-21)
(0.651345 -0.0204275 4.3698e-22)
(0.679338 -0.0178791 4.34192e-22)
(0.696458 -0.0167916 4.83167e-22)
(0.723483 -0.0145193 1.69972e-22)
(0.734821 -0.0140392 3.59658e-22)
(0.76267 -0.012014 -8.82982e-22)
(0.768044 -0.0120079 -3.74745e-22)
(0.798522 -0.0104405 -1.91898e-22)
(-0.199695 0.0221938 1.81869e-20)
(-0.207807 0.0226417 2.26045e-20)
(-0.216224 0.022976 -2.36099e-20)
(-0.224885 0.0230888 1.4489e-20)
(-0.233668 0.0228539 -4.64485e-22)
(-0.242373 0.0221306 1.92378e-21)
(-0.25071 0.0207697 1.21656e-20)
(-0.258289 0.0186226 -3.68184e-20)
(-0.264613 0.015551 3.59433e-20)
(-0.26908 0.0114436 -4.13554e-20)
(-0.270991 0.00622756 3.80545e-21)
(-0.269586 -9.18737e-05 2.56627e-20)
(-0.264057 -0.00746944 -1.28576e-20)
(-0.253622 -0.0156945 1.68473e-20)
(-0.237609 -0.0244765 1.15028e-20)
(-0.215548 -0.0333913 -1.39319e-20)
(-0.18723 -0.0419603 3.36246e-21)
(-0.152837 -0.049674 -7.22915e-21)
(-0.11284 -0.0561405 3.37569e-21)
(-0.0680787 -0.0610817 -1.83561e-21)
(-0.0194401 -0.0644196 -8.05861e-21)
(0.0319256 -0.066147 2.22985e-21)
(0.0850829 -0.0664411 -7.4416e-21)
(0.138882 -0.0654243 -6.54667e-22)
(0.192552 -0.0634126 -2.71804e-21)
(0.245184 -0.0604908 1.64073e-21)
(0.296148 -0.0570907 3.32048e-23)
(0.34505 -0.0531485 8.24757e-23)
(0.391174 -0.0492097 -3.11193e-22)
(0.434977 -0.0449766 -9.96743e-23)
(0.475187 -0.0411418 -1.40472e-21)
(0.513597 -0.0370921 -3.70917e-22)
(0.547611 -0.0337573 1.06529e-21)
(0.581137 -0.0301151 6.58198e-23)
(0.609105 -0.0274678 8.81105e-23)
(0.638779 -0.0242777 -1.3967e-21)
(0.660972 -0.0223671 -1.47135e-22)
(0.688142 -0.0195741 -2.9283e-22)
(0.704741 -0.0183827 -8.19344e-22)
(0.730978 -0.0158946 -3.6882e-23)
(0.741946 -0.0153696 -8.95733e-23)
(0.769005 -0.0131554 4.95209e-23)
(0.774184 -0.0131491 6.0699e-23)
(0.803822 -0.0114407 3.24261e-22)
(-0.185399 0.0235655 -2.45712e-20)
(-0.192642 0.0240337 -1.95819e-20)
(-0.200138 0.0243834 5.16729e-20)
(-0.207832 0.0244981 2.58861e-21)
(-0.215605 0.0242409 -3.26351e-20)
(-0.223268 0.0234593 2.96809e-20)
(-0.230541 0.0219913 3.17255e-21)
(-0.237048 0.0196751 -2.7504e-20)
(-0.24231 0.0163602 9.9328e-21)
(-0.245747 0.0119247 5.48337e-21)
(-0.246681 0.00628942 -7.70561e-21)
(-0.244382 -0.000547848 -4.11741e-21)
(-0.238067 -0.00852229 2.0465e-20)
(-0.226982 -0.0174241 -5.13111e-21)
(-0.210477 -0.026933 -8.02447e-21)
(-0.188104 -0.0365896 8.51398e-21)
(-0.159667 -0.0458737 -1.59002e-20)
(-0.125355 -0.0542289 8.17951e-21)
(-0.0856363 -0.0612294 -2.19872e-21)
(-0.0413439 -0.066572 5.31325e-21)
(0.00665905 -0.0701723 6.04302e-22)
(0.0572415 -0.0720205 8.14567e-21)
(0.1095 -0.0723144 3.57282e-21)
(0.162304 -0.0711841 7.47974e-22)
(0.214918 -0.0689733 -1.35103e-21)
(0.26644 -0.0657757 -5.79395e-23)
(0.316285 -0.0620592 -9.07094e-23)
(0.36404 -0.0577571 -1.18959e-22)
(0.409055 -0.05346 2.69962e-22)
(0.451732 -0.0488472 -6.24374e-22)
(0.490896 -0.0446686 4.28251e-22)
(0.528238 -0.0402607 -4.34845e-23)
(0.561305 -0.0366307 -2.98009e-22)
(0.593836 -0.0326703 2.73172e-22)
(0.620976 -0.0297914 -1.14951e-21)
(0.649728 -0.0263259 2.46821e-21)
(0.671227 -0.0242504 -1.16081e-22)
(0.697533 -0.0212192 5.41779e-22)
(0.713583 -0.0199265 6.52376e-23)
(0.738988 -0.017229 -2.29857e-22)
(0.749567 -0.0166606 -1.65392e-22)
(0.77579 -0.0142638 1.14091e-22)
(0.780764 -0.0142571 2.23714e-22)
(0.809512 -0.012414 -2.49835e-22)
(-0.170163 0.0247631 3.66641e-20)
(-0.176501 0.0252458 2.37534e-20)
(-0.183038 0.0256067 -8.31079e-21)
(-0.189721 0.0257208 -5.23284e-21)
(-0.19644 0.0254412 1.81817e-21)
(-0.203014 0.0246039 5.1789e-20)
(-0.209176 0.0230344 -2.25631e-20)
(-0.214566 0.0205581 1.1561e-20)
(-0.218721 0.0170123 -1.31126e-20)
(-0.221086 0.0122649 9.04749e-21)
(-0.221008 0.00622989 1.88966e-20)
(-0.217784 -0.0011003 -4.49639e-20)
(-0.21066 -0.00964861 -6.33094e-21)
(-0.19891 -0.0192003 7.41382e-21)
(-0.18191 -0.0294088 1.28363e-20)
(-0.159233 -0.0397805 5.66991e-21)
(-0.130694 -0.049755 3.62828e-21)
(-0.0964937 -0.0587292 -3.17798e-21)
(-0.057094 -0.0662446 -3.74525e-21)
(-0.0133178 -0.0719763 -1.07313e-20)
(0.0339963 -0.0758188 1.06584e-20)
(0.0837399 -0.077785 -9.08246e-21)
(0.135043 -0.0780723 -2.59976e-21)
(0.186795 -0.076826 1.74224e-21)
(0.2383 -0.0744155 -2.24283e-22)
(0.28866 -0.0709439 1.7602e-21)
(0.337337 -0.0669136 -3.91204e-22)
(0.383899 -0.0622561 -1.68008e-24)
(0.427761 -0.0576051 -8.41909e-23)
(0.469272 -0.0526186 -1.70413e-22)
(0.507351 -0.0481017 -4.76392e-22)
(0.543587 -0.0433423 6.24537e-22)
(0.575672 -0.0394226 4.88255e-22)
(0.607174 -0.0351509 7.04027e-23)
(0.633457 -0.0320455 -1.59045e-21)
(0.661253 -0.0283113 -2.12253e-21)
(0.682032 -0.0260749 -9.13704e-22)
(0.70744 -0.0228121 -8.26699e-22)
(0.72292 -0.0214209 -6.7267e-22)
(0.747458 -0.0185205 -3.58358e-23)
(0.757633 -0.01791 3.36123e-22)
(0.782981 -0.0153373 -8.18729e-23)
(0.787742 -0.0153301 3.88089e-23)
(0.815555 -0.0133588 2.31081e-22)
(-0.154056 0.0257822 -3.88244e-22)
(-0.159461 0.0262732 -2.81654e-20)
(-0.165008 0.0266405 3.40846e-20)
(-0.170649 0.0267514 1.95035e-20)
(-0.17628 0.0264492 -1.03269e-21)
(-0.181729 0.025559 -4.31655e-20)
(-0.186743 0.0238939 -6.68748e-21)
(-0.190978 0.021267 1.28808e-21)
(-0.193993 0.0175036 -2.11464e-20)
(-0.195254 0.0124613 -8.05963e-21)
(-0.194135 0.00604724 2.3836e-20)
(-0.189962 -0.00175114 -2.8813e-20)
(-0.182014 -0.0108474 3.12971e-20)
(-0.169591 -0.0210207 -2.56676e-20)
(-0.152095 -0.0319 2.72533e-20)
(-0.129125 -0.0429587 -2.61038e-20)
(-0.100507 -0.0535976 1.34723e-20)
(-0.0664498 -0.0631676 -6.63778e-21)
(-0.0274097 -0.0711788 -1.87317e-21)
(0.0158039 -0.0772831 3.86054e-21)
(0.0623773 -0.0813559 -9.57869e-22)
(0.111228 -0.0834322 -1.01042e-21)
(0.161522 -0.0837077 1.40562e-21)
(0.212172 -0.0823437 -6.26689e-21)
(0.262518 -0.0797336 3.40099e-21)
(0.311671 -0.0759902 -6.79322e-23)
(0.359138 -0.0716495 1.03593e-21)
(0.40447 -0.0666414 4.04433e-23)
(0.447143 -0.0616416 -2.19227e-22)
(0.487456 -0.0562878 1.34576e-21)
(0.52442 -0.0514382 3.32932e-22)
(0.559524 -0.0463343 -7.06511e-22)
(0.590601 -0.0421305 -1.014e-21)
(0.621048 -0.0375545 -3.94172e-22)
(0.646451 -0.0342276 3.17658e-21)
(0.673267 -0.0302319 1.45067e-21)
(0.693307 -0.0278384 1.1366e-21)
(0.717792 -0.0243509 -9.09917e-22)
(0.732686 -0.022864 1.94217e-21)
(0.75633 -0.0197675 -2.82073e-22)
(0.766089 -0.0191161 -1.1668e-21)
(0.79053 -0.0163744 9.26117e-22)
(0.795073 -0.0163666 -1.1578e-22)
(0.821914 -0.0142737 -8.34255e-25)
(-0.137139 0.0266203 -4.32684e-20)
(-0.141595 0.0271132 4.37089e-20)
(-0.146133 0.0274819 -1.38379e-20)
(-0.150709 0.0275866 -2.33537e-20)
(-0.155227 0.0272616 6.49634e-21)
(-0.159526 0.0263211 3.91526e-20)
(-0.163365 0.0245665 -2.53425e-20)
(-0.166419 0.0217989 1.42902e-20)
(-0.168267 0.0178319 2.23329e-20)
(-0.1684 0.0125125 -2.78024e-21)
(-0.16622 0.00574102 5.69717e-21)
(-0.161084 -0.00249986 -1.41378e-20)
(-0.1523 -0.012117 -1.12978e-20)
(-0.1392 -0.0228823 1.57488e-21)
(-0.121214 -0.0344024 6.59338e-21)
(-0.0979637 -0.0461188 2.21958e-20)
(-0.06929 -0.0573953 -5.01819e-21)
(-0.0354081 -0.0675376 -1.49302e-20)
(0.00323164 -0.0760234 -4.30022e-21)
(0.045836 -0.0824809 1.34274e-20)
(0.0916185 -0.0867797 -3.19228e-21)
(0.139525 -0.0889548 -9.14668e-21)
(0.18876 -0.0892144 6.47086e-21)
(0.23826 -0.0877313 5.21422e-21)
(0.287404 -0.0849225 8.86293e-22)
(0.335312 -0.0809104 5.72001e-22)
(0.381532 -0.076263 -1.29271e-22)
(0.425602 -0.0709097 -1.72493e-22)
(0.467059 -0.0655665 2.90962e-22)
(0.506149 -0.0598521 -8.55268e-22)
(0.541977 -0.0546758 -9.6609e-22)
(0.575928 -0.0492346 -3.10776e-22)
(0.605981 -0.0447525 1.28142e-21)
(0.635357 -0.0398796 -1.17244e-21)
(0.659865 -0.0363361 -7.77145e-22)
(0.685685 -0.032086 4.94313e-22)
(0.704973 -0.0295394 -3.33664e-22)
(0.728517 -0.0258342 5.92592e-22)
(0.742815 -0.0242543 -1.01421e-21)
(0.765543 -0.0209686 3.13701e-22)
(0.774879 -0.0202776 5.68036e-22)
(0.79839 -0.017374 -4.68267e-22)
(0.802711 -0.0173651 -1.48753e-22)
(0.828552 -0.0151576 6.74485e-23)
(-0.119472 0.0272774 1.92208e-20)
(-0.12297 0.0277653 2.24965e-21)
(-0.126489 0.0281301 1.34056e-21)
(-0.129989 0.0282254 -3.04027e-21)
(-0.13338 0.0278769 -1.41898e-20)
(-0.136513 0.0268888 -1.0645e-20)
(-0.13916 0.025051 -6.86207e-21)
(-0.141016 0.0221529 2.18601e-20)
(-0.14168 0.0179964 7.95946e-21)
(-0.140671 0.0124183 3.24076e-21)
(-0.137417 0.00531186 -2.85894e-20)
(-0.131307 -0.00334521 4.04852e-20)
(-0.121682 -0.0134548 -1.60428e-20)
(-0.107906 -0.0247816 2.67857e-20)
(-0.0894363 -0.0369116 -1.27073e-20)
(-0.0659207 -0.0492547 -2.62373e-20)
(-0.0372146 -0.0611427 3.92464e-21)
(-0.00354086 -0.0718344 3.00316e-20)
(0.0346582 -0.0807682 -1.42585e-20)
(0.0766073 -0.0875656 1.118e-20)
(0.12155 -0.09208 4.99591e-21)
(0.168464 -0.0943463 8.06171e-21)
(0.216593 -0.0945864 -1.77347e-21)
(0.2649 -0.0929836 -6.50518e-21)
(0.312801 -0.0899777 -3.10701e-21)
(0.359429 -0.0857004 -1.03938e-21)
(0.404371 -0.0807508 -1.26265e-21)
(0.447156 -0.0750583 1.75446e-24)
(0.487373 -0.0693775 -3.54536e-22)
(0.525224 -0.0633096 1.04319e-22)
(0.559901 -0.0578129 8.56866e-22)
(0.592688 -0.0520419 1.88073e-22)
(0.621705 -0.0472873 -6.65724e-23)
(0.650001 -0.0421251 8.03985e-22)
(0.673606 -0.0383701 2.27785e-22)
(0.698421 -0.0338727 -2.33749e-21)
(0.71695 -0.0311771 1.27206e-21)
(0.739544 -0.0272611 -5.87495e-22)
(0.75324 -0.0255908 -5.18293e-22)
(0.775041 -0.0221229 5.97038e-22)
(0.783949 -0.0213934 -2.36945e-22)
(0.806513 -0.0183352 3.58499e-23)
(0.81061 -0.0183249 1.04446e-22)
(0.83543 -0.0160097 -5.45927e-23)
(-0.101105 0.0277552 4.81068e-20)
(-0.103647 0.028231 -5.85863e-20)
(-0.106148 0.0285862 5.18684e-20)
(-0.10857 0.0286685 -2.6265e-20)
(-0.11083 0.0282958 2.51392e-20)
(-0.112791 0.0272625 -4.24164e-20)
(-0.11424 0.0253477 4.56605e-20)
(-0.114889 0.0223293 -2.42202e-20)
(-0.114362 0.0179979 -1.92828e-21)
(-0.112202 0.0121799 -8.3585e-21)
(-0.107868 0.00476134 3.15966e-20)
(-0.10078 -0.00428511 -3.50898e-20)
(-0.0903134 -0.0148581 -1.67602e-20)
(-0.0758642 -0.0267151 -3.62918e-21)
(-0.0569197 -0.0394228 2.80363e-20)
(-0.033155 -0.0523629 1.58889e-20)
(-0.00444095 -0.0648328 -2.59499e-20)
(0.0289933 -0.0760466 -2.1218e-20)
(0.0667121 -0.085409 -8.06897e-21)
(0.107961 -0.0925312 -1.86245e-20)
(0.152017 -0.0972493 1.38154e-20)
(0.197891 -0.0996003 -2.99489e-21)
(0.24487 -0.099818 -2.72982e-21)
(0.291944 -0.0980959 1.21959e-21)
(0.338566 -0.0948951 2.17709e-21)
(0.383883 -0.090357 1.93836e-21)
(0.427522 -0.0851104 5.70462e-22)
(0.469 -0.0790852 -2.21324e-22)
(0.507961 -0.0730731 5.38198e-23)
(0.544562 -0.0666592 9.48071e-22)
(0.578077 -0.0608485 1.07842e-21)
(0.609696 -0.0547554 -1.1793e-21)
(0.637672 -0.0497345 -4.73882e-22)
(0.664886 -0.0442902 -2.99881e-22)
(0.687586 -0.0403289 -3.59718e-22)
(0.711394 -0.0355916 9.96194e-22)
(0.729163 -0.0327507 -3.69103e-22)
(0.750803 -0.0286311 8.40796e-22)
(0.763896 -0.0268729 1.74487e-21)
(0.784764 -0.0232299 -4.93328e-22)
(0.793244 -0.0224628 2.64456e-22)
(0.814851 -0.0192573 -5.74645e-22)
(0.818725 -0.019245 -1.12929e-22)
(0.84251 -0.0168291 -1.22188e-22)
(-0.0820794 0.0280578 5.13412e-20)
(-0.0836788 0.028514 -2.882e-20)
(-0.0851711 0.0288536 -4.44261e-21)
(-0.0865231 0.028919 1.32169e-20)
(-0.0876595 0.0285208 -1.1013e-20)
(-0.0884518 0.0274445 -4.572e-20)
(-0.0887043 0.0254587 2.11102e-20)
(-0.0881478 0.0223302 -3.62212e-21)
(-0.0864295 0.0178384 1.23454e-20)
(-0.083119 0.0117995 -5.04225e-20)
(-0.0777057 0.00409191 1.24097e-20)
(-0.0696416 -0.0053168 3.72486e-20)
(-0.0583356 -0.0163235 -2.41151e-20)
(-0.0432192 -0.0286787 3.45735e-21)
(-0.02381 -0.0419318 7.51192e-21)
(0.000187248 -0.0554451 -1.03989e-20)
(0.0288857 -0.0684509 1.60837e-20)
(0.0620488 -0.0801658 1.88161e-20)
(0.0992484 -0.0899422 8.5474e-21)
(0.139753 -0.0973704 9.83305e-21)
(0.182878 -0.102281 -1.18713e-20)
(0.227668 -0.104711 -2.47896e-22)
(0.273455 -0.104904 -7.64471e-22)
(0.319258 -0.103064 1.79026e-21)
(0.364568 -0.0996712 -1.94909e-21)
(0.408547 -0.0948772 -1.12317e-22)
(0.45086 -0.0893394 2.89761e-22)
(0.491015 -0.0829885 -3.85926e-23)
(0.528708 -0.0766521 2.92209e-22)
(0.564051 -0.0698999 -5.23056e-23)
(0.5964 -0.0637822 -1.44424e-21)
(0.62685 -0.0573747 2.67881e-21)
(0.653787 -0.0520936 9.00661e-23)
(0.679922 -0.046375 2.36333e-21)
(0.701719 -0.0422125 -1.10929e-21)
(0.724526 -0.0372425 -1.48478e-21)
(0.741538 -0.0342602 -5.27322e-22)
(0.762228 -0.0299441 -4.64631e-22)
(0.77472 -0.0281004 -2.17531e-21)
(0.794656 -0.0242894 4.42332e-22)
(0.80271 -0.0234856 5.5035e-22)
(0.823357 -0.02014 4.67887e-22)
(0.827009 -0.0201252 7.85662e-23)
(0.849753 -0.0176154 -1.60863e-22)
(-0.0631062 0.02862 -3.64184e-20)
(-0.0636104 0.0289376 3.10431e-20)
(-0.0639111 0.0289817 1.55422e-20)
(-0.0639395 0.0285564 2.76859e-20)
(-0.063578 0.0274388 3.92144e-21)
(-0.0626459 0.0253877 1.57438e-20)
(-0.0608937 0.022159 -5.54339e-20)
(-0.0579919 0.0175212 1.05333e-20)
(-0.0535376 0.0112803 8.05589e-21)
(-0.0470507 0.00330682 2.36187e-20)
(-0.0380159 -0.00643702 1.6341e-20)
(-0.0258774 -0.0178474 1.18556e-20)
(-0.010102 -0.0306687 2.49915e-20)
(0.00975944 -0.0444341 -4.84086e-20)
(0.0339746 -0.0584872 2.9864e-20)
(0.0626338 -0.071998 1.04406e-20)
(0.0954928 -0.0841904 2.49092e-21)
(0.132137 -0.0943585 1.02706e-20)
(0.171856 -0.102077 -1.49688e-20)
(0.214006 -0.10717 1.18551e-20)
(0.257671 -0.109673 -8.993e-21)
(0.302226 -0.10984 -2.83245e-22)
(0.346723 -0.107883 4.51515e-21)
(0.390691 -0.104303 -1.49013e-21)
(0.433307 -0.0992585 1.68684e-21)
(0.474274 -0.0934359 -7.3414e-22)
(0.513093 -0.0867671 1.9126e-22)
(0.549508 -0.0801135 6.46577e-23)
(0.583592 -0.0730314 -1.44193e-21)
(0.614773 -0.0666137 -3.89123e-23)
(0.64406 -0.0599001 -1.66023e-21)
(0.66996 -0.0543651 -5.03604e-22)
(0.695027 -0.0483799 1.3897e-22)
(0.715928 -0.0440212 1.36209e-22)
(0.737744 -0.0388258 1.38454e-21)
(0.754006 -0.0357059 -4.12962e-22)
(0.773754 -0.0312003 2.75556e-22)
(0.785653 -0.0292734 1.03062e-21)
(0.804662 -0.0253013 -2.2189e-22)
(0.812296 -0.0244616 -2.62488e-22)
(0.831986 -0.0209832 -2.46237e-22)
(0.83542 -0.0209651 -2.91287e-23)
(0.857122 -0.0183684 1.84219e-22)
(-0.041961 0.0285564 -2.66578e-20)
(-0.0415068 0.0288453 3.27813e-20)
(-0.0407844 0.0288634 -3.82939e-20)
(-0.039731 0.0284089 -1.85076e-21)
(-0.0382393 0.0272512 3.20336e-20)
(-0.0361435 0.0251399 -6.19348e-20)
(-0.0332137 0.0218205 4.20407e-20)
(-0.0291443 0.0170508 -3.4972e-20)