/*--------------------------------*- C++ -*----------------------------------*\
  =========                 |
  \\      /  F ield         | OpenFOAM: The Open Source CFD Toolbox
   \\    /   O peration     | Website:  https://openfoam.org
    \\  /    A nd           | Version:  7
     \\/     M anipulation  |
\*---------------------------------------------------------------------------*/
FoamFile
{
    version     2.0;
    format      ascii;
    class       volScalarField;
    location    "35";
    object      p;
}
// * * * * * * * * * * * * * * * * * * * * * * * * * * * * * * * * * * * * * //

dimensions      [0 2 -2 0 0 0 0];

internalField   nonuniform List<scalar> 
3275
(
-0.22287
-0.212166
-0.201087
-0.189743
-0.178243
-0.166688
-0.155173
-0.143784
-0.132597
-0.121682
-0.111094
-0.100885
-0.0910894
-0.0817506
-0.0728712
-0.064509
-0.0565956
-0.0492807
-0.0422974
-0.0361122
-0.0298867
-0.0250317
-0.0191144
-0.0161594
-0.00946049
-0.00994152
0.000171439
-0.00766307
0.0122389
-0.222986
-0.212272
-0.201185
-0.189835
-0.178328
-0.166768
-0.155247
-0.143853
-0.132661
-0.121741
-0.111148
-0.100934
-0.0911342
-0.081791
-0.0729074
-0.0645413
-0.0566243
-0.0493059
-0.0423196
-0.0361313
-0.0299036
-0.0250454
-0.0191273
-0.0161682
-0.00947132
-0.00994454
0.00015914
-0.00765744
0.0122167
-0.223214
-0.212483
-0.201381
-0.190018
-0.178499
-0.166927
-0.155395
-0.14399
-0.132789
-0.121858
-0.111256
-0.101032
-0.0912236
-0.0818717
-0.0729798
-0.0646059
-0.0566815
-0.0493563
-0.0423639
-0.0361694
-0.0299372
-0.025073
-0.019153
-0.0161857
-0.00949296
-0.0099506
0.000134573
-0.00764622
0.0121723
-0.223553
-0.212797
-0.201672
-0.190289
-0.178752
-0.167164
-0.155616
-0.144196
-0.132979
-0.122034
-0.111417
-0.10118
-0.0913574
-0.0819925
-0.0730882
-0.0647025
-0.0567673
-0.0494318
-0.0424303
-0.0362266
-0.0299876
-0.0251142
-0.0191916
-0.0162119
-0.00952537
-0.0099597
9.78061e-05
-0.00762947
0.012106
-0.223998
-0.213208
-0.202055
-0.190647
-0.179087
-0.167477
-0.155909
-0.144468
-0.133232
-0.122267
-0.111631
-0.101375
-0.091535
-0.0821529
-0.0732323
-0.0648311
-0.0568814
-0.0495321
-0.0425185
-0.0363026
-0.0300547
-0.025169
-0.0192428
-0.0162469
-0.00956849
-0.00997186
4.89368e-05
-0.00760732
0.012018
-0.224543
-0.213713
-0.202525
-0.191087
-0.1795
-0.167863
-0.15627
-0.144806
-0.133545
-0.122557
-0.111897
-0.101618
-0.091756
-0.0823526
-0.0734116
-0.0649911
-0.0570235
-0.0496572
-0.0426285
-0.0363974
-0.0301383
-0.0252374
-0.0193068
-0.0162905
-0.00962226
-0.00998712
-1.19042e-05
-0.00757991
0.0119086
-0.225181
-0.214304
-0.203078
-0.191605
-0.179987
-0.168321
-0.156699
-0.145206
-0.133917
-0.122901
-0.112214
-0.101908
-0.0920197
-0.082591
-0.0736258
-0.0651824
-0.0571934
-0.0498067
-0.0427601
-0.0365108
-0.0302383
-0.0253193
-0.0193833
-0.0163428
-0.00968657
-0.0100055
-8.45558e-05
-0.00754741
0.0117783
-0.225902
-0.214976
-0.203707
-0.192196
-0.180544
-0.168845
-0.157192
-0.145667
-0.134347
-0.123299
-0.112581
-0.102244
-0.0923252
-0.0828674
-0.0738744
-0.0654044
-0.0573906
-0.0499804
-0.0429129
-0.0366425
-0.0303546
-0.0254144
-0.0194722
-0.0164036
-0.00976131
-0.0100271
-0.000168827
-0.00751002
0.0116276
-0.2267
-0.215719
-0.204405
-0.192855
-0.181167
-0.169433
-0.157746
-0.146186
-0.134831
-0.123749
-0.112995
-0.102624
-0.0926716
-0.083181
-0.0741565
-0.0656565
-0.0576147
-0.0501779
-0.0430868
-0.0367923
-0.0304869
-0.0255227
-0.0195735
-0.0164729
-0.00984635
-0.0100518
-0.000264497
-0.00746799
0.0114571
-0.227562
-0.216526
-0.205166
-0.193576
-0.18185
-0.170081
-0.158357
-0.146761
-0.135369
-0.124248
-0.113457
-0.103048
-0.0930579
-0.083531
-0.0744716
-0.0659383
-0.0578653
-0.0503987
-0.0432813
-0.03696
-0.030635
-0.0256439
-0.0196869
-0.0165506
-0.00994155
-0.0100799
-0.00037132
-0.00742158
0.0112675
-0.228479
-0.217387
-0.205982
-0.194352
-0.182589
-0.170784
-0.159022
-0.147388
-0.135956
-0.124795
-0.113963
-0.103513
-0.0934827
-0.0839163
-0.0748188
-0.066249
-0.0581418
-0.0506424
-0.043496
-0.0371452
-0.0307987
-0.025778
-0.0198123
-0.0166366
-0.0100467
-0.0101112
-0.000489022
-0.00737105
0.0110594
-0.229441
-0.218295
-0.206845
-0.195177
-0.183378
-0.171537
-0.159738
-0.148065
-0.136592
-0.125388
-0.114512
-0.104019
-0.093945
-0.084336
-0.0751973
-0.0665879
-0.0584435
-0.0509085
-0.0437306
-0.0373476
-0.0309777
-0.0259245
-0.0199494
-0.0167308
-0.0101617
-0.0101459
-0.000617306
-0.0073167
0.0108338
-0.230437
-0.219238
-0.207748
-0.196045
-0.184212
-0.172335
-0.1605
-0.148787
-0.137272
-0.126024
-0.115103
-0.104563
-0.0944434
-0.0847889
-0.0756061
-0.0669542
-0.0587699
-0.0511964
-0.0439846
-0.0375667
-0.0311715
-0.0260834
-0.0200981
-0.0168331
-0.0102863
-0.0101841
-0.000755853
-0.00725886
0.0105913
-0.22021
-0.208683
-0.196948
-0.185084
-0.173175
-0.161304
-0.149551
-0.137994
-0.126701
-0.115733
-0.105145
-0.0949763
-0.0852738
-0.0760442
-0.067347
-0.0591201
-0.0515056
-0.0442575
-0.0378023
-0.03138
-0.0262543
-0.020258
-0.0169433
-0.0104203
-0.0102257
-0.000904321
-0.00719783
0.0103329
-0.2212
-0.209642
-0.197881
-0.18599
-0.174051
-0.162146
-0.150355
-0.138755
-0.127416
-0.1164
-0.105762
-0.0955424
-0.0857894
-0.0765105
-0.0677655
-0.0594935
-0.0518354
-0.0445488
-0.0380537
-0.0316027
-0.0264369
-0.020429
-0.0170614
-0.0105634
-0.0102708
-0.00106235
-0.00713396
0.0100595
-0.222201
-0.210619
-0.198837
-0.186924
-0.174959
-0.163022
-0.151194
-0.139553
-0.128168
-0.117101
-0.106412
-0.09614
-0.0863344
-0.0770039
-0.0682087
-0.0598892
-0.052185
-0.0448577
-0.0383206
-0.0318392
-0.0266309
-0.0206107
-0.0171871
-0.0107154
-0.0103195
-0.00122957
-0.00706756
0.00977211
-0.223204
-0.211606
-0.19981
-0.18788
-0.175893
-0.163928
-0.152066
-0.140383
-0.128952
-0.117836
-0.107093
-0.0967675
-0.0869075
-0.0775233
-0.0686755
-0.0603063
-0.0525539
-0.0451839
-0.0386024
-0.0320891
-0.0268359
-0.0208028
-0.0173203
-0.010876
-0.0103719
-0.00140558
-0.00699899
0.00947161
-0.224204
-0.212598
-0.200795
-0.188855
-0.17685
-0.164861
-0.152966
-0.141244
-0.129767
-0.118601
-0.107805
-0.0974234
-0.0875072
-0.0780674
-0.0691651
-0.0607442
-0.0529412
-0.0455266
-0.0388986
-0.0323519
-0.0270517
-0.021005
-0.0174609
-0.011045
-0.0104279
-0.00158998
-0.00692859
0.00915902
-0.225193
-0.213589
-0.201787
-0.189843
-0.177827
-0.165816
-0.153892
-0.142132
-0.130611
-0.119394
-0.108544
-0.0981063
-0.0881324
-0.0786353
-0.0696764
-0.0612019
-0.0533463
-0.0458853
-0.0392088
-0.0326273
-0.0272779
-0.021217
-0.0176086
-0.0112221
-0.0104876
-0.00178237
-0.00685669
0.00883532
-0.226166
-0.214573
-0.20278
-0.190839
-0.178816
-0.16679
-0.154839
-0.143044
-0.131479
-0.120213
-0.109309
-0.0988137
-0.088781
-0.079225
-0.0702079
-0.0616779
-0.0537679
-0.0462589
-0.0395318
-0.0329144
-0.0275138
-0.0214383
-0.017763
-0.0114069
-0.010551
-0.0019823
-0.00678351
0.00850148
-0.215542
-0.203766
-0.191834
-0.179811
-0.167773
-0.1558
-0.143972
-0.132366
-0.121051
-0.110093
-0.09954
-0.0894477
-0.0798321
-0.0707556
-0.062169
-0.0542031
-0.0466449
-0.0398659
-0.0332117
-0.0277581
-0.0216678
-0.0179234
-0.0115986
-0.0106176
-0.00218927
-0.00670923
0.00815848
-0.216497
-0.204746
-0.19283
-0.180812
-0.168767
-0.156774
-0.144916
-0.13327
-0.121908
-0.110896
-0.100286
-0.0901336
-0.0804573
-0.0713203
-0.0626759
-0.0546527
-0.0470442
-0.0402116
-0.0335196
-0.0280116
-0.021906
-0.0180906
-0.0117975
-0.0106886
-0.00240269
-0.00663504
0.00780746
-0.217476
-0.20576
-0.193868
-0.181862
-0.169815
-0.157808
-0.145922
-0.134236
-0.122825
-0.111758
-0.101087
-0.090871
-0.08113
-0.071928
-0.0632213
-0.0551365
-0.0474733
-0.0405833
-0.0338496
-0.0282841
-0.0221596
-0.0182711
-0.0120066
-0.0107682
-0.00262259
-0.00656406
0.00744964
-0.218456
-0.206796
-0.194948
-0.182969
-0.170933
-0.15892
-0.147011
-0.13529
-0.123831
-0.112705
-0.10197
-0.0916847
-0.0818726
-0.0725988
-0.0638227
-0.055669
-0.0479443
-0.0409903
-0.0342091
-0.0285802
-0.0224327
-0.0184662
-0.0122279
-0.0108554
-0.00285074
-0.00649334
0.00708455
-0.219068
-0.207472
-0.195675
-0.183735
-0.171723
-0.159719
-0.147808
-0.13607
-0.124585
-0.113424
-0.102646
-0.0923131
-0.082451
-0.0731243
-0.0642978
-0.0560906
-0.0483219
-0.0413145
-0.0345037
-0.0288156
-0.0226663
-0.018616
-0.0124339
-0.0109064
-0.00308683
-0.00639039
0.00670735
-0.219627
-0.20797
-0.196108
-0.184106
-0.172037
-0.159983
-0.14803
-0.136258
-0.124745
-0.113563
-0.102769
-0.0924238
-0.0825546
-0.07322
-0.0643937
-0.0561783
-0.0484194
-0.0413955
-0.0346125
-0.0288834
-0.0228011
-0.0186516
-0.0126227
-0.0108684
-0.00338562
-0.00619089
0.00621029
-0.2176
-0.206239
-0.194649
-0.182896
-0.171054
-0.159207
-0.147437
-0.135827
-0.124455
-0.113392
-0.102699
-0.0924353
-0.0826332
-0.0733487
-0.0645643
-0.0563719
-0.0486396
-0.0416124
-0.0348549
-0.0290885
-0.0230556
-0.0188081
-0.0129032
-0.0109221
-0.00374933
-0.00603227
0.00560802
-0.214591
-0.203612
-0.192378
-0.180957
-0.169424
-0.15786
-0.146347
-0.134967
-0.123798
-0.112913
-0.102373
-0.0922384
-0.0825447
-0.0733467
-0.0646346
-0.0564923
-0.0488071
-0.0417967
-0.0350758
-0.029288
-0.0233055
-0.0189764
-0.0131841
-0.0109989
-0.00410947
-0.00590259
0.0049969
-0.200752
-0.18989
-0.178818
-0.167609
-0.156344
-0.145104
-0.133971
-0.123022
-0.11233
-0.101958
-0.0919662
-0.0823941
-0.0732947
-0.0646658
-0.0565834
-0.0489536
-0.0419674
-0.0352889
-0.0294852
-0.0235568
-0.0191493
-0.0134723
-0.0110826
-0.00448159
-0.00577516
0.00436427
-0.19758
-0.187127
-0.176436
-0.165582
-0.154645
-0.143705
-0.132843
-0.122136
-0.111657
-0.101471
-0.0916392
-0.0822025
-0.073214
-0.0646783
-0.0566647
-0.0490968
-0.042141
-0.0355083
-0.0296928
-0.0238195
-0.0193359
-0.0137737
-0.0111793
-0.00486838
-0.00565243
0.00371139
-0.19399
-0.183993
-0.173728
-0.163271
-0.152701
-0.142096
-0.131538
-0.121103
-0.110865
-0.100889
-0.0912376
-0.0819549
-0.0730933
-0.0646642
-0.0567309
-0.0492335
-0.0423161
-0.0357337
-0.0299119
-0.0240941
-0.0195389
-0.0140883
-0.0112924
-0.00526742
-0.00553995
0.00304464
-0.189948
-0.180454
-0.170661
-0.160644
-0.150481
-0.14025
-0.130031
-0.1199
-0.109932
-0.100193
-0.0907462
-0.0816383
-0.0729219
-0.0646144
-0.0567748
-0.0493581
-0.0424884
-0.0359616
-0.0301403
-0.0243787
-0.0197575
-0.0144147
-0.0114229
-0.00567624
-0.00544102
0.00237096
-0.185435
-0.176491
-0.167215
-0.157682
-0.147967
-0.138149
-0.128305
-0.118512
-0.108845
-0.0993715
-0.0901537
-0.0812428
-0.0726912
-0.064522
-0.0567906
-0.0494657
-0.0426542
-0.0361891
-0.030376
-0.0246717
-0.0199911
-0.0147515
-0.0115713
-0.00609263
-0.00535815
0.00169773
-0.180438
-0.172088
-0.163374
-0.154368
-0.145143
-0.135775
-0.126344
-0.116924
-0.10759
-0.0984103
-0.0894487
-0.0807583
-0.0723925
-0.0643796
-0.0567721
-0.0495514
-0.0428096
-0.0364131
-0.0306166
-0.024971
-0.0202385
-0.0150972
-0.0117375
-0.0065141
-0.00529379
0.00103317
-0.174954
-0.167239
-0.159128
-0.150688
-0.141993
-0.133116
-0.124133
-0.115121
-0.106153
-0.0972972
-0.0886193
-0.0801744
-0.0720165
-0.064179
-0.0567124
-0.0496094
-0.0429497
-0.0366298
-0.0308592
-0.0252743
-0.0204983
-0.01545
-0.0119215
-0.00693775
-0.00525016
0.000386142
-0.168994
-0.161949
-0.154476
-0.146641
-0.138511
-0.13016
-0.121662
-0.113092
-0.104521
-0.0960205
-0.0876544
-0.0794804
-0.0715537
-0.0639117
-0.056604
-0.0496333
-0.043069
-0.0368347
-0.0311002
-0.0255785
-0.0207682
-0.0158075
-0.0121222
-0.00736036
-0.005229
-0.000234112
-0.162589
-0.156239
-0.149433
-0.142231
-0.1347
-0.126908
-0.118927
-0.110829
-0.102688
-0.0945708
-0.0865443
-0.0786669
-0.0709948
-0.0635691
-0.0564391
-0.0496162
-0.0431617
-0.0370226
-0.0313351
-0.02588
-0.0210453
-0.0161668
-0.0123383
-0.00777836
-0.00523146
-0.000818366
-0.155782
-0.150143
-0.144023
-0.137479
-0.13057
-0.123363
-0.115927
-0.108331
-0.100647
-0.0929418
-0.0852814
-0.0777257
-0.0703315
-0.0631433
-0.05621
-0.049551
-0.0432212
-0.0371879
-0.0315589
-0.0261745
-0.0213259
-0.0165248
-0.0125674
-0.00818795
-0.00525794
-0.00135786
-0.14863
-0.143709
-0.138285
-0.132411
-0.126143
-0.119541
-0.112672
-0.105602
-0.0983994
-0.0911308
-0.0838612
-0.0766508
-0.0695569
-0.0626268
-0.0559095
-0.0494308
-0.0432409
-0.0373247
-0.0317664
-0.0264575
-0.0216059
-0.0168776
-0.012807
-0.00858512
-0.00530801
-0.00184479
-0.141206
-0.136995
-0.132267
-0.127068
-0.121448
-0.115465
-0.109178
-0.102652
-0.0959506
-0.0891396
-0.0822824
-0.0754388
-0.0686662
-0.0620139
-0.055531
-0.049249
-0.0432144
-0.037427
-0.0319516
-0.0267238
-0.0218807
-0.0172213
-0.0130535
-0.0089658
-0.0053803
-0.00227283
-0.133586
-0.130068
-0.126025
-0.121495
-0.116524
-0.111163
-0.105467
-0.0994964
-0.0933115
-0.0869747
-0.0805476
-0.0740894
-0.0676567
-0.0613004
-0.0550694
-0.049
-0.0431356
-0.0374888
-0.0321089
-0.0269682
-0.0221453
-0.0175515
-0.0133031
-0.00932597
-0.00547254
-0.00263754
-0.125848
-0.122999
-0.11962
-0.115746
-0.111415
-0.106673
-0.101569
-0.0961585
-0.0904984
-0.0846471
-0.0786637
-0.0726057
-0.0665289
-0.0604844
-0.0545213
-0.048679
-0.0429992
-0.0375048
-0.0322326
-0.0271855
-0.0223944
-0.0178637
-0.0135516
-0.00966184
-0.00558164
-0.00293668
-0.118072
-0.115858
-0.113117
-0.109876
-0.106169
-0.102034
-0.0975163
-0.0926649
-0.087532
-0.0821723
-0.0766413
-0.0709945
-0.065286
-0.0595667
-0.053885
-0.0482833
-0.0428012
-0.0374702
-0.0323175
-0.0273708
-0.022623
-0.0181535
-0.0137945
-0.00997003
-0.00570382
-0.00317048
-0.110334
-0.108716
-0.106578
-0.103942
-0.100835
-0.0972904
-0.0933462
-0.089046
-0.084437
-0.0795693
-0.0744947
-0.0692657
-0.0639342
-0.0585503
-0.0531614
-0.0478114
-0.0425388
-0.0373813
-0.0323593
-0.0275195
-0.0228263
-0.0184167
-0.0140273
-0.0102477
-0.00583476
-0.0033416
-0.102703
-0.101636
-0.100063
-0.0979987
-0.095464
-0.0924863
-0.0890971
-0.0853348
-0.0812409
-0.0768605
-0.0722413
-0.0674324
-0.0624828
-0.0574411
-0.0523533
-0.0472642
-0.042211
-0.037236
-0.0323546
-0.0276281
-0.0229999
-0.0186498
-0.0142456
-0.0104929
-0.00596989
-0.00345502
-0.0952398
-0.0946796
-0.0936294
-0.0920992
-0.0901041
-0.0876648
-0.0848084
-0.0815657
-0.077973
-0.0740706
-0.0699013
-0.0655103
-0.0609436
-0.0562475
-0.0514663
-0.0466445
-0.0418183
-0.0370333
-0.0323012
-0.0276936
-0.0231402
-0.0188495
-0.0144455
-0.0107044
-0.00610458
-0.00351764
-0.0880012
-0.0878998
-0.087329
-0.0862932
-0.0848021
-0.0828707
-0.0805196
-0.0777738
-0.0746645
-0.0712262
-0.067497
-0.0635178
-0.0593311
-0.0549804
-0.0505079
-0.0459573
-0.0413636
-0.036774
-0.0321984
-0.0277147
-0.0232448
-0.0190139
-0.0146234
-0.0108818
-0.00623447
-0.00353774
-0.0810353
-0.0813456
-0.0812097
-0.0806272
-0.0796025
-0.0781447
-0.0762687
-0.0739947
-0.071347
-0.0683552
-0.0650525
-0.0614752
-0.0576618
-0.0536529
-0.0494881
-0.0452098
-0.0408514
-0.0364609
-0.0320471
-0.027691
-0.0233119
-0.0191417
-0.0147766
-0.011026
-0.00635573
-0.00352432
-0.0743853
-0.0750609
-0.0753158
-0.075145
-0.0745477
-0.073528
-0.0720953
-0.0702639
-0.0680531
-0.0654869
-0.0625934
-0.0594045
-0.0559544
-0.0522803
-0.0484191
-0.044411
-0.0402883
-0.0360982
-0.0318495
-0.0276237
-0.0233415
-0.0192327
-0.0149032
-0.0111384
-0.00646522
-0.00348644
-0.0680893
-0.0690859
-0.0696884
-0.0698877
-0.0696784
-0.06906
-0.0680366
-0.0666172
-0.064816
-0.0626515
-0.0601471
-0.0573297
-0.0542295
-0.05088
-0.0473149
-0.0435723
-0.0396828
-0.0356923
-0.03161
-0.0275157
-0.0233344
-0.0192882
-0.0150025
-0.0112213
-0.00656072
-0.00343251
-0.0621823
-0.0634576
-0.0643661
-0.0648947
-0.0650343
-0.0647797
-0.0641304
-0.0630907
-0.0616695
-0.0598805
-0.057742
-0.0552763
-0.0525095
-0.0494712
-0.0461919
-0.042707
-0.0390455
-0.0352513
-0.0313342
-0.027371
-0.0232931
-0.0193103
-0.0150744
-0.0112777
-0.00664096
-0.00336987
-0.0566964
-0.0582112
-0.0593858
-0.0602043
-0.0606539
-0.0607257
-0.0604149
-0.0597212
-0.0586488
-0.0572067
-0.0554084
-0.0532719
-0.0508189
-0.0480753
-0.0450683
-0.0418304
-0.0383887
-0.034785
-0.0310297
-0.0271956
-0.0232213
-0.0193024
-0.0151204
-0.0113108
-0.00670563
-0.00330438
-0.0516624
-0.0533801
-0.0547836
-0.0558541
-0.056576
-0.056937
-0.0569285
-0.0565461
-0.0557898
-0.054664
-0.053178
-0.0513454
-0.0491839
-0.0467155
-0.0439643
-0.0409597
-0.0377269
-0.0343052
-0.0307056
-0.0269965
-0.0231243
-0.0192687
-0.0151428
-0.0113243
-0.00675535
-0.00324034
-0.0471107
-0.0489981
-0.0505954
-0.051882
-0.0528396
-0.0534532
-0.0537108
-0.0536043
-0.05313
-0.0522884
-0.0510846
-0.0495281
-0.0476329
-0.0454172
-0.0429021
-0.040114
-0.0370763
-0.0338253
-0.0303728
-0.0267825
-0.0230084
-0.0192148
-0.015145
-0.011322
-0.00679152
-0.00318056
-0.0430728
-0.0450996
-0.0468584
-0.0483269
-0.049485
-0.0503151
-0.0508026
-0.0509362
-0.0507089
-0.0501175
-0.0491635
-0.0478529
-0.0461959
-0.0442076
-0.041906
-0.0393144
-0.0364546
-0.0333602
-0.0300435
-0.0265634
-0.0228813
-0.0191468
-0.0151313
-0.0113081
-0.00681616
-0.00312656
-0.0395826
-0.0417214
-0.0436116
-0.0452298
-0.0465544
-0.0475658
-0.048247
-0.0485844
-0.0485678
-0.0481911
-0.0474526
-0.046355
-0.0449055
-0.043116
-0.0410018
-0.0385837
-0.0358815
-0.0329264
-0.0297312
-0.0263504
-0.0227516
-0.0190716
-0.0151067
-0.0112864
-0.00683172
-0.00307895
-0.0366783
-0.0389042
-0.0408979
-0.0426353
-0.0440935
-0.0452514
-0.0460902
-0.0465942
-0.0467508
-0.0465515
-0.0459919
-0.0450718
-0.0437959
-0.0421734
-0.0402173
-0.0379461
-0.0353779
-0.0325417
-0.0294506
-0.0261552
-0.0226288
-0.0189967
-0.0150768
-0.0112611
-0.00684072
-0.0030377
-0.0344045
-0.0366948
-0.0387659
-0.0405931
-0.0421526
-0.0434223
-0.0443821
-0.0450146
-0.0453054
-0.0452441
-0.044824
-0.0440431
-0.0429037
-0.041413
-0.039582
-0.0374273
-0.0349659
-0.0322247
-0.029217
-0.0259905
-0.0225227
-0.0189297
-0.0150473
-0.0112364
-0.0068458
-0.00300213
-0.0328158
-0.035149
-0.0372721
-0.0391601
-0.0407887
-0.042135
-0.043178
-0.0438992
-0.044283
-0.0443176
-0.0439948
-0.0433112
-0.0422675
-0.0408694
-0.0391265
-0.0370542
-0.0346683
-0.0319945
-0.0290463
-0.0258687
-0.0224433
-0.0188781
-0.0150242
-0.0112157
-0.00685149
-0.0029702
-0.0319791
-0.0343344
-0.0364843
-0.0384038
-0.0400682
-0.0414543
-0.0425407
-0.0433082
-0.0437408
-0.0438256
-0.043554
-0.0429216
-0.0419284
-0.0405792
-0.038883
-0.0368542
-0.0345085
-0.0318704
-0.0289542
-0.0258021
-0.0224005
-0.0188479
-0.015014
-0.0111993
-0.00686573
-0.00294045
-0.029444
-0.0319792
-0.0343345
-0.0364845
-0.0384039
-0.0400683
-0.0414545
-0.0425408
-0.0433083
-0.0437409
-0.0438257
-0.0435541
-0.0429217
-0.0419285
-0.0405792
-0.0388831
-0.0368543
-0.0345086
-0.0318704
-0.0289542
-0.0258022
-0.0224005
-0.018848
-0.015014
-0.0111993
-0.00686574
-0.00294046
-0.030298
-0.0328159
-0.0351491
-0.0372723
-0.0391603
-0.0407888
-0.0421351
-0.0431781
-0.0438993
-0.0442831
-0.0443177
-0.0439949
-0.0433113
-0.0422676
-0.0408694
-0.0391266
-0.0370542
-0.0346683
-0.0319945
-0.0290463
-0.0258688
-0.0224433
-0.0188781
-0.0150242
-0.0112157
-0.0068515
-0.0029702
-0.0319204
-0.0344046
-0.036695
-0.0387661
-0.0405932
-0.0421527
-0.0434224
-0.0443822
-0.0450147
-0.0453055
-0.0452442
-0.0448241
-0.0440432
-0.0429038
-0.041413
-0.0395821
-0.0374274
-0.0349659
-0.0322247
-0.0292171
-0.0259905
-0.0225227
-0.0189297
-0.0150473
-0.0112365
-0.00684581
-0.00300214
-0.0342453
-0.0366784
-0.0389043
-0.0408981
-0.0426354
-0.0440936
-0.0452515
-0.0460903
-0.0465943
-0.0467509
-0.0465516
-0.0459919
-0.0450719
-0.043796
-0.0421735
-0.0402174
-0.0379461
-0.035378
-0.0325418
-0.0294506
-0.0261553
-0.0226288
-0.0189967
-0.0150769
-0.0112612
-0.00684073
-0.0030377
-0.0372199
-0.0395827
-0.0417215
-0.0436117
-0.0452299
-0.0465545
-0.0475659
-0.0482472
-0.0485845
-0.0485679
-0.0481912
-0.0474527
-0.0463551
-0.0449056
-0.043116
-0.0410018
-0.0385837
-0.0358816
-0.0329265
-0.0297313
-0.0263504
-0.0227516
-0.0190716
-0.0151068
-0.0112864
-0.00683173
-0.00307895
-0.040802
-0.043073
-0.0450998
-0.0468585
-0.048327
-0.0494851
-0.0503152
-0.0508027
-0.0509364
-0.050709
-0.0501176
-0.0491636
-0.047853
-0.046196
-0.0442077
-0.041906
-0.0393145
-0.0364547
-0.0333602
-0.0300436
-0.0265635
-0.0228813
-0.0191468
-0.0151313
-0.0113081
-0.00681617
-0.00312657
-0.0449562
-0.0471108
-0.0489983
-0.0505955
-0.0518821
-0.0528398
-0.0534533
-0.0537109
-0.0536044
-0.0531301
-0.0522885
-0.0510847
-0.0495282
-0.0476329
-0.0454173
-0.0429022
-0.0401141
-0.0370763
-0.0338253
-0.0303729
-0.0267825
-0.0230084
-0.0192148
-0.015145
-0.0113221
-0.00679153
-0.00318056
-0.0496518
-0.0516625
-0.0533803
-0.0547837
-0.0558542
-0.0565761
-0.0569372
-0.0569286
-0.0565462
-0.0557899
-0.0546641
-0.0531781
-0.0513455
-0.049184
-0.0467156
-0.0439644
-0.0409597
-0.037727
-0.0343053
-0.0307057
-0.0269965
-0.0231243
-0.0192688
-0.0151428
-0.0113243
-0.00675536
-0.00324035
-0.0548611
-0.0566965
-0.0582113
-0.0593859
-0.0602044
-0.060654
-0.0607258
-0.060415
-0.0597213
-0.0586489
-0.0572068
-0.0554085
-0.0532719
-0.050819
-0.0480753
-0.0450684
-0.0418305
-0.0383888
-0.0347851
-0.0310297
-0.0271956
-0.0232214
-0.0193024
-0.0151205
-0.0113108
-0.00670564
-0.00330438
-0.0605571
-0.0621824
-0.0634578
-0.0643662
-0.0648948
-0.0650344
-0.0647798
-0.0641305
-0.0630908
-0.0616696
-0.0598806
-0.0577421
-0.0552764
-0.0525096
-0.0494712
-0.046192
-0.0427071
-0.0390455
-0.0352513
-0.0313342
-0.0273711
-0.0232931
-0.0193104
-0.0150745
-0.0112777
-0.00664097
-0.00336987
-0.0667128
-0.0680895
-0.069086
-0.0696886
-0.0698878
-0.0696785
-0.0690601
-0.0680367
-0.0666173
-0.0648161
-0.0626516
-0.0601471
-0.0573297
-0.0542296
-0.0508801
-0.047315
-0.0435724
-0.0396828
-0.0356924
-0.03161
-0.0275157
-0.0233344
-0.0192883
-0.0150025
-0.0112214
-0.00656073
-0.00343251
-0.0732993
-0.0743854
-0.075061
-0.075316
-0.0751451
-0.0745478
-0.0735281
-0.0720954
-0.070264
-0.0680532
-0.065487
-0.0625935
-0.0594045
-0.0559545
-0.0522804
-0.0484191
-0.0444111
-0.0402883
-0.0360983
-0.0318496
-0.0276238
-0.0233415
-0.0192328
-0.0149033
-0.0111384
-0.00646523
-0.00348644
-0.0802851
-0.0810355
-0.0813457
-0.0812098
-0.0806273
-0.0796026
-0.0781448
-0.0762688
-0.0739948
-0.0713471
-0.0683553
-0.0650526
-0.0614752
-0.0576619
-0.053653
-0.0494882
-0.0452098
-0.0408515
-0.0364609
-0.0320471
-0.027691
-0.023312
-0.0191417
-0.0147766
-0.011026
-0.00635573
-0.00352433
-0.0876344
-0.0880013
-0.0878999
-0.0873291
-0.0862933
-0.0848022
-0.0828708
-0.0805197
-0.0777739
-0.0746646
-0.0712263
-0.0674971
-0.0635179
-0.0593312
-0.0549805
-0.050508
-0.0459574
-0.0413637
-0.0367741
-0.0321985
-0.0277147
-0.0232448
-0.0190139
-0.0146234
-0.0108819
-0.00623448
-0.00353774
-0.095306
-0.0952399
-0.0946798
-0.0936295
-0.0920993
-0.0901042
-0.0876649
-0.0848085
-0.0815657
-0.0779731
-0.0740707
-0.0699014
-0.0655104
-0.0609437
-0.0562476
-0.0514663
-0.0466446
-0.0418184
-0.0370333
-0.0323012
-0.0276937
-0.0231403
-0.0188496
-0.0144455
-0.0107044
-0.00610458
-0.00351764
-0.103252
-0.102703
-0.101636
-0.100063
-0.0979988
-0.0954641
-0.0924864
-0.0890972
-0.0853349
-0.0812409
-0.0768606
-0.0722414
-0.0674324
-0.0624828
-0.0574411
-0.0523534
-0.0472642
-0.042211
-0.037236
-0.0323546
-0.0276281
-0.0229999
-0.0186498
-0.0142457
-0.0104929
-0.0059699
-0.00345502
-0.111418
-0.110334
-0.108716
-0.106578
-0.103942
-0.100835
-0.0972905
-0.0933463
-0.0890461
-0.0844371
-0.0795694
-0.0744948
-0.0692658
-0.0639343
-0.0585503
-0.0531614
-0.0478114
-0.0425389
-0.0373814
-0.0323593
-0.0275196
-0.0228263
-0.0184168
-0.0140273
-0.0102478
-0.00583477
-0.0033416
-0.119738
-0.118072
-0.115858
-0.113117
-0.109876
-0.106169
-0.102034
-0.0975164
-0.092665
-0.0875321
-0.0821723
-0.0766414
-0.0709946
-0.065286
-0.0595667
-0.0538851
-0.0482833
-0.0428012
-0.0374702
-0.0323175
-0.0273708
-0.0226231
-0.0181535
-0.0137946
-0.00997004
-0.00570383
-0.00317048
-0.128141
-0.125848
-0.122999
-0.119621
-0.115746
-0.111415
-0.106673
-0.101569
-0.0961586
-0.0904985
-0.0846472
-0.0786638
-0.0726058
-0.066529
-0.0604845
-0.0545213
-0.0486791
-0.0429993
-0.0375048
-0.0322326
-0.0271855
-0.0223945
-0.0178637
-0.0135517
-0.00966185
-0.00558165
-0.00293669
-0.136545
-0.133586
-0.130068
-0.126025
-0.121495
-0.116524
-0.111163
-0.105467
-0.0994965
-0.0933116
-0.0869748
-0.0805477
-0.0740894
-0.0676568
-0.0613004
-0.0550695
-0.049
-0.0431356
-0.0374889
-0.0321089
-0.0269682
-0.0221453
-0.0175515
-0.0133032
-0.00932598
-0.00547255
-0.00263754
-0.144864
-0.141206
-0.136995
-0.132267
-0.127068
-0.121448
-0.115465
-0.109178
-0.102652
-0.0959507
-0.0891397
-0.0822824
-0.0754388
-0.0686662
-0.0620139
-0.055531
-0.0492491
-0.0432144
-0.037427
-0.0319517
-0.0267238
-0.0218808
-0.0172213
-0.0130535
-0.00896581
-0.00538031
-0.00227283
-0.153008
-0.14863
-0.143709
-0.138285
-0.132411
-0.126143
-0.119541
-0.112672
-0.105602
-0.0983995
-0.0911308
-0.0838612
-0.0766509
-0.069557
-0.0626268
-0.0559095
-0.0494309
-0.0432409
-0.0373248
-0.0317664
-0.0264575
-0.021606
-0.0168776
-0.012807
-0.00858513
-0.00530802
-0.00184479
-0.160891
-0.155782
-0.150143
-0.144023
-0.137479
-0.13057
-0.123363
-0.115927
-0.108332
-0.100647
-0.0929418
-0.0852815
-0.0777258
-0.0703315
-0.0631433
-0.0562101
-0.0495511
-0.0432212
-0.0371879
-0.031559
-0.0261746
-0.0213259
-0.0165248
-0.0125674
-0.00818796
-0.00525795
-0.00135786
-0.168429
-0.162589
-0.156239
-0.149433
-0.142232
-0.1347
-0.126908
-0.118927
-0.110829
-0.102688
-0.0945708
-0.0865443
-0.078667
-0.0709948
-0.0635692
-0.0564392
-0.0496162
-0.0431617
-0.0370226
-0.0313351
-0.02588
-0.0210453
-0.0161668
-0.0123383
-0.00777837
-0.00523147
-0.000818368
-0.175554
-0.168994
-0.161949
-0.154476
-0.146641
-0.138511
-0.13016
-0.121663
-0.113092
-0.104522
-0.0960205
-0.0876544
-0.0794805
-0.0715537
-0.0639117
-0.0566041
-0.0496333
-0.0430691
-0.0368347
-0.0311002
-0.0255786
-0.0207682
-0.0158075
-0.0121222
-0.00736037
-0.00522901
-0.000234114
-0.18221
-0.174954
-0.167239
-0.159128
-0.150688
-0.141993
-0.133116
-0.124133
-0.115121
-0.106153
-0.0972972
-0.0886193
-0.0801744
-0.0720166
-0.064179
-0.0567124
-0.0496094
-0.0429497
-0.0366298
-0.0308593
-0.0252743
-0.0204984
-0.01545
-0.0119215
-0.00693776
-0.00525016
0.000386139
-0.188358
-0.180438
-0.172088
-0.163375
-0.154368
-0.145143
-0.135775
-0.126344
-0.116924
-0.10759
-0.0984103
-0.0894487
-0.0807584
-0.0723926
-0.0643796
-0.0567721
-0.0495514
-0.0428096
-0.0364131
-0.0306166
-0.024971
-0.0202386
-0.0150972
-0.0117376
-0.00651411
-0.0052938
0.00103317
-0.19398
-0.185435
-0.176491
-0.167216
-0.157682
-0.147967
-0.138149
-0.128305
-0.118512
-0.108845
-0.0993715
-0.0901538
-0.0812428
-0.0726912
-0.0645221
-0.0567906
-0.0494657
-0.0426543
-0.0361891
-0.030376
-0.0246717
-0.0199911
-0.0147515
-0.0115713
-0.00609264
-0.00535815
0.00169773
-0.199073
-0.189948
-0.180454
-0.170661
-0.160644
-0.150481
-0.14025
-0.130031
-0.1199
-0.109932
-0.100194
-0.0907462
-0.0816383
-0.0729219
-0.0646145
-0.0567748
-0.0493581
-0.0424885
-0.0359616
-0.0301403
-0.0243787
-0.0197575
-0.0144147
-0.011423
-0.00567625
-0.00544102
0.00237095
-0.203648
-0.19399
-0.183993
-0.173728
-0.163271
-0.152701
-0.142096
-0.131538
-0.121103
-0.110865
-0.100889
-0.0912376
-0.0819549
-0.0730934
-0.0646642
-0.0567309
-0.0492335
-0.0423161
-0.0357337
-0.0299119
-0.0240941
-0.0195389
-0.0140883
-0.0112924
-0.00526742
-0.00553995
0.00304464
-0.207723
-0.19758
-0.187127
-0.176436
-0.165582
-0.154645
-0.143705
-0.132843
-0.122136
-0.111657
-0.101472
-0.0916392
-0.0822025
-0.073214
-0.0646783
-0.0566647
-0.0490968
-0.042141
-0.0355083
-0.0296928
-0.0238195
-0.0193359
-0.0137737
-0.0111793
-0.00486839
-0.00565243
0.00371139
-0.211332
-0.200752
-0.18989
-0.178818
-0.167609
-0.156344
-0.145104
-0.133971
-0.123022
-0.11233
-0.101958
-0.0919663
-0.0823941
-0.0732947
-0.0646658
-0.0565835
-0.0489536
-0.0419674
-0.0352889
-0.0294852
-0.0235568
-0.0191493
-0.0134723
-0.0110826
-0.00448159
-0.00577517
0.00436427
-0.214591
-0.203612
-0.192378
-0.180957
-0.169424
-0.15786
-0.146347
-0.134967
-0.123798
-0.112913
-0.102373
-0.0922385
-0.0825448
-0.0733467
-0.0646347
-0.0564924
-0.0488072
-0.0417967
-0.0350758
-0.029288
-0.0233056
-0.0189764
-0.0131841
-0.0109989
-0.00410948
-0.00590259
0.0049969
-0.2176
-0.206239
-0.194649
-0.182896
-0.171055
-0.159207
-0.147437
-0.135827
-0.124455
-0.113392
-0.102699
-0.0924353
-0.0826332
-0.0733487
-0.0645643
-0.056372
-0.0486396
-0.0416125
-0.0348549
-0.0290886
-0.0230556
-0.0188082
-0.0129032
-0.0109221
-0.00374934
-0.00603227
0.00560802
-0.219627
-0.20797
-0.196108
-0.184106
-0.172037
-0.159984
-0.14803
-0.136258
-0.124745
-0.113563
-0.102769
-0.0924239
-0.0825546
-0.07322
-0.0643937
-0.0561784
-0.0484195
-0.0413955
-0.0346125
-0.0288834
-0.0228011
-0.0186516
-0.0126227
-0.0108684
-0.00338563
-0.00619089
0.00621029
-0.219068
-0.207472
-0.195675
-0.183735
-0.171723
-0.159719
-0.147808
-0.13607
-0.124585
-0.113424
-0.102646
-0.0923131
-0.082451
-0.0731243
-0.0642978
-0.0560907
-0.048322
-0.0413146
-0.0345038
-0.0288156
-0.0226663
-0.018616
-0.0124339
-0.0109064
-0.00308684
-0.00639039
0.00670735
-0.218456
-0.206796
-0.194948
-0.182969
-0.170933
-0.15892
-0.147011
-0.13529
-0.123831
-0.112705
-0.10197
-0.0916847
-0.0818727
-0.0725988
-0.0638227
-0.055669
-0.0479443
-0.0409903
-0.0342091
-0.0285803
-0.0224327
-0.0184663
-0.0122279
-0.0108554
-0.00285075
-0.00649335
0.00708454
-0.217476
-0.20576
-0.193868
-0.181862
-0.169815
-0.157808
-0.145922
-0.134236
-0.122825
-0.111758
-0.101087
-0.090871
-0.08113
-0.071928
-0.0632213
-0.0551365
-0.0474733
-0.0405834
-0.0338496
-0.0282841
-0.0221596
-0.0182711
-0.0120066
-0.0107682
-0.00262259
-0.00656406
0.00744964
-0.216497
-0.204746
-0.19283
-0.180812
-0.168767
-0.156774
-0.144916
-0.13327
-0.121908
-0.110896
-0.100286
-0.0901336
-0.0804574
-0.0713203
-0.0626759
-0.0546528
-0.0470442
-0.0402117
-0.0335197
-0.0280116
-0.021906
-0.0180906
-0.0117975
-0.0106886
-0.00240269
-0.00663504
0.00780746
-0.215542
-0.203766
-0.191834
-0.179811
-0.167773
-0.1558
-0.143972
-0.132366
-0.121051
-0.110093
-0.09954
-0.0894478
-0.0798321
-0.0707556
-0.062169
-0.0542031
-0.046645
-0.0398659
-0.0332117
-0.0277581
-0.0216678
-0.0179234
-0.0115986
-0.0106176
-0.00218927
-0.00670923
0.00815848
-0.226166
-0.214573
-0.20278
-0.190839
-0.178816
-0.16679
-0.154839
-0.143044
-0.131479
-0.120213
-0.109309
-0.0988138
-0.088781
-0.079225
-0.0702079
-0.0616779
-0.0537679
-0.0462589
-0.0395319
-0.0329145
-0.0275138
-0.0214383
-0.017763
-0.0114069
-0.010551
-0.00198231
-0.00678351
0.00850148
-0.225193
-0.213589
-0.201787
-0.189843
-0.177827
-0.165816
-0.153892
-0.142132
-0.130611