/*--------------------------------*- C++ -*----------------------------------*\
  =========                 |
  \\      /  F ield         | OpenFOAM: The Open Source CFD Toolbox
   \\    /   O peration     | Website:  https://openfoam.org
    \\  /    A nd           | Version:  7
     \\/     M anipulation  |
\*---------------------------------------------------------------------------*/
FoamFile
{
    version     2.0;
    format      ascii;
    class       surfaceScalarField;
    location    "35";
    object      phi;
}
// * * * * * * * * * * * * * * * * * * * * * * * * * * * * * * * * * * * * * //

dimensions      [0 3 -1 0 0 0 0];

internalField   nonuniform List<scalar> 
6401
(
-5.36896e-05
-2.56624e-05
-1.77579e-11
-2.26801e-05
-3.10095e-05
-1.07587e-11
1.33185e-05
-3.59986e-05
-2.80813e-12
5.38768e-05
-4.05583e-05
6.44374e-12
9.85305e-05
-4.46537e-05
1.66145e-11
0.000146806
-4.82753e-05
2.78371e-11
0.000198236
-5.14305e-05
3.95779e-11
0.000252373
-5.41368e-05
5.08129e-11
0.000308789
-5.64165e-05
6.18066e-11
0.000367083
-5.82938e-05
7.23147e-11
0.000426876
-5.97929e-05
8.19035e-11
0.000487813
-6.09375e-05
9.10343e-11
0.000549562
-6.17489e-05
9.86055e-11
0.000611811
-6.22492e-05
1.05678e-10
0.000674266
-6.2455e-05
1.11171e-10
0.000736657
-6.23907e-05
1.15113e-10
0.000798718
-6.20613e-05
1.18244e-10
0.000860228
-6.15101e-05
1.20479e-10
0.000920929
-6.07008e-05
1.20011e-10
0.000980684
-5.97558e-05
1.17853e-10
0.00103917
-5.84854e-05
1.14135e-10
0.00109647
-5.73046e-05
1.07567e-10
0.00115195
-5.54746e-05
9.77486e-11
0.00120638
-5.44315e-05
8.04623e-11
0.00125794
-5.15616e-05
6.16819e-11
0.00130963
-5.16873e-05
2.8994e-11
0.0013558
-4.61724e-05
-7.93859e-13
0.00140581
-5.0006e-05
-5.50623e-11
-3.8924e-05
-8.93308e-11
-4.74244e-05
-5.13608e-05
-1.64248e-05
-6.20091e-05
1.95203e-05
-7.19437e-05
5.99857e-05
-8.10237e-05
0.000104512
-8.91804e-05
0.000152632
-9.63953e-05
0.000203885
-0.000102683
0.000257828
-0.000108079
0.000314037
-0.000112626
0.000372116
-0.000116373
0.000431689
-0.000119366
0.000492405
-0.000121654
0.000553934
-0.000123277
0.000615966
-0.000124281
0.000678208
-0.000124697
0.000740392
-0.000124575
0.000802255
-0.000123924
0.000863574
-0.00012283
0.000924094
-0.000121221
0.000983679
-0.000119341
0.001042
-0.000116811
0.00109916
-0.000114461
0.0011545
-0.000110813
0.00120881
-0.00010874
0.00126026
-0.000103013
0.00131185
-0.000103278
0.00135794
-9.22666e-05
0.00140788
-9.99384e-05
-7.78286e-05
-3.49439e-05
-7.71286e-05
-3.96612e-06
-9.29869e-05
3.18701e-05
-0.00010778
7.21483e-05
-0.000121302
0.00011642
-0.000133452
0.00016423
-0.000144205
0.000215128
-0.000153582
0.000268683
-0.000161633
0.00032448
-0.000168423
0.00038213
-0.000174023
0.000441267
-0.000178502
0.000501543
-0.00018193
0.000562633
-0.000184368
0.000624233
-0.000185881
0.000686053
-0.000186517
0.000747827
-0.000186349
0.000809295
-0.000185391
0.000870236
-0.000183772
0.000930397
-0.000181381
0.000989643
-0.000178588
0.00104765
-0.00017482
0.00110451
-0.000171324
0.00115958
-0.000165882
0.00121365
-0.000162803
0.00126488
-0.000154248
0.00131628
-0.000154675
0.00136222
-0.000138206
0.00141201
-0.000149725
-0.000116695
-1.63471e-05
-0.000102994
1.45921e-05
-0.000123926
5.02607e-05
-0.000143449
9.02551e-05
-0.000161296
0.000134144
-0.000177341
0.000181488
-0.000191549
0.000231856
-0.00020395
0.00028483
-0.000214607
0.000340013
-0.000223606
0.000397026
-0.000231036
0.000455511
-0.000236988
0.000515133
-0.000241552
0.000575572
-0.000244807
0.00063653
-0.000246839
0.000697723
-0.00024771
0.000758889
-0.000247515
0.00081977
-0.000246272
0.000880152
-0.000244153
0.00093978
-0.000241009
0.000998525
-0.000237333
0.00105606
-0.000232359
0.00111249
-0.000227752
0.00116716
-0.000220551
0.00122086
-0.000216506
0.00127178
-0.000205161
0.00132289
-0.00020579
0.0013686
-0.000183918
0.00141818
-0.000199298
-0.000155509
8.21892e-06
-0.000128978
3.90962e-05
-0.000154803
7.45329e-05
-0.000178885
0.000114143
-0.000200907
0.000157518
-0.000220716
0.000204241
-0.000238273
0.000253904
-0.000253613
0.00030611
-0.000266814
0.00036048
-0.000277975
0.000416651
-0.000287207
0.000474279
-0.000294616
0.000533038
-0.000300311
0.00059262
-0.000304389
0.000652734
-0.000306953
0.000713103
-0.000308078
0.000773469
-0.000307882
0.000833581
-0.000306384
0.000893228
-0.000303799
0.000952158
-0.00029994
0.00101025
-0.000295421
0.00106717
-0.000289283
0.00112303
-0.000283612
0.00117718
-0.0002747
0.00123041
-0.000269737
0.00128091
-0.000255657
0.00133165
-0.000256536
0.00137707
-0.000229337
0.00142637
-0.000248595
-0.000194256
3.85605e-05
-0.000155091
6.93436e-05
-0.000185586
0.000104477
-0.000214019
0.000143598
-0.000240028
0.000186326
-0.000263443
0.000232273
-0.00028422
0.000281059
-0.000302399
0.000332313
-0.000318067
0.000385677
-0.000331339
0.000440808
-0.000342338
0.000497378
-0.000351187
0.000555077
-0.00035801
0.000613605
-0.000362918
0.000672683
-0.00036603
0.00073204
-0.000367435
0.000791427
-0.000367269
0.000850597
-0.000365554
0.000909344
-0.000362546
0.000967421
-0.000358017
0.00102471
-0.000352706
0.00108088
-0.000345458
0.00113605
-0.000338779
0.00118956
-0.000328214
0.00124222
-0.000322395
0.00129221
-0.000305646
0.00134251
-0.000306835
0.00138757
-0.000274401
0.00143654
-0.000297559
-0.000232932
7.44407e-05
-0.00018133
0.000105086
-0.000216231
0.000139835
-0.000248769
0.000178357
-0.000278549
0.000220301
-0.000305388
0.000265317
-0.000329236
0.000313057
-0.000350138
0.000363179
-0.000368189
0.000415351
-0.000383512
0.000469254
-0.00039624
0.000524578
-0.000406511
0.000581027
-0.000414459
0.000638317
-0.000420208
0.000696178
-0.000423891
0.000754349
-0.000425606
0.000812589
-0.000425509
0.000870656
-0.000423622
0.000928352
-0.000420242
0.000985433
-0.000415098
0.00104178
-0.000409055
0.00109708
-0.00040076
0.00115144
-0.00039314
0.00120422
-0.000380991
0.00125622
-0.00037439
0.00130562
-0.000355049
0.00135541
-0.000356621
0.00140007
-0.000319061
0.00144865
-0.000346142
-0.000271533
0.000115581
-0.000207674
0.000146029
-0.00024668
0.000180304
-0.000283044
0.000218107
-0.000316352
0.000259129
-0.00034641
0.00030306
-0.000373167
0.000349587
-0.000396666
0.000398404
-0.000417006
0.000449209
-0.000434316
0.000501704
-0.000448736
0.000555604
-0.000460411
0.000610628
-0.000469483
0.000666508
-0.000476088
0.000722986
-0.000480369
0.00077981
-0.00048243
0.00083675
-0.000482449
0.000893569
-0.000480441
0.000950076
-0.000476748
0.00100603
-0.000471054
0.00106133
-0.000464349
0.00111564
-0.000455078
0.0011691
-0.000446596
0.00122105
-0.000432943
0.0012723
-0.000425642
0.00132105
-0.0004038
0.00137027
-0.000405836
0.00141448
-0.000363277
0.00146265
-0.000394309
-0.000310067
0.000161663
-0.000234085
0.00019184
-0.000276857
0.000225537
-0.00031674
0.000262495
-0.000353311
0.000302453
-0.000386368
0.000345144
-0.000415857
0.000390297
-0.00044182
0.000437644
-0.000464353
0.000486912
-0.000483584
0.000537835
-0.000499658
0.000590145
-0.000512721
0.000643585
-0.000522923
0.000697899
-0.000530402
0.000752843
-0.000535313
0.000808177
-0.000537764
0.000863679
-0.000537951
0.000919121
-0.000535884
0.000974318
-0.000531945
0.00102904
-0.000525772
0.00108317
-0.000518484
0.00113641
-0.000508319
0.00118888
-0.000499061
0.00123993
-0.000483993
0.00129037
-0.000476087
0.00133842
-0.000451844
0.00138702
-0.000454437
0.00143076
-0.00040702
0.00147849
-0.000442033
-0.000348548
0.000212335
-0.000260499
0.000242146
-0.000306668
0.000275146
-0.00034974
0.000311126
-0.00038929
0.000349873
-0.000425115
0.000391171
-0.000457155
0.000434795
-0.000485444
0.000480513
-0.000510072
0.00052809
-0.000531161
0.000577286
-0.000548854
0.000627858
-0.000563293
0.000679568
-0.000574632
0.000732177
-0.000583012
0.000785455
-0.000588591
0.000839174
-0.000591483
0.00089312
-0.000591897
0.000947075
-0.000589838
0.00100086
-0.000585729
0.00105425
-0.000579159
0.00110714
-0.000571374
0.00115922
-0.000560404
0.00121063
-0.000550468
0.00126072
-0.000534083
0.00131031
-0.000525675
0.00135761
-0.000499144
0.00140556
-0.000502393
0.00144882
-0.000450277
0.00149609
-0.000489302
-0.000386999
0.000267209
-0.000286826
0.000296539
-0.000335999
0.000328709
-0.00038191
0.000363566
-0.000424147
0.000400953
-0.000462502
0.000440708
-0.000496909
0.000482651
-0.000527387
0.000526595
-0.000554015
0.000572337
-0.000576904
0.000619667
-0.000596184
0.000668369
-0.000611995
0.000718222
-0.000624486
0.000769007
-0.000633796
0.000820506
-0.00064009
0.000872503
-0.00064348
0.000924795
-0.000644189
0.000977171
-0.000642214
0.00102946
-0.000638018
0.00108144
-0.000631138
0.00113302
-0.000622951
0.00118389
-0.000611276
0.00123419
-0.000600766
0.00128327
-0.000583171
0.00133197
-0.000574374
0.00137851
-0.000545676
0.0014258
-0.000549688
0.00146857
-0.000493046
0.00151538
-0.000536115
-0.000425453
0.000325867
-0.000312947
0.000354577
-0.000364709
0.000385768
-0.000413102
0.000419349
-0.000457728
0.000455225
-0.000498378
0.000493288
-0.000534972
0.000533409
-0.000567509
0.000575441
-0.000596048
0.000619219
-0.000620681
0.000664562
-0.000641526
0.000711277
-0.00065871
0.000759167
-0.000672375
0.000808027
-0.000682656
0.000857655
-0.000689718
0.000907846
-0.000693671
0.000958406
-0.00069475
0.00100913
-0.000692941
0.00105986
-0.000688748
0.00111038
-0.000681654
0.0011606
-0.000673169
0.00121022
-0.000660894
0.00125937
-0.000649924
0.00130744
-0.000631235
0.00135523
-0.000622169
0.00140099
-0.000591435
0.00144763
-0.000596325
0.00148993
-0.000535344
0.0015363
-0.00058249
-0.000463954
0.000387862
0.000415787
-0.000392634
0.000445833
-0.000443149
0.000477978
-0.000489872
0.000512189
-0.00053259
0.000548417
-0.000571199
0.000586582
-0.000605674
0.00062658
-0.000636045
0.000668279
-0.000662381
0.00071153
-0.000684777
0.000756165
-0.000703345
0.000802004
-0.000718214
0.000848861
-0.000729513
0.000896547
-0.000737404
0.000944868
-0.000741992
0.000993642
-0.000743523
0.00104267
-0.000741971
0.0010918
-0.00073788
0.00114082
-0.000730675
0.00118966
-0.000722002
0.001238
-0.000709239
0.00128601
-0.00069793
0.00133304
-0.00067827
0.00137994
-0.000669062
0.00142493
-0.000636432
0.00147093
-0.000642322
0.00151279
-0.0005772
0.00155875
-0.000628457
-0.000502555
0.000479668
-0.000419584
0.000508389
-0.000471869
0.000538928
-0.000520412
0.000571322
-0.000564984
0.000605577
-0.000605454
0.000641663
-0.00064176
0.000679517
-0.000673899
0.000719042
-0.000701906
0.000760115
-0.00072585
0.000802593
-0.000745823
0.000846316
-0.000761938
0.000891114
-0.000774311
0.00093681
-0.0007831
0.000983222
-0.000788404
0.00103018
-0.000790477
0.00107748
-0.000789279
0.001125
-0.000785394
0.00117251
-0.000778189
0.00121995
-0.000769444
0.00126703
-0.000756315
0.00131389
-0.000744793
0.00135991
-0.000724291
0.00140593
-0.000715076
0.00145019
-0.000680698
0.00149558
-0.000687713
0.00153705
-0.000618663
0.00158265
-0.000674064
-0.000541323
0.000545693
-0.000445343
0.000572892
-0.000499068
0.000601653
-0.000549174
0.000632079
-0.00059541
0.000664232
-0.000637606
0.000698128
-0.000675657
0.000733744
-0.000709515
0.000771015
-0.000739177
0.000809846
-0.000764681
0.000850115
-0.000786091
0.000891679
-0.000803503
0.000934384
-0.000817016
0.000978065
-0.000826781
0.00102255
-0.00083289
0.00106768
-0.000835603
0.00111326
-0.000834863
0.00115916
-0.000831296
0.00120518
-0.000824206
0.00125125
-0.000815513
0.00129707
-0.000802142
0.00134282
-0.000790541
0.00138787
-0.000769334
0.00143304
-0.000760252
0.00147662
-0.000724281
0.00152146
-0.000732551
0.0015626
-0.000659798
0.00160791
-0.000719375
-0.000580336
0.000613308
-0.000469674
0.000638778
-0.000524537
0.000665586
-0.000575982
0.000693899
-0.000623722
0.00072383
-0.000667537
0.000755441
-0.000707268
0.000788743
-0.000742817
0.000823702
-0.000774136
0.000860246
-0.000801226
0.000898274
-0.000824119
0.00093766
-0.000842889
0.000978262
-0.000857618
0.00101993
-0.000868447
0.00106249
-0.000875456
0.0011058
-0.000878913
0.00114969
-0.000878743
0.001194
-0.000875612
0.00123855
-0.000868759
0.00128329
-0.000860247
0.00132791
-0.000846766
0.0013726
-0.000835225
0.00141672
-0.000813454
0.00146112
-0.00080465
0.00150408
-0.000767248
0.00154844
-0.000776908
0.00158933
-0.000700686
0.00163442
-0.000764471
-0.000619682
0.000681938
-0.000492315
0.000705463
-0.000548063
0.000730145
-0.000600664
0.000756207
-0.000649784
0.000783811
-0.000695141
0.000813057
-0.000736515
0.000843989
-0.000773749
0.000876598
-0.000806745
0.000910834
-0.000835462
0.000946613
-0.000859897
0.000983824
-0.0008801
0.00102234
-0.000896131
0.00106201
-0.00090812
0.00110269
-0.000916134
0.00114422
-0.000920447
0.00118644
-0.000920964
0.00122922
-0.000918391
0.00127237
-0.000911904
0.00131583
-0.000903707
0.00135931
-0.000890253
0.001403
-0.000878915
0.00144627
-0.000856726
0.00148998
-0.000848352
0.00153241
-0.000809686
0.00157638
-0.000820872
0.00161712
-0.000741426
0.0016621
-0.00080945
-0.000659465
0.000750984
-0.000512994
0.000772348
-0.000569427
0.000794736
-0.000623052
0.000818423
-0.000673471
0.00084361
-0.000720329
0.000870432
-0.000763337
0.000898958
-0.000802274
0.000929201
-0.000836988
0.00096113
-0.000867391
0.000994676
-0.000893443
0.00102974
-0.000915164
0.0010662
-0.000932593
0.00110393
-0.000945847
0.00114277
-0.000954977
0.00118259
-0.000960264
0.00122322
-0.000961591
0.00126453
-0.000959707
0.00130635
-0.000953717
0.00134861
-0.000945974
0.00139105
-0.000932687
0.00143383
-0.0009217
0.00147635
-0.000899246
0.00151945
-0.000891454
0.00156147
-0.000851699
0.00160514
-0.00086455
0.00164585
-0.000782135
0.00169083
-0.000854426
-0.000699797
0.000819829
-0.000531429
0.00083882
-0.000588418
0.000858759
-0.000642992
0.000879963
-0.000694674
0.000902665
-0.000743031
0.000927024
-0.000787696
0.00095313
-0.000828381
0.000981015
-0.000864874
0.00101066
-0.000897038
0.00104201
-0.000924794
0.00107498
-0.000948132
0.00110945
-0.000967065
0.0011453
-0.000981697
0.00118239
-0.000992063
0.00122057
-0.000998448
0.0012597
-0.00100071
0.00129964
-0.000999652
0.00134022
-0.000994296
0.0013814
-0.000987149
0.00142288
-0.000974174
0.00146487
-0.000963691
0.00150675
-0.000941126
0.00154937
-0.000934074
0.00159108
-0.000893408
0.0016346
-0.000908065
0.00167541
-0.000822945
0.00172051
-0.00089953
-0.000740803
0.000887842
0.00090426
-0.000604835
0.000921614
-0.000660346
0.000940248
-0.000713308
0.000960417
-0.0007632
0.000982298
-0.000809577
0.001006
-0.000852079
0.00103156
-0.000890434
0.00105897
-0.000924452
0.00108819
-0.000954015
0.00111914
-0.000979079
0.0011517
-0.000999631
0.00118577
-0.00101576
0.0012212
-0.00102749
0.00125785
-0.0010351
0.00129558
-0.00103844
0.00133427
-0.00103834
0.00137373
-0.00103376
0.00141394
-0.00102736
0.0014546
-0.00101484
0.00149593
-0.00100502
0.0015373
-0.000982498
0.00157957
-0.000976346
0.00162112
-0.000934954
0.00166461
-0.000951557
0.00170567
-0.000864004
0.00175105
-0.000944908
-0.000782619
0.000968047
-0.000618503
0.000982704
-0.000675003
0.000998707
-0.00072931
0.00101632
-0.000780815
0.00103574
-0.000828991
0.00105706
-0.000873405
0.00108035
-0.000913725
0.00110561
-0.000949708
0.00113279
-0.000981192
0.00116181
-0.0010081
0.00119258
-0.0010304
0.00122497
-0.00104816
0.00125886
-0.00106138
0.00129411
-0.00107036
0.00133057
-0.0010749
0.00136814
-0.0010759
0.00140662
-0.00107224
0.001446
-0.00106673
0.00148598
-0.00105483
0.00152678
-0.00104582
0.0015678
-0.00102351
0.00160987
-0.00101842
0.00165141
-0.000976491
0.00169503
-0.000995182
0.0017365
-0.000905475
0.00178232
-0.000990724
-0.000825394
0.00102955
-0.000629274
0.00104143
-0.000686883
0.00105477
-0.000742652
0.00106984
-0.000795886
0.00108683
-0.000845977
0.00110585
-0.000892423
0.00112695
-0.000934829
0.00115015
-0.000972901
0.00117539
-0.00100644
0.00120261
-0.00103532
0.00123171
-0.0010595
0.00126257
-0.00107902
0.00129506
-0.00109387
0.00132905
-0.00110435
0.00136439
-0.00111025
0.00140098
-0.0011125
0.00143864
-0.0011099
0.00147734
-0.00110543
0.00151681
-0.00109429
0.00155725
-0.00108626
0.00159807
-0.00106433
0.00164011
-0.00106047
0.00168181
-0.00101819
0.00172574
-0.00103911
0.0017678
-0.000947538
0.00181423
-0.00103715
-0.000869284
0.00108815
-0.000637041
0.0010972
-0.000695939
0.00110789
-0.000753335
0.00112045
-0.000808449
0.00113508
-0.000860602
0.00115187
-0.000909223
0.0011709
-0.000953855
0.00119216
-0.000994157
0.0012156
-0.00102988
0.00124116
-0.00106088
0.00126874
-0.00108707
0.00129822
-0.0011085
0.00132947
-0.00112512
0.00136237
-0.00113725
0.00139676
-0.00114464
0.00143255
-0.00114829
0.00146956
-0.0011469
0.00150776
-0.00114363
0.00154688
-0.00113341
0.00158714
-0.00112652
0.00162794
-0.00110513
0.00167013
-0.00110266
0.00171218
-0.00106023
0.00175659
-0.00108353
0.00179944
-0.000990385
0.00184667
-0.00108438
-0.000914455
0.0011433
-0.000641741
0.00114953
-0.000702165
0.00115759
-0.000761392
0.00116771
-0.000818573
0.00118007
-0.000872959
0.00119476
-0.000923916
0.00121184
-0.000970932
0.0012313
-0.00101361
0.00125309
-0.00105168
0.00127715
-0.00108494
0.00130338
-0.0011133
0.00133165
-0.00113677
0.00136184
-0.00115531
0.00139382
-0.00116923
0.00142745
-0.00117827
0.00146262
-0.00118345
0.00149915
-0.00118343
0.00153704
-0.00118152
0.001576
-0.00117237
0.00161627
-0.00116679
0.00165724
-0.0011461
0.00169978
-0.0011452
0.00174237
-0.00110282
0.00178747
-0.00112862
0.0018313
-0.00103422
0.00187953
-0.00113261
-0.000961084
0.00119463
-0.000643385
0.00119808
-0.000705617
0.0012036
-0.000766912
0.00121139
-0.000826365
0.00122161
-0.000883171
0.00123433
-0.000936639
0.0012496
-0.000986203
0.00126741
-0.00103143
0.00128772
-0.00107198
0.00131044
-0.00110767
0.00133548
-0.00113833
0.00136271
-0.00116401
0.00139201
-0.00118461
0.00142325
-0.00120047
0.00145629
-0.0012113
0.00149102
-0.00121818
0.00152727
-0.00121968
0.00156502
-0.00121928
0.00160403
-0.00121138
0.00164448
-0.00120724
0.00168585
-0.00118747
0.0017289
-0.00118825
0.00177228
-0.0011462
0.0018182
-0.00117454
0.00186334
-0.00107936
0.00191262
-0.0011819
-0.00100947
0.00263764
-0.00063645
0.00263184
-0.000699815
0.00262737
-0.000762442
0.00262445
-0.000823442
0.00262328
-0.000882003
0.00262405
-0.00093741
0.00262691
-0.000989062
0.00263196
-0.00103648
0.00263927
-0.00107929
0.00264885
-0.00111725
0.00266068
-0.00115017
0.00267471
-0.00117803
0.00269085
-0.00120075
0.00270899
-0.00121861
0.00272901
-0.00123132
0.00275074
-0.00123992
0.0027741
-0.00124304
0.00279886
-0.00124404
0.00282499
-0.0012375
0.00285219
-0.00123445
0.00288056
-0.00121583
0.00290976
-0.00121745
0.0029399
-0.00117634
0.00297089
-0.00120553
0.00300252
-0.00111099
0.00303519
-0.00121456
-0.00104334
0.00299487
-0.000619684
0.00298005
-0.000684995
0.0029672
-0.000749591
0.00295641
-0.000812648
0.00294779
-0.000873381
0.00294145
-0.000931078
0.00293751
-0.000985122
0.00293604
-0.001035
0.00293707
-0.00108032
0.00294061
-0.00112078
0.00294662
-0.00115618
0.00295504
-0.00118645
0.00296578
-0.00121149
0.0029787
-0.00123153
0.00299371
-0.00124633
0.00301061
-0.00125682
0.00302932
-0.00126175
0.00304957
-0.00126429
0.0030714
-0.00125933
0.0030944
-0.00125745
0.00311884
-0.00124027
0.00314405
-0.00124266
0.0031707
-0.001203
0.00319778
-0.00123261
0.0032266
-0.00113981
0.00325513
-0.00124309
-0.00107506
0.00338902
0.00336414
-0.000660119
0.0033419
-0.000727349
0.00332226
-0.000793007
0.00330524
-0.000856364
0.0032909
-0.000916736
0.00327928
-0.000973507
0.00327043
-0.00102615
0.00326436
-0.00107425
0.00326105
-0.00111748
0.00326046
-0.00115559
0.00326252
-0.00118851
0.00326712
-0.00121609
0.00327412
-0.00123854
0.00328342
-0.00125562
0.00329482
-0.00126822
0.00330823
-0.00127516
0.00332337
-0.00127943
0.00334028
-0.00127625
0.00335852
-0.00127569
0.00337841
-0.00126016
0.00339916
-0.00126342
0.00342169
-0.00122552
0.0034445
-0.00125543
0.00346977
-0.00116507
0.00349402
-0.00126734
-0.00110392
0.00378372
-0.000624554
0.00375139
-0.000695015
0.00372216
-0.000763784
0.003696
-0.000830204
0.00367289
-0.000893629
0.00365285
-0.000953462
0.00363587
-0.00100918
0.00362196
-0.00106033
0.00361108
-0.00110659
0.00360316
-0.00114768
0.00359814
-0.00118348
0.0035959
-0.00121385
0.00359631
-0.00123895
0.00359923
-0.00125855
0.00360448
-0.00127346
0.00361195
-0.00128263
0.00362137
-0.00128885
0.00363276
-0.00128764
0.00364566
-0.00128858
0.00366045
-0.00127494
0.0036762
-0.00127917
0.00369406
-0.00124338
0.00371209
-0.00127346
0.00373331
-0.00118628
0.00375277
-0.00128681
-0.00112945
0.0042373
-0.000578205
0.00419461
-0.000652319
0.00415541
-0.000724592
0.00411964
-0.000794432
0.00408725
-0.000861237
0.00405822
-0.000924431
0.00403253
-0.000983494
0.00401017
-0.00103797
0.0039911
-0.00108751
0.00397524
-0.00113183
0.00396252
-0.00117076
0.00395282
-0.00120415
0.00394601
-0.00123213
0.00394195
-0.00125449
0.00394044
-0.00127195
0.00394138
-0.00128358
0.00394449
-0.00129195
0.0039498
-0.00129295
0.00395681
-0.00129559
0.00396594
-0.00128408
0.00397616
-0.00128939
0.00398884
-0.00125607
0.00400158
-0.0012862
0.00401825
-0.00120296
0.00403244
-0.00130099
-0.00115116
0.00472217
-0.000521593
0.00466936
-0.000599515
0.00462026
-0.000675487
0.00457479
-0.00074896
0.00453291
-0.00081936
0.00449461
-0.00088613
0.00445987
-0.000948753
0.00442866
-0.00100677
0.00440096
-0.00105981
0.00437669
-0.00110756
0.00435578
-0.00114985
0.00433812
-0.00118649
0.00432356
-0.00121758
0.00431199
-0.00124292
0.00430321
-0.00126317
0.0042971
-0.00127747
0.00429338
-0.00128823
0.00429209
-0.00129166
0.00429269
-0.00129619
0.00429567
-0.00128706
0.00429987
-0.00129358
0.00430688
-0.00126308
0.00431386
-0.00129317
0.00432551
-0.00121461
0.00433397
-0.00130945
-0.00116855
0.00523432
-0.000455879
0.00517224
-0.000537439
0.0051138
-0.000617047
0.005059
-0.000694155
0.00500784
-0.000768199
0.00496033
-0.000838626
0.0049165
-0.000904916
0.00487632
-0.000966598
0.00483979
-0.00102328
0.00480686
-0.00107463
0.00477746
-0.00112044
0.00475149
-0.00116052
0.00472883
-0.00119492
0.00470936
-0.00122345
0.00469289
-0.00124669
0.00467931
-0.0012639
0.00466833
-0.00127725
0.00466001
-0.00128334
0.00465378
-0.00128997
0.00465017
-0.00128344
0.00464792
-0.00129133
0.00464882
-0.00126398
0.00464961
-0.00129396
0.0046558
-0.00122081
0.00465813
-0.00131178
-0.00118116
0.00576862
-0.000382807
0.00569868
-0.000467504
0.00563203
-0.000550389
0.00556876
-0.000630886
0.00550897
-0.000708414
0.00545275
-0.000782403
0.00540015
-0.000852316
0.00535122
-0.000917664
0.00530596
-0.000978025
0.00526438
-0.00103305
0.00522643
-0.00108249
0.00519203
-0.00112613
0.0051611
-0.00116398
0.00513351
-0.00119587
0.0051091
-0.00122228
0.00508777
-0.00124257
0.00506924
-0.00125872
0.00505356
-0.00126766
0.00504018
-0.00127658
0.00502963
-0.00127289
0.00502058
-0.00128229
0.00501501
-0.00125841
0.00500926
-0.0012882
0.00500961
-0.00122115
0.00500547
-0.00130764
-0.00118853
0.00631901
-0.000304587
0.00624313
-0.000391624
0.00616988
-0.000477145
0.00609952
-0.000560524
0.00603225
-0.000641139
0.00596823
-0.000718388
0.00590762
-0.000791701
0.00585051
-0.000860558
0.00579699
-0.000924503
0.00574709
-0.000983149
0.00570082
-0.00103621
0.00565814
-0.00108346
0.005619
-0.00112484
0.0055833
-0.00116017
0.0055509
-0.00118988
0.00552172
-0.0012134
0.0054955
-0.0012325
0.0054723
-0.00124446
0.00545157
-0.00125585
0.00543386
-0.00125518
0.00541779
-0.00126622
0.00540549
-0.00124611
0.00539294
-0.00127565
0.00538713
-0.00121534
0.0053763
-0.00129681
-0.00119026
0.00687886
-0.000223735
0.00679933
-0.000312094
0.00672156
-0.000399371
0.00664592
-0.000484883
0.00657274
-0.000567958
0.0065023
-0.000647948
0.00643484
-0.00072424
0.00637055
-0.00079627
0.00630959
-0.00086354
0.00625206
-0.00092562
0.00619803
-0.000982181
0.00614752
-0.00103295
0.0061005
-0.00107782
0.00605695
-0.00111662
0.00601675
-0.00114968
0.00597985
-0.0011765
0.00594601
-0.00119865
0.0059153
-0.00121375
0.00588718
-0.00122773
0.00586225
-0.00123025
0.00583907
-0.00124304
0.00581991
-0.00122695
0.00580045
-0.00125619
0.00578826
-0.00120316
0.00577062
-0.00127916
-0.00118604
0.00744142
-0.000142888
0.00736075
-0.000231422
0.00728079
-0.000319408
0.00720202
-0.000406116
0.00712489
-0.000490825
0.00704978
-0.000572839
0.00697703
-0.000651494
0.00690694
-0.000726178
0.00683974
-0.000796342
0.00677563
-0.000861507
0.00671474
-0.000921289
0.00665716
-0.00097537
0.00660293
-0.0010236
0.00655208
-0.00106576
0.00650452
-0.00110212
0.00646026
-0.00113223
0.00641908
-0.00115748
0.00638109
-0.00117576
0.00634577
-0.00119241
0.00631373
-0.00119821
0.00628352
-0.00121283
0.00625751
-0.00120094
0.00623115
-0.00122983
0.0062125
-0.0011845
0.00618807
-0.00125473
-0.00117563
0.00800027
-6.46137e-05
0.007921
-0.000152145
0.0078413
-0.000239714
0.00776175
-0.000326564
0.00768286
-0.000411938
0.00760512
-0.000495099
0.00752897
-0.000575336
0.00745477
-0.000651987
0.00738288
-0.000724449
0.00731356
-0.000792189
0.00724704
-0.000854768
0.00718349
-0.000911814
0.00712301
-0.000963118
0.00706568
-0.00100843
0.0070115
-0.00104794
0.0069605
-0.00108123
0.00691252
-0.0011095
0.0068677
-0.00113094
0.00682557
-0.00115028
0.00678674
-0.00115938
0.00674976
-0.00117586
0.0067171
-0.00116828
0.00668404
-0.00119677
0.00665897
-0.00115944
0.00662793
-0.00122369
-0.00115891
0.00854984
8.75846e-06
0.00847434
-7.66443e-05
0.00839731
-0.000162678
0.00831932
-0.000248581
0.00824097
-0.000333583
0.00816279
-0.000416916
0.00808529
-0.000497835
0.00800893
-0.000575633
0.00793414
-0.000649657
0.00786127
-0.000719321
0.00779063
-0.000784129
0.00772247
-0.000843653
0.00765697
-0.00089762
0.00759429
-0.000945747
0.00753448
-0.000988127
0.00747763
-0.00102438
0.00742364
-0.00105552
0.00737269
-0.00107999
0.00732435
-0.00110193
0.00727925
-0.00111429
0.00723599
-0.00113259
0.00719706
-0.00112935
0.00715766
-0.00115737
0.00712639
-0.00112816
0.00708908
-0.00118638
-0.0011359
0.00908583
7.52864e-05
0.00901617
-6.97998e-06
0.00894394
-9.04473e-05
0.00886972
-0.000174361
0.00879409
-0.000257959
0.00871764
-0.000340463
0.00864091
-0.000421107
0.00856443
-0.000499152
0.00848868
-0.000573906
0.00841409
-0.000644733
0.00834105
-0.000711083
0.00826987
-0.000772477
0.00820082
-0.000828576
0.00813413
-0.000879053
0.00806992
-0.000923917
0.00800834
-0.000962805
0.00794937
-0.00099655
0.0078932
-0.00102382
0.00783948
-0.00104821
0.00778887
-0.00106367
0.00773998
-0.00108371
0.00769536
-0.00108473
0.00765019
-0.0011122
0.00761309
-0.00109105
0.00757002
-0.00114331
-0.00110676
0.00960555
0.000133543
0.00954334
5.52319e-05
0.00947766
-2.47765e-05
0.00940908
-0.000105774
0.00933813
-0.000187014
0.0092654
-0.000267732
0.00919145
-0.000347156
0.00911683
-0.000424532
0.00904206
-0.000499139
0.00896764
-0.000570306
0.00889399
-0.000637436
0.00882151
-0.0007
0.00875054
-0.0007576
0.00868135
-0.000809866
0.00861415
-0.000856722
0.00854916
-0.000897811
0.0084864
-0.000933796
0.00842614
-0.000963551
0.00836805
-0.000990126
0.00831285
-0.00100847
0.00825921
-0.00103006
0.00820964
-0.00103517
0.00815945
-0.00106201
0.00811705
-0.00104866
0.0080689
-0.00109516
-0.00107183
0.0101081
0.000182657
0.0100544
0.000108921
0.00999657
3.30671e-05
0.00993505
-4.42466e-05
0.00987035
-0.000122314
0.00980301
-0.000200392
0.00973358
-0.000277726
0.0096626
-0.00035356
0.00959063
-0.000427162
0.00951816
-0.000497836
0.00944567
-0.000564952
0.00937361
-0.000627941
0.00930237
-0.000686351
0.00923227
-0.000739771
0.0091636
-0.000788049
0.00909661
-0.000830823
0.00903141
-0.000868599
0.00896829
-0.000900432
0.00890703
-0.00092886
0.00884831
-0.000949755
0.00879093
-0.000972675
0.00873733
-0.00098157
0.00868301
-0.00100769
0.00863603
-0.00100168
0.00858361
-0.00104274
-0.00103159
0.0105944
0.000222326
0.0105498
0.000153568
0.0105005
8.23586e-05
0.0104469
9.30249e-06
0.0103896
-6.49479e-05
0.0103288
-0.000139685
0.0102653
-0.000214182
0.0101994
-0.0002877
0.0101318
-0.000359508
0.0100629
-0.000428904
0.00999314
-0.000495234
0.0099231
-0.000557901
0.00985316
-0.000616412
0.0097837
-0.000670319
0.00971506
-0.0007194
0.00964752
-0.00076329
0.00958127
-0.000802345
0.00951662
-0.000835783
0.00945342
-0.000865661
0.00939238
-0.000888711
0.00933237
-0.000912667
0.00927576
-0.00092496
0.00921832
-0.000950248
0.00916759
-0.000950946
0.00911182
-0.000986976
-0.000986673
0.0110669
0.000252752
0.0110313
0.00018917
0.0109908
0.000122895
0.0109456
5.44685e-05
0.0108962
-1.55052e-05
0.0108429
-8.63734e-05
0.0107861
-0.000157443
0.0107264
-0.000228005
0.0106643
-0.000297345
0.0106001
-0.000364766
0.0105345
-0.000429605
0.0104678
-0.00049125
0.0104006
-0.000549177
0.0103332
-0.000602911
0.010266
-0.000652169
0.0101993
-0.000696585
0.0101333
-0.000736376
0.0100684
-0.000770907
0.0100045
-0.000801788
0.00994238
-0.000826541
0.00988091
-0.000851201
0.00982237
-0.000866415
0.00976289
-0.000890774
0.00970931
-0.000897366
0.00965119
-0.000928856
-0.00093784
0.0115293
0.000274527
0.0115024
0.000216148
0.0114703
0.000154916
0.0114335
9.1315e-05
0.0113921
2.58925e-05
0.0113465
-4.07501e-05
0.011297
-0.00010797
0.0112441
-0.000175089
0.0111882
-0.000241424
0.0111297
-0.000306291
0.0110691
-0.000369036
0.0110069
-0.000429041
0.0109435
-0.000485762
0.0108793
-0.000538707
0.0108147
-0.000587547
0.01075
-0.000631911
0.0106855
-0.000671896
0.0106216
-0.000706997
0.0105582
-0.000738417
0.0104961
-0.000764389
0.0104343
-0.000789406
0.0103749
-0.000806999
0.0103144
-0.000830338
0.010259
-0.000841891
0.0101995
-0.000869374
-0.000885921
0.0119861
0.000288492
0.011967
0.000235212
0.011943
0.000178994
0.011914
0.000120265
0.0118804
5.95147e-05
0.0118423
-2.70228e-06
0.0118002
-6.58028e-05
0.0117542
-0.000129143
0.0117049
-0.000192077
0.0116525
-0.000253946
0.0115976
-0.000314112
0.0115405
-0.000371962
0.0114817
-0.000426945
0.0114216
-0.00047856
0.0113605
-0.000526442
0.0112988
-0.000570221
0.0112368
-0.00060989
0.0111748
-0.000645058
0.011113
-0.000676566
0.0110519
-0.000703268
0.0109908
-0.000728298
0.0109315
-0.000747694
0.0108711
-0.000769939
0.0108146
-0.000785442
0.0107547
-0.000809469
-0.00083178
0.012442
0.000295595
0.0124299
0.000247226
0.012413
0.000195895
0.0123913
0.000141975
0.0123649
8.59056e-05
0.0123341
2.81822e-05
0.0122989
-3.06515e-05
0.0122598
-9.00087e-05
0.012217
-0.000149275
0.0121709
-0.000207827
0.0121218
-0.000265047
0.0120702
-0.000320338
0.0120164
-0.000373151
0.0119608
-0.000422984
0.0119038
-0.000469446