/*--------------------------------*- C++ -*----------------------------------*\
  =========                 |
  \\      /  F ield         | OpenFOAM: The Open Source CFD Toolbox
   \\    /   O peration     | Website:  https://openfoam.org
    \\  /    A nd           | Version:  7
     \\/     M anipulation  |
\*---------------------------------------------------------------------------*/
FoamFile
{
    version     2.0;
    format      ascii;
    class       volVectorField;
    location    "35";
    object      U;
}
// * * * * * * * * * * * * * * * * * * * * * * * * * * * * * * * * * * * * * //

dimensions      [0 1 -1 0 0 0 0];

internalField   nonuniform List<vector> 
3275
(
(-0.0217189 -0.0015364 1.46735e-21)
(-0.0125883 -0.00178451 -1.10399e-21)
(-0.00175406 -0.00199122 -1.41933e-22)
(0.0106648 -0.00215647 6.38074e-22)
(0.0245328 -0.00228237 -2.06802e-22)
(0.0397082 -0.00237231 5.37439e-22)
(0.0560492 -0.00243025 -2.88284e-22)
(0.0734181 -0.00246025 -3.75464e-23)
(0.0916838 -0.00246626 -4.19509e-22)
(0.110722 -0.00245188 1.37513e-22)
(0.130418 -0.00242039 -6.27983e-22)
(0.150661 -0.00237467 -1.32636e-22)
(0.171352 -0.00231724 9.30833e-23)
(0.192391 -0.00225038 -2.27273e-22)
(0.213699 -0.00217593 -7.62915e-23)
(0.235174 -0.00209579 -1.17817e-22)
(0.256777 -0.00201104 -1.51907e-24)
(0.278362 -0.00192379 5.83615e-23)
(0.299999 -0.00183358 -1.34694e-22)
(0.321381 -0.00174446 1.39341e-22)
(0.342889 -0.00165163 2.96561e-23)
(0.363701 -0.0015663 -5.04427e-23)
(0.385118 -0.00147015 4.90279e-23)
(0.404776 -0.0013979 -4.79854e-23)
(0.426621 -0.00128934 1.80873e-23)
(0.443855 -0.00125119 -4.24085e-23)
(0.467897 -0.00110017 -1.38332e-24)
(0.479497 -0.00114155 -4.90755e-24)
(0.510528 -0.000900773 -3.85434e-23)
(-0.0195472 -0.00461257 -6.93991e-21)
(-0.010376 -0.00535404 2.43329e-21)
(0.000479721 -0.00597166 -2.4982e-21)
(0.0129022 -0.00646529 3.21545e-21)
(0.0267576 -0.00684134 6.26479e-22)
(0.0419064 -0.00710991 -2.16509e-21)
(0.058209 -0.00728284 -1.10094e-21)
(0.0755298 -0.00737231 3.96222e-22)
(0.0937398 -0.00739003 -1.55584e-21)
(0.112717 -0.00734682 2.14332e-21)
(0.132346 -0.00725239 6.96126e-22)
(0.15252 -0.00711541 -1.39431e-22)
(0.173139 -0.0069434 6.35608e-22)
(0.194105 -0.00674316 -4.67509e-22)
(0.21534 -0.00652018 3.42963e-22)
(0.236741 -0.00628017 6.13982e-23)
(0.258271 -0.00602632 1.82746e-22)
(0.279784 -0.00576499 2.89793e-23)
(0.301349 -0.00549479 9.4314e-23)
(0.322661 -0.00522784 -7.00366e-22)
(0.344101 -0.00494974 8.85506e-23)
(0.364846 -0.00469415 -8.90888e-23)
(0.386198 -0.00440607 -1.46619e-22)
(0.405795 -0.00418966 -4.03517e-23)
(0.427577 -0.00386435 -1.16867e-22)
(0.444757 -0.00375019 -2.39357e-23)
(0.468736 -0.00329758 -2.23681e-24)
(0.480295 -0.00342176 6.28695e-23)
(0.511253 -0.00270051 -8.74397e-23)
(-0.0152074 -0.00769858 5.45393e-21)
(-0.00595666 -0.00892489 -2.41203e-21)
(0.00494085 -0.00994588 -2.99383e-21)
(0.0173693 -0.0107616 2.61398e-21)
(0.0311986 -0.0113829 5.4376e-21)
(0.0462934 -0.0118264 -2.86478e-22)
(0.0625186 -0.0121117 -1.94157e-21)
(0.079743 -0.012259 -2.67706e-21)
(0.0978413 -0.0122876 2.36637e-21)
(0.116695 -0.0122153 -8.45531e-22)
(0.136192 -0.0120582 2.04861e-22)
(0.156227 -0.0118305 -6.0922e-22)
(0.176703 -0.0115447 -1.49442e-21)
(0.197524 -0.0112121 4.27623e-22)
(0.218612 -0.0108417 7.01145e-22)
(0.239866 -0.010443 2.78089e-22)
(0.26125 -0.0100213 3.49219e-22)
(0.282619 -0.00958716 -4.68582e-22)
(0.304042 -0.00913822 4.75812e-22)
(0.325214 -0.00869467 -9.78083e-24)
(0.346518 -0.0082325 -1.69947e-22)
(0.367132 -0.0078078 4.58286e-22)
(0.388353 -0.0073289 2.85873e-22)
(0.407827 -0.00696941 6.95409e-23)
(0.429484 -0.00642842 1.16613e-22)
(0.446556 -0.0062391 7.1394e-23)
(0.47041 -0.00548618 -8.27737e-24)
(0.481887 -0.00569335 1.93253e-23)
(0.512701 -0.00449482 -3.67489e-23)
(-0.00870663 -0.0108003 4.1105e-21)
(0.000659801 -0.0124973 -7.79326e-21)
(0.0116165 -0.0139092 2.78065e-21)
(0.0240509 -0.0150367 7.95181e-22)
(0.0378385 -0.015895 1.48409e-21)
(0.0528504 -0.0165074 6.69046e-21)
(0.0689582 -0.016901 -4.4349e-21)
(0.0860371 -0.0171035 1.32839e-21)
(0.103968 -0.0171415 -5.91669e-22)
(0.122636 -0.0170397 2.0759e-21)
(0.141935 -0.0168203 -7.57679e-22)
(0.161763 -0.0165029 8.86912e-22)
(0.182025 -0.0161047 -2.11319e-21)
(0.202628 -0.0156414 3.12366e-21)
(0.223497 -0.0151255 -2.33752e-21)
(0.244532 -0.0145701 -5.565e-22)
(0.265698 -0.0139826 -6.4568e-22)
(0.286852 -0.0133777 9.11698e-22)
(0.308063 -0.0127521 1.17108e-21)
(0.329028 -0.012134 5.25738e-22)
(0.350128 -0.0114898 -2.14707e-22)
(0.370545 -0.0108979 -9.82037e-22)
(0.391572 -0.01023 -8.73774e-23)
(0.410864 -0.00972919 -6.05813e-23)
(0.432334 -0.0089743 8.28274e-23)
(0.449245 -0.00871126 2.27902e-23)
(0.472913 -0.00766017 -2.43522e-25)
(0.484268 -0.0079506 -2.52854e-22)
(0.514865 -0.00628007 1.54739e-22)
(-5.52858e-05 -0.0139223 1.87399e-20)
(0.00945831 -0.0160703 -1.72919e-20)
(0.0204873 -0.017856 3.95504e-21)
(0.0329242 -0.0192811 2.85247e-21)
(0.0466516 -0.0203653 -3.41697e-21)
(0.0615495 -0.0211383 -4.53859e-21)
(0.0774982 -0.0216344 -1.28034e-22)
(0.0943816 -0.0218886 2.2102e-21)
(0.112088 -0.0219343 -3.86467e-21)
(0.130509 -0.0218026 2.72679e-21)
(0.149545 -0.0215214 -2.38757e-21)
(0.169097 -0.0211157 2.99284e-21)
(0.189076 -0.0206071 9.24967e-22)
(0.20939 -0.0200155 -1.64415e-21)
(0.229969 -0.0193566 1.87101e-21)
(0.250714 -0.0186474 -1.025e-21)
(0.271591 -0.017897 7.51815e-22)
(0.29246 -0.0171243 7.48968e-22)
(0.313391 -0.0163249 -1.11552e-21)
(0.334081 -0.0155351 -7.99705e-22)
(0.354912 -0.0147115 1.0068e-22)
(0.375069 -0.0139552 4.24267e-22)
(0.39584 -0.0131009 1.55018e-22)
(0.414891 -0.0124612 -1.67779e-22)
(0.436114 -0.0114949 1.67023e-23)
(0.452813 -0.0111601 -1.54384e-22)
(0.476233 -0.00981382 -1.86394e-23)
(0.487429 -0.0101879 2.05105e-22)
(0.517739 -0.00805268 -1.99239e-22)
(0.0107329 -0.0170677 1.06672e-20)
(0.020419 -0.0196419 5.72439e-22)
(0.031528 -0.0217797 -6.63309e-21)
(0.0439588 -0.0234845 -1.39163e-20)
(0.0576037 -0.0247807 6.24913e-21)
(0.0723534 -0.0257041 5.14199e-21)
(0.0880995 -0.0262957 -1.29203e-21)
(0.104736 -0.0265972 1.77447e-22)
(0.12216 -0.0266485 2.62081e-21)
(0.140273 -0.0264865 -6.23299e-22)
(0.15898 -0.0261446 -2.17373e-21)
(0.178189 -0.0256524 1.04157e-21)
(0.197816 -0.025036 2.30824e-22)
(0.217773 -0.024319 -1.46207e-22)
(0.237991 -0.0235207 -7.27687e-22)
(0.258376 -0.0226613 -1.90841e-21)
(0.278897 -0.0217516 -2.77046e-23)
(0.299413 -0.0208148 -1.35185e-21)
(0.319996 -0.0198453 7.79066e-22)
(0.340348 -0.0188875 -3.47528e-22)
(0.360846 -0.0178881 9.41347e-22)
(0.380682 -0.0169707 -7.8383e-22)
(0.401135 -0.0159333 -9.39206e-23)
(0.419889 -0.0151578 2.75629e-22)
(0.440807 -0.0139832 3.47584e-22)
(0.457243 -0.0135791 -4.83082e-24)
(0.480358 -0.0119415 4.34354e-24)
(0.491356 -0.0123997 -7.80202e-23)
(0.521312 -0.00980908 1.80628e-22)
(0.0236409 -0.0202375 3.95886e-21)
(0.033517 -0.023208 1.05895e-20)
(0.0447066 -0.0256719 -1.19375e-20)
(0.0571169 -0.0276353 1.17299e-20)
(0.0706521 -0.0291271 -8.95468e-21)
(0.0852161 -0.0301891 -7.32077e-21)
(0.100714 -0.0308682 5.37125e-21)
(0.11705 -0.0312122 -3.12674e-21)
(0.134135 -0.0312668 6.55124e-21)
(0.151877 -0.0310743 -2.9584e-21)
(0.170191 -0.0306728 8.36757e-21)
(0.188991 -0.0300966 2.25499e-22)
(0.208198 -0.0293756 -3.27197e-21)
(0.22773 -0.0285372 4.85241e-21)
(0.24752 -0.0276035 6.90624e-24)
(0.267478 -0.0265982 2.58792e-21)
(0.287575 -0.0255338 -1.66632e-21)
(0.307673 -0.0244375 3.47156e-22)
(0.327845 -0.0233024 8.63749e-22)
(0.347795 -0.0221809 5.80957e-22)
(0.367898 -0.0210098 -4.09293e-22)
(0.387355 -0.0199355 9.64894e-22)
(0.407431 -0.018719 2.48912e-22)
(0.425834 -0.0178114 -3.84593e-22)
(0.446391 -0.0164324 -3.47237e-23)
(0.462517 -0.0159621 1.99079e-22)
(0.485269 -0.0140377 8.64236e-24)
(0.496035 -0.0145806 3.8736e-22)
(0.525571 -0.0115457 -7.92254e-23)
(0.0386489 -0.0234302 5.29864e-21)
(0.0487231 -0.0267622 -2.13587e-20)
(0.0599852 -0.0295227 1.4475e-20)
(0.0723535 -0.0317206 9.24435e-22)
(0.0857462 -0.0333897 -1.08291e-21)
(0.100083 -0.034577 -1.6952e-21)
(0.115282 -0.0353348 1.11004e-20)
(0.131265 -0.0357162 5.00621e-21)
(0.147952 -0.0357719 -1.96082e-21)
(0.165262 -0.0355489 -1.04677e-20)
(0.183119 -0.0350896 2.40047e-21)
(0.201445 -0.0344323 5.33603e-21)
(0.220167 -0.0336106 -5.95709e-21)
(0.239207 -0.0326553 4.59909e-22)
(0.258504 -0.0315913 -1.42049e-21)
(0.27797 -0.0304453 3.32173e-22)
(0.297579 -0.0292314 1.25762e-21)
(0.317197 -0.0279809 -1.56785e-22)
(0.336896 -0.0266854 9.21314e-22)
(0.356384 -0.0254054 -4.48923e-22)
(0.376034 -0.0240677 3.93492e-22)
(0.395054 -0.0228414 -9.4365e-22)
(0.4147 -0.0214502 -5.59465e-24)
(0.432699 -0.020415 6.13598e-22)
(0.452841 -0.0188359 -2.75774e-22)
(0.468612 -0.018303 -1.96852e-22)
(0.490948 -0.0160972 -2.7511e-23)
(0.501449 -0.0167253 -7.08717e-22)
(0.530501 -0.0132592 -2.34014e-22)
(0.0557339 -0.0266413 8.45967e-21)
(0.0660026 -0.0302958 -6.86043e-21)
(0.0773194 -0.0333198 -3.9377e-21)
(0.0896159 -0.0357259 1.01013e-20)
(0.102827 -0.0375524 -1.4456e-20)
(0.11689 -0.0388508 1.06525e-20)
(0.13174 -0.0396782 -1.02984e-20)
(0.147312 -0.0400918 -8.28674e-21)
(0.163541 -0.0401466 8.44441e-21)
(0.180358 -0.0398935 5.92354e-21)
(0.197696 -0.0393788 -1.10065e-20)
(0.215484 -0.0386442 -2.86574e-21)
(0.233657 -0.0377264 -5.30154e-22)
(0.252142 -0.0366595 1.58134e-21)
(0.270883 -0.0354708 6.58043e-24)
(0.289796 -0.0341901 -2.12419e-21)
(0.308856 -0.0328329 -8.87087e-22)
(0.327933 -0.0314342 -1.47113e-21)
(0.347101 -0.0299842 -3.2083e-21)
(0.366071 -0.0285517 8.65712e-23)
(0.385213 -0.027053 -1.31974e-21)
(0.403743 -0.02568 -4.9064e-22)
(0.422904 -0.0241195 8.38125e-22)
(0.440452 -0.0229615 -2.23032e-22)
(0.460129 -0.0211876 -4.08125e-22)
(0.475502 -0.0205959 1.32301e-22)
(0.497371 -0.0181149 3.13505e-23)
(0.507575 -0.0188288 2.82146e-22)
(0.536084 -0.0149459 3.69287e-22)
(0.0748696 -0.0298625 4.75326e-21)
(0.0853163 -0.033797 -1.43285e-20)
(0.0966584 -0.0370488 1.33869e-20)
(0.108844 -0.039635 -2.18932e-20)
(0.121828 -0.0415979 1.22224e-20)
(0.135565 -0.042993 -1.00289e-21)
(0.15001 -0.0438806 -6.10374e-21)
(0.165114 -0.0443215 2.19673e-21)
(0.180825 -0.0443739 -1.99554e-22)
(0.197088 -0.0440918 -8.74966e-21)
(0.213845 -0.0435246 7.25547e-21)
(0.231034 -0.0427171 -3.71984e-22)
(0.248597 -0.0417088 -1.62075e-22)
(0.266466 -0.0405363 -3.12332e-21)
(0.284591 -0.0392295 3.659e-21)
(0.302891 -0.0378208 6.18557e-23)
(0.321346 -0.036327 -2.25423e-21)
(0.339826 -0.034787 3.95703e-23)
(0.358408 -0.0331892 3.70489e-21)
(0.376806 -0.0316106 -8.36774e-22)
(0.395388 -0.0299572 7.25895e-22)
(0.413379 -0.0284437 -6.44532e-23)
(0.432007 -0.0267198 -1.17393e-21)
(0.449057 -0.0254445 3.27295e-22)
(0.468222 -0.0234812 -2.1777e-22)
(0.483157 -0.0228351 -3.48133e-22)
(0.504512 -0.0200858 7.1875e-24)
(0.514392 -0.0208863 3.46592e-22)
(0.542301 -0.0166026 -2.96655e-22)
(0.0960262 -0.0330817 -1.11798e-20)
(0.106619 -0.0372504 3.62129e-21)
(0.117945 -0.0406926 3.20427e-20)
(0.129971 -0.0434297 -1.04366e-20)
(0.142673 -0.0455079 -6.11045e-21)
(0.156028 -0.046985 9.24393e-21)
(0.170009 -0.047924 5.09415e-21)
(0.184585 -0.0483879 2.60392e-21)
(0.199719 -0.048437 5.94183e-21)
(0.215368 -0.0481278 9.38043e-22)
(0.231484 -0.047512 8.05402e-21)
(0.248014 -0.0466368 -3.11168e-21)
(0.264908 -0.0455441 -4.03861e-21)
(0.282104 -0.0442731 3.5977e-21)
(0.299557 -0.0428554 4.46791e-21)
(0.317189 -0.0413262 5.04433e-22)
(0.334983 -0.0397034 2.99102e-21)
(0.352814 -0.0380296 -1.23581e-22)
(0.370759 -0.0362913 -3.42653e-21)
(0.388536 -0.0345738 2.1766e-21)
(0.406509 -0.0327725 -9.22176e-23)
(0.423915 -0.0311252 -9.95092e-22)
(0.441965 -0.0292442 5.71696e-22)
(0.458476 -0.0278577 3.12921e-23)
(0.477084 -0.0257113 5.09116e-22)
(0.491547 -0.0250155 1.16296e-23)
(0.512343 -0.0220054 1.81844e-23)
(0.521874 -0.0228931 -1.10646e-22)
(0.549129 -0.018226 4.28744e-22)
(0.11917 -0.0362824 -2.87079e-20)
(0.129861 -0.0406374 4.08864e-23)
(0.141114 -0.0442313 2.00443e-20)
(0.152921 -0.0470902 -3.35243e-21)
(0.16528 -0.0492626 -3.01496e-20)
(0.178191 -0.050808 2.26497e-20)
(0.191647 -0.0517903 3.37959e-21)
(0.205634 -0.0522737 6.38203e-21)
(0.22013 -0.0523196 -2.10003e-20)
(0.235104 -0.051986 -4.78485e-22)
(0.250521 -0.0513263 -2.19062e-21)
(0.266336 -0.0503896 6.05016e-21)
(0.282505 -0.0492196 -4.68719e-21)
(0.298974 -0.0478577 -9.16945e-22)
(0.3157 -0.0463372 -2.88894e-21)
(0.332613 -0.0446959 7.87386e-22)
(0.349697 -0.0429523 -1.93203e-21)
(0.366831 -0.0411528 2.08804e-21)
(0.384091 -0.039282 -2.25712e-21)
(0.401202 -0.0374334 8.85525e-22)
(0.418523 -0.0354916 -1.20191e-21)
(0.435302 -0.0337178 7.1361e-22)
(0.452732 -0.0316865 7.75497e-22)
(0.468666 -0.0301952 -1.17369e-21)
(0.486679 -0.0278723 -3.64075e-22)
(0.500636 -0.027132 4.37879e-22)
(0.520833 -0.0238693 -5.29534e-23)
(0.529992 -0.0248448 -3.05509e-22)
(0.556545 -0.0198127 8.80418e-23)
(0.144261 -0.0394431 -4.06122e-22)
(0.154983 -0.0439354 2.05118e-20)
(0.166094 -0.0476425 7.80462e-22)
(0.177611 -0.0505944 -1.10288e-20)
(0.189558 -0.0528411 -4.50193e-21)
(0.201957 -0.0544422 -1.01661e-20)
(0.214823 -0.0554611 2.9952e-20)
(0.228158 -0.0559617 -1.46641e-20)
(0.241956 -0.0560057 1.36436e-21)
(0.256198 -0.0556516 -1.98624e-20)
(0.27086 -0.0549538 1.07155e-20)
(0.285905 -0.0539626 1.98576e-21)
(0.301297 -0.0527234 5.1852e-22)
(0.316987 -0.0512791 -2.1531e-21)
(0.33294 -0.0496646 1.81224e-23)
(0.349086 -0.0479201 -3.69098e-21)
(0.365414 -0.0460646 3.66333e-21)
(0.381806 -0.0441482 1.36325e-21)
(0.398339 -0.0421534 5.89867e-23)
(0.414743 -0.0401821 1.93866e-21)
(0.431371 -0.0381078 1.28769e-22)
(0.447486 -0.0362151 7.03105e-22)
(0.464258 -0.034041 1.28004e-21)
(0.479581 -0.0324517 -1.6615e-22)
(0.496964 -0.0299596 -3.2639e-22)
(0.510387 -0.0291799 1.08933e-22)
(0.529948 -0.0256735 -8.31692e-24)
(0.538718 -0.0267374 2.77204e-22)
(0.564524 -0.0213598 -6.70643e-22)
(0.18192 -0.0471177 1.68089e-20)
(0.192803 -0.0509007 -3.49203e-20)
(0.203949 -0.0539188 1.8822e-20)
(0.215407 -0.0562218 -2.48512e-21)
(0.227223 -0.0578677 3.20885e-20)
(0.239431 -0.0589181 -1.88893e-20)
(0.252052 -0.0594353 3.06369e-21)
(0.265092 -0.05948 3.85666e-22)
(0.278546 -0.0591106 -4.28322e-22)
(0.292398 -0.0583814 -5.39857e-21)
(0.306622 -0.0573439 5.54472e-21)
(0.321188 -0.0560442 5.60958e-22)
(0.336054 -0.0545269 -4.64216e-22)
(0.351187 -0.0528281 3.65178e-21)
(0.366523 -0.05099 3.05676e-21)
(0.382054 -0.0490321 -1.42278e-21)
(0.397665 -0.0470082 8.07619e-22)
(0.413433 -0.0448985 -3.24215e-21)
(0.429093 -0.0428132 -1.6962e-21)
(0.444994 -0.0406149 4.1717e-22)
(0.460411 -0.0386114 -1.083e-21)
(0.476493 -0.0363023 -7.1016e-22)
(0.491176 -0.0346222 1.184e-21)
(0.507896 -0.0319684 1.26204e-21)
(0.520762 -0.031155 2.23128e-22)
(0.539653 -0.0274142 2.5608e-23)
(0.548019 -0.0285671 -2.23662e-22)
(0.573039 -0.0228642 6.60708e-22)
(0.210598 -0.0501538 -1.29109e-20)
(0.221153 -0.0539778 -4.11409e-20)
(0.231835 -0.057038 9.72957e-21)
(0.242721 -0.0593821 1.74424e-20)
(0.253878 -0.0610644 -2.50125e-20)
(0.265359 -0.0621434 2.05832e-20)
(0.277202 -0.0626783 -3.38523e-21)
(0.289425 -0.062728 1.13371e-21)
(0.302036 -0.0623496 -3.63111e-21)
(0.315029 -0.0615972 3.44705e-21)
(0.328384 -0.0605224 7.30934e-21)
(0.342079 -0.0591721 1.88206e-21)
(0.356077 -0.057592 -9.8875e-21)
(0.37035 -0.0558191 -1.5155e-21)
(0.384839 -0.0538976 -1.14735e-22)
(0.399535 -0.0518474 9.94548e-22)
(0.41433 -0.049726 -2.18829e-21)
(0.4293 -0.0475109 -9.42106e-22)
(0.444185 -0.045321 6.6603e-22)
(0.459327 -0.0430074 -5.19185e-22)
(0.474018 -0.0409017 4.79801e-22)
(0.489382 -0.0384656 -1.18788e-22)
(0.5034 -0.0367023 -6.82808e-22)
(0.51943 -0.0338948 -1.5896e-22)
(0.531718 -0.0330534 -5.96188e-22)
(0.549913 -0.0290882 1.28099e-23)
(0.557863 -0.0303304 3.89369e-22)
(0.58206 -0.024323 -6.9049e-22)
(0.240931 -0.0530094 2.51198e-20)
(0.251043 -0.0568435 1.89394e-21)
(0.26116 -0.0599255 -2.8749e-20)
(0.271384 -0.0622987 3.84353e-20)
(0.281803 -0.0640122 -3.50398e-20)
(0.292487 -0.0651192 2.25691e-20)
(0.303488 -0.0656751 -2.14182e-21)
(0.314839 -0.0657358 -1.23927e-20)
(0.326556 -0.0653564 7.66587e-21)
(0.338641 -0.0645901 -4.5003e-21)
(0.351084 -0.0634883 -5.75656e-21)
(0.363867 -0.062098 7.35497e-22)
(0.376959 -0.060466 7.43381e-21)
(0.390336 -0.05863 -2.77498e-21)
(0.403943 -0.056636 1.33538e-21)
(0.417774 -0.0545042 -1.48199e-21)
(0.431722 -0.0522955 9.95407e-22)
(0.445865 -0.049985 1.70784e-21)
(0.459948 -0.0477 5.94291e-22)
(0.474307 -0.0452805 9.56811e-22)
(0.488248 -0.0430813 -7.43209e-22)
(0.50287 -0.0405267 9.66854e-22)
(0.516201 -0.0386881 -9.36045e-23)
(0.53152 -0.0357351 -8.58365e-22)
(0.543213 -0.0348716 -2.22932e-22)
(0.560688 -0.0306924 1.15954e-22)
(0.568215 -0.0320242 -2.4146e-22)
(0.591558 -0.0257335 7.81603e-22)
(0.272821 -0.0556466 -6.17712e-21)
(0.282363 -0.0594654 -3.12307e-20)
(0.291804 -0.062554 2.7869e-20)
(0.301272 -0.0649486 -4.38627e-20)
(0.310872 -0.0666913 7.79312e-21)
(0.32069 -0.0678288 1.5398e-20)
(0.330788 -0.0684113 -3.24371e-21)
(0.341212 -0.0684908 -1.35131e-20)
(0.351985 -0.0681199 -4.41161e-22)
(0.36312 -0.0673503 2.09253e-20)
(0.37461 -0.0662326 -9.74117e-21)
(0.386446 -0.064814 -8.67004e-21)
(0.398599 -0.0631417 4.4779e-21)
(0.411049 -0.0612542 1.29012e-21)
(0.423745 -0.0591992 -5.49059e-23)
(0.436683 -0.0569968 -2.31607e-21)
(0.449761 -0.0547117 2.52722e-21)
(0.463053 -0.052316 6.1268e-23)
(0.476311 -0.049946 -7.87092e-22)
(0.489865 -0.0474299 -1.05259e-21)
(0.503037 -0.0451464 -1.22762e-21)
(0.516898 -0.0424821 -9.27599e-22)
(0.529527 -0.040576 6.89894e-22)
(0.544117 -0.0374862 5.95382e-22)
(0.555203 -0.0366065 5.30406e-22)
(0.571939 -0.032224 -8.18129e-23)
(0.579038 -0.0336457 -1.0742e-22)
(0.601503 -0.027093 -3.64962e-22)
(0.306157 -0.058025 1.83201e-21)
(0.314989 -0.06181 -8.96056e-21)
(0.32364 -0.0648956 1.00369e-20)
(0.332255 -0.0673089 -3.30067e-21)
(0.340955 -0.0690828 -1.3431e-20)
(0.349836 -0.0702563 2.8714e-20)
(0.358973 -0.0708735 -2.10252e-20)
(0.368419 -0.0709818 -4.57163e-21)
(0.378205 -0.0706305 -5.28062e-21)
(0.388349 -0.0698693 2.22981e-20)
(0.398852 -0.068748 -1.72064e-20)
(0.409708 -0.0673134 6.24923e-21)
(0.420893 -0.0656133 1.49933e-21)
(0.432391 -0.0636863 -7.62739e-21)
(0.444152 -0.0615821 -2.06133e-21)
(0.456176 -0.0593206 5.16826e-21)
(0.468362 -0.0569702 -2.23421e-21)
(0.480785 -0.0545001 1.60027e-21)
(0.493202 -0.0520552 4.55695e-22)
(0.505935 -0.0494522 -1.45727e-22)
(0.518323 -0.0470937 -4.03171e-22)
(0.531409 -0.0443286 -1.27939e-22)
(0.543324 -0.0423632 5.31262e-22)
(0.557172 -0.0391453 4.26438e-23)
(0.567644 -0.0382555 4.68018e-23)
(0.583625 -0.033681 2.86932e-23)
(0.590297 -0.0351925 2.99894e-22)
(0.611862 -0.0283991 2.39083e-23)
(0.34081 -0.0601022 -6.42637e-21)
(0.348787 -0.0638433 -3.45011e-20)
(0.356528 -0.0669233 3.89194e-21)
(0.364193 -0.0693578 -5.42609e-23)
(0.371913 -0.0711691 2.44753e-20)
(0.379792 -0.0723875 -1.18888e-20)
(0.387912 -0.07305 2.0026e-20)
(0.396332 -0.0731988 -2.14443e-20)
(0.40509 -0.0728798 1.95381e-20)
(0.414209 -0.0721401 -1.47154e-20)
(0.423695 -0.0710284 1.27809e-20)
(0.433545 -0.0695909 -7.52956e-21)
(0.443739 -0.0678759 1.63435e-20)
(0.454264 -0.0659222 -8.15921e-21)
(0.465072 -0.063781 7.90327e-21)
(0.476165 -0.0614723 -7.97828e-22)
(0.487444 -0.0590678 8.32362e-22)
(0.498983 -0.056534 -1.86777e-21)
(0.510547 -0.0540248 1.09999e-21)
(0.522447 -0.0513447 2.43756e-22)
(0.534042 -0.0489206 1.37296e-22)
(0.546344 -0.0460638 -6.62324e-22)
(0.557538 -0.0440474 7.61455e-22)
(0.570634 -0.0407105 -6.93061e-22)
(0.580489 -0.0398164 -1.7171e-22)
(0.595705 -0.0350613 1.0967e-23)
(0.601954 -0.0366625 -3.28983e-22)
(0.622602 -0.0296494 -5.45824e-23)
(0.376638 -0.0618346 5.31277e-20)
(0.383609 -0.0655314 -2.32244e-20)
(0.390322 -0.0686107 -2.31511e-20)
(0.396941 -0.0710747 2.07917e-20)
(0.403604 -0.0729341 6.02066e-21)
(0.410418 -0.0742095 -8.56756e-21)
(0.41747 -0.0749305 1.04134e-20)
(0.424823 -0.0751337 -3.45595e-21)
(0.432518 -0.074861 -9.61937e-22)
(0.440583 -0.074157 -3.74624e-21)
(0.449026 -0.073069 6.63207e-21)
(0.457849 -0.0716425 -5.04825e-21)
(0.467034 -0.069926 -1.01935e-20)
(0.476569 -0.0679586 1.15432e-20)
(0.486411 -0.065793 -6.63585e-21)
(0.496561 -0.0634489 -5.95443e-21)
(0.506923 -0.061002 6.91495e-21)
(0.517571 -0.0584155 -1.51965e-21)
(0.528274 -0.0558525 -2.19684e-21)
(0.539335 -0.0531053 1.74745e-21)
(0.550131 -0.0506252 -1.26212e-21)
(0.561643 -0.0476859 1.6198e-22)
(0.572114 -0.0456267 -4.69268e-22)
(0.584455 -0.0421798 2.13022e-22)
(0.593693 -0.0412874 3.13442e-22)
(0.608138 -0.0363636 5.17714e-23)
(0.61397 -0.038054 -1.58907e-22)
(0.63369 -0.0308419 6.94617e-23)
(0.419294 -0.0668405 -5.37196e-20)
(0.424863 -0.0699318 1.03114e-20)
(0.430347 -0.0724393 4.82297e-20)
(0.435881 -0.0743617 -4.0816e-20)
(0.441574 -0.0757095 4.44425e-21)
(0.447512 -0.0765047 2.02574e-20)
(0.453761 -0.076778 -2.90116e-20)
(0.460364 -0.0765672 2.34344e-20)
(0.467351 -0.0759143 2.44717e-21)
(0.474733 -0.074865 -3.91764e-21)
(0.482512 -0.073464 -4.65198e-21)
(0.490675 -0.0717601 7.37356e-22)
(0.499211 -0.0697923 8.55916e-23)
(0.508078 -0.0676153 2.20399e-21)
(0.517278 -0.0652482 1.16523e-21)
(0.526719 -0.0627707 -2.36915e-21)
(0.53647 -0.0601426 -5.77966e-22)
(0.54631 -0.0575364 -8.45192e-22)
(0.556529 -0.0547323 -1.23294e-22)
(0.566527 -0.0522057 1.6987e-21)
(0.577249 -0.0491932 -7.83192e-22)
(0.586998 -0.0470996 7.28207e-22)
(0.598583 -0.0435522 3.24099e-23)
(0.607209 -0.042667 -4.32411e-22)
(0.620882 -0.0375866 5.12597e-23)
(0.626307 -0.0393655 2.82608e-22)
(0.645093 -0.0319747 2.70822e-22)
(0.455672 -0.0677405 3.36477e-21)
(0.459989 -0.0708637 4.69574e-21)
(0.464254 -0.0734342 6.10739e-21)
(0.468595 -0.0754384 -1.235e-21)
(0.473116 -0.076877 -6.64252e-21)
(0.477902 -0.0777642 -7.21266e-22)
(0.483016 -0.0781249 6.81045e-21)
(0.488504 -0.077993 4.17482e-21)
(0.494395 -0.0774076 -1.55954e-21)
(0.500702 -0.0764127 -7.42781e-22)
(0.507428 -0.0750523 -5.34195e-21)
(0.514562 -0.0733755 -1.15749e-21)
(0.522093 -0.0714213 -9.96971e-22)
(0.529982 -0.0692461 5.11321e-21)
(0.53823 -0.0668686 5.75454e-21)
(0.546749 -0.0643723 -6.23863e-21)
(0.555605 -0.0617141 3.2024e-21)
(0.564583 -0.0590755 -1.57164e-21)
(0.573964 -0.0562248 2.14286e-21)
(0.583166 -0.0536613 -8.63427e-22)
(0.593102 -0.050585 7.28204e-22)
(0.602134 -0.0484653 -4.83974e-23)
(0.612969 -0.0448266 -1.46104e-22)
(0.620991 -0.0439544 -2.6745e-24)
(0.633895 -0.0387298 3.22619e-23)
(0.638926 -0.0405963 5.98768e-23)
(0.656776 -0.0330459 -2.10071e-22)
(0.492558 -0.0682188 2.37092e-20)
(0.495527 -0.0714016 -2.28331e-20)
(0.498501 -0.07406 1.60033e-20)
(0.501593 -0.0761686 9.81299e-21)
(0.504902 -0.077719 -1.17142e-20)
(0.508504 -0.0787178 -1.04546e-20)
(0.512461 -0.0791846 2.0601e-20)
(0.516817 -0.0791489 -1.0145e-20)
(0.5216 -0.0786472 2.86652e-21)
(0.526824 -0.0777223 -6.47027e-21)
(0.532493 -0.0764172 1.74099e-20)
(0.538595 -0.0747813 -3.61922e-21)
(0.545122 -0.0728538 -6.86476e-21)
(0.552035 -0.0706927 7.40498e-22)
(0.559335 -0.0683165 -2.56787e-21)
(0.566936 -0.0658128 7.25425e-21)
(0.574901 -0.0631348 -5.62892e-21)
(0.583024 -0.060474 2.01513e-21)
(0.591573 -0.0575859 -1.27973e-21)
(0.599988 -0.0549949 9.29558e-22)
(0.609145 -0.0518633 -4.56967e-22)
(0.617471 -0.0497255 -2.37087e-22)
(0.627563 -0.046004 3.0498e-23)
(0.634994 -0.0451508 3.36012e-22)
(0.647135 -0.0397927 -9.8426e-24)
(0.65179 -0.0417468 -5.03753e-23)
(0.668705 -0.0340539 7.08864e-23)
(0.529761 -0.0682735 4.76532e-20)
(0.531303 -0.0715543 -3.25552e-20)
(0.532925 -0.0743336 3.89148e-20)
(0.534725 -0.0765756 -1.90834e-20)
(0.536788 -0.0782632 1.5323e-20)
(0.539184 -0.0793962 -1.66665e-20)
(0.541969 -0.0799888 -3.23367e-21)
(0.545183 -0.0800671 6.58059e-21)
(0.548854 -0.0796651 1.51851e-21)
(0.552993 -0.0788243 6.94259e-22)
(0.557606 -0.0775873 -5.70212e-21)
(0.562681 -0.0760039 8.44703e-22)
(0.568208 -0.0741137 4.25271e-21)
(0.574151 -0.0719766 -3.48157e-21)
(0.58051 -0.0696107 -1.33963e-21)
(0.587202 -0.0671081 6.13689e-21)
(0.594287 -0.0644183 -3.41549e-21)
(0.601565 -0.0617433 -8.6709e-22)
(0.609293 -0.0588249 1.4175e-22)
(0.616932 -0.056214 7.75586e-22)
(0.625323 -0.0530335 6.78546e-22)
(0.632956 -0.050885 1.1909e-22)
(0.642318 -0.0470872 -2.96523e-22)
(0.649173 -0.0462584 -4.81801e-22)
(0.660562 -0.0407763 6.32064e-24)
(0.66486 -0.0428178 6.22378e-23)
(0.680847 -0.0349975 -1.66588e-22)
(0.567084 -0.067794 -3.12014e-20)
(0.567136 -0.0712205 -1.37081e-20)
(0.567361 -0.0741614 1.87164e-20)
(0.567838 -0.0765725 -1.32876e-20)
(0.568635 -0.078429 1.30508e-20)
(0.569812 -0.0797248 1.31454e-21)
(0.571417 -0.0804694 4.56002e-21)
(0.573488 -0.0806854 -1.62123e-20)
(0.576047 -0.0804049 1.29545e-20)
(0.579107 -0.0796683 -1.54739e-20)
(0.582671 -0.0785176 1.1681e-20)
(0.586726 -0.0770035 1.97416e-21)
(0.591264 -0.0751658 -3.18525e-21)
(0.596249 -0.0730668 5.34067e-23)
(0.601679 -0.0707243 -5.17795e-21)
(0.607475 -0.0682347 1.25637e-21)
(0.613693 -0.0655447 2.13069e-21)
(0.62014 -0.0628654 -3.57664e-22)
(0.627062 -0.0599276 8.00601e-22)
(0.633941 -0.0573048 3.31811e-22)
(0.641582 -0.0540867 5.58385e-22)
(0.648538 -0.0519327 -4.17132e-22)
(0.657185 -0.0480722 8.57064e-24)
(0.663483 -0.0472677 2.2996e-22)
(0.674135 -0.0416822 2.19706e-23)
(0.678098 -0.0438005 -8.76384e-23)
(0.693166 -0.0358774 1.68992e-23)
(0.610195 -0.0664341 0)
(0.608716 -0.0700441 0)
(0.60752 -0.0731845 0)
(0.606657 -0.0758058 0)
(0.606177 -0.0778776 0)
(0.606126 -0.0793882 0)
(0.606543 -0.0803417 0)
(0.607456 -0.0807564 0)
(0.608887 -0.0806607 0)
(0.610843 -0.0800925 0)
(0.613325 -0.0790922 0)
(0.61632 -0.0777096 0)
(0.619819 -0.0759844 0)
(0.623785 -0.073979 0)
(0.628216 -0.0717124 0)
(0.633033 -0.0692819 0)
(0.63829 -0.0666356 0)
(0.6438 -0.0639868 0)
(0.649795 -0.0610659 0)
(0.655786 -0.0584532 0)
(0.662526 -0.0552288 0)
(0.668657 -0.0530772 0)
(0.676407 -0.0491849 0)
(0.68199 -0.0483968 0)
(0.69167 -0.0427428 0)
(0.695164 -0.0449124 0)
(0.708984 -0.0369181 0)
(0.666081 -0.0652671 0)
(0.662583 -0.0690559 0)
(0.659515 -0.0723736 0)
(0.656891 -0.0751745 0)
(0.654735 -0.0774289 0)
(0.653075 -0.0791232 0)
(0.651935 -0.0802587 0)
(0.651337 -0.0808503 0)
(0.651292 -0.0809234 0)
(0.651804 -0.0805127 0)
(0.652872 -0.0796569 0)
(0.654481 -0.0784034 0)
(0.656619 -0.0767922 0)
(0.659251 -0.0748836 0)
(0.662371 -0.0726994 0)
(0.665905 -0.0703335 0)
(0.669898 -0.0677412 0)
(0.674177 -0.0651273 0)
(0.678952 -0.0622382 0)
(0.68377 -0.0596344 0)
(0.689323 -0.0564274 0)
(0.694358 -0.0542636 0)
(0.700922 -0.050381 0)
(0.705545 -0.0495686 0)
(0.713944 -0.0439226 0)
(0.716785 -0.0460547 0)
(0.72897 -0.0380989 0)
(0.724497 -0.0631178 0)
(0.718921 -0.0672198 0)
(0.713913 -0.0708216 0)
(0.709458 -0.0738882 0)
(0.705558 -0.076395 0)
(0.702221 -0.0783305 0)
(0.699459 -0.0796961 0)
(0.697284 -0.0805054 0)
(0.6957 -0.0807821 0)
(0.694709 -0.0805594 0)
(0.694303 -0.0798748 0)
(0.694468 -0.0787744 0)
(0.69519 -0.0772985 0)
(0.696433 -0.0755061 0)
(0.698191 -0.0734222 0)
(0.700392 -0.071137 0)
(0.703074 -0.0686141 0)
(0.706077 -0.0660485 0)
(0.709589 -0.0632055 0)
(0.713192 -0.060621 0)
(0.717518 -0.0574467 0)
(0.721421 -0.055276 0)
(0.726761 -0.0514241 0)
(0.730393 -0.0505805 0)
(0.737468 -0.0449822 0)
(0.739637 -0.0470401 0)
(0.750119 -0.0391928 0)
(0.777024 -0.0642237 0)
(0.770098 -0.0682301 0)
(0.763815 -0.0716653 0)
(0.75816 -0.0745133 0)
(0.753129 -0.0767674 0)
(0.748723 -0.078431 0)
(0.744944 -0.0795184 0)
(0.741793 -0.0800531 0)
(0.739265 -0.0800673 0)
(0.737353 -0.0795983 0)
(0.736041 -0.0786914 0)
(0.735312 -0.0773876 0)
(0.735133 -0.0757452 0)
(0.735494 -0.0737919 0)
(0.736328 -0.0716155 0)
(0.737667 -0.0691874 0)
(0.739361 -0.0666934 0)
(0.741578 -0.0639176 0)
(0.743939 -0.0613714 0)
(0.747008 -0.0582482 0)
(0.749752 -0.0560849 0)
(0.753838 -0.0522832 0)
(0.756454 -0.0514132 0)
(0.762172 -0.0458927 0)
(0.763658 -0.0478601 0)
(0.77238 -0.0401744 0)
(0.836031 -0.0601167 0)
(0.827308 -0.0646234 0)
(0.819283 -0.0685116 0)
(0.811935 -0.0717753 0)
(0.805252 -0.074414 0)
(0.79923 -0.076435 0)
(0.793867 -0.0778543 0)
(0.789159 -0.0786961 0)
(0.7851 -0.0789928 0)
(0.781682 -0.0787815 0)
(0.778887 -0.0781074 0)
(0.7767 -0.0770124 0)
(0.775088 -0.0755542 0)
(0.77404 -0.0737635 0)
(0.773494 -0.0717256 0)
(0.773475 -0.0694197 0)
(0.773845 -0.0670228 0)
(0.774753 -0.0643382 0)
(0.775854 -0.0618515 0)
(0.777651 -0.0588012 0)
(0.779219 -0.0566609 0)
(0.782036 -0.0529328 0)
(0.783622 -0.0520414 0)
(0.787959 -0.0466344 0)
(0.788758 -0.0484928 0)
(0.795676 -0.0410263 0)
(0.894944 -0.0549541 0)
(0.884647 -0.0600313 0)
(0.875056 -0.0644393 0)
(0.866153 -0.0681808 0)
(0.85793 -0.0712615 0)
(0.850382 -0.0736928 0)
(0.843507 -0.0754931 0)
(0.837301 -0.0766877 0)
(0.831758 -0.0773097 0)
(0.826871 -0.0773965 0)
(0.822623 -0.0769934 0)
(0.819002 -0.0761433 0)
(0.815975 -0.0749032 0)
(0.813532 -0.0733073 0)
(0.811617 -0.0714379 0)
(0.810246 -0.0692828 0)
(0.809298 -0.0670092 0)
(0.808899 -0.0644408 0)
(0.808741 -0.0620359 0)
(0.809266 -0.0590818 0)
(0.809658 -0.056981 0)
(0.811201 -0.0533519 0)
(0.811757 -0.0524441 0)
(0.814703 -0.0471891 0)
(0.81482 -0.0489188 0)
(0.819906 -0.0417317 0)
(0.952665 -0.048816 0)
(0.941112 -0.0545025 0)
(0.930216 -0.0594745 0)
(0.919978 -0.0637398 0)
(0.910398 -0.0673084 0)
(0.901478 -0.0701947 0)
(0.893221 -0.072419 0)
(0.885628 -0.0740082 0)
(0.878697 -0.0749955 0)
(0.872422 -0.0754191 0)
(0.866792 -0.075324 0)
(0.861796 -0.0747541 0)
(0.857406 -0.0737662 0)
(0.853612 -0.0723972 0)
(0.850364 -0.0707273 0)
(0.847675 -0.0687517 0)
(0.845437 -0.0666288 0)
(0.843755 -0.0642026 0)
(0.842361 -0.0619028 0)
(0.841631 -0.0590686 0)
(0.840863 -0.0570254 0)
(0.841146 -0.0535209 0)
(0.840684 -0.0526031 0)
(0.842245 -0.0475389 0)
(0.841692 -0.0491217 0)
(0.844939 -0.0422731 0)
(1.00806 -0.0418459 0)
(0.995638 -0.0481422 0)
(0.983775 -0.0536922 0)
(0.972493 -0.0585039 0)
(0.961808 -0.062588 0)
(0.951735 -0.06596 0)
(0.942288 -0.0686411 0)
(0.933475 -0.0706583 0)
(0.9253 -0.0720449 0)
(0.917766 -0.0728391 0)
(0.910866 -0.0730857 0)
(0.904594 -0.0728292 0)
(0.898929 -0.0721257 0)
(0.893862 -0.0710149 0)
(0.88935 -0.0695744 0)
(0.885404 -0.0678072 0)
(0.881929 -0.0658624 0)
(0.879015 -0.0636044 0)
(0.876427 -0.0614338 0)
(0.874483 -0.0587436 0)
(0.872589 -0.0567768 0)
(0.871643 -0.0534228 0)
(0.870193 -0.0525026 0)