/*--------------------------------*- C++ -*----------------------------------*\
  =========                 |
  \\      /  F ield         | OpenFOAM: The Open Source CFD Toolbox
   \\    /   O peration     | Website:  https://openfoam.org
    \\  /    A nd           | Version:  7
     \\/     M anipulation  |
\*---------------------------------------------------------------------------*/
FoamFile
{
    version     2.0;
    format      ascii;
    class       volVectorField;
    location    "70";
    object      U;
}
// * * * * * * * * * * * * * * * * * * * * * * * * * * * * * * * * * * * * * //

dimensions      [0 1 -1 0 0 0 0];

internalField   nonuniform List<vector> 
34000
(
(-0.000362015 0.00884528 -1.10224e-21)
(-0.00207266 0.022004 -5.92142e-21)
(-0.00544712 0.0315605 7.20317e-22)
(-0.00988964 0.038033 -1.26254e-21)
(-0.015175 0.041935 1.92696e-21)
(-0.021096 0.0437636 -1.4223e-20)
(-0.0274589 0.0439819 2.45001e-21)
(-0.0341008 0.0430042 -9.65485e-21)
(-0.0408863 0.0411847 -2.07658e-20)
(-0.0477057 0.0388097 1.77809e-20)
(-0.0544747 0.0360952 5.29769e-21)
(-0.0611331 0.0331895 -6.3679e-21)
(-0.0676445 0.0301792 7.83038e-21)
(-0.0739945 0.0270993 1.0721e-20)
(-0.0801907 0.0239428 -6.78109e-21)
(-0.0862606 0.0206714 -9.18917e-21)
(-0.0922498 0.0172234 -2.20727e-20)
(-0.0982214 0.0135198 -1.71297e-21)
(-0.104234 0.00946984 -3.76634e-21)
(-0.110345 0.00495434 -7.48069e-21)
(-0.000544457 0.00939249 -5.41267e-21)
(-0.00250537 0.0234433 4.51196e-21)
(-0.00602669 0.0337184 -5.31612e-21)
(-0.0105419 0.0407582 -1.19594e-20)
(-0.0158439 0.0450924 9.79123e-21)
(-0.0217412 0.047234 5.94404e-20)
(-0.028053 0.0476624 -3.66757e-20)
(-0.0346268 0.0468079 6.18578e-21)
(-0.041335 0.0450401 2.99896e-20)
(-0.0480735 0.0426604 2.94713e-23)
(-0.0547617 0.0398994 1.79169e-20)
(-0.0613419 0.0369194 -2.3783e-20)
(-0.0677786 0.0338205 2.49619e-20)
(-0.0740583 0.0306503 -2.14583e-20)
(-0.0801891 0.0274142 -8.41286e-21)
(-0.0861994 0.024085 4.22551e-20)
(-0.0921364 0.0206103 -1.34293e-20)
(-0.098065 0.016918 2.05697e-21)
(-0.104051 0.0129198 -2.51461e-20)
(-0.11016 0.00850004 -2.79622e-21)
(-0.000746714 0.00992149 -4.20476e-20)
(-0.00298667 0.0248408 5.447e-21)
(-0.00667169 0.0358208 8.34922e-21)
(-0.0112672 0.0434222 3.67989e-20)
(-0.0165855 0.0481881 -4.28918e-20)
(-0.0224514 0.0506461 -6.68519e-20)
(-0.028698 0.0512901 6.09931e-20)
(-0.0351838 0.0505654 -1.67509e-20)
(-0.041789 0.0488563 -8.32862e-21)
(-0.0484157 0.0464787 -4.26827e-20)
(-0.0549869 0.0436775 1.17983e-20)
(-0.061447 0.0406287 4.18939e-20)
(-0.0677616 0.0374463 -8.46845e-21)
(-0.0739176 0.0341911 3.46093e-20)
(-0.0799234 0.0308809 -2.87295e-20)
(-0.085808 0.0275004 -8.54054e-21)
(-0.0916201 0.0240074 6.8381e-20)
(-0.0974274 0.0203376 -4.25568e-21)
(-0.103301 0.0164058 1.07897e-19)
(-0.109313 0.0121011 -2.6068e-20)
(-0.000967719 0.0104295 6.89136e-20)
(-0.00351403 0.0261893 -3.09432e-20)
(-0.00737857 0.0378579 -2.14821e-20)
(-0.0120614 0.0460127 -1.62797e-20)
(-0.017395 0.0512084 3.01941e-20)
(-0.0232215 0.0539849 -5.85228e-21)
(-0.0293885 0.0548494 -1.02361e-19)
(-0.0357656 0.0542605 -1.09083e-20)
(-0.0422419 0.0526165 -2.25518e-20)
(-0.0487251 0.050247 -3.77379e-21)
(-0.0551423 0.047411 -3.95348e-20)
(-0.0614398 0.0442982 4.5043e-20)
(-0.067584 0.0410363 -6.67102e-20)
(-0.0735617 0.0376997 -2.0488e-21)
(-0.0793813 0.0343195 1.82577e-20)
(-0.0850722 0.0308927 -1.42518e-19)
(-0.0906846 0.0273883 -1.15254e-19)
(-0.0962892 0.0237509 6.26884e-20)
(-0.101962 0.0198995 -8.36696e-20)
(-0.107777 0.0157291 1.78301e-21)
(-0.00120622 0.0109139 -9.19651e-21)
(-0.00408451 0.0274823 1.22443e-19)
(-0.00814333 0.0398201 5.75249e-20)
(-0.0129197 0.0485181 -3.73596e-21)
(-0.0182672 0.0541399 1.54029e-20)
(-0.0240459 0.0572359 2.18066e-21)
(-0.0301184 0.0583246 5.25141e-20)
(-0.0363662 0.057877 6.24017e-20)
(-0.0426871 0.0563037 2.65975e-20)
(-0.0489949 0.0539479 9.39688e-20)
(-0.0552205 0.0510817 -1.08725e-19)
(-0.0613122 0.0479086 -2.28579e-20)
(-0.0672366 0.0445701 4.8392e-20)
(-0.0729804 0.0411543 -8.48361e-20)
(-0.0785513 0.0377064 3.88184e-20)
(-0.0839788 0.0342364 8.97337e-20)
(-0.0893143 0.0307258 2.11033e-20)
(-0.0946321 0.0271294 3.15585e-20)
(-0.100013 0.0233713 -5.01928e-20)
(-0.105526 0.0193546 5.40373e-21)
(-0.00146083 0.0113722 -4.54366e-20)
(-0.00469486 0.0287134 2.91812e-20)
(-0.00896158 0.0416979 -4.69928e-20)
(-0.0138371 0.0509264 1.37701e-20)
(-0.0191966 0.0569691 3.84016e-20)
(-0.0249189 0.0603844 1.73937e-20)
(-0.0308818 0.0617004 3.32606e-20)
(-0.0369793 0.0613985 -2.32042e-20)
(-0.043118 0.0599012 -1.4427e-19)
(-0.0492181 0.0575638 -1.29577e-19)
(-0.0552142 0.0546713 -8.45689e-20)
(-0.0610562 0.0514407 3.19636e-20)
(-0.0667109 0.0480271 -1.82575e-20)
(-0.0721642 0.0445329 1.39742e-19)
(-0.0774227 0.0410177 -5.04143e-20)
(-0.0825155 0.0375057 4.14373e-20)
(-0.0874946 0.0339922 6.00354e-20)
(-0.092439 0.0304434 -3.36665e-20)
(-0.0974326 0.0267905 2.98535e-19)
(-0.102536 0.0229469 -1.13375e-19)
(-0.00172998 0.011802 5.52313e-20)
(-0.00534146 0.0298762 -6.94748e-20)
(-0.00982846 0.0434821 -1.06772e-19)
(-0.014808 0.0532263 -2.80358e-20)
(-0.0201774 0.0596829 1.24323e-20)
(-0.0258342 0.063416 1.92043e-20)
(-0.0316726 0.0649612 6.44301e-20)
(-0.0375985 0.064809 1.44027e-20)
(-0.0435282 0.0633921 4.47067e-21)
(-0.049388 0.0610773 2.32869e-19)
(-0.0551162 0.0581617 1.75432e-19)
(-0.0606643 0.0548753 -1.05706e-19)
(-0.0659988 0.051387 -1.55655e-20)
(-0.0711042 0.0478136 -4.21192e-20)
(-0.0759855 0.0442296 4.18722e-20)
(-0.0806706 0.0406748 -2.22739e-19)
(-0.0852122 0.0371593 -4.71046e-20)
(-0.0896939 0.0336629 -7.01956e-20)
(-0.0942026 0.0301256 -1.70355e-19)
(-0.098784 0.0264744 9.35138e-20)
(-0.002012 0.0122009 9.33991e-21)
(-0.00602038 0.030965 -3.41464e-20)
(-0.0107388 0.045164 9.64881e-20)
(-0.0158265 0.0554069 -5.9544e-20)
(-0.0212032 0.0622686 -3.3469e-20)
(-0.0267857 0.0663166 5.34434e-20)
(-0.0324842 0.068092 -9.01594e-20)
(-0.0382175 0.0680925 -1.21734e-20)
(-0.0439111 0.06676 1.71866e-19)
(-0.0494979 0.0644712 -1.10177e-19)
(-0.0549198 0.0615349 -4.54285e-20)
(-0.0601293 0.0581937 5.35397e-20)
(-0.0650926 0.0546298 -1.41581e-20)
(-0.0697921 0.0509748 -7.33095e-21)
(-0.0742305 0.0473185 6.15011e-20)
(-0.0784338 0.0437174 -1.64967e-19)
(-0.0824546 0.0401984 5.68605e-20)
(-0.0863819 0.0367567 -4.39046e-20)
(-0.090305 0.0333442 -9.91243e-20)
(-0.0942491 0.0299046 3.55557e-20)
(-0.00230507 0.012567 -2.60106e-20)
(-0.00672745 0.0319742 1.878e-19)
(-0.011687 0.0467354 -4.17153e-20)
(-0.0168863 0.0574575 2.56184e-20)
(-0.0222676 0.0647138 1.85825e-19)
(-0.0277665 0.0690725 -1.25904e-19)
(-0.03331 0.071078 -6.22737e-20)
(-0.0388294 0.0712335 -1.08489e-19)
(-0.04426 0.0699884 -1.19022e-19)
(-0.0495411 0.0677286 -7.89893e-20)
(-0.0546179 0.0647735 -1.07264e-19)
(-0.0594443 0.0613774 1.95313e-19)
(-0.063985 0.0577359 -2.14326e-20)
(-0.06822 0.0539951 -4.61695e-20)
(-0.0721489 0.050261 -2.41738e-19)
(-0.075795 0.0466077 1.35633e-19)
(-0.0792101 0.0430808 3.32481e-20)
(-0.082489 0.0396936 8.59335e-20)
(-0.0857233 0.0364128 5.875e-20)
(-0.088911 0.0332043 -1.59473e-19)
(-0.00260731 0.0128984 -8.1217e-20)
(-0.00745822 0.032899 1.10401e-19)
(-0.0126673 0.0481887 6.21803e-20)
(-0.017981 0.0593685 2.82941e-20)
(-0.0233635 0.0670069 2.40113e-20)
(-0.0287698 0.0716705 -8.49746e-20)
(-0.034143 0.0739048 1.84093e-19)
(-0.0394277 0.0742168 1.02121e-20)
(-0.0445683 0.0730616 1.71772e-19)
(-0.0495108 0.0708332 -1.00827e-19)
(-0.054204 0.0678604 1.62251e-19)
(-0.0586022 0.0644086 -1.61748e-19)
(-0.0626687 0.0606862 -1.46009e-19)
(-0.0663803 0.0568538 1.25471e-19)
(-0.0697325 0.0530341 4.47282e-19)
(-0.0727451 0.0493199 -2.48741e-19)
(-0.0754679 0.0457778 2.05245e-19)
(-0.0780021 0.0424417 4.79998e-20)
(-0.080442 0.0392975 -1.80388e-19)
(-0.0827504 0.0363395 1.52926e-19)
(-0.00291671 0.0131935 1.48065e-19)
(-0.00820808 0.0337349 -8.44504e-20)
(-0.0136736 0.0495169 2.91519e-20)
(-0.0191035 0.0611306 1.08991e-19)
(-0.0244839 0.0691368 -1.00357e-19)
(-0.0297884 0.074098 1.98032e-19)
(-0.0349763 0.0765587 -3.60015e-20)
(-0.0400051 0.0770277 4.46515e-21)
(-0.044829 0.0759642 -2.37683e-19)
(-0.0494001 0.0737689 1.50796e-19)
(-0.0536708 0.0707789 3.52368e-20)
(-0.0575958 0.0672699 -4.6966e-20)
(-0.0611364 0.0634624 5.86175e-20)
(-0.0642653 0.0595312 -2.32909e-19)
(-0.0669731 0.0556159 -1.30045e-19)
(-0.0692748 0.0518292 2.76809e-19)
(-0.0712174 0.0482608 -1.55857e-19)
(-0.0729086 0.0449691 -2.24583e-19)
(-0.0744462 0.0419639 4.1906e-19)
(-0.0757487 0.0392757 1.10192e-22)
(-0.00323126 0.0134511 1.2465e-19)
(-0.00897226 0.0344782 -1.56251e-19)
(-0.0146995 0.050714 -1.6348e-19)
(-0.0202469 0.0627354 -7.82434e-20)
(-0.0256213 0.0710933 -1.13762e-19)
(-0.0308147 0.0763433 -6.44591e-20)
(-0.0358024 0.0790266 -2.74122e-19)
(-0.0405544 0.079652 3.36978e-20)
(-0.0450347 0.0786813 -1.17536e-19)
(-0.0492017 0.0765202 4.13161e-19)
(-0.053011 0.0735131 -2.41327e-19)
(-0.0564176 0.0699448 1.48381e-19)
(-0.0593803 0.066047 -4.56846e-20)
(-0.0618669 0.0620083 2.53605e-19)
(-0.0638622 0.0579853 2.11239e-20)
(-0.0653749 0.0541116 -2.20939e-19)
(-0.066448 0.0505024 -4.041e-20)
(-0.0671959 0.0472442 9.19127e-21)
(-0.0677212 0.0443773 -1.61884e-20)
(-0.067887 0.0419782 2.90948e-19)
(-0.00354889 0.0136702 -1.5506e-19)
(-0.00974591 0.0351259 -1.50018e-19)
(-0.0157387 0.0517746 6.23741e-20)
(-0.0214039 0.0641757 1.56399e-19)
(-0.0267682 0.072867 -1.14839e-20)
(-0.0318411 0.0783951 -1.085e-19)
(-0.0366135 0.081296 2.417e-19)
(-0.041068 0.0820762 -2.746e-20)
(-0.0451778 0.0811987 2.9675e-19)
(-0.0489079 0.0790725 -3.31289e-19)
(-0.0522167 0.076048 8.76498e-20)
(-0.0550595 0.0724177 1.04791e-19)
(-0.0573919 0.0684238 -3.14066e-21)
(-0.0591764 0.0642677 -1.85024e-21)
(-0.0603904 0.0601229 -2.03448e-19)
(-0.0610354 0.0561447 2.72521e-20)
(-0.0611486 0.052476 2.76465e-19)
(-0.0608507 0.0492362 3.59227e-19)
(-0.060252 0.0465029 -4.29054e-19)
(-0.0591456 0.0444112 -2.78133e-19)
(-0.00386754 0.0138502 6.52973e-20)
(-0.0105241 0.0356754 9.99149e-20)
(-0.0167847 0.0526944 1.22437e-19)
(-0.0225672 0.0654449 -2.07018e-19)
(-0.0279167 0.0744494 2.18091e-19)
(-0.0328595 0.0802433 2.08347e-19)
(-0.0374016 0.0833551 -8.15219e-20)
(-0.0415376 0.0842874 3.59397e-19)
(-0.0452501 0.0835026 -3.65527e-19)
(-0.0485101 0.0814116 1.62983e-19)
(-0.0512792 0.078369 1.66563e-19)
(-0.0535123 0.074674 -1.27304e-20)
(-0.0551617 0.0705776 2.43348e-21)
(-0.0561836 0.0662933 2.21236e-20)
(-0.0565472 0.0620108 -1.60114e-19)
(-0.0562448 0.0579077 1.60047e-19)
(-0.0553064 0.054157 -8.26103e-20)
(-0.0538583 0.0509156 -1.87218e-19)
(-0.0520226 0.0483063 2.44305e-19)
(-0.0495029 0.0465378 5.17862e-20)
(-0.00418518 0.0139908 -3.75244e-20)
(-0.0113021 0.0361254 4.71954e-20)
(-0.017831 0.05347 -1.02432e-19)
(-0.0237291 0.0665375 -1.53534e-19)
(-0.0290588 0.075833 -1.5831e-19)
(-0.0338618 0.0818785 -1.43181e-19)
(-0.0381584 0.0851931 2.34466e-19)
(-0.0419548 0.0862737 -1.18605e-19)
(-0.0452426 0.0855803 9.5261e-20)
(-0.047999 0.0835242 1.09724e-20)
(-0.0501885 0.0804626 -2.62961e-20)
(-0.0517654 0.0767 6.62087e-20)
(-0.0526784 0.0724946 -1.29215e-19)
(-0.0528766 0.0680708 6.74418e-20)
(-0.0523197 0.0636335 2.2095e-19)
(-0.0509895 0.0593826 -3.25362e-19)
(-0.0489063 0.0555233 -2.09768e-19)
(-0.0462015 0.052255 2.77853e-19)
(-0.0430156 0.0497546 -1.63428e-19)
(-0.0389343 0.0483218 -2.59319e-19)
(-0.00449984 0.0140919 1.39442e-19)
(-0.0120749 0.0364748 -1.42554e-19)
(-0.018871 0.0540989 1.15545e-19)
(-0.0248824 0.0674493 1.85873e-19)
(-0.0301865 0.0770115 -3.44054e-20)
(-0.0348394 0.0832924 -1.23344e-19)
(-0.0388749 0.0867999 -2.3021e-19)
(-0.0423103 0.0880237 -1.75773e-19)
(-0.0451458 0.0874195 -3.56206e-19)
(-0.0473644 0.0853975 3.66146e-20)
(-0.0489335 0.0823162 -3.23979e-20)
(-0.0498068 0.0784832 -2.562e-19)
(-0.0499288 0.0741627 2.2401e-19)
(-0.0492409 0.0695881 2.75458e-19)
(-0.0476922 0.064978 -1.42626e-20)
(-0.0452525 0.0605542 1.70744e-19)
(-0.0419299 0.056556 -8.68921e-20)
(-0.0378591 0.0532301 1.4356e-20)
(-0.0332101 0.0508177 2.49987e-19)
(-0.0274157 0.0497456 6.07028e-19)
(-0.00480965 0.014154 -6.03138e-20)
(-0.0128381 0.0367237 -4.24703e-20)
(-0.0198986 0.0545797 1.19343e-19)
(-0.0260195 0.0681769 -1.66733e-19)
(-0.0312915 0.0779795 -4.35149e-20)
(-0.0357837 0.0844776 2.58739e-19)
(-0.039542 0.0881664 -6.14615e-20)
(-0.0425943 0.0895267 -1.78218e-19)
(-0.0449489 0.0890088 2.90025e-19)
(-0.0465946 0.0870198 -7.77843e-20)
(-0.0475012 0.0839178 5.72587e-20)
(-0.047622 0.0800123 3.13665e-19)
(-0.0468967 0.0755712 -4.37515e-19)
(-0.0452587 0.0708349 -1.2021e-19)
(-0.0426453 0.0660341 -2.39095e-19)
(-0.0390123 0.0614111 4.87878e-19)
(-0.0343532 0.0572402 1.53179e-20)
(-0.0288031 0.0538197 2.73785e-19)
(-0.022568 0.0514648 -9.79677e-20)
(-0.0149298 0.050818 -5.76955e-19)
(-0.00511284 0.0141779 -1.40765e-19)
(-0.0135872 0.0368728 2.03861e-19)
(-0.0209076 0.0549121 2.69187e-21)
(-0.0271331 0.0687182 -2.06095e-21)
(-0.0323657 0.0787327 2.13101e-19)
(-0.0366856 0.0854277 1.53726e-19)
(-0.0401499 0.0892844 -6.00089e-21)
(-0.0427961 0.0907733 4.62515e-19)
(-0.0446402 0.0903374 1.7776e-19)
(-0.0456763 0.0883798 -3.28164e-19)
(-0.0458768 0.0852566 1.54848e-20)
(-0.0451939 0.0812771 -1.06665e-20)
(-0.0435629 0.076711 4.64905e-19)
(-0.0409082 0.0718035 -5.2288e-19)
(-0.0371545 0.0667948 1.44769e-19)
(-0.0322418 0.0619458 6.31119e-21)
(-0.0261469 0.0575656 -3.76447e-19)
(-0.0190025 0.0540079 -3.93942e-19)
(-0.0110305 0.0516798 -4.70762e-20)
(-0.00142967 0.0514714 5.88577e-19)
(-0.00540779 0.0141644 4.57021e-20)
(-0.014318 0.0369236 -1.45272e-19)
(-0.021892 0.0550967 1.40291e-19)
(-0.028216 0.0690721 -2.10174e-19)
(-0.0334007 0.0792681 2.61431e-19)
(-0.0375358 0.0861377 -4.38154e-19)
(-0.0406882 0.0901467 -1.08547e-19)
(-0.042904 0.0917544 -2.41786e-19)
(-0.0442065 0.0913954 -1.14359e-19)
(-0.0445946 0.0894673 2.04508e-19)
(-0.0440429 0.0863224 4.19371e-19)
(-0.0425026 0.0822683 -4.72581e-19)
(-0.0399041 0.0775746 -1.7766e-19)
(-0.0361626 0.0724883 6.47746e-19)
(-0.0311893 0.0672565 -2.37235e-19)
(-0.0249067 0.0621555 -3.43448e-19)
(-0.0172721 0.0575279 4.3873e-19)
(-0.00841335 0.0537869 9.28577e-20)
(0.00143355 0.051447 9.00252e-20)
(0.0131798 0.0516457 -3.79851e-19)
(-0.00569308 0.0141151 1.78924e-20)
(-0.0150268 0.0368783 -7.58978e-20)
(-0.0228464 0.0551351 2.46561e-19)
(-0.0292612 0.0692387 -3.18983e-19)
(-0.0343883 0.0795836 -2.63284e-19)
(-0.0383248 0.0866031 1.6652e-19)
(-0.041146 0.0907471 4.63715e-19)
(-0.0429056 0.0924621 -2.93366e-19)
(-0.0436332 0.0921737 7.12633e-20)
(-0.0433323 0.0902724 -1.41818e-19)
(-0.0419795 0.0871059 -5.75336e-19)
(-0.0395244 0.0829779 3.49531e-19)
(-0.0358924 0.0781558 2.84465e-19)
(-0.0309895 0.0728862 -5.06126e-19)
(-0.0247123 0.0674191 1.18565e-19)
(-0.0169646 0.0620425 4.78555e-19)
(-0.0076808 0.0571294 1.90107e-19)
(0.00301964 0.0531542 6.70315e-20)
(0.0148785 0.050752 -3.95401e-19)
(0.0289651 0.0513552 -1.95264e-19)
(-0.00596746 0.0140315 -1.2404e-19)
(-0.01571 0.0367399 -2.27682e-19)
(-0.0237655 0.0550299 -1.3094e-19)
(-0.0302619 0.0692193 1.73393e-19)
(-0.03532 0.0796786 -1.0108e-20)
(-0.0390425 0.0868211 3.89291e-19)
(-0.0415115 0.0910802 -3.66041e-20)
(-0.042787 0.0928893 4.34642e-20)
(-0.0429041 0.0926638 2.81402e-19)
(-0.0418702 0.0907864 3.57271e-19)
(-0.0396633 0.0875983 -1.67227e-20)
(-0.0362315 0.0833985 -7.9616e-20)
(-0.031495 0.07845 -4.69532e-19)
(-0.0253498 0.072996 3.53852e-19)
(-0.0176778 0.0672859 -3.1318e-20)
(-0.00836292 0.0616145 -2.14183e-19)
(0.00268617 0.0563801 -1.08228e-18)
(0.0153638 0.0521172 3.86837e-19)
(0.0293792 0.049591 2.07667e-20)
(0.0460087 0.050602 -2.43727e-19)
(-0.00622992 0.0139157 1.14669e-19)
(-0.0163647 0.036512 2.97728e-19)
(-0.0246444 0.0547846 -2.26401e-19)
(-0.0312114 0.069016 -1.09765e-19)
(-0.0361875 0.0795533 9.16151e-20)
(-0.0396787 0.0867897 -2.21463e-19)
(-0.041772 0.0911419 -4.12015e-19)
(-0.0425329 0.0930299 2.44318e-19)
(-0.0420009 0.0928583 -2.79206e-20)
(-0.0401862 0.0910008 -5.64664e-19)
(-0.0370678 0.0877918 1.08477e-19)
(-0.0325918 0.0835237 6.15244e-20)
(-0.0266728 0.0784535 -1.07901e-19)
(-0.0191971 0.0728185 2.85966e-19)
(-0.0100313 0.0668634 5.61068e-19)
(0.000961672 0.0608843 -3.6821e-19)
(0.013901 0.0552979 2.99845e-19)
(0.0287006 0.0506944 7.39684e-20)
(0.0450268 0.0479728 4.26556e-19)
(0.0644177 0.0493848 1.94876e-19)
(-0.00647962 0.0137698 -1.25918e-19)
(-0.0169882 0.036199 -1.46207e-20)
(-0.0254788 0.0544036 3.20965e-19)
(-0.0321034 0.0686323 3.18478e-19)
(-0.0369822 0.0792091 -6.53928e-20)
(-0.0402223 0.086508 -4.1306e-20)
(-0.0419142 0.0909291 4.1494e-19)
(-0.0421268 0.0928788 -3.22851e-19)
(-0.0409031 0.0927503 9.8815e-20)
(-0.0382553 0.0909082 4.10511e-19)
(-0.0341624 0.0876789 3.95538e-19)
(-0.028568 0.0833476 1.55259e-19)
(-0.0213809 0.0781636 6.80873e-19)
(-0.012477 0.072356 -9.4109e-20)
(-0.00170778 0.0661611 -7.30181e-19)
(0.011085 0.05987 3.61239e-19)
(0.0260505 0.0539093 -1.95e-19)
(0.0431283 0.0489166 -4.55792e-19)
(0.0619292 0.0459215 -3.25608e-19)
(0.0843214 0.0477157 -3.32333e-19)
(-0.00671607 0.0135963 8.0671e-20)
(-0.0175783 0.0358055 1.68636e-19)
(-0.0262646 0.0538922 -1.17103e-19)
(-0.0329317 0.0680723 -1.45489e-19)
(-0.0376954 0.0786486 -1.5133e-19)
(-0.0406618 0.0859764 -4.08721e-20)
(-0.041923 0.0904399 -4.28632e-19)
(-0.0415501 0.0924319 2.20265e-19)
(-0.0395878 0.0923342 -2.03554e-19)
(-0.0360492 0.090502 -3.45182e-19)
(-0.0309124 0.0872532 1.24291e-20)
(-0.0241177 0.0828651 -8.82671e-19)
(-0.0155671 0.0775784 -6.88654e-19)
(-0.00512658 0.0716121 2.19142e-19)
(0.00736804 0.0651907 1.11636e-19)
(0.0220959 0.0585939 -2.41247e-19)
(0.0392368 0.0522486 9.42804e-19)
(0.0587629 0.0468274 -1.49279e-19)
(0.0802131 0.0434775 4.09255e-19)
(0.10587 0.045624 3.73916e-19)
(-0.00693896 0.0133978 -1.10609e-19)
(-0.0181333 0.0353369 -3.66244e-19)
(-0.0269982 0.0532561 1.16406e-19)
(-0.0336901 0.0673412 6.5627e-21)
(-0.038318 0.0778753 4.94952e-19)
(-0.040985 0.0851965 -2.95705e-19)
(-0.0417825 0.0896736 1.62151e-19)
(-0.0407822 0.0916864 2.32264e-19)
(-0.0380292 0.0916055 -1.82119e-20)
(-0.033536 0.0897766 1.44313e-19)
(-0.0272784 0.086509 4.40611e-19)
(-0.0191922 0.0820718 9.25456e-19)
(-0.0091723 0.0766966 7.48125e-20)
(0.00292624 0.0705912 -4.15007e-19)
(0.0172827 0.0639655 7.54881e-20)
(0.0340965 0.0570823 7.44063e-19)
(0.0535781 0.0503574 -5.08894e-19)
(0.0757386 0.0444834 2.65763e-21)
(0.100024 0.0406993 4.00033e-19)
(0.129236 0.0431586 -2.496e-19)
(-0.00714826 0.013177 -1.06053e-19)
(-0.018652 0.0347988 4.33197e-19)
(-0.0276761 0.052502 -3.30441e-19)
(-0.0343724 0.0664452 -6.75024e-20)
(-0.0388406 0.076894 -1.13966e-19)
(-0.0411784 0.0841709 -2.96636e-19)
(-0.0414749 0.0886308 2.95801e-19)
(-0.0398003 0.0906408 -9.76551e-20)
(-0.0361983 0.0905611 -1.75457e-19)
(-0.0306794 0.0887276 2.87834e-19)
(-0.0232155 0.0854417 -3.35665e-19)
(-0.0137366 0.0809642 -1.08761e-19)
(-0.00212926 0.0755177 -1.22204e-20)
(0.0117628 0.0692984 2.91663e-19)
(0.0281339 0.0625 -2.65519e-19)
(0.0472026 0.0553634 -5.05792e-19)
(0.0692079 0.0482829 -1.57167e-19)
(0.0942068 0.0419526 -2.2852e-19)
(0.121524 0.0376633 -7.02431e-19)
(0.154606 0.0403911 -2.13457e-19)
(-0.00734417 0.0129367 1.50597e-19)
(-0.0191333 0.0341971 -1.90053e-19)
(-0.0282952 0.0516368 -2.38282e-19)
(-0.0349726 0.0653909 -2.25275e-19)
(-0.0392532 0.0757103 7.50296e-20)
(-0.0412275 0.0829038 4.20831e-20)
(-0.0409802 0.0873135 1.05612e-19)
(-0.0385784 0.0892954 -2.74992e-19)
(-0.0340625 0.0891993 2.13192e-19)
(-0.0274388 0.0873525 -6.41305e-19)
(-0.0186736 0.0840483 -3.23169e-19)
(-0.00768927 0.0795401 5.17287e-21)
(0.00563726 0.0740423 2.88985e-19)
(0.0214742 0.0677396 -1.90875e-19)
(0.0400306 0.0608094 4.90368e-19)
(0.0615425 0.0534673 -1.20868e-19)
(0.0862737 0.0460761 1.5805e-19)
(0.114334 0.039313 6.04168e-19)
(0.144889 0.0344635 8.02285e-20)
(0.18218 0.0374184 3.94458e-19)
(-0.0075271 0.0126799 -3.17968e-19)
(-0.0195768 0.0335378 2.56149e-19)
(-0.0288526 0.0506679 2.87337e-19)
(-0.0354839 0.0641859 -1.6723e-19)
(-0.0395447 0.0743309 2.85841e-19)
(-0.0411161 0.0814004 2.76069e-19)
(-0.0402766 0.0857255 -5.00132e-20)
(-0.0370878 0.0876521 -9.49137e-20)
(-0.0315849 0.0875207 -2.59008e-19)
(-0.023768 0.0856505 1.21577e-19)
(-0.0135957 0.0823278 1.18567e-20)
(-0.000980814 0.0777994 -3.21182e-19)
(0.0142112 0.0722725 2.41002e-19)
(0.0321612 0.0659219 -1.89973e-19)
(0.0530925 0.0589095 -3.47906e-19)
(0.0772561 0.0514246 -4.57758e-19)
(0.104935 0.0437902 1.12739e-19)
(0.136297 0.0366497 1.58254e-19)
(0.170304 0.0312095 -1.53777e-19)
(0.212159 0.0343637 6.53981e-19)
(-0.00769768 0.0124094 -2.51205e-19)
(-0.019982 0.0328272 -2.35656e-19)
(-0.0293452 0.049603 1.86118e-19)
(-0.0358995 0.0628381 1.08295e-19)
(-0.0397032 0.0727633 4.42844e-20)
(-0.0408263 0.0796673 -8.10797e-20)
(-0.039339 0.0838722 -5.73755e-20)
(-0.0352957 0.085715 1.31329e-19)
(-0.028724 0.0855282 -1.24139e-19)
(-0.0196154 0.0836239 9.9962e-19)
(-0.00791836 0.0802822 7.31246e-20)
(0.00646609 0.0757447 -1.13484e-19)
(0.0236854 0.0702131 -7.49086e-19)
(0.0439343 0.0638544 1.45715e-19)
(0.0674495 0.0568174 -3.74825e-19)
(0.0944936 0.049266 2.49788e-19)
(0.125361 0.0414787 2.31029e-19)
(0.16028 0.0340518 -8.88241e-19)
(0.197955 0.0280226 -2.79738e-19)
(0.244734 0.0313765 -9.77267e-19)
(-0.00785665 0.0121278 1.21462e-19)
(-0.0203488 0.0320711 2.43906e-19)
(-0.0297698 0.0484499 -4.39226e-19)
(-0.0362116 0.0613561 -3.3641e-19)
(-0.0397152 0.0710161 1.70649e-19)
(-0.0403378 0.0777126 1.60833e-19)
(-0.0381396 0.0817608 -3.34074e-19)
(-0.0331653 0.0834907 -3.01144e-20)
(-0.0254328 0.0832277 1.79997e-20)
(-0.0149225 0.0812779 -3.01122e-19)
(-0.00157011 0.0779169 4.39131e-19)
(0.0147375 0.0733823 2.68514e-21)
(0.0341625 0.0678723 5.61365e-19)
(0.0569139 0.0615494 3.82992e-19)
(0.0832409 0.0545525 6.40584e-20)
(0.113413 0.0470234 8.21499e-19)
(0.147725 0.0391945 -7.51493e-19)
(0.186468 0.0316092 3.50204e-19)
(0.228023 0.0250318 2.76493e-19)
(0.280067 0.0286307 2.41721e-19)
(-0.00800486 0.0118379 5.84886e-19)
(-0.0206769 0.0312754 -4.12609e-19)
(-0.0301227 0.0472162 1.00157e-19)
(-0.0364114 0.0597488 3.26454e-19)
(-0.0395654 0.0690987 -3.52191e-19)
(-0.0396278 0.0755457 1.74195e-20)
(-0.0366466 0.0794008 2.68484e-19)
(-0.0306551 0.0809882 4.94918e-19)
(-0.0216586 0.0806281 6.72171e-19)
(-0.00962393 0.078622 -6.456e-19)
(0.00552859 0.0752418 -3.8698e-19)
(0.0239285 0.0707233 1.84401e-19)
(0.0457546 0.0652638 -5.33729e-19)
(0.0712302 0.0590241 3.62471e-20)
(0.100614 0.0521379 2.09591e-19)
(0.134178 0.0447305 1.61526e-19)
(0.172203 0.03699 5.0726e-19)
(0.215035 0.0294099 1.08305e-19)
(0.260674 0.0223683 -3.89906e-19)
(0.318277 0.0263204 4.23702e-19)
(-0.00814319 0.0115419 -5.54521e-19)
(-0.0209659 0.0304454 4.10809e-19)
(-0.0303996 0.0459095 9.97784e-20)
(-0.0364889 0.0580251 -3.23625e-19)
(-0.0392367 0.067021 1.36811e-19)
(-0.0386705 0.0731776 -6.61349e-20)
(-0.0348245 0.0768035 -4.9998e-20)
(-0.0277182 0.0782197 -4.17519e-19)
(-0.0173421 0.0777424 -6.61105e-19)
(-0.00364655 0.0756699 6.20272e-19)
(0.0134661 0.0722722 -2.23989e-19)
(0.0341439 0.0677852 7.10183e-21)
(0.0585835 0.0624075 1.28125e-19)
(0.0870219 0.0563022 2.74179e-19)
(0.119725 0.0496029 -3.33728e-20)
(0.156956 0.042425 -7.79914e-20)
(0.198967 0.0349182 -4.07833e-19)
(0.246142 0.0275384 -2.75411e-19)
(0.296053 0.0201618 -2.62907e-19)
(0.359415 0.0246558 4.2787e-19)
(-0.00827244 0.0112419 4.44374e-19)
(-0.0212148 0.0295862 -1.15942e-19)
(-0.0305952 0.0445371 3.94083e-19)
(-0.0364325 0.0561942 9.55779e-20)
(-0.0387092 0.0647941 -2.10843e-19)
(-0.0374364 0.0706206 3.42048e-20)
(-0.0326329 0.0739829 -4.5082e-19)
(-0.0243021 0.0752006 2.05611e-19)
(-0.0124171 0.0745877 1.11623e-19)
(0.00309079 0.0724408 -4.09536e-20)
(0.0223396 0.0690298 -4.6791e-20)
(0.0454979 0.0645923 5.59653e-20)
(0.0727802 0.0593314 -2.56726e-19)
(0.104436 0.0534158 -6.02066e-19)
(0.140731 0.0469845 3.06506e-19)
(0.181911 0.0401508 -1.55882e-19)
(0.22818 0.0330345 -3.95692e-20)
(0.279926 0.0260745 6.65861e-19)
(0.334273 0.0185381 7.04824e-19)
(0.403439 0.0238567 -1.09232e-18)
(-0.00839329 0.0109397 -1.13578e-19)
(-0.0214225 0.0287019 -1.24729e-19)
(-0.0307032 0.0431057 -2.4701e-19)
(-0.0362284 0.0542652 1.80973e-19)
(-0.0379604 0.0624292 3.2871e-19)
(-0.0358927 0.0678884 -4.25628e-19)
(-0.0300269 0.0709551 6.81137e-19)
(-0.0203483 0.0719495 -1.33438e-19)
(-0.00681037 0.0711854 1.94642e-20)
(0.0106774 0.0689593 -4.65202e-19)
(0.0322554 0.0655427 -3.55876e-20)
(0.0581136 0.0611773 -3.87311e-19)
(0.0884839 0.0560726 5.21965e-19)
(0.123624 0.0504067 3.45676e-19)
(0.163793 0.0443295 -6.79507e-19)
(0.209203 0.0379595 -5.83008e-19)
(0.259987 0.0313989 1.35743e-19)
(0.316487 0.0250928 7.97605e-19)
(0.375411 0.0176193 3.71973e-19)
(0.450198 0.0241454 2.02901e-19)
(-0.00850618 0.0106366 3.50265e-20)
(-0.0215866 0.0277961 1.20938e-19)
(-0.0307157 0.0416215 1.45488e-19)
(-0.035861 0.0522471 -1.21702e-19)
(-0.0369646 0.0599382 3.04792e-19)
(-0.034002 0.064996 4.08906e-19)
(-0.0269562 0.0677384 6.38536e-21)
(-0.0157922 0.0684885 -5.29958e-19)
(-0.000441321 0.0675617 -4.24809e-19)
(0.0192106 0.0652562 4.46413e-19)
(0.0433278 0.0618469 -6.00126e-19)
(0.0721217 0.0575812 -6.77571e-19)
(0.105839 0.0526779 -6.79919e-20)
(0.14474 0.0473274 -3.48264e-20)
(0.189065 0.041695 2.41097e-19)
(0.238976 0.0359116 1.59312e-19)
(0.294514 0.0300767 2.08502e-19)
(0.355885 0.0246601 -9.85584e-19)
(0.419508 0.017523 -2.76412e-19)
(0.499408 0.0257257 7.30856e-19)
(-0.00861121 0.0103334 -2.10632e-19)
(-0.0217041 0.0268716 2.05828e-19)
(-0.0306231 0.0400897 -1.5194e-19)
(-0.0353118 0.0501484 -7.54231e-20)
(-0.035693 0.0573335 -2.05784e-19)
(-0.0317232 0.0619598 -1.56087e-19)
(-0.0233655 0.0643537 -2.79707e-19)
(-0.0105629 0.0648433 4.63093e-19)
(0.00677734 0.0637476 1.84788e-19)
(0.0287948 0.0613683 -4.54103e-19)
(0.0556779 0.0579855 7.14722e-19)
(0.0876581 0.0538541 3.68565e-19)
(0.124992 0.049204 -2.79943e-19)
(0.167934 0.0442407 -3.95709e-19)
(0.216693 0.0391483 -5.16061e-20)
(0.271353 0.0340758 4.11353e-19)
(0.331845 0.0291393 -2.78438e-19)
(0.398124 0.0248321 1.06217e-19)
(0.466563 0.0183619 2.42106e-19)
(0.55065 0.0287541 6.1885e-19)
(-0.00870802 0.0100304 -2.16831e-20)
(-0.0217705 0.02593 -5.08222e-19)
(-0.0304137 0.0385151 1.23785e-19)
(-0.03456 0.0479774 2.75473e-19)
(-0.034113 0.0546276 -5.07469e-20)
(-0.0290104 0.0587972 -3.33968e-19)
(-0.0191942 0.0608237 3.6862e-19)
(-0.00458397 0.0610427 4.22971e-19)
(0.0149391 0.0597785 1.62172e-19)
(0.0395403 0.0573384 8.07717e-19)
(0.0694316 0.054009 -3.77116e-19)
(0.104861 0.0500545 1.81662e-19)
(0.146088 0.0457172 -1.87787e-19)
(0.193348 0.0412188 4.55762e-19)
(0.246799 0.036765 -4.00894e-20)
(0.306423 0.0325263 -1.07335e-19)
(0.372018 0.0286613 -1.71476e-19)
(0.443137 0.0256496 2.72516e-19)
(0.516496 0.0202712 -6.92796e-19)
(0.60331 0.0333823 -9.50211e-19)
(-0.00879575 0.00972753 -1.22033e-19)
(-0.0217801 0.0249723 -4.49962e-20)
(-0.030074 0.0369013 -4.10356e-19)
(-0.0335815 0.0457418 2.51222e-19)
(-0.0321885 0.051833 -2.56546e-19)
(-0.0258138 0.0555266 -2.60753e-19)
(-0.0143772 0.0571734 -2.35873e-20)
(0.00222642 0.0571187 -4.2654e-19)
(0.0241423 0.0556944 -6.77968e-19)
(0.0515615 0.0532148 1.85841e-19)
(0.0847166 0.0499747 2.09048e-19)
(0.123866 0.0462486 2.53078e-19)
(0.169261 0.0422916 6.50203e-19)
(0.221103 0.0383417 -6.41606e-20)
(0.279476 0.034626 -1.42738e-19)
(0.344231 0.0313375 -2.08155e-20)
(0.415014 0.028709 3.63135e-19)
(0.490808 0.0271265 6.51114e-19)
(0.569124 0.0234866 -1.84294e-19)
(0.656384 0.0399445 6.8973e-19)
(-0.00887288 0.009424 3.81791e-19)
(-0.0217256 0.0239982 -6.16882e-20)
(-0.0295878 0.035251 3.62029e-19)
(-0.0323494 0.0434486 -3.71303e-19)
(-0.02988 0.0489625 5.48417e-19)
(-0.0220793 0.0521671 4.59303e-19)
(-0.00884483 0.0534294 -3.77743e-19)
(0.00995412 0.0531062 -7.04303e-19)
(0.034489 0.0515389 1.16984e-18)
(0.0649744 0.0490509 2.89636e-19)
(0.101659 0.045946 -2.26548e-19)
(0.144801 0.0425095 -2.24746e-19)
(0.194631 0.0390085 -1.12455e-19)
(0.251292 0.0356948 -1.76783e-19)
(0.314771 0.0328131 -5.89248e-19)
(0.38476 0.0305753 -1.62151e-19)
(0.460747 0.0293125 1.31472e-20)
(0.541043 0.0292109 -4.47604e-19)
(0.624372 0.0283417 2.23422e-19)
(0.708688 0.0486561 -4.89006e-19)
(-0.00893719 0.00911864 -6.09666e-19)
(-0.0215979 0.0230068 4.10206e-19)
(-0.0289366 0.0335659 -6.10638e-19)
(-0.0308337 0.0411043 -3.32516e-19)
(-0.0271442 0.0460285 1.23994e-19)
(-0.0177492 0.0487385 -4.96034e-19)
(-0.00252386 0.0496195 7.78242e-19)
(0.018688 0.0490422 1.36777e-20)
(0.0460825 0.0473593 -4.35024e-19)
(0.0798938 0.0449043 -3.80712e-19)
(0.120378 0.0419913 -6.81719e-19)
(0.167782 0.0389155 -8.16407e-21)
(0.222292 0.0359538 2.50842e-20)
(0.283969 0.0333667 -1.59437e-19)
(0.352671 0.0314078 7.09602e-19)
(0.427904 0.0302924 4.41604e-19)
(0.509001 0.0304441 1.10587e-19)
(0.593721 0.031756 -4.78045e-19)
(0.682558 0.0348475 -2.49293e-20)
(0.761224 0.0571573 -7.95615e-19)
(-0.00898572 0.00880983 2.16547e-19)
(-0.0213862 0.021996 -4.09596e-19)
(-0.0280994 0.0318472 5.26905e-19)
(-0.0290017 0.0387149 7.40858e-19)
(-0.023935 0.0430435 -2.41137e-19)
(-0.0127629 0.0452611 3.15907e-20)
(0.00466147 0.0457731 -6.55634e-19)
(0.0285183 0.044966 -1.62875e-19)
(0.0590253 0.0432054 -5.09671e-19)
(0.0964296 0.0408362 6.66034e-19)
(0.140984 0.0381826 6.19296e-19)
(0.192903 0.0355485 -1.10308e-19)
(0.252307 0.0332167 -8.36399e-20)
(0.31914 0.0314484 -7.59315e-21)
(0.393092 0.0304921 1.26805e-19)
(0.473448 0.0305393 -2.30267e-19)
(0.559358 0.0320551 -2.69494e-19)
(0.648256 0.0345768 5.75569e-19)
(0.74297 0.041824 -1.86204e-19)
(0.820187 0.0583675 3.01895e-20)
(-0.00901471 0.0084955 5.71577e-20)
(-0.0210777 0.0209633 8.31013e-20)
(-0.0270528 0.030095 -2.75642e-19)
(-0.0268175 0.0362855 -7.62968e-19)
(-0.0202033 0.0400198 1.23903e-19)
(-0.00705717 0.0417554 3.75137e-19)
(0.0127884 0.0419202 1.71496e-19)
(0.0395349 0.0409181 7.36836e-19)
(0.0734164 0.039129 -4.63327e-19)
(0.114684 0.0369097 -6.03913e-19)
(0.163569 0.0345942 -1.10806e-19)
(0.220236 0.0324924 2.77561e-19)
(0.284703 0.0308875 6.10242e-20)
(0.356759 0.0300313 3.29988e-19)
(0.435881 0.0301506 -4.05714e-19)
(0.521086 0.0313836 8.21604e-20)
(0.611276 0.0341709 -1.042e-19)
(0.703589 0.0375795 -5.9414e-20)
(0.80123 0.0463355 1.30886e-19)
(0.88113 0.0514948 1.41691e-18)