/*--------------------------------*- C++ -*----------------------------------*\
  =========                 |
  \\      /  F ield         | OpenFOAM: The Open Source CFD Toolbox
   \\    /   O peration     | Website:  https://openfoam.org
    \\  /    A nd           | Version:  7
     \\/     M anipulation  |
\*---------------------------------------------------------------------------*/
FoamFile
{
    version     2.0;
    format      ascii;
    class       volScalarField;
    location    "15";
    object      p;
}
// * * * * * * * * * * * * * * * * * * * * * * * * * * * * * * * * * * * * * //

dimensions      [0 2 -2 0 0 0 0];

internalField   nonuniform List<scalar> 
8500
(
-0.340133
-0.3428
-0.341559
-0.345623
-0.344207
-0.342597
-0.348607
-0.347003
-0.345237
-0.35176
-0.349953
-0.348022
-0.345708
-0.355085
-0.35306
-0.350956
-0.348466
-0.345687
-0.358589
-0.356332
-0.354046
-0.351373
-0.348413
-0.345284
-0.362275
-0.359771
-0.357295
-0.354432
-0.351287
-0.34798
-0.344585
-0.366147
-0.363381
-0.360707
-0.35765
-0.354314
-0.350824
-0.347252
-0.343645
-0.370207
-0.367165
-0.364287
-0.361029
-0.357497
-0.353822
-0.350067
-0.346274
-0.342449
-0.374456
-0.371125
-0.368035
-0.364572
-0.360841
-0.356974
-0.35303
-0.349041
-0.345001
-0.34087
-0.378894
-0.375261
-0.371954
-0.368281
-0.364348
-0.360284
-0.356143
-0.351944
-0.34767
-0.343268
-0.338658
-0.383521
-0.379574
-0.376044
-0.372158
-0.368017
-0.363752
-0.359405
-0.354982
-0.350451
-0.345747
-0.34078
-0.33546
-0.32971
-0.388335
-0.384062
-0.380305
-0.376202
-0.37185
-0.367377
-0.362812
-0.358147
-0.353335
-0.348296
-0.342935
-0.33716
-0.330907
-0.32415
-0.39333
-0.388722
-0.384733
-0.380411
-0.375844
-0.371156
-0.366359
-0.361432
-0.356309
-0.3509
-0.345104
-0.338835
-0.332043
-0.324727
-0.316935
-0.398502
-0.393549
-0.389327
-0.384782
-0.379996
-0.375083
-0.37004
-0.364826
-0.359361
-0.353542
-0.347269
-0.340465
-0.333101
-0.325202
-0.316843
-0.30814
-0.299209
-0.403842
-0.398538
-0.39408
-0.389311
-0.384301
-0.379153
-0.373845
-0.368317
-0.362474
-0.356204
-0.34941
-0.342032
-0.334064
-0.325561
-0.316627
-0.307397
-0.298003
-0.288626
-0.409342
-0.40368
-0.398984
-0.39399
-0.38875
-0.383355
-0.377761
-0.371889
-0.365628
-0.358863
-0.351506
-0.343515
-0.334916
-0.325793
-0.316277
-0.306522
-0.296673
-0.286905
-0.277162
-0.268149
-0.414989
-0.408965
-0.404032
-0.398811
-0.393334
-0.387677
-0.381774
-0.375523
-0.368803
-0.361498
-0.353534
-0.344895
-0.335639
-0.325883
-0.315783
-0.30551
-0.295215
-0.285066
-0.275022
-0.265721
-0.42077
-0.414381
-0.409212
-0.403761
-0.39804
-0.392105
-0.385864
-0.379198
-0.371975
-0.364084
-0.355471
-0.346152
-0.336219
-0.325821
-0.315138
-0.304352
-0.293621
-0.283102
-0.272765
-0.263185
-0.426668
-0.419913
-0.41451
-0.408828
-0.402853
-0.39662
-0.390012
-0.38289
-0.375118
-0.366596
-0.357294
-0.347265
-0.336639
-0.325594
-0.314332
-0.303043
-0.291887
-0.281008
-0.270385
-0.260534
-0.432665
-0.425546
-0.41991
-0.413994
-0.407755
-0.401203
-0.394195
-0.386574
-0.378205
-0.369006
-0.358979
-0.348216
-0.336883
-0.325191
-0.313356
-0.301576
-0.290005
-0.278777
-0.267876
-0.257761
-0.438739
-0.431259
-0.425393
-0.419242
-0.412725
-0.40583
-0.398384
-0.39022
-0.381208
-0.371289
-0.360503
-0.348984
-0.336938
-0.3246
-0.312202
-0.299942
-0.28797
-0.276403
-0.265233
-0.254861
-0.444868
-0.437031
-0.43094
-0.424548
-0.417741
-0.410474
-0.402552
-0.393799
-0.384096
-0.373416
-0.361841
-0.349552
-0.336789
-0.323812
-0.310862
-0.298134
-0.285774
-0.27388
-0.26245
-0.251827
-0.451024
-0.442839
-0.436525
-0.429889
-0.422774
-0.415107
-0.406668
-0.397278
-0.386838
-0.375359
-0.362972
-0.3499
-0.336421
-0.322814
-0.309325
-0.296146
-0.283409
-0.271201
-0.259519
-0.248653
-0.457179
-0.448655
-0.442122
-0.435237
-0.427796
-0.419696
-0.410698
-0.400624
-0.389404
-0.377092
-0.363871
-0.350012
-0.335822
-0.321597
-0.307585
-0.293968
-0.28087
-0.268359
-0.256436
-0.245335
-0.463302
-0.45445
-0.447703
-0.440563
-0.432775
-0.424209
-0.414606
-0.403802
-0.391761
-0.378587
-0.364519
-0.34987
-0.334978
-0.32015
-0.305631
-0.291593
-0.278148
-0.265347
-0.253193
-0.241864
-0.469359
-0.460193
-0.453237
-0.445833
-0.437677
-0.428607
-0.418356
-0.406778
-0.393877
-0.379818
-0.364893
-0.349459
-0.333877
-0.318463
-0.303454
-0.289014
-0.275236
-0.262158
-0.249784
-0.238237
-0.475315
-0.46585
-0.458689
-0.451013
-0.442464
-0.432854
-0.421911
-0.409514
-0.395722
-0.380759
-0.364972
-0.348761
-0.332506
-0.316524
-0.301047
-0.286221
-0.272127
-0.258786
-0.246203
-0.234448
-0.481132
-0.471385
-0.464023
-0.456064
-0.447097
-0.436908
-0.42523
-0.411977
-0.397265
-0.381384
-0.364738
-0.347762
-0.330853
-0.314325
-0.298399
-0.283206
-0.268812
-0.255223
-0.242444
-0.23049
-0.48677
-0.476759
-0.4692
-0.460949
-0.451536
-0.440731
-0.428275
-0.414129
-0.398475
-0.38167
-0.364172
-0.346448
-0.328906
-0.311855
-0.295502
-0.279963
-0.265285
-0.251463
-0.2385
-0.226359
-0.492188
-0.481934
-0.474181
-0.465624
-0.455738
-0.444278
-0.431006
-0.415937
-0.399324
-0.381593
-0.363255
-0.344804
-0.326654
-0.309105
-0.292348
-0.276481
-0.261537
-0.247498
-0.234365
-0.22205
-0.497342
-0.486866
-0.478924
-0.470048
-0.45966
-0.447509
-0.433385
-0.417366
-0.399783
-0.381133
-0.361971
-0.342817
-0.324085
-0.306064
-0.288926
-0.272754
-0.257563
-0.243323
-0.230034
-0.217557
-0.502189
-0.491514
-0.483385
-0.474176
-0.463258
-0.45038
-0.435372
-0.418384
-0.399827
-0.380266
-0.360304
-0.340474
-0.321189
-0.302723
-0.28523
-0.268773
-0.253354
-0.238932
-0.225501
-0.212876
-0.506684
-0.495834
-0.48752
-0.477963
-0.466488
-0.45285
-0.43693
-0.418958
-0.399429
-0.378975
-0.358238
-0.337763
-0.317956
-0.299073
-0.28125
-0.264532
-0.248904
-0.234317
-0.220761
-0.208003
-0.51078
-0.49978
-0.491283
-0.481363
-0.469304
-0.454876
-0.438023
-0.419059
-0.398566
-0.377241
-0.355758
-0.334672
-0.314375
-0.295106
-0.276979
-0.260022
-0.244207
-0.229475
-0.215809
-0.202933
-0.514432
-0.503308
-0.49463
-0.484332
-0.471662
-0.456419
-0.438614
-0.418657
-0.397216
-0.375047
-0.352853
-0.33119
-0.310437
-0.290813
-0.272409
-0.255238
-0.239256
-0.224399
-0.21064
-0.197662
-0.517594
-0.506371
-0.497513
-0.486822
-0.473519
-0.457438
-0.438672
-0.417727
-0.395358
-0.372376
-0.349508
-0.327307
-0.306134
-0.286185
-0.267534
-0.250173
-0.234047
-0.219084
-0.20525
-0.192188
-0.52022
-0.508925
-0.499888
-0.488791
-0.474833
-0.457896
-0.438164
-0.416243
-0.392972
-0.369215
-0.345713
-0.323013
-0.301457
-0.281217
-0.262346
-0.24482
-0.228573
-0.213527
-0.199635
-0.186507
-0.522267
-0.510925
-0.50171
-0.490193
-0.475563
-0.457758
-0.437061
-0.414183
-0.390043
-0.36555
-0.341458
-0.3183
-0.296398
-0.2759
-0.256839
-0.239176
-0.222831
-0.207722
-0.193793
-0.180617
-0.523688
-0.512327
-0.502936
-0.490986
-0.475669
-0.45699
-0.435336
-0.411525
-0.386553
-0.36137
-0.336732
-0.313161
-0.290951
-0.27023
-0.251008
-0.233234
-0.216816
-0.201668
-0.18772
-0.174516
-0.524444
-0.513089
-0.503522
-0.49113
-0.475115
-0.455559
-0.432964
-0.408251
-0.38249
-0.356663
-0.331528
-0.307587
-0.28511
-0.264199
-0.244849
-0.226991
-0.210524
-0.19536
-0.181414
-0.168201
-0.524492
-0.51317
-0.503428
-0.490586
-0.473866
-0.453439
-0.429922
-0.404344
-0.377842
-0.351422
-0.325839
-0.301573
-0.278869
-0.257805
-0.238357
-0.220444
-0.203954
-0.188797
-0.174872
-0.161671
-0.523794
-0.51253
-0.502616
-0.489318
-0.47189
-0.450602
-0.426193
-0.399791
-0.372597
-0.345638
-0.319658
-0.295114
-0.272223
-0.251042
-0.231529
-0.213589
-0.197102
-0.181977
-0.168095
-0.154927
-0.522314
-0.511134
-0.501049
-0.487291
-0.469158
-0.447026
-0.421757
-0.394579
-0.366748
-0.339305
-0.312981
-0.288206
-0.265171
-0.243909
-0.224362
-0.206424
-0.189967
-0.174897
-0.161081
-0.14797
-0.520017
-0.508945
-0.498693
-0.484475
-0.465644
-0.442691
-0.4166
-0.388698
-0.360289
-0.332419
-0.305805
-0.280846
-0.257708
-0.236402
-0.216854
-0.198948
-0.182547
-0.167559
-0.153833
-0.140802
-0.516873
-0.505934
-0.495518
-0.480842
-0.461326
-0.437578
-0.410712
-0.382142
-0.353213
-0.324977
-0.298125
-0.273031
-0.249833
-0.228521
-0.209006
-0.191161
-0.174842
-0.15996
-0.146347
-0.133408
-0.512853
-0.50207
-0.491496
-0.476367
-0.456182
-0.431675
-0.404082
-0.374903
-0.345519
-0.316976
-0.289943
-0.264763
-0.241547
-0.220265
-0.200816
-0.183062
-0.166853
-0.152102
-0.138614
-0.125743
-0.507933
-0.497328
-0.486602
-0.471029
-0.450198
-0.42497
-0.396705
-0.366981
-0.337205
-0.308417
-0.281258
-0.256039
-0.232848
-0.211636
-0.192286
-0.174654
-0.158583
-0.143989
-0.130633
-0.117801
-0.50209
-0.491686
-0.480815
-0.46481
-0.443359
-0.417454
-0.388576
-0.358372
-0.328272
-0.299301
-0.272071
-0.246864
-0.223741
-0.202635
-0.183419
-0.165938
-0.150034
-0.135622
-0.122427
-0.109799
-0.495307
-0.485125
-0.474118
-0.457697
-0.435657
-0.409125
-0.379694
-0.34908
-0.318723
-0.289631
-0.262386
-0.237238
-0.214226
-0.193265
-0.174216
-0.156918
-0.141209
-0.127005
-0.113993
-0.101595
-0.48757
-0.47763
-0.466497
-0.449678
-0.427085
-0.399978
-0.370062
-0.339106
-0.308561
-0.279411
-0.252206
-0.227167
-0.204308
-0.183529
-0.164682
-0.147598
-0.132112
-0.118141
-0.10534
-0.0931782
-0.478866
-0.469188
-0.457941
-0.440747
-0.417641
-0.390017
-0.359683
-0.328457
-0.297792
-0.268647
-0.241538
-0.216656
-0.193993
-0.173434
-0.154821
-0.137982
-0.122748
-0.109035
-0.0964689
-0.0845549
-0.46919
-0.459793
-0.448445
-0.430901
-0.407326
-0.379245
-0.348563
-0.317141
-0.286425
-0.257347
-0.230388
-0.205711
-0.183285
-0.162984
-0.14464
-0.128075
-0.113121
-0.0996925
-0.0873837
-0.0757335
-0.458539
-0.44944
-0.438006
-0.42014
-0.396144
-0.367668
-0.336712
-0.305167
-0.274469
-0.24552
-0.218765
-0.19434
-0.172194
-0.152187
-0.134145
-0.117885
-0.103237
-0.090119
-0.0780888
-0.0667214
-0.446911
-0.438129
-0.426624
-0.408469
-0.384101
-0.355299
-0.324141
-0.292546
-0.261935
-0.233175
-0.206679
-0.182552
-0.160727
-0.14105
-0.123344
-0.107418
-0.0931042
-0.0803207
-0.0685901
-0.0575256
-0.434313
-0.425864
-0.414306
-0.395895
-0.37121
-0.342148
-0.310863
-0.279292
-0.248836
-0.220326
-0.19414
-0.170358
-0.148893
-0.129584
-0.112245
-0.096683
-0.0827299
-0.0703051
-0.0588946
-0.0481535
-0.420751
-0.412651
-0.401059
-0.382429
-0.357483
-0.328231
-0.296895
-0.265421
-0.235186
-0.206985
-0.18116
-0.157768
-0.136704
-0.117798
-0.100858
-0.0856886
-0.0721226
-0.0600801
-0.0490101
-0.0386127
-0.406238
-0.398502
-0.386896
-0.368087
-0.342938
-0.313567
-0.282254
-0.25095
-0.221001
-0.193167
-0.167754
-0.144795
-0.124171
-0.105703
-0.0891934
-0.074445
-0.0612918
-0.0496547
-0.0389451
-0.0289114
-0.390789
-0.383431
-0.371833
-0.352885
-0.327592
-0.298174
-0.266961
-0.235901
-0.206297
-0.178887
-0.153936
-0.131454
-0.111308
-0.0933107
-0.0772628
-0.0629629
-0.0502479
-0.0390385
-0.0287089
-0.0190586
-0.374423
-0.367456
-0.35589
-0.336846
-0.31147
-0.282077
-0.251038
-0.220286
-0.191099
-0.164164
-0.139722
-0.117758
-0.0981273
-0.080635
-0.0650784
-0.0512541
-0.0390018
-0.028242
-0.0183116
-0.00906385
-0.357162
-0.3506
-0.339087
-0.319992
-0.294597
-0.265304
-0.234504
-0.204133
-0.175422
-0.149017
-0.12513
-0.103725
-0.0846446
-0.0676896
-0.0526533
-0.039331
-0.0275656
-0.0172764
-0.00776395
0.0010622
-0.339031
-0.332886
-0.321452
-0.30235
-0.277001
-0.247885
-0.217381
-0.187464
-0.159288
-0.133465
-0.110177
-0.0893696
-0.0708755
-0.0544891
-0.0400015
-0.0272069
-0.0159518
-0.00615388
0.0029223
0.0113079
-0.32006
-0.314342
-0.303012
-0.283952
-0.258711
-0.229822
-0.199721
-0.170307
-0.142722
-0.117529
-0.094883
-0.0747113
-0.0568366
-0.041049
-0.0271375
-0.0148957
-0.00417394
0.00511298
0.0137346
0.0216603
-0.300279
-0.295
-0.2838
-0.264831
-0.239753
-0.211171
-0.181532
-0.152688
-0.125747
-0.101232
-0.0792686
-0.0597684
-0.0425453
-0.0273856
-0.0140767
-0.00241195
0.00775407
0.0165108
0.0246597
-0.279722
-0.274894
-0.263851
-0.245024
-0.220158
-0.191961
-0.162847
-0.134634
-0.108389
-0.0845962
-0.0633549
-0.0445605
-0.0280197
-0.0135157
-0.000834735
0.0102293
0.0198176
0.0280255
-0.258426
-0.25406
-0.2432
-0.224545
-0.199985
-0.172227
-0.143699
-0.116174
-0.090675
-0.0676468
-0.0471642
-0.029108
-0.0132786
0.000543218
0.012572
0.0230127
0.0320015
-0.236429
-0.232539
-0.221887
-0.203453
-0.179255
-0.152001
-0.124121
-0.0973383
-0.0726321
-0.0504088
-0.0307195
-0.0134323
0.00165832
0.0147732
0.0261271
0.0359226
-0.213771
-0.210371
-0.199945
-0.181794
-0.158008
-0.131323
-0.104147
-0.0781588
-0.054289
-0.0329082
-0.0140449
0.00244484
0.0167711
0.0291558
0.0398136
0.0489434
-0.190486
-0.187611
-0.177428
-0.159603
-0.136287
-0.110229
-0.083813
-0.0586675
-0.0356753
-0.0151721
0.00283515
0.0185008
0.0320391
0.0436725
0.0536148
-0.166626
-0.164305
-0.154384
-0.136925
-0.114133
-0.0887593
-0.0631554
-0.0388976
-0.0168213
0.00277191
0.0198951
0.0347123
0.047441
0.058304
-0.142287
-0.140461
-0.130856
-0.113806
-0.0915906
-0.0669546
-0.0422114
-0.0188833
0.00224182
0.0208953
0.0371089
0.0510555
0.0629552
0.0730309
-0.117494
-0.116144
-0.106891
-0.0902926
-0.0687037
-0.044856
-0.021019
0.00134077
0.0214823
0.0391689
0.0544498
0.0675059
0.0785594
-0.0922787
-0.0914199
-0.0825393
-0.0664328
-0.0455181
-0.0225059
0.00038306
0.0217391
0.0408678
0.057563
0.0718906
0.0840384
0.0942306
-0.0666967
-0.0663401
-0.0578521
-0.0422757
-0.0220801
5.29277e-05
0.0219554
0.0422756
0.0603652
0.0760473
0.0894034
0.100627
-0.0408024
-0.0409552
-0.0328801
-0.0178708
0.00156375
0.0227771
0.0436581
0.0629138
0.0799411
0.0945912
0.10696
-0.0146523
-0.0153191
-0.00767677
0.00673115
0.0253657
0.0456227
0.0654509
0.0836168
0.0995617
0.113163
0.124531
0.0116973
0.0105137
0.0177043
0.0314789
0.0492779
0.0685455
0.0872932
0.104347
0.119193
0.131732
0.0381901
0.0364881
0.0432091
0.0563211
0.0732521
0.0915009
0.109144
0.125068
0.1388
0.150267
0.0647691
0.0625483
0.0687834
0.0812058
0.0972401
0.114444
0.130963
0.145742
0.158349
0.168735
0.0913771
0.0886384
0.0943725
0.106081
0.121194
0.137332
0.152709
0.166331
0.177806
0.117957
0.114702
0.119922
0.130896
0.145064
0.160118
0.174341
0.186798
0.197135
0.144452
0.140683
0.145377
0.155598
0.168804
0.182759
0.195818
0.207105
0.170804
0.166526
0.170684
0.180136
0.192365
0.20521
0.217101
0.227216
0.196957
0.192174
0.195788
0.204459
0.2157
0.227429
0.238149
0.222855
0.217572
0.220636
0.228516
0.238762
0.249372
0.258922
0.248442
0.242666
0.245176
0.252258
0.261505
0.270997
0.279382
0.273663
0.267401
0.269355
0.275636
0.283883
0.292261
0.298464
0.291725
0.293122
0.298602
0.305852
0.313124
0.322792
0.315585
0.316427
0.321108
0.327368
0.333545
0.346594
0.33893
0.339221
0.343108
0.348388
0.369821
0.361709
0.361455
0.364557
0.368871
0.392421
0.383875
0.383083
0.38541
0.388775
0.414348
0.405381
0.404059
0.405627
0.408061
0.435553
0.426179
0.42434
0.425164
0.455994
0.446226
0.443884
0.443983
0.475625
0.465479
0.462648
0.462046
0.494405
0.483898
0.480595
0.479315
0.512295
0.501444
0.497687
0.495756
0.529256
0.518079
0.513888
0.545254
0.533768
0.529165
0.560253
0.548478
0.543486
0.574223
0.562179
0.556823
0.587135
0.574842
0.569146
0.59896
0.586439
0.580431
0.609675
0.596947
0.590655
0.619256
0.606343
0.599796
0.627684
0.614608
0.607836
0.634941
0.621725
0.641012
0.627679
0.645884
0.632457
0.649547
0.636049
0.651993
0.638448
0.653218
0.639648
0.653218
0.639648
0.651993
0.638448
0.649547
0.636049
0.645884
0.632457
0.641012
0.627679
0.634941
0.621725
0.627684
0.614608
0.607836
0.619256
0.606343
0.599796
0.609675
0.596947
0.590655
0.59896
0.586439
0.580431
0.587134
0.574841
0.569146
0.574223
0.562179
0.556822
0.560253
0.548478
0.543486
0.545253
0.533768
0.529165
0.529256
0.518078
0.513888
0.512294
0.501443
0.497686
0.495756
0.494405
0.483898
0.480595
0.479315
0.475624
0.465479
0.462648
0.462046
0.455993
0.446226
0.443883
0.443983
0.435553
0.426178
0.42434
0.425164
0.414347
0.40538
0.404059
0.405626
0.408061
0.392421
0.383875
0.383083
0.38541
0.388775
0.36982
0.361709
0.361455
0.364556
0.368871
0.346594
0.338929
0.339221
0.343108
0.348388
0.353485
0.322792
0.315585
0.316427
0.321108
0.327368
0.333545
0.298464
0.291725
0.293122
0.298602
0.305852
0.313124
0.273663
0.267401
0.269355
0.275636
0.283883
0.292261
0.248442
0.242666
0.245176
0.252258
0.261505
0.270997
0.279382
0.222855
0.217572
0.220636
0.228516
0.238762
0.249372
0.258922
0.196957
0.192173
0.195788
0.204458
0.2157
0.227429
0.238149
0.170804
0.166525
0.170684
0.180136
0.192365
0.20521
0.217101
0.227216
0.144452
0.140683
0.145377
0.155598
0.168804
0.182759
0.195818
0.207105
0.117957
0.114702
0.119922
0.130896
0.145064
0.160118
0.174341
0.186798
0.197135
0.0913771
0.0886383
0.0943724
0.106081
0.121194
0.137331
0.152709
0.166331
0.177806
0.064769
0.0625483
0.0687833
0.0812058
0.0972401
0.114444
0.130963
0.145742
0.158349
0.168735
0.0381901
0.0364881
0.0432091
0.056321
0.0732521
0.0915009
0.109144
0.125068
0.1388
0.150267
0.0116973
0.0105137
0.0177043
0.0314789
0.0492779
0.0685455
0.0872932
0.104348
0.119193
0.131733
-0.0146523
-0.015319
-0.00767672
0.00673121
0.0253658
0.0456228
0.0654509
0.0836169
0.0995618
0.113163
0.124531
-0.0408024
-0.0409551
-0.03288
-0.0178707
0.00156384
0.0227772
0.0436582
0.0629139
0.0799413
0.0945913
0.10696
0.117247
-0.0666966
-0.06634
-0.0578519
-0.0422756
-0.0220799
5.30541e-05
0.0219555
0.0422757
0.0603654
0.0760475
0.0894035
0.100628
-0.0922785
-0.0914197
-0.0825392
-0.0664326
-0.0455179
-0.0225057
0.000383223
0.0217392
0.040868
0.0575632
0.0718908
0.0840386
0.0942308
-0.117494
-0.116144
-0.106891
-0.0902924
-0.0687035
-0.0448558
-0.0210188
0.00134097
0.0214825
0.0391691
0.05445
0.0675062
0.0785596
-0.142286
-0.140461
-0.130856
-0.113806
-0.0915904
-0.0669543
-0.0422112
-0.018883
0.00224206
0.0208955
0.0371091
0.0510558
0.0629555
0.0730311
-0.166625
-0.164304
-0.154384
-0.136925
-0.114133
-0.088759
-0.0631552
-0.0388973
-0.0168211
0.00277217
0.0198954
0.0347126
0.0474413
0.0583042
-0.190486
-0.18761
-0.177428
-0.159603
-0.136287
-0.110228
-0.0838127
-0.0586672
-0.035675
-0.0151718
0.00283544
0.0185011
0.0320394
0.0436727
0.0536151
-0.21377
-0.210371
-0.199945
-0.181793
-0.158008
-0.131322
-0.104147
-0.0781585
-0.0542887
-0.0329079
-0.0140445
0.00244516
0.0167714
0.0291562
0.0398139
0.0489437
-0.236429
-0.232538
-0.221887
-0.203452
-0.179254
-0.152001
-0.12412
-0.0973379
-0.0726317
-0.0504084
-0.0307192
-0.013432
0.00165866
0.0147735
0.0261274
0.035923
0.0442912
-0.258426
-0.25406
-0.2432
-0.224545
-0.199984
-0.172226
-0.143699
-0.116173
-0.0906746
-0.0676464
-0.0471638
-0.0291077
-0.0132783
0.000543578
0.0125724
0.0230131
0.0320019
-0.279722
-0.274893
-0.263851
-0.245024
-0.220157
-0.191961
-0.162847
-0.134633
-0.108389
-0.0845958
-0.0633545
-0.0445601
-0.0280193
-0.0135153
-0.00083436
0.0102297
0.0198179
0.0280259
-0.300278
-0.295
-0.2838
-0.26483
-0.239753
-0.21117
-0.181532
-0.152687
-0.125747
-0.101231
-0.0792681
-0.0597679
-0.0425448
-0.0273851
-0.0140763
-0.00241156
0.00775444
0.0165111
0.0246601
-0.320059
-0.314341
-0.303012
-0.283951
-0.25871
-0.229822
-0.19972
-0.170307
-0.142721
-0.117528
-0.0948826
-0.0747108
-0.0568362
-0.0410485
-0.0271371
-0.0148953
-0.00417354
0.00511335
0.013735
0.0216606
-0.33903
-0.332885
-0.321451
-0.30235
-0.277001
-0.247885
-0.21738
-0.187463
-0.159288
-0.133464
-0.110176
-0.0893691
-0.0708751
-0.0544886
-0.040001
-0.0272065
-0.0159514
-0.00615348
0.00292268
0.0113083
-0.357161
-0.350599
-0.339087
-0.319991
-0.294596
-0.265303
-0.234503
-0.204132
-0.175421
-0.149016
-0.125129
-0.103724
-0.0846441
-0.0676891
-0.0526528
-0.0393306
-0.0275652
-0.017276
-0.00776355
0.00106257
-0.374422
-0.367456
-0.355889
-0.336845
-0.311469
-0.282077
-0.251037
-0.220285
-0.191098
-0.164164
-0.139722
-0.117758
-0.0981268
-0.0806345
-0.0650779
-0.0512536
-0.0390014
-0.0282415
-0.0183112
-0.00906346
-0.390788
-0.38343
-0.371833
-0.352884
-0.327592
-0.298174
-0.26696
-0.2359
-0.206296
-0.178886
-0.153936
-0.131453
-0.111307
-0.0933101
-0.0772622
-0.0629624
-0.0502474
-0.039038
-0.0287085
-0.0190581
-0.406237
-0.398501
-0.386895
-0.368086
-0.342937
-0.313566
-0.282253
-0.25095
-0.221
-0.193166
-0.167754
-0.144795
-0.124171
-0.105702
-0.0891928
-0.0744444
-0.0612913
-0.0496542
-0.0389446
-0.028911
-0.42075
-0.41265
-0.401058
-0.382428
-0.357482
-0.32823
-0.296894
-0.26542
-0.235185
-0.206984
-0.18116
-0.157767
-0.136703
-0.117797
-0.100857
-0.085688
-0.072122
-0.0600796
-0.0490096
-0.0386122
-0.434311
-0.425863
-0.414305
-0.395894
-0.371209
-0.342147
-0.310862
-0.279291
-0.248835
-0.220325
-0.194139
-0.170357
-0.148892
-0.129583
-0.112244
-0.0966824
-0.0827293
-0.0703045
-0.0588941
-0.048153
-0.44691
-0.438128
-0.426623
-0.408468
-0.3841
-0.355298
-0.32414
-0.292545
-0.261934
-0.233174
-0.206678
-0.182551
-0.160726
-0.14105
-0.123343
-0.107418
-0.0931036
-0.0803202
-0.0685895
-0.0575251
-0.458537
-0.449439
-0.438004
-0.420139
-0.396142
-0.367667
-0.336711
-0.305166
-0.274468
-0.245519
-0.218765
-0.194339
-0.172193
-0.152186
-0.134145
-0.117884
-0.103236
-0.0901184
-0.0780882
-0.0667209
-0.469189
-0.459792
-0.448444
-0.4309
-0.407325
-0.379243
-0.348562
-0.31714
-0.286424
-0.257346
-0.230387
-0.20571
-0.183284
-0.162983
-0.14464
-0.128075
-0.11312
-0.0996919
-0.0873831
-0.075733
-0.478865
-0.469187
-0.45794
-0.440746
-0.41764
-0.390016
-0.359682
-0.328456
-0.297791
-0.268646
-0.241537
-0.216655
-0.193992
-0.173433
-0.154821
-0.137981
-0.122747
-0.109034
-0.0964683
-0.0845544
-0.487568
-0.477628
-0.466495
-0.449676
-0.427084
-0.399977
-0.370061
-0.339105
-0.30856
-0.27941
-0.252205
-0.227167
-0.204307
-0.183528
-0.164681
-0.147597
-0.132112
-0.11814
-0.105339
-0.0931776
-0.495306
-0.485123
-0.474117
-0.457695
-0.435655
-0.409123
-0.379693
-0.349078
-0.318722
-0.28963
-0.262385
-0.237237
-0.214225
-0.193264
-0.174215
-0.156917
-0.141208
-0.127004
-0.113992
-0.101595
-0.502089
-0.491684
-0.480814
-0.464808
-0.443357
-0.417453
-0.388574
-0.358371
-0.328271
-0.2993
-0.27207
-0.246863
-0.22374
-0.202634
-0.183418
-0.165937
-0.150033
-0.135621
-0.122426
-0.109799
-0.507931
-0.497326
-0.4866
-0.471027
-0.450196
-0.424968
-0.396703
-0.366979
-0.337204
-0.308416
-0.281257
-0.256038
-0.232847
-0.211635
-0.192285
-0.174653
-0.158582
-0.143989
-0.130632
-0.117801
-0.512852
-0.502068
-0.491494
-0.476365
-0.45618
-0.431673
-0.404081
-0.374902
-0.345518
-0.316975
-0.289942
-0.264761
-0.241545
-0.220264
-0.200815
-0.183061
-0.166852
-0.152102
-0.138614
-0.125743
-0.516871
-0.505932
-0.495517
-0.48084
-0.461324
-0.437577
-0.41071
-0.38214
-0.353212
-0.324976
-0.298124
-0.27303
-0.249832
-0.22852
-0.209005
-0.19116
-0.174841
-0.159959
-0.146347
-0.133407
-0.520015
-0.508943
-0.498691
-0.484473
-0.465643
-0.442689
-0.416599
-0.388697
-0.360287
-0.332418
-0.305803
-0.280844
-0.257707
-0.236401
-0.216853
-0.198947
-0.182546
-0.167558
-0.153832
-0.140802
-0.522312
-0.511132
-0.501047
-0.487289
-0.469156
-0.447025
-0.421755
-0.394577
-0.366747
-0.339304
-0.31298
-0.288205
-0.265169
-0.243908
-0.224361
-0.206423
-0.189966
-0.174897
-0.16108
-0.147969
-0.523792
-0.512528
-0.502614
-0.489316
-0.471888
-0.450601
-0.426191
-0.399789
-0.372596
-0.345637
-0.319657
-0.295113
-0.272222
-0.251041
-0.231527
-0.213588
-0.197101
-0.181976
-0.168094
-0.154926
-0.52449
-0.513167
-0.503426
-0.490584
-0.473864
-0.453437
-0.429921
-0.404343
-0.37784
-0.35142
-0.325838
-0.301571
-0.278867
-0.257804
-0.238356
-0.220443
-0.203953
-0.188796
-0.174871
-0.161671
-0.524442
-0.513087
-0.50352
-0.491128
-0.475113
-0.455557
-0.432962
-0.408249
-0.382489
-0.356662
-0.331527
-0.307585
-0.285108
-0.264198
-0.244848
-0.22699
-0.210523
-0.195359
-0.181413
-0.1682
-0.523686
-0.512325
-0.502933
-0.490984
-0.475667
-0.456987
-0.435334
-0.411523
-0.386552
-0.361368
-0.336731
-0.313159
-0.29095
-0.270228
-0.251007
-0.233233
-0.216815
-0.201667
-0.187719
-0.174515
-0.522264
-0.510922
-0.501708
-0.490191
-0.47556
-0.457756
-0.437059
-0.414181
-0.390041
-0.365548
-0.341456
-0.318299
-0.296397
-0.275899
-0.256838
-0.239175
-0.22283
-0.207721
-0.193792
-0.180616
-0.520218
-0.508922
-0.499886
-0.488788
-0.474831
-0.457894
-0.438162
-0.416241
-0.39297
-0.369213
-0.345712
-0.323012
-0.301455
-0.281215
-0.262344
-0.244819
-0.228572
-0.213526
-0.199634
-0.186507
-0.517591
-0.506368
-0.497511
-0.48682
-0.473517
-0.457436
-0.43867
-0.417725
-0.395356
-0.372374
-0.349506
-0.327305
-0.306132
-0.286184
-0.267532
-0.250172
-0.234046
-0.219083
-0.205249
-0.192187
-0.514429
-0.503305
-0.494627
-0.484329
-0.47166
-0.456416
-0.438612
-0.418655
-0.397214
-0.375045
-0.352851
-0.331188
-0.310435
-0.290811
-0.272408
-0.255237
-0.239255
-0.224398
-0.210639
-0.197661
-0.510777
-0.499778
-0.491281
-0.481361
-0.469302
-0.454874
-0.438021
-0.419057
-0.398564
-0.377239
-0.355757
-0.33467
-0.314373
-0.295104
-0.276978
-0.260021
-0.244206
-0.229474
-0.215807
-0.202932
-0.506681
-0.495832
-0.487518
-0.47796
-0.466486
-0.452848
-0.436928
-0.418956
-0.399427
-0.378973
-0.358236
-0.337761
-0.317954
-0.299072
-0.281249
-0.26453
-0.248903
-0.234316
-0.22076
-0.208002
-0.502186
-0.491512
-0.483382
-0.474173
-0.463256
-0.450378
-0.43537
-0.418382
-0.399824
-0.380264
-0.360302
-0.340473
-0.321187
-0.302721
-0.285228
-0.268772
-0.253353
-0.238931
-0.2255
-0.212875
-0.497339
-0.486864
-0.478921
-0.470045
-0.459658
-0.447506
-0.433383
-0.417364
-0.399781
-0.38113
-0.361969
-0.342816
-0.324083
-0.306062
-0.288925
-0.272752
-0.257561
-0.243322
-0.230033
-0.217556
-0.492185
-0.481931
-0.474179
-0.465621
-0.455735
-0.444276
-0.431004
-0.415935
-0.399321
-0.381591
-0.363253
-0.344803
-0.326652
-0.309103
-0.292346
-0.276479
-0.261536
-0.247497
-0.234364
-0.222049
-0.486767
-0.476757
-0.469198
-0.460946
-0.451533
-0.440728
-0.428273
-0.414127
-0.398473
-0.381668
-0.36417
-0.346446
-0.328904
-0.311854
-0.295501
-0.279961
-0.265283
-0.251461
-0.238498
-0.226358
-0.481129
-0.471382
-0.46402
-0.456062
-0.447094
-0.436906
-0.425227
-0.411974
-0.397262
-0.381382
-0.364736
-0.34776
-0.330851
-0.314324
-0.298398
-0.283205
-0.268811
-0.255222
-0.242442
-0.230489
-0.475313
-0.465847
-0.458686
-0.45101
-0.442461
-0.432851
-0.421908
-0.409512
-0.39572
-0.380757
-0.36497
-0.348759
-0.332504
-0.316523
-0.301045
-0.286219
-0.272125
-0.258784
-0.246202
-0.234447
-0.469357
-0.46019
-0.453234
-0.44583
-0.437674
-0.428604
-0.418354
-0.406775
-0.393875
-0.379816
-0.36489
-0.349456
-0.333875
-0.318461
-0.303453
-0.289012
-0.275235
-0.262157
-0.249783
-0.238236
-0.463299
-0.454447
-0.447701
-0.44056
-0.432773
-0.424206
-0.414604
-0.4038
-0.391758
-0.378585
-0.364517
-0.349868
-0.334976
-0.320148
-0.305629
-0.291592
-0.278147
-0.265345
-0.253192
-0.241863
-0.457176
-0.448652
-0.442119
-0.435235
-0.427793
-0.419694
-0.410695
-0.400622
-0.389401
-0.37709
-0.363869
-0.35001
-0.33582
-0.321595
-0.307583
-0.293966
-0.280868
-0.268357
-0.256435
-0.245333
-0.451021
-0.442836
-0.436522
-0.429886
-0.422771
-0.415104
-0.406665
-0.397276
-0.386836
-0.375357
-0.362969
-0.349898
-0.336419
-0.322812
-0.309324
-0.296144
-0.283408
-0.271199
-0.259518
-0.248652
-0.444865
-0.437029
-0.430937
-0.424545
-0.417738
-0.410472
-0.40255
-0.393797
-0.384093
-0.373413
-0.361839
-0.349549
-0.336786
-0.32381
-0.31086
-0.298133
-0.285772
-0.273878
-0.262448
-0.251825
-0.438737
-0.431256
-0.425391
-0.419239
-0.412723
-0.405827
-0.398381
-0.390218
-0.381205
-0.371286
-0.3605
-0.348982
-0.336936
-0.324598
-0.3122
-0.29994
-0.287968
-0.276401
-0.265232
-0.254859
-0.432662
-0.425543
-0.419907
-0.413992
-0.407752
-0.401201
-0.394192
-0.386571
-0.378203
-0.369004
-0.358977
-0.348214
-0.336881
-0.325189
-0.313354
-0.301574
-0.290004
-0.278775
-0.267875
-0.257759
-0.426665
-0.41991
-0.414507
-0.408825
-0.40285
-0.396618
-0.39001
-0.382888
-0.375115
-0.366593
-0.357292
-0.347263
-0.336636
-0.325592
-0.31433
-0.303041
-0.291885
-0.281006
-0.270383
-0.260532
-0.420767
-0.414378
-0.409209
-0.403758
-0.398037
-0.392102
-0.385862
-0.379195
-0.371972
-0.364082
-0.355468
-0.34615
-0.336217
-0.325819
-0.315136
-0.30435
-0.293619
-0.2831
-0.272763
-0.263183
-0.414986
-0.408962
-0.40403
-0.398808
-0.393331
-0.387674
-0.381771
-0.37552
-0.3688
-0.361496
-0.353531
-0.344893
-0.335637
-0.325881
-0.315781
-0.305508
-0.295213
-0.285064
-0.27502
-0.26572
-0.409339
-0.403677
-0.398982
-0.393987
-0.388747
-0.383352
-0.377759
-0.371886
-0.365625
-0.358861
-0.351503
-0.343513
-0.334913
-0.32579
-0.316274
-0.30652
-0.296671
-0.286903
-0.27716
-0.268147
-0.403839
-0.398535
-0.394077
-0.389308
-0.384298
-0.37915
-0.373842
-0.368314
-0.362471
-0.356201
-0.349407
-0.342029
-0.334062
-0.325559
-0.316625
-0.307394
-0.298
-0.288624
-0.398499
-0.393546
-0.389324
-0.384779
-0.379994
-0.375081
-0.370038
-0.364823
-0.359358
-0.35354
-0.347266
-0.340462
-0.333098
-0.3252
-0.316841
-0.308138
-0.299206
-0.393327
-0.388719
-0.384731
-0.380408
-0.375842
-0.371153
-0.366357
-0.361429
-0.356307
-0.350897
-0.345101
-0.338832
-0.33204
-0.324725
-0.316933
-0.388332
-0.384059
-0.380302
-0.376199
-0.371847
-0.367374
-0.362809
-0.358144
-0.353332
-0.348293
-0.342932
-0.337158
-0.330904
-0.324148
-0.383519
-0.379572
-0.376041
-0.372155
-0.368014
-0.36375
-0.359402
-0.354979
-0.350449
-0.345744
-0.340778
-0.335457
-0.378891
-0.375259
-0.371951
-0.368278
-0.364345
-0.360282
-0.356141
-0.351942
-0.347667
-0.343265
-0.338655
-0.374453
-0.371122
-0.368032
-0.364569
-0.360839
-0.356972
-0.353028
-0.349038
-0.344998
-0.340868
-0.370204
-0.367162
-0.364284
-0.361026
-0.357495
-0.353819
-0.350064
-0.346271
-0.342446
-0.366144
-0.363378
-0.360705
-0.357647
-0.354311
-0.350821
-0.34725
-0.343642
-0.362272
-0.359768
-0.357292
-0.35443
-0.351284
-0.347977
-0.344582
-0.358586
-0.356329
-0.354043
-0.35137
-0.34841
-0.345281
-0.355083
-0.353058
-0.350953
-0.348463
-0.345684
-0.351757
-0.34995
-0.348019
-0.345705
-0.348605
-0.347
-0.345234
-0.34562
-0.344204
-0.342797
-0.341556
-0.34013
-0.203267
-0.207922
-0.212409
-0.216731
-0.220891
-0.224894
-0.228745
-0.232446
-0.236003
-0.239419
-0.242699
-0.245846
-0.248864
-0.251756
-0.254525
-0.257174
-0.196049
-0.200645
-0.205088
-0.209382
-0.21353
-0.217535
-0.221401
-0.225132
-0.22873
-0.2322
-0.235546
-0.238769
-0.241874
-0.244864
-0.247742
-0.250509
-0.189155
-0.193675
-0.198059
-0.20231
-0.20643
-0.210423
-0.214291
-0.218038
-0.221667
-0.225181
-0.228583
-0.231876
-0.235064
-0.23815
-0.241137
-0.244028
-0.182569
-0.187012
-0.191333
-0.195536
-0.199622