/*--------------------------------*- C++ -*----------------------------------*\
  =========                 |
  \\      /  F ield         | OpenFOAM: The Open Source CFD Toolbox
   \\    /   O peration     | Website:  https://openfoam.org
    \\  /    A nd           | Version:  7
     \\/     M anipulation  |
\*---------------------------------------------------------------------------*/
FoamFile
{
    version     2.0;
    format      ascii;
    class       volScalarField;
    location    "55";
    object      p;
}
// * * * * * * * * * * * * * * * * * * * * * * * * * * * * * * * * * * * * * //

dimensions      [0 2 -2 0 0 0 0];

internalField   nonuniform List<scalar> 
8500
(
-0.21457
-0.217193
-0.215971
-0.219968
-0.218575
-0.216994
-0.2229
-0.221324
-0.219589
-0.225998
-0.224223
-0.222326
-0.220052
-0.229266
-0.227278
-0.22521
-0.222761
-0.220028
-0.232709
-0.230493
-0.228246
-0.225617
-0.222704
-0.219625
-0.236333
-0.233874
-0.23144
-0.228623
-0.225526
-0.222269
-0.218927
-0.240139
-0.237424
-0.234795
-0.231785
-0.228498
-0.22506
-0.221541
-0.21799
-0.244132
-0.241146
-0.238314
-0.235106
-0.231626
-0.228002
-0.224301
-0.220565
-0.216802
-0.248313
-0.245041
-0.242001
-0.238588
-0.234911
-0.231097
-0.227209
-0.223278
-0.219303
-0.215247
-0.252681
-0.249112
-0.245856
-0.242236
-0.238357
-0.234348
-0.230264
-0.226127
-0.221922
-0.2176
-0.213085
-0.257237
-0.253357
-0.24988
-0.246049
-0.241964
-0.237756
-0.233467
-0.229109
-0.224653
-0.220036
-0.215174
-0.209976
-0.204366
-0.261978
-0.257776
-0.254074
-0.250027
-0.245733
-0.241318
-0.236815
-0.232219
-0.227488
-0.222545
-0.217299
-0.211659
-0.205559
-0.198969
-0.266899
-0.262366
-0.258434
-0.254169
-0.249662
-0.245034
-0.240303
-0.235449
-0.230415
-0.225112
-0.219443
-0.213321
-0.206696
-0.199559
-0.191953
-0.271997
-0.267122
-0.262958
-0.258473
-0.253748
-0.248898
-0.243924
-0.23879
-0.233422
-0.22772
-0.221587
-0.214945
-0.20776
-0.200053
-0.19189
-0.183381
-0.174636
-0.277263
-0.272039
-0.267641
-0.262933
-0.257985
-0.252903
-0.24767
-0.242229
-0.236492
-0.230352
-0.223712
-0.216509
-0.208735
-0.200436
-0.191707
-0.182679
-0.173479
-0.164284
-0.282688
-0.277109
-0.272475
-0.267543
-0.262367
-0.257041
-0.251528
-0.245751
-0.239608
-0.232986
-0.225797
-0.217996
-0.209603
-0.200695
-0.191394
-0.18185
-0.172201
-0.16262
-0.153052
-0.144199
-0.288261
-0.282322
-0.277453
-0.272294
-0.266884
-0.261301
-0.255484
-0.249338
-0.242748
-0.235601
-0.227819
-0.219385
-0.210348
-0.200818
-0.190942
-0.180885
-0.170796
-0.16084
-0.150977
-0.141842
-0.293969
-0.287667
-0.282562
-0.277175
-0.271523
-0.265667
-0.25952
-0.25297
-0.24589
-0.238171
-0.229756
-0.220656
-0.210954
-0.200792
-0.190341
-0.179778
-0.169258
-0.158937
-0.148787
-0.139378
-0.299795
-0.293129
-0.28779
-0.282174
-0.276271
-0.270123
-0.263617
-0.256623
-0.249008
-0.240673
-0.231585
-0.221789
-0.211405
-0.200605
-0.189582
-0.178522
-0.167582
-0.156906
-0.146474
-0.136799
-0.305722
-0.298693
-0.293122
-0.287274
-0.28111
-0.274648
-0.267752
-0.260272
-0.252075
-0.243079
-0.233281
-0.222764
-0.211685
-0.200246
-0.188656
-0.17711
-0.16576
-0.154739
-0.144034
-0.1341
-0.311728
-0.304339
-0.298538
-0.292456
-0.28602
-0.279221
-0.271898
-0.263888
-0.255064
-0.245364
-0.234821
-0.223562
-0.211779
-0.199702
-0.187555
-0.175533
-0.163786
-0.15243
-0.141461
-0.131274
-0.317791
-0.310046
-0.30402
-0.2977
-0.290977
-0.283816
-0.276028
-0.267443
-0.257944
-0.247499
-0.236183
-0.224164
-0.211674
-0.198964
-0.18627
-0.173785
-0.161652
-0.149974
-0.138747
-0.128315
-0.323885
-0.315792
-0.309544
-0.302981
-0.295956
-0.288403
-0.28011
-0.270904
-0.260685
-0.249457
-0.237341
-0.224551
-0.211353
-0.19802
-0.184791
-0.171857
-0.159352
-0.147362
-0.135888
-0.125216
-0.329981
-0.321549
-0.315083
-0.308274
-0.300928
-0.292952
-0.284113
-0.274239
-0.263255
-0.25121
-0.238274
-0.224707
-0.210805
-0.196858
-0.18311
-0.169742
-0.156878
-0.144588
-0.132876
-0.121972
-0.33605
-0.32729
-0.32061
-0.313548
-0.305862
-0.297429
-0.288
-0.277412
-0.265624
-0.252732
-0.23896
-0.224613
-0.210016
-0.19547
-0.181218
-0.167432
-0.154223
-0.141646
-0.129704
-0.118577
-0.342059
-0.332983
-0.326094
-0.318771
-0.310724
-0.301799
-0.291737
-0.28039
-0.267759
-0.253996
-0.239378
-0.224253
-0.208972
-0.193843
-0.179105
-0.164918
-0.151379
-0.138527
-0.126368
-0.115025
-0.347971
-0.338595
-0.331501
-0.32391
-0.315477
-0.306024
-0.295285
-0.283137
-0.269629
-0.254975
-0.239506
-0.223611
-0.207661
-0.191968
-0.176763
-0.162192
-0.148339
-0.135225
-0.122859
-0.111311
-0.35375
-0.34409
-0.336796
-0.328927
-0.320084
-0.310065
-0.298605
-0.285616
-0.271204
-0.255644
-0.239326
-0.222672
-0.206071
-0.189835
-0.174182
-0.159247
-0.145094
-0.131734
-0.119172
-0.107428
-0.359356
-0.349431
-0.341941
-0.333783
-0.324503
-0.31388
-0.301659
-0.287793
-0.272453
-0.25598
-0.238818
-0.221421
-0.20419
-0.187433
-0.171355
-0.156072
-0.141638
-0.128046
-0.115301
-0.103371
-0.36475
-0.354579
-0.346896
-0.338437
-0.328694
-0.31743
-0.304407
-0.289634
-0.273347
-0.255959
-0.237963
-0.219843
-0.202006
-0.184752
-0.16827
-0.152662
-0.137962
-0.124154
-0.11124
-0.0991365
-0.369887
-0.359492
-0.35162
-0.342847
-0.332612
-0.32067
-0.306811
-0.291102
-0.273859
-0.255559
-0.236746
-0.217926
-0.199509
-0.181783
-0.164921
-0.149007
-0.13406
-0.120052
-0.106982
-0.0947179
-0.374724
-0.364128
-0.35607
-0.346969
-0.336215
-0.32356
-0.308831
-0.292167
-0.27396
-0.254759
-0.235149
-0.215655
-0.196686
-0.178516
-0.161299
-0.1451
-0.129925
-0.115734
-0.102523
-0.0901109
-0.379218
-0.368444
-0.360202
-0.35076
-0.339458
-0.326057
-0.310431
-0.292796
-0.273627
-0.253538
-0.233157
-0.21302
-0.193529
-0.174942
-0.157394
-0.140933
-0.125549
-0.111193
-0.0978562
-0.0853111
-0.383321
-0.372394
-0.363971
-0.354172
-0.342296
-0.328119
-0.311573
-0.292958
-0.272834
-0.25188
-0.230755
-0.210007
-0.190026
-0.171052
-0.153199
-0.1365
-0.120927
-0.106425
-0.0929776
-0.0803144
-0.386989
-0.375934
-0.367331
-0.357161
-0.344686
-0.329706
-0.312222
-0.292625
-0.271559
-0.249765
-0.227931
-0.206606
-0.186169
-0.166837
-0.148707
-0.131792
-0.116052
-0.101423
-0.0878823
-0.0751171
-0.390176
-0.379019
-0.370238
-0.359681
-0.346584
-0.330778
-0.312345
-0.291769
-0.269782
-0.247178
-0.224671
-0.202807
-0.181948
-0.162291
-0.143911
-0.126805
-0.110919
-0.0961835
-0.0825662
-0.0697156
-0.392837
-0.381603
-0.372646
-0.361689
-0.347948
-0.331299
-0.31191
-0.290366
-0.267483
-0.244105
-0.220963
-0.198599
-0.177355
-0.157405
-0.138803
-0.121531
-0.105522
-0.0907012
-0.0770255
-0.064107
-0.394926
-0.383643
-0.37451
-0.36314
-0.348736
-0.331231
-0.310887
-0.288393
-0.264644
-0.240532
-0.216799
-0.193975
-0.172383
-0.152172
-0.133378
-0.115966
-0.0998573
-0.0849724
-0.0712568
-0.0582887
-0.396401
-0.385094
-0.375786
-0.363992
-0.34891
-0.330541
-0.309249
-0.285828
-0.26125
-0.236446
-0.212166
-0.188926
-0.167024
-0.146586
-0.12763
-0.110104
-0.0939201
-0.0789935
-0.0652575
-0.0522587
-0.397218
-0.385914
-0.376433
-0.364203
-0.348433
-0.329197
-0.306972
-0.282653
-0.257287
-0.231839
-0.207059
-0.183445
-0.161272
-0.140643
-0.121554
-0.103942
-0.0877071
-0.0727616
-0.0590249
-0.046015
-0.397337
-0.386062
-0.376409
-0.363735
-0.34727
-0.327171
-0.304031
-0.27885
-0.252742
-0.226699
-0.201468
-0.177526
-0.155122
-0.134336
-0.115147
-0.0974763
-0.0812152
-0.0662741
-0.052557
-0.0395557
-0.396719
-0.3855
-0.375676
-0.362552
-0.345388
-0.324436
-0.300408
-0.274405
-0.247605
-0.22102
-0.195388
-0.171164
-0.14857
-0.127662
-0.108404
-0.0907034
-0.0744422
-0.0595292
-0.0458529
-0.0328808
-0.395328
-0.384188
-0.374197
-0.36062
-0.342758
-0.320968
-0.296084
-0.269307
-0.241867
-0.214795
-0.188814
-0.164355
-0.141611
-0.120619
-0.101323
-0.0836213
-0.0673861
-0.052526
-0.0389146
-0.0259946
-0.393129
-0.382094
-0.371938
-0.357906
-0.339353
-0.316748
-0.291046
-0.263543
-0.235522
-0.208019
-0.181742
-0.157094
-0.134243
-0.113203
-0.0939024
-0.0762284
-0.0600455
-0.045264
-0.0317456
-0.0189021
-0.390091
-0.379186
-0.368868
-0.354383
-0.335151
-0.311757
-0.28528
-0.257108
-0.228564
-0.200689
-0.17417
-0.149382
-0.126465
-0.105414
-0.086141
-0.0685241
-0.0524195
-0.0377418
-0.0243407
-0.0115853
-0.386185
-0.375433
-0.364959
-0.350027
-0.330131
-0.30598
-0.278777
-0.249994
-0.22099
-0.192802
-0.166096
-0.141216
-0.118276
-0.0972503
-0.0780391
-0.0605088
-0.0445094
-0.0299589
-0.0166771
-0.0039688
-0.381387
-0.37081
-0.360186
-0.344815
-0.324277
-0.299407
-0.271531
-0.242199
-0.212799
-0.18436
-0.157521
-0.132596
-0.109676
-0.0887139
-0.0695974
-0.0521842
-0.0363183
-0.0219188
-0.00874733
0.00399473
-0.375674
-0.365295
-0.354528
-0.338729
-0.317574
-0.292029
-0.263538
-0.233721
-0.20399
-0.175362
-0.148445
-0.123526
-0.100667
-0.0798061
-0.060818
-0.0435517
-0.0278465
-0.0136261
-0.000607032
0.0118913
-0.369027
-0.358868
-0.347967
-0.331754
-0.310014
-0.283841
-0.254795
-0.224562
-0.194568
-0.165811
-0.138872
-0.114006
-0.0912522
-0.0705299
-0.0517037
-0.034614
-0.0190941
-0.00508687
0.00775879
0.0200024
-0.361433
-0.351513
-0.340487
-0.32388
-0.301589
-0.27484
-0.245305
-0.214724
-0.184534
-0.155712
-0.128807
-0.104042
-0.0814348
-0.0608888
-0.0422584
-0.0253768
-0.0100793
0.0037072
0.016341
0.0283405
-0.352878
-0.343218
-0.33208
-0.3151
-0.292296
-0.265028
-0.23507
-0.204213
-0.173895
-0.14507
-0.118253
-0.0936379
-0.0712199
-0.0508878
-0.0324867
-0.0158442
-0.000794752
0.0127412
0.0251409
0.0368927
-0.343357
-0.333976
-0.322737
-0.305409
-0.282136
-0.254408
-0.224097
-0.193036
-0.16266
-0.133893
-0.107218
-0.0828006
-0.0606136
-0.0405327
-0.0223945
-0.00602131
0.00875341
0.0220111
0.0341561
0.0456469
-0.332866
-0.323781
-0.312457
-0.294808
-0.271113
-0.242987
-0.212395
-0.181203
-0.150836
-0.122189
-0.0957107
-0.0715377
-0.0496233
-0.0298304
-0.0119883
0.00408563
0.0185586
0.031512
0.043382
0.0545939
-0.321403
-0.312633
-0.301239
-0.283301
-0.259232
-0.230774
-0.199974
-0.168724
-0.138434
-0.109968
-0.08374
-0.0598581
-0.0382572
-0.0187889
-0.00127561
0.0144695
0.0286138
0.0412379
0.0528125
0.0637259
-0.308974
-0.300534
-0.289088
-0.270894
-0.246506
-0.217783
-0.186848
-0.155613
-0.125469
-0.0972434
-0.0713169
-0.0477718
-0.0265249
-0.00741705
0.009735
0.025122
0.0389111
0.0511817
0.0624407
0.0730354
-0.295585
-0.287492
-0.276012
-0.257599
-0.232946
-0.204027
-0.173032
-0.141885
-0.111952
-0.0840268
-0.0584536
-0.0352901
-0.0144368
0.00427502
0.0210341
0.0360344
0.0494419
0.0613355
0.0722586
0.0825145
-0.281248
-0.273518
-0.262024
-0.243429
-0.218569
-0.189525
-0.158544
-0.127557
-0.0979016
-0.0703331
-0.0451634
-0.0224256
-0.0020048
0.0162763
0.0326111
0.0471965
0.0601968
0.0716904
0.0822579
0.0921549
-0.265978
-0.258624
-0.247138
-0.228402
-0.203394
-0.174295
-0.143405
-0.112649
-0.0833333
-0.0561783
-0.0314611
-0.00919181
0.0107585
0.0285749
0.0444549
0.0585978
0.0711656
0.0822369
0.0924292
0.101948
-0.249793
-0.242829
-0.231373
-0.212539
-0.187443
-0.158362
-0.127635
-0.0971785
-0.0682671
-0.0415797
-0.0173624
0.00439659
0.0238394
0.0411578
0.0565531
0.0702264
0.0823373
0.0929644
0.102762
0.111883
-0.232715
-0.226154
-0.214751
-0.195862
-0.170742
-0.14175
-0.111256
-0.0811691
-0.0527225
-0.0265557
-0.00288448
0.0183238
0.0372231
0.0540113
0.0688927
0.0820701
0.0936999
0.103862
0.113247
0.121951
-0.214769
-0.208623
-0.197297
-0.178399
-0.153317
-0.124489
-0.0942912
-0.0646441
-0.0367213
-0.0111262
0.0119545
0.032573
0.050894
0.0671206
0.0814599
0.0941157
0.105241
0.114917
0.123871
0.13214
-0.195983
-0.190263
-0.17904
-0.160179
-0.135198
-0.106593
-0.0767801
-0.0476292
-0.0202862
0.00468778
0.0271354
0.0471266
0.0648356
0.0804705
0.0942401
0.106349
0.116947
0.126118
0.134622
0.142436
-0.176388
-0.171106
-0.160011
-0.141236
-0.116413
-0.088104
-0.0587413
-0.0301506
-0.0034417
0.0208643
0.0426379
0.0619657
0.0790307
0.0940446
0.107218
0.118757
0.128804
0.13745
0.145486
-0.156018
-0.151184
-0.140244
-0.121603
-0.0969926
-0.0690568
-0.0402059
-0.0122358
0.013787
0.0373802
0.0584408
0.0770709
0.0934611
0.107826
0.120378
0.131322
0.140798
0.148901
-0.134908
-0.130535
-0.119776
-0.101305
-0.0769858
-0.0494819
-0.021206
0.00608617
0.0313735
0.0542113
0.074522
0.0924218
0.108108
0.121798
0.133705
0.144031
0.152913
-0.113096
-0.109197
-0.0986466
-0.0803864
-0.0564222
-0.0294147
-0.00177471
0.0247852
0.0492902
0.0713325
0.0908585
0.107997
0.122952
0.135942
0.14718
0.156868
-0.0906224
-0.0872121
-0.0768828
-0.058904
-0.0353414
-0.00889216
0.0180538
0.0438301
0.0675087
0.0887179
0.107427
0.123776
0.137974
0.15024
0.160789
0.169816
-0.067522
-0.0646316
-0.0545439
-0.0368869
-0.0137842
0.0120476
0.0382444
0.0631887
0.0859996
0.10634
0.124201
0.139735
0.153152
0.164674
0.174513
-0.0438408
-0.0415061
-0.0316763
-0.01438
0.00820748
0.0333652
0.0587609
0.0828279
0.104733
0.124173
0.141158
0.15585
0.168465
0.179224
-0.0196779
-0.0178429
-0.00832265
0.00857054
0.0305903
0.0550204
0.079566
0.102714
0.123677
0.142186
0.15827
0.1721
0.183893
0.19387
0.00493732
0.00629882
0.0154702
0.031918
0.05332
0.0769719
0.100622
0.122811
0.142801
0.160352
0.175511
0.188458
0.199411
0.0299779
0.0308506
0.0396521
0.0556145
0.0763512
0.0991778
0.12189
0.143086
0.162072
0.17864
0.192854
0.2049
0.214999
0.0553884
0.0557601
0.0641726
0.0796112
0.0996378
0.121595
0.143331
0.163501
0.181457
0.197021
0.210271
0.2214
0.0811143
0.0809778
0.0889808
0.103859
0.123133
0.144181
0.164906
0.184021
0.200923
0.215463
0.227734
0.107099
0.10645
0.114024
0.128307
0.14679
0.166891
0.186573
0.204608
0.220437
0.233936
0.245214
0.133287
0.132122
0.139247
0.152904
0.17056
0.189682
0.208293
0.225225
0.239963
0.252409
0.159622
0.157939
0.164599
0.177599
0.194396
0.212508
0.230024
0.245836
0.259468
0.270849
0.186046
0.183846
0.190023
0.202341
0.218249
0.235326
0.251727
0.266402
0.278918
0.289225
0.212504
0.209786
0.215466
0.227077
0.242072
0.258091
0.27336
0.286886
0.298278
0.238937
0.235704
0.240874
0.251756
0.265815
0.280759
0.294882
0.307252
0.317514
0.265289
0.261543
0.266191
0.276326
0.289431
0.303284
0.316253
0.32746
0.291504
0.287248
0.291364
0.300736
0.312872
0.325625
0.337432
0.347476
0.317523
0.312763
0.316338
0.324936
0.336091
0.347736
0.35838
0.343291
0.338033
0.341061
0.348874
0.359041
0.369575
0.379057
0.368753
0.363002
0.36548
0.372501
0.381676
0.391099
0.399424
0.393853
0.387618
0.389543
0.395768
0.40395
0.412266
0.418538
0.411826
0.413198
0.418627
0.425819
0.433036
0.442754
0.435575
0.436395
0.44103
0.447239
0.453368
0.46645
0.458813
0.459085
0.462932
0.468167
0.489573
0.481491
0.48122
0.484287
0.488562
0.512076
0.50356
0.502754
0.505051
0.508382
0.533909
0.524972
0.52364
0.525182
0.527589
0.555026
0.545682
0.543836
0.544638
0.575382
0.565645
0.563298
0.563381
0.594934
0.58482
0.581986
0.58137
0.613639
0.603164
0.59986
0.598571
0.631459
0.62064
0.616884
0.614948
0.648354
0.637209
0.633022
0.664291
0.652838
0.648241
0.679233
0.667492
0.662507
0.693151
0.681141
0.675793
0.706015
0.693756
0.688071
0.717797
0.70531
0.699314
0.728473
0.715779
0.709501
0.73802
0.725141
0.718609
0.746418
0.733377
0.72662
0.753649
0.740468
0.759699
0.7464
0.764554
0.751161
0.768205
0.754741
0.770643
0.757132
0.771863
0.758329
0.771863
0.758329
0.770644
0.757133
0.768206
0.754743
0.764557
0.751164
0.759702
0.746404
0.753653
0.740472
0.746423
0.733381
0.726626
0.738025
0.725146
0.718615
0.728478
0.715784
0.709507
0.717803
0.705315
0.699321
0.706021
0.693761
0.688078
0.693158
0.681146
0.675801
0.67924
0.667498
0.662515
0.664297
0.652843
0.648248
0.64836
0.637215
0.63303
0.631464
0.620645
0.616892
0.61496
0.613644
0.603169
0.599868
0.598583
0.594938
0.584824
0.581992
0.581382
0.575386
0.565649
0.563304
0.563392
0.555029
0.545684
0.543841
0.544649
0.533911
0.524974
0.523645
0.525192
0.527607
0.512077
0.50356
0.502758
0.505061
0.5084
0.489573
0.48149
0.481223
0.484296
0.488579
0.466448
0.458811
0.459087
0.46294
0.468185
0.473249
0.442751
0.435571
0.436395
0.441038
0.447256
0.453395
0.418533
0.411821
0.413197
0.418633
0.425835
0.433062
0.393847
0.387611
0.38954
0.395773
0.403966
0.412292
0.368745
0.362994
0.365476
0.372505
0.38169
0.391124
0.399461
0.343281
0.338023
0.341056
0.348877
0.359055
0.3696
0.379094
0.317511
0.312751
0.316331
0.324937
0.336104
0.347761
0.358417
0.29149
0.287235
0.291355
0.300736
0.312884
0.325649
0.337469
0.347524
0.265273
0.261528
0.26618
0.276325
0.289441
0.303308
0.316289
0.327508
0.238919
0.235686
0.240861
0.251753
0.265824
0.280782
0.294918
0.3073
0.317573
0.212484
0.209766
0.215452
0.227073
0.24208
0.258114
0.273396
0.286935
0.298338
0.186024
0.183824
0.190007
0.202335
0.218257
0.235348
0.251763
0.266451
0.278979
0.289296
0.159597
0.157915
0.164581
0.177592
0.194402
0.212529
0.23006
0.245885
0.259529
0.27092
0.133261
0.132096
0.139228
0.152895
0.170566
0.189702
0.208328
0.225274
0.240025
0.252481
0.107071
0.106422
0.114002
0.128297
0.146794
0.166911
0.186608
0.204657
0.220499
0.234009
0.245296
0.0810842
0.0809485
0.0889578
0.103848
0.123137
0.1442
0.164941
0.18407
0.200986
0.215537
0.227817
0.238024
0.0553567
0.0557293
0.0641483
0.0795986
0.0996403
0.121614
0.143366
0.163551
0.181521
0.197096
0.210356
0.221493
0.0299447
0.0308184
0.0396266
0.0556009
0.076353
0.0991964
0.121925
0.143136
0.162136
0.178716
0.19294
0.204994
0.2151
0.00490281
0.00626547
0.0154435
0.0319034
0.0533212
0.0769903
0.100657
0.122862
0.142866
0.160429
0.175598
0.188553
0.199514
-0.0197135
-0.0178772
-0.0083501
0.00855533
0.030591
0.0550386
0.0796015
0.102765
0.123743
0.142264
0.158358
0.172196
0.183997
0.19398
-0.0438772
-0.041541
-0.0317043
-0.0143956
0.00820798
0.0333835
0.0587967
0.0828799
0.104799
0.124252
0.141247
0.155949
0.168571
0.179335
-0.0675589
-0.0646669
-0.0545722
-0.0369028
-0.0137837
0.0120661
0.0382808
0.0632415
0.0860671
0.10642
0.124292
0.139834
0.153259
0.164787
0.174631
-0.0906594
-0.0872473
-0.0769111
-0.0589197
-0.0353407
-0.00887321
0.0180909
0.0438839
0.0675773
0.0887992
0.107519
0.123877
0.138082
0.150355
0.160908
0.169939
-0.113133
-0.109232
-0.0986744
-0.0804018
-0.0564209
-0.0293951
-0.0017368
0.02484
0.04936
0.0714153
0.0909522
0.1081
0.123063
0.136058
0.147301
0.156992
0.165262
-0.134944
-0.130569
-0.119803
-0.101319
-0.0769837
-0.0494613
-0.021167
0.00614229
0.0314447
0.0542956
0.0746173
0.0925262
0.10822
0.121916
0.133827
0.144157
0.153041
-0.156053
-0.151217
-0.14027
-0.121617
-0.0969893
-0.0690349
-0.0401655
-0.0121782
0.0138599
0.0374662
0.0585378
0.077177
0.0935747
0.107946
0.120502
0.13145
0.140928
0.149031
-0.176422
-0.171137
-0.160035
-0.141247
-0.116409
-0.0880806
-0.0586992
-0.0300912
-0.00336701
0.0209521
0.0427368
0.0620736
0.079146
0.0941658
0.107344
0.118885
0.128935
0.137582
0.145619
-0.196015
-0.190292
-0.179062
-0.160189
-0.135191
-0.106567
-0.076736
-0.0475678
-0.0202095
0.00477764
0.0272363
0.0472365
0.0649528
0.0805934
0.0943673
0.10648
0.117079
0.126251
0.134755
0.142569
-0.214798
-0.208649
-0.197317
-0.178406
-0.153308
-0.124461
-0.0942447
-0.0645804
-0.0366423
-0.0110342
0.0120576
0.032685
0.0510131
0.0672453
0.0815887
0.0942474
0.105374
0.115051
0.124005
0.132273
-0.232741
-0.226177
-0.214767
-0.195866
-0.170729
-0.14172
-0.111207
-0.0811029
-0.052641
-0.0264612
-0.00277911
0.018438
0.0373442
0.0541378
0.0690231
0.0822032
0.0938345
0.103997
0.113382
0.122085
-0.249815
-0.242848
-0.231385
-0.212539
-0.187428
-0.158328
-0.127583
-0.0971092
-0.0681827
-0.0414824
-0.0172545
0.00451312
0.0239627
0.0412863
0.0566852
0.070361
0.0824731
0.0931004
0.102898
0.112018
-0.265996
-0.258638
-0.247145
-0.228398
-0.203375
-0.174258
-0.143349
-0.112576
-0.0832458
-0.0560781
-0.0313504
-0.00907274
0.0108841
0.0287054
0.0445888
0.0587338
0.0713026
0.0823738
0.0925653
0.102083
-0.281261
-0.273526
-0.262026
-0.24342
-0.218545
-0.189483
-0.158485
-0.127481
-0.0978106
-0.0702296
-0.0450497
-0.0223038
-0.00187676
0.016409
0.0327469
0.0473341
0.0603349
0.0718281
0.0823945
0.0922898
-0.295592
-0.287495
-0.276009
-0.257584
-0.232917
-0.203981
-0.172968
-0.141805
-0.111858
-0.0839198
-0.0583367
-0.0351654
-0.0143062
0.00440988
0.0211717
0.0361734
0.0495811
0.061474
0.0723956
0.0826494
-0.308974
-0.30053
-0.289077
-0.270873
-0.246471
-0.217731
-0.186779
-0.155528
-0.125369
-0.0971325
-0.0711965
-0.0476439
-0.0263915
-0.00727982
0.00987456
0.0252626
0.0390515
0.0513209
0.062578
0.0731702
-0.321396
-0.312621
-0.301221
-0.283273
-0.259191
-0.230717
-0.199899
-0.168634
-0.138331
-0.109853
-0.0836157
-0.0597268
-0.0381209
-0.0186491
-0.00113402
0.0146116
0.0287553
0.0413778
0.0529501
0.0638605
-0.33285
-0.32376
-0.312431
-0.294773
-0.271064
-0.242922
-0.212314
-0.181107
-0.150727
-0.122069
-0.0955823
-0.0714028
-0.0494838
-0.029688
-0.0118446
0.00422934
0.0187012
0.0316526
0.0435197
0.0547281
-0.343333
-0.333946
-0.322702
-0.305365
-0.282079
-0.254336
-0.22401
-0.192935
-0.162545
-0.133768
-0.107085
-0.0826618
-0.0604707
-0.0403875
-0.0222485
-0.00587595
0.008897
0.0221524
0.0342939
0.0457805
-0.352844
-0.343179
-0.332035
-0.315046
-0.292231
-0.264948
-0.234976
-0.204105
-0.173775
-0.14494
-0.118115
-0.093495
-0.0710734
-0.0507396
-0.0323383
-0.0156971
-0.000650338
0.0128834
0.0252787
0.0370256
-0.361388
-0.351462
-0.340432
-0.323817
-0.301514
-0.274752
-0.245202
-0.214609
-0.184407
-0.155576
-0.128664
-0.103894
-0.0812845
-0.0607374
-0.0421074
-0.0252278
-0.00993442
0.00385065
0.0164787
0.0284725
-0.368971
-0.358805
-0.347899
-0.331679
-0.309929
-0.283743
-0.254684
-0.224439
-0.194434
-0.165669
-0.138724
-0.113854
-0.0910978
-0.0703751
-0.0515501
-0.0344629
-0.0189495
-0.0049416
0.0078961
0.0201334
-0.375605
-0.36522
-0.354448
-0.338642
-0.317478
-0.291921
-0.263418
-0.23359
-0.203849
-0.175213
-0.148291
-0.123368
-0.100508
-0.0796478
-0.0606615
-0.0433981
-0.027698
-0.0134828
-0.000470459
0.0120213
-0.381305
-0.370722
-0.360093
-0.344715
-0.324169
-0.299288
-0.271402
-0.242059
-0.21265
-0.184204
-0.15736
-0.132433
-0.109513
-0.0885517
-0.069438
-0.0520283
-0.0361678
-0.0217758
-0.0086114
0.00412417
-0.38609
-0.375331
-0.364852
-0.349914
-0.330011
-0.30585
-0.278637
-0.249844
-0.220832
-0.192639
-0.165929
-0.141047
-0.118107
-0.097084
-0.0778765
-0.060351
-0.0443578
-0.0298152
-0.0165415
-0.00384055
-0.389981
-0.379068
-0.368746
-0.354256
-0.335017
-0.311614
-0.285128
-0.256947
-0.228397
-0.200517
-0.173995
-0.149207
-0.126291
-0.105243
-0.0859751
-0.0683641
-0.0522667
-0.0375975
-0.0242055
-0.0114589
-0.393003
-0.381961
-0.3718
-0.357764
-0.339205
-0.316592
-0.290882
-0.263372
-0.235345
-0.207838
-0.18156
-0.156913
-0.134064
-0.113028
-0.0937329
-0.076066
-0.0598914
-0.0451192
-0.031611
-0.0187778
-0.395186
-0.384039
-0.374043
-0.360461
-0.342594
-0.320798
-0.295908
-0.269124
-0.24168
-0.214605
-0.188624
-0.164166
-0.141425
-0.120439
-0.10115
-0.0834562
-0.0672304
-0.0523808
-0.0387807
-0.0258722
-0.39656
-0.385333
-0.375505
-0.362377
-0.345208
-0.324251
-0.300218
-0.274211
-0.247407
-0.22082
-0.195189
-0.170968
-0.148378
-0.127477
-0.108227
-0.0905354
-0.0742848
-0.0593834
-0.0457197
-0.0327603
-0.39716
-0.385877
-0.37622
-0.363543
-0.347073
-0.326971
-0.303827
-0.278642
-0.252532
-0.226489
-0.201259
-0.177322
-0.154923
-0.134145
-0.114965
-0.0973054
-0.081056
-0.0661278
-0.0524244
-0.0394371
-0.397023
-0.385711
-0.376225
-0.363992
-0.348219
-0.328981
-0.306752
-0.282431
-0.257065
-0.231617
-0.20684
-0.183232
-0.161066
-0.140446
-0.121368
-0.103768
-0.087546
-0.0726147
-0.058893
-0.0458985
-0.396186
-0.384871
-0.375559
-0.363762
-0.348679
-0.330307
-0.309014
-0.285592
-0.261015
-0.236213
-0.211938
-0.188704
-0.16681
-0.146383
-0.127439
-0.109927
-0.093757
-0.078846
-0.0651263
-0.0521444
-0.394692
-0.3834
-0.374263
-0.362891
-0.348486
-0.330979
-0.310636
-0.288142
-0.264395
-0.240286
-0.216559
-0.193744
-0.172161
-0.151962
-0.133182
-0.115784
-0.0996919
-0.0848241
-0.0711264
-0.0581767
-0.392583
-0.38134
-0.372379
-0.36142
-0.347678
-0.331029
-0.311641
-0.290099
-0.267219
-0.243846
-0.220712
-0.198358
-0.177125
-0.157188
-0.138601
-0.121345
-0.105354
-0.090552
-0.0768958
-0.0639974
-0.389902
-0.378735
-0.36995
-0.359392
-0.346294
-0.33049
-0.312058
-0.291486
-0.269503
-0.246906
-0.224407
-0.202554
-0.181708
-0.162066
-0.143703
-0.126615
-0.110748
-0.0960333
-0.0824373
-0.0696084
-0.386694
-0.375629
-0.367022
-0.35685
-0.344376
-0.329398
-0.311917
-0.292324
-0.271265
-0.249479
-0.227655
-0.206343
-0.18592
-0.166605
-0.148493
-0.131598
-0.115878
-0.101272
-0.087754
-0.0750124
-0.383004
-0.372068
-0.363641
-0.35384
-0.341965
-0.32779
-0.311249
-0.29264
-0.272523
-0.251578
-0.230466
-0.209731
-0.189767
-0.17081
-0.152978
-0.1363
-0.12075
-0.106272
-0.0928498
-0.0802124
-0.378879
-0.368096
-0.35985
-0.350406
-0.339106
-0.325708
-0.310087
-0.292459
-0.273299
-0.253222
-0.232853
-0.212732
-0.193259
-0.174691
-0.157165
-0.140728
-0.125369
-0.111039
-0.0977289
-0.0852116
-0.374363
-0.363758
-0.355696
-0.346594
-0.335841
-0.32319
-0.308468
-0.291812
-0.273615
-0.254426
-0.23483
-0.215354
-0.196405
-0.178256
-0.161062
-0.144889
-0.12974
-0.115578
-0.102396
-0.0900139
-0.369504
-0.3591
-0.351224
-0.34245
-0.332216
-0.320279
-0.306427
-0.290727
-0.273495
-0.255209
-0.236412
-0.217611
-0.199215
-0.181512
-0.164676
-0.14879
-0.133871
-0.119894
-0.106855
-0.0946234
-0.364345
-0.354165
-0.346478
-0.338017
-0.328276
-0.317017
-0.304002
-0.289239
-0.272965
-0.255592
-0.237614
-0.219514
-0.2017
-0.184471
-0.168017
-0.152438
-0.137769
-0.123993
-0.111113
-0.0990445
-0.35893
-0.348996
-0.341501
-0.333341
-0.324063
-0.313446
-0.301232
-0.287378
-0.272051
-0.255595
-0.238451
-0.221076
-0.20387
-0.18714
-0.171091
-0.15584
-0.141439
-0.127882
-0.115174
-0.103282
-0.353301
-0.343633
-0.336334
-0.328463
-0.319622
-0.309608
-0.298157
-0.28518
-0.270782
-0.25524
-0.238942
-0.222312
-0.205737
-0.18953
-0.173908
-0.159006
-0.14489
-0.131567
-0.119045
-0.10734
-0.3475
-0.338116
-0.331017
-0.323424
-0.314993
-0.305545
-0.294815
-0.282679
-0.269187
-0.254551
-0.239105
-0.223234
-0.207312
-0.19165
-0.176478
-0.161943
-0.148128
-0.135055
-0.12273
-0.111225
-0.341566
-0.332482
-0.325589
-0.318264
-0.310218
-0.301299
-0.291245
-0.279911
-0.267296
-0.253552
-0.238958
-0.223858
-0.208607
-0.193511
-0.178808
-0.164659
-0.151161
-0.138352
-0.126237
-0.114941
-0.335536
-0.326768
-0.320084
-0.313019
-0.305334
-0.296907
-0.287487
-0.276912
-0.26514
-0.252268
-0.238521
-0.2242
-0.209634
-0.195122
-0.180908
-0.167163
-0.153997
-0.141466
-0.129572
-0.118494
-0.329446
-0.321007
-0.314536
-0.307724
-0.300379
-0.292408
-0.283578
-0.273717
-0.26275
-0.250726
-0.237814
-0.224275
-0.210406
-0.196495
-0.182786
-0.169462
-0.156644
-0.144403
-0.132741
-0.12189
-0.323329
-0.315229
-0.308976
-0.302411
-0.295386
-0.287837
-0.279554
-0.27036
-0.260158
-0.248951
-0.23686
-0.2241
-0.210936
-0.19764
-0.184453
-0.171564
-0.159108
-0.14717
-0.13575
-0.125134
-0.317214
-0.309463
-0.303432
-0.297109
-0.290386
-0.283229
-0.27545
-0.266878
-0.257395
-0.246971
-0.235681
-0.223692
-0.211236
-0.198566
-0.185916
-0.173479
-0.161398
-0.149774
-0.138606
-0.128233
-0.311131
-0.303736
-0.297931
-0.291846
-0.285409
-0.278614
-0.271299
-0.263301
-0.254493
-0.244814
-0.234298
-0.223069
-0.211322
-0.199286
-0.187184
-0.175212
-0.163519
-0.152222
-0.141314
-0.131191
-0.305105
-0.298071
-0.292495
-0.286644
-0.28048
-0.274022
-0.267132
-0.259663
-0.251482
-0.242507
-0.232735
-0.222248
-0.211206
-0.199809
-0.188267
-0.176773
-0.165481
-0.154521
-0.143882
-0.134016
-0.299159
-0.292488
-0.287145
-0.281526
-0.275622
-0.269476
-0.262977
-0.255993
-0.248393
-0.240078
-0.231015
-0.22125
-0.210904
-0.200147
-0.189173
-0.178168
-0.167288
-0.156677
-0.146315
-0.136712
-0.293315
-0.287008
-0.281899
-0.276509
-0.270856
-0.265001
-0.25886
-0.252319
-0.245253
-0.237553
-0.229163
-0.220094
-0.210429
-0.200311
-0.189911
-0.179406
-0.168949
-0.158697
-0.14862
-0.139287
-0.287589
-0.281646
-0.276772
-0.27161
-0.266199
-0.260617
-0.254804
-0.248667
-0.24209
-0.23496
-0.227202
-0.218799
-0.209799
-0.200313
-0.190489
-0.180492
-0.170469
-0.160586
-0.150801
-0.141746
-0.281998
-0.276415
-0.271778
-0.266842
-0.261665
-0.25634
-0.250829
-0.24506
-0.238928
-0.232322
-0.225155
-0.217384
-0.209028
-0.200165
-0.190918
-0.181435
-0.171855
-0.162351
-0.152865
-0.144097
-0.276556
-0.271329
-0.266927
-0.262216
-0.257267
-0.252184
-0.246953
-0.241518
-0.235791
-0.229665
-0.223046
-0.215872
-0.208134
-0.19988
-0.191206
-0.182241
-0.173112
-0.163997
-0.271273
-0.266396
-0.262229
-0.257741
-0.253013
-0.248162
-0.24319
-0.23806
-0.232699
-0.227011
-0.220896
-0.21428
-0.207131
-0.199469
-0.191361
-0.182917
-0.174247
-0.266159
-0.261624
-0.25769
-0.253422
-0.248912
-0.244283
-0.239551
-0.2347
-0.229672
-0.224379
-0.218727
-0.21263
-0.206039
-0.198946
-0.191395
-0.261221
-0.257019
-0.253315
-0.249266
-0.244969
-0.240552
-0.236047
-0.231452
-0.226724
-0.22179
-0.216558
-0.21094
-0.204872
-0.198326
-0.256465
-0.252586
-0.249107
-0.245273
-0.241186
-0.236975
-0.232683
-0.228324
-0.223869
-0.219258
-0.214408
-0.209229
-0.251894
-0.248326
-0.245069
-0.241447
-0.237565
-0.233553
-0.229465
-0.225325
-0.221119
-0.216799
-0.212293
-0.247511
-0.244242
-0.241201
-0.237787
-0.234107
-0.230289
-0.226395
-0.222459
-0.21848
-0.214424
-0.243317
-0.240334
-0.237503
-0.234292
-0.230809
-0.22718
-0.223473
-0.21973
-0.21596
-0.23931
-0.2366
-0.233972
-0.23096
-0.22767
-0.224226
-0.220699
-0.217138
-0.23549
-0.233039
-0.230606
-0.227788
-0.224687
-0.221423
-0.218071
-0.231855
-0.229647
-0.227402
-0.224771
-0.221854
-0.218767
-0.2284
-0.226421
-0.224356
-0.221906
-0.219169
-0.225122
-0.223358
-0.221464
-0.219188
-0.222015
-0.220451
-0.21872
-0.219075
-0.217697
-0.216295
-0.215088
-0.213669
-0.0806679
-0.0852515
-0.0896656
-0.0939138
-0.0980003
-0.101929
-0.105704
-0.109329
-0.11281
-0.116149
-0.119351
-0.122419
-0.125358
-0.128171
-0.13086
-0.133429
-0.0735788
-0.0781043
-0.0824764
-0.0866983
-0.0907732
-0.0947047
-0.0984961
-0.102151
-0.105673
-0.109066
-0.112333
-0.115477
-0.118503
-0.121412
-0.124208
-0.126894
-0.0668099
-0.0712619
-0.0755767
-0.0797571
-0.0838059
-0.0877261
-0.0915207
-0.0951929
-0.0987458
-0.102183
-0.105506
-0.108721
-0.111829
-0.114833
-0.117738
-0.120547
-0.0603482
-0.0647247
-0.0689785
-0.0731121
-0.077128
-0.0810287
-0.084817
-0.0884956
-0.0920673
-0.0955349
-0.0989013
-0.10217
-0.105343
-0.108424
-0.111416
-0.114322