/*--------------------------------*- C++ -*----------------------------------*\
  =========                 |
  \\      /  F ield         | OpenFOAM: The Open Source CFD Toolbox
   \\    /   O peration     | Website:  https://openfoam.org
    \\  /    A nd           | Version:  7
     \\/     M anipulation  |
\*---------------------------------------------------------------------------*/
FoamFile
{
    version     2.0;
    format      ascii;
    class       volScalarField;
    location    "60";
    object      p;
}
// * * * * * * * * * * * * * * * * * * * * * * * * * * * * * * * * * * * * * //

dimensions      [0 2 -2 0 0 0 0];

internalField   nonuniform List<scalar> 
8500
(
0.152978
0.156621
0.163427
0.16064
0.167652
0.17393
0.165336
0.172266
0.178748
0.184457
0.177631
0.183967
0.189894
0.194978
0.183059
0.190001
0.19573
0.201079
0.205471
0.188549
0.196165
0.202433
0.207553
0.212303
0.215873
0.202434
0.209335
0.214919
0.219445
0.223535
0.225943
0.208803
0.216383
0.222556
0.22746
0.231421
0.234682
0.235363
0.223562
0.230375
0.235816
0.24006
0.243461
0.245642
0.244441
0.230836
0.238354
0.244392
0.2491
0.252699
0.255475
0.256334
0.255196
0.238154
0.246469
0.253157
0.258412
0.262388
0.265329
0.267439
0.267479
0.266705
0.254671
0.262096
0.267948
0.272415
0.275656
0.277922
0.27935
0.278754
0.277953
0.262898
0.271165
0.277695
0.282703
0.286377
0.28888
0.290461
0.291215
0.290057
0.289038
0.280302
0.287612
0.293239
0.297398
0.300276
0.302037
0.302925
0.303014
0.301308
0.299962
0.297635
0.303982
0.308702
0.31201
0.314089
0.315105
0.315296
0.314721
0.312466
0.310718
0.307694
0.314869
0.320249
0.324061
0.326515
0.327794
0.328062
0.327554
0.326317
0.323502
0.321306
0.325823
0.331972
0.336386
0.339289
0.34089
0.341368
0.340889
0.339679
0.337779
0.334399
0.33172
0.33677
0.343792
0.348918
0.352366
0.354362
0.35511
0.35479
0.353564
0.351654
0.349091
0.345139
0.341956
0.355629
0.361572
0.365676
0.368163
0.369254
0.369155
0.368039
0.366069
0.363459
0.360235
0.35571
0.352006
0.367431
0.374261
0.379129
0.382217
0.383748
0.383942
0.382999
0.381094
0.378384
0.375078
0.371196
0.366099
0.361863
0.386923
0.392632
0.396434
0.398515
0.399097
0.398401
0.396623
0.393934
0.39049
0.386494
0.381958
0.376292
0.371518
0.406112
0.410711
0.413456
0.414539
0.414184
0.412607
0.410002
0.406538
0.402369
0.397689
0.392507
0.386278
0.380963
0.41957
0.424963
0.428464
0.430165
0.430264
0.428983
0.426537
0.423117
0.418888
0.414003
0.408648
0.402829
0.396043
0.390186
0.439173
0.443441
0.445859
0.446532
0.445661
0.443469
0.440167
0.435945
0.430964
0.425374
0.419354
0.412908
0.405576
0.399178
0.458352
0.461513
0.462865
0.462528
0.460705
0.457618
0.453476
0.448467
0.442747
0.436464
0.429792
0.422731
0.414863
0.407928
0.473299
0.477071
0.479144
0.479452
0.478124
0.475369
0.471405
0.466442
0.460661
0.454218
0.447258
0.439946
0.432285
0.423893
0.416427
0.492605
0.495294
0.496304
0.49559
0.493294
0.489627
0.484808
0.479042
0.472508
0.46536
0.457737
0.449802
0.441554
0.432652
0.424662
0.511358
0.512989
0.512959
0.511249
0.508011
0.503456
0.497804
0.491255
0.483988
0.476153
0.467887
0.459344
0.450527
0.441128
0.432624
0.52952
0.53012
0.529079
0.526402
0.522247
0.51683
0.510369
0.503062
0.495084
0.486582
0.477691
0.468559
0.45919
0.44931
0.440302
0.546121
0.547058
0.546656
0.544635
0.54102
0.535979
0.529728
0.522484
0.514443
0.505776
0.49663
0.487134
0.477432
0.467529
0.457186
0.447686
0.563951
0.563936
0.562566
0.559598
0.555078
0.549181
0.542126
0.534127
0.525378
0.516048
0.50628
0.496202
0.48595
0.475534
0.464744
0.454766
0.581057
0.580123
0.577819
0.57394
0.56855
0.561831
0.554002
0.545278
0.535849
0.525882
0.515517
0.504879
0.494099
0.483191
0.471973
0.461532
0.597404
0.595587
0.592388
0.587636
0.581411
0.573905
0.565337
0.555918
0.545839
0.535262
0.524325
0.513152
0.501868
0.490489
0.478862
0.467976
0.61296
0.610298
0.606244
0.600659
0.59364
0.585383
0.576109
0.566029
0.55533
0.544172
0.532692
0.521009
0.509244
0.497417
0.4854
0.474087
0.630285
0.627694
0.624229
0.619362
0.612985
0.605212
0.596243
0.586301
0.575594
0.564307
0.552598
0.540602
0.528436
0.516215
0.503964
0.491579
0.479859
0.644875
0.641578
0.637352
0.631716
0.624593
0.616108
0.606467
0.595894
0.584595
0.572754
0.560526
0.548043
0.535421
0.522771
0.510121
0.497389
0.485282
0.658546
0.654584
0.649642
0.643285
0.63546
0.626307
0.616037
0.604872
0.593018
0.580657
0.567942
0.555003
0.541954
0.528901
0.515877
0.50282
0.490348
0.67127
0.666686
0.661076
0.654046
0.645567
0.635792
0.624934
0.613218
0.600848
0.588002
0.574834
0.561471
0.548024
0.534596
0.521224
0.507864
0.495052
0.683021
0.67786
0.671632
0.663978
0.654895
0.644544
0.633144
0.620919
0.608071
0.594778
0.581191
0.567435
0.553621
0.539846
0.526153
0.512514
0.499385
0.693777
0.688086
0.681289
0.673064
0.663427
0.652548
0.640652
0.627959
0.614674
0.600972
0.587001
0.572886
0.558735
0.544643
0.530656
0.516762
0.503342
0.703514
0.697341
0.690029
0.681286
0.671146
0.65979
0.647443
0.634328
0.620647
0.606573
0.592255
0.577815
0.563359
0.54898
0.534727
0.520602
0.506917
0.712214
0.705609
0.697835
0.688628
0.678039
0.666256
0.653507
0.640014
0.625979
0.611573
0.596944
0.582213
0.567485
0.552849
0.538359
0.524027
0.510105
0.719858
0.712873
0.704693
0.695078
0.684094
0.671935
0.658831
0.645006
0.63066
0.615962
0.60106
0.586074
0.571106
0.556245
0.541545
0.527032
0.512901
0.732948
0.726432
0.719119
0.710588
0.700622
0.689297
0.676815
0.663407
0.649296
0.634682
0.619734
0.604597
0.589391
0.574217
0.559161
0.544282
0.529613
0.515301
0.738668
0.731922
0.724334
0.715511
0.70525
0.693641
0.680889
0.667226
0.652877
0.638038
0.622881
0.607547
0.592157
0.576812
0.561594
0.546565
0.531765
0.517302
0.743247
0.736316
0.728509
0.71945
0.708954
0.697118
0.684149
0.670282
0.655741
0.640723
0.625397
0.609907
0.59437
0.578886
0.563538
0.548389
0.533486
0.518901
0.746676
0.739607
0.731634
0.722399
0.711727
0.699719
0.686588
0.672568
0.657884
0.642731
0.62728
0.611671
0.596024
0.580437
0.564992
0.549753
0.534771
0.520096
0.748949
0.741787
0.733704
0.724352
0.713563
0.701442
0.688202
0.674081
0.659301
0.64406
0.628525
0.612838
0.597117
0.581462
0.565952
0.550653
0.53562
0.520884
0.750059
0.742852
0.734715
0.725306
0.714458
0.702281
0.688989
0.674818
0.659991
0.644706
0.62913
0.613404
0.597648
0.581958
0.566417
0.551089
0.53603
0.521264
0.750004
0.742799
0.734664
0.725257
0.714412
0.702237
0.688947
0.674777
0.659952
0.644668
0.629094
0.613369
0.597614
0.581926
0.566386
0.551059
0.536001
0.521237
0.748785
0.741629
0.733552
0.724207
0.713424
0.701309
0.688075
0.673959
0.659184
0.643947
0.628417
0.612734
0.597017
0.581365
0.565859
0.550564
0.535534
0.520801
0.746404
0.739343
0.731381
0.722157
0.711495
0.699498
0.686376
0.672365
0.657689
0.642544
0.6271
0.611498
0.595857
0.580276
0.564837
0.549604
0.534628
0.519958
0.742866
0.735947
0.728154
0.719111
0.70863
0.696807
0.683851
0.669997
0.655468
0.640461
0.625145
0.609664
0.594136
0.578661
0.563322
0.548181
0.533285
0.518708
0.738177
0.731447
0.723878
0.715074
0.704833
0.693242
0.680507
0.66686
0.652525
0.637701
0.622556
0.607235
0.591857
0.576523
0.561316
0.546297
0.531507
0.517054
0.732348
0.725851
0.718561
0.710054
0.700111
0.688809
0.676348
0.662959
0.648867
0.634269
0.619337
0.604215
0.589024
0.573864
0.558821
0.543955
0.529297
0.514998
0.719172
0.712213
0.704061
0.694474
0.683516
0.671382
0.658302
0.644498
0.630172
0.615494
0.600609
0.58564
0.570689
0.555843
0.541159
0.526659
0.512543
0.711421
0.704847
0.697106
0.687931
0.677373
0.665618
0.652895
0.639428
0.625416
0.611032
0.596424
0.581713
0.567003
0.552386
0.537912
0.523596
0.509691
0.702615
0.696477
0.689202
0.680495
0.67039
0.659067
0.64675
0.633663
0.620009
0.60596
0.591665
0.577247
0.562813
0.548454
0.534221
0.520113
0.506448
0.692771
0.687119
0.680364
0.67218
0.662581
0.651739
0.639876
0.627216
0.61396
0.600286
0.586341
0.572251
0.558124
0.544056
0.53009
0.516216
0.502818
0.681909
0.676791
0.670609
0.663
0.65396
0.643649
0.632287
0.620096
0.607281
0.594019
0.580461
0.566733
0.552945
0.539196
0.525527
0.51191
0.498806
0.67005
0.665514
0.659954
0.652973
0.644542
0.634811
0.623994
0.612317
0.599982
0.587171
0.574034
0.560702
0.547284
0.533884
0.520538
0.507203
0.494417
0.657219
0.653308
0.648422
0.642118
0.634345
0.62524
0.615014
0.603891
0.592077
0.579752
0.567072
0.554167
0.541149
0.528127
0.515132
0.5021
0.489658
0.64344
0.640199
0.636032
0.630455
0.623387
0.614954
0.605362
0.594834
0.583578
0.571776
0.559586
0.547139
0.534551
0.521934
0.509315
0.496611
0.484536
0.628742
0.626211
0.62281
0.618005
0.611688
0.603971
0.595054
0.585161
0.5745
0.563255
0.551588
0.53963
0.527501
0.515316
0.503099
0.490744
0.479057
0.611373
0.608779
0.604792
0.599271
0.592311
0.58411
0.574889
0.564858
0.554205
0.543091
0.531652
0.520008
0.508282
0.496491
0.484507
0.47323
0.595712
0.593967
0.59084
0.586156
0.579996
0.572549
0.564036
0.55467
0.54464
0.53411
0.523217
0.512087
0.500843
0.489503
0.47791
0.467063
0.57926
0.578403
0.576175
0.572369
0.567046
0.560391
0.552622
0.543953
0.534576
0.524659
0.51434
0.503748
0.493011
0.482144
0.470963
0.460563
0.562049
0.562115
0.560825
0.557935
0.553486
0.547657
0.540664
0.532724
0.524031
0.514754
0.505035
0.495005
0.484799
0.474427
0.463676
0.453741
0.544113
0.545135
0.544819
0.542879
0.53934
0.53437
0.528185
0.521004
0.513021
0.50441
0.495316
0.485871
0.476218
0.466361
0.45606
0.446605
0.527496
0.528185
0.52723
0.524633
0.520553
0.515207
0.508811
0.501566
0.493646
0.4852
0.476362
0.467281
0.457961
0.448125
0.439164
0.509231
0.510956
0.511016
0.509391
0.506231
0.50175
0.496167
0.489684
0.482479
0.474702
0.466492
0.458003
0.449237
0.439885
0.43143
0.490376
0.493164
0.494267
0.493642
0.491429
0.48784
0.483093
0.477395
0.470926
0.463839
0.456276
0.448397
0.440203
0.431349
0.423411
0.474841
0.477014
0.477415
0.476173
0.473499
0.469612
0.46472
0.459006
0.452628
0.445729
0.438477
0.430872
0.422531
0.415119
0.456023
0.459287
0.460737
0.46049
0.458752
0.455745
0.451678
0.44674
0.441087
0.434869
0.428258
0.421257
0.413442
0.406564
0.436744
0.441121
0.44364
0.444407
0.443625
0.441517
0.438293
0.434145
0.429235
0.423711
0.417756
0.411372
0.404096
0.397757
0.417041
0.422546
0.426153
0.427953
0.428145
0.426951
0.424586
0.421244
0.417088
0.412273
0.406985
0.401231
0.394504
0.388707
0.403599
0.408308
0.411156
0.412336
0.412072
0.410579
0.408055
0.404668
0.400571
0.395962
0.390847
0.384678
0.379427
0.384313
0.390138
0.394046
0.396227
0.396904
0.396296
0.394602
0.391992
0.388625
0.384701
0.380236
0.374633
0.369925
0.364724
0.371673
0.376653
0.379845
0.381474
0.38176
0.380904
0.379081
0.37645
0.373221
0.369411
0.364379
0.360211
0.352948
0.359006
0.363219
0.365807
0.366994
0.366985
0.365955
0.364067
0.361536
0.358387
0.35393
0.350296
0.333996
0.341138
0.346375
0.349929
0.352024
0.352866
0.352635
0.351494
0.349665
0.34718
0.343298
0.340187
0.323078
0.329344
0.333867
0.336873
0.33857
0.33914
0.338749
0.337624
0.335805
0.332497
0.329892
0.304859
0.312154
0.317648
0.321566
0.32412
0.325494
0.325853
0.325432
0.324279
0.321539
0.319418
0.294835
0.301298
0.306128
0.309539
0.311717
0.312826
0.313108
0.31262
0.310441
0.308771
0.277414
0.284844
0.290585
0.294851
0.297831
0.299689
0.30067
0.300848
0.299222
0.297954
0.259923
0.268315
0.274961
0.28008
0.283859
0.286462
0.288139
0.288986
0.287909
0.28697
0.251736
0.259283
0.265249
0.269824
0.273168
0.275533
0.277057
0.276545
0.275824
0.243575
0.250381
0.255748
0.25983
0.262873
0.265081
0.265209
0.264516
0.227862
0.235501
0.241654
0.246471
0.250175
0.253053
0.254005
0.252945
0.220631
0.227563
0.233116
0.237468
0.240973
0.243257
0.242132
0.205794
0.213496
0.219786
0.2248
0.228868
0.232236
0.233007
0.199474
0.206494
0.212191
0.216826
0.221027
0.223536
0.185514
0.193252
0.199638
0.20487
0.209733
0.21341
0.180075
0.187138
0.192982
0.198448
0.202951
0.174699
0.181154
0.1872
0.1924
0.169388
0.175993
0.181822
0.157698
0.164835
0.171236
0.153742
0.160675
0.150167
0.239969
0.23027
0.220518
0.210922
0.201019
0.190992
0.18099
0.171015
0.161077
0.151201
0.141408
0.234673
0.224859
0.214528
0.205111
0.195605
0.185938
0.176334
0.166813
0.157352
0.147966
0.138671
0.228181
0.218384
0.207902
0.198727
0.189708
0.180504
0.171348
0.162305
0.15334
0.144449
0.135648
0.221331
0.211843
0.201612
0.192796
0.184274
0.175556
0.16685
0.158263
0.149765
0.14134
0.133002
0.214528
0.205476
0.195634
0.187198
0.179129
0.170874
0.162603
0.154452
0.146397
0.138417
0.13052
0.207977
0.199373
0.189968
0.181911
0.174262
0.166445
0.158599
0.150865
0.143233
0.135677
0.128199
0.201712
0.193535
0.184589
0.176914
0.16966
0.162262
0.154827
0.147495
0.140266
0.133112
0.126031
0.195735
0.187966
0.179484
0.172191
0.165316
0.158315
0.151274
0.144328
0.137482
0.130708
0.124004
0.190049
0.182675
0.174652
0.167734
0.161219
0.154595
0.147931
0.141352
0.134868
0.128455
0.122106
0.184658
0.177663
0.170084
0.163529
0.157357
0.15109
0.144783
0.138554
0.132414
0.12634
0.120327
0.179555
0.172923
0.16577
0.159564
0.153718
0.147788
0.14182
0.135921
0.130106
0.124353
0.118656
0.174731
0.168446
0.161699
0.155826
0.150289
0.144678
0.139029
0.133444
0.127935
0.122485
0.117086
0.170175
0.164219
0.157859
0.152301
0.147057
0.141747
0.136401
0.131111
0.125892
0.120726
0.115608
0.165873
0.160232
0.154236
0.148979
0.144011
0.138984
0.133923
0.128912
0.123966
0.119069
0.114214
0.161814
0.15647
0.150819
0.145846
0.141139
0.136379
0.131586
0.126838
0.122149
0.117504
0.112898
0.157983
0.152922
0.147596
0.142891
0.13843
0.133922
0.129382
0.124881
0.120433
0.116026
0.111653
0.154369
0.149576
0.144555
0.140103
0.135874
0.131602
0.127299
0.123031
0.118811
0.114627
0.110474
0.15096
0.14642
0.141686
0.137471
0.133461
0.12941
0.125331
0.121282
0.117276
0.113302
0.109355
0.147742
0.143442
0.138976
0.134986
0.131181
0.127339
0.12347
0.119627
0.115821
0.112044
0.108292
0.144706
0.140631
0.136418
0.132638
0.129025
0.12538
0.121708
0.118058
0.114441
0.11085
0.10728
0.141839
0.137977
0.134
0.130418
0.126987
0.123525
0.120038
0.11657
0.113131
0.109714
0.106316
0.139133
0.135471
0.131715
0.128318
0.125058
0.121768
0.118456
0.115158
0.111886
0.108633
0.105396
0.136576
0.133103
0.129553
0.12633
0.12323
0.120103
0.116954
0.113816
0.110701
0.107603
0.104517
0.13416
0.130865
0.127508
0.124448
0.121499
0.118524
0.115527
0.112541
0.109573
0.10662
0.103677
0.131876
0.128748
0.125572
0.122665
0.119857
0.117025
0.114172
0.111327
0.108498
0.105681
0.102873
0.129716
0.126746
0.123738
0.120974
0.118299
0.115601
0.112883
0.110171
0.107472
0.104784
0.102102
0.127673
0.124851
0.122
0.119371
0.11682
0.114248
0.111657
0.10907
0.106494
0.103926
0.101363
0.12574
0.123056
0.120352
0.117849
0.115415
0.112962
0.11049
0.10802
0.105559
0.103105
0.100655
0.12391
0.121357
0.11879
0.116405
0.114081
0.111738
0.109378
0.107019
0.104667
0.102319
0.0999747
0.122177
0.119747
0.117308
0.115033
0.112813
0.110574
0.108319
0.106064
0.103814
0.101567
0.0993221
0.120536
0.118221
0.115902
0.11373
0.111607
0.109467
0.10731
0.105153
0.102999
0.100847
0.0986956
0.118981
0.116775
0.114568
0.112493
0.110461
0.108413
0.106349
0.104283
0.102219
0.100157
0.117509
0.115404
0.113301
0.111318
0.109371
0.10741
0.105433
0.103453
0.101475
0.0994963
0.116114
0.114105
0.1121
0.110201
0.108335
0.106455
0.10456
0.102661
0.100763
0.0988638
0.114793
0.112873
0.110959
0.109141
0.107351
0.105546
0.103728
0.101906
0.100083
0.0982584
0.113542
0.111706
0.109878
0.108134
0.106415
0.104682
0.102936
0.101185
0.0994334
0.0976792
0.112358
0.110601
0.108852
0.107178
0.105526
0.10386
0.102182
0.100499
0.0988135
0.0971255
0.111238
0.109555
0.10788
0.106272
0.104682
0.103079
0.101465
0.0998448
0.0982222
0.0965964
0.110179
0.108565
0.106959
0.105412
0.103881
0.102338
0.100783
0.0992223
0.0976587
0.0960914
0.109178
0.107629
0.106087
0.104598
0.103122
0.101634
0.100135
0.0986303
0.097122
0.0956098
0.108233
0.106744
0.105263
0.103828
0.102403
0.100967
0.0995203
0.0980679
0.0966116
0.095151
0.107343
0.10591
0.104485
0.1031
0.101723
0.100335
0.0989378
0.0975344
0.0961268
0.0947146
0.106504
0.105124
0.103751
0.102412
0.10108
0.0997382
0.0983866
0.097029
0.0956669
0.0943002
0.105715
0.104385
0.10306
0.101765
0.100474
0.0991747
0.0978659
0.096551
0.0952315
0.0939072
0.104976
0.103691
0.102411
0.101156
0.0999043
0.098644
0.0973749
0.0960999
0.09482
0.0935353
0.104284
0.103041
0.101802
0.100584
0.099369
0.0981452
0.0969131
0.0956751
0.0944321
0.0931843
0.103638
0.102434
0.101233
0.10005
0.0988679
0.0976779
0.0964799
0.0952761
0.0940674
0.0928537
0.103037
0.101869
0.100703
0.0995515
0.0984002
0.0972413
0.0960748
0.0949026
0.0937255
0.0925434
0.102481
0.101345
0.100211
0.0990886
0.0979654
0.096835
0.0956974
0.0945542
0.0934061
0.0922531
0.101968
0.100862
0.0997572
0.0986608
0.0975632
0.0964587
0.0953474
0.0942307
0.093109
0.0919826
0.101499
0.10042
0.0993406
0.0982678
0.0971932
0.0961121
0.0950246
0.0939318
0.0928341
0.0917318
0.101073
0.100017
0.0989611
0.0979094
0.0968552
0.095795
0.0947288
0.0936574
0.0925813
0.0915007
0.10069
0.099655
0.0986189
0.0975855
0.0965494
0.0955076
0.09446
0.0934076
0.0923506
0.0912892
0.10035
0.099333
0.098314
0.0972964
0.0962758
0.0952498
0.0942184
0.0931824
0.092142
0.0910973
0.100054
0.0990517
0.098047
0.0970425
0.0960348
0.0950221
0.0940044
0.0929822
0.0919559
0.0909255
0.0998024
0.0988118
0.0978184
0.0968242
0.0958268
0.0948246
0.0938179
0.0928069
0.091792
0.0907733
0.0995969
0.0986148
0.0976297
0.0966432
0.0956534
0.0946592
0.0936608
0.0926585
0.0916525
0.0906429
0.0994381
0.0984609
0.0974807
0.0964986
0.0955134
0.0945241
0.093531
0.0925342
0.0915339
0.0905303
0.0993305
0.0983553
0.0973773
0.0963973
0.0954143
0.0944277
0.0934377
0.0924443
0.0914478
0.0904483
0.0992714
0.0982933
0.0973122
0.0963291
0.0953432
0.0943541
0.0933618
0.0923666
0.0913686
0.0903679
0.242109
0.24273
0.243969
0.245734
0.247995
0.250708
0.253846
0.257378
0.261273
0.265497
0.270013
0.274772
0.279722
0.284793
0.289909
0.294969
0.299869
0.304462
0.308611
0.312114
0.314806
0.316406
0.316753
0.315435
0.312399
0.306937
0.299443
0.288233
0.275306
0.254176
0.241719
0.242326
0.243538
0.245263
0.247471
0.250118
0.253174
0.256606
0.260383
0.264466
0.268817
0.273383
0.278109
0.282921
0.287739
0.292458
0.296969
0.301124
0.304782
0.30774
0.309835
0.310788
0.310445
0.308407
0.304631
0.298445
0.290222
0.278442
0.264808
0.245359
0.241309
0.241902
0.243084
0.244766
0.246915
0.249488
0.252454
0.255777
0.259425
0.263357
0.267531
0.271892
0.276382
0.280924
0.285435
0.289807
0.293931
0.297656
0.300844
0.303293
0.304846
0.305233
0.304314
0.301706
0.297395
0.290738
0.282144
0.270236
0.25674
0.238842
0.240877
0.241455
0.242606
0.244241
0.246329
0.248824
0.251695
0.254904
0.258416
0.262189
0.266178
0.270326
0.27457
0.278832
0.283027
0.287044
0.290772
0.29406
0.296773
0.298711
0.299726
0.299555
0.298077
0.294926
0.290112
0.283041
0.274135
0.262209
0.248854
0.231821
0.240424
0.240985
0.242103
0.243691
0.245714
0.248129
0.250901
0.253992
0.257365
0.260975
0.264774
0.268703
0.272698
0.276675
0.280549
0.284207
0.287537
0.29039
0.29263
0.294064
0.29455
0.293838
0.291819
0.288153
0.282866
0.275423
0.266238
0.254314
0.241038
0.224617
0.239947
0.240492
0.241575
0.243114
0.24507
0.247402
0.250072
0.253042
0.256271
0.259713
0.263318
0.267024
0.270765
0.274455
0.278006
0.281305
0.284239
0.28666
0.288436
0.289381
0.289358
0.288132
0.285606
0.281467
0.275756
0.268002
0.258595
0.24671
0.233551
0.217699
0.239447
0.239975
0.241022
0.242509
0.244397
0.246642
0.249207
0.252051
0.255132
0.258402
0.261809
0.265288
0.26877
0.27217
0.275396
0.278336
0.280877
0.282873
0.284197
0.284667
0.284158
0.282447
0.279451
0.274888
0.268806
0.260801
0.251233
0.239433
0.226446
0.211143
0.238923
0.239432
0.240443
0.241876
0.243693
0.245849
0.248305
0.251019
0.253949
0.257043
0.260246
0.263494
0.266715
0.269821
0.272722
0.275304
0.277455
0.279034
0.279916
0.27993
0.278956
0.276791
0.273362
0.268419
0.262016
0.253813
0.244141
0.232462
0.219686
0.204904
0.238374
0.238865
0.239837
0.241215
0.242957
0.245021
0.247365
0.249946
0.25272
0.255633
0.25863
0.261644
0.2646
0.267412
0.269987
0.272212
0.273979
0.275149
0.275602
0.275177
0.273763
0.271174
0.267348
0.262069
0.255392
0.247039
0.23731
0.225781
0.213242
0.198962
0.237799
0.238271
0.239203
0.240523
0.24219
0.244158
0.246387
0.248831
0.251445
0.254175
0.256962
0.259737
0.262427
0.264943
0.267193
0.269065
0.270453
0.271224
0.271263
0.270418
0.268589
0.265607
0.261421
0.255846
0.24894
0.24048
0.230737
0.219382
0.207101
0.193311
0.237198
0.237649
0.238541
0.239802
0.24139
0.24326
0.24537
0.247675
0.250125
0.252667
0.255241
0.257776
0.260198
0.262417
0.264344
0.265868
0.266885
0.267267
0.266907
0.265664
0.263445
0.260101
0.255591
0.249759
0.242665
0.234138
0.224419
0.21326
0.201257
0.187947
0.23657
0.237001
0.23785
0.239049
0.240556
0.242326
0.244314
0.246475
0.24876
0.251111
0.253469
0.255761
0.257914
0.259838
0.261444
0.262624
0.263279
0.263285
0.262543
0.260922
0.258339
0.254664
0.249865
0.243814
0.236573
0.228013
0.218352
0.207407
0.195697
0.18286
0.235914
0.236323
0.237129
0.238265
0.239689
0.241355
0.243219
0.245234
0.247349
0.249507
0.251646
0.253695
0.255578
0.257209
0.258497
0.25934
0.259641
0.259285
0.258178
0.256201
0.253281
0.249306
0.244252
0.238018
0.230666
0.222104
0.212532
0.201817
0.190412
0.178039
0.235231
0.235617
0.236378
0.23745
0.238788
0.240347
0.242085
0.24395
0.245893
0.247855
0.249774
0.251579
0.253193
0.254532
0.255508
0.256021
0.255979
0.255275
0.253821
0.251511
0.24828
0.244035
0.238758
0.232374
0.224945
0.216411
0.206952
0.19648
0.185391
0.173474
0.234518
0.234882
0.235597
0.236601
0.237852
0.239303
0.24091
0.242624
0.244393
0.246157
0.247855
0.249414
0.250762
0.251812
0.25248
0.252672
0.252299
0.251261
0.24948
0.246859
0.243344
0.238858
0.23339
0.226888
0.219413
0.210932
0.201609
0.19139
0.180623
0.169153
0.233776
0.234117
0.234784
0.23572
0.236881
0.238222
0.239697
0.241257
0.242848
0.244414
0.245889
0.247205
0.248286
0.249052
0.24942
0.249299
0.248607
0.247252
0.245162
0.242253
0.238481
0.233781
0.228153
0.221562
0.214069
0.205663
0.196495
0.186539
0.176097
0.165064
0.233004
0.233321
0.23394
0.234806
0.235876
0.237103
0.238444
0.239848
0.241261
0.242626
0.24388
0.244952
0.245771
0.246256
0.24633
0.245907
0.244909
0.243253
0.240875
0.237702
0.233697
0.228812
0.223051
0.216397
0.208912
0.200602
0.191604
0.181917
0.171803
0.161195
0.232202
0.232494
0.233064
0.233859
0.234835
0.235948
0.237152
0.238398
0.239632
0.240796
0.241828
0.242659
0.243219
0.24343
0.243218
0.242503
0.241213
0.239273
0.236626
0.233211
0.228999
0.223954
0.218088
0.211397
0.203942
0.195745
0.186931
0.177516
0.167729
0.157536
0.23137
0.231637
0.232156
0.232878
0.233759
0.234756
0.235822
0.236909
0.237963
0.238926
0.239737
0.240329
0.240633
0.240576
0.240088
0.239092
0.237525
0.235318
0.232422
0.228788
0.224392
0.219214
0.213267
0.206561
0.199157
0.191087
0.182468
0.173328
0.163866
0.154075
0.230507
0.230748
0.231217
0.231864
0.232649
0.233527
0.234454
0.235381
0.236254
0.237017
0.237609
0.237964
0.238018
0.237701
0.236944
0.235681
0.233851
0.231395
0.22827
0.224438
0.219883
0.214593
0.208589
0.201889
0.194554
0.186625
0.178208
0.169344
0.160204
0.150801
0.229613
0.229829
0.230244
0.230817
0.231503
0.232263
0.23305
0.233815
0.234508
0.235071
0.235446
0.235569
0.235379
0.234808
0.233794
0.232275
0.230197
0.22751
0.224177
0.220168
0.215476
0.210097
0.204056
0.19738
0.19013
0.182352
0.174144
0.165555
0.156731
0.147704
0.228689
0.228877
0.22924
0.229736
0.230324
0.230963
0.231609
0.232213
0.232726
0.233091
0.233251
0.233147
0.232718
0.231902
0.230642
0.22888
0.22657
0.223669
0.220146
0.215982
0.211174
0.205727
0.199669
0.193034
0.185882
0.178264
0.170269
0.161952
0.153439
0.144773
0.227733
0.227895
0.228204
0.228623
0.229111
0.229629
0.230133
0.230577
0.23091
0.231078
0.231028
0.230701
0.23004
0.228989
0.227493
0.225502
0.222976
0.219877
0.216185
0.211885
0.206981
0.201485
0.195428
0.188849
0.181806
0.174355
0.166575
0.158528
0.150318
0.142
0.226747
0.226881
0.227137
0.227477
0.227865
0.228261
0.228624
0.228907
0.229062
0.229037
0.22878
0.228236
0.227351
0.226073
0.224353
0.222147
0.219419
0.216142
0.212298
0.207881
0.2029
0.197372
0.191332
0.184822
0.177899
0.170619
0.163056
0.155273
0.147359
0.139376
0.225731
0.225837
0.226038
0.2263
0.226587
0.226862
0.227083
0.227207
0.227186
0.22697
0.22651
0.225755
0.224654
0.223159
0.221227
0.218819
0.215907
0.212467
0.208489
0.203973
0.198932
0.19339
0.187381
0.180952
0.174155
0.167051
0.159705
0.152181
0.144554
0.136891
0.224684
0.224763
0.224909
0.225092
0.225278
0.225431
0.225512
0.225477
0.225282
0.22488
0.224223
0.223263
0.221954
0.220252
0.21812
0.215525
0.212443
0.208857
0.204762
0.200165
0.195081
0.189538
0.183574
0.177234
0.170571
0.163644
0.156514
0.149243
0.141894
0.134538
0.223609
0.223659
0.22375
0.223854
0.223939
0.223971
0.223912
0.223721
0.223355
0.22277
0.221921
0.220763
0.219255
0.217358
0.215038
0.21227
0.209032
0.205316
0.201121
0.196458
0.191347
0.185817
0.179908
0.173666
0.167142
0.160394
0.153476
0.146453
0.139372
0.132309
0.222505
0.222527
0.222562
0.222587
0.222571
0.222483
0.222285
0.22194
0.221407
0.220643
0.219608
0.218261
0.216563
0.214481
0.211986
0.209057
0.20568
0.201849
0.19757
0.192856
0.18773
0.182226
0.176381
0.170244
0.163863
0.157294
0.150586
0.143802
0.136981
0.130198
0.221373
0.221367
0.221347
0.221293
0.221177
0.220969
0.220635
0.220139
0.219441
0.218504
0.217289
0.21576
0.213881
0.211626
0.208968
0.205893
0.20239
0.198459
0.19411
0.189359
0.184232
0.178764
0.172992
0.166966
0.160729
0.154338
0.147836
0.141284
0.134713
0.128198
0.220214
0.22018
0.220106
0.219973
0.219758
0.219432
0.218963
0.218318
0.217461
0.216356
0.214968
0.213265
0.211216
0.208797
0.205989
0.202781
0.199166
0.19515
0.190744
0.185969
0.180852
0.175429
0.169738
0.163826
0.157736
0.151522
0.145221
0.138894
0.132563
0.126302
0.219031
0.218968
0.218839
0.218629
0.218315
0.217873
0.217272
0.216482
0.21547
0.214202
0.212649
0.21078
0.20857
0.206
0.203054
0.199725
0.196012
0.191924
0.187474
0.182687
0.177591
0.172221
0.166617
0.160823
0.15488
0.148839
0.142735
0.136624
0.130524
0.124505
0.217823
0.217733
0.21755
0.217263
0.216852
0.216295
0.215565
0.214634
0.213471
0.212047
0.210336
0.20831
0.20595
0.203239
0.200167
0.19673
0.192932
0.188784
0.184302
0.179514
0.174447
0.169138
0.163625
0.157951
0.152155
0.146284
0.140372
0.13447
0.12859
0.122802
0.216594
0.216476
0.21624
0.215876
0.21537
0.214701
0.213845
0.212777
0.211469
0.209895
0.208033
0.20586
0.203359
0.200518
0.197332
0.193799
0.189928
0.185731
0.181229
0.176449
0.171419
0.166177
0.160759
0.155207
0.149557
0.143854
0.138126
0.132425
0.126757
0.121188
0.215344
0.215199
0.21491
0.214472
0.213873
0.213094
0.212116
0.210914
0.209467
0.20775
0.205745
0.203433
0.200802
0.197842
0.194552
0.190936
0.187003
0.182769
0.178257
0.173493
0.168508
0.163338
0.158017
0.152587
0.147081
0.141541
0.135994
0.130485
0.125019
0.119659
0.214077
0.213905
0.213564
0.213053
0.212362
0.211477
0.21038
0.20905
0.207469
0.205616
0.203476
0.201035
0.198282
0.195215
0.191833
0.188144
0.184159
0.179899
0.175385
0.170645
0.165711
0.160617
0.155396
0.150088
0.144724
0.139343
0.133969
0.128645
0.123371
0.118209
0.212794
0.212595
0.212205
0.211622
0.210842
0.209853
0.208641
0.207189
0.20548
0.203498
0.201231
0.198669
0.195806
0.19264
0.189177
0.185425
0.1814
0.177122
0.172614
0.167906
0.163027
0.158012
0.152893
0.147706
0.142481
0.137255
0.132047
0.1269
0.12181
0.116836
0.211498
0.211274
0.210834
0.210182
0.209315
0.208226
0.206904
0.205334
0.203503
0.2014
0.199014
0.196341
0.193376
0.190122
0.186587
0.182783
0.178726
0.174439
0.169945
0.165274
0.160455
0.155522
0.150504
0.145438
0.140348
0.135272
0.130225
0.125247
0.120332
0.115536
0.210192
0.209943
0.209455
0.208735
0.207785
0.2066
0.205171
0.203489
0.201543
0.199326
0.19683
0.194053
0.190996
0.187665
0.184068
0.18022
0.176141
0.171851
0.167378
0.162749
0.157993
0.153143
0.148228
0.143279
0.138323
0.13339
0.128497
0.123681
0.118933
0.114305
0.20888
0.208606
0.208072
0.207287
0.206256
0.204979
0.203449
0.20166
0.199606
0.197281
0.194683
0.191812
0.188672
0.185271
0.181621
0.177739
0.173644
0.16936
0.164913
0.16033
0.155641
0.150875
0.146061
0.141228
0.1364
0.131607
0.126862
0.122198
0.117609
0.113141
0.207565
0.207267
0.206688
0.20584
0.204732
0.203366
0.20174
0.19985
0.197694
0.19527
0.192577
0.189621
0.186406
0.182945
0.17925
0.175341
0.171239
0.166966
0.162549
0.158017
0.153395
0.148714
0.144
0.13928
0.134577
0.129917
0.125314
0.120797
0.116358
0.112041
0.20625
0.20593
0.205308
0.204399
0.203217
0.201767
0.200049
0.198065
0.195813
0.193297
0.190518
0.187483
0.184203
0.180689
0.176958
0.17303
0.168925
0.16467
0.160288
0.155808
0.151256
0.146659
0.142043
0.137434
0.132851
0.12832
0.123851
0.119473
0.115176
0.111002
0.20494
0.204598
0.203934
0.202969
0.201716
0.200186
0.198382
0.196309
0.193969
0.191366
0.188509
0.185405
0.182066
0.178508
0.174748
0.170806
0.166706
0.162471
0.158128
0.153703
0.14922
0.144708
0.140188
0.135685
0.131218
0.12681
0.12247
0.118224
0.114062
0.110022
0.20364
0.203276
0.202573
0.201553
0.200233
0.198627
0.196743
0.194587
0.192164
0.189484
0.186555
0.183389
0.179999
0.176404
0.172621
0.168672
0.164581
0.160372
0.15607
0.1517
0.147288
0.142858
0.138432
0.134033
0.129677
0.125386
0.121168
0.117047
0.113012
0.1091
0.202353
0.20197
0.201229
0.200157
0.198774
0.197097
0.195137
0.192904
0.190406
0.187654
0.184661
0.18144
0.178006
0.17438
0.17058
0.16663
0.162552
0.158372
0.154113
0.1498
0.145458
0.141109
0.136774
0.132474
0.128224
0.124045
0.119943
0.115939
0.112026
0.108232
0.201085
0.200683
0.199907
0.198786
0.197344
0.195601
0.19357
0.191266
0.188699
0.185882
0.182831
0.179562
0.176091
0.17244
0.168629
0.164682
0.160621
0.156472
0.152257
0.148002
0.143728
0.139458
0.135211
0.131006
0.126858
0.122785
0.118792
0.1149
0.111099
0.107418
0.199842
0.199422
0.198613
0.197445
0.195948
0.194143
0.192048
0.189677
0.187047
0.184173
0.181071
0.177759
0.174258
0.170587
0.16677
0.162829
0.158788
0.154672
0.150503
0.146305
0.142098
0.137905
0.133742
0.129629
0.125577
0.121604
0.117715
0.113927
0.110232
0.106656
0.198629
0.198192
0.197352
0.196141
0.194593
0.19273
0.190575
0.188145
0.185458
0.182531
0.179384