/*--------------------------------*- C++ -*----------------------------------*\
  =========                 |
  \\      /  F ield         | OpenFOAM: The Open Source CFD Toolbox
   \\    /   O peration     | Website:  https://openfoam.org
    \\  /    A nd           | Version:  7
     \\/     M anipulation  |
\*---------------------------------------------------------------------------*/
FoamFile
{
    version     2.0;
    format      ascii;
    class       volScalarField;
    location    "35";
    object      p;
}
// * * * * * * * * * * * * * * * * * * * * * * * * * * * * * * * * * * * * * //

dimensions      [0 2 -2 0 0 0 0];

internalField   nonuniform List<scalar> 
9950
(
-0.189555
-0.191677
-0.192545
-0.193343
-0.194001
-0.194582
-0.195102
-0.195561
-0.195973
-0.196281
-0.189686
-0.191793
-0.192652
-0.193442
-0.194091
-0.194663
-0.195174
-0.195622
-0.196025
-0.196307
-0.189948
-0.192023
-0.192867
-0.19364
-0.194272
-0.194826
-0.195318
-0.195744
-0.196128
-0.196356
-0.190338
-0.192366
-0.193186
-0.193933
-0.19454
-0.195068
-0.19553
-0.195923
-0.196277
-0.196422
-0.190851
-0.192819
-0.193607
-0.19432
-0.194892
-0.195384
-0.195806
-0.196153
-0.196469
-0.196495
-0.191483
-0.193376
-0.194125
-0.194794
-0.195322
-0.195769
-0.196141
-0.196427
-0.196698
-0.196562
-0.192227
-0.194035
-0.194736
-0.195353
-0.195827
-0.196217
-0.196528
-0.196738
-0.196955
-0.196606
-0.193077
-0.194789
-0.195435
-0.195989
-0.1964
-0.196723
-0.196959
-0.197075
-0.197236
-0.196605
-0.194027
-0.195632
-0.196215
-0.196698
-0.197035
-0.197279
-0.197429
-0.197429
-0.197536
-0.196535
-0.195069
-0.19656
-0.197072
-0.197474
-0.197725
-0.19788
-0.19793
-0.197791
-0.197849
-0.196365
-0.196198
-0.197567
-0.198
-0.19831
-0.198465
-0.198518
-0.198457
-0.19815
-0.198177
-0.196051
-0.197406
-0.198648
-0.198994
-0.199201
-0.199248
-0.199187
-0.199004
-0.198501
-0.198528
-0.19554
-0.19869
-0.1998
-0.200049
-0.200143
-0.20007
-0.199884
-0.199568
-0.198837
-0.198915
-0.194879
-0.200046
-0.20102
-0.201163
-0.201131
-0.200926
-0.200603
-0.200146
-0.19915
-0.199258
-0.194181
-0.201472
-0.202305
-0.202332
-0.202163
-0.201812
-0.20134
-0.200735
-0.199469
-0.199502
-0.193369
-0.202968
-0.203656
-0.203555
-0.203234
-0.202725
-0.202094
-0.20133
-0.199839
-0.199725
-0.192348
-0.204537
-0.205074
-0.204834
-0.204345
-0.203663
-0.202861
-0.201919
-0.200217
-0.199979
-0.19114
-0.206182
-0.206562
-0.206168
-0.205496
-0.204623
-0.203643
-0.20251
-0.200599
-0.200244
-0.189803
-0.207912
-0.208127
-0.207563
-0.206688
-0.205607
-0.204434
-0.2031
-0.201007
-0.200476
-0.188417
-0.209736
-0.209776
-0.209025
-0.207924
-0.206616
-0.205237
-0.203681
-0.201461
-0.200618
-0.187112
-0.211669
-0.21152
-0.21056
-0.209215
-0.207654
-0.206052
-0.204245
-0.201979
-0.200588
-0.186048
-0.213727
-0.213372
-0.21218
-0.210566
-0.208729
-0.206886
-0.204787
-0.202578
-0.200275
-0.185306
-0.215931
-0.215343
-0.213905
-0.211991
-0.209854
-0.20775
-0.205315
-0.203274
-0.19956
-0.184774
-0.218305
-0.217456
-0.215745
-0.213507
-0.211044
-0.208658
-0.205853
-0.204074
-0.198458
-0.184965
-0.220878
-0.219731
-0.217722
-0.215134
-0.212321
-0.209629
-0.206439
-0.204901
-0.197343
-0.189294
-0.223674
-0.222192
-0.219857
-0.216895
-0.213711
-0.210686
-0.207112
-0.205568
-0.196651
-0.201291
-0.226723
-0.224865
-0.222175
-0.218815
-0.21524
-0.211854
-0.207905
-0.206026
-0.196672
-0.201359
-0.230059
-0.227774
-0.224701
-0.220922
-0.216939
-0.21316
-0.208836
-0.206337
-0.196938
-0.199502
-0.233713
-0.230943
-0.227463
-0.223243
-0.218837
-0.21463
-0.209902
-0.206622
-0.197226
-0.197571
-0.237716
-0.234401
-0.230487
-0.225807
-0.220962
-0.216288
-0.211097
-0.206936
-0.197436
-0.195431
-0.242096
-0.238172
-0.2338
-0.22864
-0.223336
-0.218149
-0.212414
-0.207287
-0.197486
-0.193198
-0.246881
-0.24228
-0.237427
-0.231768
-0.225976
-0.220221
-0.213847
-0.207662
-0.19733
-0.190909
-0.252092
-0.246748
-0.241393
-0.235214
-0.228896
-0.222503
-0.215382
-0.208031
-0.196942
-0.18857
-0.257747
-0.251595
-0.245719
-0.238996
-0.232101
-0.224987
-0.216989
-0.208351
-0.196305
-0.186162
-0.263861
-0.256837
-0.250425
-0.243126
-0.235589
-0.227656
-0.218629
-0.208573
-0.195412
-0.183658
-0.27044
-0.262488
-0.255524
-0.247611
-0.23935
-0.230478
-0.220246
-0.208649
-0.194255
-0.181028
-0.277484
-0.268553
-0.261023
-0.252445
-0.243367
-0.233407
-0.22178
-0.208531
-0.19283
-0.178241
-0.284984
-0.275033
-0.266921
-0.257615
-0.247607
-0.236381
-0.223165
-0.208177
-0.19113
-0.175268
-0.292922
-0.281918
-0.273206
-0.263095
-0.25202
-0.239321
-0.224336
-0.207547
-0.189142
-0.17208
-0.301266
-0.289191
-0.279851
-0.268845
-0.256537
-0.242142
-0.225231
-0.206604
-0.186855
-0.168651
-0.309976
-0.296818
-0.286817
-0.274808
-0.261073
-0.244754
-0.22579
-0.205315
-0.184249
-0.164953
-0.318993
-0.304755
-0.294048
-0.280911
-0.265522
-0.247067
-0.225958
-0.203646
-0.181305
-0.160961
-0.328245
-0.312939
-0.301472
-0.287059
-0.26977
-0.24899
-0.225679
-0.201564
-0.177999
-0.156648
-0.337645
-0.321292
-0.308998
-0.293137
-0.273696
-0.250438
-0.224902
-0.199035
-0.174305
-0.151987
-0.347088
-0.329718
-0.316521
-0.299013
-0.277177
-0.251327
-0.223577
-0.196025
-0.170194
-0.146954
-0.356453
-0.338106
-0.323913
-0.304541
-0.28009
-0.251578
-0.221653
-0.192498
-0.165639
-0.141522
-0.365606
-0.346326
-0.331032
-0.309565
-0.282317
-0.251117
-0.219085
-0.188422
-0.160608
-0.135667
-0.374396
-0.354235
-0.33772
-0.313929
-0.283744
-0.249873
-0.215826
-0.183759
-0.155072
-0.129366
-0.38266
-0.361677
-0.343807
-0.317475
-0.284264
-0.247781
-0.21183
-0.178476
-0.149002
-0.122597
-0.390227
-0.368485
-0.349113
-0.320051
-0.283778
-0.244777
-0.207055
-0.172538
-0.142369
-0.115341
-0.396919
-0.374484
-0.353457
-0.321512
-0.282195
-0.240804
-0.201461
-0.165914
-0.135147
-0.107581
-0.402551
-0.379494
-0.356659
-0.321725
-0.279431
-0.235812
-0.195011
-0.158573
-0.12731
-0.099299
-0.406941
-0.383333
-0.358544
-0.320568
-0.275414
-0.229752
-0.187669
-0.150487
-0.118837
-0.0904806
-0.409909
-0.385821
-0.35895
-0.317932
-0.270079
-0.222584
-0.179405
-0.141632
-0.109709
-0.0811186
-0.411282
-0.386783
-0.357728
-0.313724
-0.263373
-0.214273
-0.170193
-0.131984
-0.0999142
-0.0712158
-0.410898
-0.386055
-0.354745
-0.307865
-0.255252
-0.204791
-0.16001
-0.121524
-0.0894367
-0.0607692
-0.408605
-0.383484
-0.349888
-0.300292
-0.245683
-0.194117
-0.14884
-0.110237
-0.0782599
-0.0497244
-0.40427
-0.378935
-0.343065
-0.290957
-0.234644
-0.182237
-0.136676
-0.0981235
-0.066372
-0.0379487
-0.397775
-0.37229
-0.334205
-0.279831
-0.222122
-0.169148
-0.123516
-0.0851906
-0.0537908
-0.0253464
-0.389024
-0.363456
-0.323257
-0.266897
-0.208118
-0.154851
-0.10936
-0.0714383
-0.0405565
-0.0121163
-0.377942
-0.352361
-0.310191
-0.252158
-0.192641
-0.139354
-0.0942163
-0.0568683
-0.0266284
0.00142665
-0.364477
-0.338958
-0.294997
-0.235627
-0.175711
-0.122676
-0.0781095
-0.0415487
-0.0119582
0.0153428
-0.348599
-0.323225
-0.277685
-0.217333
-0.157358
-0.104843
-0.0610841
-0.0254758
0.00336978
0.0297154
-0.330303
-0.305164
-0.258286
-0.197321
-0.137617
-0.0859022
-0.0431686
-0.00865712
0.019296
0.044559
-0.309606
-0.284799
-0.236849
-0.17565
-0.116537
-0.0659062
-0.0243856
0.00887155
0.035785
0.0598513
-0.286549
-0.262181
-0.213451
-0.152388
-0.0941919
-0.0448772
-0.00478225
0.0270675
0.0528044
0.0755521
-0.261194
-0.237385
-0.188202
-0.127581
-0.0706363
-0.0228856
0.0155896
0.0458838
0.070316
0.091608
-0.233625
-0.210515
-0.161205
-0.101281
-0.0459558
1.44799e-07
0.0366718
0.0652701
0.0882733
0.107948
-0.203951
-0.181707
-0.132421
-0.0736869
-0.0202259
0.0237076
0.058401
0.0851724
0.106624
0.124495
-0.172304
-0.151132
-0.101833
-0.0449514
0.00644293
0.0481574
0.0807082
0.105534
0.125323
0.141191
-0.138806
-0.118838
-0.0697995
-0.0150962
0.0339481
0.0732623
0.10352
0.126301
0.144335
0.157992
-0.103568
-0.0847328
-0.036814
0.0157278
0.062188
0.0989311
0.126763
0.147433
0.163617
0.174687
-0.0667662
-0.0492968
-0.00281439
0.0473742
0.0910527
0.12507
0.150372
0.168907
0.18305
0.190719
-0.0287743
-0.0125536
0.0321129
0.0797012
0.120424
0.151582
0.17429
0.190688
0.202428
0.205624
0.0103726
0.0252122
0.0678173
0.112567
0.150179
0.178368
0.198441
0.212644
0.221545
0.220431
0.0504683
0.0637794
0.104124
0.145823
0.180191
0.205325
0.222716
0.234524
0.240192
0.238713
0.091288
0.102946
0.140849
0.179321
0.210332
0.232344
0.246983
0.256212
0.259112
0.257641
0.132608
0.142507
0.177806
0.212904
0.240474
0.259312
0.271138
0.277723
0.27819
0.276005
0.174203
0.182255
0.214807
0.246419
0.270485
0.286115
0.295085
0.299022
0.297248
0.293934
0.215847
0.221979
0.251664
0.279707
0.300232
0.312638
0.318732
0.32004
0.316101
0.311373
0.257311
0.261467
0.288193
0.312614
0.329586
0.338767
0.341988
0.340698
0.334631
0.328312
0.298368
0.300509
0.324209
0.344985
0.358414
0.364392
0.36476
0.36091
0.352743
0.344722
0.338793
0.338897
0.359532
0.376669
0.386588
0.389404
0.386956
0.380595
0.370359
0.360572
0.378366
0.376428
0.393986
0.407516
0.413982
0.413694
0.408487
0.399671
0.387409
0.375825
0.416871
0.4129
0.427398
0.437382
0.440474
0.437158
0.429263
0.418063
0.403825
0.39044
0.454096
0.448122
0.459603
0.466126
0.465943
0.459696
0.449199
0.435697
0.419548
0.404378
0.489838
0.481907
0.490441
0.493614
0.490277
0.48121
0.468213
0.452502
0.434516
0.417598
0.523905
0.514077
0.519759
0.519717
0.513365
0.501607
0.486224
0.46841
0.448675
0.430059
0.55611
0.544462
0.547412
0.544311
0.535103
0.520798
0.503158
0.483358
0.461968
0.441724
0.586279
0.572904
0.573263
0.567283
0.555393
0.5387
0.518945
0.497286
0.474347
0.452555
0.614249
0.599254
0.597187
0.588523
0.574143
0.555234
0.533517
0.510137
0.485761
0.462517
0.639869
0.623374
0.619065
0.607933
0.591269
0.570329
0.546814
0.521858
0.496167
0.471578
0.663
0.645139
0.638789
0.625423
0.606693
0.583918
0.558779
0.532402
0.505524
0.479709
0.68352
0.664437
0.656265
0.640909
0.620346
0.595942
0.569362
0.541726
0.513794
0.486883
0.701316
0.681166
0.671405
0.65432
0.632165
0.606349
0.578519
0.54979
0.520946
0.493076
0.716294
0.695241
0.684136
0.665592
0.642097
0.615091
0.586209
0.556563
0.52695
0.498268
0.728374
0.706589
0.694396
0.674674
0.650097
0.622132
0.592401
0.562014
0.531782
0.502442
0.737491
0.715152
0.702135
0.681523
0.65613
0.62744
0.597068
0.566123
0.535423
0.505585
0.743595
0.720884
0.707316
0.686107
0.660166
0.630991
0.600191
0.568872
0.537859
0.507686
0.746656
0.723758
0.709912
0.688404
0.662189
0.632771
0.601756
0.570249
0.539079
0.508738
0.746656
0.723758
0.709912
0.688404
0.662189
0.632771
0.601756
0.570249
0.539079
0.508738
0.743595
0.720884
0.707315
0.686107
0.660166
0.630991
0.600191
0.568872
0.537858
0.507686
0.73749
0.715151
0.702135
0.681523
0.656129
0.627439
0.597068
0.566123
0.535423
0.505585
0.728373
0.706588
0.694395
0.674674
0.650097
0.622131
0.592401
0.562014
0.531781
0.502442
0.716293
0.69524
0.684135
0.665591
0.642096
0.61509
0.586209
0.556562
0.526949
0.498268
0.701314
0.681165
0.671403
0.654318
0.632164
0.606348
0.578518
0.54979
0.520945
0.493075
0.683518
0.664435
0.656263
0.640907
0.620344
0.595941
0.569361
0.541725
0.513794
0.486882
0.662998
0.645137
0.638788
0.625421
0.606691
0.583917
0.558778
0.532401
0.505523
0.479708
0.639866
0.623372
0.619063
0.607932
0.591267
0.570328
0.546812
0.521857
0.496166
0.471577
0.614246
0.599252
0.597185
0.588521
0.574141
0.555233
0.533515
0.510135
0.48576
0.462516
0.586276
0.572902
0.573261
0.56728
0.55539
0.538698
0.518943
0.497284
0.474345
0.452553
0.556107
0.544459
0.547409
0.544309
0.5351
0.520796
0.503156
0.483356
0.461967
0.441722
0.523901
0.514074
0.519756
0.519714
0.513362
0.501605
0.486222
0.468408
0.448673
0.430058
0.489835
0.481904
0.490438
0.493611
0.490274
0.481208
0.46821
0.452499
0.434514
0.417596
0.454091
0.448118
0.4596
0.466123
0.46594
0.459693
0.449197
0.435695
0.419546
0.404376
0.416866
0.412896
0.427394
0.437378
0.44047
0.437155
0.429261
0.418061
0.403823
0.390438
0.378362
0.376423
0.393982
0.407512
0.413979
0.41369
0.408484
0.399669
0.387406
0.375823
0.338788
0.338892
0.359528
0.376665
0.386584
0.3894
0.386953
0.380592
0.370357
0.36057
0.298362
0.300504
0.324204
0.344981
0.35841
0.364389
0.364757
0.360907
0.352741
0.34472
0.257305
0.261461
0.288188
0.31261
0.329582
0.338764
0.341984
0.340695
0.334628
0.328309
0.215841
0.221973
0.251659
0.279702
0.300228
0.312634
0.318729
0.320037
0.316098
0.311371
0.174197
0.182249
0.214801
0.246414
0.27048
0.286111
0.295081
0.299019
0.297244
0.293931
0.132601
0.142501
0.1778
0.212899
0.240469
0.259308
0.271134
0.277719
0.278187
0.276002
0.091281
0.102939
0.140843
0.179315
0.210327
0.232339
0.246979
0.256208
0.259108
0.257638
0.0504609
0.0637723
0.104118
0.145818
0.180185
0.20532
0.222712
0.23452
0.240189
0.23871
0.0103649
0.0252048
0.0678106
0.11256
0.150173
0.178363
0.198437
0.212639
0.221541
0.220427
-0.0287823
-0.0125613
0.0321058
0.0796948
0.120418
0.151577
0.174285
0.190684
0.202424
0.20562
-0.0667745
-0.0493048
-0.00282175
0.0473675
0.0910467
0.125064
0.150367
0.168903
0.183046
0.190715
-0.103576
-0.0847411
-0.0368217
0.0157209
0.0621817
0.0989254
0.126758
0.147428
0.163613
0.174683
-0.138815
-0.118846
-0.0698075
-0.0151033
0.0339416
0.0732564
0.103515
0.126296
0.14433
0.157988
-0.172313
-0.151141
-0.101841
-0.0449588
0.00643621
0.0481513
0.0807027
0.105529
0.125318
0.141187
-0.203961
-0.181716
-0.13243
-0.0736946
-0.0202328
0.0237013
0.0583952
0.0851672
0.10662
0.124491
-0.233635
-0.210524
-0.161214
-0.101289
-0.045963
-6.38351e-06
0.0366659
0.0652647
0.0882683
0.107944
-0.261204
-0.237395
-0.188211
-0.127589
-0.0706437
-0.0228923
0.0155834
0.0458782
0.0703109
0.0916033
-0.28656
-0.262191
-0.21346
-0.152396
-0.0941995
-0.0448842
-0.00478859
0.0270617
0.0527991
0.0755473
-0.309617
-0.28481
-0.236859
-0.175658
-0.116545
-0.0659134
-0.0243922
0.00886557
0.0357795
0.0598463
-0.330314
-0.305175
-0.258296
-0.19733
-0.137625
-0.0859096
-0.0431753
-0.00866328
0.0192904
0.0445539
-0.34861
-0.323236
-0.277695
-0.217343
-0.157366
-0.104851
-0.061091
-0.0254822
0.00336398
0.0297101
-0.364488
-0.338969
-0.295007
-0.235636
-0.17572
-0.122684
-0.0781166
-0.0415552
-0.0119642
0.0153374
-0.377954
-0.352372
-0.310201
-0.252167
-0.19265
-0.139362
-0.0942236
-0.056875
-0.0266346
0.00142104
-0.389036
-0.363468
-0.323268
-0.266907
-0.208127
-0.154859
-0.109368
-0.0714452
-0.0405628
-0.0121221
-0.397787
-0.372302
-0.334216
-0.279841
-0.222132
-0.169157
-0.123524
-0.0851977
-0.0537973
-0.0253523
-0.404282
-0.378947
-0.343077
-0.290968
-0.234653
-0.182246
-0.136684
-0.0981308
-0.0663787
-0.0379549
-0.408617
-0.383496
-0.3499
-0.300302
-0.245693
-0.194125
-0.148848
-0.110245
-0.0782667
-0.0497308
-0.41091
-0.386067
-0.354756
-0.307876
-0.255262
-0.2048
-0.160018
-0.121531
-0.0894438
-0.0607758
-0.411295
-0.386795
-0.35774
-0.313735
-0.263383
-0.214282
-0.170201
-0.131992
-0.0999214
-0.0712225
-0.409921
-0.385833
-0.358962
-0.317943
-0.270089
-0.222594
-0.179414
-0.14164
-0.109717
-0.0811255
-0.406953
-0.383345
-0.358556
-0.320579
-0.275424
-0.229762
-0.187678
-0.150495
-0.118844
-0.0904877
-0.402563
-0.379506
-0.356671
-0.321736
-0.279441
-0.235822
-0.19502
-0.158581
-0.127318
-0.0993063
-0.396931
-0.374496
-0.353469
-0.321523
-0.282205
-0.240814
-0.201471
-0.165923
-0.135155
-0.107588
-0.39024
-0.368497
-0.349125
-0.320062
-0.283789
-0.244787
-0.207065
-0.172547
-0.142378
-0.115349
-0.382673
-0.361689
-0.343818
-0.317487
-0.284275
-0.247791
-0.211839
-0.178485
-0.149011
-0.122604
-0.374408
-0.354247
-0.337732
-0.313941
-0.283755
-0.249884
-0.215835
-0.183768
-0.155081
-0.129374
-0.365618
-0.346338
-0.331044
-0.309577
-0.282328
-0.251127
-0.219095
-0.188431
-0.160617
-0.135675
-0.356466
-0.338118
-0.323924
-0.304552
-0.280101
-0.251588
-0.221663
-0.192508
-0.165648
-0.141531
-0.3471
-0.32973
-0.316532
-0.299024
-0.277188
-0.251337
-0.223587
-0.196034
-0.170204
-0.146963
-0.337657
-0.321304
-0.30901
-0.293148
-0.273707
-0.250448
-0.224912
-0.199045
-0.174314
-0.151996
-0.328257
-0.31295
-0.301483
-0.28707
-0.269781
-0.249001
-0.225689
-0.201574
-0.178009
-0.156657
-0.319004
-0.304766
-0.294059
-0.280922
-0.265533
-0.247077
-0.225968
-0.203656
-0.181315
-0.160971
-0.309987
-0.296829
-0.286828
-0.274819
-0.261083
-0.244765
-0.225801
-0.205326
-0.184259
-0.164963
-0.301278
-0.289202
-0.279862
-0.268856
-0.256548
-0.242152
-0.225241
-0.206615
-0.186865
-0.168661
-0.292933
-0.281929
-0.273217
-0.263106
-0.25203
-0.239331
-0.224346
-0.207557
-0.189153
-0.172091
-0.284995
-0.275043
-0.266932
-0.257626
-0.247617
-0.236391
-0.223175
-0.208188
-0.19114
-0.175279
-0.277495
-0.268564
-0.261034
-0.252456
-0.243378
-0.233418
-0.22179
-0.208542
-0.192841
-0.178252
-0.270451
-0.262498
-0.255534
-0.247621
-0.239361
-0.230488
-0.220257
-0.20866
-0.194266
-0.181039
-0.263872
-0.256848
-0.250435
-0.243137
-0.235599
-0.227666
-0.218639
-0.208584
-0.195423
-0.18367
-0.257758
-0.251605
-0.245729
-0.239006
-0.232111
-0.224997
-0.217
-0.208362
-0.196317
-0.186174
-0.252102
-0.246758
-0.241403
-0.235224
-0.228906
-0.222513
-0.215392
-0.208042
-0.196954
-0.188582
-0.246891
-0.24229
-0.237437
-0.231778
-0.225986
-0.220231
-0.213858
-0.207673
-0.197342
-0.190922
-0.242107
-0.238182
-0.23381
-0.22865
-0.223345
-0.218159
-0.212424
-0.207298
-0.197498
-0.193212
-0.237726
-0.234411
-0.230497
-0.225816
-0.220971
-0.216298
-0.211107
-0.206947
-0.197448
-0.195445
-0.233723
-0.230954
-0.227473
-0.223252
-0.218847
-0.21464
-0.209912
-0.206633
-0.197239
-0.197586
-0.230069
-0.227784
-0.224711
-0.220931
-0.216948
-0.21317
-0.208846
-0.206348
-0.196951
-0.199517
-0.226733
-0.224875
-0.222185
-0.218825
-0.215249
-0.211864
-0.207915
-0.206038
-0.196686
-0.201375
-0.223684
-0.222203
-0.219867
-0.216905
-0.21372
-0.210696
-0.207122
-0.205579
-0.196665
-0.201307
-0.220889
-0.219741
-0.217732
-0.215144
-0.212331
-0.209639
-0.20645
-0.204913
-0.197357
-0.189311
-0.218316
-0.217467
-0.215756
-0.213517
-0.211054
-0.208667
-0.205864
-0.204086
-0.198472
-0.184982
-0.215942
-0.215353
-0.213915
-0.212001
-0.209863
-0.20776
-0.205326
-0.203286
-0.199574
-0.184792
-0.213738
-0.213382
-0.21219
-0.210576
-0.208739
-0.206896
-0.204798
-0.20259
-0.20029
-0.185324
-0.21168
-0.21153
-0.21057
-0.209225
-0.207664
-0.206062
-0.204256
-0.201992
-0.200603
-0.186067
-0.209747
-0.209786
-0.209035
-0.207934
-0.206626
-0.205247
-0.203693
-0.201474
-0.200633
-0.18713
-0.207923
-0.208137
-0.207574
-0.206698
-0.205617
-0.204445
-0.203112
-0.20102
-0.200492
-0.188436
-0.206193
-0.206572
-0.206178
-0.205506
-0.204633
-0.203653
-0.202522
-0.200612
-0.200259
-0.189821
-0.204548
-0.205084
-0.204844
-0.204355
-0.203673
-0.202872
-0.201931
-0.20023
-0.199995
-0.191159
-0.202979
-0.203666
-0.203565
-0.203244
-0.202735
-0.202104
-0.201342
-0.199852
-0.19974
-0.192367
-0.201483
-0.202315
-0.202342
-0.202172
-0.201822
-0.201351
-0.200746
-0.199482
-0.199517
-0.193388
-0.200057
-0.201029
-0.201172
-0.201141
-0.200936
-0.200613
-0.200157
-0.199163
-0.199273
-0.1942
-0.1987
-0.199809
-0.200058
-0.200152
-0.20008
-0.199894
-0.199579
-0.198849
-0.19893
-0.194896
-0.197416
-0.198657
-0.199002
-0.19921
-0.199257
-0.199197
-0.199015
-0.198513
-0.198543
-0.195557
-0.196207
-0.197575
-0.198008
-0.198318
-0.198473
-0.198527
-0.198467
-0.198162
-0.198191
-0.196067
-0.195078
-0.196568
-0.19708
-0.197481
-0.197733
-0.197888
-0.19794
-0.197801
-0.197862
-0.19638
-0.194035
-0.195639
-0.196222
-0.196705
-0.197042
-0.197287
-0.197438
-0.197439
-0.197547
-0.196549
-0.193084
-0.194795
-0.195441
-0.195996
-0.196407
-0.19673
-0.196967
-0.197084
-0.197247
-0.196618
-0.192233
-0.194041
-0.194742
-0.195358
-0.195833
-0.196224
-0.196535
-0.196746
-0.196965
-0.196617
-0.191488
-0.193381
-0.19413
-0.194799
-0.195328
-0.195774
-0.196147
-0.196434
-0.196706
-0.196572
-0.190855
-0.192823
-0.193611
-0.194324
-0.194896
-0.195388
-0.195812
-0.196159
-0.196476
-0.196504
-0.190341
-0.192369
-0.193189
-0.193937
-0.194543
-0.195071
-0.195534
-0.195928
-0.196283
-0.196429
-0.189951
-0.192026
-0.192869
-0.193642
-0.194274
-0.194829
-0.195321
-0.195748
-0.196132
-0.196361
-0.189688
-0.191794
-0.192654
-0.193444
-0.194093
-0.194665
-0.195176
-0.195624
-0.196027
-0.19631
-0.189556
-0.191678
-0.192545
-0.193344
-0.194001
-0.194582
-0.195102
-0.195561
-0.195974
-0.196282
-0.196865
-0.197056
-0.197466
-0.197694
-0.197952
-0.198101
-0.198175
-0.198108
-0.197877
-0.197431
-0.196723
-0.195698
-0.194281
-0.192421
-0.189969
-0.186928
-0.18295
-0.178278
-0.172043
-0.165263
-0.155832
-0.146386
-0.132924
-0.120051
-0.103093
-0.0852504
-0.0684937
-0.0430689
-0.0332849
0.00155887
-0.19693
-0.197091
-0.197506
-0.197727
-0.197985
-0.198133
-0.198205
-0.198139
-0.197908
-0.197462
-0.196754
-0.195731
-0.194316
-0.192459
-0.19001
-0.186974
-0.183
-0.178334
-0.172105
-0.165328
-0.155895
-0.146451
-0.13298
-0.120105
-0.103132
-0.0852841
-0.0685178
-0.043087
-0.0333061
0.00154082
-0.19706
-0.197159
-0.197584
-0.197794
-0.19805
-0.198196
-0.198268
-0.198201
-0.19797
-0.197525
-0.196818
-0.195797
-0.194384
-0.192532
-0.190088
-0.187058
-0.18309
-0.178433
-0.172208
-0.165441
-0.156004
-0.146569
-0.133083
-0.120211
-0.103215
-0.0853638
-0.0685808
-0.0431399
-0.0333606
0.00149457
-0.19725
-0.197258
-0.197698
-0.197891
-0.198147
-0.19829
-0.198361
-0.198293
-0.198062
-0.197618
-0.196912
-0.195894
-0.194485
-0.192638
-0.1902
-0.18718
-0.183218
-0.178573
-0.172354
-0.165601
-0.156158
-0.146736
-0.133231
-0.120367
-0.103342
-0.0854874
-0.0686811
-0.0432268
-0.03345
0.00142706
-0.197497
-0.197382
-0.197845
-0.198015
-0.19827
-0.19841
-0.19848
-0.198412
-0.198181
-0.197738
-0.197034
-0.196019
-0.194614
-0.192775
-0.190343
-0.187335
-0.183381
-0.17875
-0.172538
-0.165803
-0.156354
-0.14695
-0.133422
-0.12057
-0.103509
-0.0856521
-0.0688169
-0.043345
-0.0335736
0.00134153
-0.197796
-0.197522
-0.198017
-0.198162
-0.198416
-0.198552
-0.198621
-0.198553
-0.198322
-0.19788
-0.197179
-0.196168
-0.194769
-0.192938
-0.190515
-0.18752
-0.183575
-0.178961
-0.172756
-0.166043
-0.156588
-0.147205
-0.133652
-0.120814
-0.103713
-0.0858541
-0.0689855
-0.0434893
-0.0337089
0.00121766
-0.198141
-0.197672
-0.19821
-0.198325
-0.198579
-0.198712
-0.198779
-0.198711
-0.198481
-0.198042
-0.197343
-0.196338
-0.194944
-0.193124
-0.19071
-0.187731
-0.183795
-0.179201
-0.173004
-0.166317
-0.156854
-0.147497
-0.133915
-0.121096
-0.10395
-0.0860891
-0.0691853
-0.0436541
-0.0338578
0.00106051
-0.198527
-0.197821
-0.198415
-0.198498
-0.198752
-0.198882
-0.198949
-0.198882
-0.198653
-0.198216
-0.197521
-0.196522
-0.195135
-0.193326
-0.190923
-0.187962
-0.184037
-0.179465
-0.173276
-0.166619
-0.157147
-0.147819
-0.134208
-0.121408
-0.104216
-0.0863519
-0.0694144
-0.0438516
-0.0340161
0.000885827
-0.198952
-0.197961
-0.198626
-0.198675
-0.19893
-0.199058
-0.199124
-0.199058
-0.198831
-0.198398
-0.197707
-0.196715
-0.195337
-0.193541
-0.191149
-0.188208
-0.184294
-0.179742
-0.173567
-0.166942
-0.157462
-0.148166
-0.134525
-0.121745
-0.104508
-0.0866369
-0.0696634
-0.0440779
-0.0341828
0.000692776
-0.199417
-0.198082
-0.198835
-0.19885
-0.199105
-0.199232
-0.199298
-0.199234
-0.19901
-0.198581
-0.197896
-0.196913
-0.195544
-0.193762
-0.191383
-0.188463
-0.184561
-0.180028
-0.173872
-0.167281
-0.157793
-0.148531
-0.13486
-0.122101
-0.104819
-0.0869394
-0.069925
-0.0443222
-0.0343595
0.000479667
-0.199939
-0.198173
-0.199033
-0.199017
-0.19927
-0.199398
-0.199465
-0.199403
-0.199182
-0.198759
-0.198081
-0.197108
-0.19575
-0.193984
-0.191619
-0.188722
-0.184832
-0.180383
-0.174185
-0.167628
-0.158135
-0.148907
-0.135206
-0.12247
-0.105145
-0.0872561
-0.0702023
-0.0445751
-0.0345392
0.00024691
-0.200543
-0.198215
-0.199221
-0.199168
-0.199419
-0.199549
-0.199617
-0.199559
-0.199343
-0.198927
-0.198257
-0.197295
-0.195949
-0.194201
-0.191851
-0.188978
-0.185103
-0.180668
-0.174498
-0.16798
-0.158478
-0.14929
-0.135559
-0.122843
-0.105484
-0.0875785
-0.0704931
-0.0448364
-0.0347158
-4.4886e-06
-0.201115
-0.19824
-0.199394
-0.199298
-0.199545
-0.199679
-0.199748
-0.199695
-0.199485
-0.199077
-0.198417
-0.197469
-0.196136
-0.194408
-0.192074
-0.189227
-0.185363
-0.180964
-0.174806
-0.168334
-0.158815
-0.149667
-0.135919
-0.123214
-0.10583
-0.0879015
-0.0707919
-0.045105
-0.0348852
-0.00027358
-0.201495
-0.198405
-0.199462
-0.199421
-0.199643
-0.199782
-0.199852
-0.199805
-0.199602
-0.199205
-0.198557
-0.197624
-0.196305
-0.194598
-0.192281
-0.189462
-0.185589
-0.18125
-0.175106
-0.168664
-0.159158
-0.150035
-0.136275
-0.123579
-0.106178
-0.088221
-0.0710941
-0.0453786
-0.0350436
-0.000559475
-0.201913
-0.198535
-0.199509
-0.199511
-0.199705
-0.199849
-0.199922
-0.199881
-0.199687
-0.199303
-0.198668
-0.197753
-0.196451
-0.194767
-0.19247
-0.189678
-0.185883
-0.181519
-0.17539
-0.168984
-0.159484
-0.150391
-0.136623
-0.123932
-0.106525
-0.0885325
-0.0713962
-0.0456548
-0.0351877
-0.00086131
-0.202368
-0.198634
-0.199531
-0.199563
-0.199728
-0.199876
-0.199952
-0.199919
-0.199736
-0.199366
-0.198747
-0.197851
-0.196569
-0.194909
-0.192633
-0.18987
-0.186091
-0.181766
-0.175654
-0.169286
-0.159791
-0.150728
-0.136959
-0.124267
-0.106866
-0.0888317
-0.0716944
-0.0459315
-0.0353148
-0.00117824
-0.202835
-0.198729
-0.199517
-0.199574
-0.199705
-0.199854
-0.199934
-0.199911
-0.199741
-0.199388
-0.198787
-0.197913
-0.196652
-0.195018
-0.192765
-0.190026
-0.186267
-0.181986
-0.175891
-0.169561
-0.160075
-0.151039
-0.137278
-0.124579
-0.107198
-0.0891151
-0.0719853
-0.046207
-0.0354223
-0.00150947
-0.203298
-0.198831
-0.199465
-0.199538
-0.199628
-0.199777
-0.199861
-0.19985
-0.199696
-0.199363
-0.198783
-0.197934
-0.196695
-0.19509
-0.19286
-0.190113
-0.186414
-0.182174
-0.176098
-0.169805
-0.160333
-0.151321
-0.137577
-0.124864
-0.107518
-0.0893793
-0.072266
-0.0464796
-0.0355083
-0.00185421
-0.203732
-0.19894
-0.199378
-0.199448
-0.19949
-0.199635
-0.199726
-0.199729
-0.199593
-0.199284
-0.198728
-0.197906
-0.196694
-0.195119
-0.192915
-0.190298
-0.186524
-0.182325
-0.176269
-0.170013
-0.160559
-0.151568
-0.137852
-0.125118
-0.107823
-0.0896213
-0.0725333
-0.0467477
-0.0355713
-0.00221174
-0.20411
-0.199041
-0.199249
-0.199294
-0.199278
-0.199419
-0.19952
-0.19954
-0.199427
-0.199144
-0.198616
-0.197825
-0.196641
-0.195099
-0.192921
-0.190313
-0.18659
-0.182434
-0.1764
-0.170181
-0.16075
-0.151776
-0.138099
-0.125336
-0.108108
-0.0898384
-0.0727843
-0.0470099
-0.0356097
-0.00258129
-0.204383
-0.199086
-0.199066
-0.199058
-0.19898
-0.199116
-0.199233
-0.199275
-0.199188
-0.198937
-0.19844
-0.197684
-0.196531
-0.195026
-0.192871
-0.190298
-0.186611
-0.182494
-0.176486
-0.170303
-0.160901
-0.15194
-0.138314
-0.125514
-0.108371
-0.0900272
-0.0730151
-0.0472642
-0.035622
-0.00296194
-0.204443
-0.199
-0.198815
-0.198734
-0.198588
-0.198723
-0.198861
-0.198931
-0.198875
-0.198658
-0.198196
-0.197479
-0.19636
-0.194894
-0.192748
-0.190233
-0.186577
-0.182503
-0.176521
-0.170374
-0.161007
-0.152056
-0.138495
-0.12565
-0.108609
-0.0901869
-0.0732258
-0.0475097
-0.0356098
-0.0033528
-0.204329
-0.198786
-0.198504
-0.198322
-0.1981
-0.198231
-0.198395
-0.198496
-0.198475
-0.198299
-0.197876
-0.197201
-0.196122
-0.1947
-0.192617
-0.190106
-0.186488
-0.182458
-0.176509
-0.1704
-0.161077
-0.152134
-0.138652
-0.125757
-0.108836
-0.0903285
-0.073429
-0.0477521
-0.0355808
-0.00375463
-0.204469
-0.198354
-0.198023
-0.197731
-0.197428
-0.19756
-0.197763
-0.197911
-0.197939
-0.197814
-0.197443
-0.196823
-0.195792
-0.194424
-0.192406
-0.189915
-0.186341
-0.182365
-0.176456
-0.17039
-0.161122
-0.152186
-0.1388
-0.125844
-0.109062
-0.0904602
-0.0736276
-0.0479975
-0.0355323
-0.00417061
-0.202307
-0.196372
-0.19699
-0.196746
-0.196428
-0.196617
-0.196909
-0.197139
-0.19724
-0.197189
-0.196885
-0.196329
-0.195357
-0.194043
-0.192048
-0.189636
-0.186109
-0.182176
-0.176311
-0.170264
-0.16106
-0.152101
-0.138827
-0.125792
-0.109159
-0.0904845
-0.0737019
-0.0481983
-0.0353916
-0.00459608
-0.187356
-0.191384
-0.195466
-0.195583
-0.195287
-0.195553
-0.195953
-0.196269
-0.196442
-0.196456
-0.196214
-0.195715
-0.194805
-0.193562
-0.191629
-0.189168
-0.185659
-0.181706
-0.175885
-0.169782
-0.16067
-0.151604
-0.138501
-0.125333
-0.108914
-0.0902233
-0.0734788
-0.0483428
-0.0349942
-0.0051851
-0.184139
-0.18803
-0.192767
-0.193099
-0.192779
-0.19316
-0.193761
-0.194245
-0.194545
-0.194669
-0.194523
-0.194105
-0.19325
-0.192025
-0.190102
-0.187744
-0.184282
-0.180344
-0.174581
-0.16845
-0.159471
-0.150321
-0.13749
-0.124216
-0.108162
-0.0895176
-0.0729266
-0.0483199
-0.0343874
-0.00587864
-0.181408
-0.184217
-0.188422
-0.189223
-0.189186
-0.18978
-0.190639
-0.191359
-0.191846
-0.192133
-0.192126
-0.191833
-0.191076
-0.189939
-0.188095
-0.185795
-0.182381
-0.178467
-0.172778
-0.166631
-0.157814
-0.1486
-0.136081
-0.122743
-0.107093
-0.0885712
-0.0721551
-0.0481783
-0.0336817
-0.00653615
-0.177408
-0.179377
-0.182527
-0.183821
-0.184364
-0.185305
-0.186472
-0.187492
-0.188236
-0.188748
-0.188939
-0.188824
-0.188219
-0.187219
-0.185495
-0.183275
-0.179947
-0.176081
-0.170506
-0.164363
-0.15575
-0.1465
-0.134332
-0.120983
-0.105755
-0.0874474
-0.0711915
-0.0479585
-0.0328929
-0.00715294
-0.171133
-0.173263
-0.175479
-0.177064
-0.178284
-0.17969
-0.181207
-0.182564
-0.183619
-0.18441
-0.184852
-0.184966
-0.184564
-0.183741
-0.182174
-0.180087
-0.176892
-0.173104
-0.167692
-0.161585
-0.153225
-0.143982
-0.132202
-0.118918
-0.104121
-0.0861353
-0.0700286
-0.0476435
-0.0320369
-0.00770485
-0.162734
-0.165795
-0.167543
-0.16927
-0.171105
-0.17304
-0.17494
-0.176645
-0.178032
-0.179133
-0.179859
-0.180235
-0.180074
-0.179463
-0.178097
-0.176181
-0.173173
-0.169498
-0.164295
-0.158267
-0.150204
-0.141031
-0.129666
-0.11654
-0.102177
-0.0846273
-0.0686697
-0.0472144
-0.0311346
-0.00816916
-0.152962
-0.157127
-0.158917
-0.160784
-0.163113
-0.165569
-0.167872
-0.16992
-0.171634
-0.173046
-0.174067
-0.174719
-0.174818
-0.174442
-0.173306
-0.171582
-0.168812
-0.165286
-0.160333
-0.154431
-0.146699
-0.137669
-0.126735
-0.113868
-0.0999374
-0.0829295
-0.0671337
-0.0466598
-0.0302095
-0.00852965
-0.142413
-0.147574
-0.149781
-0.151886
-0.154602
-0.157521
-0.160225
-0.162608
-0.164633
-0.166343
-0.167651
-0.168574
-0.168939
-0.168804
-0.167916
-0.166407
-0.163889
-0.160544
-0.155869
-0.150142
-0.142761
-0.133948
-0.12345
-0.110938
-0.0974362
-0.0810571
-0.0654509