/*--------------------------------*- C++ -*----------------------------------*\
  =========                 |
  \\      /  F ield         | OpenFOAM: The Open Source CFD Toolbox
   \\    /   O peration     | Website:  https://openfoam.org
    \\  /    A nd           | Version:  7
     \\/     M anipulation  |
\*---------------------------------------------------------------------------*/
FoamFile
{
    version     2.0;
    format      ascii;
    class       surfaceScalarField;
    location    "95";
    object      phi;
}
// * * * * * * * * * * * * * * * * * * * * * * * * * * * * * * * * * * * * * //

dimensions      [0 3 -1 0 0 0 0];

internalField   nonuniform List<scalar> 
42261
(
4.52496e-06
1.15769e-06
3.36728e-06
-2.76217e-06
1.25701e-06
2.11027e-06
5.62078e-06
-7.12595e-06
-3.01204e-05
1.36403e-06
7.46239e-07
6.05017e-06
-1.18121e-05
1.47433e-05
-3.88135e-05
-8.09401e-05
1.47822e-06
-7.31982e-07
6.50498e-06
-1.68388e-05
1.57739e-05
-4.80824e-05
2.99865e-05
-9.51527e-05
-0.000158774
1.59903e-06
-2.33101e-06
6.98303e-06
-2.22229e-05
1.6851e-05
-5.79504e-05
3.19072e-05
-0.000110209
5.2838e-05
-0.000179705
-0.000267047
1.7259e-06
-4.05691e-06
7.48206e-06
-2.7979e-05
1.79693e-05
-6.84376e-05
3.38896e-05
-0.000126129
5.59178e-05
-0.000201733
8.46583e-05
-0.000295788
-0.000408581
1.85828e-06
-5.91518e-06
7.99977e-06
-3.41205e-05
1.91232e-05
-7.9561e-05
3.59234e-05
-0.000142929
5.90567e-05
-0.000224866
8.90913e-05
-0.000325822
0.000126445
-0.000445935
0.000171316
-0.000584873
-0.000741684
1.9956e-06
-7.91079e-06
8.53379e-06
-4.06587e-05
2.03071e-05
-9.13343e-05
3.7998e-05
-0.00016062
6.22372e-05
-0.000249105
9.3548e-05
-0.000357133
0.000132278
-0.000484665
0.000178526
-0.000631121
0.000232069
-0.000795227
-0.000974917
2.13732e-06
-1.00481e-05
9.08177e-06
-4.76031e-05
2.15154e-05
-0.000103768
4.01026e-05
-0.000179207
6.54413e-05
-0.000274444
9.80009e-05
-0.000389693
0.000138049
-0.000524714
0.000185577
-0.000678648
0.000240226
-0.000849877
0.000301248
-0.00103594
-0.00123354
2.28289e-06
-1.2331e-05
9.64131e-06
-5.49616e-05
2.27423e-05
-0.000116869
4.22261e-05
-0.000198691
6.86506e-05
-0.000300869
0.000102423
-0.000423465
0.00014372
-0.000566011
0.000192417
-0.000727345
0.000248016
-0.000905476
0.000309616
-0.00109754
0.00037592
-0.00129984
0.000445294
-0.00150804
-0.00171746
2.43175e-06
-1.47627e-05
1.021e-05
-6.27398e-05
2.3982e-05
-0.000130641
4.43576e-05
-0.000219067
7.18469e-05
-0.000328358
0.000106785
-0.000458403
0.000149253
-0.000608479
0.000198998
-0.00077709
0.000255381
-0.000961859
0.000317349
-0.00115951
0.00038347
-0.00136596
0.000452012
-0.00157659
0.00052108
-0.00178653
0.00058879
-0.00199115
-0.00218642
2.58335e-06
-1.73461e-05
1.07854e-05
-7.09419e-05
2.52285e-05
-0.000145084
4.64858e-05
-0.000240324
7.50118e-05
-0.000356884
0.000111062
-0.000494453
0.000154609
-0.000652027
0.000205272
-0.000827753
0.000262264
-0.00101885
0.000324389
-0.00122163
0.000390088
-0.00143166
0.000457548
-0.00164405
0.000524855
-0.00185384
0.000590166
-0.00205646
0.000651887
-0.00224814
-0.00242618
2.73712e-06
-2.00832e-05
1.13651e-05
-7.95698e-05
2.64759e-05
-0.000160195
4.85996e-05
-0.000262448
7.8127e-05
-0.000386411
0.000115225
-0.000531551
0.000159754
-0.000696555
0.000211195
-0.000879194
0.000268616
-0.00107627
0.000330682
-0.0012837
0.000395727
-0.00149671
0.000461875
-0.00171019
0.000527213
-0.00191917
0.000589969
-0.00211922
0.000648671
-0.00230685
0.000702267
-0.00247978
0.000750174
-0.00263703
-0.00277881
2.89249e-06
-2.29757e-05
1.19464e-05
-8.86237e-05
2.77181e-05
-0.000175967
5.06874e-05
-0.000285417
8.11742e-05
-0.000416898
0.000119249
-0.000569627
0.000164651
-0.000741957
0.000216724
-0.000931266
0.00027439
-0.00113394
0.000336187
-0.0013455
0.000400354
-0.00156087
0.000464975
-0.00177482
0.000528164
-0.00198236
0.000588236
-0.00217929
0.00064386
-0.00236247
0.000694152
-0.00253007
0.000738704
-0.00268158
0.000777547
-0.00281766
0.000811072
-0.00293986
-0.00305036
3.04883e-06
-2.60245e-05
1.25269e-05
-9.81018e-05
2.8949e-05
-0.000192389
5.27381e-05
-0.000309206
8.41354e-05
-0.000448295
0.000123108
-0.0006086
0.000169269
-0.000788118
0.00022182
-0.000983817
0.000279547
-0.00119166
0.000340867
-0.00140682
0.000403943
-0.00162395
0.000466845
-0.00183772
0.00052773
-0.00204325
0.000585021
-0.00223658
0.000637537
-0.00241499
0.000684564
-0.0025771
0.000725859
-0.00272288
0.000761597
-0.00285339
0.000792272
-0.00297054
0.000818585
-0.00307667
0.000841334
-0.00317432
-0.00326591
3.20553e-06
-2.92301e-05
1.31038e-05
-0.000108
3.01623e-05
-0.000209447
5.47403e-05
-0.000333784
8.69929e-05
-0.000480548
0.000126777
-0.000648384
0.000173575
-0.000834916
0.000226449
-0.00103669
0.00028405
-0.00124927
0.000344693
-0.00146746
0.000406482
-0.00168574
0.000467491
-0.00189873
0.000525943
-0.0021017
0.000580384
-0.00229102
0.000629789
-0.00246439
0.000673611
-0.00262092
0.000711764
-0.00276103
0.000744549
-0.00288618
0.000772545
-0.00299853
0.000796497
-0.00310063
0.000817208
-0.00319503
0.000835448
-0.00328415
0.0008519
-0.00337001
-0.00345417
3.36194e-06
-3.2592e-05
1.36744e-05
-0.000118313
3.13518e-05
-0.000227125
5.66827e-05
-0.000359115
8.97293e-05
-0.000513594
0.000130233
-0.000688887
0.000177541
-0.000882224
0.000230579
-0.00108973
0.000287873
-0.00130656
0.000347646
-0.00152723
0.000407966
-0.00174606
0.000466929
-0.00195769
0.000522847
-0.00215762
0.000574395
-0.00234257
0.000620709
-0.0025107
0.000661405
-0.00266162
0.000696541
-0.00279617
0.000726527
-0.00291616
0.000752011
-0.00302402
0.000773765
-0.00312238
0.000792583
-0.00321385
0.000809206
-0.00330077
0.000824266
-0.00338507
0.000838275
-0.00346818
-0.00355105
0.000851594
3.51737e-06
-3.61094e-05
1.42361e-05
-0.000129031
3.25113e-05
-0.0002454
5.85544e-05
-0.000385158
9.2328e-05
-0.000547368
0.000133452
-0.000730012
0.000181141
-0.000929912
0.000234183
-0.00114277
0.000290991
-0.00136337
0.000349713
-0.00158595
0.000408398
-0.00180474
0.000465187
-0.00201448
0.000518491
-0.00221092
0.000567128
-0.00239121
0.000610392
-0.00255397
0.000648056
-0.00269928
0.000680307
-0.00282842
0.000707647
-0.00294351
0.000730778
-0.00304715
0.000750485
-0.00314209
0.000767545
-0.00323091
0.000782658
-0.00331588
0.000796409
-0.00339882
0.000809257
-0.00348102
-0.00356332
0.000821522
3.67113e-06
-3.97805e-05
1.4786e-05
-0.000140146
3.36344e-05
-0.000264248
6.03443e-05
-0.000411868
9.47729e-05
-0.000581797
0.000136416
-0.000771655
0.00018435
-0.000977847
0.000237238
-0.00119566
0.000293387
-0.00141952
0.000350889
-0.00164346
0.000407792
-0.00186165
0.000462299
-0.00206898
0.000512934
-0.00226156
0.000558662
-0.00243694
0.000598936
-0.00259424
0.000633672
-0.00273402
0.000663173
-0.00285792
0.000688019
-0.00296835
0.000708948
-0.00306808
0.000726746
-0.00315989
0.000742165
-0.00324633
0.000755863
-0.00332958
0.000768374
-0.00341133
0.000780109
-0.00349276
-0.00357456
0.000791347
3.8225e-06
-4.3603e-05
1.53212e-05
-0.000151645
3.47151e-05
-0.000283642
6.20421e-05
-0.000439195
9.70489e-05
-0.000616804
0.000139103
-0.000813709
0.000187149
-0.00102589
0.000239726
-0.00124823
0.000295052
-0.00147484
0.000351177
-0.00169958
0.000406168
-0.00191664
0.000458306
-0.00212112
0.000506239
-0.00230949
0.000549081
-0.00247978
0.000586437
-0.0026316
0.000618356
-0.00276594
0.000645244
-0.00288481
0.000667741
-0.00299085
0.000686609
-0.00308695
0.000702626
-0.0031759
0.000716509
-0.00326021
0.000728873
-0.00334194
0.000740202
-0.00342266
0.000750861
-0.00350342
-0.00358479
0.000761094
3.97075e-06
-4.75738e-05
1.58391e-05
-0.000163513
3.57471e-05
-0.00030355
6.36376e-05
-0.000467085
9.91418e-05
-0.000652308
0.000141498
-0.000856065
0.00018952
-0.00107392
0.000241634
-0.00130035
0.00029598
-0.00152919
0.000350585
-0.00175418
0.000403553
-0.00196961
0.000453256
-0.00217082
0.000498472
-0.00235471
0.000538467
-0.00251977
0.000572989
-0.00266612
0.000602209
-0.00279516
0.000626618
-0.00290922
0.000646906
-0.00301114
0.000663844
-0.00310388
0.000678192
-0.00319025
0.000690632
-0.00327265
0.000701731
-0.00335304
0.000711927
-0.00343286
0.000721541
-0.00351303
-0.00359403
0.000730784
4.11514e-06
-5.16889e-05
1.63368e-05
-0.000175735
3.67248e-05
-0.000323938
6.51212e-05
-0.000495482
0.000101038
-0.000688225
0.000143585
-0.000898612
0.000191449
-0.00112178
0.000242951
-0.00135185
0.000296172
-0.00158241
0.000349129
-0.00180714
0.000399981
-0.00202046
0.000447201
-0.00221804
0.000489705
-0.00239721
0.000526904
-0.00255697
0.000558683
-0.0026979
0.000585323
-0.0028218
0.000607387
-0.00293128
0.000625597
-0.00302935
0.000640724
-0.00311901
0.000653506
-0.00320303
0.000664582
-0.00328373
0.000674475
-0.00336294
0.000683577
-0.00344196
0.000692169
-0.00352162
-0.0036023
0.000700433
4.25494e-06
-5.59438e-05
1.68116e-05
-0.000188292
3.76424e-05
-0.000344769
6.6484e-05
-0.000524323
0.000102727
-0.000724468
0.000145352
-0.000941236
0.000192924
-0.00116935
0.000243674
-0.0014026
0.000295633
-0.00163437
0.00034683
-0.00185834
0.00039549
-0.00206912
0.000440197
-0.00226275
0.000480007
-0.00243702
0.000514474
-0.00259144
0.000543609
-0.00272703
0.000567789
-0.00284598
0.000587633
-0.00295112
0.000603887
-0.0030456
0.000617314
-0.00313244
0.000628619
-0.00321434
0.000638402
-0.00329351
0.000647138
-0.00337167
0.000655178
-0.00345
0.000662766
-0.00352921
-0.00360959
0.000670058
4.38941e-06
-6.03332e-05
1.72609e-05
-0.000201163
3.84945e-05
-0.000366003
6.77176e-05
-0.000553546
0.000104197
-0.000760948
0.000146786
-0.000983825
0.000193939
-0.0012165
0.000243801
-0.00145246
0.000294375
-0.00168494
0.000343714
-0.00190768
0.000390121
-0.00211552
0.000432302
-0.00230493
0.00046945
-0.00247417
0.000501258
-0.00262325
0.000527851
-0.00275363
0.000549687
-0.00286781
0.000567434
-0.00296887
0.000581846
-0.00306001
0.000593671
-0.00314426
0.000603579
-0.00322424
0.000612128
-0.00330206
0.000619748
-0.00337929
0.000626751
-0.003457
0.000633348
-0.00353581
-0.00361592
0.000639673
4.51784e-06
-6.48511e-05
1.76821e-05
-0.000214327
3.92762e-05
-0.000387597
6.88144e-05
-0.000583085
0.00010544
-0.000797573
0.000147882
-0.00102627
0.000194488
-0.00126311
0.000243336
-0.00150131
0.000292412
-0.00173402
0.000339809
-0.00195508
0.00038392
-0.00215963
0.000423575
-0.00234459
0.000458106
-0.0025087
0.000487333
-0.00265247
0.000511487
-0.00277778
0.000531096
-0.00288742
0.000546859
-0.00298463
0.000559534
-0.00307269
0.000569845
-0.00315457
0.000578425
-0.00323283
0.000585791
-0.00330943
0.000592329
-0.00338583
0.000598315
-0.00346299
0.000603931
-0.00354143
-0.00362127
0.000609289
4.63952e-06
-6.94906e-05
1.80729e-05
-0.000227761
3.99826e-05
-0.000409506
6.97678e-05
-0.00061287
0.000106447
-0.000834253
0.000148631
-0.00106845
0.00019457
-0.00130905
0.000242287
-0.00154903
0.000289765
-0.0017815
0.000335151
-0.00200046
0.000376936
-0.00220142
0.000414078
-0.00238173
0.000446045
-0.00254067
0.000472775
-0.0026792
0.000494593
-0.0027996
0.000512085
-0.00290491
0.000525972
-0.00299852
0.000537004
-0.00308372
0.00054588
-0.00316345
0.000553194
-0.00324014
0.000559418
-0.00331565
0.000564902
-0.00339132
0.000569886
-0.00346797
0.000574528
-0.00354607
-0.00362567
0.00057892
4.75377e-06
-7.42444e-05
1.84308e-05
-0.000241438
4.06096e-05
-0.000431685
7.05718e-05
-0.000642832
0.000107214
-0.000870894
0.00014903
-0.00111027
0.000194187
-0.00135421
0.000240664
-0.0015955
0.000286456
-0.00182729
0.000329774
-0.00204378
0.000369217
-0.00224086
0.000403872
-0.00241639
0.000433334
-0.00257013
0.000457654
-0.00270352
0.000477239
-0.00281918
0.000492718
-0.00292039
0.000504828
-0.00301063
0.000514306
-0.0030932
0.000521816
-0.00317096
0.000527915
-0.00324624
0.000533034
-0.00332077
0.000537486
-0.00339577
0.00054148
-0.00347197
0.000545151
-0.00354974
-0.00362909
0.000548576
4.85994e-06
-7.91043e-05
1.87538e-05
-0.000255332
4.11532e-05
-0.000454085
7.12216e-05
-0.000672901
0.000107734
-0.000907407
0.000149078
-0.00115161
0.000193344
-0.00139847
0.000238481
-0.00164064
0.000282511
-0.00187132
0.000323718
-0.00208499
0.000360815
-0.00227796
0.000393015
-0.00244859
0.000420038
-0.00259715
0.000442038
-0.00272552
0.000459488
-0.00283663
0.000473056
-0.00293396
0.000483481
-0.00302106
0.00049148
-0.0031012
0.000497686
-0.00317717
0.000502615
-0.00325117
0.000506659
-0.00332482
0.000510096
-0.0033992
0.000513109
-0.00347498
0.000515811
-0.00355244
-0.00363155
0.000518267
4.95743e-06
-8.40617e-05
1.904e-05
-0.000269414
4.16103e-05
-0.000476655
7.1713e-05
-0.000703003
0.000108006
-0.000943699
0.000148776
-0.00119238
0.000192047
-0.00144174
0.000235756
-0.00168435
0.000277957
-0.00191352
0.000317023
-0.00212405
0.000351779
-0.00231272
0.000381568
-0.00247837
0.000406222
-0.00262181
0.000425989
-0.00274529
0.000441401
-0.00285205
0.000453151
-0.00294571
0.000461975
-0.00302988
0.000468566
-0.00310779
0.000473521
-0.00318212
0.000477318
-0.00325496
0.000480311
-0.00332781
0.000482747
-0.00340164
0.000484785
-0.00347702
0.000486519
-0.00355417
-0.00363303
0.000488002
5.04565e-06
-8.91074e-05
1.92877e-05
-0.000283656
4.19779e-05
-0.000499345
7.2043e-05
-0.000733068
0.000108027
-0.000979683
0.000148125
-0.00123248
0.000190307
-0.00148393
0.000232506
-0.00172655
0.000272826
-0.00195384
0.00030973
-0.00216096
0.000342162
-0.00234515
0.000369586
-0.0025058
0.000391945
-0.00264417
0.000409567
-0.00276291
0.000423033
-0.00286551
0.000433052
-0.00295573
0.000440352
-0.00303718
0.000445597
-0.00311303
0.000449348
-0.00318587
0.000452044
-0.00325766
0.000454007
-0.00332977
0.000455453
-0.00340309
0.000456519
-0.00347808
0.000457285
-0.00355494
-0.00363354
0.000457792
5.12409e-06
-9.42315e-05
1.94952e-05
-0.000298027
4.22536e-05
-0.000522104
7.22095e-05
-0.000763024
0.000107798
-0.00101527
0.000147131
-0.00127181
0.000188136
-0.00152493
0.000228754
-0.00176717
0.000267148
-0.00199223
0.00030188
-0.00219569
0.000332012
-0.00237528
0.000357125
-0.00253091
0.000377263
-0.00266431
0.000392826
-0.00277847
0.000404433
-0.00287712
0.000412803
-0.0029641
0.000418648
-0.00304302
0.000422601
-0.00311699
0.000425189
-0.00318846
0.000426812
-0.00325928
0.00042776
-0.00333072
0.000428224
-0.00340355
0.00042832
-0.00347818
0.000428117
-0.00355474
-0.00363307
0.000427645
5.19226e-06
-9.94237e-05
1.96614e-05
-0.000312497
4.24358e-05
-0.000544878
7.22112e-05
-0.0007928
0.00010732
-0.00105038
0.000145799
-0.00131029
0.000185546
-0.00156468
0.000224522
-0.00180614
0.000260958
-0.00202867
0.000293517
-0.00222825
0.000321379
-0.00240314
0.000344237
-0.00255377
0.00036223
-0.0026823
0.000375816
-0.00279206
0.000385648
-0.00288695
0.000392444
-0.0029709
0.000396895
-0.00304747
0.000399606
-0.0031197
0.000401064
-0.00318992
0.000401637
-0.00325986
0.000401583
-0.00333066
0.00040107
-0.00340304
0.000400199
-0.00347731
0.000399024
-0.00355356
-0.00363161
0.000397569
5.25058e-06
-0.000104674
1.97867e-05
-0.000327033
4.25255e-05
-0.000567617
7.20512e-05
-0.000822325
0.0001066
-0.00108493
0.000144143
-0.00134784
0.00018256
-0.00160309
0.000219841
-0.00184342
0.000254294
-0.00206312
0.000284687
-0.00225864
0.000310316
-0.00242877
0.000330981
-0.00257443
0.000346902
-0.00269822
0.000358593
-0.00280375
0.000366726
-0.00289508
0.000372016
-0.00297619
0.000375131
-0.00305059
0.000376641
-0.00312121
0.000377
-0.00319028
0.00037654
-0.0032594
0.000375495
-0.00332962
0.00037401
-0.00340155
0.00037217
-0.00347547
0.000370021
-0.00355141
-0.00362917
0.00036758
5.29712e-06
-0.000109971
1.98672e-05
-0.000341603
4.25171e-05
-0.000590267
7.17237e-05
-0.000851532
0.000105633
-0.00111884
0.000142163
-0.00138437
0.000179183
-0.00164011
0.000214725
-0.00187897
0.000247179
-0.00209558
0.00027542
-0.00228688
0.000298856
-0.00245221
0.000317388
-0.00259297
0.000331312
-0.00271214
0.000341183
-0.00281362
0.000347691
-0.00290159
0.000351537
-0.00298003
0.000353366
-0.00305242
0.000353713
-0.00312156
0.000352997
-0.00318956
0.000351521
-0.00325792
0.000349492
-0.00332759
0.000347037
-0.0033991
0.000344229
-0.00347266
0.000341104
-0.00354829
-0.00362574
0.000337673
5.33236e-06
-0.000115304
1.99037e-05
-0.000356174
4.24127e-05
-0.000612776
7.12331e-05
-0.000880352
0.000104429
-0.00115203
0.000139874
-0.00141981
0.000175438
-0.00167568
0.000209205
-0.00191273
0.000239652
-0.00212602
0.000265761
-0.00231299
0.000287049
-0.00247349
0.000303512
-0.00260943
0.000315509
-0.00272414
0.000323635
-0.00282175
0.000328583
-0.00290654
0.000331043
-0.00298249
0.00033163
-0.003053
0.000330847
-0.00312077
0.000329078
-0.00318779
0.000326598
-0.00325544
0.00032359
-0.00332458
0.000320167
-0.00339568
0.00031639
-0.00346888
0.000312287
-0.00354418
-0.00362132
0.000307863
5.35606e-06
-0.00012066
1.98959e-05
-0.000370714
4.22126e-05
-0.000635092
7.05818e-05
-0.000908722
0.000102994
-0.00118445
0.000137287
-0.0014541
0.000171345
-0.00170974
0.000203309
-0.0019447
0.000231746
-0.00215446
0.000255749
-0.00233699
0.000274938
-0.00249268
0.000289393
-0.00262388
0.000299534
-0.00273428
0.000305982
-0.0028282
0.000309433
-0.00290999
0.000310559
-0.00298362
0.000309944
-0.00305239
0.000308058
-0.00311889
0.000305255
-0.00318499
0.00030178
-0.00325197
0.000297799
-0.0033206
0.000293409
-0.00339129
0.000288661
-0.00346414
0.000283576
-0.0035391
-0.0036159
0.000278158
5.368e-06
-0.000126028
1.98436e-05
-0.00038519
4.19173e-05
-0.000657166
6.97726e-05
-0.000936577
0.000101334
-0.00121601
0.000134416
-0.00148719
0.000166924
-0.00174224
0.000197063
-0.00197484
0.000223496
-0.00218089
0.000245422
-0.00235892
0.000262561
-0.00250982
0.000275071
-0.00263639
0.000283423
-0.00274263
0.000288259
-0.00283303
0.00029027
-0.002912
0.000290108
-0.00298346
0.000288326
-0.00305061
0.000285362
-0.00311592
0.000281538
-0.00318116
0.000277078
-0.00324751
0.000272127
-0.00331565
0.00026677
-0.00338593
0.000261049
-0.00345842
0.000254981
-0.00353303
-0.00360948
0.000248565
5.36806e-06
-0.000131396
1.97468e-05
-0.000399568
4.15279e-05
-0.000678947
6.88091e-05
-0.000963858
9.94584e-05
-0.00124666
0.000131274
-0.001519
0.000162194
-0.00177316
0.000190493
-0.00200314
0.000214934
-0.00220533
0.000234816
-0.0023788
0.000249956
-0.00252496
0.000260583
-0.00264702
0.00026721
-0.00274926
0.000270493
-0.00283632
0.000271117
-0.00291263
0.000269709
-0.00298205
0.000266792
-0.00304769
0.000262771
-0.0031119
0.00025794
-0.00317633
0.000252501
-0.00324207
0.000246581
-0.00330973
0.000240256
-0.0033796
0.000233561
-0.00345172
0.000226508
-0.00352598
-0.00360207
0.000219092
5.35614e-06
-0.000136752
1.96057e-05
-0.000413818
4.1046e-05
-0.000700387
6.76956e-05
-0.000990508
9.73745e-05
-0.00127634
0.000127876
-0.0015495
0.000157176
-0.00180246
0.000183628
-0.00202959
0.00020609
-0.0022278
0.000223966
-0.00239668
0.000237158
-0.00253815
0.000245962
-0.00265582
0.000250925
-0.00275422
0.000252713
-0.0028381
0.000251998
-0.00291191
0.000249382
-0.00297943
0.000245356
-0.00304367
0.000240296
-0.00310684
0.000234469
-0.00317051
0.000228055
-0.00323565
0.000221169
-0.00330284
0.000213875
-0.00337231
0.000206204
-0.00344405
0.000198163
-0.00351794
-0.00359365
0.000189747
5.33222e-06
-0.000142084
1.94207e-05
-0.000427906
4.04734e-05
-0.00072144
6.64368e-05
-0.00101647
9.50918e-05
-0.00130499
0.000124235
-0.00157865
0.00015189
-0.00183012
0.000176491
-0.00205419
0.000196995
-0.0022483
0.000212903
-0.00241259
0.0002242
-0.00254945
0.000231239
-0.00266286
0.000234597
-0.00275758
0.000234942
-0.00283845
0.000232932
-0.0029099
0.000229141
-0.00297564
0.000224031
-0.00303856
0.000217948
-0.00310076
0.000211133
-0.00316369
0.000203749
-0.00322827
0.000195898
-0.00329499
0.000187634
-0.00336405
0.000178985
-0.0034354
0.000169954
-0.0035089
-0.00358423
0.000160537
5.29635e-06
-0.000147381
1.91926e-05
-0.000441803
3.98125e-05
-0.00074206
6.5038e-05
-0.0010417
9.26199e-05
-0.00133257
0.000120367
-0.00160639
0.000146358
-0.00185611
0.00016911
-0.00207694
0.000187678
-0.00226687
0.000201659
-0.00242657
0.000211113
-0.00255891
0.000216444
-0.00266819
0.00021825
-0.00275939
0.000217202
-0.0028374
0.000213937
-0.00290664
0.000209002
-0.00297071
0.00020283
-0.00303238
0.000195736
-0.00309367
0.000187942
-0.0031559
0.000179591
-0.00321992
0.000170773
-0.00328617
0.00016154
-0.00335481
0.000151911
-0.00342577
0.000141888
-0.00349888
-0.00357381
0.000131468
5.24859e-06
-0.000152629
1.89219e-05
-0.000455476
3.90656e-05
-0.000762204
6.35047e-05
-0.00106614
8.99687e-05
-0.00135904
0.000116288
-0.00163271
0.000140599
-0.00188042
0.000161509
-0.00209785
0.000178168
-0.00228353
0.000190263
-0.00243866
0.000197925
-0.00256657
0.000201602
-0.00267187
0.00020191
-0.00275969
0.000199513
-0.00283501
0.000195029
-0.00290215
0.000188978
-0.00296465
0.000181762
-0.00302517
0.00017367
-0.00308557
0.000164901
-0.00314713
0.000155586
-0.0032106
0.000145803
-0.00327639
0.000135598
-0.00334461
0.000124987
-0.00341516
0.000113971
-0.00348787
-0.00356239
0.000102547
5.18908e-06
-0.000157818
1.86098e-05
-0.000468897
3.82357e-05
-0.00078183
6.1843e-05
-0.00108974
8.71485e-05
-0.00138434
0.000112011
-0.00165758
0.000134634
-0.00190304
0.000153712
-0.00211693
0.00016849
-0.00229831
0.000178742
-0.00244891
0.000184663
-0.00257249
0.000186738
-0.00267394
0.000185596
-0.00275855
0.000181892
-0.0028313
0.000176223
-0.00289648
0.00016908
-0.00295751
0.000160836
-0.00301692
0.000151756
-0.00307649
0.00014202
-0.00313739
0.000131741
-0.00320032
0.000120993
-0.00326564
0.000109814
-0.00333343
9.82186e-05
-0.00340357
8.62077e-05
-0.00347586
-0.00354996
7.37787e-05
5.11799e-06
-0.000162936
1.82573e-05
-0.000482036
3.73259e-05
-0.000800898
6.00591e-05
-0.00111248
8.41698e-05
-0.00140845
0.000107553
-0.00168096
0.000128482
-0.00192397
0.000145741
-0.00213419
0.000158671
-0.00231124
0.000167122
-0.00245737
0.000171351
-0.00257672
0.000171874
-0.00267447
0.000169327
-0.00275601
0.000164356
-0.00282633
0.000157532
-0.00288966
0.000149319
-0.0029493
0.000140062
-0.00300767
0.000130003
-0.00306643
0.000119303
-0.00312669
0.000108064
-0.00318909
9.63507e-05
-0.00325393
8.41967e-05
-0.00332127
7.16137e-05
-0.00339098
5.86008e-05
-0.00346284
-0.00353652
4.51589e-05
5.03556e-06
-0.000167972
1.78655e-05
-0.000494866
3.63394e-05
-0.000819372
5.81596e-05
-0.0011343
8.10432e-05
-0.00143134
0.000102929
-0.00170284
0.000122163
-0.00194321
0.00013762
-0.00214964
0.000148732
-0.00232235
0.000155427
-0.00246406
0.000158012
-0.0025793
0.00015703
-0.00267348
0.000153122
-0.0027521
0.000146918
-0.00282013
0.000138967
-0.00288171
0.000129704
-0.00294003
0.000119447
-0.00299741
0.000108417
-0.0030554
9.67571e-05
-0.00311503
8.45595e-05
-0.00317689
7.18815e-05
-0.00324125
5.87541e-05
-0.00330815
4.51875e-05
-0.00337742
3.11608e-05
-0.00344882
-0.00352198
1.66224e-05
4.94203e-06
-0.000172914
1.74359e-05
-0.00050736
3.52796e-05
-0.000837216
5.6151e-05
-0.00115517
7.77792e-05
-0.00145296
9.8152e-05
-0.00172322
0.000115694
-0.00196075
0.00012937
-0.00216332
0.000138698
-0.00233168
0.000143679
-0.00246904
0.000144666
-0.00258029
0.000142225
-0.00267104
0.000136996
-0.00274687
0.000129593
-0.00281272
0.000120539
-0.00287266
0.000110243
-0.00292974
9.8999e-05
-0.00298616
8.70045e-05
-0.00304341
7.43888e-05
-0.00310242
6.12339e-05
-0.00316373
4.75915e-05
-0.00322761
3.34918e-05
-0.00329405
1.8953e-05
-0.00336288
3.98437e-06
-0.00343385
-0.00350634
-1.16554e-05
4.8377e-06
-0.000177752
1.69699e-05
-0.000519492
3.41503e-05
-0.000854396
5.40401e-05
-0.00117506
7.43884e-05
-0.00147331
9.32379e-05
-0.00174207
0.000109093
-0.0019766
0.00012101
-0.00217524
0.000128589
-0.00233926
0.000131898
-0.00247235
0.000131332
-0.00257972
0.000127475
-0.00266719
0.000120962
-0.00274036
0.00011239
-0.00280415
0.000102257
-0.00286252
9.09454e-05
-0.00291843
7.87237e-05
-0.00297394
6.57715e-05
-0.00303046
5.22035e-05
-0.00308885
3.80927e-05
-0.00314962
2.34865e-05
-0.003213
8.41364e-06
-0.00327897
-7.11266e-06
-0.00334735
-2.312e-05
-0.00341784
-0.00348989
-3.95689e-05
4.72289e-06
-0.000182474
1.6469e-05
-0.000531238
3.2955e-05
-0.000870882
5.18338e-05
-0.00119394
7.08813e-05
-0.00149236
8.82005e-05
-0.00175939
0.000102378
-0.00199078
0.000112559
-0.00218542
0.000118425
-0.00234512
0.000120104
-0.00247403
0.000118029
-0.00257765
0.000112795
-0.00266195
0.000105034
-0.00273259
9.53209e-05
-0.00279444
8.41301e-05
-0.00285133
7.18167e-05
-0.00290611
5.86276e-05
-0.00296075
4.47237e-05
-0.00301655
3.02067e-05
-0.00307433
1.51414e-05
-0.00313456
-4.29474e-07
-0.00319743
-1.6474e-05
-0.00326293
-3.29837e-05
-0.00333084
-4.99711e-05
-0.00340085
-0.00347245
-6.74157e-05
4.59797e-06
-0.000187072
1.59347e-05
-0.000542575
3.16976e-05
-0.000886645
4.95388e-05
-0.00121178
6.72681e-05
-0.00151009
8.30534e-05
-0.00177517
9.55652e-05
-0.00200329
0.000104035
-0.00219389
0.000108224
-0.00234931
0.000108314
-0.00247412
0.000104771
-0.00257411
9.82004e-05
-0.00265538
8.92228e-05
-0.00272362
7.8395e-05
-0.00278361
6.61652e-05
-0.0028391
5.2864e-05
-0.00289281
3.87163e-05
-0.00294661
2.38664e-05
-0.0030017
8.40362e-06
-0.00305887
-7.6142e-06
-0.00311854
-2.41462e-05
-0.0031809
-4.11653e-05
-0.00324591
-5.86568e-05
-0.00331335
-7.66261e-05
-0.00338288
-0.00345399
-9.50791e-05
4.46331e-06
-0.000191536
1.53688e-05
-0.00055348
3.0382e-05
-0.000901658
4.7162e-05
-0.00122856
6.3559e-05
-0.00152649
7.78098e-05
-0.00178942
8.86697e-05
-0.00201415
9.54564e-05
-0.00220067
9.80027e-05
-0.00235186
9.65441e-05
-0.00247266
9.15741e-05
-0.00256914
8.37022e-05
-0.00264751
7.35392e-05
-0.00271345
6.16205e-05
-0.00277169
4.83696e-05
-0.00282585
3.40929e-05
-0.00287854
1.89954e-05
-0.00293151
3.2045e-06
-0.00298591
-1.32005e-05
-0.00304246
-3.0169e-05
-0.00310157
-4.76633e-05
-0.00316341
-6.56549e-05
-0.00322792
-8.41272e-05
-0.00329488
-0.000103083
-0.00336393
-0.00343453
-0.00012254
4.31931e-06
-0.000195855
1.47729e-05
-0.000563934
2.90121e-05
-0.000915898
4.471e-05
-0.00124426
5.97638e-05
-0.00154154
7.24824e-05
-0.00180214
8.17065e-05
-0.00202338
8.68376e-05
-0.00220581
8.77778e-05
-0.0023528
8.48098e-05
-0.00246969
7.84506e-05
-0.00256278
6.93122e-05
-0.00263837
5.79923e-05
-0.00270213
4.5005e-05
-0.0027587
3.07494e-05
-0.0028116
1.55089e-05
-0.00286329
-5.31806e-07
-0.00291547
-1.72567e-05
-0.00296919
-3.46005e-05
-0.00302512
-5.25177e-05
-0.00308365
-7.09732e-05
-0.00314495
-8.99371e-05
-0.00320895
-0.00010939
-0.00327542
-0.000129332
-0.00334399
-0.00341408
-0.000149789
4.16638e-06
-0.000200021
1.41487e-05
-0.000573916
2.75916e-05
-0.00092934
4.21897e-05
-0.00125885
5.58921e-05
-0.00155524
6.70833e-05
-0.00181333
7.46898e-05
-0.00203098
7.8194e-05
-0.00220931
7.75637e-05
-0.00235217
7.31245e-05
-0.00246525
6.54128e-05
-0.00255507
5.50404e-05
-0.002628
4.25905e-05
-0.00268968
2.85554e-05
-0.00274467
1.33105e-05
-0.00279635
-2.88283e-06
-0.0028471
-1.98566e-05
-0.00289849
-3.75125e-05
-0.00295153
-5.57915e-05
-0.00300684
-7.46551e-05
-0.00306479
-9.40703e-05
-0.00312554
-0.000114006
-0.00318902
-0.000134439
-0.00325499
-0.000155368
-0.00332306
-0.00339263
-0.00017682
4.00498e-06
-0.000204026
1.34981e-05
-0.000583409
2.61245e-05
-0.000941967
3.96074e-05
-0.00127234
5.19532e-05
-0.00156759
6.16243e-05
-0.001823
6.76326e-05
-0.00203699
6.95395e-05
-0.00221122
6.7374e-05
-0.00235
6.15006e-05
-0.00245938
5.24716e-05
-0.00254604
4.08959e-05
-0.00261642
2.73413e-05
-0.00267613
1.22778e-05
-0.00272961
-3.9421e-06
-0.00278013
-2.10776e-05
-0.00282997
-3.89785e-05
-0.00288059
-5.75586e-05
-0.00293295
-7.67687e-05
-0.00298763
-9.65759e-05
-0.00304498
-0.000116949
-0.00310516
-0.000137856
-0.00316811
-0.000159269
-0.00323358
-0.000181183
-0.00330114
-0.00337018
-0.000203626
3.83553e-06
-0.000207862
1.28227e-05
-0.000592396
2.46147e-05
-0.000953759
3.69696e-05
-0.00128469
4.7956e-05
-0.00157858
5.61164e-05
-0.00183116
6.05476e-05
-0.00204142
6.0887e-05
-0.00221156
5.72213e-05
-0.00234634
4.99496e-05
-0.00245211
3.9637e-05
-0.00253572
2.68872e-05
-0.00260367
1.22514e-05
-0.00266149
-3.82221e-06
-0.00271353
-2.10035e-05
-0.00276295
-3.90715e-05
-0.0028119
-5.78919e-05
-0.00286177
-7.73905e-05
-0.00291345
-9.75273e-05
-0.00296749
-0.000118275
-0.00302424
-0.000139604
-0.00308383
-0.00016148
-0.00314624
-0.000183872
-0.00321119
-0.000206771
-0.00327824
-0.00334675
-0.000230201
3.65849e-06
-0.00021152
1.21244e-05
-0.000600862
2.30658e-05
-0.0009647
3.42824e-05
-0.00129591
4.39091e-05
-0.0015882
5.05702e-05
-0.00183782
5.34465e-05
-0.0020443
5.22485e-05
-0.00221036
4.7117e-05
-0.0023412
3.84819e-05
-0.00244347
2.69179e-05
-0.00252416
1.30217e-05
-0.00258978
-2.67307e-06
-0.0026458
-1.97396e-05
-0.00269647
-3.78695e-05
-0.00274482
-5.68603e-05
-0.00279291
-7.65928e-05
-0.00284204
-9.7004e-05
-0.00289304
-0.000118062
-0.00294644
-0.000139746
-0.00300255
-0.000162029
-0.00306155
-0.000184874
-0.00312339
-0.000208244
-0.00318782
-0.000232124
-0.00325436
-0.00332234
-0.000256539
3.47432e-06
-0.000214995
1.14048e-05
-0.000608793
2.14817e-05
-0.000974777
3.1552e-05
-0.00130598
3.98208e-05
-0.00159647
4.49957e-05
-0.001843
4.63402e-05
-0.00204564
4.36354e-05
-0.00220765
3.70718e-05
-0.00233464
2.7107e-05
-0.00243351
1.43224e-05
-0.00251138
-6.94092e-07
-0.00257476
-1.74267e-05
-0.00262907
-3.547e-05
-0.00267842
-5.45362e-05
-0.00272575
-7.44405e-05
-0.002773
-9.50774e-05
-0.0028214
-0.000116395
-0.00287172
-0.00013837
-0.00292446
-0.000160985
-0.00297994
-0.000184218
-0.00303832
-0.000208029
-0.00309958
-0.000232376
-0.00316347
-0.000257238
-0.0032295
-0.00329694
-0.000282633
3.28349e-06
-0.000218278
1.06659e-05
-0.000616175
1.9866e-05
-0.000983977
2.8784e-05
-0.0013149
3.56989e-05
-0.00160339
3.94023e-05
-0.0018467
3.92392e-05
-0.00204548
3.50578e-05
-0.00220347
2.70954e-05
-0.00232668
1.58336e-05
-0.00242225
1.85794e-06
-0.0024974
-1.4254e-05
-0.00255865
-3.20045e-05
-0.00261132
-5.10093e-05
-0.00265942
-7.10001e-05
-0.00270576
-9.18086e-05
-0.00275219
-0.000113342
-0.00279987
-0.000135559
-0.00284951
-0.000158444
-0.00290158
-0.000181987
-0.00295639
-0.000206166
-0.00301414
-0.000230942
-0.0030748
-0.000256265
-0.00313815
-0.000282105
-0.00320366
-0.00327057
-0.000308476
3.08646e-06
-0.000221365
9.90912e-06
-0.000622998
1.82223e-05
-0.00099229
2.59842e-05
-0.00132266
3.1551e-05
-0.00160895
3.37989e-05
-0.00184895
3.21529e-05
-0.00204384
2.65254e-05
-0.00219784
1.71969e-05
-0.00231735
4.66957e-06
-0.00240972
-1.04691e-05
-0.00248226
-2.76527e-05
-0.00254147
-4.64022e-05
-0.00259257