/*--------------------------------*- C++ -*----------------------------------*\
  =========                 |
  \\      /  F ield         | OpenFOAM: The Open Source CFD Toolbox
   \\    /   O peration     | Website:  https://openfoam.org
    \\  /    A nd           | Version:  7
     \\/     M anipulation  |
\*---------------------------------------------------------------------------*/
FoamFile
{
    version     2.0;
    format      ascii;
    class       surfaceScalarField;
    location    "25";
    object      phi;
}
// * * * * * * * * * * * * * * * * * * * * * * * * * * * * * * * * * * * * * //

dimensions      [0 3 -1 0 0 0 0];

internalField   nonuniform List<scalar> 
16712
(
-8.92813e-07
8.95565e-07
-2.75182e-09
-3.36053e-06
2.47563e-06
-7.91592e-09
-7.2699e-06
3.92231e-06
-1.29388e-08
-1.24888e-05
5.23666e-06
-1.77805e-08
-1.88876e-05
6.42124e-06
-2.24133e-08
-2.63414e-05
7.4806e-06
-2.68256e-08
-3.47316e-05
8.42122e-06
-3.10224e-08
-4.39483e-05
9.25179e-06
-3.50273e-08
-5.38929e-05
9.9834e-06
-3.88809e-08
-6.44799e-05
1.06297e-05
-4.26392e-08
-7.56406e-05
1.1207e-05
-4.63712e-08
-8.73249e-05
1.17345e-05
-5.0154e-08
-9.95049e-05
1.22341e-05
-5.40698e-08
-0.000112177
1.27302e-05
-5.82019e-08
-0.000125364
1.32494e-05
-6.26309e-08
-0.000139115
1.38192e-05
-6.74336e-08
-0.000153509
1.44663e-05
-7.26814e-08
-0.000168646
1.52149e-05
-7.84396e-08
-0.000184641
1.60807e-05
-8.4765e-08
1.70818e-05
-9.17086e-08
-0.000201632
-8.90123e-07
1.78569e-06
-3.35065e-06
4.93616e-06
-7.24876e-06
7.82042e-06
-1.24525e-05
1.04404e-05
-1.88326e-05
1.28013e-05
-2.62638e-05
1.49118e-05
-3.46274e-05
1.67849e-05
-4.38133e-05
1.84377e-05
-5.37221e-05
1.98922e-05
-6.42679e-05
2.11755e-05
-7.53808e-05
2.232e-05
-8.701e-05
2.33637e-05
-9.91264e-05
2.43504e-05
-0.000111725
2.53289e-05
-0.000124828
2.63521e-05
-0.000138484
2.74752e-05
-0.000152769
2.8752e-05
-0.000167786
3.0231e-05
-0.000183649
3.1944e-05
3.39272e-05
-0.000200494
-8.84785e-07
2.67047e-06
-3.33104e-06
7.38242e-06
-7.20676e-06
1.16961e-05
-1.23806e-05
1.56142e-05
-1.87232e-05
1.91439e-05
-2.61095e-05
2.22981e-05
-3.44203e-05
2.50957e-05
-4.35447e-05
2.75621e-05
-5.33823e-05
2.97298e-05
-6.38459e-05
3.1639e-05
-7.48639e-05
3.33379e-05
-8.63833e-05
3.48831e-05
-9.83727e-05
3.63398e-05
-0.000110825
3.77812e-05
-0.00012376
3.9287e-05
-0.000137225
4.09399e-05
-0.000151295
4.2822e-05
-0.00016607
4.50067e-05
-0.000181669
4.75425e-05
5.04839e-05
-0.000198225
-8.76861e-07
3.54733e-06
-3.3019e-06
9.80746e-06
-7.14433e-06
1.55386e-05
-1.22735e-05
2.07434e-05
-1.85604e-05
2.54308e-05
-2.58798e-05
2.96174e-05
-3.41118e-05
3.33277e-05
-4.31446e-05
3.65949e-05
-5.28761e-05
3.94614e-05
-6.3217e-05
4.19799e-05
-7.40931e-05
4.4214e-05
-8.54484e-05
4.62385e-05
-9.72482e-05
4.81396e-05
-0.000109482
5.00148e-05
-0.000122165
5.19705e-05
-0.000135344
5.41183e-05
-0.00014909
5.65687e-05
-0.000163505
5.94219e-05
-0.000178707
6.27439e-05
6.66077e-05
-0.000194831
-8.66441e-07
4.41378e-06
-3.26355e-06
1.22046e-05
-7.06209e-06
1.93371e-05
-1.21323e-05
2.58137e-05
-1.83457e-05
3.16441e-05
-2.55766e-05
3.68483e-05
-3.37044e-05
4.14556e-05
-4.26159e-05
4.55063e-05
-5.22069e-05
4.90523e-05
-6.23852e-05
5.21583e-05
-7.30734e-05
5.49021e-05
-8.42112e-05
5.73762e-05
-9.57592e-05
5.96876e-05
-0.000107702
6.19577e-05
-0.000120052
6.43199e-05
-0.000132849
6.69153e-05
-0.000146165
6.98847e-05
-0.000160099
7.33564e-05
-0.000174771
7.74159e-05
8.21552e-05
-0.000190319
-8.53645e-07
5.26742e-06
-3.21638e-06
1.45673e-05
-6.96084e-06
2.30816e-05
-1.19584e-05
3.08112e-05
-1.80808e-05
3.77666e-05
-2.52023e-05
4.39698e-05
-3.32013e-05
4.94546e-05
-4.19625e-05
5.42675e-05
-5.13793e-05
5.84692e-05
-6.13562e-05
6.21352e-05
-7.18111e-05
6.53571e-05
-8.26788e-05
6.8244e-05
-9.39141e-05
7.09229e-05
-0.000105495
7.3539e-05
-0.000117429
7.62532e-05
-0.00012975
7.92368e-05
-0.000142528
8.26626e-05
-0.000155862
8.66899e-05
-0.000169872
9.1426e-05
9.69829e-05
-0.000184699
-8.38616e-07
6.10604e-06
-3.16088e-06
1.68896e-05
-6.84154e-06
2.67622e-05
-1.17532e-05
3.57229e-05
-1.77681e-05
4.37814e-05
-2.476e-05
5.09616e-05
-3.2606e-05
5.73006e-05
-4.11889e-05
6.28504e-05
-5.0399e-05
6.76793e-05
-6.01364e-05
7.18726e-05
-7.03141e-05
7.55347e-05
-8.08604e-05
7.87902e-05
-9.1723e-05
8.17855e-05
-0.000102873
8.46889e-05
-0.000114309
8.7689e-05
-0.000126061
9.09887e-05
-0.000138193
9.47952e-05
-0.000150805
9.93019e-05
-0.00016402
0.000104641
0.000110947
-0.000177985
-8.2152e-07
6.92756e-06
-3.09761e-06
1.91657e-05
-6.70532e-06
3.03699e-05
-1.15186e-05
4.05362e-05
-1.741e-05
4.96729e-05
-2.42529e-05
5.78045e-05
-3.1923e-05
6.49707e-05
-4.03005e-05
7.1228e-05
-4.92722e-05
7.66509e-05
-5.87334e-05
8.13339e-05
-6.8591e-05
8.53923e-05
-7.87659e-05
8.89652e-05
-8.91974e-05
9.2217e-05
-9.98474e-05
9.53389e-05
-0.000110706
9.85472e-05
-0.000121795
0.000102078
-0.000133175
0.000106175
-0.000144944
0.000111071
-0.000157231
0.000116928
0.000123904
-0.000170188
-8.02542e-07
7.7301e-06
-3.0272e-06
2.13903e-05
-6.55341e-06
3.38961e-05
-1.12565e-05
4.52392e-05
-1.70094e-05
5.54258e-05
-2.36849e-05
6.448e-05
-3.11569e-05
7.24428e-05
-3.93031e-05
7.93741e-05
-4.8006e-05
8.53538e-05
-5.71556e-05
9.04835e-05
-6.66517e-05
9.48883e-05
-7.64067e-05
9.87202e-05
-8.63502e-05
0.00010216
-9.64331e-05
0.000105422
-0.000106635
0.000108749
-0.000116969
0.000112412
-0.000127489
0.000116696
-0.000138293
0.000121876
-0.000149516
0.00012815
0.000135709
-0.00016132
-7.81881e-07
8.51198e-06
-2.95031e-06
2.35587e-05
-6.38717e-06
3.7333e-05
-1.09691e-05
4.98212e-05
-1.65694e-05
6.10261e-05
-2.30599e-05
7.09705e-05
-3.0313e-05
7.96958e-05
-3.82029e-05
8.7264e-05
-4.66078e-05
9.37588e-05
-5.54117e-05
9.92874e-05
-6.45064e-05
0.000103983
-7.37948e-05
0.000108009
-8.3195e-05
0.000111561
-9.26455e-05
0.000114872
-0.000102113
0.000118216
-0.000111599
0.000121898
-0.000121152
0.000126248
-0.000130868
0.000131592
-0.000140889
0.000138171
0.000146213
-0.000151393
-7.5975e-07
9.27173e-06
-2.86765e-06
2.56666e-05
-6.20798e-06
4.06733e-05
-1.06586e-05
5.42718e-05
-1.6093e-05
6.64605e-05
-2.23822e-05
7.72596e-05
-2.93963e-05
8.67099e-05
-3.70062e-05
9.4874e-05
-4.50853e-05
0.000101838
-5.35108e-05
0.000107713
-6.21658e-05
0.000112638
-7.09424e-05
0.000116785
-7.97458e-05
0.000120364
-8.85002e-05
0.000123627
-9.7157e-05
0.000126873
-0.000105705
0.000130447
-0.000114183
0.000134726
-0.000122685
0.000140094
-0.000131363
0.000146849
0.000155265
-0.000140415
-7.36364e-07
1.00081e-05
-2.77996e-06
2.77102e-05
-6.01732e-06
4.39107e-05
-1.03274e-05
5.85819e-05
-1.55837e-05
7.17168e-05
-2.1656e-05
8.3332e-05
-2.84122e-05
9.34661e-05
-3.57196e-05
0.000102181
-4.34462e-05
0.000109564
-5.14618e-05
0.000115728
-5.96403e-05
0.000120817
-6.78618e-05
0.000125007
-7.60168e-05
0.000128519
-8.40131e-05
0.000131623
-9.17845e-05
0.000134644
-9.93039e-05
0.000137966
-0.000106597
0.000142019
-0.000113758
0.000147255
-0.000120949
0.00015404
0.000162708
-0.000128392
-7.11946e-07
1.072e-05
-2.68798e-06
2.96863e-05
-5.81662e-06
4.70393e-05
-9.9777e-06
6.2743e-05
-1.50444e-05
7.67835e-05
-2.08854e-05
8.91729e-05
-2.73659e-05
9.99466e-05
-3.43492e-05
0.000109165
-4.16977e-05
0.000116913
-4.92734e-05
0.000123304
-5.69399e-05
0.000128483
-6.45642e-05
0.000132631
-7.2021e-05
0.000135976
-7.9199e-05
0.000138801
-8.60118e-05
0.000141457
-9.24124e-05
0.000144367
-9.84121e-05
0.000148019
-0.0001041
0.000152943
-0.000109653
0.000159592
0.000168378
-0.000115323
-6.86713e-07
1.14068e-05
-2.59242e-06
3.1592e-05
-5.60732e-06
5.00542e-05
-9.61177e-06
6.67474e-05
-1.44785e-05
8.16503e-05
-2.00745e-05
9.47689e-05
-2.62623e-05
0.000106134
-3.29008e-05
0.000115803
-3.98465e-05
0.000123858
-4.69531e-05
0.000130411
-5.40734e-05
0.000135603
-6.10601e-05
0.000139618
-6.77702e-05
0.000142686
-7.40713e-05
0.000145102
-7.98535e-05
0.000147239
-8.50461e-05
0.000149559
-8.96416e-05
0.000152614
-9.37229e-05
0.000157024
-9.74797e-05
0.000163349
0.0001721
-0.000101202
-6.60878e-07
1.20676e-05
-2.49401e-06
3.34251e-05
-5.39079e-06
5.2951e-05
-9.23175e-06
7.05884e-05
-1.38888e-05
8.63073e-05
-1.9227e-05
0.000100107
-2.51057e-05
0.000112013
-3.13795e-05
0.000122077
-3.78984e-05
0.000130377
-4.45075e-05
0.00013702
-5.1048e-05
0.000142144
-5.73576e-05
0.000145927
-6.32738e-05
0.000148602
-6.86408e-05
0.000150469
-7.33215e-05
0.00015192
-7.72173e-05
0.000153455
-8.02966e-05
0.000155693
-8.2632e-05
0.00015936
-8.44277e-05
0.000165145
0.000173686
-8.60132e-05
-6.34645e-07
1.27023e-05
-2.39339e-06
3.51839e-05
-5.16831e-06
5.57259e-05
-8.83961e-06
7.42597e-05
-1.32779e-05
9.07456e-05
-1.8346e-05
0.000105175
-2.39e-05
0.000117567
-2.97895e-05
0.000127967
-3.58578e-05
0.000136446
-4.19414e-05
0.000143104
-4.78689e-05
0.000148071
-5.34621e-05
0.000151521
-5.85378e-05
0.000153678
-6.29142e-05
0.000154846
-6.64235e-05
0.000155429
-6.89338e-05
0.000155965
-7.03834e-05
0.000157143
-7.08291e-05
0.000159805
-7.04892e-05
0.000164805
0.000172931
-6.97348e-05
-6.08202e-07
1.33105e-05
-2.29119e-06
3.68668e-05
-4.94106e-06
5.83758e-05
-8.4371e-06
7.77557e-05
-1.26482e-05
9.49567e-05
-1.74344e-05
0.000109961
-2.26481e-05
0.000122781
-2.81338e-05
0.000133452
-3.37279e-05
0.00014204
-3.92573e-05
0.000148633
-4.45383e-05
0.000153352
-4.93757e-05
0.000156358
-5.35642e-05
0.000157866
-5.68936e-05
0.000158175
-5.91614e-05
0.000157697
-6.01971e-05
0.000157001
-5.99016e-05
0.000156848
-5.83087e-05
0.000158213
-5.56484e-05
0.000162144
0.000169618
-5.2335e-05
-5.81723e-07
1.38922e-05
-2.18796e-06
3.84731e-05
-4.71005e-06
6.08979e-05
-8.02572e-06
8.10714e-05
-1.20015e-05
9.89324e-05
-1.64942e-05
0.000114454
-2.1352e-05
0.000127639
-2.64141e-05
0.000138514
-3.15095e-05
0.000147135
-3.64554e-05
0.000153579
-4.10551e-05
0.000157952
-4.50959e-05
0.000160399
-4.83492e-05
0.00016112
-5.05741e-05
0.0001604
-5.15297e-05
0.000158653
-5.10004e-05
0.000156472
-4.88416e-05
0.000154689
-4.50552e-05
0.000154426
-3.98814e-05
0.000156971
0.000163514
-3.37775e-05
-5.5536e-07
1.44476e-05
-2.08418e-06
4.00019e-05
-4.47616e-06
6.32899e-05
-7.60667e-06
8.42019e-05
-1.13391e-05
0.000102665
-1.55267e-05
0.000118642
-2.00128e-05
0.000132125
-2.46306e-05
0.000143132
-2.92015e-05
0.000151706
-3.35327e-05
0.00015791
-3.74142e-05
0.000161833
-4.06152e-05
0.0001636
-4.28826e-05
0.000163387
-4.3943e-05
0.00016146
-4.35134e-05
0.000158223
-4.13264e-05
0.000154285
-3.7182e-05
0.000150544
-3.10362e-05
0.00014828
-2.31495e-05
0.000149084
0.000154444
-1.40788e-05
-5.29244e-07
1.49768e-05
-1.98024e-06
4.14529e-05
-4.24007e-06
6.55497e-05
-7.18082e-06
8.71426e-05
-1.06621e-05
0.000106146
-1.45325e-05
0.000122512
-1.86301e-05
0.000136222
-2.27815e-05
0.000147284
-2.68003e-05
0.000155725
-3.0483e-05
0.000161593
-3.36059e-05
0.000164956
-3.59198e-05
0.000165914
-3.71464e-05
0.000164613
-3.6978e-05
0.000161292
-3.50859e-05
0.000156331
-3.11447e-05
0.000150344
-2.48877e-05
0.000144287
-1.61993e-05
0.000139592
-5.26328e-06
0.000138148
0.000142359
6.82079e-06
-5.03486e-07
1.54803e-05
-1.87645e-06
4.28259e-05
-4.00225e-06
6.76755e-05
-6.74867e-06
8.98891e-05
-9.97053e-06
0.000109368
-1.35111e-05
0.000126053
-1.72022e-05
0.000139913
-2.08635e-05
0.000150945
-2.42996e-05
0.000159161
-2.72963e-05
0.00016459
-2.96156e-05
0.000167276
-3.09894e-05
0.000167287
-3.11137e-05
0.000164738
-2.96455e-05
0.000159824
-2.62072e-05
0.000152893
-2.04092e-05
0.000144546
-1.19074e-05
0.000135785
-5.28556e-07
0.000128213
1.35921e-05
0.000124027
0.000126331
2.96208e-05
-4.78168e-07
1.59585e-05
-1.77303e-06
4.41207e-05
-3.76298e-06
6.96655e-05
-6.31037e-06
9.24365e-05
-9.26414e-06
0.000112322
-1.24612e-05
0.00012925
-1.57263e-05
0.000143179
-1.8871e-05
0.00015409
-2.16904e-05
0.00016198
-2.39587e-05
0.000166858
-2.5423e-05
0.00016874
-2.57962e-05
0.000167661
-2.4748e-05
0.00016369
-2.18992e-05
0.000156975
-1.68215e-05
0.000147815
-9.05535e-06
0.000136779
1.83502e-06
0.000124895
1.61311e-05
0.000113917
3.36989e-05
0.000106459
0.00010628
5.37497e-05
-4.5335e-07
1.64118e-05
-1.67009e-06
4.53375e-05
-3.5223e-06
7.15177e-05
-5.86563e-06
9.47798e-05
-8.54192e-06
0.000114998
-1.13805e-05
0.000132088
-1.41979e-05
0.000145996
-1.67965e-05
0.000156688
-1.89607e-05
0.000164144
-2.04522e-05
0.000168349
-2.10026e-05
0.00016929
-2.03048e-05
0.000166963
-1.80023e-05
0.000161387
-1.36793e-05
0.000152652
-6.85551e-06
0.000140991
3.00245e-06
0.000126922
1.64313e-05
0.000111466
3.38303e-05
9.65181e-05
5.51631e-05
8.51265e-05
8.1849e-05
7.9594e-05
-4.29066e-07
1.68409e-05
-1.56765e-06
4.6476e-05
-3.28006e-06
7.32301e-05
-5.4138e-06
9.69135e-05
-7.80222e-06
0.000117387
-1.02657e-05
0.000134552
-1.26112e-05
0.000148342
-1.46304e-05
0.000158707
-1.60958e-05
0.00016561
-1.67549e-05
0.000169009
-1.63229e-05
0.000168859
-1.4472e-05
0.000165112
-1.08189e-05
0.000157734
-4.91136e-06
0.000146744
3.78271e-06
0.000132297
1.58726e-05
0.000114832
3.20044e-05
9.53345e-05
5.27184e-05
7.58041e-05
7.81059e-05
5.9739e-05
5.26301e-05
0.000107325
-4.05324e-07
1.72462e-05
-1.46564e-06
4.75364e-05
-3.03586e-06
7.48003e-05
-4.95378e-06
9.88314e-05
-7.04275e-06
0.000119475
-9.11258e-06
0.000136622
-1.0959e-05
0.000150188
-1.23612e-05
0.00016011
-1.30779e-05
0.000166326
-1.2841e-05
0.000168772
-1.13473e-05
0.000167365
-8.24691e-06
0.000162011
-3.12943e-06
0.000152617
4.49345e-06
0.000139122
1.52047e-05
0.000121586
2.96892e-05
0.000100347
4.87067e-05
7.6317e-05
7.29579e-05
5.15528e-05
0.0001027
2.99972e-05
1.81906e-05
0.000137139
-3.82105e-07
1.76283e-05
-1.36385e-06
4.85181e-05
-2.78905e-06
7.62255e-05
-4.48409e-06
0.000100526
-6.26054e-06
0.000121252
-7.91587e-06
0.000138277
-9.23256e-06
0.000151505
-9.9754e-06
0.000160852
-9.88697e-06
0.000166238
-8.68108e-06
0.000167566
-6.03385e-06
0.000164718
-1.57171e-06
0.000157549
5.14419e-06
0.000145901
1.46378e-05
0.000129628
2.7541e-05
0.000108683
4.4611e-05
8.32772e-05
6.67216e-05
5.42064e-05
9.47475e-05
2.35269e-05
0.00012915
-4.40537e-06
-2.19207e-05
0.000169261
-3.59364e-07
1.79877e-05
-1.262e-06
4.94207e-05
-2.53876e-06
7.75023e-05
-4.0028e-06
0.000101991
-5.45197e-06
0.000122701
-6.66937e-06
0.000139494
-7.42201e-06
0.000152257
-7.45771e-06
0.000160888
-6.50021e-06
0.000165281
-4.24226e-06
0.000165308
-3.36349e-07
0.000160812
5.61763e-06
0.000151595
1.40887e-05
0.00013743
2.56367e-05
0.00011808
4.09394e-05
9.33801e-05
6.0821e-05
6.33956e-05
8.62633e-05
2.8764e-05
0.000118321
-8.53085e-06
0.000157696
-4.378e-05
-6.81582e-05
0.000203933
-3.37026e-07
1.83247e-05
-1.15967e-06
5.02434e-05
-2.28387e-06
7.86265e-05
-3.50754e-06
0.000103214
-4.61276e-06
0.000123806
-5.36594e-06
0.000140247
-5.51607e-06
0.000152407
-4.79114e-06
0.000160163
-2.89277e-06
0.000163382
5.11006e-07
0.000161904
5.79517e-06
0.000155527
1.33901e-05
0.000144
2.37978e-05
0.000127022
3.76147e-05
0.000104263
5.55618e-05
7.5433e-05
7.85221e-05
4.04353e-05
0.000107574
-2.87523e-07
0.000143946
-4.49029e-05
0.000188606
-8.84401e-05
-0.000120961
0.000241409
-3.14987e-07
1.86397e-05
-1.05633e-06
5.09847e-05
-2.02299e-06
7.95931e-05
-2.99551e-06
0.000104187
-3.73791e-06
0.000124549
-3.99745e-06
0.000140507
-3.50224e-06
0.000151912
-1.95712e-06
0.000158618
9.6219e-07
0.000160463
5.61668e-06
0.00015725
1.24135e-05
0.000148731
2.1818e-05
0.000134596
3.43693e-05
0.00011447
5.07023e-05
8.79299e-05
7.1579e-05
5.45564e-05
9.79314e-05
1.40829e-05
0.000130915
-3.32715e-05
0.000171916
-8.59031e-05
0.000222176
-0.000138701
-0.00018073
0.000281945
-2.93106e-07
1.89328e-05
-9.51322e-07
5.16429e-05
-1.75445e-06
8.03963e-05
-2.46339e-06
0.000104896
-2.82172e-06
0.000124907
-2.5548e-06
0.00014024
-1.36674e-06
0.000150724
1.06445e-06
0.000156187
5.09326e-06
0.000156434
1.11146e-05
0.000151228
1.95734e-05
0.000140272
3.09757e-05
0.000123194
4.59031e-05
9.95431e-05
6.50324e-05
6.88006e-05
8.9165e-05
3.04239e-05
0.000119272
-1.6024e-05
0.000156562
-7.05622e-05
0.000202542
-0.000131882
0.00025872
-0.000194879
-0.000247803
0.000325793
-2.71206e-07
1.9204e-05
-8.4384e-07
5.22156e-05
-1.47625e-06
8.10287e-05
-1.90737e-06
0.000105327
-1.85774e-06
0.000124857
-1.02789e-06
0.00013941
9.05478e-07
0.000148791
4.29517e-06
0.000152797
9.53061e-06
0.000151199
1.70463e-05
0.000143713
2.73309e-05
0.000129987
4.0938e-05
0.000109586
5.84984e-05
8.19828e-05
8.07353e-05
4.65637e-05
0.00010849
2.66933e-06
0.000142762
-5.02961e-05
0.000184787
-0.000112587
0.000236138
-0.000183233
0.000298556
-0.000257298
-0.000322421
0.000373175
-2.49066e-07
1.94531e-05
-7.3292e-07
5.26994e-05
-1.18609e-06
8.14818e-05
-1.32309e-06
0.000105464
-8.38686e-07
0.000124373
5.94488e-07
0.000137977
3.33077e-06
0.000146054
7.75809e-06
0.00014837
1.43059e-05
0.000144651
2.34541e-05
0.000134564
3.57422e-05
0.000117699
5.17786e-05
9.355e-05
7.22506e-05
6.15108e-05
9.79344e-05
2.08799e-05
0.000129712
-2.91087e-05
0.000168605
-8.91887e-05
0.000215843
-0.000159825
0.000273001
-0.000240391
0.000341991
-0.000326288
-0.000404698
0.000424268
-2.26417e-07
1.96795e-05
-6.17421e-07
5.30904e-05
-8.81297e-07
8.17457e-05
-7.05561e-07
0.000105288
2.43598e-07
0.000123424
2.32467e-06
0.000135896
5.92688e-06
0.000142452
1.14778e-05
0.000142819
1.94523e-05
0.000136676
3.03818e-05
0.000123635
4.48636e-05
0.000103217
6.35691e-05
7.48445e-05
8.72498e-05
3.78301e-05
0.000116742
-8.61255e-06
0.000152973
-6.53399e-05
0.000196978
-0.000133193
0.000249953
-0.0002128
0.000313394
-0.000303832
0.000389303
-0.000402197
-0.000494579
0.000479183
-2.02938e-07
1.98824e-05
-4.96016e-07
5.33835e-05
-5.58783e-07
8.18085e-05
-4.91191e-08
0.000104778
1.39817e-06
0.000121977
4.17623e-06
0.000133118
8.71305e-06
0.000137915
1.54805e-05
0.000136052
2.50043e-05
0.000127153
3.78737e-05
0.000110765
5.47509e-05
8.63401e-05
7.63778e-05
5.32177e-05
0.000103578
1.06296e-05
0.000137257
-4.22908e-05
0.000178389
-0.000106472
0.00022802
-0.000182824
0.000287289
-0.000272069
0.000357524
-0.000374067
0.000440721
-0.000485394
-0.000591802
0.000537944
-1.78246e-07
2.00607e-05
-3.67172e-07
5.35724e-05
-2.15069e-07
8.16564e-05
6.52424e-07
0.000103911
2.63511e-06
0.000119994
6.16402e-06
0.000129589
1.171e-05
0.000132369
1.97941e-05
0.000127967
3.09979e-05
0.000115949
4.5975e-05
9.57884e-05
6.54589e-05
6.68561e-05
9.0269e-05
2.84076e-05
0.000121309
-2.04106e-05
0.000159558
-8.05393e-05
0.000206046
-0.00015296
0.000261826
-0.000238605
0.000327961
-0.000338203
0.000405527
-0.000451633
0.000496415
-0.000576282
-0.000695855
0.000600468
-1.51897e-07
2.02126e-05
-2.2914e-07
5.36497e-05
1.53784e-07
8.12735e-05
1.40622e-06
0.000102658
3.96552e-06
0.000117435
8.30423e-06
0.00012525
1.49402e-05
0.000125733
2.4448e-05
0.00011846
3.74707e-05
0.000102926
5.47314e-05
7.85277e-05
7.70411e-05
4.45464e-05
0.000105302
1.46291e-07
0.000140504
-5.56126e-05
0.000183705
-0.00012374
0.000235994
-0.000205249
0.000298434
-0.000301046
0.000372
-0.000411769
0.000457455
-0.000537088
0.000556484
-0.000675311
-0.000805945
0.000666573
-1.2338e-07
2.03359e-05
-7.99151e-08
5.36062e-05
5.52128e-07
8.06414e-05
2.21996e-06
0.000100991
5.4015e-06
0.000114253
1.06144e-05
0.000120037
1.84274e-05
0.00011792
2.94733e-05
0.000107414
4.44613e-05
8.79378e-05
6.4189e-05
5.88001e-05
8.9549e-05
1.91864e-05
0.000121531
-3.18359e-05
0.000161213
-9.52942e-05
0.000209733
-0.00017226
0.000268243
-0.000263759
0.00033782
-0.000370623
0.000419346
-0.000493295
0.000513246
-0.000630988
0.000620897
-0.000782961
-0.0009211
0.000736052
-9.21326e-08
2.04281e-05
8.25878e-08
5.34315e-05
9.84786e-07
7.97392e-05
3.10209e-06
9.88733e-05
6.95617e-06
0.000110399
1.31132e-05
0.00011388
2.21969e-05
0.000108837
3.49024e-05
9.47084e-05
5.20094e-05
7.08309e-05
7.43932e-05
3.64163e-05
0.000103031
-9.45174e-06
0.000139001
-6.7806e-05
0.000183468
-0.00013976
0.000237648
-0.00022644
0.000302756
-0.000328866
0.000379891
-0.000447758
0.000469865
-0.000583269
0.00057279
-0.000733913
0.000689397
-0.000899568
-0.00104064
0.000808938
-5.75129e-08
2.04856e-05
2.60801e-07
5.31132e-05
1.45696e-06
7.85431e-05
4.06169e-06
9.62686e-05
8.64349e-06
0.000105817
1.58206e-05
0.000106703
2.62753e-05
9.83819e-05
4.07689e-05
8.02149e-05
6.01546e-05
5.14451e-05
8.53884e-05
1.11825e-05
0.000117532
-4.15955e-05
0.000157749
-0.000108022
0.000207282
-0.000189294
0.00026742
-0.000286578
0.00033943
-0.000400877
0.000424453
-0.000532782
0.000523331
-0.000682147
0.00063613
-0.000846711
0.000761976
-0.00102541
-0.00116426
0.000885599
-1.88291e-08
2.05044e-05
4.57355e-07
5.2637e-05
1.97424e-06
7.70262e-05
5.1084e-06
9.31344e-05
1.04782e-05
0.000100447
1.87572e-05
9.84243e-05
3.06897e-05
8.64494e-05
4.71064e-05
6.37982e-05
6.89364e-05
2.96151e-05
9.72162e-05
-1.70973e-05
0.000133089
-7.74687e-05
0.000177796
-0.000152729
0.000232646
-0.000244144
0.000298976
-0.000352908
0.000378083
-0.000479984
0.000471148
-0.000625846
0.00057918
-0.000790179
0.00070299
-0.000970522
0.000841091
-0.00116352
-0.0012882
0.000965026
2.45765e-08
2.04798e-05
6.74724e-07
5.19868e-05
2.54219e-06
7.51587e-05
6.25198e-06
8.94246e-05
1.24752e-05
9.42242e-05
2.19438e-05
8.89557e-05
3.54675e-05
7.29257e-05
5.39482e-05
4.53175e-05
7.83921e-05
5.17123e-06
0.000109914
-4.86193e-05
0.000149733
-0.000117288
0.000199153
-0.000202149
0.000259527
-0.000304518
0.000332202
-0.000425583
0.000418457
-0.000566238
0.000519441
-0.000726831
0.000636216
-0.000906954
0.000770173
-0.00110448
0.000924824
-0.00131817
-0.001508
0.00114463
7.36563e-08
2.04062e-05
9.16164e-07
5.11443e-05
3.1674e-06
7.29075e-05
7.50331e-06
8.50887e-05
1.46505e-05
8.7077e-05
2.54024e-05
7.82038e-05
4.06361e-05
5.7692e-05
6.13266e-05
2.4627e-05
8.85561e-05
-2.20582e-05
0.000123513
-8.35767e-05
0.000167482
-0.000161257
0.00022181
-0.000256477
0.000287861
-0.000370568
0.000366945
-0.000504667
0.000460243
-0.000659536
0.000568744
-0.000835333
0.000693289
-0.0010315
0.000835201
-0.00124639
0.000996205
-0.00147917
-0.00170538
0.00119359
1.29125e-07
2.02771e-05
1.18435e-06
5.00891e-05
3.85571e-06
7.02361e-05
8.87242e-06
8.0072e-05
1.70192e-05
7.89303e-05
2.91532e-05
6.60698e-05
4.62209e-05
4.06243e-05
6.92706e-05
1.57728e-06
9.94573e-05
-5.2245e-05
0.000138037
-0.000122156
0.000186341
-0.000209561
0.000245738
-0.000315874
0.000317561
-0.000442391
0.000403024
-0.00059013
0.000503121
-0.000759633
0.000618548
-0.000950759
0.000749657
-0.00116261
0.00089692
-0.00139365
0.00105965
-0.00164191
-0.00189089
0.00124517
1.9179e-07
2.00853e-05
1.48219e-06
4.87987e-05
4.6132e-06
6.71051e-05
1.03695e-05
7.43157e-05
1.9596e-05
6.97037e-05
3.32158e-05
5.245e-05
5.22456e-05
2.15946e-05
7.78053e-05
-2.39825e-05
0.000111118
-8.55579e-05
0.000153495
-0.000164533
0.000206298
-0.000262364
0.000270882
-0.000380458
0.000348506
-0.000520015
0.000440222
-0.000681846
0.000546754
-0.000866165
0.000668388
-0.00107239
0.000804862
-0.00129908
0.000955649
-0.00154444
0.00111869
-0.00180494
-0.00206798
0.00129577
2.62455e-07
1.98228e-05
1.81252e-06
4.72486e-05
5.44577e-06
6.34719e-05
1.20042e-05
6.77573e-05
2.2395e-05
5.93129e-05
3.76082e-05
3.72368e-05
5.87304e-05
4.72326e-07
8.69507e-05
-5.22028e-05
0.000123552
-0.00012216
0.000169886
-0.000210867
0.000227321
-0.000319799
0.000297161
-0.000450298
0.00038054
-0.000603394
0.000478283
-0.00077959
0.000590767
-0.000978649
0.00071779
-0.00119942
0.000858429
-0.00143972
0.00101122
-0.00169723
0.0011732
-0.00196693
-0.00223807
0.00134329
3.41899e-07
2.17807e-06
4.54125e-05
6.359e-06
5.92909e-05
1.37856e-05
6.03308e-05
2.54286e-05
4.76698e-05
4.23456e-05
2.03198e-05
6.56917e-05
-2.28738e-05
9.67195e-05
-8.32305e-05
0.000136762
-0.000162202
0.000187192
-0.000261297
0.000249353
-0.00038196
0.000324461
-0.000525405
0.000413467
-0.0006924
0.000516909
-0.000883031
0.000634747
-0.00109649
0.000766239
-0.00133091
0.000909811
-0.00158329
0.00106317
-0.00185059
0.00122278
-0.00212654
-0.00240149
0.0013862
2.58139e-06
7.35803e-06
5.45143e-05
1.57217e-05
5.19671e-05
2.87077e-05
3.46838e-05
4.74404e-05
1.58711e-06
7.31403e-05
-4.85737e-05
0.000107116
-0.000117206
0.000150736
-0.000205822
0.000205373
-0.000315933
0.000272312
-0.0004489
0.000352633
-0.000605726
0.000447051
-0.000786818
0.000555752
-0.000991733
0.000678232
-0.00121897
0.000813185
-0.00146586
0.000958422
-0.00172853
0.00111097
-0.00200314
0.00126696
-0.00228253
-0.00255796
0.00142343
8.4474e-06
1.78195e-05
4.2595e-05
3.22409e-05
2.02625e-05
5.29011e-05
-1.90731e-05
8.10811e-05
-7.67537e-05
0.000118136
-0.000154261
0.000165452
-0.000253138
0.000224372
-0.000374854
0.000296089
-0.000520616
0.000381494
-0.000691131
0.000481013
-0.000886337
0.000594428
-0.00110515
0.000720733
-0.00134527
0.000858059
-0.00160319
0.00100367
-0.00187414
0.0011541
-0.00215356
0.00130532
-0.00243375
-0.00270696
0.00145432
2.00845e-05
3.21414e-05
3.60343e-05
4.3127e-06
5.87321e-05
-4.17709e-05
8.95122e-05
-0.000107534
0.000129763
-0.000194512
0.000180867
-0.000304242
0.000244109
-0.000438096
0.000320542
-0.000597049
0.000410825
-0.000781414
0.000515038
-0.00099055
0.000632516
-0.00122263
0.000761736
-0.00147449
0.000900296
-0.00174175
0.00104501
-0.00201885
0.00119207
-0.00230062
0.00133751
-0.00257919
-0.00284796
0.00147851
2.25206e-05
4.00912e-05
-1.32579e-05
6.49328e-05
-6.66125e-05
9.84238e-05
-0.000141025
0.000141969
-0.000238057
0.000196925
-0.000359197
0.00026448
-0.000505651
0.000345506
-0.000678076
0.000440376
-0.000876284
0.00054878
-0.00109895
0.000669577
-0.00134342
0.000800731
-0.00160565
0.00093936
-0.00188038
0.00108194
-0.00216143
0.00122451
-0.0024432
0.00136332
-0.00271799
-0.00298052
0.00149588
4.44117e-05
7.14975e-05
-9.36983e-05
0.000107798
-0.000177325
0.000154717
-0.000284976
0.000213552
-0.000418032
0.000285361
-0.00057746
0.000370787
-0.000763503
0.000469871
-0.000975367
0.000581873
-0.00121096
0.000705164
-0.00146672
0.000837222
-0.0017377
0.000974768
-0.00201792
0.00111406
-0.00230072
0.00125117
-0.00258031
0.00138268
-0.0028495
-0.00310438
0.00150654
7.8415e-05
0.000117609
-0.000216519
0.000167953
-0.000335319
0.000230657
-0.000480736
0.000306605
-0.000653409
0.000396168
-0.000853066
0.00049901
-0.00107821
0.000613938
-0.00132588
0.000738838
-0.00159162
0.000870754
-0.00186962
0.00100611
-0.00215328
0.00114108
-0.0024357
0.00127193
-0.00271115
0.00139567
-0.00297324
-0.00321946
0.00151075
0.000127821
0.000181613
-0.000389111
0.000248133
-0.000547256
0.000328048
-0.000733324
0.000421413
-0.00094643
0.000527481
-0.00118428
0.000644595
-0.001443
0.000770183
-0.0017172
0.000900926
-0.00200036
0.00103306
-0.00228542
0.00116283
-0.00256546
0.00128679
-0.00283511
0.00140249
-0.00308894
-0.00332585
0.00150888
0.000195622
0.000265857
-0.000617491
0.000349507
-0.000816975
0.000446271
-0.00104319
0.000554967
-0.00129297
0.000673477
-0.00156151
0.000798821
-0.00184255
0.000927405
-0.00212895
0.00105541
-0.00241342
0.00117924
-0.0026893
0.00129589
-0.00295176
0.00140347
-0.00319652
-0.00342379
0.00150142
0.000283693
0.000370788
-0.000904069
0.000470482
-0.00114289
0.000581153
-0.00140365
0.000700243
-0.0016806
0.000824425
-0.00196673
0.000949936
-0.00225446
0.00107301
-0.0025365
0.00119036
-0.00280665
0.00129946
-0.00306086
0.00139899
-0.00329605
-0.00351367
0.00148888
0.000391684
0.000493788
-0.00124499
0.000605739
-0.0015156
0.000724582
-0.00179944
0.000846727
-0.00208887
0.000968348
-0.00237608
0.00108586
-0.002654
0.00119634
-0.00291713
0.00129781
-0.00316233
0.00138952
-0.00338777
-0.00359596
0.00147181
0.000515931
0.000628443
-0.00162811
0.000746229
-0.00191723
0.000865526
-0.00220817
0.000982555
-0.00249311
0.001094
-0.00276545
0.0011974
-0.00302053
0.00129132
-0.00325625
0.00137554
-0.00347198
-0.00367117
0.00145075
0.000649016
0.00076497
0.00088069
-0.00232389
0.00099255
-0.00260497
0.00109759
-0.00287049
0.00119384
-0.00311678
0.00128041
-0.00334282
0.00135754
-0.00354912
-0.00373986
0.00142623
0.000892154
0.000998398
-0.00271121
0.00109683
-0.00296892
0.00118599
-0.00320595
0.0012655
-0.00342233
0.00133601
-0.00361962
-0.0038026
0.00139875
0.00100023
0.00109199
-0.00306068
0.00117423
-0.00328819
0.00124704
-0.00349514
0.00131141
-0.00368399
-0.00385993
0.00136873
0.00108335
0.00115893
0.00122545
-0.00356166
0.00128417
-0.00374271
-0.00391235
0.0013366
0.00120113
0.00125469
-0.00379626
-0.00396035
0.00130269
0.00122332
0.00126732
0.00122331
0.00379626
0.00396034
0.00126731
0.00120113
0.00356165
0.00125468
0.0037427
0.00391234
0.00130268
0.00108334
0.00306067
0.00115892
0.00328818
0.00122544
0.00349513
0.00128416
0.00368398
0.00385992
0.00133659
0.00100023
0.00271121
0.00109198
0.00296892
0.00117422
0.00320594
0.00124703
0.00342232
0.0013114
0.00361962
0.00380259
0.00136872
0.000780637
0.00203318
0.000892149
0.00232389
0.000998392
0.00260497
0.00109683
0.00287049
0.00118599
0.00311678
0.00126549
0.00334281
0.001336
0.00354911
0.00373985
0.00139874
0.000649013
0.00162811
0.000764965
0.00191723
0.000880684
0.00220817
0.000992544
0.00249311
0.00109758
0.00276545
0.00119383
0.00302053
0.0012804
0.00325625
0.00135753
0.00347198
0.00367116
0.00142623
0.000515929
0.001245
0.00062844
0.0015156
0.000746225
0.00179944
0.000865521
0.00208888
0.000982549
0.00237608
0.00109399
0.002654
0.00119739
0.00291713
0.00129131
0.00316233
0.00137553
0.00338776
0.00359595
0.00145074
0.000391683
0.000904074
0.000493786
0.00114289
0.000605736
0.00140365
0.000724578
0.0016806
0.000846722
0.00196673
0.000968342
0.00225446
0.00108585
0.0025365
0.00119633
0.00280665
0.0012978
0.00306086
0.00138951
0.00329605
0.00351367
0.0014718
0.000283692
0.000617496
0.000370786
0.00081698
0.00047048
0.0010432
0.000581151
0.00129298
0.000700239
0.00156151
0.00082442
0.00184255
0.00094993
0.00212895
0.00107301
0.00241342
0.00119035
0.0026893
0.00129945
0.00295176
0.00139898
0.00319651
0.00342379
0.00148887
0.000195622
0.000389117
0.000265856
0.000547262
0.000349506
0.00073333
0.000446269
0.000946436
0.000554965
0.00118428
0.000673474
0.001443
0.000798816
0.00171721
0.000927399
0.00200037
0.0010554
0.00228542
0.00117923
0.00256546
0.00129588
0.00283511
0.00140346
0.00308894
0.00332584
0.0015014
0.000127821
0.000216525
0.000181613
0.000335325
0.000248132
0.000480743
0.000328047
0.000653415
0.000421411
0.000853072
0.000527479
0.00107822
0.000644591
0.00132589
0.000770178
0.00159162
0.000900921
0.00186962
0.00103306
0.00215328
0.00116282
0.0024357
0.00128678
0.00271115
0.00140248
0.00297324
0.00321946
0.00150887
7.84155e-05
9.37032e-05
0.000117609
0.000177331
0.000167953
0.000284982
0.000230657