/*--------------------------------*- C++ -*----------------------------------*\
  =========                 |
  \\      /  F ield         | OpenFOAM: The Open Source CFD Toolbox
   \\    /   O peration     | Website:  https://openfoam.org
    \\  /    A nd           | Version:  7
     \\/     M anipulation  |
\*---------------------------------------------------------------------------*/
FoamFile
{
    version     2.0;
    format      ascii;
    class       volScalarField;
    location    "40";
    object      p;
}
// * * * * * * * * * * * * * * * * * * * * * * * * * * * * * * * * * * * * * //

dimensions      [0 2 -2 0 0 0 0];

internalField   nonuniform List<scalar> 
8500
(
-0.231466
-0.232555
-0.233215
-0.233779
-0.234271
-0.234693
-0.235065
-0.235398
-0.235702
-0.235984
-0.236248
-0.236496
-0.23673
-0.236952
-0.237163
-0.237364
-0.237558
-0.237749
-0.237936
-0.238124
-0.23151
-0.232596
-0.233254
-0.233816
-0.234306
-0.234727
-0.235097
-0.235429
-0.235731
-0.236011
-0.236273
-0.236519
-0.236752
-0.236972
-0.23718
-0.237379
-0.23757
-0.237759
-0.237944
-0.238128
-0.231602
-0.232681
-0.233336
-0.233894
-0.234381
-0.234799
-0.235165
-0.235494
-0.235793
-0.236069
-0.236328
-0.23657
-0.236799
-0.237015
-0.237219
-0.237414
-0.237601
-0.237786
-0.237967
-0.238144
-0.231741
-0.232812
-0.23346
-0.234014
-0.234495
-0.234908
-0.23527
-0.235593
-0.235887
-0.236159
-0.236412
-0.236649
-0.236872
-0.237082
-0.237281
-0.237469
-0.23765
-0.23783
-0.238004
-0.238172
-0.231928
-0.232986
-0.233627
-0.234173
-0.234648
-0.235054
-0.23541
-0.235727
-0.236014
-0.236279
-0.236525
-0.236755
-0.236971
-0.237173
-0.237364
-0.237544
-0.237717
-0.237889
-0.238055
-0.23821
-0.232161
-0.233204
-0.233835
-0.234373
-0.234839
-0.235237
-0.235585
-0.235893
-0.236173
-0.236429
-0.236666
-0.236887
-0.237094
-0.237286
-0.237466
-0.237636
-0.237799
-0.237963
-0.238119
-0.238256
-0.232439
-0.233464
-0.234084
-0.234611
-0.235068
-0.235456
-0.235794
-0.236093
-0.236362
-0.236608
-0.236835
-0.237045
-0.23724
-0.23742
-0.237588
-0.237746
-0.237896
-0.238049
-0.238192
-0.23831
-0.232761
-0.233766
-0.234373
-0.234889
-0.235333
-0.23571
-0.236036
-0.236324
-0.236581
-0.236815
-0.237029
-0.237227
-0.237408
-0.237574
-0.237728
-0.23787
-0.238005
-0.238145
-0.238274
-0.238368
-0.233127
-0.234108
-0.234702
-0.235203
-0.235635
-0.235998
-0.236311
-0.236585
-0.236829
-0.237049
-0.237249
-0.237431
-0.237596
-0.237746
-0.237883
-0.238007
-0.238125
-0.23825
-0.238363
-0.238429
-0.233534
-0.234491
-0.235068
-0.235554
-0.235971
-0.23632
-0.236618
-0.236877
-0.237105
-0.237309
-0.237492
-0.237657
-0.237804
-0.237935
-0.238052
-0.238156
-0.238254
-0.238361
-0.238455
-0.238489
-0.233982
-0.234911
-0.235471
-0.235941
-0.236341
-0.236673
-0.236955
-0.237197
-0.237407
-0.237593
-0.237758
-0.237903
-0.23803
-0.238139
-0.238233
-0.238314
-0.238388
-0.238476
-0.238547
-0.238546
-0.234469
-0.235369
-0.23591
-0.236362
-0.236744
-0.237058
-0.237321
-0.237544
-0.237735
-0.237901
-0.238044
-0.238167
-0.238271
-0.238356
-0.238424
-0.238478
-0.238526
-0.23859
-0.238638
-0.238595
-0.234993
-0.235863
-0.236384
-0.236816
-0.237178
-0.237473
-0.237715
-0.237917
-0.238087
-0.23823
-0.23835
-0.238449
-0.238527
-0.238584
-0.238623
-0.238647
-0.238665
-0.238702
-0.238722
-0.238632
-0.235554
-0.236392
-0.236891
-0.237302
-0.237643
-0.237916
-0.238137
-0.238316
-0.238462
-0.238581
-0.238675
-0.238746
-0.238795
-0.238821
-0.238828
-0.238818
-0.238801
-0.238808
-0.238798
-0.238653
-0.236149
-0.236954
-0.237431
-0.23782
-0.238138
-0.238388
-0.238584
-0.238738
-0.238858
-0.23895
-0.239016
-0.239057
-0.239074
-0.239067
-0.239037
-0.238989
-0.238933
-0.238905
-0.238861
-0.238654
-0.236777
-0.237549
-0.238002
-0.238368
-0.238661
-0.238886
-0.239056
-0.239183
-0.239275
-0.239337
-0.239372
-0.239381
-0.239363
-0.239318
-0.239248
-0.239158
-0.239058
-0.23899
-0.238909
-0.238627
-0.237438
-0.238175
-0.238604
-0.238944
-0.239212
-0.23941
-0.239552
-0.23965
-0.239711
-0.239741
-0.239743
-0.239716
-0.23966
-0.239575
-0.239461
-0.239323
-0.239172
-0.23906
-0.238938
-0.238567
-0.23813
-0.238832
-0.239235
-0.23955
-0.23979
-0.239958
-0.240071
-0.240137
-0.240165
-0.240161
-0.240127
-0.240062
-0.239965
-0.239835
-0.239672
-0.239482
-0.239276
-0.239111
-0.238944
-0.238462
-0.238852
-0.239519
-0.239895
-0.240182
-0.240393
-0.240531
-0.240611
-0.240644
-0.240637
-0.240596
-0.240523
-0.240417
-0.240276
-0.240098
-0.239883
-0.239634
-0.239365
-0.239142
-0.238927
-0.238291
-0.239604
-0.240234
-0.240584
-0.240842
-0.241022
-0.241127
-0.241172
-0.241169
-0.241125
-0.241045
-0.240931
-0.240781
-0.240593
-0.240363
-0.240091
-0.239779
-0.23944
-0.23915
-0.238887
-0.238054
-0.240384
-0.240979
-0.2413
-0.241528
-0.241675
-0.241746
-0.241754
-0.241712
-0.241628
-0.241507
-0.241349
-0.241154
-0.240915
-0.24063
-0.240297
-0.239916
-0.2395
-0.239132
-0.238797
-0.237858
-0.241193
-0.241752
-0.242044
-0.24224
-0.242353
-0.242386
-0.242356
-0.242273
-0.242147
-0.241981
-0.241778
-0.241533
-0.241243
-0.2409
-0.240501
-0.240046
-0.239546
-0.239092
-0.238662
-0.237588
-0.242031
-0.242554
-0.242816
-0.242978
-0.243054
-0.243049
-0.242977
-0.242851
-0.24268
-0.242468
-0.242216
-0.241921
-0.241575
-0.241172
-0.240703
-0.240169
-0.239576
-0.239027
-0.238497
-0.237232
-0.242898
-0.243384
-0.243615
-0.243743
-0.24378
-0.243733
-0.243617
-0.243446
-0.243227
-0.242966
-0.242664
-0.242315
-0.241913
-0.241446
-0.240906
-0.240287
-0.239594
-0.238937
-0.2383
-0.236791
-0.243794
-0.244243
-0.244442
-0.244534
-0.24453
-0.244439
-0.244277
-0.244056
-0.243788
-0.243476
-0.243121
-0.242717
-0.242256
-0.241724
-0.241109
-0.240402
-0.239602
-0.238825
-0.238071
-0.236262
-0.24472
-0.245133
-0.245299
-0.245351
-0.245305
-0.245167
-0.244955
-0.244683
-0.244362
-0.243996
-0.243586
-0.243127
-0.242605
-0.242007
-0.241316
-0.240517
-0.239603
-0.238693
-0.237812
-0.23564
-0.245678
-0.246054
-0.246185
-0.246197
-0.246105
-0.245917
-0.245653
-0.245327
-0.24495
-0.244528
-0.244061
-0.243543
-0.24296
-0.242295
-0.241526
-0.240634
-0.2396
-0.238545
-0.237528
-0.234918
-0.246669
-0.247008
-0.247102
-0.247072
-0.246931
-0.246691
-0.246371
-0.245987
-0.245551
-0.24507
-0.244545
-0.243967
-0.243322
-0.242588
-0.241741
-0.240754
-0.239597
-0.238386
-0.237226
-0.234094
-0.247696
-0.247996
-0.248052
-0.247976
-0.247784
-0.247488
-0.247109
-0.246664
-0.246167
-0.245624
-0.245037
-0.244397
-0.243689
-0.242888
-0.241963
-0.240882
-0.2396
-0.23822
-0.236914
-0.233168
-0.248759
-0.24902
-0.249037
-0.248913
-0.248666
-0.24831
-0.247868
-0.247359
-0.246796
-0.246189
-0.245538
-0.244835
-0.244063
-0.243193
-0.242192
-0.241017
-0.239609
-0.238054
-0.236601
-0.232142
-0.249864
-0.250084
-0.250059
-0.249884
-0.249578
-0.249159
-0.248651
-0.248073
-0.247441
-0.246766
-0.246048
-0.24528
-0.244442
-0.243505
-0.242427
-0.241161
-0.23963
-0.23789
-0.236295
-0.231023
-0.251012
-0.25119
-0.25112
-0.250891
-0.250523
-0.250037
-0.249457
-0.248807
-0.248102
-0.247356
-0.246568
-0.245732
-0.244827
-0.243821
-0.242669
-0.241315
-0.239662
-0.237735
-0.236002
-0.229824
-0.252207
-0.252341
-0.252223
-0.251937
-0.251503
-0.250945
-0.25029
-0.249562
-0.248781
-0.247959
-0.247098
-0.246191
-0.245218
-0.244144
-0.242918
-0.241477
-0.239708
-0.237591
-0.235724
-0.228563
-0.253454
-0.253542
-0.253373
-0.253025
-0.252521
-0.251886
-0.251151
-0.250342
-0.249479
-0.248578
-0.24764
-0.246659
-0.245615
-0.244471
-0.243172
-0.241648
-0.239768
-0.237464
-0.235459
-0.227268
-0.254757
-0.254795
-0.254572
-0.254158
-0.253579
-0.252864
-0.252043
-0.251148
-0.250199
-0.249214
-0.248195
-0.247138
-0.246021
-0.244805
-0.243434
-0.24183
-0.239843
-0.237365
-0.235204
-0.225988
-0.256121
-0.256107
-0.255826
-0.255341
-0.254682
-0.25388
-0.25297
-0.251983
-0.250944
-0.24987
-0.248767
-0.247629
-0.246436
-0.245148
-0.243705
-0.242026
-0.239939
-0.23731
-0.234956
-0.224811
-0.257552
-0.25748
-0.257137
-0.256577
-0.255833
-0.25494
-0.253934
-0.252851
-0.251717
-0.25055
-0.249358
-0.248137
-0.246864
-0.245503
-0.24399
-0.242241
-0.240061
-0.237322
-0.234681
-0.223768
-0.259057
-0.258922
-0.258512
-0.257871
-0.257037
-0.256046
-0.254941
-0.253756
-0.252522
-0.251258
-0.249973
-0.248664
-0.247311
-0.245875
-0.244295
-0.242488
-0.240234
-0.237454
-0.234287
-0.222644
-0.26064
-0.260437
-0.259954
-0.259228
-0.258297
-0.257205
-0.255994
-0.254703
-0.253364
-0.251998
-0.250617
-0.249217
-0.24778
-0.246269
-0.244627
-0.24278
-0.240504
-0.237844
-0.233906
-0.221725
-0.262309
-0.262032
-0.261471
-0.260653
-0.25962
-0.25842
-0.257098
-0.255696
-0.254248
-0.252777
-0.251295
-0.249801
-0.248277
-0.246692
-0.244993
-0.243127
-0.240899
-0.238616
-0.234423
-0.225406
-0.264071
-0.263712
-0.263067
-0.262151
-0.261011
-0.259697
-0.258259
-0.256742
-0.25518
-0.2536
-0.252014
-0.250422
-0.248809
-0.247147
-0.245392
-0.243519
-0.24137
-0.239561
-0.236256
-0.241792
-0.265934
-0.265484
-0.264749
-0.263729
-0.262475
-0.261042
-0.259483
-0.257845
-0.256166
-0.254473
-0.25278
-0.251087
-0.249382
-0.247639
-0.245824
-0.243937
-0.241849
-0.240426
-0.237434
-0.245577
-0.267904
-0.267355
-0.266523
-0.265392
-0.264017
-0.26246
-0.260776
-0.259013
-0.257213
-0.255404
-0.2536
-0.251803
-0.250001
-0.248171
-0.246287
-0.244366
-0.24229
-0.241043
-0.237995
-0.246002
-0.26999
-0.269331
-0.268395
-0.267146
-0.265645
-0.263958
-0.262143
-0.260252
-0.258328
-0.256399
-0.254481
-0.252576
-0.250671
-0.248747
-0.246779
-0.244797
-0.24268
-0.241436
-0.238256
-0.2455
-0.272198
-0.271419
-0.270371
-0.268998
-0.267365
-0.265542
-0.263592
-0.261569
-0.259517
-0.257465
-0.25543
-0.253411
-0.251397
-0.249368
-0.247298
-0.245223
-0.243012
-0.241633
-0.238263
-0.2443
-0.274538
-0.273627
-0.272459
-0.270954
-0.269182
-0.267219
-0.265129
-0.262971
-0.260787
-0.25861
-0.256453
-0.254315
-0.252183
-0.250034
-0.247842
-0.245637
-0.243281
-0.241656
-0.238042
-0.242642
-0.27596
-0.274664
-0.273021
-0.271103
-0.268994
-0.266762
-0.264464
-0.262147
-0.259839
-0.257555
-0.255292
-0.253031
-0.250747
-0.248408
-0.246035
-0.243482
-0.241527
-0.237632
-0.240739
-0.276994
-0.275204
-0.273135
-0.270876
-0.268496
-0.266056
-0.263601
-0.26116
-0.258743
-0.256345
-0.253942
-0.251504
-0.24899
-0.246412
-0.243616
-0.241267
-0.237067
-0.238724
-0.27751
-0.275284
-0.272869
-0.270338
-0.267752
-0.265156
-0.262577
-0.260021
-0.257477
-0.254917
-0.252302
-0.249585
-0.246762
-0.243681
-0.240896
-0.236375
-0.23668
-0.279946
-0.277556
-0.274982
-0.272296
-0.269561
-0.266819
-0.264095
-0.261391
-0.258689
-0.255953
-0.253136
-0.250185
-0.247083
-0.243678
-0.240429
-0.235578
-0.234654
-0.279958
-0.27722
-0.274375
-0.271487
-0.268595
-0.265719
-0.262856
-0.25998
-0.257047
-0.254002
-0.250785
-0.247367
-0.243607
-0.239879
-0.23469
-0.23267
-0.279589
-0.276582
-0.273535
-0.270488
-0.267452
-0.264417
-0.261349
-0.258194
-0.254892
-0.251376
-0.24761
-0.243466
-0.239252
-0.233722
-0.230735
-0.278921
-0.275713
-0.272502
-0.269295
-0.266072
-0.262791
-0.259389
-0.255798
-0.251949
-0.247805
-0.243254
-0.238554
-0.23268
-0.228847
-0.278022
-0.274639
-0.271248
-0.26782
-0.264301
-0.260622
-0.25671
-0.252497
-0.247946
-0.242969
-0.237785
-0.231566
-0.226995
-0.276901
-0.273311
-0.269655
-0.265872
-0.261884
-0.257618
-0.253007
-0.248025
-0.242606
-0.236947
-0.230383
-0.225166
-0.27548
-0.271572
-0.267494
-0.263164
-0.258508
-0.253471
-0.248036
-0.242162
-0.236035
-0.229129
-0.223345
-0.273563
-0.269156
-0.264448
-0.25937
-0.253877
-0.247969
-0.241633
-0.235048
-0.227801
-0.221516
-0.270846
-0.265724
-0.260189
-0.254214
-0.247818
-0.241014
-0.233981
-0.226397
-0.219663
-0.260952
-0.254472
-0.247575
-0.240301
-0.232829
-0.224912
-0.217772
-0.25464
-0.247232
-0.239488
-0.231587
-0.223343
-0.21583
-0.246782
-0.23857
-0.230251
-0.221683
-0.213825
-0.228814
-0.21993
-0.211747
-0.218076
-0.209585
-0.21826
-0.209765
-0.229004
-0.220116
-0.211931
-0.246978
-0.238765
-0.230444
-0.221873
-0.214013
-0.25484
-0.247431
-0.239685
-0.231783
-0.223536
-0.216021
-0.267178
-0.261155
-0.254675
-0.247776
-0.240501
-0.233028
-0.225109
-0.217967
-0.27105
-0.265928
-0.260393
-0.254418
-0.248022
-0.241217
-0.234183
-0.226598
-0.219862
-0.273766
-0.26936
-0.264653
-0.259575
-0.254083
-0.248175
-0.241839
-0.235254
-0.228006
-0.221719
-0.275683
-0.271776
-0.267698
-0.263369
-0.258715
-0.253678
-0.248244
-0.242371
-0.236244
-0.229337
-0.223552
-0.277103
-0.273513
-0.269858
-0.266076
-0.26209
-0.257825
-0.253216
-0.248236
-0.242817
-0.237159
-0.230595
-0.225377
-0.278223
-0.27484
-0.27145
-0.268023
-0.264505
-0.260828
-0.256918
-0.252707
-0.248159
-0.243183
-0.238001
-0.231783
-0.227211
-0.279122
-0.275913
-0.272702
-0.269496
-0.266275
-0.262995
-0.259595
-0.256007
-0.252161
-0.24802
-0.243472
-0.238773
-0.2329
-0.229067
-0.279789
-0.276782
-0.273735
-0.270687
-0.267652
-0.264619
-0.261552
-0.258401
-0.255102
-0.251589
-0.247827
-0.243686
-0.239475
-0.233947
-0.23096
-0.280159
-0.277419
-0.274574
-0.271685
-0.268794
-0.265919
-0.263058
-0.260184
-0.257254
-0.254213
-0.250999
-0.247586
-0.24383
-0.240105
-0.23492
-0.2329
-0.280147
-0.277757
-0.275181
-0.272494
-0.269758
-0.267017
-0.264294
-0.261592
-0.258892
-0.25616
-0.253348
-0.250401
-0.247303
-0.243904
-0.240659
-0.235812
-0.234889
-0.279655
-0.277711
-0.275483
-0.273068
-0.270536
-0.26795
-0.265354
-0.262775
-0.260222
-0.257681
-0.255124
-0.252514
-0.249802
-0.246985
-0.24391
-0.241129
-0.236614
-0.23692
-0.277195
-0.275404
-0.273334
-0.271073
-0.268693
-0.266252
-0.263798
-0.261358
-0.258944
-0.256549
-0.25415
-0.251717
-0.249209
-0.246637
-0.243847
-0.241504
-0.23731
-0.238969
-0.276162
-0.274865
-0.27322
-0.271301
-0.269191
-0.266958
-0.26466
-0.262343
-0.260037
-0.257756
-0.255495
-0.253239
-0.250961
-0.248628
-0.246262
-0.243716
-0.241768
-0.23788
-0.240989
-0.274741
-0.273829
-0.27266
-0.271153
-0.26938
-0.267415
-0.265325
-0.263166
-0.260984
-0.258808
-0.256653
-0.254519
-0.252392
-0.250249
-0.248064
-0.245866
-0.243518
-0.241901
-0.238295
-0.242898
-0.272402
-0.271621
-0.270571
-0.269197
-0.267562
-0.265738
-0.263787
-0.261765
-0.259713
-0.257663
-0.25563
-0.253615
-0.251606
-0.249583
-0.247521
-0.245454
-0.243252
-0.241882
-0.238521
-0.244562
-0.270193
-0.269532
-0.268595
-0.267344
-0.265842
-0.264154
-0.262338
-0.260447
-0.258524
-0.256597
-0.254681
-0.25278
-0.250881
-0.248963
-0.247003
-0.24503
-0.242923
-0.241689
-0.238518
-0.245768
-0.268107
-0.267555
-0.266722
-0.26559
-0.264214
-0.262656
-0.26097
-0.259208
-0.257409
-0.255602
-0.253801
-0.252008
-0.250212
-0.248389
-0.246513
-0.244601
-0.242535
-0.2413
-0.238262
-0.246276
-0.266136
-0.265684
-0.264948
-0.263926
-0.262671
-0.261237
-0.259678
-0.25804
-0.256362
-0.254671
-0.252981
-0.251293
-0.249594
-0.247858
-0.246052
-0.244174
-0.242097
-0.240686
-0.237706
-0.245857
-0.264274
-0.263912
-0.263266
-0.262348
-0.261207
-0.259892
-0.258454
-0.256936
-0.255376
-0.253798
-0.252216
-0.250629
-0.249022
-0.247367
-0.245621
-0.243758
-0.241621
-0.239825
-0.236532
-0.242079
-0.262511
-0.262231
-0.261669
-0.260849
-0.259816
-0.258614
-0.257292
-0.255891
-0.254444
-0.252976
-0.251497
-0.250008
-0.248491
-0.246913
-0.245224
-0.243368
-0.241152
-0.238883
-0.234704
-0.225702
-0.260842
-0.260636
-0.260152
-0.259424
-0.258492
-0.257399
-0.256188
-0.254897
-0.25356
-0.252197
-0.25082
-0.249425
-0.247994
-0.246492
-0.24486
-0.243024
-0.24076
-0.238113
-0.234191
-0.222025
-0.259258
-0.259121
-0.258708
-0.258066
-0.257231
-0.25624
-0.255134
-0.253951
-0.252718
-0.251457
-0.250176
-0.248872
-0.247526
-0.246098
-0.244529
-0.242733
-0.240492
-0.237726
-0.234575
-0.222947
-0.257753
-0.257678
-0.257333
-0.256771
-0.256026
-0.255133
-0.254128
-0.253045
-0.251913
-0.250749
-0.249562
-0.248346
-0.247081
-0.245728
-0.244225
-0.242488
-0.240321
-0.237596
-0.234972
-0.224072
-0.256321
-0.256303
-0.256021
-0.255534
-0.254875
-0.254072
-0.253162
-0.252177
-0.25114
-0.250069
-0.248971
-0.247839
-0.246653
-0.245374
-0.243941
-0.242274
-0.2402
-0.237586
-0.235249
-0.225118
-0.254956
-0.254991
-0.254766
-0.254351
-0.253771
-0.253055
-0.252235
-0.251341
-0.250395
-0.249413
-0.248399
-0.247348
-0.246238
-0.245032
-0.243671
-0.24208
-0.240107
-0.237643
-0.235499
-0.226297
-0.253652
-0.253736
-0.253566
-0.253216
-0.252711
-0.252077
-0.251342
-0.250534
-0.249674
-0.248776
-0.247844
-0.246869
-0.245833
-0.244698
-0.24341
-0.241899
-0.240032
-0.237743
-0.235756
-0.227578
-0.252404
-0.252534
-0.252415
-0.252126
-0.251692
-0.251134
-0.25048
-0.249754
-0.248975
-0.248157
-0.247301
-0.246401
-0.245436
-0.244371
-0.243156
-0.241728
-0.239973
-0.237871
-0.236022
-0.228875
-0.251207
-0.251381
-0.251309
-0.251079
-0.250711
-0.250224
-0.249646
-0.248997
-0.248296
-0.247553
-0.246771
-0.245941
-0.245045
-0.244049
-0.242908
-0.241566
-0.239928
-0.238015
-0.2363
-0.230136
-0.250057
-0.250273
-0.250246
-0.25007
-0.249764
-0.249345
-0.248837
-0.248261
-0.247633
-0.246962
-0.24625
-0.245488
-0.244659
-0.243731
-0.242665
-0.241412
-0.239895
-0.238171
-0.236593
-0.231335
-0.24895
-0.249207
-0.249222
-0.249097
-0.248849
-0.248494
-0.248053
-0.247546
-0.246986
-0.246384
-0.245738
-0.245042
-0.244278
-0.243419
-0.242429
-0.241267
-0.239874
-0.238334
-0.236898
-0.232454
-0.247884
-0.24818
-0.248235
-0.248158
-0.247965
-0.247669
-0.247291
-0.246849
-0.246355
-0.245817
-0.245236
-0.244603
-0.243903
-0.243112
-0.242199
-0.241131
-0.239863
-0.238499
-0.23721
-0.233479
-0.246854
-0.247189
-0.247282
-0.24725
-0.247109
-0.246869
-0.246551
-0.246169
-0.245737
-0.245261
-0.244741
-0.24417
-0.243534
-0.242811
-0.241975
-0.241001
-0.239859
-0.238662
-0.23752
-0.234404
-0.24586
-0.246232
-0.246361
-0.246372
-0.24628
-0.246093
-0.24583
-0.245506
-0.245133
-0.244716
-0.244255
-0.243744
-0.24317
-0.242515
-0.241757
-0.240878
-0.239859
-0.238819
-0.23782
-0.235225
-0.244898
-0.245308
-0.245472
-0.245523
-0.245477
-0.245339
-0.245129
-0.24486
-0.244542
-0.244181
-0.243777
-0.243325
-0.242812
-0.242224
-0.241544
-0.240759
-0.239858
-0.238964
-0.238101
-0.235944
-0.243968
-0.244414
-0.244611
-0.244702
-0.244698
-0.244608
-0.244447
-0.244229
-0.243964
-0.243657
-0.243308
-0.242912
-0.24246
-0.241938
-0.241334
-0.24064
-0.239854
-0.239092
-0.238356
-0.236564
-0.243067
-0.24355
-0.24378
-0.243907
-0.243944
-0.243898
-0.243784
-0.243615
-0.2434
-0.243144
-0.242848
-0.242507
-0.242113
-0.241656
-0.241127
-0.240521
-0.239842
-0.2392
-0.238581
-0.237088
-0.242196
-0.242715
-0.242976
-0.243138
-0.243214
-0.24321
-0.243139
-0.243016
-0.242849
-0.242641
-0.242396
-0.242108
-0.241771
-0.241377
-0.24092
-0.240398
-0.239819
-0.239285
-0.238772
-0.237524
-0.241353
-0.241909
-0.2422
-0.242395
-0.242508
-0.242542
-0.242514
-0.242434
-0.242311
-0.24215
-0.241953
-0.241715
-0.241433
-0.2411
-0.240712
-0.240269
-0.239783
-0.239345
-0.238931
-0.237875
-0.240539
-0.241131
-0.241451
-0.241678
-0.241825
-0.241897
-0.241907
-0.241868
-0.241788
-0.241671
-0.241519
-0.24133
-0.2411
-0.240825
-0.240502
-0.240134
-0.239731
-0.239378
-0.239059
-0.238138
-0.239753
-0.240381
-0.240729
-0.240987
-0.241167
-0.241273
-0.24132
-0.241319
-0.241279
-0.241204
-0.241095
-0.240952
-0.240772
-0.240552
-0.24029
-0.23999
-0.239664
-0.239389
-0.239142
-0.238327
-0.238995
-0.239659
-0.240035
-0.240322
-0.240533
-0.240672
-0.240753
-0.240788
-0.240785
-0.240749
-0.240682
-0.240582
-0.240449
-0.24028
-0.240075
-0.239838
-0.239582
-0.239373
-0.239174
-0.238554
-0.238267
-0.238967
-0.239369
-0.239683
-0.239923
-0.240093
-0.240207
-0.240276
-0.240308
-0.240308
-0.240279
-0.240221
-0.240131
-0.24001
-0.239857
-0.239678
-0.239484
-0.239334
-0.239182
-0.238716
-0.237569
-0.238304
-0.238732
-0.239072
-0.23934
-0.239538
-0.239682
-0.239782
-0.239847
-0.239882
-0.239888
-0.239868
-0.239819
-0.239742
-0.239638
-0.239511
-0.239372
-0.239273
-0.239166
-0.238811
-0.236901
-0.237671
-0.238123
-0.238489
-0.238783
-0.239008
-0.23918
-0.239309
-0.239405
-0.239471
-0.239511
-0.239525
-0.239514
-0.239478
-0.239417
-0.239337
-0.239248
-0.239194
-0.239127
-0.238861
-0.236266
-0.237069
-0.237545
-0.237934
-0.238253
-0.238503
-0.238701
-0.238858
-0.238981
-0.239076
-0.239147
-0.239194
-0.239217
-0.239218
-0.239197
-0.239159
-0.239114
-0.239099
-0.239069
-0.238876
-0.235663
-0.2365
-0.236999
-0.23741
-0.237751
-0.238025
-0.238247
-0.238428
-0.238577
-0.238699
-0.238798
-0.238875
-0.23893
-0.238964
-0.238979
-0.238978
-0.238972
-0.238991
-0.238994
-0.238864
-0.235096
-0.235964
-0.236484
-0.236916
-0.237279
-0.237574
-0.237818
-0.238023
-0.238195
-0.238342
-0.238466
-0.238569
-0.238653
-0.238717
-0.238764
-0.238797
-0.238825
-0.238873
-0.238906
-0.23883
-0.234564
-0.235463
-0.236003
-0.236455
-0.236837
-0.237152
-0.237417
-0.237641
-0.237835
-0.238004
-0.238152
-0.238279
-0.238388
-0.23848
-0.238555
-0.238618
-0.238675
-0.238749
-0.238809
-0.238779
-0.234069
-0.234997
-0.235557
-0.236026
-0.236427
-0.23676
-0.237043
-0.237286
-0.2375
-0.237688
-0.237857
-0.238006
-0.238138
-0.238253
-0.238354
-0.238442
-0.238526
-0.238623
-0.238705
-0.238716
-0.233614
-0.234569
-0.235146
-0.235632
-0.236049
-0.236399
-0.236698
-0.236958
-0.237189
-0.237396
-0.237582
-0.237751
-0.237903
-0.238039
-0.238162
-0.238273
-0.238379
-0.238496
-0.238599
-0.238645
-0.233198
-0.234179
-0.234772
-0.235273
-0.235705
-0.23607
-0.236383
-0.236659
-0.236905
-0.237127
-0.23733
-0.237516
-0.237685
-0.23784
-0.237982
-0.238113
-0.238239
-0.238372
-0.238493
-0.238569
-0.232825
-0.233828
-0.234436
-0.234951
-0.235396
-0.235773
-0.2361
-0.236389
-0.236648
-0.236884
-0.237101
-0.237302
-0.237487
-0.237658
-0.237816
-0.237964
-0.238106
-0.238253
-0.23839
-0.238493
-0.232494
-0.233518
-0.234139
-0.234666
-0.235122
-0.235511
-0.235849
-0.23615
-0.23642
-0.236668
-0.236898
-0.23711
-0.237309
-0.237493
-0.237665
-0.237828
-0.237984
-0.238143
-0.238293
-0.238419
-0.232207
-0.23325
-0.233881
-0.234419
-0.234886
-0.235284
-0.235632
-0.235942
-0.236222
-0.23648
-0.23672
-0.236943
-0.237152
-0.237348
-0.237532
-0.237706
-0.237874
-0.238043
-0.238204
-0.238349
-0.231966
-0.233024
-0.233665
-0.234211
-0.234686
-0.235093
-0.235449
-0.235766
-0.236055
-0.236321
-0.236569
-0.236801
-0.237019
-0.237224
-0.237417
-0.237601
-0.237778
-0.237955
-0.238126
-0.238286
-0.231771
-0.232841
-0.23349
-0.234043
-0.234525
-0.234938
-0.2353
-0.235624
-0.235919
-0.236192
-0.236446
-0.236685
-0.23691
-0.237122
-0.237323
-0.237514
-0.237698
-0.237881
-0.238059
-0.238231
-0.231623
-0.232702
-0.233357
-0.233915
-0.234402
-0.23482
-0.235187
-0.235516
-0.235816
-0.236093
-0.236352
-0.236596
-0.236826
-0.237043
-0.237249
-0.237446
-0.237636
-0.237823
-0.238006
-0.238187
-0.231522
-0.232608
-0.233267
-0.233829
-0.234319
-0.23474
-0.23511
-0.235442
-0.235745
-0.236025
-0.236287
-0.236534
-0.236768
-0.236989
-0.237198
-0.237398
-0.237591
-0.237781
-0.237967
-0.238154
-0.23147
-0.232559
-0.233219
-0.233783
-0.234275
-0.234698
-0.235069
-0.235403
-0.235707
-0.235989
-0.236253
-0.236501
-0.236736
-0.236958
-0.237169
-0.237371
-0.237565
-0.237756
-0.237944
-0.238133
-0.238441
-0.238607
-0.238879
-0.239053
-0.239239
-0.239377
-0.23949
-0.23956
-0.239588
-0.239564
-0.239482
-0.239336
-0.239118
-0.238819
-0.238433
-0.238458
-0.238613
-0.238886
-0.239057
-0.239243
-0.239379
-0.239492
-0.239561
-0.239589
-0.239565
-0.239485
-0.23934
-0.239124
-0.238828
-0.238446
-0.238502
-0.238634
-0.238911
-0.239076
-0.239261
-0.239395
-0.239507
-0.239575
-0.239603
-0.239579
-0.239499
-0.239356
-0.239142
-0.238849
-0.238471
-0.238572
-0.23867
-0.238952
-0.23911
-0.239293
-0.239424
-0.239534
-0.239602
-0.239629
-0.239605
-0.239526
-0.239383
-0.239171
-0.238882
-0.238507
-0.238667
-0.23872
-0.239009
-0.239157
-0.239338
-0.239466
-0.239574
-0.23964
-0.239666
-0.239642
-0.239563
-0.239422
-0.239212
-0.238926
-0.238555
-0.238785
-0.238783
-0.239082
-0.239217
-0.239397
-0.23952
-0.239626
-0.23969
-0.239715
-0.23969
-0.239612
-0.239471
-0.239263
-0.23898
-0.238613
-0.238926
-0.238857
-0.239169
-0.239289
-0.239467
-0.239585
-0.239689
-0.23975
-0.239774
-0.239748
-0.23967
-0.239531
-0.239324
-0.239043
-0.23868
-0.238227
-0.239088
-0.238941
-0.239268
-0.239371
-0.239547
-0.23966
-0.239761
-0.23982
-0.239842
-0.239816
-0.239737
-0.239599
-0.239394
-0.239116
-0.238756
-0.238308
-0.23927
-0.239034
-0.239379
-0.239462
-0.239637
-0.239743
-0.239842
-0.239898
-0.239919
-0.239892
-0.239813
-0.239675
-0.239472
-0.239196
-0.238841
-0.238397
-0.239469
-0.239132
-0.2395
-0.239562
-0.239735
-0.239835
-0.23993
-0.239984
-0.240002
-0.239974
-0.239895
-0.239758
-0.239557
-0.239283
-0.238932
-0.238493
-0.239685
-0.239234
-0.239628
-0.239667
-0.239839
-0.239932
-0.240024
-0.240075
-0.240092
-0.240063
-0.239983
-0.239847
-0.239647
-0.239376
-0.239028
-0.238595
-0.239915
-0.239338
-0.239763
-0.239776
-0.239948
-0.240034
-0.240123
-0.240171
-0.240186
-0.240155
-0.240076
-0.23994
-0.239742
-0.239474
-0.23913
-0.238701
-0.240159
-0.23944
-0.239903
-0.239888
-0.240059
-0.240138
-0.240224
-0.240269
-0.240283
-0.240251
-0.240172
-0.240036
-0.23984
-0.239574
-0.239234
-0.238811
-0.240416
-0.239539
-0.240045
-0.240001
-0.240172
-0.240244
-0.240327
-0.24037
-0.240381
-0.240349
-0.240269
-0.240134
-0.239939
-0.239677
-0.239341
-0.238922
-0.240684
-0.239632
-0.240188
-0.240113
-0.240284
-0.24035
-0.24043
-0.24047
-0.240479
-0.240446
-0.240367
-0.240233
-0.24004
-0.23978
-0.239448
-0.239035
-0.240966
-0.239716
-0.24033
-0.240222
-0.240394
-0.240453
-0.240531
-0.240568
-0.240576
-0.240543
-0.240463
-0.24033
-0.240139
-0.239883
-0.239554
-0.239147
-0.241258
-0.239789
-0.24047
-0.240327
-0.2405
-0.240553
-0.240628
-0.240663
-0.24067
-0.240636
-0.240557
-0.240425
-0.240236
-0.239983
-0.239659
-0.239257
-0.241568
-0.239848
-0.240605
-0.240426
-0.2406
-0.240648
-0.24072
-0.240753
-0.240759
-0.240725
-0.240646
-0.240516
-0.24033
-0.24008
-0.23976
-0.239364
-0.241922
-0.239876
-0.240734
-0.240519
-0.240693
-0.240736
-0.240805
-0.240837
-0.240842
-0.240808
-0.24073
-0.240602
-0.240418
-0.240171
-0.239857
-0.239466
-0.242325
-0.239858
-0.240856
-0.240604
-0.240776
-0.240816
-0.240882
-0.240913
-0.240917
-0.240883
-0.240807
-0.24068
-0.240499
-0.240257
-0.239947
-0.239563
-0.242574
-0.239953
-0.240955
-0.24068
-0.240849
-0.240886
-0.240948
-0.240979
-0.240983
-0.24095
-0.240874
-0.240751
-0.240573
-0.240335
-0.24003
-0.239652
-0.242883
-0.240003
-0.24104
-0.240748
-0.24091
-0.240944
-0.241004
-0.241034
-0.241038
-0.241006
-0.240932
-0.240811
-0.240637
-0.240404
-0.240105
-0.239733
-0.243241
-0.240016
-0.241117
-0.240805
-0.240958
-0.24099
-0.241047
-0.241076
-0.24108
-0.24105
-0.240979
-0.240861
-0.240691
-0.240462
-0.240169
-0.239805
-0.243626
-0.240014
-0.241181
-0.240849
-0.240991
-0.241022
-0.241075
-0.241104
-0.241109
-0.24108
-0.241012
-0.240898
-0.240732
-0.240509
-0.240222
-0.239865
-0.23943
-0.244041
-0.240002
-0.24123
-0.240881
-0.241009
-0.241038
-0.241087
-0.241116
-0.241122
-0.241095
-0.24103
-0.24092
-0.24076
-0.240543
-0.240263
-0.239913
-0.239487
-0.244488
-0.239985
-0.241264
-0.2409
-0.241011
-0.241037
-0.241083
-0.241111
-0.241118
-0.241094
-0.241033
-0.240928
-0.240773
-0.240562
-0.24029
-0.239948
-0.23953
-0.244968
-0.239967
-0.241281
-0.240905
-0.240995
-0.241018
-0.241059
-0.241087
-0.241096
-0.241075
-0.241018
-0.240918
-0.240769
-0.240566
-0.240301
-0.239968
-0.23956
-0.245481
-0.239954
-0.24128
-0.240896
-0.24096
-0.240979
-0.241015
-0.241043
-0.241053
-0.241036
-0.240984
-0.24089
-0.240748
-0.240552
-0.240296
-0.239972
-0.239573
-0.246021
-0.239956
-0.241262
-0.24087
-0.240905
-0.240919
-0.240948
-0.240976
-0.240988
-0.240975
-0.240929
-0.240842
-0.240708
-0.24052
-0.240273
-0.239959
-0.23957
-0.246578
-0.239978
-0.241226
-0.240827
-0.240828
-0.240835
-0.240857
-0.240885
-0.2409
-0.240892
-0.240852
-0.240772
-0.240647
-0.240468
-0.24023
-0.239926
-0.239549
-0.247134
-0.240028
-0.241174
-0.240765
-0.240728
-0.240725
-0.24074
-0.240767
-0.240785
-0.240783
-0.24075
-0.24068
-0.240563
-0.240395
-0.240167
-0.239874
-0.239508
-0.24766
-0.240111
-0.241107
-0.240679
-0.240601
-0.240586
-0.240594
-0.240621
-0.240643
-0.240647
-0.240623
-0.240562
-0.240456
-0.240298
-0.240082
-0.2398
-0.239446
-0.248113
-0.240226
-0.241026
-0.240566
-0.240445
-0.240417
-0.240417
-0.240444
-0.240471
-0.240483
-0.240468
-0.240417
-0.240322
-0.240176
-0.239972
-0.239703
-0.239361
-0.238938
-0.248434
-0.240366
-0.240932
-0.240422
-0.240255
-0.240214
-0.240206
-0.240233
-0.240266
-0.240286
-0.240282
-0.240243
-0.240161
-0.240028
-0.239837
-0.239581
-0.239253
-0.238843
-0.248541
-0.240507
-0.24082
-0.240238
-0.240025
-0.239971
-0.239956
-0.239985
-0.240025
-0.240056
-0.240064
-0.240038
-0.23997
-0.239851
-0.239674
-0.239433
-0.239119
-0.238723
-0.248314
-0.240604
-0.240685
-0.240006
-0.239748
-0.239683
-0.239665
-0.239697
-0.239746
-0.239789
-0.23981
-0.2398
-0.239747
-0.239643
-0.239482
-0.239256
-0.238958
-0.238577
-0.247603
-0.240618
-0.240532
-0.239732
-0.23943
-0.239358
-0.239338
-0.239374
-0.239433
-0.239489
-0.239525
-0.23953
-0.239494
-0.239407
-0.239263
-0.239053
-0.23877
-0.238406
-0.246348
-0.240535
-0.240377
-0.239435
-0.239081
-0.239002
-0.238979
-0.239018
-0.239086
-0.239155
-0.239206
-0.239228
-0.239208
-0.239138
-0.239011
-0.238818
-0.238552
-0.238204
-0.244304
-0.240053
-0.240083
-0.239015
-0.23861
-0.238533
-0.238517
-0.238564
-0.238646
-0.238733
-0.238805
-0.238848
-0.23885
-0.238802
-0.238696
-0.238524
-0.238279
-0.237951
-0.239293
-0.238325
-0.239316
-0.238211
-0.237821
-0.2378
-0.23783
-0.237916
-0.238039
-0.238166
-0.238277
-0.238358
-0.238397
-0.238384
-0.238311
-0.238171
-0.237955
-0.237655
-0.226837
-0.235427
-0.238486
-0.237442
-0.237101
-0.237163
-0.23725
-0.23738
-0.237542
-0.237707
-0.237853
-0.237966
-0.238035
-0.23805
-0.238004
-0.237888
-0.237696
-0.237418
-0.221595
-0.233003
-0.23731
-0.236206
-0.23588
-0.23606
-0.236227
-0.236409
-0.236619
-0.23683
-0.237018
-0.237171
-0.237277
-0.237327
-0.237312
-0.237226
-0.237061
-0.236807
-0.219892
-0.23101
-0.235809
-0.23472
-0.234412
-0.234715
-0.234975
-0.23522
-0.235488
-0.235753
-0.23599
-0.236189
-0.236337
-0.236426
-0.236447
-0.236393
-0.236257
-0.23603
-0.21938
-0.228871
-0.233849
-0.23297
-0.232705
-0.233123
-0.233491
-0.233815
-0.234154
-0.234484
-0.234783
-0.235037
-0.235237
-0.235373
-0.235438
-0.235425
-0.235324
-0.235129
-0.219125
-0.226585
-0.231446
-0.230905