/*--------------------------------*- C++ -*----------------------------------*\
  =========                 |
  \\      /  F ield         | OpenFOAM: The Open Source CFD Toolbox
   \\    /   O peration     | Website:  https://openfoam.org
    \\  /    A nd           | Version:  7
     \\/     M anipulation  |
\*---------------------------------------------------------------------------*/
FoamFile
{
    version     2.0;
    format      ascii;
    class       volScalarField;
    location    "65";
    object      p;
}
// * * * * * * * * * * * * * * * * * * * * * * * * * * * * * * * * * * * * * //

dimensions      [0 2 -2 0 0 0 0];

internalField   nonuniform List<scalar> 
21350
(
-0.244113
-0.247215
-0.245607
-0.250462
-0.248682
-0.246901
-0.253856
-0.251894
-0.24997
-0.247784
-0.2574
-0.255247
-0.253175
-0.250844
-0.248272
-0.261094
-0.258742
-0.256516
-0.254036
-0.251318
-0.248446
-0.264939
-0.26238
-0.259995
-0.257363
-0.254496
-0.251481
-0.248362
-0.268936
-0.266161
-0.263613
-0.260826
-0.257806
-0.254645
-0.251386
-0.248058
-0.244681
-0.273083
-0.270085
-0.26737
-0.264424
-0.26125
-0.257941
-0.254537
-0.251065
-0.247537
-0.243948
-0.277379
-0.274151
-0.271265
-0.268158
-0.264828
-0.261368
-0.257815
-0.254193
-0.250506
-0.246744
-0.242877
-0.281822
-0.278356
-0.275297
-0.272027
-0.268538
-0.264924
-0.261219
-0.25744
-0.253585
-0.249634
-0.245554
-0.241296
-0.23681
-0.286408
-0.282698
-0.279463
-0.276029
-0.272379
-0.268609
-0.264747
-0.260802
-0.256767
-0.252613
-0.248298
-0.24377
-0.238975
-0.233867
-0.22841
-0.291132
-0.287174
-0.28376
-0.28016
-0.276347
-0.272419
-0.268394
-0.264276
-0.260047
-0.255671
-0.2511
-0.246276
-0.241145
-0.235664
-0.229805
-0.223565
-0.295989
-0.291777
-0.288183
-0.284416
-0.28044
-0.276349
-0.272155
-0.267853
-0.263415
-0.258799
-0.253947
-0.248801
-0.243306
-0.237424
-0.231138
-0.224459
-0.21742
-0.210078
-0.300972
-0.296502
-0.292727
-0.288793
-0.284652
-0.280394
-0.276024
-0.271526
-0.266863
-0.261984
-0.256826
-0.251328
-0.24544
-0.239131
-0.232397
-0.22526
-0.21777
-0.209995
-0.202018
-0.193922
-0.306072
-0.301341
-0.297385
-0.293284
-0.288975
-0.284546
-0.279992
-0.275284
-0.270378
-0.265213
-0.259721
-0.253844
-0.247534
-0.240772
-0.233566
-0.225956
-0.218005
-0.209796
-0.201417
-0.19296
-0.184506
-0.176125
-0.311279
-0.306285
-0.302148
-0.297879
-0.293402
-0.288797
-0.284048
-0.279117
-0.273946
-0.26847
-0.262617
-0.256329
-0.249569
-0.242329
-0.234633
-0.226537
-0.218119
-0.209472
-0.200695
-0.191882
-0.183115
-0.174462
-0.165986
-0.157669
-0.316581
-0.311324
-0.307007
-0.302571
-0.297923
-0.293136
-0.288182
-0.28301
-0.277553
-0.271738
-0.265494
-0.258767
-0.251529
-0.243787
-0.235584
-0.226991
-0.218101
-0.209018
-0.199847
-0.190684
-0.18161
-0.172693
-0.163986
-0.155477
-0.147493
-0.321967
-0.316446
-0.311951
-0.307348
-0.302526
-0.297551
-0.292379
-0.286948
-0.281181
-0.275
-0.268334
-0.261137
-0.253395
-0.245131
-0.236405
-0.227307
-0.217943
-0.208426
-0.198866
-0.189361
-0.179989
-0.170813
-0.161881
-0.153185
-0.145017
-0.327421
-0.321638
-0.316966
-0.312197
-0.307199
-0.302027
-0.296624
-0.290913
-0.284811
-0.278235
-0.271118
-0.263422
-0.25515
-0.246345
-0.237084
-0.227475
-0.217636
-0.20769
-0.197749
-0.187908
-0.178246
-0.168819
-0.159669
-0.15079
-0.142442
-0.332927
-0.326884
-0.322039
-0.317104
-0.311926
-0.306549
-0.300899
-0.294888
-0.288424
-0.281422
-0.273823
-0.265601
-0.256777
-0.247413
-0.237608
-0.227485
-0.217174
-0.206804
-0.196488
-0.186321
-0.176376
-0.166705
-0.157344
-0.148287
-0.139764
-0.338468
-0.332168
-0.327153
-0.322053
-0.316692
-0.311099
-0.305186
-0.298852
-0.291997
-0.28454
-0.276428
-0.267654
-0.258256
-0.24832
-0.237964
-0.227326
-0.216547
-0.20576
-0.195079
-0.184595
-0.174376
-0.164469
-0.154902
-0.145672
-0.136979
-0.344025
-0.337473
-0.33229
-0.327027
-0.321477
-0.315658
-0.309464
-0.302781
-0.295508
-0.287565
-0.278912
-0.26956
-0.259571
-0.249052
-0.238141
-0.22699
-0.215748
-0.204553
-0.193515
-0.182724
-0.17224
-0.162104
-0.152339
-0.142942
-0.134083
-0.349575
-0.342778
-0.337433
-0.332005
-0.326262
-0.320204
-0.313709
-0.306654
-0.298933
-0.290474
-0.281252
-0.2713
-0.260704
-0.249594
-0.238126
-0.226466
-0.21477
-0.203175
-0.191792
-0.180702
-0.169962
-0.159607
-0.14965
-0.140093
-0.131072
-0.355098
-0.348063
-0.342559
-0.336968
-0.331025
-0.324715
-0.317899
-0.310444
-0.302245
-0.293241
-0.283425
-0.272854
-0.261638
-0.249931
-0.237908
-0.225745
-0.213604
-0.201621
-0.189903
-0.178526
-0.167539
-0.156972
-0.146831
-0.137119
-0.127943
-0.36057
-0.353304
-0.347647
-0.341891
-0.335742
-0.329165
-0.322007
-0.314126
-0.305421
-0.295844
-0.28541
-0.274201
-0.262356
-0.250051
-0.237477
-0.224819
-0.212243
-0.199884
-0.187843
-0.176189
-0.164965
-0.154194
-0.143878
-0.134016
-0.124691
-0.365964
-0.358478
-0.352672
-0.346753
-0.340389
-0.333531
-0.326007
-0.317672
-0.308432
-0.298256
-0.287182
-0.275323
-0.262843
-0.24994
-0.23682
-0.223678
-0.21068
-0.197957
-0.185605
-0.173685
-0.162235
-0.151268
-0.140784
-0.130781
-0.121313
-0.371254
-0.363559
-0.35761
-0.351525
-0.34494
-0.337783
-0.32987
-0.321056
-0.311253
-0.300453
-0.288721
-0.2762
-0.263082
-0.249585
-0.235929
-0.222315
-0.208907
-0.195834
-0.183183
-0.171009
-0.159342
-0.14819
-0.137547
-0.12741
-0.117805
-0.376414
-0.36852
-0.362434
-0.356183
-0.349366
-0.341893
-0.333569
-0.324248
-0.313857
-0.30241
-0.290005
-0.276815
-0.263058
-0.248974
-0.234793
-0.22072
-0.206918
-0.193508
-0.180571
-0.168156
-0.156283
-0.144955
-0.134161
-0.123897
-0.114163
-0.381412
-0.373333
-0.367115
-0.360697
-0.353639
-0.345833
-0.337074
-0.327219
-0.316216
-0.304103
-0.291013
-0.277149
-0.262757
-0.248095
-0.233402
-0.218885
-0.204704
-0.190972
-0.177764
-0.165119
-0.153051
-0.141557
-0.130622
-0.120239
-0.110384
-0.38622
-0.37797
-0.371626
-0.365037
-0.357728
-0.349571
-0.340354
-0.329942
-0.318303
-0.305508
-0.291724
-0.277186
-0.262166
-0.246937
-0.231748
-0.216803
-0.202259
-0.188221
-0.174756
-0.161893
-0.149642
-0.137993
-0.126925
-0.116433
-0.106464
-0.390807
-0.3824
-0.375936
-0.369175
-0.361603
-0.353077
-0.34338
-0.332387
-0.320092
-0.306602
-0.292119
-0.27691
-0.26127
-0.245489
-0.22982
-0.214465
-0.199575
-0.185248
-0.17154
-0.158473
-0.146051
-0.134256
-0.123067
-0.112474
-0.1024
-0.395142
-0.386593
-0.380014
-0.373078
-0.365233
-0.35632
-0.34612
-0.334525
-0.321558
-0.307363
-0.292178
-0.276304
-0.260058
-0.243741
-0.22761
-0.211865
-0.196647
-0.182047
-0.16811
-0.154854
-0.142272
-0.130344
-0.119044
-0.108358
-0.0981893
-0.399192
-0.390517
-0.383829
-0.376716
-0.368586
-0.359268
-0.348544
-0.336328
-0.322675
-0.307768
-0.291884
-0.275354
-0.258517
-0.241684
-0.225111
-0.208994
-0.193468
-0.178611
-0.164462
-0.151029
-0.138301
-0.126251
-0.114851
-0.104083
-0.0938279
-0.402924
-0.39414
-0.387349
-0.380055
-0.37163
-0.361889
-0.350623
-0.337769
-0.323419
-0.307798
-0.29122
-0.274047
-0.256637
-0.239306
-0.222314
-0.205847
-0.19003
-0.174935
-0.16059
-0.146995
-0.134133
-0.121973
-0.110485
-0.0996444
-0.0893136
-0.406306
-0.397431
-0.390542
-0.383063
-0.374331
-0.364151
-0.352326
-0.33882
-0.323766
-0.307431
-0.290169
-0.272369
-0.254406
-0.236601
-0.219211
-0.202415
-0.186329
-0.171013
-0.156488
-0.142747
-0.129765
-0.117508
-0.105943
-0.0950397
-0.0846435
-0.409306
-0.400356
-0.393376
-0.385709
-0.376658
-0.366025
-0.353625
-0.339456
-0.323694
-0.306651
-0.288717
-0.270309
-0.251814
-0.23356
-0.215795
-0.198694
-0.182359
-0.166841
-0.152152
-0.138279
-0.125191
-0.11285
-0.10122
-0.090266
-0.0798153
-0.411892
-0.402885
-0.395818
-0.387959
-0.37858
-0.36748
-0.354492
-0.339652
-0.323182
-0.305438
-0.286849
-0.267854
-0.248853
-0.230174
-0.212061
-0.194676
-0.178113
-0.162412
-0.147578
-0.133588
-0.120409
-0.107996
-0.0963155
-0.0853206
-0.0748268
-0.41403
-0.404985
-0.397836
-0.389782
-0.380066
-0.368485
-0.354899
-0.339385
-0.32221
-0.303778
-0.284553
-0.264995
-0.245514
-0.226437
-0.208001
-0.190356
-0.173587
-0.157723
-0.14276
-0.128671
-0.115414
-0.102944
-0.0912251
-0.0802012
-0.0696761
-0.415691
-0.406625
-0.3994
-0.391147
-0.381084
-0.369013
-0.354822
-0.338631
-0.32076
-0.301656
-0.281816
-0.261722
-0.24179
-0.222343
-0.203609
-0.18573
-0.168776
-0.152769
-0.137695
-0.123522
-0.110205
-0.0976914
-0.0859468
-0.0749058
-0.0643616
-0.416842
-0.407774
-0.400478
-0.392024
-0.381606
-0.369037
-0.354236
-0.337371
-0.318814
-0.299057
-0.278628
-0.258026
-0.237672
-0.217885
-0.198881
-0.180792
-0.163676
-0.147546
-0.13238
-0.11814
-0.104776
-0.0922348
-0.0804787
-0.0694326
-0.0588819
-0.417455
-0.408403
-0.40104
-0.392382
-0.381604
-0.36853
-0.353117
-0.335585
-0.316358
-0.295969
-0.274979
-0.253901
-0.233156
-0.213058
-0.193812
-0.175538
-0.158283
-0.14205
-0.126811
-0.112522
-0.0991278
-0.0865724
-0.0748188
-0.0637802
-0.0532359
-0.4175
-0.408482
-0.401059
-0.392194
-0.38105
-0.367468
-0.351445
-0.333256
-0.313376
-0.292382
-0.270861
-0.249338
-0.228235
-0.207857
-0.188398
-0.169964
-0.152593
-0.136279
-0.120986
-0.106664
-0.0932564
-0.0807025
-0.0689657
-0.0579473
-0.0474226
-0.416951
-0.407985
-0.400506
-0.391434
-0.37992
-0.365828
-0.349201
-0.330367
-0.309856
-0.288285
-0.266266
-0.244333
-0.222906
-0.202279
-0.182635
-0.164068
-0.146605
-0.13023
-0.114902
-0.100566
-0.0871607
-0.0746237
-0.0629183
-0.0519331
-0.0414411
-0.415782
-0.406885
-0.399354
-0.390074
-0.37819
-0.363589
-0.346366
-0.326905
-0.305788
-0.283671
-0.261188
-0.238881
-0.217163
-0.19632
-0.176521
-0.157847
-0.140315
-0.123901
-0.108558
-0.0942254
-0.0808394
-0.0683351
-0.0566757
-0.0457374
-0.0352925
-0.413967
-0.405157
-0.397581
-0.388093
-0.375837
-0.360732
-0.342924
-0.322856
-0.301161
-0.278533
-0.255623
-0.232978
-0.211005
-0.189978
-0.170053
-0.151298
-0.133722
-0.117291
-0.101952
-0.0876415
-0.0742916
-0.0618356
-0.0502369
-0.0393604
-0.0289807
-0.411485
-0.402779
-0.395162
-0.385467
-0.372843
-0.357241
-0.338862
-0.31821
-0.295969
-0.272864
-0.249566
-0.22662
-0.204429
-0.18325
-0.163229
-0.144422
-0.126824
-0.110398
-0.0950835
-0.0808138
-0.067517
-0.0551246
-0.0436003
-0.0328008
-0.0225038
-0.408315
-0.399729
-0.392077
-0.382177
-0.369188
-0.353099
-0.334168
-0.312959
-0.290204
-0.266662
-0.243014
-0.219807
-0.197433
-0.176137
-0.15605
-0.137215
-0.119622
-0.103222
-0.0879528
-0.0737423
-0.0605159
-0.0482024
-0.0367666
-0.0260553
-0.0158342
-0.404437
-0.395988
-0.388307
-0.378206
-0.364858
-0.348293
-0.328831
-0.307095
-0.283863
-0.259923
-0.235966
-0.212538
-0.190017
-0.168637
-0.148514
-0.12968
-0.112115
-0.0957642
-0.0805601
-0.0664277
-0.053289
-0.0410711
-0.0297416
-0.0191289
-0.00893432
-0.399836
-0.391539
-0.383835
-0.373537
-0.359838
-0.342813
-0.322844
-0.300613
-0.276942
-0.252645
-0.228422
-0.204812
-0.182182
-0.160751
-0.140622
-0.121816
-0.104303
-0.0880246
-0.0729065
-0.0588711
-0.0458377
-0.033733
-0.0225294
-0.0120361
-0.00187121
-0.394497
-0.386367
-0.378645
-0.368156
-0.354116
-0.33665
-0.316201
-0.293509
-0.26944
-0.244829
-0.220382
-0.19663
-0.173929
-0.152481
-0.132376
-0.113625
-0.0961898
-0.0800049
-0.0649933
-0.051074
-0.0381638
-0.0261895
-0.0151232
-0.00473115
0.00525673
-0.388407
-0.380459
-0.372726
-0.362053
-0.347685
-0.329797
-0.308897
-0.285782
-0.261357
-0.236477
-0.211849
-0.187996
-0.16526
-0.143828
-0.123778
-0.105109
-0.0877758
-0.0717073
-0.0568228
-0.0430387
-0.0302697
-0.0184427
-0.00752738
0.00273826
0.0125449
-0.381556
-0.373803
-0.366067
-0.355218
-0.340536
-0.322249
-0.300931
-0.277432
-0.252695
-0.227589
-0.202824
-0.178911
-0.156177
-0.134796
-0.114831
-0.096271
-0.079064
-0.0631342
-0.0483976
-0.034768
-0.0221579
-0.0104946
0.00025418
0.0103721
0.0199989
-0.373936
-0.366393
-0.358661
-0.347644
-0.332665
-0.314006
-0.292302
-0.268461
-0.243456
-0.218171
-0.193313
-0.169381
-0.146687
-0.125389
-0.105538
-0.0871139
-0.0700578
-0.0542891
-0.0397212
-0.0262649
-0.0138316
-0.0023485
0.00821778
0.0181715
0.0276141
-0.365542
-0.358221
-0.3505
-0.339328
-0.324071
-0.305065
-0.283014
-0.258872
-0.233645
-0.208228
-0.18332
-0.15941
-0.136792
-0.11561
-0.0959032
-0.0776423
-0.0607613
-0.0451763
-0.0307971
-0.0175333
-0.00529429
0.00599211
0.0163601
0.0261356
0.0353852
-0.356371
-0.349285
-0.341584
-0.330268
-0.314751
-0.29543
-0.273068
-0.248671
-0.223269
-0.197765
-0.172852
-0.149004
-0.126499
-0.105466
-0.0859326
-0.0678611
-0.0511796
-0.0358
-0.02163
-0.0085774
0.00344983
0.0145232
0.0246776
0.0342617
0.0433072
-0.346423
-0.339583
-0.331909
-0.320463
-0.30471
-0.285104
-0.262473
-0.237865
-0.212335
-0.186791
-0.161917
-0.13817
-0.115814
-0.0949628
-0.0756319
-0.057776
-0.0413177
-0.0261655
-0.0122248
0.00059792
0.0123961
0.0232404
0.0331662
0.0425459
0.0513754
-0.335699
-0.329116
-0.321479
-0.309917
-0.293951
-0.274094
-0.251234
-0.226461
-0.200852
-0.175314
-0.150522
-0.126917
-0.104745
-0.0841074
-0.0650077
-0.0473934
-0.0311819
-0.0162788
-0.00258727
0.00998727
0.0215394
0.0321386
0.0418213
0.0509838
0.059585
-0.324202
-0.317888
-0.310297
-0.298635
-0.282481
-0.262408
-0.239361
-0.214471
-0.18883
-0.163345
-0.138677
-0.115253
-0.093301
-0.0729078
-0.0540676
-0.0367203
-0.020779
-0.00614619
0.00727643
0.0195847
0.0308741
0.0412126
0.0506378
0.0595706
0.0679312
-0.311941
-0.305904
-0.298369
-0.286624
-0.270308
-0.250055
-0.226865
-0.201905
-0.17628
-0.150894
-0.126394
-0.103189
-0.0814904
-0.0613727
-0.0428196
-0.0257646
-0.0101163
0.00422508
0.0173595
0.0293837
0.0403938
0.0504563
0.0596101
0.0683009
0.0764085
-0.298923
-0.293174
-0.285705
-0.273893
-0.257444
-0.237048
-0.21376
-0.188777
-0.163216
-0.137974
-0.113683
-0.0907341
-0.0693235
-0.0495115
-0.0312728
-0.0145347
0.00079794
0.0148273
0.0276545
0.0393771
0.0500919
0.0598634
0.068732
0.0771686
0.0850115
-0.285159
-0.279706
-0.272314
-0.260455
-0.243902
-0.223401
-0.200059
-0.175101
-0.149651
-0.124598
-0.100556
-0.0779013
-0.0568113
-0.0373345
-0.0194368
-0.00303973
0.0119552
0.0256523
0.0381536
0.0495575
0.0599611
0.069427
0.077997
0.0861674
0.0937341
-0.270663
-0.265515
-0.258209
-0.246323
-0.229695
-0.20913
-0.185778
-0.160893
-0.135601
-0.110779
-0.0870288
-0.0647028
-0.0439655
-0.0248526
-0.00732182
0.00871048
0.0233461
0.036691
0.0488482
0.0599166
0.0699936
0.0791395
0.087398
0.0952907
0.10257
-0.255449
-0.250614
-0.243406
-0.231513
-0.214842
-0.19425
-0.170935
-0.14617
-0.121081
-0.0965351
-0.0731137
-0.0511519
-0.0307984
-0.0120774
0.00506103
0.0207056
0.0349607
0.0479341
0.0597294
0.0704458
0.0801811
0.0889931
0.0969274
0.104531
0.111512
-0.239537
-0.235021
-0.227923
-0.216043
-0.199359
-0.178782
-0.15555
-0.130948
-0.106109
-0.0818807
-0.0588264
-0.0372628
-0.0173234
0.00097852
0.0177002
0.0329346
0.0467888
0.0593717
0.0707875
0.081136
0.0905149
0.0989794
0.106577
0.11388
0.120553
-0.222944
-0.218754
-0.211777
-0.199932
-0.183269
-0.162747
-0.139644
-0.115245
-0.0907031
-0.0668336
-0.0441831
-0.0230504
-0.00355427
0.0143023
0.0305834
0.0453859
0.0588192
0.0709932
0.0820127
0.0919776
0.100986
0.109089
0.116339
0.123331
0.129685
-0.205693
-0.201835
-0.194991
-0.183202
-0.166591
-0.146165
-0.123227
-0.0990926
-0.0748836
-0.0514117
-0.0292005
-0.00853027
0.0104943
0.0278803
0.0436978
0.0580476
0.0710407
0.082788
0.0933945
0.102961
0.111584
0.119313
0.126203
0.132873
0.138899
-0.187807
-0.184286
-0.177586
-0.165877
-0.149353
-0.129058
-0.106334
-0.0825024
-0.0586701
-0.035634
-0.0138963
0.00628109
0.0248071
0.0416982
0.0570302
0.070907
0.0834412
0.0947446
0.104922
0.114075
0.122299
0.129642
0.13616
0.142497
0.148185
-0.16931
-0.166132
-0.159588
-0.147982
-0.131579
-0.111446
-0.0889848
-0.0654984
-0.0420839
-0.0195203
0.00171119
0.0213667
0.0393683
0.0557412
0.0705665
0.083951
0.0960086
0.106851
0.116585
0.125309
0.13312
0.140064
0.146199
0.152193
0.157532
-0.150228
-0.147399
-0.141023
-0.129543
-0.113281
-0.0933711
-0.0712056
-0.0481045
-0.025147
-0.00309113
0.0176029
0.0367088
0.0541613
0.0699939
0.0842925
0.0971663
0.10873
0.119097
0.12837
0.136652
0.144038
0.15057
0.156311
0.161949
0.166928
-0.130589
-0.128115
-0.121918
-0.110583
-0.0945031
-0.074848
-0.0530208
-0.0303452
-0.00788209
0.0136324
0.0337593
0.0522892
0.0691692
0.0844405
0.0981933
0.110539
0.121593
0.131468
0.140268
0.148094
0.155041
0.161147
0.166484
0.171753
0.176355
-0.11042
-0.108309
-0.102302
-0.0911345
-0.0752708
-0.0559055
-0.0344574
-0.0122458
0.00968733
0.0306285
0.0501599
0.068089
0.0843744
0.0990645
0.112254
0.124055
0.134584
0.143953
0.152266
0.159623
0.166118
0.171787
0.176708
0.181589
0.185791
-0.0897477
-0.088014
-0.0822062
-0.0712308
-0.0556124
-0.036573
-0.0155426
0.00616805
0.0275371
0.0478747
0.0667839
0.0840887
0.0997588
0.113849
0.126458
0.137699
0.147689
0.156539
0.164352
0.171229
0.177258
0.182476
0.18697
0.191444
0.195208
-0.0685974
-0.0672786
-0.0616586
-0.0509007
-0.0355587
-0.0168807
0.00369533
0.0248696
0.0456425
0.0653478
0.08361
0.100269
0.115304
0.128777
0.14079
0.151456
0.160894
0.169213
0.176516
0.1829
0.188453
0.193206
0.197262
0.201308
0.204589
-0.0470225
-0.0461143
-0.0407
-0.0301776
-0.0151413
0.0031411
0.0232274
0.0438319
0.0639781
0.0830245
0.100616
0.116608
0.130991
0.143831
0.155233
0.165312
0.174185
0.181962
0.188744
0.194627
0.19969
0.203967
0.207584
0.211178
0.213877
-0.0250918
-0.0245291
-0.0193604
-0.00909501
0.00560729
0.023461
0.043024
0.063027
0.0825181
0.100881
0.11778
0.133086
0.1468
0.158992
0.16977
0.17925
0.187549
0.194774
0.201027
0.206399
0.210962
0.214755
0.217944
0.221026
0.222876
-0.00280038
-0.00258669
0.00232478
0.012313
0.0266537
0.0440473
0.063055
0.0824268
0.101236
0.118892
0.135079
0.149683
0.162711
0.174243
0.184385
0.193255
0.200969
0.207635
0.213351
0.218206
0.222262
0.225579
0.228359
0.230768
0.231307
0.0198191
0.0196726
0.02432
0.0340115
0.0479637
0.0648672
0.0832899
0.102003
0.120106
0.137033
0.15249
0.166375
0.178705
0.189563
0.199059
0.20731
0.214431
0.22053
0.225704
0.230038
0.233588
0.236449
0.238822
0.240325
0.239393
0.0427249
0.0422129
0.0465888
0.0559644
0.0695028
0.085888
0.103697
0.121725
0.139099
0.155279
0.169989
0.183141
0.194761
0.204935
0.213775
0.221398
0.22792
0.233445
0.238073
0.241882
0.244933
0.247359
0.249275
0.249663
0.248918
0.0658798
0.0649994
0.0690952
0.0781364
0.0912364
0.107076
0.124247
0.141566
0.15819
0.173604
0.187552
0.199959
0.210858
0.220338
0.228514
0.235502
0.241418
0.246366
0.250443
0.253727
0.256283
0.258266
0.259716
0.259544
0.259234
0.0892437
0.0879935
0.0918008
0.10049
0.113129
0.128399
0.144905
0.161494
0.17735
0.191983
0.205156
0.216807
0.226975
0.235753
0.243257
0.249605
0.254909
0.259275
0.262798
0.265556
0.267619
0.269144
0.270126
0.269547
0.269284
0.112777
0.111156
0.114667
0.122988
0.135144
0.149821
0.165642
0.18148
0.196551
0.21039
0.222777
0.233661
0.243091
0.251161
0.257987
0.263689
0.268378
0.272158
0.275124
0.277354
0.278923
0.279984
0.280509
0.279572
0.279181
0.136439
0.134449
0.137656
0.145593
0.157247
0.171309
0.186424
0.201494
0.215766
0.228798
0.240389
0.2505
0.259184
0.26654
0.272684
0.277736
0.281805
0.284997
0.287405
0.289106
0.290178
0.29077
0.290845
0.289552
0.288941
0.160191
0.157833
0.160729
0.168268
0.1794
0.192828
0.207219
0.221507
0.234966
0.247181
0.257969
0.2673
0.275233
0.281871
0.28733
0.291728
0.295176
0.297777
0.299624
0.300794
0.301367
0.301488
0.301114
0.299455
0.298565
0.183992
0.181267
0.183846
0.190973
0.201567
0.214344
0.227995
0.241487
0.254124
0.265514
0.275492
0.284038
0.291217
0.297133
0.301904
0.305647
0.308472
0.310481
0.311766
0.312404
0.312476
0.312123
0.311298
0.309261
0.308053
0.207802
0.204712
0.206968
0.213672
0.223713
0.235823
0.248721
0.261404
0.27321
0.28377
0.292933
0.300692
0.307114
0.312307
0.316389
0.319475
0.321676
0.323093
0.323815
0.323921
0.32349
0.322661
0.321381
0.318957
0.317407
0.23158
0.228128
0.230056
0.236326
0.2458
0.257231
0.269363
0.28123
0.292198
0.301923
0.310269
0.317238
0.322903
0.327372
0.330764
0.333195
0.334773
0.335597
0.335757
0.335331
0.334396
0.333088
0.331352
0.328534
0.326624
0.255286
0.251476
0.253072
0.258897
0.267794
0.278532
0.28989
0.300933
0.311059
0.319946
0.327474
0.333653
0.338561
0.342308
0.345012
0.346788
0.347744
0.347977
0.347577
0.346618
0.34518
0.343393
0.3412
0.337982
0.3357
0.27888
0.274714
0.275974
0.281348
0.289656
0.299694
0.31027
0.320485
0.329766
0.337814
0.344525
0.349916
0.354069
0.357096
0.359114
0.360238
0.360573
0.360218
0.359258
0.35777
0.35583
0.353564
0.350913
0.347295
0.344631
0.302322
0.297805
0.298726
0.30364
0.311353
0.320682
0.330471
0.339854
0.348291
0.355502
0.361397
0.366003
0.369405
0.371715
0.373051
0.373526
0.373245
0.372303
0.370788
0.368772
0.366332
0.36359
0.360482
0.356463
0.353412
0.325571
0.320708
0.321289
0.325738
0.332848
0.341464
0.350462
0.359014
0.366606
0.372983
0.378068
0.381892
0.384547
0.386145
0.386804
0.386635
0.385742
0.384219
0.382152
0.379612
0.376675
0.373458
0.369896
0.36548
0.362038
0.348589
0.343384
0.343623
0.347604
0.354106
0.362005
0.370212
0.377934
0.384686
0.390233
0.394512
0.397562
0.399476
0.400369
0.400355
0.399548
0.398049
0.395951
0.393336
0.390277
0.386847
0.383159
0.379147
0.374335
0.3705
0.371336
0.365795
0.365692
0.369201
0.375094
0.382275
0.389691
0.396585
0.402502
0.407226
0.410707
0.41299
0.414171
0.414365
0.413688
0.412249
0.41015
0.407482
0.404327
0.400754
0.396836
0.392682
0.388225
0.383022
0.378793
0.393773
0.387903
0.387458
0.390494
0.395776
0.402239
0.408869
0.414941
0.42003
0.423939
0.42663
0.428154
0.428612
0.428116
0.426783
0.424721
0.42203
0.4188
0.41511
0.41103
0.406631
0.402016
0.397121
0.391532
0.38691
0.415864
0.40967
0.408885
0.411448
0.416119
0.421868
0.427715
0.432973
0.437242
0.440347
0.442258
0.443035
0.442778
0.441603
0.439623
0.436947
0.433673
0.429889
0.425673
0.421094
0.41622
0.411152
0.405824
0.399856
0.394842
0.43757
0.431059
0.429936
0.432027
0.43609
0.441129
0.446202
0.450654
0.454115
0.456426
0.45757
0.457611
0.456651
0.454807
0.452192
0.448913
0.445065
0.440736
0.436003
0.430933
0.425593
0.420078
0.414326
0.407985
0.402583
0.458855
0.452034
0.450576
0.452197
0.455657
0.459993
0.4643
0.467958
0.470623
0.472153
0.472543
0.471861
0.470212
0.467712
0.464473
0.460601
0.45619
0.451327
0.446087
0.440535
0.434737
0.428785
0.422617
0.415912
0.410125
0.479683
0.472559
0.47077
0.471927
0.474789
0.47843
0.481981
0.484858
0.486741
0.487506
0.487156
0.485766
0.483442
0.480299
0.476449
0.471997
0.467036
0.461649
0.455913
0.449889
0.443643
0.437262
0.430689
0.423626
0.41746
0.500018
0.4926
0.490485
0.491181
0.493454
0.49641
0.49922
0.50133
0.502446
0.502462
0.501388
0.499306
0.496322
0.492551
0.488105
0.483086
0.477586
0.471689
0.465467
0.458983
0.4523
0.445501
0.438531
0.431121
0.424581
0.519828
0.512123
0.509687
0.50993
0.511622
0.513906
0.515988
0.517348
0.517716
0.516999
0.51522
0.512462
0.508835
0.504452
0.499424
0.493853
0.487829
0.481434
0.474739
0.467806
0.460697
0.453491
0.446136
0.438388
0.431481
0.539077
0.531096
0.528344
0.528143
0.529265
0.53089
0.532261
0.532889
0.532526
0.531097
0.528632
0.525217
0.520963
0.515985
0.510392
0.504283
0.49775
0.490871
0.483717
0.476348
0.468825
0.461222
0.453494
0.445418
0.438151
0.557734
0.549485
0.546426
0.545789
0.546353
0.547336
0.548014
0.547929
0.546857
0.544736
0.541604
0.537552
0.53269
0.527135
0.520993
0.514365
0.507337
0.499989
0.49239
0.484598
0.476673
0.468687
0.460596
0.452203
0.444585
0.575768
0.56726
0.563902
0.562839
0.56286
0.563218
0.563222
0.562446
0.560686
0.557895
0.554118
0.549449
0.544
0.537886
0.531215
0.524082
0.516577
0.508776
0.500746
0.492546
0.484233
0.475876
0.467436
0.458736
0.450777
0.593148
0.584391
0.580743
0.579266
0.57876
0.57851
0.577862
0.576418
0.573994
0.570556
0.566156
0.560892
0.554877
0.548225
0.541042
0.533424
0.525458
0.51722
0.508775
0.500181
0.491495
0.48278
0.474004
0.465009
0.456718
0.609846
0.60085
0.59692
0.595043
0.594026
0.59319
0.591913
0.589824
0.58676
0.5827
0.577701
0.571865
0.565306
0.558136
0.550461
0.542377
0.533969
0.52531
0.516467
0.507495
0.498449
0.489392
0.480292
0.471014
0.462403
0.625833
0.616609
0.612408
0.610144
0.608635
0.607234
0.605352
0.602644
0.598967
0.594309
0.588737
0.582353
0.575271
0.567606
0.559461
0.55093
0.542098
0.533037
0.523812
0.514478
0.505088
0.495702
0.486294
0.476746
0.467826
0.641083
0.631642
0.62718
0.624545
0.622563
0.620621
0.618159
0.614859
0.610596
0.605368
0.599248
0.59234
0.584761
0.576622
0.568028
0.559071
0.549834
0.54039
0.530801
0.521121
0.511404
0.501704
0.492002
0.482195
0.472979
0.65557
0.645922
0.641213
0.638221
0.635788
0.633329
0.630315
0.626452
0.62163
0.61586
0.609218
0.601813
0.59376
0.585172
0.576151
0.566789
0.557168
0.547359
0.537424
0.527416
0.517387
0.50739
0.497409
0.487357
0.477859
0.669271
0.659428
0.654482
0.651152
0.648289
0.645339
0.641802
0.637403
0.632053
0.625769
0.618634
0.610758
0.602258
0.593244
0.583819
0.574074
0.564089
0.553935
0.543673
0.533356
0.523032
0.512753
0.502508
0.492225
0.482458
0.682161
0.672135
0.666966
0.663316
0.660046
0.656633
0.6526
0.647698
0.641849
0.635081
0.627482
0.619163
0.610241
0.600827
0.591022
0.580916
0.570589
0.560111
0.549541
0.538931
0.52833
0.517786
0.507294
0.496794
0.486772
0.694221
0.684024
0.678644
0.674693
0.671041
0.667192
0.662696
0.657321
0.651005
0.643784
0.63575
0.627016
0.617699
0.60791
0.597749
0.587306
0.576659
0.565877
0.555019
0.544136
0.533275
0.522484
0.511759
0.501056
0.490795
0.70543
0.695073
0.689497
0.685264
0.681256
0.677001
0.672072
0.666257
0.659506
0.651864
0.643425
0.634305
0.624621
0.614484
0.603992
0.593235
0.58229
0.571226
0.5601
0.548963
0.537862
0.52684
0.5159
0.505008
0.494524
0.715768
0.705265
0.699508
0.695014
0.690675
0.686044
0.680715
0.674493
0.667341
0.659309
0.650497
0.641021
0.630998
0.620539
0.609742
0.598695
0.587476
0.576151
0.564778
0.553407
0.542083
0.530849
0.519711
0.508644
0.497954
0.72522
0.714583
0.708659
0.703925
0.699283
0.694307
0.688612
0.682017
0.674497
0.666109
0.656955
0.647153
0.63682
0.626067
0.614991
0.603679
0.592209
0.580645
0.569046
0.557461
0.545934
0.534505
0.523186
0.511961
0.501081
0.73377
0.723011
0.716935
0.711984
0.707067
0.701778
0.69575
0.688818
0.680965
0.672254
0.662791
0.652694
0.64208
0.63106
0.619732
0.60818
0.596482
0.584703
0.5729
0.561121
0.54941
0.537805
0.526322
0.514953
0.503901
0.741402
0.730535
0.724324
0.719177
0.714014
0.708445
0.702119
0.694885
0.686734
0.677735
0.667995
0.657634
0.64677
0.635512
0.623958
0.612192
0.600291
0.58832
0.576334
0.564382
0.552506
0.540744
0.529115
0.517617
0.506412
0.748105
0.737143
0.730812
0.725494
0.720113
0.714297
0.70771
0.70021
0.691797
0.682544
0.672561
0.661968
0.650884
0.639417
0.627663
0.61571
0.60363
0.591489
0.579343
0.567238
0.555218
0.543319
0.531561
0.51995
0.508609
0.753867
0.742823
0.736389
0.730923
0.725354
0.719326
0.712513
0.704784
0.696146
0.686674
0.676482
0.665689
0.654415
0.642768
0.630844
0.618728
0.606495
0.594208
0.581923
0.569688
0.557543
0.545525
0.533657
0.521949
0.510491
0.758679
0.747566
0.741046
0.735455
0.72973
0.723523
0.716521
0.708601
0.699774
0.690119
0.679751
0.668792
0.657359
0.645561
0.633494
0.621243
0.608881
0.596472
0.584072
0.571727
0.559479
0.547361
0.5354
0.523611
0.512056
0.762532
0.751365
0.744775
0.739084
0.733233
0.726883
0.719729
0.711655
0.702675
0.692874
0.682365
0.671272
0.659711
0.647792
0.63561
0.62325
0.610785
0.598279
0.585786
0.573353
0.561021
0.548824
0.536789
0.524935
0.513301
0.765421
0.754213
0.747571
0.741804
0.735857
0.729399
0.722131
0.71394
0.704847
0.694935
0.68432
0.673125
0.661469
0.649458
0.63719
0.624748
0.612205
0.599625
0.587062
0.574564
0.562169
0.549912
0.537821
0.525918
0.514224
0.767341
0.756104
0.749427
0.74361
0.737599
0.731069
0.723723
0.715455
0.706285
0.696298
0.685612
0.67435
0.662629
0.650557
0.638231
0.625734
0.613139
0.60051
0.5879
0.575357
0.56292
0.550623
0.538495
0.526559
0.514826
0.768287
0.757037
0.750342
0.744499
0.738456
0.731889
0.724504
0.716196
0.706987
0.696963
0.686241
0.674944
0.66319
0.651087
0.638732
0.626207
0.613586
0.600931
0.588298
0.575732
0.563275
0.550957
0.53881
0.526858
0.515105
0.768259
0.757008
0.750313
0.74447
0.738426
0.731857
0.724472
0.716163
0.706952
0.696927
0.686204
0.674906
0.663151
0.651048
0.638691
0.626166
0.613544
0.600889
0.588255
0.575689
0.563231
0.550914
0.538766
0.526814
0.515061
0.767257
0.756019
0.749341
0.743522
0.737508
0.730975
0.723626
0.715354
0.70618
0.696191
0.685501
0.674236
0.662512
0.650438
0.638109
0.62561
0.613014
0.600383
0.587772
0.575227
0.56279
0.550492
0.538363
0.526426
0.514694
0.765281
0.75407
0.747426
0.741657
0.735706
0.729243
0.721968
0.713772
0.704673
0.694755
0.684135
0.672935
0.661274
0.649259
0.636987
0.624542
0.611996
0.599413
0.586848
0.574347
0.561951
0.549693
0.537601
0.525696
0.514003
0.762336
0.751166
0.744573
0.738878
0.73302
0.726663
0.719501
0.711419
0.702431
0.692622
0.682106
0.671005
0.659438
0.647513
0.635326
0.622961
0.610492
0.597982
0.585486
0.57305
0.560716
0.548517
0.53648
0.524625
0.512991
0.758426
0.747309
0.740785
0.735189
0.729456
0.72324
0.716228
0.708297
0.699459
0.689794
0.679417
0.668448
0.657007
0.645202
0.633128
0.620871
0.608503
0.59609
0.583686
0.571338
0.559086
0.546967
0.535003
0.523212
0.511657
0.753556
0.742508
0.736069
0.730596
0.725019
0.718979
0.712153
0.704412
0.69576
0.686277
0.676072
0.665269
0.653985
0.642328
0.630396
0.618273
0.606033
0.593741
0.581451
0.569212
0.557064
0.545043
0.533172
0.521461
0.510004
0.747736
0.736769
0.730433
0.725106
0.719715
0.713886
0.707284
0.699769
0.691341
0.682073
0.672076
0.661471
0.650375
0.638897
0.627134
0.615171
0.603084
0.590937
0.578784
0.566675
0.554651
0.542748
0.530987
0.519373
0.508033
0.740974
0.730101
0.723884
0.718729
0.713553
0.707969
0.701626
0.694375
0.686206
0.67719
0.667435
0.657059
0.646182
0.634911
0.623346
0.61157
0.59966
0.587681
0.575689
0.563731
0.55185
0.540085
0.528452
0.516951
0.505746
0.733282
0.722517
0.716434
0.711473
0.706542
0.701236
0.695189
0.688238
0.680365
0.671635
0.662154
0.65204
0.641412
0.630378
0.619037
0.607474
0.595766
0.583979
0.572168
0.560383
0.548666
0.537058
0.525571
0.514198
0.503147
0.724672
0.714027
0.708095
0.703351
0.698693
0.693699
0.687982
0.681366
0.673824
0.665415
0.656241
0.646421
0.636071
0.625302
0.614212
0.602889
0.591407
0.579834
0.568227
0.556635
0.545102
0.533669
0.522346
0.511116
0.500237
0.715158
0.704646
0.698881
0.694375
0.690019
0.685368