/*--------------------------------*- C++ -*----------------------------------*\
  =========                 |
  \\      /  F ield         | OpenFOAM: The Open Source CFD Toolbox
   \\    /   O peration     | Website:  https://openfoam.org
    \\  /    A nd           | Version:  7
     \\/     M anipulation  |
\*---------------------------------------------------------------------------*/
FoamFile
{
    version     2.0;
    format      ascii;
    class       volVectorField;
    location    "65";
    object      U;
}
// * * * * * * * * * * * * * * * * * * * * * * * * * * * * * * * * * * * * * //

dimensions      [0 1 -1 0 0 0 0];

internalField   nonuniform List<vector> 
21350
(
(-0.00617001 0.00404109 6.53263e-20)
(-0.00585316 0.00372193 -2.19524e-19)
(-0.0104262 0.0081662 9.1611e-20)
(-0.00547311 0.00338523 1.67525e-19)
(-0.00889315 0.00722472 -1.74991e-19)
(-0.00470352 0.00961613 6.98999e-20)
(-0.0050253 0.00303218 1.49911e-20)
(-0.00715161 0.00625127 8.9243e-20)
(-0.00124354 0.00820604 7.8379e-20)
(0.012482 0.0091726 1.39026e-19)
(-0.00450514 0.00266425 -9.99675e-20)
(-0.00518943 0.00525107 1.12526e-19)
(0.00258974 0.00677894 -1.48846e-19)
(0.0185805 0.00749706 -4.99207e-20)
(0.0427127 0.00789965 1.17003e-19)
(-0.00390799 0.00228321 2.28587e-19)
(-0.00299467 0.00423014 -1.48734e-19)
(0.00681352 0.00534564 6.73754e-20)
(0.0252276 0.00584759 5.03374e-20)
(0.0521497 0.00623314 -1.84195e-19)
(0.0874762 0.00696446 6.60546e-20)
(-0.00322927 0.0018911 -9.96172e-20)
(-0.000555665 0.00319527 -5.19028e-20)
(0.0114442 0.00391815 1.85041e-19)
(0.0324421 0.00424159 -2.36647e-19)
(0.0623077 0.00466322 1.12871e-19)
(0.100895 0.00564517 3.09851e-20)
(0.147996 0.00757283 3.46322e-20)
(-0.00246443 0.00149024 -8.16917e-20)
(0.0021389 0.00215405 1.31796e-19)
(0.0164973 0.00250968 -6.07569e-21)
(0.0402408 0.00269793 3.48388e-20)
(0.0732018 0.00321407 -1.06954e-19)
(0.115184 0.00451723 5.63294e-20)
(0.165911 0.00698309 6.08681e-20)
(0.224985 0.0109236 8.22846e-21)
(0.29183 0.0165741 -1.25695e-19)
(-0.00160899 0.00108329 -2.43275e-20)
(0.00509984 0.0011149 2.20369e-20)
(0.0219872 0.00113456 -1.7034e-19)
(0.0486385 0.00123676 9.62442e-20)
(0.0848434 0.00191124 4.56827e-20)
(0.130348 0.00361059 -8.58392e-20)
(0.184794 0.00669646 6.09237e-21)
(0.247679 0.0114596 -4.77443e-20)
(0.318292 0.0181044 2.15876e-19)
(0.395664 0.0267324 1.61314e-20)
(-0.000658591 0.000673183 2.68924e-20)
(0.0083374 8.70097e-05 6.31001e-20)
(0.0279268 -0.000191742 1.68515e-19)
(0.0576477 -0.000120491 3.14577e-20)
(0.0972405 0.000781429 8.53051e-20)
(0.146384 0.00295606 1.10352e-19)
(0.20463 0.00674607 -1.45816e-19)
(0.271353 0.012415 -5.13451e-20)
(0.345695 0.0201294 3.84192e-21)
(0.42651 0.0299407 -7.1447e-20)
(0.512343 0.0417712 1.19195e-19)
(0.000390967 0.000263176 -4.35262e-21)
(0.0118611 -0.000919627 -1.82399e-20)
(0.0343277 -0.00145272 3.60237e-20)
(0.0672782 -0.00135125 -2.09921e-19)
(0.110397 -0.00014767 7.50371e-20)
(0.163287 0.00258502 -5.05815e-20)
(0.225394 0.00716491 -2.34222e-21)
(0.29596 0.0138217 -6.35315e-20)
(0.373964 0.0226766 7.21167e-20)
(0.458074 0.033723 5.6994e-20)
(0.546635 0.0468139 7.77741e-20)
(0.637695 0.0616576 -5.05102e-20)
(0.729077 0.0778266 2.14756e-20)
(0.00154368 -0.000143169 1.35989e-19)
(0.0156795 -0.00189427 -1.06688e-19)
(0.0411995 -0.00263084 3.82476e-20)
(0.0775371 -0.00243195 9.73374e-20)
(0.124313 -0.000847587 -8.40644e-20)
(0.181043 0.0025291 5.83953e-20)
(0.247056 0.00798545 3.78021e-20)
(0.321447 0.0157101 -8.73003e-20)
(0.403019 0.0257709 2.17415e-20)
(0.490242 0.0380952 -1.43324e-20)
(0.581264 0.0524597 -1.49581e-19)
(0.673948 0.068491 -2.52268e-20)
(0.765975 0.0856824 1.45649e-19)
(0.854988 0.103427 2.08868e-20)
(0.938761 0.121067 3.93593e-20)
(0.00280329 -0.000541983 -2.6556e-20)
(0.0198004 -0.00282543 8.23279e-20)
(0.0485502 -0.00370769 -8.25996e-21)
(0.0884281 -0.00333814 -5.01145e-20)
(0.138984 -0.0012893 8.35308e-21)
(0.199634 0.0028199 -1.192e-19)
(0.269578 0.00923924 -8.84497e-20)
(0.347751 0.0181086 7.78028e-20)
(0.432767 0.0294341 -1.24799e-20)
(0.522895 0.0430691 7.48873e-20)
(0.616082 0.0587076 -7.21894e-20)
(0.710022 0.0758914 1.15631e-19)
(0.802279 0.0940352 -9.00508e-20)
(0.890454 0.112469 2.20481e-20)
(0.972365 0.130499 -1.14529e-19)
(1.04623 0.147463 4.52844e-20)
(0.00417324 -0.000929093 -6.9238e-20)
(0.0242304 -0.00370094 6.87396e-20)
(0.0563853 -0.004664 -9.25127e-20)
(0.0999517 -0.00404468 -5.75613e-20)
(0.154399 -0.00144346 -2.04477e-19)
(0.219035 0.00348868 -2.49057e-20)
(0.292916 0.0109566 6.64011e-20)
(0.374802 0.0210431 9.07838e-20)
(0.46311 0.0336842 -9.44424e-20)
(0.555905 0.0486517 5.91756e-20)
(0.650939 0.0655516 4.18475e-20)
(0.745754 0.0838389 -7.49519e-20)
(0.837824 0.102852 -5.02784e-20)
(0.924744 0.121868 -3.69253e-20)
(1.00442 0.140163 1.64632e-19)
(1.07524 0.157082 -4.96264e-20)
(1.13617 0.172097 -8.38014e-20)
(1.18682 0.184843 2.76499e-20)
(0.00565664 -0.00130004 8.00701e-20)
(0.0289746 -0.00450797 -6.70184e-20)
(0.0647081 -0.0054798 7.00345e-20)
(0.112105 -0.00452589 1.42131e-19)
(0.170545 -0.00128067 6.36059e-20)
(0.239214 0.004566 5.99618e-20)
(0.317015 0.0131661 7.19397e-20)
(0.402521 0.0245368 7.6036e-20)
(0.493943 0.0385356 4.89598e-20)
(0.589141 0.0548458 -5.72934e-20)
(0.685686 0.0729811 -3.80394e-20)
(0.780985 0.0923096 5.23327e-20)
(0.872456 0.112099 5.79626e-20)
(0.957728 0.13158 8.99709e-20)
(1.03483 0.150015 -1.54285e-20)
(1.10235 0.166767 1.58562e-19)
(1.15951 0.181353 2.72812e-20)
(1.20619 0.193473 -1.21924e-19)
(1.24285 0.203015 -1.24521e-19)
(1.2704 0.210037 -1.212e-19)
(0.00725616 -0.00165007 -7.35321e-20)
(0.0340371 -0.00523312 -2.89912e-20)
(0.0735194 -0.00613449 1.56075e-19)
(0.12488 -0.00475574 4.27357e-20)
(0.187402 -0.000771721 -5.78113e-21)
(0.260136 0.00608144 5.14226e-20)
(0.341817 0.0158944 3.56421e-20)
(0.430822 0.02861 -1.64171e-19)
(0.525155 0.0439989 1.04404e-21)
(0.622471 0.0616496 7.40717e-20)
(0.720172 0.0809809 -4.43263e-20)
(0.815562 0.101276 -1.68528e-20)
(0.906036 0.121738 3.61889e-20)
(0.989292 0.141563 -8.68751e-20)
(1.06352 0.160013 6.88039e-20)
(1.12754 0.176481 -1.1482e-19)
(1.18084 0.190541 1.06035e-19)
(1.22357 0.201965 4.2487e-20)
(1.25642 0.210717 -6.70731e-21)
(1.28049 0.216926 7.43121e-20)
(1.29712 0.220838 1.15259e-19)
(1.30773 0.222778 -5.55572e-20)
(0.00897404 -0.00197418 -4.08666e-21)
(0.0394203 -0.00586245 8.07457e-20)
(0.0828173 -0.00660704 -7.37995e-21)
(0.138267 -0.0047081 -1.03277e-19)
(0.204944 0.000112113 1.96404e-19)
(0.281755 0.00806323 5.77188e-20)
(0.367254 0.0191658 -9.81574e-20)
(0.459616 0.0332795 4.36067e-20)
(0.55663 0.0500803 -1.3547e-19)
(0.655758 0.0690569 -9.30636e-21)
(0.754254 0.0895318 4.13188e-20)
(0.849344 0.110707 4.14419e-21)
(0.938438 0.131731 9.49638e-21)
(1.01934 0.151777 1.47059e-19)
(1.09045 0.170117 1.42612e-20)
(1.15082 0.186191 3.82622e-21)
(1.20022 0.199638 -6.12292e-20)
(1.23905 0.210307 3.73631e-20)
(1.26824 0.218239 1.8699e-20)
(1.28904 0.223629 5.35428e-20)
(1.30288 0.226776 3.03294e-20)
(1.31121 0.228035 8.9521e-20)
(1.31537 0.227755 1.06292e-19)
(1.31653 0.226398 -1.90976e-20)
(0.010812 -0.00226711 -9.94673e-20)
(0.045125 -0.00638159 -1.13217e-19)
(0.0925972 -0.00687606 3.23242e-20)
(0.152251 -0.00435687 -3.1775e-20)
(0.223143 0.00139881 -1.60345e-19)
(0.304023 0.010538 -1.18197e-19)
(0.393255 0.0230021 1.8296e-19)
(0.488804 0.0385586 -1.00978e-19)
(0.588249 0.056782 9.34255e-20)
(0.688869 0.0770571 9.6817e-20)
(0.787791 0.098611 -1.78166e-19)
(0.882199 0.120571 8.3783e-20)
(0.969554 0.142039 5.06078e-20)
(1.04781 0.16218 -6.37795e-20)
(1.11558 0.180292 -1.71997e-19)
(1.17219 0.195871 -1.0431e-19)
(1.21769 0.208628 9.88288e-20)
(1.25273 0.218494 -2.2878e-21)
(1.27843 0.225586 3.31635e-21)
(1.29617 0.23016 -8.99981e-20)
(1.30746 0.23256 -4.83566e-20)
(1.31374 0.233167 -1.7317e-19)
(1.31633 0.232342 -9.20243e-20)
(1.31633 0.230528 -1.14143e-20)
(1.31442 0.227396 -5.23455e-20)
(0.0127712 -0.00252341 6.98927e-20)
(0.0511503 -0.0067758 7.8768e-20)
(0.102851 -0.00692001 -4.7247e-20)
(0.166813 -0.0036763 1.14073e-19)
(0.241962 0.00311534 7.34706e-20)
(0.326884 0.0135305 -4.5247e-20)
(0.419742 0.027422 -7.65839e-20)
(0.518287 0.044457 5.07801e-20)
(0.619893 0.0641021 1.86223e-20)
(0.721671 0.0856359 -6.65489e-20)
(0.820652 0.108193 5.36637e-20)
(0.914009 0.130832 8.88501e-20)
(0.999293 0.152623 -1.05923e-19)
(1.07464 0.172735 -1.22979e-20)
(1.13891 0.190506 2.67697e-20)
(1.19171 0.205496 4.64648e-20)
(1.23335 0.217498 4.34313e-21)
(1.26472 0.226525 -7.62466e-20)
(1.28711 0.232765 -8.84328e-20)
(1.30202 0.236533 1.07198e-19)
(1.31098 0.23821 6.95862e-20)
(1.31544 0.238195 9.20225e-20)
(1.31666 0.236857 -3.11266e-20)
(1.31566 0.234614 2.90835e-21)
(1.31305 0.23118 -8.73552e-21)
(0.0148523 -0.00273742 -3.38369e-20)
(0.0574934 -0.00703012 -2.25565e-20)
(0.113569 -0.00671735 -2.21063e-20)
(0.181929 -0.00264114 -3.31506e-20)
(0.261363 0.00528735 -1.16276e-19)
(0.350277 0.017063 2.28804e-20)
(0.446631 0.0324413 -3.40399e-20)
(0.54796 0.0509805 7.31128e-20)
(0.651441 0.0720346 -1.00696e-19)
(0.754038 0.0947752 -1.02232e-19)
(0.852714 0.118248 9.71587e-20)
(0.944667 0.141456 -6.96237e-20)
(1.02758 0.163447 -4.50207e-20)
(1.0998 0.183407 9.60926e-20)
(1.16044 0.20073 1.75575e-20)
(1.20941 0.215048 1.19752e-19)
(1.24726 0.226241 -6.37341e-20)
(1.27512 0.234401 5.79819e-20)
(1.29441 0.239787 4.86245e-20)
(1.3067 0.242763 5.81921e-20)
(1.31357 0.243743 -1.27306e-21)
(1.31641 0.243137 2.59403e-20)
(1.31643 0.241315 4.60529e-20)
(1.31456 0.238671 4.31133e-20)
(1.31136 0.234953 5.83424e-20)
(0.017055 -0.00290332 8.57251e-20)
(0.0641498 -0.0071294 5.114e-22)
(0.124737 -0.00624672 8.11666e-20)
(0.197572 -0.00122693 -2.29246e-20)
(0.281299 0.00793894 5.00157e-20)
(0.374137 0.0211558 -7.20067e-20)
(0.473836 0.0380724 -5.34383e-20)
(0.577717 0.0581313 -5.51942e-20)
(0.682773 0.0805697 1.01101e-20)
(0.785847 0.104454 -4.4287e-20)
(0.883862 0.128748 -1.00988e-20)
(0.974084 0.152406 7.86849e-20)
(1.05436 0.174472 5.76109e-20)
(1.12326 0.194165 -8.41777e-20)
(1.1802 0.21094 -9.00503e-20)
(1.22535 0.224513 -1.85678e-20)
(1.25953 0.234851 3.61585e-20)
(1.28404 0.242127 7.2899e-20)
(1.30043 0.246662 -2.25802e-20)
(1.31034 0.248867 -7.91277e-20)
(1.31531 0.249177 -1.12917e-19)
(1.31673 0.24801 2.09578e-20)
(1.3157 0.245731 2.54959e-22)
(1.3131 0.242709 -3.99639e-20)
(1.3094 0.238725 -7.0069e-20)
(0.0193788 -0.00301521 -1.50321e-20)
(0.0711127 -0.00705848 -1.56895e-20)
(0.136338 -0.00548711 -2.19481e-20)
(0.213711 0.000589802 5.62557e-20)
(0.301721 0.0110924 3.19083e-20)
(0.398395 0.0258261 2.77965e-20)
(0.501267 0.0443244 4.58725e-20)
(0.607451 0.0659076 -4.07173e-20)
(0.713774 0.0896941 5.82458e-20)
(0.816981 0.114647 5.50378e-20)
(0.913994 0.139658 6.51215e-20)
(1.00218 0.163647 -6.20181e-20)
(1.07958 0.185665 2.50216e-20)
(1.14503 0.204978 8.69438e-21)
(1.19823 0.221114 1.11007e-19)
(1.23962 0.23388 -8.37369e-20)
(1.27025 0.243329 -4.36392e-20)
(1.29159 0.24971 6.33833e-21)
(1.3053 0.253404 8.02063e-20)
(1.31303 0.254859 -1.43416e-20)
(1.31632 0.254527 3.187e-20)
(1.31648 0.252828 -1.78442e-20)
(1.31455 0.250119 -3.01742e-20)
(1.31132 0.246739 -1.36417e-20)
(1.3072 0.242502 5.91755e-20)
(0.0218221 -0.00306709 7.89611e-21)
(0.0783736 -0.0068023 -8.40134e-20)
(0.148351 -0.00441808 -1.66061e-20)
(0.23031 0.00283128 2.0899e-20)
(0.322576 0.0147679 -7.22139e-20)
(0.422976 0.0310884 2.03682e-20)
(0.52883 0.0512027 1.03797e-19)
(0.637056 0.0743039 1.99296e-20)
(0.744331 0.0993909 -1.18317e-20)
(0.847333 0.125329 1.87774e-21)
(0.94302 0.150947 -5.14548e-20)
(1.0289 0.175144 3.23329e-20)
(1.10322 0.196993 3.04249e-20)
(1.16512 0.21582 5.5692e-20)
(1.21457 0.231237 7.81976e-22)
(1.25227 0.243142 6.71453e-20)
(1.27951 0.251675 4.53213e-20)
(1.29788 0.257158 -3.58261e-20)
(1.30911 0.260027 -4.32523e-20)
(1.31487 0.260755 6.51417e-20)
(1.31666 0.25981 5.62974e-20)
(1.31572 0.257605 -1.34761e-20)
(1.31302 0.254488 6.33076e-20)
(1.30925 0.250769 5.25126e-20)
(1.30478 0.246291 -5.6909e-22)
(0.0243828 -0.00305294 -4.27349e-20)
(0.0859219 -0.006346 3.51413e-21)
(0.160755 -0.00301991 2.27209e-20)
(0.24733 0.00551826 -4.50734e-20)
(0.343806 0.0189834 -1.50836e-21)
(0.447803 0.0369541 -3.97363e-20)
(0.556432 0.0587093 4.11041e-21)
(0.666425 0.0833111 -3.6498e-20)
(0.774334 0.10964 -2.92469e-20)
(0.876804 0.136471 1.00557e-19)
(0.97086 0.162581 -2.81894e-20)
(1.05418 0.186862 -7.9523e-20)
(1.12527 0.208426 -6.29361e-21)
(1.18355 0.226669 -3.01549e-20)
(1.22927 0.241295 -2.39207e-20)
(1.26341 0.252294 -4.62366e-20)
(1.28741 0.259893 -3.88257e-20)
(1.30301 0.264483 -8.30516e-20)
(1.31196 0.266542 -1.23785e-20)
(1.31595 0.26657 -3.48279e-20)
(1.31641 0.265038 -9.58123e-20)
(1.31451 0.262353 -2.66903e-20)
(1.31115 0.258848 2.77955e-20)
(1.30693 0.254804 -2.89915e-20)
(1.30216 0.250095 -2.22912e-20)
(0.0270578 -0.00296678 -6.14127e-21)
(0.0937449 -0.00567509 1.10742e-20)
(0.173522 -0.00127382 -1.12443e-20)
(0.26473 0.00866983 1.06292e-19)
(0.36535 0.0237543 -7.34911e-20)
(0.472797 0.0434314 4.4915e-20)
(0.583979 0.0668427 -2.84875e-20)
(0.695455 0.0929169 1.17518e-20)
(0.803682 0.120419 5.55116e-20)
(0.905301 0.148043 -8.45632e-20)
(0.997446 0.174525 -5.29829e-20)
(1.078 0.198769 -4.87626e-20)
(1.14573 0.219937 -3.95789e-20)
(1.20035 0.237505 4.91506e-20)
(1.24241 0.251275 -1.17334e-21)
(1.2731 0.261333 7.78501e-20)
(1.29404 0.267988 -4.5139e-21)
(1.30706 0.271692 -2.87883e-21)
(1.31395 0.272962 1.15383e-19)
(1.31634 0.272315 7.43457e-20)
(1.31563 0.270223 -1.37934e-20)
(1.31291 0.26708 1.70467e-21)
(1.30897 0.263205 2.99525e-20)
(1.30437 0.25885 -2.30249e-20)
(1.29936 0.253917 3.40399e-21)
(0.0298434 -0.00280268 4.7615e-20)
(0.101828 -0.00477556 -2.83621e-20)
(0.186625 0.000837837 -3.77321e-20)
(0.282462 0.0123032 -9.75547e-21)
(0.387142 0.0290933 4.50587e-20)
(0.497877 0.0505254 -2.23614e-20)
(0.611374 0.0755979 -5.02726e-20)
(0.724046 0.103105 -4.39025e-20)
(0.832278 0.131703 1.20384e-20)
(0.932746 0.160013 -1.6553e-20)
(1.02272 0.186747 3.30184e-20)
(1.10032 0.210834 6.34148e-20)
(1.1646 0.231499 -1.52732e-20)
(1.21557 0.248311 7.6752e-21)
(1.25404 0.261171 -1.60621e-20)
(1.28143 0.270261 -7.15249e-20)
(1.2995 0.275967 4.77869e-20)
(1.31013 0.278797 4.82519e-20)
(1.31514 0.2793 -6.49317e-20)
(1.31612 0.278004 -4.3363e-20)
(1.31438 0.275375 5.13372e-20)
(1.31094 0.271795 -2.46753e-21)
(1.30652 0.267565 1.339e-20)
(1.3016 0.262908 -2.70079e-20)
(1.29638 0.257757 -4.48343e-21)
(0.0327352 -0.00255486 1.0794e-20)
(0.110154 -0.003634 1.8809e-20)
(0.20003 0.00333142 6.3473e-20)
(0.300477 0.0164334 -5.44785e-20)
(0.409117 0.0350106 1.48588e-20)
(0.522958 0.0582376 5.35064e-21)
(0.638526 0.0849662 3.00543e-20)
(0.752102 0.113858 8.30018e-20)
(0.860034 0.143465 -9.97306e-20)
(0.959066 0.172349 4.21362e-21)
(1.04665 0.199214 2.15096e-20)
(1.12114 0.223026 4.606e-20)
(1.1819 0.24309 5.35491e-20)
(1.22925 0.259072 -6.50716e-20)
(1.26424 0.270976 -2.81551e-20)
(1.28848 0.279077 3.74972e-20)
(1.30386 0.283836 -1.22732e-20)
(1.31231 0.285808 2.38778e-20)
(1.31562 0.285567 9.39537e-21)
(1.31533 0.283645 -2.60093e-20)
(1.31269 0.280502 -9.08186e-22)
(1.30864 0.276503 2.23174e-20)
(1.30381 0.27193 -2.00709e-21)
(1.29862 0.266981 2.26017e-20)
(1.29324 0.261616 -1.94024e-20)
(0.0357278 -0.00221769 -3.21055e-20)
(0.118705 -0.00223779 3.43792e-20)
(0.213704 0.0062218 -3.12187e-20)
(0.318724 0.0210733 1.94738e-20)
(0.431206 0.041513 -2.67072e-20)
(0.54796 0.0665664 9.01699e-21)
(0.665341 0.0949359 -1.17767e-20)
(0.77953 0.125153 -6.0245e-20)
(0.886867 0.155676 7.56465e-20)
(0.9842 0.185018 6.50971e-20)
(1.06918 0.211893 -6.00671e-20)
(1.14045 0.235319 2.57911e-21)
(1.19767 0.254688 1.09031e-20)
(1.24144 0.269775 -1.31264e-20)
(1.27307 0.280685 -3.33151e-21)
(1.29433 0.287786 2.48865e-21)
(1.30721 0.291603 2.98996e-20)
(1.31366 0.292734 -4.54917e-20)
(1.31544 0.291771 1.1864e-20)
(1.31403 0.289248 9.06587e-21)
(1.31062 0.285611 -1.23029e-20)
(1.30604 0.28121 -3.76509e-20)
(1.30087 0.276305 1.57922e-20)
(1.29546 0.271068 -3.3067e-20)
(1.28993 0.265493 2.01077e-20)
(0.0388153 -0.00178579 3.84099e-20)
(0.127461 -0.000575159 -6.02942e-20)
(0.22761 0.00952221 2.17265e-20)
(0.337149 0.0262334 6.35279e-21)
(0.453338 0.0486047 -1.83908e-20)
(0.572797 0.0755068 6.78629e-20)
(0.691731 0.105492 3.10319e-21)
(0.806245 0.136967 4.33219e-20)
(0.912705 0.168304 -1.41533e-20)
(1.0081 0.197988 -3.80876e-20)
(1.09031 0.224753 -1.13358e-20)
(1.15826 0.247685 -1.92921e-20)
(1.21194 0.266277 -3.97364e-20)
(1.25221 0.28041 1.27005e-20)
(1.28061 0.290297 3.05972e-20)
(1.29907 0.296389 1.49888e-20)
(1.30963 0.299274 -1.48535e-22)
(1.31425 0.299583 4.22114e-20)
(1.31466 0.297922 -8.15938e-21)
(1.31228 0.294819 1.96975e-20)
(1.30819 0.290708 -5.16713e-21)
(1.30316 0.285917 2.26072e-21)
(1.29771 0.280688 -3.68919e-20)
(1.29211 0.27517 1.18968e-20)
(1.28647 0.269385 -3.83566e-21)
(0.0419909 -0.00125408 -1.7369e-20)
(0.136398 0.00136463 8.37442e-21)
(0.241708 0.0132441 -2.26169e-20)
(0.355696 0.0319216 -2.19527e-20)
(0.475441 0.0562864 3.63468e-20)
(0.597388 0.0850505 -3.5675e-20)
(0.717611 0.116617 -4.58e-21)
(0.832166 0.149272 -2.32125e-20)
(0.937482 0.18132 3.16489e-20)
(1.03071 0.211226 8.37202e-21)
(1.11 0.237764 1.60946e-20)
(1.17459 0.260102 -2.48846e-20)
(1.22475 0.277838 6.4884e-21)
(1.26162 0.290969 -2.99232e-20)
(1.28694 0.299809 -5.86623e-22)
(1.30276 0.304891 -1.49874e-20)
(1.31118 0.306856 -3.07349e-22)
(1.31414 0.306364 -2.55237e-20)
(1.31334 0.304026 2.26834e-20)
(1.31009 0.300365 -4.04165e-21)
(1.30542 0.295795 4.24785e-21)
(1.30002 0.290626 4.82581e-21)
(1.29433 0.28508 1.54684e-20)
(1.28858 0.279284 2.27204e-20)
(1.28285 0.273291 -1.69466e-20)
(0.045247 -0.000617801 -2.17246e-21)
(0.145494 0.0035912 6.47923e-21)
(0.255959 0.0173969 7.7296e-21)
(0.374307 0.0381432 4.64956e-21)
(0.497445 0.064556 -1.49766e-20)
(0.621653 0.095186 1.55967e-20)
(0.742897 0.128289 3.0006e-21)
(0.857219 0.162042 2.40113e-20)
(0.961141 0.19469 -1.0855e-21)
(1.05202 0.224699 -6.69852e-21)
(1.12827 0.250897 1.63205e-20)
(1.18945 0.272545 1.17903e-20)
(1.23613 0.289358 7.71365e-22)
(1.26971 0.301445 7.2949e-21)
(1.29211 0.309222 9.8749e-21)
(1.30547 0.313295 -2.51361e-21)
(1.31192 0.314354 2.63925e-20)
(1.3134 0.313082 9.36998e-21)
(1.31151 0.31009 5.66768e-21)
(1.30752 0.305889 -1.48222e-20)
(1.30235 0.300874 4.23642e-21)
(1.29664 0.295337 -1.32438e-20)
(1.29075 0.289479 -1.28963e-20)
(1.28489 0.283408 -6.10623e-21)
(1.27908 0.277206 -5.28236e-21)
(0.0485755 0.000127424 -1.31671e-21)
(0.154722 0.00611294 2.14301e-21)
(0.270319 0.0219882 3.40007e-21)
(0.392923 0.0449006 9.28076e-21)
(0.519276 0.0734082 5.76097e-21)
(0.645511 0.105899 5.48374e-21)
(0.767512 0.140486 -1.92513e-20)
(0.881335 0.175246 -2.3969e-20)
(0.983631 0.208382 -6.6885e-21)
(1.07199 0.238376 -6.84552e-21)
(1.14511 0.264124 -5.14473e-21)
(1.20287 0.284995 4.44052e-21)
(1.24615 0.300822 5.70563e-22)
(1.27656 0.311831 -9.49806e-21)
(1.29619 0.318533 -8.88494e-21)
(1.30726 0.321605 -6.99814e-21)
(1.31192 0.321775 -2.29268e-20)
(1.31206 0.319743 -7.84887e-21)
(1.30922 0.316117 -1.17082e-20)
(1.30458 0.311393 1.07691e-20)
(1.29899 0.305947 4.85844e-21)
(1.29301 0.30005 3.21345e-21)
(1.28697 0.293884 -9.57109e-22)
(1.28102 0.287538 -5.16414e-22)
(1.27515 0.281127 -5.49513e-22)
(0.0519676 0.000985524 -1.57148e-21)
(0.164057 0.00893691 2.79057e-21)
(0.284744 0.0270233 -2.74703e-21)
(0.411484 0.0521937 -6.65851e-21)
(0.540864 0.0828346 1.3137e-21)
(0.668888 0.117171 -9.76301e-21)
(0.791383 0.153181 7.99212e-21)
(0.904454 0.188853 4.06692e-21)
(1.00491 0.222361 4.1482e-21)
(1.0906 0.252224 6.38278e-21)
(1.16053 0.27742 5.02916e-21)
(1.21489 0.297432 4.6836e-21)
(1.25484 0.312219 2.60125e-21)
(1.28222 0.322122 4.41148e-21)
(1.29925 0.327744 5.44304e-22)
(1.30821 0.329823 -7.59855e-21)
(1.31124 0.329123 5.84301e-21)
(1.31017 0.326351 -1.79959e-21)
(1.30649 0.322111 -1.55781e-21)
(1.30129 0.316879 2.04403e-21)
(1.29536 0.311013 -1.64729e-21)
(1.28917 0.304762 -5.15863e-21)
(1.283 0.298291 5.5505e-21)
(1.27698 0.291672 -3.3138e-23)
(1.27107 0.285049 2.17024e-21)
(0.055414 0.00195996 -1.88382e-21)
(0.173471 0.0120688 3.41142e-21)
(0.29919 0.0325052 -4.89382e-21)
(0.429931 0.0600193 -6.0541e-21)
(0.56214 0.0928238 4.95582e-22)
(0.691709 0.128983 -7.28001e-21)
(0.814441 0.166346 6.22673e-21)
(0.926521 0.20283 6.966e-21)
(1.02495 0.236596 2.23207e-21)
(1.10784 0.266213 4.81035e-21)
(1.17454 0.290758 6.7978e-21)
(1.22554 0.309838 4.66262e-21)
(1.26226 0.323539 1.38443e-21)
(1.28676 0.332314 3.86683e-21)
(1.30134 0.336854 1.18408e-21)
(1.30835 0.337952 -7.83257e-21)
(1.3099 0.3364 6.26409e-21)
(1.30777 0.33291 -1.28364e-21)
(1.30336 0.328073 -2.39158e-21)
(1.29769 0.322348 2.21234e-21)
(1.29146 0.31607 -7.54468e-22)
(1.2851 0.309471 -5.03694e-21)
(1.27884 0.302695 4.82152e-21)
(1.27277 0.295804 7.19727e-22)
(1.26684 0.288968 1.02505e-21)
(0.058905 0.00305371 6.05418e-21)
(0.182934 0.0155127 -1.72767e-23)
(0.31361 0.0384348 -3.11667e-22)
(0.448205 0.0683717 2.71806e-21)
(0.583034 0.103361 -2.04849e-22)
(0.713905 0.141311 9.43907e-21)
(0.836623 0.179953 -1.78545e-20)
(0.947487 0.217143 -1.82173e-20)
(1.04372 0.251051 -1.27978e-20)
(1.12372 0.280313 -7.70474e-21)
(1.18716 0.304115 -6.25596e-21)
(1.23485 0.322196 6.8653e-21)
(1.26846 0.334771 -9.01819e-23)
(1.29022 0.342402 -6.64165e-21)
(1.30253 0.345863 -3.43451e-21)
(1.30775 0.345994 -1.23886e-20)
(1.30797 0.34361 -1.79052e-20)
(1.30489 0.33942 -6.59088e-21)
(1.29984 0.334002 -8.3324e-21)
(1.29377 0.327796 4.08934e-21)
(1.2873 0.321116 2.84989e-21)
(1.28082 0.314173 2.87494e-21)
(1.27449 0.307094 8.32745e-22)
(1.26839 0.29993 8.84654e-22)
(1.26245 0.292879 -3.98908e-22)
(0.0624298 0.00426916 -1.18162e-20)
(0.192418 0.0192713 1.9264e-20)
(0.327957 0.0448106 7.66417e-21)
(0.466244 0.0772422 -7.23988e-21)
(0.60348 0.11443 7.30438e-21)
(0.73541 0.15413 2.6692e-21)
(0.857873 0.193969 8.99179e-21)
(0.967313 0.231759 2.35266e-20)
(1.06119 0.265694 1.65345e-21)
(1.13823 0.294494 -8.62935e-21)
(1.19842 0.317468 7.40849e-21)
(1.24287 0.33449 7.95039e-21)
(1.27349 0.345905 9.87489e-21)
(1.29266 0.352383 5.523e-21)
(1.30286 0.35477 1.02164e-20)
(1.30645 0.353951 -1.67216e-21)
(1.30547 0.350753 1.50715e-20)
(1.30156 0.345882 1.0718e-20)
(1.29597 0.339899 1.41757e-20)
(1.28956 0.333223 -1.3621e-20)
(1.28291 0.326146 -8.05614e-21)
(1.27632 0.318862 -5.18238e-21)
(1.26996 0.311481 -7.37681e-21)
(1.26385 0.304044 -1.84498e-21)
(1.2579 0.296775 -5.13824e-21)
(0.0659775 0.00560809 -5.31862e-21)
(0.201891 0.0233455 -1.36824e-21)
(0.342186 0.0516286 -1.34842e-20)
(0.483992 0.0866194 -2.60202e-20)
(0.623413 0.12601 4.35872e-20)
(0.756161 0.167413 -3.86025e-20)
(0.878137 0.208361 -2.50341e-20)
(0.985961 0.246641 -1.63566e-20)
(1.07736 0.280492 2.5626e-20)
(1.15139 0.308729 3.32365e-20)
(1.20835 0.330794 8.02542e-21)
(1.24964 0.346705 -1.60701e-20)
(1.2774 0.356934 -1.86485e-20)
(1.29413 0.362252 5.22128e-21)
(1.30238 0.363574 -2.48891e-20)
(1.30448 0.361821 4.11002e-21)
(1.30244 0.357829 -1.74424e-20)
(1.29781 0.352295 -1.38608e-20)
(1.29175 0.345762 1.91644e-20)
(1.28507 0.338625 -1.11859e-20)
(1.27827 0.331157 1.45359e-20)
(1.27162 0.323535 8.50785e-22)
(1.26524 0.31585 1.93192e-20)
(1.25913 0.30814 3.58649e-22)
(1.2532 0.300652 2.74917e-21)
(0.069537 0.0070717 3.3593e-20)
(0.211323 0.0277346 -5.1271e-20)
(0.356249 0.0588825 7.45145e-21)
(0.501389 0.096489 4.68546e-20)
(0.642772 0.138078 -3.59749e-20)
(0.7761 0.181128 7.10726e-20)
(0.89737 0.223094 2.2953e-20)
(1.0034 0.261756 3.36976e-20)
(1.09222 0.295411 -2.81228e-20)
(1.16319 0.322989 -2.89189e-20)
(1.21697 0.344073 -2.05895e-20)
(1.25521 0.358827 -1.11608e-20)
(1.28024 0.367848 -2.09743e-20)
(1.29469 0.372005 -8.95243e-21)
(1.30113 0.372274 3.62107e-20)
(1.3019 0.369605 1.17045e-21)
(1.2989 0.364837 8.07177e-21)
(1.29365 0.358657 4.2383e-20)
(1.2872 0.351585 -2.37435e-20)
(1.2803 0.343997 1.64538e-20)
(1.2734 0.336143 -1.05033e-20)
(1.26671 0.328184 1.52342e-21)
(1.26033 0.320197 -1.84871e-20)
(1.25425 0.312213 1.04965e-20)
(1.24834 0.304504 -4.06131e-21)
(0.0730969 0.0086605 -1.65022e-20)
(0.220682 0.0324363 -2.45697e-20)
(0.3701 0.0665637 1.12812e-20)
(0.518381 0.106834 3.22022e-20)
(0.661499 0.15061 -2.67609e-20)
(0.795174 0.195245 -3.96021e-20)
(0.91553 0.238134 -2.24101e-22)
(1.01962 0.277066 -4.62828e-20)
(1.10576 0.310418 5.61524e-20)
(1.17367 0.337247 6.51775e-20)
(1.22431 0.357285 -3.24013e-20)
(1.2596 0.370841 -1.26444e-21)
(1.28205 0.378639 -1.77211e-21)
(1.29437 0.381638 3.30461e-20)
(1.29917 0.380867 -2.78741e-20)
(1.29872 0.3773 2.8109e-21)
(1.2949 0.371776 -6.77715e-21)
(1.2891 0.364965 -1.82715e-20)
(1.28234 0.357367 9.66142e-21)
(1.27527 0.349334 -2.56428e-21)
(1.26829 0.341099 -1.3885e-20)
(1.2616 0.332804 -1.82913e-20)
(1.25524 0.324514 1.02394e-20)
(1.2492 0.316256 -2.04247e-20)
(1.24331 0.308323 2.10604e-20)
(0.0766453 0.0103744 -1.78681e-20)
(0.229938 0.0374465 2.11064e-20)
(0.383694 0.0746614 5.43666e-20)
(0.534913 0.117636 -9.52652e-20)
(0.679537 0.163577 5.33851e-20)
(0.813334 0.20973 1.20715e-20)
(0.932582 0.253443 3.92715e-20)
(1.03459 0.292537 8.32324e-20)
(1.11799 0.325483 -9.32896e-20)
(1.18284 0.351478 -1.19617e-20)
(1.23041 0.37041 7.67569e-20)
(1.26287 0.382736 -4.59074e-20)
(1.28288 0.3893 6.25857e-20)
(1.29323 0.391145 -3.47942e-20)
(1.29652 0.38935 2.40447e-21)
(1.29499 0.384904 1.22158e-20)
(1.29044 0.378641 -9.03026e-22)
(1.28419 0.371215 1.04538e-20)
(1.27716 0.363101 -1.2382e-20)
(1.26997 0.354631 -1.50589e-20)
(1.26295 0.346017 1.57186e-20)
(1.25628 0.337388 1.1392e-20)
(1.24996 0.328794 -2.15302e-20)
(1.24397 0.320262 1.49366e-20)
(1.23813 0.312104 -1.51486e-22)
(0.0801705 0.0122126 2.67967e-20)
(0.23906 0.0427595 -4.33943e-20)
(0.396985 0.0831622 -4.12881e-20)
(0.550933 0.128873 1.60124e-20)
(0.696836 0.176952 1.27721e-20)
(0.830537 0.224548 -4.21247e-20)
(0.948495 0.268985 -9.93673e-21)
(1.04829 0.308132 -9.28935e-20)
(1.12891 0.340573 3.37978e-20)
(1.19072 0.365655 4.28423e-20)
(1.23531 0.383428 2.31763e-20)
(1.26506 0.394497 3.49549e-20)
(1.28277 0.399821 -1.12042e-20)
(1.2913 0.400522 1.01654e-20)
(1.29322 0.397719 -2.8344e-20)
(1.29074 0.392413 -5.3326e-20)
(1.28555 0.38543 3.29714e-20)
(1.27891 0.377401 3.52617e-20)
(1.27169 0.368782 -4.91822e-20)
(1.26441 0.35988 -1.71505e-20)
(1.25739 0.35089 2.52655e-20)
(1.25075 0.341929 5.28216e-21)
(1.2445 0.333031 7.74626e-21)
(1.23857 0.324224 -3.00822e-20)
(1.23279 0.315839 1.73702e-20)
(0.0836604 0.0141737 8.24739e-21)
(0.248017 0.048368 1.1874e-21)
(0.409931 0.0920508 2.90129e-20)
(0.566392 0.14052 6.88951e-20)
(0.713347 0.190701 -2.88969e-20)
(0.846741 0.239663 -2.69899e-20)
(0.963245 0.284722 -1.23195e-20)
(1.06073 0.323816 7.54736e-20)
(1.13853 0.355657 4.17487e-20)
(1.19734 0.379754 -1.6224e-19)
(1.23903 0.396322 -3.61887e-21)
(1.2662 0.406112 -7.09706e-20)
(1.28177 0.410194 1.21264e-20)
(1.28861 0.409762 3.0707e-20)
(1.2893 0.405969 -2.21941e-22)
(1.28597 0.399823 5.74524e-20)
(1.28024 0.392136 1.56138e-21)
(1.2733 0.383519 -1.97252e-20)
(1.26592 0.374403 6.87468e-20)
(1.2586 0.365075 4.81937e-20)
(1.2516 0.355712 9.58754e-21)
(1.24502 0.346419 1.25011e-20)
(1.23885 0.337217 -1.91691e-20)
(1.233 0.328135 5.90899e-21)
(1.22729 0.319523 -8.09311e-21)
(0.0871033 0.0162554 -5.76447e-20)
(0.256778 0.0542629 5.28402e-20)
(0.422489 0.10131 2.4936e-20)
(0.581243 0.152552 -6.78245e-20)
(0.729025 0.204793 -3.48488e-20)
(0.861913 0.255037 4.6652e-20)
(0.976811 0.300615 -7.24421e-20)
(1.07191 0.339553 -1.5165e-21)
(1.14686 0.370705 1.65261e-20)
(1.20273 0.393751 2.65646e-20)
(1.24163 0.409074 -3.9422e-20)
(1.26634 0.417568 3.19386e-21)
(1.27991 0.42041 -3.86742e-20)
(1.28521 0.418859 -3.83072e-20)
(1.2848 0.414095 -2.04622e-21)
(1.28072 0.407127 -4.54902e-20)
(1.27454 0.398753 -7.04656e-20)
(1.26735 0.38956 3.77383e-21)
(1.25987 0.379956 -5.87782e-20)
(1.25254 0.370207 -1.99626e-20)
(1.24558 0.360475 -4.59957e-20)
(1.23908 0.35085 -1.11724e-21)
(1.23301 0.341344 4.35585e-21)
(1.22726 0.331988 1.46852e-20)
(1.22163 0.323147 -2.31103e-20)
(0.0904871 0.0184552 -2.32722e-20)
(0.265315 0.0604336 -5.4664e-20)
(0.434619 0.110919 -1.45758e-20)
(0.595441 0.16494 -1.83516e-20)
(0.743831 0.219192 1.03761e-20)
(0.876023 0.270633 4.64915e-22)
(0.989178 0.316627 3.54122e-20)
(1.08181 0.355308 1.90002e-20)
(1.15393 0.385687 2.60099e-20)
(1.20691 0.407621 1.81625e-21)
(1.24312 0.421665 -3.87714e-20)
(1.26552 0.428853 7.61221e-21)
(1.27722 0.430461 4.95957e-20)
(1.28113 0.427806 4.7462e-20)
(1.27973 0.42209 -1.24958e-21)
(1.27501 0.41432 3.3951e-20)
(1.26845 0.405275 6.8407e-20)
(1.26107 0.395518 -6.10701e-20)
(1.25353 0.385434 -7.93944e-21)
(1.24622 0.375268 2.78173e-20)
(1.23934 0.365169 1.86148e-20)
(1.23294 0.355214 -3.96674e-21)
(1.22698 0.345404 2.97352e-20)
(1.22134 0.335775 2.36204e-20)
(1.21581 0.326705 -6.11068e-22)
(0.0938003 0.0207694 1.587e-20)
(0.273598 0.066868 3.03831e-20)
(0.446281 0.120859 -1.40275e-19)
(0.608946 0.177656 4.88355e-20)
(0.757727 0.233862 8.67783e-20)
(0.889044 0.28641 -3.50691e-20)
(1.00033 0.332719 8.65387e-20)
(1.09045 0.371046 -2.85413e-20)
(1.15975 0.400573 3.86045e-20)
(1.20991 0.421343 7.856e-20)
(1.24355 0.43408 1.66398e-20)
(1.26378 0.439954 -8.65107e-21)
(1.27376 0.440337 2.69207e-20)
(1.27639 0.436595 3.05807e-20)
(1.27412 0.429948 3.92251e-20)
(1.26886 0.421395 -7.78713e-20)
(1.26199 0.411694 -3.57844e-20)
(1.25448 0.401385 4.11331e-20)
(1.24692 0.390828 3.84737e-20)
(1.23966 0.380251 -2.15681e-20)
(1.23288 0.369786 2.65881e-20)
(1.2266 0.359502 2.94067e-22)
(1.22076 0.34939 -2.38835e-20)
(1.21525 0.339489 -3.94199e-22)
(1.20982 0.33019 1.78787e-20)
(0.0970312 0.0231939 2.35722e-20)
(0.2816 0.0735525 7.92737e-20)
(0.457441 0.131104 4.39293e-20)
(0.621719 0.190666 8.22735e-21)
(0.770682 0.248766 4.3648e-20)
(0.900956 0.30233 -3.96456e-20)
(1.01027 0.348852 -5.289e-20)
(1.09783 0.386733 -7.19263e-20)
(1.16434 0.415335 -4.71738e-20)
(1.21177 0.434892 -1.90559e-20)
(1.24295 0.446299 2.1357e-20)
(1.26114 0.450858 4.2789e-20)
(1.26954 0.450027 1.49596e-20)
(1.27103 0.445218 -6.07982e-20)
(1.268 0.437661 -5.10001e-20)
(1.26227 0.428343 3.42628e-20)
(1.25517 0.418002 -3.41959e-21)
(1.24757 0.407152 2.08018e-20)
(1.24003 0.396129 -1.99565e-21)