/*--------------------------------*- C++ -*----------------------------------*\
  =========                 |
  \\      /  F ield         | OpenFOAM: The Open Source CFD Toolbox
   \\    /   O peration     | Website:  https://openfoam.org
    \\  /    A nd           | Version:  7
     \\/     M anipulation  |
\*---------------------------------------------------------------------------*/
FoamFile
{
    version     2.0;
    format      ascii;
    class       volVectorField;
    location    "40";
    object      U;
}
// * * * * * * * * * * * * * * * * * * * * * * * * * * * * * * * * * * * * * //

dimensions      [0 1 -1 0 0 0 0];

internalField   nonuniform List<vector> 
34000
(
(-0.000253643 0.000242775 -8.64375e-22)
(-0.00170687 0.000642462 -4.6473e-21)
(-0.00471611 0.000967746 5.68644e-22)
(-0.00873177 0.0012284 -9.9145e-22)
(-0.0135442 0.00143095 1.51512e-21)
(-0.0189603 0.00158192 -1.11773e-20)
(-0.0247987 0.00168787 1.92243e-21)
(-0.0309061 0.00175527 -7.58127e-21)
(-0.0371533 0.0017905 -1.63248e-20)
(-0.0434348 0.00179989 1.39746e-20)
(-0.0496678 0.00178964 4.16161e-21)
(-0.0557915 0.00176583 -5.00039e-21)
(-0.0617661 0.00173429 6.15013e-21)
(-0.0675719 0.00170059 8.42767e-21)
(-0.0732073 0.00166984 -5.33189e-21)
(-0.0786874 0.00164651 -7.21018e-21)
(-0.0840408 0.00163426 -1.73166e-20)
(-0.0893092 0.00163564 -1.34364e-21)
(-0.0945289 0.00165157 -2.9502e-21)
(-0.09973 0.00168322 -5.85343e-21)
(-0.000272719 0.000751936 -4.22398e-21)
(-0.00175443 0.00197939 3.53174e-21)
(-0.00478203 0.00296872 -4.15262e-21)
(-0.00880809 0.00375196 -9.34519e-21)
(-0.0136239 0.00435121 7.65483e-21)
(-0.0190372 0.00478835 4.65677e-20)
(-0.0248672 0.00508508 -2.87295e-20)
(-0.0309611 0.00526239 4.89021e-21)
(-0.0371904 0.00534072 2.35105e-20)
(-0.0434496 0.0053399 -8.96613e-24)
(-0.0496562 0.00527907 1.39872e-20)
(-0.0557496 0.00517665 -1.85721e-20)
(-0.0616902 0.00505015 1.94837e-20)
(-0.0674583 0.00491595 -1.68062e-20)
(-0.0730525 0.00478897 -6.54374e-21)
(-0.0784881 0.00468215 3.2995e-20)
(-0.0837941 0.00460589 -1.03643e-20)
(-0.089013 0.00456719 1.61186e-21)
(-0.094181 0.00456815 -1.95178e-20)
(-0.099326 0.00461147 -2.11843e-21)
(-0.000311 0.00125796 -3.27074e-20)
(-0.00184989 0.00330843 4.24865e-21)
(-0.00491443 0.00495828 6.52701e-21)
(-0.00896154 0.00626146 2.87119e-20)
(-0.0137844 0.00725545 -3.34734e-20)
(-0.0191922 0.00797734 -5.22131e-20)
(-0.0250056 0.00846377 4.7618e-20)
(-0.031073 0.00875016 -1.30392e-20)
(-0.0372665 0.0088709 -6.56298e-21)
(-0.0434815 0.00885923 -3.32585e-20)
(-0.0496358 0.00874718 9.10706e-21)
(-0.0556692 0.00856546 3.27413e-20)
(-0.0615422 0.00834323 -6.73131e-21)
(-0.0672353 0.00810776 2.69537e-20)
(-0.0727476 0.00788388 -2.22837e-20)
(-0.0780947 0.00769312 -6.77135e-21)
(-0.0833065 0.00755277 5.31312e-20)
(-0.0884271 0.00747441 -3.30719e-21)
(-0.0934928 0.00746145 8.34584e-20)
(-0.0985266 0.00751834 -1.9952e-20)
(-0.000368241 0.00175881 5.35089e-20)
(-0.00199268 0.00462443 -2.39743e-20)
(-0.0051126 0.00692896 -1.66988e-20)
(-0.00919134 0.00874773 -1.27015e-20)
(-0.0140248 0.0101332 2.35427e-20)
(-0.0194246 0.0111375 -4.44125e-21)
(-0.0252134 0.0118118 -7.96048e-20)
(-0.0312412 0.012206 -8.44045e-21)
(-0.0373814 0.012368 -1.75414e-20)
(-0.0435302 0.0123444 -2.7778e-21)
(-0.0496064 0.01218 -3.07751e-20)
(-0.0555499 0.0119179 3.49057e-20)
(-0.0613217 0.0115986 -5.17534e-20)
(-0.0669026 0.0112606 -1.5832e-21)
(-0.0722922 0.0109387 1.41634e-20)
(-0.0775067 0.0106633 -1.10005e-19)
(-0.0825773 0.0104587 -8.87765e-20)
(-0.0875505 0.0103414 4.81628e-20)
(-0.0924627 0.0103164 -6.46717e-20)
(-0.0973301 0.0103901 1.63119e-21)
(-0.000444075 0.00225251 -7.1608e-21)
(-0.00218198 0.00592239 9.471e-20)
(-0.00537548 0.0088735 4.44376e-20)
(-0.00949634 0.0112018 -2.89964e-21)
(-0.0143441 0.0129743 1.19712e-20)
(-0.0197334 0.0142576 1.82945e-21)
(-0.0254896 0.0151174 4.07432e-20)
(-0.0314649 0.0156173 4.83045e-20)
(-0.0375342 0.015819 2.05545e-20)
(-0.0435952 0.015782 7.2843e-20)
(-0.0495674 0.0155639 -8.40072e-20)
(-0.0553913 0.0152196 -1.77518e-20)
(-0.0610284 0.0148016 3.74103e-20)
(-0.0664598 0.0143593 -6.52285e-20)
(-0.0716856 0.0139377 2.97983e-20)
(-0.0767232 0.0135764 6.91679e-20)
(-0.0816053 0.0133074 1.66469e-20)
(-0.0863814 0.0131523 2.38361e-20)
(-0.0910889 0.0131178 -3.82056e-20)
(-0.0957343 0.0132132 4.19587e-21)
(-0.000538029 0.00273714 -3.49641e-20)
(-0.00241667 0.00719748 2.23256e-20)
(-0.00570167 0.0107848 -3.63852e-20)
(-0.00987504 0.0136149 1.05756e-20)
(-0.0147407 0.0157686 2.96188e-20)
(-0.0201171 0.0173267 1.35401e-20)
(-0.0258329 0.0183687 2.55875e-20)
(-0.0317429 0.018972 -1.79896e-20)
(-0.0377241 0.0192113 -1.11228e-19)
(-0.0436757 0.019159 -9.96533e-20)
(-0.0495182 0.018885 -6.4831e-20)
(-0.0551929 0.0184565 2.45996e-20)
(-0.0606617 0.0179375 -1.40657e-20)
(-0.0659062 0.0173884 1.07336e-19)
(-0.0709271 0.016865 -3.86772e-20)
(-0.075743 0.0164163 3.16075e-20)
(-0.0803884 0.0160826 4.60327e-20)
(-0.0849175 0.0158909 -2.58906e-20)
(-0.0893682 0.0158506 2.26118e-19)
(-0.0937354 0.015974 -8.53279e-20)
(-0.000649521 0.00321091 4.24129e-20)
(-0.00269543 0.00844506 -5.34609e-20)
(-0.00608945 0.0126562 -8.19945e-20)
(-0.0103256 0.0159785 -2.16507e-20)
(-0.0152128 0.0185065 9.54403e-21)
(-0.020574 0.0203341 1.4745e-20)
(-0.0262417 0.0215545 4.94211e-20)
(-0.0320737 0.022258 1.09571e-20)
(-0.0379497 0.0225323 3.70626e-21)
(-0.0437704 0.0224624 1.78948e-19)
(-0.0494577 0.0221302 1.34678e-19)
(-0.0549537 0.0216148 -8.08396e-20)
(-0.0602207 0.0209918 -1.19375e-20)
(-0.0652406 0.0203329 -3.22527e-20)
(-0.0700152 0.0197049 3.19151e-20)
(-0.074564 0.0191668 -1.69073e-19)
(-0.0789243 0.0187676 -3.53741e-20)
(-0.0831553 0.018541 -5.31283e-20)
(-0.0872963 0.0184992 -1.28592e-19)
(-0.0913285 0.0186591 7.05487e-20)
(-0.000777879 0.00367212 7.07965e-21)
(-0.00301669 0.00966079 -2.60458e-20)
(-0.00653679 0.0144812 7.39915e-20)
(-0.0108457 0.0182848 -4.56129e-20)
(-0.015758 0.0211786 -2.55455e-20)
(-0.0211018 0.0232695 4.07413e-20)
(-0.0267139 0.0246635 -6.91547e-20)
(-0.0324555 0.0254637 -9.47782e-21)
(-0.0382092 0.0257701 1.31584e-19)
(-0.0438779 0.0256797 -8.43221e-20)
(-0.0493846 0.0252864 -3.47559e-20)
(-0.0546724 0.0246808 4.1111e-20)
(-0.0597039 0.0239503 -1.08633e-20)
(-0.0644617 0.023178 -5.64409e-21)
(-0.0689479 0.0224417 4.6598e-20)
(-0.0731839 0.0218114 -1.23998e-19)
(-0.0772094 0.021346 4.33373e-20)
(-0.0810901 0.0210862 -3.29443e-20)
(-0.0848675 0.0210482 -7.40269e-20)
(-0.0885068 0.0212549 2.68941e-20)
(-0.000922343 0.00411921 -1.9858e-20)
(-0.00337866 0.0108406 1.43251e-19)
(-0.00704139 0.0162536 -3.18646e-20)
(-0.0114328 0.0205258 1.95696e-20)
(-0.0163738 0.023776 1.41912e-19)
(-0.0216979 0.026123 -9.62944e-20)
(-0.0272469 0.0276853 -4.74689e-20)
(-0.032886 0.0285779 -8.27768e-20)
(-0.0385006 0.0289128 -9.08378e-20)
(-0.043996 0.0287986 -6.00535e-20)
(-0.0492969 0.0283408 -8.14038e-20)
(-0.054347 0.0276414 1.48441e-19)
(-0.0591095 0.0267992 -1.64815e-20)
(-0.063567 0.0259088 -3.47602e-20)
(-0.0677226 0.0250599 -1.82059e-19)
(-0.071599 0.0243341 1.02298e-19)
(-0.0752392 0.0238009 2.5447e-20)
(-0.078716 0.0235096 6.40741e-20)
(-0.0820745 0.0234818 4.35014e-20)
(-0.0852612 0.023748 -1.17311e-19)
(-0.00108208 0.00455076 -6.16595e-20)
(-0.0037794 0.0119807 8.36067e-20)
(-0.00760065 0.0179679 4.72073e-20)
(-0.012084 0.0226946 2.14915e-20)
(-0.0170571 0.0262903 1.80128e-20)
(-0.0223594 0.0288853 -6.4564e-20)
(-0.0278379 0.0306096 1.40126e-19)
(-0.0333621 0.0315898 7.89039e-21)
(-0.038821 0.0319491 1.30432e-19)
(-0.0441222 0.0318075 -7.62741e-20)
(-0.049192 0.0312813 1.23154e-19)
(-0.053975 0.0304838 -1.22267e-19)
(-0.0584346 0.0295249 -1.10419e-19)
(-0.0625537 0.0285112 9.44854e-20)
(-0.0663356 0.0275444 3.35924e-19)
(-0.0698048 0.0267185 -1.8587e-19)
(-0.0730075 0.0261155 1.5319e-19)
(-0.0760252 0.0257944 3.5392e-20)
(-0.0789075 0.0257839 -1.33158e-19)
(-0.0815801 0.0261251 1.12538e-19)
(-0.00125621 0.00496551 1.12023e-19)
(-0.00421677 0.0130777 -6.42542e-20)
(-0.00821176 0.0196189 2.1849e-20)
(-0.0127961 0.0247843 8.25913e-20)
(-0.0178045 0.0287135 -7.6385e-20)
(-0.0230827 0.0315474 1.5027e-19)
(-0.0284834 0.0334268 -2.73851e-20)
(-0.0338807 0.0344891 3.44006e-21)
(-0.0391671 0.0348684 -1.80208e-19)
(-0.0442531 0.0346951 1.1433e-19)
(-0.0490665 0.0340963 2.64361e-20)
(-0.0535528 0.0331958 -3.49251e-20)
(-0.0576756 0.0321147 4.398e-20)
(-0.0614175 0.0309714 -1.74427e-19)
(-0.0647821 0.0298802 -9.75113e-20)
(-0.0677952 0.0289488 2.06008e-19)
(-0.0705066 0.0282728 -1.15451e-19)
(-0.0730078 0.0279233 -1.6538e-19)
(-0.0753544 0.0279383 3.07694e-19)
(-0.0774485 0.0283727 -4.11807e-22)
(-0.00144378 0.00536234 9.38001e-20)
(-0.00468852 0.0141286 -1.18114e-19)
(-0.00887166 0.0212018 -1.23757e-19)
(-0.0135655 0.0267888 -5.92738e-20)
(-0.0186122 0.0310383 -8.60855e-20)
(-0.0238638 0.0341009 -4.88671e-20)
(-0.0291792 0.0361277 -2.07149e-19)
(-0.0344374 0.0372661 2.55729e-20)
(-0.0395347 0.0376603 -8.8571e-20)
(-0.0443844 0.0374508 3.11333e-19)
(-0.0489161 0.0367745 -1.81586e-19)
(-0.053076 0.0357657 1.11908e-19)
(-0.0568275 0.0345562 -3.43497e-20)
(-0.0601529 0.0332761 1.89653e-19)
(-0.0630556 0.032053 1.56475e-20)
(-0.0655624 0.0310092 -1.63777e-19)
(-0.0677268 0.030256 -2.94799e-20)
(-0.0696514 0.0298788 7.21099e-21)
(-0.0713998 0.029928 -1.26578e-20)
(-0.0728473 0.030477 2.09928e-19)
(-0.00164382 0.0057403 -1.16825e-19)
(-0.00519225 0.0151306 -1.128e-19)
(-0.00957709 0.0227123 4.70267e-20)
(-0.0143884 0.0287024 1.17876e-19)
(-0.0194759 0.0332578 -8.53125e-21)
(-0.0246983 0.0365381 -8.17087e-20)
(-0.0299208 0.0387037 1.82381e-19)
(-0.0350274 0.0399115 -2.05765e-20)
(-0.0399187 0.0403152 2.23275e-19)
(-0.0445108 0.0400645 -2.49267e-19)
(-0.0487351 0.0393058 6.59686e-20)
(-0.0525384 0.0381828 7.83924e-20)
(-0.0558838 0.0368379 -2.37763e-21)
(-0.0587526 0.035413 -1.32692e-21)
(-0.0611476 0.0340492 -1.50732e-19)
(-0.0630963 0.0328846 2.05322e-20)
(-0.0646556 0.0320484 2.03042e-19)
(-0.0659403 0.0316433 2.61935e-19)
(-0.0670246 0.0317358 -3.11694e-19)
(-0.067753 0.0324244 -2.01673e-19)
(-0.00185534 0.00609861 4.88954e-20)
(-0.0057255 0.0160814 7.53466e-20)
(-0.0103246 0.0241467 9.18809e-20)
(-0.0152607 0.03052 -1.55819e-19)
(-0.020391 0.0353658 1.6411e-19)
(-0.0255811 0.0388517 1.56806e-19)
(-0.0307026 0.0411468 -6.15078e-20)
(-0.0356449 0.042417 2.69932e-19)
(-0.0403129 0.0428242 -2.74359e-19)
(-0.0446256 0.0425271 1.22063e-19)
(-0.0485164 0.0416805 1.24682e-19)
(-0.0519324 0.0404372 -9.73966e-21)
(-0.054836 0.0389495 1.60246e-21)
(-0.0572072 0.0373708 1.65123e-20)
(-0.0590473 0.0358561 -1.18028e-19)
(-0.0603841 0.0345605 1.17268e-19)
(-0.0612775 0.0336337 -6.05729e-20)
(-0.0618554 0.0331992 -1.36364e-19)
(-0.0622055 0.0333443 1.76673e-19)
(-0.062136 0.0342004 3.72165e-20)
(-0.00207732 0.00643665 -2.81986e-20)
(-0.00628571 0.0169791 3.54428e-20)
(-0.0111106 0.0255017 -7.68741e-20)
(-0.016178 0.0322372 -1.15041e-19)
(-0.0213524 0.0373566 -1.18853e-19)
(-0.0265066 0.0410351 -1.07481e-19)
(-0.0315185 0.0434498 1.75487e-19)
(-0.0362832 0.0447744 -8.92871e-20)
(-0.0407099 0.045179 7.14638e-20)
(-0.0447209 0.0448299 7.87668e-21)
(-0.0482511 0.0438899 -1.956e-20)
(-0.0512482 0.04252 4.89589e-20)
(-0.0536734 0.0408816 -9.57725e-20)
(-0.0555045 0.0391393 5.02805e-20)
(-0.056741 0.0374623 1.62607e-19)
(-0.0574097 0.036024 -2.38235e-19)
(-0.057573 0.0349967 -1.52746e-19)
(-0.057373 0.0345291 2.0123e-19)
(-0.056914 0.0347356 -1.18208e-19)
(-0.0559605 0.0357905 -1.8464e-19)
(-0.00230875 0.00675392 1.03868e-19)
(-0.00687027 0.0178221 -1.06527e-19)
(-0.0119312 0.0267743 8.6589e-20)
(-0.0171354 0.0338497 1.39199e-19)
(-0.0223546 0.039225 -2.56814e-20)
(-0.0274683 0.0430823 -9.20785e-20)
(-0.0323613 0.0456057 -1.72565e-19)
(-0.0369343 0.0469765 -1.31634e-19)
(-0.0411009 0.047372 -2.65652e-19)
(-0.0447867 0.0469653 2.70327e-20)
(-0.0479284 0.0459263 -2.37983e-20)
(-0.0504736 0.0444233 -1.90099e-19)
(-0.0523822 0.0426262 1.65079e-19)
(-0.0536292 0.0407101 2.02834e-19)
(-0.0542112 0.0388582 -1.02876e-20)
(-0.0541529 0.0372632 1.24771e-19)
(-0.0535181 0.0361231 -6.32688e-20)
(-0.0524638 0.0356165 1.015e-20)
(-0.0511158 0.0358916 1.78655e-19)
(-0.0491827 0.0371791 4.32169e-19)
(-0.00254864 0.00705012 -4.51665e-20)
(-0.00747655 0.0186091 -3.16498e-20)
(-0.0127826 0.0279624 8.91914e-20)
(-0.018128 0.0353542 -1.2457e-19)
(-0.0233914 0.0409666 -3.24548e-20)
(-0.0284593 0.0449877 1.93541e-19)
(-0.033223 0.0476085 -4.58145e-20)
(-0.0375889 0.0490168 -1.32884e-19)
(-0.0414754 0.0493963 2.163e-19)
(-0.0448112 0.0489264 -5.82266e-20)
(-0.0475347 0.047783 4.25875e-20)
(-0.0495935 0.0461408 2.31715e-19)
(-0.0509454 0.0441769 -3.22579e-19)
(-0.0515621 0.0420764 -8.84412e-20)
(-0.0514359 0.0400361 -1.74361e-19)
(-0.0505883 0.0382687 3.54618e-19)
(-0.0490833 0.0370008 1.111e-20)
(-0.0470927 0.0364463 1.96136e-19)
(-0.0447697 0.036795 -7.11361e-20)
(-0.0417497 0.0383498 -4.09198e-19)
(-0.00279598 0.00732503 -1.04749e-19)
(-0.00810188 0.0193391 1.51635e-19)
(-0.0136607 0.0290639 2.082e-21)
(-0.0191505 0.0367476 -1.45957e-21)
(-0.0244564 0.0425772 1.58813e-19)
(-0.0294717 0.0467465 1.14588e-19)
(-0.0340944 0.0494525 -4.30911e-21)
(-0.0382365 0.0508891 3.44107e-19)
(-0.0418211 0.0512457 1.32082e-19)
(-0.0447803 0.0507072 -2.43274e-19)
(-0.047054 0.0494544 1.15499e-20)
(-0.0485894 0.0476672 -8.40623e-21)
(-0.049342 0.0455291 3.41478e-19)
(-0.0492793 0.0432336 -3.82679e-19)
(-0.048388 0.0409908 1.05797e-19)
(-0.0466849 0.0390338 3.92948e-21)
(-0.0442322 0.0376201 -2.71424e-19)
(-0.0412164 0.0370054 -2.82192e-19)
(-0.0378272 0.0374301 -3.40953e-20)
(-0.0335993 0.0392901 4.15296e-19)
(-0.00304983 0.00757861 3.38877e-20)
(-0.00874355 0.0200115 -1.07935e-19)
(-0.0145613 0.0300772 1.04335e-19)
(-0.0201971 0.0380274 -1.56256e-19)
(-0.0255424 0.0440534 1.94226e-19)
(-0.0304969 0.0483543 -3.25884e-19)
(-0.0349651 0.0511327 -8.05411e-20)
(-0.0388648 0.052588 -1.79912e-19)
(-0.0421237 0.0529148 -8.49476e-20)
(-0.0446772 0.0523024 1.51639e-19)
(-0.0464667 0.0509358 3.09803e-19)
(-0.0474389 0.0489989 -3.47831e-19)
(-0.0475464 0.04668 -1.30274e-19)
(-0.0467514 0.0441798 4.73346e-19)
(-0.045034 0.0417203 -1.71999e-19)
(-0.0424044 0.039555 -2.48071e-19)
(-0.0389204 0.0379751 3.15019e-19)
(-0.0347822 0.0372838 6.64622e-20)
(-0.0302283 0.0377834 6.34559e-20)
(-0.0246643 0.0400066 -2.67165e-19)
(-0.00330923 0.00781088 1.32292e-20)
(-0.00939887 0.0206259 -5.62506e-20)
(-0.01548 0.0310013 1.82839e-19)
(-0.0212619 0.0391915 -2.36668e-19)
(-0.0266417 0.045392 -1.95862e-19)
(-0.0315253 0.0498071 1.24028e-19)
(-0.0358235 0.0526445 3.44259e-19)
(-0.0394598 0.0541087 -2.17576e-19)
(-0.0423666 0.0543988 5.26187e-20)
(-0.0444824 0.0537078 -1.04858e-19)
(-0.04575 0.0522239 -4.23852e-19)
(-0.0461152 0.0501336 2.5699e-19)
(-0.0455274 0.0476288 2.07708e-19)
(-0.0439428 0.0449154 -3.6874e-19)
(-0.0413332 0.0422259 8.64885e-20)
(-0.0377001 0.0398331 3.45314e-19)
(-0.0330943 0.0380637 1.35681e-19)
(-0.0277258 0.0372735 4.77833e-20)
(-0.0218875 0.0378381 -2.80163e-19)
(-0.0148744 0.0405206 -1.37459e-19)
(-0.00357329 0.00802198 -9.16936e-20)
(-0.0100651 0.0211821 -1.68486e-19)
(-0.0164124 0.0318351 -9.72851e-20)
(-0.0223386 0.040238 1.28823e-19)
(-0.0277459 0.0465904 -7.52594e-21)
(-0.0325462 0.0511015 2.88733e-19)
(-0.0366565 0.053984 -2.73102e-20)
(-0.0400057 0.055447 3.23945e-20)
(-0.0425306 0.0556936 2.07723e-19)
(-0.044173 0.0549199 2.63327e-19)
(-0.0448767 0.0533162 -1.21833e-20)
(-0.0445866 0.0510707 -5.84434e-20)
(-0.0432482 0.0483769 -3.42922e-19)
(-0.0408107 0.0454441 2.57405e-19)
(-0.0372365 0.0425129 -2.28385e-20)
(-0.0325161 0.0398739 -1.54394e-19)
(-0.0266906 0.0378895 -7.73792e-19)
(-0.0199774 0.0369739 2.74437e-19)
(-0.0126987 0.0375931 1.46607e-20)
(-0.00411475 0.0407772 -1.70932e-19)
(-0.00384112 0.00821214 8.4561e-20)
(-0.0107396 0.0216801 2.20113e-19)
(-0.0173538 0.0325781 -1.67546e-19)
(-0.0234203 0.0411656 -8.11938e-20)
(-0.028846 0.0476463 6.79037e-20)
(-0.0335481 0.0522344 -1.64187e-19)
(-0.0374495 0.0551474 -3.04996e-19)
(-0.0404844 0.0565988 1.80698e-19)
(-0.042594 0.0567954 -2.07778e-20)
(-0.0437228 0.0559357 -4.15987e-19)
(-0.0438156 0.0542113 7.9906e-20)
(-0.042816 0.0518109 4.50352e-20)
(-0.040665 0.0489277 -7.84843e-20)
(-0.0373044 0.0457724 2.07619e-19)
(-0.0326855 0.0425909 4.04931e-19)
(-0.0267853 0.0396888 -2.63977e-19)
(-0.0196319 0.0374634 2.14641e-19)
(-0.0114496 0.0363919 5.23647e-20)
(-0.00258283 0.0370511 3.00493e-19)
(0.00777475 0.0407373 1.36234e-19)
(-0.00411189 0.00838163 -9.27447e-20)
(-0.0114196 0.0221201 -1.08993e-20)
(-0.0182994 0.03323 2.37378e-19)
(-0.0244999 0.0419731 2.35581e-19)
(-0.0299321 0.0485578 -4.83201e-20)
(-0.0345182 0.053203 -3.06018e-20)
(-0.0381864 0.0561315 3.06823e-19)
(-0.040876 0.0575609 -2.38506e-19)
(-0.0425321 0.0577012 7.27684e-20)
(-0.0431017 0.0567531 3.0203e-19)
(-0.0425306 0.0549088 2.89963e-19)
(-0.0407601 0.0523561 1.13133e-19)
(-0.0377268 0.0492867 4.95639e-19)
(-0.0333641 0.0459101 -6.83413e-20)
(-0.0276109 0.0424741 -5.2648e-19)
(-0.0204289 0.0392956 2.59299e-19)
(-0.0118287 0.0368039 -1.38613e-19)
(-0.00203725 0.0355412 -3.23055e-19)
(0.00856896 0.0362147 -2.29135e-19)
(0.0209201 0.0404307 -2.32675e-19)
(-0.00438477 0.00853079 5.93111e-20)
(-0.0121024 0.0225025 1.2421e-19)
(-0.0192442 0.0337905 -8.65028e-20)
(-0.0255699 0.0426596 -1.07618e-19)
(-0.0309937 0.049323 -1.11741e-19)
(-0.0354424 0.0540051 -3.02369e-20)
(-0.0388492 0.0569335 -3.16547e-19)
(-0.0411578 0.0583302 1.62599e-19)
(-0.042317 0.0584084 -1.49919e-19)
(-0.0422759 0.0573705 -2.53594e-19)
(-0.0409804 0.0554089 9.00949e-21)
(-0.0383697 0.0527096 -6.4478e-19)
(-0.0343749 0.0494613 -5.01018e-19)
(-0.0289206 0.0458698 1.58607e-19)
(-0.0219325 0.0421813 8.03724e-20)
(-0.0133548 0.038719 -1.72667e-19)
(-0.00317696 0.0359393 6.70326e-19)
(0.00837746 0.0344487 -1.05314e-19)
(0.0208899 0.0350945 2.86962e-19)
(0.035469 0.0398768 2.60027e-19)
(-0.00465899 0.00865999 -8.13886e-20)
(-0.012785 0.0228275 -2.6997e-19)
(-0.0201829 0.0342597 8.5803e-20)
(-0.0266221 0.0432245 4.79956e-21)
(-0.0320194 0.0499407 3.65631e-19)
(-0.0363055 0.0546385 -2.18368e-19)
(-0.0394181 0.0575507 1.19743e-19)
(-0.041305 0.058904 1.71075e-19)
(-0.0419178 0.0589147 -1.34718e-20)
(-0.0412073 0.0577868 1.05919e-19)
(-0.0391187 0.0557124 3.22364e-19)
(-0.0355886 0.0528755 6.75234e-19)
(-0.0305422 0.0494603 5.4286e-20)
(-0.0238946 0.0456668 -3.00063e-19)
(-0.0155576 0.0417358 5.46042e-20)
(-0.00545652 0.0379908 5.32019e-19)
(0.00644353 0.0349083 -3.61504e-19)
(0.0199289 0.0331545 1.56097e-21)
(0.0345296 0.0337203 2.79302e-19)
(0.0515953 0.0390965 -1.74723e-19)
(-0.00493376 0.00876963 -7.79377e-20)
(-0.0134648 0.0230957 3.19035e-19)
(-0.0211101 0.0346376 -2.43699e-19)
(-0.0276479 0.0436671 -4.98462e-20)
(-0.0329968 0.0504095 -8.41329e-20)
(-0.0370908 0.0551012 -2.1878e-19)
(-0.0398715 0.0579809 2.18201e-19)
(-0.04129 0.05928 -7.20586e-20)
(-0.0413001 0.0592181 -1.28976e-19)
(-0.0398533 0.058001 2.11397e-19)
(-0.0368937 0.0558208 -2.45536e-19)
(-0.0323541 0.0528587 -7.92673e-20)
(-0.0261534 0.049294 -8.85339e-21)
(-0.0181965 0.0453187 2.10635e-19)
(-0.00838113 0.0411647 -1.9079e-19)
(0.00338686 0.0371496 -3.60951e-19)
(0.0171695 0.0337605 -1.10792e-19)
(0.0327695 0.0317139 -1.60495e-19)
(0.0496541 0.0321401 -4.90403e-19)
(0.069493 0.0381243 -1.47732e-19)
(-0.00520834 0.00886009 1.10576e-19)
(-0.0141388 0.0233077 -1.40041e-19)
(-0.0220201 0.0349245 -1.75564e-19)
(-0.028638 0.0439871 -1.66131e-19)
(-0.0339125 0.0507284 5.53565e-20)
(-0.0377801 0.0553918 3.11601e-20)
(-0.0401856 0.0582222 7.78603e-20)
(-0.0410825 0.0594561 -2.02448e-19)
(-0.040426 0.059317 1.56852e-19)
(-0.0381673 0.0580129 -4.70205e-19)
(-0.034248 0.0557357 -2.36314e-19)
(-0.0285965 0.0526646 3.8885e-21)
(-0.0211244 0.048973 2.09897e-19)
(-0.0117264 0.0448444 -1.378e-19)
(-0.000285679 0.0404983 3.52059e-19)
(0.013311 0.0362397 -8.63387e-20)
(0.0291539 0.0325554 1.1246e-19)
(0.0470689 0.0301984 4.25059e-19)
(0.0664458 0.0304219 5.60857e-20)
(0.0893716 0.0370148 2.74544e-19)
(-0.00548198 0.00893178 -2.33575e-19)
(-0.0148038 0.0234638 1.88419e-19)
(-0.0229066 0.0351204 2.1178e-19)
(-0.0295825 0.0441843 -1.2324e-19)
(-0.0347521 0.0508967 2.10762e-19)
(-0.0383537 0.0555088 2.03583e-19)
(-0.0403345 0.0582727 -3.69196e-20)
(-0.0406495 0.0594306 -6.98321e-20)
(-0.0392541 0.0592103 -1.90308e-19)
(-0.0360978 0.0578224 8.93037e-20)
(-0.0311187 0.0554595 8.70356e-21)
(-0.0242393 0.0522988 -2.3419e-19)
(-0.0153633 0.0485089 1.74635e-19)
(-0.00437448 0.0442637 -1.37165e-19)
(0.00885796 0.0397685 -2.4976e-19)
(0.0244652 0.0353097 -3.26515e-19)
(0.0425655 0.0313617 8.01183e-20)
(0.0630133 0.0286954 1.1158e-19)
(0.085101 0.0286554 -1.07013e-19)
(0.111451 0.0358463 4.53867e-19)
(-0.00575391 0.00898506 -1.8446e-19)
(-0.0154568 0.0235645 -1.73399e-19)
(-0.0237631 0.0352257 1.37115e-19)
(-0.0304707 0.0442585 7.98314e-20)
(-0.0354999 0.0509136 3.2614e-20)
(-0.0387902 0.0554514 -5.9785e-20)
(-0.0402901 0.0581315 -4.22707e-20)
(-0.039955 0.0592025 9.67017e-20)
(-0.0377392 0.0588974 -9.11508e-20)
(-0.0335891 0.0574299 7.32887e-19)
(-0.0274375 0.0549944 5.35048e-20)
(-0.0191998 0.0517673 -8.23396e-20)
(-0.00877026 0.047913 -5.4323e-19)
(0.00397812 0.0435967 1.05036e-19)
(0.0191896 0.0390083 -2.69256e-19)
(0.037011 0.034411 1.78399e-19)
(0.0575855 0.0302547 1.63826e-19)
(0.0808012 0.0273065 -6.24335e-19)
(0.105826 0.0269528 -1.94619e-19)
(0.135955 0.0347256 -6.78044e-19)
(-0.00602336 0.0090203 8.91996e-20)
(-0.0160944 0.0236104 1.7947e-19)
(-0.0245827 0.0352406 -3.23465e-19)
(-0.0312912 0.0442095 -2.4791e-19)
(-0.0361391 0.0507788 1.25799e-19)
(-0.0390663 0.0552188 1.18545e-19)
(-0.0400218 0.0577976 -2.46144e-19)
(-0.03896 0.0587712 -2.21714e-20)
(-0.0358325 0.0583782 1.31993e-20)
(-0.0305807 0.0568367 -2.20696e-19)
(-0.0231307 0.0543437 3.21183e-19)
(-0.0133886 0.0510764 1.85182e-21)
(-0.00123848 0.0471967 4.07401e-19)
(0.0134582 0.0428628 2.76869e-19)
(0.0308577 0.0382499 4.65112e-20)
(0.0511192 0.0335949 5.85734e-19)
(0.0744054 0.0293127 -5.32408e-19)
(0.10064 0.0261441 2.46987e-19)
(0.128831 0.0254476 1.93256e-19)
(0.1631 0.033791 1.67873e-19)
(-0.00628949 0.00903778 4.29527e-19)
(-0.0167128 0.0236017 -3.03516e-19)
(-0.0253579 0.0351654 7.37819e-20)
(-0.0320314 0.0440375 2.40612e-19)
(-0.0366513 0.0504922 -2.59628e-19)
(-0.0391569 0.0548108 1.28425e-20)
(-0.0394965 0.0572711 1.97882e-19)
(-0.0376222 0.058137 3.64267e-19)
(-0.0334811 0.0576537 4.93928e-19)
(-0.0270079 0.0560449 -4.73669e-19)
(-0.0181194 0.0535115 -2.82859e-19)
(-0.00671103 0.050233 1.34441e-19)
(0.00734507 0.0463717 -3.87267e-19)
(0.024199 0.042081 2.64411e-20)
(0.0440175 0.0375238 1.51201e-19)
(0.066967 0.0329109 1.16195e-19)
(0.0932217 0.0286141 3.58981e-19)
(0.122739 0.0253267 7.54611e-20)
(0.154326 0.0242908 -2.71689e-19)
(0.193083 0.0332151 2.93949e-19)
(-0.00655144 0.00903775 -4.07275e-19)
(-0.0173083 0.0235388 3.02272e-19)
(-0.0260803 0.0350002 7.34871e-20)
(-0.0326778 0.0437425 -2.38541e-19)
(-0.0370166 0.0500539 1.00881e-19)
(-0.0390348 0.0542278 -4.8801e-20)
(-0.0386785 0.0565527 -3.68484e-20)
(-0.0358962 0.0573012 -3.07461e-19)
(-0.0306285 0.0567262 -4.85878e-19)
(-0.0228012 0.0550579 4.55021e-19)
(-0.0123199 0.0525029 -1.64034e-19)
(0.000933054 0.0492453 5.14442e-21)
(0.0170986 0.0454499 9.32288e-20)
(0.0363385 0.0412695 1.98202e-19)
(0.0588277 0.0368586 -2.40904e-20)
(0.084734 0.0324045 -5.59674e-20)
(0.114231 0.0282325 -2.88916e-19)
(0.147303 0.0249726 -1.9384e-19)
(0.18251 0.0236459 -1.83714e-19)
(0.226064 0.0332044 2.96351e-19)
(-0.00680824 0.0090204 3.26611e-19)
(-0.0178765 0.0234217 -8.5274e-20)
(-0.0267411 0.0347454 2.9041e-19)
(-0.0332157 0.043325 7.04813e-20)
(-0.0372135 0.0494645 -1.55536e-19)
(-0.0386703 0.053471 2.52195e-20)
(-0.0375292 0.0556441 -3.32323e-19)
(-0.033733 0.0562665 1.51346e-19)
(-0.0272141 0.0555996 8.20539e-20)
(-0.017887 0.0538814 -3.02095e-20)
(-0.00564367 0.0513256 -3.45004e-20)
(0.00964829 0.0481231 4.09044e-20)
(0.0281443 0.0444448 -1.86521e-19)
(0.0500176 0.0404466 -4.35114e-19)
(0.0754481 0.0362808 2.20859e-19)
(0.104597 0.0321163 -1.10566e-19)
(0.137624 0.0282342 -2.7259e-20)
(0.174522 0.0251932 4.68797e-19)
(0.213566 0.0236812 4.90867e-19)
(0.262149 0.0339984 -7.57071e-19)
(-0.00705879 0.00898581 -8.33542e-20)
(-0.0184128 0.0232506 -9.18488e-20)
(-0.0273305 0.0344009 -1.82003e-19)
(-0.0336291 0.0427854 1.33506e-19)
(-0.0372186 0.0487252 2.42465e-19)
(-0.0380318 0.0525421 -3.14016e-19)
(-0.0360072 0.0545483 5.02278e-19)
(-0.0310804 0.0550372 -9.83262e-20)
(-0.0231733 0.0542798 1.44342e-20)
(-0.0121871 0.052523 -3.41757e-19)
(0.00200199 0.0499895 -2.61268e-20)
(0.0195432 0.0468792 -2.82534e-19)
(0.0406072 0.0433719 3.79523e-19)
(0.0653775 0.0396318 2.50096e-19)
(0.0940357 0.0358151 -4.89352e-19)
(0.126727 0.0320814 -4.17236e-19)
(0.16358 0.0286752 9.64087e-20)
(0.204567 0.026086 5.6205e-19)
(0.247656 0.0245633 2.5941e-19)
(0.301361 0.0358654 1.41165e-19)
(-0.00730189 0.00893399 2.59271e-20)
(-0.0189118 0.0230254 8.90643e-20)
(-0.0278378 0.0339672 1.07331e-19)
(-0.0339005 0.0421245 -8.9754e-20)
(-0.0370065 0.0478375 2.25016e-19)
(-0.0370847 0.051444 3.01839e-19)
(-0.0340678 0.0532696 4.77319e-21)
(-0.0278823 0.0536196 -3.90687e-19)
(-0.0184377 0.0527753 -3.12699e-19)
(-0.00561948 0.0509939 3.27931e-19)
(0.0107138 0.0485083 -4.39813e-19)
(0.0307293 0.0455297 -4.94877e-19)
(0.0546133 0.0422502 -4.95649e-20)
(0.0825581 0.0388466 -2.58224e-20)
(0.114741 0.0354863 1.73057e-19)
(0.151283 0.0323296 1.13695e-19)
(0.19226 0.0295997 1.47748e-19)
(0.237578 0.0277275 -6.94846e-19)
(0.284923 0.0264464 -1.91965e-19)
(0.343634 0.0390848 5.06808e-19)
(-0.00753611 0.00886484 -1.54938e-19)
(-0.0193678 0.0227459 1.51829e-19)
(-0.0282512 0.0334442 -1.12059e-19)
(-0.0340109 0.0413432 -5.57019e-20)
(-0.0365498 0.0468036 -1.51898e-19)
(-0.0357921 0.0501806 -1.15235e-19)
(-0.0316633 0.0518142 -2.06383e-19)
(-0.0240791 0.0520222 3.41471e-19)
(-0.0129347 0.0510975 1.35915e-19)
(0.00190199 0.0493085 -3.34088e-19)
(0.0205915 0.0468999 5.24012e-19)
(0.0433199 0.0440959 2.69265e-19)
(0.0702881 0.0411035 -2.03895e-19)
(0.101694 0.0381163 -2.86341e-19)
(0.137706 0.03532 -3.68384e-20)
(0.178404 0.0328867 2.95157e-19)
(0.223799 0.03104 -1.97342e-19)
(0.273662 0.0301657 7.53226e-20)
(0.325495 0.0294609 1.69787e-19)
(0.388801 0.0439159 4.28e-19)
(-0.00775984 0.00877813 -1.58629e-20)
(-0.0197741 0.0224115 -3.75033e-19)
(-0.0285576 0.0328321 9.14684e-20)
(-0.0339395 0.0404429 2.0346e-19)
(-0.0358188 0.0456267 -3.74569e-20)
(-0.0341141 0.0487572 -2.4677e-19)
(-0.0287426 0.05019 2.72321e-19)
(-0.0196076 0.0502562 3.1215e-19)
(-0.00658816 0.0492613 1.19559e-19)
(0.0104667 0.0474857 5.94298e-19)
(0.0317377 0.0451872 -2.767e-19)
(0.057429 0.0426044 1.32718e-19)
(0.0877542 0.0399611 -1.37185e-19)
(0.122913 0.0374712 3.30566e-19)
(0.163053 0.0353439 -2.91051e-20)
(0.208208 0.0337751 -7.64784e-20)
(0.2583 0.0330175 -1.22132e-19)
(0.312869 0.0334171 1.92227e-19)
(0.36946 0.03373 -4.84776e-19)
(0.436544 0.0506352 -6.57502e-19)
(-0.00797117 0.00867353 -8.99215e-20)
(-0.0201236 0.0220219 -3.33737e-20)
(-0.0287428 0.0321312 -3.03195e-19)
(-0.0336637 0.0394251 1.85726e-19)
(-0.0347813 0.0443104 -1.89739e-19)
(-0.032008 0.0471804 -1.92852e-19)
(-0.0252515 0.048407 -1.74068e-20)
(-0.0144013 0.0483357 -3.14873e-19)
(0.000681364 0.0472852 -5.00038e-19)
(0.0201669 0.045549 1.36925e-19)
(0.0442559 0.0433986 1.53568e-19)
(0.073169 0.0410881 1.85339e-19)
(0.107128 0.0388592 4.74053e-19)
(0.146327 0.0369471 -4.66631e-20)
(0.190888 0.0355885 -1.0283e-19)
(0.240778 0.0350126 -1.43861e-20)
(0.295827 0.0355369 2.59278e-19)
(0.355214 0.0374576 4.60966e-19)
(0.416842 0.0394585 -1.29497e-19)
(0.486142 0.0597728 4.7666e-19)
(-0.00816792 0.00855058 2.82009e-19)
(-0.0204081 0.0215764 -4.57983e-20)
(-0.028791 0.0313418 2.67792e-19)
(-0.0331589 0.038292 -2.74721e-19)
(-0.0334028 0.0428594 4.05819e-19)
(-0.0294284 0.0454582 3.39816e-19)
(-0.0211327 0.0464774 -2.7942e-19)
(-0.00839009 0.0462776 -5.20441e-19)
(0.00895627 0.0451916 8.63414e-19)
(0.0310967 0.0435267 2.13412e-19)
(0.0582496 0.0415686 -1.66413e-19)
(0.0906483 0.039587 -1.64611e-19)
(0.128516 0.0378409 -8.19908e-20)
(0.172033 0.0365863 -1.28636e-19)
(0.221282 0.0360866 -4.26243e-19)
(0.276158 0.0366082 -1.16217e-19)
(0.336405 0.0385635 9.62484e-21)
(0.400759 0.0421817 -3.16594e-19)
(0.467835 0.0469584 1.5722e-19)
(0.536517 0.0719283 -3.38918e-19)
(-0.00834756 0.0084087 -4.50625e-19)
(-0.0206183 0.0210741 3.03342e-19)
(-0.0286849 0.030464 -4.52034e-19)
(-0.0323986 0.0370462 -2.46368e-19)
(-0.0316465 0.0412795 9.19029e-20)
(-0.0263271 0.0436004 -3.67256e-19)
(-0.0163259 0.0444158 5.75946e-19)
(-0.00150153 0.0441023 9.92407e-21)
(0.0183211 0.0430074 -3.21015e-19)
(0.0433505 0.0414525 -2.80672e-19)
(0.0738201 0.0397379 -5.01544e-19)
(0.109969 0.038148 -6.12178e-21)
(0.152012 0.0369573 1.84566e-20)
(0.2001 0.0364383 -1.15812e-19)
(0.254264 0.0368747 5.14107e-19)
(0.314318 0.0385595 3.17923e-19)
(0.379955 0.0420001 7.92154e-20)
(0.449587 0.0473379 -3.41315e-19)
(0.523294 0.0561704 -1.85936e-20)
(0.58895 0.0849228 -5.5841e-19)
(-0.00850717 0.00824721 1.6007e-19)
(-0.0207442 0.0205141 -3.03474e-19)
(-0.0284058 0.0294986 3.90343e-19)
(-0.0313542 0.0356906 5.49011e-19)
(-0.029473 0.0395775 -1.78736e-19)
(-0.0226531 0.0416184 2.32766e-20)
(-0.010768 0.0422392 -4.8558e-19)
(0.00633926 0.0418333 -1.20792e-19)
(0.0288613 0.0407632 -3.76641e-19)
(0.0570223 0.039365 4.91434e-19)
(0.0910642 0.037953 4.55778e-19)
(0.131222 0.036825 -8.10832e-20)
(0.177689 0.0362672 -6.10493e-20)
(0.230566 0.0365616 -5.32957e-21)
(0.28981 0.0379985 9.23475e-20)
(0.355132 0.0408697 -1.66311e-19)
(0.426181 0.0457273 -1.93319e-19)
(0.501263 0.052546 4.10498e-19)
(0.583184 0.0656375 -1.32548e-19)
(0.651773 0.0901632 1.44072e-20)
(-0.00864343 0.00806532 4.22788e-20)
(-0.0207745 0.0198956 6.13282e-20)
(-0.0279331 0.0284461 -2.04377e-19)
(-0.0299951 0.0342291 -5.65924e-19)
(-0.0268406 0.0377612 9.17871e-20)
(-0.0183531 0.0395254 2.78141e-19)
(-0.00439413 0.0399673 1.27032e-19)
(0.0152085 0.0394975 5.45481e-19)
(0.0406626 0.0384942 -3.42786e-19)
(0.072203 0.0373081 -4.45894e-19)
(0.110072 0.0362666 -8.16943e-20)
(0.154487 0.0356785 2.03564e-19)
(0.205599 0.035837 4.45836e-20)