/*--------------------------------*- C++ -*----------------------------------*\
  =========                 |
  \\      /  F ield         | OpenFOAM: The Open Source CFD Toolbox
   \\    /   O peration     | Website:  https://openfoam.org
    \\  /    A nd           | Version:  7
     \\/     M anipulation  |
\*---------------------------------------------------------------------------*/
FoamFile
{
    version     2.0;
    format      ascii;
    class       volScalarField;
    location    "30";
    object      p;
}
// * * * * * * * * * * * * * * * * * * * * * * * * * * * * * * * * * * * * * //

dimensions      [0 2 -2 0 0 0 0];

internalField   nonuniform List<scalar> 
8500
(
-0.254629
-0.257097
-0.255982
-0.259707
-0.258432
-0.256968
-0.262466
-0.261019
-0.25941
-0.265381
-0.263747
-0.261986
-0.259865
-0.268456
-0.266622
-0.2647
-0.262415
-0.259855
-0.271696
-0.269649
-0.267557
-0.265101
-0.262371
-0.259477
-0.275107
-0.272831
-0.270563
-0.267929
-0.265024
-0.261962
-0.258815
-0.27869
-0.276172
-0.27372
-0.270902
-0.267818
-0.264585
-0.261272
-0.257929
-0.28245
-0.279676
-0.277032
-0.274026
-0.270758
-0.267349
-0.263866
-0.260353
-0.256827
-0.286387
-0.283344
-0.280502
-0.277303
-0.273847
-0.270258
-0.266599
-0.262907
-0.25919
-0.255423
-0.290503
-0.287179
-0.284132
-0.280735
-0.277087
-0.273315
-0.269473
-0.265592
-0.261668
-0.257665
-0.253521
-0.294797
-0.291179
-0.287922
-0.284323
-0.28048
-0.276519
-0.272488
-0.268406
-0.264257
-0.259994
-0.255544
-0.250827
-0.245768
-0.299267
-0.295345
-0.291873
-0.288069
-0.284027
-0.279872
-0.275642
-0.271345
-0.26695
-0.262399
-0.25761
-0.252501
-0.247002
-0.241074
-0.303911
-0.299673
-0.295983
-0.29197
-0.287726
-0.283371
-0.278932
-0.274402
-0.269739
-0.264868
-0.259705
-0.254167
-0.248194
-0.241765
-0.234899
-0.308724
-0.304162
-0.300249
-0.296026
-0.291576
-0.287014
-0.282353
-0.277571
-0.272611
-0.267388
-0.261813
-0.255807
-0.249328
-0.242374
-0.234988
-0.227253
-0.219256
-0.3137
-0.308805
-0.304668
-0.300232
-0.295571
-0.290794
-0.285896
-0.28084
-0.275553
-0.269941
-0.263915
-0.257406
-0.250389
-0.242887
-0.23497
-0.22674
-0.218304
-0.20982
-0.31883
-0.313596
-0.309233
-0.304583
-0.299707
-0.294704
-0.289553
-0.284196
-0.278549
-0.27251
-0.265992
-0.258942
-0.251358
-0.243291
-0.234834
-0.226111
-0.217242
-0.208385
-0.19949
-0.191198
-0.324104
-0.318526
-0.313936
-0.309071
-0.303974
-0.298735
-0.293309
-0.287624
-0.28158
-0.275073
-0.268023
-0.260398
-0.252222
-0.243573
-0.234572
-0.225359
-0.216065
-0.206844
-0.197664
-0.189105
-0.329512
-0.323586
-0.318769
-0.313686
-0.308363
-0.302873
-0.297152
-0.291106
-0.284626
-0.277608
-0.269988
-0.261754
-0.252963
-0.243721
-0.234174
-0.224475
-0.214766
-0.205192
-0.195735
-0.186918
-0.335038
-0.328762
-0.32372
-0.318418
-0.312862
-0.307105
-0.301061
-0.29462
-0.287664
-0.280093
-0.271863
-0.262991
-0.253565
-0.243723
-0.233631
-0.223455
-0.21334
-0.203423
-0.193696
-0.184629
-0.340666
-0.334041
-0.328775
-0.323252
-0.317453
-0.311412
-0.305018
-0.298145
-0.290668
-0.282503
-0.273626
-0.264089
-0.254014
-0.243567
-0.232934
-0.222289
-0.211779
-0.20153
-0.191541
-0.18223
-0.346378
-0.339404
-0.333917
-0.328172
-0.322121
-0.315775
-0.309
-0.301653
-0.293614
-0.284812
-0.275254
-0.26503
-0.254294
-0.243242
-0.232074
-0.220971
-0.210077
-0.199506
-0.189264
-0.179715
-0.352152
-0.344834
-0.339129
-0.333159
-0.326843
-0.32017
-0.312979
-0.305119
-0.296473
-0.286995
-0.276725
-0.265794
-0.254391
-0.242737
-0.231043
-0.219494
-0.208227
-0.197346
-0.186859
-0.177078
-0.357965
-0.350309
-0.344389
-0.338191
-0.331598
-0.324572
-0.31693
-0.308512
-0.299216
-0.289024
-0.278016
-0.266363
-0.254291
-0.24204
-0.229832
-0.217849
-0.206223
-0.195041
-0.184318
-0.174312
-0.363792
-0.355805
-0.349674
-0.343244
-0.336358
-0.328952
-0.32082
-0.311802
-0.301814
-0.290873
-0.279104
-0.266721
-0.25398
-0.241141
-0.228432
-0.216029
-0.204056
-0.192587
-0.181636
-0.171411
-0.369604
-0.361296
-0.354959
-0.348292
-0.341096
-0.333279
-0.324619
-0.314957
-0.304237
-0.292515
-0.279968
-0.266848
-0.253444
-0.24003
-0.226834
-0.214026
-0.20172
-0.189975
-0.178807
-0.168369
-0.375371
-0.366753
-0.360214
-0.353305
-0.345781
-0.337521
-0.328291
-0.317944
-0.306453
-0.293926
-0.280586
-0.26673
-0.252672
-0.238695
-0.225029
-0.211832
-0.199208
-0.187198
-0.175822
-0.16518
-0.38106
-0.372146
-0.365409
-0.358251
-0.350378
-0.341644
-0.331803
-0.320728
-0.308433
-0.295078
-0.280939
-0.26635
-0.251649
-0.237128
-0.223008
-0.20944
-0.196511
-0.184251
-0.172678
-0.161839
-0.386637
-0.377442
-0.370512
-0.363097
-0.354852
-0.345609
-0.335118
-0.323276
-0.310148
-0.295948
-0.281005
-0.265692
-0.250365
-0.235317
-0.220763
-0.20684
-0.193622
-0.181125
-0.169366
-0.15834
-0.392065
-0.382606
-0.375488
-0.367806
-0.359167
-0.349379
-0.338198
-0.325554
-0.311566
-0.296511
-0.280767
-0.264743
-0.248806
-0.233252
-0.218284
-0.204025
-0.190534
-0.177814
-0.165881
-0.154677
-0.397306
-0.387601
-0.380299
-0.372341
-0.363282
-0.352915
-0.341006
-0.327528
-0.312661
-0.296744
-0.280207
-0.263486
-0.246963
-0.230925
-0.215564
-0.200987
-0.187239
-0.174311
-0.162216
-0.150846
-0.40232
-0.392389
-0.384906
-0.376662
-0.367158
-0.356177
-0.343504
-0.329164
-0.313403
-0.296624
-0.279306
-0.26191
-0.244822
-0.228324
-0.212593
-0.197718
-0.183731
-0.17061
-0.158367
-0.146842
-0.407066
-0.39693
-0.38927
-0.380727
-0.370753
-0.359125
-0.345656
-0.330431
-0.313767
-0.296132
-0.278049
-0.260001
-0.242375
-0.225442
-0.209362
-0.194211
-0.180002
-0.166705
-0.154326
-0.142659
-0.411502
-0.401184
-0.39335
-0.384495
-0.374026
-0.361718
-0.347424
-0.331296
-0.313726
-0.295246
-0.276419
-0.257745
-0.239609
-0.222268
-0.205864
-0.190457
-0.176045
-0.162588
-0.150089
-0.138293
-0.415584
-0.405107
-0.397102
-0.387922
-0.376932
-0.363916
-0.348773
-0.331731
-0.313257
-0.293949
-0.274403
-0.255133
-0.236516
-0.218794
-0.202091
-0.186449
-0.171853
-0.158256
-0.14565
-0.13374
-0.419269
-0.408657
-0.400484
-0.390967
-0.379431
-0.36568
-0.349669
-0.331705
-0.312338
-0.292221
-0.271987
-0.252152
-0.233086
-0.215011
-0.198035
-0.182181
-0.167421
-0.153701
-0.141005
-0.128996
-0.422514
-0.411791
-0.403453
-0.393584
-0.381481
-0.366971
-0.350077
-0.331192
-0.310946
-0.290048
-0.269157
-0.248792
-0.229309
-0.210912
-0.193688
-0.177646
-0.162743
-0.148919
-0.136148
-0.124056
-0.425274
-0.414467
-0.405964
-0.395732
-0.383041
-0.367752
-0.349967
-0.330167
-0.309062
-0.287414
-0.265902
-0.245043
-0.225178
-0.206489
-0.189045
-0.172838
-0.157813
-0.143905
-0.131077
-0.118919
-0.427508
-0.416641
-0.407976
-0.397367
-0.38407
-0.367989
-0.349309
-0.328606
-0.306669
-0.284306
-0.262211
-0.240897
-0.220684
-0.201735
-0.184098
-0.167751
-0.152627
-0.138655
-0.125787
-0.11358
-0.429173
-0.418272
-0.409446
-0.39845
-0.38453
-0.367647
-0.348075
-0.326488
-0.30375
-0.28071
-0.258075
-0.236345
-0.215821
-0.196643
-0.178842
-0.16238
-0.147179
-0.133165
-0.120275
-0.108038
-0.430227
-0.419318
-0.410333
-0.398939
-0.384385
-0.366694
-0.34624
-0.323793
-0.30029
-0.276616
-0.253484
-0.231379
-0.210581
-0.191208
-0.173272
-0.15672
-0.141466
-0.127431
-0.114538
-0.102289
-0.430632
-0.419739
-0.410597
-0.398797
-0.3836
-0.365102
-0.34378
-0.320504
-0.296276
-0.272014
-0.24843
-0.225993
-0.20496
-0.185425
-0.167383
-0.150769
-0.135484
-0.121451
-0.108573
-0.0963326
-0.430347
-0.419498
-0.4102
-0.397988
-0.382143
-0.362843
-0.340675
-0.316605
-0.291698
-0.266896
-0.242908
-0.220183
-0.198951
-0.179289
-0.161171
-0.144521
-0.129232
-0.115222
-0.102379
-0.0901663
-0.429339
-0.418557
-0.409106
-0.396478
-0.379983
-0.359894
-0.336906
-0.312083
-0.286545
-0.261255
-0.236912
-0.213942
-0.192553
-0.172797
-0.154634
-0.137975
-0.122705
-0.108742
-0.0959544
-0.0837912
-0.427572
-0.416882
-0.407282
-0.394235
-0.377095
-0.356232
-0.332458
-0.306926
-0.28081
-0.255085
-0.230436
-0.207268
-0.18576
-0.165946
-0.147769
-0.131129
-0.115903
-0.102009
-0.0892982
-0.0772096
-0.425015
-0.414441
-0.404695
-0.39123
-0.373454
-0.35184
-0.327317
-0.301127
-0.274488
-0.248382
-0.22348
-0.200158
-0.178572
-0.158735
-0.140575
-0.123982
-0.108824
-0.0950219
-0.0824097
-0.0704153
-0.42164
-0.411205
-0.401318
-0.387439
-0.369039
-0.346702
-0.321473
-0.294678
-0.267574
-0.241144
-0.216039
-0.19261
-0.170987
-0.151162
-0.133051
-0.116533
-0.101469
-0.0877814
-0.0752856
-0.0633803
-0.417421
-0.407148
-0.397125
-0.382838
-0.363831
-0.340804
-0.314918
-0.287575
-0.260065
-0.233369
-0.208115
-0.184625
-0.163005
-0.143229
-0.125198
-0.108783
-0.0938399
-0.0802916
-0.0679255
-0.0560709
-0.412335
-0.402246
-0.392094
-0.377408
-0.357816
-0.334138
-0.307646
-0.279815
-0.251961
-0.225058
-0.199707
-0.176203
-0.154628
-0.134936
-0.117018
-0.100735
-0.0859386
-0.0725565
-0.0603394
-0.0485388
-0.406362
-0.396478
-0.386206
-0.371133
-0.350984
-0.326695
-0.299653
-0.271398
-0.243264
-0.216212
-0.190817
-0.167346
-0.145856
-0.126285
-0.108512
-0.0923903
-0.0777681
-0.0645745
-0.0525155
-0.04091
-0.399487
-0.389829
-0.379444
-0.364002
-0.343324
-0.318474
-0.290941
-0.262325
-0.233976
-0.206835
-0.18145
-0.158058
-0.136694
-0.11728
-0.0996838
-0.0837528
-0.069332
-0.0563514
-0.0444731
-0.0330944
-0.391697
-0.382285
-0.371798
-0.356004
-0.334834
-0.309471
-0.28151
-0.252602
-0.224101
-0.196931
-0.171609
-0.148342
-0.127145
-0.107924
-0.0905378
-0.0748268
-0.0606338
-0.04789
-0.0362202
-0.0250773
-0.382982
-0.373835
-0.363259
-0.347135
-0.32551
-0.29969
-0.271366
-0.242232
-0.213646
-0.186507
-0.1613
-0.138206
-0.117216
-0.0982232
-0.0810794
-0.065617
-0.0516784
-0.0391955
-0.027758
-0.0168609
-0.373338
-0.364474
-0.353821
-0.337393
-0.315355
-0.289136
-0.260515
-0.231226
-0.20262
-0.175571
-0.150531
-0.127654
-0.106912
-0.088184
-0.0713138
-0.0561292
-0.0424713
-0.0302734
-0.0190892
-0.00845106
-0.362762
-0.354199
-0.343484
-0.326779
-0.304374
-0.277816
-0.248967
-0.219591
-0.191031
-0.164131
-0.13931
-0.116696
-0.0962409
-0.0778132
-0.0612485
-0.0463702
-0.033019
-0.0211296
-0.0102185
0.00014536
-0.351256
-0.343011
-0.332249
-0.315297
-0.292574
-0.265739
-0.236733
-0.207341
-0.178892
-0.152198
-0.127647
-0.10534
-0.0852118
-0.0671192
-0.0508914
-0.0363477
-0.0233289
-0.011771
-0.00115185
0.00892135
-0.338826
-0.330914
-0.320124
-0.302958
-0.279967
-0.252921
-0.223827
-0.194488
-0.166214
-0.139784
-0.115553
-0.0935968
-0.0738341
-0.0561112
-0.0402515
-0.0260704
-0.0134093
-0.00220554
0.00810317
0.0178693
-0.32548
-0.317918
-0.307116
-0.289772
-0.266567
-0.239374
-0.210264
-0.181048
-0.153013
-0.126902
-0.10304
-0.081478
-0.0621188
-0.0447996
-0.0293387
-0.0155478
-0.00326945
0.00755809
0.0175381
0.0269807
-0.311231
-0.304032
-0.29324
-0.275755
-0.25239
-0.225119
-0.196064
-0.167039
-0.139304
-0.113568
-0.0901222
-0.0689961
-0.0500775
-0.0331954
-0.0181635
-0.00479014
0.00708048
0.01751
0.0271432
0.0362462
-0.296095
-0.289274
-0.278511
-0.260924
-0.237457
-0.210175
-0.181245
-0.152478
-0.125105
-0.099796
-0.0768138
-0.0561645
-0.037723
-0.0213109
-0.00673763
0.00619118
0.0176295
0.0276395
0.0369078
0.0456547
-0.280091
-0.273661
-0.262949
-0.2453
-0.221789
-0.194565
-0.165832
-0.137385
-0.110434
-0.0856048
-0.0631308
-0.042998
-0.0250691
-0.00915896
0.00492657
0.0173842
0.0283656
0.0379346
0.0468198
0.0551937
-0.263243
-0.257215
-0.246577
-0.228908
-0.205412
-0.178313
-0.149842
-0.121786
-0.0953114
-0.0710121
-0.04909
-0.0295122
-0.0121301
0.00324684
0.0168161
0.0287761
0.0392761
0.0483827
0.0568656
0.064848
-0.245574
-0.239961
-0.229421
-0.211775
-0.188355
-0.161444
-0.133304
-0.105702
-0.0797594
-0.0560376
-0.0347094
-0.0157235
0.00107855
0.0158921
0.0289172
0.0403537
0.0503477
0.0589701
0.0670304
0.0746001
-0.227115
-0.221927
-0.211508
-0.193931
-0.170648
-0.143982
-0.116246
-0.0891563
-0.0638002
-0.0407021
-0.0200078
-0.00164927
0.0145409
0.028762
0.041216
0.0521033
0.0615664
0.0696826
0.077298
-0.207896
-0.203144
-0.192871
-0.175408
-0.152307
-0.125974
-0.0986964
-0.0721765
-0.0474576
-0.0250273
-0.00500518
0.0126923
0.0282401
0.0418409
0.0536979
0.0640109
0.0729181
0.0805056
-0.187951
-0.183646
-0.173543
-0.156237
-0.133379
-0.10744
-0.080684
-0.0547899
-0.0307567
-0.00903588
0.0102778
0.0272821
0.042159
0.0551132
0.0663484
0.0760627
0.084389
-0.167315
-0.16347
-0.153563
-0.136448
-0.113905
-0.0884137
-0.0622403
-0.037025
-0.0137236
0.00724833
0.0258194
0.0421007
0.0562796
0.0685626
0.0791529
0.0882452
-0.146027
-0.142654
-0.13296
-0.116093
-0.0939149
-0.068932
-0.0433977
-0.0189117
0.00361473
0.0238007
0.0415973
0.0571274
0.0705835
0.0821726
0.0920969
0.100546
-0.124121
-0.121243
-0.111782
-0.0952076
-0.0734479
-0.0490309
-0.0241899
-0.000480615
0.0212302
0.0405956
0.057588
0.0723412
0.0850516
0.0959264
0.105166
-0.101634
-0.0992907
-0.090075
-0.0738325
-0.0525443
-0.0287481
-0.00465145
0.0182365
0.0390938
0.0576067
0.0737676
0.0877202
0.0996642
0.109807
-0.0786417
-0.076821
-0.0678835
-0.0520115
-0.0312455
-0.00812239
0.0151819
0.0372069
0.0571758
0.0748067
0.090111
0.103242
0.114401
0.123796
-0.0552167
-0.0538573
-0.0452498
-0.0297895
-0.00959391
0.0128067
0.0352736
0.0563973
0.0754455
0.0921676
0.106593
0.118882
0.129241
-0.0313642
-0.0304781
-0.0222222
-0.00721209
0.0123668
0.0339985
0.0555865
0.0757735
0.0938718
0.109661
0.123186
0.134617
0.144161
-0.00713409
-0.00673602
0.00115063
0.0156735
0.034592
0.0554117
0.0760824
0.0953007
0.112423
0.127257
0.139864
0.150422
0.01742
0.0173216
0.0248199
0.0388201
0.0570369
0.0770045
0.0967229
0.114943
0.131066
0.144925
0.1566
0.0422431
0.0416434
0.0487345
0.0621785
0.0796554
0.0987343
0.117469
0.134666
0.149768
0.162637
0.173364
0.0672811
0.0661768
0.0728426
0.0856993
0.102401
0.120558
0.138281
0.154432
0.168496
0.18036
0.0924795
0.0908688
0.0970922
0.109333
0.125228
0.142433
0.159119
0.174206
0.187217
0.198064
0.117783
0.115666
0.121431
0.133029
0.148088
0.164316
0.179944
0.19395
0.205896
0.143137
0.140513
0.145805
0.156737
0.170934
0.186162
0.200716
0.213628
0.2245
0.168485
0.165356
0.170163
0.180407
0.19372
0.20793
0.221395
0.233203
0.242996
0.193772
0.190141
0.19445
0.203989
0.216399
0.229574
0.24194
0.25264
0.218942
0.214813
0.218615
0.227432
0.238924
0.251054
0.262313
0.271901
0.243941
0.239317
0.242604
0.250686
0.261249
0.272325
0.282475
0.268712
0.263599
0.266365
0.273703
0.283328
0.293345
0.302386
0.293203
0.287607
0.289847
0.296433
0.305115
0.314073
0.322008
0.317358
0.311287
0.312999
0.318829
0.326565
0.334468
0.341125
0.334587
0.33577
0.340842
0.347636
0.354489
0.364452
0.357456
0.358111
0.362428
0.368284
0.374097
0.387288
0.379844
0.379974
0.383539
0.388466
0.409583
0.401701
0.401311
0.404132
0.408142
0.431287
0.42298
0.422078
0.424164
0.427271
0.452354
0.443634
0.442228
0.443592
0.445816
0.472738
0.463618
0.461718
0.462376
0.492393
0.482889
0.480508
0.480477
0.511278
0.501403
0.498556
0.497857
0.529351
0.519122
0.515823
0.51448
0.546573
0.536007
0.532274
0.53031
0.562907
0.55202
0.547873
0.578317
0.567128
0.562586
0.59277
0.581297
0.576383
0.606234
0.594497
0.589234
0.618681
0.6067
0.601112
0.630083
0.617878
0.611992
0.640416
0.628009
0.62185
0.649658
0.637069
0.630666
0.657789
0.64504
0.638421
0.664791
0.651905
0.670649
0.657648
0.675351
0.662257
0.678886
0.665723
0.681247
0.668037
0.682429
0.669196
0.682429
0.669196
0.681248
0.668038
0.678887
0.665724
0.675352
0.662258
0.670651
0.657649
0.664793
0.651907
0.657792
0.645043
0.638424
0.649661
0.637072
0.630669
0.64042
0.628012
0.621853
0.630087
0.617882
0.611995
0.618685
0.606704
0.601116
0.606239
0.594502
0.589239
0.592775
0.581302
0.576388
0.578323
0.567134
0.562592
0.562913
0.552026
0.547879
0.54658
0.536013
0.532281
0.530317
0.529358
0.519129
0.51583
0.514486
0.511286
0.501411
0.498563
0.497864
0.492401
0.482896
0.480515
0.480485
0.472746
0.463626
0.461727
0.462384
0.452363
0.443643
0.442236
0.443601
0.445824
0.431296
0.422989
0.422087
0.424173
0.42728
0.409592
0.401711
0.401321
0.404142
0.408151
0.387298
0.379854
0.379984
0.383549
0.388476
0.393262
0.364463
0.357467
0.358121
0.362438
0.368294
0.374107
0.341137
0.334599
0.335781
0.340853
0.347647
0.354499
0.31737
0.311299
0.31301
0.31884
0.326576
0.334479
0.293215
0.28762
0.289859
0.296445
0.305126
0.314084
0.322019
0.268725
0.263612
0.266378
0.273715
0.28334
0.293357
0.302397
0.243954
0.23933
0.242617
0.250699
0.261262
0.272337
0.282486
0.218956
0.214827
0.218628
0.227445
0.238937
0.251066
0.262325
0.271913
0.193786
0.190156
0.194464
0.204003
0.216413
0.229587
0.241953
0.252652
0.1685
0.165371
0.170178
0.180422
0.193735
0.207943
0.221408
0.233216
0.243009
0.143153
0.140529
0.145821
0.156752
0.170949
0.186176
0.20073
0.213641
0.224513
0.117799
0.115682
0.121447
0.133045
0.148103
0.16433
0.179959
0.193963
0.205909
0.215731
0.0924964
0.0908857
0.0971089
0.109349
0.125243
0.142448
0.159134
0.17422
0.18723
0.198078
0.0672987
0.0661944
0.0728599
0.0857162
0.102418
0.120574
0.138296
0.154447
0.16851
0.180374
0.0422613
0.0416616
0.0487524
0.062196
0.0796723
0.0987507
0.117485
0.134681
0.149783
0.162651
0.173377
0.0174388
0.0173405
0.0248385
0.0388382
0.0570544
0.0770214
0.0967393
0.114959
0.131081
0.14494
0.156614
0.166284
-0.00711462
-0.00671654
0.00116984
0.0156923
0.0346102
0.0554292
0.0760993
0.095317
0.112438
0.127272
0.139879
0.150436
-0.031344
-0.0304579
-0.0222023
-0.0071927
0.0123856
0.0340166
0.055604
0.0757903
0.093888
0.109676
0.123201
0.134632
0.144175
-0.0551959
-0.0538364
-0.0452292
-0.0297694
-0.00957449
0.0128254
0.0352917
0.0564147
0.0754623
0.0921837
0.106608
0.118897
0.129255
-0.0786203
-0.0767994
-0.0678623
-0.0519908
-0.0312254
-0.00810304
0.0152005
0.0372249
0.057193
0.0748233
0.0901271
0.103257
0.114416
0.123811
-0.101611
-0.0992685
-0.0900531
-0.0738111
-0.0525236
-0.0287281
-0.00463221
0.018255
0.0391116
0.0576239
0.0737841
0.0877361
0.0996796
0.109822
-0.124098
-0.12122
-0.111759
-0.0951855
-0.0734266
-0.0490103
-0.02417
-0.00046153
0.0212485
0.0406133
0.057605
0.0723576
0.0850674
0.0959416
0.105181
-0.146003
-0.14263
-0.132936
-0.11607
-0.0938929
-0.0689107
-0.0433773
-0.018892
0.00363365
0.0238189
0.0416148
0.0571443
0.0705998
0.0821883
0.092112
0.10056
-0.167291
-0.163446
-0.153539
-0.136424
-0.113882
-0.0883918
-0.0622192
-0.0370048
-0.0137041
0.00726707
0.0258375
0.042118
0.0562963
0.0685787
0.0791684
0.0882601
0.0959804
-0.187926
-0.183621
-0.173519
-0.156213
-0.133356
-0.107417
-0.0806623
-0.054769
-0.0307367
-0.0090166
0.0102963
0.0273
0.0421762
0.0551297
0.0663643
0.0760779
0.0844037
-0.20787
-0.203118
-0.192845
-0.175383
-0.152283
-0.125951
-0.0986741
-0.0721551
-0.047437
-0.0250074
-0.00498611
0.0127106
0.0282578
0.0418579
0.0537142
0.0640266
0.0729332
0.08052
-0.227089
-0.221901
-0.211482
-0.193906
-0.170623
-0.143958
-0.116223
-0.0891342
-0.063779
-0.0406817
-0.0199882
-0.00163043
0.014559
0.0287794
0.0412327
0.0521194
0.0615818
0.0696974
0.0773121
-0.245547
-0.239934
-0.229394
-0.211749
-0.188329
-0.161419
-0.133281
-0.105679
-0.0797376
-0.0560167
-0.0346893
-0.0157041
0.00109714
0.01591
0.0289344
0.0403702
0.0503635
0.0589853
0.0670448
0.0746139
-0.263214
-0.257187
-0.24655
-0.228881
-0.205386
-0.178288
-0.149818
-0.121763
-0.095289
-0.0709906
-0.0490694
-0.0294923
-0.012111
0.00326516
0.0168336
0.028793
0.0392923
0.0483982
0.0568804
0.0648621
-0.280063
-0.273632
-0.262921
-0.245272
-0.221762
-0.194539
-0.165807
-0.137361
-0.110411
-0.0855827
-0.0631096
-0.0429777
-0.0250495
-0.00914019
0.00494458
0.0174015
0.0283821
0.0379505
0.0468349
0.0552081
-0.296065
-0.289244
-0.278482
-0.260895
-0.237429
-0.210148
-0.18122
-0.152453
-0.125081
-0.0997734
-0.0767921
-0.0561437
-0.037703
-0.0212917
-0.00671918
0.00620887
0.0176464
0.0276557
0.0369233
0.0456695
-0.311201
-0.304002
-0.29321
-0.275725
-0.252362
-0.225092
-0.196037
-0.167014
-0.13928
-0.113544
-0.0900999
-0.0689747
-0.0500569
-0.0331757
-0.0181446
-0.00477204
0.00709781
0.0175266
0.0271591
0.0362612
-0.325449
-0.317886
-0.307085
-0.289742
-0.266538
-0.239346
-0.210237
-0.181022
-0.152988
-0.126878
-0.103017
-0.0814561
-0.0620977
-0.0447794
-0.0293193
-0.0155292
-0.00325173
0.00757504
0.0175542
0.0269961
-0.338794
-0.330882
-0.320092
-0.302927
-0.279937
-0.252892
-0.223799
-0.194461
-0.166188
-0.139759
-0.115529
-0.0935744
-0.0738126
-0.0560906
-0.0402318
-0.0260515
-0.0133912
-0.00218822
0.00811967
0.017885
-0.351223
-0.342978
-0.332217
-0.315266
-0.292543
-0.26571
-0.236704
-0.207313
-0.178865
-0.152172
-0.127623
-0.105317
-0.0851897
-0.067098
-0.0508712
-0.0363284
-0.0233104
-0.0117533
-0.00113501
0.00893737
-0.362728
-0.354165
-0.343451
-0.326746
-0.304342
-0.277785
-0.248938
-0.219563
-0.191004
-0.164105
-0.139285
-0.116672
-0.0962184
-0.0777916
-0.0612278
-0.0463504
-0.033
-0.0211115
-0.0102013
0.000161706
-0.373303
-0.36444
-0.353787
-0.33736
-0.315323
-0.289105
-0.260485
-0.231197
-0.202592
-0.175544
-0.150506
-0.12763
-0.106889
-0.0881619
-0.0712926
-0.0561089
-0.042452
-0.0302549
-0.0190717
-0.00843439
-0.382947
-0.3738
-0.363224
-0.347101
-0.325477
-0.299659
-0.271335
-0.242203
-0.213618
-0.18648
-0.161274
-0.138181
-0.117192
-0.0982006
-0.0810577
-0.0655963
-0.0516587
-0.0391767
-0.0277401
-0.0168438
-0.391661
-0.382249
-0.371763
-0.35597
-0.3348
-0.309439
-0.281479
-0.252571
-0.224072
-0.196904
-0.171582
-0.148317
-0.127121
-0.107901
-0.0905157
-0.0748057
-0.0606137
-0.0478708
-0.036202
-0.02506
-0.39945
-0.389793
-0.379408
-0.363966
-0.34329
-0.31844
-0.290909
-0.262294
-0.233946
-0.206807
-0.181423
-0.158032
-0.136669
-0.117256
-0.0996612
-0.0837313
-0.0693114
-0.0563318
-0.0444545
-0.0330767
-0.406325
-0.396441
-0.386169
-0.371097
-0.350948
-0.326661
-0.29962
-0.271366
-0.243234
-0.216183
-0.19079
-0.16732
-0.145831
-0.126261
-0.108489
-0.0923683
-0.0777472
-0.0645546
-0.0524965
-0.040892
-0.412297
-0.402207
-0.392056
-0.377371
-0.35778
-0.334103
-0.307612
-0.279783
-0.251931
-0.225029
-0.199679
-0.176176
-0.154602
-0.134911
-0.116994
-0.100712
-0.0859172
-0.0725362
-0.06032
-0.0485205
-0.417382
-0.407109
-0.397087
-0.3828
-0.363794
-0.340769
-0.314884
-0.287542
-0.260034
-0.233339
-0.208086
-0.184597
-0.162979
-0.143204
-0.125174
-0.10876
-0.0938181
-0.0802709
-0.0679058
-0.0560523
-0.421601
-0.411166
-0.401279
-0.3874
-0.369001
-0.346665
-0.321438
-0.294645
-0.267542
-0.241113
-0.21601
-0.192582
-0.170961
-0.151137
-0.133027
-0.116509
-0.101447
-0.0877603
-0.0752655
-0.0633613
-0.424975
-0.414401
-0.404655
-0.391191
-0.373416
-0.351803
-0.327282
-0.301093
-0.274455
-0.248351
-0.22345
-0.200129
-0.178545
-0.158709
-0.14055
-0.123958
-0.108802
-0.0950004
-0.0823892
-0.070396
-0.427531
-0.416841
-0.407241
-0.394195
-0.377056
-0.356194
-0.332422
-0.306891
-0.280777
-0.255053
-0.230406
-0.207238
-0.185733
-0.165919
-0.147743
-0.131105
-0.11588
-0.101987
-0.0892774
-0.0771899
-0.429297
-0.418515
-0.409065
-0.396437
-0.379944
-0.359855
-0.336869
-0.312047
-0.286511
-0.261223
-0.23688
-0.213912
-0.192524
-0.17277
-0.154608
-0.13795
-0.122681
-0.10872
-0.0959331
-0.0837712
-0.430305
-0.419456
-0.410158
-0.397947
-0.382102
-0.362804
-0.340637
-0.316568
-0.291663
-0.266863
-0.242876
-0.220152
-0.198922
-0.179261
-0.161145
-0.144496
-0.129208
-0.115199
-0.102358
-0.0901459
-0.430589
-0.419697
-0.410554
-0.398756
-0.383559
-0.365062
-0.343741
-0.320467
-0.296241
-0.271981
-0.248398
-0.225962
-0.20493
-0.185396
-0.167356
-0.150743
-0.13546
-0.121428
-0.108551
-0.0963118
-0.430184
-0.419275
-0.41029
-0.398897
-0.384343
-0.366653
-0.3462
-0.323756
-0.300254
-0.276582
-0.253451
-0.231347
-0.210551
-0.191179
-0.173244
-0.156694
-0.141441
-0.127408
-0.114515
-0.102268
-0.429129
-0.418228
-0.409402
-0.398407
-0.384488
-0.367605
-0.348035
-0.32645
-0.303713
-0.280675
-0.258041
-0.236312
-0.21579
-0.196614
-0.178814
-0.162353
-0.147154
-0.133141
-0.120252
-0.108016
-0.427464
-0.416597
-0.407932
-0.397324
-0.384027
-0.367947
-0.349268
-0.328567
-0.306632
-0.28427
-0.262177
-0.240864
-0.220653
-0.201705
-0.184069
-0.167724
-0.152601
-0.138631
-0.125764
-0.113558
-0.425229
-0.414422
-0.40592
-0.395687
-0.382997
-0.36771
-0.349926
-0.330127
-0.309024
-0.287378
-0.265867
-0.24501
-0.225146
-0.206459
-0.189016
-0.17281
-0.157787
-0.14388
-0.131053
-0.118896
-0.422468
-0.411746
-0.403408
-0.393539
-0.381437
-0.366928
-0.350035
-0.331152
-0.310907
-0.290011
-0.269121
-0.248758
-0.229277
-0.210881
-0.193659
-0.177618
-0.162716
-0.148894
-0.136124
-0.124034
-0.419223
-0.408611
-0.400439
-0.390921
-0.379387
-0.365636
-0.349626
-0.331664
-0.312298
-0.292184
-0.27195
-0.252117
-0.233053
-0.21498
-0.198005
-0.182152
-0.167394
-0.153675
-0.14098
-0.128973
-0.415537
-0.40506
-0.397056
-0.387877
-0.376887
-0.363872
-0.34873
-0.331689
-0.313217
-0.29391
-0.274366
-0.255098
-0.236483
-0.218762
-0.20206
-0.18642
-0.171825
-0.158229
-0.145625
-0.133716
-0.411455
-0.401137
-0.393304
-0.384449
-0.37398
-0.361673
-0.347381
-0.331254
-0.313686
-0.295207
-0.276382
-0.25771
-0.239575
-0.222235
-0.205833
-0.190427
-0.176016
-0.162562
-0.150063
-0.138269
-0.407018
-0.396883
-0.389224
-0.38068
-0.370707
-0.359079
-0.345612
-0.330388
-0.313725
-0.296092
-0.278011
-0.259964
-0.24234
-0.225408
-0.20933
-0.194181
-0.179973
-0.166677
-0.1543
-0.142635
-0.402272
-0.392342
-0.384859
-0.376615
-0.367112
-0.356131
-0.343459
-0.329121
-0.313361
-0.296584
-0.279267
-0.261873
-0.244787
-0.22829
-0.21256
-0.197688
-0.183702
-0.170582
-0.15834
-0.146817
-0.397258
-0.387553
-0.380251
-0.372294
-0.363236
-0.352869
-0.340961
-0.327484
-0.312618
-0.296703
-0.280167
-0.263449
-0.246927
-0.23089
-0.215531
-0.200956
-0.18721
-0.174283
-0.16219
-0.150821
-0.392017
-0.382558
-0.37544
-0.367759
-0.35912
-0.349332
-0.338152
-0.32551
-0.311523
-0.296469
-0.280728
-0.264704
-0.24877
-0.233217
-0.218251
-0.203993
-0.190504
-0.177785
-0.165854
-0.154652
-0.386589
-0.377394
-0.370464
-0.363049
-0.354805
-0.345562
-0.335072
-0.323232
-0.310104
-0.295906
-0.280965
-0.265654
-0.250327
-0.235281
-0.220729
-0.206808
-0.193591
-0.181095
-0.169338
-0.158313
-0.381012
-0.372098
-0.365361
-0.358203
-0.35033
-0.341596
-0.331757
-0.320683
-0.308389
-0.295036
-0.280898
-0.266311
-0.251611
-0.237091
-0.222973
-0.209407
-0.196479
-0.184221
-0.172649
-0.161812
-0.375322
-0.366704
-0.360165
-0.353257
-0.345733
-0.337474
-0.328245
-0.317898
-0.306409
-0.293883
-0.280545
-0.26669
-0.252633
-0.238658
-0.224993
-0.211799
-0.199175
-0.187168
-0.175794
-0.165153
-0.369555
-0.361247
-0.35491
-0.348244
-0.341048
-0.333232
-0.324572
-0.314911
-0.304192
-0.292472
-0.279926
-0.266808
-0.253405
-0.239992
-0.226798
-0.213992
-0.201687
-0.189944
-0.178777
-0.168341
-0.363743
-0.355756
-0.349625
-0.343196
-0.33631
-0.328904
-0.320773
-0.311756
-0.301769
-0.290829
-0.279061
-0.266679
-0.25394
-0.241103
-0.228395
-0.215994
-0.204023
-0.192555
-0.181606
-0.171382
-0.357916
-0.35026
-0.34434
-0.338142
-0.331549
-0.324524
-0.316882
-0.308466
-0.299171
-0.288979
-0.277973
-0.266322
-0.254251
-0.242001
-0.229795
-0.217813
-0.206189
-0.195009
-0.184288
-0.174283
-0.352103
-0.344785
-0.33908
-0.33311
-0.326795
-0.320122
-0.312932
-0.305072
-0.296427
-0.28695
-0.276682
-0.265751
-0.25435
-0.242697
-0.231006
-0.219457
-0.208192
-0.197313
-0.186827
-0.177048
-0.346328
-0.339355
-0.333868
-0.328123
-0.322072
-0.315727
-0.308952
-0.301606
-0.293568
-0.284767
-0.27521
-0.264987
-0.254253
-0.243202
-0.232036
-0.220934
-0.210041
-0.199472
-0.189232
-0.179685
-0.340616
-0.333991
-0.328726
-0.323203
-0.317404
-0.311364
-0.30497
-0.298097
-0.290622
-0.282458
-0.273581
-0.264046
-0.253972
-0.243527
-0.232895
-0.222251
-0.211742
-0.201495
-0.191509
-0.182199
-0.334988
-0.328713
-0.323671
-0.318369
-0.312813
-0.307056
-0.301013
-0.294573
-0.287617
-0.280047
-0.271818
-0.262947
-0.253522
-0.243682
-0.233591
-0.223416
-0.213303
-0.203388
-0.193663
-0.184597
-0.329462
-0.323536
-0.31872
-0.313637
-0.308314
-0.302824
-0.297103
-0.291058
-0.284578
-0.277562
-0.269942
-0.26171
-0.252919
-0.243679
-0.234133
-0.224436
-0.214729
-0.205156
-0.195701
-0.186886
-0.324055
-0.318477
-0.313887
-0.309021
-0.303925
-0.298686
-0.293261
-0.287576
-0.281532
-0.275026
-0.267977
-0.260353
-0.252178
-0.24353
-0.234531
-0.225319
-0.216027
-0.206807
-0.197629
-0.189072
-0.31878
-0.313546
-0.309183
-0.304533
-0.299658
-0.294655
-0.289504
-0.284148
-0.278501
-0.272462
-0.265945
-0.258897
-0.251314
-0.243248
-0.234792
-0.22607
-0.217203
-0.208347
-0.199454
-0.191164
-0.31365
-0.308755
-0.304618
-0.300183
-0.295522
-0.290745
-0.285848
-0.280792
-0.275505
-0.269894
-0.263868
-0.25736
-0.250343
-0.242843
-0.234927
-0.226699
-0.218264
-0.209781
-0.308674
-0.304112
-0.3002
-0.295977
-0.291527
-0.286965
-0.282304
-0.277523
-0.272563
-0.26734
-0.261765
-0.255761
-0.249283
-0.24233
-0.234945
-0.227211
-0.219215
-0.303861
-0.299624
-0.295933
-0.291921
-0.287677
-0.283323
-0.278884
-0.274354
-0.269691
-0.264821
-0.259658
-0.25412
-0.248148
-0.24172
-0.234855
-0.299217
-0.295295
-0.291824
-0.28802
-0.283978
-0.279823
-0.275594
-0.271296
-0.266902
-0.262351
-0.257562
-0.252453
-0.246955
-0.241028
-0.294747
-0.29113
-0.287873
-0.284274
-0.280431
-0.276471
-0.272439
-0.268357
-0.264209
-0.259945
-0.255496
-0.250779
-0.290453
-0.287129
-0.284083
-0.280686
-0.277038
-0.273266
-0.269425
-0.265544
-0.26162
-0.257617
-0.253473
-0.286337
-0.283295
-0.280453
-0.277254
-0.273798
-0.27021
-0.26655
-0.262859
-0.259141
-0.255374
-0.2824
-0.279627
-0.276983
-0.273977
-0.270709
-0.267301
-0.263817
-0.260304
-0.256778
-0.27864
-0.276123
-0.273671
-0.270854
-0.267769
-0.264536
-0.261223
-0.257881
-0.275057
-0.272781
-0.270514
-0.26788
-0.264975
-0.261914
-0.258766
-0.271647
-0.269599
-0.267508
-0.265052
-0.262322
-0.259429
-0.268406
-0.266573
-0.264651
-0.262366
-0.259806
-0.265331
-0.263698
-0.261937
-0.259817
-0.262417
-0.26097
-0.259361
-0.259657
-0.258383
-0.257047
-0.255932
-0.254579
-0.129171
-0.133307
-0.137294
-0.141136
-0.144836
-0.148398
-0.151826
-0.155123
-0.158293
-0.161339
-0.164265
-0.167074
-0.169767
-0.172348
-0.174819
-0.17718
-0.115222
-0.119199
-0.12306
-0.126809
-0.130448
-0.13398
-0.137408
-0.140735
-0.143963
-0.147097
-0.150138
-0.153089
-0.155954
-0.158736
-0.161438
-0.164064
-0.102881
-0.106694
-0.110417
-0.114053
-0.117604
-0.121071
-0.124458
-0.127767
-0.131001
-0.134162
-0.137252
-0.140275
-0.143233
-0.146129
-0.148966
-0.151748
-0.0921004
-0.0957356
-0.0993009
-0.102798
-0.10623