/*--------------------------------*- C++ -*----------------------------------*\
  =========                 |
  \\      /  F ield         | OpenFOAM: The Open Source CFD Toolbox
   \\    /   O peration     | Website:  https://openfoam.org
    \\  /    A nd           | Version:  7
     \\/     M anipulation  |
\*---------------------------------------------------------------------------*/
FoamFile
{
    version     2.0;
    format      ascii;
    class       volVectorField;
    location    "90";
    object      U;
}
// * * * * * * * * * * * * * * * * * * * * * * * * * * * * * * * * * * * * * //

dimensions      [0 1 -1 0 0 0 0];

internalField   nonuniform List<vector> 
34000
(
(-0.000205041 -0.0130502 -1.23761e-21)
(-0.00182979 -0.038958 -6.65135e-21)
(-0.00548725 -0.0645171 8.115e-22)
(-0.0105291 -0.0889228 -1.41842e-21)
(-0.0167516 -0.111573 2.16374e-21)
(-0.0239604 -0.132098 -1.59661e-20)
(-0.0319513 -0.150362 2.74825e-21)
(-0.0405251 -0.166449 -1.08299e-20)
(-0.0494833 -0.180628 -2.3304e-20)
(-0.0586329 -0.193289 1.99592e-20)
(-0.0677949 -0.204883 5.94876e-21)
(-0.0768139 -0.215854 -7.15873e-21)
(-0.0855654 -0.226595 8.81434e-21)
(-0.093961 -0.237417 1.20985e-20)
(-0.101947 -0.248535 -7.66514e-21)
(-0.109499 -0.260075 -1.04131e-20)
(-0.116614 -0.272084 -2.51027e-20)
(-0.123304 -0.284536 -1.95738e-21)
(-0.129548 -0.297338 -4.32213e-21)
(-0.135312 -0.310361 -8.63837e-21)
(-1.85506e-05 -0.0123351 -6.05463e-21)
(-0.00142425 -0.0370945 5.05994e-21)
(-0.00511155 -0.0617197 -5.95417e-21)
(-0.0103389 -0.0853601 -1.33978e-20)
(-0.0168709 -0.107391 1.09712e-20)
(-0.0244854 -0.127428 6.66435e-20)
(-0.0329519 -0.145327 -4.11129e-20)
(-0.04205 -0.161169 6.95381e-21)
(-0.0515647 -0.175215 3.36274e-20)
(-0.0612914 -0.187847 2.08497e-23)
(-0.0710452 -0.199503 2.00935e-20)
(-0.0806703 -0.210609 -2.66867e-20)
(-0.0900481 -0.221539 2.8052e-20)
(-0.0991004 -0.232583 -2.41683e-20)
(-0.107788 -0.243938 -9.46304e-21)
(-0.116106 -0.255718 4.77775e-20)
(-0.12407 -0.26796 -1.51401e-20)
(-0.131711 -0.280639 2.32344e-21)
(-0.139031 -0.293668 -2.86708e-20)
(-0.146028 -0.306919 -3.14678e-21)
(0.000136781 -0.0115259 -4.69246e-20)
(-0.00109323 -0.0349997 6.09161e-21)
(-0.00483356 -0.0585966 9.35776e-21)
(-0.0102535 -0.0814101 4.11988e-20)
(-0.0170881 -0.102786 -4.80238e-20)
(-0.025088 -0.12232 -7.48689e-20)
(-0.0339982 -0.139854 6.82962e-20)
(-0.0435782 -0.15546 -1.87433e-20)
(-0.0535973 -0.169387 -9.35527e-21)
(-0.0638401 -0.182004 -4.78106e-20)
(-0.0741164 -0.193733 1.31855e-20)
(-0.0842705 -0.20498 4.70357e-20)
(-0.0941889 -0.216096 -9.56241e-21)
(-0.103803 -0.22735 3.89212e-20)
(-0.11309 -0.238922 -3.23168e-20)
(-0.122059 -0.250909 -9.75899e-21)
(-0.130747 -0.263343 7.73343e-20)
(-0.139203 -0.276199 -4.83588e-21)
(-0.147451 -0.289399 1.22567e-19)
(-0.155512 -0.302821 -2.96162e-20)
(0.00025641 -0.0106275 7.68081e-20)
(-0.000845858 -0.0326868 -3.4478e-20)
(-0.00466243 -0.0551666 -2.4002e-20)
(-0.0102798 -0.0770964 -1.82296e-20)
(-0.0174055 -0.0977852 3.37931e-20)
(-0.0257658 -0.116804 -6.48926e-21)
(-0.0350825 -0.133975 -1.14482e-19)
(-0.0450965 -0.149354 -1.21876e-20)
(-0.0555627 -0.163175 -2.52422e-20)
(-0.066256 -0.175792 -4.17856e-21)
(-0.0769811 -0.187604 -4.43034e-20)
(-0.0875823 -0.198997 5.04451e-20)
(-0.097951 -0.210298 -7.48385e-20)
(-0.108028 -0.221753 -2.29729e-21)
(-0.117802 -0.23352 2.05572e-20)
(-0.127301 -0.245685 -1.60252e-19)
(-0.136579 -0.258271 -1.29736e-19)
(-0.145706 -0.271255 7.06968e-20)
(-0.154722 -0.284572 -9.49472e-20)
(-0.163666 -0.298105 2.43141e-21)
(0.000336253 -0.00964584 -1.0284e-20)
(-0.000690276 -0.0301702 1.36331e-19)
(-0.00460617 -0.0514509 6.40847e-20)
(-0.0104231 -0.0724446 -4.17295e-21)
(-0.0178247 -0.0924185 1.72168e-20)
(-0.0265153 -0.110912 2.49825e-21)
(-0.0361961 -0.127722 5.86986e-20)
(-0.0465912 -0.142884 6.97322e-20)
(-0.0574425 -0.156614 2.9722e-20)
(-0.068516 -0.169243 1.05134e-19)
(-0.0796119 -0.181149 -1.21637e-19)
(-0.0905744 -0.192694 -2.5621e-20)
(-0.101299 -0.204178 5.42418e-20)
(-0.111734 -0.215824 -9.50019e-20)
(-0.12188 -0.22777 4.35119e-20)
(-0.13178 -0.240084 1.00854e-19)
(-0.141507 -0.252784 2.40666e-20)
(-0.151149 -0.265849 3.51997e-20)
(-0.160764 -0.279228 -5.62307e-20)
(-0.170398 -0.292812 6.42195e-21)
(0.000372698 -0.00858812 -5.03345e-20)
(-0.000633494 -0.0274677 3.23285e-20)
(-0.00467125 -0.0474743 -5.2376e-20)
(-0.0106872 -0.0674845 1.53252e-20)
(-0.0183453 -0.086718 4.28147e-20)
(-0.0273316 -0.104677 1.94471e-20)
(-0.0373293 -0.121129 3.71026e-20)
(-0.048048 -0.136084 -2.5933e-20)
(-0.059218 -0.149735 -1.61186e-19)
(-0.0705974 -0.162389 -1.44803e-19)
(-0.0819821 -0.1744 -9.45205e-20)
(-0.0932159 -0.186102 3.57592e-20)
(-0.104197 -0.19777 -2.04399e-20)
(-0.114881 -0.2096 1.56482e-19)
(-0.125279 -0.221709 -5.6484e-20)
(-0.135445 -0.234148 4.63615e-20)
(-0.145471 -0.246927 6.74058e-20)
(-0.155465 -0.260027 -3.79852e-20)
(-0.165499 -0.273414 3.3391e-19)
(-0.175621 -0.286986 -1.26843e-19)
(0.000362744 -0.00746261 6.1105e-20)
(-0.000681177 -0.0245992 -7.71689e-20)
(-0.00486251 -0.0432641 -1.18662e-19)
(-0.0110742 -0.0622483 -3.12556e-20)
(-0.0189657 -0.0807187 1.38426e-20)
(-0.0282085 -0.0981354 2.14135e-20)
(-0.0384714 -0.114233 7.18566e-20)
(-0.0494516 -0.12899 1.60663e-20)
(-0.0608697 -0.142573 5.01548e-21)
(-0.0724768 -0.155264 2.60228e-19)
(-0.0840648 -0.167389 1.96135e-19)
(-0.0954764 -0.179254 -1.1818e-19)
(-0.106612 -0.191107 -1.74151e-20)
(-0.117431 -0.203117 -4.7128e-20)
(-0.127954 -0.215376 4.68188e-20)
(-0.138247 -0.227919 -2.48835e-19)
(-0.148415 -0.240744 -5.24095e-20)
(-0.158591 -0.253837 -7.83908e-20)
(-0.168854 -0.267177 -1.90122e-19)
(-0.179253 -0.280675 1.0484e-19)
(0.000304062 -0.00627863 1.02453e-20)
(-0.000837508 -0.0215867 -3.78001e-20)
(-0.00518295 -0.0388507 1.07205e-19)
(-0.0115843 -0.0567711 -6.61893e-20)
(-0.0196824 -0.0744582 -3.72044e-20)
(-0.0291385 -0.0913258 5.95439e-20)
(-0.0396105 -0.10707 -1.00557e-19)
(-0.0507861 -0.121637 -1.35946e-20)
(-0.0623779 -0.135163 1.91941e-19)
(-0.0741308 -0.147901 -1.23096e-19)
(-0.0858331 -0.160148 -5.07798e-20)
(-0.0973256 -0.172182 5.98567e-20)
(-0.108509 -0.184222 -1.58248e-20)
(-0.119347 -0.196409 -8.20254e-21)
(-0.129864 -0.208811 6.86896e-20)
(-0.140137 -0.22144 -1.83776e-19)
(-0.150286 -0.234284 6.36218e-20)
(-0.160464 -0.247328 -4.88066e-20)
(-0.17076 -0.260568 -1.09796e-19)
(-0.181215 -0.273928 3.99577e-20)
(0.00019507 -0.00504639 -2.86817e-20)
(-0.00110505 -0.0184542 2.07925e-19)
(-0.00563365 -0.0342664 -4.62273e-20)
(-0.0122159 -0.05109 2.84614e-20)
(-0.0204901 -0.0679756 2.06755e-19)
(-0.0301124 -0.0842876 -1.40267e-19)
(-0.0407337 -0.0996799 -6.94227e-20)
(-0.0520347 -0.114063 -1.21076e-19)
(-0.063722 -0.12754 -1.32922e-19)
(-0.0755356 -0.140334 -8.82892e-20)
(-0.0872598 -0.152711 -1.19956e-19)
(-0.0987332 -0.16492 2.18377e-19)
(-0.109856 -0.17715 -2.39317e-20)
(-0.120591 -0.189514 -5.16069e-20)
(-0.130968 -0.202052 -2.6988e-19)
(-0.141071 -0.214756 1.51264e-19)
(-0.151031 -0.227595 3.72294e-20)
(-0.161026 -0.240554 9.51915e-20)
(-0.17115 -0.253641 6.47294e-20)
(-0.18143 -0.266794 -1.75286e-19)
(3.49965e-05 -0.00377685 -8.94838e-20)
(-0.00148464 -0.0152273 1.21903e-19)
(-0.00621361 -0.0295455 6.88957e-20)
(-0.0129652 -0.0452443 3.1442e-20)
(-0.0213818 -0.0613124 2.67689e-20)
(-0.0311196 -0.077062 -9.46679e-20)
(-0.0418266 -0.0921023 2.05326e-19)
(-0.0531796 -0.106305 1.1404e-20)
(-0.064881 -0.119739 1.91969e-19)
(-0.0766667 -0.132595 -1.12805e-19)
(-0.0883174 -0.145107 1.81442e-19)
(-0.0996684 -0.157497 -1.81e-19)
(-0.110617 -0.169922 -1.63318e-19)
(-0.121126 -0.182466 1.40221e-19)
(-0.131224 -0.19514 4.99151e-19)
(-0.141 -0.20791 -2.76955e-19)
(-0.150598 -0.220726 2.28026e-19)
(-0.160217 -0.233566 5.29386e-20)
(-0.169955 -0.24645 -1.98571e-19)
(-0.179823 -0.259326 1.68394e-19)
(-0.000176075 -0.00248159 1.62932e-19)
(-0.00197528 -0.0119329 -9.3256e-20)
(-0.00691972 -0.0247242 3.23521e-20)
(-0.0138264 -0.0392749 1.21059e-19)
(-0.0223484 -0.0545111 -1.11647e-19)
(-0.0321479 -0.0696912 2.20697e-19)
(-0.0428738 -0.0843778 -4.01169e-20)
(-0.0542022 -0.0984022 5.01782e-21)
(-0.065833 -0.111797 -2.65686e-19)
(-0.0774992 -0.124718 1.68626e-19)
(-0.0889777 -0.137371 3.95155e-20)
(-0.1001 -0.149944 -5.28144e-20)
(-0.110759 -0.162569 6.56608e-20)
(-0.120914 -0.175298 -2.60472e-19)
(-0.130591 -0.188112 -1.45212e-19)
(-0.139881 -0.200947 3.08114e-19)
(-0.148935 -0.213727 -1.72781e-19)
(-0.157979 -0.22642 -2.4748e-19)
(-0.167111 -0.239052 4.60183e-19)
(-0.176318 -0.251578 -3.07279e-22)
(-0.00043718 -0.00117265 1.37112e-19)
(-0.00257415 -0.00859891 -1.72706e-19)
(-0.00774672 -0.0198397 -1.8128e-19)
(-0.0147914 -0.0332238 -8.6889e-20)
(-0.0233795 -0.0476155 -1.26591e-19)
(-0.0331837 -0.0622186 -7.17723e-20)
(-0.0438588 -0.0765479 -3.06166e-19)
(-0.0550828 -0.0903926 3.75942e-20)
(-0.0665554 -0.103748 -1.31678e-19)
(-0.0780072 -0.116736 4.62959e-19)
(-0.0892121 -0.129531 -2.70504e-19)
(-0.0999964 -0.142293 1.66121e-19)
(-0.110247 -0.155123 -5.10681e-20)
(-0.119917 -0.168044 2.83692e-19)
(-0.129027 -0.181005 2.37006e-20)
(-0.137666 -0.193908 -2.45893e-19)
(-0.145992 -0.206648 -4.46774e-20)
(-0.154254 -0.219172 1.02754e-20)
(-0.162551 -0.231504 -1.82977e-20)
(-0.17084 -0.243605 3.16106e-19)
(-0.000746457 0.000137618 -1.7049e-19)
(-0.00327655 -0.00525396 -1.65885e-19)
(-0.00868724 -0.01493 6.91819e-20)
(-0.0158505 -0.0271341 1.73879e-19)
(-0.0244624 -0.0406703 -1.28491e-20)
(-0.034212 -0.0546882 -1.21178e-19)
(-0.0447639 -0.0686546 2.70139e-19)
(-0.0558011 -0.0823158 -3.08406e-20)
(-0.0670248 -0.0956287 3.32716e-19)
(-0.0781646 -0.108682 -3.71466e-19)
(-0.0889909 -0.121619 9.82077e-20)
(-0.0993244 -0.134571 1.17678e-19)
(-0.109045 -0.147611 -3.41426e-21)
(-0.118096 -0.160733 -2.08114e-21)
(-0.12649 -0.173853 -2.27339e-19)
(-0.13431 -0.186835 3.05474e-20)
(-0.141717 -0.199536 3.06384e-19)
(-0.148984 -0.211877 3.95332e-19)
(-0.156212 -0.223867 -4.6929e-19)
(-0.163313 -0.235463 -3.03245e-19)
(-0.00110117 0.00143676 7.18612e-20)
(-0.00407595 -0.0019269 1.10407e-19)
(-0.00973181 -0.0100338 1.36029e-19)
(-0.0169917 -0.0210494 -2.30257e-19)
(-0.0255831 -0.0337206 2.43267e-19)
(-0.0352166 -0.0471447 2.32897e-19)
(-0.0455706 -0.0607404 -9.10717e-20)
(-0.056336 -0.0742114 4.03112e-19)
(-0.0672175 -0.0874761 -4.10415e-19)
(-0.0779444 -0.10059 1.83306e-19)
(-0.0882839 -0.113665 1.87204e-19)
(-0.0980507 -0.126807 -1.41605e-20)
(-0.107115 -0.140062 2.93306e-21)
(-0.11541 -0.153394 2.46131e-20)
(-0.122936 -0.166687 -1.79854e-19)
(-0.129766 -0.179765 1.7817e-19)
(-0.136059 -0.192439 -9.13823e-20)
(-0.142113 -0.204591 -2.06217e-19)
(-0.148027 -0.216202 2.67224e-19)
(-0.15366 -0.22721 5.64633e-20)
(-0.00149771 0.00271239 -4.13099e-20)
(-0.00496406 0.00135348 5.20516e-20)
(-0.010869 -0.00518953 -1.1374e-19)
(-0.0182013 -0.0150132 -1.7102e-19)
(-0.026726 -0.026812 -1.76753e-19)
(-0.0361801 -0.0396329 -1.60221e-19)
(-0.0462596 -0.0528484 2.634e-19)
(-0.0566659 -0.0661195 -1.32753e-19)
(-0.0671091 -0.0793268 1.06986e-19)
(-0.0773192 -0.092492 1.27631e-20)
(-0.0870604 -0.1057 -2.97458e-20)
(-0.0961407 -0.119028 7.50343e-20)
(-0.10442 -0.1325 -1.45183e-19)
(-0.111818 -0.146053 7.53773e-20)
(-0.11832 -0.159537 2.47328e-19)
(-0.123985 -0.172733 -3.636e-19)
(-0.128966 -0.1854 -2.32586e-19)
(-0.133583 -0.197367 3.06283e-19)
(-0.137935 -0.20857 -1.78571e-19)
(-0.141805 -0.218908 -2.80395e-19)
(-0.00193167 0.00395237 1.5394e-19)
(-0.00593093 0.00455882 -1.58294e-19)
(-0.0120856 -0.000435349 1.28242e-19)
(-0.0194641 -0.00906902 2.07379e-19)
(-0.0278743 -0.0199898 -3.86602e-20)
(-0.0370842 -0.0321981 -1.38745e-19)
(-0.0468107 -0.0450218 -2.58258e-19)
(-0.0567688 -0.0580806 -1.97526e-19)
(-0.066675 -0.071218 -4.02126e-19)
(-0.0762614 -0.084423 4.18256e-20)
(-0.0852891 -0.0977523 -3.69988e-20)
(-0.0935592 -0.111261 -2.89417e-19)
(-0.10092 -0.12495 2.53408e-19)
(-0.107277 -0.138733 3.10533e-19)
(-0.112596 -0.152427 -1.58252e-20)
(-0.116919 -0.165769 1.90485e-19)
(-0.120386 -0.178457 -9.72101e-20)
(-0.123338 -0.190258 1.63528e-20)
(-0.125874 -0.201035 2.73801e-19)
(-0.127675 -0.21062 6.57702e-19)
(-0.00239792 0.00514501 -6.63405e-20)
(-0.00696508 0.00766163 -4.747e-20)
(-0.0133667 0.00419146 1.32653e-19)
(-0.0207631 -0.00325956 -1.86376e-19)
(-0.0290099 -0.013299 -4.89545e-20)
(-0.0379097 -0.0248851 2.90277e-19)
(-0.0472039 -0.0373041 -6.93111e-20)
(-0.0566226 -0.0501359 -2.01196e-19)
(-0.0658908 -0.0631876 3.27391e-19)
(-0.0747432 -0.0764168 -8.74398e-20)
(-0.0829386 -0.0898541 6.45482e-20)
(-0.0902706 -0.103533 3.55781e-19)
(-0.0965759 -0.117435 -4.95595e-19)
(-0.101742 -0.131453 -1.35523e-19)
(-0.105715 -0.145376 -2.69747e-19)
(-0.108516 -0.158895 5.47663e-19)
(-0.110266 -0.171645 1.75515e-20)
(-0.111322 -0.183309 3.02843e-19)
(-0.111787 -0.193658 -1.07669e-19)
(-0.1112 -0.202411 -6.24601e-19)
(-0.00289064 0.00627925 -1.55727e-19)
(-0.00805373 0.0106356 2.26849e-19)
(-0.014696 0.00865491 2.89208e-21)
(-0.0220803 0.00237355 -2.51281e-21)
(-0.030114 -0.00678383 2.3944e-19)
(-0.0386372 -0.0177389 1.73122e-19)
(-0.0474185 -0.0297391 -7.11577e-21)
(-0.0562053 -0.042327 5.23715e-19)
(-0.0647323 -0.0552745 2.01689e-19)
(-0.0727375 -0.0685089 -3.72977e-19)
(-0.0799776 -0.0820364 1.71466e-20)
(-0.0862391 -0.095871 -1.12036e-20)
(-0.0913461 -0.109978 5.28424e-19)
(-0.0951679 -0.124234 -5.93896e-19)
(-0.09763 -0.138402 1.6328e-19)
(-0.0987256 -0.152132 7.43723e-21)
(-0.0985542 -0.164988 -4.20831e-19)
(-0.0974818 -0.176562 -4.35709e-19)
(-0.0956221 -0.186499 -5.1156e-20)
(-0.092318 -0.19435 6.3618e-19)
(-0.0034035 0.00734485 5.10358e-20)
(-0.00918295 0.0134561 -1.61562e-19)
(-0.0160559 0.0129208 1.57243e-19)
(-0.0233967 0.00779014 -2.36144e-19)
(-0.031167 -0.000487602 2.94998e-19)
(-0.0392468 -0.0108034 -4.95039e-19)
(-0.0474342 -0.0223704 -1.23317e-19)
(-0.0554955 -0.0346958 -2.73682e-19)
(-0.0631759 -0.0475182 -1.29742e-19)
(-0.0702178 -0.0607359 2.32611e-19)
(-0.0763759 -0.0743316 4.78265e-19)
(-0.0814297 -0.0883026 -5.39138e-19)
(-0.0851906 -0.102601 -2.01811e-19)
(-0.0875098 -0.117091 7.37378e-19)
(-0.0882896 -0.131516 -2.69582e-19)
(-0.0874952 -0.145489 -3.87731e-19)
(-0.0851968 -0.158503 4.91675e-19)
(-0.0817655 -0.170047 1.02899e-19)
(-0.0773331 -0.17961 9.98707e-20)
(-0.0709723 -0.186504 -4.09227e-19)
(-0.00392973 0.00833256 2.0192e-20)
(-0.010338 0.0161004 -8.46781e-20)
(-0.0174282 0.0169569 2.77192e-19)
(-0.0246927 0.012952 -3.59746e-19)
(-0.032149 0.00554796 -2.96807e-19)
(-0.039719 -0.00412205 1.87552e-19)
(-0.0472314 -0.0152414 5.26488e-19)
(-0.0544725 -0.0272848 -3.33931e-19)
(-0.0611994 -0.0399594 8.1714e-20)
(-0.0671589 -0.0531356 -1.62172e-19)
(-0.0721045 -0.0667743 -6.58792e-19)
(-0.0758084 -0.0808575 4.00069e-19)
(-0.07807 -0.0953281 3.26669e-19)
(-0.0787225 -0.110042 -5.78372e-19)
(-0.0776443 -0.124729 1.34567e-19)
(-0.0747721 -0.138971 5.42231e-19)
(-0.0701416 -0.152198 2.15399e-19)
(-0.0641228 -0.163784 7.49263e-20)
(-0.0568813 -0.173036 -4.35571e-19)
(-0.0471175 -0.178942 -2.12114e-19)
(-0.00446226 0.00923428 -1.38261e-19)
(-0.0115033 0.0185481 -2.55713e-19)
(-0.0187938 0.0207338 -1.46794e-19)
(-0.0259482 0.0178232 1.94838e-19)
(-0.0330403 0.0112829 -1.15334e-20)
(-0.0400343 0.00226289 4.42084e-19)
(-0.0467908 -0.00839522 -4.11194e-20)
(-0.0531169 -0.020137 4.89036e-20)
(-0.0587819 -0.0326398 3.23122e-19)
(-0.0635376 -0.0457477 4.10388e-19)
(-0.0671362 -0.0594009 -2.00485e-20)
(-0.0693435 -0.0735677 -9.13544e-20)
(-0.0699468 -0.0881842 -5.38891e-19)
(-0.0687622 -0.103103 4.05209e-19)
(-0.0656452 -0.118048 -3.6598e-20)
(-0.060504 -0.132579 -2.43485e-19)
(-0.0533368 -0.146068 -1.21994e-18)
(-0.0445057 -0.157777 4.31624e-19)
(-0.0342362 -0.166812 2.11788e-20)
(-0.020715 -0.171735 -2.64052e-19)
(-0.00499391 0.0100432 1.28563e-19)
(-0.0126634 0.0207813 3.34769e-19)
(-0.0201336 0.0242249 -2.5572e-19)
(-0.0271431 0.0223707 -1.24578e-19)
(-0.0338209 0.0166794 1.0387e-19)
(-0.0401738 0.00831072 -2.51572e-19)
(-0.0460941 -0.00187421 -4.70742e-19)
(-0.0514104 -0.0132951 2.79946e-19)
(-0.0559043 -0.0256021 -3.14465e-20)
(-0.0593327 -0.0386137 -6.50112e-19)
(-0.0614468 -0.0522504 1.24394e-19)
(-0.062006 -0.0664681 7.13396e-20)
(-0.0607865 -0.0811982 -1.24884e-19)
(-0.0575882 -0.0962937 3.29769e-19)
(-0.0522456 -0.11148 6.45111e-19)
(-0.0446403 -0.126307 -4.20671e-19)
(-0.034732 -0.140099 3.38502e-19)
(-0.0228696 -0.152011 8.51352e-20)
(-0.00938159 -0.160953 4.71666e-19)
(0.00826333 -0.16495 2.12163e-19)
(-0.0055175 0.0107539 -1.41207e-19)
(-0.0138024 0.0227851 -1.54702e-20)
(-0.0214284 0.0274069 3.63104e-19)
(-0.0282575 0.0265643 3.61944e-19)
(-0.0344718 0.0217023 -7.45637e-20)
(-0.0401194 0.0139826 -4.69672e-20)
(-0.0451245 0.00428032 4.75543e-19)
(-0.0493365 -0.00680213 -3.70937e-19)
(-0.0525495 -0.0188895 1.14471e-19)
(-0.0545256 -0.0317764 4.74503e-19)
(-0.0550148 -0.0453642 4.58246e-19)
(-0.0537706 -0.0595969 1.81323e-19)
(-0.0505586 -0.0744027 7.90061e-19)
(-0.0451642 -0.0896386 -1.08179e-19)
(-0.0374029 -0.105038 -8.407e-19)
(-0.0271334 -0.120151 4.13415e-19)
(-0.0142787 -0.13427 -2.23289e-19)
(0.000827609 -0.146456 -5.12238e-19)
(0.017679 -0.15544 -3.61735e-19)
(0.0397758 -0.158507 -3.62736e-19)
(-0.00602602 0.0113624 9.09688e-20)
(-0.0149048 0.0245477 1.91742e-19)
(-0.0226595 0.0302602 -1.32646e-19)
(-0.0292718 0.0303777 -1.65377e-19)
(-0.0349742 0.0263196 -1.7356e-19)
(-0.0398539 0.019242 -4.66452e-20)
(-0.0438658 0.0100285 -4.93285e-19)
(-0.04688 -0.000700078 2.53803e-19)
(-0.0487026 -0.0125457 -2.35351e-19)
(-0.0491004 -0.0252802 -4.00647e-19)
(-0.0478225 -0.0387861 1.48506e-20)
(-0.0446162 -0.0529959 -1.02743e-18)
(-0.0392376 -0.0678349 -8.00192e-19)
(-0.0314591 -0.0831664 2.55466e-19)
(-0.0210803 -0.0987369 1.28218e-19)
(-0.00794084 -0.114107 -2.78034e-19)
(0.00806936 -0.128556 1.07383e-18)
(0.0266391 -0.14107 -1.67745e-19)
(0.0470007 -0.150208 4.528e-19)
(0.0736157 -0.152017 4.04374e-19)
(-0.0065128 0.0118664 -1.24808e-19)
(-0.015956 0.0260603 -4.15643e-19)
(-0.0238087 0.032769 1.33105e-19)
(-0.0301675 0.0337881 7.53357e-21)
(-0.0353104 0.0305025 5.66765e-19)
(-0.039361 0.0240551 -3.4001e-19)
(-0.0423035 0.0153326 1.86579e-19)
(-0.0440275 0.00496999 2.69795e-19)
(-0.0443506 -0.00661417 -2.09432e-20)
(-0.0430441 -0.0191702 1.67669e-19)
(-0.0398556 -0.032562 5.1585e-19)
(-0.0345264 -0.0467101 1.08146e-18)
(-0.0268037 -0.0615366 8.75278e-20)
(-0.0164489 -0.076912 -4.83805e-19)
(-0.00324868 -0.0925993 8.77405e-20)
(0.0129712 -0.108181 8.60656e-19)
(0.0323478 -0.122939 -5.82324e-19)
(0.0546156 -0.135817 2.11175e-21)
(0.0788501 -0.145208 4.42753e-19)
(0.109969 -0.145814 -2.74224e-19)
(-0.00697165 0.0122651 -1.20563e-19)
(-0.0169417 0.0273179 4.93917e-19)
(-0.0248589 0.0349216 -3.772e-19)
(-0.0309268 0.0367772 -7.73335e-20)
(-0.0354632 0.0342262 -1.31165e-19)
(-0.0386253 0.0283916 -3.43364e-19)
(-0.0404239 0.0201573 3.42092e-19)
(-0.0407669 0.0101688 -1.1252e-19)
(-0.0394825 -0.00113736 -2.04635e-19)
(-0.0363458 -0.0134913 3.36377e-19)
(-0.0311027 -0.0267386 -3.91597e-19)
(-0.0234886 -0.0407869 -1.26253e-19)
(-0.0132426 -0.055554 -1.39811e-20)
(-0.000116623 -0.0709167 3.41324e-19)
(0.0161117 -0.0866564 -3.10198e-19)
(0.035625 -0.102385 -5.84036e-19)
(0.0585753 -0.11741 -1.8093e-19)
(0.0847335 -0.130668 -2.58028e-19)
(0.113073 -0.140436 -7.80677e-19)
(0.14912 -0.14028 -2.30911e-19)
(-0.00739699 0.0125592 1.71892e-19)
(-0.0178492 0.0283184 -2.16674e-19)
(-0.0257942 0.0367107 -2.73974e-19)
(-0.0315328 0.039331 -2.59105e-19)
(-0.0354167 0.0374701 8.61457e-20)
(-0.037632 0.0322246 4.73281e-20)
(-0.0382139 0.0244706 1.22763e-19)
(-0.0370866 0.0148598 -3.20615e-19)
(-0.034088 0.00384412 2.49432e-19)
(-0.0289962 -0.00828764 -7.53393e-19)
(-0.021555 -0.0213627 -3.79648e-19)
(-0.011494 -0.0352749 7.11686e-21)
(0.00145533 -0.0499358 3.41278e-19)
(0.017548 -0.0652266 -2.24759e-19)
(0.0370119 -0.0809465 5.74781e-19)
(0.0600309 -0.0967406 -1.40459e-19)
(0.0867612 -0.11196 1.81322e-19)
(0.117005 -0.125561 6.86671e-19)
(0.149541 -0.135767 8.94254e-20)
(0.190858 -0.135053 4.33225e-19)
(-0.00778397 0.012751 -3.63513e-19)
(-0.0186668 0.0290633 2.9441e-19)
(-0.0266 0.0381331 3.29823e-19)
(-0.0319699 0.0414401 -1.93211e-19)
(-0.0351556 0.0402182 3.30956e-19)
(-0.0363671 0.0355319 3.2002e-19)
(-0.0356608 0.0282442 -5.75689e-20)
(-0.0329756 0.0190097 -1.1125e-19)
(-0.0281573 0.00829261 -3.03749e-19)
(-0.0209866 -0.00360066 1.41182e-19)
(-0.0112046 -0.0164791 1.356e-20)
(0.00146463 -0.0302217 -3.79192e-19)
(0.0172962 -0.0447315 2.86766e-19)
(0.0365501 -0.0598908 -2.25335e-19)
(0.0594552 -0.075514 -4.0832e-19)
(0.0861889 -0.0912802 -5.35525e-19)
(0.116899 -0.106595 1.3029e-19)
(0.151423 -0.120462 1.82809e-19)
(0.188234 -0.131166 -1.71838e-19)
(0.235031 -0.129947 7.17906e-19)
(-0.00812857 0.012844 -2.88904e-19)
(-0.0193845 0.0295573 -2.7112e-19)
(-0.0272631 0.0391899 2.14976e-19)
(-0.0322237 0.0431001 1.25006e-19)
(-0.0346651 0.0424596 5.18971e-20)
(-0.0348164 0.038296 -9.46745e-20)
(-0.0327516 0.0314549 -6.63938e-20)
(-0.0284218 0.0225897 1.5368e-19)
(-0.0216796 0.0121745 -1.46547e-19)
(-0.0123072 0.000531837 1.18057e-18)
(-4.29268e-05 -0.0121295 8.67218e-20)
(0.0153946 -0.0256723 -1.35263e-19)
(0.0342857 -0.0399886 -8.87862e-19)
(0.0568925 -0.0549583 1.71083e-19)
(0.0834401 -0.0704057 -4.42908e-19)
(0.114091 -0.0860418 2.92087e-19)
(0.148969 -0.101333 2.68592e-19)
(0.187949 -0.115346 -1.01601e-18)
(0.229106 -0.126574 -3.14196e-19)
(0.281524 -0.124854 -1.07248e-18)
(-0.00842764 0.0128434 1.39458e-19)
(-0.0199938 0.0298081 2.81533e-19)
(-0.0277718 0.0398864 -5.08299e-19)
(-0.0322807 0.044311 -3.90299e-19)
(-0.033931 0.0441883 1.99547e-19)
(-0.0329655 0.0405045 1.87329e-19)
(-0.0294722 0.0340842 -3.90777e-19)
(-0.0234116 0.0255761 -3.55251e-20)
(-0.0146418 0.0154616 2.10176e-20)
(-0.00294551 0.00407749 -3.55675e-19)
(0.0119418 -0.00834988 5.22587e-19)
(0.0303062 -0.0216661 2.54674e-21)
(0.0524317 -0.0357496 6.68242e-19)
(0.078579 -0.0504735 4.54944e-19)
(0.108964 -0.0656667 7.58489e-20)
(0.143724 -0.0810656 9.65055e-19)
(0.182942 -0.0961971 -8.74702e-19)
(0.226529 -0.110199 4.03429e-19)
(0.272081 -0.121921 3.12343e-19)
(0.330191 -0.119662 2.66377e-19)
(-0.00867896 0.0127551 6.76695e-19)
(-0.0204876 0.0298261 -4.77864e-19)
(-0.028116 0.0402317 1.1544e-19)
(-0.0321282 0.045078 3.79477e-19)
(-0.032939 0.0454038 -4.10038e-19)
(-0.0307992 0.0421511 1.99533e-20)
(-0.0258064 0.03612 3.15478e-19)
(-0.0179286 0.0279517 5.83836e-19)
(-0.00702698 0.0181321 7.96792e-19)
(0.00711557 0.0070109 -7.66726e-19)
(0.0247665 -0.00516866 -4.59477e-19)
(0.0462156 -0.0182341 2.19231e-19)
(0.071748 -0.032048 -6.36102e-19)
(0.101619 -0.0464724 4.3694e-20)
(0.136027 -0.0613344 2.49857e-19)
(0.175076 -0.0763878 1.92848e-19)
(0.218784 -0.0912148 5.90153e-19)
(0.267094 -0.105015 1.22282e-19)
(0.317061 -0.117145 -4.40804e-19)
(0.380845 -0.114252 4.65784e-19)
(-0.0088812 0.012586 -6.42564e-19)
(-0.0208608 0.0296241 4.76604e-19)
(-0.0282867 0.0402388 1.15529e-19)
(-0.0317542 0.0454108 -3.77241e-19)
(-0.0316743 0.0461108 1.60142e-19)
(-0.0283002 0.043235 -7.76267e-20)
(-0.0217355 0.0375565 -5.76868e-20)
(-0.0119519 0.0297061 -4.92984e-19)
(0.00118723 0.0201721 -7.83328e-19)
(0.0179 0.00931518 7.37691e-19)
(0.0384563 -0.00260486 -2.66613e-19)
(0.0631478 -0.0153971 8.38536e-21)
(0.0922578 -0.0289058 1.53309e-19)
(0.12603 -0.0429783 3.27903e-19)
(0.164638 -0.0574335 -3.94765e-20)
(0.208137 -0.0720335 -9.23364e-20)
(0.256462 -0.0864072 -4.76251e-19)
(0.309563 -0.0997951 -3.1787e-19)
(0.363935 -0.112197 -2.99573e-19)
(0.433244 -0.108504 4.72973e-19)
(-0.0090339 0.0123439 5.1721e-19)
(-0.0211093 0.029217 -1.34861e-19)
(-0.0282763 0.0399236 4.59615e-19)
(-0.0311469 0.0453233 1.11626e-19)
(-0.0301213 0.0463197 -2.47005e-19)
(-0.0254496 0.0437622 4.01337e-20)
(-0.0172366 0.0383951 -5.31954e-19)
(-0.00545552 0.0308369 2.43457e-19)
(0.0100302 0.0215762 1.33525e-19)
(0.0294401 0.0109833 -4.8587e-20)
(0.053046 -0.000666263 -5.56689e-20)
(0.0811393 -0.0131626 6.75694e-20)
(0.113997 -0.0263302 -3.0801e-19)
(0.151843 -0.039998 -7.19737e-19)
(0.194816 -0.053971 3.66113e-19)
(0.242906 -0.068011 -1.82487e-19)
(0.295945 -0.0817817 -4.42227e-20)
(0.353845 -0.0945383 7.68795e-19)
(0.412581 -0.107027 7.95844e-19)
(0.487083 -0.102298 -1.2066e-18)
(-0.00913739 0.0120368 -1.31582e-19)
(-0.0212307 0.0286211 -1.45781e-19)
(-0.0280778 0.0393053 -2.88217e-19)
(-0.0302944 0.0448338 2.12042e-19)
(-0.028263 0.0460458 3.85439e-19)
(-0.0222248 0.0437445 -5.01609e-19)
(-0.0122823 0.0386445 8.04827e-19)
(0.00159318 0.0313502 -1.58298e-19)
(0.0195398 0.022349 2.35384e-20)
(0.0417789 0.0120194 -5.56401e-19)
(0.0685829 0.000652001 -4.26694e-20)
(0.10024 -0.011524 -4.64504e-19)
(0.137013 -0.0243118 6.26233e-19)
(0.179102 -0.0375193 4.14157e-19)
(0.226592 -0.050933 -8.11169e-19)
(0.27939 -0.0643066 -6.91136e-19)
(0.337202 -0.0773259 1.59478e-19)
(0.399841 -0.0892355 9.21365e-19)
(0.462865 -0.101582 4.21031e-19)
(0.541994 -0.095525 2.21862e-19)
(-0.00919267 0.0116733 4.17142e-20)
(-0.0212234 0.027854 1.4115e-19)
(-0.0276848 0.0384051 1.70635e-19)
(-0.0291843 0.0439642 -1.42425e-19)
(-0.0260802 0.0453098 3.58617e-19)
(-0.0186001 0.0432004 4.82337e-19)
(-0.00683955 0.038321 7.73779e-21)
(0.00923438 0.0312611 -6.30352e-19)
(0.0297633 0.0225053 -5.06993e-19)
(0.0549704 0.0124394 5.33717e-19)
(0.0851269 0.00136853 -7.20779e-19)
(0.120513 -0.0104587 -8.14723e-19)
(0.161372 -0.0228233 -8.19153e-20)
(0.207863 -0.03551 -4.23978e-20)
(0.260005 -0.0482832 2.87016e-19)
(0.317599 -0.0608837 1.88218e-19)
(0.380202 -0.0730038 2.43271e-19)
(0.447436 -0.0838678 -1.13885e-18)
(0.514649 -0.095797 -3.10647e-19)
(0.597534 -0.0880977 8.10169e-19)
(-0.00920124 0.0112616 -2.46241e-19)
(-0.0210865 0.0269339 2.41475e-19)
(-0.0270911 0.037246 -1.7794e-19)
(-0.0278032 0.0427393 -8.85724e-20)
(-0.0235513 0.0441367 -2.4187e-19)
(-0.0145451 0.0421546 -1.83826e-19)
(-0.000869189 0.0374487 -3.31437e-19)
(0.0175165 0.0305937 5.50276e-19)
(0.0407583 0.0220706 2.2055e-19)
(0.0690807 0.0122718 -5.44021e-19)
(0.102751 0.00151625 8.583e-19)
(0.142035 -0.00992792 4.42896e-19)
(0.187148 -0.0218189 -3.36811e-19)
(0.238192 -0.0339174 -4.74223e-19)
(0.295101 -0.0459637 -6.10611e-20)
(0.357539 -0.0576827 4.88311e-19)
(0.424902 -0.0687553 -3.24288e-19)
(0.496493 -0.0784074 1.24486e-19)
(0.567779 -0.0895933 2.7469e-19)
(0.653197 -0.0799732 6.85618e-19)
(-0.00916493 0.0108098 -2.50679e-20)
(-0.0208196 0.025879 -5.96569e-19)
(-0.02629 0.0358526 1.45611e-19)
(-0.0261359 0.0411871 3.24119e-19)
(-0.0206518 0.0425561 -5.9166e-20)
(-0.0100247 0.0406373 -3.94858e-19)
(0.00567477 0.0360592 4.37807e-19)
(0.0264966 0.0293814 5.04233e-19)
(0.0525926 0.0210814 1.93591e-19)
(0.0841877 0.0115576 9.68114e-19)
(0.121541 0.0011425 -4.53359e-19)
(0.164896 -0.00987665 2.18508e-19)
(0.214425 -0.0212355 -2.2602e-19)
(0.27016 -0.0326705 5.46861e-19)
(0.331921 -0.0438976 -4.79318e-20)
(0.399207 -0.0546256 -1.26853e-19)
(0.471234 -0.064501 -2.00081e-19)
(0.546839 -0.0728194 3.13931e-19)
(0.622049 -0.0828457 -7.85051e-19)
(0.708346 -0.0710953 -1.0492e-18)
(-0.00908573 0.0103256 -1.43327e-19)
(-0.0204222 0.0247072 -5.33064e-20)
(-0.0252741 0.0342497 -4.82594e-19)
(-0.0241657 0.0393372 2.95948e-19)
(-0.0173536 0.0406011 -3.02867e-19)
(-0.00499896 0.0386846 -3.08894e-19)
(0.0128452 0.0341912 -2.76931e-20)
(0.0362403 0.0276666 -5.07903e-19)
(0.0653442 0.0195851 -8.11152e-19)
(0.100379 0.0103505 2.23033e-19)
(0.141591 0.00030874 2.51401e-19)
(0.189191 -0.0102345 3.04553e-19)
(0.243292 -0.0209933 7.82224e-19)
(0.30383 -0.0316818 -7.71968e-20)
(0.37049 -0.0419935 -1.69614e-19)
(0.442575 -0.0516229 -2.39698e-20)
(0.519096 -0.0601565 4.26019e-19)
(0.598287 -0.0670712 7.49755e-19)
(0.677173 -0.0753048 -2.09565e-19)
(0.762057 -0.061244 7.65134e-19)
(-0.00896553 0.00981605 4.49837e-19)
(-0.0198933 0.0234358 -7.30452e-20)
(-0.0240346 0.0324626 4.26422e-19)
(-0.0218731 0.037221 -4.37923e-19)
(-0.0136249 0.0383081 6.47866e-19)
(0.000577692 0.0363374 5.44228e-19)
(0.0207015 0.0318904 -4.48907e-19)
(0.0468212 0.0255005 -8.40096e-19)
(0.0790993 0.0176391 1.39914e-18)
(0.117752 0.00871596 3.4769e-19)
(0.163003 -0.000910383 -2.72297e-19)
(0.215017 -0.0109171 -2.70447e-19)
(0.273829 -0.0209988 -1.35214e-19)
(0.339254 -0.0308512 -2.12179e-19)
(0.410809 -0.0401509 -7.02143e-19)
(0.487573 -0.0485841 -1.90598e-19)
(0.56835 -0.0556613 1.5255e-20)
(0.650702 -0.0611594 -5.13516e-19)
(0.732972 -0.0666096 2.53928e-19)
(0.813333 -0.0504033 -5.40809e-19)
(-0.00880592 0.00928728 -7.18761e-19)
(-0.0192312 0.0220808 4.83137e-19)
(-0.0225613 0.030516 -7.1977e-19)
(-0.0192362 0.0348707 -3.92742e-19)
(-0.00943004 0.0357159 1.46673e-19)
(0.00675572 0.0336408 -5.87812e-19)
(0.0293096 0.0292084 9.25235e-19)
(0.0583197 0.0229418 1.63784e-20)
(0.0939511 0.0153105 -5.20693e-19)
(0.136409 0.00673037 -4.56696e-19)
(0.185881 -0.00242835 -8.19248e-19)
(0.242469 -0.0118275 -9.57732e-21)
(0.306105 -0.0211464 3.03172e-20)
(0.376453 -0.0300686 -1.90198e-19)
(0.45283 -0.0382638 8.46173e-19)
(0.534069 -0.0454249 5.20845e-19)
(0.618763 -0.0509998 1.27654e-19)
(0.703954 -0.0551252 -5.50458e-19)
(0.789605 -0.0567103 -3.10072e-20)
(0.86309 -0.0408058 -8.74958e-19)
(-0.00860801 0.0087446 2.55331e-19)
(-0.0184327 0.020657 -4.83089e-19)
(-0.0208416 0.0284338 6.21348e-19)
(-0.0162299 0.032319 8.7468e-19)
(-0.00472945 0.0328652 -2.85009e-19)
(0.0135904 0.0306435 3.77929e-20)
(0.0387407 0.0262021 -7.78983e-19)
(0.0708215 0.0200562 -1.9373e-19)
(0.109997 0.0126748 -6.09504e-19)
(0.156451 0.00447949 7.98454e-19)
(0.210323 -0.00414865 7.43969e-19)
(0.271629 -0.0128593 -1.32238e-19)
(0.340167 -0.0213218 -1.00225e-19)
(0.415415 -0.0292169 -8.12922e-21)
(0.496454 -0.036222 1.51035e-19)
(0.581843 -0.0420607 -2.72204e-19)
(0.669951 -0.0461679 -3.15205e-19)
(0.757552 -0.0490274 6.60167e-19)
(0.846467 -0.0466847 -2.05583e-19)
(0.916351 -0.038072 3.85946e-20)
(-0.00837219 0.00819228 6.74792e-20)
(-0.0174933 0.0191774 9.79166e-20)
(-0.0188606 0.0262389 -3.2517e-19)
(-0.0128262 0.029598 -9.01151e-19)
(0.000520164 0.0297978 1.4648e-19)
(0.0211412 0.0273969 4.44878e-19)
(0.0490698 0.0229328 2.03904e-19)
(0.0844157 0.0169154 8.78503e-19)
(0.127335 0.0098142 -5.53609e-19)
(0.177979 0.00205684 -7.23576e-19)
(0.23642 -0.005967 -1.33121e-19)
(0.30256 -0.0138988 3.33488e-19)