/*--------------------------------*- C++ -*----------------------------------*\
  =========                 |
  \\      /  F ield         | OpenFOAM: The Open Source CFD Toolbox
   \\    /   O peration     | Website:  https://openfoam.org
    \\  /    A nd           | Version:  7
     \\/     M anipulation  |
\*---------------------------------------------------------------------------*/
FoamFile
{
    version     2.0;
    format      ascii;
    class       volVectorField;
    location    "85";
    object      U;
}
// * * * * * * * * * * * * * * * * * * * * * * * * * * * * * * * * * * * * * //

dimensions      [0 1 -1 0 0 0 0];

internalField   nonuniform List<vector> 
34000
(
(-0.000448045 0.00109584 -1.14217e-21)
(-0.00279123 -0.0021961 -6.14704e-21)
(-0.00752079 -0.00968979 7.45912e-22)
(-0.0137219 -0.0201477 -1.31185e-21)
(-0.0210811 -0.0324875 2.003e-21)
(-0.0293376 -0.0458152 -1.47914e-20)
(-0.038259 -0.0594481 2.55133e-21)
(-0.0476539 -0.0729277 -1.00514e-20)
(-0.0573569 -0.0860117 -2.16014e-20)
(-0.0672219 -0.0986457 1.85017e-20)
(-0.0771201 -0.110921 5.51485e-21)
(-0.0869413 -0.123022 -6.63119e-21)
(-0.096597 -0.135179 8.1527e-21)
(-0.106023 -0.147628 1.11552e-20)
(-0.115183 -0.16058 -7.0545e-21)
(-0.124063 -0.174212 -9.57474e-21)
(-0.132672 -0.18866 -2.30038e-20)
(-0.14103 -0.204027 -1.78596e-21)
(-0.149158 -0.220375 -3.93126e-21)
(-0.157085 -0.237783 -7.691e-21)
(-0.0005197 0.00196962 -5.62267e-21)
(-0.00297368 2.48116e-05 4.6875e-21)
(-0.0078637 -0.00643113 -5.54469e-21)
(-0.0142478 -0.0160919 -1.24745e-20)
(-0.0218145 -0.0278284 1.02146e-20)
(-0.0303035 -0.0407096 6.19574e-20)
(-0.0394807 -0.0540244 -3.82441e-20)
(-0.0491526 -0.0672936 6.40515e-21)
(-0.0591509 -0.080259 3.12688e-20)
(-0.0693269 -0.0928533 6.52576e-23)
(-0.0795504 -0.105155 1.87505e-20)
(-0.0897119 -0.117335 -2.48826e-20)
(-0.0997259 -0.129611 2.61227e-20)
(-0.109535 -0.142202 -2.23923e-20)
(-0.119109 -0.155306 -8.82417e-21)
(-0.128449 -0.169085 4.41788e-20)
(-0.137575 -0.183668 -1.41397e-20)
(-0.146522 -0.199152 2.14549e-21)
(-0.155334 -0.215605 -2.63605e-20)
(-0.164073 -0.233111 -2.90813e-21)
(-0.000625103 0.00288679 -4.37578e-20)
(-0.00323215 0.00235804 5.66622e-21)
(-0.00829848 -0.00300739 8.70618e-21)
(-0.0148633 -0.0118316 3.84241e-20)
(-0.0226206 -0.022937 -4.48093e-20)
(-0.0313131 -0.0353537 -6.98486e-20)
(-0.0407068 -0.0483405 6.37759e-20)
(-0.0506071 -0.061395 -1.7567e-20)
(-0.0608437 -0.074241 -8.64638e-21)
(-0.0712659 -0.0867957 -4.4745e-20)
(-0.0817422 -0.0991229 1.24711e-20)
(-0.0921633 -0.11138 4.38021e-20)
(-0.102446 -0.123766 -8.72181e-21)
(-0.112539 -0.136485 3.62807e-20)
(-0.12242 -0.149719 -3.02009e-20)
(-0.1321 -0.163617 -8.82208e-21)
(-0.141612 -0.178297 7.17154e-20)
(-0.151004 -0.193853 -4.45942e-21)
(-0.160345 -0.21036 1.13318e-19)
(-0.169715 -0.227903 -2.70338e-20)
(-0.000766056 0.00384021 7.17839e-20)
(-0.00356995 0.00478606 -3.2348e-20)
(-0.00882742 0.000557563 -2.24645e-20)
(-0.0155684 -0.00739465 -1.70123e-20)
(-0.0234961 -0.0178437 3.15636e-20)
(-0.0323593 -0.0297794 -6.24561e-21)
(-0.041926 -0.0424287 -1.07378e-19)
(-0.052002 -0.0552645 -1.15006e-20)
(-0.0624159 -0.0679902 -2.36785e-20)
(-0.0730153 -0.0805057 -4.16297e-21)
(-0.0836675 -0.0928581 -4.14845e-20)
(-0.0942631 -0.105188 4.74637e-20)
(-0.104721 -0.117677 -7.01954e-20)
(-0.114994 -0.130512 -2.16644e-21)
(-0.125067 -0.143857 1.91851e-20)
(-0.13496 -0.157847 -1.50315e-19)
(-0.144719 -0.17259 -1.21612e-19)
(-0.154404 -0.188174 6.61432e-20)
(-0.164105 -0.204682 -8.79256e-20)
(-0.173914 -0.222202 1.68539e-21)
(-0.000943778 0.00482232 -9.58813e-21)
(-0.00398919 0.0072912 1.2821e-19)
(-0.00945157 0.00423934 6.04301e-20)
(-0.0163618 -0.0028097 -3.91617e-21)
(-0.0244368 -0.0125795 1.61406e-20)
(-0.0334342 -0.0240191 2.1342e-21)
(-0.0431267 -0.0363222 5.52136e-20)
(-0.0533219 -0.0489352 6.5778e-20)
(-0.0638483 -0.0615396 2.80955e-20)
(-0.0745521 -0.074016 9.89849e-20)
(-0.0852995 -0.0863931 -1.14908e-19)
(-0.0959809 -0.0987929 -2.40349e-20)
(-0.106516 -0.111379 5.10807e-20)
(-0.116861 -0.124319 -8.99852e-20)
(-0.127006 -0.137757 4.11705e-20)
(-0.136979 -0.151815 9.4739e-20)
(-0.146837 -0.166588 2.18412e-20)
(-0.156653 -0.182159 3.36799e-20)
(-0.166536 -0.198618 -5.32702e-20)
(-0.176577 -0.216052 5.4273e-21)
(-0.00115895 0.0058246 -4.75872e-20)
(-0.00449084 0.00985329 3.08361e-20)
(-0.0101706 0.00801056 -4.92265e-20)
(-0.0172411 0.00189151 1.45685e-20)
(-0.0254374 -0.00717867 4.0505e-20)
(-0.0345295 -0.018108 1.82045e-20)
(-0.0442972 -0.0300562 3.52425e-20)
(-0.0545516 -0.042442 -2.44177e-20)
(-0.0651221 -0.0549236 -1.52771e-19)
(-0.0758542 -0.0673604 -1.37613e-19)
(-0.0866128 -0.0797614 -9.01126e-20)
(-0.0972873 -0.0922289 3.39062e-20)
(-0.107798 -0.104907 -1.9333e-20)
(-0.118102 -0.117941 1.48362e-19)
(-0.128194 -0.13146 -5.35091e-20)
(-0.138108 -0.145564 4.41625e-20)
(-0.147909 -0.160338 6.35761e-20)
(-0.157686 -0.175857 -3.54258e-20)
(-0.167561 -0.192219 3.17356e-19)
(-0.177618 -0.209506 -1.186e-19)
(-0.00141163 0.0068381 5.7927e-20)
(-0.00507453 0.0124514 -7.30572e-20)
(-0.0109826 0.0118427 -1.12711e-19)
(-0.0182023 0.00667601 -2.95109e-20)
(-0.0264914 -0.00167642 1.31711e-20)
(-0.0356358 -0.0120821 2.03867e-20)
(-0.0454252 -0.0236668 6.84982e-20)
(-0.0556759 -0.0358206 1.54703e-20)
(-0.0662191 -0.048177 4.33252e-21)
(-0.0769002 -0.0605731 2.47535e-19)
(-0.0875827 -0.072997 1.86679e-19)
(-0.0981547 -0.08553 -1.12933e-19)
(-0.108536 -0.0982951 -1.65794e-20)
(-0.118682 -0.111418 -4.48314e-20)
(-0.128591 -0.125004 4.47203e-20)
(-0.138301 -0.139138 -2.3838e-19)
(-0.147884 -0.153887 -5.06624e-20)
(-0.157444 -0.16932 -7.48074e-20)
(-0.167113 -0.185536 -1.81335e-19)
(-0.176956 -0.202615 9.77535e-20)
(-0.0017012 0.0078534 9.87566e-21)
(-0.00573855 0.0150633 -3.6189e-20)
(-0.0118843 0.0157059 1.0202e-19)
(-0.0192401 0.0115093 -6.30943e-20)
(-0.0275913 0.00389041 -3.56312e-20)
(-0.0367433 -0.00597913 5.71742e-20)
(-0.0464982 -0.0171914 -9.58613e-20)
(-0.0566795 -0.0291075 -1.27329e-20)
(-0.0671213 -0.0413353 1.83414e-19)
(-0.0776694 -0.0536889 -1.17657e-19)
(-0.088186 -0.0661341 -4.8524e-20)
(-0.0985569 -0.0787307 5.68898e-20)
(-0.108699 -0.0915798 -1.50623e-20)
(-0.118568 -0.104785 -7.72928e-21)
(-0.128161 -0.118431 6.6109e-20)
(-0.137516 -0.132581 -1.78245e-19)
(-0.146714 -0.147284 6.04917e-20)
(-0.155872 -0.162599 -4.72535e-20)
(-0.165127 -0.178627 -1.06299e-19)
(-0.174516 -0.195437 3.7337e-20)
(-0.00202642 0.0088608 -2.74003e-20)
(-0.0064798 0.0176664 1.99074e-19)
(-0.0128707 0.0195692 -4.4187e-20)
(-0.0203477 0.0163557 2.7224e-20)
(-0.0287284 0.009484 1.97964e-19)
(-0.0378412 0.000162518 -1.34126e-19)
(-0.0475033 -0.010668 -6.66664e-20)
(-0.0575472 -0.0223396 -1.16167e-19)
(-0.0678114 -0.0344345 -1.27492e-19)
(-0.0781422 -0.0467425 -8.50364e-20)
(-0.0884005 -0.0592069 -1.1573e-19)
(-0.0984692 -0.0718652 2.10196e-19)
(-0.108262 -0.0847965 -2.26722e-20)
(-0.11773 -0.0980816 -5.01465e-20)
(-0.126868 -0.111783 -2.61829e-19)
(-0.135716 -0.125939 1.46101e-19)
(-0.144355 -0.140581 3.51954e-20)
(-0.152918 -0.155751 9.27511e-20)
(-0.161545 -0.17155 6.34218e-20)
(-0.170233 -0.188031 -1.69244e-19)
(-0.00238532 0.00985048 -8.6151e-20)
(-0.00729378 0.0202374 1.17778e-19)
(-0.0139354 0.0234012 6.63813e-20)
(-0.021517 0.0211791 3.02982e-20)
(-0.029893 0.0150658 2.62009e-20)
(-0.038918 0.00630369 -9.12393e-20)
(-0.0484273 -0.00413518 1.97526e-19)
(-0.0582642 -0.0155547 1.07819e-20)
(-0.0682724 -0.0275108 1.85222e-19)
(-0.0782997 -0.0397691 -1.09291e-19)
(-0.0882052 -0.0522498 1.75033e-19)
(-0.0978683 -0.0649681 -1.75375e-19)
(-0.107198 -0.0779805 -1.58059e-19)
(-0.11614 -0.0913449 1.36182e-19)
(-0.124683 -0.105099 4.85731e-19)
(-0.132865 -0.119259 -2.70747e-19)
(-0.140768 -0.133829 2.22796e-19)
(-0.148538 -0.148834 5.23831e-20)
(-0.156316 -0.164367 -1.95738e-19)
(-0.164045 -0.180461 1.62872e-19)
(-0.00277532 0.0108126 1.57574e-19)
(-0.00817462 0.0227533 -8.95557e-20)
(-0.0150703 0.0271704 3.16792e-20)
(-0.0227384 0.0259431 1.16967e-19)
(-0.0310741 0.0205969 -1.07342e-19)
(-0.0399616 0.0124048 2.13037e-19)
(-0.0492569 0.0023679 -3.86173e-20)
(-0.0588155 -0.00879052 4.76283e-21)
(-0.0684879 -0.0206006 -2.56793e-19)
(-0.0781236 -0.0328039 1.62942e-19)
(-0.0875801 -0.0452972 3.86132e-20)
(-0.0967324 -0.0580733 -5.21603e-20)
(-0.105483 -0.0711666 6.41186e-20)
(-0.113771 -0.0846118 -2.54674e-19)
(-0.121577 -0.0984222 -1.41643e-19)
(-0.128932 -0.112586 3.02722e-19)
(-0.135918 -0.127079 -1.70412e-19)
(-0.142694 -0.141906 -2.45229e-19)
(-0.149397 -0.157142 4.57035e-19)
(-0.155903 -0.172791 7.96723e-22)
(-0.00319315 0.0117376 1.33549e-19)
(-0.0091151 0.025191 -1.67274e-19)
(-0.0162659 0.0308453 -1.75316e-19)
(-0.024001 0.030611 -8.39777e-20)
(-0.03226 0.0260384 -1.22553e-19)
(-0.0409596 0.0184263 -6.93448e-20)
(-0.0499785 0.00880205 -2.9702e-19)
(-0.0591867 -0.00208522 3.62969e-20)
(-0.0684422 -0.0137407 -1.28149e-19)
(-0.0775968 -0.0258819 4.50516e-19)
(-0.0865064 -0.0383829 -2.63577e-19)
(-0.095041 -0.0512145 1.61389e-19)
(-0.103096 -0.064389 -4.97224e-20)
(-0.110599 -0.0779186 2.77859e-19)
(-0.117524 -0.0917908 2.34766e-20)
(-0.123891 -0.105965 -2.42777e-19)
(-0.129775 -0.120385 -4.49026e-20)
(-0.135352 -0.135025 9.31512e-21)
(-0.14075 -0.149938 -1.66144e-20)
(-0.145761 -0.165087 3.1419e-19)
(-0.003635 0.0126162 -1.65791e-19)
(-0.0101068 0.0275285 -1.6174e-19)
(-0.0175115 0.0343953 6.72384e-20)
(-0.0252929 0.0351471 1.691e-19)
(-0.033438 0.0313515 -1.27053e-20)
(-0.0418986 0.0243284 -1.18005e-19)
(-0.0505785 0.015128 2.62508e-19)
(-0.0593634 0.00452307 -3.02035e-20)
(-0.06812 -0.0069677 3.24361e-19)
(-0.0767029 -0.0190384 -3.62078e-19)
(-0.0849665 -0.031541 9.56703e-20)
(-0.0927751 -0.0444247 1.1536e-19)
(-0.100015 -0.0576811 -3.28271e-21)
(-0.106604 -0.0712998 -2.12481e-21)
(-0.112502 -0.0852433 -2.24885e-19)
(-0.117716 -0.0994397 2.96401e-20)
(-0.122314 -0.113797 3.05581e-19)
(-0.126483 -0.128252 3.97129e-19)
(-0.130347 -0.142823 -4.72939e-19)
(-0.133587 -0.157419 -2.99542e-19)
(-0.00409646 0.0134396 7.04332e-20)
(-0.0111401 0.0297442 1.07262e-19)
(-0.0187951 0.0377906 1.32957e-19)
(-0.0266011 0.0395162 -2.24283e-19)
(-0.0345949 0.0364983 2.37073e-19)
(-0.0427654 0.0300721 2.26958e-19)
(-0.0510434 0.0213067 -8.85127e-20)
(-0.0593318 0.0109962 3.93758e-19)
(-0.0675067 -0.000318291 -4.01152e-19)
(-0.0754266 -0.0123086 1.79578e-19)
(-0.0829437 -0.024805 1.83456e-19)
(-0.0899168 -0.0377368 -1.35501e-20)
(-0.0962224 -0.0510752 3.22193e-21)
(-0.101765 -0.064789 2.41589e-20)
(-0.106489 -0.0788155 -1.79013e-19)
(-0.110387 -0.0930512 1.7835e-19)
(-0.113513 -0.107363 -9.13163e-20)
(-0.116067 -0.121643 -2.07497e-19)
(-0.118166 -0.135863 2.71059e-19)
(-0.119355 -0.149854 5.66018e-20)
(-0.00457272 0.0141997 -4.03082e-20)
(-0.0122046 0.0318182 5.08313e-20)
(-0.0201035 0.0410027 -1.11152e-19)
(-0.0279114 0.0436844 -1.6745e-19)
(-0.0357165 0.0414417 -1.72694e-19)
(-0.0435463 0.0356188 -1.56578e-19)
(-0.0513598 0.0272995 2.58233e-19)
(-0.0590784 0.0172962 -1.2936e-19)
(-0.0665888 0.0061708 1.04633e-19)
(-0.0737533 -0.00572751 1.30158e-20)
(-0.0804227 -0.0182087 -2.93402e-20)
(-0.0864495 -0.0311827 7.4441e-20)
(-0.0916996 -0.0446026 -1.43689e-19)
(-0.0960632 -0.0584176 7.41364e-20)
(-0.0994671 -0.0725412 2.46529e-19)
(-0.101885 -0.0868374 -3.64393e-19)
(-0.103356 -0.101129 -2.34423e-19)
(-0.104087 -0.115254 3.10504e-19)
(-0.104193 -0.129122 -1.81044e-19)
(-0.103048 -0.142462 -2.84334e-19)
(-0.00505853 0.0148891 1.51843e-19)
(-0.0132888 0.033732 -1.55483e-19)
(-0.0214228 0.0440052 1.25553e-19)
(-0.0292094 0.0476195 2.03168e-19)
(-0.0367887 0.0461459 -3.80112e-20)
(-0.0442276 0.0409309 -1.36382e-19)
(-0.0515146 0.0330681 -2.52785e-19)
(-0.0585906 0.0233854 -1.93535e-19)
(-0.0653533 0.0124629 -3.95616e-19)
(-0.0716696 0.000669616 4.15382e-20)
(-0.0773891 -0.0117854 -3.69226e-20)
(-0.0823579 -0.0247943 -2.86147e-19)
(-0.0864306 -0.0382937 2.52256e-19)
(-0.0894818 -0.0522152 3.0939e-19)
(-0.0914193 -0.0664506 -1.6116e-20)
(-0.0921955 -0.0808323 1.91339e-19)
(-0.0918282 -0.0951353 -9.80285e-20)
(-0.0905303 -0.109137 1.70593e-20)
(-0.0884219 -0.122665 2.82063e-19)
(-0.0846589 -0.13531 6.67735e-19)
(-0.00554842 0.0155014 -6.50296e-20)
(-0.0143809 0.0354689 -4.67596e-20)
(-0.0227386 0.0467734 1.30279e-19)
(-0.0304799 0.0512912 -1.83062e-19)
(-0.0377966 0.0505767 -4.81644e-20)
(-0.0447955 0.045972 2.84743e-19)
(-0.0514951 0.0385753 -6.82187e-20)
(-0.0578561 0.0292263 -1.97971e-19)
(-0.0637882 0.0185214 3.22087e-19)
(-0.0691633 0.0068475 -8.57287e-20)
(-0.0738299 -0.00556861 6.36831e-20)
(-0.0776277 -0.0186031 3.53221e-19)
(-0.0803998 -0.0321778 -4.93034e-19)
(-0.0820047 -0.0462096 -1.35157e-19)
(-0.0823296 -0.0605713 -2.71442e-19)
(-0.081303 -0.0750653 5.53198e-19)
(-0.0789178 -0.089418 1.77543e-20)
(-0.0753891 -0.103337 3.11025e-19)
(-0.0708528 -0.11655 -1.08726e-19)
(-0.0641857 -0.128464 -6.37703e-19)
(-0.0060367 0.0160313 -1.53768e-19)
(-0.0154684 0.0370144 2.23992e-19)
(-0.0240357 0.0492853 2.72989e-21)
(-0.0317074 0.0546716 -2.58526e-21)
(-0.0387258 0.054702 2.3576e-19)
(-0.0452368 0.050707 1.70405e-19)
(-0.051289 0.0437844 -7.22625e-21)
(-0.0568636 0.034782 5.1633e-19)
(-0.0618827 0.0243098 1.99068e-19)
(-0.0662232 0.0127707 -3.68933e-19)
(-0.0697331 0.000407831 1.69104e-20)
(-0.0722459 -0.0126405 -1.04332e-20)
(-0.0735932 -0.0262838 5.27501e-19)
(-0.0736169 -0.040427 -5.95046e-19)
(-0.0721827 -0.0549273 1.63959e-19)
(-0.069194 -0.0695607 8.55891e-21)
(-0.0646147 -0.0840053 -4.28869e-19)
(-0.0586575 -0.0978929 -4.47487e-19)
(-0.0514908 -0.110831 -5.18147e-20)
(-0.0416317 -0.12199 6.54122e-19)
(-0.00651766 0.0164744 5.05593e-20)
(-0.0165388 0.0383564 -1.59743e-19)
(-0.0252993 0.0515216 1.55195e-19)
(-0.0328767 0.0577354 -2.33105e-19)
(-0.0395617 0.0584917 2.91307e-19)
(-0.0455382 0.0551027 -4.88237e-19)
(-0.0508847 0.0486602 -1.21853e-19)
(-0.0556027 0.0400162 -2.69803e-19)
(-0.0596267 0.0297916 -1.28102e-19)
(-0.0628394 0.0184036 2.30011e-19)
(-0.0650883 0.00610986 4.74513e-19)
(-0.0662009 -0.00693847 -5.3683e-19)
(-0.0659977 -0.0206405 -2.01826e-19)
(-0.0643038 -0.0348923 7.39687e-19)
(-0.0609637 -0.0495397 -2.72632e-19)
(-0.0558549 -0.0643375 -3.93977e-19)
(-0.0489089 -0.0789179 5.03134e-19)
(-0.0403306 -0.0928317 1.05766e-19)
(-0.030347 -0.105553 1.04539e-19)
(-0.0170019 -0.115948 -4.22713e-19)
(-0.00698565 0.0168277 2.00429e-20)
(-0.0175798 0.0394851 -8.39381e-20)
(-0.0265142 0.053466 2.7436e-19)
(-0.0339723 0.0604602 -3.55751e-19)
(-0.0402899 0.0619187 -2.92718e-19)
(-0.0456871 0.059128 1.84773e-19)
(-0.0502712 0.0531689 5.19974e-19)
(-0.0540636 0.0448935 -3.30039e-19)
(-0.0570115 0.0349308 8.10373e-20)
(-0.0590032 0.0237104 -1.60681e-19)
(-0.0598862 0.0115029 -6.54978e-19)
(-0.0594821 -0.00152919 3.98564e-19)
(-0.0576009 -0.0152766 3.27459e-19)
(-0.0540517 -0.0296296 -5.81549e-19)
(-0.0486579 -0.0444275 1.35294e-19)
(-0.0412713 -0.0594095 5.51219e-19)
(-0.031789 -0.0741674 2.21409e-19)
(-0.0204022 -0.0881693 7.72739e-20)
(-0.0074377 -0.100751 -4.53283e-19)
(0.00968571 -0.110367 -2.19205e-19)
(-0.00743519 0.0170893 -1.37473e-19)
(-0.0185792 0.0403936 -2.53706e-19)
(-0.0276659 0.0551054 -1.45037e-19)
(-0.0349795 0.0628269 1.92473e-19)
(-0.0408969 0.0649583 -1.13493e-20)
(-0.0456716 0.062754 4.36982e-19)
(-0.0494383 0.0572782 -4.04743e-20)
(-0.0522377 0.0493794 4.81831e-20)
(-0.0540292 0.0396918 3.20424e-19)
(-0.0547071 0.0286551 4.07568e-19)
(-0.0541187 0.0165517 -1.99627e-20)
(-0.0520804 0.0035542 -9.11147e-20)
(-0.0483918 -0.0102217 -5.40112e-19)
(-0.0428473 -0.0246634 4.07893e-19)
(-0.0352499 -0.039608 -3.6608e-20)
(-0.0254272 -0.0547866 -2.47622e-19)
(-0.0132408 -0.0697581 -1.25268e-18)
(0.00114039 -0.0839134 4.47477e-19)
(0.0172405 -0.0964498 2.23546e-20)
(0.0383516 -0.105176 -2.73969e-19)
(-0.00786115 0.0172588 1.28079e-19)
(-0.0195255 0.0410777 3.32433e-19)
(-0.0287404 0.0564301 -2.53516e-19)
(-0.0358842 0.06482 -1.23486e-19)
(-0.0413694 0.0675893 1.02762e-19)
(-0.0454801 0.0659545 -2.48768e-19)
(-0.0483763 0.060958 -4.65821e-19)
(-0.050117 0.0534408 2.77147e-19)
(-0.0506732 0.0440395 -3.10485e-20)
(-0.0499447 0.033202 -6.4564e-19)
(-0.0477789 0.0212208 1.23663e-19)
(-0.0439875 0.00827763 7.11878e-20)
(-0.0383603 -0.00550661 -1.2543e-19)
(-0.0306777 -0.0200186 3.32068e-19)
(-0.0207245 -0.035098 6.53731e-19)
(-0.00830568 -0.0504755 -4.29623e-19)
(0.00675072 -0.0656881 3.47094e-19)
(0.0243105 -0.0800643 8.78915e-20)
(0.0437662 -0.0926781 4.93403e-19)
(0.0689414 -0.100449 2.21164e-19)
(-0.00825879 0.0173368 -1.40856e-19)
(-0.0204079 0.041536 -1.53476e-20)
(-0.0297247 0.057434 3.60144e-19)
(-0.0366727 0.0664275 3.58696e-19)
(-0.041695 0.0697941 -7.39375e-20)
(-0.0451019 0.0687064 -4.64711e-20)
(-0.0470764 0.0641807 4.70842e-19)
(-0.0476942 0.0570466 -3.67468e-19)
(-0.046937 0.04794 1.13572e-19)
(-0.0447102 0.0373154 4.71443e-19)
(-0.0408609 0.0254742 4.56684e-19)
(-0.0351961 0.0126062 1.81407e-19)
(-0.0274968 -0.00116325 7.92399e-19)
(-0.0175306 -0.0157218 -1.08999e-19)
(-0.00506591 -0.0309153 -8.52409e-19)
(0.0101117 -0.0464814 4.21554e-19)
(0.0282018 -0.061949 -2.29721e-19)
(0.0490995 -0.0766031 -5.30755e-19)
(0.0721226 -0.0893815 -3.78463e-19)
(0.101594 -0.0963135 -3.77828e-19)
(-0.00862394 0.0173255 9.08434e-20)
(-0.0212165 0.04177 1.90878e-19)
(-0.0306066 0.0581146 -1.31711e-19)
(-0.0373327 0.0676414 -1.6389e-19)
(-0.0418619 0.0715585 -1.72069e-19)
(-0.0445266 0.0709899 -4.61935e-20)
(-0.0455298 0.0669213 -4.88652e-19)
(-0.044962 0.0601674 2.51466e-19)
(-0.0428149 0.051361 -2.3357e-19)
(-0.0389982 0.0409607 -3.9826e-19)
(-0.033359 0.0292761 1.48462e-20)
(-0.0256994 0.0165043 -1.02626e-18)
(-0.0157921 0.00277499 -8.02718e-19)
(-0.00339354 -0.0118013 2.57289e-19)
(0.0117421 -0.0270791 1.30279e-19)
(0.0298451 -0.0428096 -2.83741e-19)
(0.0511375 -0.0585268 1.10591e-18)
(0.0755446 -0.0734842 -1.74577e-19)
(0.102261 -0.086485 4.75712e-19)
(0.136336 -0.0927254 4.25427e-19)
(-0.00895304 0.017228 -1.24517e-19)
(-0.0219428 0.0417839 -4.13532e-19)
(-0.0313752 0.0584731 1.32286e-19)
(-0.0378526 0.0684577 7.5452e-21)
(-0.0418591 0.0728724 5.61784e-19)
(-0.0437443 0.0727889 -3.36885e-19)
(-0.0437281 0.0691582 1.84842e-19)
(-0.0419135 0.062777 2.67454e-19)
(-0.0383006 0.0542722 -2.07186e-20)
(-0.0328029 0.0441049 1.6679e-19)
(-0.0252669 0.0325914 5.1374e-19)
(-0.0154898 0.0199365 1.08036e-18)
(-0.00323655 0.0062739 8.78564e-20)
(0.0117466 -0.00828738 -4.87693e-19)
(0.029717 -0.0236116 8.84883e-20)
(0.0509165 -0.0394681 8.78143e-19)
(0.0755839 -0.0554093 -5.99394e-19)
(0.103682 -0.0706753 2.89816e-21)
(0.134212 -0.0839875 4.66819e-19)
(0.173148 -0.0895922 -2.86058e-19)
(-0.00924326 0.0170488 -1.20304e-19)
(-0.0225795 0.0415846 4.91548e-19)
(-0.0320212 0.058514 -3.7476e-19)
(-0.038222 0.0688763 -7.66775e-20)
(-0.0416762 0.0737301 -1.29985e-19)
(-0.0427454 0.0740912 -3.40217e-19)
(-0.0416624 0.0708735 3.38937e-19)
(-0.0385407 0.0648522 -1.11541e-19)
(-0.0333869 0.0566461 -2.03064e-19)
(-0.0261173 0.046717 3.3392e-19)
(-0.016577 0.035387 -3.90423e-19)
(-0.00455839 0.0228681 -1.26487e-19)
(0.0101813 0.00929925 -1.41449e-20)
(0.0279045 -0.00521129 3.44045e-19)
(0.0488777 -0.020537 -3.1421e-19)
(0.0733495 -0.0364682 -5.97211e-19)
(0.101567 -0.0525863 -1.87028e-19)
(0.133541 -0.0681394 -2.69165e-19)
(0.168003 -0.0818469 -8.22194e-19)
(0.212029 -0.0868436 -2.44212e-19)
(-0.00949248 0.0167931 1.71571e-19)
(-0.0231207 0.0411814 -2.15516e-19)
(-0.0325364 0.0582457 -2.72187e-19)
(-0.0384316 0.0689013 -2.57119e-19)
(-0.0413033 0.0741298 8.54716e-20)
(-0.0415199 0.0748893 4.69661e-20)
(-0.0393232 0.0720534 1.21583e-19)
(-0.0348342 0.066374 -3.17719e-19)
(-0.0280645 0.058459 2.47128e-19)
(-0.0189318 0.0487694 -7.48122e-19)
(-0.00727885 0.0376323 -3.77942e-19)
(0.00710719 0.025267 6.64113e-21)
(0.0244762 0.0118184 3.41342e-19)
(0.0450983 -0.00260393 -2.26197e-19)
(0.0692462 -0.0178808 5.82014e-19)
(0.0971702 -0.0338235 -1.43224e-19)
(0.129115 -0.0500509 1.86302e-19)
(0.165147 -0.0658354 7.13763e-19)
(0.203657 -0.0799943 9.41774e-20)
(0.252984 -0.0844032 4.54504e-19)
(-0.00969944 0.0164673 -3.62579e-19)
(-0.0235619 0.0405859 2.93022e-19)
(-0.0329141 0.0576793 3.27625e-19)
(-0.0384728 0.0685407 -1.91745e-19)
(-0.0407307 0.0740744 3.28076e-19)
(-0.0400572 0.0751799 3.17046e-19)
(-0.0366994 0.0726891 -5.70618e-20)
(-0.0307826 0.0673279 -1.10182e-19)
(-0.0223211 0.0596917 -3.01152e-19)
(-0.0112327 0.050239 1.40367e-19)
(0.0026429 0.0393011 1.35482e-20)
(0.0195245 0.0271048 -3.77976e-19)
(0.0396688 0.0138021 2.86764e-19)
(0.063352 -0.000493644 -2.26228e-19)
(0.0908501 -0.0156674 -4.13311e-19)
(0.122409 -0.0315491 -5.45415e-19)
(0.158259 -0.0477991 1.33674e-19)
(0.198527 -0.0637239 1.88555e-19)
(0.241189 -0.0783541 -1.81011e-19)
(0.296007 -0.082177 7.54921e-19)
(-0.00986366 0.0160784 -2.88023e-19)
(-0.0239003 0.0398116 -2.69734e-19)
(-0.0331488 0.0568293 2.1346e-19)
(-0.0383379 0.0678062 1.24043e-19)
(-0.0399485 0.0735711 5.14316e-20)
(-0.0383458 0.0749649 -9.37106e-20)
(-0.0337776 0.0727765 -6.58511e-20)
(-0.0263708 0.0677047 1.52156e-19)
(-0.0161399 0.0603305 -1.45158e-19)
(-0.00300114 0.0511084 1.17079e-18)
(0.0132101 0.0403732 8.60677e-20)
(0.0327186 0.0283591 -1.35049e-19)
(0.0557877 0.0152271 -8.8828e-19)
(0.0826979 0.00109658 1.72566e-19)
(0.113725 -0.0139172 -4.47049e-19)
(0.149103 -0.0296581 2.9727e-19)
(0.189033 -0.0458281 2.75324e-19)
(0.233706 -0.0617684 -1.05398e-18)
(0.280612 -0.0768493 -3.30181e-19)
(0.341072 -0.0800555 -1.12868e-18)
(-0.00998544 0.015634 1.39049e-19)
(-0.0241341 0.0388736 2.79974e-19)
(-0.0332363 0.0557126 -5.04822e-19)
(-0.0380195 0.0667132 -3.87148e-19)
(-0.0389463 0.0726316 1.97556e-19)
(-0.0363722 0.074251 1.85502e-19)
(-0.0305417 0.0723175 -3.86767e-19)
(-0.0215795 0.0675015 -3.51175e-20)
(-0.00949822 0.0603682 2.08933e-20)
(0.00578943 0.0513671 -3.52824e-19)
(0.0244534 0.0408356 5.18336e-19)
(0.0467248 0.0290157 2.86876e-21)
(0.0728727 0.0160784 6.67245e-19)
(0.10318 0.00215236 4.56064e-19)
(0.137916 -0.0126425 7.58873e-20)
(0.177298 -0.0281576 9.81517e-19)
(0.221477 -0.0441332 -8.96589e-19)
(0.270706 -0.0599342 4.16508e-19)
(0.321931 -0.0754027 3.26946e-19)
(0.388119 -0.0779177 2.80046e-19)
(-0.0100658 0.0151418 6.74034e-19)
(-0.0242631 0.0377882 -4.7518e-19)
(-0.0331734 0.0543485 1.14635e-19)
(-0.0375107 0.0652803 3.76237e-19)
(-0.0377128 0.0712716 -4.06236e-19)
(-0.0341208 0.0730502 1.98206e-20)
(-0.0269713 0.0713198 3.11926e-19)
(-0.0163837 0.0667218 5.77284e-19)
(-0.00236605 0.059805 7.8797e-19)
(0.0151745 0.0510127 -7.58863e-19)
(0.0364142 0.0406844 -4.5627e-19)
(0.0615906 0.0290701 2.18117e-19)
(0.0909774 0.0163522 -6.35023e-19)
(0.124855 0.00267119 4.32699e-20)
(0.163483 -0.0118435 2.50612e-19)
(0.207048 -0.0270436 1.93689e-19)
(0.255636 -0.0427019 6.05346e-19)
(0.309542 -0.0581858 1.28104e-19)
(0.365138 -0.0739367 -4.61014e-19)
(0.437045 -0.0756346 4.90901e-19)
(-0.0101064 0.0146101 -6.3985e-19)
(-0.024288 0.0365726 4.73711e-19)
(-0.0329573 0.052758 1.147e-19)
(-0.0368038 0.0635291 -3.7392e-19)
(-0.0362351 0.0695111 1.58514e-19)
(-0.0315728 0.0713796 -7.67673e-20)
(-0.0230414 0.0697971 -5.72493e-20)
(-0.0107519 0.0653764 -4.87188e-19)
(0.00529532 0.0586493 -7.74631e-19)
(0.0252004 0.0500521 7.29968e-19)
(0.0491468 0.0399262 -2.64149e-19)
(0.0773784 0.0285299 8.40843e-21)
(0.110171 0.016058 1.52502e-19)
(0.147799 0.00266542 3.27961e-19)
(0.1905 -0.0115045 -3.9713e-20)
(0.238421 -0.0262966 -9.32758e-20)
(0.291559 -0.0415087 -4.87236e-19)
(0.35022 -0.056483 -3.27855e-19)
(0.410212 -0.0723708 -3.11299e-19)
(0.487684 -0.0730717 4.97107e-19)
(-0.0101093 0.0140467 5.14452e-19)
(-0.0242102 0.0352442 -1.34071e-19)
(-0.0325857 0.0509634 4.55843e-19)
(-0.0358909 0.0614836 1.10574e-19)
(-0.0344982 0.0673739 -2.44448e-19)
(-0.0287055 0.0692613 3.96701e-20)
(-0.0187214 0.0677696 -5.25499e-19)
(-0.00464465 0.0634837 2.40521e-19)
(0.0135345 0.0569183 1.31746e-19)
(0.0359254 0.0485026 -4.7895e-20)
(0.0627196 0.0385796 -5.48514e-20)
(0.094166 0.0274161 6.6805e-20)
(0.130539 0.0152205 -3.06533e-19)
(0.1721 0.00216459 -7.20111e-19)
(0.219055 -0.0115908 3.67181e-19)
(0.271491 -0.0258777 -1.86419e-19)
(0.329297 -0.04051 -4.66441e-20)
(0.392731 -0.0547774 7.92661e-19)
(0.457112 -0.0706175 8.32647e-19)
(0.539796 -0.0700921 -1.26931e-18)
(-0.0100772 0.0134594 -1.31095e-19)
(-0.0240316 0.0338205 -1.44743e-19)
(-0.032056 0.0489878 -2.85884e-19)
(-0.0347625 0.05917 2.10018e-19)
(-0.0324844 0.0648869 3.81381e-19)
(-0.025492 0.0667222 -4.95595e-19)
(-0.0139741 0.0652637 7.94756e-19)
(0.00198597 0.0610698 -1.56241e-19)
(0.0224109 0.0546386 2.3042e-20)
(0.047421 0.0463923 -5.49249e-19)
(0.0772159 0.0366756 -4.21158e-20)
(0.112048 0.0257642 -4.60804e-19)
(0.152184 0.0138812 6.22835e-19)
(0.197863 0.00121676 4.13699e-19)
(0.249247 -0.0120476 -8.14067e-19)
(0.306337 -0.025727 -6.98301e-19)
(0.368897 -0.0396411 1.62564e-19)
(0.437046 -0.0530108 9.48268e-19)
(0.505772 -0.0685768 4.39092e-19)
(0.593046 -0.0665619 2.34795e-19)
(-0.0100128 0.0128555 4.11984e-20)
(-0.0237543 0.0323184 1.40142e-19)
(-0.031365 0.0468548 1.69103e-19)
(-0.0334075 0.0566157 -1.41055e-19)
(-0.0301729 0.0620802 3.54529e-19)
(-0.0219003 0.0637939 4.76409e-19)
(-0.00875553 0.0623121 7.56956e-21)
(0.00919698 0.0581688 -6.21644e-19)
(0.0319953 0.0518463 -5.00045e-19)
(0.0597717 0.0437606 5.26931e-19)
(0.0927335 0.0342584 -7.12159e-19)
(0.131132 0.0236247 -8.06914e-19)
(0.175221 0.0120982 -8.12126e-20)
(0.225205 -0.000111305 -4.13733e-20)
(0.281178 -0.0127998 2.88981e-19)
(0.343034 -0.0257639 1.90741e-19)
(0.410386 -0.038816 2.486e-19)
(0.483099 -0.051117 -1.17144e-18)
(0.556094 -0.0661343 -3.25482e-19)
(0.646994 -0.0623665 8.50956e-19)
(-0.00991879 0.0122417 -2.44665e-19)
(-0.0233801 0.0307541 2.39393e-19)
(-0.0305085 0.0445876 -1.76321e-19)
(-0.0318127 0.0538493 -8.76648e-20)
(-0.0275391 0.0589862 -2.39218e-19)
(-0.0178932 0.060512 -1.81647e-19)
(-0.00301424 0.0589533 -3.27033e-19)
(0.0170548 0.0548222 5.42739e-19)
(0.0423694 0.0485872 2.1762e-19)
(0.0730746 0.0406585 -5.3634e-19)
(0.109383 0.0313854 8.47804e-19)
(0.151541 0.0210632 4.38607e-19)
(0.199777 0.00994631 -3.34276e-19)
(0.254244 -0.00173517 -4.73543e-19)
(0.314948 -0.0137542 -6.18257e-20)
(0.381639 -0.0258894 4.92009e-19)
(0.453764 -0.0379299 -3.31391e-19)
(0.530784 -0.0490259 1.27066e-19)
(0.607937 -0.0631573 2.84465e-19)
(0.701081 -0.0574294 7.19712e-19)
(-0.00979776 0.0116236 -2.50005e-20)
(-0.0229099 0.0291423 -5.91259e-19)
(-0.0294806 0.0422087 1.44176e-19)
(-0.029962 0.0508998 3.20567e-19)
(-0.0245544 0.0556394 -5.87278e-20)
(-0.0134275 0.0569156 -3.8977e-19)
(0.00330856 0.0552311 4.31617e-19)
(0.0256347 0.0510791 4.96801e-19)
(0.0536255 0.0449159 1.90763e-19)
(0.087438 0.0371476 9.54338e-19)
(0.127287 0.0281268 -4.47492e-19)
(0.173404 0.0181593 2.16343e-19)
(0.225981 0.00751539 -2.238e-19)
(0.285097 -0.00355501 5.44907e-19)
(0.350641 -0.0148027 -4.7756e-20)
(0.422183 -0.0259918 -1.28671e-19)
(0.498983 -0.0368662 -2.03507e-19)
(0.579938 -0.0466679 3.22768e-19)
(0.661078 -0.0594691 -8.14927e-19)
(0.754584 -0.0516775 -1.1038e-18)
(-0.00965186 0.0110061 -1.42206e-19)
(-0.0223438 0.0274964 -5.27187e-20)
(-0.0282736 0.0397395 -4.7774e-19)
(-0.0278362 0.047796 2.92627e-19)
(-0.0211857 0.0520754 -2.99154e-19)
(-0.00845444 0.0530469 -3.04707e-19)
(0.0102788 0.0511942 -2.73698e-20)
(0.0350206 0.0469949 -5.00511e-19)
(0.0658647 0.0408957 -7.98878e-19)
(0.102979 0.0332998 2.19677e-19)
(0.146573 0.0245642 2.47934e-19)
(0.196854 0.0150052 3.00987e-19)
(0.253956 0.00490827 7.75784e-19)
(0.317861 -0.00545891 -7.67046e-20)
(0.388311 -0.0158279 -1.70295e-19)
(0.464655 -0.0259536 -2.50464e-20)
(0.54594 -0.0355111 4.3199e-19)
(0.63036 -0.0439813 7.68481e-19)
(0.715195 -0.0547914 -2.16495e-19)
(0.806533 -0.0449857 8.0274e-19)
(-0.00948264 0.0103932 4.45701e-19)
(-0.0216801 0.0258278 -7.22103e-20)
(-0.0268772 0.0371998 4.21898e-19)
(-0.0254129 0.044566 -4.32854e-19)
(-0.0173958 0.0483305 6.39801e-19)
(-0.0029198 0.0489504 5.368e-19)
(0.0179687 0.0468953 -4.42396e-19)
(0.045303 0.042631 -8.27338e-19)
(0.0791951 0.0365972 1.37771e-18)
(0.119818 0.029196 3.42469e-19)
(0.16737 0.0207894 -2.68593e-19)
(0.222016 0.0117037 -2.67331e-19)
(0.283812 0.00223789 -1.34127e-19)
(0.352611 -0.00732673 -2.10898e-19)
(0.427968 -0.0167085 -7.023e-19)
(0.508983 -0.0256615 -1.9262e-19)
(0.594466 -0.0337795 1.5202e-20)
(0.681868 -0.0409242 -5.27018e-19)
(0.769989 -0.0487842 2.61965e-19)
(0.855989 -0.0376173 -5.68553e-19)
(-0.00929087 0.00978748 -7.11965e-19)
(-0.0209153 0.024146 4.7835e-19)
(-0.0252783 0.0346077 -7.11997e-19)
(-0.0226659 0.0412371 -3.87987e-19)
(-0.0131427 0.0444413 1.44809e-19)
(0.0032358 0.0446721 -5.7978e-19)
(0.0264562 0.0423902 9.11676e-19)
(0.0565779 0.0380535 1.6148e-20)
(0.0937284 0.0320974 -5.12685e-19)
(0.13808 0.0249244 -4.49724e-19)
(0.189805 0.0169021 -8.07534e-19)
(0.249007 0.00836581 -9.41598e-21)
(0.315634 -0.000375833 2.98296e-20)
(0.389377 -0.009034 -1.89614e-19)
(0.469567 -0.0173238 8.45237e-19)
(0.555019 -0.0250132 5.24158e-19)
(0.644295 -0.0316294 1.29629e-19)
(0.734248 -0.0374769 -5.60909e-19)
(0.825309 -0.0414503 -3.01789e-20)
(0.903583 -0.031762 -9.15391e-19)
(-0.00907636 0.00919069 2.52895e-19)
(-0.0200439 0.0224584 -4.78037e-19)
(-0.0234609 0.0319791 6.14577e-19)
(-0.0195656 0.0378348 8.64323e-19)
(-0.0083806 0.0404439 -2.81441e-19)
(0.010076 0.040259 3.71491e-20)
(0.0358231 0.0377371 -7.67661e-19)
(0.068944 0.0333321 -1.90814e-19)
(0.109577 0.0274778 -6.00045e-19)
(0.157882 0.0205789 7.86232e-19)
(0.21399 0.0130081 7.3336e-19)
(0.277918 0.00510741 -1.30591e-19)
(0.349474 -0.00280966 -9.94502e-20)
(0.428143 -0.0104557 -8.58288e-21)
(0.512993 -0.0175562 1.50349e-19)
(0.602524 -0.0239141 -2.73147e-19)
(0.69502 -0.0290366 -3.18698e-19)
(0.786994 -0.0336305 6.73744e-19)
(0.88035 -0.0338026 -2.12559e-19)
(0.953222 -0.0313848 4.35822e-20)
(-0.00883783 0.00860337 6.68294e-20)
(-0.0190579 0.0207705 9.69649e-20)
(-0.0214058 0.0293279 -3.21581e-19)
(-0.0160786 0.0343831 -8.90363e-19)
(-0.00305988 0.0363733 1.44642e-19)
(0.0176677 0.0357579 4.38688e-19)
(0.0461533 0.0329952 2.00892e-19)
(0.0825001 0.0285387 8.65066e-19)
(0.126848 0.0228233 -5.45063e-19)
(0.179334 0.0162567 -7.12476e-19)
(0.240023 0.00921607 -1.31036e-19)
(0.308815 0.00204634 3.29531e-19)
(0.38534 -0.00494076 7.24853e-20)