/*--------------------------------*- C++ -*----------------------------------*\
  =========                 |
  \\      /  F ield         | OpenFOAM: The Open Source CFD Toolbox
   \\    /   O peration     | Website:  https://openfoam.org
    \\  /    A nd           | Version:  7
     \\/     M anipulation  |
\*---------------------------------------------------------------------------*/
FoamFile
{
    version     2.0;
    format      ascii;
    class       volScalarField;
    location    "5";
    object      p;
}
// * * * * * * * * * * * * * * * * * * * * * * * * * * * * * * * * * * * * * //

dimensions      [0 2 -2 0 0 0 0];

internalField   nonuniform List<scalar> 
34000
(
-0.338949
-0.343025
-0.345333
-0.347335
-0.34927
-0.35126
-0.35346
-0.355977
-0.358891
-0.362258
-0.366118
-0.3705
-0.375424
-0.380905
-0.386954
-0.393577
-0.400781
-0.408561
-0.416875
-0.425769
-0.339237
-0.343271
-0.345559
-0.347547
-0.349472
-0.351456
-0.35365
-0.356164
-0.359076
-0.362441
-0.366301
-0.370683
-0.375608
-0.381092
-0.387145
-0.393774
-0.400985
-0.408775
-0.417095
-0.425995
-0.339807
-0.343758
-0.346007
-0.347968
-0.349873
-0.351842
-0.354027
-0.356533
-0.35944
-0.362802
-0.366661
-0.371044
-0.375972
-0.38146
-0.38752
-0.394158
-0.401383
-0.409195
-0.417526
-0.426434
-0.34065
-0.344477
-0.346668
-0.348589
-0.350465
-0.352413
-0.354581
-0.357076
-0.359975
-0.363333
-0.367189
-0.371572
-0.376503
-0.381997
-0.388066
-0.394716
-0.401959
-0.409799
-0.418146
-0.427061
-0.341751
-0.345417
-0.347533
-0.3494
-0.351235
-0.353155
-0.355302
-0.357781
-0.360668
-0.364018
-0.36787
-0.372252
-0.377184
-0.382684
-0.388762
-0.395426
-0.402688
-0.410562
-0.418926
-0.427844
-0.34309
-0.346561
-0.348584
-0.350385
-0.352171
-0.354054
-0.356174
-0.358632
-0.361503
-0.364841
-0.368685
-0.373063
-0.377995
-0.383497
-0.389582
-0.396258
-0.40354
-0.411448
-0.419828
-0.428738
-0.344647
-0.34789
-0.349804
-0.351527
-0.353254
-0.355093
-0.357179
-0.35961
-0.36246
-0.365782
-0.369613
-0.373982
-0.378908
-0.384409
-0.390497
-0.39718
-0.404476
-0.412415
-0.420809
-0.429692
-0.346394
-0.349382
-0.351172
-0.352806
-0.354464
-0.356251
-0.358296
-0.360694
-0.363517
-0.366815
-0.370628
-0.374982
-0.379897
-0.385389
-0.391473
-0.398155
-0.405457
-0.413419
-0.421819
-0.430654
-0.348304
-0.351013
-0.352667
-0.354201
-0.355781
-0.357508
-0.359504
-0.361861
-0.364649
-0.367917
-0.371703
-0.376034
-0.380928
-0.386404
-0.392473
-0.399144
-0.406439
-0.414413
-0.422809
-0.431564
-0.350347
-0.352759
-0.354265
-0.355689
-0.357182
-0.35884
-0.360779
-0.363088
-0.365832
-0.369061
-0.372811
-0.377108
-0.381971
-0.387418
-0.39346
-0.400106
-0.407379
-0.415347
-0.423727
-0.432368
-0.352492
-0.354592
-0.355941
-0.357247
-0.358644
-0.360225
-0.362099
-0.364349
-0.36704
-0.370219
-0.373922
-0.378174
-0.382993
-0.388397
-0.394397
-0.401001
-0.408233
-0.416174
-0.424525
-0.433011
-0.354708
-0.356488
-0.357673
-0.358852
-0.360146
-0.361641
-0.363439
-0.365621
-0.368247
-0.371365
-0.375008
-0.379201
-0.383962
-0.389306
-0.395247
-0.401791
-0.40896
-0.41685
-0.425156
-0.433444
-0.356965
-0.35842
-0.359436
-0.360483
-0.361665
-0.363066
-0.364779
-0.366881
-0.369431
-0.372475
-0.376043
-0.380162
-0.384848
-0.390115
-0.395977
-0.40244
-0.409522
-0.417335
-0.425579
-0.433621
-0.359233
-0.360365
-0.361209
-0.362118
-0.363182
-0.364479
-0.366098
-0.368109
-0.370569
-0.373523
-0.377003
-0.38103
-0.385623
-0.390794
-0.396556
-0.402916
-0.409888
-0.417592
-0.425762
-0.433501
-0.361485
-0.3623
-0.362971
-0.363738
-0.364678
-0.365864
-0.367376
-0.369284
-0.371642
-0.374491
-0.377864
-0.381782
-0.386263
-0.391317
-0.396958
-0.403192
-0.410028
-0.417595
-0.425684
-0.433023
-0.363695
-0.364205
-0.364704
-0.365327
-0.366137
-0.367204
-0.3686
-0.370392
-0.372632
-0.37536
-0.378609
-0.382399
-0.386747
-0.391665
-0.397162
-0.403247
-0.409922
-0.417326
-0.425342
-0.432165
-0.365842
-0.36606
-0.366391
-0.36687
-0.367546
-0.368485
-0.369755
-0.371418
-0.373525
-0.376117
-0.379223
-0.382866
-0.387061
-0.39182
-0.397152
-0.403065
-0.409558
-0.416763
-0.424582
-0.431267
-0.367905
-0.367851
-0.36802
-0.368356
-0.368894
-0.369699
-0.370833
-0.372354
-0.374313
-0.37675
-0.379696
-0.383172
-0.387194
-0.391773
-0.396918
-0.402637
-0.408927
-0.415913
-0.423532
-0.429968
-0.369869
-0.369565
-0.36958
-0.369773
-0.370173
-0.370837
-0.371825
-0.373192
-0.374988
-0.377254
-0.380021
-0.383311
-0.38714
-0.391518
-0.396457
-0.401961
-0.408028
-0.414777
-0.422193
-0.428311
-0.37172
-0.371192
-0.371063
-0.371118
-0.371377
-0.371895
-0.372728
-0.373929
-0.375549
-0.377627
-0.380197
-0.383282
-0.386899
-0.391059
-0.395771
-0.401043
-0.40687
-0.413362
-0.420566
-0.42635
-0.37345
-0.372726
-0.372462
-0.372385
-0.372503
-0.372872
-0.373542
-0.374566
-0.375995
-0.377871
-0.380228
-0.38309
-0.386477
-0.3904
-0.394869
-0.399893
-0.405465
-0.411684
-0.418667
-0.424116
-0.375054
-0.374163
-0.373777
-0.373572
-0.373552
-0.373768
-0.374268
-0.375106
-0.376332
-0.377991
-0.380119
-0.382744
-0.385885
-0.389556
-0.393768
-0.398529
-0.403835
-0.40977
-0.416523
-0.421638
-0.37653
-0.375501
-0.375007
-0.374682
-0.374526
-0.374587
-0.374912
-0.375554
-0.376567
-0.377997
-0.379883
-0.382256
-0.385138
-0.388544
-0.392487
-0.396976
-0.402007
-0.40765
-0.414166
-0.418945
-0.377878
-0.376744
-0.376155
-0.375718
-0.375428
-0.375333
-0.375479
-0.37592
-0.376711
-0.377901
-0.379534
-0.381644
-0.384256
-0.387388
-0.391052
-0.395262
-0.400012
-0.405357
-0.411635
-0.416065
-0.379105
-0.377895
-0.377225
-0.376684
-0.376265
-0.376015
-0.375979
-0.376213
-0.376775
-0.377718
-0.37909
-0.380928
-0.383262
-0.386112
-0.389494
-0.393419
-0.397887
-0.40293
-0.408971
-0.413025
-0.380217
-0.378961
-0.378224
-0.377588
-0.377045
-0.376641
-0.376422
-0.376446
-0.376774
-0.377465
-0.378569
-0.380131
-0.382182
-0.384748
-0.387844
-0.391485
-0.39567
-0.400409
-0.406218
-0.409848
-0.381227
-0.379953
-0.379161
-0.378439
-0.377776
-0.377221
-0.376819
-0.376632
-0.376725
-0.37716
-0.377995
-0.379277
-0.381045
-0.383327
-0.38614
-0.389498
-0.393403
-0.397837
-0.40342
-0.406553
-0.382147
-0.38088
-0.380047
-0.379246
-0.37847
-0.377766
-0.377184
-0.376786
-0.376643
-0.376824
-0.37739
-0.378394
-0.379881
-0.381881
-0.384415
-0.387497
-0.391128
-0.395254
-0.400623
-0.403157
-0.382994
-0.381757
-0.380892
-0.380021
-0.379137
-0.378289
-0.377528
-0.376923
-0.376548
-0.376476
-0.376776
-0.377507
-0.378718
-0.380444
-0.382707
-0.385521
-0.388884
-0.392701
-0.397868
-0.39968
-0.383785
-0.382598
-0.381711
-0.380776
-0.379789
-0.378802
-0.377867
-0.377059
-0.376456
-0.376137
-0.376178
-0.376643
-0.377587
-0.379048
-0.38105
-0.383605
-0.38671
-0.390215
-0.395195
-0.396142
-0.384541
-0.383418
-0.382518
-0.381524
-0.38044
-0.379318
-0.378215
-0.377209
-0.376385
-0.375828
-0.375618
-0.375828
-0.376515
-0.377722
-0.379476
-0.381784
-0.38464
-0.387829
-0.392634
-0.392574
-0.385283
-0.384236
-0.383328
-0.382281
-0.381104
-0.379852
-0.378587
-0.377391
-0.376354
-0.375568
-0.375119
-0.375084
-0.375527
-0.376495
-0.378013
-0.380085
-0.382701
-0.385574
-0.390208
-0.389011
-0.386033
-0.385069
-0.384156
-0.383059
-0.381793
-0.380417
-0.378996
-0.377619
-0.37638
-0.375376
-0.3747
-0.374435
-0.374649
-0.375391
-0.376686
-0.378535
-0.380917
-0.383473
-0.387927
-0.385503
-0.386815
-0.385936
-0.385019
-0.383874
-0.382523
-0.381027
-0.379459
-0.377909
-0.376479
-0.37527
-0.374382
-0.373901
-0.373901
-0.374431
-0.375516
-0.377152
-0.379304
-0.381547
-0.385786
-0.382107
-0.387652
-0.386855
-0.385934
-0.384742
-0.383308
-0.381698
-0.379988
-0.378276
-0.376666
-0.375267
-0.374181
-0.3735
-0.373299
-0.373632
-0.374518
-0.37595
-0.377871
-0.379814
-0.383773
-0.378903
-0.388566
-0.387845
-0.386917
-0.385677
-0.384162
-0.382442
-0.380599
-0.378734
-0.376958
-0.375381
-0.374112
-0.373245
-0.372859
-0.373006
-0.373704
-0.374939
-0.376623
-0.378293
-0.381861
-0.375984
-0.389581
-0.388924
-0.387984
-0.386693
-0.385099
-0.383273
-0.381304
-0.379296
-0.377365
-0.375625
-0.374187
-0.373149
-0.372589
-0.372562
-0.37308
-0.374124
-0.375562
-0.376998
-0.379987
-0.373368
-0.390717
-0.390109
-0.38915
-0.387806
-0.386131
-0.384203
-0.382114
-0.379974
-0.3779
-0.37601
-0.374416
-0.373219
-0.372498
-0.372305
-0.372649
-0.373509
-0.374699
-0.375968
-0.378058
-0.370916
-0.391993
-0.391416
-0.390429
-0.389027
-0.387271
-0.385244
-0.383042
-0.380778
-0.378571
-0.376542
-0.374806
-0.373461
-0.372587
-0.372233
-0.372407
-0.373091
-0.374056
-0.375295
-0.376211
-0.369138
-0.393429
-0.392859
-0.391835
-0.390369
-0.38853
-0.386405
-0.384095
-0.381714
-0.379385
-0.377228
-0.375358
-0.373874
-0.372853
-0.372343
-0.372347
-0.372857
-0.37363
-0.375003
-0.375107
-0.371633
-0.395036
-0.394453
-0.39338
-0.391842
-0.389917
-0.387695
-0.385281
-0.38279
-0.380347
-0.378071
-0.376075
-0.374458
-0.373293
-0.372624
-0.372452
-0.372779
-0.373357
-0.374837
-0.374911
-0.382958
-0.396831
-0.396207
-0.395073
-0.393457
-0.391441
-0.389122
-0.386606
-0.38401
-0.381458
-0.379069
-0.376955
-0.375208
-0.373898
-0.373064
-0.372702
-0.372822
-0.373173
-0.374599
-0.374393
-0.383678
-0.398823
-0.398133
-0.396923
-0.395219
-0.393109
-0.39069
-0.388073
-0.385376
-0.38272
-0.380223
-0.377992
-0.376115
-0.374657
-0.373647
-0.373076
-0.372952
-0.373022
-0.374171
-0.37348
-0.381782
-0.40102
-0.400237
-0.398939
-0.397137
-0.394925
-0.392404
-0.389686
-0.386889
-0.384132
-0.381529
-0.379182
-0.377173
-0.375557
-0.374357
-0.373551
-0.373142
-0.372871
-0.373571
-0.372347
-0.37918
-0.403428
-0.402526
-0.401125
-0.399215
-0.396894
-0.394267
-0.391447
-0.388549
-0.385691
-0.382982
-0.380517
-0.378369
-0.376585
-0.375175
-0.374105
-0.373366
-0.372694
-0.372825
-0.371026
-0.376128
-0.406052
-0.405004
-0.403486
-0.401458
-0.399019
-0.396281
-0.393355
-0.390356
-0.387395
-0.384578
-0.381989
-0.379695
-0.377727
-0.376083
-0.374717
-0.373601
-0.372471
-0.371947
-0.369537
-0.372856
-0.408894
-0.407675
-0.406026
-0.403867
-0.401303
-0.398448
-0.395412
-0.392308
-0.389242
-0.386311
-0.383593
-0.381139
-0.378968
-0.377064
-0.375366
-0.373827
-0.372188
-0.370953
-0.367908
-0.36952
-0.411954
-0.410541
-0.408747
-0.406448
-0.403749
-0.40077
-0.397619
-0.394405
-0.391229
-0.388178
-0.385318
-0.382689
-0.380293
-0.378099
-0.376031
-0.374027
-0.371834
-0.369855
-0.366165
-0.366204
-0.415233
-0.413605
-0.411652
-0.4092
-0.406358
-0.403247
-0.399975
-0.396646
-0.393352
-0.390172
-0.387159
-0.384335
-0.381688
-0.379171
-0.376695
-0.374184
-0.371401
-0.368664
-0.364326
-0.362949
-0.418731
-0.416866
-0.414742
-0.412127
-0.409132
-0.405882
-0.402482
-0.39903
-0.395612
-0.392291
-0.389107
-0.386066
-0.383139
-0.380262
-0.37734
-0.374286
-0.370883
-0.367387
-0.362408
-0.359772
-0.422445
-0.420327
-0.418019
-0.415231
-0.412073
-0.408677
-0.405141
-0.401559
-0.398005
-0.394529
-0.391155
-0.38787
-0.384629
-0.381357
-0.377949
-0.37432
-0.370276
-0.366028
-0.360422
-0.356675
-0.426376
-0.423986
-0.421484
-0.418513
-0.415185
-0.411633
-0.407955
-0.404233
-0.40053
-0.396883
-0.393294
-0.389736
-0.386145
-0.382438
-0.378508
-0.374275
-0.369574
-0.364592
-0.358375
-0.35365
-0.430522
-0.427844
-0.425139
-0.421975
-0.418468
-0.414755
-0.410925
-0.407052
-0.403186
-0.399345
-0.395516
-0.39165
-0.387671
-0.383489
-0.379003
-0.374142
-0.368777
-0.36308
-0.356271
-0.350685
-0.43488
-0.431902
-0.428983
-0.425619
-0.421926
-0.418043
-0.414052
-0.410017
-0.405971
-0.401913
-0.39781
-0.393599
-0.389192
-0.384496
-0.379421
-0.373914
-0.367881
-0.361493
-0.354114
-0.347766
-0.43945
-0.436157
-0.433017
-0.429447
-0.425561
-0.421501
-0.417339
-0.413127
-0.40888
-0.404578
-0.400167
-0.395569
-0.390691
-0.385443
-0.379751
-0.373583
-0.366885
-0.35983
-0.351904
-0.344877
-0.444229
-0.440611
-0.437243
-0.43346
-0.429375
-0.425129
-0.420786
-0.41638
-0.411908
-0.40733
-0.402572
-0.397545
-0.392152
-0.386315
-0.379981
-0.373144
-0.365787
-0.35809
-0.34964
-0.342005
-0.449215
-0.445261
-0.441659
-0.437658
-0.433368
-0.428929
-0.424392
-0.419773
-0.415049
-0.410158
-0.405012
-0.39951
-0.393561
-0.387101
-0.380103
-0.372591
-0.364585
-0.356273
-0.347321
-0.339135
-0.454405
-0.450105
-0.446265
-0.442041
-0.437542
-0.432901
-0.428154
-0.4233
-0.418293
-0.41305
-0.407469
-0.401446
-0.394899
-0.387786
-0.380108
-0.371921
-0.363278
-0.354375
-0.344944
-0.336255
-0.459794
-0.455139
-0.451058
-0.446609
-0.441894
-0.437041
-0.432069
-0.426954
-0.421629
-0.415991
-0.409928
-0.403337
-0.396152
-0.388357
-0.379987
-0.371128
-0.361864
-0.352395
-0.342506
-0.333353
-0.465377
-0.460359
-0.456034
-0.451357
-0.446421
-0.441346
-0.43613
-0.430725
-0.425043
-0.418963
-0.412368
-0.405163
-0.397303
-0.388804
-0.379734
-0.37021
-0.360341
-0.35033
-0.340003
-0.330418
-0.471146
-0.46576
-0.461189
-0.456282
-0.451119
-0.445809
-0.440326
-0.4346
-0.428517
-0.421947
-0.414769
-0.406905
-0.398337
-0.389115
-0.379343
-0.369163
-0.358706
-0.348176
-0.33743
-0.327442
-0.477092
-0.471333
-0.466515
-0.461376
-0.45598
-0.45042
-0.444647
-0.438562
-0.432034
-0.424922
-0.417112
-0.408546
-0.39924
-0.389281
-0.378806
-0.367982
-0.356957
-0.34593
-0.334784
-0.324414
-0.483204
-0.477068
-0.472004
-0.466632
-0.460995
-0.455169
-0.449076
-0.442593
-0.435571
-0.427864
-0.419372
-0.410065
-0.399997
-0.389292
-0.378119
-0.366665
-0.355091
-0.343587
-0.332058
-0.321325
-0.489469
-0.482954
-0.477646
-0.472037
-0.46615
-0.460039
-0.453595
-0.446672
-0.439104
-0.43075
-0.421528
-0.411445
-0.400594
-0.389138
-0.377274
-0.365206
-0.353103
-0.341142
-0.329247
-0.318169
-0.495871
-0.488977
-0.483425
-0.477579
-0.471432
-0.465014
-0.458184
-0.450773
-0.442607
-0.433552
-0.423557
-0.412667
-0.401018
-0.38881
-0.376267
-0.363602
-0.350988
-0.33859
-0.326345
-0.314936
-0.502391
-0.49512
-0.489327
-0.483241
-0.476821
-0.470071
-0.462818
-0.454871
-0.446052
-0.436247
-0.425437
-0.413713
-0.401256
-0.388301
-0.375091
-0.361847
-0.348742
-0.335926
-0.323346
-0.311619
-0.50901
-0.501363
-0.495333
-0.489003
-0.482298
-0.475188
-0.46747
-0.458935
-0.44941
-0.438805
-0.427144
-0.414566
-0.401296
-0.3876
-0.373738
-0.359936
-0.346359
-0.333142
-0.320242
-0.308211
-0.515702
-0.507686
-0.501421
-0.494844
-0.487836
-0.480336
-0.472109
-0.462935
-0.45265
-0.4412
-0.428655
-0.415208
-0.401124
-0.386699
-0.372204
-0.357862
-0.343833
-0.330233
-0.317027
-0.304703
-0.522442
-0.514064
-0.507569
-0.500739
-0.49341
-0.485486
-0.476705
-0.466837
-0.455742
-0.443404
-0.42995
-0.415623
-0.40073
-0.38559
-0.37048
-0.355619
-0.341156
-0.327191
-0.313694
-0.301089
-0.529201
-0.52047
-0.513749
-0.50666
-0.49899
-0.490606
-0.481221
-0.470608
-0.458653
-0.445391
-0.431006
-0.415795
-0.400102
-0.384263
-0.368559
-0.353199
-0.338323
-0.32401
-0.310235
-0.297361
-0.535947
-0.526875
-0.519931
-0.512576
-0.504541
-0.49566
-0.485622
-0.474211
-0.461351
-0.447133
-0.431803
-0.415708
-0.399228
-0.382709
-0.366433
-0.350597
-0.335325
-0.320681
-0.306643
-0.293511
-0.542647
-0.533246
-0.526084
-0.518454
-0.51003
-0.50061
-0.489871
-0.477612
-0.463804
-0.448604
-0.43232
-0.415348
-0.398096
-0.38092
-0.364094
-0.347803
-0.332156
-0.317197
-0.302911
-0.289533
-0.549263
-0.539549
-0.532172
-0.524257
-0.515417
-0.505417
-0.493926
-0.480772
-0.465981
-0.449778
-0.432537
-0.4147
-0.396696
-0.378885
-0.361533
-0.344809
-0.328806
-0.313551
-0.299031
-0.28542
-0.555758
-0.545747
-0.53816
-0.529948
-0.520662
-0.51004
-0.497749
-0.483655
-0.46785
-0.450632
-0.432437
-0.413749
-0.395016
-0.376596
-0.358743
-0.341608
-0.325268
-0.309734
-0.294995
-0.281164
-0.56209
-0.551801
-0.544007
-0.535485
-0.525724
-0.514436
-0.501299
-0.486226
-0.469382
-0.451141
-0.432
-0.412482
-0.393045
-0.374043
-0.355714
-0.338192
-0.321535
-0.305739
-0.290797
-0.276759
-0.568216
-0.55767
-0.549671
-0.540825
-0.530557
-0.518562
-0.504535
-0.488449
-0.470547
-0.451281
-0.43121
-0.410884
-0.390772
-0.371216
-0.352438
-0.334551
-0.317597
-0.301559
-0.286428
-0.272198
-0.574094
-0.563311
-0.555111
-0.545925
-0.535119
-0.522374
-0.507417
-0.490287
-0.471316
-0.451033
-0.430049
-0.408944
-0.388186
-0.368106
-0.348905
-0.330677
-0.313448
-0.297186
-0.281883
-0.267475
-0.579677
-0.56868
-0.56028
-0.550738
-0.539361
-0.525828
-0.509904
-0.491709
-0.471663
-0.450374
-0.428503
-0.406649
-0.385278
-0.364704
-0.345106
-0.326562
-0.309078
-0.292613
-0.277154
-0.262583
-0.584918
-0.573731
-0.565132
-0.555217
-0.543239
-0.528879
-0.511958
-0.492681
-0.471562
-0.449285
-0.426555
-0.403986
-0.382035
-0.360999
-0.341034
-0.322198
-0.304482
-0.287833
-0.272236
-0.257518
-0.58977
-0.578418
-0.569622
-0.559316
-0.546706
-0.531486
-0.513541
-0.493172
-0.470989
-0.447748
-0.424192
-0.400944
-0.378449
-0.356983
-0.336679
-0.317577
-0.299651
-0.282839
-0.26712
-0.252273
-0.594187
-0.582694
-0.573701
-0.562987
-0.549715
-0.533604
-0.514617
-0.493154
-0.469922
-0.445745
-0.4214
-0.397511
-0.37451
-0.352647
-0.332034
-0.312691
-0.294578
-0.277624
-0.261803
-0.246844
-0.598119
-0.586512
-0.577322
-0.566182
-0.552221
-0.535194
-0.51515
-0.492597
-0.468338
-0.44326
-0.418166
-0.393678
-0.370208
-0.347982
-0.327091
-0.307534
-0.289257
-0.272183
-0.256278
-0.241225
-0.601519
-0.589823
-0.580437
-0.568854
-0.554179
-0.536216
-0.515108
-0.491477
-0.466219
-0.440278
-0.414479
-0.389434
-0.365534
-0.342981
-0.321841
-0.302097
-0.283681
-0.266511
-0.250541
-0.235413
-0.60434
-0.592582
-0.582998
-0.570958
-0.555547
-0.536632
-0.51446
-0.489769
-0.463546
-0.436787
-0.410328
-0.384771
-0.360481
-0.337636
-0.316279
-0.296376
-0.277846
-0.260601
-0.244586
-0.229404
-0.606537
-0.594743
-0.584961
-0.572448
-0.556284
-0.536406
-0.513177
-0.487452
-0.460304
-0.432772
-0.405702
-0.379679
-0.355041
-0.33194
-0.310398
-0.290364
-0.271746
-0.25445
-0.238411
-0.223193
-0.608063
-0.59626
-0.58628
-0.573281
-0.55635
-0.535506
-0.511235
-0.484506
-0.456477
-0.428224
-0.400594
-0.37415
-0.349206
-0.325886
-0.304191
-0.284056
-0.265375
-0.248054
-0.23201
-0.216779
-0.608877
-0.59709
-0.586912
-0.573416
-0.555709
-0.533902
-0.508608
-0.480914
-0.452053
-0.423133
-0.394994
-0.368179
-0.342972
-0.31947
-0.297655
-0.277447
-0.258731
-0.241408
-0.225381
-0.210158
-0.608937
-0.597192
-0.586816
-0.572815
-0.554326
-0.531564
-0.505275
-0.47666
-0.447021
-0.417489
-0.388897
-0.361759
-0.336331
-0.312685
-0.290784
-0.270534
-0.251809
-0.23451
-0.218521
-0.203329
-0.608204
-0.596526
-0.585953
-0.571441
-0.55217
-0.528469
-0.501219
-0.471731
-0.441371
-0.411287
-0.382296
-0.354885
-0.32928
-0.305529
-0.283576
-0.263313
-0.244608
-0.227357
-0.21143
-0.196292
-0.606641
-0.595055
-0.584286
-0.56926
-0.549213
-0.524594
-0.496422
-0.466116
-0.435095
-0.404519
-0.375186
-0.347553
-0.321815
-0.297997
-0.276026
-0.255782
-0.237123
-0.219947
-0.204105
-0.189053
-0.604214
-0.592744
-0.581783
-0.566243
-0.545429
-0.51992
-0.490873
-0.459806
-0.428189
-0.397184
-0.367565
-0.33976
-0.313934
-0.290088
-0.268133
-0.247939
-0.229355
-0.212277
-0.196546
-0.181608
-0.600893
-0.589562
-0.578412
-0.562362
-0.540797
-0.514432
-0.48456
-0.452795
-0.420648
-0.389276
-0.35943
-0.331504
-0.305634
-0.2818
-0.259896
-0.239783
-0.221301
-0.204347
-0.188747
-0.173918
-0.596649
-0.585481
-0.574146
-0.557592
-0.535298
-0.508115
-0.477475
-0.445079
-0.412468
-0.380796
-0.350781
-0.322785
-0.296916
-0.273132
-0.251315
-0.231314
-0.212963
-0.196165
-0.180717
-0.165943
-0.591459
-0.580475
-0.568961
-0.551915
-0.528916
-0.500961
-0.469613
-0.436654
-0.403651
-0.371742
-0.341617
-0.313602
-0.287779
-0.264085
-0.24239
-0.222533
-0.204344
-0.187732
-0.172464
-0.157775
-0.585301
-0.574522
-0.562838
-0.545313
-0.521641
-0.492963
-0.460972
-0.427521
-0.394197
-0.362118
-0.331941
-0.303958
-0.278225
-0.254662
-0.233123
-0.213442
-0.195445
-0.179041
-0.163945
-0.14948
-0.578157
-0.567604
-0.555759
-0.537773
-0.513463
-0.484118
-0.451551
-0.417683
-0.384109
-0.351926
-0.321754
-0.293855
-0.268258
-0.244863
-0.223517
-0.204044
-0.186267
-0.170097
-0.155204
-0.140986
-0.570015
-0.559708
-0.547712
-0.529287
-0.504379
-0.474424
-0.441353
-0.407143
-0.373392
-0.34117
-0.311063
-0.283298
-0.257879
-0.234693
-0.213575
-0.194342
-0.176815
-0.160904
-0.146245
-0.132284
-0.560864
-0.550821
-0.538688
-0.519847
-0.494386
-0.463884
-0.430383
-0.395907
-0.362051
-0.329857
-0.299872
-0.272291
-0.247096
-0.224157
-0.203301
-0.18434
-0.167092
-0.151466
-0.137067
-0.123377
-0.550699
-0.540938
-0.52868
-0.509453
-0.483487
-0.452504
-0.418649
-0.383984
-0.350097
-0.317995
-0.288188
-0.260841
-0.235913
-0.21326
-0.192702
-0.174043
-0.157103
-0.141789
-0.127673
-0.114272
-0.539516
-0.530056
-0.517689
-0.498107
-0.471688
-0.440293
-0.40616
-0.371384
-0.337538
-0.305592
-0.27602
-0.248956
-0.224338
-0.20201
-0.181783
-0.163458
-0.146853
-0.131878
-0.118067
-0.104976
-0.527317
-0.518174
-0.505716
-0.485813
-0.458996
-0.42726
-0.392928
-0.358119
-0.324385
-0.292659
-0.263377
-0.236645
-0.212379
-0.190413
-0.170552
-0.152592
-0.13635
-0.121739
-0.108255
-0.0954933
-0.514108
-0.505299
-0.492768
-0.472581
-0.445424
-0.41342
-0.378969
-0.344204
-0.310653
-0.279209
-0.250272
-0.223917
-0.200045
-0.178479
-0.159017
-0.141451
-0.125601
-0.111379
-0.0982422
-0.0858319
-0.499897
-0.491437
-0.478854
-0.458424
-0.430987
-0.398788
-0.364297
-0.329653
-0.296355
-0.265255
-0.236715
-0.210785
-0.187348
-0.166218
-0.147188
-0.130046
-0.114614
-0.100805
-0.0880369
-0.0759985
-0.484699
-0.476601
-0.463987
-0.443356
-0.415702
-0.383385
-0.348933
-0.314486
-0.281508
-0.250811
-0.222721
-0.197261
-0.174299
-0.153641
-0.135074
-0.118386
-0.103399
-0.0900255
-0.0776469
-0.0660007
-0.468527
-0.460808
-0.448186
-0.427397
-0.39959
-0.367231
-0.332897
-0.298721
-0.26613
-0.235894
-0.208304
-0.183358
-0.160911
-0.140759
-0.122688
-0.106481
-0.0919641
-0.0790502
-0.0670808
-0.0558468
-0.451404
-0.444075
-0.43147
-0.410569
-0.382674
-0.35035
-0.316212
-0.282378
-0.25024
-0.220522
-0.19348
-0.169091
-0.147197
-0.127586
-0.11004
-0.0943427
-0.0803213
-0.067889
-0.0563482
-0.0455459
-0.433351
-0.426425
-0.413862
-0.392897
-0.364981
-0.332768
-0.298899
-0.265481
-0.233858
-0.204713
-0.178267
-0.154477
-0.133172
-0.114135
-0.0971449
-0.0819834
-0.0684818
-0.0565526
-0.0454594
-0.0351078
-0.414396
-0.407885
-0.395389
-0.374409
-0.34654
-0.314513
-0.280985
-0.248054
-0.217007
-0.188487
-0.162683
-0.139532
-0.118852
-0.100421
-0.0840154
-0.069416
-0.056458
-0.0450527
-0.0344255
-0.0245432
-0.394567
-0.388483
-0.376081
-0.355136
-0.327381
-0.295606
-0.262504
-0.230123
-0.199711
-0.171865
-0.146748
-0.124274
-0.104253
-0.086459
-0.0706662
-0.0566543
-0.044263
-0.0334015
-0.0232586
-0.013864
-0.373897
-0.368251
-0.355971
-0.335115
-0.30753
-0.276089
-0.243481
-0.211714
-0.181992
-0.154871
-0.130481
-0.108722
-0.0893935
-0.072266
-0.0571126
-0.0437127
-0.0319105
-0.0216123
-0.0119713
-0.00308341
-0.35242
-0.347225
-0.335096
-0.314384
-0.287015
-0.255991
-0.223945
-0.192855
-0.163878
-0.137527
-0.113904
-0.0928954
-0.0742908
-0.0578585
-0.0433703
-0.0306062
-0.0194151
-0.00969851
-0.000577428
0.00778358
-0.330174
-0.325441
-0.31349
-0.292949
-0.265907
-0.235349
-0.20393
-0.173576
-0.145394
-0.119857
-0.0970407
-0.0768148
-0.0589641
-0.0432539
-0.0294557
-0.0173503
-0.0067916
0.00232547
0.0109085
0.0187198
-0.307197
-0.30294
-0.291196
-0.270877
-0.244219
-0.214199
-0.18347
-0.153908
-0.126569
-0.101887
-0.0799125
-0.0605014
-0.0434327
-0.0284705
-0.0153857
-0.00396096
0.00594449
0.0144451
0.0224704
0.0297029
-0.28353
-0.279766
-0.268243
-0.248217
-0.221994
-0.192577
-0.162598
-0.133882
-0.107432
-0.0836437
-0.0625441
-0.0439772
-0.027717
-0.0135266
-0.00117711
0.00954589
0.0187777
0.0266454
0.0340901
0.0407021
-0.259209
-0.25597
-0.244691
-0.225002
-0.199273
-0.170522
-0.141352
-0.113531
-0.0880118
-0.0651534
-0.0449601
-0.0272648
-0.0118377
0.00155882
0.0131527
0.0231542
0.0316924
0.0389119
0.0457498
0.0516854
-0.234281
-0.231605
-0.220587
-0.201277
-0.176101
-0.148075
-0.119766
-0.0928871
-0.0683391
-0.0464441
-0.0271859
-0.0103875
0.00418413
0.0167665
0.0275865
0.0368476
0.0446728
0.0512328
0.057441
0.0626322
-0.208847
-0.206679
-0.195975
-0.17709
-0.15252
-0.125275
-0.0978794
-0.0719858
-0.0484451
-0.0275443
-0.00924763
0.00663088
0.0203266
0.0320769
0.0421067
0.0506098
0.0577045
0.0636051
0.0691638
0.0734791
-0.182942
-0.181247
-0.170902
-0.152486
-0.128576
-0.102166
-0.0757298
-0.0508618
-0.0283618
-0.00848331
0.00882793
0.0237658
0.0365674
0.0474702
0.0566955
0.0644246
0.0707797
0.0760403
0.0808901
0.0839808
-0.156589
-0.155382
-0.14542
-0.127516
-0.104316
-0.0787886
-0.0533565
-0.0295508
-0.00812181
0.0107091
0.0270135
0.0409921
0.052884
0.0629257
0.0713343
0.0782778
0.083901
0.0885544
0.0925222
0.093794
-0.129843
-0.129138
-0.119579
-0.102228
-0.079785
-0.0551872
-0.0307989
-0.00808884
0.0122418
0.0300026
0.0452811
0.0582843
0.0692528
0.078422
0.0860036
0.0921574
0.0970712
0.101123
0.103936
0.103221
-0.102761
-0.102568
-0.0934328
-0.0766733
-0.0550315
-0.0314053
-0.00809731
0.0134873
0.0326955
0.0493664
0.0636024
0.0756165
0.0856497
0.0939365
0.100683
0.106049
0.11027
0.113648
0.115031
0.114348
-0.0754
-0.0757232
-0.0670335
-0.0509023
-0.0301029
-0.00748711
0.0147077
0.0351404
0.0532051
0.068769
0.0819486
0.0929617
0.10205
0.109446
0.115353
0.119933
0.123447
0.126107
0.126596
0.126262
-0.0478158
-0.0486598
-0.0404358
-0.0249671
-0.00504779
0.0165227
0.0375753
0.0568331
0.0737363
0.0881791
0.100291
0.110293
0.118428
0.124928
0.12999
0.133783
0.136575
0.138502
0.138301
0.137919
-0.0200663
-0.0214336
-0.0136945
0.0010804
0.0200852
0.0405792
0.0604643
0.0785278
0.0942546
0.107565
0.118599
0.127583
0.13476
0.140357
0.144572
0.147577
0.149636
0.150841
0.150036
0.149415
0.00779101
0.00589919
0.0131355
0.0271878
0.0452472
0.0646374
0.0833335
0.100187
0.114725
0.126894
0.136844
0.144805
0.151018
0.15571
0.159076
0.16129
0.16261
0.163104
0.161715
0.160745
0.0356983
0.0332818
0.0399989
0.0533026
0.0703893
0.0886524
0.106142
0.121772
0.135113
0.146135
0.154997
0.161931
0.167178
0.170963
0.173479
0.1749
0.175479
0.175267
0.173294
0.171899
0.0635975
0.0606575
0.0668406
0.0793724
0.0954628
0.112579
0.128847
0.143245
0.155385
0.165255
0.173027
0.178934
0.183215
0.186093
0.187758
0.188386
0.188222
0.187307
0.184743
0.182872
0.0914309
0.0879691
0.0936053
0.105345
0.120419
0.136373
0.15141
0.164569
0.175504
0.184223
0.190905
0.195785
0.199102
0.201074
0.201892
0.201727
0.200819
0.199202
0.196041
0.19366
0.119141
0.11516
0.120238
0.131168
0.14521
0.159989
0.173788
0.185707
0.195437
0.203007
0.208602
0.212459
0.214814
0.215885
0.215857
0.214902
0.213253
0.210935
0.207173
0.204258
0.146669
0.142173
0.146684
0.156791
0.169787
0.183384
0.195941
0.206621
0.21515
0.221575
0.226088
0.228928
0.230327
0.230501
0.229633
0.227892
0.225504
0.222488
0.218123
0.214658
0.173959
0.168953
0.172889
0.182161
0.194103
0.206513
0.21783
0.227274
0.234608
0.239896
0.243336
0.245165
0.245616
0.244901
0.243199
0.240677
0.237555
0.233846
0.228879
0.224853
0.200954
0.195444
0.198799
0.207228
0.21811
0.229333
0.239414
0.24763
0.253779
0.257939
0.260315
0.261144
0.260657
0.25906
0.256533
0.253239
0.24939
0.244993
0.239428
0.234836
0.227599
0.221591
0.224362
0.231943
0.241764
0.251802
0.260654
0.267653
0.272628
0.275674
0.276999
0.27684
0.275425
0.272959
0.269616
0.265558
0.26099
0.255914
0.249758
0.244595
0.253838
0.24734
0.249525
0.256256
0.265018
0.273879
0.281513
0.287308
0.291125
0.293071
0.293359
0.292227
0.289898
0.286574
0.282428
0.277618
0.27234
0.266595
0.259856
0.254123
0.279616
0.272637
0.274237
0.28012
0.287827
0.295521
0.301952
0.306561
0.309236
0.3101
0.309369
0.307279
0.304052
0.299886
0.29495
0.289399
0.283423
0.277021
0.26971
0.263408
0.304882
0.29743
0.298448
0.303486
0.310148
0.31669
0.321935
0.325376
0.32693
0.326732
0.325002
0.321973
0.317864
0.312872
0.307161
0.300885
0.294225
0.287178
0.279306
0.272441
0.329582
0.321669
0.322109
0.326309
0.331939
0.337344
0.341425
0.343721
0.344178
0.342941
0.340231
0.336283
0.331314
0.325513
0.319045
0.312059
0.304729
0.297053
0.288633
0.281211
0.353665
0.345302
0.345172
0.348545
0.353157
0.357448
0.360387
0.361564
0.360949
0.358697
0.355033
0.350188
0.344378
0.337789
0.330582
0.322904
0.314921
0.306632
0.297678
0.289707
0.377084
0.368283
0.367589
0.370148
0.373762
0.376962
0.378787
0.378874
0.377214
0.373974
0.369381
0.363665
0.357036
0.349681
0.341756
0.333404
0.324786
0.315901
0.306429
0.297919
0.399789
0.390563
0.389317
0.391077
0.393715
0.395851
0.396593
0.395619
0.392945
0.388747
0.383252
0.37669
0.369269
0.36117
0.352548
0.343543
0.334309
0.324848
0.314874
0.305836
0.421733
0.412097
0.410311
0.411291
0.412979
0.414081
0.413771
0.41177
0.408115
0.40299
0.396623
0.389244
0.381055
0.372238
0.362943
0.353307
0.343478
0.333459
0.323001
0.31345
0.442873
0.432841
0.43053
0.430751
0.431516
0.431617
0.430291
0.427299
0.422698
0.416678
0.409472
0.401304
0.392377
0.382867
0.372923
0.362679
0.352277
0.341723
0.330799
0.320748
0.463165
0.452752
0.449932
0.449418
0.449291
0.448427
0.446123
0.442178
0.436667
0.42979
0.421777
0.412852
0.403216
0.393041
0.382475
0.371647
0.360694
0.349627
0.338257
0.327723
0.482568
0.47179
0.468479
0.467256
0.466272
0.464481
0.461239
0.456381
0.45
0.442301
0.433517
0.423868
0.413554
0.402744
0.391582
0.380196
0.368717
0.35716
0.345363
0.334365
0.501041
0.489917
0.486133
0.484231
0.482425
0.479749
0.475612
0.469884
0.462674
0.454192
0.444672
0.434335
0.423375
0.411959
0.400231
0.388314
0.376334
0.36431
0.352108
0.340664
0.518548
0.507095
0.502861
0.500309
0.497721
0.494203
0.489216
0.482661
0.474665
0.465441
0.455225
0.444234
0.432662
0.420673
0.408407
0.395987
0.383533
0.371067
0.358482
0.346613
0.535053
0.52329
0.518627
0.51546
0.512131
0.507816
0.502026
0.494692
0.485953
0.47603
0.465157
0.45355
0.441401
0.428871
0.416099
0.403205
0.390303
0.377421
0.364475
0.352203
0.550523
0.538468
0.533402
0.529654
0.525628
0.520563
0.51402
0.505954
0.496519
0.48594
0.474451
0.462267
0.449576
0.43654
0.423294
0.409955
0.396633
0.383363
0.370078
0.357426
0.564926
0.5526
0.547156
0.542864
0.538185
0.532422
0.525175
0.516428
0.506345
0.495155
0.483092
0.47037
0.457176
0.443668
0.42998
0.416227
0.402516
0.388883
0.375284
0.362277
0.578233
0.565656
0.55986
0.555064
0.549781
0.54337
0.535473
0.526095
0.515413
0.503658
0.491065
0.477847
0.464187
0.450244
0.436148
0.422012
0.40794
0.393973
0.380083
0.366747
0.590417