/*--------------------------------*- C++ -*----------------------------------*\
  =========                 |
  \\      /  F ield         | OpenFOAM: The Open Source CFD Toolbox
   \\    /   O peration     | Website:  https://openfoam.org
    \\  /    A nd           | Version:  7
     \\/     M anipulation  |
\*---------------------------------------------------------------------------*/
FoamFile
{
    version     2.0;
    format      ascii;
    class       volVectorField;
    location    "65";
    object      U;
}
// * * * * * * * * * * * * * * * * * * * * * * * * * * * * * * * * * * * * * //

dimensions      [0 1 -1 0 0 0 0];

internalField   nonuniform List<vector> 
3025
(
(1.01357 0.458351 4.47917e-20)
(0.974228 0.480015 3.36387e-20)
(0.991481 0.455166 -2.45051e-19)
(0.929827 0.502822 3.41446e-20)
(0.949736 0.476424 -4.04572e-20)
(0.968716 0.450446 2.20856e-19)
(0.904266 0.499081 -4.86743e-20)
(0.924523 0.471539 -2.08969e-20)
(0.945113 0.444077 -3.5775e-19)
(0.855265 0.519185 1.71351e-19)
(0.878532 0.494079 8.22537e-20)
(0.898883 0.465616 4.13317e-19)
(0.920261 0.436394 1.29505e-19)
(0.800715 0.534165 3.43763e-20)
(0.829288 0.513331 -1.06614e-20)
(0.853045 0.487789 -4.15396e-19)
(0.873677 0.458947 -1.83463e-20)
(0.893483 0.42781 1.76199e-19)
(0.774187 0.527306 9.68306e-20)
(0.803496 0.50579 -1.50038e-20)
(0.828187 0.479871 3.40791e-19)
(0.850058 0.450949 -3.14368e-19)
(0.870851 0.41976 -1.3148e-19)
(0.711973 0.534107 7.39505e-20)
(0.747718 0.518637 -1.05529e-19)
(0.777898 0.49657 6.27993e-20)
(0.803678 0.470337 -4.82022e-20)
(0.826773 0.441336 2.62802e-19)
(0.848371 0.410361 -2.70398e-20)
(0.64215 0.531454 3.98941e-20)
(0.685013 0.524342 1.63915e-20)
(0.721412 0.508191 7.44857e-20)
(0.752549 0.485732 -2.69397e-19)
(0.779474 0.45934 6.95958e-20)
(0.80375 0.43041 6.19174e-20)
(0.826211 0.399874 1.11557e-19)
(0.615069 0.520646 1.14084e-20)
(0.65825 0.512679 -1.14935e-19)
(0.695388 0.496008 1.69173e-19)
(0.727545 0.473333 4.93343e-20)
(0.755657 0.446973 -1.53517e-19)
(0.781132 0.418326 -2.24851e-20)
(0.804574 0.388429 1.2242e-20)
(0.588239 0.507831 -2.54297e-20)
(0.631824 0.499155 -6.32793e-20)
(0.669769 0.482133 -1.6435e-19)
(0.702997 0.459423 -1.14968e-19)
(0.732329 0.433284 -1.28198e-20)
(0.759029 0.40512 1.69633e-19)
(0.783534 0.37602 -2.19526e-19)
(0.511672 0.491397 2.24031e-19)
(0.561811 0.493052 3.21399e-20)
(0.605876 0.483814 -1.1022e-19)
(0.644683 0.46661 -3.04669e-20)
(0.679021 0.444044 1.39389e-19)
(0.709598 0.418306 -4.83493e-20)
(0.737542 0.390798 -1.57992e-19)
(0.763166 0.362627 -1.73886e-19)
(0.485774 0.475564 -7.19854e-21)
(0.535936 0.476356 2.8155e-20)
(0.580543 0.466706 6.27511e-20)
(0.620256 0.449488 -6.84406e-20)
(0.65573 0.427238 2.49303e-20)
(0.687568 0.402071 1.95654e-19)
(0.716767 0.375372 -1.74015e-19)
(0.743545 0.348241 4.34199e-20)
(0.404794 0.444711 8.36124e-20)
(0.460506 0.457758 -2.27534e-19)
(0.510761 0.457801 -4.0227e-19)
(0.555961 0.447887 2.57876e-19)
(0.59661 0.430818 4.28136e-20)
(0.633234 0.409048 -1.4522e-19)
(0.666338 0.38461 4.16208e-20)
(0.696794 0.35886 2.39921e-19)
(0.724742 0.332867 -2.02089e-19)
(0.380801 0.42622 2.42928e-19)
(0.436018 0.438043 -3.36034e-20)
(0.486428 0.437452 3.05543e-19)
(0.532257 0.427417 1.89061e-19)
(0.573861 0.410654 3.31165e-19)
(0.611639 0.389522 1.25191e-20)
(0.645999 0.365962 -2.62464e-19)
(0.6777 0.341287 6.73949e-21)
(0.706819 0.316521 6.9889e-19)
(0.35766 0.405833 -3.058e-19)
(0.412459 0.416494 1.06631e-19)
(0.463071 0.41538 -2.62571e-19)
(0.509556 0.405366 2.6065e-20)
(0.552119 0.389059 1.08483e-19)
(0.59104 0.368712 -1.86155e-19)
(0.626638 0.346167 4.10315e-20)
(0.659559 0.322685 -6.67455e-20)
(0.689836 0.29923 -2.43355e-19)
(0.27781 0.36007 -1.89916e-19)
(0.335516 0.383632 3.43818e-20)
(0.389965 0.393194 -5.83957e-20)
(0.44082 0.391667 4.63721e-20)
(0.487973 0.381807 -4.54318e-19)
(0.531488 0.3661 -1.70933e-19)
(0.57153 0.346678 3.97731e-20)
(0.608332 0.325276 -2.10946e-19)
(0.642438 0.303094 2.53411e-19)
(0.673844 0.281028 6.36716e-20)
(0.257833 0.338043 1.18766e-19)
(0.314509 0.359709 -3.12842e-20)
(0.36867 0.368235 -9.34724e-21)
(0.419795 0.366401 -1.54387e-19)
(0.467617 0.356823 1.77754e-19)
(0.512064 0.341849 2.37744e-19)
(0.553192 0.323483 -1.38492e-20)
(0.591155 0.303343 -9.01391e-20)
(0.626397 0.282561 -9.25463e-20)
(0.658892 0.261959 1.65107e-19)
(0.239026 0.314398 -2.51971e-19)
(0.29477 0.334166 1.73859e-19)
(0.348697 0.341717 7.48306e-20)
(0.400111 0.339675 4.08124e-20)
(0.448591 0.3305 5.77051e-20)
(0.493938 0.316387 -1.64012e-19)
(0.536106 0.299198 -1.70166e-19)
(0.575172 0.28043 4.66423e-19)
(0.611493 0.261139 -3.12297e-19)
(0.645025 0.242072 -1.49864e-20)
(0.221514 0.289244 1.79557e-19)
(0.276421 0.307113 9.1453e-20)
(0.330161 0.313747 4.92853e-20)
(0.381872 0.311593 5.61532e-20)
(0.430989 0.302934 1.01244e-20)
(0.477191 0.289798 -1.80188e-19)
(0.520342 0.273898 5.78231e-19)
(0.560446 0.256604 -2.33148e-19)
(0.597777 0.238889 3.8641e-19)
(0.632284 0.221422 -1.37587e-19)
(0.152053 0.234204 1.21085e-19)
(0.205413 0.262695 -1.7068e-19)
(0.259575 0.278668 3.07902e-19)
(0.313168 0.284441 -2.42425e-19)
(0.365175 0.282263 -3.26741e-20)
(0.414896 0.274224 2.26215e-19)
(0.461901 0.262172 -9.22382e-20)
(0.505965 0.247663 -1.52978e-19)
(0.547032 0.231936 -5.70497e-20)
(0.585296 0.215874 -3.23365e-19)
(0.620707 0.20007 9.85936e-20)
(0.138824 0.20958 -9.94272e-20)
(0.190826 0.234878 9.04917e-20)
(0.244334 0.248957 -2.86191e-19)
(0.297815 0.25392 1.71567e-19)
(0.350107 0.251799 -7.1801e-20)
(0.400392 0.244475 -5.39045e-20)
(0.448135 0.233605 2.49253e-19)
(0.493036 0.220581 -7.41223e-20)
(0.53498 0.206503 1.84895e-19)
(0.574093 0.192164 1.10413e-20)
(0.610328 0.178079 1.67647e-19)
(0.127042 0.183878 4.81366e-20)
(0.17785 0.205923 8.80857e-20)
(0.230791 0.218113 2.34963e-19)
(0.284187 0.222313 -2.01045e-19)
(0.336749 0.220322 1.61597e-20)
(0.387545 0.213797 -8.28427e-20)
(0.435955 0.204197 -1.7151e-19)
(0.481606 0.192739 -1.94718e-19)
(0.524335 0.180386 4.85408e-20)
(0.564206 0.167831 3.95024e-20)
(0.601178 0.155516 -2.52259e-19)
(0.116788 0.157228 2.14687e-20)
(0.166567 0.175968 -1.2786e-19)
(0.219028 0.186273 -3.19811e-19)
(0.272363 0.189753 1.33836e-20)
(0.325168 0.187956 8.94347e-20)
(0.376419 0.182306 -7.58778e-20)
(0.425414 0.174052 -2.04653e-19)
(0.471723 0.164232 4.27493e-20)
(0.515137 0.153668 -1.32711e-20)
(0.555668 0.142952 3.78404e-20)
(0.593283 0.132452 2.03094e-19)
(0.108133 0.129766 -1.27529e-19)
(0.157053 0.145158 8.11783e-20)
(0.209116 0.153582 1.49098e-19)
(0.262407 0.156378 1.07395e-19)
(0.315425 0.154831 -9.45466e-20)
(0.367065 0.150119 1.79577e-19)
(0.416558 0.143276 -1.25138e-20)
(0.463425 0.135157 1.86657e-20)
(0.50742 0.126437 1.88396e-19)
(0.548508 0.117606 -1.33401e-19)
(0.586668 0.108961 5.75932e-21)
(0.101137 0.101633 6.40769e-20)
(0.149367 0.113641 4.25801e-20)
(0.201115 0.120189 -8.28696e-20)
(0.254375 0.122331 -1.05005e-19)
(0.30757 0.121079 9.32095e-20)
(0.359528 0.117359 -4.51372e-20)
(0.409427 0.11198 1.1273e-19)
(0.456747 0.105613 6.00258e-20)
(0.501211 0.0987831 -7.876e-20)
(0.542751 0.0918749 8.06138e-21)
(0.581352 0.0851164 -1.14979e-19)
(0.0958475 0.0729737 2.48079e-21)
(0.143558 0.0815708 -6.85687e-20)
(0.195071 0.0862449 8.80644e-20)
(0.248312 0.0877576 -3.77011e-20)
(0.301643 0.0868373 8.19373e-20)
(0.353844 0.0841505 -2.72624e-20)
(0.404052 0.0802781 -4.30272e-20)
(0.451715 0.0757013 -2.55495e-20)
(0.496535 0.0707975 3.51571e-21)
(0.538416 0.0658417 8.93283e-20)
(0.577351 0.0609958 6.86358e-20)
(0.092301 0.0439362 -1.3108e-20)
(0.139666 0.0491023 -3.23294e-20)
(0.191022 0.0519056 -2.21063e-21)
(0.244251 0.0528062 3.35297e-20)
(0.297675 0.0522437 -1.14083e-20)
(0.35004 0.0506196 -1.70212e-20)
(0.400455 0.048284 4.99298e-20)
(0.448349 0.0455265 -3.00544e-20)
(0.493408 0.042574 -2.81682e-21)
(0.535517 0.039592 -1.02636e-19)
(0.574677 0.036677 -1.85018e-20)
(0.0905216 0.0146708 4.48853e-21)
(0.137713 0.0163941 -5.97416e-21)
(0.188992 0.0173284 1.90395e-20)
(0.242215 0.0176274 2.14446e-21)
(0.295686 0.0174381 7.94929e-21)
(0.348133 0.0168948 1.72116e-21)
(0.398653 0.0161142 -7.91959e-21)
(0.446662 0.0151931 1.2291e-20)
(0.491841 0.0142073 3.37192e-21)
(0.534066 0.0132118 2.41714e-20)
(0.573338 0.0122389 -1.72813e-20)
(0.0905216 -0.0146708 7.07798e-21)
(0.137713 -0.0163941 -1.21076e-20)
(0.188992 -0.0173284 1.44548e-20)
(0.242215 -0.0176274 4.96369e-21)
(0.295686 -0.0174381 1.04862e-20)
(0.348133 -0.0168948 -8.78028e-21)
(0.398653 -0.0161142 6.0745e-21)
(0.446662 -0.0151931 1.21876e-20)
(0.491841 -0.0142073 3.32277e-21)
(0.534066 -0.0132118 2.48817e-20)
(0.573338 -0.0122389 -1.14643e-20)
(0.092301 -0.0439362 -1.01166e-20)
(0.139666 -0.0491023 -2.15861e-20)
(0.191022 -0.0519056 2.8942e-20)
(0.244251 -0.0528062 3.10056e-20)
(0.297675 -0.0522437 -2.17508e-20)
(0.35004 -0.0506196 -1.34767e-20)
(0.400455 -0.048284 9.55132e-21)
(0.448349 -0.0455265 1.91264e-21)
(0.493408 -0.042574 -5.13496e-20)
(0.535517 -0.039592 -6.52928e-20)
(0.574677 -0.036677 -2.20984e-20)
(0.0958475 -0.0729737 -2.83554e-20)
(0.143558 -0.0815708 -3.07027e-21)
(0.195071 -0.0862449 7.00472e-22)
(0.248312 -0.0877576 1.28439e-20)
(0.301643 -0.0868373 8.12133e-20)
(0.353844 -0.0841505 1.42635e-21)
(0.404052 -0.0802781 -6.86124e-20)
(0.451715 -0.0757013 3.82097e-20)
(0.496535 -0.0707975 -1.21913e-19)
(0.538416 -0.0658417 9.7617e-20)
(0.577351 -0.0609958 1.24234e-19)
(0.101137 -0.101633 6.13889e-20)
(0.149367 -0.113641 9.923e-20)
(0.201115 -0.120189 -1.58301e-19)
(0.254375 -0.122331 -4.59641e-20)
(0.30757 -0.121079 -7.26714e-21)
(0.359528 -0.117359 -6.41641e-20)
(0.409427 -0.11198 8.26687e-20)
(0.456747 -0.105613 1.25986e-19)
(0.501211 -0.0987831 -6.50759e-20)
(0.542751 -0.0918749 3.26916e-20)
(0.581352 -0.0851164 -9.65303e-20)
(0.108133 -0.129766 -1.95738e-19)
(0.157053 -0.145158 1.07008e-19)
(0.209116 -0.153582 1.93323e-19)
(0.262407 -0.156378 4.48864e-20)
(0.315425 -0.154831 -4.86855e-20)
(0.367065 -0.150119 1.61251e-19)
(0.416558 -0.143276 -9.71418e-21)
(0.463425 -0.135157 -2.37607e-20)
(0.50742 -0.126437 1.70616e-19)
(0.548508 -0.117606 -5.25903e-20)
(0.586668 -0.108961 -9.45725e-20)
(0.116788 -0.157228 1.29735e-19)
(0.166567 -0.175968 -1.84547e-19)
(0.219028 -0.186273 -1.84821e-19)
(0.272363 -0.189753 -4.00886e-20)
(0.325168 -0.187956 4.5021e-20)
(0.376419 -0.182306 -9.08924e-20)
(0.425414 -0.174052 -1.13231e-19)
(0.471723 -0.164232 4.30798e-20)
(0.515137 -0.153668 -5.3806e-20)
(0.555668 -0.142952 3.11953e-20)
(0.593283 -0.132452 2.06268e-19)
(0.127042 -0.183878 1.06488e-19)
(0.17785 -0.205923 -2.75013e-20)
(0.230791 -0.218113 2.80966e-19)
(0.284187 -0.222313 -1.94038e-19)
(0.336749 -0.220322 4.32339e-21)
(0.387545 -0.213797 -2.18164e-19)
(0.435955 -0.204197 4.11495e-20)
(0.481606 -0.192739 -2.86356e-19)
(0.524335 -0.180386 -1.04955e-21)
(0.564206 -0.167831 -1.28316e-20)
(0.601178 -0.155516 -6.06549e-20)
(0.138824 -0.20958 -2.00076e-20)
(0.190826 -0.234878 5.21179e-20)
(0.244334 -0.248957 -3.2615e-19)
(0.297815 -0.25392 2.96438e-19)
(0.350107 -0.251799 -1.65153e-19)
(0.400392 -0.244475 -1.08211e-19)
(0.448135 -0.233605 1.88631e-19)
(0.493036 -0.220581 6.86172e-20)
(0.53498 -0.206503 1.45203e-19)
(0.574093 -0.192164 9.97392e-20)
(0.610328 -0.178079 -1.86346e-19)
(0.152053 -0.234204 -4.98107e-20)
(0.205413 -0.262695 -1.59221e-19)
(0.259575 -0.278668 1.15257e-19)
(0.313168 -0.284441 -2.66395e-20)
(0.365175 -0.282263 4.18928e-20)
(0.414896 -0.274224 1.24163e-19)
(0.461901 -0.262172 -3.8591e-20)
(0.505965 -0.247663 -1.03831e-19)
(0.547032 -0.231936 -7.22244e-20)
(0.585296 -0.215874 -2.76843e-19)
(0.620707 -0.20007 -1.98878e-20)
(0.221514 -0.289244 2.82368e-19)
(0.276421 -0.307113 -1.05499e-19)
(0.330161 -0.313747 1.06264e-19)
(0.381872 -0.311593 -3.94565e-20)
(0.430989 -0.302934 -7.78272e-20)
(0.477191 -0.289798 7.36459e-20)
(0.520342 -0.273898 4.35657e-19)
(0.560446 -0.256604 -1.69485e-19)
(0.597777 -0.238889 3.32935e-19)
(0.632284 -0.221422 -8.39213e-20)
(0.239026 -0.314398 -3.80413e-19)
(0.29477 -0.334166 -3.12201e-20)
(0.348697 -0.341717 2.4648e-19)
(0.400111 -0.339675 4.93396e-20)
(0.448591 -0.3305 1.10193e-19)
(0.493938 -0.316387 -2.39215e-19)
(0.536106 -0.299198 -2.31782e-19)
(0.575172 -0.28043 6.54883e-19)
(0.611493 -0.261139 -4.94973e-19)
(0.645025 -0.242072 3.01236e-19)
(0.257833 -0.338043 2.76492e-19)
(0.314509 -0.359709 -1.19029e-19)
(0.36867 -0.368235 -1.4185e-19)
(0.419795 -0.366401 -3.75059e-20)
(0.467617 -0.356823 2.1726e-19)
(0.512064 -0.341849 4.43808e-19)
(0.553192 -0.323483 -2.65233e-19)
(0.591155 -0.303343 -1.54374e-19)
(0.626397 -0.282561 4.05087e-20)
(0.658892 -0.261959 -2.1541e-20)
(0.27781 -0.36007 1.86608e-19)
(0.335516 -0.383632 1.98474e-20)
(0.389965 -0.393194 -2.01605e-19)
(0.44082 -0.391667 1.03638e-19)
(0.487973 -0.381807 -4.64203e-19)
(0.531488 -0.3661 -3.02512e-19)
(0.57153 -0.346678 4.93098e-20)
(0.608332 -0.325276 -1.86776e-19)
(0.642438 -0.303094 4.25618e-19)
(0.673844 -0.281028 -1.34321e-19)
(0.35766 -0.405833 -3.40099e-20)
(0.412459 -0.416494 -1.89981e-20)
(0.463071 -0.41538 -2.72613e-19)
(0.509556 -0.405366 2.72638e-19)
(0.552119 -0.389059 -3.98655e-19)
(0.59104 -0.368712 2.1506e-19)
(0.626638 -0.346167 -1.06585e-19)
(0.659559 -0.322685 -2.76936e-19)
(0.689836 -0.29923 -2.34424e-19)
(0.380801 -0.42622 1.04926e-19)
(0.436018 -0.438043 -3.94272e-20)
(0.486428 -0.437452 5.02391e-19)
(0.532257 -0.427417 -3.24273e-20)
(0.573861 -0.410654 5.06056e-19)
(0.611639 -0.389522 -1.48715e-19)
(0.645999 -0.365962 -1.26453e-19)
(0.6777 -0.341287 7.9838e-20)
(0.706819 -0.316521 4.29961e-19)
(0.404794 -0.444711 -1.86287e-19)
(0.460506 -0.457758 -1.25304e-19)
(0.510761 -0.457801 -3.54131e-19)
(0.555961 -0.447887 1.9417e-20)
(0.59661 -0.430818 1.58047e-20)
(0.633234 -0.409048 1.20456e-19)
(0.666338 -0.38461 7.9362e-20)
(0.696794 -0.35886 1.50787e-19)
(0.724742 -0.332867 -1.53441e-19)
(0.485774 -0.475564 -4.17103e-20)
(0.535936 -0.476356 2.35489e-19)
(0.580543 -0.466706 1.34976e-19)
(0.620256 -0.449488 -3.89431e-19)
(0.65573 -0.427238 1.09351e-19)
(0.687568 -0.402071 2.79575e-19)
(0.716767 -0.375372 -4.75878e-20)
(0.743545 -0.348241 -1.33594e-19)
(0.511672 -0.491397 2.73485e-19)
(0.561811 -0.493052 9.72361e-20)
(0.605876 -0.483814 -1.46302e-19)
(0.644683 -0.46661 2.76257e-21)
(0.679021 -0.444044 1.13992e-19)
(0.709598 -0.418306 -1.70568e-19)
(0.737542 -0.390798 -9.90746e-20)
(0.763166 -0.362627 -1.62023e-19)
(0.588239 -0.507831 -1.38085e-19)
(0.631824 -0.499155 2.63265e-20)
(0.669769 -0.482133 -5.0442e-20)
(0.702997 -0.459423 -1.53125e-19)
(0.732329 -0.433284 -1.11963e-19)
(0.759029 -0.40512 1.57506e-19)
(0.783534 -0.37602 -2.09856e-19)
(0.615069 -0.520646 2.46063e-19)
(0.65825 -0.512679 -2.0882e-19)
(0.695388 -0.496008 2.083e-19)
(0.727545 -0.473333 -8.94993e-21)
(0.755657 -0.446973 -4.74837e-20)
(0.781132 -0.418326 -6.45867e-20)
(0.804574 -0.388429 -5.20936e-21)
(0.685013 -0.524342 8.6632e-20)
(0.721412 -0.508191 -8.16092e-20)
(0.752549 -0.485732 -6.5793e-20)
(0.779474 -0.45934 -1.29561e-19)
(0.80375 -0.43041 1.62893e-19)
(0.826211 -0.399874 1.77786e-19)
(0.711973 -0.534107 1.02171e-19)
(0.747718 -0.518637 -1.19645e-19)
(0.777898 -0.49657 6.53849e-20)
(0.803678 -0.470337 1.2325e-19)
(0.826773 -0.441336 5.35766e-20)
(0.848371 -0.410361 2.33956e-19)
(0.774187 -0.527306 1.55428e-19)
(0.803496 -0.50579 -1.77619e-19)
(0.828187 -0.479871 2.32745e-19)
(0.850058 -0.450949 -2.06865e-19)
(0.870851 -0.41976 -6.68953e-20)
(0.800715 -0.534165 -2.55228e-20)
(0.829288 -0.513331 8.25005e-20)
(0.853045 -0.487789 -3.5374e-19)
(0.873677 -0.458947 -1.15519e-19)
(0.893483 -0.42781 2.16404e-20)
(0.855265 -0.519185 1.40325e-21)
(0.878532 -0.494079 1.38423e-19)
(0.898883 -0.465616 2.07527e-19)
(0.920261 -0.436394 2.20988e-19)
(0.904266 -0.499081 6.79145e-20)
(0.924523 -0.471539 -4.62111e-20)
(0.945113 -0.444077 -3.13526e-19)
(0.929827 -0.502822 3.63129e-20)
(0.949736 -0.476424 -1.62911e-19)
(0.968716 -0.450446 3.69691e-19)
(0.974228 -0.480015 -2.12228e-20)
(0.991481 -0.455166 -2.15594e-19)
(1.01357 -0.458351 1.03962e-19)
(0.949443 0.415232 6.15214e-20)
(0.970481 0.42052 7.75976e-20)
(0.990567 0.425424 8.03175e-20)
(1.01022 0.429338 3.68766e-20)
(1.02984 0.432155 -2.0608e-20)
(1.04924 0.433881 1.51836e-20)
(0.970886 0.399211 -1.06541e-19)
(0.990608 0.402807 -2.83572e-21)
(1.00914 0.406061 -4.40615e-20)
(1.0268 0.408708 -8.93084e-20)
(1.04443 0.410603 -4.67375e-20)
(1.06197 0.411708 -1.92375e-20)
(0.990924 0.383971 -8.10272e-20)
(1.00868 0.386804 -1.09945e-19)
(1.02548 0.389009 1.91295e-20)
(1.04139 0.390633 5.10816e-21)
(1.05728 0.39164 7.40241e-20)
(1.07314 0.392019 7.54975e-21)
(1.00934 0.368806 1.38424e-19)
(1.02541 0.370693 -5.33276e-21)
(1.04061 0.371983 -4.88786e-20)
(1.05501 0.372776 2.8726e-20)
(1.06935 0.373071 -2.67819e-20)
(1.08366 0.372864 -1.83186e-20)
(1.0258 0.353466 -1.04894e-19)
(1.04035 0.354556 1.06841e-19)
(1.05412 0.355135 -9.13468e-21)
(1.06717 0.355297 2.47769e-20)
(1.08014 0.355052 3.36949e-21)
(1.09307 0.354398 1.16849e-20)
(1.0404 0.337867 -4.01511e-20)
(1.05357 0.338359 -2.85912e-20)
(1.06603 0.338416 2.09414e-20)
(1.07785 0.338122 2.27838e-20)
(1.0896 0.337489 1.89555e-21)
(1.10129 0.336516 1.02611e-20)
(1.05328 0.322149 7.24828e-20)
(1.06519 0.322184 -1.95148e-20)
(1.07643 0.321853 4.01654e-20)
(1.08715 0.321227 -2.85196e-20)
(1.09778 0.320321 -1.14688e-20)
(1.10837 0.319134 9.13398e-21)
(1.06456 0.30645 -4.18293e-20)
(1.07531 0.306134 2.90603e-21)
(1.08546 0.305516 -3.1746e-20)
(1.09516 0.304654 1.27037e-20)
(1.10478 0.303562 2.69707e-20)
(1.11437 0.302241 -1.53292e-20)
(1.07439 0.290878 3.61437e-20)
(1.08409 0.290299 -1.53673e-20)
(1.09323 0.289475 7.75965e-21)
(1.102 0.288452 2.11827e-21)
(1.11072 0.287242 -2.09318e-21)
(1.1194 0.285846 -3.37646e-21)
(1.0829 0.275523 -3.86179e-20)
(1.09164 0.274757 3.55405e-21)
(1.09987 0.273792 2.47857e-21)
(1.1078 0.272667 3.56658e-21)
(1.11569 0.271391 -1.51409e-20)
(1.12355 0.269964 1.96519e-22)
(1.09022 0.260462 -1.50102e-21)
(1.09808 0.259568 3.00984e-21)
(1.1055 0.258514 7.97882e-21)
(1.11267 0.257333 2.10327e-20)
(1.11981 0.256029 2.17699e-20)
(1.12693 0.254605 1.15369e-20)
(1.09645 0.245749 -4.66969e-22)
(1.10353 0.244775 1.58307e-20)
(1.11021 0.243674 -1.56857e-20)
(1.11669 0.242471 -9.39703e-21)
(1.12316 0.24117 -2.17777e-20)
(1.12961 0.239772 -7.60562e-22)
(1.1017 0.231422 9.44466e-21)
(1.10807 0.230406 -8.29759e-21)
(1.11409 0.229289 2.62919e-20)
(1.11995 0.228091 -1.96944e-20)
(1.12581 0.226815 5.36488e-21)
(1.10605 0.217502 1.3693e-20)
(1.11178 0.216474 1.48735e-20)
(1.11721 0.215366 -4.63359e-21)
(1.12251 0.214193 3.78118e-21)
(1.12782 0.212958 2.00904e-21)
(1.10956 0.204 -1.16005e-20)
(1.11473 0.202982 -1.1386e-20)
(1.11963 0.2019 8.13231e-21)
(1.12444 0.200767 3.79555e-21)
(1.12925 0.199584 4.53459e-21)
(1.11232 0.190916 2.58396e-20)
(1.11698 0.189924 1.06364e-21)
(1.12141 0.188882 -1.30999e-20)
(1.12577 0.187799 -4.04111e-21)
(1.13015 0.186677 -9.4941e-21)
(1.11438 0.178244 -1.10772e-20)
(1.11859 0.177291 1.13209e-21)
(1.12261 0.176299 2.95414e-21)
(1.12657 0.175273 5.21268e-22)
(1.13056 0.174216 9.26407e-21)
(1.1158 0.165973 1.184e-20)
(1.11962 0.165069 1.3035e-21)
(1.12326 0.164131 -3.60062e-21)
(1.12687 0.163168 6.98867e-21)
(1.13051 0.16218 6.992e-22)
(1.11664 0.15409 -1.8513e-20)
(1.1201 0.153238 -2.6224e-22)
(1.12342 0.152361 -4.61915e-21)
(1.12673 0.151463 7.49028e-21)
(1.13006 0.150545 -4.17828e-21)
(1.11695 0.142576 2.52936e-21)
(1.12011 0.141782 -6.81332e-21)
(1.12315 0.140967 4.9364e-21)
(1.12617 0.140136 -6.57654e-21)
(1.12923 0.139288 3.82424e-21)
(1.1168 0.131413 9.06455e-21)
(1.11969 0.130678 1.90916e-22)
(1.12247 0.129927 -3.76922e-21)
(1.12526 0.129163 2.00881e-21)
(1.12808 0.128385 -1.24234e-20)
(1.11623 0.120579 -1.69204e-20)
(1.11888 0.119905 4.08443e-21)
(1.12146 0.119218 6.89121e-21)
(1.12403 0.118521 1.28529e-21)
(1.12664 0.117812 8.44917e-21)
(1.11531 0.110053 1.11506e-20)
(1.11776 0.10944 -5.96754e-21)
(1.12015 0.108816 -3.3676e-21)
(1.12255 0.108184 -1.26331e-21)
(1.12497 0.107542 -5.58532e-21)
(1.11409 0.099809 -8.82522e-21)
(1.11637 0.0992561 3.51669e-21)
(1.1186 0.0986944 -6.36001e-21)
(1.12084 0.0981254 9.40242e-21)
(1.12311 0.097549 5.63287e-21)
(1.11265 0.0898205 6.87185e-21)
(1.11478 0.0893265 7.23103e-22)
(1.11687 0.0888252 2.08446e-21)
(1.11898 0.0883179 -5.68297e-21)
(1.12111 0.0878046 -5.08849e-21)
(1.11104 0.0800574 -6.45756e-22)
(1.11305 0.0796208 -4.84153e-22)
(1.11503 0.0791781 6.58025e-21)
(1.11702 0.0787305 -7.45328e-22)
(1.11904 0.0782779 1.2919e-22)
(1.10932 0.0704864 5.99122e-21)
(1.11123 0.0701055 -1.78981e-21)
(1.11311 0.0697195 -6.46584e-21)
(1.11501 0.0693295 2.28818e-21)
(1.11693 0.0689352 -3.81407e-23)
(1.10757 0.0610702 -2.06269e-21)
(1.1094 0.0607432 -3.75608e-21)
(1.1112 0.060412 7.02581e-21)
(1.11302 0.0600773 3.94288e-21)
(1.11486 0.0597393 1.60894e-21)
(1.10586 0.0517664 -5.23325e-21)
(1.10762 0.0514916 3.58154e-21)
(1.10936 0.0512133 -4.28686e-21)
(1.11112 0.0509322 -4.85875e-21)
(1.11289 0.0506483 -4.00259e-21)
(1.10425 0.0425258 4.5585e-21)
(1.10596 0.0423015 6.79053e-23)
(1.10765 0.0420745 2.7801e-21)
(1.10936 0.0418453 -8.54302e-22)
(1.11108 0.0416138 3.96147e-21)
(1.10282 0.0332926 -1.61621e-22)
(1.10449 0.0331179 -3.41863e-21)
(1.10615 0.032941 -6.65915e-22)
(1.10782 0.0327625 -3.1547e-23)
(1.1095 0.0325823 -1.80557e-22)
(1.10165 0.0239981 -6.80066e-22)
(1.10329 0.0238718 -3.97546e-23)
(1.10493 0.023744 1.4354e-21)
(1.10657 0.023615 -1.18795e-21)
(1.10823 0.023485 4.77152e-21)
(1.10079 0.0145672 -1.29774e-21)
(1.10242 0.0144899 -1.89538e-22)
(1.10405 0.0144118 4.3288e-21)
(1.10568 0.0143333 -1.77763e-21)
(1.10732 0.0142544 -9.58883e-22)
(1.10034 0.00489825 -3.94807e-22)
(1.10197 0.00486888 -2.00957e-22)
(1.1036 0.00483931 -1.13742e-21)
(1.10523 0.00480972 2.08059e-21)
(1.10687 0.0047802 8.82259e-23)
(0.999921 0.00308213 0)
(0.998007 0.00912307 0)
(0.994331 0.0155128 0)
(0.989308 0.0225134 0)
(0.982988 0.0305421 0)
(0.975547 0.0398863 0)
(0.967095 0.0508989 0)
(0.957805 0.0639194 0)
(0.947887 0.0793211 0)
(0.937633 0.0974859 0)
(0.927421 0.118796 0)
(0.917757 0.143609 0)
(0.909249 0.172209 0)
(0.902686 0.204756 0)
(0.898868 0.241186 0)
(0.898877 0.281049 0)
(0.902956 0.323377 0)
(0.913568 0.366012 0)
(0.921468 0.406638 0)
(0.999926 0.00322813 0)
(0.99809 0.00954754 0)
(0.994557 0.0162111 0)
(0.989744 0.0234921 0)
(0.983713 0.0318094 0)
(0.976656 0.0414498 0)
(0.968704 0.0527565 0)
(0.960058 0.066053 0)
(0.950959 0.0816851 0)
(0.941735 0.0999944 0)
(0.932802 0.121307 0)
(0.924694 0.145906 0)
(0.918046 0.173983 0)
(0.91364 0.20559 0)
(0.912243 0.240551 0)
(0.914889 0.278361 0)
(0.9217 0.318027 0)
(0.935584 0.357504 0)
(0.944948 0.392443 0)
(0.999931 0.00337378 0)
(0.998181 0.00997396 0)
(0.994813 0.0169139 0)
(0.990235 0.0244781 0)
(0.984528 0.0330844 0)
(0.977893 0.0430181 0)
(0.970485 0.0546092 0)
(0.962529 0.0681618 0)
(0.954294 0.0839892 0)
(0.946136 0.102388 0)
(0.938496 0.123621 0)
(0.931928 0.147892 0)
(0.927065 0.175295 0)
(0.924667 0.205774 0)
(0.925445 0.239046 0)
(0.930349 0.274546 0)
(0.93934 0.311255 0)
(0.955285 0.347375 0)
(0.967114 0.377869 0)
(0.999936 0.00351942 0)
(0.998281 0.010402 0)
(0.995096 0.0176185 0)
(0.99078 0.0254645 0)
(0.985429 0.0343555 0)
(0.979256 0.0445738 0)
(0.972436 0.0564353 0)
(0.965215 0.070223 0)
(0.957886 0.0862163 0)
(0.950827 0.104665 0)
(0.944495 0.125772 0)
(0.939445 0.149662 0)
(0.936298 0.17634 0)
(0.935767 0.205656 0)
(0.938489 0.237236 0)
(0.945298 0.270467 0)
(0.956035 0.304321 0)
(0.973249 0.337354 0)
(0.987202 0.36444 0)
(0.999941 0.0036624 0)
(0.99839 0.0108233 0)
(0.995405 0.0183102 0)
(0.991376 0.0264281 0)
(0.986412 0.0355883 0)
(0.980737 0.0460682 0)
(0.974545 0.0581668 0)
(0.968099 0.0721432 0)
(0.961713 0.0882404 0)
(0.955777 0.10666 0)
(0.950756 0.127542 0)
(0.947194 0.150937 0)
(0.945681 0.176768 0)
(0.94687 0.204802 0)
(0.95131 0.234594 0)
(0.959696 0.265509 0)
(0.971796 0.296532 0)
(0.9897 0.326524 0)
(1.00513 0.350654 0)
(0.999946 0.00380107 0)
(0.998507 0.0112329 0)
(0.995738 0.0189801 0)
(0.992019 0.0273562 0)
(0.987471 0.0367653 0)
(0.982326 0.0474779 0)
(0.976797 0.0597729 0)
(0.971161 0.0738828 0)
(0.965744 0.0900115 0)
(0.960944 0.10831 0)
(0.957221 0.128857 0)
(0.955099 0.151633 0)
(0.955123 0.176485 0)
(0.957874 0.203113 0)
(0.963803 0.23102 0)
(0.97346 0.259568 0)
(0.986568 0.287793 0)
(1.00473 0.314777 0)
(1.02111 0.336238 0)
(0.99995 0.00393424 0)
(0.998631 0.011627 0)
(0.996094 0.0196219 0)
(0.992705 0.0282397 0)
(0.988599 0.0378745 0)
(0.984014 0.0487873 0)
(0.979177 0.061235 0)
(0.974375 0.0754207 0)
(0.969944 0.0915077 0)
(0.96628 0.109597 0)
(0.96383 0.129706 0)
(0.963084 0.151752 0)
(0.964535 0.175516 0)
(0.96868 0.200647 0)
(0.975875 0.226618 0)
(0.986521 0.252805 0)
(1.00032 0.278321 0)
(1.01842 0.302418 0)
(1.03532 0.321445 0)
(0.999955 0.00406063 0)
(0.998761 0.0120017 0)
(0.99647 0.0202287 0)
(0.993431 0.0290683 0)
(0.98979 0.038902 0)
(0.98579 0.0499794 0)
(0.981668 0.0625326 0)
(0.977719 0.076734 0)
(0.97428 0.0927053 0)
(0.971739 0.110498 0)
(0.97052 0.130074 0)
(0.971074 0.151293 0)
(0.973831 0.173885 0)
(0.9792 0.19746 0)
(0.987446 0.221485 0)
(0.998829 0.245362 0)
(1.01304 0.2683 0)
(1.03086 0.289682 0)
(1.0479 0.306477 0)
(0.99996 0.00417881 0)
(0.998897 0.0123524 0)
(0.996864 0.0207929 0)
(0.994192 0.0298309 0)
(0.991036 0.0398332 0)
(0.987641 0.0510354 0)
(0.984252 0.0636436 0)
(0.981165 0.077798 0)
(0.978714 0.0935791 0)
(0.977271 0.110991 0)
(0.977231 0.129946 0)
(0.978995 0.150254 0)
(0.982929 0.171607 0)
(0.989354 0.193595 0)
(0.998445 0.215692 0)
(1.01034 0.23734 0)
(1.02474 0.257853 0)
(1.04209 0.27672 0)
(1.05898 0.291468 0)
(0.999965 0.00428723 0)
(0.99904 0.0126744 0)
(0.997275 0.0213063 0)
(0.994985 0.030516 0)
(0.99233 0.0406528 0)
(0.989555 0.0519367 0)
(0.986909 0.0645464 0)
(0.984685 0.0785893 0)
(0.983207 0.0941062 0)
(0.982825 0.111058 0)
(0.983898 0.129311 0)
(0.986774 0.148639 0)
(0.991751 0.168706 0)
(0.999065 0.189097 0)
(1.00881 0.209309 0)
(1.02103 0.228834 0)
(1.03541 0.247088 0)
(1.05218 0.263652 0)
(1.0687 0.276533 0)
(0.999971 0.00438428 0)
(0.999187 0.0129628 0)
(0.997701 0.0217607 0)
(0.995804 0.0311117 0)
(0.993663 0.0413457 0)
(0.991518 0.0526651 0)
(0.989618 0.0652204 0)
(0.988249 0.0790869 0)
(0.987718 0.0942674 0)
(0.988349 0.110683 0)
(0.99046 0.128166 0)
(0.994342 0.146457 0)
(1.00023 0.165211 0)
(1.00827 0.184018 0)
(1.0185 0.202409 0)
(1.03087 0.219931 0)
(1.04508 0.236101 0)
(1.06118 0.250579 0)
(1.07716 0.261773 0)
(0.999977 0.00446827 0)
(0.999339 0.0132124 0)
(0.998139 0.0221476 0)
(0.996646 0.0316063 0)
(0.995026 0.0418968 0)
(0.993516 0.053203 0)
(0.992358 0.0656469 0)
(0.991826 0.0792723 0)
(0.992208 0.0940474 0)
(0.993794 0.109859 0)
(0.996857 0.126511 0)
(1.00163 0.143727 0)
(1.00829 0.161158 0)
(1.01691 0.178411 0)
(1.02747 0.195062 0)
(1.03985 0.210715 0)
(1.05376 0.224978 0)
(1.06914 0.237583 0)
(1.08448 0.247265 0)
(0.999983 0.00453745 0)
(0.999494 0.0134179 0)
(0.998587 0.0224585 0)
(0.997503 0.0319878 0)
(0.99641 0.0422917 0)
(0.995532 0.0535339 0)
(0.995105 0.0658085 0)
(0.995385 0.0791298 0)
(0.996635 0.093435 0)
(0.99911 0.108583 0)
(1.00304 0.124357 0)
(1.00859 0.140471 0)
(1.01589 0.156585 0)
(1.02495 0.172332 0)
(1.03569 0.187336 0)
(1.04796 0.201259 0)
(1.06148 0.213791 0)
(1.07611 0.224728 0)
(1.09073 0.233065 0)
(0.99999 0.00459004 0)
(0.999653 0.0135741 0)
(0.999041 0.0226848 0)
(0.998371 0.0322447 0)
(0.997803 0.0425163 0)
(0.997551 0.0536423 0)
(0.997836 0.0656902 0)
(0.998895 0.0786468 0)
(1.00096 0.092423 0)
(1.00425 0.106856 0)
(1.00894 0.121716 0)
(1.01517 0.136717 0)
(1.02298 0.151536 0)
(1.03234 0.165838 0)
(1.04315 0.179296 0)
(1.05522 0.191629 0)
(1.06827 0.202602 0)
(1.08213 0.212061 0)
(1.09601 0.219213 0)
(0.999997 0.00462426 0)
(0.999813 0.0136755 0)
(0.9995 0.0228179 0)
(0.999242 0.0323658 0)
(0.999195 0.0425574 0)
(0.999555 0.0535144 0)
(1.00053 0.0652793 0)
(1.00232 0.0778144 0)
(1.00515 0.0910087 0)
(1.00917 0.104685 0)
(1.01454 0.118606 0)
(1.02132 0.132497 0)
(1.02952 0.146055 0)
(1.03907 0.158982 0)
(1.04984 0.171001 0)
(1.06163 0.181885 0)
(1.07417 0.191459 0)
(1.08727 0.199618 0)
(1.10039 0.205731 0)
(1 0.00463831 0)
(0.999973 0.0137169 0)
(0.999958 0.0228495 0)
(1.00011 0.0323403 0)
(1.00057 0.0424029 0)
(1.00153 0.0531383 0)
(1.00316 0.0645658 0)
(1.00564 0.0766268 0)
(1.00916 0.0891939 0)
(1.01384 0.10208 0)
(1.01978 0.115052 0)
(1.027 0.127845 0)
(1.03549 0.140188 0)
(1.04513 0.151818 0)
(1.05577 0.162507 0)
(1.06722 0.172077 0)
(1.07921 0.180404 0)
(1.09156 0.187423 0)
(1.10393 0.19263 0)
(1.00001 0.00463047 0)
(1.00013 0.013693 0)
(1.00041 0.0227718 0)
(1.00097 0.0321583 0)
(1.00193 0.0420421 0)
(1.00345 0.0525039 0)
(1.0057 0.0635425 0)
(1.00883 0.0750823 0)
(1.01297 0.0869842 0)
(1.01822 0.0990583 0)
(1.02463 0.111078 0)
(1.03221 0.1228 0)
(1.04087 0.13398 0)
(1.05051 0.144396 0)
(1.06096 0.153864 0)
(1.07201 0.162249 0)
(1.08345 0.16947 0)
(1.09507 0.175492 0)
(1.10671 0.179914 0)
(1.00002 0.00459909 0)
(1.00029 0.0135991 0)
(1.00086 0.0225774 0)
(1.00181 0.0318109 0)
(1.00325 0.0414657 0)
(1.00531 0.0516035 0)
(1.00814 0.0622053 0)
(1.01185 0.0731823 0)
(1.01654 0.084389 0)
(1.02228 0.0956378 0)
(1.02908 0.106715 0)
(1.03691 0.117398 0)
(1.04567 0.127476 0)
(1.05523 0.136764 0)
(1.06542 0.145117 0)
(1.07605 0.152439 0)
(1.08692 0.158681 0)
(1.09784 0.163835 0)
(1.10877 0.167579 0)
(1.00003 0.00454265 0)
(1.00045 0.0134306 0)
(1.00129 0.0222596 0)
(1.00262 0.0312903 0)
(1.00452 0.0406663 0)
(1.00709 0.0504316 0)
(1.01045 0.0605527 0)
(1.01468 0.0709317 0)
(1.01986 0.0814212 0)
(1.026 0.0918403 0)
(1.0331 0.101991 0)
(1.0411 0.111677 0)
(1.04987 0.120717 0)
(1.05929 0.128963 0)
(1.06919 0.136304 0)
(1.07938 0.142675 0)
(1.08969 0.148056 0)
(1.09994 0.152456 0)
(1.11019 0.155615 0)
(1.00003 0.00445974 0)
(1.0006 0.0131834 0)
(1.00171 0.0218126 0)
(1.00341 0.03059 0)
(1.00573 0.0396382 0)
(1.00877 0.0489854 0)
(1.01261 0.0585866 0)
(1.01731 0.0683386 0)
(1.0229 0.0780964 0)
(1.02937 0.0876897 0)
(1.03669 0.0969394 0)
(1.04478 0.105674 0)
(1.05351 0.113744 0)
(1.06273 0.121032 0)
(1.0723 0.127458 0)
(1.08204 0.132984 0)
(1.0918 0.137608 0)
(1.10142 0.141354 0)
(1.11102 0.14401 0)
(1.00004 0.00434917 0)