/*--------------------------------*- C++ -*----------------------------------*\
  =========                 |
  \\      /  F ield         | OpenFOAM: The Open Source CFD Toolbox
   \\    /   O peration     | Website:  https://openfoam.org
    \\  /    A nd           | Version:  7
     \\/     M anipulation  |
\*---------------------------------------------------------------------------*/
FoamFile
{
    version     2.0;
    format      ascii;
    class       surfaceScalarField;
    location    "45";
    object      phi;
}
// * * * * * * * * * * * * * * * * * * * * * * * * * * * * * * * * * * * * * //

dimensions      [0 3 -1 0 0 0 0];

internalField   nonuniform List<scalar> 
16730
(
-0.00364715
-0.000544575
-0.000525434
-0.00349442
-0.00359756
-0.00057502
-0.000503636
-0.00334992
-0.000553729
-0.00344433
-0.00354633
-0.000604962
-0.000480198
-0.00321508
-0.000529841
-0.00330027
-0.000581493
-0.00339268
-0.00349344
-0.000634386
-0.000504563
-0.00316609
-0.000555535
-0.0032493
-0.000608712
-0.0033395
-0.00343889
-0.000663262
-0.000478232
-0.00303998
-0.000528477
-0.00311584
-0.000580722
-0.00319706
-0.000635381
-0.00328484
-0.00338268
-0.000691591
-0.000450645
-0.00292035
-0.000500484
-0.00299014
-0.000551951
-0.00306437
-0.000605419
-0.00314359
-0.000661513
-0.00322875
-0.00332475
-0.000719441
-0.000471236
-0.00287072
-0.000522322
-0.00293905
-0.000575001
-0.0030117
-0.000629659
-0.00308893
-0.000687105
-0.0031713
-0.00326509
-0.000746763
-0.00044054
-0.00275693
-0.000491414
-0.00281984
-0.000543744
-0.00288672
-0.000597651
-0.00295779
-0.00065351
-0.00303307
-0.000712073
-0.00311274
-0.00320367
-0.00077349
-0.000459069
-0.00270623
-0.000511168
-0.00276775
-0.000564739
-0.00283315
-0.000619909
-0.00290262
-0.000677028
-0.00297595
-0.000736914
-0.00305285
-0.00314173
-0.000798858
-0.000425292
-0.00259787
-0.000477178
-0.00265434
-0.000530481
-0.00271444
-0.000585283
-0.00277835
-0.000641738
-0.00284616
-0.000699944
-0.00291775
-0.000759084
-0.00299371
-0.00307686
-0.000823955
-0.000390135
-0.00249434
-0.000441822
-0.00254618
-0.000494871
-0.00260129
-0.00054935
-0.00265996
-0.000605356
-0.00272235
-0.000663027
-0.00278849
-0.000722397
-0.00285837
-0.000783465
-0.00293264
-0.00301171
-0.00084861
-0.000405139
-0.00244285
-0.000457953
-0.00249337
-0.000512137
-0.00254711
-0.000567765
-0.00260434
-0.000624935
-0.00266518
-0.000683768
-0.00272966
-0.000744327
-0.00279782
-0.000806849
-0.00287012
-0.00294613
-0.000872429
-0.000367174
-0.00234361
-0.000419765
-0.00239026
-0.000473681
-0.00243945
-0.000528972
-0.00249181
-0.000585719
-0.00254759
-0.000644018
-0.00260688
-0.000703977
-0.0026697
-0.000765688
-0.0027361
-0.000829403
-0.00280641
-0.00287988
-0.000895657
-0.000380349
-0.00229127
-0.000434012
-0.00233659
-0.000489002
-0.00238446
-0.000545375
-0.00243544
-0.00060321
-0.00248975
-0.000662603
-0.00254748
-0.000723657
-0.00260865
-0.000786471
-0.00267329
-0.000851256
-0.00274162
-0.00281284
-0.000918288
-0.000393169
-0.00223787
-0.000447879
-0.00228188
-0.000503916
-0.00232842
-0.000561342
-0.00237802
-0.000620236
-0.00243086
-0.000680692
-0.00248703
-0.000742806
-0.00254653
-0.00080668
-0.00260942
-0.000872477
-0.00267583
-0.00274497
-0.000940347
-0.00035121
-0.00214201
-0.000405633
-0.00218344
-0.000461363
-0.00222615
-0.000518421
-0.00227136
-0.000576872
-0.00231957
-0.000636796
-0.00237094
-0.000698284
-0.00242554
-0.000761429
-0.00248339
-0.000826326
-0.00254452
-0.000893105
-0.00260905
-0.00267623
-0.000961854
-0.00036232
-0.00208794
-0.000417741
-0.00212802
-0.000474463
-0.00216943
-0.000532516
-0.00221331
-0.000591964
-0.00226012
-0.000652889
-0.00231001
-0.000715381
-0.00236305
-0.000779528
-0.00241924
-0.000845419
-0.00247863
-0.000913161
-0.00254131
-0.00260657
-0.000982814
-0.000318047
-0.00199307
-0.000373101
-0.00203289
-0.000429492
-0.00207163
-0.00048718
-0.00211174
-0.000546199
-0.00215429
-0.000606617
-0.0021997
-0.000668516
-0.00224811
-0.000731984
-0.00229958
-0.000797106
-0.00235412
-0.000863966
-0.00241177
-0.000932657
-0.00247262
-0.002536
-0.00100323
-0.000327542
-0.00193855
-0.000383551
-0.00197688
-0.000440884
-0.0020143
-0.00049951
-0.00205312
-0.000559469
-0.00209434
-0.000620831
-0.00213834
-0.000683677
-0.00218526
-0.000748093
-0.00223516
-0.000814165
-0.00228805
-0.000881971
-0.00234396
-0.000951598
-0.00240299
-0.00246451
-0.00102309
-0.00028126
-0.00184101
-0.000336734
-0.00188308
-0.00039367
-0.00191995
-0.000451918
-0.00195605
-0.000511455
-0.00199358
-0.000572327
-0.00203346
-0.000634604
-0.00207606
-0.00069837
-0.0021215
-0.000763709
-0.00216982
-0.000830706
-0.00222105
-0.000899437
-0.00227523
-0.000969985
-0.00233244
-0.00239209
-0.0010424
-0.000289228
-0.0017864
-0.000345625
-0.00182668
-0.000403458
-0.00186211
-0.000462592
-0.00189692
-0.000523013
-0.00193316
-0.00058477
-0.00197171
-0.000647937
-0.00201289
-0.000712596
-0.00205684
-0.000778832
-0.00210359
-0.000846729
-0.00215315
-0.000916363
-0.0022056
-0.000987817
-0.00226099
-0.00231877
-0.00106114
-0.000296924
-0.00173085
-0.000354212
-0.00176939
-0.000412914
-0.00180341
-0.000472906
-0.00183693
-0.000534184
-0.00187188
-0.000596799
-0.00190909
-0.000660828
-0.00194887
-0.000726353
-0.00199131
-0.00079346
-0.00203648
-0.000862233
-0.00208438
-0.000932748
-0.00213508
-0.00100509
-0.00218864
-0.00224454
-0.00107931
-0.000247901
-0.00162639
-0.000304348
-0.0016744
-0.000362497
-0.00171124
-0.000422037
-0.00174387
-0.00048286
-0.0017761
-0.000544967
-0.00180977
-0.000608413
-0.00184565
-0.000673276
-0.001884
-0.000739641
-0.00192495
-0.000807593
-0.00196853
-0.000877217
-0.00201476
-0.000948591
-0.00206371
-0.0010218
-0.00211544
-0.00216944
-0.00109691
-0.000254187
-0.00157133
-0.0003115
-0.00161709
-0.000370478
-0.00165227
-0.000430829
-0.00168352
-0.000492453
-0.00171448
-0.000555361
-0.00174687
-0.00061961
-0.0017814
-0.000685281
-0.00181833
-0.000752458
-0.00185777
-0.000821229
-0.00189976
-0.000891679
-0.00194431
-0.000963888
-0.0019915
-0.00103794
-0.00204138
-0.00209347
-0.00111391
-0.000260234
-0.00151539
-0.00031838
-0.00155894
-0.000378156
-0.00159249
-0.000439287
-0.00162239
-0.000501685
-0.00165208
-0.000565365
-0.00168319
-0.00063039
-0.00171637
-0.00069684
-0.00175188
-0.000764803
-0.00178981
-0.000834366
-0.00183019
-0.000905616
-0.00187306
-0.000978636
-0.00191848
-0.00105352
-0.0019665
-0.00201666
-0.00113032
-0.000209252
-0.00139791
-0.000266042
-0.0014586
-0.000324987
-0.0015
-0.00038553
-0.00153195
-0.000447411
-0.00156051
-0.000510554
-0.00158894
-0.000574979
-0.00161876
-0.000640752
-0.0016506
-0.000707954
-0.00168468
-0.000776675
-0.00172109
-0.000847003
-0.00175986
-0.000919026
-0.00180104
-0.000992831
-0.00184467
-0.00106851
-0.00189082
-0.00193904
-0.00114613
-0.000214007
-0.00134337
-0.00027161
-0.001401
-0.000331321
-0.00144029
-0.0003926
-0.00147067
-0.000455202
-0.0014979
-0.000519061
-0.00152508
-0.000584202
-0.00155362
-0.000650694
-0.00158411
-0.00071862
-0.00161675
-0.00078807
-0.00165164
-0.000859136
-0.0016888
-0.000931906
-0.00172827
-0.00100647
-0.00177011
-0.00108292
-0.00181437
-0.00186063
-0.00116133
-0.000218559
-0.001288
-0.000276939
-0.00134262
-0.000337381
-0.00137985
-0.000399365
-0.00140868
-0.000462659
-0.00143461
-0.000527205
-0.00146053
-0.000593033
-0.00148779
-0.000660215
-0.00151693
-0.000728837
-0.00154813
-0.000798989
-0.00158149
-0.000870764
-0.00161702
-0.000944253
-0.00165478
-0.00101955
-0.00169482
-0.00109674
-0.00173718
-0.00178145
-0.00117591
-0.000222906
-0.00123183
-0.000282027
-0.0012835
-0.000343169
-0.0013187
-0.000405826
-0.00134603
-0.000469782
-0.00137065
-0.000534985
-0.00139533
-0.000601471
-0.0014213
-0.000669314
-0.00144908
-0.000738603
-0.00147884
-0.000809428
-0.00151066
-0.000881884
-0.00154457
-0.000956063
-0.0015806
-0.00103206
-0.00161882
-0.00110997
-0.00165927
-0.00170155
-0.00118987
-0.000170119
-0.00109873
-0.000227049
-0.0011749
-0.000286875
-0.00122367
-0.000348682
-0.0012569
-0.000411982
-0.00128273
-0.000476569
-0.00130607
-0.0005424
-0.0013295
-0.000609515
-0.00135419
-0.000677991
-0.00138061
-0.000747917
-0.00140892
-0.000819386
-0.00143919
-0.000892494
-0.00147146
-0.000967334
-0.00150576
-0.001044
-0.00154215
-0.0011226
-0.00158067
-0.00162094
-0.00120321
-0.000173338
-0.00104539
-0.000230987
-0.00111725
-0.000291482
-0.00116318
-0.000353922
-0.00119446
-0.000417833
-0.00121881
-0.000483021
-0.00124088
-0.00054945
-0.00126307
-0.000617164
-0.00128647
-0.000686243
-0.00131153
-0.000756777
-0.00133839
-0.000828861
-0.00136711
-0.00090259
-0.00139773
-0.000978062
-0.00143029
-0.00105537
-0.00146484
-0.00113463
-0.00150141
-0.00153966
-0.00121591
-0.000176391
-0.000991325
-0.00023472
-0.00105892
-0.000295848
-0.00110205
-0.000358888
-0.00113142
-0.000423379
-0.00115432
-0.000489136
-0.00117512
-0.000556133
-0.00119607
-0.000624418
-0.00121819
-0.00069407
-0.00124188
-0.000765182
-0.00126727
-0.00083785
-0.00129444
-0.000912172
-0.00132341
-0.000988245
-0.00135421
-0.00106617
-0.00138691
-0.00114605
-0.00142153
-0.00145774
-0.00122797
-0.000179276
-0.00093657
-0.000238247
-0.000999948
-0.000299973
-0.00104032
-0.000363579
-0.00106781
-0.000428618
-0.00108928
-0.000494916
-0.00110883
-0.000562451
-0.00112854
-0.000631274
-0.00114937
-0.00070147
-0.00117168
-0.000773129
-0.00119561
-0.000846352
-0.00122122
-0.000921235
-0.00124853
-0.00099788
-0.00127757
-0.00107639
-0.00130841
-0.00115686
-0.00134106
-0.00137521
-0.00123939
-0.000181995
-0.000881167
-0.000241568
-0.000940375
-0.000303857
-0.000978036
-0.000367996
-0.00100367
-0.000433552
-0.00102373
-0.000500358
-0.00104202
-0.000568401
-0.0010605
-0.000637734
-0.00108003
-0.000708441
-0.00110097
-0.000780619
-0.00112344
-0.000854365
-0.00114747
-0.000929779
-0.00117311
-0.00100696
-0.00120038
-0.00108602
-0.00122935
-0.00116706
-0.00126002
-0.00129211
-0.00125016
-0.000128537
-0.000738462
-0.000184545
-0.000825159
-0.000244683
-0.000880236
-0.000307499
-0.00091522
-0.000372138
-0.000939032
-0.000438178
-0.000957689
-0.000505463
-0.000974733
-0.000573983
-0.000991976
-0.000643794
-0.00101022
-0.000714984
-0.00102978
-0.000787648
-0.00105077
-0.000861886
-0.00107323
-0.0009378
-0.0010972
-0.00101549
-0.00112269
-0.00109507
-0.00114978
-0.00117663
-0.00117845
-0.00120846
-0.00126028
-0.000130354
-0.000688181
-0.000186927
-0.000768586
-0.000247592
-0.000819571
-0.000310899
-0.000851913
-0.000376006
-0.000873926
-0.000442499
-0.000891196
-0.000510231
-0.000907002
-0.000579196
-0.000923011
-0.000649455
-0.000939963
-0.000721096
-0.000958142
-0.000794216
-0.000977652
-0.000868915
-0.000998534
-0.000945297
-0.00102082
-0.00102346
-0.00104452
-0.00110353
-0.00106971
-0.00118559
-0.00109639
-0.0011243
-0.00126974
-0.000132043
-0.000637354
-0.00018914
-0.000711489
-0.000250294
-0.000758416
-0.000314058
-0.00078815
-0.000379598
-0.000808386
-0.000446512
-0.000824282
-0.000514659
-0.000838854
-0.00058404
-0.000853631
-0.000654716
-0.000869287
-0.000726777
-0.000886081
-0.000800321
-0.000904108
-0.00087545
-0.000923405
-0.000952267
-0.000943998
-0.00103088
-0.000965913
-0.00111139
-0.000989202
-0.00119392
-0.00101386
-0.00103968
-0.00127854
-0.000133604
-0.000586023
-0.000191184
-0.000653909
-0.000252789
-0.000696811
-0.000316974
-0.000723965
-0.000382914
-0.000742445
-0.000450218
-0.000756979
-0.00051875
-0.000770322
-0.000588514
-0.000783867
-0.000659575
-0.000798225
-0.000732025
-0.000813632
-0.000805961
-0.000830171
-0.000881488
-0.000847878
-0.000958709
-0.000866777
-0.00103773
-0.000886891
-0.00111866
-0.00090827
-0.00120162
-0.00093091
-0.000954609
-0.00128668
-0.000135036
-0.00053423
-0.000193059
-0.000595885
-0.000255077
-0.000634794
-0.000319648
-0.000659395
-0.000385956
-0.000676137
-0.000453616
-0.000689319
-0.0005225
-0.000701437
-0.000592617
-0.00071375
-0.000664033
-0.000726809
-0.000736839
-0.000740825
-0.000811137
-0.000755873
-0.000887029
-0.000771986
-0.00096462
-0.000789185
-0.00104402
-0.000807493
-0.00112534
-0.000826953
-0.00120868
-0.000847562
-0.000869138
-0.00129415
-0.000136339
-0.000482018
-0.000194765
-0.000537459
-0.000257158
-0.000572401
-0.000322079
-0.000594473
-0.000388721
-0.000609495
-0.000456706
-0.000621334
-0.000525912
-0.000632231
-0.000596349
-0.000643313
-0.000668087
-0.000655071
-0.000741219
-0.000667694
-0.000815845
-0.000681247
-0.00089207
-0.000695761
-0.00097
-0.000711255
-0.00104974
-0.00072775
-0.00113141
-0.000745285
-0.00121512
-0.000763856
-0.0007833
-0.00130096
-0.000137513
-0.000429429
-0.0001963
-0.000478671
-0.000259031
-0.00050967
-0.000324268
-0.000529236
-0.00039121
-0.000542553
-0.000459488
-0.000553057
-0.000528983
-0.000562736
-0.00059971
-0.000572586
-0.000671739
-0.000583042
-0.000745164
-0.000594269
-0.000820086
-0.000606325
-0.000896611
-0.000619236
-0.000974846
-0.00063302
-0.0010549
-0.000647696
-0.00113688
-0.0006633
-0.00122091
-0.000679826
-0.00069713
-0.00130708
-0.000138556
-0.000376503
-0.000197666
-0.000419562
-0.000260696
-0.00044664
-0.000326214
-0.000463719
-0.000393424
-0.000475343
-0.000461961
-0.000484519
-0.000531714
-0.000492983
-0.000602698
-0.000501602
-0.000674986
-0.000510755
-0.000748672
-0.000520583
-0.000823858
-0.000531138
-0.000900651
-0.000542444
-0.000979157
-0.000554514
-0.00105949
-0.000567367
-0.00114175
-0.000581033
-0.00122607
-0.000595507
-0.000610664
-0.00131254
-0.000139471
-0.000323285
-0.000198861
-0.000360171
-0.000262154
-0.000383347
-0.000327917
-0.000397956
-0.00039536
-0.000407899
-0.000464126
-0.000415754
-0.000534104
-0.000423004
-0.000605314
-0.000430393
-0.000677829
-0.00043824
-0.000751743
-0.000446668
-0.000827161
-0.000455721
-0.000904188
-0.000465417
-0.000982932
-0.00047577
-0.0010635
-0.000486795
-0.00114602
-0.000498519
-0.00123059
-0.000510936
-0.000523939
-0.00131731
-8.6784e-05
-0.000222731
-0.000140254
-0.000269814
-0.000199886
-0.00030054
-0.000263403
-0.00031983
-0.000329377
-0.000331983
-0.000397021
-0.000340255
-0.000465982
-0.000346793
-0.000536154
-0.000352832
-0.000607557
-0.000358989
-0.000680266
-0.000365531
-0.000754377
-0.000372557
-0.000829993
-0.000380105
-0.000907221
-0.000388189
-0.000986169
-0.000396822
-0.00106695
-0.000406015
-0.00114968
-0.000415792
-0.00123446
-0.000426147
-0.000436991
-0.00132141
-8.72279e-05
-0.000178454
-0.000140908
-0.000216134
-0.00020074
-0.000240707
-0.000264445
-0.000256125
-0.000330593
-0.000265835
-0.000398405
-0.000272443
-0.000467529
-0.000277669
-0.000537862
-0.000282499
-0.000609427
-0.000287425
-0.000682298
-0.000292659
-0.000756573
-0.000298282
-0.000832354
-0.000304323
-0.00090975
-0.000310794
-0.000988869
-0.000317703
-0.00106982
-0.000325062
-0.00115273
-0.000332888
-0.0012377
-0.000341177
-0.000349858
-0.00132483
-8.75832e-05
-0.000134015
-0.000141431
-0.000162286
-0.000201424
-0.000180714
-0.000265278
-0.000192271
-0.000331567
-0.000199546
-0.000399512
-0.000204498
-0.000468767
-0.000208415
-0.000539229
-0.000212036
-0.000610923
-0.000215731
-0.000683924
-0.000219658
-0.00075833
-0.000223877
-0.000834244
-0.000228409
-0.000911774
-0.000233264
-0.00099103
-0.000238448
-0.00107212
-0.000243969
-0.00115517
-0.000249842
-0.00124028
-0.000256062
-0.000262576
-0.00132756
-8.78497e-05
-8.94537e-05
-0.000141823
-0.000108313
-0.000201937
-0.000120601
-0.000265903
-0.000128304
-0.000332297
-0.000133152
-0.000400343
-0.000136452
-0.000469695
-0.000139062
-0.000540254
-0.000141477
-0.000612045
-0.000143941
-0.000685144
-0.000146559
-0.000759648
-0.000149372
-0.000835662
-0.000152395
-0.000913293
-0.000155633
-0.000992651
-0.00015909
-0.00107385
-0.000162773
-0.001157
-0.000166689
-0.00124222
-0.000170838
-0.000175183
-0.00132962
-8.80275e-05
-4.48116e-05
-0.000142085
-5.42555e-05
-0.000202278
-6.04073e-05
-0.00026632
-6.42627e-05
-0.000332784
-6.66886e-05
-0.000400896
-6.83392e-05
-0.000470314
-6.9645e-05
-0.000540938
-7.08528e-05
-0.000612793
-7.20853e-05
-0.000685957
-7.33953e-05
-0.000760527
-7.48027e-05
-0.000836607
-7.63146e-05
-0.000914305
-7.79344e-05
-0.000993731
-7.96641e-05
-0.001075
-8.15063e-05
-0.00115822
-8.34656e-05
-0.00124352
-8.5541e-05
-8.77145e-05
-0.00133099
-8.81164e-05
-1.2893e-07
-0.000142216
-1.56177e-07
-0.000202449
-1.73554e-07
-0.000266528
-1.83888e-07
-0.000333027
-1.89713e-07
-0.000401173
-1.92972e-07
-0.000470623
-1.9495e-07
-0.00054128
-1.96379e-07
-0.000613167
-1.97619e-07
-0.000686364
-1.98819e-07
-0.000760967
-2.00029e-07
-0.00083708
-2.01266e-07
-0.000914812
-2.0253e-07
-0.000994272
-2.03823e-07
-0.00107557
-2.05144e-07
-0.00115883
-2.06498e-07
-0.00124417
-2.07878e-07
-2.09235e-07
-0.00133167
-8.81165e-05
4.45538e-05
-0.000142216
5.39431e-05
-0.000202449
6.00602e-05
-0.000266528
6.3895e-05
-0.000333027
6.63092e-05
-0.000401173
6.79532e-05
-0.000470623
6.92551e-05
-0.00054128
7.046e-05
-0.000613168
7.16901e-05
-0.000686364
7.29976e-05
-0.000760967
7.44026e-05
-0.00083708
7.59121e-05
-0.000914812
7.75293e-05
-0.000994272
7.92564e-05
-0.00107557
8.1096e-05
-0.00115883
8.30526e-05
-0.00124417
8.51252e-05
8.72961e-05
-0.00133167
-8.80277e-05
8.91959e-05
-0.000142085
0.000108001
-0.000202279
0.000120254
-0.00026632
0.000127936
-0.000332784
0.000132773
-0.000400897
0.000136066
-0.000470314
0.000138672
-0.000540938
0.000141084
-0.000612794
0.000143545
-0.000685958
0.000146162
-0.000760527
0.000148972
-0.000836608
0.000151992
-0.000914306
0.000155228
-0.000993732
0.000158682
-0.001075
0.000162362
-0.00115822
0.000166276
-0.00124352
0.000170422
0.000174764
-0.00133099
-8.785e-05
0.000133757
-0.000141824
0.000161974
-0.000201937
0.000180367
-0.000265904
0.000191903
-0.000332297
0.000199167
-0.000400343
0.000204112
-0.000469695
0.000208025
-0.000540255
0.000211644
-0.000612046
0.000215336
-0.000685144
0.00021926
-0.000759649
0.000223477
-0.000835662
0.000228006
-0.000913293
0.000232858
-0.000992651
0.00023804
-0.00107385
0.000243559
-0.001157
0.000249429
-0.00124222
0.000255646
0.000262158
-0.00132962
-8.75835e-05
0.000178197
-0.000141431
0.000215822
-0.000201424
0.00024036
-0.000265279
0.000255757
-0.000331567
0.000265455
-0.000399513
0.000272057
-0.000468767
0.000277279
-0.00053923
0.000282106
-0.000610924
0.00028703
-0.000683925
0.000292262
-0.000758331
0.000297882
-0.000834245
0.00030392
-0.000911775
0.000310389
-0.00099103
0.000317295
-0.00107212
0.000324651
-0.00115517
0.000332475
-0.00124028
0.000340761
0.00034944
-0.00132757
-8.72283e-05
0.000222474
-0.000140909
0.000269502
-0.000200741
0.000300193
-0.000264446
0.000319462
-0.000330594
0.000331604
-0.000398406
0.000339869
-0.00046753
0.000346403
-0.000537863
0.00035244
-0.000609428
0.000358594
-0.000682299
0.000365133
-0.000756574
0.000372157
-0.000832355
0.000379702
-0.000909751
0.000387784
-0.00098887
0.000396414
-0.00106982
0.000405605
-0.00115273
0.000415379
-0.0012377
0.000425731
0.000436573
-0.00132483
-8.67846e-05
-0.000140255
0.000322973
-0.000199887
0.000359825
-0.000263404
0.000382979
-0.000329378
0.000397577
-0.000397022
0.000407513
-0.000465983
0.000415364
-0.000536155
0.000422612
-0.000607558
0.000429997
-0.000680267
0.000437842
-0.000754378
0.000446268
-0.000829994
0.000455318
-0.000907222
0.000465012
-0.000986171
0.000475363
-0.00106695
0.000486385
-0.00114968
0.000498106
-0.00123447
0.00051052
0.00052352
-0.00132141
-0.000139471
0.000376192
-0.000198862
0.000419215
-0.000262155
0.000446272
-0.000327918
0.00046334
-0.000395362
0.000474957
-0.000464127
0.00048413
-0.000534106
0.00049259
-0.000605316
0.000501207
-0.00067783
0.000510357
-0.000751745
0.000520183
-0.000827162
0.000530736
-0.000904189
0.000542039
-0.000982933
0.000554107
-0.00106351
0.000566957
-0.00114602
0.00058062
-0.00123059
0.000595092
0.000610245
-0.00131732
-0.000138558
0.000429117
-0.000197667
0.000478325
-0.000260698
0.000509303
-0.000326215
0.000528857
-0.000393425
0.000542167
-0.000461963
0.000552667
-0.000531716
0.000562343
-0.0006027
0.000572191
-0.000674988
0.000582645
-0.000748674
0.000593869
-0.00082386
0.000605922
-0.000900652
0.000618831
-0.000979158
0.000632613
-0.00105949
0.000647286
-0.00114176
0.000662887
-0.00122607
0.00067941
0.000696711
-0.00131254
-0.000137514
0.000481707
-0.000196302
0.000537113
-0.000259032
0.000572033
-0.000324269
0.000594094
-0.000391212
0.00060911
-0.000459489
0.000620945
-0.000528985
0.000631839
-0.000599712
0.000642918
-0.000671741
0.000654674
-0.000745166
0.000667294
-0.000820088
0.000680845
-0.000896613
0.000695356
-0.000974848
0.000710847
-0.0010549
0.000727339
-0.00113689
0.000744872
-0.00122092
0.00076344
0.000782881
-0.00130709
-0.00013634
0.00053392
-0.000194766
0.000595539
-0.00025716
0.000634427
-0.000322081
0.000659016
-0.000388723
0.000675752
-0.000456708
0.00068893
-0.000525914
0.000701045
-0.000596351
0.000713355
-0.00066809
0.000726412
-0.000741221
0.000740425
-0.000815847
0.000755471
-0.000892072
0.000771581
-0.000970002
0.000788777
-0.00104974
0.000807082
-0.00113141
0.00082654
-0.00121512
0.000847147
0.00086872
-0.00130096
-0.000135037
0.000585713
-0.000193061
0.000653563
-0.000255079
0.000696445
-0.00031965
0.000723586
-0.000385958
0.00074206
-0.000453618
0.00075659
-0.000522503
0.000769929
-0.000592619
0.000783472
-0.000664035
0.000797828
-0.000736842
0.000813232
-0.000811139
0.000829768
-0.000887031
0.000847473
-0.000964623
0.000866369
-0.00104402
0.000886481
-0.00112534
0.000907857
-0.00120869
0.000930494
0.00095419
-0.00129416
-0.000133605
0.000637044
-0.000191186
0.000711144
-0.000252791
0.00075805
-0.000316976
0.000787771
-0.000382917
0.000808
-0.00045022
0.000823893
-0.000518752
0.000838461
-0.000588516
0.000853236
-0.000659578
0.000868889
-0.000732027
0.000885681
-0.000805964
0.000903705
-0.000881491
0.000923
-0.000958712
0.00094359
-0.00103773
0.000965503
-0.00111866
0.000988789
-0.00120162
0.00101345
0.00103926
-0.00128669
-0.000132045
0.000687872
-0.000189142
0.000768241
-0.000250297
0.000819204
-0.00031406
0.000851535
-0.0003796
0.00087354
-0.000446514
0.000890807
-0.000514662
0.000906609
-0.000584042
0.000922616
-0.000654719
0.000939565
-0.000726779
0.000957742
-0.000800324
0.000977249
-0.000875453
0.000998129
-0.00095227
0.00102041
-0.00103088
0.00104411
-0.00111139
0.0010693
-0.00119392
0.00109597
0.00112389
-0.00127855
-0.000130356
0.000738153
-0.000186929
0.000824815
-0.000247595
0.00087987
-0.000310902
0.000914842
-0.000376009
0.000938647
-0.000442502
0.0009573
-0.000510234
0.000974341
-0.000579199
0.000991581
-0.000649458
0.00100982
-0.000721099
0.00102938
-0.000794219
0.00105037
-0.000868918
0.00107283
-0.0009453
0.00109679
-0.00102347
0.00112228
-0.00110353
0.00114936
-0.00118559
0.00117804
0.00120804
-0.00126975
-0.000128539
-0.000184547
0.000880823
-0.000244686
0.000940009
-0.000307502
0.000977658
-0.000372142
0.00100329
-0.000438182
0.00102334
-0.000505467
0.00104163
-0.000573986
0.0010601
-0.000643797
0.00107964
-0.000714987
0.00110057
-0.000787651
0.00112303
-0.00086189
0.00114707
-0.000937804
0.0011727
-0.0010155
0.00119997
-0.00109507
0.00122894
-0.00117664
0.0012596
0.00129169
-0.00126028
-0.000181997
0.000936226
-0.000241571
0.000999583
-0.00030386
0.00103995
-0.000368
0.00106743
-0.000433555
0.0010889
-0.000500362
0.00110843
-0.000568404
0.00112814
-0.000637737
0.00114897
-0.000708445
0.00117128
-0.000780622
0.00119521
-0.000854368
0.00122081
-0.000929783
0.00124812
-0.00100697
0.00127716
-0.00108602
0.00130799
-0.00116706
0.00134064
0.00137479
-0.00125017
-0.000179279
0.000990981
-0.00023825
0.00105855
-0.000299977
0.00110167
-0.000363583
0.00113103
-0.000428622
0.00115393
-0.00049492
0.00117473
-0.000562455
0.00119568
-0.000631278
0.00121779
-0.000701473
0.00124148
-0.000773133
0.00126687
-0.000846356
0.00129403
-0.000921239
0.001323
-0.000997884
0.0013538
-0.00107639
0.0013865
-0.00115687
0.00142112
0.00145732
-0.00123939
-0.000176394
0.00104505
-0.000234723
0.00111688
-0.000295852
0.0011628
-0.000358892
0.00119407
-0.000423383
0.00121843
-0.00048914
0.00124049
-0.000556138
0.00126267
-0.000624422
0.00128608
-0.000694074
0.00131113
-0.000765186
0.00133798
-0.000837854
0.0013667
-0.000912176
0.00139732
-0.000988249
0.00142987
-0.00106617
0.00146443
-0.00114606
0.001501
0.00153924
-0.00122798
-0.000173342
0.00109839
-0.000230991
0.00117453
-0.000291486
0.0012233
-0.000353926
0.00125651
-0.000417837
0.00128234
-0.000483025
0.00130568
-0.000549454
0.0013291
-0.000617169
0.00135379
-0.000686247
0.00138021
-0.000756781
0.00140852
-0.000828865
0.00143879
-0.000902595
0.00147105
-0.000978067
0.00150535
-0.00105538
0.00154174
-0.00113463
0.00158025
0.00162052
-0.00121591
-0.000170123
-0.000227053
0.00123146
-0.000286879
0.00128312
-0.000348687
0.00131832
-0.000411987
0.00134564
-0.000476573
0.00137026
-0.000542404
0.00139493
-0.00060952
0.00142091
-0.000677996
0.00144868
-0.000747921
0.00147844
-0.000819391
0.00151026
-0.000892498
0.00154416
-0.000967338
0.00158019
-0.00104401
0.00161841
-0.00112261
0.00165885
0.00170113
-0.00120321
-0.00022291
0.00128763
-0.000282031
0.00134224
-0.000343173
0.00137946
-0.000405831
0.00140829
-0.000469787
0.00143422
-0.00053499
0.00146014
-0.000601476
0.00148739
-0.000669319
0.00151653
-0.000738608
0.00154773
-0.000809433
0.00158108
-0.000881889
0.00161662
-0.000956068
0.00165437
-0.00103206
0.0016944
-0.00110997
0.00173676
0.00178104
-0.00118988
-0.000218563
0.00134301
-0.000276943
0.00140062
-0.000337386
0.00143991
-0.00039937
0.00147028
-0.000462665
0.00149751
-0.00052721
0.00152468
-0.000593038
0.00155322
-0.00066022
0.00158371
-0.000728842
0.00161635
-0.000798994
0.00165123
-0.000870769
0.00168839
-0.000944258
0.00172785
-0.00101955
0.0017697
-0.00109675
0.00181395
0.00186021
-0.00117592
-0.000214012
-0.000271615
0.00145823
-0.000331326
0.00149962
-0.000392605
0.00153156
-0.000455208
0.00156012
-0.000519067
0.00158854
-0.000584208
0.00161836
-0.000650699
0.0016502
-0.000718625
0.00168428
-0.000788076
0.00172068
-0.000859141
0.00175946
-0.000931911
0.00180062
-0.00100647
0.00184426
-0.00108292
0.0018904
0.00193862
-0.00116133
-0.000266047
0.00151502
-0.000324992
0.00155856
-0.000385536
0.0015921
-0.000447417
0.001622
-0.00051056
0.00165169
-0.000574985
0.00168279
-0.000640757
0.00171597
-0.00070796
0.00175148
-0.00077668
0.0017894
-0.000847008
0.00182978
-0.000919032
0.00187265
-0.000992836
0.00191806
-0.00106851
0.00196608
0.00201624
-0.00114614
-0.00026024
0.00157096
-0.000318386
0.00161671
-0.000378162
0.00165188
-0.000439293
0.00168313
-0.000501691
0.00171408
-0.000565372
0.00174647
-0.000630396
0.001781
-0.000696847
0.00181793
-0.000764809
0.00185737
-0.000834372
0.00189935
-0.000905622
0.0019439
-0.000978641
0.00199108
-0.00105352
0.00204096
0.00209305
-0.00113033
-0.000254193
0.00162601
-0.000311506
0.00167402
-0.000370484
0.00171086
-0.000430835
0.00174348
-0.00049246
0.00177571
-0.000555368
0.00180938
-0.000619617
0.00184525
-0.000685287
0.0018836
-0.000752464
0.00192454
-0.000821235
0.00196812
-0.000891685
0.00201435
-0.000963894
0.00206329
-0.00103795
0.00211502
0.00216902
-0.00111392
-0.000247908
-0.000304355
0.00173047
-0.000362504
0.001769
-0.000422044
0.00180302
-0.000482867
0.00183653
-0.000544974
0.00187148
-0.00060842
0.00190869
-0.000673283
0.00194846
-0.000739648
0.00199091
-0.0008076
0.00203607
-0.000877223
0.00208397
-0.000948597
0.00213467
-0.00102181
0.00218823
0.00224412
-0.00109691
-0.000296931
0.00178601
-0.000354219
0.00182629
-0.000412921
0.00186172
-0.000472914
0.00189652
-0.000534192
0.00193276
-0.000596807
0.00197131
-0.000660835
0.00201249
-0.00072636
0.00205643
-0.000793467
0.00210318
-0.000862239
0.00215274
-0.000932755
0.00220518
-0.0010051
0.00226057
0.00231835
-0.00107932
-0.000289235
0.00184063
-0.000345632
0.00188269
-0.000403466
0.00191955
-0.0004626
0.00195566
-0.000523021
0.00199318
-0.000584778
0.00203306
-0.000647944
0.00207566
-0.000712603
0.00212109
-0.000778839
0.00216941
-0.000846736
0.00222064
-0.00091637
0.00227482
-0.000987823
0.00233202
0.00239167
-0.00106115
-0.000281268
-0.000336742
0.00193816
-0.000393678
0.00197649
-0.000451926
0.00201391
-0.000511464
0.00205272
-0.000572335
0.00209393
-0.000634612
0.00213794
-0.000698378
0.00218486
-0.000763717
0.00223475
-0.000830713
0.00228763
-0.000899444
0.00234355
-0.000969991
0.00240257
0.00246409
-0.00104241
-0.00032755
0.00199268
-0.00038356
0.0020325
-0.000440893
0.00207124
-0.000499519
0.00211135
-0.000559478
0.00215389
-0.000620839
0.0021993
-0.000683685
0.0022477
-0.000748101
0.00229917
-0.000814173
0.00235371
-0.000881979
0.00241135
-0.000951605
0.0024722
0.00253558
-0.0010231
-0.000318056
-0.00037311
0.00208755
-0.000429501
0.00212763
-0.000487189
0.00216903
-0.000546208
0.00221291
-0.000606626
0.00225971
-0.000668525
0.0023096
-0.000731993
0.00236264
-0.000797114
0.00241883
-0.000863974
0.00247821
-0.000932664
0.00254089
0.00260615
-0.00100324
-0.00036233
0.00214162
-0.000417751
0.00218305
-0.000474473
0.00222576
-0.000532525
0.00227096
-0.000591973
0.00231916
-0.000652899
0.00237053
-0.00071539
0.00242513
-0.000779537
0.00248297
-0.000845427
0.0025441
-0.000913169
0.00260863
0.0026758
-0.000982821
-0.00035122
-0.000405643
0.00223747
-0.000461373
0.00228149
-0.000518431
0.00232802
-0.000576882
0.00237761
-0.000636805
0.00243045
-0.000698294
0.00248662
-0.000761438
0.00254612
-0.000826335
0.002609
-0.000893113
0.00267541
0.00274455
-0.000961861
-0.000393179
0.00229087
-0.00044789
0.0023362
-0.000503927
0.00238406
-0.000561352
0.00243504
-0.000620246
0.00248935
-0.000680702
0.00254707
-0.000742816
0.00260823
-0.000806689
0.00267287
-0.000872486
0.0027412
0.00281242
-0.000940355
-0.00038036
0.00234322
-0.000434024
0.00238986
-0.000489013
0.00243905
-0.000545386
0.00249141
-0.000603221
0.00254718
-0.000662614
0.00260647
-0.000723667
0.00266929
-0.000786481
0.00273569
-0.000851265
0.00280599
0.00287945
-0.000918296
-0.000367186
-0.000419777
0.00244245
-0.000473692
0.00249297
-0.000528984
0.0025467
-0.00058573
0.00260393
-0.000644029
0.00266476
-0.000703988
0.00272924
-0.000765699
0.0027974
-0.000829413
0.0028697
0.00294571
-0.000895667
-0.000405151
-0.000457966
0.00254578
-0.000512149
0.00260089
-0.000567777
0.00265956
-0.000624947
0.00272193
-0.000683779
0.00278808
-0.000744338
0.00285796
-0.000806859
0.00293222
0.00301129
-0.000872439
-0.000441836
0.00259747
-0.000494884
0.00265393
-0.000549363
0.00271404
-0.000605368
0.00277794
-0.000663039