/*--------------------------------*- C++ -*----------------------------------*\
  =========                 |
  \\      /  F ield         | OpenFOAM: The Open Source CFD Toolbox
   \\    /   O peration     | Website:  https://openfoam.org
    \\  /    A nd           | Version:  7
     \\/     M anipulation  |
\*---------------------------------------------------------------------------*/
FoamFile
{
    version     2.0;
    format      ascii;
    class       volScalarField;
    location    "90";
    object      p;
}
// * * * * * * * * * * * * * * * * * * * * * * * * * * * * * * * * * * * * * //

dimensions      [0 2 -2 0 0 0 0];

internalField   nonuniform List<scalar> 
8500
(
0.025758
0.0278113
0.0361736
0.030385
0.0388261
0.0465974
0.0338628
0.0420456
0.0498793
0.056986
0.0462591
0.0537729
0.0609554
0.067306
0.0506116
0.0587322
0.0655606
0.0720524
0.0775329
0.0550685
0.0639002
0.0712734
0.0774119
0.0831672
0.087561
0.0692081
0.0772647
0.0838856
0.0893509
0.0942624
0.0970906
0.0746269
0.08342
0.0906971
0.0965874
0.101427
0.105302
0.10587
0.0897057
0.0976852
0.104188
0.109392
0.113655
0.116347
0.114708
0.0960852
0.104821
0.111982
0.117719
0.122266
0.125915
0.127348
0.126532
0.102507
0.112089
0.119949
0.126286
0.13126
0.135134
0.13811
0.138821
0.138833
0.119444
0.128087
0.135064
0.140573
0.144783
0.147962
0.150246
0.150383
0.150493
0.126827
0.136357
0.144053
0.150142
0.15482
0.158261
0.16073
0.162327
0.161932
0.161823
0.144699
0.153217
0.159962
0.165158
0.169001
0.171667
0.173417
0.174328
0.173389
0.172913
0.15304
0.162495
0.169997
0.175787
0.180087
0.183093
0.18498
0.186003
0.186226
0.184721
0.183793
0.171811
0.180185
0.18667
0.191503
0.194907
0.197073
0.198177
0.198468
0.198
0.19591
0.194481
0.190447
0.197741
0.203207
0.207084
0.209591
0.210918
0.211239
0.210795
0.209632
0.206944
0.204985
0.200709
0.208918
0.215132
0.219583
0.222506
0.224118
0.224606
0.224144
0.222965
0.221106
0.217813
0.215305
0.22012
0.227191
0.23233
0.235769
0.237742
0.238463
0.238117
0.236874
0.234961
0.232406
0.228505
0.225437
0.231297
0.239296
0.245235
0.249305
0.251739
0.252769
0.252605
0.251429
0.24941
0.246765
0.243518
0.239012
0.235376
0.251385
0.258204
0.26302
0.26603
0.267467
0.267561
0.26652
0.264522
0.261733
0.258363
0.254428
0.24932
0.245113
0.271162
0.276811
0.280515
0.282476
0.282928
0.282097
0.280188
0.277376
0.273825
0.269736
0.265122
0.259419
0.254639
0.284119
0.290592
0.295084
0.29769
0.298615
0.298095
0.296351
0.293586
0.289972
0.285668
0.280871
0.275586
0.269297
0.263944
0.304353
0.309641
0.312992
0.314515
0.314421
0.312943
0.310301
0.306693
0.302289
0.297245
0.29175
0.285807
0.27894
0.273018
0.324153
0.328273
0.330502
0.330962
0.329867
0.327448
0.323924
0.319489
0.31431
0.308539
0.302358
0.295769
0.288338
0.281851
0.338744
0.343483
0.346456
0.347585
0.347003
0.344927
0.341587
0.337199
0.331954
0.326015
0.319533
0.31268
0.305459
0.297476
0.290432
0.358712
0.362307
0.364158
0.36421
0.36261
0.359575
0.355335
0.350103
0.344067
0.337387
0.330209
0.322701
0.314864
0.306344
0.29875
0.378114
0.380592
0.381346
0.380349
0.377755
0.373786
0.36867
0.362616
0.35581
0.348407
0.340553
0.332406
0.323971
0.314928
0.306794
0.396915
0.398304
0.397991
0.395973
0.392414
0.387537
0.381569
0.374717
0.367162
0.359059
0.350548
0.341782
0.332766
0.323217
0.314554
0.413382
0.41508
0.41541
0.414061
0.411054
0.40656
0.400804
0.394011
0.386386
0.378108
0.369326
0.360178
0.350813
0.341236
0.331198
0.322019
0.431885
0.432575
0.431879
0.429529
0.425566
0.420169
0.413565
0.405976
0.397605
0.388627
0.379191
0.36943
0.359486
0.349368
0.33886
0.32918
0.449651
0.449366
0.447681
0.444368
0.439483
0.433217
0.425797
0.417443
0.408354
0.398705
0.388639
0.378288
0.367788
0.357152
0.346191
0.336026
0.466646
0.465424
0.462788
0.458549
0.452782
0.445683
0.43748
0.428392
0.418617
0.408323
0.397654
0.386739
0.375706
0.364574
0.353181
0.342548
0.482837
0.480717
0.477172
0.472048
0.465438
0.457544
0.448594
0.438806
0.428375
0.417467
0.406223
0.394769
0.383229
0.371623
0.359819
0.348737
0.500308
0.498194
0.495217
0.490807
0.484841
0.47743
0.46878
0.45912
0.448667
0.437612
0.426121
0.414331
0.402366
0.390343
0.378289
0.366094
0.354583
0.515556
0.512688
0.508898
0.503668
0.496905
0.488735
0.47937
0.469039
0.457958
0.446314
0.434272
0.421966
0.409517
0.397039
0.384562
0.371998
0.36008
0.529871
0.52629
0.521733
0.515731
0.508219
0.499335
0.489298
0.478336
0.466663
0.454466
0.441905
0.429114
0.416211
0.403305
0.390431
0.377521
0.365218
0.543225
0.538975
0.5337
0.526974
0.518761
0.50921
0.498544
0.486993
0.474767
0.462053
0.449008
0.435765
0.422437
0.409132
0.395887
0.382655
0.369991
0.555592
0.550719
0.544775
0.537378
0.528513
0.518343
0.507094
0.494995
0.482258
0.469064
0.45557
0.441906
0.428186
0.41451
0.400922
0.387391
0.374391
0.566947
0.561499
0.554939
0.546922
0.537457
0.526718
0.514932
0.50233
0.489121
0.475486
0.461579
0.447529
0.433447
0.419431
0.405527
0.391722
0.378412
0.577269
0.571295
0.564172
0.555591
0.545578
0.534319
0.522044
0.508983
0.495345
0.481308
0.467025
0.452624
0.438212
0.423887
0.409696
0.395641
0.382048
0.586537
0.580088
0.572458
0.563366
0.552861
0.541134
0.528418
0.514944
0.500919
0.486521
0.471899
0.457182
0.442474
0.42787
0.413422
0.399143
0.385294
0.594734
0.587862
0.57978
0.570236
0.559293
0.54715
0.534043
0.520203
0.505834
0.491115
0.476194
0.461195
0.446225
0.431374
0.416698
0.40222
0.388145
0.608293
0.601843
0.594601
0.586125
0.576186
0.564861
0.552356
0.538908
0.524749
0.510082
0.495083
0.4799
0.464658
0.44946
0.434394
0.419519
0.404868
0.390596
0.614564
0.60785
0.600294
0.591482
0.581206
0.569557
0.556743
0.543005
0.528575
0.513654
0.498417
0.483013
0.467564
0.452172
0.436923
0.421881
0.407084
0.392645
0.619674
0.612744
0.604929
0.59584
0.585288
0.57337
0.560303
0.546327
0.531673
0.516544
0.501113
0.485527
0.469907
0.454357
0.438959
0.423779
0.408862
0.394286
0.623615
0.616515
0.608497
0.599192
0.588422
0.576295
0.56303
0.548868
0.53404
0.518748
0.503165
0.487437
0.471685
0.456011
0.440498
0.425211
0.410201
0.395519
0.626379
0.619155
0.610991
0.60153
0.590604
0.578327
0.564918
0.550623
0.53567
0.520261
0.504569
0.48874
0.472894
0.457132
0.441536
0.426173
0.411097
0.396342
0.627958
0.620661
0.612407
0.60285
0.591829
0.57946
0.565965
0.551588
0.53656
0.52108
0.505323
0.489433
0.473531
0.457717
0.442072
0.426665
0.411549
0.396752
0.628351
0.621027
0.612741
0.60315
0.592095
0.579693
0.566168
0.551763
0.536708
0.521205
0.505426
0.489516
0.473595
0.457765
0.442105
0.426684
0.411557
0.396748
0.627557
0.620254
0.611994
0.60243
0.591401
0.579026
0.565526
0.551145
0.536114
0.520634
0.504877
0.488987
0.473087
0.457275
0.441635
0.426232
0.411119
0.396331
0.625576
0.618344
0.610165
0.600689
0.589749
0.577459
0.56404
0.549737
0.534779
0.519368
0.503676
0.487848
0.472006
0.456249
0.440661
0.425307
0.410237
0.3955
0.622413
0.615298
0.60726
0.597932
0.58714
0.574994
0.561713
0.54754
0.532705
0.517409
0.501825
0.4861
0.470354
0.454688
0.439186
0.423912
0.40891
0.394257
0.618073
0.611124
0.603282
0.594163
0.58358
0.571637
0.558549
0.544558
0.529894
0.51476
0.499328
0.483745
0.468133
0.452594
0.437211
0.422047
0.407143
0.392603
0.612566
0.605829
0.598238
0.589388
0.579075
0.567393
0.554553
0.540796
0.526352
0.511425
0.496188
0.480788
0.465347
0.449969
0.434739
0.419717
0.404935
0.390542
0.599423
0.59214
0.583617
0.573632
0.562268
0.549731
0.53626
0.522085
0.50741
0.49241
0.477232
0.462
0.446818
0.431774
0.416924
0.402292
0.388074
0.591918
0.584996
0.576859
0.567262
0.556273
0.544092
0.530958
0.517099
0.502721
0.487999
0.473083
0.458097
0.443146
0.42832
0.413673
0.399216
0.385204
0.583329
0.576822
0.569128
0.559975
0.549416
0.537646
0.524898
0.511402
0.497365
0.482964
0.468349
0.453645
0.438958
0.424383
0.409967
0.395713
0.381935
0.573672
0.567632
0.560437
0.551784
0.541711
0.530402
0.51809
0.505005
0.491352
0.477312
0.463035
0.448649
0.434261
0.419968
0.405814
0.391787
0.378272
0.562965
0.557443
0.550801
0.542705
0.533171
0.522375
0.510547
0.497917
0.484692
0.471052
0.457152
0.443118
0.429061
0.415081
0.401218
0.387443
0.374219
0.55123
0.546274
0.540238
0.532752
0.52381
0.513578
0.502281
0.49015
0.477394
0.464195
0.450707
0.437061
0.423367
0.409731
0.396186
0.38269
0.369783
0.538488
0.534145
0.528768
0.521944
0.513645
0.504025
0.493306
0.481718
0.469472
0.456751
0.443712
0.430486
0.417188
0.403924
0.390727
0.377532
0.364968
0.524764
0.521081
0.516411
0.5103
0.502693
0.493733
0.483637
0.472634
0.460937
0.448732
0.436176
0.423404
0.410532
0.397671
0.384848
0.371979
0.359782
0.510084
0.507104
0.50319
0.497841
0.490974
0.48272
0.47329
0.462914
0.451805
0.440151
0.428114
0.415827
0.403411
0.39098
0.378558
0.366037
0.354231
0.492241
0.489128
0.484588
0.478509
0.471004
0.462283
0.452573
0.44209
0.431023
0.419536
0.407765
0.395834
0.383861
0.371866
0.359717
0.348324
0.47652
0.474252
0.470566
0.465318
0.458607
0.450635
0.441629
0.431807
0.421361
0.410456
0.399232
0.387813
0.376325
0.364782
0.353026
0.342067
0.45997
0.458588
0.455799
0.451426
0.445549
0.438364
0.4301
0.420974
0.411181
0.400889
0.390241
0.379361
0.368383
0.357316
0.345975
0.335469
0.442623
0.442166
0.440315
0.436855
0.431852
0.425493
0.418006
0.409609
0.4005
0.390851
0.380804
0.370491
0.360047
0.349479
0.338573
0.32854
0.424511
0.425014
0.424139
0.421633
0.41754
0.412042
0.405365
0.397729
0.389335
0.380355
0.370938
0.361215
0.351329
0.341283
0.330832
0.321287
0.407166
0.407302
0.405785
0.402638
0.398035
0.392199
0.385355
0.377703
0.36942
0.360657
0.351547
0.342242
0.332739
0.322762
0.313722
0.388652
0.389833
0.389338
0.38717
0.383494
0.378531
0.372505
0.365622
0.358062
0.349976
0.341503
0.332798
0.32386
0.314374
0.305852
0.369507
0.371764
0.372323
0.371165
0.368444
0.364381
0.359202
0.353113
0.346298
0.338912
0.331096
0.323012
0.314657
0.30568
0.297689
0.353126
0.354768
0.354648
0.352911
0.349775
0.345466
0.340195
0.334148
0.327482
0.320342
0.312897
0.305144
0.296692
0.289243
0.333953
0.336704
0.337649
0.336921
0.334735
0.33132
0.326888
0.321628
0.315702
0.309257
0.302469
0.295334
0.287422
0.280523
0.31428
0.318163
0.320195
0.320499
0.319287
0.316786
0.313213
0.30876
0.303591
0.297857
0.29174
0.285239
0.277881
0.271541
0.294141
0.299177
0.302318
0.303675
0.303455
0.301888
0.299192
0.295562
0.291167
0.286158
0.280727
0.274874
0.268083
0.262307
0.279779
0.284048
0.286476
0.287266
0.286649
0.284846
0.282055
0.278447
0.274177
0.269444
0.264251
0.258039
0.252832
0.260003
0.265415
0.26893
0.270746
0.271095
0.270199
0.26826
0.265451
0.261931
0.257907
0.253385
0.24776
0.243124
0.239883
0.246452
0.251067
0.253923
0.255249
0.255272
0.254197
0.252198
0.249438
0.246131
0.242289
0.23726
0.233194
0.22719
0.232917
0.236823
0.239138
0.240091
0.239887
0.238707
0.236715
0.234132
0.230977
0.226549
0.223051
0.207663
0.214509
0.219474
0.222787
0.224677
0.225354
0.224999
0.223781
0.221926
0.219462
0.215638
0.212702
0.195875
0.201905
0.206222
0.209055
0.210618
0.211094
0.210653
0.209529
0.207759
0.204537
0.202153
0.177045
0.184145
0.189469
0.19325
0.195703
0.197013
0.197351
0.196959
0.195882
0.193257
0.191408
0.166222
0.172556
0.177287
0.180631
0.182777
0.183895
0.184233
0.183847
0.181807
0.180465
0.148165
0.155509
0.161191
0.165427
0.168409
0.170304
0.17137
0.171672
0.170199
0.169316
0.130003
0.138356
0.144986
0.150114
0.15393
0.156601
0.158388
0.159377
0.158449
0.157942
0.121124
0.1287
0.134717
0.139366
0.142808
0.145307
0.146985
0.146589
0.146312
0.112357
0.11926
0.124739
0.12895
0.132147
0.13452
0.134696
0.134325
0.0959835
0.103767
0.110075
0.115054
0.11893
0.12198
0.122871
0.121659
0.0882635
0.0953978
0.101149
0.105689
0.109358
0.111506
0.109393
0.0727734
0.0807308
0.0872658
0.0925012
0.0967592
0.100112
0.100218
0.0660963
0.0734227
0.079401
0.0843018
0.0887217
0.091114
0.0515133
0.059629
0.0663737
0.0719645
0.0772545
0.0812365
0.0458923
0.0534001
0.0596979
0.0657461
0.0708328
0.0404777
0.047479
0.0542385
0.0602093
0.035305
0.0427366
0.0494776
0.0231823
0.031243
0.0386648
0.0197738
0.0278051
0.0169429
0.107839
0.0988549
0.0896744
0.0807356
0.0714239
0.0618175
0.0521701
0.0425424
0.0329293
0.0233562
0.0138586
0.097749
0.0887211
0.0784683
0.0694433
0.0607531
0.0518475
0.0429232
0.0341476
0.0255077
0.0169746
0.00855561
0.0857831
0.0770606
0.067245
0.0589166
0.0512427
0.0434416
0.0355767
0.0278477
0.0202715
0.0128009
0.00542238
0.0741562
0.066167
0.0573953
0.050018
0.0432819
0.0364397
0.0295009
0.022656
0.0159466
0.00933409
0.00279981
0.0641706
0.057029
0.0493121
0.0427911
0.0368203
0.0307614
0.0246109
0.0185337
0.0125767
0.00671104
0.000917216
0.0557393
0.049339
0.0425432
0.0367589
0.0314319
0.0260368
0.0205697
0.0151664
0.00986858
0.00465333
-0.000497089
0.0485574
0.0427998
0.0368167
0.0316931
0.0269397
0.0221309
0.0172686
0.0124634
0.00774846
0.00310519
-0.0014815
0.0424433
0.0372632
0.0319992
0.0274647
0.0232219
0.0189297
0.0145982
0.0103176
0.00611317
0.00196935
-0.00212614
0.0372677
0.0326089
0.0279751
0.023958
0.0201656
0.0163273
0.0124606
0.00863929
0.00488201
0.00117542
-0.00249035
0.0329059
0.0287141
0.0246291
0.0210641
0.0176682
0.0142291
0.01077
0.00735144
0.00398643
0.00066346
-0.00262535
0.029243
0.0254678
0.0218604
0.0186905
0.0156443
0.0125571
0.00945646
0.00639182
0.0033718
0.000386362
-0.00257071
0.0261797
0.0227762
0.0195844
0.0167605
0.0140232
0.0112469
0.00846203
0.00570911
0.00299322
0.000305579
-0.00235867
0.0236317
0.0205599
0.0177302
0.0152095
0.0127455
0.0102443
0.00773839
0.00526068
0.00281361
0.000389451
-0.00201554
0.0215269
0.0187513
0.0162375
0.0139828
0.0117612
0.0095041
0.00724502
0.00501093
0.00280211
0.000611764
-0.00156296
0.0198036
0.0172927
0.0150548
0.0130341
0.0110278
0.00898777
0.00694779
0.00492992
0.00293287
0.000950591
-0.00101902
0.0184086
0.0161346
0.0141382
0.0123238
0.0105093
0.00866274
0.00681772
0.00499226
0.00318391
0.00138731
-0.000399083
0.0172966
0.0152349
0.0134504
0.0118181
0.0101748
0.00850111
0.00682999
0.00517618
0.00353642
0.00190592
0.000283606
0.0164284
0.0145571
0.0129589
0.011488
0.00999774
0.00847882
0.00696316
0.00546283
0.00397403
0.00249248
0.00101743
0.0157699
0.01407
0.0126358
0.011308
0.00995497
0.00857491
0.00719853
0.00583574
0.0044824
0.00313467
0.00179208
0.0152918
0.013746
0.0124566
0.0112561
0.0100262
0.00877099
0.00751962
0.00628033
0.00504876
0.00382149
0.00259825
0.014968
0.0135613
0.0124
0.0113129
0.0101937
0.00905081
0.00791187
0.00678363
0.00566172
0.00454305
0.00342751
0.014776
0.0134949
0.0124469
0.011461
0.0104416
0.00939994
0.00836223
0.00733402
0.006311
0.00529038
0.00427216
0.0146957
0.0135281
0.0125807
0.0116852
0.0107556
0.00980546
0.00885903
0.00792105
0.00698731
0.00605531
0.00512513
0.0147093
0.0136444
0.0127864
0.0119718
0.0111234
0.0102558
0.0093918
0.00853528
0.00768225
0.00683044
0.00597998
0.0148009
0.0138292
0.0130507
0.0123085
0.0115334
0.0107406
0.00995107
0.00916818
0.00838817
0.00760898
0.00683077
0.0149566
0.0140693
0.0133617
0.0126845
0.0119757
0.0112505
0.0105284
0.00981209
0.00909819
0.00838481
0.00767214
0.0151638
0.0143532
0.0137088
0.0130899
0.0124411
0.0117772
0.011116
0.0104601
0.00980609
0.0091524
0.00849919
0.0154113
0.0146704
0.0140824
0.013516
0.0129214
0.0123131
0.0117072
0.0111059
0.0105063
0.00990677
0.00930755
0.0156892
0.0150116
0.0144742
0.013955
0.0134096
0.0128517
0.0122959
0.0117442
0.0111938
0.0106435
0.0100933
0.0159888
0.0153688
0.0148766
0.0143999
0.0138992
0.013387
0.0128767
0.01237
0.0118643
0.0113587
0.0108531
0.0163023
0.0157348
0.0152831
0.0148449
0.0143846
0.0139139
0.0134449
0.012979
0.012514
0.012049
0.011584
0.016623
0.0161032
0.015688
0.0152844
0.0148608
0.0144279
0.0139964
0.0135676
0.0131396
0.0127115
0.0122834
0.0169449
0.0164685
0.0160862
0.0157139
0.0153238
0.0149252
0.0145277
0.0141326
0.0137383
0.0133438
0.0129492
0.0172629
0.0168262
0.0164735
0.0161296
0.0157698
0.0154024
0.015036
0.0146716
0.0143078
0.0139439
0.01358
0.0175729
0.0171722
0.0168463
0.0165282
0.0161959
0.0158569
0.0155187
0.0151823
0.0148464
0.0145104
0.0141744
0.017871
0.0175032
0.0172016
0.0169069
0.0165997
0.0162867
0.0159742
0.0156632
0.0153527
0.0150421
0.0181545
0.0178166
0.0175371
0.0172636
0.0169794
0.0166899
0.0164008
0.0161131
0.0158258
0.0155384
0.0184208
0.0181103
0.0178508
0.0175968
0.0173334
0.0170654
0.0167978
0.0165312
0.0162651
0.0159988
0.0186683
0.0183827
0.0181415
0.0179052
0.0176608
0.0174125
0.0171644
0.0169172
0.0166703
0.0164234
0.0188957
0.0186327
0.0184082
0.0181881
0.0179611
0.0177307
0.0175004
0.017271
0.0170418
0.0168125
0.019102
0.0188598
0.0186505
0.0184452
0.0182342
0.0180201
0.0178062
0.0175929
0.0173798
0.0171667
0.0192869
0.0190635
0.0188683
0.0186766
0.0184801
0.018281
0.018082
0.0178834
0.0176851
0.0174868
0.0194504
0.0192442
0.0190618
0.0188826
0.0186994
0.018514
0.0183286
0.0181436
0.0179588
0.017774
0.0195928
0.0194023
0.0192317
0.0190639
0.0188929
0.01872
0.018547
0.0183744
0.018202
0.0180295
0.0197148
0.0195384
0.0193787
0.0192214
0.0190615
0.0189001
0.0187385
0.0185773
0.0184161
0.0182549
0.0198172
0.0196537
0.0195039
0.0193563
0.0192066
0.0190556
0.0189045
0.0187536
0.0186027
0.0184519
0.0199012
0.0197494
0.0196088
0.01947
0.0193296
0.0191881
0.0190465
0.018905
0.0187636
0.0186222
0.0199681
0.0198269
0.0196946
0.019564
0.0194321
0.0192992
0.0191663
0.0190334
0.0189006
0.0187678
0.0200195
0.0198877
0.0197632
0.01964
0.0195158
0.0193908
0.0192657
0.0191407
0.0190156
0.0188906
0.0200569
0.0199338
0.0198162
0.0196997
0.0195825
0.0194646
0.0193467
0.0192287
0.0191107
0.0189927
0.0200823
0.0199667
0.0198555
0.0197451
0.0196342
0.0195227
0.0194112
0.0192996
0.019188
0.0190763
0.0200973
0.0199885
0.0198829
0.0197781
0.0196727
0.019567
0.0194612
0.0193553
0.0192493
0.0191434
0.020104
0.0200011
0.0199005
0.0198006
0.0197002
0.0195995
0.0194988
0.0193979
0.019297
0.019196
0.0201041
0.0200063
0.0199101
0.0198144
0.0197184
0.0196222
0.0195258
0.0194293
0.0193328
0.0192363
0.0200995
0.0200061
0.0199138
0.0198217
0.0197294
0.0196369
0.0195443
0.0194517
0.0193589
0.0192661
0.020092
0.0200021
0.0199129
0.0198239
0.0197347
0.0196454
0.0195559
0.0194664
0.0193768
0.0192871
0.0200836
0.0199965
0.0199098
0.0198232
0.0197365
0.0196496
0.0195627
0.0194757
0.0193886
0.0193014
0.0200751
0.01999
0.0199051
0.0198202
0.0197353
0.0196502
0.0195651
0.0194799
0.0193947
0.0193094
0.0200691
0.0199853
0.0199015
0.0198177
0.0197339
0.01965
0.0195661
0.0194821
0.0193981
0.0193141
0.0200647
0.0199812
0.0198977
0.0198142
0.0197307
0.0196471
0.0195635
0.0194799
0.0193963
0.0193127
0.121114
0.121761
0.123033
0.124851
0.127164
0.129926
0.1331
0.136648
0.140534
0.144717
0.149154
0.153794
0.158577
0.163433
0.168278
0.173012
0.177521
0.181663
0.185287
0.188204
0.190221
0.191092
0.190597
0.188413
0.18434
0.177915
0.169105
0.156976
0.142135
0.121651
0.120254
0.120874
0.122087
0.123821
0.126021
0.128639
0.131634
0.134967
0.138594
0.142472
0.146549
0.15077
0.155067
0.159362
0.163566
0.167573
0.171263
0.174494
0.177113
0.178938
0.179785
0.179427
0.17767
0.174234
0.168963
0.161479
0.151799
0.139318
0.124783
0.107822
0.119319
0.11991
0.121061
0.122704
0.124781
0.127245
0.13005
0.133153
0.136507
0.140063
0.143767
0.147554
0.151354
0.155083
0.158649
0.161941
0.164842
0.167209
0.168898
0.169737
0.169564
0.168175
0.165416
0.161054
0.154994
0.146963
0.137058
0.124966
0.111347
0.0958988
0.118306
0.118865
0.11995
0.121496
0.123444
0.125744
0.128349
0.131212
0.134282
0.137507
0.140825
0.144171
0.147468
0.150631
0.153563
0.156156
0.15829
0.159833
0.160647
0.160577
0.15948
0.157185
0.15357
0.148458
0.141797
0.133417
0.123434
0.111683
0.0985921
0.0839229
0.117214
0.11774
0.118754
0.120198
0.122011
0.124141
0.126539
0.129155
0.131935
0.134821
0.137752
0.140655
0.143453
0.146058
0.148374
0.150294
0.151703
0.152476
0.15249
0.151605
0.149702
0.146641
0.14233
0.136646
0.129566
0.120995
0.111039
0.0996105
0.0870412
0.0732424
0.116043
0.116533
0.117475
0.118813
0.120486
0.122441
0.124626
0.126989
0.129473
0.132019
0.134561
0.137025
0.139333
0.141396
0.14312
0.144403
0.145137
0.145207
0.144503
0.142908
0.140321
0.136638
0.131792
0.125705
0.118376
0.109762
0.0999639
0.0889566
0.0770312
0.064172
0.114791
0.115244
0.116111
0.11734
0.118869
0.120644
0.122612
0.124718
0.126905
0.12911
0.131265
0.133298
0.135128
0.13667
0.137833
0.138519
0.138632
0.138067
0.136732
0.134527
0.131377
0.127203
0.121964
0.115617
0.10818
0.0996484
0.090122
0.0796204
0.0683863
0.0564318
0.113459
0.113873
0.114664
0.11578
0.117162
0.118754
0.120502
0.12235
0.124239
0.126105
0.127881
0.129492
0.130862
0.131907
0.132543
0.132678
0.132226
0.131098
0.129215
0.126499
0.122893
0.118346
0.112837
0.10635
0.0989186
0.0905646
0.0813856
0.0714277
0.0608832
0.0497851
0.112046
0.112421
0.113134
0.114135
0.115367
0.116774
0.118301
0.119891
0.121484
0.123017
0.124422
0.125627
0.126558
0.127135
0.127281
0.126913
0.125956
0.124335
0.121985
0.11885
0.114888
0.110072
0.104397
0.0978699
0.0905321
0.0824259
0.0736416
0.0642412
0.0543747
0.044092
0.110554
0.110888
0.111521
0.112407
0.113488
0.114709
0.116015
0.117349
0.118651
0.119859
0.120905
0.121722
0.122237
0.122379
0.122075
0.121254
0.119851
0.117806
0.115068
0.111598
0.107371
0.102376
0.0966239
0.0901366
0.0829615
0.0751528
0.0667923
0.0579523
0.0487466
0.0392367
0.108983
0.109276
0.10983
0.110599
0.111528
0.112564
0.113651
0.114733
0.115751
0.116643
0.117347
0.117795
0.117922
0.117662
0.116951
0.115728
0.113938
0.111535
0.108482
0.104754
0.100341
0.0952467
0.0894905
0.0831069
0.076146
0.0686689
0.0607485
0.0524623
0.0438932
0.0351092
0.107335
0.107587
0.10806
0.108713
0.109492
0.110344
0.111216
0.112052
0.112795
0.113385
0.113762
0.113865
0.113634
0.113008
0.111932
0.110356
0.108237
0.105539
0.102238
0.0983226
0.0937932
0.0886648
0.0829647
0.0767348
0.0700257
0.0629016
0.0554268
0.04768
0.0397177
0.0316109
0.105613
0.105823
0.106217
0.106754
0.107384
0.108056
0.108718
0.109315
0.109794
0.110097
0.110168
0.10995
0.10939
0.108435
0.107038
0.105159
0.102764
0.0998293
0.0963419
0.0923005
0.0877146
0.0826075
0.0770117
0.0709734
0.0645421
0.0577827
0.0507502
0.0435228
0.0361344
0.0286572
0.103818
0.103987
0.104302
0.104725
0.10521
0.105706
0.106164
0.106533
0.106759
0.106792
0.106578
0.106066
0.105209
0.103962
0.102286
0.10015
0.0975309
0.0944138
0.0907947
0.0866811
0.0820895
0.0770491
0.0715953
0.0657764
0.0596395
0.0532482
0.0466491
0.0399175
0.033069
0.026175
0.101953
0.102083
0.10232
0.102632
0.102975
0.103301
0.103564
0.103714
0.103704
0.103484
0.103007
0.102228
0.101106
0.0996032
0.0976898
0.0953425
0.0925461
0.0892951
0.0855929
0.0814535
0.0768988
0.0719616
0.0666786
0.0610984
0.0552652
0.0492395
0.0430602
0.036799
0.0304561
0.0241014
0.100023
0.100114
0.100276
0.10048
0.100686
0.100849
0.100925
0.10087
0.100637
0.100184
0.0994684
0.0984501
0.0970945
0.0953724
0.0932605
0.0907435
0.0878137
0.0844726
0.0807297
0.0766041
0.0721212
0.067316
0.0622251
0.0568962
0.0513697
0.0457027
0.0399268
0.0341096
0.0282387
0.0223819
0.0980316
0.0980839
0.0981735
0.098274
0.0983483
0.0983563
0.0982569
0.098009
0.0975718
0.096906
0.0959746
0.0947445
0.0931871
0.0912799
0.0890066
0.0863587
0.0833348
0.0799423
0.0761954
0.0721168
0.067734
0.0630829
0.0581992
0.0531284
0.0479073
0.0425888
0.0371981
0.0317982
0.026367
0.0209694
0.0959828
0.0959987
0.0960186
0.09602
0.0959698
0.0958316
0.095568
0.095142
0.0945173
0.0936594
0.0925368
0.0911224
0.0893935
0.0873341
0.084934
0.0821906
0.0791079
0.0756979
0.0719782
0.067974
0.0637138
0.0592332
0.0545664
0.0497562
0.0448356
0.0398531
0.0348284
0.0298197
0.0247972
0.019823
0.0938819
0.093863
0.0938168
0.0937245
0.0935572
0.0932824
0.092867
0.092278
0.0914837
0.0904548
0.0891651
0.0875931
0.0857219
0.0835411
0.0810461
0.0782393
0.0751291
0.0717308
0.0680646
0.0641571
0.0600368
0.0557383
0.0512939
0.0467433
0.0421156
0.0374552
0.0327768
0.0281339
0.0234911
0.0189071
0.0917342
0.0916825
0.0915741
0.091394
0.0911176
0.0907168
0.0901624
0.0894259
0.0884805
0.0873016
0.0858684
0.0841645
0.0821786
0.0799052
0.0773445
0.074503
0.0713925
0.068031
0.0644401
0.0606469
0.0566794
0.0525707
0.0483506
0.0440558
0.0397118
0.0353586
0.0310068
0.0267055
0.0224148
0.0181906
0.0895455
0.0894631
0.0892967
0.0890353
0.0886585
0.0881425
0.0874624
0.0865945
0.0855162
0.0842081
0.0826542
0.0808431
0.0787683
0.0764288
0.0738287
0.070978
0.0678909
0.0645872
0.0610893
0.057424
0.0536184
0.0497038
0.0457074
0.0416626
0.0375915
0.0335301
0.0294856
0.0255027
0.0215387
0.0176462
0.0873217
0.087211
0.0869912
0.0866553
0.0861871
0.0855672
0.0847752
0.0837917
0.0825987
0.0811816
0.079529
0.077634
0.0754943
0.0731128
0.0704968
0.067659
0.0646156
0.0613871
0.0579962
0.0544691
0.0508316
0.0471125
0.0433368
0.0395346
0.0357249
0.03194
0.0281839
0.0244976
0.0208363
0.0172497
0.0850693
0.0849326
0.0846644
0.084261
0.0837107
0.0829985
0.0821083
0.081025
0.0797353
0.0782286
0.0764981
0.0745408
0.0723583
0.0699565
0.0673455
0.0645399
0.061557
0.0584179
0.055145
0.0517634
0.0482971
0.044773
0.0412134
0.0376453
0.0340849
0.0305611
0.0270754
0.023665
0.0202843
0.0169798
0.0827947
0.0826348
0.082323
0.0818594
0.0812366
0.0804437
0.079469
0.0783015
0.0769321
0.0753545
0.0735656
0.0715662
0.0693608
0.0669581
0.0643703
0.0616133
0.058705
0.0556666
0.0525198
0.0492883
0.0459946
0.042663
0.0393135
0.0359702
0.0326469
0.0293691
0.0261365
0.0229825
0.0198618
0.0168177
0.0805047
0.0803241
0.0799739
0.0794576
0.0787718
0.0779097
0.0768639
0.0756273
0.0741948
0.0725639
0.0707348
0.0687115
0.0665012
0.0641148
0.0615659
0.0588711
0.056049
0.05312
0.050105
0.0470262
0.0439043
0.0407614
0.0376151
0.0344869
0.0313884
0.028342
0.0253458
0.0224302
0.0195502
0.0167464
0.0782061
0.0780075
0.077624
0.0770624
0.0763231
0.0754032
0.0742993
0.0730082
0.0715282
0.0698602
0.0680077
0.0659771
0.063778
0.0614227
0.058926
0.056305
0.053578
0.0507649
0.0478854
0.0449601
0.0420079
0.0390486
0.036098
0.0331749
0.0302888
0.0274597
0.0246843
0.0219901
0.0193331
0.0167511
0.0759057
0.0756919
0.0752802
0.0746806
0.073897
0.0729305
0.0717811
0.0704491
0.0689363
0.0672465
0.0653857
0.0633627
0.0611888
0.0588775
0.0564442
0.0539061
0.0512812
0.0485884
0.0458463
0.0430738
0.040288
0.0375067
0.0347436
0.0320153
0.0293298
0.0267043
0.0241349
0.0216461
0.0191955
0.0168182
0.0736104
0.0733839
0.0729492
0.0723188
0.0715
0.0704974
0.0693143
0.0679545
0.0664224
0.0647245
0.0628692
0.060867
0.0587304
0.056474
0.0541133
0.0516654
0.0491477
0.046578
0.0439737
0.041352
0.0387283
0.0361186
0.0335347
0.0309911
0.0284943
0.0260595
0.023682
0.0213839
0.0191243
0.0169359
0.071327
0.0710905
0.0706375
0.0699832
0.0691379
0.0681092
0.0669038
0.0655281
0.0639892
0.0622958
0.0604581
0.0584881
0.0563994
0.0542068
0.0519261
0.0495739
0.0471667
0.0447215
0.0422541
0.0397803
0.0373138
0.0348688
0.0324555
0.0300866
0.0277673
0.0255108
0.0233119
0.0211904
0.0191076
0.0170935
0.0690621
0.068818
0.0683515
0.06768
0.0668163
0.0657711
0.0645537
0.0631731
0.0616386
0.0599609
0.0581516
0.0562238
0.0541916
0.0520702
0.0498752
0.0476225
0.045328
0.0430073
0.040675
0.0383453
0.0360305
0.033743
0.0314917
0.0292876
0.0271348
0.0250448
0.0230121
0.0210543
0.019135
0.0172816
0.0668221
0.0665728
0.0660973
0.0654147
0.0645404
0.0634874
0.0622676
0.0608921
0.0593723
0.05772
0.0559483
0.054071
0.0521026
0.0500583
0.0479532
0.0458027
0.0436216
0.0414244
0.0392243
0.0370344
0.0348653
0.032728
0.0306302
0.0285813
0.0265845
0.0246497
0.0227715
0.0209653
0.0191971
0.017492
0.0646133
0.064361
0.0638806
0.0631928
0.0623149
0.0612623
0.0600488
0.0586874
0.057191
0.0555728
0.0538466
0.0520268
0.0501279
0.048165
0.0461527
0.0441057
0.0420377
0.0399621
0.037891
0.0358358
0.0338063
0.0318118
0.0298589
0.0279559
0.026105
0.024315
0.0225801
0.0209143
0.0192856
0.0177172
0.0624415
0.0621883
0.0617069
0.0610192
0.0601443
0.0590993
0.0578999
0.0565605
0.0550953
0.0535185
0.0518443
0.0500876
0.0482627
0.0463844
0.0444667
0.0425234
0.0405674
0.0386108
0.0366646
0.034739
0.0328425
0.0309834
0.0291673
0.027401
0.0256865
0.0240311
0.0224292
0.0208932
0.0193934
0.0179509
0.0603124
0.0600601
0.0595813
0.0588986
0.0580324
0.0570016
0.0558231
0.0545126
0.0530852
0.0515559
0.0499392
0.0482498
0.0465023
0.0447105
0.0428882
0.041048
0.0392019
0.0373611
0.0355354
0.0337338
0.0319639
0.0302328
0.0285453
0.0269073
0.0253199
0.0237896
0.0223111
0.0208949
0.0195141
0.0181875
0.0582312
0.0579815
0.0575084
0.056835
0.0559829
0.0549719
0.0538202
0.0525445
0.0511605
0.0496836
0.0481285
0.0465099
0.0448417
0.0431376
0.0414104
0.0396719
0.0379332
0.0362045
0.0344945
0.0328113
0.0311614
0.0295511
0.0279843
0.0264661
0.0249973
0.0235832
0.0222187
0.0209134
0.0196421
0.0184222
0.0562027
0.0559572
0.0554925
0.0548323
0.0539987
0.0530125
0.0518926
0.0506566
0.0493206
0.0479
0.0464097
0.0448639
0.0432764
0.0416601
0.040027
0.0383882
0.0367538
0.035133
0.0335337
0.031963
0.0304267
0.0289301
0.0274765
0.0260701
0.0247115
0.0234052
0.0221463
0.0209432
0.0197729
0.0186511
0.0542313
0.0539914
0.0535376
0.0528937
0.0520825
0.0511253
0.0500415
0.0488491
0.0475645
0.0462032
0.0447798
0.0433083
0.0418018
0.0402726
0.0387319
0.0371902
0.0356565
0.0341393
0.0326456
0.0311816
0.0297524
0.0283625
0.0270147
0.0257127
0.0244565
0.02325
0.0220887
0.0209797
0.0199024
0.0188708
0.0523212
0.0520878
0.051647
0.0510223
0.0502367
0.0493118
0.0482675
0.0471218
0.0458913
0.0445913
0.0432361
0.0418392
0.0404133
0.0389699
0.0375196
0.0360718
0.0346351
0.0332168
0.0318233
0.0304602
0.0291317
0.0278419
0.0265929
0.0253879
0.0242267
0.0231127
0.0220414
0.0210192
0.0200274
0.0190785
0.0504759
0.0502501
0.0498238
0.0492206
0.0484632
0.0475733
0.046571
0.0454743
0.0442997
0.0430621
0.0417756
0.0404532
0.0391068
0.0377473
0.0363846
0.0350274
0.0336834
0.0323593
0.0310608
0.0297928
0.0285589
0.0273626
0.0262057
0.0250908
0.0240177
0.0229889
0.0220007
0.0210584
0.0201452
0.0192721
0.0486986
0.048481
0.0480707
0.0474906
0.0467634
0.0459107
0.0449522
0.0439061
0.0427883
0.0416137
0.0403957
0.0391468
0.0378782
0.0366003
0.0353221
0.0340518
0.0327962
0.0315615
0.0303526
0.0291739
0.0280286
0.0269195
0.0258483
0.024817
0.0238253
0.0228754
0.0219636
0.0210947
0.0202536
0.0194501
0.046992
0.0467832
0.0463899
0.0458344
0.0451388
0.0443245
0.0434111
0.0424163
0.0413558
0.0402439
0.0390935
0.0379166
0.0367238
0.0355247
0.0343277