/*--------------------------------*- C++ -*----------------------------------*\
  =========                 |
  \\      /  F ield         | OpenFOAM: The Open Source CFD Toolbox
   \\    /   O peration     | Website:  https://openfoam.org
    \\  /    A nd           | Version:  7
     \\/     M anipulation  |
\*---------------------------------------------------------------------------*/
FoamFile
{
    version     2.0;
    format      ascii;
    class       surfaceScalarField;
    location    "90";
    object      phi;
}
// * * * * * * * * * * * * * * * * * * * * * * * * * * * * * * * * * * * * * //

dimensions      [0 3 -1 0 0 0 0];

internalField   nonuniform List<scalar> 
16730
(
-0.00370814
-0.000566914
-0.000546035
-0.00355668
-0.00365793
-0.000596249
-0.000522794
-0.00341418
-0.000573355
-0.00350612
-0.0036062
-0.000625081
-0.000498234
-0.00328102
-0.000548232
-0.00336419
-0.00060019
-0.00345416
-0.00355299
-0.000653402
-0.000522011
-0.00323154
-0.000573244
-0.00331295
-0.000626561
-0.00340084
-0.00349833
-0.000681225
-0.000494708
-0.00310622
-0.000545413
-0.00318084
-0.000597861
-0.00326051
-0.00065251
-0.00334619
-0.0034422
-0.000708634
-0.000466009
-0.00298692
-0.000516511
-0.00305572
-0.000568455
-0.0031289
-0.000622118
-0.00320684
-0.000678101
-0.00329021
-0.00338456
-0.000735749
-0.00048617
-0.00293651
-0.000537944
-0.00300394
-0.000591158
-0.00307568
-0.000646077
-0.00315192
-0.000703366
-0.00323292
-0.00332532
-0.000762601
-0.000454284
-0.00282278
-0.000505937
-0.00288486
-0.000558992
-0.00295089
-0.000613538
-0.00302114
-0.000669838
-0.00309562
-0.000728339
-0.00317442
-0.00326421
-0.000789454
-0.000472409
-0.00277127
-0.000525288
-0.00283198
-0.00057962
-0.00289656
-0.000635552
-0.0029652
-0.000693431
-0.00303774
-0.00075387
-0.00311398
-0.00320304
-0.000815041
-0.000437442
-0.00266288
-0.000490121
-0.00271859
-0.000544193
-0.0027779
-0.000599768
-0.00284098
-0.000657055
-0.00290792
-0.00071624
-0.00297856
-0.000776613
-0.00305361
-0.00313499
-0.000844658
-0.000401114
-0.00255924
-0.000453602
-0.00261039
-0.000507421
-0.00266478
-0.000562651
-0.00272267
-0.000619409
-0.00278422
-0.00067787
-0.00284946
-0.000738113
-0.00291831
-0.000800286
-0.00299143
-0.00306838
-0.0008669
-0.00041578
-0.00250693
-0.000469371
-0.0025568
-0.000524301
-0.00260984
-0.000580654
-0.00266632
-0.000638543
-0.00272633
-0.000698108
-0.00278989
-0.000759437
-0.00285699
-0.000822847
-0.00292802
-0.00300196
-0.000889264
-0.000376701
-0.0024075
-0.000430079
-0.00245355
-0.000484746
-0.00250213
-0.000540759
-0.00255383
-0.000598201
-0.00260888
-0.00065718
-0.00266736
-0.000717811
-0.00272926
-0.000780196
-0.0027946
-0.000844603
-0.00286362
-0.00293521
-0.000911355
-0.000389582
-0.00235435
-0.000444008
-0.00239913
-0.000499725
-0.00244641
-0.000556792
-0.00249677
-0.000615292
-0.00255038
-0.000675325
-0.00260732
-0.000736993
-0.00266759
-0.000800396
-0.0027312
-0.000865725
-0.00279829
-0.00286785
-0.00093308
-0.000347944
-0.00225789
-0.00040212
-0.00230018
-0.000457567
-0.00234368
-0.000514307
-0.00238968
-0.000572399
-0.00243867
-0.000631928
-0.00249085
-0.000692984
-0.00254627
-0.000755662
-0.00260491
-0.000820052
-0.00266681
-0.000886287
-0.00273205
-0.00279975
-0.00095439
-0.000359136
-0.00220403
-0.000414312
-0.002245
-0.000470755
-0.00228724
-0.00052849
-0.00233194
-0.000587581
-0.00237958
-0.000648109
-0.00243032
-0.000710162
-0.00248421
-0.000773824
-0.00254125
-0.000839179
-0.00260146
-0.000906322
-0.00266491
-0.00273081
-0.000975258
-0.000370009
-0.00214919
-0.000426159
-0.00218885
-0.000483571
-0.00222982
-0.000542276
-0.00227324
-0.000602338
-0.00231952
-0.000663839
-0.00236882
-0.000726861
-0.00242119
-0.000791485
-0.00247663
-0.000857786
-0.00253515
-0.000925842
-0.00259685
-0.002661
-0.000995657
-0.000324759
-0.00205393
-0.000380561
-0.00209339
-0.000437658
-0.00213176
-0.000496014
-0.00217147
-0.000555662
-0.00221359
-0.00061667
-0.00225851
-0.000679117
-0.00230638
-0.000743084
-0.00235722
-0.000808649
-0.00241106
-0.000875881
-0.00246792
-0.00094485
-0.00252788
-0.00259028
-0.00101557
-0.000334058
-0.00199864
-0.000390793
-0.00203666
-0.000448811
-0.00207374
-0.000508083
-0.0021122
-0.000568649
-0.00215302
-0.000630577
-0.00219658
-0.000693945
-0.00224301
-0.000758833
-0.00229234
-0.000825317
-0.00234458
-0.000893465
-0.00239977
-0.000963344
-0.00245801
-0.00251864
-0.00103498
-0.000286841
-0.0019005
-0.000343065
-0.00194241
-0.000400705
-0.00197902
-0.000459616
-0.00201483
-0.000519779
-0.00205203
-0.000581236
-0.00209156
-0.000644058
-0.00213376
-0.000708322
-0.00217874
-0.000774109
-0.00222655
-0.000841492
-0.00227719
-0.00091054
-0.00233073
-0.00098132
-0.00238723
-0.0024461
-0.00105387
-0.000294654
-0.00184512
-0.000351778
-0.00188529
-0.000410295
-0.0019205
-0.000470073
-0.00195505
-0.000531101
-0.00199101
-0.000593424
-0.00202924
-0.000657114
-0.00207007
-0.00072225
-0.00211361
-0.000788911
-0.00215989
-0.000857173
-0.00220893
-0.000927103
-0.0022608
-0.000998773
-0.00231555
-0.00237265
-0.00107223
-0.000302203
-0.00178882
-0.000360198
-0.0018273
-0.000419564
-0.00186113
-0.000480182
-0.00189443
-0.000542048
-0.00192914
-0.00060521
-0.00196608
-0.000669743
-0.00200554
-0.000735726
-0.00204762
-0.000803239
-0.00209238
-0.000872357
-0.00213981
-0.000943151
-0.00219
-0.0010157
-0.00224301
-0.0022983
-0.00109004
-0.000252311
-0.00168331
-0.000309489
-0.00173164
-0.000368324
-0.00176846
-0.000428512
-0.00180095
-0.000489943
-0.001833
-0.000552619
-0.00186646
-0.000616595
-0.0019021
-0.000681945
-0.00194019
-0.00074875
-0.00198082
-0.00081709
-0.00202404
-0.000887043
-0.00206986
-0.000958682
-0.00211836
-0.00103208
-0.00216961
-0.00222308
-0.0011073
-0.000258486
-0.00162751
-0.00031651
-0.00167362
-0.000376157
-0.00170881
-0.000437137
-0.00173997
-0.000499354
-0.00177078
-0.000562815
-0.001803
-0.000627578
-0.00183734
-0.00069372
-0.00187405
-0.000761321
-0.00191322
-0.000830464
-0.00195489
-0.000901229
-0.0019991
-0.000973689
-0.0020459
-0.00104793
-0.00209537
-0.002147
-0.00112401
-0.000264429
-0.00157084
-0.000323267
-0.00161478
-0.000383696
-0.00164838
-0.00044544
-0.00167822
-0.000508415
-0.00170781
-0.000572634
-0.00173878
-0.000638158
-0.00177182
-0.000705065
-0.00180714
-0.000773437
-0.00184485
-0.000843359
-0.00188497
-0.00091491
-0.00192755
-0.000988171
-0.00197264
-0.00106323
-0.00202031
-0.00207009
-0.00114014
-0.000212636
-0.00145147
-0.00027014
-0.00151333
-0.00032976
-0.00155516
-0.00039094
-0.0015872
-0.00045342
-0.00161574
-0.000517126
-0.0016441
-0.000582076
-0.00167383
-0.000648333
-0.00170556
-0.000715979
-0.00173949
-0.000785096
-0.00177573
-0.00085577
-0.0018143
-0.000928085
-0.00185523
-0.00100212
-0.00189861
-0.00107797
-0.00194447
-0.00199237
-0.00115569
-0.000217318
-0.00139621
-0.000275618
-0.00145503
-0.000335988
-0.00149479
-0.00039789
-0.0015253
-0.000461077
-0.00155255
-0.000525485
-0.00157969
-0.000591139
-0.00160818
-0.000658103
-0.00163859
-0.00072646
-0.00167114
-0.000796296
-0.00170589
-0.000867697
-0.0017429
-0.000940748
-0.00178218
-0.00101553
-0.00182382
-0.00109215
-0.00186786
-0.00191386
-0.00117066
-0.000221803
-0.00134013
-0.000280864
-0.00139597
-0.000341952
-0.0014337
-0.000404544
-0.00146271
-0.000468411
-0.00148869
-0.000533494
-0.00151461
-0.000599822
-0.00154185
-0.000667466
-0.00157095
-0.000736508
-0.0016021
-0.000807035
-0.00163536
-0.000879136
-0.0016708
-0.000952898
-0.00170842
-0.00102841
-0.00174831
-0.00110576
-0.0017905
-0.00183459
-0.00118503
-0.000226089
-0.00128326
-0.000285876
-0.00133618
-0.00034765
-0.00137193
-0.000410904
-0.00139946
-0.00047542
-0.00142417
-0.000541149
-0.00144888
-0.000608126
-0.00147488
-0.000676421
-0.00150265
-0.00074612
-0.0015324
-0.000817311
-0.00156417
-0.000890085
-0.00159802
-0.00096453
-0.00163397
-0.00104074
-0.0016721
-0.0011188
-0.00171244
-0.00175459
-0.0011988
-0.000172567
-0.00114691
-0.000230176
-0.00122565
-0.000290655
-0.0012757
-0.000353083
-0.0013095
-0.000416968
-0.00133557
-0.000482105
-0.00135903
-0.000548452
-0.00138254
-0.000616048
-0.00140728
-0.000684967
-0.00143374
-0.000755294
-0.00146207
-0.000827121
-0.00149235
-0.000900539
-0.0015246
-0.00097564
-0.00155887
-0.00105251
-0.00159523
-0.00113126
-0.00163369
-0.00167389
-0.00121196
-0.000175749
-0.0010929
-0.000234064
-0.00116734
-0.000295201
-0.00121457
-0.00035825
-0.00124645
-0.000422736
-0.00127109
-0.000488464
-0.0012933
-0.000555401
-0.0013156
-0.000623588
-0.00133909
-0.000693101
-0.00136422
-0.000764029
-0.00139114
-0.000836464
-0.00141991
-0.000910498
-0.00145057
-0.000986225
-0.00148315
-0.00106374
-0.00151771
-0.00114314
-0.00155429
-0.00159252
-0.00122451
-0.000178769
-0.00103817
-0.000237753
-0.00110835
-0.000299513
-0.00115281
-0.000363151
-0.00118281
-0.000428208
-0.00120603
-0.000494498
-0.00122701
-0.000561995
-0.0012481
-0.000630744
-0.00127034
-0.000700823
-0.00129414
-0.000772323
-0.00131964
-0.000845336
-0.0013469
-0.000919958
-0.00137595
-0.000996282
-0.00140682
-0.00107441
-0.00143959
-0.00115443
-0.00147426
-0.00151051
-0.00123644
-0.000181627
-0.000982761
-0.000241243
-0.00104874
-0.00030359
-0.00109046
-0.000367786
-0.00111861
-0.000433383
-0.00114043
-0.000500206
-0.00116019
-0.000568233
-0.00118008
-0.000637515
-0.00120106
-0.000708132
-0.00122353
-0.000780174
-0.0012476
-0.000853736
-0.00127334
-0.000928915
-0.00130077
-0.00100581
-0.00132993
-0.00108451
-0.00136088
-0.00116513
-0.00139364
-0.00142789
-0.00124775
-0.000184321
-0.000926716
-0.000244532
-0.000988525
-0.000307433
-0.00102756
-0.000372155
-0.00105389
-0.000438261
-0.00107433
-0.000505586
-0.00109286
-0.000574115
-0.00111155
-0.000643901
-0.00113128
-0.000715025
-0.0011524
-0.00078758
-0.00117504
-0.000861662
-0.00119925
-0.000937368
-0.00122506
-0.0010148
-0.0012525
-0.00109405
-0.00128163
-0.00117523
-0.00131246
-0.0013447
-0.00125843
-0.000130209
-0.000778853
-0.000186853
-0.000870072
-0.000247621
-0.000927758
-0.000311042
-0.000964139
-0.000376257
-0.000988677
-0.000442842
-0.00100774
-0.00051064
-0.00102507
-0.00057964
-0.00104255
-0.0006499
-0.00106102
-0.000721502
-0.0010808
-0.00079454
-0.00110201
-0.000869111
-0.00112468
-0.000945314
-0.00114886
-0.00102325
-0.00117457
-0.00110302
-0.00120186
-0.00118473
-0.00123075
-0.00126096
-0.00126847
-0.000132017
-0.000727967
-0.00018922
-0.000812869
-0.000250509
-0.000866469
-0.000314415
-0.000900232
-0.000380092
-0.000923001
-0.000447124
-0.000940709
-0.000515365
-0.000956825
-0.000584807
-0.000973103
-0.000655511
-0.000990314
-0.000727561
-0.00100875
-0.000801051
-0.00102851
-0.000876081
-0.00104965
-0.000952751
-0.00107219
-0.00103116
-0.00109616
-0.00111142
-0.00112161
-0.00119362
-0.00114854
-0.00117671
-0.00127787
-0.000133701
-0.00067654
-0.000191424
-0.000755146
-0.000253196
-0.000804697
-0.000317554
-0.000835874
-0.00038366
-0.000856895
-0.000451109
-0.00087326
-0.000519762
-0.000888172
-0.000589616
-0.000903249
-0.000660733
-0.000919196
-0.0007332
-0.000936282
-0.000807113
-0.000954602
-0.000882571
-0.000974195
-0.000959675
-0.000995087
-0.00103853
-0.0010173
-0.00111924
-0.0010409
-0.00120191
-0.00106587
-0.00109199
-0.00128663
-0.00013526
-0.00062461
-0.000193463
-0.000696943
-0.000255682
-0.000742478
-0.000320457
-0.000771099
-0.00038696
-0.000790392
-0.000454795
-0.000805425
-0.000523829
-0.000819138
-0.000594065
-0.000833014
-0.000665566
-0.000847696
-0.00073842
-0.000863428
-0.000812724
-0.000880298
-0.000888579
-0.00089834
-0.000966086
-0.000917579
-0.00104535
-0.00093804
-0.00112648
-0.00095977
-0.00120958
-0.000982766
-0.00100682
-0.00129475
-0.000136694
-0.000572221
-0.000195337
-0.0006383
-0.000257966
-0.000679848
-0.000323125
-0.00070594
-0.000389992
-0.000723525
-0.000458182
-0.000737235
-0.000527568
-0.000749753
-0.000598154
-0.000762427
-0.000670007
-0.000775842
-0.000743218
-0.000790218
-0.000817882
-0.000805633
-0.000894102
-0.00082212
-0.000971981
-0.000839701
-0.00105162
-0.000858397
-0.00113314
-0.000878254
-0.00121664
-0.000899267
-0.000921246
-0.00130221
-0.000138002
-0.000519412
-0.000197046
-0.000579255
-0.000260049
-0.000616845
-0.000325557
-0.000640432
-0.000392757
-0.000656325
-0.00046127
-0.000668721
-0.000530976
-0.000680048
-0.000601882
-0.000691521
-0.000674058
-0.000703667
-0.000747593
-0.000716683
-0.000822586
-0.00073064
-0.00089914
-0.000745567
-0.000977357
-0.000761483
-0.00105735
-0.000778409
-0.00113921
-0.000796386
-0.00122308
-0.000815406
-0.000835301
-0.00130902
-0.000139184
-0.000466224
-0.000198591
-0.000519849
-0.000261931
-0.000553506
-0.000327753
-0.00057461
-0.000395253
-0.000588825
-0.000464059
-0.000599915
-0.000534053
-0.000610053
-0.000605249
-0.000620325
-0.000677716
-0.0006312
-0.000751544
-0.000642854
-0.000826835
-0.000655349
-0.00090369
-0.000668712
-0.000982214
-0.000682959
-0.00106251
-0.000698108
-0.0011447
-0.000714197
-0.00122889
-0.000731218
-0.00074902
-0.00131517
-0.00014024
-0.000412698
-0.000199969
-0.000460119
-0.00026361
-0.000489865
-0.000329713
-0.000508506
-0.000397481
-0.000521058
-0.000466547
-0.000530849
-0.0005368
-0.0005398
-0.000608254
-0.000548871
-0.00068098
-0.000558473
-0.000755072
-0.000568763
-0.000830628
-0.000579793
-0.000907752
-0.000591588
-0.00098655
-0.00060416
-0.00106713
-0.000617529
-0.0011496
-0.000631723
-0.00123408
-0.000646738
-0.000662439
-0.00132067
-0.00014117
-0.000358875
-0.000201183
-0.000400106
-0.000265087
-0.000425961
-0.000331437
-0.000442156
-0.00039944
-0.000453055
-0.000468735
-0.000461553
-0.000539215
-0.000469321
-0.000610896
-0.00047719
-0.000683852
-0.000485518
-0.000758174
-0.000494441
-0.000833963
-0.000504004
-0.000911324
-0.000514226
-0.000990363
-0.000525121
-0.00107119
-0.000536703
-0.00115391
-0.000548998
-0.00123865
-0.000562
-0.000575594
-0.0013255
-8.78929e-05
-0.000251188
-0.000141972
-0.000304796
-0.00020223
-0.000339848
-0.000266362
-0.000361829
-0.000332924
-0.000375594
-0.00040113
-0.00038485
-0.000470623
-0.00039206
-0.000541299
-0.000398645
-0.000613176
-0.000405312
-0.000686328
-0.000412366
-0.000760849
-0.00041992
-0.00083684
-0.000428013
-0.000914406
-0.000436661
-0.000993652
-0.000445875
-0.00107469
-0.000455666
-0.00115763
-0.000466057
-0.00124259
-0.00047704
-0.000488521
-0.00132966
-8.8353e-05
-0.000206363
-0.000142648
-0.000250501
-0.000203111
-0.000279385
-0.000267434
-0.000297506
-0.000334175
-0.000308852
-0.000402551
-0.000316474
-0.000472211
-0.000322401
-0.000543051
-0.000327805
-0.000615092
-0.00033327
-0.00068841
-0.000339048
-0.000763098
-0.000345232
-0.000839259
-0.000351853
-0.000916996
-0.000358924
-0.000996417
-0.000366454
-0.00107763
-0.000374451
-0.00116076
-0.000382933
-0.0012459
-0.000391895
-0.000401257
-0.00133316
-8.87267e-05
-0.000161368
-0.000143196
-0.000196031
-0.000203826
-0.000218755
-0.000268304
-0.000233029
-0.00033519
-0.000241966
-0.000403704
-0.00024796
-0.000473497
-0.000252607
-0.00054447
-0.000256832
-0.000616645
-0.000261095
-0.000690097
-0.000265597
-0.00076492
-0.000270408
-0.000841217
-0.000275556
-0.000919093
-0.000281048
-0.000998655
-0.000286892
-0.00108001
-0.000293092
-0.00116328
-0.000299663
-0.00124858
-0.000306598
-0.000313839
-0.001336
-8.90137e-05
-0.000116243
-0.000143617
-0.000141428
-0.000204375
-0.000157998
-0.000268971
-0.000168433
-0.000335967
-0.000174969
-0.000404587
-0.000179341
-0.000474483
-0.000182711
-0.000545558
-0.000185757
-0.000617834
-0.000188819
-0.000691388
-0.000192042
-0.000766315
-0.000195482
-0.000842716
-0.000199154
-0.000920698
-0.000203067
-0.00100037
-0.000207222
-0.00108184
-0.000211624
-0.00116522
-0.000216281
-0.00125063
-0.000221188
-0.000226303
-0.00133816
-8.92142e-05
-7.10275e-05
-0.000143911
-8.6731e-05
-0.000204757
-9.71516e-05
-0.000269435
-0.000103755
-0.000336508
-0.000107896
-0.0004052
-0.000110649
-0.000475168
-0.000112744
-0.000546312
-0.000114612
-0.000618659
-0.000116472
-0.000692284
-0.000118418
-0.000767281
-0.000120484
-0.000843754
-0.000122681
-0.000921809
-0.000125012
-0.00100155
-0.000127478
-0.0010831
-0.000130081
-0.00116655
-0.000132822
-0.00125204
-0.000135699
-0.000138686
-0.00133966
-8.9328e-05
-2.57603e-05
-0.000144077
-3.19819e-05
-0.000204973
-3.6256e-05
-0.000269697
-3.90305e-05
-0.000336813
-4.07805e-05
-0.000405545
-4.19164e-05
-0.000475551
-4.27373e-05
-0.000546735
-4.34285e-05
-0.00061912
-4.40868e-05
-0.000692783
-4.47549e-05
-0.00076782
-4.54476e-05
-0.000844332
-4.61688e-05
-0.000922426
-4.69183e-05
-0.00100221
-4.76947e-05
-0.00108379
-4.84964e-05
-0.00116729
-4.93215e-05
-0.00125283
-5.01672e-05
-5.10269e-05
-0.00134049
-8.93552e-05
1.95188e-05
-0.000144116
2.27789e-05
-0.000205022
2.46503e-05
-0.000269756
2.5703e-05
-0.00033688
2.63437e-05
-0.00040562
2.68237e-05
-0.000475634
2.72763e-05
-0.000546824
2.77622e-05
-0.000619217
2.83054e-05
-0.000692887
2.89151e-05
-0.00076793
2.95956e-05
-0.000844449
3.03502e-05
-0.000922549
3.11823e-05
-0.00100234
3.20955e-05
-0.00108393
3.30943e-05
-0.00116744
3.41854e-05
-0.00125297
3.53703e-05
3.66361e-05
-0.00134064
-8.92959e-05
6.47703e-05
-0.000144028
7.75107e-05
-0.000204906
8.55284e-05
-0.000269613
9.04097e-05
-0.000336711
9.34424e-05
-0.000405427
9.55391e-05
-0.000475416
9.72655e-05
-0.000546582
9.89283e-05
-0.000618949
0.000100673
-0.000692594
0.00010256
-0.000767612
0.000104613
-0.000844105
0.000106843
-0.000922179
0.000109256
-0.00100194
0.000111859
-0.0010835
0.000114657
-0.00116698
0.000117664
-0.00125249
0.000120878
0.000124268
-0.00134012
-8.915e-05
0.000109955
-0.000143812
0.000132173
-0.000204623
0.000146339
-0.000269267
0.000155053
-0.000336306
0.000160481
-0.000404964
0.000164197
-0.000474897
0.000167198
-0.000546007
0.000170039
-0.000618318
0.000172984
-0.000691906
0.000176148
-0.000766866
0.000179573
-0.0008433
0.000183278
-0.000921315
0.000187271
-0.00100102
0.000191561
-0.00108252
0.000196158
-0.00116593
0.000201078
-0.00125138
0.000206322
0.000211838
-0.00133895
-8.89177e-05
0.000155033
-0.000143469
0.000186725
-0.000204174
0.000207044
-0.000268718
0.000219597
-0.000335664
0.000227427
-0.000404232
0.000232765
-0.000474077
0.000237043
-0.000545099
0.000241061
-0.000617323
0.000245207
-0.000690822
0.000249647
-0.000765692
0.000254444
-0.000842036
0.000259621
-0.000919957
0.000265192
-0.000999565
0.000271168
-0.00108097
0.000277562
-0.00116428
0.000284394
-0.00124963
0.000291664
0.000299304
-0.00133709
-8.8599e-05
0.000199965
-0.000143
0.000241125
-0.000203559
0.000267604
-0.000267968
0.000284006
-0.000334785
0.000294245
-0.000403231
0.000301211
-0.000472956
0.000306769
-0.00054386
0.000311965
-0.000615964
0.000317311
-0.000689343
0.000323026
-0.000764091
0.000329192
-0.000840311
0.00033584
-0.000918107
0.000342988
-0.000997586
0.000350648
-0.00107886
0.000358835
-0.00116204
0.000367576
-0.00124725
0.000376868
0.000386628
-0.00133457
-8.81942e-05
-0.000142403
0.000295334
-0.000202779
0.000327979
-0.000267015
0.000348242
-0.000333671
0.0003609
-0.000401962
0.000369502
-0.000471535
0.000376343
-0.000542289
0.000382718
-0.000614242
0.000389264
-0.000687468
0.000396253
-0.000762063
0.000403786
-0.000838126
0.000411904
-0.000915764
0.000420625
-0.000995081
0.000429966
-0.00107619
0.000439943
-0.0011592
0.000450588
-0.00124423
0.000461899
0.000473773
-0.00133138
-0.00014168
0.00034931
-0.000201832
0.000388132
-0.00026586
0.000412269
-0.00033232
0.000427361
-0.000400424
0.000437606
-0.000469814
0.000445733
-0.000540386
0.00045329
-0.000612157
0.000461035
-0.0006852
0.000469296
-0.000759608
0.000478195
-0.000835483
0.000487779
-0.000912929
0.000498071
-0.000992052
0.000509088
-0.00107296
0.000520852
-0.00115577
0.000533397
-0.00124059
0.000546721
0.000560703
-0.00132752
-0.00014083
0.000403014
-0.000200721
0.000448022
-0.000264503
0.000476052
-0.000330733
0.000493591
-0.000398617
0.000505489
-0.000467793
0.000514909
-0.000538152
0.000523648
-0.000609709
0.000532593
-0.000682537
0.000542124
-0.000756728
0.000552386
-0.000832382
0.000563433
-0.000909604
0.000575292
-0.000988498
0.000587983
-0.00106917
0.000601528
-0.00115174
0.000615966
-0.00123632
0.000631297
0.000647381
-0.001323
-0.000139854
0.000456403
-0.000199443
0.000507611
-0.000262945
0.000539553
-0.000328911
0.000559557
-0.000396543
0.000573121
-0.000465473
0.000583839
-0.000535587
0.000593762
-0.0006069
0.000603905
-0.000679481
0.000614705
-0.000753422
0.000626328
-0.000828824
0.000638835
-0.000905789
0.000652257
-0.000984422
0.000666616
-0.00106483
0.000681936
-0.00114713
0.000698263
-0.00123142
0.000715594
0.000733771
-0.00131781
-0.000138752
0.000509438
-0.000198001
0.00056686
-0.000261185
0.000602736
-0.000326853
0.000625226
-0.0003942
0.000640468
-0.000462853
0.000652492
-0.000532692
0.000663601
-0.000603729
0.000674942
-0.000676032
0.000687008
-0.000749693
0.000699988
-0.00082481
0.000713952
-0.000901486
0.000728933
-0.000979825
0.000744955
-0.00105993
0.000762045
-0.00114192
0.000780251
-0.0012259
0.000799575
0.000819837
-0.00131197
-0.000137524
0.000562078
-0.000196394
0.00062573
-0.000259223
0.000665566
-0.00032456
0.000690563
-0.00039159
0.000707498
-0.000459934
0.000720835
-0.000529467
0.000733134
-0.000600197
0.000745672
-0.000672192
0.000759003
-0.00074554
0.000773337
-0.000820341
0.000788753
-0.000896696
0.000805288
-0.000974708
0.000822967
-0.00105448
0.000841819
-0.00113613
0.000861899
-0.00121976
0.000883205
0.000905543
-0.00130547
-0.000136171
0.000614281
-0.000194622
0.000684181
-0.000257061
0.000728005
-0.000322032
0.000755534
-0.000388713
0.00077418
-0.000456717
0.000788839
-0.000525912
0.00080233
-0.000596305
0.000816065
-0.00066796
0.000830658
-0.000740966
0.000846343
-0.000815419
0.000863207
-0.000891421
0.00088129
-0.000969073
0.000900619
-0.00104848
0.000921227
-0.00112975
0.00094317
-0.001213
0.000966451
0.000990853
-0.00129831
-0.000134692
0.000666008
-0.000192686
0.000742175
-0.000254698
0.000790016
-0.000319269
0.000820105
-0.000385569
0.00084048
-0.000453201
0.000856471
-0.000522029
0.000871158
-0.000592054
0.00088609
-0.000663339
0.000901942
-0.00073597
0.000918974
-0.000810044
0.000937281
-0.000885661
0.000956906
-0.000962922
0.00097788
-0.00104193
0.00100024
-0.00112279
0.00102403
-0.00120562
0.00104928
0.00107573
-0.0012905
-0.000133089
0.000717218
-0.000190586
0.000799672
-0.000252134
0.000851564
-0.000316272
0.000884242
-0.000382159
0.000906367
-0.000449388
0.000923701
-0.000517818
0.000939588
-0.000587445
0.000955717
-0.000658328
0.000972826
-0.000730555
0.0009912
-0.000804219
0.00101095
-0.00087942
0.00103211
-0.000956258
0.00105472
-0.00103483
0.00107881
-0.00111526
0.00110445
-0.00119763
0.00113165
0.00116015
-0.00128204
-0.000131363
-0.000188323
0.000856632
-0.000249371
0.000912612
-0.00031304
0.000947912
-0.000378482
0.000971808
-0.000445278
0.000990497
-0.00051328
0.00100759
-0.000582478
0.00102491
-0.00065293
0.00104328
-0.000724721
0.00106299
-0.000797945
0.00108417
-0.000872699
0.00110686
-0.000949082
0.0011311
-0.00102719
0.00115692
-0.00110714
0.0011844
-0.00118903
0.00121354
0.00124406
-0.00127294
-0.000185897
0.000913017
-0.000246408
0.000973122
-0.000309575
0.00101108
-0.000374539
0.00103677
-0.000440872
0.00105683
-0.000508414
0.00107513
-0.000577154
0.00109365
-0.000647145
0.00111327
-0.000718471
0.00113432
-0.000791224
0.00115692
-0.0008655
0.00118114
-0.000941397
0.001207
-0.00101901
0.00123454
-0.00109845
0.00126384
-0.00117982
0.0012949
0.00132744
-0.0012632
-0.000183309
0.000968787
-0.000243246
0.00103306
-0.000305877
0.00107371
-0.000370331
0.00110123
-0.000436169
0.00112267
-0.000503223
0.00114219
-0.000571474
0.00116191
-0.000640975
0.00118277
-0.000711805
0.00120515
-0.000784057
0.00122917
-0.000857825
0.00125491
-0.000933205
0.00128238
-0.0010103
0.00131163
-0.0010892
0.00134274
-0.00117001
0.00137572
0.00141026
-0.00125283
-0.000180559
0.0010239
-0.000239885
0.00109238
-0.000301945
0.00113577
-0.000365858
0.00116514
-0.000431171
0.00118798
-0.000497706
0.00120872
-0.00056544
0.00122964
-0.00063442
0.00125175
-0.000704725
0.00127545
-0.000776446
0.00130089
-0.000849676
0.00132813
-0.00092451
0.00135721
-0.00100104
0.00138817
-0.00107937
0.00142107
-0.0011596
0.00145595
0.00149247
-0.00124182
-0.000177648
0.00107832
-0.000236325
0.00115106
-0.000297781
0.00119723
-0.000361121
0.00122848
-0.000425877
0.00125274
-0.000491865
0.00127471
-0.000559051
0.00129683
-0.000627481
0.00132018
-0.000697233
0.0013452
-0.000768393
0.00137206
-0.000841056
0.0014008
-0.000915313
0.00143147
-0.000991259
0.00146411
-0.00106899
0.0014988
-0.00114861
0.00153557
0.00157405
-0.00123019
-0.000174575
-0.000232567
0.00120905
-0.000293385
0.00125805
-0.000356119
0.00129121
-0.00042029
0.00131691
-0.000485699
0.00134012
-0.000552309
0.00136344
-0.000620161
0.00138803
-0.00068933
0.00141437
-0.000759901
0.00144263
-0.000831967
0.00147286
-0.000905618
0.00150512
-0.000980947
0.00153944
-0.00105805
0.0015759
-0.00113702
0.00161454
0.00165497
-0.00121794
-0.000228612
0.00126632
-0.000288757
0.00131819
-0.000350853
0.00135331
-0.000414408
0.00138046
-0.00047921
0.00140492
-0.000545215
0.00142944
-0.00061246
0.00145528
-0.000681017
0.00148293
-0.000750971
0.00151258
-0.000822411
0.0015443
-0.000895428
0.00157814
-0.000970111
0.00161412
-0.00104655
0.00165234
-0.00112485
0.00169283
0.0017352
-0.00120507
-0.00022446
0.00132283
-0.000283897
0.00137763
-0.000345324
0.00141474
-0.000408232
0.00144337
-0.000472399
0.00146909
-0.000537771
0.00149481
-0.00060438
0.00152189
-0.000672297
0.00155085
-0.000741605
0.00158189
-0.000812392
0.00161509
-0.000884746
0.00165049
-0.000958755
0.00168813
-0.00103451
0.00172809
-0.0011121
0.00177042
0.0018147
-0.0011916
-0.000220111
-0.000278806
0.00143632
-0.000339532
0.00147546
-0.000401764
0.0015056
-0.000465266
0.00153259
-0.000529975
0.00155952
-0.000595922
0.00158783
-0.000663171
0.0016181
-0.000731805
0.00165052
-0.000801911
0.0016852
-0.000873575
0.00172216
-0.000946882
0.00176144
-0.00102192
0.00180313
-0.00109878
0.00184728
0.00189345
-0.00117753
-0.000273484
0.00149424
-0.000333478
0.00153546
-0.000395003
0.00156713
-0.000457811
0.0015954
-0.000521831
0.00162354
-0.000587086
0.00165309
-0.00065364
0.00168465
-0.000721573
0.00171846
-0.000790971
0.00175459
-0.000861917
0.0017931
-0.000934497
0.00183402
-0.00100879
0.00187743
-0.00108489
0.00192338
0.00197142
-0.00116286
-0.000267933
0.00155135
-0.000327162
0.00159469
-0.00038795
0.00162792
-0.000450036
0.00165748
-0.000513338
0.00168684
-0.000577875
0.00171762
-0.000643706
0.00175048
-0.000710912
0.00178566
-0.000779574
0.00182325
-0.000849777
0.00186331
-0.000921602
0.00190585
-0.00099513
0.00195095
-0.00107045
0.0019987
0.00204859
-0.00114761
-0.000262152
0.00160761
-0.000320583
0.00165312
-0.000380606
0.00168794
-0.000441941
0.00171882
-0.000504498
0.0017494
-0.000568288
0.00178141
-0.000633371
0.00181556
-0.000699821
0.00185211
-0.000767723
0.00189116
-0.000837157
0.00193274
-0.000908203
0.00197689
-0.000980939
0.00202369
-0.00105545
0.0020732
0.00212493
-0.00113179
-0.000256141
-0.000313744
0.00171072
-0.00037297
0.00174717
-0.000433527
0.00177937
-0.000495311
0.00181119
-0.000558328
0.00184443
-0.000622635
0.00187987
-0.000688305
0.00191778
-0.000755419
0.00195827
-0.000824059
0.00200138
-0.000894302
0.00204714
-0.000966223
0.00209561
-0.0010399
0.00214688
0.00220042
-0.00111539
-0.000306643
0.00176746
-0.000365044
0.00180557
-0.000424793
0.00183912
-0.000485778
0.00187217
-0.000547996
0.00190665
-0.0006115
0.00194337
-0.000676363
0.00198265
-0.000742665
0.00202457
-0.000810487
0.0020692
-0.000879904
0.00211655
-0.000950988
0.00216669
-0.00102382
0.00221971
0.00227505
-0.00109844
-0.000299282
0.00182331
-0.000356828
0.00186311
-0.000415742
0.00189804
-0.000475899
0.00193233
-0.000537291
0.00196804
-0.000599967
0.00200605
-0.000663997
0.00204668
-0.000729463
0.00209004
-0.000796442
0.00213618
-0.000865011
0.00218512
-0.000935239
0.00223692
-0.0010072
0.00229167
0.00234878
-0.00108093
-0.000291661
-0.000348322
0.00191977
-0.000406373
0.00195609
-0.000465676
0.00199163
-0.000526216
0.00202858
-0.000588036
0.00206787
-0.000651209
0.00210985
-0.000715812
0.00215464
-0.000781926
0.00220229
-0.000849625
0.00225282
-0.000918978
0.00230627
-0.000990055
0.00236274
0.00242162
-0.00106289
-0.000339527
0.00197552
-0.000396687
0.00201325
-0.000455109
0.00205005
-0.00051477
0.00208824
-0.00057571
0.00212881
-0.000637999
0.00217214
-0.000701716
0.00221836
-0.00076694
0.00226752
-0.000833749
0.00231963
-0.000902211
0.00237474
-0.000972394
0.00243293
0.00249355
-0.00104432
-0.000330443
-0.000386684
0.00206949
-0.000444198
0.00210757
-0.000502954
0.002147
-0.000562988
0.00218885
-0.000624368
0.00223352
-0.000687173
0.00228116
-0.000751485
0.00233183
-0.000817384
0.00238553
-0.000884939
0.00244229
-0.000954221
0.00250221
0.00256457
-0.00102525
-0.000376365
0.00212478
-0.000432945
0.00216415
-0.00049077
0.00220482
-0.000549871
0.00224795
-0.000610316
0.00229396
-0.000672184
0.00234303
-0.000735561
0.00239521
-0.000800528
0.00245049
-0.000867162
0.00250892
-0.000935542
0.00257059
0.0026347
-0.00100567
-0.000365731
-0.00042135
0.00221977
-0.000478217
0.00226169
-0.00053636
0.00230609
-0.000595843
0.00235345
-0.000656749
0.00240394
-0.000719166
0.00245762
-0.000783182
0.00251451
-0.00084888
0.00257462
-0.00091636
0.00263807
0.00270397
-0.000985626
-0.000409414
0.0022744
-0.000465298
0.00231757
-0.000522455
0.00236325
-0.00058095
0.00241194
-0.000640866
0.00246385
-0.000702297
0.00251906
-0.00076534
0.00257755
-0.000830087
0.00263937
-0.000896674
0.00270466
0.00277242
-0.000965126
-0.000397139
0.00232802
-0.000452012
0.00237245
-0.000508157
0.00241939
-0.000565636
0.00246942
-0.000624534
0.00252275
-0.000684953
0.00257947
-0.000746997
0.0026396
-0.000810773
0.00270315
-0.000876475
0.00277036
0.00284015
-0.000944204
-0.000384524
-0.000438361
0.00242628
-0.000493467
0.0024745
-0.000549902
0.00252585
-0.000607752
0.0025806
-0.000667127
0.00263885
-0.000728148
0.00270062
-0.000790924
0.00276592
-0.000855734
0.00283517
0.00290731
-0.000922895
-0.000424347
-0.000478387
0.00252854
-0.000533749
0.00258122
-0.000590519
0.00263737
-0.000648814
0.00269715
-0.000708783
0.00276059
-0.000770526
0.00282766
-0.000834376
0.00289902
0.00297419
-0.000901257
-0.000462918
0.00258148
-0.000517178
0.00263548
-0.000572834
0.00269303
-0.000630009
0.00275432
-0.000688888