/*--------------------------------*- C++ -*----------------------------------*\
  =========                 |
  \\      /  F ield         | OpenFOAM: The Open Source CFD Toolbox
   \\    /   O peration     | Website:  https://openfoam.org
    \\  /    A nd           | Version:  7
     \\/     M anipulation  |
\*---------------------------------------------------------------------------*/
FoamFile
{
    version     2.0;
    format      ascii;
    class       volScalarField;
    location    "40";
    object      p;
}
// * * * * * * * * * * * * * * * * * * * * * * * * * * * * * * * * * * * * * //

dimensions      [0 2 -2 0 0 0 0];

internalField   nonuniform List<scalar> 
8500
(
0.107065
0.110339
0.11686
0.114166
0.120667
0.126674
0.118743
0.125072
0.131041
0.136464
0.130312
0.13605
0.141447
0.1462
0.135648
0.141965
0.147096
0.151882
0.155853
0.141059
0.14804
0.153694
0.15821
0.162339
0.165314
0.154222
0.160516
0.1655
0.169413
0.172777
0.174304
0.16048
0.167466
0.173069
0.1774
0.18075
0.183169
0.182616
0.174511
0.180775
0.185689
0.189408
0.192243
0.193603
0.191029
0.181616
0.188592
0.194128
0.198359
0.201492
0.203788
0.204049
0.202277
0.188733
0.196504
0.202699
0.2075
0.21105
0.213583
0.215285
0.214927
0.213937
0.20447
0.211402
0.216809
0.220869
0.223735
0.225646
0.226735
0.225876
0.224989
0.212437
0.220201
0.226286
0.230896
0.234211
0.236387
0.237662
0.238138
0.236804
0.235724
0.229041
0.235899
0.24113
0.244939
0.247503
0.248981
0.24961
0.24947
0.247647
0.246232
0.237859
0.245591
0.251537
0.255909
0.258912
0.260721
0.261497
0.26147
0.26071
0.258373
0.256547
0.255297
0.262059
0.267088
0.270598
0.272792
0.273843
0.273913
0.273225
0.271839
0.268969
0.266687
0.272626
0.278414
0.282526
0.285173
0.286556
0.286848
0.286208
0.284855
0.282839
0.279424
0.276658
0.283173
0.289815
0.29463
0.297824
0.299608
0.300181
0.299714
0.298364
0.296344
0.293695
0.289727
0.286461
0.301218
0.306834
0.310677
0.312956
0.31388
0.313646
0.312421
0.310362
0.307674
0.304392
0.299869
0.296091
0.31258
0.319057
0.323652
0.326528
0.327896
0.327964
0.326926
0.324948
0.322183
0.31883
0.314917
0.30984
0.305544
0.331248
0.33666
0.340238
0.342154
0.342618
0.341837
0.340002
0.337276
0.333809
0.329796
0.325255
0.319627
0.314809
0.349638
0.353993
0.356564
0.357529
0.357097
0.355475
0.352851
0.349384
0.345223
0.340554
0.335394
0.329221
0.323879
0.362597
0.367715
0.371024
0.372599
0.372624
0.371308
0.368856
0.365452
0.361254
0.356407
0.351091
0.345318
0.338607
0.332743
0.381399
0.385446
0.387722
0.388315
0.387414
0.385227
0.381957
0.377785
0.372866
0.367344
0.36139
0.355014
0.347776
0.341391
0.399805
0.402797
0.404056
0.403684
0.401872
0.398829
0.394755
0.389829
0.384203
0.378016
0.371437
0.36447
0.356714
0.349812
0.414211
0.41778
0.419736
0.419997
0.418678
0.415973
0.412091
0.407229
0.401564
0.395245
0.388409
0.381215
0.37367
0.365408
0.357996
0.432751
0.43529
0.436229
0.435514
0.433269
0.429691
0.424989
0.419359
0.412972
0.405975
0.398504
0.390711
0.382602
0.373848
0.365931
0.45077
0.4523
0.452247
0.450579
0.447431
0.443003
0.437502
0.431122
0.424032
0.416376
0.408286
0.39991
0.391253
0.38202
0.373608
0.468232
0.468778
0.467759
0.465164
0.461138
0.455884
0.449608
0.4425
0.434727
0.426431
0.41774
0.408797
0.399609
0.389912
0.381016
0.48425
0.485102
0.484692
0.482735
0.479242
0.474366
0.468312
0.461284
0.453472
0.445038
0.436122
0.426851
0.41736
0.407658
0.397513
0.388144
0.501402
0.501346
0.500011
0.497148
0.492787
0.487091
0.480264
0.472512
0.464019
0.454948
0.445435
0.435603
0.425584
0.415387
0.404812
0.394983
0.517865
0.516933
0.514706
0.510969
0.505774
0.499289
0.49172
0.483271
0.474125
0.464441
0.454354
0.443984
0.433456
0.422785
0.411796
0.401523
0.533606
0.531832
0.528747
0.524174
0.518179
0.510937
0.502658
0.493542
0.48377
0.4735
0.462863
0.451978
0.440964
0.42984
0.418456
0.407755
0.548593
0.546012
0.542109
0.536737
0.529979
0.522016
0.513059
0.503307
0.492939
0.48211
0.470949
0.459573
0.448097
0.436541
0.424781
0.413669
0.565334
0.562796
0.559447
0.554765
0.548634
0.541151
0.532504
0.522904
0.512548
0.501615
0.490256
0.478599
0.466757
0.454842
0.442877
0.430762
0.419257
0.579398
0.576187
0.57211
0.566691
0.559843
0.551676
0.542383
0.532175
0.52125
0.509783
0.497924
0.485799
0.473518
0.461188
0.448838
0.436388
0.424511
0.592583
0.588736
0.583975
0.577864
0.570342
0.561533
0.551634
0.540857
0.529398
0.51743
0.505102
0.492537
0.479844
0.467126
0.454415
0.441651
0.429423
0.604862
0.600421
0.595019
0.588263
0.580112
0.570704
0.56024
0.548932
0.536975
0.524541
0.511776
0.498802
0.485726
0.472646
0.459599
0.446542
0.433986
0.616209
0.611216
0.605221
0.597866
0.589134
0.579172
0.568186
0.556387
0.54397
0.531105
0.517935
0.504583
0.491152
0.477738
0.464381
0.451054
0.438193
0.626601
0.6211
0.614561
0.606657
0.597392
0.586922
0.575456
0.563208
0.550369
0.537109
0.523569
0.50987
0.496115
0.482395
0.468753
0.45518
0.442037
0.636015
0.630054
0.62302
0.614617
0.604868
0.593938
0.582039
0.569382
0.556162
0.542543
0.528668
0.514655
0.500606
0.486608
0.472709
0.458912
0.445514
0.644434
0.638059
0.630581
0.621732
0.611551
0.600208
0.58792
0.574899
0.561337
0.547398
0.533223
0.518929
0.504616
0.49037
0.476242
0.462245
0.448618
0.651838
0.645098
0.63723
0.627988
0.617425
0.605721
0.593091
0.579749
0.565886
0.551665
0.537226
0.522685
0.508141
0.493676
0.479346
0.465173
0.451344
0.664533
0.658214
0.651159
0.642953
0.633373
0.622482
0.610465
0.59754
0.583922
0.5698
0.555337
0.54067
0.525917
0.511173
0.496521
0.482016
0.467692
0.453688
0.670087
0.663547
0.656228
0.64774
0.637876
0.62671
0.614431
0.601261
0.587412
0.573072
0.558406
0.54355
0.528618
0.513707
0.498898
0.484248
0.469797
0.455647
0.674545
0.667827
0.660295
0.651581
0.641489
0.630102
0.617614
0.604246
0.590211
0.575698
0.560868
0.545859
0.530785
0.51574
0.500804
0.486038
0.471486
0.457218
0.677896
0.671044
0.663353
0.654468
0.644205
0.632652
0.620006
0.606489
0.592314
0.57767
0.562719
0.547595
0.532413
0.517268
0.502237
0.487383
0.472754
0.458398
0.680134
0.673193
0.665395
0.656396
0.646018
0.634355
0.621603
0.607987
0.593719
0.578988
0.563954
0.548754
0.5335
0.518288
0.503194
0.488281
0.473601
0.459186
0.681255
0.674268
0.666417
0.657361
0.646926
0.635207
0.622402
0.608736
0.594422
0.579647
0.564572
0.549333
0.534044
0.518798
0.503672
0.48873
0.474025
0.45958
0.681255
0.674268
0.666417
0.657361
0.646926
0.635207
0.622402
0.608736
0.594422
0.579647
0.564572
0.549333
0.534044
0.518798
0.503672
0.48873
0.474025
0.459579
0.680134
0.673193
0.665395
0.656396
0.646018
0.634354
0.621603
0.607987
0.593719
0.578987
0.563954
0.548753
0.5335
0.518287
0.503193
0.488281
0.473601
0.459185
0.677896
0.671044
0.663353
0.654468
0.644205
0.632652
0.620005
0.606489
0.592314
0.57767
0.562718
0.547594
0.532412
0.517267
0.502236
0.487382
0.472754
0.458397
0.674545
0.667826
0.660295
0.65158
0.641489
0.630102
0.617613
0.604245
0.59021
0.575697
0.560867
0.545858
0.530784
0.515739
0.500804
0.486037
0.471485
0.457217
0.670087
0.663547
0.656228
0.64774
0.637876
0.626709
0.614431
0.60126
0.587411
0.573071
0.558405
0.543549
0.528617
0.513706
0.498897
0.484247
0.469796
0.455646
0.664533
0.658214
0.651158
0.642953
0.633372
0.622481
0.610464
0.597539
0.583921
0.569799
0.555335
0.540669
0.525915
0.511171
0.496519
0.482015
0.46769
0.453687
0.651838
0.645098
0.637229
0.627987
0.617424
0.605719
0.59309
0.579748
0.565884
0.551663
0.537224
0.522684
0.508139
0.493675
0.479344
0.465171
0.451342
0.644434
0.638058
0.63058
0.621731
0.611549
0.600207
0.587919
0.574898
0.561335
0.547396
0.533221
0.518927
0.504614
0.490368
0.47624
0.462243
0.448616
0.636015
0.630053
0.623019
0.614616
0.604867
0.593937
0.582037
0.569381
0.55616
0.542541
0.528666
0.514653
0.500603
0.486605
0.472707
0.45891
0.445512
0.6266
0.6211
0.61456
0.606656
0.59739
0.58692
0.575454
0.563206
0.550367
0.537106
0.523567
0.509868
0.496112
0.482392
0.468751
0.455177
0.442035
0.616209
0.611216
0.60522
0.597865
0.589133
0.57917
0.568184
0.556385
0.543968
0.531102
0.517933
0.50458
0.49115
0.477735
0.464378
0.451051
0.43819
0.604862
0.60042
0.595018
0.588261
0.58011
0.570702
0.560238
0.54893
0.536973
0.524538
0.511773
0.498799
0.485723
0.472643
0.459596
0.446539
0.433983
0.592583
0.588736
0.583974
0.577863
0.57034
0.561531
0.551631
0.540854
0.529395
0.517427
0.505098
0.492534
0.479841
0.467123
0.454412
0.441647
0.42942
0.579398
0.576186
0.572109
0.56669
0.559841
0.551673
0.54238
0.532172
0.521247
0.50978
0.497921
0.485795
0.473515
0.461185
0.448835
0.436384
0.424508
0.565334
0.562796
0.559446
0.554764
0.548632
0.541149
0.532502
0.522901
0.512545
0.501611
0.490252
0.478595
0.466754
0.454838
0.442873
0.430758
0.419253
0.548593
0.546011
0.542108
0.536735
0.529976
0.522013
0.513055
0.503303
0.492935
0.482106
0.470946
0.45957
0.448093
0.436537
0.424777
0.413665
0.533606
0.531831
0.528746
0.524172
0.518176
0.510935
0.502654
0.493538
0.483766
0.473496
0.462859
0.451974
0.44096
0.429836
0.418452
0.407751
0.517865
0.516932
0.514704
0.510967
0.505771
0.499286
0.491716
0.483267
0.474121
0.464437
0.454349
0.443979
0.433452
0.422781
0.411792
0.401519
0.501401
0.501346
0.500009
0.497145
0.492784
0.487088
0.480261
0.472508
0.464015
0.454944
0.445431
0.435599
0.425579
0.415382
0.404807
0.394979
0.48425
0.485101
0.48469
0.482733
0.479239
0.474363
0.468308
0.461281
0.453467
0.445033
0.436118
0.426846
0.417355
0.407653
0.397508
0.38814
0.468231
0.468777
0.467756
0.465161
0.461135
0.45588
0.449604
0.442495
0.434722
0.426426
0.417735
0.408792
0.399604
0.389907
0.381011
0.45077
0.452299
0.452245
0.450576
0.447427
0.442999
0.437498
0.431118
0.424027
0.416371
0.408281
0.399905
0.391247
0.382015
0.373603
0.432751
0.435288
0.436227
0.435511
0.433265
0.429687
0.424985
0.419354
0.412967
0.40597
0.398499
0.390706
0.382597
0.373843
0.365926
0.417779
0.419733
0.419994
0.418674
0.415969
0.412086
0.407225
0.401559
0.39524
0.388403
0.38121
0.373665
0.365403
0.35799
0.399804
0.402795
0.404053
0.403681
0.401868
0.398825
0.39475
0.389824
0.384197
0.378011
0.371431
0.364464
0.356708
0.349806
0.381398
0.385444
0.387719
0.388312
0.38741
0.385222
0.381952
0.37778
0.372861
0.367338
0.361385
0.355009
0.34777
0.341385
0.362596
0.367713
0.371021
0.372596
0.37262
0.371304
0.368851
0.365447
0.361248
0.356401
0.351085
0.345312
0.338602
0.332737
0.349636
0.35399
0.35656
0.357524
0.357093
0.35547
0.352845
0.349378
0.345217
0.340549
0.335388
0.329215
0.323873
0.331246
0.336657
0.340235
0.34215
0.342613
0.341832
0.339996
0.33727
0.333803
0.32979
0.325249
0.319621
0.314803
0.312579
0.319055
0.323648
0.326524
0.327891
0.327959
0.326921
0.324942
0.322177
0.318824
0.314911
0.309834
0.305538
0.301215
0.30683
0.310673
0.312951
0.313875
0.31364
0.312415
0.310356
0.307668
0.304386
0.299863
0.296085
0.28317
0.289812
0.294626
0.297819
0.299603
0.300176
0.299708
0.298358
0.296338
0.293689
0.289721
0.286454
0.272623
0.27841
0.282521
0.285168
0.28655
0.286842
0.286202
0.284849
0.282833
0.279418
0.276651
0.255294
0.262054
0.267083
0.270593
0.272786
0.273837
0.273907
0.273218
0.271833
0.268963
0.26668
0.245587
0.251532
0.255904
0.258906
0.260715
0.261491
0.261464
0.260704
0.258367
0.256541
0.229037
0.235894
0.241125
0.244933
0.247497
0.248975
0.249604
0.249464
0.24764
0.246226
0.212433
0.220197
0.226281
0.230891
0.234205
0.23638
0.237656
0.238131
0.236798
0.235717
0.204466
0.211397
0.216803
0.220863
0.223729
0.22564
0.226728
0.225869
0.224983
0.196498
0.202694
0.207494
0.211044
0.213576
0.215279
0.214921
0.21393
0.18161
0.188587
0.194122
0.198353
0.201486
0.203782
0.204043
0.202271
0.174506
0.180769
0.185683
0.189402
0.192237
0.193597
0.191023
0.160474
0.16746
0.173062
0.177394
0.180744
0.183162
0.18261
0.154216
0.160509
0.165493
0.169407
0.17277
0.174298
0.141053
0.148033
0.153687
0.158204
0.162333
0.165308
0.135642
0.141959
0.14709
0.151876
0.155847
0.130306
0.136044
0.141441
0.146194
0.125065
0.131035
0.136458
0.11416
0.120661
0.126668
0.110334
0.116855
0.10706
0.183933
0.175572
0.166689
0.15814
0.149314
0.140207
0.131055
0.121931
0.112833
0.103782
0.0948105
0.17269
0.1642
0.15422
0.145525
0.137254
0.128787
0.12029
0.111938
0.103726
0.095623
0.0876333
0.1598
0.151618
0.142063
0.134018
0.126691
0.119246
0.111723
0.104326
0.097079
0.0899363
0.0828837
0.147221
0.139711
0.131103
0.123911
0.117426
0.110842
0.104151
0.0975457
0.0910749
0.0847013
0.0784055
0.136142
0.1294
0.121749
0.115333
0.109542
0.103671
0.0976955
0.0917868
0.0859978
0.0802998
0.0746728
0.126474
0.120399
0.113584
0.107836
0.102629
0.0973607
0.0920032
0.0867029
0.0815082
0.0763959
0.0713473
0.117941
0.112444
0.106369
0.10122
0.0965342
0.0917982
0.0869889
0.0822293
0.077561
0.0729648
0.0684241
0.110379
0.105402
0.0999823
0.0953687
0.0911461
0.0868793
0.082551
0.0782658
0.0740585
0.0699129
0.0658148
0.103672
0.0991641
0.0943205
0.0901778
0.0863638
0.0825093
0.0786028
0.0747335
0.0709304
0.0671798
0.0634694
0.0977087
0.0936195
0.08928
0.0855499
0.0820959
0.0786042
0.0750682
0.0715641
0.0681163
0.0647126
0.0613428
0.0923851
0.0886696
0.0847711
0.081403
0.0782668
0.0750953
0.0718857
0.0687033
0.0655685
0.0624707
0.0594012
0.0876137
0.0842317
0.0807193
0.0776696
0.0748145
0.0719263
0.0690049
0.0661066
0.0632483
0.0604211
0.0576172
0.0833204
0.080236
0.0770625
0.0742932
0.0716874
0.0690504
0.0663842
0.0637376
0.0611245
0.0585373
0.0559693
0.0794424
0.0766239
0.0737483
0.0712267
0.0688425
0.0664288
0.0639894
0.0615664
0.0591715
0.0567979
0.0544402
0.075926
0.0733455
0.0707326
0.0684303
0.0662437
0.0640293
0.061792
0.0595683
0.0573681
0.0551856
0.053016
0.0727261
0.070359
0.0679784
0.0658709
0.0638609
0.0618248
0.0597682
0.0577228
0.0556971
0.0536859
0.0516852
0.0698042
0.0676287
0.0654542
0.0635204
0.0616689
0.0597929
0.0578983
0.0560131
0.0541442
0.0522871
0.0504385
0.0671276
0.0651245
0.0631336
0.0613551
0.0596462
0.0579143
0.0561657
0.0544246
0.0526971
0.0509793
0.0492682
0.0646683
0.0628211
0.0609941
0.0593549
0.0577747
0.056173
0.0545561
0.0529452
0.0513457
0.049754
0.0481676
0.0624027
0.0606963
0.0590162
0.0575026
0.0560388
0.054555
0.0530574
0.0515646
0.0500812
0.048604
0.047131
0.06031
0.0587316
0.0571835
0.0557832
0.0544252
0.0530485
0.0516592
0.0502737
0.0488959
0.0475231
0.0461534
0.0583728
0.0569106
0.0554816
0.0541839
0.0529222
0.0516431
0.0503524
0.0490647
0.0477833
0.0465058
0.0452307
0.0565754
0.0552192
0.053898
0.0526936
0.0515197
0.0503297
0.0491291
0.0479307
0.0467375
0.0455473
0.0443588
0.0549046
0.0536453
0.0524217
0.0513022
0.0502087
0.0491002
0.0479821
0.0468656
0.0457531
0.0446431
0.0435342
0.0533484
0.0521778
0.0510431
0.0500011
0.0489813
0.0479477
0.0469052
0.0458638
0.0448257
0.0437893
0.0427537
0.0518965
0.0508074
0.0497536
0.0487826
0.0478306
0.0468658
0.0458928
0.0449205
0.0439508
0.0429824
0.0420143
0.0505396
0.0495254
0.0485456
0.0476398
0.0467501
0.0458488
0.0449398
0.0440312
0.0431247
0.042219
0.0413134
0.0492694
0.0483244
0.0474123
0.0465664
0.0457343
0.0448914
0.0440416
0.0431919
0.0423437
0.0414961
0.0406483
0.0480787
0.0471974
0.0463476
0.0455568
0.044778
0.0439892
0.0431941
0.0423988
0.0416047
0.0408109
0.0400167
0.0469607
0.0461385
0.0453458
0.044606
0.0438764
0.0431378
0.0423934
0.0416485
0.0409045
0.0401606
0.0394161
0.0459096
0.045142
0.0444021
0.0437093
0.0430255
0.0423334
0.041636
0.040938
0.0402405
0.039543
0.0388448
0.04492
0.0442031
0.0435119
0.0428628
0.0422214
0.0415725
0.0409187
0.0402642
0.0396101
0.0389557
0.0383007
0.043987
0.0433173
0.0426711
0.0420625
0.0414606
0.040852
0.0402387
0.0396248
0.039011
0.0383968
0.037782
0.0431065
0.0424806
0.041876
0.041305
0.04074
0.0401688
0.0395934
0.0390172
0.038441
0.0378644
0.037287
0.0422743
0.0416892
0.0411233
0.0405873
0.0400566
0.0395203
0.0389802
0.0384392
0.0378981
0.0373565
0.0368141
0.041487
0.0409399
0.04041
0.0399066
0.0394079
0.0389042
0.038397
0.0378889
0.0373805
0.0368717
0.0407415
0.0402298
0.0397333
0.0392603
0.0387915
0.0383183
0.0378418
0.0373644
0.0368867
0.0364084
0.0400349
0.0395562
0.0390908
0.0386463
0.0382054
0.0377606
0.0373128
0.0368641
0.0364151
0.0359654
0.0393647
0.0389168
0.0384804
0.0380624
0.0376477
0.0372295
0.0368085
0.0363867
0.0359644
0.0355415
0.0387288
0.0383096
0.0379002
0.037507
0.0371168
0.0367234
0.0363276
0.0359308
0.0355336
0.0351358
0.0381252
0.0377327
0.0373485
0.0369785
0.0366112
0.0362411
0.0358687
0.0354954
0.0351217
0.0347473
0.0375523
0.0371847
0.036824
0.0364757
0.0361298
0.0357814
0.0354309
0.0350796
0.0347278
0.0343754
0.0370086
0.0366642
0.0363254
0.0359974
0.0356715
0.0353434
0.0350135
0.0346826
0.0343513
0.0340194
0.0364931
0.0361703
0.0358519
0.0355428
0.0352356
0.0349265
0.0346156
0.034304
0.0339917
0.033679
0.0360049
0.035702
0.0354027
0.0351113
0.0348215
0.03453
0.034237
0.0339431
0.0336488
0.0333538
0.0355432
0.0352589
0.0349772
0.0347022
0.0344287
0.0341536
0.0338772
0.0335999
0.0333222
0.0330438
0.0351076
0.0348404
0.0345751
0.0343155
0.034057
0.0337972
0.0335361
0.0332743
0.0330119
0.032749
0.034698
0.0344465
0.0341963
0.0339508
0.0337063
0.0334606
0.0332138
0.0329662
0.0327181
0.0324694
0.0343142
0.0340771
0.0338409
0.0336085
0.0333768
0.0331441
0.0329104
0.032676
0.032441
0.0322055
0.0339564
0.0337325
0.033509
0.0332886
0.0330688
0.032848
0.0326263
0.0324039
0.032181
0.0319576
0.033625
0.0334131
0.0332012
0.0329917
0.0327827
0.0325728
0.032362
0.0321506
0.0319386
0.0317262
0.0333206
0.0331194
0.032918
0.0327184
0.032519
0.032319
0.0321181
0.0319166
0.0317146
0.0315121
0.0330441
0.0328523
0.0326603
0.0324695
0.0322788
0.0320875
0.0318955
0.0317028
0.0315097
0.0313161
0.0327962
0.0326127
0.0324288
0.0322458
0.0320628
0.0318792
0.0316949
0.0315101
0.0313247
0.031139
0.0325784
0.032402
0.0322252
0.0320489
0.0318725
0.0316955
0.0315179
0.0313398
0.0311612
0.0309822
0.0323916
0.0322211
0.0320501
0.0318794
0.0317085
0.031537
0.031365
0.0311925
0.0310196
0.0308462
0.0322384
0.0320726
0.0319062
0.0317399
0.0315734
0.0314063
0.0312388
0.0310708
0.0309025
0.0307337
0.032119
0.0319564
0.0317935
0.0316304
0.031467
0.0313031
0.0311389
0.0309742
0.0308092
0.0306438
0.0320383
0.0318778
0.0317169
0.0315558
0.0313944
0.0312326
0.0310705
0.030908
0.0307452
0.0305821
0.0319945
0.0318344
0.0316739
0.0315133
0.0313523
0.0311911
0.0310295
0.0308677
0.0307056
0.0305432
0.171764
0.172527
0.174022
0.176154
0.178861
0.182084
0.185776
0.189891
0.194383
0.199206
0.204308
0.209633
0.215117
0.220685
0.226251
0.231714
0.236958
0.241847
0.246229
0.249925
0.252748
0.254466
0.254868
0.25366
0.250643
0.24541
0.237909
0.227327
0.214206
0.195976
0.170704
0.171438
0.172869
0.174912
0.177497
0.180567
0.18407
0.187958
0.192181
0.196685
0.201416
0.20631
0.211298
0.216297
0.221216
0.225948
0.230373
0.234353
0.237738
0.240352
0.24202
0.242528
0.241689
0.239248
0.235054
0.228773
0.220409
0.209437
0.196555
0.181435
0.169554
0.170256
0.17162
0.173564
0.176018
0.178922
0.182223
0.185868
0.189803
0.193972
0.198315
0.202762
0.20724
0.211662
0.215932
0.219942
0.223572
0.226685
0.229139
0.23077
0.231419
0.230899
0.229059
0.225688
0.220694
0.213835
0.2052
0.19451
0.182407
0.168608
0.168311
0.168979
0.17027
0.17211
0.174425
0.177154
0.180242
0.183633
0.18727
0.191093
0.195036
0.199027
0.202988
0.20683
0.210456
0.213755
0.216611
0.218893
0.220466
0.221183
0.220904
0.219471
0.216765
0.212628
0.207007
0.199754
0.190979
0.180531
0.168852
0.155726
0.166974
0.167604
0.16882
0.170549
0.172719
0.175267
0.178134
0.181264
0.184595
0.188063
0.191602
0.195135
0.198582
0.201851
0.204847
0.20746
0.209579
0.21108
0.211842
0.211733
0.210636
0.208421
0.205001
0.200263
0.194187
0.186688
0.177874
0.167661
0.156409
0.144042
0.165539
0.166131
0.167268
0.168883
0.170902
0.173262
0.175903
0.178764
0.181783
0.184894
0.188026
0.191103
0.194041
0.196752
0.199139
0.201098
0.202526
0.203307
0.203336
0.202498
0.200699
0.197837
0.193853
0.188673
0.182301
0.174698
0.165971
0.156089
0.145378
0.133827
0.164007
0.164558
0.165615
0.167111
0.168975
0.171141
0.17355
0.176138
0.178842
0.181593
0.18432
0.186946
0.189387
0.191556
0.193361
0.194705
0.195491
0.195617
0.194992
0.193521
0.19113
0.187745
0.18333
0.177845
0.17131
0.163721
0.155187
0.145716
0.135589
0.12482
0.162377
0.162886
0.163859
0.165233
0.166938
0.168907
0.17108
0.173392
0.175779
0.178172
0.180499
0.182681
0.18464
0.186291
0.187545
0.188315
0.188512
0.188049
0.186848
0.184835
0.181955
0.178159
0.173428
0.16775
0.161159
0.153676
0.145405
0.136381
0.126837
0.116806
0.160648
0.161114
0.162002
0.163251
0.164793
0.166563
0.168497
0.170533
0.172604
0.174642
0.176576
0.178329
0.179824
0.180982
0.181721
0.18196
0.181624
0.180638
0.178938
0.17647
0.173195
0.169084
0.164138
0.15836
0.151797
0.144485
0.136524
0.127961
0.118991
0.109662
0.158821
0.159242
0.160043
0.161166
0.162544
0.164112
0.165807
0.167567
0.169326
0.171016
0.172567
0.173906
0.17496
0.175654
0.175915
0.175671
0.174857
0.173412
0.171288
0.168445
0.164859
0.160521
0.155442
0.149642
0.143172
0.136079
0.128457
0.12036
0.111948
0.103284
0.156896
0.157272
0.157985
0.15898
0.160193
0.161559
0.163017
0.164504
0.165956
0.167307
0.168489
0.169432
0.170069
0.170332
0.170154
0.169474
0.168238
0.166398
0.163917
0.160772
0.156952
0.152461
0.147319
0.141557
0.13523
0.128391
0.121124
0.113488
0.105615
0.0975717
0.154874
0.155205
0.15583
0.156697
0.157744
0.158909
0.160132
0.161351
0.162504
0.163527
0.164356
0.164925
0.165173
0.165037
0.16446
0.163392
0.161788
0.159611
0.156839
0.153458
0.149471
0.144889
0.139741
0.134067
0.12792
0.121356
0.11445
0.107265
0.0999042
0.0924388
0.152757
0.153042
0.153579
0.154318
0.155202
0.156169
0.157161
0.158119
0.158982
0.159691
0.160184
0.160402
0.160289
0.159789
0.158855
0.157445
0.155524
0.153067
0.150062
0.146504
0.142406
0.137787
0.132681
0.127131
0.12119
0.114913
0.108369
0.101617
0.0947403
0.0878101
0.150547
0.150787
0.151236
0.151849
0.152571
0.153344
0.154111
0.154815
0.155401
0.155811
0.155988
0.15588
0.155435
0.154607
0.153356
0.151648
0.14946
0.146774
0.143588
0.139906
0.135746
0.131134
0.126107
0.120709
0.114991
0.109008
0.102818
0.0964804
0.0900576
0.0836218
0.148247
0.148442
0.148805
0.149294
0.149857
0.15044
0.150989
0.151451
0.151773
0.1519
0.151784
0.151374
0.150628
0.149507
0.147978
0.146016
0.143605
0.140738
0.137418
0.133657
0.129477
0.124908
0.119989
0.114763
0.109278
0.103588
0.0977421
0.0917976
0.0857994
0.0798191
0.14586
0.146011
0.146289
0.146657
0.147066
0.147466
0.147806
0.148037
0.148108
0.147972
0.147583
0.146899
0.145883
0.144503
0.142733
0.140558
0.137967
0.134961
0.131548
0.127747
0.123581
0.119085
0.114295
0.109255
0.104009
0.0986077
0.0930927
0.0875188
0.0819162
0.0763551
0.14339
0.143499
0.143694
0.143944
0.144205
0.144429
0.14457
0.144581
0.144418
0.144038
0.1434
0.142468
0.141212
0.139606
0.137632
0.13528
0.132548
0.129441
0.125972
0.122163
0.118041
0.113639
0.108995
0.10415
0.0991439
0.0940241
0.0888258
0.0836001
0.0783653
0.0731899
0.140842
0.140909
0.141025
0.141162
0.14128
0.141336
0.141289
0.141095
0.140714
0.14011
0.139246
0.138093
0.136626
0.134826
0.132682
0.130189
0.12735
0.124176
0.120682
0.116893
0.112837
0.108548
0.104061
0.0994148
0.0946467
0.0897994
0.0849022
0.0800029
0.0751096
0.070289
0.13822
0.138247
0.138287
0.138316
0.138298
0.138197
0.137972
0.137587
0.137007
0.136198
0.135132
0.133784
0.132135
0.130172
0.127889
0.125287
0.122372
0.119159
0.115668
0.111922
0.107951
0.103787
0.0994644
0.0950195
0.0904846
0.0858993
0.0812874
0.0766934
0.0721172
0.067623
0.13553
0.135519
0.135486
0.135413
0.135268
0.135018
0.134629
0.134069
0.133306
0.132314
0.131069
0.129551
0.127747
0.125649
0.123256
0.120574
0.117611
0.114386
0.110918
0.107235
0.103363
0.0993347
0.0951807
0.0909356
0.0866278
0.0822931
0.0779508
0.073642
0.06936
0.0651665
0.132778
0.13273
0.13263
0.13246
0.132195
0.131808
0.131268
0.130548
0.129622
0.128467
0.127065
0.125401
0.123468
0.121262
0.118787
0.116049
0.113063
0.109847
0.106423
0.102816
0.099055
0.0951685
0.0911854
0.0871372
0.083049
0.0789534
0.0748653
0.0708228
0.0668137
0.0628974
0.12997
0.129889
0.129724
0.129464
0.12909
0.128576
0.127898
0.127034
0.125962
0.124664
0.123127
0.121342
0.119304
0.117015
0.11448
0.11171
0.108722
0.105534
0.102169
0.0986519
0.095009
0.0912684
0.0874559
0.0836005
0.0797238
0.0758555
0.0720067
0.0682129
0.0644573
0.0607968
0.127113
0.127
0.126776
0.126434
0.125958
0.12533
0.124528
0.123535
0.122335
0.120914
0.119264
0.117379
0.115259
0.112908
0.110335
0.107555
0.104582
0.101438
0.0981446
0.0947264
0.0912078
0.0876151
0.0839716
0.0803037
0.0766301
0.0729773
0.0693538
0.065792
0.062272
0.058848
0.124213
0.124071
0.123793
0.123376
0.122809
0.122077
0.121165
0.12006
0.118749
0.117224
0.11548
0.113516
0.111334
0.108943
0.106352
0.103577
0.100636
0.0975494
0.0943379
0.0910255
0.087635
0.0841906
0.0807134
0.0772271
0.0737477
0.0702993
0.0668876
0.0635425
0.0602415
0.0570364
0.121279
0.121111
0.120784
0.120299
0.11965
0.118826
0.117818
0.116616
0.115211
0.1136
0.111781
0.109757
0.107533
0.105118
0.102527
0.0997739
0.0968777
0.0938585
0.090737
0.0875356
0.0842753
0.0809784
0.0776637
0.0743526
0.0710588
0.0678037
0.0645911
0.0614484
0.0583514
0.0553493
0.118317
0.118126
0.117755
0.11721
0.116489
0.115585
0.114494
0.113209
0.111727
0.110048
0.108172
0.106105
0.103855
0.101434
0.0988568
0.0961388
0.0932985
0.0903557
0.0873304
0.0842434
0.0811141
0.0779628
0.0748064
0.0716638
0.0685469
0.0654748
0.0624493
0.0594959
0.056589
0.0537753
0.115336
0.115124
0.114715
0.114117
0.113333
0.112362
0.1112
0.109848
0.108304
0.106571
0.104654
0.102561
0.100301
0.0978888
0.0953381
0.0926662
0.089891
0.0870316
0.084107
0.0811365
0.0781379
0.0751296
0.0721267
0.0691459
0.0661974
0.0632982
0.0604487
0.0576724
0.0549429
0.0523044
0.112343
0.112113
0.111671
0.111028
0.110191
0.109162
0.107943
0.106537
0.104945
0.103174
0.101231
0.0991264
0.096871
0.0944792
0.0919666
0.0893503
0.0866476
0.0838771
0.0810562
0.0782032
0.0753341
0.0724656
0.069611
0.0667853
0.063997
0.0612613
0.0585774
0.0559668
0.053403
0.0509277
0.109346
0.109101
0.108631
0.10795
0.107069
0.105994
0.10473
0.103282
0.101656
0.0998612
0.097906
0.0958022
0.093563
0.091203
0.0887381
0.086185
0.0835609
0.0808831
0.078168
0.0754324
0.072691
0.0699587
0.0672472
0.0645698
0.0619337
0.0593525
0.0568244
0.0543691
0.0519603
0.0496371
0.106354
0.106096
0.105603
0.104891
0.103975
0.102863
0.101565
0.100088
0.0984411
0.0966344
0.0946792
0.0925883
0.0903759
0.0880571
0.0856478
0.0831645
0.0806235
0.0780412
0.0754329
0.072814
0.0701978
0.0675976
0.0650238
0.0624882
0.0599968
0.0575615
0.0551801
0.0528704
0.0506067
0.0484256
0.103374
0.103106
0.102594
0.101859
0.100916
0.0997773
0.0984553
0.0969604
0.0953034
0.0934963
0.091552
0.0894843
0.087308
0.0850384
0.0826914
0.0802828
0.0778283
0.0753433
0.072842
0.0703384
0.0678444
0.0653722
0.0629307
0.0605305
0.0581764
0.0558791
0.0536358
0.0514628
0.049335
0.0472867
0.100413
0.100137
0.0996121
0.0988593
0.0978971
0.0967412
0.0954055
0.0939028
0.0922462
0.090449
0.0885252
0.0864896
0.0843572
0.0821436
0.0798641
0.0775342
0.0751687
0.0727819
0.0703869
0.0679966
0.0656217
0.0632731
0.0609585
0.0586874
0.0564636
0.0542967
0.0521836
0.050139
0.0481387
0.0462146
0.0974796
0.0971986
0.0966642
0.0958998
0.094926
0.0937608
0.0924202
0.0909191
0.0892721
0.0874938
0.0855991
0.0836032
0.0815215
0.0793693
0.0771616
0.0749132
0.0726381
0.0703496
0.06806
0.0657806
0.0635213
0.0612918
0.0590988
0.0569507
0.0548506
0.052807
0.0508165
0.0488925
0.0470118
0.0452041
0.0945811
0.0942969
0.0937571
0.0929867
0.0920081
0.0908412
0.0895039
0.0880128
0.0863837
0.0846321
0.0827738
0.0808241
0.0787985
0.0767121
0.0745794
0.0724145
0.0702306
0.06804
0.0658539
0.0636828
0.0615355
0.0594205
0.0573439
0.0553129
0.0533302
0.0514031
0.0495281
0.0477175
0.0459492
0.0442505
0.0917245
0.0914391
0.0908977
0.0901263
0.089149
0.0879873
0.0866606
0.0851868
0.0835828
0.0818649
0.0800491
0.0781511
0.0761861
0.0741688
0.0721134
0.0700332
0.0679404
0.0658466
0.0637621
0.0616963
0.0596571
0.0576522
0.0556868
0.0537673
0.0518957
0.0500788
0.0483128
0.0466088
0.044946
0.0433497
0.0889168
0.088632
0.0880922
0.0873245
0.086354
0.0852036
0.083894
0.082444
0.0808714
0.0791929
0.0774248
0.0755827
0.0736818
0.0717363
0.0697596
0.0677644
0.0657623
0.0637638
0.0617784
0.0598147
0.0578798
0.0559804
0.0541211
0.0523076
0.0505415
0.0488286
0.0471654
0.0455617
0.0439981
0.0424978
0.0861646
0.0858819
0.0853468
0.0845869
0.0836281
0.0824944
0.0812074
0.0797868
0.0782508
0.0766166
0.0749004
0.0731178
0.0712835
0.0694113
0.0675142
0.0656039
0.0636914
0.0617863
0.0598974
0.0580324
0.0561977
0.0543993
0.0526413
0.0509285
0.0492623
0.0476477
0.0460813
0.044572
0.0431016
0.0416914
0.083474
0.083195
0.0826672
0.0819187
0.0809759
0.0798635
0.078604
0.0772175
0.0757225
0.0741364
0.0724754
0.0707549
0.068989
0.0671912
0.0653736
0.0635476
0.0617231
0.0599093
0.0581139
0.0563441
0.0546056
0.0529038
0.0512422
0.049625
0.0480533
0.0465316
0.0450565
0.043636
0.0422532
0.0409275
0.0808512
0.0805769
0.0800588
0.0793247
0.0784016
0.0773146
0.0760865
0.0747379
0.0732876
0.0717527
0.0701494
0.0684926
0.0667963
0.0650731
0.0633347
0.0615917
0.0598534
0.0581282
0.0564233
0.0547452
0.0530988
0.0514891
0.0499191
0.0483926
0.0469104
0.0454763
0.0440872
0.0427502
0.0414498
0.0402035
0.0783016
0.0780332
0.0775266
0.0768097
0.0759093
0.0748509
0.0736576
0.0723501
0.070947
0.0694657
0.0679217
0.0663299
0.0647034
0.0630546
0.0613944
0.0597328
0.0580785
0.0564392
0.0548215
0.0532312
0.051673
0.0501511
0.0486682
0.0472276
0.0458299
0.0444785
0.0431704
0.0419118
0.0406888
0.0395169
0.0758306
0.075569
0.0750755
0.0743778
0.0735027
0.0724756
0.0713196
0.0700554
0.0687018
0.0672755
0.0657919
0.0642654
0.0627086
0.0611334
0.05955
0.0579679
0.056395
0.0548386
0.0533047
0.0517986
0.0503244
0.048886
0.0474856
0.0461263
0.0448084
0.0435349
0.042303
0.0411183
0.0399678
0.0388658
0.0734431
0.0731889
0.0727099
0.0720331
0.0711852
0.0701914
0.0690747
0.0678556
0.0665526
0.0651822
0.0637595
0.0622981
0.0608104
0.0593074
0.0577991
0.0562941
0.0548
0.0533234
0.0518697
0.050444
0.0490498
0.0476905
0.0463684
0.0450858
0.0438431
0.042643
0.0414827
0.0403672
0.0392848
0.0382482
0.0711437
0.0708976
0.0704339
0.0697794
0.0689601
0.068001
0.0669249
0.065752
0.0645003
0.0631862
0.061824
0.0604271
0.0590072
0.0575749
0.0561395
0.054709
0.0532907
0.0518905
0.0505136