/*--------------------------------*- C++ -*----------------------------------*\
  =========                 |
  \\      /  F ield         | OpenFOAM: The Open Source CFD Toolbox
   \\    /   O peration     | Website:  https://openfoam.org
    \\  /    A nd           | Version:  7
     \\/     M anipulation  |
\*---------------------------------------------------------------------------*/
FoamFile
{
    version     2.0;
    format      ascii;
    class       surfaceScalarField;
    location    "5";
    object      phi;
}
// * * * * * * * * * * * * * * * * * * * * * * * * * * * * * * * * * * * * * //

dimensions      [0 3 -1 0 0 0 0];

internalField   nonuniform List<scalar> 
10040
(
-2.88788e-06
2.88784e-06
3.38797e-11
-1.01229e-05
7.2349e-06
8.9161e-11
-2.0764e-05
1.0641e-05
1.35696e-10
-3.39087e-05
1.31445e-05
1.77014e-10
-4.86998e-05
1.47909e-05
2.17282e-10
-6.43489e-05
1.56488e-05
2.5869e-10
-8.01649e-05
1.58158e-05
3.02742e-10
-9.55951e-05
1.54298e-05
3.49085e-10
-0.000110278
1.46829e-05
3.96818e-10
-0.000124104
1.38248e-05
4.44942e-10
-0.00013722
1.3116e-05
4.91183e-10
1.29279e-05
5.3468e-10
-0.000150148
-2.84154e-06
5.72938e-06
-9.94373e-06
1.43371e-05
-2.03612e-05
2.10584e-05
-3.31835e-05
2.59669e-05
-4.75423e-05
2.91497e-05
-6.26339e-05
3.07404e-05
-7.77477e-05
3.09295e-05
-9.23069e-05
2.9989e-05
-0.000105924
2.82996e-05
-0.00011846
2.6361e-05
-0.000130043
2.4699e-05
2.40602e-05
-0.000141175
-2.7496e-06
8.47898e-06
-9.58798e-06
2.11755e-05
-1.95607e-05
3.10312e-05
-3.17421e-05
3.81483e-05
-4.52413e-05
4.26488e-05
-5.92243e-05
4.47234e-05
-7.29416e-05
4.46469e-05
-8.57691e-05
4.28165e-05
-9.72647e-05
3.97952e-05
-0.000107237
3.63329e-05
-0.000115768
3.32302e-05
3.16144e-05
-0.000123322
-2.6135e-06
1.10925e-05
-9.06049e-06
2.76225e-05
-1.83729e-05
4.03436e-05
-2.9602e-05
4.93773e-05
-4.18238e-05
5.48706e-05
-5.41596e-05
5.70593e-05
-6.58024e-05
5.62897e-05
-7.60571e-05
5.30711e-05
-8.4401e-05
4.81391e-05
-9.05609e-05
4.24929e-05
-9.45533e-05
3.72226e-05
3.38447e-05
-9.67837e-05
-2.43528e-06
1.35278e-05
-8.36817e-06
3.35554e-05
-1.68121e-05
4.87875e-05
-2.67879e-05
5.93531e-05
-3.73284e-05
6.54111e-05
-4.74967e-05
6.72276e-05
-5.64099e-05
6.52029e-05
-6.32797e-05
5.99409e-05
-6.7476e-05
5.23354e-05
-6.86172e-05
4.36341e-05
-6.66372e-05
3.52425e-05
2.90606e-05
-6.1853e-05
-2.21743e-06
1.57452e-05
-7.51949e-06
3.88574e-05
-1.4896e-05
5.6164e-05
-2.33305e-05
6.77876e-05
-3.18031e-05
7.38837e-05
-3.9306e-05
7.47305e-05
-4.48641e-05
7.07609e-05
-4.75738e-05
6.26506e-05
-4.66707e-05
5.14324e-05
-4.16335e-05
3.85969e-05
-3.2312e-05
2.5921e-05
1.57972e-05
-1.90487e-05
-1.9627e-06
1.77079e-05
-6.52392e-06
4.34186e-05
-1.26446e-05
6.22847e-05
-1.92642e-05
7.44072e-05
-2.53021e-05
7.99216e-05
-2.96682e-05
7.90966e-05
-3.128e-05
7.23728e-05
-2.90986e-05
6.04692e-05
-2.21992e-05
4.4533e-05
-9.87977e-06
2.62774e-05
8.25034e-06
7.79088e-06
-7.47885e-06
3.15264e-05
-1.67394e-06
1.93818e-05
-5.39125e-06
4.71359e-05
-1.00785e-05
6.69719e-05
-1.46254e-05
7.89541e-05
-1.78827e-05
8.3179e-05
-1.86691e-05
7.9883e-05
-1.57819e-05
6.94855e-05
-8.02833e-06
5.27157e-05
5.70205e-06
3.08026e-05
2.63015e-05
5.67798e-06
5.42408e-05
-2.01484e-05
-4.25629e-05
8.93248e-05
-1.35387e-06
2.07357e-05
-4.13098e-06
4.99131e-05
-7.21812e-06
7.00591e-05
-9.4496e-06
8.11856e-05
-9.60204e-06
8.33314e-05
-6.39504e-06
7.6676e-05
1.5045e-06
6.15859e-05
1.5458e-05
3.87621e-05
3.67863e-05
9.47427e-06
6.6615e-05
-2.41507e-05
0.000105635
-5.91686e-05
-9.06218e-05
0.000153694
-1.00489e-06
2.17406e-05
-2.75168e-06
5.16599e-05
-4.08197e-06
7.13894e-05
-3.76992e-06
8.08735e-05
-5.13162e-07
8.00747e-05
7.07247e-06
6.90904e-05
2.04576e-05
4.82008e-05
4.11846e-05
1.80352e-05
7.08055e-05
-2.01467e-05
0.000110718
-6.40631e-05
0.000161869
-0.000110319
-0.000152941
0.000224188
-6.28942e-07
2.23695e-05
-1.26049e-06
5.22914e-05
-6.85795e-07
7.08147e-05
2.38515e-06
7.78026e-05
9.33708e-06
7.31227e-05
2.1661e-05
5.67665e-05
4.09679e-05
2.8894e-05
6.89872e-05
-9.98415e-06
0.000107519
-5.86789e-05
0.00015827
-0.000114813
0.000222497
-0.000174547
-0.000230712
0.000300268
-2.2747e-07
2.2597e-05
3.37169e-07
5.17268e-05
2.95787e-06
6.8194e-05
8.99292e-06
7.17675e-05
1.99114e-05
6.22042e-05
3.73114e-05
3.93665e-05
6.2943e-05
3.26243e-06
9.87229e-05
-4.57641e-05
0.000146709
-0.000106665
0.000208946
-0.000177051
0.000287078
-0.000252679
-0.000325024
0.00038139
1.99069e-07
2.23979e-05
2.03757e-06
4.98883e-05
6.84047e-06
6.33911e-05
1.60369e-05
6.25711e-05
3.11821e-05
4.7059e-05
5.39796e-05
1.65691e-05
8.63128e-05
-2.90709e-05
0.000130278
-8.9729e-05
0.000188186
-0.000164573
0.00026245
-0.000251315
0.000355177
-0.000345405
-0.000436852
0.000467005
6.49975e-07
2.1748e-05
3.83903e-06
4.66992e-05
1.09565e-05
5.62736e-05
2.35064e-05
5.00211e-05
4.31312e-05
2.74343e-05
7.1637e-05
-1.19367e-05
0.000111032
-6.84655e-05
0.000163573
-0.00014227
0.000231809
-0.000232809
0.000318526
-0.000338032
0.000426379
-0.000453258
-0.00056703
0.000556557
1.12574e-06
2.06222e-05
5.74053e-06
4.20844e-05
1.53025e-05
4.67116e-05
3.13943e-05
3.39294e-05
5.57474e-05
3.08116e-06
9.02679e-05
-4.64573e-05
0.000137076
-0.000115274
0.000198567
-0.000203761
0.000277486
-0.000311729
0.000376973
-0.000437519
0.000500304
-0.000576588
-0.00071621
0.000649483
1.62659e-06
1.89956e-05
7.74146e-06
3.59695e-05
1.98756e-05
3.45775e-05
3.96943e-05
1.41107e-05
6.90217e-05
-2.62463e-05
0.000109863
-8.72986e-05
0.00016444
-0.000169851
0.000235252
-0.000274573
0.000325187
-0.000401664
0.000437672
-0.000550004
0.000576629
-0.000715545
-0.000884796
0.000745215
2.15267e-06
1.6843e-05
9.84042e-06
2.82818e-05
2.46705e-05
1.97474e-05
4.83964e-05
-9.61518e-06
8.29402e-05
-6.079e-05
0.000130409
-0.000134767
0.000193119
-0.000232561
0.000273645
-0.000355099
0.000374943
-0.000502962
0.000500607
-0.000675667
0.000655137
-0.000870076
-0.00107285
0.000843191
2.70359e-06
1.41394e-05
1.2034e-05
1.89514e-05
2.96777e-05
2.10362e-06
5.7482e-05
-3.74195e-05
9.74747e-05
-0.000100783
0.000151873
-0.000189165
0.000223091
-0.000303779
0.000313761
-0.000445769
0.000426829
-0.00061603
0.000565891
-0.000814729
0.00073579
-0.00103997
-0.00127996
0.000942896
3.27812e-06
1.08613e-05
1.43155e-05
7.91399e-06
3.48802e-05
-1.84611e-05
6.69184e-05
-6.94577e-05
0.000112573
-0.000146437
0.000174184
-0.000250777
0.000254283
-0.000383877
0.000355566
-0.000547052
0.000480926
-0.00074139
0.000633765
-0.000967568
0.000818819
-0.00122503
-0.00150515
0.00104401
3.87394e-06
6.98732e-06
1.66747e-05
-4.88678e-06
4.02518e-05
-4.20381e-05
7.6654e-05
-0.00010586
0.000128148
-0.000197931
0.000197216
-0.000319845
0.000286537
-0.000473199
0.000398927
-0.000659442
0.000537259
-0.000879722
0.0007046
-0.00113491
0.000904786
-0.00142521
-0.00174726
0.0011469
4.48759e-06
2.49973e-06
1.90968e-05
-1.9496e-05
4.57561e-05
-6.86974e-05
8.66165e-05
-0.00014672
0.000144072
-0.000255386
0.000220762
-0.000396535
0.000319561
-0.000571998
0.000443515
-0.000783396
0.000595721
-0.00103193
0.000779111
-0.0013183
0.000995315
-0.00164142
-0.00200512
0.00125317
5.11463e-06
-2.6149e-06
2.15636e-05
-3.5945e-05
5.13479e-05
-9.84816e-05
9.67135e-05
-0.000192086
0.000160174
-0.000318846
0.000244528
-0.000480889
0.000352874
-0.000680344
0.00048863
-0.000919152
0.000655593
-0.00119889
0.000857943
-0.00152065
0.00109698
-0.00188046
-0.00227145
0.00136331
5.75013e-06
-8.36503e-06
2.40549e-05
-5.42498e-05
5.69764e-05
-0.000131403
0.00010684
-0.000241949
0.000176255
-0.000388262
0.000268145
-0.000572779
0.000385797
-0.000797995
0.000532995
-0.00106635
0.000714387
-0.00138028
0.000936596
-0.00174286
0.00121456
-0.00215842
-0.00265974
0.00160285
6.38882e-06
-1.47539e-05
2.65492e-05
-7.44102e-05
6.25885e-05
-0.000167442
0.000116885
-0.000296246
0.000192104
-0.000463481
0.000291221
-0.000671897
0.000417578
-0.000924353
0.000575031
-0.0012238
0.000768322
-0.00157357
0.00100399
-0.00197853
0.00129325
-0.00244767
-0.00301096
0.00164447
7.02621e-06
-2.17801e-05
2.90275e-05
-9.64115e-05
6.81364e-05
-0.000206551
0.000126752
-0.000354861
0.00020754
-0.000544269
0.000313438
-0.000777795
0.00044767
-0.00105858
0.000613812
-0.00138994
0.000815918
-0.00177568
0.00105862
-0.00222122
0.00134695
-0.00273601
-0.00334192
0.0016779
7.65857e-06
-2.94386e-05
3.14736e-05
-0.000120226
7.35795e-05
-0.000248657
0.000136359
-0.00041764
0.000222423
-0.000630333
0.000334577
-0.000889949
0.000475779
-0.00119979
0.000649078
-0.00156324
0.000857485
-0.00198409
0.0011035
-0.00246724
0.00138787
-0.00302037
-0.00365776
0.00170371
8.28312e-06
-3.77218e-05
3.38744e-05
-0.000145818
7.88851e-05
-0.000293668
0.000145644
-0.000484399
0.000236652
-0.00072134
0.000354504
-0.0010078
0.000501783
-0.00134707
0.000680885
-0.00174234
0.000893708
-0.00219691
0.00114094
-0.00271448
0.00142066
-0.00330009
-0.00396164
0.00172454
8.89783e-06
3.62194e-05
-0.000173139
8.40267e-05
-0.000341475
0.000154558
-0.000554931
0.000250154
-0.000816935
0.000373135
-0.00113078
0.000525638
-0.00149957
0.000709359
-0.00192607
0.000925141
-0.00241269
0.00117223
-0.00296156
0.00144703
-0.00357489
-0.00425549
0.00174089
3.84996e-05
8.89813e-05
-0.000391957
0.000163059
-0.000629009
0.000262867
-0.000916743
0.000390404
-0.00125832
0.000547317
-0.00165648
0.000734592
-0.00211334
0.000952116
-0.00263022
0.00119799
-0.00320744
0.00146759
-0.00384449
-0.00454015
0.00175225
9.37266e-05
0.000171106
0.000274734
-0.00102037
0.000406245
-0.00138983
0.000566769
-0.001817
0.000756599
-0.00230317
0.00097476
-0.00284838
0.00121844
-0.00345112
0.00148233
-0.00410838
-0.00481569
0.00175787
0.000285688
0.000420576
-0.00152472
0.000583912
-0.00198034
0.000775316
-0.00249457
0.000993039
-0.0030661
0.00123352
-0.00369161
0.00149097
-0.00436583
-0.00508169
0.00175697
0.000433296
0.000598629
-0.00214567
0.000790619
-0.00268656
0.00100681
-0.00328229
0.00124303
-0.00392782
0.00149314
-0.00461594
-0.00533744
0.00174889
0.000610773
0.000802337
0.00101589
-0.00349584
0.00124672
-0.00415866
0.00148846
-0.00485768
-0.00558208
0.00173309
0.00102004
0.00124433
-0.00438294
0.00147662
-0.00508997
-0.00581465
0.0017092
0.00123567
0.00145744
-0.00603424
0.00167703
0.00163653
0.00603424
0.00163653
0.00123567
0.00438294
0.00145744
0.00508997
0.00581465
0.00167703
0.00102004
0.00349584
0.00124433
0.00415866
0.00147662
0.00485768
0.00558208
0.0017092
0.000610773
0.00214567
0.000802337
0.00268657
0.00101589
0.00328229
0.00124672
0.00392783
0.00148846
0.00461594
0.00533744
0.00173309
0.000433296
0.00152472
0.000598629
0.00198034
0.000790619
0.00249458
0.00100681
0.0030661
0.00124303
0.00369161
0.00149314
0.00436583
0.00508169
0.00174889
0.000178655
0.00070639
0.000285689
0.00102037
0.000420576
0.00138983
0.000583913
0.001817
0.000775317
0.00230317
0.000993039
0.00284838
0.00123352
0.00345112
0.00149097
0.00410838
0.00481569
0.00175697
9.37266e-05
0.000391957
0.000171106
0.00062901
0.000274734
0.000916744
0.000406245
0.00125832
0.000566769
0.00165648
0.000756599
0.00211334
0.00097476
0.00263022
0.00121844
0.00320744
0.00148233
0.00384449
0.00454015
0.00175787
3.84996e-05
0.00017314
8.89814e-05
0.000341476
0.000163059
0.000554932
0.000262867
0.000816936
0.000390404
0.00113078
0.000547317
0.00149957
0.000734592
0.00192607
0.000952116
0.00241269
0.00119799
0.00296156
0.00146759
0.00357489
0.00425549
0.00175225
8.89783e-06
3.77219e-05
3.62195e-05
0.000145818
8.40267e-05
0.000293668
0.000154559
0.0004844
0.000250154
0.00072134
0.000373135
0.0010078
0.000525638
0.00134707
0.00070936
0.00174235
0.000925141
0.00219691
0.00117223
0.00271448
0.00144703
0.00330009
0.00396164
0.00174089
8.28313e-06
2.94387e-05
3.38744e-05
0.000120227
7.88852e-05
0.000248658
0.000145644
0.00041764
0.000236652
0.000630333
0.000354504
0.00088995
0.000501783
0.00119979
0.000680885
0.00156324
0.000893709
0.00198409
0.00114094
0.00246724
0.00142066
0.00302037
0.00365776
0.00172454
7.65858e-06
2.17802e-05
3.14737e-05
9.64117e-05
7.35796e-05
0.000206552
0.000136359
0.000354861
0.000222423
0.000544269
0.000334577
0.000777795
0.000475779
0.00105858
0.000649078
0.00138994
0.000857485
0.00177568
0.0011035
0.00222122
0.00138787
0.00273601
0.00334192
0.00170371
7.02622e-06
1.47539e-05
2.90276e-05
7.44103e-05
6.81365e-05
0.000167443
0.000126752
0.000296246
0.00020754
0.000463481
0.000313438
0.000671897
0.00044767
0.000924353
0.000613812
0.0012238
0.000815919
0.00157357
0.00105862
0.00197853
0.00134695
0.00244767
0.00301096
0.0016779
6.38884e-06
8.3651e-06
2.65492e-05
5.425e-05
6.25885e-05
0.000131403
0.000116885
0.000241949
0.000192104
0.000388262
0.000291221
0.00057278
0.000417578
0.000797996
0.000575031
0.00106635
0.000768322
0.00138028
0.00100399
0.00174286
0.00129325
0.00215842
0.00265974
0.00164447
5.75014e-06
2.61496e-06
2.40549e-05
3.59452e-05
5.69765e-05
9.84818e-05
0.00010684
0.000192086
0.000176255
0.000318847
0.000268145
0.000480889
0.000385797
0.000680344
0.000532995
0.000919152
0.000714387
0.00119889
0.000936596
0.00152065
0.00121456
0.00188046
0.00227145
0.00160285
5.11464e-06
-2.49969e-06
2.15637e-05
1.94961e-05
5.13479e-05
6.86975e-05
9.67136e-05
0.000146721
0.000160174
0.000255386
0.000244528
0.000396535
0.000352874
0.000571998
0.00048863
0.000783396
0.000655593
0.00103193
0.000857944
0.0013183
0.00109698
0.00164142
0.00200512
0.00136331
4.4876e-06
-6.98729e-06
1.90969e-05
4.88687e-06
4.57562e-05
4.20382e-05
8.66166e-05
0.00010586
0.000144072
0.000197931
0.000220762
0.000319845
0.000319561
0.000473199
0.000443515
0.000659442
0.000595721
0.000879722
0.000779111
0.00113491
0.000995316
0.00142521
0.00174726
0.00125317
3.87394e-06
-1.08612e-05
1.66747e-05
-7.91392e-06
4.02518e-05
1.84611e-05
7.66541e-05
6.94577e-05
0.000128148
0.000146437
0.000197216
0.000250777
0.000286537
0.000383877
0.000398927
0.000547052
0.00053726
0.00074139
0.0007046
0.000967568
0.000904786
0.00122503
0.00150515
0.0011469
3.27812e-06
-1.41394e-05
1.43156e-05
-1.89514e-05
3.48803e-05
-2.10356e-06
6.69185e-05
3.74195e-05
0.000112573
0.000100783
0.000174185
0.000189165
0.000254283
0.000303779
0.000355566
0.000445769
0.000480926
0.00061603
0.000633765
0.000814729
0.00081882
0.00103997
0.00127996
0.00104401
2.7036e-06
-1.6843e-05
1.2034e-05
-2.82817e-05
2.96778e-05
-1.97474e-05
5.74821e-05
9.6152e-06
9.74748e-05
6.079e-05
0.000151873
0.000134767
0.000223091
0.000232561
0.000313761
0.000355099
0.000426829
0.000502962
0.000565891
0.000675667
0.00073579
0.000870076
0.00107285
0.000942896
2.15268e-06
-1.89956e-05
9.84044e-06
-3.59695e-05
2.46706e-05
-3.45775e-05
4.83965e-05
-1.41107e-05
8.29403e-05
2.62462e-05
0.000130409
8.72985e-05
0.000193119
0.000169851
0.000273646
0.000274573
0.000374943
0.000401664
0.000500607
0.000550003
0.000655137
0.000715545
0.000884796
0.000843192
1.6266e-06
-2.06222e-05
7.74149e-06
-4.20844e-05
1.98756e-05
-4.67116e-05
3.96943e-05
-3.39294e-05
6.90218e-05
-3.08124e-06
0.000109863
4.64571e-05
0.00016444
0.000115274
0.000235252
0.00020376
0.000325188
0.000311729
0.000437672
0.000437519
0.00057663
0.000576588
0.00071621
0.000745216
1.12574e-06
-2.1748e-05
5.74055e-06
-4.66992e-05
1.53026e-05
-5.62736e-05
3.13944e-05
-5.00212e-05
5.57475e-05
-2.74344e-05
9.02681e-05
1.19366e-05
0.000137076
6.84653e-05
0.000198567
0.00014227
0.000277487
0.000232809
0.000376974
0.000338032
0.000500304
0.000453257
0.00056703
0.000649484
6.49981e-07
-2.23979e-05
3.83906e-06
-4.98883e-05
1.09565e-05
-6.33911e-05
2.35065e-05
-6.25712e-05
4.31313e-05
-4.70592e-05
7.16371e-05
-1.65692e-05
0.000111032
2.90706e-05
0.000163573
8.97287e-05
0.000231809
0.000164573
0.000318526
0.000251315
0.000426379
0.000345404
0.000436852
0.000556557
1.99075e-07
-2.2597e-05
2.0376e-06
-5.17268e-05
6.84052e-06
-6.81941e-05
1.6037e-05
-7.17677e-05
3.11823e-05
-6.22044e-05
5.39797e-05
-3.93667e-05
8.6313e-05
-3.26272e-06
0.000130278
4.57637e-05
0.000188187
0.000106664
0.000262451
0.000177051
0.000355177
0.000252678
0.000325023
0.000467005
-2.27464e-07
-2.23696e-05
3.37191e-07
-5.22915e-05
2.95792e-06
-7.08148e-05
8.99299e-06
-7.78027e-05
1.99115e-05
-7.31229e-05
3.73116e-05
-5.67667e-05
6.29432e-05
-2.88943e-05
9.87231e-05
9.98376e-06
0.000146709
5.86785e-05
0.000208947
0.000114813
0.000287078
0.000174546
0.000230711
0.00038139
-6.28936e-07
-2.17406e-05
-1.26046e-06
-5.16599e-05
-6.85748e-07
-7.13895e-05
2.38523e-06
-8.08737e-05
9.33719e-06
-8.00749e-05
2.16612e-05
-6.90907e-05
4.0968e-05
-4.82012e-05
6.89874e-05
-1.80356e-05
0.00010752
2.01462e-05
0.00015827
6.40626e-05
0.000222498
0.000110319
0.000152941
0.000300268
-1.00488e-06
-2.07357e-05
-2.75166e-06
-4.99131e-05
-4.08193e-06
-7.00592e-05
-3.76985e-06
-8.11858e-05
-5.13058e-07
-8.33317e-05
7.0726e-06
-7.66764e-05
2.04578e-05
-6.15864e-05
4.11848e-05
-3.87626e-05
7.08058e-05
-9.47481e-06
0.000110718
2.41501e-05
0.000161869
5.9168e-05
9.06211e-05
0.000224188
-1.35386e-06
-1.93819e-05
-4.13096e-06
-4.71361e-05
-7.21808e-06
-6.69721e-05
-9.44953e-06
-7.89543e-05
-9.60195e-06
-8.31793e-05
-6.39491e-06
-7.98834e-05
1.50467e-06
-6.94859e-05
1.54582e-05
-5.27162e-05
3.67866e-05
-3.08032e-05
6.66154e-05
-5.67863e-06
0.000105636
2.01477e-05
4.25621e-05
0.000153695
-1.67394e-06
-1.77079e-05
-5.39123e-06
-4.34188e-05
-1.00785e-05
-6.22849e-05
-1.46253e-05
-7.44075e-05
-1.78826e-05
-7.99219e-05
-1.8669e-05
-7.90971e-05
-1.57817e-05
-7.23732e-05
-8.02814e-06
-6.04697e-05
5.70229e-06
-4.45336e-05
2.63018e-05
-2.62781e-05
5.42412e-05
-7.79166e-06
7.47802e-06
8.93253e-05
-1.9627e-06
-1.57452e-05
-6.5239e-06
-3.88576e-05
-1.26445e-05
-5.61643e-05
-1.92642e-05
-6.77879e-05
-2.5302e-05
-7.38841e-05
-2.96681e-05
-7.4731e-05
-3.12799e-05
-7.07615e-05
-2.90985e-05
-6.26512e-05
-2.2199e-05
-5.14331e-05
-9.87951e-06
-3.85976e-05
8.25065e-06
-2.59218e-05
-1.57981e-05
3.15268e-05
-2.21742e-06
-1.35278e-05
-7.51948e-06
-3.35555e-05
-1.4896e-05
-4.87877e-05
-2.33304e-05
-5.93534e-05
-3.1803e-05
-6.54115e-05
-3.93059e-05
-6.72281e-05
-4.48639e-05
-6.52034e-05
-4.75736e-05
-5.99415e-05
-4.66705e-05
-5.23361e-05
-4.16333e-05
-4.36349e-05
-3.23117e-05
-3.52434e-05
-2.90615e-05
-1.90484e-05
-2.43528e-06
-1.10925e-05
-8.36815e-06
-2.76226e-05
-1.68121e-05
-4.03438e-05
-2.67878e-05
-4.93777e-05
-3.73283e-05
-5.4871e-05
-4.74966e-05
-5.70598e-05
-5.64098e-05
-5.62902e-05
-6.32795e-05
-5.30718e-05
-6.74758e-05
-4.81398e-05
-6.8617e-05
-4.24937e-05
-6.66369e-05
-3.72235e-05
-3.38457e-05
-6.18527e-05
-2.6135e-06
-8.47904e-06
-9.06048e-06
-2.11756e-05
-1.83729e-05
-3.10314e-05
-2.96019e-05
-3.81486e-05
-4.18237e-05
-4.26492e-05
-5.41596e-05
-4.47239e-05
-6.58024e-05
-4.46475e-05
-7.6057e-05
-4.28171e-05
-8.44009e-05
-3.9796e-05
-9.05608e-05
-3.63338e-05
-9.45531e-05
-3.32311e-05
-3.16154e-05
-9.67835e-05
-2.7496e-06
-5.72945e-06
-9.58797e-06
-1.43373e-05
-1.95607e-05
-2.10587e-05
-3.17421e-05
-2.59672e-05
-4.52412e-05
-2.91501e-05
-5.92242e-05
-3.07409e-05
-7.29416e-05
-3.09301e-05
-8.5769e-05
-2.99897e-05
-9.72646e-05
-2.83003e-05
-0.000107237
-2.63619e-05
-0.000115768
-2.47e-05
-2.40612e-05
-0.000123322
-2.84154e-06
-2.88791e-06
-9.94373e-06
-7.23508e-06
-2.03611e-05
-1.06412e-05
-3.31835e-05
-1.31449e-05
-4.75423e-05
-1.47913e-05
-6.26339e-05
-1.56493e-05
-7.77476e-05
-1.58164e-05
-9.23068e-05
-1.54305e-05
-0.000105924
-1.46836e-05
-0.00011846
-1.38257e-05
-0.000130043
-1.31169e-05
-1.2929e-05
-0.000141175
-2.88788e-06
-1.01229e-05
-2.0764e-05
-3.39087e-05
-4.86998e-05
-6.43489e-05
-8.01649e-05
-9.5595e-05
-0.000110278
-0.000124104
-0.00013722
-0.000150148
-0.000155998
5.84923e-06
6.76433e-10
-0.000156567
5.67916e-07
7.24222e-10
-0.000150623
-5.94448e-06
6.9026e-10
-0.000136539
-1.40847e-05
6.61014e-10
-0.000113249
-2.32909e-05
6.05691e-10
-8.00796e-05
-3.31698e-05
5.13682e-10
-3.66113e-05
-4.34687e-05
3.80682e-10
1.73914e-05
-5.40029e-05
2.04721e-10
8.20506e-05
-6.46591e-05
-1.65788e-11
0.000157417
-7.53663e-05
-2.81692e-10
0.000243487
-8.60696e-05
-5.86238e-10
0.000340196
-9.67074e-05
-9.22375e-10
0.000447392
-0.000107195
-1.27875e-09
0.000564808
-0.000117414
-1.64037e-09
0.000692023
-0.000127213
-1.98658e-09
0.000828432
-0.000136407
-2.29696e-09
0.000973225
-0.00014479
-2.5489e-09
0.00112537
-0.00015214
-2.71926e-09
0.00128361
-0.000158241
-2.79126e-09
0.00144648
-0.000162862
-2.7481e-09
0.0016123
-0.000165825
-2.58921e-09
0.00177917
-0.000166864
-2.32057e-09
0.00194508
-0.00016591
-1.95814e-09
0.00210759
-0.00016251
-1.53245e-09
0.00226456
-0.000156962
-1.08066e-09
0.00241274
-0.000148187
-6.48967e-10
0.00255059
-0.000137844
-2.60724e-10
0.00267352
-0.000122931
3.93935e-11
0.00278308
-0.00010956
2.62074e-10
0.00287129
-8.82113e-05
3.89297e-10
0.0029494
-7.81101e-05
4.48736e-10
-4.88904e-05
4.48534e-10
-0.00014664
1.13138e-05
-0.000146759
6.87023e-07
-0.000140413
-1.22902e-05
-0.000125974
-2.85242e-05
-0.0001024
-4.68642e-05
-6.90387e-05
-6.65314e-05
-2.54797e-05
-8.70276e-05
2.85072e-05
-0.00010799
9.30444e-05
-0.000129196
0.000168187
-0.000150509
0.000253938
-0.00017182
0.000350239
-0.000193009
0.000456949
-0.000213905
0.00057381
-0.000234275
0.00070041
-0.000253814
0.000836156
-0.000272153
0.000980248
-0.000288882
0.00113167
-0.000303557
0.00128917
-0.000315748
0.0014513
-0.000324991
0.00161641
-0.000330932
0.00178258
-0.000333038
0.00194785
-0.000331174
0.00210977
-0.000324429
0.00226621
-0.000313403
0.00241395
-0.000295932
0.00255144
-0.000275334
0.00267411
-0.000245601
0.0027835
-0.000218952
0.00287164
-0.00017635
0.00294975
-0.000156215
-9.78887e-05
-0.000128031
1.60229e-05
-0.000127265
-7.95226e-08
-0.000120131
-1.94234e-05
-0.000104987
-4.36688e-05
-8.08563e-05
-7.09947e-05
-4.71187e-05
-0.000100269
-3.3852e-06
-0.000130761
5.05621e-05
-0.000161937
0.00011485
-0.000193484
0.000189542
-0.000225201
0.000274653
-0.000256931
0.000370142
-0.000288498
0.000475885
-0.000319648
0.000591642
-0.000350032
0.000717021
-0.000379193
0.00085145
-0.000406582
0.000994153
-0.000431585
0.00114413
-0.000453536
0.00130018
-0.000471793
0.00146085
-0.000485662
0.00162453
-0.000494611
0.00178933
-0.000497844
0.00195331
-0.000495155
0.00211406
-0.000485177
0.00226947
-0.00046881
0.00241634
-0.000442801
0.00255313
-0.000412124
0.00267529
-0.000367758
0.00278434
-0.000328011
0.00287234
-0.000264349
0.00295044
-0.000234313
-0.000147105
-0.000100315
1.95537e-05
-9.83988e-05
-1.99525e-06
-9.00365e-05
-2.77857e-05
-7.38596e-05
-5.98456e-05
-4.89166e-05
-9.59377e-05
-1.46373e-05
-0.000134548
2.93338e-05
-0.000174732
8.32073e-05
-0.000215811
0.00014711
-0.000257387
0.000221119
-0.00029921
0.00030527
-0.000341083
0.000399545
-0.000382773
0.000503847
-0.00042395
0.000617963
-0.000464147
0.000741531
-0.000502761
0.00087401
-0.000539061
0.00101466
-0.000572231
0.00116251
-0.000601389
0.0013164
-0.00062568
0.00147491
-0.00064418
0.00163649
-0.000656185
0.00179927
-0.000660629
0.00196136
-0.000657243
0.00212038
-0.000644197
0.00227426
-0.000622693
0.00241984
-0.000588381
0.0025556
-0.000547884
0.002677
-0.000489159
0.00278558
-0.000436585
0.00287337
-0.000352146
0.00295147
-0.000312407
-0.000196652
-6.39141e-05
2.16148e-05
-6.03938e-05
-5.5155e-06
-5.05083e-05
-3.76712e-05
-3.29984e-05
-7.73556e-05
-7.01518e-06
-0.000121921
2.79396e-05
-0.000169503
7.21911e-05
-0.000218984
0.000125933
-0.000269553
0.000189299
-0.000320753
0.000262385
-0.000372295
0.000345254
-0.000423952
0.00043792
-0.00047544
0.00054032
-0.00052635
0.000652277
-0.000576104
0.000773467
-0.000623951
0.00090339
-0.000668984
0.00104135
-0.000710187
0.00118642
-0.000746463
0.00133749
-0.000776748
0.0014932
-0.000799891
0.00165203
-0.000815012
0.00181218
-0.000820782
0.0019718
-0.000816865
0.00212857
-0.000800969
0.00228047
-0.000774592
0.00242437
-0.000732283
0.0025588
-0.000682307
0.00267922
-0.000609584
0.00278717
-0.000544532
0.00287471
-0.000439691
0.00295281
-0.000390508
-0.000246645
-1.90306e-05
2.15967e-05
-1.3728e-05
-1.08181e-05
-1.98371e-06
-4.94154e-05
1.7077e-05
-9.64164e-05
4.42782e-05
-0.000149122
8.0015e-05
-0.00020524
0.000124556
-0.000263525
0.000178084
-0.000323081
0.000240742
-0.000383411
0.000312654
-0.000444207
0.000393918
-0.000505216
0.000484588
-0.000566109
0.00058464
-0.000626402
0.000693944
-0.000685407
0.00081222
-0.000742228
0.000939019
-0.000795782
0.00107369
-0.00084486
0.00121538
-0.000888152
0.00136302
-0.000924387
0.00151532
-0.000952188
0.00167081
-0.000970506
0.00182777
-0.000977741
0.0019844
-0.000973497
0.00213845
-0.000955014
0.00228795
-0.000924091
0.00242982
-0.000874158
0.00256263
-0.000815115
0.00268188
-0.000728832
0.00278908
-0.000651733
0.00287633
-0.000526946
0.00295446
-0.000468636
-0.000297204
3.35263e-05
1.95969e-05
4.10427e-05
-1.83345e-05
5.48432e-05
-6.3216e-05
7.57353e-05
-0.000117308
0.000104306
-0.000177693
0.000140878
-0.000241812
0.000185676
-0.000308323
0.000238872
-0.000376277
0.000300629
-0.000445167
0.000371105
-0.000514683
0.00045044
-0.000584551
0.000538734
-0.000654404
0.000636015
-0.000723683
0.000742199
-0.000791591
0.000857064
-0.000857093
0.000980214
-0.000918932
0.00111106
-0.000975709
0.00124882
-0.0010259
0.00139247
-0.00106804
0.00154081
-0.00110053
0.00169245
-0.00112214
0.00184571
-0.001131
0.00199888
-0.00112667
0.00214978
-0.00110591
0.00229651
-0.00107082
0.00243604
-0.00101369
0.00256699
-0.000946066
0.0026849
-0.000846734
0.00279125
-0.00075809
0.0028782
-0.000613891
0.00295638
-0.000546823
-0.000348454
9.33329e-05
1.55889e-05
0.000103341
-2.83423e-05
0.00011945
-7.93249e-05
0.000142293
-0.000140152
0.000172313
-0.000207712
0.000209721
-0.000279221
0.000254695
-0.000353297
0.000307404
-0.000428987
0.00036804
-0.000505803
0.000436802
-0.000583445
0.000513883
-0.000661632
0.000599435
-0.000739957
0.000693541
-0.000817789
0.000796175
-0.000894225
0.000907172
-0.00096809
0.0010262
-0.00103796
0.00115274
-0.00110225
0.00128607
-0.00115923
0.00142526
-0.00120724
0.00156917
-0.00124444
0.00171648
-0.00126945
0.00186561
-0.00128014
0.00201493
-0.00127599
0.00216231
-0.00125329
0.00230595
-0.00121445
0.00244288
-0.00115063
0.00257178
-0.00107496
0.00268819
-0.000963154
0.00279363
-0.000863528
0.00288026
-0.000700521
0.00295856
-0.000625116
-0.000400528
0.000159993
9.28951e-06
0.00017256
-4.09087e-05
0.000191108
-9.78728e-05
0.000215996
-0.000165041
0.000247479
-0.000239195
0.00028566
-0.000317401
0.000330672
-0.000398309
0.000382696
-0.00048101
0.00044196
-0.000565066
0.000508718
-0.000650202
0.000583219
-0.000736134
0.000665677
-0.000822415
0.000756233
-0.000908344
0.000854922
-0.000992914
0.000961644
-0.00107481
0.00107613
-0.00115245
0.00119795
-0.00122406
0.00132643
-0.00128772
0.00146074
-0.00134155
0.00159981
-0.00138351
0.00174242
-0.00141205
0.00188706
-0.00142478
0.00203218
-0.00142111
0.00217576
-0.00139687
0.00231605
-0.00135475
0.00245017
-0.00128475
0.00257685
-0.00120163
0.00269168
-0.00107799
0.00279615
-0.000968002
0.00288249
-0.000786855
0.00296095
-0.000703575
-0.000453564
0.000232857
6.20046e-07
0.000248046
-5.60976e-05
0.000269102
-0.000118929
0.000296053
-0.000191991
0.000328938
-0.00027208
0.000367753
-0.000356216
0.000412604
-0.00044316
0.000463695
-0.000532102
0.000521307
-0.000622678
0.000585755
-0.000714651
0.000657355
-0.000807733
0.000736382
-0.000901442
0.000823041
-0.000995004
0.000917433
-0.00108731
0.00101952
-0.0011769
0.00112912
-0.00126205
0.00124585
-0.00134079
0.00136914
-0.00141101
0.00149823
-0.00147064
0.00163215
-0.00151742
0.00176974
-0.00154965
0.00190961
-0.00156464
0.00205028
-0.00156179
0.00218982
-0.0015364
0.00232657
-0.0014915
0.00245772
-0.00141591
0.00258207
-0.00132598
0.00269525
-0.00119118
0.00279875
-0.0010715
0.00288482
-0.000872932
0.00296353
-0.000782276
-0.000507708
0.00031133
-1.04423e-05
0.000329144
-7.39114e-05
0.000352704
-0.000142489
0.000381649
-0.000220936
0.000415787
-0.000306217
0.000455017
-0.000395446
0.000499439
-0.000487582
0.0005493
-0.000581964
0.000604948
-0.000678325
0.000666769
-0.000776472
0.000735149
-0.000876113
0.000810429
-0.000976722
0.000892879
-0.00107745
0.000982665
-0.00117709
0.00107982
-0.00127406
0.00118423
-0.00136645
0.00129559
-0.00145215
0.00141342
-0.00152884
0.00153704
-0.00159426
0.00166556
-0.00164594
0.00179792
-0.00168201
0.0019328
-0.00169953
0.00206884
-0.00169783
0.00220418
-0.00167173
0.00233726
-0.00162458
0.00246534
-0.00154399
0.0025873
-0.00144793
0.00269881
-0.00130269
0.00280134
-0.00117403
0.00288722
-0.000958812
0.00296626
-0.000861313
-0.000563112
0.000394824
-2.38761e-05
0.000415207
-9.4295e-05
0.000441186
-0.000168468
0.000471964
-0.000251714
0.000507103
-0.000341357
0.000546439
-0.000434782
0.000590092
-0.000531235
0.000638378
-0.000630249
0.000691721
-0.000731669
0.000750589
-0.00083534
0.000815438
-0.000940961
0.000886678
-0.00104796
0.000964643
-0.00115542
0.00104956
-0.00126201
0.00114154
-0.00136604
0.00124053
-0.00146544
0.00134632
-0.00155794
0.00145849
-0.00164101
0.00157646
-0.00171223
0.00169942
-0.0017689
0.0018264
-0.001809
0.00195618
-0.00182931
0.00208748
-0.00182912
0.00221853
-0.00180278
0.00234787
-0.00175392
0.00247284
-0.00166897
0.00259239
-0.00156747
0.00270224
-0.00141254
0.00280385
-0.00127564
0.00288962
-0.00104458
0.0029691
-0.000940795
-0.000619938
0.000482766
-3.96374e-05
0.000505612
-0.000117141
0.000533833
-0.000196689
0.000566171
-0.000284052
0.000601952
-0.000377137
0.000640987
-0.000473817
0.00068346
-0.000573708
0.000729776
-0.000676565
0.000780451
-0.000782344
0.000836035
-0.000890924
0.000897056
-0.00100198
0.00096399
-0.0011149
0.00103723
-0.00122866
0.00111708
-0.00134186
0.0012037
-0.00145266
0.00129711
-0.00155886
0.00139718
-0.001658
0.00150358
-0.0017474
0.0016158
-0.00182445
0.00173311
-0.00188622
0.00185466
-0.00193054
0.00197929
-0.00195394
0.00210581
-0.00195565
0.00223255
-0.00192952
0.00235815
-0.00187952
0.00248003
-0.00179085
0.00259719
-0.00168463
0.00270544
-0.0015208
0.00280621
-0.0013764
0.00289197
-0.00113034
0.00297203
-0.00102085
-0.000678352
0.000574608
-5.76884e-05
0.000599767
-0.0001423
0.000629949
-0.00022687
0.000663448
-0.000317551
0.000699386
-0.000413076
0.000737616
-0.000512046
0.000778427
-0.000614519
0.000822337
-0.000720475
0.000869963
-0.00082997
0.000921935
-0.000942896
0.000978851
-0.0010589
0.00104125
-0.00117729
0.00110958
-0.00129699
0.00118419
-0.00141647
0.00126533
-0.00153379
0.00135307
-0.0016466
0.00144736
-0.00175229
0.00154793
-0.00184798
0.00165438
-0.00193089
0.00176606
-0.00199789
0.00188218