/*--------------------------------*- C++ -*----------------------------------*\
  =========                 |
  \\      /  F ield         | OpenFOAM: The Open Source CFD Toolbox
   \\    /   O peration     | Website:  https://openfoam.org
    \\  /    A nd           | Version:  7
     \\/     M anipulation  |
\*---------------------------------------------------------------------------*/
FoamFile
{
    version     2.0;
    format      ascii;
    class       surfaceScalarField;
    location    "85";
    object      phi;
}
// * * * * * * * * * * * * * * * * * * * * * * * * * * * * * * * * * * * * * //

dimensions      [0 3 -1 0 0 0 0];

internalField   nonuniform List<scalar> 
16730
(
-0.00369561
-0.000608391
-0.000585439
-0.00354598
-0.00364372
-0.000637324
-0.000559853
-0.0034038
-0.000612316
-0.00349352
-0.00359026
-0.000665783
-0.00053267
-0.00327067
-0.000584732
-0.00335174
-0.000638689
-0.00343956
-0.00353519
-0.000693752
-0.000555801
-0.00321921
-0.000609129
-0.00329841
-0.000664547
-0.00338415
-0.00347854
-0.000721197
-0.000525864
-0.00309435
-0.000578509
-0.00316656
-0.000633051
-0.00324387
-0.000689887
-0.00332731
-0.00342032
-0.000748116
-0.000494721
-0.00297569
-0.000546992
-0.00304208
-0.000600805
-0.00311275
-0.000656515
-0.00318816
-0.000714726
-0.0032691
-0.00336045
-0.000774592
-0.000514265
-0.00292361
-0.00056773
-0.00298862
-0.000622705
-0.00305778
-0.000679559
-0.0031313
-0.000739073
-0.00320958
-0.00329892
-0.000800598
-0.000480148
-0.00281053
-0.000533416
-0.00287034
-0.000588074
-0.00293396
-0.000644233
-0.00300162
-0.000702255
-0.00307328
-0.000762855
-0.00314898
-0.00323576
-0.00082602
-0.000497724
-0.00275743
-0.000552164
-0.0028159
-0.000608012
-0.00287811
-0.000665392
-0.00294424
-0.00072465
-0.00301402
-0.00078657
-0.00308706
-0.0031725
-0.000849826
-0.000460663
-0.00264958
-0.000514898
-0.0027032
-0.000570489
-0.00276031
-0.000627518
-0.00282108
-0.000686141
-0.00288561
-0.000746427
-0.00295374
-0.000807367
-0.00302612
-0.00310585
-0.000874017
-0.000422287
-0.00254641
-0.000476332
-0.00259554
-0.000531676
-0.00264785
-0.000588392
-0.00270359
-0.000646574
-0.0027629
-0.000706361
-0.00282583
-0.00076776
-0.00289234
-0.000830715
-0.00296317
-0.00303879
-0.000897777
-0.0004365
-0.00249255
-0.000491619
-0.00254042
-0.000548047
-0.00259142
-0.00060586
-0.00264578
-0.000665156
-0.0027036
-0.000726054
-0.00276493
-0.000788599
-0.00282979
-0.000853027
-0.00289874
-0.00297129
-0.000920523
-0.000395447
-0.00239356
-0.000450355
-0.00243764
-0.000506523
-0.00248425
-0.000564008
-0.00253394
-0.000622889
-0.0025869
-0.000683262
-0.00264323
-0.000745236
-0.00270296
-0.000808891
-0.00276614
-0.000874493
-0.00283314
-0.00290316
-0.000942625
-0.000407919
-0.00233887
-0.000463847
-0.00238171
-0.000521039
-0.00242706
-0.000579554
-0.00247542
-0.000639474
-0.00252698
-0.000700893
-0.00258181
-0.00076391
-0.00263994
-0.000828623
-0.00270142
-0.000895256
-0.00276651
-0.00283431
-0.000964111
-0.000420054
-0.00228319
-0.000476977
-0.00232479
-0.000535166
-0.00236887
-0.000594685
-0.0024159
-0.000655615
-0.00246605
-0.000718047
-0.00251938
-0.000782076
-0.00257591
-0.000847802
-0.0026357
-0.000915399
-0.00269891
-0.00276468
-0.000985029
-0.000375195
-0.00218755
-0.000431849
-0.00222654
-0.000489741
-0.00226689
-0.000548903
-0.00230971
-0.000609399
-0.00235541
-0.00067131
-0.00240414
-0.000734726
-0.00245597
-0.000799737
-0.0025109
-0.000866438
-0.002569
-0.000934965
-0.00263038
-0.00269423
-0.00100541
-0.000385704
-0.00213122
-0.000443304
-0.00216894
-0.00050214
-0.00220806
-0.000562248
-0.0022496
-0.000623694
-0.00229396
-0.00068656
-0.00234127
-0.000750931
-0.00239159
-0.000816896
-0.00244493
-0.000884542
-0.00250135
-0.00095398
-0.00256095
-0.00262294
-0.00102527
-0.000338638
-0.00203665
-0.000395898
-0.00207396
-0.000454419
-0.00211042
-0.000514172
-0.0021483
-0.0005752
-0.00218858
-0.00063757
-0.00223159
-0.000701363
-0.00227748
-0.000766664
-0.00232629
-0.000833556
-0.00237804
-0.000902123
-0.00243278
-0.000972458
-0.00249061
-0.00255079
-0.00104461
-0.000347613
-0.00197988
-0.000405777
-0.00201579
-0.000465191
-0.002051
-0.000525836
-0.00208766
-0.000587758
-0.00212665
-0.000651025
-0.00216832
-0.000715719
-0.00221279
-0.000781924
-0.00226009
-0.00084972
-0.00231025
-0.000919186
-0.00236332
-0.000990407
-0.00241939
-0.00247778
-0.00106343
-0.00029863
-0.00188283
-0.0003563
-0.00192221
-0.00041534
-0.00195675
-0.000475621
-0.00199072
-0.000537132
-0.00202615
-0.000599921
-0.00206387
-0.00066406
-0.00210418
-0.000729629
-0.00214722
-0.000796712
-0.00219301
-0.000865388
-0.00224157
-0.000935733
-0.00229297
-0.00100783
-0.00234729
-0.00240389
-0.00108172
-0.000306159
-0.00182596
-0.000364698
-0.00186367
-0.000424587
-0.00189686
-0.000485708
-0.0019296
-0.000548058
-0.0019638
-0.000611688
-0.00200024
-0.000676673
-0.0020392
-0.000743092
-0.0020808
-0.000811028
-0.00212507
-0.000880561
-0.00217204
-0.000951765
-0.00222177
-0.00102472
-0.00227434
-0.00232914
-0.00109947
-0.000313428
-0.00176822
-0.000372807
-0.00180429
-0.000433517
-0.00183615
-0.000495451
-0.00186767
-0.000558614
-0.00190064
-0.000623059
-0.00193579
-0.000688863
-0.0019734
-0.000756107
-0.00201355
-0.000824872
-0.0020563
-0.000895238
-0.00210167
-0.00096728
-0.00214973
-0.00104108
-0.00220054
-0.00225353
-0.00111669
-0.000261846
-0.00166434
-0.000320437
-0.00170963
-0.000380626
-0.0017441
-0.000442129
-0.00177465
-0.000504849
-0.00180495
-0.000568798
-0.00183669
-0.000634033
-0.00187055
-0.00070063
-0.0019068
-0.000768672
-0.00194551
-0.000838241
-0.00198674
-0.000909417
-0.0020305
-0.000982277
-0.00207687
-0.0010569
-0.00212591
-0.00217709
-0.00113335
-0.000267782
-0.00160708
-0.000327185
-0.00165022
-0.000388156
-0.00168313
-0.000450423
-0.00171239
-0.000513903
-0.00174147
-0.000578611
-0.00177198
-0.000644608
-0.00180456
-0.000711973
-0.00183944
-0.000780787
-0.0018767
-0.000851134
-0.00191639
-0.000923097
-0.00195853
-0.000996752
-0.00200321
-0.00107218
-0.00205048
-0.00209982
-0.00114945
-0.000273488
-0.00154899
-0.000333673
-0.00159004
-0.000395395
-0.00162141
-0.000458399
-0.00164938
-0.000522611
-0.00167726
-0.000588051
-0.00170654
-0.000654784
-0.00173782
-0.000722889
-0.00177133
-0.00079245
-0.00180714
-0.000863551
-0.00184529
-0.000936274
-0.00188581
-0.0010107
-0.00192878
-0.00108692
-0.00197427
-0.00202175
-0.00116499
-0.000220081
-0.00143198
-0.000278965
-0.0014901
-0.000339899
-0.0015291
-0.000402344
-0.00155896
-0.000466056
-0.00158567
-0.000530972
-0.00161234
-0.000597118
-0.00164039
-0.000664559
-0.00167038
-0.000733378
-0.00170251
-0.000803659
-0.00173686
-0.000875487
-0.00177346
-0.000948947
-0.00181235
-0.00102412
-0.00185361
-0.0011011
-0.00189729
-0.0019429
-0.00117995
-0.000224567
-0.0013753
-0.000284213
-0.00143046
-0.000345865
-0.00146745
-0.000409001
-0.00149583
-0.000473394
-0.00152128
-0.000538986
-0.00154675
-0.00060581
-0.00157357
-0.000673933
-0.00160226
-0.000743438
-0.00163301
-0.000814412
-0.00166588
-0.000886941
-0.00170093
-0.000961112
-0.00173818
-0.00103701
-0.00177771
-0.00111472
-0.00181957
-0.0018633
-0.00119432
-0.000228858
-0.00131783
-0.00028923
-0.00137009
-0.000351568
-0.00140511
-0.000415367
-0.00143203
-0.000480411
-0.00145623
-0.000546652
-0.00148051
-0.000614126
-0.0015061
-0.000682903
-0.00153348
-0.000753067
-0.00156284
-0.000824707
-0.00159424
-0.000897911
-0.00162772
-0.000972766
-0.00166332
-0.00104936
-0.00170112
-0.00112779
-0.00174115
-0.00178298
-0.00120811
-0.000232953
-0.00125962
-0.000294017
-0.00130902
-0.00035701
-0.00134212
-0.000421441
-0.0013676
-0.000487108
-0.00139057
-0.00055397
-0.00141365
-0.000622065
-0.001438
-0.000691469
-0.00146408
-0.000762265
-0.00149205
-0.000834543
-0.00152196
-0.000908393
-0.00155387
-0.000983905
-0.00158781
-0.00106117
-0.00162386
-0.00114028
-0.00166204
-0.00170195
-0.00122131
-0.000177934
-0.00112647
-0.000236851
-0.0012007
-0.000298573
-0.0012473
-0.000362189
-0.00127851
-0.000427224
-0.00130256
-0.000493484
-0.00132431
-0.000560938
-0.00134619
-0.000629627
-0.00136931
-0.000699628
-0.00139408
-0.000771028
-0.00142065
-0.000843917
-0.00144908
-0.000918386
-0.00147941
-0.000994526
-0.00151167
-0.00107243
-0.00154595
-0.0011522
-0.00158227
-0.00162024
-0.0012339
-0.000180965
-0.00107113
-0.000240552
-0.00114112
-0.000302899
-0.00118495
-0.000367106
-0.0012143
-0.000432713
-0.00123696
-0.000499538
-0.00125748
-0.000567555
-0.00127818
-0.00063681
-0.00130005
-0.000707381
-0.00132351
-0.000779356
-0.00134867
-0.000852827
-0.00137561
-0.000927886
-0.00140435
-0.00100463
-0.00143493
-0.00108314
-0.00146744
-0.00116353
-0.00150188
-0.0015379
-0.00124588
-0.000183835
-0.00101512
-0.000244056
-0.0010809
-0.000306992
-0.00112202
-0.00037176
-0.00114953
-0.000437909
-0.00117081
-0.00050527
-0.00119012
-0.000573821
-0.00120962
-0.000643613
-0.00123026
-0.000714725
-0.0012524
-0.000787246
-0.00127615
-0.00086127
-0.00130158
-0.000936891
-0.00132873
-0.0010142
-0.00135762
-0.0010933
-0.00138834
-0.00117429
-0.00142089
-0.00145494
-0.00125725
-0.000186544
-0.000958468
-0.000247361
-0.00102008
-0.000310855
-0.00105852
-0.00037615
-0.00108424
-0.000442812
-0.00110414
-0.000510679
-0.00112225
-0.000579736
-0.00114057
-0.000650035
-0.00115996
-0.000721659
-0.00118077
-0.000794697
-0.00120311
-0.000869245
-0.00122703
-0.000945398
-0.00125257
-0.00102325
-0.00127977
-0.0011029
-0.00130868
-0.00118446
-0.00133934
-0.00137141
-0.001268
-0.000189092
-0.000901213
-0.000250469
-0.000958702
-0.000314485
-0.000994507
-0.000380277
-0.00101844
-0.000447422
-0.001037
-0.000515765
-0.00105391
-0.000585297
-0.00107104
-0.000656075
-0.00108919
-0.000728181
-0.00110867
-0.000801708
-0.00112958
-0.00087675
-0.00115199
-0.000953405
-0.00117592
-0.00103177
-0.0012014
-0.00111194
-0.00122851
-0.00119403
-0.00125725
-0.00128732
-0.00127812
-0.00013366
-0.000757646
-0.000191477
-0.000843395
-0.000253378
-0.000896801
-0.000317883
-0.000930002
-0.00038414
-0.000952186
-0.000451736
-0.000969403
-0.000520526
-0.000985118
-0.000590505
-0.00100106
-0.000661732
-0.00101796
-0.000734291
-0.00103611
-0.000808276
-0.0010556
-0.000883782
-0.00107649
-0.000960909
-0.00109879
-0.00103975
-0.00112256
-0.00112042
-0.00114784
-0.00120301
-0.00117465
-0.00120272
-0.00128762
-0.00013536
-0.000705625
-0.000193701
-0.000785054
-0.000256089
-0.000834413
-0.000321049
-0.000865043
-0.000387738
-0.000885496
-0.000455756
-0.000901385
-0.000524963
-0.000915911
-0.000595359
-0.000930661
-0.000667005
-0.000946313
-0.000739987
-0.000963125
-0.000814399
-0.000981188
-0.00089034
-0.00100054
-0.000967908
-0.00102122
-0.0010472
-0.00104326
-0.00112833
-0.00106671
-0.00121139
-0.00109159
-0.00111763
-0.00129648
-0.000136936
-0.000653097
-0.000195761
-0.000726229
-0.000258601
-0.000771573
-0.000323981
-0.000799662
-0.000391073
-0.000818405
-0.000459481
-0.000832977
-0.000529075
-0.000846318
-0.000599857
-0.000859878
-0.000671892
-0.000874278
-0.000745267
-0.00088975
-0.000820077
-0.000906378
-0.000896421
-0.000924201
-0.000974399
-0.000943246
-0.00105411
-0.000963547
-0.00113567
-0.00098516
-0.00121917
-0.00100809
-0.00103209
-0.00130471
-0.000138388
-0.000600104
-0.000197659
-0.000666958
-0.000260913
-0.000708319
-0.000326681
-0.000733893
-0.000394142
-0.000750945
-0.00046291
-0.000764209
-0.00053286
-0.000776367
-0.000604
-0.000788739
-0.000676394
-0.000801884
-0.000750131
-0.000816012
-0.000825308
-0.0008312
-0.000902025
-0.000847484
-0.000980382
-0.00086489
-0.00106048
-0.000883447
-0.00114243
-0.00090321
-0.00122634
-0.000924178
-0.000946137
-0.00131229
-0.000139716
-0.000546686
-0.000199393
-0.000607281
-0.000263025
-0.000644687
-0.000329148
-0.000667771
-0.000396946
-0.000683147
-0.000466043
-0.000695111
-0.000536319
-0.000706091
-0.000607785
-0.000717273
-0.000680508
-0.000729161
-0.000754578
-0.000741943
-0.000830091
-0.000755687
-0.000907149
-0.000770427
-0.000985853
-0.000786186
-0.00106631
-0.000802992
-0.00114862
-0.000820897
-0.0012329
-0.000839898
-0.000859801
-0.00131924
-0.000140918
-0.000492882
-0.000200963
-0.000547236
-0.000264938
-0.000580713
-0.000331381
-0.000601328
-0.000399484
-0.000615043
-0.00046888
-0.000625716
-0.000539452
-0.000635519
-0.000611213
-0.000645511
-0.000684234
-0.00065614
-0.000758605
-0.000667572
-0.000834424
-0.000679868
-0.000911791
-0.000693059
-0.000990811
-0.000707166
-0.00107159
-0.000722216
-0.00115423
-0.000738254
-0.00123885
-0.000755279
-0.000773117
-0.00132553
-0.000141996
-0.000438734
-0.00020237
-0.000486862
-0.00026665
-0.000516432
-0.00033338
-0.000534599
-0.000401757
-0.000546665
-0.00047142
-0.000556054
-0.000542256
-0.000564683
-0.000614283
-0.000573484
-0.000687572
-0.000582852
-0.000762213
-0.000592931
-0.000838305
-0.000603776
-0.000915951
-0.000615413
-0.000995254
-0.000627864
-0.00107632
-0.00064115
-0.00115926
-0.000655316
-0.00124418
-0.000670357
-0.000686121
-0.00133118
-0.000142947
-0.000384283
-0.000203611
-0.000426198
-0.000268162
-0.000451881
-0.000335145
-0.000467616
-0.000403764
-0.000478046
-0.000473662
-0.000486156
-0.000544733
-0.000493612
-0.000616995
-0.000501222
-0.00069052
-0.000509327
-0.0007654
-0.000518051
-0.000841735
-0.000527441
-0.000919627
-0.000537521
-0.000999181
-0.00054831
-0.0010805
-0.000559828
-0.0011637
-0.000572115
-0.0012489
-0.000585166
-0.000598847
-0.00133617
-0.000143773
-0.000329567
-0.000204688
-0.000365282
-0.000269474
-0.000387095
-0.000336676
-0.000400414
-0.000405504
-0.000409218
-0.000475607
-0.000416052
-0.000546882
-0.000422337
-0.000619347
-0.000428757
-0.000693078
-0.000435596
-0.000768166
-0.000442962
-0.000844712
-0.000450895
-0.000922818
-0.000459415
-0.00100259
-0.000468538
-0.00108413
-0.000478284
-0.00116756
-0.000488685
-0.00125299
-0.00049974
-0.000511332
-0.00134051
-8.95339e-05
-0.000228192
-0.000144472
-0.000274629
-0.000205601
-0.000304153
-0.000270585
-0.000322112
-0.000337972
-0.000333027
-0.000406978
-0.000340211
-0.000477255
-0.000345776
-0.000548701
-0.000350891
-0.00062134
-0.000356118
-0.000695245
-0.000361691
-0.000770509
-0.000367698
-0.000847234
-0.00037417
-0.000925523
-0.000381127
-0.00100548
-0.00038858
-0.00108721
-0.000396549
-0.00117084
-0.00040506
-0.00125647
-0.000414113
-0.000423611
-0.00134419
-8.99247e-05
-0.000182618
-0.000145046
-0.000219508
-0.000206349
-0.00024285
-0.000271495
-0.000256966
-0.000339034
-0.000265488
-0.000408186
-0.00027106
-0.000478604
-0.000275357
-0.000550192
-0.000279303
-0.000622973
-0.000283338
-0.000697021
-0.000287643
-0.00077243
-0.000292288
-0.000849302
-0.000297298
-0.00092774
-0.000302688
-0.00100785
-0.00030847
-0.00108974
-0.000314658
-0.00117353
-0.000321275
-0.00125932
-0.000328322
-0.00033572
-0.00134721
-9.02296e-05
-0.000136905
-0.000145493
-0.000164245
-0.000206932
-0.000181411
-0.000272204
-0.000191694
-0.000339861
-0.00019783
-0.000409126
-0.000201795
-0.000479655
-0.000204828
-0.000551353
-0.000207605
-0.000624245
-0.000210446
-0.000698404
-0.000213484
-0.000773927
-0.000216765
-0.000850914
-0.000220311
-0.00092947
-0.000224133
-0.0010097
-0.00022824
-0.00109171
-0.000232644
-0.00117562
-0.000237364
-0.00126155
-0.000242401
-0.000247696
-0.00134957
-9.04485e-05
-9.1093e-05
-0.000145814
-0.00010888
-0.000207349
-0.000119876
-0.000272711
-0.000126331
-0.000340454
-0.000130088
-0.000409799
-0.000132449
-0.000480408
-0.000134219
-0.000552185
-0.000135828
-0.000625156
-0.000137476
-0.000699396
-0.000139243
-0.000775001
-0.000141161
-0.000852071
-0.000143241
-0.000930711
-0.000145493
-0.00101103
-0.000147923
-0.00109313
-0.000150541
-0.00117713
-0.000153362
-0.00126315
-0.000156386
-0.000159573
-0.00135127
-9.05813e-05
-4.52207e-05
-0.000146008
-5.34531e-05
-0.000207602
-5.82817e-05
-0.000273018
-6.09152e-05
-0.000340811
-6.2295e-05
-0.000410206
-6.30546e-05
-0.000480862
-6.35625e-05
-0.000552687
-6.40033e-05
-0.000625706
-6.44569e-05
-0.000699995
-6.4954e-05
-0.00077565
-6.55063e-05
-0.000852771
-6.612e-05
-0.000931463
-6.68002e-05
-0.00101183
-6.75523e-05
-0.00109399
-6.83829e-05
-0.00117805
-6.93018e-05
-0.00126413
-7.03116e-05
-7.13894e-05
-0.00135231
-9.06277e-05
6.72566e-07
-0.000146075
1.99453e-06
-0.000207689
3.3319e-06
-0.000273123
4.5193e-06
-0.000340933
5.51495e-06
-0.000410344
6.35636e-06
-0.000481017
7.11052e-06
-0.000552859
7.83814e-06
-0.000625895
8.57894e-06
-0.000700201
9.35269e-06
-0.000775874
1.01662e-05
-0.000853014
1.102e-05
-0.000931726
1.19119e-05
-0.00101212
1.28387e-05
-0.0010943
1.37967e-05
-0.00117838
1.47805e-05
-0.00126448
1.57865e-05
1.68182e-05
-0.00135268
-9.0588e-05
4.65475e-05
-0.000146016
5.74228e-05
-0.000207611
6.49265e-05
-0.000273027
6.99359e-05
-0.000340821
7.33082e-05
-0.000410216
7.57516e-05
-0.000480874
7.77684e-05
-0.000552701
7.96649e-05
-0.000625722
8.16005e-05
-0.000700015
8.36454e-05
-0.000775674
8.58251e-05
-0.0008528
8.81466e-05
-0.000931499
9.06109e-05
-0.00101188
9.3217e-05
-0.00109404
9.59638e-05
-0.00117812
9.88509e-05
-0.0012642
0.000101873
0.000105016
-0.0013524
-9.04618e-05
9.23648e-05
-0.00014583
0.000112791
-0.000207367
0.000126464
-0.00027273
0.000135299
-0.000340473
0.000141051
-0.00040982
0.000145099
-0.000480431
0.00014838
-0.000552212
0.000151446
-0.000625188
0.000154577
-0.000699436
0.000157893
-0.000775049
0.000161438
-0.00085213
0.000165228
-0.000930783
0.000169264
-0.00101112
0.000173549
-0.00109324
0.000178085
-0.00117726
0.000182875
-0.0012633
0.000187912
0.000193166
-0.00135145
-9.02493e-05
0.000138085
-0.000145517
0.000168059
-0.000206958
0.000187904
-0.000272231
0.000200572
-0.00033989
0.00020871
-0.000409157
0.000214366
-0.00047969
0.000218913
-0.000551394
0.00022315
-0.000624293
0.000227476
-0.000698463
0.000232063
-0.000773999
0.000236974
-0.000851002
0.000242231
-0.000929577
0.000247839
-0.00100983
0.000253803
-0.00109187
0.000260126
-0.00117581
0.000266817
-0.00126177
0.00027387
0.000281232
-0.00134984
-8.99504e-05
0.000183669
-0.000145078
0.000223186
-0.000206383
0.00024921
-0.00027153
0.000265719
-0.000339071
0.000276251
-0.000408226
0.00028352
-0.000478649
0.000289337
-0.000550245
0.000294745
-0.000623036
0.000300267
-0.000697098
0.000306125
-0.000772525
0.000312401
-0.000849418
0.000319124
-0.000927882
0.000326303
-0.00100802
0.000333944
-0.00108995
0.000342053
-0.00117378
0.000350644
-0.00125962
0.000359709
0.000369178
-0.00134756
-8.95651e-05
0.000229078
-0.000144511
0.000278132
-0.000205643
0.000310342
-0.000270628
0.000330704
-0.000338017
0.00034364
-0.000407027
0.00035253
-0.00047731
0.000359619
-0.000548766
0.000366201
-0.000621417
0.000372918
-0.000695339
0.000380047
-0.000770626
0.000387688
-0.000847377
0.000395875
-0.000925697
0.000404623
-0.00100569
0.000413939
-0.00108747
0.000423832
-0.00117115
0.000434321
-0.00125684
0.000445395
0.000456968
-0.00134463
-8.90936e-05
-0.000143817
0.000332856
-0.000204737
0.000371262
-0.000269524
0.000395491
-0.000336728
0.000410844
-0.000405561
0.000421363
-0.000475671
0.00042973
-0.000546957
0.000437486
-0.000619438
0.0004454
-0.000693189
0.000453798
-0.000768303
0.000462802
-0.00084488
0.000472453
-0.000923024
0.000482768
-0.00100284
0.000493757
-0.00108444
0.000505431
-0.00116793
0.000517813
-0.00125343
0.000530894
0.000544565
-0.00134103
-0.000142997
0.000387317
-0.000203666
0.000431931
-0.000268219
0.000460044
-0.000335204
0.000477828
-0.000403827
0.000489987
-0.000473734
0.000499636
-0.000544818
0.00050857
-0.000617097
0.000517679
-0.000690646
0.000527346
-0.000765556
0.000537711
-0.000841927
0.000548824
-0.000919863
0.000560704
-0.00099947
0.000573363
-0.00108085
0.000586815
-0.00116413
0.000601087
-0.0012494
0.000616169
0.000631935
-0.00133677
-0.00014205
0.000441475
-0.000202429
0.00049231
-0.000266712
0.000524327
-0.000333444
0.00054456
-0.000401826
0.000558369
-0.000471498
0.000569308
-0.000542349
0.000579421
-0.000614396
0.000589726
-0.000687711
0.000600661
-0.000762385
0.000612386
-0.000838519
0.000624958
-0.000916215
0.0006384
-0.000995578
0.000652726
-0.00107671
0.000667951
-0.00115973
0.000684108
-0.00124475
0.000701186
0.00071904
-0.00133186
-0.000140978
0.000495288
-0.000201028
0.00055236
-0.000265004
0.000588304
-0.000331449
0.000611005
-0.000399558
0.000626478
-0.000468963
0.000638713
-0.00053955
0.000650008
-0.000611334
0.00066151
-0.000684384
0.000673711
-0.000758792
0.000686794
-0.000834657
0.000700823
-0.00091208
0.000715824
-0.000991167
0.000731812
-0.00107202
0.000748806
-0.00115476
0.000766842
-0.00123948
0.00078591
0.000805846
-0.00132629
-0.000139779
0.000548718
-0.000199461
0.000612042
-0.000263095
0.000651937
-0.000329219
0.000677129
-0.000397023
0.000694281
-0.00046613
0.00070782
-0.000536423
0.000720301
-0.000607912
0.000733
-0.000680667
0.000746466
-0.000754777
0.000760904
-0.000830341
0.000776387
-0.00090746
0.000792943
-0.000986238
0.000810589
-0.00106678
0.000829347
-0.00114919
0.000849257
-0.00123359
0.000870308
0.000892318
-0.00132006
-0.000138455
0.000601722
-0.00019773
0.000671317
-0.000260985
0.000715192
-0.000326754
0.000742899
-0.00039422
0.000761747
-0.000462999
0.000776599
-0.000532966
0.000790269
-0.000604131
0.000804164
-0.000676559
0.000818894
-0.000750341
0.000834686
-0.000825573
0.000851619
-0.000902356
0.000869726
-0.000980793
0.000889026
-0.00106099
0.000909542
-0.00114305
0.000931318
-0.00122708
0.000954345
0.00097842
-0.00131319
-0.000137006
0.000654261
-0.000195835
0.000730146
-0.000258674
0.000778031
-0.000324055
0.00080828
-0.00039115
0.000828842
-0.000459569
0.000845018
-0.000529181
0.000859881
-0.00059999
0.000874974
-0.000672062
0.000890965
-0.000745484
0.000908108
-0.000820353
0.000926488
-0.000896768
0.000946141
-0.000974832
0.00096709
-0.00105465
0.000989358
-0.00113632
0.00101299
-0.00121996
0.00103799
0.00106412
-0.00130566
-0.000135431
0.000706293
-0.000193775
0.000788489
-0.000256162
0.000840417
-0.00032112
0.000873239
-0.000387814
0.000895535
-0.000455842
0.000913046
-0.000525068
0.000929106
-0.000595491
0.000945397
-0.000667176
0.00096265
-0.000740207
0.000981139
-0.000814682
0.00100096
-0.000890699
0.00102216
-0.000968359
0.00104475
-0.00104776
0.00106876
-0.00112902
0.00109425
-0.00121223
0.0011212
0.00114938
-0.00129749
-0.000133732
0.000757778
-0.000191551
0.000846308
-0.000253449
0.000902315
-0.000317951
0.000937741
-0.000384211
0.000961795
-0.000451817
0.000980652
-0.000520626
0.000997915
-0.000590634
0.00101541
-0.000661901
0.00103392
-0.000734512
0.00105375
-0.000808562
0.00107501
-0.00088415
0.00109775
-0.000961374
0.00112197
-0.00104034
0.00114772
-0.00112114
0.00117505
-0.00120389
0.00120395
0.00123416
-0.00128868
-0.000131908
-0.000189163
0.000903563
-0.000250536
0.000963688
-0.000314548
0.00100175
-0.000380341
0.00102759
-0.000447495
0.00104781
-0.000515857
0.00106628
-0.000585419
0.00108497
-0.000656239
0.00110474
-0.000728399
0.00112591
-0.000801994
0.00114861
-0.000877122
0.00117287
-0.000953879
0.00119873
-0.00103237
0.00122621
-0.00111269
0.00125537
-0.00119494
0.00128621
0.00131844
-0.00127922
-0.000186612
0.000960214
-0.000247422
0.0010245
-0.00031091
0.00106524
-0.000376205
0.00109288
-0.000442876
0.00111448
-0.000510761
0.00113416
-0.000579848
0.00115405
-0.00065019
0.00117508
-0.00072187
0.00119759
-0.00079498
0.00122172
-0.000869616
0.00124751
-0.000945877
0.00127499
-0.00102386
0.00130419
-0.00110366
0.00133518
-0.00118539
0.00136794
0.00140219
-0.00126914
-0.000183897
0.00101622
-0.000244109
0.00108471
-0.000307038
0.00112817
-0.000371803
0.00115765
-0.00043796
0.00118063
-0.000505339
0.00120154
-0.00057392
0.00122263
-0.000643755
0.00124491
-0.000714924
0.00126876
-0.00078752
0.00129431
-0.000861636
0.00132163
-0.000937368
0.00135072
-0.00101481
0.00138164
-0.00109407
0.00141443
-0.00117525
0.00144912
0.00148536
-0.00125842
-0.000181019
0.00107155
-0.000240595
0.00114429
-0.000302931
0.00119051
-0.000367135
0.00122185
-0.000432747
0.00124625
-0.00049959
0.00126838
-0.000567636
0.00129068
-0.000636935
0.00131421
-0.000707565
0.00133939
-0.000779616
0.00136637
-0.000853182
0.00139519
-0.000928357
0.0014259
-0.00100524
0.00145852
-0.00108392
0.00149311
-0.0011645
0.0015297
0.00156793
-0.00124707
-0.00017798
0.00112615
-0.000236882
0.00120319
-0.000298591
0.00125222
-0.000362201
0.00128546
-0.000427239
0.00131128
-0.000493515
0.00133466
-0.000560997
0.00135816
-0.000629731
0.00138294
-0.000699792
0.00140945
-0.00077127
0.00143784
-0.000844256
0.00146818
-0.000918844
0.00150049
-0.000995128
0.0015348
-0.0010732
0.00157119
-0.00115317
0.00160966
0.00164986
-0.0012351
-0.000174778
-0.000232969
0.00126138
-0.000294017
0.00131326
-0.000357001
0.00134845
-0.000421434
0.00137572
-0.000487115
0.00140034
-0.000554004
0.00142505
-0.000622144
0.00145108
-0.000691608
0.00147892
-0.000762483
0.00150872
-0.000834861
0.00154056
-0.000908833
0.00157446
-0.000984491
0.00161046
-0.00106193
0.00164863
-0.00114124
0.00168898
0.00173113
-0.00122251
-0.000228857
0.00131882
-0.00028921
0.00137362
-0.000351536
0.00141077
-0.000415333
0.00143951
-0.000480389
0.0014654
-0.000546657
0.00149132
-0.000614174
0.0015186
-0.000683012
0.00154775
-0.000753257
0.00157896
-0.000824997
0.0016123
-0.000898325
0.00164779
-0.00097333
0.00168546
-0.0010501
0.0017254
-0.00112874
0.00176761
0.0018117
-0.00120931
-0.000224547
0.00137548
-0.000284169
0.00143324
-0.000345805
0.00147241
-0.000408937
0.00150265
-0.000473339
0.0015298
-0.000538957
0.00155694
-0.000605823
0.00158547
-0.000674007
0.00161594
-0.000743592
0.00164855
-0.000814668
0.00168337
-0.000887324
0.00172044
-0.000961646
0.00175979
-0.00103773
0.00180148
-0.00111565
0.00184554
0.00189155
-0.00119551
-0.000220038
-0.000278894
0.00149209
-0.000339809
0.00153332
-0.000402245
0.00156508
-0.000465965
0.00159352
-0.000530905
0.00162188
-0.000597091
0.00165165
-0.000664593
0.00168344
-0.000733492
0.00171745
-0.000803875
0.00175376
-0.00087583
0.0017924
-0.000949444
0.0018334
-0.0010248
0.00187684
-0.001102
0.00192274
0.00197065
-0.0011811
-0.000273387
0.00155015
-0.000333547
0.00159348
-0.000395259
0.0016268
-0.000458267
0.00165653
-0.0005225
0.00168611
-0.00058798
0.00171713
-0.000654772
0.00175023
-0.000722956
0.00178563
-0.00079262
0.00182342
-0.000863848
0.00186363
-0.000936726
0.00190628
-0.00101134
0.00195145
-0.00108777
0.00199917
0.00204898
-0.00116609
-0.000267646
0.00160737
-0.000327021
0.00165286
-0.000387977
0.00168775
-0.000450245
0.0017188
-0.000513744
0.00174961
-0.000578489
0.00178188
-0.000644544
0.00181629
-0.000711987
0.00185308
-0.000780904
0.00189233
-0.000851378
0.0019341
-0.000923494
0.0019784
-0.000997333
0.00202529
-0.00107298
0.00207482
0.0021265
-0.0011505
-0.000261673
0.00166372
-0.00032023
0.00171141
-0.000380401
0.00174792
-0.0004419
0.0017803
-0.000504637
0.00181235
-0.000568621
0.00184586
-0.000633911
0.00188158
-0.000700586
0.00191975
-0.000768729
0.00196048
-0.000838424
0.0020038
-0.000909753
0.00204972
-0.000982794
0.00209833
-0.00105763
0.00214966
0.00220319
-0.00113433
-0.000255468
-0.000313174
0.00176912
-0.00037253
0.00180728
-0.000433232
0.001841
-0.000495179
0.00187429
-0.000558374
0.00190906
-0.000622874
0.00194608
-0.000688754
0.00198563
-0.000756097
0.00202782
-0.000824987
0.00207268
-0.000895503
0.00212024
-0.000967724
0.00217055
-0.00104173
0.00222367
0.00227904
-0.00111758
-0.000305854
0.00182594
-0.000364364
0.00186579
-0.000424242
0.00190088
-0.000485371
0.00193542
-0.000547751
0.00197144
-0.000611433
0.00200976
-0.000676492
0.00205069
-0.000743009
0.00209434
-0.000811068
0.00214074
-0.000880749
0.00218992
-0.000952126
0.00224193
-0.00102528
0.00229682
0.00235403
-0.00110027
-0.000298269
0.00188185
-0.000355904
0.00192342
-0.000414929
0.0019599
-0.000475214
0.00199571
-0.000536751
0.00203297
-0.000599589
0.0020726
-0.000663801
0.0021149
-0.000729467
0.00216
-0.00079667
0.00220795
-0.00086549
0.00225874
-0.000936003
0.00231244
-0.00100829
0.00236911
0.00242813
-0.00108239
-0.00029042
-0.00034715
0.00198015
-0.000405293
0.00201804
-0.000464708
0.00205512
-0.000525376
0.00209364
-0.000587343
0.00213456
-0.000650681
0.00217824
-0.00071547
0.00222479
-0.000781793
0.00227427
-0.00084973
0.00232668
-0.000919357
0.00238207
-0.000990754
0.0024405
0.00250134
-0.00106397
-0.000338102
0.00203595
-0.000395336
0.00207528
-0.000453852
0.00211364
-0.000513625
0.00215342
-0.000574696
0.00219563
-0.000637134
0.00224068
-0.00070102
0.00228868
-0.000766437
0.00233969
-0.000833467
0.00239371
-0.000902188
0.00245079
-0.000972683
0.002511
0.00257366
-0.001045
-0.000328761
-0.000385057
0.00213157
-0.000442648
0.00217123
-0.0005015
0.00221227
-0.000561648
0.00225578
-0.00062316
0.00230219
-0.000686117
0.00235164
-0.000750604
0.00240417
-0.000816703
0.00245981
-0.000884497
0.00251858
-0.000954076
0.00258058
0.00264507
-0.00102549
-0.000374457
0.00218691
-0.000431097
0.00222787
-0.000489
0.00227017
-0.0005482
0.00231498
-0.00060876
0.00236275
-0.000670762
0.00241364
-0.000734291
0.0024677
-0.000799435
0.00252495
-0.00086628
0.00258542
-0.000934931
0.00264923
0.00271559
-0.00100545
-0.000363536
-0.000419198
0.00228353
-0.000476128
0.0023271
-0.000534352
0.00237321
-0.000593934
0.00242233
-0.000654954
0.00247466
-0.0007175
0.00253025
-0.000781661
0.00258911
-0.000847532
0.00265129
-0.000915242
0.00271694
0.00278522
-0.000984879
-0.000406952
0.00233819
-0.000462882
0.00238303
-0.000520105
0.00243043
-0.000578682
0.00248091
-0.000638693
0.00253467
-0.000700227
0.00259178
-0.000763379
0.00265226
-0.000828246
0.00271616
-0.000894994
0.00278369
0.002854
-0.000963776
-0.00039436
0.00239181
-0.000449265
0.00243794
-0.000505462
0.00248662
-0.000563007
0.00253845
-0.000621979
0.00259364
-0.000682473
0.00265228
-0.000744584
0.00271438
-0.000808411
0.00277999
-0.000874163
0.00284944
0.00292197
-0.000942127
-0.000381423
-0.000435278
0.00249179
-0.000490421
0.00254177
-0.000546908
0.00259494
-0.000604814
0.00265155
-0.000664235
0.0027117
-0.000725275
0.00277542
-0.000788015
0.00284273
-0.000852707
0.00291413
0.00298916
-0.000919902
-0.000420921
-0.000474987
0.00259583
-0.000530389
0.00265034
-0.000587199
0.00270836
-0.000645515
0.00277001
-0.00070545
0.00283535
-0.000767053
0.00290433
-0.000830549
0.00297763
0.00305567
-0.000897053
-0.00045916
0.0026488
-0.000513451
0.00270463
-0.000569138
0.00276405
-0.000626312
0.00282719
-0.000685107
0.00289415
-0.000745536
0.00296476
-0.000807554
0.00303965