/*--------------------------------*- C++ -*----------------------------------*\
  =========                 |
  \\      /  F ield         | OpenFOAM: The Open Source CFD Toolbox
   \\    /   O peration     | Website:  https://openfoam.org
    \\  /    A nd           | Version:  7
     \\/     M anipulation  |
\*---------------------------------------------------------------------------*/
FoamFile
{
    version     2.0;
    format      ascii;
    class       volVectorField;
    location    "90";
    object      U;
}
// * * * * * * * * * * * * * * * * * * * * * * * * * * * * * * * * * * * * * //

dimensions      [0 1 -1 0 0 0 0];

internalField   nonuniform List<vector> 
21350
(
(-0.000434352 0.0135359 3.9488e-22)
(-0.00237991 0.0326142 -3.8076e-22)
(-0.00618622 0.0451681 8.66403e-22)
(-0.0112357 0.0521696 9.90476e-21)
(-0.017289 0.0545591 -3.68234e-21)
(-0.0241594 0.0532263 -1.18868e-21)
(-0.0316747 0.0489879 -1.03359e-20)
(-0.0396944 0.0425687 -1.35862e-21)
(-0.0481045 0.0345873 -1.21098e-21)
(-0.0568113 0.025546 -8.68832e-22)
(-0.0657375 0.0158288 2.3799e-21)
(-0.0748192 0.00570442 -6.39826e-21)
(-0.0840027 -0.00466331 -1.49517e-21)
(-0.0932434 -0.0152007 -1.35402e-21)
(-0.102505 -0.0259063 -5.43562e-21)
(-0.111758 -0.0368312 1.04874e-20)
(-0.120983 -0.048062 -1.07789e-20)
(-0.130169 -0.0597056 1.87402e-21)
(-0.139311 -0.0718777 -7.37154e-21)
(-0.148416 -0.0846964 9.91944e-21)
(-0.157494 -0.0982787 5.44746e-21)
(-0.166559 -0.112739 8.28128e-21)
(-0.175626 -0.128189 -2.11223e-21)
(-0.184703 -0.144734 -2.46888e-21)
(-0.193804 -0.162516 -5.28243e-21)
(-0.000686101 0.0142256 -2.00445e-23)
(-0.00299017 0.0344343 -5.68754e-21)
(-0.00704371 0.0479131 2.30816e-22)
(-0.0122555 0.0556674 -2.96079e-20)
(-0.0184073 0.0586631 2.14705e-20)
(-0.0253303 0.0578124 1.13479e-21)
(-0.0328664 0.0539527 2.93575e-21)
(-0.0408867 0.047827 1.92138e-20)
(-0.0492853 0.0400688 1.41156e-20)
(-0.0579745 0.0311932 -2.7106e-22)
(-0.0668808 0.0215942 -1.22909e-21)
(-0.0759425 0.0115491 8.73462e-21)
(-0.085107 0.00122857 1.74048e-20)
(-0.0943302 -0.00928738 -1.49861e-20)
(-0.103576 -0.0199913 -2.6712e-21)
(-0.112816 -0.0309287 -9.39035e-21)
(-0.122031 -0.0421802 3.81945e-21)
(-0.131211 -0.053847 1.36919e-20)
(-0.140357 -0.0660394 1.16799e-20)
(-0.149475 -0.078871 -3.83667e-21)
(-0.158583 -0.0924555 -7.63309e-21)
(-0.167698 -0.106906 -1.44063e-20)
(-0.176841 -0.122335 -3.20101e-21)
(-0.186038 -0.138855 -3.69027e-21)
(-0.195306 -0.156605 7.19168e-21)
(-0.00095961 0.0149054 1.02942e-20)
(-0.0036507 0.0362365 -1.14967e-20)
(-0.00796244 0.0506412 -1.45589e-21)
(-0.0133352 0.0591557 1.75504e-20)
(-0.0195744 0.0627683 3.8354e-21)
(-0.0265307 0.0624123 -1.31928e-20)
(-0.0340617 0.0589442 2.11949e-20)
(-0.0420505 0.0531238 -3.49732e-20)
(-0.0504004 0.0455992 -1.98855e-21)
(-0.0590298 0.0368977 -2.79756e-20)
(-0.0678692 0.0274237 -9.5584e-21)
(-0.0768589 0.0174631 -3.76711e-20)
(-0.0859474 0.00719426 -1.4256e-20)
(-0.0950907 -0.00329607 4.17424e-20)
(-0.104252 -0.0139938 -8.76939e-22)
(-0.113404 -0.0249381 4.31677e-20)
(-0.122528 -0.036203 -2.94684e-20)
(-0.131614 -0.0478832 -7.56162e-21)
(-0.140665 -0.0600832 -1.88572e-20)
(-0.149691 -0.0729115 -7.2143e-21)
(-0.15871 -0.0864778 2.31664e-20)
(-0.167749 -0.100894 -4.7805e-20)
(-0.17683 -0.116272 3.87792e-20)
(-0.185995 -0.13273 1.87538e-20)
(-0.19526 -0.150407 -1.29498e-21)
(-0.00125417 0.0155698 4.65183e-21)
(-0.00435979 0.0380075 1.18388e-21)
(-0.00893965 0.053334 1.23216e-20)
(-0.0144711 0.0626121 -1.99693e-20)
(-0.0207857 0.0668502 -6.33138e-20)
(-0.0277548 0.0670001 3.80805e-20)
(-0.0352534 0.0639355 -2.5764e-20)
(-0.0431777 0.0584317 2.77991e-20)
(-0.0514404 0.0511507 -3.83688e-20)
(-0.0599664 0.0426316 4.61521e-20)
(-0.0686905 0.0332891 2.65272e-20)
(-0.0775551 0.0234181 3.20417e-21)
(-0.0865094 0.0132048 4.51944e-20)
(-0.0955092 0.00274358 -2.528e-20)
(-0.104518 -0.00794447 -7.62358e-21)
(-0.113506 -0.0188912 -6.79006e-21)
(-0.122455 -0.0301638 3.531e-20)
(-0.131357 -0.0418498 3.17724e-20)
(-0.140213 -0.0540471 -4.63493e-21)
(-0.149036 -0.0668584 1.75277e-20)
(-0.157849 -0.0803889 -4.46926e-20)
(-0.166679 -0.0947473 5.06164e-20)
(-0.175557 -0.110047 -2.28707e-20)
(-0.184534 -0.126411 -2.51532e-21)
(-0.193622 -0.143972 1.26745e-20)
(-0.00156873 0.0162138 2.52541e-20)
(-0.00511494 0.0397346 -4.21438e-22)
(-0.00997181 0.055973 2.76025e-20)
(-0.0156589 0.0660148 2.26617e-20)
(-0.0220357 0.0708845 4.52083e-20)
(-0.0289966 0.0715497 -4.92178e-20)
(-0.0364347 0.0688996 -2.42852e-20)
(-0.0442602 0.0637234 3.88719e-21)
(-0.0523962 0.0566956 1.1974e-20)
(-0.0607745 0.048367 -2.28385e-20)
(-0.069334 0.0391624 2.66448e-20)
(-0.0780193 0.0293856 -3.979e-20)
(-0.0867802 0.0192315 1.37461e-20)
(-0.0955721 0.0088021 -7.26865e-20)
(-0.104357 -0.00187364 7.00137e-20)
(-0.113105 -0.0128199 -8.30655e-20)
(-0.121796 -0.0240962 -1.67588e-20)
(-0.130421 -0.0357824 -7.38806e-21)
(-0.138981 -0.0479692 6.05632e-20)
(-0.147491 -0.0607527 -4.5748e-20)
(-0.155975 -0.0742328 3.42291e-20)
(-0.164464 -0.0885145 -1.82229e-21)
(-0.172995 -0.10371 -1.6975e-21)
(-0.181624 -0.119948 5.0764e-20)
(-0.190356 -0.137355 -9.78105e-20)
(-0.00190193 0.0168319 -1.83119e-20)
(-0.00591302 0.0414044 2.21483e-20)
(-0.0110546 0.0585396 -3.30218e-20)
(-0.0168932 0.0693409 1.45979e-20)
(-0.0233187 0.0748457 2.56073e-20)
(-0.0302495 0.0760344 3.98833e-20)
(-0.0375984 0.0738088 3.59166e-22)
(-0.0452905 0.0689705 9.98101e-21)
(-0.0532596 0.0622056 -6.50499e-20)
(-0.061445 0.0540756 -4.0728e-20)
(-0.06979 0.0450151 -5.17366e-20)
(-0.0782414 0.0353373 5.66299e-20)
(-0.0867493 0.0252455 4.23757e-21)
(-0.0952684 0.0148501 4.83468e-20)
(-0.103759 0.00418836 -5.34926e-20)
(-0.11219 -0.00675578 -6.56198e-21)
(-0.120538 -0.0180335 1.51784e-20)
(-0.128794 -0.0297166 -1.69382e-20)
(-0.136958 -0.0418878 -5.62594e-20)
(-0.145043 -0.0546358 9.60836e-20)
(-0.153076 -0.0680543 2.18822e-20)
(-0.16109 -0.0822433 7.62089e-20)
(-0.169128 -0.0973137 1.2513e-20)
(-0.177248 -0.113397 -7.88077e-20)
(-0.185442 -0.130611 -2.14645e-20)
(-0.00225209 0.0174189 1.57958e-20)
(-0.00675018 0.0430039 -1.90633e-20)
(-0.0121827 0.0610149 -3.86486e-21)
(-0.0181681 0.0725679 4.53974e-20)
(-0.0246282 0.0787087 -7.40754e-20)
(-0.0315068 0.0804272 -3.40397e-20)
(-0.0387375 0.0786354 2.18223e-20)
(-0.0462611 0.074145 -2.99324e-20)
(-0.054023 0.0676524 4.76e-20)
(-0.0619701 0.059729 7.32171e-20)
(-0.0700504 0.050819 -2.74514e-20)
(-0.0782128 0.0412446 2.89161e-20)
(-0.0864079 0.0312181 -9.65362e-20)
(-0.0945891 0.0208585 2.57301e-20)
(-0.102715 0.0102117 2.87034e-20)
(-0.110752 -0.000729915 7.40062e-20)
(-0.118674 -0.0120087 3.41341e-20)
(-0.126468 -0.0236877 -2.83364e-20)
(-0.134135 -0.035841 -5.71341e-20)
(-0.141685 -0.0485492 -8.65446e-21)
(-0.149144 -0.0618983 -5.51377e-20)
(-0.156549 -0.0759823 -1.55199e-19)
(-0.163947 -0.0909094 5.17721e-20)
(-0.171398 -0.106813 1.87284e-19)
(-0.178873 -0.123799 3.04962e-21)
(-0.00261723 0.0179697 -2.39464e-20)
(-0.00762192 0.0445201 3.99628e-20)
(-0.0133504 0.0633804 -8.00384e-21)
(-0.019477 0.0756732 -1.07233e-19)
(-0.0259572 0.0824483 -3.52818e-20)
(-0.0327613 0.0847013 6.53439e-20)
(-0.0398447 0.0833514 1.09135e-20)
(-0.0471649 0.0792184 2.12495e-20)
(-0.0546791 0.0730074 4.24175e-20)
(-0.0623425 0.0652988 -9.56526e-20)
(-0.0701079 0.0565458 -3.42407e-20)
(-0.0779266 0.0470795 -1.55058e-20)
(-0.0857492 0.0371212 5.37733e-20)
(-0.0935279 0.0267988 5.473e-20)
(-0.101219 0.0161669 -4.87246e-20)
(-0.108785 0.00522708 1.51832e-20)
(-0.116198 -0.00605399 -4.74701e-20)
(-0.12344 -0.0177302 3.1396e-20)
(-0.130509 -0.0298664 2.61739e-20)
(-0.137414 -0.0425338 9.34804e-20)
(-0.144178 -0.0558097 -1.15004e-20)
(-0.150841 -0.0697806 -2.03918e-20)
(-0.157456 -0.08455 -3.29276e-20)
(-0.164078 -0.100251 -8.34791e-20)
(-0.170654 -0.116977 -7.31453e-20)
(-0.0029951 0.0184793 3.78037e-20)
(-0.00852309 0.0459407 -8.42308e-22)
(-0.0145509 0.0656183 -2.74968e-20)
(-0.0208126 0.0786348 1.18702e-19)
(-0.0272981 0.0860396 5.09129e-20)
(-0.0340056 0.0888299 5.64165e-21)
(-0.040913 0.0879291 -2.90119e-20)
(-0.047995 0.0841626 4.04688e-20)
(-0.0552215 0.0782425 2.99725e-20)
(-0.062556 0.0707569 2.109e-19)
(-0.0699567 0.0621675 5.66487e-21)
(-0.0773771 0.0528142 -4.41744e-20)
(-0.084768 0.0429269 1.68156e-20)
(-0.0920802 0.0326427 -9.33693e-20)
(-0.0992669 0.0220253 7.15578e-20)
(-0.106287 0.0110854 -9.55367e-20)
(-0.113109 -0.000200924 -8.62181e-21)
(-0.11971 -0.011878 -1.12301e-19)
(-0.126083 -0.0240006 -2.76917e-20)
(-0.132234 -0.0366298 -1.70074e-19)
(-0.138185 -0.0498328 1.38416e-20)
(-0.143975 -0.0636865 5.02964e-20)
(-0.149665 -0.0782883 5.57089e-20)
(-0.155303 -0.0937677 -2.601e-20)
(-0.160803 -0.110203 1.14886e-19)
(-0.00338317 0.0189432 7.05241e-21)
(-0.009448 0.0472538 -4.88294e-20)
(-0.015777 0.0677111 7.4079e-23)
(-0.0221667 0.0814314 -1.44738e-19)
(-0.028643 0.0894584 -1.00987e-20)
(-0.035232 0.092787 4.0414e-20)
(-0.0419351 0.0923413 3.64275e-20)
(-0.0487448 0.0889498 -8.32707e-20)
(-0.055644 0.0833296 2.02339e-20)
(-0.0626052 0.0760754 -7.59869e-20)
(-0.0695919 0.0676565 -2.08657e-20)
(-0.0765602 0.0584211 1.11806e-19)
(-0.0834611 0.048608 -1.23752e-19)
(-0.0902436 0.0383631 -7.40144e-20)
(-0.0968579 0.0277592 -1.3723e-19)
(-0.103259 0.0168164 -6.84504e-20)
(-0.109409 0.0055203 8.67474e-20)
(-0.115281 -0.00616337 -1.26029e-20)
(-0.120862 -0.0182789 5.33772e-21)
(-0.126155 -0.0308761 1.45811e-19)
(-0.131178 -0.0440106 -2.92129e-20)
(-0.135967 -0.0577478 -1.06934e-19)
(-0.140594 -0.0721764 -7.39151e-20)
(-0.145096 -0.0874193 1.25308e-19)
(-0.149349 -0.103536 -5.67417e-20)
(-0.00377869 0.0193572 2.19057e-20)
(-0.0103904 0.0484484 -4.69019e-20)
(-0.0170206 0.0696426 1.39332e-20)
(-0.023531 0.0840426 1.12392e-19)
(-0.0299834 0.0926812 3.58686e-20)
(-0.0364326 0.0965471 -4.72728e-20)
(-0.0429038 0.0965612 -3.8883e-20)
(-0.0494079 0.0935525 -2.14092e-20)
(-0.0559412 0.0882411 -3.17255e-20)
(-0.0624854 0.0812268 -4.39269e-20)
(-0.0690099 0.0729856 2.19223e-19)
(-0.0754732 0.0638736 -4.89436e-20)
(-0.0818268 0.0541378 6.32131e-20)
(-0.0880177 0.0439331 8.99363e-20)
(-0.0939927 0.0333415 1.128e-19)
(-0.099702 0.0223923 1.97428e-19)
(-0.105102 0.0110808 1.15369e-20)
(-0.110161 -0.000617211 -7.38644e-20)
(-0.114859 -0.0127348 -3.5011e-20)
(-0.119191 -0.0253098 7.03963e-20)
(-0.123173 -0.0383845 -2.25344e-20)
(-0.12684 -0.0520106 8.96701e-20)
(-0.130271 -0.0662652 -1.50351e-19)
(-0.133491 -0.0812604 -1.37797e-19)
(-0.136334 -0.0970324 1.86903e-19)
(-0.00417872 0.0197174 -6.17826e-20)
(-0.0113436 0.0495143 -7.95838e-20)
(-0.0182734 0.0713975 8.84297e-20)
(-0.0248964 0.0864489 -4.83329e-20)
(-0.0313105 0.0956858 -4.2286e-20)
(-0.0375993 0.100086 8.41459e-20)
(-0.0438121 0.100563 -9.02179e-21)
(-0.0499783 0.0979441 -9.64342e-21)
(-0.0561081 0.09295 3.57688e-20)
(-0.0621929 0.0861842 1.45506e-20)
(-0.0682078 0.0781282 1.92522e-20)
(-0.0741146 0.0691452 -1.39509e-19)
(-0.0798647 0.0594904 1.41472e-19)
(-0.0854035 0.0493271 -2.98e-20)
(-0.0906742 0.0387465 -1.64123e-19)
(-0.0956218 0.0277869 -7.6948e-20)
(-0.100197 0.0164532 1.10313e-19)
(-0.104361 0.00473146 -1.30751e-19)
(-0.108085 -0.00740003 1.13892e-19)
(-0.11136 -0.019966 -3.20658e-20)
(-0.114194 -0.0329939 -1.40735e-19)
(-0.116621 -0.0465191 6.55949e-21)
(-0.118729 -0.0606039 1.72649e-19)
(-0.12053 -0.0753446 -5.60774e-20)
(-0.121804 -0.090748 -1.65396e-19)
(-0.00458014 0.0200205 7.20001e-20)
(-0.0123006 0.0504426 2.43202e-20)
(-0.0195264 0.0729619 5.62168e-20)
(-0.0262534 0.0886327 -8.51274e-21)
(-0.0326153 0.0984512 -4.61263e-20)
(-0.038724 0.103379 -4.82947e-20)
(-0.0446529 0.104322 1.50021e-19)
(-0.0504503 0.102099 -8.85396e-20)
(-0.0561404 0.09743 -1.1008e-19)
(-0.0617246 0.0909211 -1.82526e-19)
(-0.0671841 0.0830581 -1.56209e-19)
(-0.0724839 0.0742102 6.22876e-21)
(-0.0775758 0.0646404 -1.86103e-19)
(-0.0824036 0.0545202 5.78637e-20)
(-0.0869067 0.0439494 -2.11635e-20)
(-0.091025 0.0329752 5.41857e-20)
(-0.0947026 0.0216119 1.48828e-19)
(-0.0978919 0.00985574 6.25417e-20)
(-0.100558 -0.00230348 7.21979e-21)
(-0.102683 -0.0148767 1.63779e-19)
(-0.104268 -0.027875 2.72734e-20)
(-0.105344 -0.0413147 -8.9799e-20)
(-0.106008 -0.0552394 -3.59455e-20)
(-0.106262 -0.0697233 1.44761e-19)
(-0.105816 -0.0847362 3.77271e-21)
(-0.00497976 0.0202637 2.61422e-20)
(-0.0132541 0.0512253 6.79615e-20)
(-0.0207705 0.0743233 -3.47142e-20)
(-0.0275924 0.0905775 -6.469e-21)
(-0.0338884 0.100958 1.43863e-19)
(-0.0397982 0.106406 -1.35534e-19)
(-0.0454192 0.107813 3.0359e-20)
(-0.0508184 0.105991 1.0592e-19)
(-0.0560342 0.101656 2.53141e-20)
(-0.061078 0.0954121 -7.29211e-20)
(-0.0659378 0.0877498 6.32999e-20)
(-0.0705817 0.0790437 1.93415e-19)
(-0.0749625 0.0695634 9.2764e-20)
(-0.0790221 0.0594884 -1.03031e-19)
(-0.0826963 0.0489265 -2.41387e-20)
(-0.0859196 0.0379338 -1.46398e-19)
(-0.0886293 0.0265332 -2.37639e-19)
(-0.0907697 0.014731 -4.20263e-21)
(-0.0922968 0.00252847 -2.00953e-19)
(-0.0931841 -0.0100712 9.49896e-20)
(-0.0934249 -0.023061 2.86719e-19)
(-0.0930455 -0.0364355 -6.72471e-20)
(-0.0921521 -0.0502153 -2.12501e-20)
(-0.0907374 -0.0644453 -2.09128e-19)
(-0.0884304 -0.0790477 2.47208e-19)
(-0.0053743 0.0204449 1.16409e-19)
(-0.0141965 0.0518559 -1.88333e-19)
(-0.0219962 0.0754712 2.91193e-20)
(-0.0289035 0.0922688 -2.75799e-20)
(-0.0351205 0.103188 -1.35234e-19)
(-0.0408138 0.109146 1.24164e-19)
(-0.0461043 0.111016 1.42673e-19)
(-0.0510775 0.109598 -5.97444e-20)
(-0.055786 0.105602 -7.43808e-20)
(-0.0602515 0.0996321 4.33258e-20)
(-0.0644688 0.0921787 -7.98409e-21)
(-0.0684097 0.0836212 -1.37137e-19)
(-0.0720278 0.0742355 1.34766e-19)
(-0.0752638 0.0642084 5.38256e-20)
(-0.0780499 0.0536554 5.83654e-20)
(-0.0803151 0.0426406 1.2395e-20)
(-0.0819896 0.0311953 5.86295e-20)
(-0.0830094 0.0193351 3.42439e-19)
(-0.083321 0.00707252 1.1639e-19)
(-0.0828881 -0.00557477 -1.59597e-19)
(-0.0816952 -0.0185808 -3.24694e-19)
(-0.0797627 -0.0319155 5.45845e-20)
(-0.077207 -0.0455715 5.96146e-20)
(-0.074014 -0.0595564 1.32039e-19)
(-0.0697103 -0.0737313 -3.09239e-19)
(-0.00576049 0.0205625 -1.79507e-19)
(-0.0151204 0.0523294 7.73965e-20)
(-0.0231941 0.0763965 -1.39074e-19)
(-0.0301768 0.0936941 6.96388e-20)
(-0.0363022 0.105125 2.63439e-19)
(-0.0417626 0.111579 6.64055e-20)
(-0.0467016 0.113908 -5.94709e-20)
(-0.0512228 0.112897 -2.26833e-19)
(-0.0553929 0.109246 9.17395e-20)
(-0.059244 0.103557 -8.27595e-20)
(-0.0627778 0.0963206 2.05314e-19)
(-0.0659702 0.087919 4.43773e-21)
(-0.0687761 0.0786337 4.25897e-20)
(-0.0711348 0.068658 1.04715e-19)
(-0.0729753 0.0581146 1.00838e-20)
(-0.0742215 0.0470749 2.43018e-19)
(-0.0747963 0.0355781 6.24705e-20)
(-0.0746272 0.0236482 7.63858e-20)
(-0.0736509 0.0113086 -1.30187e-19)
(-0.0718206 -0.00140914 -2.11742e-19)
(-0.069111 -0.014459 2.09157e-19)
(-0.0655351 -0.0277839 2.53535e-19)
(-0.0612195 -0.0413432 2.79793e-19)
(-0.0561493 -0.0550987 -1.9522e-19)
(-0.0497182 -0.0688343 1.66255e-19)
(-0.00613508 0.0206156 3.90638e-20)
(-0.0160182 0.052642 -4.79335e-21)
(-0.0243548 0.0770923 3.35637e-20)
(-0.0314024 0.0948428 -7.44711e-20)
(-0.0374242 0.106756 -2.46567e-19)
(-0.0426367 0.11369 -8.92596e-20)
(-0.0472048 0.11647 -2.66468e-20)
(-0.0512499 0.115866 -3.47487e-20)
(-0.0548524 0.112566 1.06177e-19)
(-0.0580549 0.107164 1.78201e-19)
(-0.0608662 0.100152 -6.03793e-20)
(-0.0632664 0.0919141 -7.91965e-20)
(-0.065212 0.0827355 8.33906e-20)
(-0.0666416 0.0728156 -6.82109e-20)
(-0.0674811 0.0622836 1.02131e-19)
(-0.0676493 0.0512175 -3.90936e-19)
(-0.0670625 0.0396634 -1.24767e-19)
(-0.0656392 0.0276531 -3.14782e-19)
(-0.0633062 0.0152196 -6.22304e-20)
(-0.0600061 0.00240822 3.25123e-19)
(-0.0557027 -0.0107152 -3.58442e-19)
(-0.0504003 -0.024064 1.73017e-19)
(-0.0442356 -0.0375594 -2.344e-19)
(-0.0372025 -0.05111 -2.16983e-20)
(-0.0285114 -0.064406 -6.22613e-21)
(-0.00649495 0.020604 5.30388e-20)
(-0.0168827 0.0527917 5.8025e-20)
(-0.0254691 0.0775537 1.92741e-19)
(-0.0325706 0.0957066 1.27509e-19)
(-0.0384775 0.108069 1.5906e-19)
(-0.0434282 0.115463 6.65171e-20)
(-0.0476079 0.118686 1.17793e-19)
(-0.0511548 0.118486 1.68307e-19)
(-0.0541627 0.115539 2.53469e-19)
(-0.0566843 0.110432 -1.12216e-19)
(-0.0587359 0.103651 -1.21413e-19)
(-0.060302 0.0955841 8.96688e-20)
(-0.0613411 0.086519 -3.93707e-20)
(-0.0617913 0.0766602 1.51096e-19)
(-0.061576 0.0661425 -1.08142e-19)
(-0.0606092 0.0550499 4.60328e-19)
(-0.0588007 0.0434345 -1.59984e-19)
(-0.0560606 0.0313348 2.46609e-19)
(-0.0523058 0.018792 2.00689e-19)
(-0.0474674 0.00586401 -3.07095e-19)
(-0.0414986 -0.00736354 1.13552e-19)
(-0.034393 -0.0207729 -3.69476e-19)
(-0.0262979 -0.0342424 -2.32868e-19)
(-0.017235 -0.0476206 -1.09951e-19)
(-0.00614863 -0.06047 -3.3549e-20)
(-0.00683712 0.0205281 -1.24391e-19)
(-0.0177069 0.0527779 8.62823e-20)
(-0.0265281 0.0777777 -4.39839e-20)
(-0.0336723 0.0962797 -1.77441e-19)
(-0.0394534 0.109055 -2.65278e-19)
(-0.0441298 0.116885 -3.62361e-19)
(-0.0479053 0.120539 -1.52267e-19)
(-0.0509338 0.120739 -1.22557e-19)
(-0.0533219 0.118146 -1.46029e-19)
(-0.0551325 0.113338 1.18831e-19)
(-0.0563892 0.106796 1.51988e-19)
(-0.0570812 0.0989073 -8.9785e-20)
(-0.0571692 0.089963 -1.53678e-19)
(-0.0565914 0.0801713 6.19101e-20)
(-0.0552688 0.0696723 9.38812e-21)
(-0.0531116 0.0585548 -2.67726e-19)
(-0.0500231 0.0468761 2.27771e-19)
(-0.0459056 0.0346799 -1.20868e-20)
(-0.040666 0.0220146 -4.5584e-19)
(-0.0342246 0.00894889 5.40781e-19)
(-0.0265227 -0.00441294 9.02114e-20)
(-0.0175427 -0.017921 1.53987e-20)
(-0.00744096 -0.0314079 7.97606e-20)
(0.00370717 -0.044648 1.7233e-19)
(0.0172568 -0.0569296 2.46127e-19)
(-0.00715884 0.0203888 1.26914e-19)
(-0.0184841 0.0526017 -1.37176e-19)
(-0.0275235 0.0777637 -1.53859e-19)
(-0.0346986 0.0965584 1.17837e-19)
(-0.0403437 0.109706 3.39717e-20)
(-0.0447345 0.117948 1.64298e-19)
(-0.0480917 0.122016 -4.17669e-20)
(-0.0505837 0.122609 7.76918e-20)
(-0.0523291 0.12037 3.66306e-20)
(-0.0534006 0.115863 -4.95191e-20)
(-0.053829 0.109566 -4.21155e-19)
(-0.0536086 0.101863 7.43441e-21)
(-0.0527026 0.0930464 -6.87455e-20)
(-0.0510493 0.0833289 9.69322e-20)
(-0.0485685 0.0728541 -2.36376e-19)
(-0.0451663 0.0617152 -2.93848e-19)
(-0.0407406 0.0499735 6.10534e-20)
(-0.0351863 0.0376768 9.30835e-20)
(-0.0284008 0.0248789 3.69701e-19)
(-0.0202936 0.0116571 -3.18128e-19)
(-0.0107943 -0.0018673 2.5198e-20)
(0.00012679 -0.0155128 -2.06078e-19)
(0.0123107 -0.0290636 9.5459e-20)
(0.0256676 -0.0422001 -9.98727e-20)
(0.0416154 -0.053926 -2.4147e-19)
(-0.00745752 0.0201881 -9.50834e-20)
(-0.0192083 0.0522658 -1.46583e-19)
(-0.0284474 0.077513 3.37733e-20)
(-0.0356412 0.0965418 1.95814e-19)
(-0.0411407 0.110019 1.69475e-20)
(-0.0452358 0.118642 2.21404e-19)
(-0.0481623 0.123106 -5.19994e-20)
(-0.0501014 0.124082 -1.4052e-19)
(-0.0511832 0.122192 1.65866e-19)
(-0.0514895 0.117989 -1.08058e-19)
(-0.0510584 0.111941 2.38297e-19)
(-0.0498889 0.10443 1.94383e-19)
(-0.0479473 0.0957491 -7.66671e-20)
(-0.0451727 0.0861132 -5.43934e-20)
(-0.0414834 0.0756694 1.27105e-19)
(-0.0367825 0.0645145 3.15081e-19)
(-0.0309631 0.0527128 -1.84713e-19)
(-0.0239131 0.0403149 -2.24336e-19)
(-0.0155212 0.027378 -3.0194e-20)
(-0.00568647 0.013986 5.20642e-20)
(0.00567316 0.000274179 1.35507e-19)
(0.0185992 -0.0135462 9.31831e-20)
(0.0329277 -0.0272098 -5.88232e-20)
(0.0485652 -0.0402971 2.13308e-19)
(0.0670171 -0.0515696 2.1743e-19)
(-0.00773096 0.0199283 -8.79602e-20)
(-0.019874 0.0517744 2.30176e-19)
(-0.0292931 0.0770294 -1.66376e-19)
(-0.0364928 0.0962312 -2.68607e-19)
(-0.0418373 0.109992 2.18187e-19)
(-0.0456278 0.118962 -8.4948e-20)
(-0.0481126 0.1238 1.31804e-19)
(-0.0494845 0.125146 4.58703e-20)
(-0.0498837 0.1236 8.19177e-20)
(-0.0494007 0.119698 -1.15302e-19)
(-0.0480804 0.113903 -6.85643e-20)
(-0.045927 0.106589 -9.13567e-20)
(-0.0429095 0.0980512 5.56436e-20)
(-0.0389685 0.0885047 2.19127e-19)
(-0.0340212 0.0780998 1.88122e-19)
(-0.0279683 0.0669362 -1.30981e-19)
(-0.0206985 0.0550801 -1.46485e-19)
(-0.0120936 0.0425839 4.09954e-19)
(-0.0020344 0.0295063 -2.63494e-19)
(0.00958991 0.0159351 -1.42845e-19)
(0.0228726 0.00201617 3.45198e-20)
(0.0378674 -0.0120128 -1.59038e-19)
(0.0544058 -0.025835 1.37335e-19)
(0.0723759 -0.0389169 -2.61944e-19)
(0.0934391 -0.0497504 2.52082e-19)
(-0.00797728 0.0196123 1.40836e-19)
(-0.0204765 0.0511331 1.2661e-19)
(-0.0300541 0.0763184 1.88504e-19)
(-0.0372468 0.0956305 3.95372e-19)
(-0.0424272 0.109626 6.45237e-20)
(-0.0459052 0.118907 -1.19668e-19)
(-0.0479388 0.124092 -6.91316e-20)
(-0.0487307 0.125791 -3.84677e-20)
(-0.0484301 0.124579 9.18591e-20)
(-0.0471354 0.120976 1.33498e-20)
(-0.0448981 0.115434 -1.19182e-19)
(-0.0417272 0.108322 1.3858e-19)
(-0.037595 0.0999333 2.79686e-19)
(-0.0324432 0.0904842 -1.60545e-19)
(-0.0261889 0.0801269 -7.34753e-20)
(-0.0187305 0.0689634 2.70653e-19)
(-0.00995301 0.0570613 1.51902e-19)
(0.000267127 0.0444734 -2.40062e-19)
(0.0120561 0.0312584 1.33219e-19)
(0.0255338 0.0175051 7.62999e-21)
(0.0408038 0.00336615 -7.36286e-20)
(0.0579328 -0.0108989 1.97943e-19)
(0.0767495 -0.0249235 -9.13483e-20)
(0.0971069 -0.0380559 6.01243e-19)
(0.120876 -0.0484513 -8.48162e-21)
(-0.00819498 0.0192437 -2.26568e-19)
(-0.0210119 0.050349 -1.45073e-19)
(-0.0307255 0.0753877 -8.22274e-20)
(-0.0378975 0.0947459 5.56034e-21)
(-0.0429051 0.108924 -2.92395e-19)
(-0.0460631 0.118476 1.4045e-19)
(-0.0476372 0.123979 5.51565e-21)
(-0.0478378 0.12601 1.26305e-20)
(-0.0468218 0.125119 2.78007e-19)
(-0.0446947 0.121809 2.67279e-20)
(-0.0415141 0.116518 3.23745e-19)
(-0.0372936 0.109611 -1.58137e-19)
(-0.0320087 0.101377 -1.35953e-19)
(-0.0256025 0.0920328 -4.64989e-19)
(-0.017992 0.0817324 1.73694e-19)
(-0.00907405 0.0705791 8.27573e-20)
(0.00126964 0.0586418 3.72964e-20)
(0.0131672 0.0459726 1.07915e-19)
(0.026751 0.0326286 8.20142e-20)
(0.0421488 0.0186972 6.50792e-20)
(0.0594736 0.00433321 3.47949e-19)
(0.0788049 -0.0101875 1.38533e-19)
(0.0999712 -0.0244538 -2.61506e-19)
(0.122774 -0.0376978 -4.79471e-19)
(0.14934 -0.0476634 2.20896e-19)
(-0.00838295 0.0188266 2.66403e-19)
(-0.021477 0.0494306 -2.70453e-20)
(-0.0313029 0.0742469 1.08459e-19)
(-0.0384401 0.0935862 -2.75993e-19)
(-0.0432661 0.107892 -2.03051e-20)
(-0.0460974 0.117671 -1.40439e-19)
(-0.0472046 0.123459 -9.07494e-20)
(-0.0468038 0.125798 -3.26342e-19)
(-0.0450582 0.125212 -3.09078e-20)
(-0.0420794 0.122185 -4.56321e-20)
(-0.0379304 0.117142 -2.18919e-19)
(-0.0326293 0.11044 1.6152e-19)
(-0.0261543 0.102365 -1.36379e-19)
(-0.0184503 0.0931324 4.74858e-19)
(-0.00943433 0.0828981 -2.79667e-19)
(0.00099828 0.0717663 -1.06698e-19)
(0.0129684 0.0598065 -2.11307e-19)
(0.0266082 0.0470698 1.21111e-19)
(0.0420553 0.0336105 -2.33491e-19)
(0.0594441 0.019512 -2.49982e-19)
(0.0788959 0.00492708 -2.70688e-19)
(0.100502 -0.00985872 1.77755e-19)
(0.124093 -0.0243974 2.70019e-19)
(0.149404 -0.0378125 3.89007e-20)
(0.178861 -0.047364 -1.75114e-20)
(-0.00854053 0.0183654 -2.6832e-19)
(-0.0218698 0.0483873 -1.06651e-20)
(-0.0317832 0.0729075 -2.16367e-19)
(-0.038871 0.0921621 -1.28104e-19)
(-0.0435064 0.10654 1.72104e-19)
(-0.0460046 0.116499 3.61414e-20)
(-0.046638 0.122534 -9.2427e-20)
(-0.0456266 0.125153 -1.87628e-20)
(-0.0431381 0.124852 -1.97151e-19)
(-0.0392894 0.122095 4.27183e-19)
(-0.034148 0.117293 -2.77399e-20)
(-0.0277358 0.110794 -1.79916e-19)
(-0.020034 0.10288 2.96912e-19)
(-0.0109887 0.0937656 7.57379e-21)
(-0.000517091 0.0836063 -2.12541e-19)
(0.0114866 0.0725079 8.4412e-20)
(0.0251458 0.06054 -3.45854e-20)
(0.0405958 0.0477526 1.41274e-19)
(0.0579789 0.0341964 2.86147e-19)
(0.077435 0.019949 3.72051e-20)
(0.0990917 0.0051571 -1.70355e-19)
(0.123051 -0.00989131 -7.51922e-19)
(0.149148 -0.0247212 3.70172e-19)
(0.177033 -0.0383616 -3.09069e-20)
(0.209481 -0.0475194 1.68162e-19)
(-0.00866749 0.0178649 -1.0846e-19)
(-0.0221891 0.0472299 -2.27263e-20)
(-0.0321646 0.0713824 9.94354e-21)
(-0.0391876 0.0904866 3.83793e-19)
(-0.0436231 0.104878 5.60359e-20)
(-0.0457814 0.114968 -2.39104e-20)
(-0.0459344 0.12121 3.49876e-19)
(-0.0443035 0.124076 2.95573e-19)
(-0.0410597 0.124036 6.27113e-20)
(-0.0363235 0.121533 -6.32157e-19)
(-0.0301661 0.116961 -2.90098e-19)
(-0.0226129 0.110661 -3.20608e-20)
(-0.0136473 0.102908 1.86422e-19)
(-0.00321666 0.0939165 1.05826e-20)
(0.00876175 0.0838406 2.07409e-19)
(0.022395 0.0727873 -3.99356e-20)
(0.0378085 0.0608269 -2.07771e-19)
(0.0551408 0.0480081 -2.57924e-19)
(0.0745376 0.0343777 -1.89173e-19)
(0.0961431 0.0200064 1.16257e-19)
(0.120089 0.00503146 2.28958e-19)
(0.146487 -0.0102639 1.3535e-19)
(0.175178 -0.025389 -3.34804e-19)
(0.205709 -0.0393005 -2.39254e-19)
(0.241255 -0.0480854 -1.44404e-19)
(-0.00876406 0.0173303 1.64138e-19)
(-0.0224346 0.0459699 -5.52442e-20)
(-0.0324461 0.069686 3.3529e-19)
(-0.0393882 0.0885747 1.07464e-20)
(-0.0436139 0.10292 -8.71523e-20)
(-0.0454252 0.113089 2.53118e-19)
(-0.0450908 0.119492 1.47619e-19)
(-0.0428317 0.12257 -3.41112e-19)
(-0.03882 0.122764 -1.4328e-20)
(-0.0331787 0.120493 1.4253e-19)
(-0.0259819 0.116139 4.62826e-19)
(-0.0172574 0.110031 -5.20179e-20)
(-0.00699056 0.102438 -5.77318e-19)
(0.00487041 0.0935711 -2.3047e-19)
(0.0184086 0.0835858 -2.2912e-19)
(0.0337324 0.0725894 -3.91934e-19)
(0.0509691 0.0606526 4.50835e-19)
(0.07026 0.0478235 -7.9435e-20)
(0.0917537 0.0341454 -5.838e-20)
(0.115597 0.0196815 -2.02945e-19)
(0.141925 0.00455703 3.51853e-19)
(0.170853 -0.010956 -1.90502e-19)
(0.202233 -0.0263633 -2.04653e-19)
(0.235485 -0.0405789 2.09811e-19)
(0.274246 -0.0490084 7.77616e-20)
(-0.0088309 0.0167671 2.17405e-19)
(-0.0226071 0.0446193 2.09253e-19)
(-0.032628 0.067834 6.7579e-20)
(-0.0394722 0.0864428 -1.30254e-19)
(-0.043477 0.100682 -3.38753e-19)
(-0.0449334 0.110874 4.96585e-20)
(-0.044104 0.117392 -1.92297e-19)
(-0.041207 0.120642 -3.55888e-20)
(-0.0364143 0.121038 -4.42052e-20)
(-0.0298499 0.118977 -5.21095e-20)
(-0.0215896 0.114824 -4.13239e-19)
(-0.0116628 0.108897 2.18275e-19)
(-5.60664e-05 0.101459 4.16001e-19)
(0.0132822 0.0927182 2.52473e-19)
(0.0284356 0.0828295 5.46147e-19)
(0.045514 0.071901 4.38481e-19)
(0.064647 0.0600044 -1.85726e-19)
(0.0859781 0.0471877 2.33338e-19)
(0.109658 0.0334913 -4.99067e-20)
(0.135835 0.0189714 2.15869e-19)
(0.164643 0.00373991 -2.60323e-19)
(0.1962 -0.0119479 3.17025e-19)
(0.23037 -0.0276057 1.0646e-19)
(0.266422 -0.0421425 -1.72695e-19)
(0.308519 -0.0502267 -3.19445e-20)
(-0.00886911 0.0161807 -2.69269e-19)
(-0.0227082 0.043191 -1.00736e-19)
(-0.0327113 0.065843 -1.96945e-19)
(-0.0394398 0.0841091 1.17183e-19)
(-0.0432114 0.0981809 2.52502e-19)
(-0.0443034 0.10834 -1.2615e-19)
(-0.0429698 0.114923 4.14446e-19)
(-0.0394242 0.118302 -2.95155e-20)
(-0.0338362 0.118865 2.03765e-19)
(-0.0263294 0.116986 6.81653e-20)
(-0.01698 0.113014 -4.58507e-20)
(-0.00581818 0.107255 -3.93168e-19)
(0.00716932 0.0999655 -1.84759e-19)
(0.0220343 0.09135 -2.20817e-19)
(0.0388617 0.0815626 -2.17745e-19)
(0.0577631 0.0707124 -9.83995e-20)
(0.0788703 0.0588727 3.908e-19)
(0.102329 0.046092 -2.7637e-20)
(0.12829 0.0324092 5.09079e-20)
(0.156903 0.0178745 -5.58936e-19)
(0.188297 0.00258662 -8.51099e-21)
(0.222588 -0.0132199 2.06507e-19)
(0.259653 -0.0290771 3.64634e-19)
(0.298583 -0.0439337 2.11161e-20)
(0.34414 -0.0516708 -5.93265e-19)
(-0.00888018 0.0155767 8.48099e-20)
(-0.0227402 0.041698 1.61465e-19)
(-0.0326982 0.0637303 -3.95574e-22)
(-0.0392918 0.0815929 -2.40229e-19)
(-0.0428162 0.0954365 -3.12322e-19)
(-0.0435323 0.105505 1.00849e-20)
(-0.0416834 0.1121 -8.71906e-20)
(-0.0374762 0.115563 -3.39056e-19)
(-0.0310765 0.116254 5.66604e-20)
(-0.0226058 0.114527 1.30279e-19)
(-0.0121394 0.110713 2.55842e-19)
(0.000292932 0.105106 1.22684e-19)
(0.0147051 0.0979563 -1.72745e-19)
(0.0311502 0.0894633 -2.86005e-19)
(0.0497146 0.0797806 -4.64635e-20)
(0.0705124 0.0690185 -7.44785e-20)
(0.0936775 0.0572523 -2.14415e-19)
(0.119357 0.0445322 -1.65301e-19)
(0.147702 0.0308971 -7.54584e-20)
(0.178859 0.0163929 2.94689e-19)
(0.21295 0.00110617 -3.11746e-19)
(0.250083 -0.0147515 4.68425e-20)
(0.290149 -0.0307375 -7.3535e-19)
(0.332031 -0.0458916 2.60305e-19)
(0.381164 -0.0532647 1.22286e-18)
(-0.00886595 0.0149606 4.0955e-20)
(-0.0227065 0.0401533 3.31536e-20)
(-0.0325916 0.0615137 -2.4799e-19)
(-0.0390295 0.0789143 -1.07211e-19)
(-0.0422905 0.0924696 1.3619e-19)
(-0.0426167 0.102389 4.84286e-20)
(-0.0402386 0.108942 8.20948e-20)
(-0.035354 0.112441 1.64798e-19)
(-0.028123 0.11322 6.19317e-20)
(-0.0186636 0.111611 -2.27791e-19)
(-0.00704885 0.107929 8.11098e-20)
(0.00669332 0.102457 2.42408e-19)
(0.0225785 0.0954348 -3.28423e-19)
(0.0406617 0.08706 7.76963e-19)
(0.0610321 0.0774846 1.24442e-19)
(0.0838058 0.0668201 -2.02423e-19)
(0.109119 0.0551444 6.63581e-20)
(0.13712 0.0425108 -2.84406e-21)
(0.167958 0.0289594 -5.14448e-20)
(0.201774 0.0145345 -8.21516e-20)
(0.238679 -0.000687512 8.55879e-20)
(0.278761 -0.0165183 -1.25775e-19)
(0.32193 -0.0325443 4.58845e-19)
(0.366827 -0.0479519 1.93131e-19)
(0.419636 -0.0549257 -5.92461e-19)
(-0.00882859 0.0143379 -3.9071e-19)
(-0.0226108 0.03857 -1.3202e-19)
(-0.0323947 0.0592111 2.69046e-19)
(-0.0386546 0.0760942 2.03429e-19)
(-0.0416333 0.0893024 -7.17296e-20)
(-0.0415523 0.0990148 1.15151e-20)
(-0.0386273 0.105471 2.61951e-19)
(-0.0330456 0.108955 1.14799e-19)
(-0.0249597 0.109778 2.57582e-19)
(-0.0144824 0.108252 -8.17408e-21)
(-0.00168325 0.104675 -4.37762e-19)
(0.0134132 0.0993166 -3.43935e-20)
(0.0308254 0.0924102 4.6188e-19)
(0.0506113 0.0841483 -4.25852e-19)
(0.0728632 0.0746822 7.53282e-20)
(0.0977 0.064125 3.33296e-19)
(0.12526 0.0525579 -2.61815e-20)
(0.15569 0.040038 -1.82216e-19)
(0.189137 0.0266089 6.61807e-19)
(0.225731 0.0123155 7.7509e-19)
(0.265566 -0.00277278 4.05884e-19)
(0.308703 -0.0184899 6.10099e-20)
(0.355066 -0.0344506 -5.01557e-19)
(0.403022 -0.0500462 1.87223e-19)
(0.459581 -0.0565651 3.38589e-19)
(-0.0087705 0.0137136 2.6271e-19)
(-0.0224573 0.0369605 2.01425e-19)
(-0.0321114 0.0568404 -4.54466e-19)
(-0.0381687 0.0731538 1.02614e-19)
(-0.040843 0.0859578 -4.41088e-20)
(-0.0403336 0.095405 8.08401e-20)
(-0.0368396 0.101708 -2.11619e-19)
(-0.030536 0.105128 -5.03413e-19)
(-0.0215663 0.105951 -7.75616e-20)
(-0.0100365 0.104471 4.78837e-19)
(0.00398935 0.100969 1.38445e-19)
(0.0204911 0.0957025 -5.0928e-20)
(0.0394915 0.088898 1.37379e-19)