/*--------------------------------*- C++ -*----------------------------------*\
  =========                 |
  \\      /  F ield         | OpenFOAM: The Open Source CFD Toolbox
   \\    /   O peration     | Website:  https://openfoam.org
    \\  /    A nd           | Version:  7
     \\/     M anipulation  |
\*---------------------------------------------------------------------------*/
FoamFile
{
    version     2.0;
    format      ascii;
    class       surfaceScalarField;
    location    "40";
    object      phi;
}
// * * * * * * * * * * * * * * * * * * * * * * * * * * * * * * * * * * * * * //

dimensions      [0 3 -1 0 0 0 0];

internalField   nonuniform List<scalar> 
16607
(
1.90443e-05
5.28004e-07
1.85163e-05
4.07793e-05
6.37824e-07
1.78784e-05
3.50014e-06
3.7917e-05
4.30393e-05
7.58971e-07
1.71195e-05
4.02875e-06
3.46472e-05
3.61837e-05
8.91902e-07
1.62276e-05
4.60247e-06
3.09366e-05
1.22628e-05
2.85234e-05
7.89366e-06
1.03698e-06
1.51906e-05
5.22228e-06
2.67513e-05
1.37417e-05
2.0004e-05
2.78525e-05
-6.21715e-06
-5.32462e-05
1.19448e-06
1.39961e-05
5.88873e-06
2.20571e-05
1.53213e-05
1.05714e-05
3.08035e-05
-2.16993e-05
5.37196e-05
-7.61623e-05
-0.000154346
1.36458e-06
1.26315e-05
6.60201e-06
1.68196e-05
1.7001e-05
1.72392e-07
3.39224e-05
-3.86207e-05
5.87916e-05
-0.000101031
9.30622e-05
-0.000188617
-0.000302895
1.54736e-06
1.10842e-05
7.36182e-06
1.10052e-05
1.87788e-05
-1.12446e-05
3.72033e-05
-5.70452e-05
6.40927e-05
-0.000127921
0.000100905
-0.00022543
0.00014901
-0.000351
-0.000505648
1.74281e-06
9.34135e-06
8.16747e-06
4.58053e-06
2.06517e-05
-2.37289e-05
4.06382e-05
-7.70316e-05
6.9605e-05
-0.000156888
0.000108998
-0.000264823
0.000160121
-0.000402123
0.000223974
-0.000569501
-0.000766706
1.95081e-06
7.39054e-06
9.01778e-06
-2.48645e-06
2.26157e-05
-3.73268e-05
4.42166e-05
-9.86325e-05
7.53068e-05
-0.000187978
0.000117301
-0.000306817
0.000171408
-0.000456231
0.000238453
-0.000636546
0.000318663
-0.000846916
-0.00108493
2.17114e-06
5.21941e-06
9.91115e-06
-1.02265e-05
2.46655e-05
-5.20812e-05
4.79262e-05
-0.000121893
8.11729e-05
-0.000221224
0.000125767
-0.000351411
0.000182796
-0.000513259
0.000252873
-0.000706623
0.00033592
-0.000929963
0.000430976
-0.00117999
-0.0014515
2.40347e-06
2.81594e-06
1.08455e-05
-1.86685e-05
2.67947e-05
-6.80304e-05
5.17521e-05
-0.000146851
8.71742e-05
-0.000256647
0.000134346
-0.000398583
0.000194201
-0.000573115
0.000267111
-0.000779532
0.00035266
-0.00101551
0.000449486
-0.00127681
0.000555232
-0.00155725
0.000666688
-0.00184902
-0.00214349
2.64738e-06
1.68559e-07
1.18182e-05
-2.78392e-05
2.89957e-05
-8.5208e-05
5.56774e-05
-0.000173532
9.32783e-05
-0.000294248
0.000142981
-0.000448286
0.000205537
-0.000635671
0.000281041
-0.000855036
0.000368717
-0.00110319
0.000466796
-0.00137489
0.000572536
-0.00166299
0.000682442
-0.00195892
0.00079267
-0.00225372
-0.00253907
2.9023e-06
-2.73374e-06
1.28261e-05
-3.77631e-05
3.12598e-05
-0.000103642
5.9683e-05
-0.000201955
9.94494e-05
-0.000334014
0.000151613
-0.000500449
0.000216713
-0.00070077
0.000294536
-0.000932859
0.000383931
-0.00119258
0.000482728
-0.00147369
0.000587835
-0.00176809
0.000695549
-0.00206664
0.00080201
-0.00236018
0.000903728
-0.00264079
-0.00290271
3.16757e-06
-5.90131e-06
1.38658e-05
-4.84613e-05
3.3577e-05
-0.000123353
6.37478e-05
-0.000232126
0.000105649
-0.000375915
0.000160179
-0.00055498
0.000227633
-0.000768224
0.000307469
-0.00101269
0.000398148
-0.00128326
0.000497117
-0.00157266
0.000600988
-0.00187196
0.00070592
-0.00217157
0.000808132
-0.00246239
0.000904407
-0.00273707
0.000992482
-0.00299079
0.00107122
-0.00322163
-0.00343033
3.44237e-06
-9.34368e-06
1.49332e-05
-5.99521e-05
3.59364e-05
-0.000144356
6.78487e-05
-0.000264039
0.000111835
-0.000419902
0.000168612
-0.000611757
0.000238203
-0.000837814
0.000319716
-0.00109421
0.000411227
-0.00137477
0.000509826
-0.00167126
0.000611886
-0.00197402
0.000713514
-0.0022732
0.000811083
-0.00255996
0.000901715
-0.0028277
0.000983588
-0.00307266
0.00105603
-0.00329407
0.00111938
-0.00349368
-0.00367514
3.72577e-06
-1.30695e-05
1.60235e-05
-7.22499e-05
3.83257e-05
-0.000166658
7.19611e-05
-0.000297674
0.000117966
-0.000465906
0.000176846
-0.000670637
0.000248328
-0.000909297
0.00033116
-0.00117704
0.000423038
-0.00146665
0.000520738
-0.00176896
0.000620458
-0.00207375
0.000718332
-0.00237107
0.000810958
-0.00265259
0.000895839
-0.00291258
0.000971606
-0.00314843
0.00103801
-0.00336048
0.00109575
-0.00355142
0.00114613
-0.00372552
0.00119079
-0.0038874
-0.00404251
4.0167e-06
-1.70862e-05
1.71318e-05
-8.5365e-05
4.07319e-05
-0.000190258
7.60585e-05
-0.000333
0.000123994
-0.000513842
0.00018481
-0.000731452
0.000257916
-0.000982402
0.00034169
-0.00126081
0.000433471
-0.00155843
0.000529764
-0.00186525
0.000626666
-0.00217065
0.00072041
-0.00246481
0.000807881
-0.00274006
0.000886992
-0.00299169
0.000956815
-0.00321825
0.0010175
-0.00342116
0.00107001
-0.00360393
0.00111581
-0.00377132
0.00115656
-0.00392816
-0.00407968
0.00119373
4.31395e-06
-2.14001e-05
1.82525e-05
-9.93035e-05
4.31409e-05
-0.000215147
8.01134e-05
-0.000369973
0.000129876
-0.000563605
0.000192439
-0.000794015
0.000266879
-0.00105684
0.000351208
-0.00134514
0.000442431
-0.00164966
0.000536842
-0.00195966
0.000630506
-0.00226431
0.000719821
-0.00255413
0.00080201
-0.00282225
0.000875404
-0.00306508
0.000939496
-0.00328234
0.000994779
-0.00347644
0.00104245
-0.0036516
0.00108406
-0.00381293
0.00112126
-0.00396535
-0.00411384
0.00115542
4.61618e-06
-2.60163e-05
1.93795e-05
-0.000114067
4.55378e-05
-0.000241305
8.40973e-05
-0.000408532
0.000135563
-0.00061507
0.000199665
-0.000858117
0.000275134
-0.00113231
0.000359625
-0.00142963
0.000449847
-0.00173988
0.000541939
-0.00205175
0.000632003
-0.00235438
0.000716667
-0.00263879
0.000793519
-0.0028991
0.000861312
-0.00313288
0.000919927
-0.00334096
0.000970151
-0.00352666
0.00101335
-0.0036948
0.00105113
-0.00385071
0.00108508
-0.0039993
-0.00414522
0.00111646
4.92192e-06
-3.09382e-05
2.05065e-05
-0.000129651
4.7907e-05
-0.000268706
8.7981e-05
-0.000448606
0.00014101
-0.0006681
0.000206424
-0.000923531
0.000282606
-0.00120849
0.000366866
-0.00151389
0.000455664
-0.00182868
0.000545045
-0.00214113
0.000631212
-0.00244054
0.000711073
-0.00271865
0.0007826
-0.00297063
0.000844955
-0.00319523
0.00089837
-0.00339437
0.000943877
-0.00357217
0.000982958
-0.00373388
0.00101723
-0.00388498
0.00104819
-0.00403026
-0.00417404
0.001077
5.22959e-06
-3.61678e-05
2.16267e-05
-0.000146048
5.02326e-05
-0.000297311
9.17353e-05
-0.000490109
0.000146172
-0.000722536
0.000212658
-0.000990017
0.000289227
-0.00128506
0.000372874
-0.00159754
0.000459852
-0.00191566
0.000546176
-0.00222746
0.000628212
-0.00252258
0.000703181
-0.00279362
0.000769451
-0.0030369
0.000826569
-0.00325235
0.000875077
-0.00344288
0.000916197
-0.00361329
0.000951487
-0.00376917
0.000982527
-0.00391602
0.00101073
-0.00405846
-0.00420045
0.00103714
5.5375e-06
-4.17053e-05
2.27331e-05
-0.000163244
5.24983e-05
-0.000327077
9.53309e-05
-0.000532942
0.000151005
-0.00077821
0.00021831
-0.00105732
0.000294939
-0.00136169
0.000377602
-0.0016802
0.000462397
-0.00200045
0.00054537
-0.00231043
0.000623099
-0.00260031
0.000693148
-0.00286367
0.000754274
-0.00309802
0.000806383
-0.00330446
0.000850279
-0.00348678
0.00088733
-0.00365034
0.000919125
-0.00380097
0.000947191
-0.00394409
0.00097283
-0.0040841
-0.00422459
0.000996973
5.84386e-06
-4.75491e-05
2.38184e-05
-0.000181219
5.46875e-05
-0.000357946
9.87393e-05
-0.000576993
0.000155467
-0.000834938
0.000223332
-0.00112519
0.000299697
-0.00143806
0.000381022
-0.00176153
0.000463307
-0.00208274
0.000542684
-0.00238981
0.000615986
-0.00267361
0.000681136
-0.00292882
0.00073727
-0.00315416
0.000784613
-0.0033518
0.00082419
-0.00352636
0.00085747
-0.00368362
0.000886039
-0.00382953
0.000911347
-0.0039694
0.000934586
-0.00410734
-0.00424658
0.00095657
6.1468e-06
-5.36959e-05
2.48753e-05
-0.000199947
5.67839e-05
-0.000389854
0.000101933
-0.000622142
0.000159522
-0.000892527
0.00022768
-0.00119334
0.000303462
-0.00151384
0.000383119
-0.00184119
0.000462606
-0.00216222
0.000538192
-0.00246539
0.000606999
-0.00274242
0.000667315
-0.00298914
0.000718633
-0.00320547
0.000761463
-0.00339463
0.000797005
-0.0035619
0.000826788
-0.00371341
0.000852369
-0.00385511
0.000875108
-0.00399214
0.00089608
-0.00412831
-0.00426649
0.000915993
6.44443e-06
-6.01404e-05
2.58963e-05
-0.000219399
5.87716e-05
-0.00042273
0.000104885
-0.000668256
0.000163133
-0.000950776
0.000231317
-0.00126153
0.000306208
-0.00158873
0.000383893
-0.00191887
0.000460333
-0.00223866
0.000531981
-0.00253704
0.000596271
-0.00280671
0.000651852
-0.00304472
0.00069855
-0.00325217
0.000737121
-0.0034332
0.000768897
-0.00359367
0.000795435
-0.00373994
0.000818237
-0.00387792
0.000838567
-0.00401247
0.000857383
-0.00414713
-0.0042844
0.000875295
6.73477e-06
-6.68751e-05
2.68742e-05
-0.000239538
6.0635e-05
-0.00045649
0.000107572
-0.000715193
0.000166271
-0.00100947
0.000234216
-0.00132947
0.000307922
-0.00166244
0.000383358
-0.00199431
0.000456542
-0.00231185
0.000524148
-0.00260465
0.000583938
-0.0028665
0.000634913
-0.00309569
0.0006772
-0.00329446
0.000711761
-0.00346776
0.000740024
-0.00362194
0.000763543
-0.00376346
0.000783749
-0.00389812
0.000801803
-0.00403052
0.000818554
-0.00416388
-0.00430036
0.000834518
7.01586e-06
-7.3891e-05
2.78016e-05
-0.000260324
6.23593e-05
-0.000491048
0.000109972
-0.000762806
0.00016891
-0.00106841
0.000236354
-0.00139692
0.000308599
-0.00173468
0.00038154
-0.00206725
0.000451298
-0.0023816
0.0005148
-0.00266815
0.000570141
-0.00292184
0.000616657
-0.00314221
0.000654748
-0.00333255
0.000685541
-0.00349856
0.000710524
-0.00364692
0.000731224
-0.00378416
0.000748993
-0.00391589
0.000764884
-0.00404641
0.000779642
-0.00417864
-0.00431442
0.0007937
7.28573e-06
-8.11767e-05
2.86717e-05
-0.00028171
6.39307e-05
-0.000526307
0.000112063
-0.000810938
0.000171027
-0.00112738
0.000237717
-0.00146361
0.000308244
-0.00180521
0.000378475
-0.00213748
0.000444674
-0.0024478
0.000504045
-0.00272752
0.000555016
-0.00297281
0.000597239
-0.00318443
0.000631348
-0.00336666
0.000658602
-0.00352581
0.000680518
-0.00366884
0.000698579
-0.00380222
0.000714045
-0.00393136
0.000727865
-0.00406023
0.000740688
-0.00419146
-0.00432661
0.000752873
7.54246e-06
-8.87192e-05
2.94776e-05
-0.000303645
6.53365e-05
-0.000562166
0.000113829
-0.00085943
0.000172606
-0.00118615
0.0002383
-0.0015293
0.000306872
-0.00187378
0.000374208
-0.00220481
0.000436751
-0.00251035
0.000491997
-0.00278277
0.000538701
-0.00301951
0.000576804
-0.00322253
0.000607142
-0.003397
0.000631071
-0.00354974
0.000650115
-0.00368788
0.000665692
-0.0038178
0.000678969
-0.00394463
0.000690795
-0.00407205
0.000701729
-0.00420239
-0.00433694
0.000712066
7.78417e-06
-9.65034e-05
3.02131e-05
-0.000326074
6.65651e-05
-0.000598518
0.000115255
-0.000908121
0.000173636
-0.00124453
0.000238102
-0.00159377
0.000304508
-0.00194019
0.000368794
-0.0022691
0.000427616
-0.00256917
0.000478769
-0.00283392
0.000521325
-0.00306207
0.000555486
-0.0032567
0.000582258
-0.00342377
0.000603063
-0.00357054
0.000619407
-0.00370422
0.000632636
-0.00383103
0.000643821
-0.00395582
0.000653714
-0.00408195
0.000662797
-0.00421148
-0.00434545
0.000671303
8.00904e-06
-0.000104512
3.08724e-05
-0.000348938
6.76065e-05
-0.000635252
0.00011633
-0.000956844
0.00017411
-0.00130231
0.000237132
-0.00165679
0.00030118
-0.00200424
0.000362293
-0.00233021
0.000417357
-0.00262423
0.000464473
-0.00288104
0.000503013
-0.00310061
0.000533412
-0.0032871
0.000556813
-0.00344717
0.000574678
-0.00358841
0.000588476
-0.00371802
0.000599474
-0.00384203
0.000608647
-0.00396499
0.000616658
-0.00408996
0.000623917
-0.00421874
-0.00435214
0.000630607
8.21537e-06
-0.000112728
3.14503e-05
-0.000372173
6.84521e-05
-0.000672254
0.000117045
-0.00100544
0.000174026
-0.0013593
0.000235402
-0.00171816
0.000296928
-0.00206576
0.000354769
-0.00238806
0.000406066
-0.00267553
0.00044922
-0.00292419
0.000483884
-0.00313527
0.000510699
-0.00331391
0.000530912
-0.00346738
0.000546004
-0.0036035
0.000557392
-0.00372941
0.00056626
-0.0038509
0.000573487
-0.00397222
0.000579658
-0.00409613
0.000585115
-0.00422419
-0.00435702
0.00059
8.40246e-06
-0.00012113
3.19437e-05
-0.000395714
6.90975e-05
-0.000709408
0.000117399
-0.00105374
0.000173392
-0.00141529
0.000232938
-0.00177771
0.000291798
-0.00212462
0.000346298
-0.00244256
0.000393839
-0.00272307
0.000433122
-0.00296347
0.000464056
-0.00316621
0.000487459
-0.00333731
0.000504658
-0.00348458
0.000517127
-0.00361597
0.000526226
-0.00373851
0.000533047
-0.00385772
0.000538385
-0.00397756
0.000542746
-0.00410049
0.00054642
-0.00422787
-0.00436011
0.000549507
8.56718e-06
-0.000129697
3.23453e-05
-0.000419492
6.95319e-05
-0.000746594
0.00011738
-0.00110159
0.000172204
-0.00147011
0.000229753
-0.00183526
0.000285827
-0.0021807
0.000336936
-0.00249367
0.000380754
-0.00276689
0.000416266
-0.00299898
0.000443618
-0.00319356
0.000463774
-0.00335747
0.000478118
-0.00349892
0.000488102
-0.00362596
0.000495014
-0.00374542
0.000499862
-0.00386257
0.000503355
-0.00398105
0.000505934
-0.00410307
0.000507836
-0.00422977
-0.00436141
0.000509133
8.70903e-06
-0.000138406
3.26531e-05
-0.000443436
6.97541e-05
-0.000783695
0.000116993
-0.00114883
0.00017048
-0.0015236
0.00022588
-0.00189066
0.00027907
-0.00223389
0.000326762
-0.00254136
0.000366905
-0.00280703
0.000398756
-0.00303083
0.000422672
-0.00321748
0.00043974
-0.00337454
0.000451375
-0.00351056
0.000458994
-0.00363357
0.00046381
-0.00375023
0.000466746
-0.0038655
0.000468432
-0.00398273
0.000469248
-0.00410389
0.000469391
-0.00422991
-0.00436092
0.000468903
8.82686e-06
-0.000147233
3.28647e-05
-0.000467474
6.97617e-05
-0.000820592
0.000116242
-0.00119531
0.000168232
-0.00157559
0.000221351
-0.00194378
0.000271579
-0.00228411
0.000315846
-0.00258563
0.000352376
-0.00284356
0.000380681
-0.00305914
0.000401306
-0.0032381
0.000415435
-0.00338867
0.000424495
-0.00351962
0.000429857
-0.00363894
0.000432656
-0.00375303
0.00043373
-0.00386658
0.000433639
-0.00398264
0.000432709
-0.00410296
0.0004311
-0.0042283
-0.00435865
0.000428832
8.91967e-06
-0.000156153
3.29778e-05
-0.000491532
6.95542e-05
-0.000857169
0.00011513
-0.00124088
0.000165478
-0.00162594
0.000216202
-0.0019945
0.000263408
-0.00233132
0.00030426
-0.00262648
0.000337249
-0.00287655
0.000362127
-0.00308402
0.000379601
-0.00325558
0.00039093
-0.0034
0.000397537
-0.00352623
0.000400737
-0.00364214
0.000401585
-0.00375388
0.00040084
-0.00386583
0.000398997
-0.0039808
0.000396334
-0.00410029
0.000392981
-0.00422495
-0.00435461
0.000388937
8.9866e-06
-0.00016514
3.29912e-05
-0.000515536
6.91323e-05
-0.00089331
0.000113666
-0.00128542
0.00016224
-0.00167451
0.000210469
-0.00204273
0.000254612
-0.00237546
0.000292072
-0.00266394
0.000321602
-0.00290608
0.000343172
-0.00310559
0.00035763
-0.00327004
0.000366288
-0.00340865
0.000370552
-0.00353049
0.000371673
-0.00364326
0.000370627
-0.00375283
0.0003681
-0.00386331
0.000364524
-0.00397722
0.00036014
-0.00409591
0.000355048
-0.00421986
-0.00434879
0.000349234
9.02703e-06
-0.000174167
3.29042e-05
-0.000539414
6.84983e-05
-0.000928904
0.00011186
-0.00132878
0.000158538
-0.00172119
0.000204191
-0.00208838
0.000245245
-0.00241651
0.00027935
-0.00269804
0.000305507
-0.00293223
0.000323888
-0.00312397
0.000335458
-0.00328161
0.000341566
-0.00341476
0.000343585
-0.00353251
0.000342701
-0.00364237
0.000339811
-0.00374995
0.000335531
-0.00385903
0.000330239
-0.00397193
0.000324141
-0.00408981
0.000317315
-0.00421303
-0.00434121
0.000309736
9.04046e-06
-0.000183207
3.27168e-05
-0.00056309
6.76557e-05
-0.000963843
0.000109724
-0.00137085
0.000154399
-0.00176586
0.000197408
-0.00213139
0.000235361
-0.00245447
0.000266156
-0.00272884
0.000289033
-0.00295511
0.000304341
-0.00313928
0.000313147
-0.00329041
0.000316813
-0.00341843
0.000316677
-0.00353237
0.000313852
-0.00363955
0.00030916
-0.00374525
0.000303151
-0.00385302
0.000296157
-0.00396494
0.000288352
-0.00408201
0.000279797
-0.00420448
-0.00433187
0.000270458
9.0266e-06
-0.000192234
3.24297e-05
-0.000586493
6.66092e-05
-0.000998023
0.00010727
-0.00141151
0.000149847
-0.00180844
0.000190158
-0.0021717
0.000225014
-0.00248932
0.000252554
-0.00275638
0.000272243
-0.0029748
0.000284594
-0.00315163
0.000290748
-0.00329657
0.000292074
-0.00341975
0.000289862
-0.00353016
0.000285152
-0.00363484
0.000278694
-0.0037388
0.000270978
-0.0038453
0.000262292
-0.00395625
0.000252786
-0.0040725
0.000242507
-0.0041942
-0.00432078
0.000231415
8.98532e-06
-0.000201219
3.2044e-05
-0.000609552
6.53648e-05
-0.00103134
0.000104515
-0.00145066
0.00014491
-0.00184884
0.000182484
-0.00220928
0.000214254
-0.00252109
0.0002386
-0.00278072
0.000255198
-0.0029914
0.000264701
-0.00316113
0.000268311
-0.00330018
0.00026739
-0.00341883
0.000263171
-0.00352594
0.000256626
-0.00362829
0.000248433
-0.0037306
0.000239027
-0.00383589
0.000228659
-0.00394588
0.000217457
-0.0040613
0.000205458
-0.0041822
-0.00430794
0.000192619
8.91666e-06
-0.000210136
3.15618e-05
-0.000632197
6.39294e-05
-0.00106371
0.000101472
-0.0014882
0.000139615
-0.00188698
0.000174424
-0.00224409
0.000203131
-0.0025498
0.00022435
-0.00280194
0.000237952
-0.003005
0.000244712
-0.00316789
0.00024588
-0.00330134
0.000242794
-0.00341575
0.000236632
-0.00351978
0.000228294
-0.00361995
0.000218393
-0.0037207
0.000207312
-0.00382481
0.00019527
-0.00393384
0.000182376
-0.00404841
0.000168663
-0.00416849
-0.00429336
0.000154082
8.82082e-06
-0.000218956
3.09851e-05
-0.000654361
6.23106e-05
-0.00109504
9.81595e-05
-0.00152405
0.00013399
-0.00192281
0.000166017
-0.00227611
0.000191692
-0.00257547
0.000209854
-0.00282011
0.000220555
-0.0030157
0.000224674
-0.00317201
0.000223491
-0.00330016
0.000218317
-0.00341057
0.00021027
-0.00351173
0.000200177
-0.00360986
0.00018859
-0.00370912
0.000175847
-0.00381207
0.000162137
-0.00392013
0.000147556
-0.00403382
0.000132134
-0.00415307
-0.00427704
0.000115813
8.69814e-06
-0.000227655
3.03168e-05
-0.00067598
6.05169e-05
-0.00112524
9.45943e-05
-0.00155813
0.000128063
-0.00195628
0.000157302
-0.00230535
0.000179983
-0.00259816
0.000195161
-0.00283528
0.000203053
-0.00302359
0.000204628
-0.00317358
0.000201181
-0.00329671
0.000193988
-0.00340338
0.000184104
-0.00350185
0.00017229
-0.00359805
0.000159039
-0.00369586
0.000144644
-0.00379768
0.000129271
-0.00390476
0.000113004
-0.00401756
9.58805e-05
-0.00413594
-0.00425899
7.78313e-05
8.54911e-06
-0.000236204
2.95601e-05
-0.000696991
5.85572e-05
-0.00115423
9.07942e-05
-0.00159036
0.000121862
-0.00198735
0.000148315
-0.0023318
0.000168045
-0.00261789
0.000180316
-0.00284755
0.00018549
-0.00302877
0.00018461
-0.00317271
0.000178979
-0.00329108
0.000169831
-0.00339423
0.000158155
-0.00349017
0.000144649
-0.00358454
0.000129752
-0.00368097
0.000113717
-0.00378164
9.66869e-05
-0.00388773
7.87352e-05
-0.00399961
5.98906e-05
-0.0041171
-0.00423926
4.01611e-05
8.37435e-06
-0.000244578
2.87186e-05
-0.000717335
5.64412e-05
-0.00118196
8.67772e-05
-0.0016207
0.000115415
-0.00201599
0.000139092
-0.00235548
0.000155921
-0.00263472
0.000165359
-0.00285699
0.000167902
-0.00303131
0.000164655
-0.00316946
0.000156913
-0.00328334
0.000145866
-0.00338318
0.00013244
-0.00347675
0.000117269
-0.00356937
0.000100741
-0.00366444
8.30779e-05
-0.00376398
6.44013e-05
-0.00386905
4.47797e-05
-0.00397998
2.41567e-05
-0.00409647
-0.00421715
2.0393e-06
8.17459e-06
-0.000252753
2.7796e-05
-0.000736956
5.41785e-05
-0.00120834
8.25613e-05
-0.00164908
0.000108747
-0.00204217
0.000129666
-0.0023764
0.000143646
-0.00264869
0.000150327
-0.00286367
0.000150326
-0.00303131
0.000144791
-0.00316392
0.000135007
-0.00327356
0.000122113
-0.00337029
0.000106973
-0.00346161
9.01607e-05
-0.00355256
7.20189e-05
-0.0036463
5.27367e-05
-0.0037447
3.24226e-05
-0.00384874
1.11388e-05
-0.0039587
-1.10902e-05
-0.00407425
-0.00419397
-3.42658e-05
7.95066e-06
-0.000260703
2.67965e-05
-0.000755802
5.17793e-05
-0.00123332
7.81645e-05
-0.00167547
0.000101885
-0.00206589
0.00012007
-0.00239459
0.000131257
-0.00265988
0.000135257
-0.00286767
0.000132792
-0.00302884
0.000125046
-0.00315618
0.000113282
-0.00326179
9.85886e-05
-0.0033556
8.17673e-05
-0.00344479
6.33365e-05
-0.00353413
4.3595e-05
-0.00362656
2.27029e-05
-0.0037238
7.50594e-07
-0.00382679
-2.21885e-05
-0.00393576
-4.61129e-05
-0.00405032
-0.00416911
-7.09676e-05
7.70348e-06
-0.000268407
2.57244e-05
-0.000773823
4.92538e-05
-0.00125685
7.36045e-05
-0.00169982
9.48539e-05
-0.00208714
0.000110334
-0.00241007
0.000118785
-0.00266833
0.000120179
-0.00286907
0.000115329
-0.00302399
0.000105443
-0.00314629
9.17578e-05
-0.00324811
7.53079e-05
-0.00333915
5.68357e-05
-0.00342631
3.68067e-05
-0.0035141
1.54793e-05
-0.00360523
-7.01188e-06
-0.00370131
-3.05848e-05
-0.00380321
-5.51829e-05
-0.00391116
-8.07704e-05
-0.00402473
-0.00414254
-0.00010735
7.43407e-06
-0.000275841
2.45842e-05
-0.000790973
4.66123e-05
-0.00127888
6.88986e-05
-0.0017221
8.76779e-05
-0.00210592
0.000100486
-0.00242287
0.000106262
-0.00267411
0.000105123
-0.00286793
9.79628e-05
-0.00301683
8.60034e-05
-0.00313433
7.04504e-05
-0.00323255
5.2284e-05
-0.00332098
3.21888e-05
-0.00340622
1.05807e-05
-0.00349249
-1.23188e-05
-0.00358233
-3.63994e-05
-0.00367723
-6.15927e-05
-0.00377802
-8.78378e-05
-0.00388492
-0.00011509
-0.00399748
-0.00411425
-0.000143372
7.14349e-06
-0.000282984
2.33803e-05
-0.00080721
4.3865e-05
-0.00129936
6.40638e-05
-0.0017423
8.03799e-05
-0.00212224
9.05541e-05
-0.00243305
9.37143e-05
-0.00267727
9.01155e-05
-0.00286433
8.07162e-05
-0.00300743
6.67461e-05
-0.00312036
4.9375e-05
-0.00321518
2.95286e-05
-0.00330113
7.83625e-06
-0.00338453
-1.53322e-05
-0.00346932
-3.97902e-05
-0.00355787
-6.54504e-05
-0.00365157
-9.2256e-05
-0.00375121
-0.000120143
-0.00385703
-0.000149059
-0.00396857
-0.00408429
-0.000179024
6.83286e-06
-0.000289817
2.21175e-05
-0.000822495
4.1022e-05
-0.00131827
5.91166e-05
-0.0017604
7.29816e-05
-0.0021361
8.05627e-05
-0.00244063
8.1169e-05
-0.00267787
7.51796e-05
-0.00285834
6.36099e-05
-0.00299586
4.76878e-05
-0.00310444
2.85448e-05
-0.00319604
7.05233e-06
-0.00327964
-1.62127e-05
-0.00336126
-4.09239e-05
-0.00344461
-6.69266e-05
-0.00353187
-9.41553e-05
-0.00362434
-0.000122565
-0.0037228
-0.000152089
-0.00382751
-0.000182664
-0.00393799
-0.00405265
-0.000214299
6.50337e-06
-0.000296321
2.08004e-05
-0.000836792
3.80934e-05
-0.00133556
5.40727e-05
-0.00177638
6.55037e-05
-0.00214753
7.05352e-05
-0.00244566
6.86491e-05
-0.00267599
6.03375e-05
-0.00285003
4.66622e-05
-0.00298219
2.88434e-05
-0.00308662
7.97134e-06
-0.00317517
-1.51354e-05
-0.00325653
-3.99502e-05
-0.00333645
-6.61867e-05
-0.00341837
-9.37197e-05
-0.00350434
-0.000122505
-0.00359556
-0.000152509
-0.0036928
-0.000183664
-0.00379635
-0.000215893
-0.00390576
-0.00401936
-0.000249186
6.1562e-06
-0.000302477
1.94338e-05
-0.000850069
3.5089e-05
-0.00135122
4.89473e-05
-0.00179024
5.79658e-05
-0.00215655
6.04935e-05
-0.00244819
5.61763e-05
-0.00267167
4.56086e-05
-0.00283946
2.98896e-05
-0.00296647
1.0226e-05
-0.00306696
-1.23349e-05
-0.00315261
-3.70264e-05
-0.00323184
-6.3369e-05
-0.0033101
-9.11133e-05
-0.00339063
-0.000120162
-0.00347529
-0.00015049
-0.00356523
-0.000182078
-0.00366121
-0.000214857
-0.00376357
-0.000248735
-0.00387188
-0.00398442
-0.000283676
5.79259e-06
-0.000308269
1.80222e-05
-0.000862299
3.20182e-05
-0.00136521
4.37549e-05
-0.00180197
5.03862e-05
-0.00216318
5.04575e-05
-0.00244826
4.37703e-05
-0.00266498
3.10107e-05
-0.0028267
1.33068e-05
-0.00294877
-8.15283e-06
-0.0030455
-3.2365e-05
-0.0031284
-5.86132e-05
-0.00320559
-8.64624e-05
-0.00328226
-0.000115697
-0.0033614
-0.000146245
-0.00344474
-0.000178102
-0.00353337
-0.000211262
-0.00362805
-0.000245658
-0.00372918
-0.000281178
-0.00383636
-0.00394784
-0.000317758
5.41379e-06
-0.000313683
1.65702e-05
-0.000873455
2.88902e-05
-0.00137753
3.85094e-05
-0.00181159
4.2782e-05
-0.00216745
4.04459e-05
-0.00244592
3.1449e-05
-0.00265599
1.65594e-05
-0.00281181
-3.07308e-06
-0.00292913
-2.62827e-05
-0.00302229
-5.21108e-05
-0.00310257
-7.98892e-05
-0.00317782
-0.000109224
-0.00325292
-0.000139932
-0.00333069
-0.000171963
-0.00341271
-0.000205333
-0.0035
-0.00024005
-0.00359334
-0.000276054
-0.00369317
-0.000313213
-0.0037992
-0.00390963
-0.000351423
5.02104e-06
-0.000318704
1.50824e-05
-0.000883517
2.5714e-05
-0.00138816
3.32239e-05
-0.0018191
3.51693e-05
-0.0021694
3.04758e-05
-0.00244123
1.92288e-05
-0.00264474
2.2699e-06
-0.00279485
-1.92386e-05
-0.00290763
-4.41547e-05
-0.00299737
-7.15651e-05
-0.00307516
-0.000100848
-0.00314853
-0.000131649
-0.00322212
-0.000163812
-0.00329853
-0.000197308
-0.00337921
-0.000232174
-0.00346514
-0.000268433
-0.00355708
-0.000306034
-0.00365557
-0.000344826
-0.00376041
-0.0038698
-0.000384661
4.61563e-06
-0.00032332
1.35632e-05
-0.000892464
2.24981e-05
-0.0013971
2.79109e-05
-0.00182451
2.7563e-05
-0.00216905
2.05628e-05
-0.00243423
7.12463e-06
-0.0026313
-1.18473e-05
-0.00277588
-3.51795e-05
-0.00288429
-6.17607e-05
-0.00297079
-9.07217e-05
-0.0030462
-0.000121486
-0.00311777
-0.000153733
-0.00318987
-0.000187332
-0.00326493
-0.000222276
-0.00334427
-0.000258617
-0.0034288
-0.000296401
-0.00351929
-0.000335586
-0.00361639
-0.000376008
-0.00371999
-0.00382834
-0.000417462
4.19886e-06
-0.000327519
1.2017e-05
-0.000900283
1.92508e-05
-0.00140433
2.2582e-05
-0.00182785
1.99775e-05
-0.00216645
1.07209e-05
-0.00242497
-4.85011e-06
-0.00261573
-2.57787e-05
-0.00275495
-5.08866e-05
-0.00285918
-7.90937e-05
-0.00294258
-0.000109575
-0.00301571
-0.000141796
-0.00308555
-0.00017547
-0.0031562
-0.000210488
-0.00322991
-0.000246859
-0.0033079
-0.000284655
-0.003391
-0.000323943
-0.00348
-0.000364698
-0.00357563
-0.000406745
-0.00367794
-0.00378527
-0.000449816
3.77205e-06
-0.000331291
1.04479e-05
-0.000906958
1.59797e-05
-0.00140986
1.72482e-05
-0.00182911
1.24261e-05
-0.00216162
9.74435e-07
-0.00241352
-1.66838e-05
-0.00259807
-3.95151e-05
-0.00273212
-6.6352e-05
-0.00283235
-9.61474e-05
-0.00291279
-0.00012812
-0.00298374
-0.000161775
-0.00305189
-0.000196856
-0.00312112
-0.000233275
-0.00319349
-0.000271054
-0.00327012
-0.000310282
-0.00335177
-0.000351049
-0.00343924
-0.000393356
-0.00353333
-0.000437025
-0.00363427
-0.00374058
-0.000481712
3.33667e-06
-0.000334627
8.86015e-06
-0.000912482
1.26925e-05
-0.0014137
1.192e-05
-0.00182834
4.91912e-06
-0.00215462
-8.69564e-06
-0.00239991
-2.83669e-05
-0.0025784
-5.30474e-05
-0.00270744
-8.15684e-05
-0.00280383
-0.000112916
-0.00288144
-0.000146352
-0.00295031
-0.00018142
-0.00301682
-0.000217889
-0.00308465
-0.00025569
-0.00315569
-0.000294857
-0.00323095
-0.000335492
-0.00331114
-0.000377712
-0.00339702
-0.00042155
-0.00348949
-0.000466833
-0.00358899
2.89401e-06
-0.000337521
7.25764e-06
-0.000916846
9.39646e-06
-0.00141584
6.60686e-06
-0.00182555
-2.52926e-06
-0.00214549
-1.82472e-05
-0.00238419
-3.98876e-05
-0.00255676
-6.63674e-05
-0.00268096
-9.65296e-05
-0.00277366
-0.000129396
-0.00284858
-0.000164268
-0.00291543
-0.000200726
-0.00298037
-0.000238565
-0.00304681
-0.00027773
-0.00311652
-0.000318264
-0.00319042
-0.000360281
-0.00326912
-0.000403924
-0.00335337
-0.000449265
-0.00344415
2.44509e-06
-0.000339967
5.64407e-06
-0.000920044
6.09859e-06
-0.00141629
1.32667e-06
-0.00182078
-9.91834e-06
-0.00213424
-2.76823e-05
-0.00236642
-5.12376e-05
-0.00253321
-7.94679e-05
-0.00265273
-0.00011123
-0.0027419
-0.000145581
-0.00281422
-0.000181863
-0.00287915
-0.000219691
-0.00294254
-0.000258882
-0.00300762
-0.000299393
-0.00307601
-0.000341274
-0.00314854
-0.000384647
-0.00322575
-0.000429678
-0.00330834
1.99124e-06
-0.000341958
4.02346e-06
-0.000922077
2.80293e-06
-0.00141507
-3.93836e-06
-0.00181404
-1.72288e-05
-0.00212095
-3.69908e-05
-0.00234666
-6.2409e-05
-0.00250779
-9.23425e-05
-0.0026228
-0.000125664
-0.00270858
-0.000161468
-0.00277842
-0.000199135
-0.00284148
-0.000238311
-0.00290336
-0.000278835
-0.00296709
-0.000320675
-0.00303417
-0.000363883
-0.00310533
-0.000408587
-0.00318104
1.53331e-06
-0.000343491
2.39965e-06
-0.000922943
-4.69037e-07
-0.0014122
-9.15525e-06
-0.00180535
-2.44552e-05
-0.00210565
-4.61646e-05
-0.00232495
-7.33947e-05
-0.00248056
-0.000104985
-0.00259121
-0.000139829
-0.00267374
-0.000177053
-0.0027412
-0.00021608
-0.00280246
-0.000256583
-0.00286286
-0.000298423
-0.00292525
-0.000341574
-0.00299102
-0.000386093
-0.00306081
-0.00313503
1.07163e-06
-0.000344563
7.71649e-07
-0.000922643
-3.75467e-06
-0.00140767
-1.43263e-05
-0.00179478
-3.15895e-05
-0.00208839
-5.51962e-05
-0.00230135
-8.41884e-05
-0.00245157
-0.000117392
-0.002558
-0.000153719
-0.00263741
-0.000192334
-0.00270258
-0.000232695
-0.0027621
-0.000274505
-0.00282105
-0.000317642
-0.00288212
-0.00036209
-0.00294657
-0.000407901
-0.003015
6.02525e-07
-0.000345165
-8.55454e-07
-0.000921185
-7.00511e-06
-0.00140152
-1.94426e-05
-0.00178234
-3.86247e-05
-0.00206921
-6.40788e-05
-0.00227589
-9.47843e-05
-0.00242086
-0.000129557
-0.00252323
-0.000167331
-0.00259964
-0.000207307
-0.0026626
-0.000248978
-0.00272043
-0.000292075
-0.00277795
-0.00033649
-0.0028377
-0.000382217
-0.00290085
1.00156e-07
-0.000345265
-2.4815e-06
-0.000918603
-1.02302e-05
-0.00139378
-2.44979e-05
-0.00176808
-4.55541e-05
-0.00204815
-7.28062e-05
-0.00224864
-0.000105177
-0.00238849
-0.000141476
-0.00248693
-0.000180662
-0.00256045
-0.00022197
-0.0026213
-0.000264926
-0.00267747
-0.000309288
-0.00273359
-0.000354964
-0.00279202
-0.00285385
-3.57823e-07
-0.000344908
-4.09498e-06
-0.000914866
-1.3425e-05
-0.00138445
-2.94867e-05
-0.00175201
-5.23714e-05
-0.00202527
-8.13728e-05
-0.00221964
-0.000115363
-0.0023545
-0.000153147
-0.00244915
-0.000193709
-0.00251989
-0.00023632
-0.00257868
-0.000280537
-0.00263325
-0.000326141
-0.00268799
-0.000373059
-0.00274511
-8.08054e-07
-0.0003441
-5.69556e-06
-0.000909979
-1.6585e-05
-0.00137356
-3.44036e-05
-0.0017342
-5.90712e-05
-0.0020006
-8.97736e-05
-0.00218894
-0.000125336
-0.00231894
-0.000164565
-0.00240992
-0.000206469
-0.00247799
-0.000250353
-0.0025348
-0.000295807
-0.0025878
-0.000342632
-0.00264116
-0.00269697
-1.27248e-06
-0.000342827
-7.28429e-06
-0.000903967
-1.97063e-05