/*--------------------------------*- C++ -*----------------------------------*\
  =========                 |
  \\      /  F ield         | OpenFOAM: The Open Source CFD Toolbox
   \\    /   O peration     | Website:  https://openfoam.org
    \\  /    A nd           | Version:  7
     \\/     M anipulation  |
\*---------------------------------------------------------------------------*/
FoamFile
{
    version     2.0;
    format      ascii;
    class       volVectorField;
    location    "40";
    object      U;
}
// * * * * * * * * * * * * * * * * * * * * * * * * * * * * * * * * * * * * * //

dimensions      [0 1 -1 0 0 0 0];

internalField   nonuniform List<vector> 
8500
(
(-0.00882453 0.00681812 9.29272e-20)
(-0.00872404 0.00649518 7.82593e-20)
(-0.0181738 0.0149135 -1.0322e-19)
(-0.00856353 0.00614628 4.93984e-19)
(-0.017124 0.0138707 -2.93152e-19)
(-0.0171558 0.0187928 -1.48012e-21)
(-0.00833595 0.00577119 -2.57018e-19)
(-0.0158484 0.0127702 2.37795e-21)
(-0.0142142 0.0171301 2.12309e-19)
(-0.00803383 0.00537004 -9.03724e-20)
(-0.0143265 0.0116149 5.38437e-20)
(-0.0108305 0.0154152 7.84994e-20)
(0.00231894 0.0173703 -2.31799e-19)
(-0.00764943 0.0049433 4.63829e-19)
(-0.0125375 0.0104089 -1.17017e-19)
(-0.00697285 0.013658 -1.69708e-19)
(0.00886115 0.0152743 8.73169e-20)
(0.0350186 0.0160818 4.13399e-19)
(-0.00717471 0.00449191 -2.08924e-19)
(-0.01046 0.00915723 3.18229e-20)
(-0.00260959 0.0118699 -2.36432e-19)
(0.0161404 0.0131905 -3.33831e-19)
(0.0458138 0.0139669 -1.43598e-19)
(0.0864284 0.0149462 -8.03979e-20)
(-0.00660144 0.00401725 -2.04187e-19)
(-0.00807263 0.00786653 4.50304e-19)
(0.00229054 0.0100647 2.8106e-19)
(0.0241938 0.0111406 1.25765e-19)
(0.0576222 0.0119632 -4.54715e-20)
(0.102536 0.0132926 -2.98172e-19)
(0.158803 0.0157723 4.16583e-20)
(-0.00592124 0.00352126 3.6351e-20)
(-0.005354 0.00654465 -6.78945e-20)
(0.00775789 0.00825792 5.00635e-20)
(0.0330563 0.00914905 -1.20854e-19)
(0.0704771 0.0101038 2.56275e-19)
(0.119906 0.0118908 4.64252e-19)
(0.181094 0.0151483 1.43795e-19)
(0.253545 0.0203958 9.02078e-20)
(-0.00512567 0.00300642 -1.22662e-19)
(-0.00228308 0.00520099 -2.85859e-19)
(0.0138216 0.00646725 -2.16718e-19)
(0.0427597 0.00724245 6.76278e-20)
(0.0844061 0.00842428 -3.65756e-19)
(0.138553 0.0107838 -4.55778e-19)
(0.204809 0.0149456 -6.12153e-20)
(0.282465 0.0213966 -1.42255e-19)
(0.370345 0.0304465 -1.44446e-20)
(-0.0042063 0.00247581 -9.47986e-20)
(0.00116067 0.00384651 -7.41064e-20)
(0.0205089 0.00471263 3.33503e-19)
(0.0533324 0.00545005 -2.06461e-19)
(0.0994306 0.0069626 5.33587e-19)
(0.158481 0.0100163 2.25088e-19)
(0.229919 0.0152119 -1.48085e-19)
(0.312789 0.0229903 -2.53817e-19)
(0.405594 0.0335855 -4.05359e-19)
(0.506166 0.0469808 4.30732e-19)
(-0.00315478 0.00193314 1.86455e-19)
(0.00499694 0.00249374 3.03813e-19)
(0.0278453 0.00301612 1.23963e-20)
(0.0647984 0.00380338 1.89425e-19)
(0.115565 0.00575857 -4.58252e-19)
(0.179684 0.00963386 1.10946e-19)
(0.256383 0.0159943 -7.2584e-20)
(0.344428 0.0252191 -1.43168e-20)
(0.441959 0.0374488 -1.38371e-19)
(0.546402 0.0525396 -3.04505e-19)
(0.654487 0.0700402 1.51025e-19)
(-0.00196297 0.00138276 -3.3522e-20)
(0.00924438 0.00115682 -4.58938e-19)
(0.0358532 0.00140192 -3.53809e-19)
(0.077177 0.00233616 -2.25743e-20)
(0.132815 0.00485373 8.03653e-20)
(0.202141 0.00968258 -1.5546e-19)
(0.284145 0.0173381 -9.27766e-22)
(0.377271 0.0281211 5.18206e-20)
(0.479271 0.0420588 7.65389e-20)
(0.587147 0.0588629 4.33607e-19)
(0.697234 0.0779186 1.80096e-19)
(0.805455 0.0983239 1.10412e-19)
(0.907726 0.118986 -1.47921e-19)
(-0.00062295 0.000829661 5.97729e-20)
(0.0139203 -0.000148527 2.43507e-19)
(0.0445524 -0.000103716 1.521e-19)
(0.090482 0.00108414 -2.79804e-19)
(0.151179 0.00429098 6.00654e-20)
(0.225824 0.0102085 3.66074e-19)
(0.313132 0.0192868 2.00431e-19)
(0.411193 0.0317294 2.65858e-20)
(0.517342 0.0474308 2.45528e-19)
(0.628155 0.065941 -5.00647e-19)
(0.739601 0.0864741 -1.41158e-19)
(0.847388 0.107975 -6.04203e-20)
(0.947426 0.129249 3.58659e-19)
(1.03633 0.149123 -2.38131e-19)
(0.000872801 0.000279479 -5.57518e-20)
(0.0190403 -0.00140501 -3.45972e-20)
(0.053959 -0.00147263 -8.94174e-20)
(0.104721 8.47566e-05 2.93499e-19)
(0.170646 0.00411404 1.97017e-19)
(0.250689 0.0112568 -6.28694e-20)
(0.343255 0.0218806 -1.1102e-20)
(0.446049 0.0360715 2.48224e-19)
(0.55597 0.0535715 -3.78715e-19)
(0.669176 0.0737552 2.31944e-19)
(0.781316 0.0956619 2.38162e-19)
(0.887959 0.118095 6.37506e-20)
(0.985109 0.13978 -1.27335e-19)
(1.0697 0.159545 1.86136e-19)
(1.13994 0.176481 1.53672e-19)
(0.00253135 -0.000261491 -8.69454e-20)
(0.0246182 -0.00259387 3.82728e-20)
(0.064085 -0.00267489 2.52169e-19)
(0.119896 -0.00062312 4.15499e-21)
(0.191194 0.004367 -4.26366e-19)
(0.276679 0.0128715 -2.9315e-19)
(0.374413 0.025156 -2.50563e-19)
(0.481682 0.0411685 -1.31728e-19)
(0.594946 0.06048 5.01702e-19)
(0.709961 0.0822786 -2.23149e-20)
(0.822119 0.105431 6.82681e-20)
(0.926935 0.128615 1.11943e-19)
(1.02061 0.150508 -3.7392e-19)
(1.10049 0.169968 -3.00294e-19)
(1.1653 0.186191 8.04698e-20)
(1.21516 0.198763 -1.55595e-20)
(1.25134 0.207692 -3.21236e-19)
(0.0043592 -0.000786326 1.10482e-19)
(0.0306655 -0.00369492 1.41235e-19)
(0.0749382 -0.00367907 -2.60956e-19)
(0.136 -0.000999616 -1.42504e-20)
(0.212792 0.00509376 5.01669e-19)
(0.303726 0.0150941 3.13792e-19)
(0.406487 0.0291448 -1.26466e-19)
(0.517923 0.0470347 1.86411e-19)
(0.63405 0.068147 -1.99124e-19)
(0.750266 0.0914764 -2.01767e-19)
(0.861768 0.115724 2.06502e-19)
(0.96412 0.139468 -4.17821e-19)
(1.05381 0.161364 5.29604e-20)
(1.12865 0.180337 2.02762e-19)
(1.18795 0.195709 -1.11275e-19)
(1.23236 0.207222 1.59889e-19)
(1.26356 0.215029 -1.93496e-19)
(1.28383 0.219447 3.19887e-20)
(0.00636216 -0.00128749 1.29715e-19)
(0.0371913 -0.0046867 -4.29537e-19)
(0.0865217 -0.00445241 6.88849e-20)
(0.15302 -0.00100426 -7.20782e-20)
(0.235399 0.00633738 -1.76587e-19)
(0.331748 0.0179636 -1.41867e-19)
(0.439348 0.0338739 1.2726e-19)
(0.554592 0.0536775 -5.84601e-19)
(0.673066 0.0765556 -1.37217e-19)
(0.789855 0.101307 8.84952e-20)
(0.900049 0.126484 -1.12337e-19)
(0.999353 0.150587 3.24323e-19)
(1.08463 0.172288 2.28382e-19)
(1.15423 0.190608 7.96964e-20)
(1.20802 0.205013 4.41853e-19)
(1.24716 0.215408 -4.37587e-19)
(1.27371 0.222086 2.70041e-19)
(1.29016 0.225482 3.8313e-19)
(1.29907 0.226566 -2.73915e-19)
(1.3025 0.224627 7.71423e-20)
(0.00854528 -0.00175688 1.04302e-20)
(0.0442018 -0.00554662 -4.56241e-21)
(0.0988332 -0.00496121 3.1449e-19)
(0.170934 -0.000596422 -4.54316e-20)
(0.258963 0.00813954 -1.95261e-20)
(0.360654 0.0215153 3.37081e-19)
(0.472855 0.0393645 3.88081e-19)
(0.591502 0.0610969 1.06161e-19)
(0.711776 0.0856814 2.28949e-19)
(0.82851 0.111726 -1.51133e-19)
(0.936774 0.137649 -1.28415e-19)
(1.03251 0.161909 -2.35925e-21)
(1.11304 0.183226 -1.58167e-19)
(1.17726 0.200743 -5.70405e-21)
(1.22562 0.214088 -3.10934e-19)
(1.25975 0.223327 1.23123e-19)
(1.282 0.228883 2.89598e-19)
(1.29501 0.231296 -1.4625e-19)
(1.30132 0.231532 1.68672e-19)
(1.30294 0.229023 3.05077e-19)
(0.0109127 -0.00218583 4.01857e-20)
(0.0517003 -0.00625108 -1.10725e-19)
(0.111865 -0.00517106 -6.51255e-21)
(0.189714 0.000264158 2.89782e-21)
(0.283421 0.0105399 -2.22144e-19)
(0.390338 0.0257806 -3.14182e-20)
(0.506859 0.0456316 -4.00512e-19)
(0.628465 0.069286 4.17175e-19)
(0.74997 0.0954939 2.15651e-19)
(0.866027 0.122681 1.90134e-20)
(0.971782 0.149159 -2.17855e-21)
(1.0635 0.173376 -1.13501e-19)
(1.13902 0.194133 6.73894e-20)
(1.19784 0.210718 1.85028e-19)
(1.24092 0.222929 -3.22389e-19)
(1.27031 0.230992 2.46229e-19)
(1.28863 0.235447 -2.97928e-19)
(1.29856 0.236919 -1.34642e-20)
(1.30262 0.236364 1.22857e-21)
(1.3027 0.233325 1.37088e-19)
(0.0134675 -0.00256521 -8.77457e-20)
(0.0596868 -0.00677571 -1.00505e-19)
(0.125604 -0.00504725 1.43503e-19)
(0.209322 0.0016169 -6.40101e-20)
(0.308702 0.0135755 -2.0184e-20)
(0.420686 0.030786 -1.96918e-19)
(0.541203 0.0526839 2.20667e-19)
(0.665291 0.0782309 -3.96366e-19)
(0.787447 0.105957 3.67003e-20)
(0.902227 0.134121 6.12985e-20)
(1.00494 0.160956 -3.39027e-20)
(1.09228 0.184935 2.42779e-20)
(1.16262 0.20497 -2.8228e-19)
(1.21606 0.220514 -2.16194e-19)
(1.25407 0.231538 1.8199e-19)
(1.27905 0.238421 -5.88505e-20)
(1.29378 0.241805 -3.54466e-19)
(1.301 0.242384 -6.79416e-20)
(1.30311 0.241089 -2.98745e-19)
(1.30188 0.23756 -3.7122e-19)
(0.0162117 -0.00288546 -2.08707e-20)
(0.0681579 -0.00709556 1.48206e-19)
(0.140031 -0.00455512 1.07998e-19)
(0.229713 0.00349986 3.15947e-19)
(0.334725 0.0172801 -1.13692e-20)
(0.451575 0.0365531 1.68628e-19)
(0.575724 0.0605237 -3.58538e-19)
(0.701791 0.0879113 1.26268e-19)
(0.824018 0.117029 -1.06177e-19)
(0.93695 0.145991 1.54714e-19)
(1.03616 0.172984 3.81511e-20)
(1.11882 0.196539 9.11283e-20)
(1.1839 0.215708 2.6228e-19)
(1.23205 0.230121 3.27797e-20)
(1.26523 0.239924 -1.64623e-19)
(1.28612 0.245635 2.7327e-19)
(1.29763 0.247985 9.677e-20)
(1.30246 0.247717 -4.59911e-20)
(1.30291 0.245733 2.80403e-19)
(1.30058 0.24175 1.8674e-19)
(0.0191462 -0.00313665 6.84385e-20)
(0.0771062 -0.00718535 7.71048e-20)
(0.15512 -0.00366046 -1.90855e-19)
(0.250833 0.00594921 -4.36398e-20)
(0.361399 0.0216839 5.65333e-20)
(0.482876 0.0430979 -3.3327e-20)
(0.610258 0.0691469 2.03347e-19)
(0.737784 0.098301 -6.48282e-20)
(0.85951 0.128667 -7.97888e-20)
(0.970064 0.158238 -2.73366e-19)
(1.06537 0.185191 -1.75691e-19)
(1.14312 0.208149 -1.62765e-19)
(1.20291 0.226325 -1.33455e-19)
(1.24595 0.239535 5.13575e-20)
(1.27457 0.248096 -1.00569e-19)
(1.29171 0.252654 1.21926e-20)
(1.30033 0.254011 1.92788e-19)
(1.30308 0.252947 2.05545e-19)
(1.30211 0.250318 1.48538e-20)
(1.29887 0.245913 1.30298e-19)
(0.0222705 -0.00330861 3.538e-20)
(0.086521 -0.00701969 1.31856e-19)
(0.170841 -0.00232991 1.04352e-19)
(0.27262 0.00899874 -1.73699e-19)
(0.388626 0.0268129 1.61337e-19)
(0.514453 0.0504307 -5.25007e-20)
(0.64464 0.0785431 -1.12097e-19)
(0.773096 0.109369 2.69809e-19)
(0.893769 0.140824 -6.81593e-20)
(1.00146 0.170809 -2.68098e-21)
(1.09252 0.197529 1.88427e-19)
(1.16523 0.219729 -1.70458e-19)
(1.21977 0.236802 7.50227e-20)
(1.25788 0.248757 -1.90463e-19)
(1.28225 0.25607 3.22595e-19)
(1.29597 0.259502 -2.45586e-19)
(1.30203 0.259911 -1.48778e-19)
(1.30297 0.258096 -1.61098e-21)
(1.30079 0.254864 -2.20708e-19)
(1.29679 0.250066 -2.75027e-21)
(0.0255826 -0.00339094 -1.59115e-19)
(0.0963873 -0.00657338 -5.83776e-20)
(0.187155 -0.00053138 -1.94621e-19)
(0.295007 0.0126794 -1.07958e-19)
(0.416303 0.0326883 -5.54841e-20)
(0.546167 0.0585561 -2.68852e-20)
(0.678709 0.0886962 1.23702e-19)
(0.807563 0.121079 -6.78308e-20)
(0.926657 0.15345 -3.3391e-20)
(1.03105 0.183654 8.45715e-20)
(1.11759 0.209955 -1.15632e-19)
(1.18517 0.231251 1.48103e-19)
(1.23457 0.247131 1.43353e-19)
(1.26799 0.257791 3.20716e-20)
(1.28841 0.263863 -9.17844e-20)
(1.29904 0.266202 -2.18728e-20)
(1.30284 0.265707 -1.27656e-19)
(1.30223 0.263184 -5.4603e-20)
(1.29902 0.259384 9.02638e-20)
(1.2944 0.254217 -1.55526e-19)
(0.0290794 -0.00337318 5.28318e-20)
(0.106686 -0.00582169 -8.9746e-20)
(0.20402 0.00176556 1.52829e-19)
(0.317918 0.0170189 7.14678e-20)
(0.444317 0.0393267 -1.0348e-19)
(0.577875 0.0674726 1.28243e-19)
(0.712306 0.0995841 3.20349e-20)
(0.841035 0.133392 -5.82326e-20)
(0.958056 0.166497 1.5779e-19)
(1.05878 0.196723 4.72167e-20)
(1.1406 0.222431 9.05148e-20)
(1.20304 0.242693 -9.41065e-20)
(1.24744 0.257304 -6.28723e-20)
(1.27642 0.266648 1.34327e-19)
(1.29321 0.271492 -3.86596e-20)
(1.30106 0.272774 2.2283e-19)
(1.30287 0.271419 1.18524e-19)
(1.30092 0.268228 -1.98353e-20)
(1.29686 0.263893 6.57883e-20)
(1.29172 0.258377 2.52818e-19)
(0.0327561 -0.00324489 -2.61481e-20)
(0.117396 -0.00474061 1.47254e-20)
(0.221386 0.00458926 -1.40032e-19)
(0.341272 0.022041 9.01434e-20)
(0.472555 0.0467393 8.44614e-20)
(0.609437 0.0771731 -1.21126e-19)
(0.745281 0.11118 5.64357e-20)
(0.873375 0.146266 -1.10623e-19)
(0.98787 0.179916 -1.58543e-19)
(1.0846 0.209972 5.78282e-20)
(1.16156 0.234922 1.079e-20)
(1.21889 0.254037 9.11418e-20)
(1.25847 0.26732 6.21633e-20)
(1.2833 0.275336 -4.23339e-20)
(1.29676 0.278975 -8.8973e-21)
(1.30213 0.279239 -3.39203e-20)
(1.30221 0.277066 -1.78013e-19)
(1.29913 0.273242 1.48938e-20)
(1.29435 0.268399 -1.19391e-19)
(1.28879 0.26255 9.61889e-22)
(0.0366063 -0.00299577 -2.95739e-20)
(0.128488 -0.00330718 -3.79123e-20)
(0.2392 0.00796563 1.48175e-19)
(0.364982 0.0277658 -1.83657e-20)
(0.500897 0.0549321 6.60874e-22)
(0.640713 0.0876447 -8.26555e-20)
(0.777488 0.123453 -1.45703e-20)
(0.90446 0.159656 5.93434e-20)
(1.01602 0.193659 2.05114e-19)
(1.1085 0.223358 -6.62568e-20)
(1.18051 0.247401 1.15602e-20)
(1.23282 0.26527 3.65568e-20)
(1.26781 0.277181 -7.19322e-20)
(1.28876 0.283867 -4.67314e-20)
(1.29919 0.286328 1.2611e-20)
(1.30237 0.285614 4.43807e-20)
(1.30094 0.282662 1.1363e-19)
(1.29689 0.278238 -3.01153e-21)
(1.29153 0.272908 4.37404e-20)
(1.28562 0.266739 3.01667e-20)
(0.0406224 -0.00261572 5.15599e-20)
(0.139934 -0.00149974 1.0623e-19)
(0.257401 0.0119178 7.36599e-20)
(0.388957 0.0342086 -4.04148e-20)
(0.529224 0.0639056 1.50807e-19)
(0.671564 0.0988693 8.98193e-20)
(0.808795 0.136367 -1.35683e-19)
(0.934183 0.173516 -4.77668e-20)
(1.04245 0.207679 9.65965e-22)
(1.13046 0.236842 -4.03843e-20)
(1.1975 0.259841 -1.17596e-19)
(1.24492 0.276382 1.97001e-20)
(1.27554 0.28689 2.32524e-22)
(1.29291 0.292254 -1.25751e-19)
(1.30062 0.293568 5.80115e-20)
(1.30185 0.291914 -3.14459e-20)
(1.29913 0.288222 -1.39774e-19)
(1.29427 0.283224 6.81643e-20)
(1.28842 0.277426 -1.45564e-19)
(1.28222 0.270946 -8.82307e-20)
(0.0447948 -0.00209505 -1.8055e-20)
(0.151698 0.000701742 -4.55388e-20)
(0.275927 0.0164656 -7.65438e-20)
(0.413102 0.0413805 -3.70894e-21)
(0.557416 0.0736549 -6.83693e-21)
(0.701859 0.110824 -8.5205e-20)
(0.839077 0.149883 1.95012e-20)
(0.962452 0.1878 1.85799e-20)
(1.0671 0.221931 -3.90161e-20)
(1.15052 0.250389 3.24564e-21)
(1.2126 0.272221 6.20325e-20)
(1.25529 0.287366 -8.27364e-21)
(1.2818 0.296451 4.79561e-20)
(1.29588 0.300509 2.15147e-20)
(1.30113 0.30071 -1.19489e-19)
(1.30066 0.298154 9.2353e-21)
(1.29683 0.293753 7.41168e-20)
(1.29129 0.288205 -1.78436e-20)
(1.28503 0.281954 3.52124e-21)
(1.27861 0.275171 -1.23061e-20)
(0.0491129 -0.00142452 -1.66221e-20)
(0.163744 0.00331544 -1.63062e-20)
(0.294709 0.0216256 -2.9058e-20)
(0.437319 0.0492874 -1.92533e-20)
(0.585351 0.0841698 -5.03295e-20)
(0.731471 0.12348 5.89889e-20)
(0.868223 0.163961 1.17836e-19)
(0.989191 0.202461 4.14695e-20)
(1.08997 0.236372 2.13938e-20)
(1.16868 0.263967 -5.14434e-20)
(1.22588 0.284524 -4.97324e-22)
(1.26403 0.298218 3.37931e-20)
(1.28669 0.305871 -4.37406e-20)
(1.29775 0.308644 1.67844e-20)
(1.30081 0.307765 5.68669e-20)
(1.29885 0.304343 -1.98e-20)
(1.29408 0.299263 -3.53332e-20)
(1.28797 0.293185 -3.29807e-20)
(1.2814 0.286493 1.1821e-19)
(1.27479 0.27941 4.17696e-20)
(0.0535643 -0.00059551 -2.98736e-20)
(0.17603 0.0063574 3.62126e-20)
(0.313677 0.0274106 -8.33539e-21)
(0.461509 0.0579307 2.61668e-20)
(0.612912 0.0954348 -2.35867e-20)
(0.760279 0.136805 -1.45614e-20)
(0.896133 0.178556 -5.74605e-20)
(1.01434 0.217452 6.88861e-21)
(1.11103 0.250961 1.65823e-20)
(1.18498 0.277547 3.72834e-20)
(1.2374 0.296735 -1.46153e-20)
(1.27122 0.308936 -1.16223e-20)
(1.29031 0.315156 1.06834e-20)
(1.29863 0.316668 -1.89516e-20)
(1.29974 0.314745 4.34325e-20)
(1.29649 0.31049 2.90249e-20)
(1.29092 0.304758 -4.97747e-21)
(1.28435 0.298165 -3.29642e-21)
(1.27752 0.291042 -3.18863e-20)
(1.27077 0.283661 -4.0096e-20)
(0.0581353 0.000399922 6.45084e-21)
(0.188514 0.00984132 -1.13477e-20)
(0.332756 0.0338295 7.76318e-21)
(0.485571 0.0673066 -1.0749e-20)
(0.639984 0.107429 -4.15336e-20)
(0.788171 0.150764 1.9359e-20)
(0.922717 0.193622 9.41328e-21)
(1.03785 0.232727 -4.54092e-20)
(1.13028 0.265658 -2.87945e-20)
(1.19948 0.291102 -2.77104e-21)
(1.24725 0.30884 -4.06709e-20)
(1.27697 0.319518 4.2275e-20)
(1.29274 0.324312 -1.02945e-22)
(1.29859 0.32459 -5.70921e-21)
(1.29798 0.321657 -1.1017e-20)
(1.29362 0.316601 5.4239e-21)
(1.28738 0.310239 3.83791e-21)
(1.28044 0.303145 -1.4981e-21)
(1.2734 0.295597 -1.16262e-20)
(1.26654 0.28792 1.42453e-20)
(0.0628109 0.00156889 2.17e-21)
(0.201148 0.0137783 7.49726e-21)
(0.351869 0.0408871 4.19743e-21)
(0.509406 0.0774062 -1.96719e-21)
(0.666455 0.120128 2.74589e-20)
(0.815045 0.165317 -6.16258e-21)
(0.947901 0.209113 9.84936e-21)
(1.05968 0.24824 2.19999e-20)
(1.14774 0.280428 -3.99563e-21)
(1.21222 0.304609 1.00715e-21)
(1.2555 0.320829 1.11931e-20)
(1.28137 0.329964 -5.99346e-21)
(1.29409 0.333345 7.829e-21)
(1.29771 0.332419 1.42686e-21)
(1.2956 0.328509 -1.49553e-20)
(1.29028 0.32268 7.42722e-22)
(1.28349 0.315708 1.95931e-20)
(1.27624 0.308122 -4.09827e-21)
(1.26906 0.300154 6.12074e-21)
(1.26212 0.29218 -6.90869e-21)
(0.0675753 0.00291759 9.00853e-22)
(0.213885 0.0181768 1.11202e-20)
(0.370941 0.0485839 6.01601e-21)
(0.532914 0.088216 -1.23968e-21)
(0.692219 0.133502 2.55217e-20)
(0.840806 0.180422 -7.26684e-21)
(0.971619 0.224982 1.36677e-20)
(1.07982 0.263947 1.84583e-20)
(1.16343 0.295235 -3.83349e-21)
(1.22326 0.318045 8.6635e-22)
(1.26224 0.332693 1.27312e-20)
(1.28449 0.340274 -5.17485e-21)
(1.29442 0.342258 5.09724e-21)
(1.29605 0.340159 -1.25803e-21)
(1.29262 0.335303 -1.21569e-20)
(1.28651 0.328727 -3.58952e-22)
(1.27926 0.321162 1.93658e-20)
(1.27178 0.313092 -3.8123e-21)
(1.26449 0.304709 7.1818e-21)
(1.25749 0.296436 -7.69984e-21)
(0.0724111 0.00445126 7.82617e-21)
(0.226675 0.0230423 -1.43185e-20)
(0.389892 0.0569164 7.34246e-21)
(0.555998 0.0997176 -5.93583e-21)
(0.717176 0.147516 -4.04828e-20)
(0.865368 0.196033 1.65311e-20)
(0.99382 0.241179 7.70507e-21)
(1.09825 0.279803 -5.22294e-20)
(1.17738 0.310047 -2.20537e-20)
(1.23266 0.331391 -2.03468e-23)
(1.26754 0.344423 -3.43677e-20)
(1.28642 0.350445 2.87837e-20)
(1.29382 0.351055 -6.46801e-21)
(1.29367 0.347815 4.10961e-21)
(1.28911 0.342044 -1.59453e-20)
(1.28232 0.334742 1.2141e-20)
(1.27471 0.326599 7.73291e-21)
(1.26705 0.318052 -1.38751e-21)
(1.2597 0.309255 -1.538e-20)
(1.25266 0.300681 1.40821e-20)
(0.0772998 0.00617402 -1.69755e-20)
(0.239466 0.0283773 -7.74316e-21)
(0.408643 0.0658765 -1.12611e-20)
(0.578564 0.111888 3.90182e-20)
(0.741231 0.162133 9.46137e-23)
(0.888657 0.212103 -2.08935e-20)
(1.01446 0.257656 -8.54762e-20)
(1.11498 0.295768 8.30869e-21)
(1.18962 0.324833 9.73289e-21)
(1.24048 0.344628 4.35247e-20)
(1.27147 0.356011 6.47328e-21)
(1.28724 0.360479 -3.67889e-20)
(1.29233 0.359739 3.47241e-20)
(1.29063 0.355388 -1.40341e-20)
(1.28509 0.34873 5.29443e-20)
(1.27774 0.340723 -4.89448e-21)
(1.26984 0.332013 2.72111e-21)
(1.26207 0.322993 2.36654e-21)
(1.25468 0.313784 -4.06282e-20)
(1.24763 0.304908 -2.44568e-20)
(0.0822224 0.00808881 -6.50268e-21)
(0.252205 0.0341812 -3.73046e-20)
(0.427117 0.075452 2.94986e-20)
(0.60052 0.124699 -3.76055e-20)
(0.764297 0.177311 -6.81177e-20)
(0.910607 0.228584 5.95274e-20)
(1.03351 0.274365 9.83149e-20)
(1.13 0.3118 3.52778e-20)
(1.20019 0.339563 2.45885e-20)
(1.24679 0.357739 -7.04833e-20)
(1.27411 0.367449 5.40928e-20)
(1.287 0.370373 6.26118e-21)
(1.29003 0.36831 -6.83986e-20)
(1.28696 0.362878 2.67797e-20)
(1.28058 0.355359 9.48001e-20)
(1.27278 0.346666 -6.50894e-20)
(1.26468 0.337399 -1.85368e-20)
(1.25683 0.327909 -1.78392e-20)
(1.24944 0.31829 8.25989e-20)
(1.2424 0.309107 4.71524e-20)
(0.087159 0.0101974 4.44586e-20)
(0.26484 0.0404501 -7.61493e-20)
(0.445236 0.0856265 -1.1093e-19)
(0.621778 0.13812 4.99373e-21)
(0.786293 0.193007 -2.04317e-20)
(0.93116 0.245424 -8.1898e-20)
(1.05095 0.291257 -1.36338e-20)
(1.14333 0.32786 4.23686e-20)
(1.20913 0.35421 -6.81283e-20)
(1.25164 0.370707 5.58273e-20)
(1.27552 0.37873 6.47781e-20)
(1.28578 0.380124 -4.07958e-20)
(1.28696 0.376766 1.67326e-20)
(1.2827 0.370285 8.41358e-20)
(1.27563 0.361929 -1.12345e-19)
(1.26747 0.352565 1.95245e-20)
(1.25921 0.342749 5.29421e-20)
(1.25133 0.332793 -1.59776e-20)
(1.24397 0.322764 -1.73211e-20)
(1.23696 0.313272 -2.97453e-21)
(0.0920893 0.0125001 6.59912e-20)
(0.277317 0.047177 1.22533e-19)
(0.462926 0.0963792 6.49983e-20)
(0.642258 0.152115 -7.79173e-20)
(0.807148 0.209173 2.03737e-19)
(0.95027 0.262573 3.15107e-20)
(1.06676 0.308284 -8.70139e-20)
(1.155 0.343908 -6.28413e-20)
(1.21651 0.368747 -5.04049e-20)
(1.2551 0.383517 1.69143e-20)
(1.27578 0.389845 -5.68227e-20)
(1.28364 0.389728 1.75533e-21)
(1.28318 0.385106 -3.83827e-20)
(1.27789 0.377604 -5.23538e-20)
(1.27024 0.368433 -8.89384e-21)
(1.26181 0.358413 -5.40083e-21)
(1.25346 0.348056 -9.78552e-20)
(1.24559 0.337634 7.35844e-20)
(1.23828 0.327196 -1.11375e-19)
(1.23132 0.317393 -6.44891e-20)
(0.0969927 0.0149963 -8.0199e-20)
(0.289582 0.0543519 -3.29917e-20)
(0.480112 0.107686 1.47278e-19)
(0.66188 0.166645 3.73323e-20)
(0.826796 0.22576 -1.28455e-19)
(0.967898 0.279978 -7.47112e-20)
(1.08094 0.3254 -2.49432e-20)
(1.16503 0.359907 1.61681e-19)
(1.22235 0.383147 1.15587e-19)
(1.25724 0.396153 -3.95313e-20)
(1.27493 0.400787 -2.28751e-20)
(1.28062 0.399182 5.79902e-20)
(1.27871 0.393326 -6.25742e-20)
(1.27255 0.38483 2.90379e-20)
(1.26444 0.374865 1.23928e-20)
(1.2558 0.364201 -1.5734e-20)
(1.24742 0.353309 1.1853e-19)
(1.23959 0.342423 -4.97793e-20)
(1.23237 0.331578 9.99741e-20)
(1.22547 0.321461 -3.43954e-20)
(0.101848 0.0176837 -4.53424e-20)
(0.301585 0.0619614 -8.35632e-20)
(0.496727 0.119518 -1.32454e-19)
(0.680573 0.181666 8.03445e-20)
(0.84518 0.242716 4.44305e-20)
(0.984015 0.297587 -6.32927e-20)
(1.09349 0.342556 1.05171e-19)
(1.17344 0.375822 -1.62363e-19)
(1.22672 0.397387 -1.72563e-19)
(1.2581 0.4086 1.04173e-19)
(1.27305 0.411547 3.87443e-20)
(1.27678 0.408479 -4.29953e-20)
(1.2736 0.401418 6.54821e-20)
(1.2667 0.391957 5.10617e-20)
(1.25823 0.381217 -3.70053e-20)
(1.24947 0.369921 -1.24192e-20)
(1.24109 0.358499 -8.99844e-20)
(1.23334 0.34715 1.80434e-20)
(1.22622 0.335898 -7.54719e-20)
(1.21941 0.325466 -1.17507e-20)
(0.106635 0.0205589 3.7651e-20)
(0.313274 0.0699892 -6.58897e-20)
(0.512702 0.131843 1.20299e-19)
(0.698271 0.197134 2.04059e-19)
(0.86225 0.259987 -2.93613e-19)
(0.998597 0.315346 2.58925e-19)
(1.10442 0.359708 6.95606e-20)
(1.18029 0.391616 -1.01135e-19)
(1.22967 0.411441 1.19395e-19)
(1.25775 0.420842 7.02431e-20)
(1.27017 0.422114 8.66922e-20)
(1.27215 0.417611 -1.50017e-19)
(1.26788 0.409378 -3.0495e-20)
(1.26038 0.398976 7.35299e-20)
(1.25163 0.38748 2.80263e-20)
(1.2428 0.375562 1.27103e-19)
(1.23448 0.363615 1.58499e-19)
(1.22684 0.351805 -3.89271e-20)
(1.21986 0.340148 6.71292e-20)
(1.21315 0.3294 7.40719e-20)
(0.111332 0.0236171 -1.11421e-20)
(0.324599 0.0784162 -1.53493e-19)
(0.527974 0.144628 -2.1051e-19)
(0.714915 0.213 -2.75115e-19)
(0.877964 0.277521 -2.70458e-20)
(1.01163 0.333203 1.0165e-19)
(1.11374 0.37681 -1.92551e-20)
(1.1856 0.407255 3.40639e-20)
(1.23125 0.425286 -5.2826e-20)
(1.25624 0.432865 8.80535e-20)
(1.26636 0.432478 -1.33768e-19)
(1.26679 0.426571 1.73489e-19)
(1.26158 0.417196 9.89863e-20)
(1.25359 0.405878 4.43271e-20)
(1.24466 0.393642 -6.63212e-20)
(1.23582 0.381112 -7.0835e-20)
(1.22758 0.368645 -6.62693e-20)
(1.22009 0.356375 4.88837e-21)
(1.21327 0.344314 8.53137e-20)
(1.20668 0.333251 -8.93531e-20)
(0.115919 0.0268522 -1.95927e-20)
(0.335512 0.0872202 1.19318e-19)
(0.542484 0.157832 1.50631e-19)
(0.730449 0.229214 -2.37222e-20)
(0.892288 0.29526 7.0354e-20)
(1.02311 0.351104 1.90661e-20)
(1.12148 0.393817 -1.03323e-19)
(1.18941 0.422706 8.18771e-20)
(1.23151 0.438899 7.66316e-20)
(1.25362 0.444651 -1.32361e-19)
(1.26165 0.442628 2.12431e-19)
(1.26072 0.435348 -1.75332e-19)
(1.25472 0.424862 1.00665e-19)
(1.24636 0.412653 -1.45268e-19)
(1.23731 0.399693 2.11921e-19)
(1.22852 0.38656 -1.32299e-19)
(1.22041 0.373578 -3.7964e-20)
(1.21309 0.36085 -5.06024e-20)
(1.20645 0.348388 -1.05748e-19)
(1.20001 0.337011 2.16903e-21)
(0.120375 0.0302568 1.40621e-19)
(0.345968 0.0963765 1.49674e-19)
(0.556179 0.171415 -2.16636e-19)
(0.744826 0.245724 -1.32346e-19)
(0.905194 0.313148 1.96246e-19)
(1.03303 0.368996 -7.83049e-20)
(1.12765 0.410685 1.14777e-19)
(1.19177 0.437935 4.93643e-20)
(1.23049 0.452256 -1.1426e-19)
(1.24994 0.456186 -2.81719e-19)
(1.2561 0.452552 -5.02547e-20)
(1.25397 0.443933 -1.04131e-19)
(1.24733 0.432366 -1.53636e-19)
(1.23869 0.41929 1.24147e-20)
(1.2296 0.405621 -1.64617e-20)
(1.2209 0.391893 -1.43613e-20)
(1.21296 0.3784 1.18605e-19)
(1.20584 0.365217 8.41446e-20)
(1.19941 0.352356 1.02681e-20)
(1.19315 0.340671 4.74178e-20)
(0.124681 0.0338224 -3.39395e-20)
(0.355923 0.105858 2.66067e-19)
(0.569006 0.185334 1.03315e-19)
(0.758005 0.262475 2.11029e-19)
(0.91666 0.331129 6.90183e-20)
(1.0414 0.386829 2.65625e-20)
(1.13229 0.427372 -1.66819e-19)
(1.19272 0.452911 -5.35461e-20)
(1.22826 0.465336 2.67664e-20)
(1.24526 0.467452 2.09057e-19)
(1.24973 0.462238 -6.83004e-20)
(1.24659 0.452313 8.42712e-20)
(1.23942 0.439696 1.74956e-19)
(1.2306 0.425774 3.96004e-20)
(1.22153 0.411411 -3.46282e-20)
(1.21297 0.397099 4.53442e-20)
(1.20523 0.3831 8.3862e-20)
(1.19834 0.369463 3.65686e-20)
(1.19215 0.356204 9.45188e-20)
(1.18608 0.344221 6.8942e-20)
(0.128818 0.0375393 -8.8818e-20)
(0.365337 0.115635 -1.3628e-19)
(0.580922 0.199543 8.69939e-20)
(0.769951 0.279411 2.94234e-20)
(0.926674 0.349146 5.83815e-20)
(1.04822 0.40455 -2.38732e-19)
(1.13543 0.443836 8.65564e-20)
(1.19231 0.467603 -1.86227e-19)
(1.22485 0.478114 -1.02953e-19)
(1.23962 0.478434 1.19092e-19)
(1.2426 0.47167 -1.29428e-20)
(1.23859 0.460476 7.5e-21)
(1.23102 0.446839 -2.12106e-19)
(1.2221 0.432094 -8.44707e-20)
(1.21311 0.417052 6.73891e-20)
(1.20473 0.402163 -1.17685e-19)
(1.19722 0.387664 -6.24508e-20)
(1.19059 0.373575 -6.28528e-20)
(1.18466 0.359919 -1.05056e-19)
(1.17878 0.347649 -2.32462e-19)
(0.132767 0.0413965 5.16614e-20)
(0.374171 0.125676 -6.44111e-20)
(0.591884 0.213994 -3.52448e-19)
(0.780635 0.296477 1.90961e-19)
(0.935226 0.367141 -2.37634e-19)
(1.05352 0.422107 -3.37515e-20)
(1.13709 0.460036 -3.26179e-19)
(1.19057 0.481978 3.45912e-19)
(1.22032 0.490569 1.96579e-19)
(1.23305 0.489114 -1.20062e-20)
(1.23472 0.480836 6.88218e-20)
(1.23 0.468407 -8.63163e-20)
(1.22214 0.45378 -6.71169e-21)
(1.2132 0.438235 3.99441e-20)
(1.20435 0.422529 -4.03024e-20)
(1.19619 0.407074 7.29041e-20)
(1.18895 0.392081 -9.42097e-20)
(1.1826 0.377545 -8.35199e-20)
(1.17694 0.363501 4.73563e-20)
(1.17121 0.350925 6.18863e-20)
(0.136512 0.0453822 1.18267e-19)
(0.382392 0.135947 1.18899e-19)
(0.601859 0.228638 9.21581e-20)
(0.790034 0.313615 -2.31012e-21)
(0.942316 0.385058 -6.1644e-20)
(1.05731 0.439453 4.17736e-19)
(1.13733 0.475932 2.36982e-19)
(1.18756 0.496008 1.59831e-19)
(1.21471 0.502678 2.25464e-19)
(1.2256 0.499474 2.70119e-20)
(1.22614 0.489719 -1.84796e-19)
(1.22085 0.476093 -1.87757e-20)
(1.2128 0.460507 -3.86296e-20)
(1.20391 0.444183 -1.24629e-19)
(1.19525 0.427827 -4.50903e-20)
(1.18735 0.411816 -6.39139e-20)
(1.1804 0.396336 1.95065e-19)
(1.17436 0.381366 -1.84898e-21)
(1.16899 0.366969 5.04452e-20)
(1.16348 0.354024 3.88702e-20)
(0.140037 0.0494834 -3.95563e-20)
(0.389966 0.146414 -6.9198e-20)
(0.610814 0.243424 -1.51614e-19)
(0.798131 0.330767 -2.56771e-20)
(0.947946 0.40284 -2.52779e-19)
(1.05962 0.456536 -1.8149e-19)
(1.13617 0.491485 6.03139e-20)
(1.18332 0.509662 -4.35412e-19)
(1.20807 0.514418 -2.34754e-19)
(1.21732 0.509497 5.66392e-20)
(1.21689 0.498304 -2.77394e-20)
(1.21115 0.483519 1.65055e-19)
(1.20302 0.467003 2.20838e-19)
(1.19425 0.449922 5.51483e-20)
(1.18583 0.432932 1.45629e-19)
(1.17822 0.416375 -7.39019e-20)
(1.17159 0.400416 9.66811e-20)
(1.16588 0.385018 5.32733e-20)
(1.16083 0.370275 4.35825e-20)
(1.15562 0.357007 -8.03731e-20)
(0.143325 0.0536865 5.95175e-20)
(0.396867 0.157039 -7.30092e-21)
(0.618725 0.258301 -2.34801e-19)
(0.804915 0.347876 -3.91829e-22)
(0.952126 0.420432 5.68937e-19)
(1.06047 0.47331 1.1395e-19)
(1.13366 0.506656 8.59871e-20)
(1.17789 0.522912 2.51409e-19)
(1.20044 0.525768 -2.02666e-19)
(1.20823 0.519164 -2.15466e-19)
(1.207 0.506575 -9.75835e-22)
(1.20094 0.490668 -1.47096e-19)
(1.1928 0.473253 -8.09198e-20)
(1.18422 0.455437 2.13389e-19)
(1.17608 0.437829 -5.58071e-20)
(1.1688 0.420737 5.74127e-21)
(1.16251 0.404308 -7.10393e-20)
(1.15717 0.388489 -1.01091e-19)
(1.15246 0.373402 3.99061e-21)
(1.14757 0.359828 8.65647e-20)
(0.146364 0.0579769 -2.8751e-19)
(0.403069 0.167785 1.80328e-19)
(0.62557 0.273215 4.03548e-19)
(0.81038 0.364883 1.26943e-19)
(0.954869 0.437779 -6.70104e-19)
(1.0599 0.489727 -2.77137e-19)
(1.12983 0.521408 -2.16374e-19)
(1.17133 0.535728 -7.85597e-20)
(1.19186 0.536705 2.64011e-19)
(1.19838 0.528457 2.90652e-20)
(1.19649 0.514515 -5.25837e-20)
(1.19022 0.497524 9.9995e-20)
(1.18217 0.479242 1.40041e-20)
(1.17383 0.460714 -2.52307e-19)
(1.16602 0.442502 7.1749e-20)
(1.15909 0.424888 9.34418e-20)
(1.15318 0.407997 4.14454e-20)
(1.14822 0.391767 5.70477e-20)
(1.14389 0.376343 -9.29701e-20)
(1.13934 0.362473 -4.23667e-20)
(0.14914 0.0623393 -1.9562e-20)
(0.408551 0.178613 9.10235e-20)
(0.631335 0.288115 4.54863e-20)
(0.814526 0.381732 1.35485e-19)
(0.956192 0.454827 3.74048e-19)
(1.05794 0.505742 -2.43447e-19)
(1.12474 0.535706 -1.38591e-20)
(1.16368 0.548084 2.32925e-19)
(1.18239 0.547208 -2.79751e-19)
(1.1878 0.537357 9.07057e-20)
(1.18539 0.522106 2.29301e-19)
(1.17902 0.504072 5.18696e-20)
(1.17113 0.484952 -1.06425e-19)
(1.1631 0.465735 1.77226e-19)
(1.15564 0.446937 -1.99554e-19)
(1.14911 0.428812 2.68525e-21)
(1.14359 0.411471 -4.4091e-20)
(1.13905 0.394838 6.76217e-20)
(1.13511 0.379087 5.91696e-20)
(1.13091 0.36493 4.65525e-20)
(0.151643 0.0667578 3.73142e-20)
(0.413294 0.189483 1.45395e-19)
(0.636007 0.302947 1.4459e-19)
(0.817358 0.398366 -9.2366e-20)
(0.95612 0.471523 7.91166e-21)
(1.05462 0.52131 2.26078e-19)
(1.11843 0.549513 3.99055e-19)
(1.15498 0.559951 -4.15397e-20)
(1.17205 0.557253 3.84842e-20)
(1.17652 0.545845 -1.10964e-19)
(1.17373 0.529332 -2.32394e-19)
(1.16736 0.510293 3.69733e-20)
(1.15971 0.490367 1.25981e-19)
(1.15203 0.470484 -2.54661e-20)
(1.14497 0.451119 -1.45383e-20)
(1.13885 0.432497 -7.4411e-20)
(1.13376 0.414715 -1.10322e-20)
(1.12964 0.397691 -2.90847e-20)
(1.12613 0.381623 -2.11995e-20)
(1.12231 0.367191 -3.76073e-20)
(0.153862 0.071216 -1.28579e-19)