# Force coefficients
# liftDir     : (0.000000e+00 1.000000e+00 0.000000e+00)
# dragDir     : (1.000000e+00 0.000000e+00 0.000000e+00)
# pitchAxis   : (0.000000e+00 0.000000e+00 1.000000e+00)
# magUInf     : 1.000000e+00
# lRef        : 1.000000e+00
# Aref        : 1.000000e-01
# CofR        : (0.000000e+00 0.000000e+00 0.000000e+00)
# Time        	Cm            	Cd            	Cl            	Cl(f)         	Cl(r)         
0.01          	2.293112e-10	1.734796e+02	-1.190588e-06	-5.950649e-07	-5.955235e-07
0.02          	-9.134287e-08	2.699979e+00	5.376514e-07	1.774828e-07	3.601686e-07
0.03          	-2.285636e-08	6.043205e+00	3.679130e-08	-4.460714e-09	4.125201e-08
0.04          	2.836330e-08	4.485933e+00	7.877345e-07	4.222305e-07	3.655039e-07
0.05          	1.470179e-07	3.859479e+00	1.159447e-06	7.267416e-07	4.327059e-07
0.06          	2.294859e-07	3.425204e+00	1.462485e-06	9.607282e-07	5.017563e-07
0.07          	2.864626e-07	3.114847e+00	1.514420e-06	1.043672e-06	4.707472e-07
0.08          	3.253762e-07	2.878813e+00	1.668824e-06	1.159788e-06	5.090358e-07
0.09          	3.514619e-07	2.693542e+00	1.755972e-06	1.229448e-06	5.265239e-07
0.1           	3.683832e-07	2.544619e+00	1.826755e-06	1.281761e-06	5.449943e-07
0.11          	3.787127e-07	2.422356e+00	1.877738e-06	1.317582e-06	5.601563e-07
0.12          	3.842912e-07	2.320064e+00	1.914015e-06	1.341299e-06	5.727163e-07
0.13          	3.864460e-07	2.233094e+00	1.944541e-06	1.358716e-06	5.858244e-07
0.14          	3.861374e-07	2.158169e+00	1.964810e-06	1.368543e-06	5.962677e-07
0.15          	3.840638e-07	2.092922e+00	1.976623e-06	1.372376e-06	6.042480e-07
0.16          	3.807438e-07	2.035591e+00	1.986772e-06	1.374130e-06	6.126420e-07
0.17          	3.765511e-07	1.984830e+00	1.994244e-06	1.373673e-06	6.205711e-07
0.18          	3.717638e-07	1.939611e+00	1.994175e-06	1.368851e-06	6.253235e-07
0.19          	3.665801e-07	1.899107e+00	2.000824e-06	1.366992e-06	6.338318e-07
0.2           	3.611488e-07	1.862677e+00	1.988977e-06	1.355638e-06	6.333399e-07
0.21          	3.555646e-07	1.829771e+00	1.989471e-06	1.350300e-06	6.391710e-07
0.22          	3.499107e-07	1.799971e+00	1.992518e-06	1.346170e-06	6.463483e-07
0.23          	3.442443e-07	1.772892e+00	1.993248e-06	1.340868e-06	6.523796e-07
0.24          	3.386065e-07	1.748248e+00	2.010113e-06	1.343663e-06	6.664498e-07
0.25          	3.330138e-07	1.725756e+00	2.001383e-06	1.333706e-06	6.676779e-07
0.26          	3.274957e-07	1.705210e+00	1.941475e-06	1.298233e-06	6.432419e-07
0.27          	3.220622e-07	1.686411e+00	1.889534e-06	1.266829e-06	6.227049e-07
0.28          	3.167242e-07	1.669189e+00	1.906790e-06	1.270119e-06	6.366710e-07
0.29          	3.114871e-07	1.653406e+00	1.898301e-06	1.260638e-06	6.376634e-07
0.3           	3.063524e-07	1.638926e+00	1.888032e-06	1.250368e-06	6.376637e-07
0.31          	3.013184e-07	1.625639e+00	1.875623e-06	1.239130e-06	6.364929e-07
0.32          	2.963859e-07	1.613449e+00	1.863977e-06	1.228375e-06	6.356028e-07
0.33          	2.915541e-07	1.602256e+00	1.851339e-06	1.217223e-06	6.341152e-07
0.34          	2.868202e-07	1.591988e+00	1.840879e-06	1.207260e-06	6.336194e-07
0.35          	2.821865e-07	1.582569e+00	1.835668e-06	1.200021e-06	6.356476e-07
0.36          	2.776478e-07	1.573944e+00	1.821636e-06	1.188466e-06	6.331701e-07
0.37          	2.732025e-07	1.566041e+00	1.811976e-06	1.179191e-06	6.327856e-07
0.38          	2.906733e-07	1.558806e+00	1.927489e-06	1.254418e-06	6.730714e-07
0.39          	3.028973e-07	1.552205e+00	1.951697e-06	1.278746e-06	6.729514e-07
0.4           	3.113146e-07	1.546191e+00	1.982162e-06	1.302395e-06	6.797662e-07
0.41          	3.655354e-07	1.540703e+00	1.896548e-06	1.313809e-06	5.827385e-07
0.42          	4.062205e-07	1.535731e+00	1.995988e-06	1.404214e-06	5.917733e-07
0.43          	4.369131e-07	1.531227e+00	2.071890e-06	1.472858e-06	5.990321e-07
0.44          	4.600520e-07	1.527165e+00	2.136632e-06	1.528368e-06	6.082642e-07
0.45          	4.773624e-07	1.523518e+00	2.192026e-06	1.573375e-06	6.186503e-07
0.46          	4.901033e-07	1.520246e+00	2.238544e-06	1.609375e-06	6.291685e-07
0.47          	4.992140e-07	1.517333e+00	2.278311e-06	1.638370e-06	6.399416e-07
0.48          	5.054142e-07	1.514757e+00	2.312283e-06	1.661556e-06	6.507275e-07
0.49          	5.092607e-07	1.512495e+00	2.341863e-06	1.680192e-06	6.616711e-07
0.5           	5.111944e-07	1.510526e+00	2.366191e-06	1.694290e-06	6.719012e-07
0.51          	5.115658e-07	1.508837e+00	2.388330e-06	1.705731e-06	6.825994e-07
0.52          	5.106589e-07	1.507401e+00	2.405421e-06	1.713369e-06	6.920515e-07
0.53          	5.087033e-07	1.506206e+00	2.422819e-06	1.720113e-06	7.027063e-07
0.54          	5.058895e-07	1.505237e+00	2.411604e-06	1.711691e-06	6.999124e-07
0.55          	5.023701e-07	1.504479e+00	2.478909e-06	1.741825e-06	7.370844e-07
0.56          	4.982778e-07	1.503919e+00	2.450260e-06	1.723408e-06	7.268523e-07
0.57          	4.937201e-07	1.503545e+00	2.470543e-06	1.728991e-06	7.415513e-07
0.58          	4.887846e-07	1.503345e+00	2.478359e-06	1.727964e-06	7.503948e-07
0.59          	4.835499e-07	1.503315e+00	2.490114e-06	1.728607e-06	7.615074e-07
0.6           	4.780791e-07	1.503427e+00	2.735033e-06	1.845595e-06	8.894371e-07
0.61          	4.724198e-07	1.503681e+00	2.570255e-06	1.757547e-06	8.127079e-07
0.62          	4.666299e-07	1.504067e+00	2.536484e-06	1.734872e-06	8.016119e-07
0.63          	4.607451e-07	1.504577e+00	2.520334e-06	1.720912e-06	7.994219e-07
0.64          	4.547987e-07	1.505203e+00	2.498098e-06	1.703848e-06	7.942504e-07
0.65          	4.488187e-07	1.505931e+00	2.481598e-06	1.689617e-06	7.919801e-07
0.66          	4.428285e-07	1.506762e+00	2.458694e-06	1.672175e-06	7.865183e-07
0.67          	4.368488e-07	1.507681e+00	2.446427e-06	1.660062e-06	7.863648e-07
0.68          	4.308965e-07	1.508689e+00	2.426378e-06	1.644085e-06	7.822923e-07
0.69          	4.249861e-07	1.509775e+00	2.517793e-06	1.683883e-06	8.339103e-07
0.7           	4.191277e-07	1.510936e+00	2.359115e-06	1.598685e-06	7.604299e-07
0.71          	4.133373e-07	1.512160e+00	2.359951e-06	1.593313e-06	7.666383e-07
0.72          	4.076191e-07	1.513441e+00	2.545520e-06	1.680379e-06	8.651408e-07
0.73          	4.019799e-07	1.514782e+00	2.434208e-06	1.619084e-06	8.151239e-07
0.74          	3.964284e-07	1.516173e+00	2.442799e-06	1.617828e-06	8.249711e-07
0.75          	3.909678e-07	1.517608e+00	2.431752e-06	1.606844e-06	8.249081e-07
0.76          	3.856007e-07	1.519085e+00	2.430744e-06	1.600973e-06	8.297714e-07
0.77          	3.803307e-07	1.520598e+00	2.423769e-06	1.592215e-06	8.315537e-07
0.78          	3.751601e-07	1.522146e+00	2.422481e-06	1.586401e-06	8.360803e-07
0.79          	3.700904e-07	1.523723e+00	2.413848e-06	1.577015e-06	8.368337e-07
0.8           	3.651224e-07	1.525325e+00	2.410959e-06	1.570602e-06	8.403572e-07
0.81          	3.602569e-07	1.526948e+00	2.401781e-06	1.561148e-06	8.406338e-07
0.82          	3.554937e-07	1.528587e+00	2.399349e-06	1.555168e-06	8.441807e-07
0.83          	3.508326e-07	1.530245e+00	2.391817e-06	1.546741e-06	8.450757e-07
0.84          	3.462732e-07	1.531920e+00	2.387066e-06	1.539806e-06	8.472598e-07
0.85          	3.418143e-07	1.533599e+00	2.380738e-06	1.532183e-06	8.485546e-07
0.86          	3.374559e-07	1.535286e+00	2.373979e-06	1.524445e-06	8.495336e-07
0.87          	3.331949e-07	1.536976e+00	2.363099e-06	1.514744e-06	8.483545e-07
0.88          	3.290316e-07	1.538666e+00	2.363337e-06	1.510700e-06	8.526367e-07
0.89          	3.249627e-07	1.540358e+00	2.370035e-06	1.509980e-06	8.600548e-07
0.9           	3.543843e-07	1.542037e+00	2.325422e-06	1.517095e-06	8.083266e-07
0.91          	3.771028e-07	1.543723e+00	2.364994e-06	1.559600e-06	8.053942e-07
0.92          	3.949133e-07	1.545401e+00	2.401640e-06	1.595733e-06	8.059065e-07
0.93          	4.090228e-07	1.547072e+00	2.434316e-06	1.626181e-06	8.081351e-07
0.94          	4.202704e-07	1.548730e+00	2.461038e-06	1.650790e-06	8.102487e-07
0.95          	4.292593e-07	1.550378e+00	2.499358e-06	1.678938e-06	8.204199e-07
0.96          	4.364372e-07	1.552015e+00	2.508880e-06	1.690877e-06	8.180030e-07
0.97          	4.421401e-07	1.553633e+00	2.551917e-06	1.718099e-06	8.338185e-07
0.98          	4.491329e-07	1.555232e+00	2.661759e-06	1.780012e-06	8.817466e-07
0.99          	4.543529e-07	1.556818e+00	2.669016e-06	1.788861e-06	8.801551e-07
1             	4.582204e-07	1.558385e+00	2.685942e-06	1.801191e-06	8.847507e-07
1.01          	4.610367e-07	1.559930e+00	2.702424e-06	1.812249e-06	8.901755e-07
1.02          	4.630169e-07	1.561457e+00	2.705391e-06	1.815712e-06	8.896785e-07
1.03          	4.643215e-07	1.562961e+00	2.704373e-06	1.816508e-06	8.878650e-07
1.04          	4.650732e-07	1.564443e+00	2.716733e-06	1.823440e-06	8.932932e-07
1.05          	4.653658e-07	1.565903e+00	2.708160e-06	1.819446e-06	8.887143e-07
1.06          	4.652744e-07	1.567335e+00	2.710720e-06	1.820635e-06	8.900858e-07
1.07          	4.648586e-07	1.568744e+00	2.707626e-06	1.818672e-06	8.889544e-07
1.08          	4.641681e-07	1.570124e+00	2.714948e-06	1.821642e-06	8.933061e-07
1.09          	4.632425e-07	1.571484e+00	2.678476e-06	1.802480e-06	8.759954e-07
1.1           	4.621180e-07	1.572807e+00	2.669230e-06	1.796733e-06	8.724970e-07
1.11          	4.608221e-07	1.574109e+00	2.674415e-06	1.798030e-06	8.763854e-07
1.12          	4.593794e-07	1.575380e+00	2.771038e-06	1.844898e-06	9.261394e-07
1.13          	4.578075e-07	1.576624e+00	2.779464e-06	1.847539e-06	9.319243e-07
1.14          	4.561277e-07	1.577840e+00	2.792155e-06	1.852205e-06	9.399499e-07
1.15          	4.543553e-07	1.579026e+00	2.794551e-06	1.851631e-06	9.429203e-07
1.16          	4.525039e-07	1.580181e+00	2.803539e-06	1.854274e-06	9.492659e-07
1.17          	4.505858e-07	1.581306e+00	2.799943e-06	1.850557e-06	9.493856e-07
1.18          	4.486113e-07	1.582401e+00	2.807579e-06	1.852401e-06	9.551781e-07
1.19          	4.465896e-07	1.583466e+00	2.811993e-06	1.852586e-06	9.594068e-07
1.2           	4.445284e-07	1.584503e+00	2.815184e-06	1.852121e-06	9.630638e-07
1.21          	4.424342e-07	1.585507e+00	2.818211e-06	1.851539e-06	9.666712e-07
1.22          	4.403134e-07	1.586482e+00	2.820045e-06	1.850336e-06	9.697090e-07
1.23          	4.381712e-07	1.587426e+00	2.819952e-06	1.848147e-06	9.718047e-07
1.24          	4.360122e-07	1.588336e+00	2.816048e-06	1.844036e-06	9.720120e-07
1.25          	4.338416e-07	1.589218e+00	2.815057e-06	1.841370e-06	9.736867e-07
1.26          	4.316630e-07	1.590076e+00	2.809596e-06	1.836461e-06	9.731351e-07
1.27          	4.294778e-07	1.590885e+00	2.797655e-06	1.828305e-06	9.693500e-07
1.28          	4.272888e-07	1.591690e+00	2.809580e-06	1.832079e-06	9.775011e-07
1.29          	4.250988e-07	1.592435e+00	2.811340e-06	1.830769e-06	9.805710e-07
1.3           	4.229116e-07	1.593161e+00	2.744746e-06	1.795285e-06	9.494614e-07
1.31          	4.207271e-07	1.593862e+00	2.789554e-06	1.815504e-06	9.740499e-07
1.32          	4.185454e-07	1.594531e+00	2.732242e-06	1.784667e-06	9.475758e-07
1.33          	4.163675e-07	1.595171e+00	2.751438e-06	1.792086e-06	9.593514e-07
1.34          	4.141947e-07	1.595783e+00	2.727541e-06	1.777965e-06	9.495759e-07
1.35          	4.120306e-07	1.596356e+00	2.724578e-06	1.774320e-06	9.502585e-07
1.36          	4.098755e-07	1.596907e+00	2.712288e-06	1.766020e-06	9.462686e-07
1.37          	4.077281e-07	1.597435e+00	2.717526e-06	1.766491e-06	9.510351e-07
1.38          	4.055928e-07	1.597924e+00	2.703885e-06	1.757536e-06	9.463499e-07
1.39          	4.034657e-07	1.598370e+00	2.709982e-06	1.758457e-06	9.515253e-07
1.4           	4.013506e-07	1.598834e+00	2.697696e-06	1.750198e-06	9.474972e-07
1.41          	3.992458e-07	1.599263e+00	2.693673e-06	1.746083e-06	9.475909e-07
1.42          	3.971518e-07	1.599652e+00	2.691680e-06	1.742992e-06	9.486883e-07
1.43          	3.950692e-07	1.599957e+00	2.696140e-06	1.743139e-06	9.530006e-07
1.44          	3.930005e-07	1.600273e+00	2.693887e-06	1.739944e-06	9.539431e-07
1.45          	3.909443e-07	1.600636e+00	2.668255e-06	1.725072e-06	9.431832e-07
1.46          	3.888970e-07	1.600824e+00	2.696183e-06	1.736989e-06	9.591945e-07
1.47          	3.868655e-07	1.601085e+00	2.680614e-06	1.727172e-06	9.534416e-07
1.48          	3.848442e-07	1.601345e+00	2.665734e-06	1.717711e-06	9.480228e-07
1.49          	3.828326e-07	1.601501e+00	2.674821e-06	1.720243e-06	9.545780e-07
1.5           	3.808354e-07	1.601702e+00	2.657881e-06	1.709776e-06	9.481052e-07
1.51          	3.788480e-07	1.601848e+00	2.656733e-06	1.707215e-06	9.495187e-07
1.52          	3.768723e-07	1.601911e+00	2.662264e-06	1.708004e-06	9.542599e-07
1.53          	3.749115e-07	1.602025e+00	2.646584e-06	1.698204e-06	9.483805e-07
1.54          	3.729608e-07	1.602192e+00	2.628100e-06	1.687011e-06	9.410892e-07
1.55          	3.710168e-07	1.602154e+00	2.648664e-06	1.695349e-06	9.533152e-07
1.56          	3.690895e-07	1.602185e+00	2.629038e-06	1.683609e-06	9.454296e-07
1.57          	3.671732e-07	1.602180e+00	2.622965e-06	1.678656e-06	9.443091e-07
1.58          	3.652684e-07	1.602185e+00	2.607602e-06	1.669069e-06	9.385324e-07
1.59          	3.633727e-07	1.602208e+00	2.594010e-06	1.660378e-06	9.336322e-07
1.6           	3.614840e-07	1.601993e+00	2.619064e-06	1.671016e-06	9.480478e-07
1.61          	3.596170e-07	1.601982e+00	2.587635e-06	1.653435e-06	9.342005e-07
1.62          	3.577547e-07	1.601895e+00	2.567014e-06	1.641262e-06	9.257524e-07
1.63          	3.559030e-07	1.601792e+00	2.573574e-06	1.642690e-06	9.308841e-07
1.64          	3.540609e-07	1.601686e+00	2.559082e-06	1.633602e-06	9.254800e-07
1.65          	3.991211e-07	1.601536e+00	2.582593e-06	1.690418e-06	8.921756e-07
1.66          	4.352846e-07	1.601251e+00	2.636881e-06	1.753725e-06	8.831557e-07
1.67          	4.648794e-07	1.601096e+00	2.665884e-06	1.797822e-06	8.680629e-07
1.68          	4.894198e-07	1.600828e+00	2.718183e-06	1.848511e-06	8.696715e-07
1.69          	5.185426e-07	1.600613e+00	2.911552e-06	1.974318e-06	9.372331e-07
1.7           	5.426550e-07	1.600409e+00	2.935577e-06	2.010443e-06	9.251334e-07
1.71          	5.628088e-07	1.600192e+00	2.971805e-06	2.048712e-06	9.230939e-07
1.72          	5.797836e-07	1.599983e+00	2.960218e-06	2.059893e-06	9.003254e-07
1.73          	5.941587e-07	1.599547e+00	3.062819e-06	2.125568e-06	9.372507e-07
1.74          	6.064095e-07	1.599176e+00	3.095681e-06	2.154250e-06	9.414310e-07
1.75          	6.168698e-07	1.598913e+00	3.130825e-06	2.182282e-06	9.485428e-07
1.76          	6.257964e-07	1.598544e+00	3.154576e-06	2.203084e-06	9.514915e-07
1.77          	6.334310e-07	1.598226e+00	3.178933e-06	2.222897e-06	9.560354e-07
1.78          	6.399447e-07	1.597857e+00	3.216485e-06	2.248187e-06	9.682976e-07
1.79          	6.454938e-07	1.597502e+00	3.238545e-06	2.264766e-06	9.737785e-07
1.8           	6.501998e-07	1.597093e+00	3.282460e-06	2.291430e-06	9.910301e-07
1.81          	6.541718e-07	1.596702e+00	3.304200e-06	2.306272e-06	9.979284e-07
1.82          	6.574949e-07	1.596319e+00	3.325981e-06	2.320486e-06	1.005496e-06
1.83          	6.602418e-07	1.595808e+00	3.259245e-06	2.289864e-06	9.693806e-07
1.84          	6.625049e-07	1.595392e+00	3.368885e-06	2.346948e-06	1.021938e-06
1.85          	6.643070e-07	1.594946e+00	3.341838e-06	2.335226e-06	1.006612e-06
1.86          	6.657079e-07	1.594375e+00	3.319533e-06	2.325474e-06	9.940583e-07
1.87          	6.667638e-07	1.593931e+00	3.368024e-06	2.350776e-06	1.017248e-06
1.88          	6.674885e-07	1.593473e+00	3.373255e-06	2.354116e-06	1.019139e-06
1.89          	6.679138e-07	1.592988e+00	3.377417e-06	2.356622e-06	1.020795e-06
1.9           	6.680728e-07	1.592506e+00	3.392008e-06	2.364077e-06	1.027931e-06
1.91          	6.679892e-07	1.592025e+00	3.410855e-06	2.373417e-06	1.037438e-06
1.92          	6.676855e-07	1.591437e+00	3.410632e-06	2.373002e-06	1.037631e-06
1.93          	6.671977e-07	1.590961e+00	3.392487e-06	2.363441e-06	1.029046e-06
1.94          	6.665209e-07	1.590387e+00	3.427254e-06	2.380148e-06	1.047106e-06
1.95          	6.656860e-07	1.589903e+00	3.417529e-06	2.374450e-06	1.043078e-06
1.96          	6.646923e-07	1.589285e+00	3.459567e-06	2.394476e-06	1.065091e-06
1.97          	6.635771e-07	1.588705e+00	3.463577e-06	2.395366e-06	1.068212e-06
1.98          	6.623391e-07	1.588164e+00	3.484185e-06	2.404432e-06	1.079754e-06
1.99          	6.609792e-07	1.587520e+00	3.480679e-06	2.401319e-06	1.079360e-06
2             	6.595276e-07	1.586881e+00	3.486066e-06	2.402560e-06	1.083505e-06
2.01          	6.579878e-07	1.586321e+00	3.494328e-06	2.405152e-06	1.089176e-06
2.02          	6.563504e-07	1.585752e+00	3.497702e-06	2.405201e-06	1.092500e-06
2.03          	6.546244e-07	1.585152e+00	3.501753e-06	2.405501e-06	1.096252e-06
2.04          	6.528239e-07	1.584557e+00	3.505546e-06	2.405597e-06	1.099949e-06
2.05          	6.509528e-07	1.583956e+00	3.508075e-06	2.404990e-06	1.103085e-06
2.06          	6.490174e-07	1.583323e+00	3.507617e-06	2.402826e-06	1.104791e-06
2.07          	6.470292e-07	1.582785e+00	3.520941e-06	2.407500e-06	1.113441e-06
2.08          	6.449746e-07	1.582129e+00	3.503545e-06	2.396747e-06	1.106798e-06
2.09          	6.428804e-07	1.581528e+00	3.519419e-06	2.402590e-06	1.116829e-06
2.1           	6.407344e-07	1.580783e+00	3.509878e-06	2.395674e-06	1.114205e-06
2.11          	6.385738e-07	1.580162e+00	3.514114e-06	2.395631e-06	1.118483e-06
2.12          	6.363657e-07	1.579558e+00	3.508331e-06	2.390531e-06	1.117800e-06
2.13          	6.341118e-07	1.578969e+00	3.518141e-06	2.393182e-06	1.124959e-06
2.14          	6.318139e-07	1.578202e+00	3.479613e-06	2.371620e-06	1.107993e-06
2.15          	6.295145e-07	1.577572e+00	3.503127e-06	2.381078e-06	1.122049e-06
2.16          	6.271814e-07	1.576938e+00	3.490192e-06	2.372277e-06	1.117914e-06
2.17          	6.248180e-07	1.576325e+00	3.493432e-06	2.371534e-06	1.121898e-06
2.18          	6.224223e-07	1.575651e+00	3.471660e-06	2.358252e-06	1.113408e-06
2.19          	6.200119e-07	1.575008e+00	3.484129e-06	2.362076e-06	1.122052e-06
2.2           	6.175806e-07	1.574306e+00	3.472061e-06	2.353611e-06	1.118450e-06
2.21          	6.151410e-07	1.573630e+00	3.456341e-06	2.343312e-06	1.113030e-06
2.22          	6.126877e-07	1.572993e+00	3.466218e-06	2.345797e-06	1.120422e-06
2.23          	6.102134e-07	1.572289e+00	3.444913e-06	2.332670e-06	1.112243e-06
2.24          	6.077344e-07	1.571529e+00	3.494494e-06	2.354981e-06	1.139512e-06
2.25          	6.052606e-07	1.570879e+00	3.403731e-06	2.307126e-06	1.096605e-06
2.26          	6.027678e-07	1.570222e+00	3.414385e-06	2.309960e-06	1.104425e-06
2.27          	6.002608e-07	1.569582e+00	3.408633e-06	2.304577e-06	1.104056e-06
2.28          	5.977360e-07	1.568967e+00	3.397914e-06	2.296693e-06	1.101221e-06
2.29          	5.951912e-07	1.568184e+00	3.406888e-06	2.298635e-06	1.108253e-06
2.3           	5.926689e-07	1.567532e+00	3.423602e-06	2.304470e-06	1.119132e-06
2.31          	5.901304e-07	1.566879e+00	3.405191e-06	2.292726e-06	1.112465e-06
2.32          	5.875814e-07	1.566182e+00	3.351463e-06	2.263313e-06	1.088150e-06
2.33          	5.850384e-07	1.565520e+00	3.361811e-06	2.265944e-06	1.095867e-06
2.34          	5.824877e-07	1.564853e+00	3.322640e-06	2.243808e-06	1.078832e-06
2.35          	5.799369e-07	1.564216e+00	3.334555e-06	2.247214e-06	1.087341e-06
2.36          	5.773750e-07	1.563500e+00	3.305137e-06	2.229944e-06	1.075194e-06
2.37          	5.748236e-07	1.562864e+00	3.293663e-06	2.221655e-06	1.072008e-06
2.38          	5.722644e-07	1.562199e+00	3.300358e-06	2.222443e-06	1.077915e-06
2.39          	5.697049e-07	1.561447e+00	3.251975e-06	2.195692e-06	1.056283e-06
2.4           	5.671691e-07	1.560751e+00	3.257307e-06	2.195823e-06	1.061484e-06
2.41          	5.646350e-07	1.560106e+00	3.238362e-06	2.183816e-06	1.054546e-06
2.42          	5.620929e-07	1.559452e+00	3.219418e-06	2.171802e-06	1.047616e-06
2.43          	5.595495e-07	1.558815e+00	3.197633e-06	2.158366e-06	1.039267e-06
2.44          	5.570017e-07	1.558192e+00	3.208217e-06	2.161110e-06	1.047107e-06
2.45          	5.544480e-07	1.557403e+00	3.153507e-06	2.131202e-06	1.022306e-06
2.46          	5.519333e-07	1.556721e+00	3.163927e-06	2.133897e-06	1.030030e-06
2.47          	5.494215e-07	1.556072e+00	3.138991e-06	2.118917e-06	1.020074e-06
2.48          	5.469080e-07	1.555423e+00	3.119838e-06	2.106827e-06	1.013011e-06
2.49          	5.443941e-07	1.554791e+00	3.104078e-06	2.096433e-06	1.007645e-06
2.5           	5.418775e-07	1.554112e+00	3.060997e-06	2.072376e-06	9.886208e-07
2.51          	5.393736e-07	1.553487e+00	3.057778e-06	2.068263e-06	9.895153e-07
2.52          	5.368668e-07	1.552819e+00	3.015073e-06	2.044403e-06	9.706697e-07
2.53          	5.343719e-07	1.552145e+00	2.990176e-06	2.029460e-06	9.607162e-07
2.54          	5.318871e-07	1.551470e+00	2.986701e-06	2.025238e-06	9.614635e-07
2.55          	5.294051e-07	1.550835e+00	3.009185e-06	2.033998e-06	9.751873e-07
2.56          	5.269409e-07	1.550172e+00	2.968360e-06	2.011121e-06	9.572390e-07
2.57          	5.244962e-07	1.549551e+00	2.911859e-06	1.980426e-06	9.314335e-07
2.58          	5.220521e-07	1.548930e+00	2.897306e-06	1.970705e-06	9.266008e-07
2.59          	5.196075e-07	1.548263e+00	2.871546e-06	1.955381e-06	9.161656e-07
2.6           	5.171757e-07	1.547630e+00	2.856076e-06	1.945214e-06	9.108623e-07
2.61          	5.147464e-07	1.546968e+00	2.824113e-06	1.926803e-06	8.973101e-07
2.62          	5.123311e-07	1.546280e+00	2.810810e-06	1.917736e-06	8.930737e-07
2.63          	5.099317e-07	1.545667e+00	2.769452e-06	1.894658e-06	8.747944e-07
2.64          	5.075389e-07	1.545039e+00	2.750035e-06	1.882556e-06	8.674785e-07
2.65          	5.051508e-07	1.544400e+00	2.714073e-06	1.862187e-06	8.518855e-07
2.66          	5.027695e-07	1.543802e+00	2.746831e-06	1.876185e-06	8.706458e-07
2.67          	5.003933e-07	1.543176e+00	2.654567e-06	1.827677e-06	8.268902e-07
2.68          	4.980322e-07	1.542557e+00	2.650581e-06	1.823322e-06	8.272581e-07
2.69          	4.956741e-07	1.541971e+00	2.647992e-06	1.819670e-06	8.283218e-07
2.7           	4.933293e-07	1.541267e+00	2.583118e-06	1.784888e-06	7.982297e-07
2.71          	4.910121e-07	1.540688e+00	2.584519e-06	1.783272e-06	8.012474e-07
2.72          	4.886961e-07	1.540115e+00	2.579581e-06	1.778487e-06	8.010944e-07
2.73          	4.863898e-07	1.539443e+00	2.525009e-06	1.748894e-06	7.761147e-07
2.74          	4.841082e-07	1.538799e+00	2.493802e-06	1.731009e-06	7.627926e-07
2.75          	4.818401e-07	1.538209e+00	2.490696e-06	1.727188e-06	7.635078e-07
2.76          	4.795830e-07	1.537628e+00	2.428442e-06	1.693804e-06	7.346380e-07
2.77          	4.773333e-07	1.537024e+00	2.386069e-06	1.670368e-06	7.157010e-07
2.78          	4.750917e-07	1.536442e+00	2.413922e-06	1.682053e-06	7.318694e-07
2.79          	4.728562e-07	1.535847e+00	2.372669e-06	1.659191e-06	7.134782e-07
2.8           	4.706411e-07	1.535236e+00	2.315636e-06	1.628459e-06	6.871772e-07
2.81          	4.684457e-07	1.534623e+00	2.281458e-06	1.609175e-06	6.722831e-07
2.82          	4.662589e-07	1.533992e+00	2.338337e-06	1.635428e-06	7.029097e-07
2.83          	4.640768e-07	1.533513e+00	2.280272e-06	1.604213e-06	6.760592e-07
2.84          	4.619183e-07	1.532977e+00	2.244974e-06	1.584405e-06	6.605685e-07
2.85          	4.597702e-07	1.532386e+00	2.165478e-06	1.542509e-06	6.229689e-07
2.86          	4.576377e-07	1.531810e+00	2.164919e-06	1.540097e-06	6.248215e-07
2.87          	4.555178e-07	1.531195e+00	2.152741e-06	1.531888e-06	6.208528e-07
2.88          	4.534248e-07	1.530622e+00	2.116683e-06	1.511767e-06	6.049169e-07
2.89          	4.513450e-07	1.530113e+00	2.070494e-06	1.486592e-06	5.839020e-07
2.9           	4.492625e-07	1.529506e+00	2.079257e-06	1.488891e-06	5.903660e-07
2.91          	4.472138e-07	1.528883e+00	2.003428e-06	1.448928e-06	5.545002e-07
2.92          	4.451856e-07	1.528316e+00	1.989978e-06	1.440174e-06	5.498033e-07
2.93          	4.431733e-07	1.527774e+00	1.991239e-06	1.438793e-06	5.524464e-07
2.94          	4.411704e-07	1.527232e+00	1.909385e-06	1.395863e-06	5.135221e-07
2.95          	4.391762e-07	1.526718e+00	1.896262e-06	1.387307e-06	5.089548e-07
2.96          	4.371960e-07	1.526192e+00	1.748325e-06	1.311358e-06	4.369663e-07
2.97          	4.352251e-07	1.525617e+00	1.896452e-06	1.383451e-06	5.130011e-07
2.98          	4.332814e-07	1.525069e+00	1.759313e-06	1.312938e-06	4.463753e-07
2.99          	4.313534e-07	1.524542e+00	1.787369e-06	1.325038e-06	4.623311e-07
3             	4.294429e-07	1.523994e+00	1.726924e-06	1.292905e-06	4.340192e-07
3.01          	4.275477e-07	1.523479e+00	1.700858e-06	1.277977e-06	4.228811e-07
3.02          	4.256679e-07	1.522946e+00	1.668474e-06	1.259905e-06	4.085691e-07
3.03          	4.238050e-07	1.522444e+00	1.614601e-06	1.231105e-06	3.834953e-07
3.04          	4.219535e-07	1.521913e+00	1.602992e-06	1.223449e-06	3.795423e-07
3.05          	4.201179e-07	1.521361e+00	1.575689e-06	1.207962e-06	3.677266e-07
3.06          	4.183098e-07	1.520897e+00	1.537336e-06	1.186978e-06	3.503580e-07
3.07          	4.165053e-07	1.520360e+00	1.500588e-06	1.166799e-06	3.337885e-07
3.08          	4.147313e-07	1.519810e+00	1.469627e-06	1.149545e-06	3.200823e-07
3.09          	4.129695e-07	1.519270e+00	1.390929e-06	1.108434e-06	2.824947e-07
3.1           	4.112386e-07	1.518835e+00	1.393973e-06	1.108225e-06	2.857480e-07
3.11          	4.095163e-07	1.518305e+00	1.402381e-06	1.110707e-06	2.916740e-07
3.12          	4.078204e-07	1.517824e+00	1.317381e-06	1.066511e-06	2.508700e-07
3.13          	4.061358e-07	1.517305e+00	1.289994e-06	1.051133e-06	2.388613e-07
3.14          	4.044720e-07	1.516800e+00	1.260438e-06	1.034691e-06	2.257472e-07
3.15          	4.028249e-07	1.516313e+00	1.217826e-06	1.011738e-06	2.060879e-07
3.16          	4.011922e-07	1.515848e+00	1.183704e-06	9.930444e-07	1.906600e-07
3.17          	3.995725e-07	1.515334e+00	1.146692e-06	9.729183e-07	1.737733e-07
3.18          	3.979792e-07	1.514874e+00	1.118285e-06	9.571215e-07	1.611630e-07
3.19          	3.964017e-07	1.514345e+00	1.095054e-06	9.439286e-07	1.511251e-07
3.2           	3.948432e-07	1.513875e+00	1.025419e-06	9.075528e-07	1.178665e-07
3.21          	3.933038e-07	1.513419e+00	9.948456e-07	8.907266e-07	1.041189e-07
3.22          	3.917796e-07	1.512931e+00	9.688475e-07	8.762033e-07	9.264419e-08
3.23          	3.902742e-07	1.512514e+00	9.268920e-07	8.537202e-07	7.317182e-08
3.24          	3.887792e-07	1.512032e+00	8.876788e-07	8.326186e-07	5.506020e-08
3.25          	3.873076e-07	1.511494e+00	8.642862e-07	8.194507e-07	4.483545e-08
3.26          	3.858648e-07	1.511030e+00	8.747012e-07	8.232154e-07	5.148574e-08
3.27          	3.844440e-07	1.510536e+00	7.620265e-07	7.654572e-07	-3.430731e-09
3.28          	3.830506e-07	1.510114e+00	7.350635e-07	7.505824e-07	-1.551884e-08
3.29          	3.816639e-07	1.509624e+00	7.164009e-07	7.398644e-07	-2.346346e-08
3.3           	3.803025e-07	1.509167e+00	6.666268e-07	7.136159e-07	-4.698914e-08
3.31          	3.789548e-07	1.508712e+00	6.323013e-07	6.951054e-07	-6.280413e-08
3.32          	3.776256e-07	1.508253e+00	6.012618e-07	6.782565e-07	-7.699470e-08
3.33          	3.763141e-07	1.507798e+00	5.545392e-07	6.535837e-07	-9.904453e-08
3.34          	3.750209e-07	1.507365e+00	5.124644e-07	6.312531e-07	-1.187887e-07
3.35          	3.737432e-07	1.506943e+00	4.902556e-07	6.188710e-07	-1.286154e-07
3.36          	3.724812e-07	1.506503e+00	4.519314e-07	5.984469e-07	-1.465155e-07
3.37          	3.712366e-07	1.505998e+00	5.850804e-07	6.637768e-07	-7.869638e-08
3.38          	3.700126e-07	1.505577e+00	1.623825e-08	3.781318e-07	-3.618935e-07
3.39          	3.688125e-07	1.505164e+00	3.780050e-07	5.578150e-07	-1.798100e-07
3.4           	3.676338e-07	1.504738e+00	3.085633e-07	5.219154e-07	-2.133522e-07
3.41          	3.664698e-07	1.504312e+00	2.629324e-07	4.979360e-07	-2.350036e-07
3.42          	3.653251e-07	1.503866e+00	2.107846e-07	4.707174e-07	-2.599328e-07
3.43          	3.641970e-07	1.503410e+00	1.068609e-07	4.176274e-07	-3.107665e-07
3.44          	3.630859e-07	1.502936e+00	1.494461e-07	4.378090e-07	-2.883629e-07
3.45          	3.620101e-07	1.502463e+00	8.155977e-08	4.027900e-07	-3.212303e-07
3.46          	3.609636e-07	1.502077e+00	3.064135e-08	3.762843e-07	-3.456429e-07
3.47          	3.599175e-07	1.501674e+00	-4.391188e-09	3.577219e-07	-3.621131e-07
3.48          	3.588779e-07	1.501235e+00	5.717945e-09	3.617369e-07	-3.560190e-07
3.49          	3.578586e-07	1.500815e+00	-6.878386e-08	3.234667e-07	-3.922505e-07
3.5           	3.568496e-07	1.500357e+00	-1.239781e-07	2.948606e-07	-4.188387e-07
3.51          	3.558736e-07	1.499953e+00	-1.594837e-07	2.761317e-07	-4.356154e-07
3.52          	3.549114e-07	1.499559e+00	-1.945407e-07	2.576411e-07	-4.521818e-07
3.53          	3.539549e-07	1.499128e+00	-2.553219e-07	2.262940e-07	-4.816159e-07
3.54          	3.530188e-07	1.498697e+00	-2.754250e-07	2.153063e-07	-4.907313e-07
3.55          	3.521052e-07	1.498278e+00	-3.020497e-07	2.010803e-07	-5.031300e-07
3.56          	3.512073e-07	1.497860e+00	-3.779782e-07	1.622182e-07	-5.401964e-07
3.57          	3.503242e-07	1.497461e+00	-4.037027e-07	1.484728e-07	-5.521755e-07
3.58          	3.494543e-07	1.497070e+00	-4.430428e-07	1.279329e-07	-5.709757e-07
3.59          	3.485962e-07	1.496614e+00	-4.663367e-07	1.154278e-07	-5.817645e-07
3.6           	3.477654e-07	1.496188e+00	-5.049805e-07	9.527521e-08	-6.002557e-07
3.61          	3.469466e-07	1.495766e+00	-5.689268e-07	6.248319e-08	-6.314100e-07
3.62          	3.461470e-07	1.495359e+00	-6.042986e-07	4.399768e-08	-6.482963e-07
3.63          	3.453606e-07	1.494967e+00	-6.557567e-07	1.748220e-08	-6.732389e-07
3.64          	3.445832e-07	1.494574e+00	-6.748392e-07	7.163582e-09	-6.820028e-07
3.65          	3.438126e-07	1.494160e+00	-7.137483e-07	-1.306160e-08	-7.006867e-07
3.66          	3.430589e-07	1.493697e+00	-6.527316e-07	1.669303e-08	-6.694247e-07
3.67          	3.423333e-07	1.493281e+00	-8.593134e-07	-8.732342e-08	-7.719900e-07
3.68          	3.416217e-07	1.492875e+00	-1.033293e-06	-1.750246e-07	-8.582679e-07