/*--------------------------------*- C++ -*----------------------------------*\
  =========                 |
  \\      /  F ield         | OpenFOAM: The Open Source CFD Toolbox
   \\    /   O peration     | Website:  https://openfoam.org
    \\  /    A nd           | Version:  7
     \\/     M anipulation  |
\*---------------------------------------------------------------------------*/
FoamFile
{
    version     2.0;
    format      ascii;
    class       volVectorField;
    location    "75";
    object      U;
}
// * * * * * * * * * * * * * * * * * * * * * * * * * * * * * * * * * * * * * //

dimensions      [0 1 -1 0 0 0 0];

internalField   nonuniform List<vector> 
3275
(
(1.01026 0.457153 4.60075e-20)
(0.972724 0.477104 7.53771e-20)
(0.989009 0.453883 -1.57578e-19)
(0.930762 0.498332 5.69169e-20)
(0.94921 0.473405 -8.03603e-20)
(0.967122 0.449188 1.29681e-19)
(0.906242 0.494495 -1.70213e-20)
(0.924998 0.468528 -7.01035e-20)
(0.944414 0.442955 1.50135e-19)
(0.860582 0.513683 -5.80852e-20)
(0.881576 0.489546 -2.46052e-20)
(0.900354 0.462733 1.29322e-19)
(0.920453 0.435509 -2.15451e-19)
(0.810472 0.528745 1.1412e-19)
(0.835778 0.507923 -9.29961e-20)
(0.857185 0.483457 -5.49453e-20)
(0.876126 0.456316 -1.37791e-19)
(0.894519 0.427263 2.79617e-19)
(0.78518 0.522004 -2.03786e-19)
(0.811196 0.500633 1.10243e-19)
(0.833454 0.475871 2.40451e-20)
(0.853499 0.448677 1.49241e-19)
(0.872718 0.419556 -2.59906e-19)
(0.728599 0.530352 1.16732e-19)
(0.759974 0.513631 1.5473e-19)
(0.786822 0.491817 1.03554e-19)
(0.810071 0.466796 3.00404e-20)
(0.8312 0.439529 5.19868e-20)
(0.851088 0.410583 -2.62828e-19)
(0.665548 0.531184 1.36809e-20)
(0.702878 0.520919 -1.59507e-19)
(0.734934 0.503658 -2.22981e-19)
(0.762686 0.481537 -1.5023e-19)
(0.786972 0.456387 1.26636e-19)
(0.80914 0.429178 -9.54288e-20)
(0.829764 0.400615 2.33447e-19)
(0.639582 0.520715 3.60659e-20)
(0.677352 0.509784 -5.65309e-20)
(0.710159 0.492127 3.43752e-19)
(0.738865 0.46985 -8.70413e-20)
(0.764222 0.444739 -1.94527e-19)
(0.787447 0.417779 4.51636e-20)
(0.808927 0.389777 1.14816e-19)
(0.570086 0.511143 2.29468e-19)
(0.613858 0.508445 1.29172e-19)
(0.65214 0.49698 -2.22741e-19)
(0.685753 0.479077 -4.14765e-20)
(0.715455 0.456802 -1.63739e-19)
(0.741911 0.431897 2.07405e-19)
(0.766218 0.405363 -4.16682e-20)
(0.788636 0.378064 -1.34828e-19)
(0.544559 0.497835 -9.82503e-20)
(0.588508 0.49441 6.25143e-20)
(0.627361 0.482549 4.04215e-20)
(0.661825 0.464548 -4.85506e-20)
(0.692555 0.442432 4.91403e-20)
(0.720133 0.417889 -2.0156e-19)
(0.745543 0.391934 4.37776e-20)
(0.768954 0.365453 1.60299e-19)
(0.470014 0.476174 3.09217e-19)
(0.51947 0.48269 8.58242e-20)
(0.56366 0.478652 1.80303e-19)
(0.603135 0.466531 3.31554e-19)
(0.638484 0.448581 -1.11522e-19)
(0.670264 0.426773 3.60826e-19)
(0.698978 0.402742 1.31245e-19)
(0.725508 0.377499 3.27082e-20)
(0.749946 0.351932 -5.06347e-19)
(0.445694 0.460157 -2.51058e-19)
(0.494954 0.465756 -3.44058e-20)
(0.539441 0.461219 -4.32157e-19)
(0.579577 0.448974 -4.40799e-19)
(0.615837 0.431219 4.52979e-21)
(0.64868 0.409863 -1.34147e-19)
(0.678537 0.386479 4.62318e-20)
(0.706189 0.36207 -2.65038e-19)
(0.731676 0.337501 3.37901e-19)
(0.422015 0.442327 -1.36088e-19)
(0.471143 0.447089 -1.76883e-19)
(0.515973 0.442167 2.62259e-19)
(0.556799 0.429929 -3.83554e-20)
(0.593983 0.412507 -7.21289e-20)
(0.627893 0.391739 -4.44278e-19)
(0.658889 0.369131 -1.68067e-19)
(0.687659 0.345665 4.10653e-19)
(0.714199 0.32217 -2.61166e-19)
(0.346175 0.407092 -1.62479e-19)
(0.399112 0.422746 -3.96878e-20)
(0.448164 0.426751 3.20447e-19)
(0.493373 0.421555 6.18061e-20)
(0.534907 0.409453 1.27772e-19)
(0.57302 0.392496 -3.15117e-20)
(0.60799 0.372444 9.83173e-20)
(0.64011 0.350732 3.01564e-19)
(0.669982 0.328309 -1.90776e-19)
(0.697567 0.30596 2.47003e-19)
(0.324778 0.387103 1.27738e-19)
(0.377114 0.401486 3.97036e-21)
(0.426139 0.404813 -3.04828e-19)
(0.471754 0.399451 -5.81559e-20)
(0.514004 0.387606 1.80081e-19)
(0.553038 0.371241 3.51895e-19)
(0.589051 0.352027 -1.50027e-19)
(0.622271 0.33132 -1.86259e-19)
(0.653217 0.310034 1.30449e-19)
(0.681828 0.288898 -1.17401e-19)
(0.304341 0.36548 -1.54818e-19)
(0.356144 0.378624 4.2536e-19)
(0.405182 0.38135 1.77188e-19)
(0.45122 0.375927 -1.37049e-19)
(0.494184 0.364457 -2.67202e-21)
(0.534122 0.348802 -4.66184e-20)
(0.57115 0.33054 2.16687e-20)
(0.605436 0.310942 1.01575e-19)
(0.63742 0.290878 -1.69181e-19)
(0.667027 0.271021 4.07454e-19)
(0.231983 0.318382 -6.36477e-20)
(0.284986 0.342307 -7.60341e-20)
(0.336319 0.354247 -2.37009e-19)
(0.385402 0.356446 9.67401e-20)
(0.431871 0.351061 -5.76425e-20)
(0.475537 0.340077 -1.16354e-19)
(0.516352 0.325245 7.07614e-20)
(0.554357 0.30804 -1.34213e-19)
(0.589665 0.289647 1.60995e-20)
(0.622641 0.270885 -1.38248e-19)
(0.653203 0.252369 -1.79782e-19)
(0.214859 0.29577 1.71879e-19)
(0.266825 0.317679 -8.0911e-20)
(0.317746 0.328447 1.28473e-19)
(0.366901 0.330192 2.07396e-19)
(0.4138 0.324939 -7.69841e-20)
(0.458146 0.314544 -1.32903e-19)
(0.499801 0.300638 1.62522e-19)
(0.538736 0.284589 1.76589e-19)
(0.575013 0.267491 1.11872e-19)
(0.608926 0.250106 -5.78707e-20)
(0.640394 0.232987 1.6247e-19)
(0.198938 0.271821 -5.67951e-20)
(0.249964 0.291696 -1.47619e-19)
(0.300528 0.301324 -1.25777e-20)
(0.349773 0.302683 8.03793e-20)
(0.397092 0.297649 1.39094e-19)
(0.442087 0.287941 3.8168e-19)
(0.484536 0.275058 -1.5069e-19)
(0.524346 0.260257 -1.08529e-19)
(0.56153 0.244534 9.48193e-20)
(0.596318 0.228593 7.78747e-20)
(0.628636 0.212928 -3.70239e-20)
(0.184318 0.246643 4.6744e-20)
(0.234502 0.264464 4.09227e-20)
(0.284758 0.272985 -4.32302e-20)
(0.334105 0.27402 -1.1925e-19)
(0.381827 0.269288 5.72359e-21)
(0.427431 0.260354 -6.95073e-20)
(0.47062 0.248584 -1.47976e-19)
(0.51124 0.235112 -7.69435e-20)
(0.549263 0.22084 -1.65102e-19)
(0.584858 0.206406 -9.55158e-20)
(0.617961 0.192245 1.65123e-19)
(0.171091 0.220344 -5.2178e-20)
(0.220527 0.236099 1.27829e-20)
(0.270521 0.243542 -6.09336e-20)
(0.319976 0.244311 1.46174e-19)
(0.368075 0.239954 -1.89993e-19)
(0.414242 0.231876 -2.76003e-19)
(0.458107 0.221298 1.09833e-19)
(0.499467 0.209231 -1.88667e-19)
(0.538252 0.196476 1.26247e-19)
(0.574579 0.183606 -1.74411e-19)
(0.608396 0.170995 -4.98911e-20)
(0.113037 0.170606 1.94031e-20)
(0.159335 0.193044 2.50567e-19)
(0.20812 0.206719 1.22928e-19)
(0.257893 0.21311 -1.52864e-19)
(0.307456 0.213667 3.24348e-20)
(0.355901 0.209752 1.23477e-19)
(0.402575 0.202602 1.14448e-19)
(0.447049 0.193287 1.93274e-19)
(0.48907 0.182692 2.87991e-19)
(0.528535 0.171515 -9.10157e-20)
(0.565515 0.160258 1.10123e-19)
(0.599969 0.149239 6.29344e-20)
(0.103857 0.145779 -1.41443e-19)
(0.149123 0.164863 -9.71761e-20)
(0.197352 0.176449 -1.32823e-20)
(0.246943 0.181814 1.27739e-19)
(0.296608 0.182204 7.07695e-20)
(0.34536 0.17879 -5.04928e-20)
(0.392482 0.172631 -8.39292e-20)
(0.437488 0.164641 -1.2186e-19)
(0.480088 0.155576 -1.85729e-19)
(0.520146 0.146029 2.82722e-19)
(0.557693 0.136429 3.14603e-20)
(0.592702 0.127041 2.88823e-20)
(0.0961159 0.120248 -5.7594e-20)
(0.140517 0.135929 5.73282e-20)
(0.188283 0.145418 2.91752e-21)
(0.237727 0.149778 -7.27267e-20)
(0.287484 0.150041 -7.41431e-21)
(0.336502 0.147178 -6.13024e-20)
(0.384004 0.142064 1.43415e-19)
(0.429463 0.135454 -1.0746e-19)
(0.472552 0.127969 9.07193e-20)
(0.513111 0.120096 -1.68707e-19)
(0.551137 0.11219 -2.76805e-20)
(0.586615 0.104464 -1.45601e-20)
(0.0898622 0.0941355 5.52584e-20)
(0.133569 0.106373 6.90545e-21)
(0.180966 0.11376 -3.47067e-20)
(0.230296 0.117132 -7.89838e-21)
(0.280132 0.117302 -1.75191e-20)
(0.329366 0.115031 8.18601e-20)
(0.377179 0.111007 -2.87575e-20)
(0.423005 0.10582 -6.06265e-20)
(0.46649 0.0999554 -2.56081e-20)
(0.507454 0.093794 7.85639e-20)
(0.545867 0.0876128 8.38741e-20)
(0.581725 0.0815753 2.49932e-20)
(0.0851366 0.0675674 -1.11647e-20)
(0.128321 0.076331 3.45171e-20)
(0.175441 0.0816106 2.89795e-20)
(0.224688 0.0840086 -3.03878e-20)
(0.274585 0.084111 -7.19362e-20)
(0.323986 0.082466 3.99039e-20)
(0.372035 0.0795665 -7.71354e-20)
(0.418139 0.0758367 6.47787e-20)
(0.461924 0.0716246 3.01198e-20)
(0.503196 0.0672031 -1.11127e-20)
(0.541901 0.0627707 -2.77928e-20)
(0.578046 0.0584431 -9.46091e-21)
(0.0819693 0.0406719 -4.49927e-20)
(0.124804 0.045939 2.50835e-20)
(0.171741 0.049108 -5.44827e-21)
(0.220933 0.0505426 -1.68768e-20)
(0.270872 0.0505965 5.67587e-20)
(0.320385 0.0496001 -3.54256e-20)
(0.368593 0.0478504 3.04074e-20)
(0.414885 0.0456026 -3.08681e-21)
(0.458872 0.0430662 4.9122e-21)
(0.500348 0.040405 -3.3887e-20)
(0.53925 0.0377387 1.20928e-20)
(0.575587 0.035136 -3.45329e-20)
(0.0803805 0.0135793 -8.59108e-21)
(0.123041 0.0153364 -8.41851e-22)
(0.169885 0.016393 8.6766e-21)
(0.21905 0.0168705 1.70031e-20)
(0.269011 0.0168872 2.69784e-21)
(0.318581 0.0165535 -3.26674e-20)
(0.366869 0.0159686 3.2177e-20)
(0.413254 0.0152176 2.06071e-21)
(0.457342 0.0143706 -1.96434e-20)
(0.498922 0.0134822 5.08988e-21)
(0.537922 0.0125923 -1.53624e-20)
(0.574356 0.0117237 -2.32136e-20)
(0.0803805 -0.0135793 -3.99555e-21)
(0.123041 -0.0153364 -6.08682e-21)
(0.169885 -0.016393 1.68777e-20)
(0.21905 -0.0168705 1.17108e-20)
(0.269011 -0.0168872 2.8793e-21)
(0.318581 -0.0165535 -2.87749e-20)
(0.366869 -0.0159686 2.84107e-20)
(0.413254 -0.0152176 1.43004e-21)
(0.457342 -0.0143706 -1.74261e-20)
(0.498922 -0.0134822 4.12134e-21)
(0.537922 -0.0125923 -1.59717e-20)
(0.574356 -0.0117237 -7.80412e-21)
(0.0819693 -0.0406719 -2.68851e-21)
(0.124804 -0.045939 -2.60389e-20)
(0.171741 -0.049108 -1.11047e-21)
(0.220933 -0.0505426 -1.37057e-20)
(0.270872 -0.0505965 3.84382e-20)
(0.320385 -0.0496001 -1.15452e-20)
(0.368593 -0.0478504 2.55015e-20)
(0.414885 -0.0456026 -6.94852e-21)
(0.458872 -0.0430662 -3.13161e-20)
(0.500348 -0.040405 8.59768e-21)
(0.53925 -0.0377387 7.34295e-21)
(0.575587 -0.035136 -9.62776e-21)
(0.0851366 -0.0675674 -9.12851e-21)
(0.128321 -0.076331 4.93535e-20)
(0.175441 -0.0816106 -3.7214e-20)
(0.224688 -0.0840086 2.33804e-20)
(0.274585 -0.084111 -8.51062e-20)
(0.323986 -0.082466 -6.88787e-21)
(0.372035 -0.0795665 -4.98427e-20)
(0.418139 -0.0758367 5.28673e-20)
(0.461924 -0.0716246 7.60492e-20)
(0.503196 -0.0672031 -2.5896e-20)
(0.541901 -0.0627707 1.04856e-20)
(0.578046 -0.0584431 -5.76315e-20)
(0.0898622 -0.0941355 8.86535e-20)
(0.133569 -0.106373 -5.0227e-20)
(0.180966 -0.11376 -1.89756e-20)
(0.230296 -0.117132 -4.15413e-20)
(0.280132 -0.117302 3.23744e-20)
(0.329366 -0.115031 -2.47834e-20)
(0.377179 -0.111007 8.92677e-20)
(0.423005 -0.10582 -2.68956e-20)
(0.46649 -0.0999554 -9.09265e-20)
(0.507454 -0.093794 1.07976e-19)
(0.545867 -0.0876128 -2.72923e-20)
(0.581725 -0.0815753 9.76419e-20)
(0.0961159 -0.120248 1.8912e-20)
(0.140517 -0.135929 -1.95684e-20)
(0.188283 -0.145418 2.07061e-20)
(0.237727 -0.149778 -1.00575e-19)
(0.287484 -0.150041 -5.03538e-20)
(0.336502 -0.147178 8.17817e-20)
(0.384004 -0.142064 -1.21455e-20)
(0.429463 -0.135454 -2.18357e-20)
(0.472552 -0.127969 1.23299e-19)
(0.513111 -0.120096 -1.97076e-19)
(0.551137 -0.11219 -4.02063e-20)
(0.586615 -0.104464 -3.7352e-20)
(0.103857 -0.145779 -1.54994e-19)
(0.149123 -0.164863 -1.16578e-19)
(0.197352 -0.176449 1.64431e-20)
(0.246943 -0.181814 2.11683e-19)
(0.296608 -0.182204 -1.80385e-20)
(0.34536 -0.17879 -7.2636e-21)
(0.392482 -0.172631 -1.45798e-19)
(0.437488 -0.164641 -1.0416e-20)
(0.480088 -0.155576 -1.46758e-19)
(0.520146 -0.146029 2.67996e-19)
(0.557693 -0.136429 -1.9134e-20)
(0.592702 -0.127041 -3.30548e-21)
(0.113037 -0.170606 2.43387e-19)
(0.159335 -0.193044 1.01898e-19)
(0.20812 -0.206719 1.79594e-20)
(0.257893 -0.21311 -7.20304e-20)
(0.307456 -0.213667 -1.10248e-20)
(0.355901 -0.209752 1.63689e-19)
(0.402575 -0.202602 2.46293e-19)
(0.447049 -0.193287 2.0623e-19)
(0.48907 -0.182692 2.39108e-19)
(0.528535 -0.171515 -1.69472e-19)
(0.565515 -0.160258 1.97659e-19)
(0.599969 -0.149239 4.17604e-20)
(0.171091 -0.220344 -1.03196e-19)
(0.220527 -0.236099 -1.98419e-19)
(0.270521 -0.243542 -1.58542e-20)
(0.319976 -0.244311 1.79163e-19)
(0.368075 -0.239954 -1.38396e-19)
(0.414242 -0.231876 -1.96737e-19)
(0.458107 -0.221298 4.57252e-20)
(0.499467 -0.209231 -2.00058e-19)
(0.538252 -0.196476 6.71828e-20)
(0.574579 -0.183606 -9.82313e-20)
(0.608396 -0.170995 1.74846e-19)
(0.184318 -0.246643 1.06115e-19)
(0.234502 -0.264464 -1.53933e-20)
(0.284758 -0.272985 5.67978e-20)
(0.334105 -0.27402 -2.42122e-19)
(0.381827 -0.269288 3.23977e-20)
(0.427431 -0.260354 -2.10897e-19)
(0.47062 -0.248584 -4.58683e-20)
(0.51124 -0.235112 -9.91864e-20)
(0.549263 -0.22084 -9.53891e-20)
(0.584858 -0.206406 -4.39195e-20)
(0.617961 -0.192245 -2.45561e-19)
(0.198938 -0.271821 -2.14155e-19)
(0.249964 -0.291696 1.01341e-19)
(0.300528 -0.301324 1.0017e-19)
(0.349773 -0.302683 -8.24315e-20)
(0.397092 -0.297649 -2.41628e-20)
(0.442087 -0.287941 4.07015e-19)
(0.484536 -0.275058 3.23103e-20)
(0.524346 -0.260257 -5.58125e-20)
(0.56153 -0.244534 -1.72379e-19)
(0.596318 -0.228593 1.63926e-19)
(0.628636 -0.212928 -6.42772e-21)
(0.214859 -0.29577 6.82743e-20)
(0.266825 -0.317679 5.15181e-20)
(0.317746 -0.328447 2.51534e-19)
(0.366901 -0.330192 -1.34406e-19)
(0.4138 -0.324939 9.98018e-20)
(0.458146 -0.314544 -8.06078e-20)
(0.499801 -0.300638 7.84937e-20)
(0.538736 -0.284589 1.70343e-19)
(0.575013 -0.267491 1.60881e-19)
(0.608926 -0.250106 -1.45178e-19)
(0.640394 -0.232987 -3.15289e-20)
(0.231983 -0.318382 -1.12934e-19)
(0.284986 -0.342307 1.79433e-19)
(0.336319 -0.354247 -2.77187e-19)
(0.385402 -0.356446 8.7089e-20)
(0.431871 -0.351061 2.40882e-20)
(0.475537 -0.340077 -9.01804e-20)
(0.516352 -0.325245 2.94837e-20)
(0.554357 -0.30804 -1.18559e-19)
(0.589665 -0.289647 8.49897e-21)
(0.622641 -0.270885 -2.66526e-20)
(0.653203 -0.252369 -2.94524e-19)
(0.304341 -0.36548 1.36017e-19)
(0.356144 -0.378624 2.18393e-19)
(0.405182 -0.38135 5.27153e-20)
(0.45122 -0.375927 2.64638e-20)
(0.494184 -0.364457 -1.36507e-19)
(0.534122 -0.348802 -5.12952e-20)
(0.57115 -0.33054 2.61791e-19)
(0.605436 -0.310942 9.38057e-20)
(0.63742 -0.290878 -1.20597e-19)
(0.667027 -0.271021 2.49608e-19)
(0.324778 -0.387103 1.91018e-19)
(0.377114 -0.401486 -2.32961e-19)
(0.426139 -0.404813 -3.34901e-19)
(0.471754 -0.399451 -7.72137e-20)
(0.514004 -0.387606 3.31207e-19)
(0.553038 -0.371241 1.24697e-19)
(0.589051 -0.352027 1.92171e-19)
(0.622271 -0.33132 -3.7935e-19)
(0.653217 -0.310034 3.21367e-19)
(0.681828 -0.288898 -3.33323e-19)
(0.346175 -0.407092 -1.27177e-19)
(0.399112 -0.422746 8.91475e-20)
(0.448164 -0.426751 1.15371e-19)
(0.493373 -0.421555 1.93376e-19)
(0.534907 -0.409453 9.75743e-20)
(0.57302 -0.392496 -5.01391e-20)
(0.60799 -0.372444 1.61065e-19)
(0.64011 -0.350732 5.59078e-20)
(0.669982 -0.328309 2.43498e-19)
(0.697567 -0.30596 1.06874e-19)
(0.422015 -0.442327 -5.49417e-20)
(0.471143 -0.447089 -1.52399e-19)
(0.515973 -0.442167 2.10044e-19)
(0.556799 -0.429929 -9.34184e-20)
(0.593983 -0.412507 -2.83549e-19)
(0.627893 -0.391739 -2.0372e-19)
(0.658889 -0.369131 3.01011e-20)
(0.687659 -0.345665 5.72704e-20)
(0.714199 -0.32217 6.0383e-21)
(0.445694 -0.460157 1.63388e-20)
(0.494954 -0.465756 -1.00984e-19)
(0.539441 -0.461219 -5.1211e-19)
(0.579577 -0.448974 -2.86877e-19)
(0.615837 -0.431219 -2.1029e-19)
(0.64868 -0.409863 -1.29211e-19)
(0.678537 -0.386479 2.02206e-19)
(0.706189 -0.36207 -2.43458e-19)
(0.731676 -0.337501 1.66367e-19)
(0.470014 -0.476174 -1.11505e-19)
(0.51947 -0.48269 1.59487e-19)
(0.56366 -0.478652 4.43693e-19)
(0.603135 -0.466531 1.65737e-20)
(0.638484 -0.448581 8.78896e-20)
(0.670264 -0.426773 3.9038e-19)
(0.698978 -0.402742 -2.39922e-19)
(0.725508 -0.377499 1.73046e-19)
(0.749946 -0.351932 -3.74672e-19)
(0.544559 -0.497835 3.56598e-20)
(0.588508 -0.49441 -2.50786e-19)
(0.627361 -0.482549 -4.01113e-20)
(0.661825 -0.464548 2.21375e-19)
(0.692555 -0.442432 -3.19111e-20)
(0.720133 -0.417889 -7.24931e-20)
(0.745543 -0.391934 -8.44002e-20)
(0.768954 -0.365453 1.62781e-19)
(0.570086 -0.511143 -9.72206e-20)
(0.613858 -0.508445 9.81167e-20)
(0.65214 -0.49698 -9.92464e-20)
(0.685753 -0.479077 -4.03375e-20)
(0.715455 -0.456802 -1.10091e-19)
(0.741911 -0.431897 -1.52839e-19)
(0.766218 -0.405363 1.5377e-19)
(0.788636 -0.378064 -6.77048e-20)
(0.639582 -0.520715 -1.38051e-19)
(0.677352 -0.509784 1.90704e-19)
(0.710159 -0.492127 1.71163e-19)
(0.738865 -0.46985 1.05889e-19)
(0.764222 -0.444739 -2.30869e-19)
(0.787447 -0.417779 -4.67016e-20)
(0.808927 -0.389777 1.70379e-19)
(0.665548 -0.531184 -2.51507e-19)
(0.702878 -0.520919 -1.85418e-20)
(0.734934 -0.503658 -2.73286e-19)
(0.762686 -0.481537 -3.3553e-22)
(0.786972 -0.456387 7.72318e-20)
(0.80914 -0.429178 -2.70093e-19)
(0.829764 -0.400615 2.68894e-19)
(0.728599 -0.530352 4.01873e-20)
(0.759974 -0.513631 -4.03505e-20)
(0.786822 -0.491817 2.82523e-20)
(0.810071 -0.466796 5.5663e-21)
(0.8312 -0.439529 1.54561e-19)
(0.851088 -0.410583 -2.46829e-19)
(0.78518 -0.522004 -1.3484e-20)
(0.811196 -0.500633 5.08638e-20)
(0.833454 -0.475871 -2.16197e-20)
(0.853499 -0.448677 1.60369e-19)
(0.872718 -0.419556 -1.15145e-19)
(0.810472 -0.528745 1.23408e-19)
(0.835778 -0.507923 -9.91671e-20)
(0.857185 -0.483457 4.06349e-20)
(0.876126 -0.456316 -1.52465e-19)
(0.894519 -0.427263 2.36192e-19)
(0.860582 -0.513683 1.07469e-19)
(0.881576 -0.489546 6.11004e-20)
(0.900354 -0.462733 1.16835e-19)
(0.920453 -0.435509 -2.54132e-19)
(0.906242 -0.494495 3.37007e-20)
(0.924998 -0.468528 -1.76056e-19)
(0.944414 -0.442955 1.42605e-19)
(0.930762 -0.498332 1.39247e-20)
(0.94921 -0.473405 -2.2386e-20)
(0.967122 -0.449188 1.3999e-19)
(0.972724 -0.477104 6.63491e-20)
(0.989009 -0.453883 -1.8134e-19)
(1.01026 -0.457153 -7.1084e-20)
(0.948419 0.41546 -1.00533e-19)
(0.968716 0.42065 -6.30186e-20)
(0.988088 0.425496 -2.24266e-21)
(1.00705 0.429417 2.96728e-20)
(1.02599 0.432312 6.28768e-21)
(1.04472 0.43419 -3.00375e-21)
(0.969489 0.399873 1.2033e-19)
(0.988531 0.403432 -1.10407e-21)
(1.00644 0.406682 -3.40433e-21)
(1.0235 0.409371 -3.06398e-21)
(1.04056 0.411359 -3.70382e-20)
(1.05752 0.412612 -3.31612e-20)
(0.989196 0.385092 -2.9597e-20)
(1.00636 0.387919 5.07969e-20)
(1.02261 0.390159 1.94829e-20)
(1.03802 0.391857 -1.01185e-20)
(1.05342 0.392978 1.50294e-20)
(1.06879 0.393511 4.22403e-20)
(1.00733 0.370398 -1.15631e-20)
(1.02289 0.372311 -2.9123e-20)
(1.03764 0.373665 -2.48306e-21)
(1.05162 0.374552 7.63803e-21)
(1.06554 0.374973 -1.87022e-20)
(1.07945 0.374921 -2.71134e-20)
(1.02358 0.355523 1.68964e-20)
(1.03771 0.356667 -2.17277e-20)
(1.0511 0.357329 -3.96207e-20)
(1.06381 0.357598 -6.92386e-22)
(1.07644 0.357482 2.75992e-20)
(1.08904 0.356978 -1.57543e-20)
(1.03806 0.340384 4.32509e-20)
(1.05089 0.340948 3.88943e-20)
(1.06303 0.341098 5.0825e-21)
(1.07458 0.340914 4.04265e-21)
(1.08604 0.340408 -2.8885e-20)
(1.09747 0.339578 2.42604e-21)
(1.05087 0.325113 -3.66222e-20)
(1.0625 0.325228 -4.08406e-20)
(1.07351 0.324994 2.16581e-20)
(1.08399 0.324477 -2.02963e-20)
(1.09441 0.323691 3.81325e-21)
(1.10478 0.322636 7.46344e-21)
(1.06215 0.309839 9.47649e-21)
(1.07269 0.309606 -9.42508e-21)
(1.08264 0.309082 1.49562e-20)
(1.09216 0.308324 -2.78984e-21)
(1.10161 0.307343 -8.31552e-21)
(1.11103 0.30614 1.86096e-20)
(1.07203 0.294663 -4.4972e-20)
(1.08156 0.294166 2.07135e-21)
(1.09055 0.293431 -9.69367e-21)
(1.09919 0.292503 1.56379e-20)
(1.10777 0.291393 -1.73435e-21)
(1.11632 0.290101 -3.65257e-21)
(1.08062 0.279674 9.01336e-21)
(1.08924 0.278984 -1.49778e-21)
(1.09737 0.278101 1.01157e-21)
(1.1052 0.277061 -5.42274e-21)
(1.11299 0.275873 -7.97823e-22)
(1.12075 0.274537 -3.856e-21)
(1.08806 0.264947 1.85993e-20)
(1.09584 0.264122 3.30987e-20)
(1.10318 0.263142 -5.13803e-21)
(1.11028 0.262035 1.09451e-22)
(1.11735 0.260808 6.59144e-21)
(1.09445 0.250536 -1.58939e-20)
(1.10147 0.249624 -2.52948e-20)
(1.1081 0.248586 2.6853e-21)
(1.11454 0.247447 3.91825e-21)
(1.12095 0.246211 5.84002e-21)
(1.09987 0.236481 1.03413e-21)
(1.10621 0.235519 -1.07178e-21)
(1.1122 0.234456 1.33863e-21)
(1.11804 0.233312 8.34499e-21)
(1.12386 0.232089 -8.3567e-21)
(1.10442 0.222807 1.61216e-20)
(1.11014 0.221823 -1.2534e-21)
(1.11556 0.220759 -1.21755e-20)
(1.12085 0.21963 -5.74049e-21)
(1.12614 0.218439 5.10219e-22)
(1.10816 0.209525 9.43387e-21)
(1.11333 0.208543 -7.63171e-21)
(1.11823 0.207497 1.11367e-20)
(1.12303 0.206398 1.43999e-20)
(1.12784 0.20525 2.78912e-21)
(1.11115 0.19664 -2.87956e-20)
(1.11582 0.195676 7.69602e-21)
(1.12026 0.194662 -1.70155e-20)
(1.12463 0.193605 -1.1962e-20)
(1.12901 0.192508 1.48911e-20)
(1.11346 0.184148 3.63685e-20)
(1.11769 0.183215 7.98857e-21)
(1.12172 0.182242 1.90528e-20)
(1.1257 0.181236 2.23475e-21)
(1.1297 0.180196 -1.16183e-20)
(1.11514 0.17204 -1.88091e-20)
(1.11898 0.171148 -1.19105e-20)
(1.12264 0.170224 -6.53808e-21)
(1.12627 0.169273 -5.56693e-21)
(1.12993 0.168295 8.14317e-21)
(1.11624 0.160305 4.11408e-21)
(1.11974 0.15946 9.22542e-21)
(1.12308 0.15859 7.81102e-21)
(1.1264 0.157698 5.94608e-22)
(1.12974 0.156784 -9.55668e-21)
(1.11682 0.148928 5.30351e-21)
(1.12001 0.148135 -3.47249e-21)
(1.12306 0.147321 -3.61663e-21)
(1.12611 0.14649 -1.92689e-21)
(1.12918 0.145642 -4.56704e-21)
(1.11693 0.137892 -4.51223e-21)
(1.11984 0.137154 6.79973e-21)
(1.12265 0.136399 -8.23321e-21)
(1.12545 0.13563 -1.2251e-21)
(1.12829 0.134847 4.91046e-21)
(1.11661 0.12718 -1.50511e-20)
(1.11929 0.126498 -5.38557e-21)
(1.12188 0.125802 3.40553e-21)
(1.12447 0.125095 5.72319e-22)
(1.12709 0.124376 6.87533e-21)
(1.11593 0.116771 1.04964e-20)
(1.1184 0.116146 -2.38927e-21)
(1.1208 0.115509 5.12323e-21)
(1.12321 0.114863 -3.10593e-22)
(1.12564 0.114208 -5.79081e-21)
(1.11493 0.106644 2.28329e-21)
(1.11723 0.106075 2.10609e-21)
(1.11946 0.105497 -1.03099e-20)
(1.12171 0.104911 1.62341e-21)
(1.12398 0.104317 2.08769e-21)
(1.11368 0.096775 -3.62697e-21)
(1.11582 0.0962617 4.00719e-21)
(1.11792 0.0957408 1.59804e-21)
(1.12002 0.0952136 -5.28599e-21)
(1.12216 0.09468 3.01949e-21)
(1.11222 0.0871391 -2.31371e-21)
(1.11424 0.0866803 -3.6298e-21)
(1.11621 0.0862152 -3.24895e-21)
(1.1182 0.0857448 1.35025e-21)
(1.12021 0.0852691 2.30028e-21)
(1.11063 0.0777077 1.85459e-21)
(1.11253 0.077302 5.33615e-21)
(1.1144 0.076891 2.88796e-21)
(1.11629 0.0764756 4.05827e-21)
(1.1182 0.0760558 1.76827e-21)
(1.10895 0.0684494 -1.08123e-21)
(1.11076 0.0680953 3.36967e-21)
(1.11255 0.0677366 -1.64413e-21)
(1.11436 0.0673744 -2.32003e-21)
(1.11618 0.0670084 -2.05451e-21)
(1.10726 0.0593291 7.64098e-21)
(1.10899 0.0590248 -5.38742e-21)
(1.11071 0.0587168 -8.23023e-22)
(1.11245 0.0584057 2.77014e-21)
(1.1142 0.0580916 2.38406e-21)
(1.10561 0.0503067 1.92238e-21)
(1.10728 0.0500508 -1.698e-21)
(1.10895 0.0497918 -9.30508e-22)
(1.11062 0.0495303 -1.66722e-21)
(1.11232 0.0492663 -1.57396e-21)
(1.10407 0.0413361 -6.12375e-21)
(1.10569 0.0411271 8.13318e-22)
(1.10732 0.0409157 5.51688e-21)
(1.10895 0.0407023 9.22203e-22)
(1.1106 0.0404868 -1.11107e-21)
(1.1027 0.0323651 3.06514e-21)
(1.1043 0.0322021 -1.92354e-21)
(1.10589 0.0320373 2.48993e-21)
(1.10749 0.031871 -2.46471e-21)
(1.1091 0.0317032 1.99553e-21)
(1.10158 0.0233293 -1.71463e-21)
(1.10316 0.0232114 2.65686e-22)
(1.10473 0.0230923 -1.17252e-21)
(1.10631 0.022972 -2.65311e-21)
(1.10789 0.0228508 3.17061e-21)
(1.10077 0.0141592 2.34632e-22)
(1.10233 0.014087 1.05908e-21)
(1.1039 0.0140142 -1.81194e-21)
(1.10546 0.013941 1.82781e-21)
(1.10704 0.0138673 2.00167e-22)
(1.10035 0.00476034 7.13567e-23)
(1.10191 0.0047329 1.1253e-21)
(1.10348 0.00470531 7.14228e-22)
(1.10504 0.0046777 -2.71001e-21)
(1.10661 0.00465016 3.8521e-21)
(0.999927 0.00292547 0)
(0.998195 0.00864947 0)
(0.99485 0.0146611 0)
(0.990273 0.0211788 0)
(0.984502 0.0285719 0)
(0.977693 0.0370821 0)
(0.969934 0.0470125 0)
(0.961363 0.058648 0)
(0.952141 0.0723054 0)
(0.942488 0.0883086 0)
(0.932692 0.106992 0)
(0.923126 0.128679 0)
(0.914269 0.153658 0)
(0.906696 0.182141 0)
(0.901116 0.214214 0)
(0.898252 0.249741 0)
(0.898993 0.288223 0)
(0.903552 0.328666 0)
(0.913922 0.369067 0)
(0.92165 0.407164 0)
(0.999932 0.0030604 0)
(0.998267 0.009042 0)
(0.995048 0.0153062 0)
(0.990653 0.0220818 0)
(0.985132 0.0297397 0)
(0.978652 0.0385229 0)
(0.971318 0.0487274 0)
(0.963289 0.0606273 0)
(0.954752 0.0745196 0)
(0.945955 0.0906998 0)
(0.937217 0.109462 0)
(0.928943 0.131074 0)
(0.921634 0.155755 0)
(0.915877 0.183633 0)
(0.91237 0.214702 0)
(0.911802 0.248737 0)
(0.915016 0.285209 0)
(0.92214 0.323131 0)
(0.93558 0.360548 0)
(0.944662 0.393272 0)
(0.999937 0.00319505 0)
(0.998347 0.0094364 0)
(0.995272 0.0159554 0)
(0.991082 0.0229918 0)
(0.98584 0.0309158 0)
(0.979722 0.0399705 0)
(0.972851 0.0504429 0)
(0.965406 0.0625937 0)
(0.957595 0.0766966 0)
(0.949691 0.0930144 0)
(0.942038 0.111796 0)
(0.935057 0.133249 0)
(0.929262 0.157521 0)
(0.925235 0.184652 0)
(0.923646 0.214545 0)
(0.925128 0.246892 0)
(0.930451 0.281126 0)
(0.939612 0.316266 0)
(0.95499 0.350545 0)
(0.966391 0.379131 0)
(0.999941 0.00332982 0)
(0.998435 0.00983264 0)
(0.995519 0.0166073 0)
(0.991556 0.0239038 0)
(0.986622 0.0320909 0)
(0.9809 0.0414113 0)
(0.974531 0.0521415 0)
(0.96771 0.0645278 0)
(0.960665 0.0788194 0)
(0.95369 0.0952454 0)
(0.947144 0.114009 0)
(0.94146 0.135261 0)
(0.937147 0.159078 0)
(0.934769 0.185423 0)
(0.934949 0.214117 0)
(0.938251 0.244784 0)
(0.945346 0.276826 0)
(0.956127 0.309277 0)
(0.97271 0.340678 0)
(0.986101 0.366096 0)
(0.999945 0.00346233 0)
(0.99853 0.0102233 0)
(0.995788 0.0172484 0)
(0.992074 0.0247971 0)
(0.987475 0.0332352 0)
(0.982181 0.0428028 0)
(0.976349 0.0537646 0)
(0.970189 0.0663497 0)
(0.963946 0.0807808 0)
(0.957929 0.0972511 0)
(0.952505 0.115917 0)
(0.948109 0.136872 0)
(0.945236 0.160127 0)
(0.944416 0.185573 0)
(0.946214 0.212963 0)
(0.951114 0.241867 0)
(0.959668 0.271677 0)
(0.971703 0.301459 0)
(0.988951 0.330026 0)
(1.00373 0.352699 0)
(0.999949 0.00359111 0)
(0.998631 0.0106039 0)
(0.996079 0.0178711 0)
(0.992633 0.0256609 0)
(0.988394 0.0343333 0)
(0.983557 0.044125 0)
(0.978293 0.0552857 0)
(0.972826 0.0680255 0)
(0.967414 0.0825379 0)
(0.962373 0.0989786 0)
(0.958075 0.117456 0)
(0.954945 0.138009 0)
(0.953454 0.160583 0)
(0.954089 0.18501 0)
(0.957345 0.210985 0)
(0.96362 0.238042 0)
(0.973341 0.265578 0)
(0.986295 0.292721 0)
(1.0038 0.318489 0)
(1.01949 0.338689 0)
(0.999953 0.00371516 0)
(0.998738 0.0109713 0)
(0.996388 0.01847 0)
(0.99323 0.0264871 0)
(0.989373 0.0353751 0)
(0.985019 0.0453646 0)
(0.980352 0.056689 0)
(0.975603 0.0695369 0)
(0.971041 0.084071 0)
(0.966987 0.100409 0)
(0.963806 0.118611 0)
(0.961907 0.138663 0)
(0.961728 0.160455 0)
(0.963703 0.183765 0)
(0.968252 0.208248 0)
(0.975685 0.233418 0)
(0.986308 0.258693 0)
(0.999882 0.283278 0)
(1.01736 0.306359 0)
(1.03354 0.324308 0)
(0.999957 0.00383338 0)
(0.998852 0.011322 0)
(0.996715 0.0190392 0)
(0.99386 0.0272672 0)
(0.990407 0.0363487 0)
(0.98656 0.0465068 0)
(0.982511 0.0579566 0)
(0.9785 0.0708634 0)
(0.974802 0.0853583 0)
(0.971732 0.10152 0)
(0.969648 0.119364 0)
(0.968933 0.138827 0)
(0.969983 0.159751 0)
(0.973175 0.18187 0)
(0.978852 0.204813 0)
(0.987238 0.228094 0)
(0.998526 0.251161 0)
(1.01246 0.27331 0)
(1.02968 0.293862 0)
(1.04603 0.309743 0)
(0.999962 0.00394454 0)
(0.99897 0.0116522 0)
(0.997058 0.019572 0)
(0.994523 0.0279915 0)
(0.991491 0.0372414 0)
(0.988168 0.0475357 0)
(0.984756 0.0590691 0)
(0.981497 0.071983 0)
(0.978665 0.0863762 0)
(0.976571 0.102289 0)
(0.975551 0.119696 0)
(0.97596 0.138489 0)
(0.978148 0.15847 0)
(0.98243 0.179344 0)
(0.98907 0.200727 0)
(0.998217 0.222142 0)
(1.00996 0.243082 0)
(1.02404 0.262936 0)
(1.04084 0.281136 0)
(1.05708 0.29512 0)
(0.999966 0.00404731 0)
(0.999094 0.0119578 0)
(0.997416 0.0200616 0)
(0.995213 0.02865 0)
(0.992618 0.0380402 0)
(0.989836 0.0484348 0)
(0.987073 0.0600075 0)
(0.984571 0.0728744 0)
(0.982601 0.0871025 0)
(0.98146 0.102697 0)
(0.981463 0.119592 0)
(0.982927 0.137643 0)
(0.986153 0.156622 0)
(0.991393 0.176215 0)
(0.99884 0.196035 0)
(1.00857 0.215632 0)
(1.02059 0.234545 0)
(1.03464 0.252258 0)
(1.0509 0.268299 0)
(1.0668 0.280549 0)
(0.999971 0.00414031 0)
(0.999222 0.0122345 0)
(0.997787 0.0205008 0)
(0.995928 0.0292326 0)
(0.993781 0.0387317 0)
(0.991551 0.049188 0)
(0.989443 0.0607532 0)
(0.987698 0.0735179 0)
(0.986576 0.0875181 0)
(0.986358 0.102725 0)
(0.987331 0.11904 0)
(0.989772 0.136289 0)
(0.993931 0.154221 0)
(0.999999 0.172513 0)
(1.0081 0.19079 0)
(1.01825 0.208635 0)
(1.03039 0.225638 0)
(1.04426 0.24137 0)
(1.05989 0.255448 0)
(1.07532 0.266127 0)
(0.999977 0.00422207 0)
(0.999354 0.0124779 0)
(0.998169 0.0208822 0)
(0.996663 0.029729 0)
(0.994974 0.0393029 0)
(0.993302 0.0497798 0)
(0.991851 0.0612888 0)
(0.990854 0.0738954 0)
(0.990558 0.0876062 0)
(0.991223 0.102362 0)
(0.993105 0.118037 0)
(0.996438 0.134433 0)
(1.00142 0.151286 0)
(1.00819 0.168276 0)
(1.0168 0.185046 0)
(1.02723 0.201219 0)
(1.03936 0.216438 0)
(1.05293 0.230356 0)
(1.06789 0.242663 0)
(1.08273 0.251931 0)
(0.999982 0.00429109 0)
(0.99949 0.0126835 0)
(0.998561 0.0211985 0)
(0.997414 0.0301287 0)
(0.996188 0.0397407 0)
(0.995076 0.050195 0)
(0.994277 0.0615981 0)
(0.994012 0.0739909 0)
(0.994513 0.0873534 0)
(0.996014 0.1016 0)
(0.998735 0.116582 0)
(1.00287 0.132085 0)
(1.00857 0.147843 0)
(1.01591 0.163544 0)
(1.02491 0.178858 0)
(1.03548 0.19345 0)
(1.04749 0.207017 0)
(1.06068 0.219283 0)
(1.07492 0.230007 0)
(1.08911 0.238015 0)
(0.999988 0.00434581 0)
(0.999628 0.0128465 0)
(0.998959 0.021442 0)
(0.998176 0.0304216 0)
(0.997416 0.0400326 0)
(0.996861 0.0504193 0)
(0.996702 0.0616663 0)
(0.997147 0.073791 0)
(0.998408 0.0867495 0)
(1.00069 0.100435 0)
(1.00418 0.11468 0)
(1.00902 0.129264 0)
(1.01532 0.143922 0)
(1.02312 0.158361 0)
(1.03238 0.172281 0)
(1.04299 0.18539 0)
(1.05479 0.197439 0)
(1.06753 0.208212 0)
(1.08105 0.217527 0)
(1.09454 0.224421 0)
(0.999994 0.00438466 0)
(0.999768 0.0129624 0)
(0.999362 0.0216052 0)
(0.998945 0.0305975 0)
(0.998648 0.0401665 0)
(0.998642 0.0504397 0)
(0.999108 0.0614804 0)
(1.00023 0.0732847 0)
(1.00221 0.0857878 0)
(1.00521 0.0988654 0)
(1.00939 0.11234 0)
(1.01485 0.125988 0)
(1.02165 0.139555 0)
(1.02979 0.15277 0)
(1.0392 0.165366 0)
(1.04976 0.177096 0)
(1.06128 0.187757 0)
(1.07352 0.19719 0)
(1.08632 0.205259 0)
(1.0991 0.211173 0)
(1 0.00440609 0)
(0.999909 0.0130263 0)
(0.999766 0.0216809 0)