/*--------------------------------*- C++ -*----------------------------------*\
  =========                 |
  \\      /  F ield         | OpenFOAM: The Open Source CFD Toolbox
   \\    /   O peration     | Website:  https://openfoam.org
    \\  /    A nd           | Version:  7
     \\/     M anipulation  |
\*---------------------------------------------------------------------------*/
FoamFile
{
    version     2.0;
    format      ascii;
    class       volScalarField;
    location    "85";
    object      p;
}
// * * * * * * * * * * * * * * * * * * * * * * * * * * * * * * * * * * * * * //

dimensions      [0 2 -2 0 0 0 0];

internalField   nonuniform List<scalar> 
8500
(
-0.333989
-0.335695
-0.336638
-0.33738
-0.337981
-0.338461
-0.338865
-0.339226
-0.339566
-0.339902
-0.340245
-0.340598
-0.340965
-0.341348
-0.341752
-0.342189
-0.342675
-0.343237
-0.343913
-0.34477
-0.336002
-0.337806
-0.338814
-0.33962
-0.340289
-0.340846
-0.341335
-0.341791
-0.342236
-0.342687
-0.343151
-0.343632
-0.34413
-0.344645
-0.345179
-0.345738
-0.346333
-0.346984
-0.347727
-0.348615
-0.338127
-0.34002
-0.341087
-0.341953
-0.342689
-0.343321
-0.343895
-0.344447
-0.344998
-0.345565
-0.346153
-0.346763
-0.347395
-0.348045
-0.348711
-0.349395
-0.350102
-0.350844
-0.351657
-0.352574
-0.340368
-0.342338
-0.343458
-0.344381
-0.345181
-0.345886
-0.346545
-0.347193
-0.347852
-0.348535
-0.349248
-0.349991
-0.350759
-0.351546
-0.352346
-0.353157
-0.353979
-0.354815
-0.3557
-0.356642
-0.34273
-0.344763
-0.34593
-0.346904
-0.347765
-0.348542
-0.349285
-0.350029
-0.350795
-0.351596
-0.352436
-0.353313
-0.354219
-0.355145
-0.356081
-0.357021
-0.357959
-0.358894
-0.359851
-0.360816
-0.345212
-0.347294
-0.348501
-0.349522
-0.350441
-0.351287
-0.352112
-0.352952
-0.353826
-0.354746
-0.355714
-0.356725
-0.35777
-0.358836
-0.35991
-0.360981
-0.362036
-0.363071
-0.364102
-0.365085
-0.347816
-0.349932
-0.35117
-0.352233
-0.353205
-0.354118
-0.355025
-0.355959
-0.35694
-0.357979
-0.359075
-0.360222
-0.361406
-0.362613
-0.363825
-0.365026
-0.366199
-0.367335
-0.368438
-0.369435
-0.35054
-0.352674
-0.353936
-0.355034
-0.356055
-0.357032
-0.358018
-0.359045
-0.360134
-0.361291
-0.362515
-0.363796
-0.36512
-0.366467
-0.367817
-0.369146
-0.370435
-0.371672
-0.372846
-0.37385
-0.353381
-0.355517
-0.356795
-0.357922
-0.358987
-0.360024
-0.361086
-0.362205
-0.363399
-0.364673
-0.366024
-0.36744
-0.368902
-0.370388
-0.371872
-0.373328
-0.37473
-0.376066
-0.377304
-0.378307
-0.356336
-0.358457
-0.359741
-0.36089
-0.361995
-0.363088
-0.364223
-0.365431
-0.366728
-0.368118
-0.369594
-0.371143
-0.372741
-0.374362
-0.375977
-0.377555
-0.379064
-0.380494
-0.381791
-0.38278
-0.359399
-0.361487
-0.362768
-0.363933
-0.365071
-0.366217
-0.367421
-0.368715
-0.370112
-0.371615
-0.373214
-0.374892
-0.376623
-0.378376
-0.380117
-0.381809
-0.383419
-0.384936
-0.386281
-0.387239
-0.362563
-0.3646
-0.36587
-0.367043
-0.368208
-0.369401
-0.37067
-0.372046
-0.37354
-0.375152
-0.376871
-0.378674
-0.380533
-0.382413
-0.384273
-0.386072
-0.387771
-0.389365
-0.390745
-0.391652
-0.365817
-0.367789
-0.369037
-0.370211
-0.371397
-0.372631
-0.373961
-0.375414
-0.377001
-0.378718
-0.380551
-0.382475
-0.384457
-0.386455
-0.388427
-0.390322
-0.392098
-0.393754
-0.395155
-0.395982
-0.369154
-0.371042
-0.372261
-0.373428
-0.374628
-0.375896
-0.377281
-0.378807
-0.380481
-0.382298
-0.38424
-0.386279
-0.388376
-0.390486
-0.392558
-0.394537
-0.396375
-0.398076
-0.399479
-0.400193
-0.372561
-0.37435
-0.37553
-0.376682
-0.377889
-0.379186
-0.380619
-0.382211
-0.383966
-0.385877
-0.387922
-0.390068
-0.392273
-0.394485
-0.396646
-0.398695
-0.400576
-0.402303
-0.403685
-0.404244
-0.376025
-0.377701
-0.378833
-0.379962
-0.381169
-0.382488
-0.383962
-0.385613
-0.387442
-0.389439
-0.391579
-0.393825
-0.396129
-0.398432
-0.400669
-0.402772
-0.404676
-0.406404
-0.407743
-0.408097
-0.379535
-0.381084
-0.382159
-0.383258
-0.384456
-0.385788
-0.387296
-0.388998
-0.390894
-0.392969
-0.395196
-0.397532
-0.399924
-0.402306
-0.404606
-0.406745
-0.40865
-0.410353
-0.411624
-0.411713
-0.383075
-0.384485
-0.385495
-0.386555
-0.387737
-0.389075
-0.390608
-0.392352
-0.394305
-0.39645
-0.398753
-0.401169
-0.403638
-0.406087
-0.408435
-0.410592
-0.412475
-0.414122
-0.4153
-0.415056
-0.386631
-0.387892
-0.38883
-0.389843
-0.390999
-0.392334
-0.393883
-0.39566
-0.39766
-0.399864
-0.402233
-0.404718
-0.407252
-0.409754
-0.412134
-0.414291
-0.416127
-0.417686
-0.418746
-0.418085
-0.39019
-0.391292
-0.392151
-0.393109
-0.394232
-0.395553
-0.397108
-0.398907
-0.400944
-0.403195
-0.405618
-0.40816
-0.410745
-0.413287
-0.415683
-0.41782
-0.419586
-0.421022
-0.421941
-0.420729
-0.393736
-0.394673
-0.395445
-0.396341
-0.397421
-0.39872
-0.40027
-0.40208
-0.404141
-0.406426
-0.408891
-0.411475
-0.414099
-0.416665
-0.419061
-0.421162
-0.422833
-0.424115
-0.424878
-0.422902
-0.397256
-0.398022
-0.398702
-0.399529
-0.400557
-0.401822
-0.403355
-0.405164
-0.407236
-0.409542
-0.412034
-0.414647
-0.417294
-0.419869
-0.422249
-0.424295
-0.425852
-0.426951
-0.427549
-0.424995
-0.400736
-0.401328
-0.401911
-0.402661
-0.403628
-0.404849
-0.406353
-0.408147
-0.410215
-0.412528
-0.415032
-0.417657
-0.420312
-0.422881
-0.425229
-0.427203
-0.428629
-0.429519
-0.429846
-0.426729
-0.404164
-0.404581
-0.405063
-0.405729
-0.406625
-0.407791
-0.409253
-0.411017
-0.413068
-0.41537
-0.41787
-0.420492
-0.423137
-0.425683
-0.427983
-0.42987
-0.431147
-0.431806
-0.431857
-0.428023
-0.40753
-0.407772
-0.408149
-0.408724
-0.409541
-0.41064
-0.412047
-0.413766
-0.415782
-0.418057
-0.420536
-0.423136
-0.425755
-0.428261
-0.430496
-0.432279
-0.433391
-0.433794
-0.433576
-0.428899
-0.410822
-0.410894
-0.411163
-0.41164
-0.412368
-0.413389
-0.414726
-0.416385
-0.418349
-0.42058
-0.423019
-0.425579
-0.428153
-0.430601
-0.432754
-0.434417
-0.435351
-0.435472
-0.434989
-0.429374
-0.414034
-0.413939
-0.414099
-0.414473
-0.415103
-0.416032
-0.417286
-0.418869
-0.420764
-0.422932
-0.425311
-0.427812
-0.430322
-0.432693
-0.434746
-0.436274
-0.437017
-0.436834
-0.436092
-0.429455
-0.41716
-0.416905
-0.416953
-0.417219
-0.417742
-0.418568
-0.419724
-0.421214
-0.423022
-0.425108
-0.427407
-0.429829
-0.432254
-0.434529
-0.436465
-0.437841
-0.438381
-0.437875
-0.436887
-0.429156
-0.420195
-0.419788
-0.419724
-0.419877
-0.420284
-0.420996
-0.422038
-0.423419
-0.425122
-0.427106
-0.429307
-0.431629
-0.433949
-0.436108
-0.437906
-0.439114
-0.439438
-0.438591
-0.437371
-0.428491
-0.423138
-0.422588
-0.422412
-0.422447
-0.422731
-0.423316
-0.424232
-0.425486
-0.427066
-0.42893
-0.431011
-0.433213
-0.435408
-0.437429
-0.439071
-0.440092
-0.440189
-0.438985
-0.437544
-0.427481
-0.42599
-0.425306
-0.425019
-0.424933
-0.425085
-0.425533
-0.426307
-0.42742
-0.428859
-0.430583
-0.432526
-0.434587
-0.436635
-0.4385
-0.439965
-0.440779
-0.440634
-0.439059
-0.437404
-0.42615
-0.428754
-0.427947
-0.42755
-0.427338
-0.427351
-0.427651
-0.428272
-0.429228
-0.430509
-0.432075
-0.43386
-0.435761
-0.437643
-0.43933
-0.440597
-0.441186
-0.440783
-0.438823
-0.436948
-0.424527
-0.431435
-0.430516
-0.43001
-0.429669
-0.429537
-0.429679
-0.430134
-0.430919
-0.432026
-0.433418
-0.435026
-0.436749
-0.438445
-0.439934
-0.440985
-0.441328
-0.440646
-0.438294
-0.43617
-0.422645
-0.434042
-0.43302
-0.432406
-0.431934
-0.431651
-0.431627
-0.431904
-0.432504
-0.433423
-0.434625
-0.436041
-0.437567
-0.43906
-0.440332
-0.441146
-0.441224
-0.44024
-0.437495
-0.435067
-0.420545
-0.436584
-0.43547
-0.434749
-0.434143
-0.433703
-0.433505
-0.433594
-0.433999
-0.434716
-0.435713
-0.436922
-0.438236
-0.439508
-0.440546
-0.441103
-0.440897
-0.439586
-0.436455
-0.433639
-0.418284
-0.439074
-0.437875
-0.437049
-0.436307
-0.435706
-0.435326
-0.43522
-0.435418
-0.435923
-0.436703
-0.43769
-0.438777
-0.439813
-0.4406
-0.440883
-0.440375
-0.438707
-0.435211
-0.431885
-0.41593
-0.441526
-0.44025
-0.439319
-0.438439
-0.437672
-0.437106
-0.436796
-0.436779
-0.437062
-0.437614
-0.438369
-0.439216
-0.440001
-0.44052
-0.440512
-0.439685
-0.437632
-0.4338
-0.429765
-0.413465
-0.443956
-0.442608
-0.441572
-0.440553
-0.439617
-0.438859
-0.43834
-0.438102
-0.438154
-0.438469
-0.43898
-0.439576
-0.440096
-0.440332
-0.440016
-0.438858
-0.436404
-0.432286
-0.427201
-0.410726
-0.44638
-0.444963
-0.443823
-0.442662
-0.441555
-0.440601
-0.439869
-0.439404
-0.439219
-0.43929
-0.439549
-0.439881
-0.440123
-0.44006
-0.439423
-0.437924
-0.435078
-0.430777
-0.424324
-0.408199
-0.448819
-0.447333
-0.446086
-0.444783
-0.443502
-0.44235
-0.441401
-0.440705
-0.440279
-0.440099
-0.440097
-0.440155
-0.440105
-0.439728
-0.438751
-0.436901
-0.433689
-0.429327
-0.421803
-0.409118
-0.451289
-0.449733
-0.448379
-0.44693
-0.445473
-0.444122
-0.442954
-0.442025
-0.441354
-0.440918
-0.440647
-0.44042
-0.440063
-0.439353
-0.438015
-0.435794
-0.432215
-0.427762
-0.420022
-0.417447
-0.453811
-0.452181
-0.450715
-0.449119
-0.447486
-0.445934
-0.444546
-0.443382
-0.442463
-0.441766
-0.441218
-0.440694
-0.440014
-0.438949
-0.437225
-0.434601
-0.430628
-0.425954
-0.417943
-0.416974
-0.456403
-0.454692
-0.453111
-0.451366
-0.449554
-0.447801
-0.446194
-0.444794
-0.443625
-0.442662
-0.441829
-0.440995
-0.439972
-0.438529
-0.436389
-0.433323
-0.428906
-0.423836
-0.415412
-0.413842
-0.459085
-0.457282
-0.455583
-0.453685
-0.451694
-0.44974
-0.447913
-0.446277
-0.444856
-0.443622
-0.442494
-0.441335
-0.43995
-0.4381
-0.43551
-0.431958
-0.427045
-0.421443
-0.412542
-0.409765
-0.461874
-0.459968
-0.458144
-0.456091
-0.453919
-0.451764
-0.449718
-0.447846
-0.44617
-0.444659
-0.443226
-0.441725
-0.439953
-0.437666
-0.434591
-0.43051
-0.42505
-0.418824
-0.409403
-0.405183
-0.464787
-0.462764
-0.460809
-0.458597
-0.456243
-0.453887
-0.451622
-0.449514
-0.44758
-0.445785
-0.444033
-0.442171
-0.439986
-0.437232
-0.433633
-0.428982
-0.422931
-0.416022
-0.406059
-0.400389
-0.465683
-0.463591
-0.461215
-0.458678
-0.456121
-0.453638
-0.451291
-0.449095
-0.447006
-0.444922
-0.442677
-0.440051
-0.436794
-0.432637
-0.427377
-0.4207
-0.413079
-0.402572
-0.395551
-0.4665
-0.463957
-0.461234
-0.458475
-0.455773
-0.453186
-0.450722
-0.44833
-0.445895
-0.443242
-0.440146
-0.436353
-0.431601
-0.4257
-0.418372
-0.410032
-0.398992
-0.390765
-0.466832
-0.463922
-0.46096
-0.458037
-0.455206
-0.452467
-0.449757
-0.446952
-0.443866
-0.440267
-0.435902
-0.430523
-0.423956
-0.415961
-0.406909
-0.395358
-0.386077
-0.469849
-0.466748
-0.463582
-0.460436
-0.457356
-0.454331
-0.451289
-0.448091
-0.444542
-0.440407
-0.435438
-0.429402
-0.422148
-0.41348
-0.403736
-0.391701
-0.381511
-0.469719
-0.466346
-0.462973
-0.459637
-0.456316
-0.452922
-0.449306
-0.445263
-0.440558
-0.434953
-0.428235
-0.42028
-0.410939
-0.40053
-0.388039
-0.377072
-0.469257
-0.465652
-0.462051
-0.458419
-0.454652
-0.45059
-0.446021
-0.440712
-0.434439
-0.427018
-0.418355
-0.408347
-0.397304
-0.384388
-0.372757
-0.468474
-0.464597
-0.460636
-0.456473
-0.451933
-0.446804
-0.440857
-0.43389
-0.425748
-0.416373
-0.405712
-0.394068
-0.380754
-0.368557
-0.467271
-0.46296
-0.458373
-0.453325
-0.447599
-0.440982
-0.433295
-0.424421
-0.414337
-0.403038
-0.390826
-0.377142
-0.364459
-0.465386
-0.460344
-0.454751
-0.448394
-0.441076
-0.432647
-0.423032
-0.412246
-0.400328
-0.387581
-0.373551
-0.360447
-0.462372
-0.456197
-0.449173
-0.441124
-0.431937
-0.421576
-0.410099
-0.397584
-0.384332
-0.369978
-0.356508
-0.457649
-0.449921
-0.441115
-0.431154
-0.420049
-0.407894
-0.394803
-0.381077
-0.36642
-0.352625
-0.450623
-0.441035
-0.430291
-0.418445
-0.405629
-0.391985
-0.377812
-0.362869
-0.348784
-0.429338
-0.416759
-0.403299
-0.389126
-0.37453
-0.359319
-0.344969
-0.414984
-0.4009
-0.386222
-0.371227
-0.35576
-0.341167
-0.398427
-0.383265
-0.367893
-0.352184
-0.337364
-0.36452
-0.348581
-0.333547
-0.344941
-0.329705
-0.248847
-0.237859
-0.262335
-0.250828
-0.240152
-0.285873
-0.274894
-0.263871
-0.2527
-0.24235
-0.296469
-0.286344
-0.275869
-0.265286
-0.254464
-0.244459
-0.313594
-0.305239
-0.296223
-0.286671
-0.27671
-0.266584
-0.256122
-0.246483
-0.319097
-0.312024
-0.304259
-0.295838
-0.286856
-0.277417
-0.267763
-0.257675
-0.248428
-0.322895
-0.316934
-0.310373
-0.303165
-0.295317
-0.286902
-0.27799
-0.268823
-0.259122
-0.250302
-0.325435
-0.320314
-0.314752
-0.308656
-0.301967
-0.294669
-0.286809
-0.278428
-0.269764
-0.260462
-0.252111
-0.327164
-0.32261
-0.317776
-0.312565
-0.306888
-0.300677
-0.293899
-0.28658
-0.278729
-0.270584
-0.261694
-0.253864
-0.328414
-0.324234
-0.319881
-0.315293
-0.310387
-0.305082
-0.299306
-0.293016
-0.286218
-0.278893
-0.271281
-0.262814
-0.255569
-0.329353
-0.325458
-0.321432
-0.317253
-0.312874
-0.308231
-0.30325
-0.297866
-0.292026
-0.285727
-0.278917
-0.271852
-0.26382
-0.257235
-0.330008
-0.326404
-0.322649
-0.31876
-0.314729
-0.310527
-0.306106
-0.301406
-0.296368
-0.29094
-0.28511
-0.278803
-0.272294
-0.264706
-0.258874
-0.330316
-0.327067
-0.323608
-0.319982
-0.316215
-0.312312
-0.308258
-0.304022
-0.299561
-0.294825
-0.289766
-0.284373
-0.278547
-0.272603
-0.265464
-0.260494
-0.330172
-0.327373
-0.324282
-0.32096
-0.317454
-0.313795
-0.310001
-0.30607
-0.301988
-0.297726
-0.29325
-0.288516
-0.283523
-0.278153
-0.272774
-0.266087
-0.262101
-0.329449
-0.327218
-0.32459
-0.321649
-0.318456
-0.31506
-0.311498
-0.307796
-0.303967
-0.30001
-0.295912
-0.291653
-0.287202
-0.282567
-0.27762
-0.272801
-0.266563
-0.263699
-0.326486
-0.324429
-0.321963
-0.319164
-0.316091
-0.312796
-0.309321
-0.305698
-0.301952
-0.298094
-0.294129
-0.290049
-0.285837
-0.281516
-0.276951
-0.272677
-0.266876
-0.26528
-0.325094
-0.323696
-0.321803
-0.319489
-0.316823
-0.313863
-0.31066
-0.307262
-0.303706
-0.300026
-0.296247
-0.292385
-0.288449
-0.284434
-0.280381
-0.276151
-0.272391
-0.26701
-0.266822
-0.323028
-0.322315
-0.321079
-0.319339
-0.317167
-0.314624
-0.311768
-0.30865
-0.305319
-0.30182
-0.298193
-0.294474
-0.290692
-0.286867
-0.283008
-0.279175
-0.275228
-0.271934
-0.266941
-0.268274
-0.320224
-0.319719
-0.318633
-0.317037
-0.314995
-0.312567
-0.309806
-0.306765
-0.303494
-0.300042
-0.296457
-0.292783
-0.289058
-0.285316
-0.281577
-0.277914
-0.274192
-0.271292
-0.266643
-0.269544
-0.317621
-0.317308
-0.31636
-0.314895
-0.312975
-0.310651
-0.307977
-0.305005
-0.301786
-0.298374
-0.294822
-0.29118
-0.287496
-0.283812
-0.280158
-0.276618
-0.273058
-0.270453
-0.266089
-0.270461
-0.31522
-0.315082
-0.31426
-0.312915
-0.311106
-0.308878
-0.306283
-0.303373
-0.3002
-0.296821
-0.293293
-0.289673
-0.286016
-0.28237
-0.278772
-0.275309
-0.271849
-0.269407
-0.265261
-0.270786
-0.313024
-0.313041
-0.312334
-0.311098
-0.309389
-0.307248
-0.304726
-0.301872
-0.29874
-0.295389
-0.291879
-0.288273
-0.284631
-0.281006
-0.277441
-0.274014
-0.270594
-0.268136
-0.264136
-0.270256
-0.311033
-0.311187
-0.310581
-0.309443
-0.307826
-0.305765
-0.303308
-0.300505
-0.29741
-0.294083
-0.290588
-0.28699
-0.283354
-0.279738
-0.276186
-0.272764
-0.269331
-0.266633
-0.262535
-0.266842
-0.309249
-0.309519
-0.309003
-0.307952
-0.306417
-0.304429
-0.302033
-0.299277
-0.296216
-0.29291
-0.289427
-0.285834
-0.2822
-0.278585
-0.275034
-0.271597
-0.268123
-0.265045
-0.260549
-0.252157
-0.307672
-0.308038
-0.307598
-0.306625
-0.305165
-0.303243
-0.300903
-0.298192
-0.295163
-0.291879
-0.288406
-0.284817
-0.281181
-0.277563
-0.274007
-0.270551
-0.267047
-0.263594
-0.259581
-0.247256
-0.306301
-0.30674
-0.306366
-0.305461
-0.304068
-0.302208
-0.299921
-0.297253
-0.294257
-0.290995
-0.287534
-0.283949
-0.280312
-0.27669
-0.273129
-0.269663
-0.266171
-0.262541
-0.259444
-0.246886
-0.305132
-0.305626
-0.305304
-0.304459
-0.303126
-0.301324
-0.299089
-0.296464
-0.293502
-0.290263
-0.286818
-0.28324
-0.279604
-0.27598
-0.272416
-0.26895
-0.265504
-0.261847
-0.259399
-0.247189
-0.304162
-0.304689
-0.304411
-0.303616
-0.302339
-0.300591
-0.298406
-0.295826
-0.2929
-0.28969
-0.286264
-0.282699
-0.279068
-0.275445
-0.271883
-0.268425
-0.265029
-0.261419
-0.25931
-0.247685
-0.303385
-0.303928
-0.303681
-0.302931
-0.301703
-0.300007
-0.297873
-0.295339
-0.292453
-0.289277
-0.285877
-0.28233
-0.278712
-0.275095
-0.271541
-0.268097
-0.264747
-0.261229
-0.259289
-0.248557
-0.302794
-0.303334
-0.303111
-0.302398
-0.301216
-0.29957
-0.297486
-0.295001
-0.292161
-0.289025
-0.285659
-0.282138
-0.27854
-0.274939
-0.271399
-0.267975
-0.264671
-0.261275
-0.259417
-0.249809
-0.30238
-0.302903
-0.302694
-0.302012
-0.300872
-0.299275
-0.297244
-0.294812
-0.292022
-0.288933
-0.285609
-0.282125
-0.278557
-0.274981
-0.271464
-0.268068
-0.264814
-0.261558
-0.259737
-0.251361
-0.302135
-0.302625
-0.302425
-0.301768
-0.300667
-0.299118
-0.297141
-0.294765
-0.292033
-0.288998
-0.285726
-0.282289
-0.278763
-0.275223
-0.271741
-0.268384
-0.265188
-0.26208
-0.26028
-0.253149
-0.302046
-0.302494
-0.302294
-0.30166
-0.300595
-0.299094
-0.297173
-0.294857
-0.292188
-0.289216
-0.286006
-0.282627
-0.279154
-0.275664
-0.27223
-0.268924
-0.265797
-0.262842
-0.261069
-0.255123
-0.302102
-0.302499
-0.302296
-0.30168
-0.300649
-0.299196
-0.297332
-0.295082
-0.292481
-0.289581
-0.286442
-0.283133
-0.279727
-0.2763
-0.272928
-0.269687
-0.266643
-0.263842
-0.262113
-0.25724
-0.302292
-0.302632
-0.302422
-0.30182
-0.300823
-0.299418
-0.297614
-0.295432
-0.292906
-0.290086
-0.287028
-0.2838
-0.280474
-0.277124
-0.273828
-0.270668
-0.267719
-0.265074
-0.263408
-0.259464
-0.302604
-0.302882
-0.302663
-0.302075
-0.30111
-0.299753
-0.298011
-0.295901
-0.293456
-0.290722
-0.287755
-0.28462
-0.281385
-0.278127
-0.274922
-0.271857
-0.269016
-0.266525
-0.264938
-0.261769
-0.303024
-0.303241
-0.303011
-0.302435
-0.301502
-0.300194
-0.298515
-0.296481
-0.294122
-0.291482
-0.288614
-0.285581
-0.282451
-0.279297
-0.276196
-0.273239
-0.270518
-0.26818
-0.266685
-0.264137
-0.303542
-0.303699
-0.303458
-0.302894
-0.301993
-0.300734
-0.299121
-0.297165
-0.294897
-0.292356
-0.289595
-0.286674
-0.283658
-0.28062
-0.277637
-0.2748
-0.272207
-0.27002
-0.268623
-0.266558
-0.304146
-0.304246
-0.303995
-0.303445
-0.302575
-0.301368
-0.299821
-0.297947
-0.295772
-0.293337
-0.29069
-0.287888
-0.284996
-0.282083
-0.279228
-0.27652
-0.274063
-0.272023
-0.270728
-0.26903
-0.304826
-0.304875
-0.304617
-0.30408
-0.303244
-0.302087
-0.300609
-0.298819
-0.296742
-0.294416
-0.291888
-0.289212
-0.286451
-0.283673
-0.280953
-0.278382
-0.276064
-0.274168
-0.272977
-0.271552
-0.305571
-0.305577
-0.305314
-0.304794
-0.303992
-0.302888
-0.301479
-0.299775
-0.297798
-0.295585
-0.29318
-0.290636
-0.288012
-0.285374
-0.282796
-0.280367
-0.27819
-0.276435
-0.275347
-0.274124
-0.306372
-0.306345
-0.306082
-0.305581
-0.304815
-0.303765
-0.302426
-0.300809
-0.298934
-0.296836
-0.294558
-0.292149
-0.289667
-0.287173
-0.284741
-0.282457
-0.280423
-0.278805
-0.277818
-0.276748
-0.307222
-0.307172
-0.306914
-0.306434
-0.305707
-0.304712
-0.303446
-0.301916
-0.300145
-0.298164
-0.296014
-0.293743
-0.291404
-0.289058
-0.286774
-0.284637
-0.282744
-0.28126
-0.280373
-0.279424
-0.308114
-0.308053
-0.307805
-0.307351
-0.306664
-0.305726
-0.304533
-0.303092
-0.301425
-0.299562
-0.297542
-0.295409
-0.293216
-0.291018
-0.288883
-0.286891
-0.285139
-0.283785
-0.282996
-0.28215
-0.309043
-0.308983
-0.308751
-0.308326
-0.307683
-0.306803
-0.305684
-0.304333
-0.30277
-0.301025
-0.299134
-0.297141
-0.295092
-0.293042
-0.291055
-0.289208
-0.287594
-0.286367
-0.285674
-0.284922
-0.310004
-0.309958
-0.309749
-0.309357
-0.30876
-0.30794
-0.306895
-0.305634
-0.304175
-0.302548
-0.300786
-0.29893
-0.297025
-0.295122
-0.293281
-0.291577
-0.290098
-0.288995
-0.288396
-0.287736
-0.310996
-0.310974
-0.310794
-0.310441
-0.309893
-0.309135
-0.308165
-0.306993
-0.305639
-0.304128
-0.302494
-0.300774
-0.299011
-0.297252
-0.295555
-0.29399
-0.292642
-0.29166
-0.291152
-0.290587
-0.312013
-0.312031
-0.311886
-0.311576
-0.311079
-0.310385
-0.309491
-0.308409
-0.307157
-0.305762
-0.304254
-0.302668
-0.301044
-0.299426
-0.29787
-0.296441
-0.295221
-0.294355
-0.293937
-0.29347
-0.313056
-0.313126
-0.313023
-0.31276
-0.312319
-0.311689
-0.310872
-0.309879
-0.308729
-0.307448
-0.306063
-0.304609
-0.303121
-0.301642
-0.300222
-0.298926
-0.29783
-0.297078
-0.296745
-0.296381
-0.314125
-0.314259
-0.314205
-0.313993
-0.313609
-0.313046
-0.312307
-0.311403
-0.310354
-0.309184
-0.307922
-0.306596
-0.305242
-0.303897
-0.302611
-0.301443
-0.300468
-0.299824
-0.299575
-0.299316
-0.315222
-0.315432
-0.315431
-0.315274
-0.314952
-0.314457
-0.313795
-0.31298
-0.312031
-0.310972
-0.309829
-0.308629
-0.307405
-0.306191
-0.305035
-0.303991
-0.303133
-0.302594
-0.302426
-0.302274
-0.316347
-0.316645
-0.316703
-0.316605
-0.316347
-0.315921
-0.315337
-0.314611
-0.313761
-0.312811
-0.311785
-0.310709
-0.309611
-0.308526
-0.307495
-0.306573
-0.305828
-0.305389
-0.3053
-0.305254
-0.317505
-0.3179
-0.318022
-0.317987
-0.317794
-0.31744
-0.316935
-0.316297
-0.315546
-0.314703
-0.313792
-0.312837
-0.311864
-0.310903
-0.309996
-0.309192
-0.308556
-0.308214
-0.308202
-0.308256
-0.3187
-0.3192
-0.319391
-0.319422
-0.319297
-0.319015
-0.318589
-0.31804
-0.317386
-0.316649
-0.315852
-0.315016
-0.314165
-0.313328
-0.31254
-0.311851
-0.311322
-0.311073
-0.311138
-0.311275
-0.319937
-0.32055
-0.320812
-0.320912
-0.320856
-0.320648
-0.320303
-0.319841
-0.319285
-0.318654
-0.317969
-0.31725
-0.316519
-0.315803
-0.315134
-0.314557
-0.314133
-0.313971
-0.314098
-0.314336
-0.32122
-0.321952
-0.32229
-0.32246
-0.322476
-0.322341
-0.322077
-0.321704
-0.321245
-0.320719
-0.320145
-0.319543
-0.318932
-0.318335
-0.317783
-0.317317
-0.316994
-0.316917
-0.317104
-0.317458
-0.322557
-0.323412
-0.323827
-0.324069
-0.324157
-0.324098
-0.323916
-0.323632
-0.323269
-0.322848
-0.322386
-0.3219
-0.321407
-0.320929
-0.320493
-0.320137
-0.319914
-0.319918
-0.320164
-0.320617
-0.323953
-0.324935
-0.325428
-0.325743
-0.325905
-0.325922
-0.325822
-0.325628
-0.325363
-0.325046
-0.324696
-0.324325
-0.323951
-0.323592
-0.323272
-0.323025
-0.322902
-0.322985
-0.32329
-0.323827
-0.325416
-0.326526
-0.327098
-0.327486
-0.327722
-0.327816
-0.327798
-0.327695
-0.327528
-0.327317
-0.327079
-0.326825
-0.32657
-0.32633
-0.326126
-0.32599
-0.325965
-0.326126
-0.32649
-0.3271
-0.326954
-0.328191
-0.328841
-0.329302
-0.329613
-0.329784
-0.329849
-0.329837
-0.329769
-0.329665
-0.329539
-0.329404
-0.329269
-0.32915
-0.329063
-0.329037
-0.329112
-0.32935
-0.329775
-0.330449
-0.328573
-0.329935
-0.330662
-0.331196
-0.33158
-0.331829
-0.331979
-0.332058
-0.33209
-0.332094
-0.332083
-0.332066
-0.332054
-0.332056
-0.332089
-0.332175
-0.33235
-0.332667
-0.333152
-0.333882
-0.330281
-0.331763
-0.332566
-0.333171
-0.333628
-0.333955
-0.334189
-0.334361
-0.334495
-0.334608
-0.334713
-0.334817
-0.334929
-0.335056
-0.33521
-0.33541
-0.335686
-0.336083
-0.336629
-0.337408
-0.332084
-0.333682
-0.334557
-0.335232
-0.335761
-0.336165
-0.336484
-0.33675
-0.336986
-0.33721
-0.337432
-0.33766
-0.337898
-0.338152
-0.33843
-0.338747
-0.339127
-0.339605
-0.340215
-0.341035
-0.345864
-0.347132
-0.34883
-0.350998
-0.353784
-0.357316
-0.361734
-0.367175
-0.373754
-0.381548
-0.390566
-0.400724
-0.411811
-0.423462
-0.349515
-0.350517
-0.351868
-0.353584
-0.355808
-0.358653
-0.362256
-0.366749
-0.372257
-0.378871
-0.386626
-0.39547
-0.405233
-0.415597
-0.353323
-0.354038
-0.355039
-0.35629
-0.357933
-0.360065
-0.362817
-0.366321
-0.370704
-0.376075
-0.382494
-0.389945
-0.398299
-0.407289
-0.357292
-0.357702
-0.35835
-0.359127
-0.360176
-0.361576
-0.36345
-0.365925
-0.369137
-0.373207
-0.378224
-0.384205
-0.391071
-0.398603
-0.361424
-0.361511
-0.36181
-0.362108
-0.362555
-0.363207
-0.36418
-0.365597
-0.367597
-0.370316
-0.373869
-0.378312
-0.383613
-0.389608
-0.365714
-0.365464
-0.36542
-0.365239
-0.36508
-0.364977
-0.365034
-0.365368
-0.366122
-0.367448
-0.369484
-0.372328
-0.375993
-0.380377
-0.370153
-0.369554
-0.369177
-0.368522
-0.367759
-0.366899
-0.366032
-0.365268
-0.364751
-0.364648
-0.365123
-0.366312
-0.36828
-0.370983
-0.374728
-0.373771
-0.373074
-0.371955
-0.370597
-0.368983
-0.36719
-0.36532
-0.363517
-0.361959
-0.360837
-0.360325
-0.360542
-0.361501
-0.37942
-0.378098
-0.377098
-0.375529
-0.373589
-0.371233
-0.368521
-0.365545
-0.362447
-0.359417
-0.356672
-0.354424
-0.352843
-0.352006
-0.384205
-0.382515
-0.381232
-0.379232
-0.376729
-0.373648
-0.370031
-0.365957
-0.361566
-0.357057
-0.352672
-0.348662
-0.345248
-0.34257
-0.389053
-0.386996
-0.38545
-0.383043
-0.380002
-0.376221
-0.37172
-0.366564
-0.360891
-0.354906
-0.348875
-0.343087
-0.337815
-0.333261
-0.329505
-0.393932
-0.391511
-0.389726
-0.38694
-0.383388
-0.378937
-0.373581
-0.36737
-0.360433
-0.352985
-0.345313
-0.337744
-0.330599
-0.324144
-0.318532
-0.398806
-0.396026
-0.394025
-0.39089
-0.386863
-0.381777
-0.375602
-0.368368
-0.360197
-0.351309
-0.342012
-0.332667
-0.323648
-0.31528
-0.307786
-0.403634
-0.400503
-0.398311
-0.394862
-0.390394
-0.384716
-0.377764
-0.369548
-0.36018
-0.349885
-0.338989
-0.327888
-0.317004
-0.306722
-0.297334
-0.408374
-0.404902
-0.402542
-0.398815
-0.393947
-0.387721
-0.38004
-0.370892
-0.360375
-0.348715
-0.336257
-0.32343
-0.310703
-0.298518
-0.287235
-0.412986
-0.409182
-0.406678
-0.402708
-0.397482
-0.390758
-0.382401
-0.372375
-0.360764
-0.347791
-0.33382
-0.319309
-0.304773
-0.290709
-0.277542
-0.417429
-0.413302
-0.410673
-0.406499
-0.400957
-0.393787
-0.384811
-0.37397
-0.361326
-0.347103
-0.331676
-0.315534
-0.299236
-0.283328
-0.268302
-0.421661
-0.41722
-0.414488
-0.410145
-0.404328
-0.396765
-0.387232
-0.37564
-0.362034
-0.34663
-0.329816
-0.312108
-0.294105
-0.276404
-0.259554
-0.425651
-0.420898
-0.41808
-0.413602
-0.407553
-0.399649
-0.389621
-0.37735
-0.362856
-0.346349
-0.328225
-0.309027
-0.289389
-0.269955
-0.251331
-0.429418
-0.424297
-0.421409
-0.416829
-0.410589
-0.402396
-0.391936
-0.379058
-0.363757
-0.346231
-0.326884
-0.306282
-0.28509
-0.263997
-0.243659
-0.432998
-0.427372
-0.424434
-0.419787
-0.413398
-0.404963
-0.394134
-0.380723
-0.364699
-0.346246
-0.32577
-0.303857
-0.281203
-0.258536
-0.236558
-0.435877
-0.430197
-0.427127
-0.422443
-0.415938
-0.407309
-0.396175
-0.382306
-0.365643
-0.34636
-0.324854
-0.301736
-0.277719
-0.253576
-0.230041
-0.207735
-0.438346
-0.432728
-0.429483
-0.42479
-0.418181
-0.409398
-0.398019
-0.383766
-0.366552
-0.346539
-0.324107
-0.299898
-0.274626
-0.249113
-0.224114
-0.200299
-0.440507
-0.434879
-0.431464
-0.426779
-0.420101
-0.411205
-0.399631
-0.385065
-0.367387
-0.346752
-0.3235
-0.298322
-0.271906
-0.245141
-0.21878
-0.193547
-0.442313
-0.436642
-0.43307
-0.428405
-0.421676
-0.4127
-0.400983
-0.386168
-0.368111
-0.346961
-0.322999
-0.296992
-0.269543
-0.241658
-0.214032
-0.187487
-0.443734
-0.438027
-0.434297
-0.429655
-0.422892
-0.413864
-0.402048
-0.387054
-0.368712
-0.347112
-0.32256
-0.295878
-0.267517
-0.238661
-0.20987
-0.182136
-0.444761
-0.439036
-0.435142
-0.430523
-0.423741
-0.414684
-0.402808
-0.387694
-0.369146
-0.347217
-0.32223
-0.294874
-0.265778
-0.236117
-0.206293
-0.177503
-0.445393
-0.439669
-0.435606
-0.431008
-0.42422
-0.415151
-0.40325
-0.388071
-0.369392
-0.347235
-0.321921
-0.294073
-0.264398
-0.233889
-0.203261
-0.173529
-0.445625
-0.439927
-0.435694
-0.431114
-0.424327
-0.415261
-0.403365
-0.388171
-0.369433
-0.347145
-0.321613
-0.29341
-0.263286
-0.23214
-0.200792
-0.170076
-0.140764
-0.445456
-0.439813
-0.435415
-0.430845
-0.424063
-0.415012
-0.403148
-0.387986
-0.369258
-0.346933
-0.321291
-0.292866
-0.262416
-0.230784
-0.198856
-0.16739
-0.137183
-0.444884
-0.439329
-0.434777
-0.430208
-0.423433
-0.414408
-0.402598
-0.387511
-0.36886
-0.346588
-0.320943
-0.292424
-0.261773
-0.229795
-0.197408
-0.165318
-0.134399
-0.443903
-0.438473
-0.433789
-0.429211
-0.422444
-0.413453
-0.40172
-0.386747
-0.368235
-0.346101
-0.320558
-0.292069
-0.261342
-0.229157
-0.196425
-0.163838
-0.132319
-0.442508
-0.437241
-0.432461
-0.42786
-0.4211
-0.412155
-0.400519
-0.385698
-0.367384
-0.345469
-0.320128
-0.291785
-0.261107
-0.228848
-0.195891
-0.162937
-0.130904
-0.440689
-0.435626
-0.430797
-0.426161
-0.41941
-0.410523
-0.399006
-0.384375
-0.366314
-0.344694
-0.319651
-0.291565
-0.261055
-0.228845
-0.195785
-0.162585
-0.130135
-0.43844
-0.43361
-0.428798
-0.424115
-0.417374
-0.408562
-0.397189
-0.382784
-0.365029
-0.343774
-0.319113
-0.291384
-0.261152
-0.229107
-0.196058
-0.162722
-0.129959
-0.0983166
-0.435736
-0.43116
-0.426455
-0.421721
-0.414997
-0.406278
-0.395073
-0.380927
-0.363522
-0.342689
-0.318483
-0.291194
-0.261335
-0.229554
-0.196622
-0.163253
-0.130281
-0.0982921
-0.432527
-0.428264
-0.42379
-0.419014
-0.412319
-0.40372
-0.392714
-0.378862
-0.361852
-0.341496
-0.317813
-0.291043
-0.261645
-0.230226
-0.197511
-0.164211
-0.131127
-0.0988814
-0.428894
-0.424977
-0.42084
-0.416038
-0.409407
-0.400978
-0.390233
-0.37675
-0.360219
-0.340437
-0.317386
-0.291256
-0.262445
-0.231511
-0.199134
-0.166007
-0.132907
-0.100478
-0.424911
-0.421018
-0.417342
-0.412553
-0.406031
-0.397837
-0.38743
-0.374397
-0.358437
-0.339332
-0.317026
-0.291655
-0.263556
-0.233231
-0.201309
-0.168462
-0.13544
-0.102905
-0.418958
-0.415471
-0.412909
-0.40816
-0.401684
-0.393618
-0.383395
-0.370614
-0.35499
-0.336307
-0.314491
-0.289647
-0.262074
-0.23223
-0.200709
-0.168159
-0.135303
-0.102806
-0.406143
-0.408502
-0.408364
-0.403679
-0.397062
-0.388853
-0.378469
-0.365517
-0.349737
-0.33094
-0.309063
-0.284217
-0.256698
-0.226954
-0.195559
-0.163146
-0.130406
-0.0979962
-0.0665934
-0.395524
-0.398079
-0.398198
-0.393211
-0.386268
-0.377839
-0.367306
-0.354282
-0.33856
-0.31999
-0.298524
-0.274267
-0.247485
-0.218585
-0.188088
-0.156581
-0.124698
-0.0930701
-0.0623327
-0.386076
-0.38728
-0.386529
-0.38128
-0.374111
-0.365503
-0.354877
-0.341867
-0.326306
-0.308076
-0.28714
-0.263595
-0.237677
-0.209755
-0.180297
-0.149842
-0.118977
-0.0882977
-0.0584061
-0.376605
-0.376253
-0.374344
-0.368921
-0.361669
-0.352962
-0.342326
-0.329428
-0.314124
-0.29632
-0.275988
-0.253217
-0.228219
-0.201323
-0.172952
-0.143602
-0.113813
-0.0841445
-0.0551672
-0.366362
-0.364887
-0.361806
-0.356192
-0.348942
-0.340219
-0.329648
-0.316949
-0.301993
-0.2847
-0.26505
-0.243123
-0.219109
-0.193302
-0.166084
-0.137905
-0.109264
-0.0806826
-0.0527007
-0.355246
-0.353153
-0.349022
-0.34319
-0.336
-0.32734
-0.316905
-0.304479
-0.289946