/*--------------------------------*- C++ -*----------------------------------*\
  =========                 |
  \\      /  F ield         | OpenFOAM: The Open Source CFD Toolbox
   \\    /   O peration     | Website:  https://openfoam.org
    \\  /    A nd           | Version:  7
     \\/     M anipulation  |
\*---------------------------------------------------------------------------*/
FoamFile
{
    version     2.0;
    format      ascii;
    class       surfaceScalarField;
    location    "15";
    object      phi;
}
// * * * * * * * * * * * * * * * * * * * * * * * * * * * * * * * * * * * * * //

dimensions      [0 3 -1 0 0 0 0];

internalField   nonuniform List<scalar> 
16607
(
1.91344e-05
5.36414e-07
1.85979e-05
4.08224e-05
6.48649e-07
1.79493e-05
3.55657e-06
3.79145e-05
4.27496e-05
7.723e-07
1.7177e-05
4.09476e-06
3.45921e-05
3.57871e-05
9.07789e-07
1.62692e-05
4.67826e-06
3.08216e-05
1.24573e-05
2.8008e-05
6.71705e-06
1.05545e-06
1.52137e-05
5.30796e-06
2.65691e-05
1.3958e-05
1.93579e-05
2.8279e-05
-7.60386e-06
-5.5672e-05
1.21554e-06
1.39982e-05
5.98432e-06
2.18003e-05
1.55595e-05
9.78272e-06
3.12679e-05
-2.33122e-05
5.45094e-05
-7.89134e-05
-0.00015857
1.38821e-06
1.261e-05
6.70742e-06
1.64811e-05
1.72607e-05
-7.70577e-07
3.4424e-05
-4.04755e-05
5.96372e-05
-0.000104127
9.43659e-05
-0.000193299
-0.000309518
1.57353e-06
1.10365e-05
7.47694e-06
1.05777e-05
1.90596e-05
-1.23533e-05
3.77411e-05
-5.91569e-05
6.49919e-05
-0.000131377
0.00010228
-0.000230587
0.000150977
-0.000358215
-0.000515254
1.77148e-06
9.26499e-06
8.2921e-06
4.05706e-06
2.09531e-05
-2.50143e-05
4.12108e-05
-7.94146e-05
7.05549e-05
-0.000160722
0.000110439
-0.000270471
0.000162163
-0.000409939
0.000226712
-0.000579803
-0.00077974
1.98195e-06
7.28304e-06
9.1517e-06
-3.11268e-06
2.2937e-05
-3.87996e-05
4.48224e-05
-0.0001013
7.63041e-05
-0.000192203
0.0001188
-0.000312967
0.000173514
-0.000464652
0.000241247
-0.000647536
0.000322187
-0.00086068
-0.00110154
2.2047e-06
5.07835e-06
1.00541e-05
-1.09621e-05
2.50059e-05
-5.37514e-05
4.85633e-05
-0.000124857
8.22137e-05
-0.000225854
0.000127319
-0.000358072
0.000184954
-0.000522287
0.000255704
-0.000718287
0.000339445
-0.000944421
0.000435149
-0.00119724
-0.00147137
2.43941e-06
2.63894e-06
1.09971e-05
-1.95198e-05
2.71532e-05
-6.99075e-05
5.24183e-05
-0.000150123
8.82541e-05
-0.00026169
0.000135942
-0.000405759
0.000196398
-0.000582744
0.000269959
-0.000791848
0.000356157
-0.00103062
0.000453559
-0.00129464
0.000559732
-0.00157754
0.000671394
-0.00187134
-0.00216727
2.68563e-06
-4.66895e-08
1.19781e-05
-2.88123e-05
2.93712e-05
-8.73006e-05
5.63702e-05
-0.000177121
9.43925e-05
-0.000299712
0.000144613
-0.00045598
0.00020776
-0.000645891
0.000283886
-0.000867974
0.000372159
-0.00111889
0.000470736
-0.00139322
0.0005768
-0.00168361
0.000686796
-0.00198134
0.000796843
-0.00227732
-0.00256324
2.9428e-06
-2.98949e-06
1.29941e-05
-3.88635e-05
3.16511e-05
-0.000105958
6.03997e-05
-0.00020587
0.000100593
-0.000339905
0.000153271
-0.000508658
0.000218946
-0.000711565
0.000297357
-0.000946386
0.000387291
-0.00120883
0.000486502
-0.00149243
0.000591831
-0.00178894
0.000699522
-0.00208903
0.000805697
-0.00238349
0.00090688
-0.00266442
-0.00292614
3.21025e-06
-6.19974e-06
1.40413e-05
-4.96946e-05
3.39829e-05
-0.000125899
6.44855e-05
-0.000236373
0.000106815
-0.000382234
0.000161854
-0.000563697
0.000229862
-0.000779573
0.000310245
-0.00102677
0.000401399
-0.00129998
0.000500697
-0.00159173
0.000604689
-0.00189293
0.000709494
-0.00219383
0.000811326
-0.00248533
0.000906998
-0.00276009
0.000994303
-0.00301345
0.00107218
-0.00324364
-0.00345158
3.48714e-06
-9.68688e-06
1.51156e-05
-6.1323e-05
3.63552e-05
-0.000147139
6.8604e-05
-0.000268621
0.000113019
-0.000426649
0.000170294
-0.000620972
0.000240412
-0.000849691
0.000322427
-0.00110878
0.000414344
-0.0013919
0.000513186
-0.00169057
0.00061527
-0.00199501
0.000716676
-0.00229524
0.000813787
-0.00258244
0.000903763
-0.00285007
0.000984848
-0.00309453
0.00105644
-0.00331523
0.00111894
-0.00351408
-0.00369488
3.77252e-06
-1.34594e-05
1.62123e-05
-7.37628e-05
3.8756e-05
-0.000169683
7.27305e-05
-0.000302596
0.00011916
-0.000473079
0.000178523
-0.000680335
0.000250503
-0.000921671
0.000333785
-0.00119207
0.000425999
-0.00148411
0.000523855
-0.00178843
0.000623509
-0.00209466
0.000721076
-0.00239281
0.000813179
-0.00267454
0.000897369
-0.00293426
0.000972342
-0.0031695
0.00103792
-0.0033808
0.00109485
-0.00357101
0.00114448
-0.0037445
0.00118845
-0.00390598
-0.0040609
4.06531e-06
-1.75247e-05
1.73263e-05
-8.70238e-05
4.11717e-05
-0.000193528
7.68382e-05
-0.000338262
0.000125192
-0.000521433
0.000186473
-0.000741616
0.000260041
-0.000995239
0.000344212
-0.00127624
0.000436256
-0.00157615
0.000532622
-0.00188479
0.000629372
-0.00219142
0.000722737
-0.00248617
0.000809636
-0.00276144
0.000888034
-0.00301266
0.000957069
-0.00323854
0.00101695
-0.00344069
0.0010687
-0.00362276
0.0011138
-0.00378961
0.00115392
-0.00394611
-0.0040975
0.00119052
4.36428e-06
-2.1889e-05
1.8452e-05
-0.000101112
4.35883e-05
-0.000218664
8.08994e-05
-0.000375574
0.000131071
-0.000571604
0.000194076
-0.000804621
0.00026894
-0.0010701
0.000353608
-0.00136091
0.000445023
-0.00166757
0.000539427
-0.0019792
0.000632862
-0.00228485
0.000721738
-0.00257505
0.000803317
-0.00284302
0.000875988
-0.00308533
0.000939311
-0.00330186
0.00099383
-0.00349521
0.00104078
-0.00366971
0.00108174
-0.00383057
0.00111835
-0.00398272
-0.00413112
0.00115198
4.66806e-06
-2.6557e-05
1.95833e-05
-0.000116027
4.59908e-05
-0.000245072
8.48855e-05
-0.000414468
0.000136748
-0.000623466
0.000201266
-0.00086914
0.000277117
-0.00114595
0.000361888
-0.00144568
0.00045223
-0.00175791
0.00054424
-0.00207121
0.000634009
-0.00237462
0.000718185
-0.00265922
0.000794402
-0.00291923
0.000861473
-0.0031524
0.000919342
-0.00335973
0.000968843
-0.00354471
0.00101137
-0.00371224
0.00104855
-0.00386774
0.00108195
-0.00401611
-0.00416201
0.00111283
4.97518e-06
-3.15322e-05
2.07137e-05
-0.000131765
4.83634e-05
-0.000272722
8.87671e-05
-0.000454872
0.000142178
-0.000676877
0.00020798
-0.000934942
0.000284497
-0.00122247
0.000368979
-0.00153016
0.000457828
-0.00184676
0.000547058
-0.00216044
0.000632873
-0.00246043
0.000712207
-0.00273856
0.000783085
-0.00299011
0.000844729
-0.00321404
0.000897427
-0.00341243
0.00094225
-0.00358953
0.000980706
-0.0037507
0.00101441
-0.00390145
0.00104486
-0.00404656
-0.00419034
0.0010732
5.28403e-06
-3.68163e-05
2.18363e-05
-0.000148318
5.06901e-05
-0.000301575
9.25149e-05
-0.000496697
0.000147315
-0.000731677
0.000214157
-0.00100178
0.000291016
-0.00129933
0.000374825
-0.00161397
0.000461789
-0.00193373
0.0005479
-0.00224655
0.000629535
-0.00254207
0.000703949
-0.00281297
0.000769566
-0.00305573
0.00082599
-0.00327047
0.000873813
-0.00346025
0.000914291
-0.00363001
0.000948997
-0.0037854
0.000979512
-0.00393196
0.00100723
-0.00407429
-0.0042163
0.00103319
5.59289e-06
-4.24091e-05
2.29442e-05
-0.000165669
5.29545e-05
-0.000331586
9.60996e-05
-0.000539842
0.000152117
-0.000787694
0.000219745
-0.00106941
0.000296616
-0.0013762
0.000379382
-0.00169673
0.000464102
-0.00201844
0.000546807
-0.00232926
0.000624095
-0.00261936
0.000693571
-0.00288245
0.000754048
-0.00311621
0.000805485
-0.0033219
0.000848731
-0.0035035
0.00088518
-0.00366646
0.00091643
-0.00381665
0.000944004
-0.00395953
0.000969189
-0.00409947
-0.00424001
0.000992896
5.89997e-06
-4.83091e-05
2.403e-05
-0.000183799
5.514e-05
-0.000362696
9.94927e-05
-0.000584195
0.000156542
-0.000844743
0.000224693
-0.00113756
0.000301251
-0.00145276
0.000382624
-0.00177811
0.000464777
-0.0021006
0.00054384
-0.00240832
0.00061667
-0.00269219
0.000681237
-0.00294702
0.000736731
-0.0031717
0.000783428
-0.0033686
0.000822391
-0.00354246
0.000855107
-0.00369917
0.000883167
-0.00384471
0.000908013
-0.00398438
0.00093082
-0.00412228
-0.00426157
0.000952384
6.2034e-06
-5.45125e-05
2.50863e-05
-0.000202682
5.72304e-05
-0.00039484
0.000102667
-0.000629631
0.000160552
-0.000902628
0.000228959
-0.00120597
0.000304887
-0.00152868
0.000384538
-0.00185776
0.000463842
-0.0021799
0.000539074
-0.00248355
0.000607387
-0.0027605
0.000667117
-0.00300675
0.00071781
-0.00322239
0.000760023
-0.00341081
0.000794985
-0.00357742
0.000824241
-0.00372843
0.000849345
-0.00386982
0.000871648
-0.00400668
0.000892207
-0.00414284
-0.00428108
0.000911714
6.50123e-06
-6.10137e-05
2.61058e-05
-0.000222286
5.92096e-05
-0.000427944
0.000105596
-0.000676017
0.000164114
-0.000961146
0.000232509
-0.00127437
0.000307499
-0.00160367
0.000385127
-0.00193539
0.000461339
-0.00225611
0.0005326
-0.00255481
0.00059638
-0.00282428
0.000651379
-0.00306174
0.000697472
-0.00326849
0.000735455
-0.0034488
0.000766685
-0.00360865
0.000792729
-0.00375447
0.000815083
-0.00389217
0.000834999
-0.0040266
0.000853419
-0.00416126
-0.00429859
0.000870935
6.79152e-06
-6.78053e-05
2.7081e-05
-0.000242576
6.10622e-05
-0.000461925
0.000108255
-0.00072321
0.000167196
-0.00102009
0.000235314
-0.00134248
0.000309074
-0.00167743
0.000384407
-0.00201072
0.000457323
-0.00232903
0.000524517
-0.00262201
0.000583788
-0.00288355
0.000634188
-0.00311214
0.000675892
-0.00331019
0.000709896
-0.0034828
0.000737645
-0.0036364
0.0007607
-0.00377753
0.000780484
-0.00391196
0.000798144
-0.00404426
0.000814512
-0.00417763
-0.00431417
0.000830091
7.07228e-06
-7.48775e-05
2.80047e-05
-0.000263508
6.27734e-05
-0.000496693
0.000110623
-0.000771059
0.000169775
-0.00107924
0.000237355
-0.00141006
0.000309609
-0.00174969
0.000382405
-0.00208352
0.000451861
-0.00239849
0.00051493
-0.00268507
0.00056975
-0.00293837
0.000615705
-0.0031581
0.000653236
-0.00334772
0.000683501
-0.00351306
0.000708001
-0.0036609
0.000728265
-0.00379779
0.000745634
-0.00392933
0.000761147
-0.00405977
0.000775535
-0.00419201
-0.00432785
0.000789216
7.34155e-06
-8.22191e-05
2.88699e-05
-0.000285037
6.43296e-05
-0.000532153
0.00011268
-0.00081941
0.000171829
-0.00113839
0.000238617
-0.00147685
0.000309112
-0.00182018
0.000379159
-0.00215356
0.000445028
-0.00246436
0.000503953
-0.002744
0.000554405
-0.00298882
0.000596081
-0.00319978
0.000629655
-0.00338129
0.000656409
-0.00353982
0.000677872
-0.00368237
0.000695522
-0.00381544
0.000710607
-0.00394441
0.000724064
-0.00407323
0.000736527
-0.00420448
-0.00433967
0.000748343
7.5974e-06
-8.98165e-05
2.96701e-05
-0.000307109
6.5718e-05
-0.000568201
0.000114408
-0.0008681
0.000173341
-0.00119732
0.000239096
-0.00154261
0.000307599
-0.00188869
0.000374717
-0.00222068
0.000436907
-0.00252655
0.000491697
-0.00279879
0.000537887
-0.00303501
0.000575462
-0.00323735
0.00060529
-0.00341112
0.000628748
-0.00356328
0.000647363
-0.00370098
0.000662552
-0.00383063
0.000675466
-0.00395732
0.000686941
-0.0040847
0.000697525
-0.00421506
-0.00434964
0.000707498
7.83795e-06
-9.76544e-05
3.03989e-05
-0.00032967
6.69275e-05
-0.00060473
0.000115795
-0.000916967
0.000174301
-0.00125583
0.000238794
-0.0016071
0.000305094
-0.00195499
0.000369133
-0.00228472
0.000427584
-0.002585
0.000478277
-0.00284948
0.000520328
-0.00307706
0.00055398
-0.003271
0.000580267
-0.00343741
0.000600627
-0.00358364
0.000616566
-0.00371692
0.000629426
-0.00384349
0.000640263
-0.00396816
0.000649817
-0.00409426
0.000658557
-0.0042238
-0.00435779
0.000666707
8.06141e-06
-0.000105716
3.10506e-05
-0.000352659
6.79481e-05
-0.000641627
0.000116827
-0.000965846
0.000174704
-0.0013137
0.000237718
-0.00167011
0.000301629
-0.0020189
0.00036247
-0.00234556
0.000417149
-0.00263968
0.000463804
-0.00289614
0.000501851
-0.00311511
0.000531761
-0.00330091
0.000554701
-0.00346035
0.000572145
-0.00360108
0.000585561
-0.00373034
0.000596207
-0.00385414
0.000605045
-0.003977
0.000612727
-0.00410194
0.00061965
-0.00423072
-0.00436413
0.000625991
8.26608e-06
-0.000113982
3.16199e-05
-0.000376013
6.87713e-05
-0.000678779
0.000117498
-0.00101457
0.000174547
-0.00137075
0.000235884
-0.00173145
0.000297243
-0.00208026
0.000354791
-0.00240311
0.000405693
-0.00269058
0.00044839
-0.00293883
0.000482574
-0.0031493
0.00050892
-0.00332726
0.000528697
-0.00348012
0.00054339
-0.00361577
0.000554416
-0.00374136
0.000562947
-0.00386267
0.000569851
-0.0039839
0.0005757
-0.00410779
0.000580829
-0.00423585
-0.00436867
0.00058537
8.45128e-06
-0.000122433
3.21042e-05
-0.000399666
6.93931e-05
-0.000716068
0.000117806
-0.00106299
0.00017384
-0.00142679
0.000233318
-0.00179093
0.000291985
-0.00213892
0.000346174
-0.0024573
0.000393315
-0.00273772
0.000432145
-0.00297766
0.000462615
-0.00317977
0.00048557
-0.00335021
0.000502353
-0.00349691
0.000514446
-0.00362787
0.000523199
-0.00375011
0.000529698
-0.00386917
0.000534722
-0.00398893
0.00053877
-0.00411184
0.000542121
-0.0042392
-0.00437142
0.000544871
8.61387e-06
-0.000131047
3.24958e-05
-0.000423548
6.98028e-05
-0.000753375
0.000117741
-0.00111092
0.000172579
-0.00148163
0.000230032
-0.00184838
0.00028589
-0.00219478
0.000336675
-0.00250808
0.00038009
-0.00278113
0.000415158
-0.00301273
0.000442061
-0.00320667
0.000461789
-0.00336994
0.000475739
-0.00351086
0.000485364
-0.00363749
0.000491947
-0.0037567
0.000496484
-0.0038737
0.000499673
-0.00399212
0.000501946
-0.00411411
0.000503532
-0.00424079
-0.00437239
0.000504497
8.75339e-06
-0.0001398
3.27931e-05
-0.000447588
6.99995e-05
-0.000790581
0.000117307
-0.00115823
0.000170782
-0.0015351
0.000226062
-0.00190366
0.000279016
-0.00224773
0.000326373
-0.00255544
0.000366113
-0.00282087
0.000397529
-0.00304415
0.000421013
-0.00323015
0.000437673
-0.0033866
0.000448934
-0.00352212
0.000456211
-0.00364477
0.000460712
-0.0037612
0.000463348
-0.00387634
0.000464738
-0.00399351
0.000465255
-0.00411463
0.000465087
-0.00424062
-0.00437157
0.000464273
8.86871e-06
-0.000148669
3.29936e-05
-0.000471713
6.9981e-05
-0.000827568
0.000116508
-0.00120476
0.000168463
-0.00158705
0.00022144
-0.00195664
0.000271414
-0.00229771
0.000315339
-0.00259936
0.000351468
-0.002857
0.00037935
-0.00307203
0.000399559
-0.00325036
0.000413298
-0.00340034
0.000422002
-0.00353082
0.000427039
-0.00364981
0.000429534
-0.00376369
0.000430318
-0.00387712
0.000429939
-0.00399313
0.000428715
-0.0041134
0.000426802
-0.00423871
-0.00436899
0.000424214
8.95883e-06
-0.000157628
3.30953e-05
-0.000495849
6.97469e-05
-0.00086422
0.00011535
-0.00125036
0.00016564
-0.00163734
0.000216201
-0.0020072
0.000263139
-0.00234465
0.000303644
-0.00263987
0.000336237
-0.00288959
0.000360703
-0.0030965
0.000377778
-0.00326744
0.000388735
-0.0034113
0.000395003
-0.00353709
0.000397891
-0.00365269
0.000398447
-0.00376425
0.000397421
-0.0038761
0.000395296
-0.003991
0.000392346
-0.00411045
0.000388693
-0.00423506
-0.00436463
0.000384337
9.02294e-06
-0.000166651
3.3097e-05
-0.000519923
6.92982e-05
-0.000900421
0.00011384
-0.0012949
0.000162334
-0.00168584
0.000210382
-0.00205525
0.000254246
-0.00238851
0.000291356
-0.00267698
0.000320496
-0.00291873
0.000341666
-0.00311767
0.000355742
-0.00328151
0.000364045
-0.0034196
0.000367985
-0.00354103
0.000368807
-0.00365352
0.00036748
-0.00376292
0.000364679
-0.0038733
0.000360828
-0.00398715
0.000356161
-0.00410579
0.000350776
-0.00422967
-0.00435851
0.000344655
9.06042e-06
-0.000175711
3.2998e-05
-0.000543861
6.86374e-05
-0.000936061
0.000111988
-0.00133825
0.000158568
-0.00173242
0.000204023
-0.0021007
0.00024479
-0.00242928
0.000278543
-0.00271073
0.000304317
-0.00294451
0.000322312
-0.00313566
0.000333515
-0.00329272
0.000339284
-0.00342537
0.000340993
-0.00354274
0.000339822
-0.00365235
0.00033666
-0.00375976
0.000332112
-0.00386875
0.000326552
-0.00398159
0.000320177
-0.00409941
0.000313063
-0.00422256
-0.00435063
0.000305184
9.07082e-06
-0.000184782
3.27985e-05
-0.000567589
6.77682e-05
-0.00097103
0.000109807
-0.00138029
0.000154366
-0.00177698
0.000197164
-0.0021435
0.000234823
-0.00246694
0.000265268
-0.00274118
0.00028777
-0.00296701
0.000302705
-0.0031506
0.000311158
-0.00330117
0.0003145
-0.00342871
0.000314067
-0.00354231
0.000310966
-0.00364924
0.00030601
-0.0037548
0.00029974
-0.00386248
0.000292482
-0.00397433
0.000284406
-0.00409134
0.00027557
-0.00421372
-0.004341
0.000265937
9.05385e-06
-0.000193836
3.24993e-05
-0.000591034
6.66955e-05
-0.00100523
0.000107311
-0.00142091
0.000149755
-0.00181942
0.000189843
-0.00218359
0.0002244
-0.0025015
0.000251593
-0.00276837
0.000270916
-0.00298633
0.000282906
-0.00316259
0.000288723
-0.00330699
0.000289739
-0.00342973
0.000287241
-0.00353981
0.000282265
-0.00364427
0.00027555
-0.00374809
0.000267579
-0.00385451
0.000258635
-0.00396539
0.000248863
-0.00408156
0.000238308
-0.00420317
-0.00432962
0.000226928
9.00941e-06
-0.000202845
3.21015e-05
-0.000614126
6.54254e-05
-0.00103855
0.000104513
-0.00146
0.000144762
-0.00185967
0.000182103
-0.00222093
0.000213571
-0.00253296
0.000237574
-0.00279237
0.000253815
-0.00300257
0.000262971
-0.00317175
0.000266257
-0.00331027
0.000265038
-0.00342851
0.000260545
-0.00353532
0.000253742
-0.00363746
0.000245299
-0.00373965
0.000235643
-0.00384485
0.000225022
-0.00395477
0.000213559
-0.0040701
0.00020129
-0.0041909
-0.0043165
0.00018817
8.93756e-06
-0.000211783
3.16072e-05
-0.000636796
6.39649e-05
-0.00107091
0.000101431
-0.00149746
0.000139414
-0.00189765
0.000173982
-0.0022555
0.000202386
-0.00256137
0.000223266
-0.00281325
0.000236521
-0.00301583
0.000242947
-0.00317817
0.000243803
-0.00331113
0.000240432
-0.00342514
0.000234006
-0.00352889
0.000225418
-0.00362888
0.000215273
-0.0037295
0.000203948
-0.00383353
0.000191657
-0.00394248
0.000178507
-0.00405695
0.000164529
-0.00417692
-0.00430164
0.000149673
8.83852e-06
-0.000220622
3.10188e-05
-0.000658976
6.23218e-05
-0.00110221
9.80807e-05
-0.00153322
0.00013374
-0.00193331
0.00016552
-0.00228728
0.000190891
-0.00258674
0.00020872
-0.00283108
0.000219084
-0.00302619
0.000222881
-0.00318197
0.000221399
-0.00330965
0.000215951
-0.00341969
0.000207648
-0.00352059
0.000197312
-0.00361854
0.000185487
-0.00371768
0.000172505
-0.00382054
0.000158551
-0.00392852
0.000143718
-0.00404212
0.000128036
-0.00416124
-0.00428505
0.000111444
8.71266e-06
-0.000229334
3.03389e-05
-0.000680602
6.05047e-05
-0.00113238
9.44796e-05
-0.0015672
0.000127768
-0.0019666
0.000156754
-0.00231626
0.000179132
-0.00260912
0.000193984
-0.00284593
0.000201549
-0.00303376
0.000202813
-0.00318323
0.000199079
-0.00330591
0.000191622
-0.00341223
0.000181491
-0.00351046
0.00016944
-0.00360649
0.000155956
-0.00370419
0.000141328
-0.00380592
0.000125715
-0.00391291
0.000109202
-0.00402561
9.18214e-05
-0.00414386
-0.00426673
7.35004e-05
8.56047e-06
-0.000237895
2.9571e-05
-0.000701613
5.85226e-05
-0.00116133
9.06458e-05
-0.00159932
0.000121524
-0.00199748
0.000147721
-0.00234246
0.000167151
-0.00262855
0.000179101
-0.00285788
0.000183958
-0.00303861
0.00018278
-0.00318205
0.000176872
-0.0033
0.000167468
-0.00340283
0.000155554
-0.00349854
0.000141817
-0.00359275
0.000126692
-0.00368907
0.000110428
-0.00378965
9.31639e-05
-0.00389565
7.49721e-05
-0.00400741
5.58766e-05
-0.00412476
-0.00424672
3.58705e-05
8.38261e-06
-0.000246277
2.87185e-05
-0.000721949
5.63852e-05
-0.001189
8.65972e-05
-0.00162953
0.000115038
-0.00202592
0.000138456
-0.00236588
0.000154988
-0.00264508
0.000164113
-0.00286701
0.000166349
-0.00304085
0.000162813
-0.00317852
0.000154805
-0.003292
0.000143511
-0.00339153
0.000129853
-0.00348488
0.000114458
-0.00357736
9.77077e-05
-0.00367232
7.98195e-05
-0.00377176
6.09135e-05
-0.00387674
4.10578e-05
-0.00398756
2.01995e-05
-0.0041039
-0.00422436
-2.16057e-06
8.1798e-06
-0.000254457
2.77854e-05
-0.000741554
5.41023e-05
-0.00121531
8.23518e-05
-0.00165778
0.000108334
-0.0020519
0.000128994
-0.00238654
0.00014268
-0.00265876
0.000149056
-0.00287339
0.000148757
-0.00304055
0.000142944
-0.0031727
0.000132902
-0.00328195
0.00011977
-0.0033784
0.000104404
-0.00346952
8.7373e-05
-0.00356033
6.90134e-05
-0.00365396
4.9511e-05
-0.00375226
2.89715e-05
-0.0038562
7.45612e-06
-0.00396604
-1.50194e-05
-0.00408143
-0.00420097
-3.84081e-05
7.9529e-06
-0.00026241
2.67759e-05
-0.000760377
5.1684e-05
-0.00124022
7.79277e-05
-0.00168403
0.00010144
-0.00207542
0.000119365
-0.00240446
0.000130262
-0.00266966
0.000133964
-0.00287709
0.000131211
-0.0030378
0.000123197
-0.00316469
0.000111185
-0.00326994
9.62601e-05
-0.00336348
7.92192e-05
-0.00345248
6.05745e-05
-0.00354168
4.06197e-05
-0.003634
1.95123e-05
-0.00373115
-2.65694e-06
-0.00383403
-2.58239e-05
-0.00394288
-4.99752e-05
-0.00405728
-0.00417588
-7.50666e-05
7.70285e-06
-0.000270113
2.56941e-05
-0.000778369
4.91406e-05
-0.00126367
7.33425e-05
-0.00170823
9.438e-05
-0.00209645
0.0001096
-0.00241968
0.000117766
-0.00267783
0.000118871
-0.00287819
0.000113742
-0.00303267
0.000103596
-0.00315454
8.96706e-05
-0.00325602
7.29966e-05
-0.0033468
5.43105e-05
-0.00343379
3.40723e-05
-0.00352144
1.25359e-05
-0.00361247
-1.01664e-05
-0.00370845
-3.39556e-05
-0.00381024
-5.87721e-05
-0.00391806
-8.45819e-05
-0.00403147
-0.00414907
-0.000111393
7.43067e-06
-0.000277543
2.45447e-05
-0.000795483
4.64823e-05
-0.0012856
6.86136e-05
-0.00173036
8.7178e-05
-0.00211502
9.97278e-05
-0.00243223
0.000105223
-0.00268332
0.000103803
-0.00287677
9.63721e-05
-0.00302524
8.41616e-05
-0.00314233
6.83764e-05
-0.00324023
4.99922e-05
-0.00332842
2.96885e-05
-0.00341349
7.87567e-06
-0.00349963
-1.52284e-05
-0.00358936
-3.95162e-05
-0.00368416
-6.49205e-05
-0.00378484
-9.13795e-05
-0.0038916
-0.00011885
-0.004004
-0.00412057
-0.000147355
7.13742e-06
-0.000284681
2.33323e-05
-0.000811677
4.37195e-05
-0.00130599
6.37579e-05
-0.0017504
7.98569e-05
-0.00213112
8.97745e-05
-0.00244215
9.26598e-05
-0.00268621
8.87864e-05
-0.0028729
7.91258e-05
-0.00301558
6.49128e-05
-0.00312812
4.73167e-05
-0.00322264
2.72586e-05
-0.00330836
5.36259e-06
-0.00339159
-1.80061e-05
-0.00347626
-4.26647e-05
-0.0035647
-6.85278e-05
-0.0036583
-9.55397e-05
-0.00375783
-0.000123636
-0.0038635
-0.000152765
-0.00397487
-0.00409038
-0.000182947
6.82425e-06
-0.000291505
2.20614e-05
-0.000826915
4.08622e-05
-0.00132479
5.87917e-05
-0.00176833
7.24383e-05
-0.00214476
7.97651e-05
-0.00244948
8.01021e-05
-0.00268654
7.38458e-05
-0.00286664
6.20229e-05
-0.00300375
4.58658e-05
-0.00311196
2.65043e-05
-0.00320327
4.8058e-06
-0.00328666
-1.8658e-05
-0.00336813
-4.35654e-05
-0.00345136
-6.97646e-05
-0.00353851
-9.7192e-05
-0.00363087
-0.000125803
-0.00372921
-0.000155532
-0.00383378
-0.000186314
-0.00394408
-0.00405854
-0.00021816
6.49234e-06
-0.000297997
2.07367e-05
-0.000841159
3.79205e-05
-0.00134198
5.37308e-05
-0.00178414
6.49428e-05
-0.00215597
6.97228e-05
-0.00245426
6.75732e-05
-0.00268439
5.90021e-05
-0.00285807
4.50815e-05
-0.00298983
2.70349e-05
-0.00309392
5.95077e-06
-0.00318219
-1.73567e-05
-0.00326335
-4.23658e-05
-0.00334312
-6.87944e-05
-0.00342493
-9.652e-05
-0.00351078
-0.0001255
-0.00360189
-0.000155701
-0.00369901
-0.000187056
-0.00380242
-0.000219487
-0.00391165
-0.00402504
-0.000252984
6.14288e-06
-0.00030414
1.93631e-05
-0.000854379
3.49041e-05
-0.00135752
4.85903e-05
-0.00179782
5.73898e-05
-0.00216477
5.9669e-05
-0.00245654
5.50944e-05
-0.00267982
4.42745e-05
-0.00284725
2.83177e-05
-0.00297388
8.43317e-06
-0.00307403
-1.43339e-05
-0.00315942
-3.92211e-05
-0.00323847
-6.57537e-05
-0.00331659
-9.36862e-05
-0.00339699
-0.000122923
-0.00348154
-0.000153442
-0.00357137
-0.000185223
-0.00366723
-0.000218197
-0.00376945
-0.000252271
-0.00387758
-0.0039899
-0.00028741
5.77712e-06
-0.000309917
1.7945e-05
-0.000866547
3.18224e-05
-0.00137139
4.33847e-05
-0.00180939
4.97974e-05
-0.00217119
4.96237e-05
-0.00245636
4.26851e-05
-0.00267288
2.96803e-05
-0.00283425
1.17459e-05
-0.00295594
-9.92811e-06
-0.00305236
-3.43408e-05
-0.00313501
-6.07801e-05
-0.00321203
-8.88152e-05
-0.00328855
-0.000118234
-0.00336758
-0.000148967
-0.00345081
-0.000181011
-0.00353933
-0.000214359
-0.00363389
-0.000248945
-0.00373486
-0.000284657
-0.00384187
-0.00395313
-0.000321429
5.3963e-06
-0.000315314
1.6487e-05
-0.000877638
2.86847e-05
-0.00138359
3.81277e-05
-0.00181883
4.21826e-05
-0.00217524
3.96051e-05
-0.00245379
3.03631e-05
-0.00266364
1.52351e-05
-0.00281912
-4.62105e-06
-0.00293609
-2.80389e-05
-0.00302894
-5.40622e-05
-0.00310899
-8.20273e-05
-0.00318406
-0.000111544
-0.00325903
-0.000142432
-0.00333669
-0.000174645
-0.0034186
-0.000208197
-0.00350578
-0.000243099
-0.00359898
-0.000279287
-0.00369867
-0.000316632
-0.00380452
-0.00391473
-0.00035503
5.00168e-06
-0.000320315
1.49938e-05
-0.00088763
2.54999e-05
-0.0013941
3.28322e-05
-0.00182616
3.45613e-05
-0.00217697
2.96304e-05
-0.00244885
1.81443e-05
-0.00265215
9.54935e-07
-0.00280193
-2.07716e-05
-0.00291436
-4.58903e-05
-0.00300382
-7.3491e-05
-0.00308139
-0.000102957
-0.0031546
-0.000133936
-0.00322805
-0.000166275
-0.00330435
-0.000199949
-0.00338492
-0.000234993
-0.00347073
-0.000271433
-0.00356254
-0.000309214
-0.00366089
-0.000348187
-0.00376555
-0.00387472
-0.000388203
4.59454e-06
-0.00032491
1.34697e-05
-0.000896505
2.22765e-05
-0.0014029
2.75109e-05
-0.00183139
2.69484e-05
-0.00217641
1.97144e-05
-0.00244162
6.04342e-06
-0.00263848
-1.31534e-05
-0.00278273
-3.66964e-05
-0.00289082
-6.34745e-05
-0.00297704
-9.26212e-05
-0.00305224
-0.000123563
-0.00312365
-0.000155985
-0.00319563
-0.000189758
-0.00327057
-0.000224875
-0.00334981
-0.000261391
-0.00343422
-0.000299351
-0.00352458
-0.000338712
-0.00362153
-0.00037931
-0.00372495
-0.00383309
-0.000420939
4.17618e-06
-0.000329086
1.19191e-05
-0.000904248
1.90226e-05
-0.00141001
2.21754e-05
-0.00183455
1.9359e-05
-0.00217359
9.86862e-06
-0.00243213
-5.92562e-06
-0.00262269
-2.70726e-05
-0.00276159
-5.23858e-05
-0.0028655
-8.07847e-05
-0.00294865
-0.000111447
-0.00302158
-0.000143843
-0.00309126
-0.000177687
-0.00316179
-0.000212875
-0.00323539
-0.000249417
-0.00331327
-0.000287383
-0.00339625
-0.000326843
-0.00348512
-0.000367769
-0.0035806
-0.000409987
-0.00368273
-0.00378985
-0.000453228
3.74793e-06
-0.000332834
1.0346e-05
-0.000910846
1.57458e-05
-0.00141541
1.6836e-05
-0.00183564
1.18079e-05
-0.00216856
1.56931e-07
-0.00242048
-1.77482e-05
-0.00260478
-4.07961e-05
-0.00273854
-6.78327e-05
-0.00283847
-9.78148e-05
-0.00291866
-0.000129964
-0.00298943
-0.00016379
-0.00305743
-0.000199039
-0.00312654
-0.000235624
-0.0031988
-0.00027357
-0.00327532
-0.000312964
-0.00335686
-0.000353899
-0.00344419
-0.000396374
-0.00353813
-0.000440208
-0.0036389
-0.003745
-0.00048506
3.31126e-06
-0.000336145
8.75467e-06
-0.000916289
1.24534e-05
-0.00141911
1.1503e-05
-0.00183469
4.29666e-06
-0.00216136
-9.54495e-06
-0.00240664
-2.94261e-05
-0.0025849
-5.43144e-05
-0.00271365
-8.30297e-05
-0.00280975
-0.000114559
-0.00288713
-0.000148168
-0.00295582
-0.000183403
-0.0030222
-0.000220037
-0.00308991
-0.000258001
-0.00316084
-0.00029733
-0.00323599
-0.000338128
-0.00331606
-0.000380512
-0.00340181
-0.000424512
-0.00349413
-0.000469958
-0.00359345
2.86738e-06
-0.000339013
7.14906e-06
-0.000920571
9.15328e-06
-0.00142111
6.1856e-06
-0.00183172
-3.15497e-06
-0.00215202
-1.90893e-05
-0.0023907
-4.09384e-05
-0.00256305
-6.76195e-05
-0.00268697
-9.79707e-05
-0.0027794
-0.000131014
-0.00285409
-0.000166055
-0.00292078
-0.000202677
-0.00298558
-0.000240677
-0.00305191
-0.000280002
-0.00312151
-0.000320695
-0.0031953
-0.000362872
-0.00327388
-0.000406673
-0.003358
-0.000452173
-0.00344863
2.41735e-06
-0.00034143
5.53275e-06
-0.000923686
5.85253e-06
-0.00142143
9.08154e-07
-0.00182678
-1.05418e-05
-0.00214057
-2.85176e-05
-0.00237273
-5.2278e-05
-0.00253929
-8.07041e-05
-0.00265854
-0.00011265
-0.00274746
-0.000147174
-0.00281957
-0.000183621
-0.00288433
-0.000221609
-0.00294759
-0.000260957
-0.00301256
-0.000301625
-0.00308084
-0.000343662
-0.00315326
-0.000387191
-0.00323035
-0.000432378
-0.00331282
1.96244e-06
-0.000343393
3.9096e-06
-0.000925634
2.55429e-06
-0.00142008
-4.36424e-06
-0.00181986
-1.78512e-05
-0.00212708
-3.78191e-05
-0.00235276
-6.34378e-05
-0.00251367
-9.3562e-05
-0.00262842
-0.000127063
-0.00271395
-0.000163035
-0.00278359
-0.000200863
-0.0028465
-0.000240196
-0.00290826
-0.000280875
-0.00297188
-0.000322868
-0.00303885
-0.000366229
-0.0031099
-0.000411086
-0.0031855
1.50354e-06
-0.000344896
2.28311e-06
-0.000926413
-7.2546e-07
-0.00141707
-9.58151e-06
-0.001811
-2.50749e-05
-0.00211159
-4.69852e-05
-0.00233085
-7.44111e-05
-0.00248625
-0.000106188
-0.00259664
-0.000141205
-0.00267894
-0.000178595
-0.0027462
-0.000217779
-0.00280732
-0.000258436
-0.0028676
-0.000300427
-0.00292989
-0.000343729
-0.00299555
-0.000388397
-0.00306523
-0.00313934
1.04088e-06
-0.000345937
6.53722e-07
-0.000926026
-4.0076e-06
-0.00141241
-1.47516e-05
-0.00180026
-3.22055e-05
-0.00209413
-5.60084e-05
-0.00230705
-8.51916e-05
-0.00245706
-0.000118576
-0.00256326
-0.000155073
-0.00264244
-0.000193849
-0.00270743
-0.000234365
-0.0027668
-0.000276326
-0.00282564
-0.000319611
-0.0028866
-0.000364205
-0.00295095
-0.000410163
-0.00301927
5.69726e-07
-0.000346507
-9.7485e-07
-0.000924481
-7.25939e-06
-0.00140612
-1.98666e-05
-0.00178765
-3.92361e-05
-0.00207476
-6.48819e-05
-0.0022814
-9.57737e-05
-0.00242617
-0.000130722
-0.00252831
-0.000168662
-0.0026045
-0.000208796
-0.00266729
-0.000250618
-0.00272498
-0.000293862
-0.0027824
-0.000338423
-0.00284204
-0.000384295
-0.00290508
6.74082e-08
-0.000346574
-2.60186e-06
-0.000921812
-1.04851e-05
-0.00139824
-2.49202e-05
-0.00177321
-4.61602e-05
-0.00205352
-7.35996e-05
-0.00225396
-0.000106152
-0.00239362
-0.000142623
-0.00249184
-0.000181971
-0.00256515
-0.000223433
-0.00262583
-0.000266537
-0.00268188
-0.000311043
-0.00273789
-0.000356861
-0.00279622
-0.00285795
-3.88326e-07
-0.000346186
-4.21579e-06
-0.000917985
-1.36799e-05
-0.00138877
-2.99066e-05
-0.00175699
-5.29716e-05
-0.00203046
-8.21559e-05
-0.00222478
-0.000116323
-0.00235945
-0.000154275
-0.00245389
-0.000194995
-0.00252443
-0.000237756
-0.00258307
-0.000282118
-0.00263751
-0.000327864
-0.00269214
-0.000374922
-0.00274917
-8.4076e-07
-0.000345345
-5.81701e-06
-0.000913008
-1.68395e-05
-0.00137775
-3.48205e-05
-0.00173901
-5.9665e-05
-0.00200561
-9.05461e-05
-0.0021939
-0.000126282
-0.00232372
-0.000165674
-0.00241449
-0.000207732
-0.00248237
-0.000251764
-0.00253904
-0.000297359
-0.00259192
-0.000344323
-0.00264518
-0.00270089
-1.30571e-06
-0.000344039
-7.4061e-06
-0.000906908
-1.996e-05
-0.0013652
-3.96573e-05