/*--------------------------------*- C++ -*----------------------------------*\
  =========                 |
  \\      /  F ield         | OpenFOAM: The Open Source CFD Toolbox
   \\    /   O peration     | Website:  https://openfoam.org
    \\  /    A nd           | Version:  7
     \\/     M anipulation  |
\*---------------------------------------------------------------------------*/
FoamFile
{
    version     2.0;
    format      ascii;
    class       volVectorField;
    location    "15";
    object      U;
}
// * * * * * * * * * * * * * * * * * * * * * * * * * * * * * * * * * * * * * //

dimensions      [0 1 -1 0 0 0 0];

internalField   nonuniform List<vector> 
8500
(
(-0.00886751 0.00685108 1.09111e-19)
(-0.00876392 0.00652532 9.17508e-20)
(-0.0181917 0.0149494 -1.20947e-19)
(-0.00859909 0.00617296 5.77484e-19)
(-0.0171208 0.0138964 -3.42825e-19)
(-0.0170013 0.018788 -1.43005e-21)
(-0.00836586 0.00579382 -3.00323e-19)
(-0.0158203 0.0127845 3.15658e-21)
(-0.0140071 0.0171089 2.48404e-19)
(-0.00805673 0.00538805 -1.05212e-19)
(-0.0142698 0.0116167 6.31359e-20)
(-0.0105647 0.0153765 9.15706e-20)
(0.00292151 0.0172727 -2.71248e-19)
(-0.00766388 0.0049562 5.40118e-19)
(-0.0124482 0.0103971 -1.36144e-19)
(-0.00664209 0.0136007 -1.98082e-19)
(0.00956827 0.0151554 1.01734e-19)
(0.0362388 0.0158942 4.83303e-19)
(-0.00717924 0.00449925 -2.43427e-19)
(-0.010334 0.00913122 3.73361e-20)
(-0.00220756 0.0117934 -2.75168e-19)
(0.0169603 0.01305 -3.89461e-19)
(0.047194 0.0137576 -1.67838e-19)
(0.0885104 0.0146702 -9.41596e-20)
(-0.00659455 0.0040187 -2.37219e-19)
(-0.00790591 0.00782559 5.23496e-19)
(0.00277016 0.00996846 3.27355e-19)
(0.0251346 0.0109785 1.46564e-19)
(0.0591717 0.0117328 -5.29596e-20)
(0.104838 0.0129985 -3.4806e-19)
(0.161993 0.0154232 4.88222e-20)
(-0.0059014 0.00351655 4.21943e-20)
(-0.0051424 0.00648841 -7.92846e-20)
(0.00832137 0.00814177 5.83157e-20)
(0.0341258 0.00896559 -1.40689e-19)
(0.0722044 0.00985352 2.98546e-19)
(0.122437 0.0115804 5.41814e-19)
(0.18456 0.0147882 1.67885e-19)
(0.258054 0.0199976 1.05358e-19)
(-0.00509136 0.00299537 -1.42032e-19)
(-0.00202246 0.00512932 -3.31484e-19)
(0.0144751 0.00633144 -2.51143e-19)
(0.0439655 0.00703853 7.85075e-20)
(0.0863192 0.00815574 -4.25355e-19)
(0.141319 0.0104596 -5.31072e-19)
(0.208555 0.0145776 -7.16705e-20)
(0.287287 0.0209964 -1.66418e-19)
(0.376292 0.030022 -1.71818e-20)
(-0.00415597 0.00245836 -1.09478e-19)
(0.00147438 0.00375952 -8.54974e-20)
(0.0212585 0.00455773 3.86597e-19)
(0.0546816 0.00522694 -2.39505e-19)
(0.101537 0.00667781 6.19976e-19)
(0.161488 0.0096811 2.62022e-19)
(0.233946 0.0148393 -1.72612e-19)
(0.317919 0.0225916 -2.96353e-19)
(0.411852 0.0331664 -4.74371e-19)
(0.51351 0.0465366 5.04794e-19)
(-0.00308691 0.00190931 2.15223e-19)
(0.00536777 0.0023918 3.51141e-19)
(0.0286967 0.0028431 1.41572e-20)
(0.0662977 0.00356282 2.19715e-19)
(0.11787 0.00546009 -5.31916e-19)
(0.182935 0.0092909 1.28841e-19)
(0.260692 0.0156207 -8.42219e-20)
(0.349858 0.0248254 -1.65531e-20)
(0.448512 0.0370376 -1.61452e-19)
(0.554002 0.0521011 -3.56474e-19)
(0.662975 0.069549 1.77417e-19)
(-0.00187602 0.00135266 -3.87131e-20)
(0.00967627 0.00104056 -5.29575e-19)
(0.0368121 0.00121215 -4.08744e-19)
(0.0788326 0.00208035 -2.60472e-20)
(0.135325 0.0045446 9.31292e-20)
(0.20564 0.00933553 -1.80395e-19)
(0.288731 0.0169674 -8.50804e-22)
(0.38299 0.0277358 6.05328e-20)
(0.486096 0.0416577 8.94709e-20)
(0.59497 0.0584303 5.06885e-19)
(0.705862 0.0774219 2.10979e-19)
(0.814624 0.0977147 1.2965e-19)
(0.917132 0.118205 -1.74292e-19)
(-0.000515411 0.0007935 6.8685e-20)
(0.014417 -0.000278195 2.80729e-19)
(0.0456239 -0.0003085 1.75877e-19)
(0.0922994 0.00081572 -3.228e-19)
(0.153898 0.00397465 6.94865e-20)
(0.229571 0.00986134 4.24345e-19)
(0.317991 0.0189231 2.32738e-19)
(0.417186 0.0313558 3.10892e-20)
(0.524414 0.0470414 2.86234e-19)
(0.636165 0.0655139 -5.84847e-19)
(0.748326 0.0859695 -1.65249e-19)
(0.856541 0.107339 -7.09122e-20)
(0.956695 0.128418 4.21989e-19)
(1.04541 0.148037 -2.81028e-19)
(0.00100242 0.00023756 -6.40565e-20)
(0.0196056 -0.00154695 -3.97545e-20)
(0.0551479 -0.00169032 -1.02813e-19)
(0.106705 -0.000193205 3.38884e-19)
(0.173576 0.00379437 2.27285e-19)
(0.254682 0.0109139 -7.29276e-20)
(0.348379 0.0215279 -1.30382e-20)
(0.4523 0.0357126 2.88522e-19)
(0.563263 0.0531954 -4.40714e-19)
(0.677337 0.0733328 2.70786e-19)
(0.790093 0.0951464 2.78694e-19)
(0.89705 0.117427 7.47173e-20)
(0.994201 0.138895 -1.49782e-19)
(1.07851 0.158386 2.19629e-19)
(1.14825 0.175006 1.8181e-19)
(0.00268451 -0.000308771 -9.9485e-20)
(0.0252555 -0.00274667 4.39268e-20)
(0.0653957 -0.00290305 2.89949e-19)
(0.12205 -0.000907191 4.85517e-21)
(0.194337 0.00404818 -4.92037e-19)
(0.280916 0.0125371 -3.38572e-19)
(0.379791 0.0248182 -2.90195e-19)
(0.488172 0.0408271 -1.52959e-19)
(0.602429 0.060118 5.83465e-19)
(0.718235 0.0818595 -2.59674e-20)
(0.830906 0.104901 7.98492e-20)
(0.935925 0.127912 1.31344e-19)
(1.02949 0.149566 -4.39575e-19)
(1.109 0.168735 -3.54449e-19)
(1.17326 0.184633 9.5168e-20)
(1.22247 0.196868 -1.85665e-20)
(1.25797 0.205472 -3.84135e-19)
(0.0045373 -0.000838477 1.26576e-19)
(0.031378 -0.00385696 1.61582e-19)
(0.0763746 -0.00391492 -2.99666e-19)
(0.138327 -0.00128603 -1.63253e-20)
(0.216148 0.00478022 5.77718e-19)
(0.308202 0.0147729 3.62454e-19)
(0.412107 0.028826 -1.46021e-19)
(0.524629 0.0467134 2.15691e-19)
(0.641695 0.0677994 -2.31469e-19)
(0.758615 0.091059 -2.34903e-19)
(0.870527 0.115178 2.40997e-19)
(0.972972 0.138726 -4.89058e-19)
(1.06246 0.160364 6.25043e-20)
(1.13686 0.179032 2.39354e-19)
(1.19557 0.194073 -1.31831e-19)
(1.23932 0.205253 1.90502e-19)
(1.26987 0.212744 -2.31124e-19)
(1.28956 0.216878 3.84517e-20)
(0.00656657 -0.00134394 1.48334e-19)
(0.037982 -0.00485612 -4.91671e-19)
(0.0880871 -0.0046929 7.90195e-20)
(0.155522 -0.00128895 -8.26268e-20)
(0.238967 0.00603375 -2.03591e-19)
(0.336456 0.0176602 -1.63254e-19)
(0.445195 0.0335778 1.47103e-19)
(0.561492 0.0533782 -6.7635e-19)
(0.68084 0.0762224 -1.5885e-19)
(0.798243 0.10089 1.0324e-19)
(0.908743 0.125918 -1.31045e-19)
(1.00804 0.149804 3.79563e-19)
(1.09303 0.171229 2.68271e-19)
(1.16213 0.189233 9.38918e-20)
(1.2153 0.203305 5.23466e-19)
(1.25379 0.213373 -5.20884e-19)
(1.27972 0.219747 3.22596e-19)
(1.29563 0.222875 4.61136e-19)
(1.30409 0.223729 -3.31652e-19)
(1.30718 0.221593 9.35323e-20)
(0.00877727 -0.00181695 1.18147e-20)
(0.0450733 -0.00572133 -5.27119e-21)
(0.10053 -0.005203 3.59798e-19)
(0.173613 -0.000875115 -5.18375e-20)
(0.26274 0.00785056 -2.26486e-20)
(0.365584 0.0212342 3.87967e-19)
(0.478914 0.0390943 4.47284e-19)
(0.598571 0.0608214 1.23193e-19)
(0.719647 0.0853623 2.65516e-19)
(0.836901 0.111306 -1.75457e-19)
(0.945369 0.13706 -1.49783e-19)
(1.041 0.161084 -2.89494e-21)
(1.12117 0.18211 -1.85763e-19)
(1.18485 0.199304 -6.63605e-21)
(1.23259 0.212316 -3.68207e-19)
(1.26607 0.221236 1.46712e-19)
(1.28774 0.226503 3.47359e-19)
(1.30025 0.228663 -1.76248e-19)
(1.30616 0.228687 2.04261e-19)
(1.30747 0.225993 3.72552e-19)
(0.0111735 -0.00224878 4.55999e-20)
(0.052655 -0.00642883 -1.26251e-19)
(0.113696 -0.00541061 -7.44416e-21)
(0.19257 -4.07542e-06 3.58272e-21)
(0.287403 0.0102703 -2.54701e-19)
(0.39548 0.025526 -3.62545e-20)
(0.51311 0.0453905 -4.61339e-19)
(0.635677 0.0690353 4.81279e-19)
(0.757907 0.0951881 2.49339e-19)
(0.874389 0.122257 2.22376e-20)
(0.98025 0.148546 -2.57273e-21)
(1.07178 0.172508 -1.32861e-19)
(1.14688 0.192962 7.89607e-20)
(1.20512 0.209219 2.1831e-19)
(1.24758 0.221101 -3.81982e-19)
(1.27636 0.228856 2.93139e-19)
(1.29412 0.233036 -3.57109e-19)
(1.3036 0.234272 -1.63019e-20)
(1.30731 0.23352 1.80321e-21)
(1.3071 0.230309 1.67877e-19)
(0.0137582 -0.00263021 -9.98137e-20)
(0.0607267 -0.00695405 -1.14161e-19)
(0.12757 -0.00528083 1.63704e-19)
(0.212353 0.0013637 -7.30004e-20)
(0.312883 0.0133301 -2.30049e-20)
(0.426028 0.030562 -2.25933e-19)
(0.547626 0.0524745 2.53659e-19)
(0.672618 0.0780059 -4.56931e-19)
(0.795418 0.105663 4.20723e-20)
(0.91053 0.13369 7.10214e-20)
(1.01326 0.160317 -3.96158e-20)
(1.10033 0.184025 2.81343e-20)
(1.1702 0.203747 -3.312e-19)
(1.22305 0.218962 -2.55076e-19)
(1.26044 0.229663 2.15344e-19)
(1.28483 0.23625 -7.00742e-20)
(1.29905 0.239375 -4.25413e-19)
(1.30586 0.239733 -8.26924e-20)
(1.30765 0.238255 -3.63904e-19)
(1.30617 0.234565 -4.54937e-19)
(0.0165333 -0.00295159 -2.36619e-20)
(0.0692844 -0.0072719 1.68671e-19)
(0.142132 -0.00477883 1.22729e-19)
(0.232916 0.00326633 3.60345e-19)
(0.339097 0.0170635 -1.28057e-20)
(0.457103 0.0363636 1.93389e-19)
(0.582299 0.0603483 -4.11425e-19)
(0.709208 0.0877123 1.45482e-19)
(0.831995 0.116747 -1.2249e-19)
(0.945167 0.145553 1.79019e-19)
(1.04431 0.172319 4.43871e-20)
(1.12663 0.195589 1.06296e-19)
(1.1912 0.214438 3.07604e-19)
(1.23876 0.228522 3.87577e-20)
(1.27134 0.23801 -1.95355e-19)
(1.29167 0.243438 3.26102e-19)
(1.30271 0.245544 1.16571e-19)
(1.30717 0.245072 -5.57413e-20)
(1.30732 0.242917 3.415e-19)
(1.30477 0.238784 2.28969e-19)
(0.0194995 -0.00320294 7.74929e-20)
(0.0783205 -0.00735694 8.74956e-20)
(0.157356 -0.00387032 -2.1709e-19)
(0.254204 0.00573998 -4.99212e-20)
(0.365954 0.0215007 6.45214e-20)
(0.488575 0.0429463 -3.80576e-20)
(0.616963 0.0690073 2.33296e-19)
(0.745264 0.0981281 -7.44172e-20)
(0.867465 0.128395 -9.20296e-20)
(0.97817 0.157791 -3.16228e-19)
(1.07333 0.1845 -2.03929e-19)
(1.1507 0.20716 -1.90148e-19)
(1.20995 0.225011 -1.56629e-19)
(1.25238 0.237896 6.05533e-20)
(1.28043 0.246153 -1.1951e-19)
(1.29705 0.250442 1.44972e-20)
(1.30523 0.25157 2.31744e-19)
(1.30765 0.250315 2.48961e-19)
(1.30641 0.247528 1.85216e-20)
(1.30296 0.242982 1.60571e-19)
(0.0226562 -0.003374 3.98971e-20)
(0.0878237 -0.00718369 1.4925e-19)
(0.17321 -0.00252186 1.18482e-19)
(0.276156 0.0088184 -1.97623e-19)
(0.393354 0.0266672 1.83648e-19)
(0.520306 0.0503202 -5.9814e-20)
(0.651453 0.0784409 -1.28302e-19)
(0.780613 0.109222 3.09688e-19)
(0.901677 0.14056 -7.83685e-20)
(1.00944 0.170353 -2.88599e-21)
(1.10028 0.196812 2.18966e-19)
(1.17255 0.218704 -1.98532e-19)
(1.22654 0.235451 8.81765e-20)
(1.26406 0.247086 -2.24483e-19)
(1.28788 0.254107 3.83069e-19)
(1.30111 0.257284 -2.93361e-19)
(1.30677 0.257478 -1.79124e-19)
(1.30741 0.255485 -1.93647e-21)
(1.30499 0.252105 -2.69894e-19)
(1.3008 0.247174 -3.23443e-21)
(0.0260014 -0.00345434 -1.79751e-19)
(0.0977786 -0.00672685 -6.63751e-20)
(0.189656 -0.00070133 -2.20574e-19)
(0.298701 0.0125324 -1.22395e-19)
(0.421191 0.0325842 -6.32422e-20)
(0.552157 0.0584893 -3.05579e-20)
(0.685608 0.0886322 1.41576e-19)
(0.815093 0.120957 -7.78267e-20)
(0.934494 0.153195 -3.83416e-20)
(1.03888 0.183187 9.77422e-20)
(1.12514 0.209214 -1.34056e-19)
(1.19226 0.230195 1.72659e-19)
(1.2411 0.245748 1.67989e-19)
(1.27394 0.256097 3.76615e-20)
(1.29383 0.261888 -1.09141e-19)
(1.30401 0.263985 -2.63711e-20)
(1.30744 0.26329 -1.53879e-19)
(1.30655 0.260601 -6.64266e-20)
(1.30313 0.256663 1.1018e-19)
(1.29833 0.251369 -1.92945e-19)
(0.0295316 -0.00343345 5.95186e-20)
(0.108166 -0.00596164 -1.01488e-19)
(0.20665 0.00162166 1.73003e-19)
(0.321763 0.0169095 8.11754e-20)
(0.449355 0.0392678 -1.17573e-19)
(0.583985 0.0674519 1.45982e-19)
(0.719269 0.0995592 3.65601e-20)
(0.848554 0.133295 -6.68826e-20)
(0.965803 0.166249 1.81263e-19)
(1.06644 0.196247 5.4615e-20)
(1.14794 0.221667 1.05021e-19)
(1.20988 0.241609 -1.09617e-19)
(1.25372 0.255897 -7.35306e-20)
(1.28215 0.264937 1.58748e-19)
(1.29843 0.269513 -4.57811e-20)
(1.30587 0.270568 2.66916e-19)
(1.30735 0.269025 1.43056e-19)
(1.30515 0.265679 -2.44265e-20)
(1.30089 0.261213 8.08255e-20)
(1.29559 0.255577 3.13514e-19)
(0.0332418 -0.00330083 -2.94903e-20)
(0.118962 -0.00486403 1.6586e-20)
(0.224142 0.00447542 -1.58109e-19)
(0.34526 0.0219734 1.02091e-19)
(0.477728 0.046729 9.59735e-20)
(0.615648 0.0772004 -1.37795e-19)
(0.752285 0.111195 6.43192e-20)
(0.880862 0.146193 -1.26482e-19)
(0.995509 0.179675 -1.81923e-19)
(1.09209 0.209486 6.67282e-20)
(1.16868 0.234138 1.24334e-20)
(1.2255 0.252931 1.06347e-19)
(1.26453 0.265895 7.33048e-20)
(1.28882 0.273616 -4.98372e-20)
(1.30181 0.277 -1.05816e-20)
(1.3068 0.27705 -4.05916e-20)
(1.30658 0.274701 -2.15433e-19)
(1.30326 0.270732 1.78502e-20)
(1.29831 0.265764 -1.47214e-19)
(1.29259 0.2598 1.25951e-21)
(0.0371257 -0.00304616 -3.32106e-20)
(0.130141 -0.00341104 -4.26828e-20)
(0.242076 0.00788573 1.67215e-19)
(0.369104 0.0277438 -2.08539e-20)
(0.506193 0.0549733 8.30597e-22)
(0.647006 0.0877216 -9.37913e-20)
(0.784513 0.123507 -1.65632e-20)
(0.911894 0.159607 6.78745e-20)
(1.02354 0.193424 2.35324e-19)
(1.11581 0.222863 -7.62749e-20)
(1.18741 0.2466 1.35231e-20)
(1.23921 0.264146 4.27094e-20)
(1.27365 0.275743 -8.43049e-20)
(1.29409 0.282146 -5.52472e-20)
(1.30409 0.284364 1.47779e-20)
(1.30691 0.283448 5.32497e-20)
(1.30521 0.280332 1.37689e-19)
(1.30095 0.275771 -3.70839e-21)
(1.29541 0.270322 5.41609e-20)
(1.28935 0.264043 3.78982e-20)
(0.0411752 -0.00265934 5.78752e-20)
(0.14167 -0.00158107 1.19434e-19)
(0.260394 0.0118755 8.29044e-20)
(0.393204 0.0342358 -4.56105e-20)
(0.534628 0.0640008 1.70617e-19)
(0.677922 0.0989968 1.01914e-19)
(0.815821 0.13646 -1.54267e-19)
(0.941547 0.173491 -5.44769e-20)
(1.04982 0.20745 1.19023e-21)
(1.13759 0.236341 -4.63862e-20)
(1.2042 0.259026 -1.36267e-19)
(1.25109 0.275245 2.28412e-20)
(1.28119 0.285446 2.76449e-22)
(1.29807 0.290539 -1.48841e-19)
(1.30537 0.291623 6.91694e-20)
(1.30628 0.289779 -3.77414e-20)
(1.3033 0.285931 -1.69784e-19)
(1.29825 0.280803 8.34467e-20)
(1.29223 0.274891 -1.80504e-19)
(1.28589 0.268305 -1.10566e-19)
(0.0453808 -0.00213066 -2.02885e-20)
(0.153516 0.000645856 -5.12555e-20)
(0.279029 0.0164646 -8.6197e-20)
(0.417463 0.04146 -4.18787e-21)
(0.562912 0.0738064 -7.85252e-21)
(0.708263 0.111003 -9.65104e-20)
(0.846086 0.150016 2.22625e-20)
(0.96973 0.187798 2.12575e-20)
(1.07434 0.221709 -4.46493e-20)
(1.15745 0.249883 3.75917e-21)
(1.21909 0.271397 7.17735e-20)
(1.26126 0.286222 -9.68159e-21)
(1.28726 0.295009 5.6461e-20)
(1.30087 0.298806 2.54331e-20)
(1.30575 0.298788 -1.4295e-19)
(1.30498 0.296053 1.0978e-20)
(1.30091 0.291506 8.99435e-20)
(1.29519 0.285834 -2.1973e-20)
(1.28879 0.279474 4.07253e-21)
(1.28222 0.272587 -1.55873e-20)
(0.0497314 -0.0014509 -1.86333e-20)
(0.16564 0.00328782 -1.82935e-20)
(0.297915 0.0216691 -3.26682e-20)
(0.441784 0.0494223 -2.17033e-20)
(0.590925 0.0843792 -5.68954e-20)
(0.737903 0.123711 6.67513e-20)
(0.875197 0.164132 1.33784e-19)
(0.996369 0.202481 4.72932e-20)
(1.09705 0.236157 2.45413e-20)
(1.17543 0.263459 -5.91385e-20)
(1.23216 0.283695 -5.5136e-22)
(1.2698 0.297072 3.93785e-20)
(1.29197 0.304436 -5.13289e-20)
(1.3026 0.306958 2.0042e-20)
(1.30531 0.305873 6.78977e-20)
(1.30307 0.302282 -2.39493e-20)
(1.29809 0.297063 -4.30283e-20)
(1.29181 0.290866 -4.05978e-20)
(1.28509 0.284068 1.47496e-19)
(1.27835 0.276885 5.28097e-20)
(0.0542146 -0.000611444 -3.3406e-20)
(0.178002 0.00636075 4.05613e-20)
(0.316979 0.0275018 -9.32595e-21)
(0.466066 0.0581234 2.94559e-20)
(0.618548 0.0957036 -2.66149e-20)
(0.766723 0.137088 -1.64795e-20)
(0.903056 0.178765 -6.51671e-20)
(1.0214 0.217494 7.87016e-21)
(1.11795 0.250754 1.90316e-20)
(1.19154 0.277038 4.2986e-20)
(1.24349 0.295904 -1.69056e-20)
(1.27681 0.307794 -1.35434e-20)
(1.29542 0.313733 1.25901e-20)
(1.30334 0.315006 -2.25387e-20)
(1.30413 0.312887 5.19862e-20)
(1.30063 0.308472 3.5039e-20)
(1.29486 0.302608 -6.11784e-21)
(1.28812 0.295901 -4.08188e-21)
(1.28115 0.288674 -3.97392e-20)
(1.27427 0.281196 -5.07123e-20)
(0.0588165 0.0003956 7.2068e-21)
(0.190557 0.00987818 -1.26969e-20)
(0.336146 0.033971 8.71121e-21)
(0.490209 0.0675592 -1.20776e-20)
(0.645668 0.107758 -4.67651e-20)
(0.794611 0.151099 2.18549e-20)
(0.929575 0.193869 1.06873e-20)
(1.04479 0.232791 -5.16824e-20)
(1.13704 0.26546 -3.29383e-20)
(1.20585 0.290596 -3.19372e-21)
(1.25315 0.308012 -4.71607e-20)
(1.28239 0.318384 4.93675e-20)
(1.29771 0.322907 -8.792e-23)
(1.30318 0.322957 -6.76944e-21)
(1.30227 0.319838 -1.31354e-20)
(1.29767 0.31463 6.56729e-21)
(1.29125 0.308142 4.61975e-21)
(1.28415 0.300937 -1.90425e-21)
(1.27698 0.293288 -1.46178e-20)
(1.26999 0.285515 1.81536e-20)
(0.063522 0.0015773 2.41827e-21)
(0.203258 0.0138511 8.38004e-21)
(0.355341 0.0410815 4.70186e-21)
(0.514113 0.0777205 -2.20714e-21)
(0.672171 0.120518 3.08988e-20)
(0.821465 0.165704 -6.94939e-21)
(0.95468 0.209397 1.11595e-20)
(1.06649 0.248325 2.50253e-20)
(1.15433 0.28024 -4.57226e-21)
(1.21841 0.304107 1.14735e-21)
(1.26122 0.320008 1.29638e-20)
(1.28661 0.328844 -7.00565e-21)
(1.29891 0.331963 9.24435e-21)
(1.30218 0.330819 1.67603e-21)
(1.29979 0.326732 -1.79877e-20)
(1.29426 0.320758 8.74903e-22)
(1.28729 0.313665 2.40735e-20)
(1.2799 0.305972 -5.1343e-21)
(1.27258 0.297905 7.69031e-21)
(1.26551 0.289837 -8.79873e-21)
(0.0683148 0.00293982 9.99486e-22)
(0.216058 0.0182876 1.24108e-20)
(0.374485 0.0488333 6.73687e-21)
(0.537678 0.0885934 -1.37898e-21)
(0.697954 0.133953 2.86801e-20)
(0.847192 0.180859 -8.17237e-21)
(0.978308 0.225302 1.54793e-20)
(1.0865 0.264054 2.10012e-20)
(1.16985 0.295059 -4.37746e-21)
(1.22927 0.317552 9.95735e-22)
(1.26778 0.331882 1.47851e-20)
(1.28958 0.339171 -6.03403e-21)
(1.29911 0.340904 6.068e-21)
(1.30041 0.338597 -1.51491e-21)
(1.29673 0.333573 -1.47288e-20)
(1.29041 0.326858 -4.42702e-22)
(1.283 0.319176 2.39389e-20)
(1.27538 0.311002 -4.79328e-21)
(1.26796 0.30252 9.10423e-21)
(1.26083 0.294155 -9.92238e-21)
(0.0731777 0.0044883 8.70614e-21)
(0.228906 0.0231931 -1.59734e-20)
(0.393499 0.0572227 8.19816e-21)
(0.560807 0.100159 -6.64505e-21)
(0.722916 0.148028 -4.54614e-20)
(0.871707 0.196521 1.86342e-20)
(1.00041 0.241535 8.70896e-21)
(1.10478 0.279933 -5.94092e-20)
(1.18363 0.309885 -2.52499e-20)
(1.2385 0.330909 -1.89922e-23)
(1.27292 0.343627 -3.99043e-20)
(1.29137 0.349365 3.37586e-20)
(1.29838 0.349733 -7.69007e-21)
(1.29794 0.346293 4.89828e-21)
(1.29313 0.340361 -1.94168e-20)
(1.28615 0.332927 1.48965e-20)
(1.27839 0.32467 9.70798e-21)
(1.2706 0.316021 -1.69729e-21)
(1.26311 0.307127 -1.96406e-20)
(1.25595 0.298462 1.82519e-20)
(0.0780919 0.0062268 -1.88607e-20)
(0.241749 0.0285699 -8.62529e-21)
(0.412305 0.0662411 -1.26039e-20)
(0.583405 0.112394 4.36374e-20)
(0.746963 0.162706 1.24946e-22)
(0.894937 0.21264 -2.35062e-20)
(1.02094 0.258047 -9.67009e-20)
(1.12136 0.29592 9.38795e-21)
(1.1957 0.324686 1.10523e-20)
(1.24615 0.34416 5.01164e-20)
(1.27669 0.355233 7.46454e-21)
(1.29204 0.359425 -4.31971e-20)
(1.29678 0.358452 4.11738e-20)
(1.2948 0.353911 -1.67871e-20)
(1.28903 0.347098 6.43389e-20)
(1.2815 0.338964 -5.87481e-21)
(1.27346 0.330143 3.44535e-21)
(1.26556 0.321023 2.9953e-21)
(1.25804 0.311718 -5.24498e-20)
(1.25087 0.302751 -3.20955e-20)
(0.0830382 0.00815817 -7.20663e-21)
(0.254535 0.0344169 -4.15501e-20)
(0.430825 0.075876 3.29389e-20)
(0.605382 0.12527 -4.20144e-20)
(0.770008 0.177944 -7.6336e-20)
(0.916815 0.229169 6.70351e-20)
(1.03987 0.27479 1.11186e-19)
(1.13623 0.311975 4.00688e-20)
(1.2061 0.339433 2.80869e-20)
(1.25229 0.357288 -8.14447e-20)
(1.27918 0.366693 6.2922e-20)
(1.29168 0.369349 7.43923e-21)
(1.29437 0.367062 -8.1429e-20)
(1.29104 0.361448 3.20264e-20)
(1.28445 0.353781 1.15719e-19)
(1.27648 0.344964 -8.03134e-20)
(1.26824 0.335589 -2.3325e-20)
(1.26026 0.326 -2.28228e-20)
(1.25275 0.316286 1.06757e-19)
(1.24558 0.307013 6.19288e-20)
(0.0879967 0.010284 4.94179e-20)
(0.267211 0.0407302 -8.46864e-20)
(0.448981 0.0861106 -1.2367e-19)
(0.626651 0.138756 5.58813e-21)
(0.791973 0.193699 -2.28668e-20)
(0.937288 0.246057 -9.21782e-20)
(1.05719 0.291716 -1.54579e-20)
(1.14941 0.328058 4.81491e-20)
(1.21489 0.354098 -7.81667e-20)
(1.25698 0.370275 6.4445e-20)
(1.28045 0.377999 7.57091e-20)
(1.29034 0.379133 -4.79982e-20)
(1.2912 0.37556 1.97391e-20)
(1.28669 0.368904 1.01642e-19)
(1.27943 0.360405 -1.36992e-19)
(1.27111 0.350921 2.44087e-20)
(1.26272 0.341 6.71082e-20)
(1.25472 0.330945 -2.04956e-20)
(1.24723 0.320821 -2.20239e-20)
(1.24009 0.311241 -3.74526e-21)
(0.092947 0.0126048 7.32439e-20)
(0.279723 0.0475025 1.3634e-19)
(0.466698 0.0969239 7.25013e-20)
(0.647129 0.152815 -8.70727e-20)
(0.812784 0.209923 2.28319e-19)
(0.956309 0.263251 3.53708e-20)
(1.07287 0.308776 -9.85343e-20)
(1.16093 0.344129 -7.15815e-20)
(1.2221 0.368655 -5.80848e-20)
(1.26029 0.383108 1.93405e-20)
(1.28057 0.389143 -6.62678e-20)
(1.28807 0.388774 2.27493e-21)
(1.28732 0.383944 -4.58943e-20)
(1.2818 0.376273 -6.32175e-20)
(1.27397 0.366964 -1.09144e-20)
(1.26539 0.356827 -6.90351e-21)
(1.25691 0.346366 -1.23955e-19)
(1.24892 0.335847 9.50715e-20)
(1.24149 0.325315 -1.46125e-19)
(1.2344 0.315424 -8.64157e-20)
(0.0978683 0.0151195 -8.89889e-20)
(0.292019 0.0547234 -3.66829e-20)
(0.483903 0.108291 1.64107e-19)
(0.66674 0.167407 4.17606e-20)
(0.832378 0.226566 -1.43989e-19)
(0.97384 0.280701 -8.42558e-20)
(1.08692 0.325924 -2.84498e-20)
(1.1708 0.360153 1.84149e-19)
(1.22779 0.383077 1.32683e-19)
(1.26227 0.395768 -4.60426e-20)
(1.27959 0.400116 -2.70858e-20)
(1.28494 0.398266 6.83981e-20)
(1.28276 0.39221 -7.55708e-20)
(1.27638 0.383552 3.52482e-20)
(1.2681 0.373453 1.56905e-20)
(1.25932 0.362675 -1.96654e-20)
(1.25081 0.35168 1.51221e-19)
(1.24287 0.340697 -6.45904e-20)
(1.23552 0.329758 1.32139e-19)
(1.2285 0.319554 -4.73e-20)
(0.10274 0.0178259 -5.02686e-20)
(0.304046 0.0623794 -9.2909e-20)
(0.500528 0.120183 -1.47619e-19)
(0.685411 0.182491 8.96613e-20)
(0.850699 0.243577 4.96262e-20)
(0.989852 0.298353 -7.14528e-20)
(1.09933 0.343113 1.19032e-19)
(1.17907 0.376092 -1.85089e-19)
(1.23201 0.39734 -1.98542e-19)
(1.26299 0.408242 1.20739e-19)
(1.27758 0.410908 4.55226e-20)
(1.281 0.407604 -5.09867e-20)
(1.27756 0.40035 7.78479e-20)
(1.27046 0.390732 6.19769e-20)
(1.26183 0.379862 -4.5913e-20)
(1.25293 0.368454 -1.59082e-20)
(1.24443 0.356931 -1.15516e-19)
(1.23656 0.345485 2.42451e-20)
(1.22933 0.33414 -1.011e-19)
(1.2224 0.323621 -1.66693e-20)
(0.10754 0.0207204 4.17536e-20)
(0.315753 0.0704538 -7.32437e-20)
(0.516504 0.132569 1.33988e-19)
(0.703078 0.19802 2.27961e-19)
(0.867697 0.260902 -3.29116e-19)
(1.00432 0.316153 2.91467e-19)
(1.11012 0.360295 7.9016e-20)
(1.18577 0.391912 -1.15426e-19)
(1.23481 0.411418 1.37312e-19)
(1.26251 0.420513 8.1972e-20)
(1.27458 0.421511 1.02489e-19)
(1.27627 0.416779 -1.78752e-19)
(1.27176 0.408359 -3.74778e-20)
(1.26407 0.397806 8.99968e-20)
(1.25517 0.386182 3.45621e-20)
(1.24621 0.374154 1.61766e-19)
(1.23776 0.362107 2.0551e-19)
(1.23001 0.3502 -5.10284e-20)
(1.22291 0.33845 9.05702e-20)
(1.21608 0.327616 1.02963e-19)
(0.112248 0.023798 -1.23048e-20)
(0.32709 0.0789272 -1.70568e-19)
(0.53177 0.145412 -2.34451e-19)
(0.719681 0.213945 -3.07353e-19)
(0.883331 0.278486 -3.06024e-20)
(1.01724 0.33405 1.1458e-19)
(1.11931 0.377428 -2.17929e-20)
(1.19093 0.407576 3.86661e-20)
(1.23624 0.42529 -6.07105e-20)
(1.26086 0.432565 1.02911e-19)
(1.27066 0.431912 -1.57699e-19)
(1.27081 0.425783 2.07674e-19)
(1.26537 0.416228 1.20211e-19)
(1.25721 0.404763 5.55734e-20)
(1.24813 0.392403 -8.33378e-20)
(1.23917 0.379763 -8.96659e-20)
(1.23082 0.367196 -8.65991e-20)
(1.22321 0.354831 6.48433e-21)
(1.21627 0.342677 1.18166e-19)
(1.20957 0.331529 -1.24872e-19)
(0.116844 0.0270527 -2.1804e-20)
(0.33801 0.0877773 1.32508e-19)
(0.546266 0.158674 1.67682e-19)
(0.735167 0.230216 -2.65059e-20)
(0.897568 0.296274 7.89974e-20)
(1.0286 0.351989 2.17358e-20)
(1.1269 0.394464 -1.1693e-19)
(1.19459 0.423053 9.34706e-20)
(1.23635 0.43893 8.83379e-20)
(1.25812 0.444384 -1.54658e-19)
(1.26584 0.442101 2.51265e-19)
(1.26464 0.434606 -2.10908e-19)
(1.25844 0.423945 1.22751e-19)
(1.2499 0.411593 -1.80392e-19)
(1.24072 0.398511 2.68006e-19)
(1.23181 0.38527 -1.71299e-19)
(1.22359 0.372188 -5.06502e-20)
(1.21616 0.359365 -6.89961e-20)
(1.2094 0.346809 -1.47637e-19)
(1.20285 0.335349 2.25943e-21)
(0.121307 0.030477 1.55991e-19)
(0.348466 0.0969791 1.66404e-19)
(0.559938 0.172313 -2.41489e-19)
(0.749487 0.246781 -1.48128e-19)
(0.910381 0.314209 2.20276e-19)
(1.0384 0.369919 -8.81926e-20)
(1.13294 0.411362 1.30467e-19)
(1.19681 0.438309 5.65519e-20)
(1.2352 0.452315 -1.3237e-19)
(1.25432 0.455952 -3.30769e-19)
(1.26018 0.452066 -5.90871e-20)
(1.25781 0.443238 -1.2566e-19)
(1.25096 0.431501 -1.87719e-19)
(1.24217 0.418284 1.5327e-20)
(1.23294 0.404496 -1.94787e-20)
(1.22413 0.390662 -1.93323e-20)
(1.21608 0.37707 1.58592e-19)
(1.20886 0.363791 1.15742e-19)
(1.20232 0.350836 1.26833e-20)
(1.19593 0.339068 6.88773e-20)
(0.125618 0.0340621 -3.76783e-20)
(0.358417 0.106505 2.96186e-19)
(0.572736 0.186287 1.15211e-19)
(0.762603 0.263585 2.35918e-19)
(0.921749 0.332235 7.74467e-20)
(1.04664 0.387786 2.97422e-20)
(1.13744 0.428077 -1.90179e-19)
(1.19761 0.453311 -6.172e-20)
(1.23283 0.465423 3.04505e-20)
(1.24952 0.467253 2.46001e-19)
(1.25371 0.461792 -8.10519e-20)
(1.25034 0.451665 1.00935e-19)
(1.24298 0.438883 2.15986e-19)
(1.23401 0.424824 4.96091e-20)
(1.22482 0.410344 -4.35534e-20)
(1.21615 0.395925 5.94269e-20)
(1.2083 0.381828 1.14459e-19)
(1.2013 0.368095 5.32657e-20)
(1.195 0.354742 1.37026e-19)
(1.18881 0.342676 1.05532e-19)
(0.129758 0.0377982 -9.87091e-20)
(0.367821 0.116326 -1.51582e-19)
(0.584615 0.200548 9.6997e-20)
(0.774479 0.280572 3.29531e-20)
(0.931659 0.350294 6.599e-20)
(1.05334 0.405541 -2.69817e-19)
(1.14043 0.444569 9.86865e-20)
(1.19706 0.468029 -2.14584e-19)
(1.22929 0.478231 -1.20208e-19)
(1.24376 0.47827 1.40891e-19)
(1.24647 0.471266 -1.50636e-20)
(1.24225 0.459875 9.36693e-21)
(1.23451 0.446077 -2.63068e-19)
(1.22544 0.431199 -1.0709e-19)
(1.21634 0.416041 8.96201e-20)
(1.20785 0.401047 -1.57689e-19)
(1.20024 0.386449 -8.54457e-20)
(1.1935 0.372264 -8.67098e-20)
(1.18746 0.358516 -1.53785e-19)
(1.18146 0.346162 -3.58024e-19)
(0.133708 0.0416744 5.73884e-20)
(0.376641 0.126409 -7.15931e-20)
(0.595535 0.21505 -3.93816e-19)
(0.785086 0.297685 2.13911e-19)
(0.940104 0.368329 -2.67722e-19)
(1.05851 0.42313 -3.85292e-20)
(1.14196 0.460796 -3.73082e-19)
(1.19518 0.482431 3.99819e-19)
(1.22464 0.490716 2.29704e-19)
(1.23708 0.488985 -1.35323e-20)
(1.2385 0.480474 8.34548e-20)
(1.23358 0.467854 -1.06136e-19)
(1.22556 0.453071 -8.72384e-21)
(1.21648 0.437394 4.9893e-20)
(1.20752 0.421573 -5.23328e-20)
(1.19926 0.406014 9.97604e-20)
(1.19191 0.390922 -1.34176e-19)
(1.18546 0.376291 -1.21142e-19)
(1.17969 0.362157 6.94331e-20)
(1.17383 0.349499 9.53443e-20)
(0.137451 0.0456787 1.31671e-19)
(0.384841 0.136721 1.32935e-19)
(0.605461 0.229741 1.03169e-19)
(0.794404 0.314868 -2.42491e-21)
(0.947083 0.386284 -6.99319e-20)
(1.06217 0.440506 4.74708e-19)
(1.14206 0.476718 2.7079e-19)
(1.19204 0.496487 1.85379e-19)
(1.2189 0.502855 2.64944e-19)
(1.22953 0.499382 3.31198e-20)
(1.22983 0.4894 -2.23876e-19)
(1.22435 0.475587 -2.45435e-20)
(1.21615 0.459848 -4.96597e-20)
(1.20713 0.443395 -1.62894e-19)
(1.19836 0.426926 -6.17599e-20)
(1.19036 0.410811 -8.73545e-20)
(1.18331 0.395233 2.75529e-19)
(1.17717 0.380167 -3.72862e-21)
(1.17169 0.365682 7.99115e-20)
(1.16606 0.352652 6.43541e-20)
(0.140972 0.049798 -4.41387e-20)
(0.392392 0.147227 -7.74031e-20)
(0.614363 0.244573 -1.69428e-19)
(0.802415 0.332063 -2.8585e-20)
(0.952599 0.404101 -2.86428e-19)
(1.06435 0.457617 -2.06486e-19)
(1.14076 0.492296 6.92142e-20)
(1.18767 0.510168 -5.06633e-19)
(1.21214 0.514626 -2.76414e-19)
(1.22113 0.509441 6.78161e-20)
(1.22049 0.498027 -3.57937e-20)
(1.21457 0.48306 2.04989e-19)
(1.20629 0.466395 2.81816e-19)
(1.19741 0.449187 7.18384e-20)
(1.18888 0.432085 1.97003e-19)
(1.18117 0.415425 -1.04586e-19)
(1.17444 0.399368 1.45895e-19)
(1.16864 0.383874 8.22617e-20)
(1.16348 0.369042 7.24627e-20)
(1.15816 0.355691 -1.39553e-19)
(0.144255 0.0540186 6.6737e-20)
(0.399264 0.15789 -8.42542e-21)
(0.622215 0.259493 -2.63455e-19)
(0.809108 0.349211 -1.56618e-22)
(0.956663 0.421726 6.44541e-19)
(1.06507 0.474418 1.30372e-19)
(1.13811 0.507491 9.92895e-20)
(1.18211 0.523443 2.93964e-19)
(1.2044 0.526006 -2.39661e-19)
(1.21194 0.519144 -2.59258e-19)
(1.21051 0.50634 -3.12285e-21)
(1.20428 0.490256 -1.87256e-19)
(1.19601 0.472696 -1.04992e-19)
(1.18731 0.454755 2.85269e-19)
(1.17907 0.437034 -7.56778e-20)
(1.17169 0.41984 5.0736e-21)
(1.16531 0.403313 -1.05901e-19)
(1.15987 0.387399 -1.63107e-19)
(1.15506 0.372224 1.02922e-20)
(1.15007 0.358566 1.59286e-19)
(0.147286 0.0583258 -3.21437e-19)
(0.405434 0.168672 2.01733e-19)
(0.628997 0.274448 4.53444e-19)
(0.814479 0.366255 1.43812e-19)
(0.959287 0.439102 -7.61156e-19)
(1.06436 0.490859 -3.17158e-19)
(1.13416 0.522266 -2.50788e-19)
(1.17543 0.536284 -9.22414e-20)
(1.19571 0.536974 3.15194e-19)
(1.20199 0.528473 3.40271e-20)
(1.19991 0.514321 -6.77506e-20)
(1.19348 0.497159 1.23916e-19)
(1.1853 0.478733 1.84161e-20)
(1.17686 0.460081 -3.41084e-19)
(1.16895 0.441759 1.03862e-19)
(1.16193 0.424043 1.39723e-19)
(1.15592 0.407055 6.81014e-20)
(1.15088 0.39073 9.37468e-20)
(1.14644 0.375218 -1.67308e-19)
(1.14178 0.361264 -8.27703e-20)
(0.150053 0.0627043 -2.21288e-20)
(0.410879 0.179533 1.02104e-19)
(0.634694 0.289385 5.18074e-20)
(0.818528 0.383138 1.54172e-19)
(0.960491 0.456178 4.25495e-19)
(1.06227 0.506897 -2.80325e-19)
(1.12893 0.536585 -1.76186e-20)
(1.16765 0.548665 2.74505e-19)
(1.18612 0.547506 -3.36246e-19)
(1.19131 0.537409 1.1057e-19)
(1.18872 0.521954 2.87605e-19)
(1.18221 0.503752 6.61472e-20)
(1.1742 0.484491 -1.45256e-19)
(1.16606 0.465152 2.4618e-19)
(1.15852 0.446245 -2.89892e-19)
(1.15189 0.428018 9.46426e-21)
(1.14628 0.41058 -6.93517e-20)
(1.14165 0.393853 1.24042e-19)
(1.13762 0.378013 1.11145e-19)
(1.13331 0.363774 1.00654e-19)
(0.152545 0.0671381 4.17827e-20)
(0.415583 0.190435 1.63919e-19)
(0.639295 0.304252 1.63603e-19)
(0.82126 0.399803 -1.03919e-19)
(0.960298 0.472899 9.34815e-21)
(1.05882 0.522486 2.60481e-19)
(1.12249 0.550413 4.66477e-19)
(1.15883 0.560556 -4.78257e-20)
(1.17567 0.55758 4.56583e-20)
(1.17994 0.545932 -1.38195e-19)
(1.17698 0.52922 -2.95003e-19)
(1.17048 0.510018 4.79476e-20)
(1.16271 0.489954 1.7011e-19)
(1.15493 0.46995 -3.49724e-20)
(1.14779 0.450476 -2.87369e-20)
(1.14158 0.431753 -1.1681e-19)
(1.1364 0.413874 -2.05716e-20)
(1.1322 0.396756 -4.74494e-20)
(1.12859 0.3806 -3.95521e-20)
(1.12466 0.366086 -9.50236e-20)
(0.154752 0.0716108 -1.45031e-19)