/*--------------------------------*- C++ -*----------------------------------*\
  =========                 |
  \\      /  F ield         | OpenFOAM: The Open Source CFD Toolbox
   \\    /   O peration     | Website:  https://openfoam.org
    \\  /    A nd           | Version:  7
     \\/     M anipulation  |
\*---------------------------------------------------------------------------*/
FoamFile
{
    version     2.0;
    format      ascii;
    class       surfaceScalarField;
    location    "50";
    object      phi;
}
// * * * * * * * * * * * * * * * * * * * * * * * * * * * * * * * * * * * * * //

dimensions      [0 3 -1 0 0 0 0];

internalField   nonuniform List<scalar> 
16755
(
-0.000410941
-7.16077e-05
8.17951e-05
-0.00042068
-7.62946e-05
8.60332e-05
-0.000429948
-7.90821e-05
8.83506e-05
-0.000438721
-7.93048e-05
8.80778e-05
-0.000446969
-7.62211e-05
8.44687e-05
-0.000454654
-6.90414e-05
7.67271e-05
-0.000461735
-5.69562e-05
6.4037e-05
-0.000468162
-3.91806e-05
4.56071e-05
-0.000473875
-1.50256e-05
2.07393e-05
-0.000478809
1.60455e-05
-1.11114e-05
-0.000482888
5.4279e-05
-5.02003e-05
-0.00048603
9.96241e-05
-9.64821e-05
-0.000488144
0.000151584
-0.000149471
-0.000489131
0.000209111
-0.000208124
-0.000488888
0.000270538
-0.000270781
-0.000487304
0.000333509
-0.000335092
-0.000484261
0.000394965
-0.000398008
-0.00047963
0.000451164
-0.000455795
-0.000473273
0.000497786
-0.000504143
-0.000465038
0.000530077
-0.000538312
-0.000454769
0.000543153
-0.000553422
-0.000442305
0.000532244
-0.000544709
-0.000427504
0.000493265
-0.000508067
-0.000410245
0.000423017
-0.000440275
-0.000390479
0.000320141
-0.000339907
-0.000368206
0.000184817
-0.00020709
-0.000343554
2.03679e-05
-4.50199e-05
-0.00031667
-0.000168604
0.00014172
-0.000287857
-0.000372972
0.000344159
-0.000257304
-0.000584272
0.00055372
-0.000225373
-0.000787567
0.000755635
-0.000192
-0.000973469
0.000940096
-0.000157486
-0.00112248
0.00108797
-0.000121191
-0.00122845
0.00119215
-8.35542e-05
-0.00127077
0.00123313
-4.3174e-05
-0.00124822
0.00120784
-1.41548e-06
-0.00115132
0.00110956
4.39554e-05
-0.000971972
0.000926601
8.95535e-05
-0.000746893
0.000701295
0.000138677
-0.000417564
0.00036844
0.000185364
-0.000132772
8.60855e-05
0.000234856
0.000289804
-0.000339296
0.000278863
0.000519175
-0.000563181
0.000325917
0.000924066
-0.000971119
0.000898044
-0.00094243
-0.000409945
-6.14294e-05
-0.000419664
-6.65763e-05
-0.000428899
-6.98472e-05
-0.000437623
-7.05802e-05
-0.000445806
-6.80384e-05
-0.000453408
-6.14387e-05
-0.000460387
-4.99775e-05
-0.000466692
-3.28757e-05
-0.000472263
-9.45472e-06
-0.000477035
2.0817e-05
-0.000480928
5.8173e-05
-0.000483862
0.000102558
-0.000485743
0.000153465
-0.00048647
0.000209838
-0.000485939
0.000270006
-0.000484033
0.000331603
-0.000480632
0.000391564
-0.000475603
0.000446135
-0.000468806
0.000490989
-0.000460089
0.000521359
-0.000449297
0.000532361
-0.000436275
0.000519223
-0.000420894
0.000477885
-0.000403053
0.000405175
-0.000382723
0.000299812
-0.00035994
0.000162034
-0.000334868
-4.70401e-06
-0.000307698
-0.000195774
-0.000278775
-0.000401895
-0.000248336
-0.000614712
-0.000216778
-0.000819124
-0.000184073
-0.00100617
-0.00015053
-0.00115603
-0.00011551
-0.00126347
-7.94105e-05
-0.00130686
-4.07711e-05
-0.00128685
-8.75764e-07
-0.00119121
4.26564e-05
-0.0010155
8.64971e-05
-0.000790734
0.000134178
-0.000465244
0.000179695
-0.000178289
0.000228587
0.000240912
0.000272458
0.000475303
0.000320019
0.000876504
0.00085294
-0.000406976
-5.13067e-05
-0.000416627
-5.69249e-05
-0.000425782
-6.06924e-05
-0.000434411
-6.1951e-05
-0.000442482
-5.99678e-05
-0.000449954
-5.39662e-05
-0.000456783
-4.31486e-05
-0.000462919
-2.67403e-05
-0.0004683
-4.07371e-06
-0.000472861
2.53779e-05
-0.000476522
6.18342e-05
-0.0004792
0.000105236
-0.000480801
0.000155066
-0.000481222
0.00021026
-0.000480356
0.00026914
-0.000478085
0.000329332
-0.000474284
0.000387763
-0.000468818
0.000440669
-0.000461544
0.000483716
-0.00045231
0.000512126
-0.000440966
0.000521016
-0.000427362
0.000505619
-0.000411382
0.000461904
-0.000392941
0.000386735
-0.000372038
0.000278908
-0.000348736
0.000138732
-0.000323239
-3.02009e-05
-0.000295779
-0.000223234
-0.000266744
-0.00043093
-0.000236416
-0.000645039
-0.000205229
-0.000850311
-0.000173192
-0.00103821
-0.000140622
-0.0011886
-0.000106885
-0.0012972
-7.23414e-05
-0.00134141
-3.54745e-05
-0.00132372
2.51883e-06
-0.0012292
4.41488e-05
-0.00105713
8.6166e-05
-0.000832751
0.000132331
-0.000511409
0.000176608
-0.000222567
0.000224833
0.000192686
0.000268519
0.000431618
0.000316529
0.000828494
0.000807171
-0.000402045
-4.12848e-05
-0.000411584
-4.73854e-05
-0.000420614
-5.1663e-05
-0.000429102
-5.34627e-05
-0.000437015
-5.20549e-05
-0.000444311
-4.66698e-05
-0.000450944
-3.65157e-05
-0.000456862
-2.08224e-05
-0.000462009
1.0734e-06
-0.000466312
2.96805e-05
-0.000469694
6.52163e-05
-0.00047207
0.000107612
-0.000473346
0.000156341
-0.000473417
0.000210331
-0.000472173
0.000267896
-0.000469494
0.000326653
-0.000465253
0.000383522
-0.000459312
0.000434728
-0.000451528
0.000475931
-0.000441747
0.000502346
-0.000429824
0.000509093
-0.000415617
0.000491411
-0.000399021
0.000445308
-0.000379969
0.000367683
-0.000358484
0.000257423
-0.00033466
0.000114908
-0.000308735
-5.61255e-05
-0.000280984
-0.000250986
-0.000251833
-0.000460081
-0.000221612
-0.00067526
-0.000190791
-0.000881132
-0.000159414
-0.00106959
-0.000127812
-0.0012202
-9.53578e-05
-0.00132966
-6.23768e-05
-0.00137439
-2.73015e-05
-0.0013588
8.75931e-06
-0.00126527
4.84386e-05
-0.00109681
8.85762e-05
-0.000872888
0.000133159
-0.000555992
0.000176132
-0.000265539
0.000223624
0.000145194
0.000267071
0.000388171
0.000315463
0.000780102
0.0007608
-0.000395172
-3.14073e-05
-0.000404556
-3.80017e-05
-0.000413416
-4.28027e-05
-0.00042172
-4.5159e-05
-0.000429431
-4.43435e-05
-0.000436507
-3.95939e-05
-0.0004429
-3.01228e-05
-0.000448557
-1.51659e-05
-0.000453423
5.93997e-06
-0.000457424
3.36811e-05
-0.000460482
6.82744e-05
-0.000462512
0.000109642
-0.000463418
0.000157247
-0.000463096
0.000210009
-0.000461432
0.000266233
-0.000458306
0.000323527
-0.000453588
0.000378803
-0.000447138
0.000428278
-0.000438812
0.000467605
-0.000428458
0.000491992
-0.000415934
0.000496569
-0.000401106
0.000476583
-0.000383881
0.000428083
-0.000364211
0.000348013
-0.00034214
0.000235351
-0.000317791
9.056e-05
-0.000291439
-8.24778e-05
-0.000263395
-0.000279029
-0.000234126
-0.00048935
-0.000204008
-0.000705379
-0.000173542
-0.000911598
-0.000142814
-0.00110032
-0.000112167
-0.00125084
-8.09857e-05
-0.00136084
-4.95635e-05
-0.00140581
-1.62869e-05
-0.00139207
1.78196e-05
-0.00129937
5.55156e-05
-0.00113451
9.37277e-05
-0.000911101
0.000136671
-0.000598935
0.000178279
-0.000307147
0.000224973
9.8499e-05
0.000268125
0.000345019
0.000316826
0.0007314
0.000713894
-0.000386384
-0.000395571
-2.88155e-05
-0.00040422
-3.41533e-05
-0.000412297
-3.70819e-05
-0.000419765
-3.68755e-05
-0.000426579
-3.27805e-05
-0.000432689
-2.40121e-05
-0.000438041
-9.81394e-06
-0.000442585
1.04842e-05
-0.000446241
3.73367e-05
-0.000448933
7.0966e-05
-0.000450574
0.000111284
-0.00045107
0.000157743
-0.000450313
0.000209253
-0.000448191
0.000264111
-0.000444581
0.000319916
-0.00043935
0.000373573
-0.00043236
0.000421287
-0.000423464
0.00045871
-0.000412514
0.000481042
-0.000399371
0.000483426
-0.000383909
0.000461121
-0.000366047
0.000410221
-0.000345754
0.00032772
-0.000323096
0.000212693
-0.000298225
6.56889e-05
-0.000271447
-0.000109255
-0.000243113
-0.000307364
-0.000213725
-0.000518738
-0.000183701
-0.000735402
-0.00015358
-0.000941719
-0.000123484
-0.00113041
-9.37723e-05
-0.00128055
-6.38439e-05
-0.00139077
-3.39652e-05
-0.00143569
-2.48206e-06
-0.00142356
2.9663e-05
-0.00133152
6.53532e-05
-0.0011702
0.000101605
-0.000947352
0.000142858
-0.000640188
0.000183047
-0.000347336
0.00022888
5.26665e-05
0.000271678
0.000302221
0.00032061
0.000682468
0.000666524
-0.000384662
-1.98662e-05
-0.000393061
-2.5754e-05
-0.000400872
-2.92707e-05
-0.000408058
-2.96903e-05
-0.000414569
-2.62694e-05
-0.000420357
-1.82233e-05
-0.000425366
-4.80556e-06
-0.000429548
1.46663e-05
-0.000432818
4.0607e-05
-0.000435103
7.32513e-05
-0.000436317
0.000112497
-0.000436363
0.000157788
-0.000435134
0.000208024
-0.000432518
0.000261494
-0.000428388
0.000315787
-0.000422614
0.000367799
-0.000415055
0.000413728
-0.000405566
0.000449221
-0.000394
0.000469476
-0.000380223
0.000469649
-0.000364117
0.000445015
-0.000345613
0.000391718
-0.000324697
0.000306804
-0.000301456
0.000189452
-0.000276067
4.02993e-05
-0.000248871
-0.000136451
-0.000220249
-0.000335986
-0.00019074
-0.000548248
-0.000160805
-0.000765337
-0.000131013
-0.000971511
-0.000101529
-0.0011599
-7.27261e-05
-0.00130936
-4.40228e-05
-0.00141947
-1.5662e-05
-0.00146405
1.40455e-05
-0.00145326
4.42349e-05
-0.00136171
7.79091e-05
-0.00120387
0.000112177
-0.00098162
0.000151698
-0.00067971
0.000190422
-0.000386059
0.000235329
7.75907e-06
0.000277714
0.000259836
0.000326794
0.000633387
0.000618768
-0.000371869
-1.1192e-05
-0.000379981
-1.76414e-05
-0.00038749
-2.17622e-05
-0.000394356
-2.28244e-05
-0.000400529
-2.00968e-05
-0.000405954
-1.27982e-05
-0.000410591
-1.68375e-07
-0.00041437
1.84452e-05
-0.000417218
4.34551e-05
-0.00041906
7.50932e-05
-0.000419809
0.000113246
-0.000419369
0.000157349
-0.000417634
0.000206289
-0.00041449
0.00025835
-0.000409811
0.000311108
-0.000403465
0.000361453
-0.000395312
0.000405575
-0.000385209
0.000439118
-0.000373011
0.000457278
-0.000358589
0.000455227
-0.000341834
0.000428259
-0.000322688
0.000372572
-0.000301153
0.000285268
-0.000277336
0.000165636
-0.000251438
1.44009e-05
-0.000223832
-0.000164057
-0.000194927
-0.00036489
-0.000165297
-0.000577878
-0.000135444
-0.00079519
-0.000105966
-0.00100099
-7.70686e-05
-0.0011888
-4.91425e-05
-0.00133728
-2.16279e-05
-0.00144699
5.25054e-06
-0.00149093
3.32123e-05
-0.00148123
6.14647e-05
-0.00138996
9.31251e-05
-0.00123553
0.000125396
-0.00101389
0.000163155
-0.000717468
0.000200372
-0.000423276
0.000244294
-3.61631e-05
0.000286205
0.000217925
0.000335346
0.000584246
0.000570704
-0.000357236
-2.82945e-06
-0.000365027
-9.85052e-06
-0.0003722
-1.45898e-05
-0.000378713
-1.63112e-05
-0.000384514
-1.42954e-05
-0.000389544
-7.7687e-06
-0.000393774
4.06246e-06
-0.000397118
2.17889e-05
-0.00039951
4.58473e-05
-0.000400876
7.64585e-05
-0.000401127
0.000113498
-0.000400169
0.000156391
-0.000397897
0.000204017
-0.000394194
0.000254647
-0.000388938
0.000305851
-0.000381997
0.000354512
-0.000373229
0.000396807
-0.000362495
0.000428384
-0.000349654
0.000444437
-0.00033458
0.000440154
-0.000317174
0.000410853
-0.00029739
0.000352788
-0.000275242
0.00026312
-0.000250854
0.000141248
-0.000224472
-1.19805e-05
-0.00019646
-0.00019207
-0.000167281
-0.000394069
-0.000137532
-0.000607627
-0.000107754
-0.000824968
-7.85731e-05
-0.00103017
-5.02347e-05
-0.00121713
-2.31477e-05
-0.00136437
3.22065e-06
-0.00147336
2.86643e-05
-0.00151637
5.49204e-05
-0.00150748
8.1267e-05
-0.00141631
0.000110929
-0.0012652
0.000141203
-0.00104417
0.000177175
-0.00075344
0.000212854
-0.000458955
0.000255733
-7.90426e-05
0.000297109
0.00017655
0.000346223
0.000535132
0.000522416
-0.000340816
5.2006e-06
-0.00034825
-2.41642e-06
-0.000355055
-7.78525e-06
-0.000361185
-1.01806e-05
-0.000366585
-8.89609e-06
-0.000371196
-3.15764e-06
-0.000374986
7.85235e-06
-0.000377865
2.46682e-05
-0.000379772
4.77543e-05
-0.000380631
7.73176e-05
-0.000380356
0.000113222
-0.000378852
0.000154887
-0.000376014
0.000201178
-0.000371728
0.000250362
-0.000365871
0.000299994
-0.000358312
0.000346953
-0.000348913
0.000387408
-0.000337536
0.000417007
-0.000324042
0.000430943
-0.000308315
0.000424426
-0.00029026
0.000392798
-0.000269844
0.000332372
-0.000247096
0.000240372
-0.000222156
0.000116309
-0.000195293
-3.88438e-05
-0.000166895
-0.000220468
-0.000137452
-0.000423512
-0.000107587
-0.000637491
-7.78784e-05
-0.000854677
-4.89773e-05
-0.00105907
-2.11688e-05
-0.00124494
5.12278e-06
-0.00139066
3.03955e-05
-0.00149863
5.44557e-05
-0.00154043
7.90586e-05
-0.00153209
0.000103543
-0.00144079
0.000131233
-0.00129289
0.000159522
-0.00107246
0.000193695
-0.000787613
0.000227811
-0.000493071
0.000269594
-0.000120826
0.000310375
0.000135769
0.00035937
0.000486137
0.000473988
-0.000322642
1.28528e-05
-0.000329712
4.65348e-06
-0.000336114
-1.38243e-06
-0.000341837
-4.4577e-06
-0.000346802
-3.93125e-06
-0.000350984
1.02415e-06
-0.000354299
1.11673e-05
-0.000356688
2.70576e-05
-0.000358085
4.9151e-05
-0.000358413
7.76453e-05
-0.000357586
0.000112395
-0.000355511
0.000152812
-0.000352084
0.000197751
-0.000347193
0.000245471
-0.000340716
0.000293517
-0.000332523
0.000338761
-0.000322479
0.000377364
-0.000310449
0.000404976
-0.000296299
0.000416793
-0.000279918
0.000408045
-0.00026122
0.000374101
-0.000240183
0.000311335
-0.000216849
0.000217039
-0.000191377
9.08359e-05
-0.00016405
-6.61702e-05
-0.000135282
-0.000249236
-0.000105588
-0.000453206
-7.56134e-05
-0.000667466
-4.59698e-05
-0.00088432
-1.73303e-05
-0.00108771
9.97862e-06
-0.00127225
3.55146e-05
-0.0014162
5.97511e-05
-0.00152286
8.24913e-05
-0.00156317
0.000105503
-0.0015551
0.000128179
-0.00146347
0.000153937
-0.00131864
0.000180265
-0.00109878
0.000212636
-0.000819985
0.000245173
-0.000525608
0.000285812
-0.000161465
0.000325939
9.56422e-05
0.000374724
0.000437352
0.000425504
-0.000302786
2.01099e-05
-0.000309438
1.13051e-05
-0.000315447
4.62699e-06
-0.00032073
8.24728e-07
-0.000325255
5.93869e-07
-0.000328964
4.73394e-06
-0.00033179
1.39933e-05
-0.000333669
2.89365e-05
-0.000334535
5.00167e-05
-0.000334311
7.74211e-05
-0.000332912
0.000110997
-0.000330247
0.000150147
-0.000326212
0.000193717
-0.000320698
0.000239957
-0.000313584
0.000286403
-0.000304745
0.000329921
-0.000294047
0.000366666
-0.000281359
0.000392288
-0.000266552
0.000401986
-0.000249521
0.000391014
-0.00023019
0.00035477
-0.000208546
0.000289691
-0.000184645
0.000193138
-0.000158657
6.48475e-05
-0.000130891
-9.39359e-05
-0.000101772
-0.000278355
-7.18435e-05
-0.000483135
-4.17663e-05
-0.000697543
-1.21843e-05
-0.000913902
1.62082e-05
-0.0011161
4.30494e-05
-0.00129909
6.78795e-05
-0.00144103
9.11379e-05
-0.00154612
0.000112627
-0.00158466
0.000134119
-0.00157659
0.000155052
-0.0014844
0.00017893
-0.00134252
0.000203331
-0.00112318
0.000233909
-0.000850562
0.00026486
-0.000556559
0.00030431
-0.000200915
0.000343727
5.62253e-05
0.000392211
0.000388867
0.00037705
-0.000281294
2.69509e-05
-0.000287522
1.75329e-05
-0.000293091
1.01959e-05
-0.000297932
5.66562e-06
-0.000301995
4.65717e-06
-0.000305218
7.95657e-06
-0.000307538
1.63136e-05
-0.000308891
3.02898e-05
-0.000309211
5.03359e-05
-0.000308419
7.66295e-05
-0.000306433
0.00010901
-0.000303162
0.000146876
-0.000298505
0.00018906
-0.000292355
0.000233807
-0.000284594
0.000278643
-0.0002751
0.000320427
-0.000263742
0.000355308
-0.000250394
0.00037894
-0.000234933
0.000386525
-0.000217261
0.000373341
-0.000197309
0.000334818
-0.000175074
0.000267456
-0.000150629
0.000168693
-0.000124147
3.83657e-05
-9.59675e-05
-0.000122115
-6.65205e-05
-0.000307802
-3.63745e-05
-0.000513281
-6.19699e-06
-0.000727721
2.33134e-05
-0.000943413
5.14735e-05
-0.00114426
7.7881e-05
-0.0013255
0.000102054
-0.0014652
0.000124398
-0.00156847
0.000144711
-0.00160498
0.000164761
-0.00159664
0.000184029
-0.00150367
0.000206089
-0.00136458
0.00022861
-0.00114571
0.000257412
-0.000879364
0.000286779
-0.000585926
0.000325004
-0.000239139
0.000363658
1.75713e-05
0.000411752
0.000340773
0.000328709
-0.000258217
3.33574e-05
-0.000264007
2.33224e-05
-0.000269124
1.53137e-05
-0.000273505
1.00463e-05
-0.000277091
8.24301e-06
-0.000279817
1.06829e-05
-0.000281622
1.81182e-05
-0.000282439
3.11072e-05
-0.000282201
5.00982e-05
-0.000280832
7.52601e-05
-0.000278248
0.000106427
-0.000274362
0.000142989
-0.000269074
0.000183772
-0.00026228
0.000227012
-0.000253865
0.000270228
-0.000243711
0.000310273
-0.000231692
0.000343289
-0.000217687
0.000364935
-0.000201579
0.000370417
-0.000183276
0.000355038
-0.000162719
0.000314261
-0.000139913
0.000244651
-0.000114946
0.000143725
-8.79996e-05
1.14194e-05
-5.9432e-05
-0.000150683
-2.968e-05
-0.000337554
7.39211e-07
-0.0005437
3.09074e-05
-0.000757889
6.03613e-05
-0.000972867
8.83038e-05
-0.00117221
0.000114307
-0.0013515
0.00013787
-0.00148876
0.000159367
-0.00158996
0.000178583
-0.00162419
0.000197279
-0.00161533
0.000214965
-0.00152135
0.000235281
-0.0013849
0.00025598
-0.0011664
0.000283035
-0.000906419
0.000310829
-0.00061372
0.000347797
-0.000276107
0.00038564
-2.02714e-05
0.000433258
0.000293155
0.000280565
-0.000233606
3.93146e-05
-0.000238943
2.86594e-05
-0.000243601
1.99715e-05
-0.000247511
1.39569e-05
-0.000250613
1.13441e-05
-0.000252837
1.2907e-05
-0.00025412
1.9402e-05
-0.000254397
3.13837e-05
-0.000253598
4.92988e-05
-0.000251646
7.33083e-05
-0.00024846
0.000103241
-0.000243954
0.000138483
-0.000238031
0.000177849
-0.000230589
0.000219571
-0.000221519
0.000261158
-0.000210706
0.00029946
-0.000198028
0.000330612
-0.000183372
0.000350278
-0.000166626
0.000353671
-0.000147706
0.000336119
-0.000126562
0.000293117
-0.000103209
0.000221298
-7.77383e-05
0.000118254
-5.03725e-05
-1.59464e-05
-2.14351e-05
-0.00017962
8.59846e-06
-0.000367588
3.90992e-05
-0.000574201
6.9408e-05
-0.000788198
9.87955e-05
-0.00100225
0.000126531
-0.00119994
0.000152157
-0.00137713
0.000175161
-0.00151177
0.000195877
-0.00161068
0.000214079
-0.00164239
0.000231513
-0.00163277
0.00024771
-0.00153755
0.000266365
-0.00140355
0.000285311
-0.00118535
0.000310657
-0.000931765
0.000336899
-0.000639963
0.000372588
-0.000311796
0.000409575
-5.7259e-05
0.000456634
0.000246096
0.000232697
-0.000207509
4.48123e-05
-0.000212386
3.35356e-05
-0.000216577
2.4163e-05
-0.000220013
1.73933e-05
-0.000222628
1.39585e-05
-0.000224349
1.46278e-05
-0.000225112
2.0165e-05
-0.000224848
3.11199e-05
-0.000223488
4.79387e-05
-0.000220955
7.07754e-05
-0.000217168
9.94544e-05
-0.000212043
0.000133358
-0.000205487
0.000171293
-0.0001974
0.000211484
-0.000187677
0.000251435
-0.000176209
0.000287992
-0.00016288
0.000317283
-0.000147582
0.00033498
-0.000130212
0.000336301
-0.000110693
0.0003166
-8.89838e-05
0.000271408
-6.51077e-05
0.000197421
-3.9171e-05
9.23176e-05
-1.13906e-05
-4.37268e-05
1.78641e-05
-0.000208875
4.81278e-05
-0.000397852
7.87863e-05
-0.000604859
0.000109139
-0.00081855
0.000138451
-0.00103157
0.000165987
-0.00122748
0.000191264
-0.00140241
0.000213754
-0.00153426
0.000233757
-0.00163068
0.000251031
-0.00165967
0.000267299
-0.00164904
0.000282107
-0.00155236
0.000299193
-0.00142064
0.000316465
-0.00120262
0.000340151
-0.000955451
0.000364872
-0.000664683
0.000399266
-0.00034619
0.00043536
-9.33538e-05
0.000481782
0.000199674
0.000185183
-0.000179973
4.98439e-05
-0.000184384
3.79468e-05
-0.000188108
2.78868e-05
-0.000191071
2.0356e-05
-0.000193201
1.60885e-05
-0.000194423
1.58497e-05
-0.00019467
2.04127e-05
-0.000193873
3.03222e-05
-0.000191959
4.6025e-05
-0.000188852
6.76684e-05
-0.000184472
9.50742e-05
-0.000178735
0.000127621
-0.000171552
0.00016411
-0.000162827
0.000202759
-0.00015246
0.000241067
-0.000140346
0.000275878
-0.000126377
0.000303314
-0.000110451
0.000319054
-9.24731e-05
0.000318323
-7.23753e-05
0.000296502
-5.01245e-05
0.000249157
-2.57517e-05
0.000173049
6.93165e-07
6.58728e-05
2.87607e-05
-7.17943e-05
5.83111e-05
-0.000238425
8.8789e-05
-0.000428329
0.000119565
-0.000635635
0.000149939
-0.000848925
0.000179166
-0.00106079
0.000206507
-0.00125482
0.000231458
-0.00142736
0.000253479
-0.00155628
0.000272837
-0.00165004
0.000289267
-0.0016761
0.00030447
-0.00166424
0.000317995
-0.00156588
0.000333612
-0.00143626
0.000349298
-0.00121831
0.000371383
-0.000977537
0.000394622
-0.000687922
0.000427714
-0.000379282
0.000462885
-0.000128525
0.000508598
0.000153962
0.000138095
-0.000151038
5.44073e-05
-0.000154985
4.18936e-05
-0.000158244
3.11458e-05
-0.000160739
2.28504e-05
-0.000162392
1.77419e-05
-0.000163124
1.65821e-05
-0.000162868
2.01563e-05
-0.000161549
2.90028e-05
-0.000159094
4.35705e-05
-0.000155426
6.40006e-05
-0.000150466
9.01136e-05
-0.000144131
0.000121287
-0.000136335
0.000156313
-0.000126985
0.00019341
-0.000115986
0.000230068
-0.000103241
0.000263133
-8.86471e-05
0.00028872
-7.21106e-05
0.000302518
-5.35451e-05
0.000299757
-3.28907e-05
0.000275848
-1.01184e-05
0.000226385
1.47131e-05
0.000148217
4.14854e-05
3.91005e-05
6.99566e-05
-0.000100266
9.97669e-05
-0.000268235
0.00013042
-0.000458983
0.000161281
-0.000666497
0.000191653
-0.000879296
0.000220779
-0.00108992
0.000247927
-0.00128196
0.000272573
-0.001452
0.000294167
-0.00157787
0.000312944
-0.00166882
0.000328617
-0.00169177
0.000342856
-0.00167848
0.000355208
-0.00157823
0.000369463
-0.00145051
0.00038366
-0.0012325
0.000404213
-0.00099809
0.000426018
-0.000709728
0.000457812
-0.000411075
0.000492035
-0.000162748
0.000536973
0.000109024
9.15012e-05
-0.000120743
5.85047e-05
-0.000124231
4.53808e-05
-0.000127033
3.39478e-05
-0.000129069
2.48867e-05
-0.000130258
1.89315e-05
-0.000130516
1.68401e-05
-0.000129773
1.94124e-05
-0.00012795
2.71799e-05
-0.000124974
4.05944e-05
-0.000120765
5.97917e-05
-0.000115243
8.45922e-05
-0.00010833
0.000114373
-9.99387e-05
0.000147922
-8.9983e-05
0.000183454
-7.83714e-05
0.000218456
-6.50141e-05
0.000249776
-4.98153e-05
0.000273522
-3.26894e-05
0.000285392
-1.35579e-05
0.000280626
7.62966e-06
0.000254661
3.08765e-05
0.000203138
5.61382e-05
0.000122955
8.32857e-05
1.1953e-05
0.000112052
-0.000129032
0.000142082
-0.000298265
0.000172872
-0.000489773
0.000203784
-0.000697408
0.000234125
-0.000909637
0.000263136
-0.00111893
0.000290087
-0.00130892
0.000314445
-0.00147636
0.000335651
-0.00159908
0.00035391
-0.00168708
0.00036891
-0.00170677
0.000382289
-0.00169186
0.000393582
-0.00158953
0.000406586
-0.00146352
0.000419399
-0.00124532
0.000438496
-0.00101719
0.000458927
-0.000730159
0.000489433
-0.000441582
0.000522692
-0.000196006
0.000566797
6.49184e-05
4.5465e-05
-8.91208e-05
6.21426e-05
-9.21579e-05
4.84179e-05
-9.45154e-05
3.63053e-05
-9.6109e-05
2.64803e-05
-9.68527e-05
1.96752e-05
-9.66565e-05
1.66439e-05
-9.54476e-05
1.82035e-05
-9.31452e-05
2.48775e-05
-8.96726e-05
3.71218e-05
-8.49482e-05
5.50672e-05
-7.88917e-05
7.85358e-05
-7.14248e-05
0.000106906
-6.24646e-05
0.000138962
-5.19275e-05
0.000172917
-3.97273e-05
0.000206256
-2.57818e-05
0.00023583
-1.00021e-05
0.000257742
7.6886e-06
0.000267701
2.73541e-05
0.00026096
4.90374e-05
0.000232977
7.27438e-05
0.000179432
9.84119e-05
9.72873e-05
0.000125873
-1.55081e-05
0.000154906
-0.000158065
0.000185113
-0.000328473
0.000216002
-0.000520662
0.000246927
-0.000728334
0.000277207
-0.000939917
0.000306082
-0.0011478
0.000332833
-0.00133567
0.000356915
-0.00150044
0.000377768
-0.00161993
0.000395568
-0.00170487
0.000409977
-0.00172118
0.000422598
-0.00170448
0.000432947
-0.00159988
0.000444819
-0.00147539
0.000456359
-0.00125686
0.000474085
-0.00103491
0.000493208
-0.000749282
0.000522447
-0.000470821
0.000554734
-0.000228293
0.000597956
2.1696e-05
4.33005e-08
-5.61993e-05
6.53329e-05
-5.88007e-05
5.10194e-05
-6.0731e-05
3.82355e-05
-6.1902e-05
2.76513e-05
-6.22229e-05
1.99962e-05
-6.15981e-05
1.60191e-05
-5.99519e-05
1.65573e-05
-5.71998e-05
2.21254e-05
-5.32619e-05
3.3184e-05
-4.80539e-05
4.98591e-05
-4.14945e-05
7.19764e-05
-3.35062e-05
9.89178e-05
-2.40082e-05
0.000129464
-1.29203e-05
0.000161829
-1.68664e-07
0.000193505
1.43436e-05
0.000221318
3.06744e-05
0.000241411
4.88981e-05
0.000249477
6.90712e-05
0.000240787
9.12234e-05
0.000210825
0.000115351
0.000155304
0.000141377
7.1261e-05
0.000169132
-4.32628e-05
0.00019838
-0.000187313
0.000228724
-0.000358816
0.000259668
-0.000551606
0.000290568
-0.000759235
0.000320755
-0.000970104
0.00034947
-0.00117652
0.000376011
-0.00136221
0.000399828
-0.00152426
0.000420359
-0.00164047
0.000437755
-0.00172227
0.000451653
-0.00173508
0.000463616
-0.00171644
0.000473139
-0.0016094
0.000483996
-0.00148625
0.000494382
-0.00126724
0.000510829
-0.00105136
0.00052872
-0.000767172
0.000556723
-0.000498825
0.000588039
-0.000259608
0.000630337
-2.06027e-05
-4.47131e-05
-2.20027e-05
6.80924e-05
-2.4188e-05
5.32046e-05
-2.57133e-05
3.97608e-05
-2.6487e-05
2.8425e-05
-2.64133e-05
1.99225e-05
-2.53906e-05
1.49965e-05
-2.33406e-05
1.45072e-05
-2.01745e-05
1.89593e-05
-1.58088e-05
2.88183e-05
-1.01563e-05
4.42066e-05
-3.13994e-06
6.496e-05
5.33909e-06
9.04388e-05
1.53408e-05
0.000119462
2.69441e-05
0.000150226
4.02262e-05
0.000180222
5.52553e-05
0.000206289
7.21035e-05
0.000224563
9.08278e-05
0.000230753
0.000111473
0.000220142
0.000134059
0.000188239
0.00015857
0.000130793
0.000184917
4.49139e-05
0.000212922
-7.12677e-05
0.000242345
-0.000216736
0.000272779
-0.00038925
0.000303735
-0.000582561
0.00033457
-0.00079007
0.000364628
-0.00100016
0.000393159
-0.00120505
0.000419478
-0.00138853
0.000443035
-0.00154782
0.000463271
-0.0016607
0.000480313
-0.00173931
0.000493777
-0.00174854
0.000505181
-0.00172784
0.000513993
-0.00161821
0.000523958
-0.00149621
0.00053331
-0.0012766
0.000548579
-0.00106663
0.00056532
-0.000783913
0.000592127
-0.000525633
0.000622481
-0.000289962
0.000663824
-6.1946e-05
-8.87607e-05
1.34492e-05
1.16553e-05
5.49985e-05
1.05073e-05
4.09088e-05
1.01005e-05
2.88318e-05
1.05356e-05
1.94873e-05
1.19205e-05
1.36116e-05
1.43363e-05
1.20914e-05
1.78763e-05
1.54193e-05
2.26286e-05
2.4066e-05
2.86849e-05
3.81503e-05
3.61304e-05
5.75145e-05
4.50417e-05
8.15275e-05
5.54979e-05
0.000109006
6.75728e-05
0.000138151
8.13368e-05
0.000166458
9.6851e-05
0.000190775
0.000114178
0.000207236
0.000133365
0.000211566
0.000154445
0.000199061
0.000177427
0.000165258
0.00020228
0.00010594
0.000228908
1.8285e-05
0.000257119
-9.94783e-05
0.000286671
-0.000246288
0.00031715
-0.000419729
0.000348072
-0.000613484
0.000378798
-0.000820796
0.000408691
-0.00103005
0.00043701
-0.00123337
0.000463092
-0.00141461
0.000486392
-0.00157112
0.000506355
-0.00168066
0.000523092
-0.00175605
0.000536192
-0.00176164
0.000547131
-0.00173878
0.000555346
-0.00162643
0.000564542
-0.00150541
0.000572987
-0.00128504
0.000587182
-0.00108082
0.000602863
-0.000799595
0.000628523
-0.000551293
0.000657933
-0.000319372
0.0006983
-0.000102312
-0.000132063
4.87071e-05
5.64318e-05
4.79039e-05
4.1712e-05
4.7829e-05
2.89067e-05
4.85881e-05
1.87283e-05
5.02949e-05
1.19048e-05
5.3033e-05
9.35332e-06
5.69e-05
1.15523e-05
6.19898e-05
1.89762e-05
6.83988e-05
3.17413e-05
7.62154e-05
4.96979e-05
8.55163e-05
7.22265e-05
9.63808e-05
9.81417e-05
0.00010888
0.000125652
0.000123079
0.000152259
0.000139034
0.00017482
0.000156796
0.000189473
0.000176403
0.000191959
0.000197877
0.000177588
0.000221211
0.000141923
0.000246368
8.07838e-05
0.000273227
-8.57401e-06
0.000301602
-0.000127853
0.000331236
-0.000275922
0.000361711
-0.000450204
0.000392552
-0.000644325
0.000423126
-0.00085137
0.000452814
-0.00105974
0.000480892
-0.00126145
0.00050672
-0.00144044
0.000529762
-0.00159416
0.000549471
-0.00170037
0.000565944
-0.00177252
0.000578747
-0.00177445
0.000589312
-0.00174935
0.000597044
-0.00163416
0.000605591
-0.00151395
0.000613257
-0.00129271
0.000626487
-0.00109405
0.000641206
-0.000814313
0.000665777
-0.000575864
0.00069427
-0.000347865
0.000733648
-0.000141691
-0.000174591
8.69474e-05
5.75412e-05
8.64502e-05
4.22092e-05
8.66664e-05
2.86905e-05
8.77063e-05
1.76884e-05
8.96899e-05
9.92115e-06
9.27023e-05
6.34089e-06
9.68452e-05
7.40946e-06
0.000102219
1.36029e-05
0.000108926
2.50336e-05
0.000117059
4.15647e-05
0.000126695
6.25908e-05
0.000137914
8.69234e-05
0.000150784
0.000112782
0.000165367
0.000137675
0.000181711
0.000158476
0.000199861
0.000171324
0.000219842
0.000171978
0.000241662
0.000155768
0.000265305
0.00011828
0.000290715
5.53731e-05
0.000317764
-3.56223e-05
0.000346252
-0.000156342
0.000375919
-0.000305589
0.000406342
-0.000480627
0.000437053
-0.000675037
0.000467429
-0.000881746
0.000496873
-0.00108919
0.000524678
-0.00128925
0.000550233
-0.00146599
0.000573013
-0.00161694
0.000592484
-0.00171985
0.000608731
-0.00178877
0.0006213
-0.00178701
0.000631577
-0.00175962
0.000638932
-0.00164151
0.000646951
-0.00152197
0.000653966
-0.00129972
0.000666347
-0.00110643
0.000680205
-0.000828171
0.000703752
-0.000599411
0.000731365
-0.000375478
0.000769754
-0.00018008
-0.000216325
0.000126357
5.83704e-05
0.000126122
4.2445e-05
0.000126582
2.82296e-05
0.000127856
1.64152e-05
0.000130069
7.70801e-06
0.000133307
3.10291e-06
0.00013767
3.04659e-06
0.000143263
8.00906e-06
0.000150209
1.80882e-05
0.0001586
3.3174e-05
0.00016851
5.26799e-05
0.000180023
7.54106e-05
0.000193206
9.95993e-05
0.000208117
0.000122764
0.000224796
0.000141797
0.00024328
0.00015284
0.000263583
0.000151675
0.0002857
0.00013365
0.000309602
9.43787e-05
0.000335218
2.97568e-05
0.000362405
-6.28094e-05
0.000390958
-0.000184895
0.000420607
-0.000335237
0.000450925
-0.000510945
0.000481457
-0.000705569
0.000511587
-0.000911876
0.000540746
-0.00111835
0.000568247
-0.00131676
0.000593508
-0.00149125
0.000616021
-0.00163945
0.000635266
-0.00173909
0.00065132
-0.00180482
0.000663711
-0.00179941
0.000673781
-0.00176969
0.000680865
-0.0016486
0.000688473
-0.00152958
0.000694966
-0.00130621
0.000706614
-0.00111808
0.000719718
-0.000841275
0.000742315
-0.000622009
0.000769092
-0.000402254
0.000806501
-0.000217489
-0.000257252
0.000166917
5.89699e-05
0.000166892
4.24702e-05
0.000167546
2.75757e-05
0.000169001
1.49595e-05
0.000171392
5.31737e-06
0.000174795
-3.00331e-07
0.000179317
-1.47525e-06
0.000185075
2.25168e-06
0.00019219
1.09724e-05
0.000200774
2.45907e-05
0.000210896
4.25579e-05
0.000222639
6.36671e-05
0.000236072
8.61669e-05
0.000251248
0.000107588
0.000268203
0.000124842
0.000286963
0.00013408
0.000307533
0.000131106
0.000329895
0.000111289
0.000354001
7.02725e-05
0.000379772
3.98612e-06
0.000407045
-9.00831e-05
0.00043561
-0.00021346
0.000465186
-0.000364813
0.000495347
-0.000541105
0.000525649
-0.00073587
0.000555487
-0.000941714
0.000584319
-0.00114718
0.000611483
-0.00134392
0.000636428
-0.0015162
0.000658668
-0.00166169
0.000677696
-0.00175812
0.000693587
-0.00182071
0.000705853
-0.00181167
0.00071579
-0.00177963
0.000722702
-0.00165551
0.000730014
-0.00153689
0.000736112