/*--------------------------------*- C++ -*----------------------------------*\
  =========                 |
  \\      /  F ield         | OpenFOAM: The Open Source CFD Toolbox
   \\    /   O peration     | Website:  https://openfoam.org
    \\  /    A nd           | Version:  7
     \\/     M anipulation  |
\*---------------------------------------------------------------------------*/
FoamFile
{
    version     2.0;
    format      ascii;
    class       volVectorField;
    location    "50";
    object      U;
}
// * * * * * * * * * * * * * * * * * * * * * * * * * * * * * * * * * * * * * //

dimensions      [0 1 -1 0 0 0 0];

internalField   nonuniform List<vector> 
8500
(
(-0.209677 -0.00999985 -8.77229e-22)
(-0.215064 -0.0103359 1.36389e-21)
(-0.220234 -0.0104126 5.59449e-22)
(-0.225175 -0.0101661 -2.78054e-22)
(-0.229874 -0.00953012 -8.94504e-22)
(-0.234311 -0.0084399 -5.47569e-23)
(-0.238468 -0.00683571 9.05277e-22)
(-0.242319 -0.00466763 -1.55869e-21)
(-0.245837 -0.00190224 8.76688e-22)
(-0.248986 0.00147254 -1.77176e-22)
(-0.251729 0.00543574 -7.29337e-22)
(-0.254022 0.00993621 -1.32856e-22)
(-0.255817 0.0148816 1.55664e-21)
(-0.257061 0.0201328 -1.49755e-21)
(-0.257698 0.0255039 4.50251e-22)
(-0.257666 0.0307616 -5.18395e-22)
(-0.256902 0.0356308 -6.59163e-23)
(-0.255333 0.0398019 -7.60047e-22)
(-0.252886 0.0429456 5.62078e-22)
(-0.249473 0.0447292 -9.64308e-22)
(-0.245013 0.0448429 1.0765e-21)
(-0.2394 0.0430188 7.90677e-22)
(-0.232567 0.0390719 -5.27655e-22)
(-0.224399 0.0329079 9.40145e-22)
(-0.214894 0.0245833 -1.27517e-22)
(-0.203947 0.0142691 -1.33426e-22)
(-0.191707 0.00234856 -4.66418e-22)
(-0.178073 -0.0107325 1.20867e-22)
(-0.163396 -0.0242608 5.78005e-23)
(-0.147504 -0.0376206 -3.66988e-23)
(-0.130936 -0.0498419 2.05676e-22)
(-0.113317 -0.0603765 3.83807e-23)
(-0.0951949 -0.0681306 -2.59219e-22)
(-0.0760508 -0.072881 -3.81129e-22)
(-0.0559693 -0.0736435 1.9965e-22)
(-0.0350773 -0.0705642 1.92082e-22)
(-0.0118133 -0.063454 -1.20986e-22)
(0.0107233 -0.0520546 9.36066e-23)
(0.0385495 -0.0387926 1.31043e-22)
(0.0609868 -0.0205778 -1.52993e-22)
(0.0941738 -0.00561709 -1.75517e-23)
(0.112457 0.0156699 3.46455e-23)
(0.151844 0.0263498 4.36431e-25)
(0.160456 0.0450891 -5.40215e-23)
(0.209122 0.0427649 1.92052e-23)
(-0.209103 -0.00861109 1.34931e-21)
(-0.214478 -0.00903501 -2.86658e-21)
(-0.219633 -0.00919906 3.3202e-21)
(-0.224558 -0.00903971 -6.06406e-21)
(-0.229238 -0.00849117 4.52711e-21)
(-0.233655 -0.0074893 -1.22741e-21)
(-0.237789 -0.00597489 -1.73414e-21)
(-0.241615 -0.0038985 7.08305e-22)
(-0.245104 -0.00122647 3.45707e-21)
(-0.248222 0.00204976 -9.06642e-22)
(-0.250928 0.00591162 7.30156e-21)
(-0.253178 0.0103067 -4.0537e-21)
(-0.25492 0.0151421 -4.97136e-22)
(-0.256098 0.0202786 1.73653e-21)
(-0.256652 0.0255301 6.2032e-22)
(-0.256515 0.0306633 -1.07915e-21)
(-0.255618 0.0354027 -7.43611e-22)
(-0.253882 0.0394385 2.432e-21)
(-0.25123 0.0424412 -9.08665e-22)
(-0.247568 0.0440776 2.82076e-21)
(-0.242815 0.0440382 6.18028e-22)
(-0.236864 0.0420557 -5.00018e-22)
(-0.229652 0.0379472 2.41881e-22)
(-0.221075 0.0316209 -1.57071e-21)
(-0.211147 0.0231389 1.12502e-21)
(-0.199779 0.0126763 -2.56696e-22)
(-0.18715 0.000625342 -7.41699e-22)
(-0.173183 -0.0125684 8.48751e-22)
(-0.158267 -0.0261811 -6.9543e-23)
(-0.142252 -0.0396067 -3.75077e-22)
(-0.125724 -0.0518653 6.90431e-22)
(-0.10831 -0.0624376 -8.63141e-22)
(-0.0906077 -0.0702079 3.854e-22)
(-0.07206 -0.0750117 8.29031e-22)
(-0.0527923 -0.0757999 -1.20973e-21)
(-0.0328483 -0.0728268 -4.51291e-22)
(-0.0106642 -0.0657433 -5.09076e-23)
(0.0107389 -0.0544953 -3.50498e-22)
(0.0375067 -0.0411983 8.05051e-23)
(0.0588642 -0.0231268 4.17765e-22)
(0.0913972 -0.00799886 6.26616e-23)
(0.108883 0.0131831 -1.83492e-22)
(0.14834 0.024165 4.9115e-23)
(0.156679 0.0427907 7.37533e-23)
(0.206196 0.0406242 3.86719e-23)
(-0.207636 -0.00722799 1.05533e-21)
(-0.212971 -0.00774118 3.99877e-21)
(-0.218084 -0.00799413 -2.59941e-21)
(-0.222964 -0.00792368 2.42491e-21)
(-0.227596 -0.00746443 -6.5377e-21)
(-0.231964 -0.00655283 2.57418e-21)
(-0.236046 -0.00513022 -2.20225e-22)
(-0.239817 -0.00314745 -8.07444e-22)
(-0.243248 -0.00056939 8.41867e-22)
(-0.246304 0.00260516 -1.71346e-21)
(-0.248943 0.00636362 -1.18299e-21)
(-0.251119 0.0106513 3.56642e-21)
(-0.252777 0.0153747 4.15649e-22)
(-0.253859 0.0203944 -1.19481e-21)
(-0.254299 0.0255241 -1.64144e-21)
(-0.254026 0.0305302 3.13795e-21)
(-0.252965 0.0351373 -3.19103e-21)
(-0.251034 0.0390349 1.29003e-21)
(-0.248147 0.0418938 -1.83474e-21)
(-0.24421 0.0433803 -2.02081e-21)
(-0.239137 0.0431855 2.18638e-22)
(-0.232824 0.0410429 2.90726e-21)
(-0.225214 0.0367723 -3.71939e-21)
(-0.216209 0.0302847 2.31643e-21)
(-0.205841 0.0216482 -2.15039e-21)
(-0.194039 0.0110423 -1.21601e-21)
(-0.181009 -0.00113164 6.15124e-22)
(-0.166698 -0.0144273 1.08767e-21)
(-0.151536 -0.0281116 1.1964e-21)
(-0.135389 -0.0415873 -1.49908e-21)
(-0.118895 -0.053866 -7.81958e-22)
(-0.101678 -0.0644572 8.25137e-22)
(-0.0843916 -0.0722253 2.82253e-22)
(-0.0664358 -0.0770648 -6.0656e-22)
(-0.0479863 -0.0778641 6.88432e-22)
(-0.0289952 -0.0749868 1.01411e-21)
(-0.00791122 -0.067925 1.03397e-21)
(0.0123401 -0.0568313 -3.65891e-22)
(0.0380111 -0.0435059 -1.14217e-22)
(0.0582616 -0.0255965 -4.28574e-22)
(0.0900919 -0.0103176 -3.76409e-23)
(0.106755 0.0107288 1.29088e-22)
(0.146236 0.0219883 -1.18182e-22)
(0.154294 0.040469 1.90167e-22)
(0.204602 0.0384504 -9.26683e-23)
(-0.205279 -0.00585773 -2.65473e-21)
(-0.210546 -0.00646141 2.2675e-21)
(-0.21559 -0.00680473 3.64586e-21)
(-0.220397 -0.00682483 -6.40656e-21)
(-0.224955 -0.00645659 3.51748e-21)
(-0.229245 -0.00563712 2.93554e-21)
(-0.233246 -0.00430821 -1.44912e-21)
(-0.236932 -0.00242099 3.87488e-21)
(-0.240276 5.92044e-05 -4.06125e-21)
(-0.243241 0.00313232 1.80194e-21)
(-0.245782 0.00678558 2.82109e-21)
(-0.247854 0.0109641 -4.50934e-23)
(-0.249398 0.0155736 -3.648e-21)
(-0.250352 0.0204744 -4.97914e-22)
(-0.250648 0.0254802 3.46095e-21)
(-0.250209 0.0303571 6.56333e-21)
(-0.248956 0.0348294 3.35743e-21)
(-0.2468 0.0385865 -1.66484e-21)
(-0.243652 0.041299 -7.50723e-22)
(-0.239413 0.0426332 -1.53274e-21)
(-0.233997 0.0422812 1.04568e-21)
(-0.227301 0.0399773 1.95899e-21)
(-0.219273 0.0355446 3.55959e-21)
(-0.209824 0.028897 -3.57057e-21)
(-0.199002 0.0201091 6.46103e-22)
(-0.186754 0.00936549 -2.42749e-21)
(-0.173314 -0.00292371 -1.61031e-22)
(-0.158651 -0.0163106 -4.05949e-21)
(-0.143234 -0.0300536 -6.69973e-22)
(-0.126947 -0.0435639 1.82111e-21)
(-0.110481 -0.0558453 4.00492e-22)
(-0.0934513 -0.0664366 7.06257e-22)
(-0.0765742 -0.0741839 -5.82775e-22)
(-0.0592018 -0.079041 -7.86505e-22)
(-0.0415699 -0.0798363 1.83845e-21)
(-0.0235308 -0.0770437 -1.4374e-21)
(-0.0035606 -0.0699979 -3.32656e-22)
(0.015527 -0.0590603 -4.04162e-22)
(0.0400688 -0.045713 3.70065e-22)
(0.0591901 -0.027984 2.42086e-22)
(0.0902718 -0.0125705 -3.79652e-23)
(0.10609 0.00830957 -1.25686e-22)
(0.145544 0.0198216 -1.0631e-23)
(0.153315 0.0381262 -2.6052e-22)
(0.204344 0.0362458 6.62015e-23)
(-0.202036 -0.00450735 -6.22957e-21)
(-0.207208 -0.00520255 -1.48217e-21)
(-0.212155 -0.00563756 5.03422e-21)
(-0.216864 -0.00574974 -4.97923e-21)
(-0.221319 -0.00547415 -8.56338e-23)
(-0.225503 -0.00474857 5.7611e-21)
(-0.229396 -0.00351518 -2.38787e-21)
(-0.232969 -0.0017249 -2.99599e-21)
(-0.236197 0.000653365 6.69345e-21)
(-0.239042 0.00362517 -8.89853e-21)
(-0.241457 0.00717155 -2.4147e-21)
(-0.243394 0.0112391 5.7483e-21)
(-0.244794 0.015733 -5.62585e-21)
(-0.245592 0.0205133 2.28435e-21)
(-0.245714 0.0253933 -5.39517e-21)
(-0.245081 0.0301389 -8.06454e-21)
(-0.243607 0.0344744 2.85345e-21)
(-0.241199 0.0380887 2.04439e-22)
(-0.237765 0.0406529 1.72565e-21)
(-0.2332 0.0418329 -1.19036e-21)
(-0.227419 0.0413222 -5.53588e-21)
(-0.22032 0.0388562 -2.06099e-21)
(-0.211857 0.0342617 -3.47305e-21)
(-0.20195 0.0274559 9.81497e-21)
(-0.190663 0.0185203 -2.36674e-22)
(-0.177958 0.00764456 2.18156e-21)
(-0.164101 -0.0047518 2.88659e-21)
(-0.149078 -0.0182195 2.36751e-22)
(-0.133402 -0.0320081 1.30529e-21)
(-0.116968 -0.0455376 9.86768e-22)
(-0.100521 -0.0578048 3.64646e-21)
(-0.0836677 -0.0683775 3.42257e-21)
(-0.0671908 -0.0760853 2.80727e-22)
(-0.0503899 -0.0809416 1.54599e-21)
(-0.0335698 -0.0817175 -2.61222e-21)
(-0.0164762 -0.0789976 4.65844e-22)
(0.00237317 -0.0719616 -7.48329e-22)
(0.020291 -0.061181 1.20724e-21)
(0.0436775 -0.0478177 -4.95169e-23)
(0.0616524 -0.0302871 6.62604e-24)
(0.0919427 -0.0147552 -1.42518e-22)
(0.106898 0.005928 6.36939e-23)
(0.146273 0.0176668 1.22507e-22)
(0.153748 0.0357652 3.89992e-23)
(0.205422 0.0340128 1.93175e-22)
(-0.19791 -0.00318346 -2.37812e-20)
(-0.202962 -0.00397129 1.89211e-20)
(-0.207787 -0.00449906 -1.45245e-20)
(-0.21237 -0.00470473 -7.60728e-21)
(-0.216696 -0.00452329 2.41798e-20)
(-0.220749 -0.00389332 -8.10778e-21)
(-0.224506 -0.0027571 -4.90494e-21)
(-0.227939 -0.00106343 1.34285e-20)
(-0.231024 0.0012107 -1.84368e-20)
(-0.23372 0.00407798 5.47501e-21)
(-0.23598 0.00751587 -5.0674e-21)
(-0.237755 0.0114708 -6.68414e-21)
(-0.238983 0.0158476 7.83349e-21)
(-0.239596 0.0205057 -2.99249e-21)
(-0.239517 0.0252584 8.67303e-21)
(-0.238661 0.029871 -9.40767e-21)
(-0.23694 0.0340678 3.09991e-21)
(-0.234255 0.0375377 -1.37001e-21)
(-0.230509 0.0399517 -4.6764e-22)
(-0.225597 0.040976 5.89509e-21)
(-0.219431 0.0403056 -2.00089e-21)
(-0.211911 0.0376773 9.51335e-21)
(-0.202998 0.0329218 -1.43614e-21)
(-0.192621 0.02596 -1.09695e-20)
(-0.18086 0.0168805 1.78405e-22)
(-0.167692 0.00587906 -1.7791e-21)
(-0.153413 -0.00661679 2.46266e-21)
(-0.138025 -0.0201548 -1.49468e-22)
(-0.122085 -0.0339764 2.47132e-21)
(-0.105496 -0.0475099 -3.32084e-21)
(-0.0890614 -0.0597461 -2.52893e-21)
(-0.0723727 -0.0702816 -2.49605e-21)
(-0.0562845 -0.0779313 -1.02339e-21)
(-0.0400396 -0.0827684 -1.40761e-23)
(-0.0240207 -0.0835091 1.17003e-21)
(-0.00786074 -0.0808494 1.43458e-21)
(0.00986725 -0.0738161 1.51521e-21)
(0.0266156 -0.0631929 -8.3527e-22)
(0.0488268 -0.0498188 -7.47154e-22)
(0.0656434 -0.0325035 -1.81215e-22)
(0.0951031 -0.0168696 -3.95815e-22)
(0.109179 0.00358661 -5.4919e-22)
(0.148421 0.0155261 -2.2139e-22)
(0.155591 0.0333889 2.06269e-22)
(0.207829 0.0317542 -2.80089e-22)
(-0.197814 -0.00277372 8.01365e-21)
(-0.202491 -0.00339553 -1.20616e-20)
(-0.206924 -0.00369583 -1.29435e-20)
(-0.211097 -0.00360992 -6.14244e-22)
(-0.214993 -0.00307718 3.78944e-21)
(-0.218587 -0.00203951 5.03222e-21)
(-0.221856 -0.0004399 1.82957e-20)
(-0.22477 0.00172479 -2.10842e-21)
(-0.227291 0.0044853 -8.22959e-22)
(-0.22937 0.00781321 9.06736e-21)
(-0.230955 0.0116542 -1.66171e-20)
(-0.231984 0.0159125 5.3415e-21)
(-0.232384 0.020447 -5.84679e-21)
(-0.232077 0.0250708 5.35354e-21)
(-0.230973 0.029549 7.26749e-21)
(-0.22898 0.0336057 -1.50942e-22)
(-0.225993 0.0369296 -1.22568e-21)
(-0.221915 0.0391921 3.23791e-21)
(-0.216634 0.0400598 -4.68653e-21)
(-0.210066 0.0392291 -7.57792e-21)
(-0.20211 0.0364388 3.92929e-21)
(-0.192736 0.0315234 -4.70578e-21)
(-0.181879 0.0244082 3.91679e-21)
(-0.169637 0.0151891 4.45928e-21)
(-0.156001 0.0040718 -1.21395e-21)
(-0.141296 -0.00851913 -3.52118e-22)
(-0.125541 -0.022117 4.47556e-21)
(-0.109333 -0.0359591 -6.54293e-21)
(-0.0925836 -0.0494817 3.05497e-21)
(-0.0761544 -0.0616705 -3.12442e-21)
(-0.0596182 -0.0721507 3.64387e-21)
(-0.0439054 -0.0797242 -1.05071e-21)
(-0.0281981 -0.0845236 1.27617e-21)
(-0.0129654 -0.0852131 -1.29833e-21)
(0.00227813 -0.0826007 2.7584e-22)
(0.0188907 -0.0755624 2.55359e-22)
(0.0344759 -0.0650959 1.36421e-21)
(0.0554984 -0.0517156 -9.04915e-22)
(0.0711499 -0.0346318 -4.83768e-22)
(0.0997434 -0.0189118 3.23861e-22)
(0.112928 0.00128795 6.48717e-22)
(0.15198 0.0134018 2.25943e-22)
(0.158838 0.0310006 1.26984e-22)
(0.211551 0.0294732 -1.22304e-22)
(-0.191771 -0.00161402 -5.2456e-21)
(-0.196277 -0.00233243 -1.44255e-20)
(-0.200535 -0.0027287 1.89712e-20)
(-0.204531 -0.00273959 3.52216e-21)
(-0.208245 -0.00230549 -1.32646e-20)
(-0.211653 -0.00136684 1.20006e-20)
(-0.214732 0.000132684 5.2294e-21)
(-0.217454 0.0021897 -1.21421e-20)
(-0.219773 0.00484208 -1.93352e-21)
(-0.221645 0.00805866 5.20315e-21)
(-0.223015 0.0117843 1.03686e-20)
(-0.223819 0.0159228 -9.12731e-21)
(-0.223982 0.0203326 6.48816e-21)
(-0.223421 0.0248264 6.12356e-21)
(-0.222045 0.029169 -4.57377e-21)
(-0.219755 0.0330845 -7.60433e-21)
(-0.216446 0.0362614 1.31917e-20)
(-0.212014 0.0383715 -4.53034e-22)
(-0.206348 0.039082 1.02593e-20)
(-0.199362 0.0380909 -8.0068e-22)
(-0.190957 0.0351391 -4.05432e-21)
(-0.181111 0.0300656 4.80017e-22)
(-0.169768 0.0227999 1.38167e-21)
(-0.15704 0.0134458 5.93295e-22)
(-0.142934 0.00223047 -2.11553e-21)
(-0.127803 -0.010459 -3.79973e-22)
(-0.111679 -0.0241065 1.71098e-21)
(-0.0952034 -0.0379568 3.80515e-21)
(-0.0782893 -0.0514541 -6.15332e-23)
(-0.0618585 -0.0635797 1.73863e-21)
(-0.0454622 -0.073987 -8.83228e-22)
(-0.0301099 -0.0814662 -1.90609e-22)
(-0.0149192 -0.0862098 -9.3309e-22)
(-0.000453676 -0.086832 -2.95635e-21)
(0.0138954 -0.0842536 -5.87985e-22)
(0.0294047 -0.0772017 -2.36415e-23)
(0.0438392 -0.0668905 8.90894e-22)
(0.063666 -0.0535077 5.76549e-22)
(0.078151 -0.0366706 7.92025e-22)
(0.105847 -0.0208802 8.55393e-22)
(0.118131 -0.000965487 -1.4285e-22)
(0.156936 0.0112963 6.026e-23)
(0.163471 0.0286041 -2.24648e-23)
(0.216568 0.027173 1.29401e-22)
(-0.18484 -0.000495627 1.03429e-21)
(-0.189152 -0.00131208 1.8436e-20)
(-0.193214 -0.00180793 -1.11859e-20)
(-0.19701 -0.00191676 6.56385e-21)
(-0.20052 -0.00158215 -2.23389e-20)
(-0.203718 -0.00074088 1.39707e-21)
(-0.206586 0.000645348 1.45316e-20)
(-0.20909 0.00260072 -8.39514e-21)
(-0.211185 0.00514377 -2.47026e-20)
(-0.212827 0.00824778 1.79861e-20)
(-0.213958 0.0118569 5.88093e-21)
(-0.214513 0.0158745 -3.42547e-21)
(-0.214415 0.0201585 -1.83173e-20)
(-0.213578 0.0245214 1.02091e-20)
(-0.211906 0.0287276 -3.46278e-21)
(-0.2093 0.032501 -4.48285e-21)
(-0.205647 0.0355302 5.84e-21)
(-0.200844 0.0374875 -9.06586e-21)
(-0.194776 0.0380406 -1.05316e-20)
(-0.187359 0.0368896 -1.45964e-20)
(-0.178496 0.0337775 9.99606e-21)
(-0.168171 0.028548 8.35993e-21)
(-0.156336 0.021135 -3.63744e-21)
(-0.143119 0.0116505 -9.14655e-21)
(-0.128545 0.00032722 8.87597e-23)
(-0.112992 -0.0124364 -8.46257e-21)
(-0.0964998 -0.0261231 -9.50585e-21)
(-0.0797566 -0.0399699 1.14839e-21)
(-0.062675 -0.0534279 -2.96675e-21)
(-0.0462369 -0.0654751 1.48086e-21)
(-0.029968 -0.0757923 -2.60496e-21)
(-0.0149604 -0.0831602 -1.15397e-21)
(-0.000263292 -0.0878298 -3.89999e-21)
(0.013458 -0.0883689 2.13219e-21)
(0.0269392 -0.0858105 -2.41259e-22)
(0.0413634 -0.0787362 -1.10254e-21)
(0.0546653 -0.0685778 -2.51113e-21)
(0.0732959 -0.0551956 1.69653e-21)
(0.086618 -0.0386192 6.01459e-22)
(0.113388 -0.0227736 -5.18959e-22)
(0.124766 -0.00317139 -2.35881e-22)
(0.163265 0.0092122 -1.78673e-22)
(0.169469 0.0262031 -2.73331e-22)
(0.222853 0.0248572 8.00528e-23)
(-0.177027 0.000568973 4.03288e-21)
(-0.181126 -0.000334872 -1.76361e-20)
(-0.18497 -0.000934007 1.02386e-20)
(-0.188544 -0.00114312 -1.89553e-22)
(-0.19183 -0.000908428 9.36395e-21)
(-0.194799 -0.000161358 -2.67419e-20)
(-0.197434 0.00110284 1.21186e-20)
(-0.199699 0.0029539 2.87987e-21)
(-0.201548 0.00538635 6.30391e-21)
(-0.202938 0.00837661 8.29503e-21)
(-0.203808 0.0118682 -1.02098e-20)
(-0.204093 0.015764 -1.59428e-20)
(-0.203712 0.0199213 1.33284e-20)
(-0.202578 0.0241526 -1.10554e-20)
(-0.200591 0.0282216 3.51094e-21)
(-0.197648 0.0318526 -7.95654e-21)
(-0.193635 0.0347338 2.8377e-21)
(-0.188444 0.0365383 -6.72727e-23)
(-0.181962 0.0369343 -3.72139e-21)
(-0.174103 0.0356242 8.37403e-21)
(-0.164773 0.0323534 3.3981e-21)
(-0.153965 0.0269704 6.94427e-21)
(-0.141637 0.0194139 2.3096e-21)
(-0.127934 0.00980348 -9.6589e-21)
(-0.112893 -0.001636 1.17139e-20)
(-0.0969202 -0.0144505 -1.08246e-22)
(-0.0800643 -0.0281665 -7.98805e-22)
(-0.0630567 -0.0419984 4.74921e-21)
(-0.0458067 -0.0554036 1.15646e-21)
(-0.0293569 -0.067358 -8.78232e-21)
(-0.0132035 -0.0775687 -7.42196e-22)
(0.0014759 -0.0848086 1.50136e-21)
(0.0157039 -0.0893868 4.93304e-21)
(0.0287069 -0.0898268 2.39578e-21)
(0.0413507 -0.0872746 -3.23236e-22)
(0.0547136 -0.0801683 1.06737e-21)
(0.0669067 -0.0701595 -1.28638e-22)
(0.0843471 -0.0567799 -1.59192e-21)
(0.0965153 -0.0404771 1.40683e-23)
(0.122337 -0.024591 5.39427e-22)
(0.132807 -0.00532737 5.13478e-22)
(0.17094 0.00715217 1.07617e-22)
(0.176805 0.0238018 -2.86411e-22)
(0.230375 0.0225297 9.98296e-23)
(-0.168336 0.00157366 5.46813e-21)
(-0.172203 0.000579089 3.98977e-21)
(-0.175813 -0.00010131 -2.11586e-20)
(-0.179146 -0.000419127 2.0074e-20)
(-0.182186 -0.000284605 6.68153e-22)
(-0.184911 0.000347522 -1.90181e-21)
(-0.187295 0.0015031 3.09314e-21)
(-0.1893 0.00324568 -1.7228e-20)
(-0.190884 0.00556641 5.58195e-21)
(-0.192002 0.00844182 -2.20759e-20)
(-0.192593 0.0118148 2.00608e-20)
(-0.192588 0.015588 -4.04569e-21)
(-0.191905 0.019618 -2.90967e-21)
(-0.190454 0.0237171 -5.69667e-21)
(-0.188134 0.0276488 1.04854e-20)
(-0.184838 0.0311371 -5.88226e-21)
(-0.180449 0.0338704 1.05977e-20)
(-0.174858 0.0355225 -4.67543e-21)
(-0.167949 0.0357622 1.83488e-20)
(-0.15964 0.0342945 -1.36906e-20)
(-0.149838 0.0308671 -1.17527e-20)
(-0.138544 0.0253335 1.39857e-20)
(-0.125724 0.0176375 -9.50224e-21)
(-0.111538 0.00790655 -1.08641e-21)
(-0.0960352 -0.00362984 1.34483e-21)
(-0.0796498 -0.0165001 6.46725e-21)
(-0.0624374 -0.0302357 -3.36879e-21)
(-0.0451709 -0.0440419 6.93737e-21)
(-0.0277534 -0.0573816 -1.83135e-21)
(-0.011289 -0.0692294 -2.76953e-21)
(0.00475967 -0.0793182 -4.61169e-21)
(0.0191274 -0.0864142 5.65625e-21)
(0.0329119 -0.0908841 -2.03794e-21)
(0.0452252 -0.0912095 -1.77283e-21)
(0.0570656 -0.0886493 2.20763e-21)
(0.0693962 -0.0815012 -1.67311e-22)
(0.0805095 -0.0716377 -5.25039e-22)
(0.0967718 -0.0582621 1.92861e-22)
(0.1078 -0.0422442 -1.83884e-21)
(0.132655 -0.0263316 -6.7767e-22)
(0.142218 -0.00743103 -5.70136e-23)
(0.179926 0.00511894 -1.90267e-23)
(0.185444 0.0214044 1.05628e-22)
(0.239097 0.0201945 -1.00666e-22)
(-0.158776 0.00252172 -8.90986e-21)
(-0.162389 0.0014244 2.35097e-20)
(-0.165748 0.000653863 1.27399e-20)
(-0.168828 0.000240572 -2.11707e-21)
(-0.171608 0.000270968 -3.01079e-20)
(-0.17407 0.000781256 2.70665e-20)
(-0.176184 0.00184063 2.60402e-20)
(-0.177912 0.00347316 -1.33435e-20)
(-0.179216 0.00568113 9.89312e-21)
(-0.180045 0.00844066 3.92346e-21)
(-0.180339 0.0116942 -4.55912e-21)
(-0.180027 0.015344 -5.00138e-21)
(-0.179026 0.0192463 -6.29083e-21)
(-0.177242 0.023213 1.50942e-20)
(-0.174573 0.0270071 -1.43872e-21)
(-0.170909 0.030353 -1.46068e-20)
(-0.166131 0.0329388 1.4033e-20)
(-0.160129 0.0344393 -5.31022e-21)
(-0.152785 0.0345241 -2.1978e-20)
(-0.144019 0.0329004 5.62223e-21)
(-0.133743 0.0293189 -4.97689e-21)
(-0.121963 0.0236382 -1.65338e-21)
(-0.108654 0.015807 6.52394e-21)
(-0.0939922 0.00596267 -4.51451e-21)
(-0.0780348 -0.00566207 2.33743e-22)
(-0.0612459 -0.0185836 7.0563e-22)
(-0.0436859 -0.0323293 -1.44991e-20)
(-0.0261683 -0.0460999 1.44072e-20)
(-0.00858667 -0.0593618 -6.14897e-21)
(0.00789334 -0.0710902 4.02156e-21)
(0.0238468 -0.0810423 3.46076e-21)
(0.0379189 -0.0879796 -2.5124e-21)
(0.051286 -0.0923252 -1.16128e-21)
(0.0629403 -0.0925207 2.7547e-21)
(0.0740143 -0.0899386 -8.57722e-22)
(0.0853462 -0.0827382 -3.94898e-21)
(0.0954137 -0.073015 1.89184e-22)
(0.110516 -0.0596438 8.58399e-22)
(0.120424 -0.0439209 7.32833e-22)
(0.144298 -0.0279951 7.72628e-22)
(0.152959 -0.00948018 -6.79057e-22)
(0.190183 0.00311528 4.58788e-23)
(0.195347 0.0190154 4.6525e-22)
(0.248979 0.0178558 -2.39649e-23)
(-0.14835 0.0034099 2.75124e-20)
(-0.151696 0.00221294 2.58307e-20)
(-0.154785 0.00132904 1.56663e-21)
(-0.157595 0.000825128 -1.64593e-21)
(-0.160104 0.000749418 1.22261e-21)
(-0.162287 0.00115785 2.41781e-21)
(-0.164116 0.00211278 -3.79067e-20)
(-0.165556 0.00363418 3.45362e-21)
(-0.166564 0.00572838 -2.10529e-20)
(-0.167091 0.00837106 2.79374e-21)
(-0.167074 0.0115044 3.31714e-20)
(-0.166441 0.0150303 -2.41282e-20)
(-0.165107 0.0188044 1.36312e-20)
(-0.162977 0.0226385 -1.49331e-20)
(-0.159946 0.0262954 -7.92394e-21)
(-0.155902 0.0294993 1.1344e-20)
(-0.150724 0.0319384 -4.09699e-21)
(-0.144302 0.0332885 4.54312e-21)
(-0.136517 0.03322 -7.44484e-23)
(-0.127293 0.0314427 9.15384e-21)
(-0.116541 0.02771 -5.5747e-21)
(-0.104278 0.0218858 -3.73765e-21)
(-0.0904851 0.0139243 3.26126e-22)
(-0.0753555 0.00397812 -6.01658e-21)
(-0.0589545 -0.00773417 1.30523e-20)
(-0.0417738 -0.0206993 -7.6689e-21)
(-0.0238777 -0.0344464 1.11952e-20)
(-0.00611937 -0.0481709 -9.19848e-21)
(0.0116207 -0.0613435 8.62534e-21)
(0.0281152 -0.0729408 -1.37697e-21)
(0.0439812 -0.0827428 2.13047e-21)
(0.0577729 -0.0895073 5.96291e-21)
(0.0707483 -0.0937134 8.21313e-22)
(0.0817757 -0.0937645 -3.17209e-21)
(0.0921225 -0.0911466 5.17804e-21)
(0.102494 -0.0838834 2.91531e-21)
(0.111554 -0.0742946 2.44992e-21)
(0.12552 -0.0609274 -2.58293e-22)
(0.134332 -0.0455079 4.73705e-22)
(0.157215 -0.0295812 -3.83717e-22)
(0.164984 -0.0114728 4.64453e-22)
(0.201667 0.00114404 -1.64453e-23)
(0.206468 0.0166392 -3.92321e-22)
(0.259974 0.0155179 2.39094e-22)
(-0.13706 0.00423372 -2.39166e-21)
(-0.140125 0.0029405 -4.34862e-20)
(-0.142931 0.00195467 2.83652e-20)
(-0.145459 0.00134478 -1.12978e-20)
(-0.147682 0.00116479 1.38051e-21)
(-0.149576 0.00147202 -1.93046e-20)
(-0.15111 0.00231802 1.55187e-20)
(-0.152249 0.00372727 9.00356e-21)
(-0.152951 0.00570671 -8.63447e-21)
(-0.153164 0.00823166 -7.49822e-21)
(-0.152825 0.011244 2.90386e-20)
(-0.151859 0.0146455 -3.00591e-20)
(-0.150181 0.0182913 1.03284e-20)
(-0.147695 0.0219928 2.0207e-20)
(-0.144291 0.0255128 5.77338e-21)
(-0.139858 0.0285754 -7.54692e-21)
(-0.134273 0.030869 1.60986e-21)
(-0.127426 0.0320702 7.40413e-21)
(-0.119196 0.0318506 2.35594e-21)
(-0.109511 0.0299223 8.61038e-21)
(-0.0982848 0.0260418 6.56752e-22)
(-0.0855446 0.0200783 7.41492e-22)
(-0.0712748 0.0119918 4.14848e-21)
(-0.0556892 0.00196206 1.22736e-20)
(-0.0388583 -0.00984383 -1.16041e-20)
(-0.0212996 -0.0228449 -4.37203e-22)
(-0.00308123 -0.0365869 2.6936e-21)
(0.0149048 -0.0502509 2.15817e-21)
(0.0327948 -0.0633262 -1.26984e-20)
(0.0493004 -0.0747814 1.09639e-21)
(0.0650844 -0.0844209 4.35512e-21)
(0.0786098 -0.0909998 -1.77699e-21)
(0.0912185 -0.0950521 8.25996e-22)
(0.101652 -0.0949448 -3.5492e-21)
(0.111313 -0.0922776 -4.03346e-21)
(0.120765 -0.0849408 -5.46862e-22)
(0.12886 -0.07548 -2.29759e-21)
(0.141719 -0.0621153 -5.76571e-22)
(0.149464 -0.0470061 -6.46309e-22)
(0.171351 -0.0310903 1.772e-22)
(0.178241 -0.0134068 -5.97675e-22)
(0.214326 -0.00079197 -7.3327e-23)
(0.218761 0.0142805 1.37185e-22)
(0.272035 0.0131851 -3.94038e-22)
(-0.124904 0.00499061 -1.24052e-20)
(-0.127676 0.0036022 -5.37401e-21)
(-0.13019 0.00251818 8.05914e-21)
(-0.132424 0.00180434 -1.65309e-20)
(-0.134352 0.00151931 -7.68527e-21)
(-0.135947 0.00171968 3.0448e-20)
(-0.137178 0.00245553 -2.46879e-20)
(-0.138009 0.00375169 8.02026e-21)
(-0.138397 0.00561546 1.64775e-20)
(-0.138288 0.00802183 -7.39929e-21)
(-0.137618 0.0109125 4.19089e-21)
(-0.136311 0.0141892 -6.23151e-21)
(-0.134282 0.0177064 1.5401e-20)
(-0.13143 0.0212757 -1.57166e-21)
(-0.127647 0.0246592 -8.03946e-21)
(-0.122819 0.0275816 -4.09487e-21)
(-0.116822 0.0297311 -2.94206e-20)
(-0.109545 0.0307854 1.9736e-20)
(-0.100869 0.030417 -1.15441e-20)
(-0.0907251 0.0283409 2.03819e-22)
(-0.0790297 0.0243164 5.9238e-22)
(-0.0658191 0.0182179 8.997e-21)
(-0.0510807 0.0100118 -6.13577e-21)
(-0.0350546 -0.000119296 -1.28311e-20)
(-0.0178107 -0.0119885 1.16899e-20)
(0.000110445 -0.0250179 -3.76904e-21)
(0.0186351 -0.0387454 1.36418e-20)
(0.0368332 -0.0523405 -4.24533e-22)
(0.0548615 -0.065309 3.89766e-22)
(0.0713723 -0.076612 5.35304e-21)
(0.0870775 -0.0860776 -2.75385e-21)
(0.100349 -0.0924592 -2.84388e-21)
(0.112615 -0.0963445 -4.26286e-21)
(0.122487 -0.0960659 -1.72657e-21)
(0.131504 -0.0933362 3.19076e-21)
(0.140081 -0.085915 3.30029e-22)
(0.147257 -0.076575 2.78167e-22)
(0.159043 -0.0632107 2.10754e-21)
(0.165755 -0.0484171 8.42619e-22)
(0.186646 -0.0325227 -8.37607e-22)
(0.192673 -0.0152807 9.05191e-22)
(0.228107 -0.00269012 1.01388e-22)
(0.232172 0.0119438 -1.15954e-22)
(0.285109 0.010862 6.97232e-23)
(-0.111879 0.00567912 2.60876e-20)
(-0.114349 0.00419641 -6.95725e-21)
(-0.116562 0.00301466 7.49751e-21)
(-0.118495 0.00219858 1.73486e-20)
(-0.120122 0.00180823 -1.61842e-20)
(-0.121412 0.00190019 -1.28836e-20)
(-0.122334 0.00252526 2.20975e-20)
(-0.122851 0.00370746 -1.50295e-20)
(-0.122919 0.00545469 -1.87076e-20)
(-0.122484 0.00774169 -4.40327e-22)
(-0.121478 0.0105101 -1.45657e-20)
(-0.119826 0.0136616 1.31962e-20)
(-0.117439 0.0170502 -1.72912e-20)
(-0.114218 0.0204875 1.92214e-20)
(-0.110052 0.0237353 -1.87774e-20)
(-0.104825 0.0265187 2.6609e-20)
(-0.0984139 0.0285257 2.24827e-20)
(-0.0907071 0.0294353 -3.29477e-20)
(-0.0815871 0.028921 -1.01354e-20)
(-0.0709875 0.0267004 3.14676e-20)
(-0.0588293 0.022536 2.25743e-21)
(-0.0451577 0.0163073 -1.2762e-20)
(-0.0299658 0.00798623 -5.4526e-21)
(-0.0135125 -0.00225763 2.1564e-20)
(0.00412931 -0.0141642 -1.25886e-20)
(0.0223912 -0.0272144 -5.45274e-21)
(0.0412029 -0.0409171 -1.37554e-22)
(0.0595948 -0.0544399 7.13154e-21)
(0.0777472 -0.0672903 -1.45974e-21)
(0.0942546 -0.078432 -2.77717e-21)
(0.109881 -0.0877135 -7.49046e-21)
(0.122909 -0.0938873 -1.2282e-23)
(0.134854 -0.0975936 1.86095e-21)
(0.144198 -0.0971316 5.1393e-21)
(0.152613 -0.094327 -2.84308e-21)
(0.160362 -0.0868107 -3.40779e-22)
(0.166668 -0.0775837 9.33894e-22)
(0.17742 -0.0642169 -3.34943e-21)
(0.183137 -0.0497425 -1.14285e-21)
(0.203035 -0.0338792 1.08049e-21)
(0.208222 -0.0170927 7.52266e-23)
(0.242953 -0.00454776 8.00761e-24)
(0.246645 0.00963374 -1.40361e-22)
(0.299141 0.00855319 -2.88127e-22)
(-0.097977 0.00629836 -5.05698e-20)
(-0.100139 0.00472279 5.36826e-20)
(-0.102045 0.00344403 1.63888e-21)
(-0.103672 0.00252642 -1.65657e-20)
(-0.104993 0.0020309 2.8772e-20)
(-0.105975 0.00201423 -3.64069e-20)
(-0.106586 0.00252788 2.81671e-20)
(-0.106788 0.00359539 -8.60972e-21)
(-0.106535 0.00522531 2.46089e-20)
(-0.105771 0.00739216 7.34318e-21)
(-0.104428 0.0100377 1.65749e-20)
(-0.10243 0.0130637 -1.58931e-20)
(-0.0996848 0.0163237 -6.15334e-21)
(-0.0960932 0.0196292 -1.49012e-20)
(-0.0915423 0.0227422 1.64353e-20)
(-0.085917 0.0253879 6.07976e-21)
(-0.0790917 0.0272543 2.37903e-21)
(-0.0709574 0.0280217 4.80584e-21)
(-0.061397 0.0273646 1.05385e-20)
(-0.0503487 0.0250033 -3.04472e-20)
(-0.0377364 0.0207034 8.13993e-21)
(-0.0236161 0.0143497 3.74448e-22)
(-0.00798582 0.00591808 -5.3711e-21)
(0.00887765 -0.00441027 -4.43766e-21)
(0.0268978 -0.0163671 3.4348e-21)
(0.0454779 -0.0294309 1.27175e-21)
(0.0645547 -0.043101 1.74111e-21)
(0.0831195 -0.0565444 -7.22675e-21)
(0.101379 -0.0692681 1.4216e-20)
(0.117872 -0.0802405 -3.03088e-21)
(0.133418 -0.0893289 8.21941e-21)
(0.146208 -0.0952858 -2.88074e-21)
(0.157853 -0.0988024 -2.23983e-22)
(0.166701 -0.0981459 -2.84235e-21)
(0.174555 -0.0952545 1.81428e-21)
(0.181525 -0.0876326 -2.85946e-21)
(0.187012 -0.0785105 -2.27854e-21)
(0.196772 -0.0651375 1.79269e-21)
(0.201537 -0.0509844 -6.60869e-23)
(0.220451 -0.0351608 -4.14022e-22)
(0.224821 -0.0188417 -3.23321e-22)
(0.258802 -0.00636223 -2.18628e-22)
(0.262122 0.00735486 2.06483e-22)
(0.314076 0.00626307 1.9739e-22)
(-0.0831885 0.00684807 3.84776e-20)
(-0.0850367 0.00518146 -5.35707e-20)
(-0.0866335 0.00380699 5.64516e-20)
(-0.087953 0.00278878 -3.43462e-20)
(-0.0889668 0.00218848 1.77325e-21)
(-0.0896405 0.002063 -2.84638e-20)
(-0.089941 0.00246487 3.69016e-20)
(-0.0898295 0.00341708 2.23407e-22)
(-0.0892566 0.00492898 -1.62008e-20)
(-0.0881667 0.00697499 7.44138e-21)
(-0.0864891 0.00949712 -1.17265e-20)
(-0.0841463 0.0123971 5.84131e-21)
(-0.0810459 0.0155285 -2.21552e-20)
(-0.0770859 0.0187028 1.6381e-20)
(-0.0721531 0.0216818 1.88123e-20)
(-0.0661321 0.0241912 -8.17179e-21)
(-0.0588971 0.0259191 1.18291e-21)
(-0.0503403 0.0265469 -1.40466e-20)
(-0.0403462 0.0257504 4.51719e-21)
(-0.0288581 0.0232525 2.81144e-20)
(-0.0158032 0.0188217 -1.19266e-20)
(-0.00124842 0.0123486 2.32954e-20)
(0.0148038 0.00381922 -5.27612e-21)
(0.0320572 -0.00658835 -1.28673e-20)
(0.0504329 -0.0185937 -1.69919e-21)
(0.0693071 -0.0316638 -3.28674e-21)
(0.0886247 -0.045294 6.72473e-21)
(0.107339 -0.0586504 1.86334e-21)
(0.125686 -0.0712399 -1.30054e-20)
(0.142149 -0.0820361 6.65469e-21)
(0.157609 -0.0909237 1.92515e-21)
(0.170168 -0.0966558 -1.00353e-21)
(0.181528 -0.0999734 -6.02181e-21)
(0.189911 -0.0991125 2.28422e-21)
(0.197246 -0.0961233 -6.20068e-21)
(0.203485 -0.0883858 2.81087e-21)
(0.208206 -0.0793601 -1.57409e-21)
(0.217021 -0.0659766 6.77262e-22)
(0.22088 -0.052145 6.5119e-22)
(0.238822 -0.0363689 -4.32132e-22)
(0.242405 -0.0205264 -3.8713e-23)
(0.275592 -0.00813118 4.27831e-23)
(0.27854 0.00511152 -2.90892e-22)
(0.329854 0.00399617 -1.09103e-22)
(-0.0674985 0.00732865 2.17056e-20)
(-0.0690316 0.00557318 -1.99691e-20)
(-0.0703181 0.00410468 2.48388e-20)
(-0.0713307 0.00298711 -1.34115e-21)
(-0.0720399 0.00228272 5.2831e-21)
(-0.0724087 0.00204854 6.91447e-21)
(-0.072403 0.00233851 1.97796e-20)
(-0.0719825 0.00317498 -1.19533e-20)
(-0.0710958 0.00456823 -1.046e-20)
(-0.0696857 0.00649269 -1.84742e-20)
(-0.0676795 0.00889077 1.33285e-20)
(-0.0649984 0.0116646 1.20666e-21)
(-0.0615482 0.0146673 4.74401e-21)
(-0.057226 0.0177107 -2.34329e-20)
(-0.0519175 0.0205566 1.03006e-20)
(-0.0455072 0.0229313 -2.63942e-22)
(-0.0378694 0.0245228 -9.06189e-21)
(-0.0288985 0.0250139 -1.16544e-20)
(-0.0184801 0.0240816 1.01048e-20)
(-0.00656376 0.0214512 -2.79341e-20)
(0.00692006 0.0168949 1.78304e-20)
(0.0218935 0.0103083 -4.83257e-20)
(0.0383477 0.00170588 2.44099e-21)
(0.0559678 -0.00879559 1.22334e-20)
(0.0746751 -0.0208399 -1.45215e-20)
(0.0938169 -0.033909 6.41214e-21)
(0.113348 -0.0474919 5.62083e-21)
(0.132185 -0.0607544 -2.1181e-21)
(0.150597 -0.073203 5.18602e-22)
(0.167014 -0.083817 3.5222e-21)
(0.182378 -0.0924972 -4.93736e-21)
(0.194708 -0.0979981 -4.7094e-22)
(0.2058 -0.101109 2.73736e-21)
(0.213745 -0.100035 -1.11535e-22)
(0.2206 -0.0969379 5.16727e-21)
(0.226158 -0.089075 4.40876e-21)
(0.230168 -0.080137 5.53508e-21)
(0.238085 -0.0667383 -2.43323e-21)