/*--------------------------------*- C++ -*----------------------------------*\
  =========                 |
  \\      /  F ield         | OpenFOAM: The Open Source CFD Toolbox
   \\    /   O peration     | Website:  https://openfoam.org
    \\  /    A nd           | Version:  7
     \\/     M anipulation  |
\*---------------------------------------------------------------------------*/
FoamFile
{
    version     2.0;
    format      ascii;
    class       surfaceScalarField;
    location    "25";
    object      phi;
}
// * * * * * * * * * * * * * * * * * * * * * * * * * * * * * * * * * * * * * //

dimensions      [0 3 -1 0 0 0 0];

internalField   nonuniform List<scalar> 
42261
(
9.94837e-06
6.46629e-07
9.30174e-06
1.78344e-05
7.30096e-07
8.57165e-06
3.43865e-06
1.51259e-05
1.13565e-05
8.19247e-07
7.7524e-06
3.80756e-06
1.21376e-05
9.55869e-06
5.60535e-06
-1.23285e-05
9.1409e-07
6.83831e-06
4.19763e-06
8.85404e-06
1.04623e-05
-6.59343e-07
2.03422e-05
-2.22083e-05
-5.63617e-05
1.0146e-06
5.82371e-06
4.60856e-06
5.26009e-06
1.14099e-05
-7.46072e-06
2.20684e-05
-3.28667e-05
3.72508e-05
-7.15441e-05
-0.000124096
1.12073e-06
4.70298e-06
5.03987e-06
1.34094e-06
1.24e-05
-1.48209e-05
2.3864e-05
-4.43307e-05
4.01074e-05
-8.77875e-05
6.18021e-05
-0.000145791
-0.000218898
1.23238e-06
3.4706e-06
5.49098e-06
-2.91766e-06
1.34307e-05
-2.27606e-05
2.57248e-05
-5.66247e-05
4.30535e-05
-0.000105116
6.60835e-05
-0.000168821
9.54357e-05
-0.00024825
0.000131643
-0.000343757
-0.000455435
1.34942e-06
2.12119e-06
5.96109e-06
-7.52933e-06
1.44998e-05
-3.12994e-05
2.76458e-05
-6.97706e-05
4.60796e-05
-0.00012355
7.04564e-05
-0.000193197
0.000101369
-0.000279162
0.000139298
-0.000381686
0.000184555
-0.000500692
-0.000635667
1.47168e-06
6.49509e-07
6.44929e-06
-1.25069e-05
1.56047e-05
-4.04548e-05
2.96213e-05
-8.37872e-05
4.91751e-05
-0.000143104
7.4903e-05
-0.000218925
0.00010736
-0.00031162
0.000146967
-0.000421293
0.000193944
-0.00054767
0.000248254
-0.000689977
-0.000846847
1.59896e-06
-9.49453e-07
6.95447e-06
-1.78625e-05
1.67422e-05
-5.02426e-05
3.1645e-05
-9.86899e-05
5.23282e-05
-0.000163787
7.94035e-05
-0.000246001
0.00011338
-0.000345596
0.000154606
-0.000462518
0.000203201
-0.000596265
0.000259
-0.000745775
0.000321495
-0.000909342
0.000389818
-0.00108459
-0.00126852
1.73101e-06
-2.68046e-06
7.47534e-06
-2.36068e-05
1.79091e-05
-6.06763e-05
3.37095e-05
-0.00011449
5.55259e-05
-0.000185603
8.39368e-05
-0.000274412
0.000119396
-0.000381055
0.000162168
-0.00050529
0.000212264
-0.000646361
0.000269379
-0.000802891
0.000332853
-0.000972816
0.000401659
-0.00115339
0.000474436
-0.0013413
0.000549569
-0.00153281
-0.00172406
1.86753e-06
-4.548e-06
8.01044e-06
-2.97497e-05
1.91013e-05
-7.17671e-05
3.58071e-05
-0.000131196
5.87544e-05
-0.000208551
8.84803e-05
-0.000304138
0.000125373
-0.000417948
0.000169606
-0.000549523
0.000221069
-0.000697824
0.000279314
-0.000861136
0.000343526
-0.00103703
0.000412527
-0.0012224
0.000484829
-0.0014136
0.000558735
-0.00160672
0.000632471
-0.0017978
-0.00198325
2.00819e-06
-6.55618e-06
8.55815e-06
-3.62997e-05
2.03147e-05
-8.35237e-05
3.79292e-05
-0.000148811
6.19985e-05
-0.00023262
9.30102e-05
-0.000335149
0.000131278
-0.000456216
0.000176873
-0.000595118
0.000229556
-0.000750507
0.000288732
-0.000920312
0.000353433
-0.00110173
0.000422338
-0.0012913
0.000493853
-0.00148512
0.000566225
-0.00167909
0.000637689
-0.00186926
0.000706627
-0.00205219
0.000771703
-0.00222518
-0.00238648
2.15259e-06
-8.70877e-06
9.11665e-06
-4.32637e-05
2.15447e-05
-9.59517e-05
4.00666e-05
-0.000167333
6.52424e-05
-0.000257796
9.75016e-05
-0.000367408
0.000137074
-0.000495788
0.000183919
-0.000641962
0.000237663
-0.000804251
0.000297561
-0.000980211
0.000362497
-0.00116666
0.000431021
-0.00135983
0.000501453
-0.00155555
0.000572009
-0.00174964
0.000640963
-0.00193822
0.000706798
-0.00211803
0.000768328
-0.00228671
0.000824781
-0.00244293
0.000875813
-0.0025864
-0.0027177
2.3003e-06
-1.10091e-05
9.68394e-06
-5.06473e-05
2.27862e-05
-0.000109054
4.22095e-05
-0.000186756
6.84695e-05
-0.000284056
0.000101929
-0.000400868
0.000142724
-0.000536584
0.000190696
-0.000689934
0.000245331
-0.000858886
0.000305735
-0.00104062
0.00037065
-0.00123158
0.000438516
-0.00142769
0.000507586
-0.00162462
0.000576075
-0.00181813
0.00064232
-0.00200446
0.000704925
-0.00218063
0.000762871
-0.00234466
0.000815565
-0.00249563
0.000862842
-0.00263367
0.000904911
-0.00275977
0.000942267
-0.00287555
-0.00298299
2.45083e-06
-1.34599e-05
1.02579e-05
-5.84544e-05
2.40339e-05
-0.00012283
4.43476e-05
-0.00020707
7.16626e-05
-0.000311371
0.000106266
-0.000435471
0.000148193
-0.000578511
0.000197158
-0.000738899
0.000252505
-0.000914233
0.000313194
-0.00110131
0.000377836
-0.00129622
0.000444777
-0.00149463
0.000512229
-0.00169207
0.000578431
-0.00188433
0.000641806
-0.00206784
0.000701098
-0.00223992
0.000755457
-0.00239901
0.000804472
-0.00254464
0.000848141
-0.00267734
0.000886804
-0.00279844
0.000921048
-0.00290979
0.0009516
-0.00301354
0.00097923
-0.00311184
-0.00320664
2.60367e-06
-1.60636e-05
1.08361e-05
-6.66868e-05
2.52822e-05
-0.000137276
4.64701e-05
-0.000228258
7.48038e-05
-0.000339704
0.000110487
-0.000471154
0.000153444
-0.000621469
0.00020326
-0.000788714
0.000259133
-0.000970106
0.000319884
-0.00116206
0.000384006
-0.00136034
0.00044977
-0.0015604
0.000515372
-0.00175767
0.000579099
-0.00194806
0.000639482
-0.00212822
0.000695415
-0.00229586
0.000746222
-0.00244982
0.000791663
-0.00259008
0.000831886
-0.00271756
0.000867344
-0.00283389
0.000898691
-0.00294114
0.00092668
-0.00304153
0.000952071
-0.00313723
0.000975563
-0.00323013
-0.00332182
0.000997721
2.75822e-06
-1.88218e-05
1.14161e-05
-7.53447e-05
2.65251e-05
-0.000152385
4.8566e-05
-0.000250298
7.78751e-05
-0.000369014
0.000114564
-0.000507843
0.000158442
-0.000665347
0.000208957
-0.000839229
0.000265167
-0.00102632
0.000325758
-0.00122265
0.000389122
-0.00142371
0.000453475
-0.00162475
0.000517022
-0.00182122
0.00057812
-0.00200916
0.000635423
-0.00218552
0.000687986
-0.00234842
0.000735304
-0.00249714
0.000777298
-0.00263208
0.000814248
-0.00275451
0.000846699
-0.00286635
0.000875354
-0.0029698
0.000900976
-0.00306715
0.000924301
-0.00316056
0.000945983
-0.00325182
-0.00334238
0.000966538
2.91387e-06
-2.17357e-05
1.19954e-05
-8.44263e-05
2.77565e-05
-0.000168146
5.06238e-05
-0.000273166
8.08583e-05
-0.000399248
0.000118472
-0.000545457
0.000163153
-0.000710028
0.000214211
-0.000890287
0.000270565
-0.00108267
0.000330778
-0.00128286
0.000393156
-0.00148608
0.000455885
-0.00168748
0.0005172
-0.00188254
0.000575546
-0.0020675
0.000629717
-0.00223969
0.000678929
-0.00239763
0.000722845
-0.00254106
0.000761533
-0.00267077
0.000795387
-0.00278837
0.000825025
-0.00289598
0.000851182
-0.00299595
0.000874615
-0.00309058
0.000896027
-0.00318197
0.000916024
-0.00327181
-0.00336142
0.00093507
3.06996e-06
-2.48056e-05
1.25712e-05
-9.39275e-05
2.897e-05
-0.000184545
5.26319e-05
-0.000296827
8.37353e-05
-0.000430352
0.000122186
-0.000583908
0.000167546
-0.000755387
0.000218985
-0.000941727
0.000275289
-0.00113897
0.000334912
-0.00134248
0.000396093
-0.00154726
0.000457005
-0.00174839
0.000515937
-0.00194147
0.000571441
-0.00212301
0.000622456
-0.00229071
0.000668364
-0.00244354
0.000708984
-0.00258168
0.000744517
-0.0027063
0.000775454
-0.0028193
0.000802467
-0.002923
0.000826305
-0.00301979
0.000847708
-0.00311199
0.000867341
-0.0032016
0.000885758
-0.00329023
-0.00337904
0.000903374
3.22581e-06
-2.80314e-05
1.31406e-05
-0.000103842
3.01592e-05
-0.000201564
5.45788e-05
-0.000321247
8.64883e-05
-0.000462261
0.000125681
-0.000623101
0.000171589
-0.000801294
0.000223245
-0.000993383
0.000279309
-0.00119504
0.000338139
-0.00140131
0.000397924
-0.00160705
0.000456852
-0.00180732
0.000513278
-0.00199789
0.000565878
-0.00217561
0.000613743
-0.00233857
0.000656414
-0.00248621
0.000693858
-0.00261912
0.000726393
-0.00273883
0.000754588
-0.0028475
0.000779152
-0.00294756
0.000800836
-0.00304147
0.000820353
-0.0031315
0.000838324
-0.00321957
0.000855251
-0.00330716
-0.00339529
0.000871501
3.38067e-06
-3.14121e-05
1.37008e-05
-0.000114162
3.13174e-05
-0.00021918
5.64529e-05
-0.000346383
8.90999e-05
-0.000494908
0.000128934
-0.000662936
0.000175255
-0.000847615
0.000226964
-0.00104509
0.000282601
-0.00125067
0.000340445
-0.00145916
0.000398655
-0.00166526
0.00045545
-0.00186411
0.000509276
-0.00205172
0.000558937
-0.00222527
0.00060368
-0.00238332
0.0006432
-0.00252573
0.000677598
-0.00265352
0.000707294
-0.00276853
0.000732916
-0.00287312
0.000755197
-0.00296984
0.000774876
-0.00306115
0.000792633
-0.00314926
0.000809042
-0.00323598
0.000824554
-0.00332267
-0.00341022
0.000839491
3.53382e-06
-3.49459e-05
1.42489e-05
-0.000124878
3.24382e-05
-0.00023737
5.8243e-05
-0.000372187
9.15533e-05
-0.000528218
0.000131924
-0.000703306
0.00017852
-0.000894212
0.000230116
-0.00109669
0.000285146
-0.0013057
0.000341822
-0.00151583
0.000398297
-0.00172173
0.000452838
-0.00191865
0.000503992
-0.00210287
0.000550704
-0.00227198
0.000592374
-0.00242499
0.000628842
-0.0025622
0.000660331
-0.00268501
0.000687344
-0.00279554
0.000710555
-0.00289633
0.000730705
-0.00298999
0.000748513
-0.00307896
0.000764621
-0.00316537
0.000779553
-0.00325091
0.000793713
-0.00333683
-0.00342389
0.000807379
3.68447e-06
-3.86304e-05
1.47817e-05
-0.000135975
3.35151e-05
-0.000256103
5.9938e-05
-0.00039861
9.38327e-05
-0.000562113
0.000134629
-0.000744102
0.000181362
-0.000940945
0.000232682
-0.00114801
0.000286931
-0.00135995
0.000342274
-0.00157118
0.000396871
-0.00177633
0.000449056
-0.00197084
0.000497493
-0.00215131
0.000541268
-0.00231576
0.00057993
-0.00246365
0.000613456
-0.00259573
0.000642175
-0.00271373
0.000666658
-0.00282003
0.00068761
-0.00291729
0.000705768
-0.00300815
0.000721825
-0.00309502
0.000736379
-0.00317992
0.000749908
-0.00326444
0.000762766
-0.00334969
-0.00343632
0.000775195
3.83184e-06
-4.24622e-05
1.52965e-05
-0.000147439
3.45416e-05
-0.000275348
6.15273e-05
-0.000425596
9.59233e-05
-0.000596509
0.000137033
-0.000785212
0.000183763
-0.000987674
0.000234649
-0.00119889
0.000287952
-0.00141326
0.000341809
-0.00162503
0.000394405
-0.00182893
0.000444157
-0.00202059
0.000489851
-0.002197
0.000530718
-0.00235663
0.000566452
-0.00249938
0.000597153
-0.00262643
0.00062324
-0.00273981
0.00064534
-0.00284212
0.000664174
-0.00293612
0.000680467
-0.00302444
0.000694878
-0.00310943
0.000707962
-0.00319301
0.000720147
-0.00327663
0.000731747
-0.00336129
-0.00344754
0.000742966
3.97516e-06
-4.64374e-05
1.57902e-05
-0.000159255
3.55116e-05
-0.000295069
6.30008e-05
-0.000453085
9.78113e-05
-0.000631319
0.000139119
-0.00082652
0.000185706
-0.00103426
0.000236004
-0.00124919
0.000288209
-0.00146546
0.000340442
-0.00167727
0.000390933
-0.00187942
0.000438195
-0.00206785
0.00048114
-0.00223995
0.000519147
-0.00239463
0.000552041
-0.00253228
0.000580036
-0.00265442
0.00060363
-0.00276341
0.000623486
-0.00286198
0.000640332
-0.00295297
0.000654873
-0.00303898
0.000667731
-0.00312229
0.000679414
-0.00320469
0.000690307
-0.00328752
0.000700682
-0.00337166
-0.00345757
0.000710712
4.11364e-06
-5.0551e-05
1.62601e-05
-0.000171401
3.64192e-05
-0.000315229
6.43492e-05
-0.000481015
9.94844e-05
-0.000666455
0.000140875
-0.000867911
0.000187182
-0.00108057
0.000236745
-0.00129875
0.000287708
-0.00151642
0.000338195
-0.00172775
0.000386497
-0.00192772
0.000431229
-0.00211259
0.000471439
-0.00228016
0.000506642
-0.00242984
0.000536794
-0.00256243
0.000562206
-0.00267983
0.000583438
-0.00278464
0.000601181
-0.00287972
0.000616158
-0.00296794
0.000629048
-0.00305187
0.000640433
-0.00313367
0.000650776
-0.00321503
0.000660419
-0.00329716
0.000669597
-0.00338084
-0.00346643
0.000678455
4.24649e-06
-5.47975e-05
1.67032e-05
-0.000183858
3.72588e-05
-0.000335784
6.55638e-05
-0.00050932
0.000100932
-0.000701822
0.000142288
-0.000909267
0.000188181
-0.00112646
0.000236869
-0.00134744
0.000286459
-0.00156601
0.000335096
-0.00177639
0.00038114
-0.00197376
0.000423322
-0.00215477
0.000460823
-0.00231766
0.000493293
-0.00246231
0.000520805
-0.00258994
0.000543754
-0.00270278
0.000562751
-0.00280363
0.000578503
-0.00289548
0.000591719
-0.00298116
0.000603048
-0.0030632
0.000613028
-0.00314365
0.000622081
-0.00322409
0.000630509
-0.00330559
0.000638512
-0.00338885
-0.00347412
0.000646211
4.37297e-06
-5.91705e-05
1.7117e-05
-0.000196602
3.8025e-05
-0.000356692
6.66368e-05
-0.000537932
0.000102144
-0.00073733
0.00014335
-0.000950473
0.0001887
-0.00117181
0.000236381
-0.00139512
0.00028448
-0.00161411
0.000331175
-0.00182308
0.000374912
-0.0020175
0.000414538
-0.00219439
0.000449369
-0.00235249
0.000479184
-0.00249212
0.00050416
-0.00261492
0.000524766
-0.00272339
0.000541648
-0.00282052
0.00055552
-0.00290935
0.000567073
-0.00299271
0.000576918
-0.00307305
0.000585554
-0.00315229
0.00059336
-0.00323189
0.0006006
-0.00331283
0.000607447
-0.00339569
-0.00348067
0.000613996
4.49232e-06
-6.36628e-05
1.74988e-05
-0.000209608
3.8713e-05
-0.000377906
6.75611e-05
-0.00056678
0.000103113
-0.000772881
0.000144055
-0.000991415
0.000188737
-0.00121649
0.000235288
-0.00144167
0.000281791
-0.00166062
0.000326469
-0.00186776
0.000367864
-0.0020589
0.000404943
-0.00223147
0.000437155
-0.0023847
0.000464398
-0.00251936
0.000486942
-0.00263746
0.000505319
-0.00274177
0.0005202
-0.0028354
0.000532295
-0.00292144
0.000542271
-0.00300269
0.000550701
-0.00308148
0.000558043
-0.00315963
0.000564637
-0.00323849
0.000570714
-0.00331891
0.000576417
-0.00340139
-0.00348608
0.000581825
4.60384e-06
-6.82666e-05
1.78465e-05
-0.000222851
3.93185e-05
-0.000399378
6.83307e-05
-0.000595792
0.000103833
-0.000808384
0.0001444
-0.00103198
0.000188294
-0.00126039
0.000233603
-0.00148698
0.000278415
-0.00170543
0.000321017
-0.00191036
0.000360047
-0.00209793
0.000394601
-0.00226603
0.000424252
-0.00241435
0.00044901
-0.00254412
0.000469228
-0.00265768
0.000485486
-0.00275802
0.000498471
-0.00284838
0.000508883
-0.00293185
0.000517358
-0.00301116
0.000524432
-0.00308855
0.000530524
-0.00316572
0.000535936
-0.0032439
0.000540867
-0.00332384
0.000545438
-0.00340597
-0.00349035
0.00054971
4.70685e-06
-7.29735e-05
1.81577e-05
-0.000236302
3.98374e-05
-0.000421058
6.89407e-05
-0.000624896
0.000104299
-0.000843742
0.000144382
-0.00107206
0.000187376
-0.00130338
0.000231339
-0.00153095
0.000274381
-0.00174847
0.000314858
-0.00195084
0.000351517
-0.00213459
0.000383577
-0.00229809
0.000410732
-0.00244151
0.000433095
-0.00256649
0.000451089
-0.00267567
0.000465332
-0.00277227
0.000476519
-0.00285957
0.000485331
-0.00294067
0.000492374
-0.00301821
0.000498144
-0.00309432
0.000503022
-0.0031706
0.000507274
-0.00324815
0.000511075
-0.00332764
0.000514523
-0.00340941
-0.00349349
0.000517663
4.80137e-06
-7.77749e-05
1.84318e-05
-0.000249932
4.02684e-05
-0.000442895
6.93897e-05
-0.000654017
0.000104512
-0.000878864
0.000144006
-0.00111156
0.000185997
-0.00134537
0.00022852
-0.00157347
0.000269724
-0.00178967
0.000308043
-0.00198916
0.000342334
-0.00216888
0.00037194
-0.00232769
0.00039667
-0.00246624
0.000416728
-0.00258654
0.000432598
-0.00269154
0.000444924
-0.00278459
0.000454402
-0.00286905
0.000461689
-0.00294795
0.000467359
-0.00302388
0.000471869
-0.00309883
0.000475563
-0.0031743
0.000478677
-0.00325126
0.000481359
-0.00333032
0.00048369
-0.00341175
-0.00349551
0.000485703
4.88561e-06
-8.26605e-05
1.86645e-05
-0.000263711
4.06048e-05
-0.000464835
6.96694e-05
-0.000683081
0.000104464
-0.000913658
0.000143269
-0.00115036
0.000184156
-0.00138626
0.000225158
-0.00161447
0.000264465
-0.00182898
0.000300602
-0.0020253
0.00033254
-0.00220082
0.000359739
-0.00235489
0.000382118
-0.00248862
0.000399959
-0.00260439
0.0004138
-0.00270538
0.000424302
-0.0027951
0.000432152
-0.0028769
0.000437983
-0.00295378
0.000442331
-0.00302822
0.00044562
-0.00310212
0.000448155
-0.00317683
0.000450147
-0.00325326
0.00045172
-0.00333189
0.00045294
-0.00341297
-0.0034964
0.000453829
4.95964e-06
-8.76201e-05
1.88556e-05
-0.000277607
4.08462e-05
-0.000486826
6.97804e-05
-0.000712016
0.000104158
-0.000948036
0.000142179
-0.00118839
0.000181872
-0.00142595
0.000221278
-0.00165388
0.000258644
-0.00186635
0.000292588
-0.00205924
0.000322194
-0.00223042
0.00034704
-0.00237974
0.000367142
-0.00250872
0.000382856
-0.0026201
0.000394758
-0.00271729
0.00040352
-0.00280386
0.000409816
-0.00288319
0.000414251
-0.00295822
0.000417324
-0.0030313
0.000419422
-0.00310422
0.000420822
-0.00317823
0.000421704
-0.00325414
0.000422176
-0.00333237
0.000422289
-0.00341308
-0.00349616
0.000422056
5.02299e-06
-9.26431e-05
1.90037e-05
-0.000291588
4.09908e-05
-0.000508813
6.97217e-05
-0.000740746
0.000103596
-0.00098191
0.000140742
-0.00122553
0.000179159
-0.00146437
0.000216906
-0.00169162
0.000252296
-0.00190174
0.000284043
-0.00209099
0.000311348
-0.00225773
0.000333898
-0.00240229
0.0003518
-0.00252662
0.000365472
-0.00263377
0.000375521
-0.00272733
0.000382623
-0.00281096
0.000387433
-0.002888
0.000390524
-0.00296131
0.000392361
-0.00303314
0.000393296
-0.00310515
0.000393577
-0.00317851
0.00039336
-0.00325392
0.000392738
-0.00333174
0.000391748
-0.00341209
-0.00349481
0.000390396
5.07523e-06
-9.77183e-05
1.91078e-05
-0.00030562
4.10373e-05
-0.000530742
6.94932e-05
-0.000769202
0.000102782
-0.0010152
0.000138969
-0.00126172
0.000176035
-0.00150144
0.000212069
-0.00172766
0.000245456
-0.00193512
0.000275014
-0.00212055
0.000300054
-0.00228277
0.000320368
-0.0024226
0.000336145
-0.0025424
0.000347859
-0.00264549
0.000356136
-0.00273561
0.00036165
-0.00281647
0.000365033
-0.00289139
0.000366827
-0.0029631
0.000367463
-0.00303377
0.000367258
-0.00310495
0.000366434
-0.00317769
0.000365128
-0.00325262
0.000363416
-0.00333003
0.000361326
-0.00341
-0.00349234
0.000358857
5.11599e-06
-0.000102834
1.9167e-05
-0.000319671
4.09852e-05
-0.00055256
6.90958e-05
-0.000797313
0.000101719
-0.00104782
0.000136869
-0.00129687
0.000172517
-0.00153708
0.000206793
-0.00176193
0.000238161
-0.00196649
0.000265542
-0.00214793
0.000288359
-0.00230558
0.0003065
-0.00244074
0.000320229
-0.00255613
0.000330062
-0.00265532
0.000336642
-0.00274219
0.000340634
-0.00282047
0.000342645
-0.0028934
0.000343184
-0.00296364
0.000342647
-0.00303323
0.000341323
-0.00310362
0.000339406
-0.00317577
0.000337018
-0.00325023
0.00033422
-0.00332723
0.000331033
-0.00340681
-0.00348876
0.000327449
5.14497e-06
-0.000107979
1.91808e-05
-0.000333707
4.08344e-05
-0.000574214
6.85314e-05
-0.00082501
0.000100414
-0.0010797
0.000134453
-0.00133091
0.000168624
-0.00157126
0.000201106
-0.00179442
0.000230446
-0.00199583
0.000255672
-0.00217315
0.00027631
-0.00232622
0.000292342
-0.00245677
0.000304096
-0.00256788
0.000312124
-0.00266335
0.000317078
-0.00274715
0.000319608
-0.002823
0.000320295
-0.00289408
0.000319615
-0.00296296
0.000317931
-0.00303155
0.000315503
-0.0031012
0.000312504
-0.00317277
0.000309039
-0.00324676
0.000305159
-0.00332335
0.000300878
-0.00340253
-0.00348406
0.000296182
5.16194e-06
-0.000113141
1.91488e-05
-0.000347694
4.05851e-05
-0.00059565
6.78024e-05
-0.000852227
9.88729e-05
-0.00111078
0.000131735
-0.00136377
0.000164378
-0.0016039
0.000195036
-0.00182507
0.000222348
-0.00202314
0.000245443
-0.00219625
0.000263952
-0.00234473
0.000277939
-0.00247076
0.000287789
-0.00257773
0.000294084
-0.00266964
0.000297476
-0.00275054
0.000298599
-0.00282412
0.000298005
-0.00289349
0.000296138
-0.00296109
0.000293328
-0.00302874
0.000289811
-0.00309768
0.000285738
-0.0031687
0.000281202
-0.00324223
0.000276243
-0.00331839
0.000270869
-0.00339716
-0.00347826
0.000265064
5.16672e-06
-0.000118308
1.9071e-05
-0.000361598
4.02383e-05
-0.000616818
6.69124e-05
-0.000878901
9.71037e-05
-0.00114097
0.000128729
-0.00139539
0.000159799
-0.00163497
0.000188613
-0.00185389
0.000213901
-0.00204843
0.000234897
-0.00221724
0.000251327
-0.00236116
0.000263332
-0.00248277
0.000271348
-0.00258575
0.000275976
-0.00267427
0.000277867
-0.00275243
0.000277633
-0.00282388
0.000275797
-0.00289165
0.000272769
-0.00295807
0.000268853
-0.00302483
0.000264258
-0.00309308
0.000259119
-0.00316356
0.000253514
-0.00323662
0.000247478
-0.00331236
0.000241015
-0.0033907
-0.00347134
0.000234103
5.1592e-06
-0.000123467
1.89474e-05
-0.000375386
3.97954e-05
-0.000637666
6.58654e-05
-0.000904971
9.51149e-05
-0.00117022
0.000125448
-0.00142573
0.000154909
-0.00166443
0.000181864
-0.00188084
0.00020514
-0.00207171
0.000224071
-0.00223617
0.000238474
-0.00237557
0.000248561
-0.00249285
0.000254808
-0.00259199
0.000257833
-0.00267729
0.000258277
-0.00275287
0.000256731
-0.00282234
0.000253686
-0.00288861
0.000249523
-0.0029539
0.000244516
-0.00301982
0.000238853
-0.00308742
0.000232653
-0.00315736
0.000225984
-0.00322995
0.000218875
-0.00330525
0.000211324
-0.00338315
-0.00346333
0.000203309
5.13933e-06
-0.000128606
1.87785e-05
-0.000389026
3.92582e-05
-0.000658145
6.4666e-05
-0.000930379
9.29158e-05
-0.00119847
0.000121909
-0.00145472
0.000149728
-0.00169225
0.000174818
-0.00190593
0.000196097
-0.00209299
0.000213
-0.00225308
0.00022543
-0.002388
0.00023366
-0.00250108
0.000238202
-0.00259654
0.000239682
-0.00267877
0.00023873
-0.00275192
0.000235913
-0.00281952
0.00023169
-0.00288439
0.000226413
-0.00294863
0.00022033
-0.00301374
0.000213607
-0.0030807
0.000206351
-0.0031501
0.000198621
-0.00322222
0.000190439
-0.00329707
0.000181803
-0.00337451
-0.00345421
0.000172688
5.10712e-06
-0.000133714
1.85647e-05
-0.000402483
3.86287e-05
-0.000678209
6.33196e-05
-0.00095507
9.05163e-05
-0.00122566
0.000118126
-0.00148233
0.000144281
-0.0017184
0.000167502
-0.00192915
0.000186805
-0.00211229
0.000201721
-0.00226799
0.000212231
-0.00239851
0.000218663
-0.00250751
0.00022156
-0.00259943
0.00022155
-0.00267876
0.000219249
-0.00274962
0.000215196
-0.00281547
0.000209823
-0.00287901
0.00020345
-0.00294225
0.000196303
-0.00300659
0.000188528
-0.00307292
0.000180221
-0.0031418
0.000171431
-0.00321343
0.000162179
-0.00328782
0.000152459
-0.00336479
-0.003444
0.000142249
5.06264e-06
-0.000138776
1.83069e-05
-0.000415727
3.79097e-05
-0.000697812
6.18319e-05
-0.000978992
8.79267e-05
-0.00125176
0.000114117
-0.00150852
0.000138587
-0.00174287
0.000159943
-0.00195051
0.000177295
-0.00212964
0.000190264
-0.00228096
0.000198907
-0.00240715
0.000203601
-0.00251221
0.00020491
-0.00260074
0.00020346
-0.00267731
0.000199852
-0.00274601
0.000194597
-0.00281021
0.000188097
-0.00287251
0.000180646
-0.0029348
0.000172444
-0.00299839
0.000163625
-0.0030641
0.000154269
-0.00313244
0.000144423
-0.00320359
0.000134102
-0.00327749
0.0001233
-0.00335399
-0.0034327
0.000111996
5.00601e-06
-0.000143782
1.8006e-05
-0.000428727
3.71038e-05
-0.00071691
6.02091e-05
-0.0010021
8.51578e-05
-0.00127671
0.000109896
-0.00153326
0.000132669
-0.00176565
0.000152167
-0.00197001
0.000167595
-0.00214507
0.000178661
-0.00229203
0.00018549
-0.00241398
0.000188501
-0.00251522
0.000188275
-0.00260052
0.000185434
-0.00267447
0.000180557
-0.00274114
0.00017413
-0.00280378
0.000166525
-0.00286491
0.000158009
-0.00292629
0.000148764
-0.00298914
0.000138904
-0.00305425
0.000128504
-0.00312204
0.000117602
-0.00319268
0.000106214
-0.00326611
9.43312e-05
-0.0033421
-0.0034203
8.1933e-05
4.93739e-06
-0.00014872
1.7663e-05
-0.000441453
3.62144e-05
-0.000735461
5.84576e-05
-0.00102434
8.22205e-05
-0.00130047
0.00010548
-0.00155652
0.000126547
-0.00178671
0.000144199
-0.00198766
0.000157734
-0.00215861
0.000166941
-0.00230124
0.000172007
-0.00241904
0.000173389
-0.0025166
0.000171678
-0.0025988
0.000167489
-0.00267028
0.000161379
-0.00273503
0.000153807
-0.00279621
0.000145116
-0.00285622
0.00013555
-0.00291672
0.000125268
-0.00297886
0.000114375
-0.00304335
0.000102933
-0.0031106
9.09783e-05
-0.00318073
7.85219e-05
-0.00325365
6.55571e-05
-0.00332914
-0.00340681
5.20623e-05
4.85701e-06
-0.000153577
1.72793e-05
-0.000453875
3.52447e-05
-0.000753427
5.65842e-05
-0.00104568
7.9126e-05
-0.00132301
0.000100885
-0.00157828
0.000120243
-0.00180607
0.000136064
-0.00200348
0.000147737
-0.00217028
0.000155129
-0.00230863
0.000158483
-0.0024224
0.000158287
-0.00251641
0.000155139
-0.00259566
0.000149643
-0.00266479
0.000142333
-0.00272772
0.00013364
-0.00278752
0.00012388
-0.00284646
0.000113275
-0.00290612
0.000101966
-0.00296755
9.00431e-05
-0.00303143
7.75639e-05
-0.00309812
6.45596e-05
-0.00316772
5.10405e-05
-0.00324013
3.69896e-05
-0.00331509
-0.00339218
2.23623e-05
4.76512e-06
-0.000158342
1.68561e-05
-0.000465966
3.41984e-05
-0.000770769
5.4596e-05
-0.00106608
7.58855e-05
-0.0013443
9.61273e-05
-0.00159852
0.000113776
-0.00182372
0.000127784
-0.00201749
0.000137629
-0.00218013
0.000143251
-0.00231425
0.000144943
-0.00242409
0.000143218
-0.00251468
0.000138677
-0.00259112
0.000131911
-0.00265802
0.00012343
-0.00271924
0.000113638
-0.00277773
0.000102827
-0.00283565
9.11927e-05
-0.00289448
7.8863e-05
-0.00295522
6.59165e-05
-0.00301848
5.24036e-05
-0.00308461
3.83547e-05
-0.00315368
2.37848e-05
-0.00322556
8.67332e-06
-0.00329998
-0.00337628
-7.22026e-06
4.66204e-06
-0.000163004
1.6395e-05
-0.000477699
3.30792e-05
-0.000787453
5.25e-05
-0.0010855
7.25102e-05
-0.00136431
9.12214e-05
-0.00161723
0.000107165
-0.00183966
0.000119382
-0.00202971
0.000127435
-0.00218818
0.00013133
-0.00231814
0.000131408
-0.00242417
0.0001282
-0.00251147
0.000122308
-0.00258522
0.000114307
-0.00265002
0.000104682
-0.00270961
9.38117e-05
-0.00276686
8.19622e-05
-0.0028238
6.93103e-05
-0.00288183
5.5967e-05
-0.00294188
4.20014e-05
-0.00300452
2.74586e-05
-0.00307006
1.23683e-05
-0.00313859
-3.25586e-06
-0.00320994
-1.94319e-05
-0.0032838
-0.00335956
-3.61547e-05
4.54809e-06
-0.000167552
1.58975e-05
-0.000489049
3.18911e-05
-0.000803447
5.03035e-05
-0.00110391
6.90114e-05
-0.00138302
8.6183e-05
-0.0016344
0.000100429
-0.00185391
0.000110879
-0.00204016
0.000117174
-0.00219447
0.000119387
-0.00232036
0.000117897
-0.00242268
0.000113251
-0.00250683
0.000106047
-0.00257802
9.68422e-05
-0.00264081
8.60993e-05
-0.00269887
7.41688e-05
-0.00275493
6.12946e-05
-0.00281092
4.76341e-05
-0.00286817
3.3284e-05
-0.00292753
1.8304e-05
-0.00298954
2.73478e-06
-0.00305449
-1.33942e-05
-0.00312246
-3.00678e-05
-0.00319326
-4.72971e-05
-0.00326657
-0.00334178
-6.50746e-05
4.42365e-06
-0.000171976
1.53654e-05
-0.000499991
3.06381e-05
-0.000818719
4.80137e-05
-0.00112129
6.54e-05
-0.00140041
8.10268e-05
-0.00165003
9.35859e-05
-0.00186647
0.000102294
-0.00204886
0.000106869
-0.00219905
0.000107443
-0.00232093
0.000104428
-0.00241966
9.83858e-05
-0.00250078
8.99067e-05
-0.00256954
7.95286e-05
-0.00263044
6.76902e-05
-0.00268703
5.47169e-05
-0.00274195
4.08305e-05
-0.00279704
2.61704e-05
-0.00285351
1.08199e-05
-0.00291218
-5.16958e-06
-0.00297355
-2.17615e-05
-0.0030379
-3.89266e-05
-0.00310529
-5.66468e-05
-0.00317554
-7.49242e-05
-0.00324829
-0.00332294
-9.37731e-05
4.28913e-06
-0.000176265
1.48003e-05
-0.000510502
2.93241e-05
-0.000833243
4.56378e-05
-0.0011376
6.16868e-05
-0.00141645
7.57669e-05
-0.00166411
8.66527e-05
-0.00187735
9.36454e-05
-0.00205586
9.65378e-05
-0.00220194
9.55144e-05
-0.00231991
9.10187e-05
-0.00241517
8.36198e-05
-0.00249339
7.38994e-05
-0.00255982
6.23756e-05
-0.00261891
4.94629e-05
-0.00267412
3.54628e-05
-0.00272795
2.0576e-05
-0.00278215
4.9248e-06
-0.00283786
-1.14193e-05
-0.00289583
-2.84133e-05
-0.00295655
-4.60245e-05
-0.00302029
-6.4223e-05
-0.00308709
-8.29867e-05
-0.00315678
-0.000102313
-0.00322897
-0.00330302
-0.000122227
4.14493e-06
-0.00018041
1.42041e-05
-0.000520561
2.79535e-05
-0.000846993
4.3183e-05
-0.00115283
5.78824e-05
-0.00143115
7.04171e-05
-0.00167664
7.96452e-05
-0.00188658
8.49513e-05
-0.00206116
8.61979e-05
-0.00220319
8.36187e-05
-0.00231733
7.76833e-05
-0.00240923
6.89654e-05
-0.00248467
5.80358e-05
-0.00254889
4.53921e-05
-0.00260627
3.14249e-05
-0.00266015
1.64126e-05
-0.00271294
5.35849e-07
-0.00276627
-1.6097e-05
-0.00282122
-3.3428e-05
-0.0028785
-5.14214e-05
-0.00293856
-7.00479e-05
-0.00300167
-8.92769e-05
-0.00306786
-0.000109082
-0.00313697
-0.000129456
-0.00320859
-0.00328205
-0.000150428
3.99151e-06
-0.000184401
1.35786e-05
-0.000530148
2.65302e-05
-0.000859944
4.06565e-05
-0.00116696
5.39971e-05
-0.00144449
6.49905e-05
-0.00168764
7.2579e-05
-0.00189417
7.62277e-05
-0.00206481
7.58656e-05
-0.00220283
7.17711e-05
-0.00231323
6.44355e-05
-0.0024019
5.44343e-05
-0.00247467
4.23254e-05
-0.00253678
2.85858e-05
-0.00259253
1.35826e-05
-0.00264515
-2.42774e-06
-0.00269693
-1.92824e-05
-0.00274942
-3.68897e-05
-0.00280362
-5.52009e-05
-0.00286019
-7.4188e-05
-0.00291957
-9.38255e-05
-0.00298203
-0.000114082
-0.00304761
-0.000134926
-0.00311613
-0.000156345
-0.00318717
-0.00326003
-0.000178367
3.82932e-06
-0.00018823
1.29257e-05
-0.000539244
2.50585e-05
-0.000872077
3.80653e-05
-0.00117996
5.00408e-05
-0.00145647
5.94998e-05
-0.0016971
6.54683e-05
-0.00190014
6.749e-05
-0.00206683
6.55561e-05
-0.00220089
5.99855e-05
-0.00230766
5.12877e-05
-0.0023932
4.00369e-05
-0.00246342
2.6777e-05
-0.00252352
1.19639e-05
-0.00257772
-4.05807e-06
-0.00262913
-2.1053e-05
-0.00267993
-3.8876e-05
-0.00273159
-5.74486e-05
-0.00278504
-7.67326e-05
-0.00284091
-9.67075e-05
-0.0028996
-0.000117351
-0.00296138
-0.000138632
-0.00302633
-0.000160512
-0.00309425
-0.000182973
-0.00316471
-0.00323696
-0.000206039
3.65885e-06
-0.000191889
1.22472e-05
-0.000547833
2.35424e-05
-0.000883372
3.5416e-05
-0.00119184
4.60232e-05
-0.00146708
5.3957e-05
-0.00170503
5.83268e-05
-0.00190451
5.87523e-05
-0.00206726
5.52832e-05
-0.00219742
4.82748e-05
-0.00230065
3.82509e-05
-0.00238317
2.57825e-05
-0.00245095
1.13982e-05
-0.00250914
-4.46738e-06
-0.00256185
-2.14916e-05
-0.0026121
-3.94587e-05
-0.00266197
-5.82397e-05
-0.00271281
-7.77689e-05
-0.00276552
-9.80181e-05
-0.00282066
-0.000118974
-0.00287864
-0.000140619
-0.00293974
-0.000162919
-0.00300403
-0.000185833
-0.00307134
-0.000209333
-0.00314121
-0.00321286
-0.000233438
3.48057e-06
-0.00019537
1.1545e-05
-0.000555897
2.19859e-05
-0.000893813
3.27155e-05
-0.00120257
4.19536e-05
-0.00147631
4.83734e-05
-0.00171145
5.11672e-05
-0.0019073
5.00279e-05
-0.00206612
4.50598e-05
-0.00219245
3.66505e-05
-0.00229225
2.53353e-05
-0.00237186
1.16796e-05
-0.00243729
-3.8041e-06
-0.00249365
-2.07022e-05