/*--------------------------------*- C++ -*----------------------------------*\
  =========                 |
  \\      /  F ield         | OpenFOAM: The Open Source CFD Toolbox
   \\    /   O peration     | Website:  https://openfoam.org
    \\  /    A nd           | Version:  7
     \\/     M anipulation  |
\*---------------------------------------------------------------------------*/
FoamFile
{
    version     2.0;
    format      ascii;
    class       volScalarField;
    location    "15";
    object      p;
}
// * * * * * * * * * * * * * * * * * * * * * * * * * * * * * * * * * * * * * //

dimensions      [0 2 -2 0 0 0 0];

internalField   nonuniform List<scalar> 
13100
(
-0.295215
-0.299294
-0.301503
-0.302787
-0.303405
-0.303356
-0.302698
-0.301491
-0.299785
-0.29763
-0.295071
-0.292156
-0.288931
-0.285398
-0.281643
-0.295708
-0.299733
-0.301902
-0.303151
-0.303736
-0.303655
-0.302966
-0.301731
-0.299998
-0.297817
-0.295235
-0.292298
-0.289056
-0.285498
-0.281708
-0.296692
-0.300609
-0.3027
-0.303878
-0.304395
-0.30425
-0.303502
-0.302209
-0.300423
-0.298191
-0.29556
-0.29258
-0.289303
-0.285695
-0.281836
-0.298163
-0.301919
-0.303892
-0.304964
-0.30538
-0.305139
-0.304301
-0.302923
-0.301055
-0.298746
-0.296043
-0.292996
-0.289667
-0.285984
-0.282019
-0.300113
-0.303656
-0.305473
-0.306405
-0.306686
-0.306319
-0.30536
-0.303868
-0.301891
-0.299479
-0.296677
-0.293541
-0.290142
-0.286358
-0.282245
-0.302534
-0.305815
-0.307438
-0.308195
-0.308308
-0.307782
-0.306673
-0.305037
-0.302924
-0.300381
-0.297455
-0.294205
-0.290716
-0.286805
-0.28249
-0.305418
-0.308386
-0.309779
-0.310327
-0.310239
-0.309522
-0.308233
-0.306424
-0.304146
-0.301446
-0.298369
-0.29498
-0.29138
-0.287317
-0.282719
-0.308752
-0.311361
-0.312488
-0.312793
-0.312471
-0.311533
-0.310033
-0.308023
-0.305551
-0.302664
-0.299409
-0.295854
-0.292121
-0.287887
-0.282988
-0.312525
-0.31473
-0.315555
-0.315585
-0.314996
-0.313806
-0.312065
-0.309824
-0.30713
-0.304029
-0.300565
-0.296817
-0.292923
-0.288454
-0.2833
-0.316725
-0.318481
-0.31897
-0.318693
-0.317807
-0.316333
-0.314321
-0.311821
-0.308875
-0.30553
-0.30183
-0.297857
-0.293778
-0.289044
-0.283553
-0.32134
-0.322604
-0.322724
-0.322108
-0.320893
-0.319106
-0.316795
-0.314006
-0.31078
-0.307163
-0.303194
-0.298965
-0.294669
-0.289635
-0.283731
-0.326357
-0.327088
-0.326807
-0.32582
-0.324246
-0.322117
-0.319478
-0.316372
-0.312839
-0.308919
-0.304651
-0.300133
-0.295586
-0.290209
-0.283818
-0.331763
-0.331922
-0.331206
-0.329821
-0.327858
-0.325359
-0.322365
-0.318916
-0.315047
-0.310797
-0.306197
-0.301353
-0.29652
-0.290749
-0.283786
-0.337548
-0.337093
-0.335914
-0.334099
-0.33172
-0.328823
-0.325449
-0.321632
-0.317403
-0.312794
-0.307832
-0.302625
-0.297464
-0.291241
-0.283606
-0.343699
-0.342592
-0.340917
-0.338646
-0.335824
-0.332505
-0.328726
-0.324518
-0.319905
-0.314913
-0.309559
-0.303951
-0.298416
-0.291675
-0.283248
-0.350205
-0.348406
-0.346207
-0.343452
-0.340162
-0.336397
-0.332193
-0.327573
-0.322557
-0.31716
-0.311386
-0.305339
-0.299382
-0.292042
-0.282677
-0.357052
-0.354523
-0.351771
-0.348508
-0.344725
-0.340494
-0.335846
-0.330798
-0.325362
-0.319543
-0.313325
-0.306804
-0.300372
-0.292342
-0.281854
-0.364228
-0.36093
-0.357597
-0.353802
-0.349507
-0.344791
-0.339683
-0.334195
-0.328328
-0.322074
-0.315397
-0.308371
-0.301411
-0.292583
-0.280741
-0.371717
-0.367613
-0.363674
-0.359326
-0.354498
-0.349282
-0.343703
-0.337766
-0.331463
-0.324772
-0.317628
-0.310074
-0.302535
-0.292788
-0.279295
-0.379503
-0.374556
-0.369988
-0.365066
-0.35969
-0.353961
-0.347903
-0.341514
-0.334778
-0.327655
-0.32005
-0.311964
-0.303805
-0.29301
-0.277496
-0.387565
-0.381743
-0.376523
-0.371011
-0.365073
-0.358823
-0.352281
-0.345441
-0.338282
-0.330746
-0.322705
-0.314106
-0.305318
-0.293373
-0.275401
-0.395882
-0.389154
-0.383263
-0.377147
-0.370636
-0.363858
-0.356832
-0.34955
-0.341984
-0.334066
-0.325636
-0.316579
-0.3072
-0.294038
-0.273066
-0.404428
-0.396768
-0.39019
-0.383458
-0.376367
-0.369057
-0.36155
-0.353837
-0.345891
-0.337638
-0.328894
-0.31949
-0.309584
-0.294962
-0.269979
-0.413175
-0.404561
-0.397284
-0.389928
-0.382251
-0.374409
-0.366426
-0.358297
-0.350003
-0.341478
-0.332548
-0.323028
-0.312808
-0.296444
-0.265923
-0.422091
-0.412507
-0.404522
-0.396538
-0.388273
-0.379899
-0.371446
-0.362916
-0.354305
-0.345582
-0.336646
-0.327423
-0.317708
-0.302201
-0.271952
-0.431143
-0.42058
-0.411883
-0.403267
-0.394414
-0.385511
-0.376592
-0.36767
-0.358763
-0.349887
-0.341073
-0.332473
-0.324308
-0.316888
-0.321017
-0.440296
-0.428748
-0.419338
-0.410093
-0.400654
-0.391224
-0.381841
-0.372528
-0.363322
-0.354279
-0.345529
-0.337362
-0.330075
-0.325888
-0.336087
-0.449513
-0.436981
-0.426862
-0.416992
-0.406972
-0.397018
-0.387171
-0.37746
-0.367934
-0.358673
-0.349851
-0.341787
-0.334613
-0.330667
-0.33995
-0.458754
-0.445246
-0.434425
-0.423937
-0.413342
-0.402869
-0.392558
-0.382439
-0.372567
-0.36303
-0.354009
-0.345799
-0.338383
-0.333912
-0.341395
-0.46798
-0.453505
-0.441994
-0.430901
-0.41974
-0.408754
-0.397978
-0.387439
-0.377192
-0.36732
-0.357992
-0.349454
-0.341568
-0.336252
-0.341449
-0.477149
-0.461723
-0.449535
-0.43785
-0.426137
-0.414643
-0.403402
-0.392432
-0.38178
-0.371517
-0.361785
-0.352769
-0.34423
-0.337848
-0.340608
-0.486216
-0.469858
-0.457012
-0.444751
-0.432499
-0.420507
-0.408799
-0.397386
-0.386299
-0.375591
-0.365369
-0.355755
-0.346428
-0.338859
-0.33922
-0.495135
-0.477866
-0.464383
-0.451566
-0.43879
-0.42631
-0.414136
-0.402264
-0.390713
-0.379509
-0.368724
-0.358416
-0.348208
-0.339396
-0.337442
-0.503855
-0.485701
-0.471603
-0.458252
-0.44497
-0.432011
-0.41937
-0.407028
-0.394982
-0.383235
-0.371819
-0.360742
-0.349591
-0.339517
-0.335344
-0.51232
-0.49331
-0.478624
-0.464763
-0.450993
-0.437565
-0.424458
-0.41163
-0.39906
-0.386726
-0.374624
-0.362718
-0.350581
-0.339248
-0.332955
-0.520472
-0.500637
-0.485392
-0.471046
-0.456809
-0.442923
-0.429347
-0.416021
-0.402899
-0.389935
-0.377098
-0.364316
-0.351168
-0.338589
-0.330279
-0.528246
-0.507622
-0.491849
-0.477046
-0.462363
-0.448029
-0.433984
-0.420144
-0.406442
-0.392812
-0.379198
-0.365504
-0.351329
-0.337529
-0.327308
-0.535571
-0.514199
-0.497933
-0.482703
-0.467594
-0.452824
-0.438308
-0.423939
-0.409632
-0.395302
-0.380874
-0.366243
-0.351035
-0.336044
-0.324018
-0.542373
-0.520298
-0.503576
-0.487949
-0.472438
-0.457243
-0.442253
-0.427342
-0.412405
-0.397345
-0.382074
-0.366486
-0.350249
-0.334101
-0.32038
-0.548572
-0.525845
-0.508708
-0.492717
-0.476826
-0.461216
-0.445751
-0.430284
-0.414695
-0.398877
-0.382742
-0.366186
-0.348929
-0.331663
-0.316357
-0.554082
-0.530761
-0.513252
-0.496931
-0.480684
-0.464671
-0.44873
-0.432693
-0.416432
-0.399835
-0.382817
-0.365291
-0.347029
-0.328687
-0.311908
-0.558816
-0.534964
-0.51713
-0.500514
-0.483937
-0.467531
-0.451112
-0.434495
-0.417545
-0.400151
-0.382239
-0.363745
-0.344502
-0.32513
-0.306987
-0.562682
-0.538369
-0.520258
-0.503387
-0.486503
-0.469717
-0.45282
-0.435613
-0.417959
-0.399755
-0.380945
-0.361494
-0.341297
-0.320945
-0.301551
-0.565585
-0.540887
-0.522554
-0.505465
-0.488302
-0.471148
-0.453773
-0.435969
-0.4176
-0.39858
-0.378874
-0.358482
-0.337366
-0.316089
-0.295552
-0.567431
-0.54243
-0.52393
-0.506664
-0.489249
-0.47174
-0.453889
-0.435483
-0.416394
-0.396556
-0.375963
-0.354656
-0.332662
-0.310519
-0.288948
-0.568123
-0.542907
-0.524299
-0.506898
-0.489259
-0.47141
-0.453088
-0.434078
-0.414268
-0.393616
-0.372154
-0.349964
-0.32714
-0.304194
-0.281697
-0.567566
-0.542229
-0.523573
-0.506081
-0.488248
-0.470075
-0.451288
-0.431678
-0.411151
-0.389698
-0.36739
-0.344357
-0.320757
-0.297076
-0.273762
-0.565666
-0.540307
-0.521667
-0.504128
-0.48613
-0.467651
-0.448409
-0.428206
-0.406973
-0.384739
-0.361619
-0.337791
-0.313477
-0.289133
-0.265108
-0.562332
-0.537054
-0.518495
-0.500955
-0.482825
-0.46406
-0.444376
-0.423593
-0.401672
-0.378684
-0.354792
-0.330225
-0.305266
-0.280337
-0.255706
-0.557478
-0.532387
-0.513977
-0.496481
-0.478253
-0.459224
-0.439116
-0.41777
-0.395186
-0.37148
-0.346866
-0.321625
-0.296095
-0.270663
-0.245534
-0.551023
-0.526229
-0.508033
-0.490631
-0.472338
-0.453072
-0.432561
-0.410677
-0.387462
-0.363083
-0.337806
-0.311962
-0.285942
-0.260094
-0.234571
-0.542886
-0.518502
-0.50059
-0.483329
-0.465009
-0.445533
-0.424648
-0.402257
-0.378452
-0.353453
-0.327579
-0.301212
-0.27479
-0.248616
-0.222806
-0.532999
-0.50914
-0.49158
-0.474509
-0.456201
-0.436549
-0.41532
-0.392462
-0.368115
-0.342559
-0.316163
-0.289359
-0.262628
-0.236222
-0.210229
-0.521303
-0.498081
-0.480944
-0.464113
-0.445857
-0.426064
-0.404531
-0.38125
-0.356419
-0.330375
-0.303541
-0.276392
-0.249451
-0.222911
-0.196839
-0.507746
-0.485275
-0.468627
-0.452087
-0.433926
-0.414034
-0.39224
-0.368589
-0.34334
-0.316887
-0.289704
-0.26231
-0.23526
-0.208686
-0.182638
-0.492284
-0.470678
-0.454587
-0.438388
-0.420368
-0.40042
-0.378416
-0.354456
-0.328861
-0.302085
-0.274651
-0.247114
-0.220061
-0.193556
-0.167632
-0.474888
-0.454256
-0.438789
-0.422982
-0.40515
-0.385196
-0.363037
-0.338836
-0.312976
-0.28597
-0.258386
-0.230816
-0.203869
-0.177537
-0.151833
-0.455537
-0.435986
-0.421208
-0.405844
-0.388251
-0.368344
-0.346093
-0.321725
-0.295688
-0.26855
-0.240925
-0.213431
-0.1867
-0.160648
-0.135261
-0.434223
-0.415858
-0.401831
-0.386962
-0.369659
-0.349857
-0.327583
-0.303129
-0.277008
-0.249844
-0.222288
-0.194984
-0.168579
-0.142913
-0.117931
-0.410952
-0.393872
-0.380657
-0.366335
-0.349376
-0.329741
-0.307516
-0.283063
-0.256958
-0.229877
-0.202503
-0.175503
-0.149533
-0.124352
-0.0998169
-0.38574
-0.37004
-0.357695
-0.343971
-0.327413
-0.308011
-0.285914
-0.261555
-0.23557
-0.208683
-0.181609
-0.155027
-0.129604
-0.105006
-0.080863
-0.358619
-0.344387
-0.332969
-0.319893
-0.303796
-0.284695
-0.26281
-0.238641
-0.212884
-0.186307
-0.159649
-0.133601
-0.108839
-0.0849751
-0.0614297
-0.329633
-0.316951
-0.306512
-0.294136
-0.278559
-0.259833
-0.238246
-0.214368
-0.18895
-0.162799
-0.136673
-0.111272
-0.087262
-0.0640989
-0.0415247
-0.298838
-0.287782
-0.278372
-0.266747
-0.251751
-0.233475
-0.212278
-0.188794
-0.163827
-0.138218
-0.11274
-0.0880969
-0.064941
-0.0426059
-0.0209623
-0.266305
-0.256943
-0.248609
-0.237784
-0.223431
-0.205684
-0.184968
-0.161985
-0.137583
-0.112632
-0.0879157
-0.0641353
-0.0419312
-0.0205269
0.000171457
-0.232116
-0.22451
-0.217294
-0.207318
-0.193672
-0.176533
-0.156394
-0.134017
-0.110294
-0.0861171
-0.0622719
-0.0394558
-0.0182942
0.00209517
0.0218057
-0.196366
-0.190569
-0.184512
-0.175431
-0.162557
-0.146105
-0.126639
-0.104976
-0.0820451
-0.0587542
-0.0358875
-0.0141327
0.00590133
0.0252005
0.0438796
-0.159161
-0.155219
-0.150357
-0.142218
-0.130178
-0.114494
-0.095797
-0.0749549
-0.0529275
-0.0306327
-0.00884809
0.0117529
0.0305805
0.0487201
0.066326
-0.120618
-0.11857
-0.114935
-0.107783
-0.096638
-0.0818037
-0.0639706
-0.0440547
-0.0230398
-0.001848
0.0187548
0.0381138
0.055662
0.0725759
0.089065
-0.080858
-0.0807466
-0.0783626
-0.0722382
-0.062051
-0.0481448
-0.0312694
-0.0123825
0.00751393
0.0274993
0.0468241
0.064856
0.0810563
0.0966774
0.112002
-0.0400253
-0.0418757
-0.0407652
-0.0357087
-0.0265377
-0.0136365
0.00219032
0.0199489
0.0386248
0.0573047
0.0752583
0.0918798
0.106667
0.120925
0.135021
0.00172545
-0.00208803
-0.00227782
0.00167422
0.00977298
0.0215956
0.0362867
0.0528221
0.0701809
0.0874609
0.103953
0.119083
0.132405
0.145228
0.15791
0.0442495
0.038463
0.0369568
0.0397715
0.0467455
0.0574197
0.0708932
0.0861167
0.102068
0.11786
0.132803
0.146361
0.158196
0.169483
0.180285
0.0873861
0.0796232
0.0767896
0.0784375
0.0842382
0.0936995
0.10588
0.11971
0.134172
0.148394
0.1617
0.173611
0.183926
0.193358
0.201578
0.130966
0.121232
0.117065
0.117521
0.122104
0.130294
0.141113
0.153478
0.166379
0.178961
0.190558
0.20075
0.209398
0.215994
0.220279
0.174815
0.163124
0.15762
0.156863
0.160192
0.167059
0.176457
0.187296
0.198579
0.209471
0.219324
0.227786
0.234598
0.236919
0.235553
0.218761
0.205132
0.198294
0.196309
0.19835
0.203849
0.211775
0.221037
0.230658
0.239833
0.247949
0.254734
0.259994
0.26086
0.260025
0.262623
0.247082
0.238917
0.235692
0.23642
0.240514
0.246926
0.25457
0.262495
0.269932
0.276315
0.28143
0.285139
0.284962
0.284288
0.306219
0.288798
0.279319
0.274848
0.274244
0.276904
0.281769
0.287764
0.293967
0.29965
0.304294
0.307731
0.309842
0.308457
0.307244
0.349364
0.330105
0.319328
0.313612
0.311663
0.312869
0.316163
0.320487
0.324951
0.328869
0.33177
0.333522
0.334022
0.331352
0.329231
0.391878
0.370827
0.358773
0.351818
0.348519
0.348259
0.349969
0.352608
0.355325
0.357475
0.358634
0.358699
0.357585
0.353596
0.350365
0.433578
0.410787
0.397484
0.389303
0.384656
0.382927
0.383047
0.384001
0.384973
0.385361
0.384785
0.383168
0.38044
0.37511
0.37066
0.474286
0.449814
0.435294
0.425903
0.41992
0.416727
0.415264
0.41454
0.413779
0.412422
0.410127
0.406844
0.402515
0.395835
0.390104
0.513827
0.487738
0.472037
0.461461
0.454159
0.449519
0.446488
0.444106
0.441635
0.438558
0.434573
0.429648
0.423742
0.415724
0.408682
0.552029
0.524392
0.507551
0.49582
0.487227
0.481163
0.476593
0.472582
0.468435
0.463675
0.458038
0.45151
0.444064
0.43473
0.426371
0.588728
0.559616
0.541682
0.528833
0.518981
0.511529
0.505455
0.499857
0.494079
0.487685
0.480444
0.47236
0.463423
0.452811
0.443148
0.623764
0.593254
0.574277
0.560352
0.549285
0.540489
0.532959
0.525825
0.518471
0.510501
0.501716
0.492135
0.481765
0.469922
0.458986
0.656984
0.625159
0.605193
0.590241
0.578008
0.567921
0.558992
0.550385
0.541522
0.532044
0.521783
0.510774
0.499039
0.486023
0.473854
0.688242
0.655189
0.634293
0.618368
0.605027
0.59371
0.58345
0.573442
0.563146
0.552237
0.54058
0.528219
0.515196
0.50107
0.487724
0.717403
0.68321
0.661447
0.64461
0.630225
0.617748
0.606233
0.594906
0.583262
0.571011
0.558042
0.544415
0.530188
0.515025
0.500565
0.744338
0.709099
0.686535
0.66885
0.653493
0.639935
0.62725
0.614694
0.601796
0.588297
0.574113
0.559312
0.543971
0.527848
0.512348
0.76893
0.73274
0.709445
0.690982
0.674731
0.660178
0.646416
0.632729
0.61868
0.604037
0.588738
0.572863
0.556503
0.539503
0.523044
0.79107
0.754028
0.730075
0.710909
0.693847
0.678391
0.663653
0.648942
0.63385
0.618173
0.601867
0.585023
0.567745
0.549955
0.532626
0.810662
0.772868
0.748333
0.728542
0.710759
0.694499
0.678891
0.663269
0.647251
0.630655
0.613456
0.595753
0.577663
0.559173
0.541069
0.827617
0.789176
0.764137
0.743803
0.725392
0.708433
0.692068
0.675655
0.658832
0.641438
0.623466
0.605018
0.586224
0.567129
0.54835
0.841863
0.802879
0.777417
0.756625
0.737685
0.720136
0.703133
0.686052
0.66855
0.650485
0.63186
0.612786
0.593402
0.573798
0.55445
0.853336
0.813916
0.788112
0.766951
0.747584
0.729557
0.712038
0.694418
0.676369
0.657761
0.638612
0.619033
0.599173
0.579159
0.55935
0.861985
0.822237
0.796176
0.774737
0.755046
0.736658
0.718749
0.700721
0.682258
0.663242
0.643696
0.623736
0.603518
0.583195
0.563038
0.867773
0.827805
0.801572
0.779946
0.760039
0.741409
0.723239
0.704937
0.686197
0.666907
0.647095
0.626881
0.606423
0.585893
0.565503
0.870673
0.830596
0.804276
0.782556
0.76254
0.743789
0.725488
0.707049
0.68817
0.668743
0.648798
0.628455
0.607877
0.587244
0.566737
0.870673
0.830596
0.804276
0.782556
0.76254
0.743789
0.725488
0.707049
0.68817
0.668743
0.648798
0.628455
0.607877
0.587244
0.566737
0.867773
0.827805
0.801572
0.779946
0.760039
0.741409
0.723239
0.704937
0.686197
0.666907
0.647095
0.626881
0.606423
0.585893
0.565503
0.861985
0.822237
0.796176
0.774737
0.755046
0.736658
0.718749
0.700721
0.682258
0.663242
0.643696
0.623736
0.603518
0.583195
0.563038
0.853336
0.813916
0.788112
0.766951
0.747584
0.729557
0.712038
0.694418
0.676369
0.657761
0.638612
0.619033
0.599173
0.579159
0.55935
0.841863
0.802879
0.777417
0.756625
0.737685
0.720136
0.703133
0.686052
0.66855
0.650485
0.63186
0.612786
0.593402
0.573798
0.55445
0.827617
0.789176
0.764137
0.743803
0.725392
0.708433
0.692068
0.675655
0.658832
0.641438
0.623466
0.605018
0.586224
0.567129
0.54835
0.810662
0.772868
0.748333
0.728542
0.710759
0.694499
0.678891
0.663269
0.647251
0.630655
0.613456
0.595753
0.577663
0.559173
0.541069
0.79107
0.754028
0.730075
0.710909
0.693847
0.678391
0.663653
0.648942
0.63385
0.618173
0.601867
0.585023
0.567745
0.549955
0.532626
0.76893
0.73274
0.709445
0.690982
0.674731
0.660178
0.646416
0.632729
0.61868
0.604037
0.588738
0.572863
0.556503
0.539503
0.523044
0.744338
0.709099
0.686535
0.66885
0.653493
0.639935
0.62725
0.614694
0.601796
0.588297
0.574113
0.559312
0.543971
0.527848
0.512348
0.717403
0.68321
0.661447
0.64461
0.630225
0.617748
0.606233
0.594906
0.583262
0.571011
0.558042
0.544415
0.530188
0.515025
0.500565
0.688242
0.655189
0.634293
0.618368
0.605027
0.59371
0.58345
0.573442
0.563146
0.552237
0.54058
0.528219
0.515196
0.50107
0.487724
0.656984
0.625159
0.605193
0.590241
0.578008
0.567921
0.558992
0.550385
0.541522
0.532044
0.521783
0.510774
0.499039
0.486023
0.473854
0.623764
0.593254
0.574277
0.560352
0.549285
0.540489
0.532959
0.525825
0.518471
0.510501
0.501716
0.492135
0.481765
0.469922
0.458986
0.588728
0.559616
0.541682
0.528833
0.518981
0.511529
0.505455
0.499857
0.494079
0.487685
0.480444
0.47236
0.463423
0.452811
0.443149
0.55203
0.524392
0.507551
0.49582
0.487227
0.481164
0.476593
0.472582
0.468435
0.463675
0.458038
0.45151
0.444064
0.43473
0.426371
0.513827
0.487738
0.472037
0.461461
0.454159
0.449519
0.446488
0.444106
0.441635
0.438558
0.434573
0.429648
0.423742
0.415724
0.408682
0.474286
0.449814
0.435294
0.425903
0.41992
0.416727
0.415264
0.41454
0.413779
0.412422
0.410127
0.406844
0.402515
0.395835
0.390104
0.433578
0.410787
0.397484
0.389303
0.384656
0.382927
0.383047
0.384001
0.384973
0.385361
0.384785
0.383168
0.38044
0.37511
0.37066
0.391878
0.370827
0.358773
0.351818
0.348519
0.348259
0.349969
0.352608
0.355325
0.357475
0.358634
0.358699
0.357585
0.353596
0.350365
0.349364
0.330105
0.319328
0.313612
0.311663
0.312869
0.316163
0.320487
0.324951
0.328869
0.33177
0.333522
0.334022
0.331352
0.329231
0.306219
0.288798
0.279319
0.274848
0.274244
0.276904
0.281769
0.287764
0.293967
0.29965
0.304294
0.307731
0.309842
0.308457
0.307244
0.262623
0.247082
0.238917
0.235692
0.23642
0.240514
0.246926
0.25457
0.262495
0.269932
0.276315
0.28143
0.285139
0.284962
0.284288
0.218761
0.205132
0.198294
0.196309
0.19835
0.203849
0.211775
0.221037
0.230658
0.239833
0.247949
0.254734
0.259994
0.26086
0.260025
0.174815
0.163124
0.15762
0.156864
0.160192
0.167059
0.176457
0.187296
0.198579
0.209471
0.219324
0.227786
0.234598
0.236919
0.235553
0.130966
0.121232
0.117065
0.117521
0.122104
0.130294
0.141113
0.153478
0.166379
0.178961
0.190558
0.20075
0.209398
0.215994
0.220279
0.0873861
0.0796232
0.0767897
0.0784376
0.0842382
0.0936995
0.10588
0.11971
0.134172
0.148394
0.1617
0.173611
0.183926
0.193359
0.201578
0.0442496
0.038463
0.0369569
0.0397715
0.0467455
0.0574197
0.0708932
0.0861167
0.102068
0.11786
0.132803
0.146361
0.158196
0.169483
0.180285
0.00172549
-0.00208799
-0.00227778
0.00167426
0.00977301
0.0215956
0.0362868
0.0528221
0.0701809
0.087461
0.103953
0.119083
0.132405
0.145228
0.15791
-0.0400253
-0.0418756
-0.0407652
-0.0357086
-0.0265377
-0.0136364
0.00219037
0.0199489
0.0386249
0.0573047
0.0752584
0.0918799
0.106667
0.120925
0.135021
-0.080858
-0.0807466
-0.0783626
-0.0722381
-0.0620509
-0.0481448
-0.0312694
-0.0123825
0.00751397
0.0274994
0.0468242
0.0648561
0.0810563
0.0966774
0.112003
-0.120618
-0.11857
-0.114935
-0.107782
-0.096638
-0.0818037
-0.0639706
-0.0440547
-0.0230397
-0.00184795
0.0187549
0.0381138
0.0556621
0.072576
0.0890651
-0.159161
-0.155219
-0.150357
-0.142218
-0.130178
-0.114494
-0.0957969
-0.0749549
-0.0529275
-0.0306327
-0.00884803
0.0117529
0.0305806
0.0487202
0.0663261
-0.196366
-0.190569
-0.184512
-0.175431
-0.162557
-0.146105
-0.126639
-0.104976
-0.082045
-0.0587541
-0.0358875
-0.0141327
0.00590139
0.0252005
0.0438796
-0.232116
-0.22451
-0.217294
-0.207318
-0.193672
-0.176533
-0.156394
-0.134017
-0.110294
-0.0861171
-0.0622718
-0.0394557
-0.0182941
0.00209523
0.0218057
-0.266305
-0.256943
-0.248609
-0.237784
-0.223431
-0.205684
-0.184968
-0.161985
-0.137583
-0.112632
-0.0879156
-0.0641353
-0.0419311
-0.0205269
0.000171521
-0.298838
-0.287782
-0.278372
-0.266747
-0.25175
-0.233475
-0.212278
-0.188794
-0.163827
-0.138218
-0.11274
-0.0880968
-0.0649409
-0.0426058
-0.0209622
-0.329633
-0.316951
-0.306512
-0.294136
-0.278559
-0.259833
-0.238246
-0.214368
-0.18895
-0.162799
-0.136673
-0.111272
-0.0872619
-0.0640989
-0.0415247
-0.358619
-0.344387
-0.332969
-0.319893
-0.303796
-0.284695
-0.26281
-0.238641
-0.212884
-0.186307
-0.159649
-0.133601
-0.108839
-0.0849751
-0.0614297
-0.38574
-0.37004
-0.357695
-0.343971
-0.327413
-0.308011
-0.285914
-0.261555
-0.23557
-0.208683
-0.181609
-0.155027
-0.129604
-0.105006
-0.0808629
-0.410952
-0.393872
-0.380657
-0.366334
-0.349376
-0.329741
-0.307516
-0.283063
-0.256958
-0.229877
-0.202503
-0.175503
-0.149533
-0.124352
-0.0998169
-0.434223
-0.415858
-0.401831
-0.386962
-0.369659
-0.349857
-0.327582
-0.303129
-0.277008
-0.249844
-0.222287
-0.194984
-0.168579
-0.142913
-0.117931
-0.455537
-0.435986
-0.421208
-0.405844
-0.38825
-0.368343
-0.346093
-0.321725
-0.295688
-0.26855
-0.240925
-0.213431
-0.1867
-0.160648
-0.135261
-0.474888
-0.454256
-0.438789
-0.422982
-0.40515
-0.385196
-0.363037
-0.338836
-0.312976
-0.28597
-0.258386
-0.230816
-0.203869
-0.177537
-0.151833
-0.492284
-0.470678
-0.454587
-0.438388
-0.420368
-0.40042
-0.378416
-0.354456
-0.328861
-0.302085
-0.27465
-0.247114
-0.220061
-0.193556
-0.167632
-0.507746
-0.485275
-0.468627
-0.452087
-0.433926
-0.414034
-0.39224
-0.368589
-0.34334
-0.316887
-0.289704
-0.262309
-0.23526
-0.208686
-0.182638
-0.521303
-0.498081
-0.480944
-0.464113
-0.445857
-0.426064
-0.404531
-0.38125
-0.356419
-0.330375
-0.303541
-0.276392
-0.249451
-0.222911
-0.196839
-0.532999
-0.509139
-0.49158
-0.474509
-0.456201
-0.436549
-0.41532
-0.392461
-0.368115
-0.342559
-0.316163
-0.289358
-0.262628
-0.236222
-0.210229
-0.542886
-0.518502
-0.50059
-0.483329
-0.465009
-0.445533
-0.424648
-0.402257
-0.378451
-0.353453
-0.327579
-0.301212
-0.27479
-0.248616
-0.222806
-0.551023
-0.526229
-0.508033
-0.490631
-0.472338
-0.453071
-0.432561
-0.410677
-0.387462
-0.363083
-0.337806
-0.311962
-0.285942
-0.260094
-0.234571
-0.557478
-0.532387
-0.513976
-0.496481
-0.478253
-0.459224
-0.439116
-0.41777
-0.395185
-0.37148
-0.346866
-0.321625
-0.296095
-0.270663
-0.245533
-0.562332
-0.537054
-0.518495
-0.500955
-0.482825
-0.46406
-0.444376
-0.423592
-0.401671
-0.378684
-0.354791
-0.330225
-0.305266
-0.280337
-0.255706
-0.565666
-0.540307
-0.521667
-0.504128
-0.48613
-0.467651
-0.448409
-0.428206
-0.406973
-0.384739
-0.361618
-0.337791
-0.313477
-0.289133
-0.265107
-0.567566
-0.542229
-0.523573
-0.506081
-0.488248
-0.470074
-0.451287
-0.431678
-0.411151
-0.389698
-0.36739
-0.344357
-0.320757
-0.297076
-0.273762
-0.568123
-0.542907
-0.524299
-0.506898
-0.489259
-0.47141
-0.453088
-0.434078
-0.414268
-0.393616
-0.372154
-0.349964
-0.32714
-0.304194
-0.281697
-0.567431
-0.54243
-0.52393
-0.506664
-0.489249
-0.47174
-0.453889
-0.435483
-0.416394
-0.396555
-0.375963
-0.354656
-0.332662
-0.310519
-0.288948
-0.565585
-0.540887
-0.522554
-0.505465
-0.488302
-0.471148
-0.453772
-0.435968
-0.4176
-0.398579
-0.378874
-0.358482
-0.337366
-0.316089
-0.295552
-0.562682
-0.538369
-0.520258
-0.503386
-0.486503
-0.469717
-0.45282
-0.435613
-0.417959
-0.399755
-0.380945
-0.361494
-0.341296
-0.320945
-0.301551
-0.558816
-0.534964
-0.517129
-0.500514
-0.483937
-0.467531
-0.451112
-0.434495
-0.417545
-0.400151
-0.382239
-0.363745
-0.344501
-0.325129
-0.306987
-0.554082
-0.530761
-0.513252
-0.496931
-0.480684
-0.464671
-0.44873
-0.432693
-0.416432
-0.399835
-0.382817
-0.365291
-0.347029
-0.328687
-0.311908
-0.548572
-0.525845
-0.508708
-0.492716
-0.476826
-0.461216
-0.445751
-0.430284
-0.414695
-0.398877
-0.382742
-0.366186
-0.348929
-0.331663
-0.316357
-0.542373
-0.520298
-0.503576
-0.487949
-0.472438
-0.457243
-0.442253
-0.427342
-0.412405
-0.397344
-0.382074
-0.366486
-0.350249
-0.334101
-0.32038
-0.535571
-0.514199
-0.497933
-0.482702
-0.467594
-0.452824
-0.438308
-0.423939
-0.409632
-0.395302
-0.380874
-0.366242
-0.351035
-0.336044
-0.324018
-0.528246
-0.507621
-0.491849
-0.477046
-0.462363
-0.448029
-0.433984
-0.420144
-0.406442
-0.392812
-0.379197
-0.365504
-0.351329
-0.337529
-0.327308
-0.520472
-0.500637
-0.485392
-0.471046
-0.456809
-0.442923
-0.429347
-0.416021
-0.402899
-0.389935
-0.377098
-0.364316
-0.351167
-0.338589
-0.330279
-0.51232
-0.493309
-0.478624
-0.464763
-0.450993
-0.437565
-0.424458
-0.41163
-0.39906
-0.386725
-0.374624
-0.362718
-0.350581
-0.339248
-0.332955
-0.503855
-0.485701
-0.471603
-0.458252
-0.44497
-0.43201
-0.41937
-0.407028
-0.394982
-0.383235
-0.371819
-0.360742
-0.349591
-0.339517
-0.335344
-0.495135
-0.477866
-0.464383
-0.451566
-0.43879
-0.426309
-0.414136
-0.402264
-0.390713
-0.379509
-0.368723
-0.358416
-0.348208
-0.339396
-0.337442
-0.486216
-0.469858
-0.457012
-0.444751
-0.432499
-0.420507
-0.408799
-0.397385
-0.386299
-0.375591
-0.365369
-0.355755
-0.346428
-0.338859
-0.33922
-0.477149
-0.461723
-0.449535
-0.43785
-0.426137
-0.414643
-0.403402
-0.392432
-0.38178
-0.371517
-0.361785
-0.352769
-0.34423
-0.337848
-0.340608
-0.46798
-0.453505
-0.441994
-0.4309
-0.41974
-0.408754
-0.397978
-0.387439
-0.377192
-0.36732
-0.357992
-0.349454
-0.341568
-0.336252
-0.341449
-0.458754
-0.445246
-0.434425
-0.423937
-0.413342
-0.402869
-0.392558
-0.382439
-0.372567
-0.363029
-0.354009
-0.345799
-0.338383
-0.333912
-0.341395
-0.449513
-0.436981
-0.426862
-0.416992
-0.406972
-0.397018
-0.387171
-0.37746
-0.367934
-0.358673
-0.349851
-0.341787
-0.334613
-0.330667
-0.33995
-0.440296
-0.428748
-0.419338
-0.410093
-0.400654
-0.391224
-0.381841
-0.372528
-0.363321
-0.354279
-0.345529
-0.337362
-0.330075
-0.325888
-0.336087
-0.431143
-0.42058
-0.411883
-0.403267
-0.394414
-0.385511
-0.376592
-0.36767
-0.358763
-0.349887
-0.341073
-0.332473
-0.324308
-0.316888
-0.321017
-0.422091
-0.412507
-0.404522
-0.396538
-0.388273
-0.379899
-0.371446
-0.362916
-0.354305
-0.345582
-0.336646
-0.327423
-0.317708
-0.302201
-0.271952
-0.413174
-0.404561
-0.397284
-0.389928
-0.382251
-0.374409
-0.366426
-0.358297
-0.350003
-0.341478
-0.332548
-0.323028
-0.312808
-0.296444
-0.265923
-0.404428
-0.396768
-0.39019
-0.383458
-0.376367
-0.369057
-0.36155
-0.353837
-0.345891
-0.337638
-0.328894
-0.31949
-0.309584
-0.294962
-0.269979
-0.395882
-0.389154
-0.383263
-0.377146
-0.370636
-0.363858
-0.356832
-0.34955
-0.341984
-0.334066
-0.325636
-0.316579
-0.3072
-0.294038
-0.273066
-0.387565
-0.381743
-0.376523
-0.371011
-0.365073
-0.358823
-0.352281
-0.345441
-0.338282
-0.330746
-0.322705
-0.314106
-0.305318
-0.293373
-0.275401
-0.379503
-0.374556
-0.369988
-0.365066
-0.35969
-0.353961
-0.347903
-0.341514
-0.334778
-0.327655
-0.32005
-0.311964
-0.303805
-0.29301
-0.277496
-0.371717
-0.367613
-0.363674
-0.359325
-0.354498
-0.349282
-0.343703
-0.337766
-0.331463
-0.324772
-0.317628
-0.310074
-0.302535
-0.292788
-0.279295
-0.364228
-0.36093
-0.357597
-0.353802
-0.349507
-0.344791
-0.339683
-0.334195
-0.328328
-0.322074
-0.315397
-0.308371
-0.30141
-0.292583
-0.280741
-0.357052
-0.354523
-0.351771
-0.348508
-0.344725
-0.340494
-0.335846
-0.330798
-0.325362
-0.319543
-0.313325
-0.306804
-0.300372
-0.292342
-0.281854
-0.350205
-0.348406
-0.346207
-0.343452
-0.340162
-0.336397
-0.332193
-0.327573
-0.322557
-0.31716
-0.311386
-0.305338
-0.299381
-0.292041
-0.282677
-0.343699
-0.342592
-0.340917
-0.338646
-0.335824
-0.332505
-0.328726
-0.324518
-0.319905
-0.314913
-0.309559
-0.303951
-0.298416
-0.291674
-0.283248
-0.337548
-0.337093
-0.335914
-0.334099
-0.33172
-0.328823
-0.325449
-0.321632
-0.317403
-0.312794
-0.307832
-0.302625
-0.297464
-0.291241
-0.283606
-0.331763
-0.331922
-0.331206
-0.32982
-0.327858
-0.325359
-0.322365
-0.318916
-0.315047
-0.310797
-0.306197
-0.301353
-0.29652
-0.290749
-0.283786
-0.326357
-0.327088
-0.326807
-0.32582
-0.324246
-0.322117
-0.319478
-0.316372
-0.312839
-0.308919
-0.304651
-0.300133
-0.295586
-0.290209
-0.283818
-0.32134
-0.322604
-0.322724
-0.322108
-0.320893
-0.319106
-0.316795
-0.314005
-0.31078
-0.307163
-0.303194
-0.298965
-0.294669
-0.289635
-0.283731
-0.316725
-0.318481
-0.31897
-0.318693
-0.317807
-0.316333
-0.314321
-0.311821
-0.308875
-0.30553
-0.30183
-0.297857
-0.293778
-0.289044
-0.283553
-0.312525
-0.31473
-0.315555
-0.315585
-0.314996
-0.313806
-0.312065
-0.309824
-0.30713
-0.304029
-0.300565
-0.296817
-0.292923
-0.288454
-0.2833
-0.308752
-0.311361
-0.312488
-0.312793
-0.312471
-0.311533
-0.310033
-0.308023
-0.305551
-0.302664
-0.299409
-0.295854
-0.292121
-0.287887
-0.282988
-0.305418
-0.308386
-0.309779
-0.310327
-0.310239
-0.309522
-0.308233
-0.306424
-0.304146
-0.301446
-0.298369
-0.29498
-0.29138
-0.287317
-0.282719
-0.302534
-0.305815
-0.307438
-0.308195
-0.308308
-0.307782
-0.306673
-0.305037
-0.302924
-0.300381
-0.297455
-0.294205
-0.290716
-0.286805
-0.28249
-0.300113
-0.303656
-0.305473
-0.306405
-0.306686
-0.306319
-0.30536
-0.303868
-0.301891
-0.299479
-0.296677
-0.293541
-0.290142
-0.286358
-0.282245
-0.298162
-0.301919
-0.303892
-0.304964
-0.30538
-0.305139
-0.304301
-0.302923
-0.301055
-0.298746
-0.296043
-0.292996
-0.289667
-0.285984
-0.282019
-0.296692
-0.300609
-0.3027
-0.303878
-0.304395
-0.30425
-0.303502
-0.302209
-0.300423
-0.298191
-0.29556
-0.29258
-0.289303
-0.285695
-0.281836
-0.295708
-0.299733
-0.301902
-0.303151
-0.303736
-0.303655
-0.302966
-0.301731
-0.299998
-0.297817
-0.295235
-0.292298
-0.289056
-0.285498
-0.281708
-0.295215
-0.299294
-0.301503
-0.302787
-0.303405
-0.303356
-0.302698
-0.301491
-0.299785
-0.29763
-0.295071
-0.292156
-0.288931
-0.285398
-0.281643
-0.277391
-0.270371
-0.26313
-0.25486
-0.245883
-0.236223
-0.225974
-0.215241
-0.204128
-0.192748
-0.181206
-0.169606
-0.158041
-0.146597
-0.135352
-0.124373
-0.113717
-0.103435
-0.093561
-0.084139
-0.0751681
-0.0667127
-0.0586904
-0.0512748
-0.0441541
-0.0378703
-0.0314528
-0.0265304
-0.0203066
-0.0173907
-0.0101381