/*--------------------------------*- C++ -*----------------------------------*\
  =========                 |
  \\      /  F ield         | OpenFOAM: The Open Source CFD Toolbox
   \\    /   O peration     | Website:  https://openfoam.org
    \\  /    A nd           | Version:  7
     \\/     M anipulation  |
\*---------------------------------------------------------------------------*/
FoamFile
{
    version     2.0;
    format      ascii;
    class       volVectorField;
    location    "20";
    object      U;
}
// * * * * * * * * * * * * * * * * * * * * * * * * * * * * * * * * * * * * * //

dimensions      [0 1 -1 0 0 0 0];

internalField   nonuniform List<vector> 
5110
(
(0.0149523 -0.00759533 5.1208e-20)
(0.0181254 -0.00859941 5.84726e-20)
(0.0633931 -0.0242344 -2.01407e-19)
(0.0215647 -0.00947945 3.30308e-21)
(0.0733053 -0.0260407 2.42342e-19)
(0.13649 -0.036056 1.29835e-19)
(0.20906 -0.0414262 7.26762e-20)
(0.0252634 -0.0102093 -9.52461e-20)
(0.0838569 -0.0273975 -6.74131e-20)
(0.15356 -0.0370931 -8.53526e-20)
(0.232265 -0.0414791 -1.56103e-19)
(0.318636 -0.0410102 -9.71146e-20)
(0.029212 -0.0107633 -2.87709e-19)
(0.0950111 -0.0282389 2.83107e-20)
(0.171439 -0.0372931 -6.67605e-20)
(0.256352 -0.0403984 2.16549e-19)
(0.348308 -0.0381753 -2.51642e-20)
(0.445709 -0.0312057 9.15792e-20)
(0.0333979 -0.011116 1.93883e-19)
(0.106723 -0.0285018 -1.43004e-19)
(0.190045 -0.0365696 -2.07807e-20)
(0.281194 -0.0380872 8.46743e-20)
(0.378626 -0.0338508 -1.00222e-19)
(0.480601 -0.0246109 -9.82452e-20)
(0.585099 -0.0113168 1.03778e-19)
(0.689878 0.00499459 5.29767e-20)
(0.0378051 -0.011243 -2.53034e-19)
(0.118937 -0.028127 3.7422e-20)
(0.209278 -0.0348441 6.72877e-20)
(0.306647 -0.0344614 -1.0869e-19)
(0.4094 -0.0279609 8.83407e-20)
(0.51566 -0.016271 3.02126e-19)
(0.623258 -0.000520685 -2.06496e-19)
(0.729802 0.0180873 -3.60144e-19)
(0.832738 0.0382597 2.01106e-19)
(0.0424139 -0.011121 1.26085e-19)
(0.131591 -0.0270598 -8.2752e-20)
(0.22903 -0.0320471 6.37639e-20)
(0.332554 -0.0294518 4.03709e-21)
(0.440425 -0.02045 -3.85143e-20)
(0.550643 -0.00615729 -1.41389e-19)
(0.660901 0.0121118 3.60897e-19)
(0.768693 0.0329864 2.15778e-19)
(0.871395 0.0550384 -1.18262e-19)
(0.966423 0.0769302 -9.63424e-20)
(1.0514 0.0973317 -1.99965e-20)
(0.0472011 -0.0107278 -6.4016e-20)
(0.144612 -0.0252507 8.05699e-20)
(0.249177 -0.0281197 1.63361e-20)
(0.358741 -0.0230042 -1.12361e-19)
(0.471483 -0.0112829 -1.05865e-19)
(0.585291 0.00573447 3.33561e-20)
(0.697748 0.0265441 -4.22814e-20)
(0.806264 0.0496084 -1.39962e-19)
(0.908193 0.0733715 -1.15923e-19)
(1.00101 0.0964091 6.258e-20)
(1.0825 0.117366 4.79601e-20)
(1.15033 0.133175 -1.98036e-19)
(0.0521394 -0.0100433 1.15451e-19)
(0.157919 -0.0226567 4.35136e-20)
(0.269585 -0.0230141 -4.51285e-20)
(0.385025 -0.0150814 9.53528e-20)
(0.502347 -0.000445774 8.44428e-20)
(0.619345 0.0193839 -9.05769e-20)
(0.73352 0.0427142 -4.3825e-20)
(0.842236 0.067846 1.05045e-19)
(0.942878 0.0931084 1.66157e-19)
(1.03304 0.117009 1.41731e-19)
(1.11071 0.138192 8.43944e-20)
(1.17403 0.15405 1.11641e-19)
(0.0571981 -0.0090494 -3.20681e-20)
(0.171422 -0.0192421 1.00791e-19)
(0.290109 -0.0166951 6.06035e-20)
(0.411211 -0.00566332 -1.92012e-19)
(0.532782 0.0120539 1.24874e-19)
(0.652542 0.0347469 -1.30631e-19)
(0.767942 0.060536 6.28564e-20)
(0.876347 0.0875711 -1.43541e-19)
(0.97522 0.114084 9.58296e-20)
(1.06233 0.138538 -4.57503e-21)
(1.13593 0.159607 -8.13881e-20)
(1.19461 0.175135 -1.24259e-19)
(0.0623426 -0.00773091 -5.25935e-20)
(0.185023 -0.0149793 -1.17495e-20)
(0.310596 -0.0091412 -1.56728e-20)
(0.437098 0.00525161 1.16392e-19)
(0.562548 0.026187 -3.15456e-20)
(0.68462 0.051756 1.10293e-19)
(0.800752 0.0799011 5.18379e-20)
(0.908353 0.108637 1.23473e-19)
(1.00502 0.136121 -2.9258e-20)
(1.08874 0.160802 -1.82975e-19)
(1.15809 0.181416 3.75389e-21)
(1.2121 0.196253 1.00518e-19)
(0.0675353 -0.00607563 1.007e-19)
(0.198619 -0.00984978 -1.52922e-19)
(0.330885 -0.000345207 1.1433e-20)
(0.462479 0.0176463 9.14292e-20)
(0.591407 0.0419027 -8.55306e-20)
(0.715327 0.0703218 -1.25564e-20)
(0.831702 0.100681 -9.62519e-21)
(0.938032 0.130882 -1.2979e-20)
(1.0321 0.159035 -2.53003e-20)
(1.11216 0.183607 8.17299e-20)
(1.17714 0.203433 2.83566e-20)
(1.22651 0.21724 1.69098e-21)
(0.0727353 -0.004075 3.72413e-21)
(0.2121 -0.00384516 1.84325e-20)
(0.350809 0.00968472 5.19373e-20)
(0.487146 0.0314846 -8.22565e-20)
(0.619123 0.0591292 7.17676e-21)
(0.744419 0.090334 2.75653e-20)
(0.860561 0.122731 -1.15772e-19)
(0.965191 0.154132 1.4758e-20)
(1.05632 0.182636 -2.07145e-20)
(1.13251 0.206762 1.14706e-20)
(1.19308 0.22548 -6.42787e-20)
(1.23791 0.237952 3.65974e-20)
(0.0778993 -0.00172442 -1.99847e-20)
(0.22535 0.00303224 -1.9449e-20)
(0.3702 0.0209245 -7.61228e-21)
(0.510888 0.0467107 9.54065e-21)
(0.645466 0.077774 2.42954e-20)
(0.771664 0.111663 1.82959e-20)
(0.88712 0.145887 4.99082e-20)
(0.989662 0.178203 -7.93389e-21)
(1.07757 0.20673 3.60338e-20)
(1.14977 0.230081 -4.46543e-20)
(1.20594 0.247393 1.47105e-20)
(1.24639 0.258258 -7.29469e-21)
(0.0829818 0.000976324 -1.74213e-21)
(0.238253 0.0107688 1.05174e-20)
(0.388887 0.0333339 5.55904e-21)
(0.533501 0.06325 1.32065e-20)
(0.670216 0.0977249 -1.11247e-20)
(0.79685 0.134161 -2.0194e-20)
(0.911193 0.169975 4.96128e-21)
(1.0113 0.202902 -2.50292e-20)
(1.09578 0.231125 5.56966e-21)
(1.1639 0.253383 1.35409e-20)
(1.21577 0.269018 -1.00383e-20)
(1.25206 0.278043 4.65575e-21)
(0.0879365 0.00402284 -3.7195e-21)
(0.250691 0.0193391 1.1544e-20)
(0.406701 0.0468561 -4.74535e-22)
(0.554787 0.0810091 1.57602e-20)
(0.693165 0.118851 -5.95257e-21)
(0.819782 0.157665 -1.65239e-20)
(0.93262 0.194808 6.53441e-22)
(1.03001 0.228035 -2.00491e-20)
(1.11089 0.255629 2.50646e-22)
(1.17494 0.276496 9.86804e-21)
(1.22265 0.290212 -9.79397e-21)
(1.25503 0.297203 6.04018e-21)
(0.0927155 0.00740592 1.37932e-20)
(0.262545 0.0287059 -1.95601e-20)
(0.423478 0.0614182 -2.44042e-20)
(0.574555 0.0998766 3.81153e-21)
(0.714122 0.141006 1.91994e-20)
(0.840287 0.181999 5.61519e-21)
(0.951268 0.220193 5.52317e-20)
(1.0457 0.253402 -1.54423e-20)
(1.12289 0.280053 4.87004e-20)
(1.18292 0.299255 -4.20819e-20)
(1.22666 0.310842 2.13922e-20)
(1.25543 0.315647 -2.56029e-20)
(0.097271 0.0111113 -3.10506e-20)
(0.273698 0.0388198 6.41947e-20)
(0.439057 0.0769313 1.33055e-20)
(0.592628 0.119724 -6.68886e-20)
(0.732912 0.164025 2.95536e-21)
(0.858217 0.206973 2.10313e-20)
(0.967029 0.245927 -6.43507e-20)
(1.05832 0.278804 6.86754e-21)
(1.13179 0.304216 -2.75349e-20)
(1.18791 0.321504 -1.22457e-20)
(1.22792 0.330787 -1.76758e-20)
(1.2534 0.333291 2.38226e-20)
(0.101556 0.0151196 6.29641e-20)
(0.284038 0.0496195 -8.59182e-20)
(0.45329 0.0932912 -4.14581e-20)
(0.608841 0.140408 4.11685e-20)
(0.74938 0.187733 -5.19851e-20)
(0.873445 0.232391 -1.42532e-21)
(0.979825 0.271806 2.14446e-20)
(1.06785 0.304044 -3.13487e-20)
(1.13761 0.327939 -6.3198e-21)
(1.18998 0.343097 9.75328e-20)
(1.22654 0.349933 -5.31574e-21)
(1.24907 0.350062 1.32157e-21)
(0.105524 0.0194066 -1.01008e-19)
(0.293458 0.0610324 1.94595e-20)
(0.466035 0.11038 3.15732e-20)
(0.623047 0.161769 2.74598e-20)
(0.763393 0.211941 4.58741e-20)
(0.885874 0.258048 3.7142e-20)
(0.989602 0.297624 5.52297e-20)
(1.07429 0.328928 1.04314e-19)
(1.14041 0.351054 -8.00795e-20)
(1.18924 0.363894 -8.24282e-20)
(1.22264 0.368177 3.84907e-21)
(1.24259 0.365891 5.19804e-20)
(0.109131 0.023943 -3.4264e-20)
(0.301858 0.0729748 2.83246e-20)
(0.477166 0.128065 9.57343e-20)
(0.635118 0.183638 -1.52479e-19)
(0.774844 0.236453 7.74099e-20)
(0.895431 0.283734 -4.73464e-20)
(0.996337 0.323175 1.56212e-21)
(1.07766 0.353268 -7.09297e-20)
(1.14026 0.373399 5.42455e-20)
(1.18578 0.383768 -1.48756e-21)
(1.21637 0.385423 -3.96085e-20)
(1.2341 0.380718 -7.22646e-20)
(0.112337 0.028695 4.57622e-20)
(0.309146 0.0853532 9.72149e-20)
(0.486571 0.146204 -1.19041e-19)
(0.644944 0.205835 1.18572e-19)
(0.783646 0.261065 -1.72768e-20)
(0.902069 0.30924 5.21073e-20)
(1.00003 0.348256 -5.15645e-20)
(1.078 0.37688 3.93337e-20)
(1.13726 0.394819 9.92776e-20)
(1.17974 0.402598 7.84317e-20)
(1.20786 0.40158 8.63303e-20)
(1.22375 0.394488 3.03396e-20)
(0.115104 0.0336244 3.19727e-20)
(0.315241 0.0980652 1.77776e-20)
(0.494155 0.164645 -7.51311e-21)
(0.652438 0.228169 -5.30816e-20)
(0.78974 0.285568 -2.6049e-20)
(0.905769 0.334352 -3.30175e-20)
(1.0007 0.372667 -3.8176e-20)
(1.0754 0.399589 -1.02785e-19)
(1.13149 0.41517 -5.79111e-20)
(1.17124 0.420269 6.16934e-20)
(1.19724 0.416563 -4.27741e-20)
(1.21167 0.407155 1.14909e-20)
(0.117398 0.0386892 1.20171e-19)
(0.320074 0.111 -3.74681e-20)
(0.499838 0.183225 1.95974e-20)
(0.657537 0.250447 -5.39812e-20)
(0.793092 0.309751 5.02044e-21)
(0.906536 0.358863 -7.42331e-21)
(0.998406 0.396216 1.13349e-19)
(1.06994 0.421229 2.03042e-19)
(1.12309 0.434318 -5.22954e-20)
(1.16041 0.436676 -8.77117e-20)
(1.18466 0.430284 -1.11925e-20)
(1.19796 0.418669 -3.13074e-20)
(0.119191 0.0438438 -1.36178e-19)
(0.323588 0.124042 -1.44324e-20)
(0.503562 0.201778 5.25164e-20)
(0.660198 0.272469 -3.53107e-20)
(0.793692 0.333405 -2.00936e-20)
(0.9044 0.382567 1.80268e-19)
(0.993211 0.418718 -1.41506e-19)
(1.06171 0.441644 -1.56344e-19)
(1.11216 0.452138 -5.84e-20)
(1.14737 0.451728 4.62977e-20)
(1.17021 0.442681 2.7973e-20)
(1.1826 0.428909 -1.62817e-20)
(0.120458 0.04904 1.44468e-19)
(0.325738 0.137067 -1.47153e-20)
(0.505288 0.220131 -2.61031e-20)
(0.660404 0.294036 2.81509e-20)
(0.791556 0.35632 -5.9828e-20)
(0.899416 0.405265 -3.02841e-20)
(0.985208 0.439995 -5.76992e-20)
(1.05084 0.460687 1.28677e-19)
(1.09885 0.468517 7.14788e-20)
(1.13227 0.465354 -7.98937e-21)
(1.15403 0.453779 -6.25554e-20)
(1.16594 0.437738 4.77284e-21)
(0.121181 0.054227 -9.41597e-20)
(0.326495 0.149951 9.07106e-20)
(0.504995 0.23811 -5.86551e-20)
(0.658161 0.314948 1.08306e-20)
(0.786726 0.378294 9.22925e-20)
(0.891663 0.426766 -1.90129e-19)
(0.974507 0.459882 -1.0193e-20)
(1.03746 0.478223 -1.07208e-20)
(1.08331 0.483348 1.9766e-20)
(1.11526 0.477461 8.21097e-21)
(1.1363 0.463448 5.50097e-20)
(1.14819 0.445354 -2.27143e-20)
(0.121348 0.0593526 -2.25476e-21)
(0.325844 0.162566 -9.79309e-20)
(0.502684 0.255541 -4.70192e-20)
(0.653499 0.335008 2.5345e-20)
(0.779266 0.399127 6.99589e-20)
(0.881239 0.446888 7.96272e-20)
(0.961236 0.478223 1.52149e-20)
(1.02171 0.494127 2.19073e-20)
(1.06567 0.496539 -5.11185e-20)
(1.09646 0.487978 -6.97113e-21)
(1.11712 0.471614 -2.89221e-21)
(1.12931 0.451642 4.41249e-21)
(0.120953 0.0643636 1.13634e-20)
(0.323785 0.174783 -7.8526e-22)
(0.498377 0.272252 2.86119e-20)
(0.646469 0.354025 -1.68555e-20)
(0.769263 0.418629 -1.93183e-19)
(0.868266 0.465458 7.27054e-20)
(0.94554 0.494873 -2.29656e-20)
(1.00376 0.508286 -3.46237e-21)
(1.0461 0.508004 -6.00727e-21)
(1.07602 0.496845 2.0937e-21)
(1.09659 0.478231 -3.5157e-21)
(1.10938 0.456525 -4.27923e-21)
(0.119995 0.0692066 1.96809e-20)
(0.320333 0.186475 5.17583e-20)
(0.492114 0.288072 4.00278e-21)
(0.637147 0.371812 6.53774e-20)
(0.756827 0.436622 4.55252e-20)
(0.852881 0.482317 2.51043e-20)
(0.927578 0.509703 2.68416e-20)
(0.983764 0.520601 2.10812e-22)
(1.02475 0.517672 3.89768e-21)
(1.05408 0.504009 2.29401e-21)
(1.07484 0.48326 3.43314e-21)
(1.0885 0.459955 4.26281e-20)
(0.118481 0.0738289 2.01097e-20)
(0.315515 0.197517 -3.13232e-20)
(0.483956 0.302838 1.77181e-20)
(0.625628 0.388194 -7.11683e-20)
(0.742086 0.452935 -6.50052e-22)
(0.835241 0.497318 -4.38013e-20)
(0.907525 0.522592 -2.89917e-20)
(0.961907 0.530986 1.63848e-21)
(1.00178 0.525485 -2.53523e-20)
(1.03076 0.50943 9.71188e-21)
(1.05195 0.486664 -1.3933e-21)
(1.06677 0.461884 -6.20733e-20)
(0.116423 0.0781793 -2.50679e-20)
(0.309374 0.207789 2.78689e-20)
(0.473982 0.316393 5.19997e-21)
(0.612025 0.403003 4.98574e-20)
(0.725187 0.467411 4.71105e-20)
(0.815519 0.510324 2.51452e-21)
(0.885568 0.533438 5.36049e-21)
(0.938374 0.539365 7.85097e-21)
(0.977367 0.531394 3.44314e-20)
(1.0062 0.51308 5.58271e-20)
(1.02801 0.488416 -3.00976e-20)
(1.04424 0.462258 7.90857e-20)
(0.113833 0.0822039 3.71941e-21)
(0.301973 0.217176 -1.00009e-20)
(0.46229 0.328589 -3.97601e-20)
(0.596474 0.416084 -2.48397e-22)
(0.706295 0.479906 -8.81455e-21)
(0.793903 0.521216 7.84818e-21)
(0.861905 0.542146 -1.55467e-21)
(0.913365 0.545677 6.40126e-21)
(0.951697 0.535368 -8.54856e-20)
(0.980543 0.514947 -6.87503e-20)
(1.00309 0.488501 -7.2075e-20)
(1.02097 0.461015 -5.61127e-20)
(0.110743 0.0858507 7.94265e-21)
(0.293381 0.225564 3.008e-21)
(0.448989 0.339289 2.21086e-20)
(0.579121 0.427295 5.54944e-21)
(0.685588 0.490289 -8.42235e-21)
(0.770589 0.529885 1.09025e-20)
(0.836745 0.548638 8.92491e-21)
(0.887089 0.549872 -4.82478e-20)
(0.924966 0.537382 1.59064e-19)
(0.953945 0.515035 1.17299e-19)
(0.977242 0.486919 1.06003e-20)
(0.99696 0.458084 4.61736e-20)
(0.107182 0.089081 1.19661e-21)
(0.283674 0.232851 -8.82527e-21)
(0.434206 0.348365 -1.56333e-20)
(0.560133 0.436506 -2.72885e-20)
(0.663258 0.498444 -5.76656e-22)
(0.745786 0.536238 2.40171e-20)
(0.810304 0.552847 2.79965e-22)
(0.859765 0.551909 6.38869e-20)
(0.897385 0.537428 3.99186e-20)
(0.926571 0.513365 -1.63999e-19)
(0.950519 0.483685 2.01289e-19)
(0.972196 0.45335 -4.52241e-20)
(0.103183 0.0918511 2.97902e-20)
(0.272948 0.238948 4.71527e-20)
(0.418083 0.355703 1.79883e-20)
(0.539684 0.443603 5.38341e-20)
(0.639506 0.504272 4.47612e-20)
(0.71971 0.540195 -1.8956e-21)
(0.782806 0.554713 -1.03119e-19)
(0.83162 0.551755 -2.13873e-19)
(0.869188 0.535502 -9.74565e-20)
(0.898632 0.509988 2.42103e-19)
(0.923015 0.478867 -1.95176e-19)
(0.946556 0.446699 2.77962e-20)
(0.0987833 0.0941216 -3.43545e-20)
(0.261305 0.24377 9.57425e-21)
(0.40077 0.361203 4.60099e-20)
(0.517962 0.448488 -4.75828e-20)
(0.614539 0.507687 -3.02768e-20)
(0.69258 0.541691 -9.02906e-20)
(0.754471 0.554192 1.31893e-19)
(0.802883 0.54938 2.38271e-19)
(0.840625 0.531603 -4.47365e-20)
(0.870427 0.504972 -3.78131e-19)
(0.895076 0.472707 1.31905e-19)
(0.919693 0.438495 1.66308e-20)
(0.0940267 0.0958587 1.0229e-19)
(0.248857 0.247245 -1.44087e-20)
(0.38243 0.36478 -1.2879e-19)
(0.495161 0.45108 -3.51296e-20)
(0.588573 0.508623 4.47171e-20)
(0.664614 0.540674 5.15182e-20)
(0.725517 0.551244 -1.42256e-19)
(0.77377 0.54475 -2.79525e-19)
(0.811944 0.525689 -8.06608e-20)
(0.842379 0.498292 3.2317e-19)
(0.867601 0.465488 -6.70754e-20)
(0.891051 0.42915 -9.00295e-20)
(0.0889603 0.0970326 1.53037e-20)
(0.235722 0.249311 -8.67136e-20)
(0.36323 0.366363 2.38561e-19)
(0.471483 0.451315 9.92318e-20)
(0.561823 0.50703 -2.04905e-19)
(0.636032 0.537111 1.47931e-19)
(0.696151 0.545846 6.24326e-20)
(0.744471 0.537839 3.34524e-19)
(0.783337 0.517682 2.65092e-19)
(0.814871 0.489649 -5.11572e-19)
(0.841658 0.45667 1.43754e-19)
(0.866532 0.420328 1.07305e-19)
(0.083634 0.0976185 -3.17061e-20)
(0.222026 0.249921 -1.87854e-20)
(0.343348 0.3659 -1.31336e-19)
(0.447136 0.449148 -3.41363e-21)
(0.534511 0.502876 -8.02218e-20)
(0.607049 0.530986 4.50776e-20)
(0.666571 0.537996 -1.51218e-20)
(0.715144 0.528653 1.73297e-19)
(0.754883 0.507596 -2.74659e-19)
(0.787711 0.479065 2.26925e-19)
(0.816073 0.44597 -4.53516e-19)
(0.842119 0.409952 2.99665e-20)
(0.0781008 0.097597 -9.69204e-20)
(0.207899 0.249035 1.88697e-19)
(0.322964 0.363352 -1.31065e-19)
(0.422329 0.444552 7.80768e-21)
(0.506856 0.496151 -4.51652e-20)
(0.577881 0.522304 1.64939e-19)
(0.636974 0.527714 8.41453e-20)
(0.685955 0.517224 -2.42329e-19)
(0.726697 0.495489 -1.94196e-19)
(0.760909 0.466681 3.81616e-19)
(0.790815 0.433678 2.54387e-19)
(0.818061 0.398257 1.49322e-19)
(0.0724157 0.0969543 5.15542e-20)
(0.193474 0.246632 -4.4739e-20)
(0.302264 0.358701 2.31954e-19)
(0.397276 0.437519 -2.8827e-20)
(0.479081 0.48686 -1.99444e-20)
(0.548744 0.511086 9.01e-20)
(0.60756 0.515032 -1.7993e-19)
(0.657079 0.503599 -8.93038e-21)
(0.698925 0.481422 4.91981e-19)
(0.73459 0.452592 -3.48928e-19)
(0.76606 0.419954 1.67023e-20)
(0.79462 0.385377 2.23456e-19)
(0.0666354 0.0956825 -4.79315e-20)
(0.178889 0.2427 1.25046e-19)
(0.281433 0.351944 -3.18205e-19)
(0.372189 0.428059 -4.01553e-20)
(0.451407 0.475029 5.8566e-20)
(0.519854 0.497369 -2.86121e-20)
(0.578526 0.499999 -1.03281e-19)
(0.628694 0.487831 -1.33987e-20)
(0.671723 0.465452 -1.77849e-19)
(0.708892 0.436853 3.34265e-19)
(0.741952 0.404837 -4.69703e-19)
(0.771908 0.371313 2.46025e-19)
(0.0608172 0.0937791 1.57136e-19)
(0.16428 0.237242 -1.07321e-19)
(0.260658 0.343094 -3.32917e-20)
(0.347281 0.4162 3.46618e-19)
(0.424054 0.460699 2.00997e-20)
(0.491423 0.481204 3.73102e-19)
(0.55007 0.482671 6.04653e-20)
(0.600977 0.469981 -2.20739e-19)
(0.64525 0.447636 -4.14018e-19)
(0.683957 0.419512 -2.4004e-19)
(0.718622 0.38835 9.88324e-20)
(0.750028 0.356056 -5.5144e-19)
(0.0550191 0.0912476 6.53714e-20)
(0.149786 0.230273 5.65911e-20)
(0.240125 0.332182 1.32353e-20)
(0.322762 0.401988 -5.15491e-19)
(0.397234 0.443927 -2.48692e-19)
(0.463656 0.462658 -1.6492e-19)
(0.522383 0.463118 -1.98041e-21)
(0.574101 0.450116 7.76598e-20)
(0.619659 0.428037 4.00157e-19)
(0.65992 0.400617 2.39601e-19)
(0.696195 0.370518 -3.4566e-20)
(0.729079 0.339605 5.1427e-20)
(0.0492985 0.088097 7.797e-21)
(0.135542 0.221821 5.34422e-20)
(0.220017 0.319256 7.30881e-20)
(0.298834 0.385485 2.6267e-19)
(0.371158 0.424788 -8.72277e-20)
(0.436754 0.44181 2.18897e-20)
(0.495648 0.44142 -6.25654e-21)
(0.54823 0.428311 8.14729e-20)
(0.595096 0.406719 -1.33728e-20)
(0.636912 0.380219 -1.32438e-19)
(0.674782 0.351376 -4.84421e-20)
(0.709151 0.321981 3.31476e-19)
(0.0437119 0.0843422 9.26771e-21)
(0.12168 0.211928 4.64808e-20)
(0.20051 0.304376 -9.16154e-20)
(0.275698 0.36677 -8.51101e-20)
(0.346026 0.40337 4.12799e-19)
(0.41091 0.418753 2.32202e-19)
(0.470043 0.417669 -3.83714e-21)
(0.523522 0.40465 -1.33913e-19)
(0.5717 0.383756 -1.54767e-19)
(0.615051 0.35838 2.9231e-19)
(0.654485 0.330967 4.69336e-19)
(0.690326 0.303214 -2.12228e-19)
(0.0383145 0.0800031 -3.50975e-19)
(0.10833 0.200647 -1.97949e-19)
(0.181775 0.287621 1.44104e-19)
(0.253543 0.345937 5.38773e-20)
(0.322031 0.379776 -2.81041e-20)
(0.386306 0.393592 -3.24536e-19)
(0.445733 0.391964 -5.74097e-19)
(0.500126 0.379227 2.17773e-19)
(0.549599 0.35923 1.08563e-20)
(0.594447 0.335166 -1.74034e-19)
(0.635399 0.309345 -3.89141e-19)
(0.672674 0.283351 1.90104e-19)
(0.0331592 0.0751051 4.19381e-20)
(0.095615 0.188041 -1.78497e-19)
(0.163977 0.269083 -1.43243e-19)
(0.232549 0.323096 -8.33698e-21)
(0.299354 0.354126 -3.33397e-19)
(0.363115 0.366447 -1.39601e-19)
(0.422877 0.36442 4.34612e-19)
(0.47818 0.352144 -3.72521e-19)
(0.528913 0.33323 4.7072e-19)
(0.575203 0.310655 4.54849e-20)
(0.617606 0.286574 -8.74337e-20)
(0.656263 0.262446 -3.52364e-19)
(0.0282968 0.0696784 -1.7798e-21)
(0.0836523 0.174185 4.75122e-20)
(0.147269 0.248868 8.44548e-20)
(0.212888 0.298371 8.31735e-20)
(0.278167 0.326549 3.2415e-19)
(0.341497 0.337446 3.15915e-19)
(0.40162 0.335159 -2.02659e-19)
(0.457811 0.323513 -2.01872e-20)
(0.509752 0.305856 -5.32717e-20)
(0.55741 0.284929 3.51607e-20)
(0.601184 0.262724 3.02023e-19)
(0.641152 0.240565 1.19588e-19)
(0.0237746 0.0637582 9.72056e-20)
(0.0725518 0.159166 2.41712e-19)
(0.131796 0.227094 -4.08114e-20)
(0.194718 0.271899 1.27268e-20)
(0.258628 0.29719 -5.03684e-20)
(0.321603 0.306731 4.76933e-21)
(0.382095 0.304313 2.3444e-19)
(0.439138 0.293453 -1.62504e-20)
(0.492216 0.277212 -1.81653e-19)
(0.541154 0.258081 -4.15702e-19)
(0.586203 0.237875 -1.24466e-19)
(0.627394 0.217779 -6.05439e-20)
(0.019637 0.0573838 1.32137e-19)
(0.0624149 0.143079 -2.75994e-20)
(0.117691 0.203892 -2.47079e-19)
(0.178185 0.243828 -1.57229e-19)
(0.240882 0.266203 7.69878e-20)
(0.303566 0.274454 -1.64559e-19)
(0.364426 0.272024 1.27491e-19)
(0.422267 0.262092 -2.1097e-19)
(0.476398 0.247411 1.35641e-19)
(0.52651 0.230211 9.56107e-20)
(0.572725 0.212115 -4.74969e-20)
(0.61504 0.194168 2.56091e-19)
(0.0159241 0.0505986 -6.40836e-20)
(0.0533341 0.126028 -2.40047e-19)
(0.105075 0.179402 2.06782e-19)
(0.16342 0.214321 -5.44608e-20)
(0.22506 0.233755 -1.09385e-19)
(0.287511 0.240775 7.78053e-20)
(0.34872 0.238441 2.85745e-20)
(0.407293 0.229566 7.28563e-20)
(0.462377 0.216575 -5.90928e-20)
(0.513546 0.201423 -1.30923e-19)
(0.560808 0.185536 2.13646e-19)
(0.604132 0.169816 -3.39687e-20)
(0.012672 0.0434496 3.27783e-20)
(0.0453921 0.108124 1.47624e-19)
(0.0940553 0.153777 -4.96498e-20)
(0.150541 0.183546 1.73265e-19)
(0.211277 0.20002 6.32222e-21)
(0.273545 0.205863 -1.45146e-19)
(0.335077 0.203721 9.67971e-20)
(0.394301 0.196015 -4.50304e-20)
(0.450225 0.184828 -8.36667e-21)
(0.502323 0.171828 2.93729e-19)
(0.5505 0.158237 -2.08026e-19)
(0.594709 0.144814 -1.77965e-19)
(0.0099124 0.0359873 -7.6141e-20)
(0.0386609 0.0894872 -5.45885e-20)
(0.084726 0.127175 1.2084e-19)
(0.13965 0.151684 -9.14958e-20)
(0.199636 0.165183 1.32803e-20)
(0.261762 0.169896 1.69988e-19)
(0.323578 0.168028 8.31783e-20)
(0.383362 0.161589 1.0891e-19)
(0.440004 0.152301 -4.877e-20)
(0.492891 0.141543 -9.11748e-20)
(0.541844 0.130322 7.6809e-21)
(0.586804 0.119255 1.93716e-19)
(0.00767194 0.0282646 3.18012e-20)
(0.0332014 0.0702417 8.98801e-21)
(0.077166 0.0997648 -5.65842e-20)
(0.130833 0.118922 3.94389e-20)
(0.19022 0.129433 -6.94384e-20)
(0.25224 0.133057 3.8252e-20)
(0.314294 0.131531 -6.80072e-20)
(0.374537 0.126439 -2.10898e-19)
(0.431765 0.119131 -3.2536e-22)
(0.485293 0.110687 -5.37291e-21)
(0.534876 0.101896 5.45996e-20)
(0.580447 0.093236 1.2554e-19)
(0.00597236 0.0203369 5.98944e-21)
(0.0290631 0.0505178 2.78452e-20)
(0.0714395 0.0717188 7.98396e-20)
(0.124159 0.0854535 9.31775e-21)
(0.183098 0.0929674 1.13632e-20)
(0.245043 0.0955327 4.47091e-20)
(0.307282 0.094404 1.83645e-20)
(0.367876 0.0907213 2.54181e-20)
(0.425549 0.0854565 4.81451e-20)
(0.479565 0.079384 -1.3549e-20)
(0.529625 0.0730705 -9.22202e-20)
(0.575659 0.0668564 -1.07596e-19)
(0.00483009 0.0122616 -3.09908e-20)
(0.0262833 0.0304493 1.05917e-20)
(0.0675947 0.0432152 4.41712e-20)
(0.11968 0.0514765 -2.76277e-21)
(0.178321 0.0559872 -8.42016e-21)
(0.240218 0.0575171 1.66283e-20)
(0.302583 0.0568242 -2.11314e-20)
(0.363415 0.0545964 3.65614e-20)
(0.421388 0.0514194 2.24158e-20)
(0.475731 0.0477595 -1.25236e-19)
(0.526111 0.0439577 6.45364e-20)
(0.572457 0.0402178 3.11484e-20)
(0.00425618 0.00409712 -1.10891e-20)
(0.0248872 0.0101729 -2.68504e-20)
(0.0656642 0.0144358 -1.84231e-20)
(0.117432 0.0171929 3.71529e-21)
(0.175924 0.0186969 2.16294e-20)
(0.237797 0.0192053 -1.99099e-20)
(0.300227 0.0189718 3.98295e-21)
(0.361178 0.0182261 9.0852e-22)
(0.419302 0.0171641 -1.71775e-20)
(0.47381 0.0159414 2.37811e-20)
(0.524351 0.0146718 1.07858e-21)
(0.570853 0.0134233 -2.18881e-21)
(0.00425618 -0.00409712 -9.07586e-21)
(0.0248872 -0.0101729 -2.47775e-20)
(0.0656642 -0.0144358 -1.86226e-20)
(0.117432 -0.0171929 7.96062e-21)
(0.175924 -0.0186969 1.36531e-20)
(0.237797 -0.0192054 -1.40265e-20)
(0.300227 -0.0189718 3.54621e-21)
(0.361178 -0.0182261 -3.76027e-21)
(0.419302 -0.0171641 -5.23512e-21)
(0.47381 -0.0159414 2.72015e-20)
(0.524351 -0.0146718 -9.43427e-21)
(0.570853 -0.0134233 -6.73597e-21)
(0.00483009 -0.0122616 2.2275e-20)
(0.0262833 -0.0304493 9.26499e-21)
(0.0675947 -0.0432152 -2.05285e-20)
(0.11968 -0.0514765 2.41374e-20)
(0.178321 -0.0559872 1.6105e-20)
(0.240218 -0.0575171 2.33179e-20)
(0.302583 -0.0568242 -6.26737e-21)
(0.363415 -0.0545964 1.55966e-20)
(0.421388 -0.0514194 -3.10792e-20)
(0.475731 -0.0477595 -7.20121e-20)
(0.526111 -0.0439577 3.52162e-20)
(0.572457 -0.0402178 9.16547e-21)
(0.00597236 -0.0203369 -7.15764e-20)
(0.0290631 -0.0505178 1.05365e-19)
(0.0714395 -0.0717188 2.19206e-20)
(0.124159 -0.0854535 2.34783e-20)
(0.183098 -0.0929674 4.94491e-21)
(0.245043 -0.0955327 3.72561e-20)
(0.307282 -0.0944041 9.2322e-20)
(0.367876 -0.0907213 1.17906e-20)
(0.425549 -0.0854565 3.16204e-20)
(0.479565 -0.079384 5.94215e-21)
(0.529625 -0.0730706 -7.986e-20)
(0.575659 -0.0668564 -1.17946e-19)
(0.00767194 -0.0282646 2.37643e-20)
(0.0332014 -0.0702417 -6.54448e-20)
(0.077166 -0.0997648 4.46399e-21)
(0.130833 -0.118922 -1.02663e-19)
(0.19022 -0.129433 9.2426e-20)
(0.25224 -0.133057 -6.13537e-20)
(0.314294 -0.131531 -6.67393e-20)
(0.374537 -0.126439 -1.1575e-19)
(0.431765 -0.119131 -5.80909e-20)
(0.485293 -0.110687 8.2032e-20)
(0.534876 -0.101896 -1.40046e-20)
(0.580447 -0.0932361 1.30026e-19)
(0.0099124 -0.0359873 -1.19527e-20)
(0.0386609 -0.0894872 6.42084e-20)
(0.084726 -0.127175 -9.04837e-20)
(0.13965 -0.151684 5.0126e-20)
(0.199636 -0.165183 1.57603e-20)
(0.261762 -0.169896 7.20771e-20)
(0.323578 -0.168028 1.59088e-19)
(0.383362 -0.161589 -1.04848e-19)
(0.440004 -0.152301 6.60332e-20)
(0.492891 -0.141543 -5.88333e-20)
(0.541844 -0.130322 9.30694e-21)
(0.586804 -0.119255 1.80612e-19)
(0.012672 -0.0434496 1.68459e-19)
(0.0453921 -0.108124 3.94779e-20)
(0.0940553 -0.153777 -4.48161e-20)
(0.150541 -0.183546 1.20422e-19)
(0.211277 -0.20002 7.80157e-20)
(0.273545 -0.205864 -1.44775e-19)
(0.335077 -0.203721 5.38841e-21)
(0.394301 -0.196015 3.06332e-20)
(0.450225 -0.184828 -3.92404e-20)
(0.502323 -0.171828 2.81576e-19)
(0.5505 -0.158237 -6.20064e-20)
(0.594709 -0.144814 -3.11416e-19)
(0.0159241 -0.0505986 -2.22206e-19)
(0.0533341 -0.126028 -2.00864e-19)
(0.105075 -0.179402 3.38606e-19)
(0.16342 -0.214321 -1.09987e-19)
(0.22506 -0.233755 -2.62222e-19)
(0.287511 -0.240775 3.14853e-19)
(0.34872 -0.238441 -2.01998e-19)
(0.407293 -0.229566 1.8248e-19)
(0.462377 -0.216575 -5.9951e-20)
(0.513546 -0.201423 -3.96858e-21)
(0.560808 -0.185536 2.17533e-19)
(0.604132 -0.169816 -9.85814e-20)
(0.019637 -0.0573838 1.33925e-19)
(0.0624149 -0.143079 -1.03028e-19)
(0.117691 -0.203892 -2.84676e-19)
(0.178185 -0.243828 -9.84864e-20)
(0.240882 -0.266203 1.85352e-19)
(0.303566 -0.274454 -2.78847e-19)
(0.364426 -0.272024 1.02991e-19)
(0.422267 -0.262092 -2.56608e-19)
(0.476398 -0.247411 1.76412e-19)
(0.52651 -0.230211 2.09644e-19)
(0.572725 -0.212115 -2.84774e-20)
(0.61504 -0.194168 6.56966e-20)
(0.0237746 -0.0637582 2.93931e-19)
(0.0725518 -0.159166 1.45092e-19)
(0.131796 -0.227094 1.6275e-19)
(0.194718 -0.271899 -1.10923e-19)
(0.258628 -0.29719 4.80066e-21)
(0.321603 -0.306731 -2.21596e-19)
(0.382095 -0.304313 1.75067e-19)
(0.439138 -0.293453 1.9341e-19)
(0.492216 -0.277212 -1.46612e-19)
(0.541154 -0.258081 -2.87856e-19)
(0.586203 -0.237875 -3.9356e-19)
(0.627394 -0.217779 -3.31491e-20)
(0.0282968 -0.0696785 -5.98462e-20)
(0.0836523 -0.174185 -2.62052e-20)
(0.147269 -0.248868 1.03236e-19)
(0.212888 -0.298371 2.58974e-19)
(0.278167 -0.326549 5.57307e-20)
(0.341497 -0.337446 5.00922e-19)
(0.40162 -0.335159 -4.37061e-19)
(0.457811 -0.323513 3.72803e-19)
(0.509752 -0.305856 -3.65662e-19)
(0.55741 -0.284929 1.71898e-19)
(0.601184 -0.262724 4.15318e-19)
(0.641152 -0.240565 -7.17748e-20)
(0.0331592 -0.0751051 -3.9048e-20)
(0.095615 -0.188041 -2.90924e-20)
(0.163977 -0.269083 -3.88308e-19)
(0.232549 -0.323096 1.51323e-19)
(0.299354 -0.354126 -3.39165e-19)
(0.363115 -0.366447 -5.2749e-20)
(0.422877 -0.36442 1.79757e-19)
(0.47818 -0.352144 -2.48551e-19)
(0.528913 -0.33323 6.56948e-19)
(0.575203 -0.310655 -1.93772e-19)
(0.617606 -0.286574 4.32831e-20)
(0.656263 -0.262446 -3.0094e-19)
(0.0383145 -0.0800031 -1.92282e-19)
(0.10833 -0.200647 -4.61107e-20)
(0.181775 -0.287621 1.1043e-19)
(0.253543 -0.345937 -1.88357e-19)
(0.322031 -0.379776 2.10201e-19)
(0.386306 -0.393592 -4.85992e-19)
(0.445733 -0.391964 -3.69185e-19)
(0.500126 -0.379227 3.14781e-19)
(0.549599 -0.35923 -2.96383e-19)
(0.594447 -0.335166 -5.50774e-20)
(0.635399 -0.309345 -5.87066e-19)
(0.672674 -0.283351 2.28644e-19)
(0.0437119 -0.0843422 -1.26479e-19)
(0.12168 -0.211928 1.27037e-19)
(0.20051 -0.304376 -1.11406e-19)
(0.275698 -0.36677 -3.58023e-20)
(0.346026 -0.40337 2.76668e-19)
(0.41091 -0.418753 -4.61484e-20)
(0.470043 -0.417669 1.93976e-19)
(0.523522 -0.40465 1.23998e-19)
(0.5717 -0.383756 -1.27193e-19)
(0.615051 -0.35838 6.26088e-20)
(0.654485 -0.330967 4.45907e-19)
(0.690326 -0.303214 -1.0613e-19)
(0.0492985 -0.088097 1.8566e-20)
(0.135542 -0.221821 1.02387e-19)
(0.220017 -0.319256 1.55781e-19)
(0.298834 -0.385485 2.04025e-19)
(0.371158 -0.424788 -2.09459e-19)
(0.436754 -0.44181 6.97732e-20)
(0.495648 -0.44142 6.25815e-20)
(0.54823 -0.428311 -1.14441e-19)
(0.595096 -0.406719 6.92228e-20)
(0.636912 -0.380219 -6.04317e-20)
(0.674782 -0.351376 -4.10215e-20)
(0.709151 -0.321981 1.54051e-19)
(0.0550191 -0.0912476 4.24642e-20)
(0.149786 -0.230273 4.82168e-20)
(0.240125 -0.332182 1.00376e-19)
(0.322762 -0.401988 -4.85272e-19)
(0.397234 -0.443927 -1.95335e-19)
(0.463656 -0.462658 -1.84462e-19)
(0.522383 -0.463118 2.77268e-20)
(0.574101 -0.450116 -1.17454e-20)
(0.619659 -0.428037 3.94069e-19)
(0.65992 -0.400617 2.23192e-19)
(0.696195 -0.370518 -2.72202e-20)
(0.729079 -0.339605 1.68868e-19)
(0.0608172 -0.0937791 6.32812e-20)
(0.16428 -0.237242 -8.91891e-20)
(0.260658 -0.343094 6.10118e-20)
(0.347281 -0.4162 4.29675e-19)
(0.424054 -0.460699 -9.53717e-20)
(0.491423 -0.481204 2.85615e-19)
(0.55007 -0.482671 -1.00282e-20)
(0.600977 -0.469981 -1.00853e-21)
(0.64525 -0.447636 -6.20339e-19)
(0.683957 -0.419512 -1.32645e-19)
(0.718622 -0.38835 1.83678e-19)
(0.750028 -0.356056 -4.45031e-19)
(0.0666354 -0.0956825 -9.68313e-20)
(0.178889 -0.2427 -5.15658e-20)
(0.281433 -0.351944 -1.64935e-19)
(0.372189 -0.428059 -9.27501e-20)
(0.451407 -0.475029 2.65043e-19)
(0.519854 -0.497369 -3.29922e-19)
(0.578526 -0.499999 7.14312e-20)
(0.628694 -0.487831 -9.94277e-20)
(0.671723 -0.465452 -2.53895e-20)
(0.708892 -0.436853 8.53107e-20)
(0.741952 -0.404837 -2.44619e-19)
(0.771908 -0.371313 1.89253e-19)
(0.0724157 -0.0969543 4.31169e-20)
(0.193474 -0.246632 -6.17839e-20)
(0.302264 -0.358701 3.06238e-19)
(0.397276 -0.437519 -1.17551e-19)
(0.479081 -0.48686 6.75835e-20)
(0.548744 -0.511086 -2.751e-21)
(0.60756 -0.515032 -1.62157e-19)
(0.657079 -0.503599 -1.53855e-20)
(0.698925 -0.481422 4.71142e-19)
(0.73459 -0.452592 -3.85898e-19)
(0.76606 -0.419954 2.05757e-19)
(0.79462 -0.385377 1.90802e-20)
(0.0781008 -0.097597 -1.81773e-20)
(0.207899 -0.249035 2.26775e-21)
(0.322964 -0.363352 4.75626e-21)
(0.422329 -0.444552 -1.94422e-21)
(0.506856 -0.496151 4.76913e-20)
(0.577881 -0.522304 -1.05782e-19)
(0.636974 -0.527714 1.83629e-19)
(0.685955 -0.517224 -7.0628e-20)