/*--------------------------------*- C++ -*----------------------------------*\
  =========                 |
  \\      /  F ield         | OpenFOAM: The Open Source CFD Toolbox
   \\    /   O peration     | Website:  https://openfoam.org
    \\  /    A nd           | Version:  7
     \\/     M anipulation  |
\*---------------------------------------------------------------------------*/
FoamFile
{
    version     2.0;
    format      ascii;
    class       surfaceScalarField;
    location    "45";
    object      phi;
}
// * * * * * * * * * * * * * * * * * * * * * * * * * * * * * * * * * * * * * //

dimensions      [0 3 -1 0 0 0 0];

internalField   nonuniform List<scalar> 
16755
(
-0.000410869
2.42885e-06
7.7957e-06
-0.000420653
-3.37058e-06
1.31546e-05
-0.000429976
-1.0196e-05
1.95182e-05
-0.000438811
-1.80649e-05
2.68999e-05
-0.000447128
-2.69464e-05
3.52643e-05
-0.000454893
-3.67518e-05
4.45166e-05
-0.000462063
-4.73067e-05
5.44764e-05
-0.00046859
-5.83402e-05
6.48676e-05
-0.000474423
-6.94756e-05
7.53079e-05
-0.0004795
-8.02195e-05
8.52973e-05
-0.000483754
-8.99945e-05
9.42477e-05
-0.000487105
-9.8077e-05
0.000101429
-0.000489469
-0.000103669
0.000106033
-0.000490751
-0.000105893
0.000107175
-0.000490848
-0.000103851
0.000103948
-0.000489648
-9.66717e-05
9.54716e-05
-0.000487032
-8.3588e-05
8.09722e-05
-0.000482875
-6.40146e-05
5.98575e-05
-0.00047705
-3.7663e-05
3.18381e-05
-0.000469432
-4.61958e-06
-2.99881e-06
-0.000459891
3.46056e-05
-4.41464e-05
-0.000448306
7.89621e-05
-9.0547e-05
-0.000434571
0.000126777
-0.000140512
-0.00041858
0.000175802
-0.000191794
-0.000400255
0.000223258
-0.000241583
-0.000379509
0.000265899
-0.000286644
-0.000356314
0.000300266
-0.000323462
-0.000330599
0.000322811
-0.000348526
-0.000302413
0.000330214
-0.0003584
-0.000271696
0.000319811
-0.000350528
-0.000238652
0.000289501
-0.000322546
-0.000203186
0.000239098
-0.000274563
-0.0001658
0.000168272
-0.000205658
-0.000126221
8.12479e-05
-0.000120827
-8.54762e-05
-2.14229e-05
-1.93218e-05
-4.27547e-05
-0.000128961
8.62394e-05
-8.20897e-09
-0.000242706
0.000199959
4.48629e-05
-0.00034407
0.000299199
8.84094e-05
-0.000438488
0.000394942
0.0001347
-0.000503738
0.000457448
0.000178285
-0.000541726
0.000498141
0.000225998
-0.00054802
0.000500307
0.000269859
-0.000486462
0.000442601
0.000319297
-0.000424961
0.000375522
-0.000153807
0.000106536
-0.000408944
1.26453e-05
-0.000418724
6.40995e-06
-0.000428047
-8.73e-07
-0.000436887
-9.22517e-06
-0.000445213
-1.86202e-05
-0.000452989
-2.89758e-05
-0.000460172
-4.01239e-05
-0.000466714
-5.17983e-05
-0.000472561
-6.36278e-05
-0.000477656
-7.51252e-05
-0.000481926
-8.57244e-05
-0.000485294
-9.47087e-05
-0.000487675
-0.000101288
-0.000488973
-0.000104595
-0.000489084
-0.000103739
-0.000487896
-9.78596e-05
-0.000485289
-8.61951e-05
-0.000481135
-6.81689e-05
-0.000475304
-4.34938e-05
-0.000467666
-1.22577e-05
-0.000458086
2.50255e-05
-0.000446436
6.73122e-05
-0.000432603
0.000112944
-0.000416473
0.000159673
-0.000397962
0.000204747
-0.000376977
0.000244914
-0.000353485
0.000276774
-0.000327418
0.000296744
-0.00029883
0.000301626
-0.000267671
0.000288652
-0.000234162
0.000255992
-0.000198231
0.000203168
-0.000160408
0.000130449
-0.000120449
4.12886e-05
-7.94155e-05
-6.24563e-05
-3.65237e-05
-0.000171853
6.27978e-06
-0.00028551
5.097e-05
-0.000388761
9.41955e-05
-0.000481714
0.000139984
-0.000549527
0.000182926
-0.000584668
0.000229846
-0.000594941
0.000272884
-0.0005295
0.000321553
-0.000473629
-0.000200663
-0.000405043
2.28062e-05
-0.000414772
1.61395e-05
-0.000424049
8.40371e-06
-0.000432846
-4.28513e-07
-0.000441132
-1.03335e-05
-0.000448872
-2.12366e-05
-0.000456019
-3.29764e-05
-0.000462527
-4.52904e-05
-0.000468342
-5.78129e-05
-0.000473404
-7.0063e-05
-0.000477642
-8.14862e-05
-0.000480979
-9.13723e-05
-0.000483327
-9.89393e-05
-0.000484593
-0.00010333
-0.000484671
-0.000103661
-0.000483449
-9.90818e-05
-0.000480805
-8.88393e-05
-0.000476609
-7.23646e-05
-0.00047073
-4.93731e-05
-0.000463032
-1.99558e-05
-0.000453375
1.53685e-05
-0.000441626
5.55631e-05
-0.000427664
9.89824e-05
-0.000411369
0.000143378
-0.000392651
0.000186028
-0.00037141
0.000223673
-0.000347611
0.000252975
-0.000321188
0.000270321
-0.0002922
0.000272637
-0.000260608
0.00025706
-0.000226651
0.000222035
-0.000190279
0.000166796
-0.000152047
9.22173e-05
-0.000111742
9.83518e-07
-7.04574e-05
-0.000103741
-2.74373e-05
-0.000214873
1.53442e-05
-0.000328291
5.98434e-05
-0.00043326
0.000102702
-0.000524573
0.000147939
-0.000594764
0.000190189
-0.000626918
0.000236262
-0.000641013
0.000278425
-0.000571663
0.000326252
-0.000521457
-0.000247037
-0.00039918
3.28648e-05
-0.000408812
2.57712e-05
-0.000417994
1.75863e-05
-0.000426702
8.27936e-06
-0.000434901
-2.13421e-06
-0.000442557
-1.35814e-05
-0.000449621
-2.59116e-05
-0.000456048
-3.88641e-05
-0.000461782
-5.2079e-05
-0.000466764
-6.50808e-05
-0.000470922
-7.73278e-05
-0.000474179
-8.81156e-05
-0.000476448
-9.66703e-05
-0.000477634
-0.000102144
-0.000477632
-0.000103663
-0.000476329
-0.000100385
-0.000473603
-9.15654e-05
-0.000469323
-7.66453e-05
-0.000463353
-5.53424e-05
-0.000455556
-2.77528e-05
-0.000445785
5.59724e-06
-0.000433904
4.36822e-05
-0.000419784
8.48627e-05
-0.0004033
0.000126894
-0.000384353
0.000167082
-0.000362842
0.000202162
-0.000338728
0.000228861
-0.000311948
0.000243541
-0.000282565
0.000243254
-0.000250554
0.000225049
-0.000216167
0.000187647
-0.000179379
0.000130008
-0.000140769
5.36069e-05
-0.000100155
-3.96304e-05
-5.86578e-05
-0.000145238
-1.55508e-05
-0.00025798
2.71665e-05
-0.000371008
7.14315e-05
-0.000477525
0.000113881
-0.000567023
0.000158522
-0.000639404
0.000200037
-0.000668433
0.000245212
-0.000686188
0.000286455
-0.000612906
0.000333374
-0.000568376
-0.000292865
-0.000391375
4.2775e-05
-0.000400863
3.52591e-05
-0.000409906
2.66292e-05
-0.000418477
1.68509e-05
-0.000426545
5.93324e-06
-0.000434068
-6.05792e-06
-0.000441005
-1.89749e-05
-0.000447303
-3.25663e-05
-0.000452909
-4.64725e-05
-0.000457765
-6.02252e-05
-0.000461797
-7.32957e-05
-0.000464927
-8.49852e-05
-0.00046707
-9.45275e-05
-0.00046813
-0.000101084
-0.000468003
-0.00010379
-0.000466574
-0.000101813
-0.000463722
-9.44174e-05
-0.000459314
-8.10535e-05
-0.000453214
-6.1443e-05
-0.00044528
-3.56865e-05
-0.000435358
-4.32418e-06
-0.000423315
3.16386e-05
-0.000409009
7.05564e-05
-0.000392311
0.000110196
-0.000373119
0.000147889
-0.000351326
0.000180369
-0.000326892
0.000204427
-0.000299756
0.000216405
-0.000269987
0.000213485
-0.000237572
0.000192634
-0.000202777
0.000152852
-0.000165601
9.28327e-05
-0.000126646
1.4651e-05
-8.57595e-05
-8.05165e-05
-4.40887e-05
-0.000186909
-9.33267e-07
-0.000301135
4.16773e-05
-0.000413619
8.56673e-05
-0.000521515
0.00012767
-0.000609026
0.000171674
-0.000683408
0.000212418
-0.000709177
0.000256653
-0.000730424
0.000296937
-0.000653189
0.000342887
-0.000614326
-0.000338086
-0.000381655
-0.000390954
4.4558e-05
-0.000399812
3.54874e-05
-0.000408202
2.52407e-05
-0.000416093
1.38243e-05
-0.00042344
1.28893e-06
-0.000430204
-1.22109e-05
-0.000436328
-2.64424e-05
-0.000441762
-4.10385e-05
-0.000446446
-5.55414e-05
-0.000450306
-6.94351e-05
-0.000453265
-8.20262e-05
-0.000455237
-9.25556e-05
-0.000456126
-0.000100195
-0.00045583
-0.000104087
-0.000454233
-0.00010341
-0.000451213
-9.74376e-05
-0.000446636
-8.563e-05
-0.000440365
-6.77138e-05
-0.000432252
-4.37995e-05
-0.000422159
-1.44175e-05
-0.000409916
1.93961e-05
-0.000395398
5.60378e-05
-0.000378467
9.32652e-05
-0.000359013
0.000128436
-0.000336929
0.000158285
-0.000312172
0.000179669
-0.000284685
0.000188918
-0.00025454
0.00018334
-0.000221739
0.000159833
-0.000186561
0.000117674
-0.000149027
5.52986e-05
-0.000109763
-2.46126e-05
-6.86419e-05
-0.000121638
-2.68368e-05
-0.000228714
1.63215e-05
-0.000344294
5.87921e-05
-0.000456089
0.000102469
-0.000565192
0.000143992
-0.000650548
0.000187325
-0.000726741
0.000227266
-0.000749118
0.000270526
-0.000773684
0.00030982
-0.000692483
0.000354746
-0.000659252
-0.000382642
-0.000379119
5.36243e-05
-0.000387749
4.41173e-05
-0.000395915
3.34062e-05
-0.000403582
2.14913e-05
-0.000410717
8.42378e-06
-0.000417259
-5.66858e-06
-0.000423168
-2.05334e-05
-0.000428386
-3.58205e-05
-0.000432855
-5.10723e-05
-0.000436501
-6.57889e-05
-0.000439246
-7.92815e-05
-0.000441004
-9.07975e-05
-0.000441681
-9.95182e-05
-0.000441172
-0.000104595
-0.000439365
-0.000105217
-0.000436137
-0.000100666
-0.000431353
-9.04137e-05
-0.000424875
-7.41921e-05
-0.000416553
-5.21209e-05
-0.000406246
-2.47246e-05
-0.000393781
6.93047e-06
-0.000379027
4.12846e-05
-0.000361843
7.60811e-05
-0.000342116
0.000108709
-0.000319734
0.000135903
-0.000294653
0.000154589
-0.000266822
0.000161086
-0.000236316
0.000152834
-0.00020315
0.000126667
-0.000167616
8.21408e-05
-0.000129757
1.74394e-05
-9.02196e-05
-6.41498e-05
-4.89031e-05
-0.000162954
-7.00285e-06
-0.000270614
3.61211e-05
-0.000387418
7.8413e-05
-0.000498381
0.000121743
-0.000608522
0.000162755
-0.00069156
0.000205388
-0.000769374
0.000244503
-0.000788232
0.00028676
-0.000815942
0.000325039
-0.000730762
0.000368894
-0.000703106
-0.000426481
-0.0003654
6.24162e-05
-0.000373759
5.24771e-05
-0.000381658
4.13052e-05
-0.000389063
2.88956e-05
-0.000395939
1.53001e-05
-0.000402222
6.13802e-07
-0.000407876
-1.48793e-05
-0.000412836
-3.08606e-05
-0.000417049
-4.68587e-05
-0.00042044
-6.23977e-05
-0.00042293
-7.67914e-05
-0.000424435
-8.92933e-05
-0.000424858
-9.90945e-05
-0.000424099
-0.000105354
-0.000422043
-0.000107273
-0.000418569
-0.000104141
-0.000413541
-9.5441e-05
-0.000406821
-8.09123e-05
-0.000398259
-6.06832e-05
-0.000387709
-3.52748e-05
-0.000374994
-5.78406e-06
-0.000359986
2.62765e-05
-0.000342532
5.86272e-05
-0.00032252
8.86969e-05
-0.000299836
0.000113219
-0.000274435
0.000129187
-0.000246269
0.00013292
-0.000215418
0.000121984
-0.000181911
9.31596e-05
-0.000146048
4.6278e-05
-0.000107903
-2.07055e-05
-6.81281e-05
-0.000103925
-2.66563e-05
-0.000204426
1.5299e-05
-0.000312569
5.83509e-05
-0.00043047
0.00010043
-0.00054046
0.000143382
-0.000651474
0.000183858
-0.000732036
0.000225768
-0.000811284
0.000264038
-0.000826501
0.000305272
-0.000857177
0.000342521
-0.00076801
0.000385263
-0.000745848
-0.000469554
-0.00034984
7.08935e-05
-0.00035789
6.05271e-05
-0.000365483
4.88985e-05
-0.000372586
3.59986e-05
-0.000379155
2.1869e-05
-0.000385158
6.61625e-06
-0.000390508
-9.52899e-06
-0.000395172
-2.61963e-05
-0.000399092
-4.29387e-05
-0.000402191
-5.92992e-05
-0.000404388
-7.45938e-05
-0.000405601
-8.80805e-05
-0.000405735
-9.89606e-05
-0.000404688
-0.000106401
-0.000402348
-0.000109613
-0.000398592
-0.000107896
-0.000393288
-0.000100745
-0.000386294
-8.79062e-05
-0.000377461
-6.95161e-05
-0.000366634
-4.61022e-05
-0.000353662
-1.87553e-05
-0.000338371
1.09847e-05
-0.000320636
4.08927e-05
-0.000300332
6.83924e-05
-0.000277345
9.02321e-05
-0.000251628
0.00010347
-0.00022314
0.000104432
-0.000191963
9.08079e-05
-0.000158142
5.93379e-05
-0.000121983
1.01195e-05
-8.35858e-05
-5.91029e-05
-4.3613e-05
-0.000143898
-2.02522e-06
-0.000246014
3.9945e-05
-0.000354539
8.28878e-05
-0.000473412
0.000124722
-0.000582294
0.000167267
-0.000694019
0.000207187
-0.000771956
0.000248357
-0.000852454
0.00028577
-0.000863915
0.000325968
-0.000897375
0.000362178
-0.00080422
0.000403776
-0.000787446
-0.000511818
-0.00033249
7.90183e-05
-0.000340193
6.82297e-05
-0.000347443
5.61491e-05
-0.000354207
4.27621e-05
-0.000360442
2.81047e-05
-0.00036611
1.22838e-05
-0.000371128
-4.51107e-06
-0.000375463
-2.18607e-05
-0.000379055
-3.93476e-05
-0.000381825
-5.65285e-05
-0.000383696
-7.2723e-05
-0.000384583
-8.71933e-05
-0.000384394
-9.91502e-05
-0.000383026
-0.000107769
-0.000380368
-0.00011227
-0.0003763
-0.000111965
-0.000370688
-0.000106357
-0.000363392
-9.52022e-05
-0.000354261
-7.86471e-05
-0.000343141
-5.72224e-05
-0.000329879
-3.20169e-05
-0.000314296
-4.5988e-06
-0.00029627
2.28668e-05
-0.000275668
4.779e-05
-0.000252379
6.69432e-05
-0.000226354
7.7446e-05
-0.000197559
7.56368e-05
-0.00016608
5.93285e-05
-0.000131967
2.52252e-05
-9.55556e-05
-2.62918e-05
-5.69382e-05
-9.77204e-05
-1.6807e-05
-0.000184029
2.48535e-05
-0.000287674
6.68016e-05
-0.000396488
0.000109599
-0.00051621
0.000151158
-0.000623852
0.000193272
-0.000736133
0.000232619
-0.000811304
0.000273035
-0.00089287
0.000309588
-0.000900467
0.000348744
-0.000936531
0.000383913
-0.000839389
0.000424343
-0.000827875
-0.000553235
-0.000313403
8.6755e-05
-0.000320724
7.55499e-05
-0.000327597
6.30221e-05
-0.000333987
4.91523e-05
-0.000339854
3.39717e-05
-0.000345157
1.75871e-05
-0.000349806
1.37983e-07
-0.000353783
-1.78838e-05
-0.000357012
-3.61188e-05
-0.000359424
-5.41169e-05
-0.000360936
-7.12102e-05
-0.000361467
-8.66623e-05
-0.000360924
-9.96938e-05
-0.000359205
-0.000109487
-0.000356202
-0.000115274
-0.000351793
-0.000116374
-0.000345846
-0.000112304
-0.000338223
-0.000102825
-0.000328771
-8.80987e-05
-0.000317339
-6.86548e-05
-0.000303757
-4.55989e-05
-0.000287891
-2.04646e-05
-0.000269555
4.53031e-06
-0.000248653
2.68881e-05
-0.000225066
4.33567e-05
-0.000198746
5.11251e-05
-0.000169661
4.65521e-05
-0.000137901
2.75683e-05
-0.000103535
-9.14052e-06
-6.68956e-05
-6.29313e-05
-2.8102e-05
-0.000136514
1.21471e-05
-0.000224278
5.38403e-05
-0.000329368
9.5727e-05
-0.000438374
0.000138345
-0.000558828
0.0001796
-0.000665108
0.000221261
-0.000777794
0.000260022
-0.000850065
0.000299678
-0.000932526
0.000335371
-0.00093616
0.000373486
-0.000974647
0.000407622
-0.000873525
0.000446867
-0.00086712
-0.000593774
-0.000292636
9.40707e-05
-0.000299541
8.24551e-05
-0.000306005
6.94859e-05
-0.00031199
5.51381e-05
-0.000317457
3.94385e-05
-0.00032235
2.24797e-05
-0.000326635
4.42281e-06
-0.000330206
-1.43127e-05
-0.000333044
-3.32802e-05
-0.000335069
-5.20924e-05
-0.000336196
-7.00829e-05
-0.000336344
-8.65146e-05
-0.00033542
-0.000100618
-0.000333325
-0.000111582
-0.00032995
-0.000118649
-0.000325176
-0.000121148
-0.000318872
-0.000118607
-0.0003109
-0.000110798
-0.000301109
-9.789e-05
-0.000289345
-8.04183e-05
-0.000275444
-5.95004e-05
-0.000259258
-3.66501e-05
-0.000240627
-1.4101e-05
-0.000219422
5.68276e-06
-0.000195543
1.94782e-05
-0.000168939
2.45205e-05
-0.000139586
1.71996e-05
-0.000107573
-4.44491e-06
-7.29868e-05
-4.37265e-05
-3.61543e-05
-9.97638e-05
2.77717e-06
-0.000175445
4.30999e-05
-0.000264601
8.47862e-05
-0.000371054
0.000126574
-0.000480162
0.000168978
-0.000601232
0.000209904
-0.000706034
0.000251093
-0.000818982
0.00028926
-0.000888233
0.000328153
-0.000971419
0.000362992
-0.000970999
0.000400074
-0.00101173
0.000433191
-0.000906642
0.000471245
-0.000905174
-0.00063341
-0.000270244
0.000100935
-0.000276704
8.89159e-05
-0.00028273
7.55114e-05
-0.000288283
6.06912e-05
-0.000293321
4.44764e-05
-0.000297794
2.6953e-05
-0.000301655
8.28338e-06
-0.000304812
-1.11556e-05
-0.000307235
-3.08573e-05
-0.000308848
-5.04792e-05
-0.000309566
-6.93647e-05
-0.000309308
-8.67731e-05
-0.000307981
-0.000101944
-0.000305488
-0.000114075
-0.000301721
-0.000122416
-0.000296562
-0.000126307
-0.000289882
-0.000125288
-0.000281543
-0.000119136
-0.000271397
-0.000108037
-0.000259289
-9.25257e-05
-0.000245059
-7.37307e-05
-0.00022855
-5.31597e-05
-0.000209611
-3.30393e-05
-0.000188118
-1.58102e-05
-0.000163955
-4.68556e-06
-0.000137081
-2.35359e-06
-0.000107482
-1.23992e-05
-7.525e-05
-3.66767e-05
-4.04687e-05
-7.85078e-05
-3.47752e-06
-0.000136755
3.55433e-05
-0.000214466
7.59005e-05
-0.000304958
0.000117538
-0.000412692
0.000159189
-0.000521812
0.000201348
-0.000643391
0.000241921
-0.000746607
0.00028262
-0.000859682
0.000320188
-0.000925801
0.00035832
-0.00100955
0.000392318
-0.001005
0.000428381
-0.00104779
0.000460499
-0.000938759
0.000497363
-0.000942039
-0.000672126
-0.000246285
0.000107322
-0.000252275
9.4906e-05
-0.000257837
8.10731e-05
-0.000262933
6.57868e-05
-0.000267518
4.90622e-05
-0.000271548
3.0983e-05
-0.000274963
1.16984e-05
-0.000277681
-8.43805e-06
-0.000279668
-2.88698e-05
-0.00028085
-4.92978e-05
-0.00028114
-6.9075e-05
-0.000280456
-8.74567e-05
-0.000278709
-0.000103691
-0.0002758
-0.000116983
-0.000271624
-0.000126593
-0.000266064
-0.000131867
-0.000258993
-0.000132359
-0.000250275
-0.000127854
-0.000239762
-0.00011855
-0.000227302
-0.000104986
-0.000212734
-8.82982e-05
-0.000195904
-6.99903e-05
-0.000176657
-5.22855e-05
-0.000154872
-3.75953e-05
-0.000130444
-2.91143e-05
-0.000103332
-2.94653e-05
-7.35044e-05
-4.22267e-05
-4.10748e-05
-6.91063e-05
-6.13646e-06
-0.000113446
3.09617e-05
-0.000173853
7.00434e-05
-0.000253548
0.000110392
-0.000345307
0.000151941
-0.000454241
0.000193418
-0.00056329
0.0002353
-0.000685273
0.000275497
-0.000786804
0.000315695
-0.000899879
0.000352661
-0.000962767
0.000390037
-0.00104693
0.000423211
-0.00103817
0.000458275
-0.00108286
0.000489421
-0.000969905
0.000525106
-0.000977724
-0.000709911
-0.000220818
0.000113206
-0.000226314
0.000100402
-0.00023139
8.61486e-05
-0.000236006
7.04033e-05
-0.00024012
5.31756e-05
-0.000243683
3.45467e-05
-0.000246636
1.46514e-05
-0.000248896
-6.17838e-06
-0.000250432
-2.73341e-05
-0.000251165
-4.85643e-05
-0.000251011
-6.92292e-05
-0.000249888
-8.85799e-05
-0.000247706
-0.000105873
-0.000244369
-0.00012032
-0.000239772
-0.00013119
-0.0002338
-0.000137839
-0.000226328
-0.000139831
-0.000217221
-0.00013696
-0.000206334
-0.000129437
-0.000193516
-0.000117804
-0.000178609
-0.000103206
-0.000161458
-8.71407e-05
-0.000141912
-7.18321e-05
-0.000119849
-5.96584e-05
-9.51663e-05
-5.37967e-05
-6.78253e-05
-5.68063e-05
-3.78026e-05
-7.22494e-05
-5.20391e-06
-0.000101705
2.98512e-05
-0.000148501
6.70238e-05
-0.000211026
0.000106119
-0.000292643
0.000146417
-0.000385605
0.000187836
-0.00049566
0.000229104
-0.000604558
0.00027068
-0.000726848
0.00031048
-0.000826604
0.000350163
-0.000939562
0.000386528
-0.000999132
0.000423158
-0.00108356
0.000455529
-0.00107054
0.00048962
-0.00111695
0.000519826
-0.00100011
0.00055435
-0.00101225
-0.000746759
-0.000193898
0.000118569
-0.000198881
0.000105386
-0.000203452
9.07194e-05
-0.000207571
7.4523e-05
-0.000211195
5.67994e-05
-0.000214276
3.76273e-05
-0.000216752
1.71272e-05
-0.00021854
-4.38996e-06
-0.000219611
-2.62629e-05
-0.000219885
-4.82909e-05
-0.000219276
-6.98384e-05
-0.000217703
-9.01528e-05
-0.000215077
-0.000108499
-0.000211304
-0.000124094
-0.000206278
-0.000136216
-0.000199887
-0.000144229
-0.000192008
-0.00014771
-0.000182509
-0.00014646
-0.000171245
-0.0001407
-0.000158069
-0.00013098
-0.000142823
-0.000118452
-0.000125356
-0.000104607
-0.000105518
-9.16696e-05
-8.31912e-05
-8.19856e-05
-5.82727e-05
-7.87153e-05
-3.07228e-05
-8.43562e-05
-5.10445e-07
-0.000102462
3.21976e-05
-0.000134413
6.73388e-05
-0.000183643
0.000104545
-0.000248232
0.000143611
-0.000331709
0.000183817
-0.000425811
0.000225067
-0.000536909
0.00026609
-0.000645581
0.00030733
-0.000768088
0.000346714
-0.000865989
0.000385873
-0.000978721
0.00042164
-0.0010349
0.000457537
-0.00111945
0.00048913
-0.00110214
0.000522277
-0.00115009
0.000551582
-0.00102942
0.000584971
-0.00104564
-0.000782674
-0.000165578
0.000123395
-0.000170033
0.000109841
-0.000174085
9.47709e-05
-0.000177694
7.8132e-05
-0.000180815
5.99206e-05
-0.0001834
4.02126e-05
-0.000185387
1.91141e-05
-0.000186695
-3.08182e-06
-0.000187293
-2.56646e-05
-0.000187099
-4.84856e-05
-0.000186028
-7.09092e-05
-0.000184
-9.21811e-05
-0.000180926
-0.000111572
-0.000176712
-0.000128308
-0.000171255
-0.000141673
-0.000164444
-0.00015104
-0.000156157
-0.000155997
-0.000146265
-0.000156352
-0.000134626
-0.00015234
-0.000121094
-0.000144512
-0.000105515
-0.000134031
-8.77401e-05
-0.000122382
-6.76227e-05
-0.000111787
-4.5045e-05
-0.000104563
-1.99096e-05
-0.000103851
7.8235e-06
-0.000112089
3.81559e-05
-0.000132794
7.09815e-05
-0.000167239
0.000106169
-0.00021883
0.000143368
-0.000285431
0.000182363
-0.000370704
0.000222434
-0.000465883
0.000263475
-0.00057795
0.000304219
-0.000686324
0.000345096
-0.000808965
0.000384046
-0.000904939
0.000422672
-0.00101735
0.000457846
-0.00107007
0.000493025
-0.00115463
0.000523869
-0.00113298
0.000556106
-0.00118233
0.000584552
-0.00105786
0.00061684
-0.00107793
-0.000817665
-0.00013591
0.000127671
-0.000139826
0.000113757
-0.000143348
9.82928e-05
-0.000146436
8.12206e-05
-0.000149046
6.25303e-05
-0.000151128
4.22944e-05
-0.000152618
2.06043e-05
-0.000153442
-2.25814e-06
-0.000153563
-2.55437e-05
-0.000152896
-4.9152e-05
-0.000151362
-7.24438e-05
-0.000148877
-9.46656e-05
-0.000145355
-0.000115094
-0.000140702
-0.000132961
-0.000134816
-0.000147559
-0.000127588
-0.000158269
-0.000118897
-0.000164688
-0.000108617
-0.000166631
-9.66088e-05
-0.000164348
-8.27283e-05
-0.000158393
-6.68256e-05
-0.000149933
-4.87539e-05
-0.000140454
-2.83709e-05
-0.00013217
-5.56e-06
-0.000127374
1.977e-05
-0.000129181
4.76585e-05
-0.000139978
7.81014e-05
-0.000163237
0.00011099
-0.000200127
0.000146184
-0.000254024
0.000183336
-0.000322583
0.000222218
-0.000409586
0.000262114
-0.000505779
0.000302907
-0.000618744
0.000343338
-0.000726755
0.000383825
-0.000849451
0.000422324
-0.000943439
0.000460411
-0.00105543
0.000494998
-0.00110466
0.000529477
-0.00118911
0.000559602
-0.00116311
0.000590967
-0.00121369
0.0006186
-0.0010855
0.000649828
-0.00110915
-0.000851749
-0.00010494
0.000131391
-0.000108311
0.000117128
-0.000111298
0.000101279
-0.000113861
8.37837e-05
-0.000115955
6.46243e-05
-0.000117529
4.38688e-05
-0.000118519
2.15947e-05
-0.000118859
-1.9181e-06
-0.000118502
-2.59007e-05
-0.000117365
-5.02896e-05
-0.000115369
-7.44398e-05
-0.000112432
-9.76028e-05
-0.000108467
-0.000119059
-0.00010338
-0.000138047
-9.70719e-05
-0.000153867
-8.94337e-05
-0.000165907
-8.03476e-05
-0.000173774
-6.96894e-05
-0.00017729
-5.73221e-05
-0.000176715
-4.31051e-05
-0.00017261
-2.6892e-05
-0.000166147
-8.53871e-06
-0.000158807
1.20923e-05
-0.000152801
3.51152e-05
-0.000150397
6.06161e-05
-0.000154681
8.86327e-05
-0.000167994
0.000119153
-0.000193758
0.000152069
-0.000233043
0.000187233
-0.000289187
0.000224295
-0.000359646
0.000263023
-0.000448313
0.000302702
-0.000545458
0.00034321
-0.000659252
0.000383296
-0.000766841
0.000423366
-0.000889522
0.0004614
-0.000981472
0.000498941
-0.00109297
0.000532951
-0.00113867
0.000566747
-0.00122291
0.000596187
-0.00119255
0.00062672
-0.00124423
0.00065359
-0.00111237
0.000683804
-0.00113937
-0.000884946
-7.27122e-05
0.000134555
-7.55363e-05
0.000119952
-7.79869e-05
0.00010373
-8.00244e-05
8.58213e-05
-8.1603e-05
6.62029e-05
-8.26712e-05
4.4937e-05
-8.31634e-05
2.20868e-05
-8.30247e-05
-2.05674e-06
-8.21934e-05
-2.6732e-05
-8.05903e-05
-5.18926e-05
-7.81398e-05
-7.68904e-05
-7.47581e-05
-0.000100985
-7.03591e-05
-0.000123458
-6.485e-05
-0.000143556
-5.81311e-05
-0.000160586
-5.00958e-05
-0.000173942
-4.06277e-05
-0.000183242
-2.96053e-05
-0.000188312
-1.6894e-05
-0.000189427
-2.35728e-06
-0.000187147
1.41503e-05
-0.000182654
3.27665e-05
-0.000177423
5.36246e-05
-0.000173659
7.68363e-05
-0.000173609
0.000102482
-0.000180327
0.000130597
-0.000196109
0.000161162
-0.000224323
0.000194069
-0.000265951
0.000229162
-0.00032428
0.000266096
-0.000396579
0.000304628
-0.000486845
0.00034405
-0.000584881
0.000384236
-0.000699438
0.000423944
-0.000806549
0.000463574
-0.000929151
0.000501127
-0.00101902
0.000538118
-0.00112997
0.00057156
-0.00117211
0.000604695
-0.00125604
0.000633485
-0.00122134
0.000663229
-0.00127397
0.000689386
-0.00113852
0.000718639
-0.00116862
-0.000917286
-3.92634e-05
0.000137166
-4.15454e-05
0.000122234
-4.34648e-05
0.000105649
-4.49817e-05
8.73382e-05
-4.60507e-05
6.72719e-05
-4.66189e-05
4.55051e-05
-4.66204e-05
2.20883e-05
-4.6011e-05
-2.66617e-06
-4.47141e-05
-2.80288e-05
-4.26559e-05
-5.39509e-05
-3.97624e-05
-7.97839e-05
-3.59492e-05
-0.000104798
-3.11306e-05
-0.000128277
-2.52141e-05
-0.000149473
-1.8101e-05
-0.000167699
-9.6859e-06
-0.000182357
1.381e-07
-0.000193066
1.15145e-05
-0.000199688
2.45508e-05
-0.000202463
3.93892e-05
-0.000201985
5.61683e-05
-0.000199433
7.5025e-05
-0.00019628
9.60864e-05
-0.000194721
0.000119461
-0.000196984
0.000145222
-0.000206088
0.000173405
-0.000224292
0.000203981
-0.000254899
0.000236843
-0.000298812
0.000271827
-0.000359264
0.00030859
-0.000433343
0.000346886
-0.000525141
0.000386013
-0.000624008
0.00042584
-0.000739265
0.000465141
-0.000845849
0.000504307
-0.000968317
0.000541365
-0.00105608
0.000577803
-0.0011664
0.000610687
-0.001205
0.000643183
-0.00128854
0.000671358
-0.00124951
0.000700358
-0.00130297
0.000725857
-0.00116402
0.000754204
-0.00119697
-0.000948801
-4.62522e-06
0.000139236
-6.37653e-06
0.000123985
-7.77554e-06
0.000107048
-8.78285e-06
8.83455e-05
-9.35346e-06
6.78425e-05
-9.43344e-06
4.55851e-05
-8.95749e-06
2.16124e-05
-7.88874e-06
-3.73492e-06
-6.14059e-06
-2.9777e-05
-3.64235e-06
-5.64491e-05
-3.20277e-07
-8.31059e-05
3.90422e-06
-0.000109022
9.12349e-06
-0.000133496
1.54274e-05
-0.000155777
2.29138e-05
-0.000175185
3.16873e-05
-0.000191131
4.18609e-05
-0.00020324
5.35521e-05
-0.00021138
6.68895e-05
-0.0002158
8.20047e-05
-0.0002171
9.90316e-05
-0.00021646
0.000118104
-0.000215352
0.000139341
-0.000215959
0.000162851
-0.000220493
0.000188698
-0.000231935
0.000216915
-0.000252509
0.000247467
-0.000285451
0.000280246
-0.000331592
0.000315082
-0.000394099
0.000351635
-0.000469897
0.000389655
-0.00056316
0.000428449
-0.000662802
0.000467883
-0.0007787
0.000506747
-0.000884713
0.000545426
-0.001007
0.000581978
-0.00109264
0.00061786
-0.00120229
0.000650197
-0.00123733
0.000682076
-0.00132042
0.000709673
-0.00127711
0.000737975
-0.00133127
0.00076287
-0.00118892
0.000790373
-0.00122447
-0.000979531
3.11683e-05
2.99313e-05
0.000125222
2.9036e-05
0.000107944
2.85218e-05
8.88598e-05
2.84328e-05
6.79315e-05
2.88237e-05
4.51943e-05
2.9759e-05
2.0677e-05
3.12705e-05
-5.2464e-06
3.34509e-05
-3.19573e-05
3.63685e-05
-5.93667e-05
4.00941e-05
-8.68315e-05
4.47126e-05
-0.000113641
5.03093e-05
-0.000139093
5.6976e-05
-0.000162443
6.48103e-05
-0.00018302
7.39159e-05
-0.000200236
8.44041e-05
-0.000213728
9.6391e-05
-0.000223367
0.000110002
-0.000229412
0.000125366
-0.000232464
0.000142613
-0.000233707
0.000161871
-0.00023461
0.000183257
-0.000237344
0.00020687
-0.000244106
0.00023277
-0.000257835
0.000260988
-0.000280727
0.00029148
-0.000315943
0.000324139
-0.000364251
0.000358788
-0.000428748
0.000395093
-0.000506201
0.000432798
-0.000600866
0.000471221
-0.000701224
0.00051023
-0.000817709
0.000548629
-0.000923113
0.000586801
-0.00104517
0.000622835
-0.00112867
0.00065816
-0.00123761
0.000689962
-0.00126913
0.000721247
-0.0013517
0.000748303
-0.00130416
0.000775953
-0.00135892
0.000800299
-0.00121326
0.000827023
-0.00125119
-0.00100952
6.73513e-05
0.00012597
6.69353e-05
0.00010836
6.68904e-05
8.89047e-05
6.72596e-05
6.75623e-05
6.80978e-05
4.43561e-05
6.9469e-05
1.93058e-05
7.14007e-05
-7.17819e-06
7.39888e-05
-3.45454e-05
7.73004e-05
-6.26784e-05
8.14054e-05
-9.09365e-05
8.63883e-05
-0.000118624
9.23342e-05
-0.000145038
9.93348e-05
-0.000169444
0.000107487
-0.000191172
0.000116894
-0.000209643
0.000127666
-0.0002245
0.000139918
-0.000235618
0.000153772
-0.000243265
0.000169353
-0.000248046
0.000186788
-0.000251142
0.000206202
-0.000254024
0.000227702
-0.000258844
0.000251386
-0.000267791
0.000277306
-0.000283755
0.00030549
-0.000308911
0.000335886
-0.000346339
0.000368388
-0.000396752
0.000402812
-0.000463172
0.000438828
-0.000542218
0.000476182
-0.00063822
0.000514199
-0.000739241
0.00055275
-0.000856259
0.000590659
-0.000961022
0.000628303
-0.00108281
0.000663811
-0.00116418
0.000698578
-0.00127238
0.000729857
-0.00130041
0.000760572
-0.00138242
0.000787124
-0.00133071
0.000814171
-0.00138597
0.000838023
-0.00123712
0.000864033
-0.0012772
-0.00103881
0.000105855
0.000126263
0.000105887
0.000108328
0.00010628
8.85111e-05
0.000107078
6.67651e-05
0.000108333
4.31005e-05
0.000110111
1.75282e-05
0.000112434
-9.50163e-06
0.0001154
-3.75111e-05
0.000119075
-6.63534e-05
0.000123529
-9.53899e-05
0.000128844
-0.000123939
0.000135107
-0.000151301
0.000142408
-0.000176745
0.000150844
-0.000199608
0.000160518
-0.000219318
0.000171539
-0.000235521
0.00018402
-0.000248099
0.000198082
-0.000257327
0.000213847
-0.000263811
0.000231435
-0.00026873
0.000250969
-0.000273558
0.00027255
-0.000280424
0.000296271
-0.000291513
0.000322176
-0.00030966
0.00035029
-0.000337025
0.000380553
-0.000376602
0.000412859
-0.000429058
0.000447021
-0.000497334
0.000482712
-0.000577909
0.000519678
-0.000675185
0.000557255
-0.000776818
0.000595318
-0.000894323
0.000632713
-0.000998417
0.000669813
-0.00111991
0.000704786
-0.00119915
0.000738995
-0.00130659
0.000769766
-0.00133118
0.000799933
-0.00141258
0.000826019
-0.0013568
0.00085251
-0.00141246
0.000875922
-0.00126053
0.000901287
-0.00130257
-0.00106745
0.000145419
0.000126142
0.000145858
0.000107889
0.000146652
8.77174e-05
0.00014784
6.55771e-05
0.000149476
4.14641e-05
0.000151624
1.53798e-05
0.000154304
-1.21817e-05
0.000157612
-4.08188e-05
0.000161615
-7.03559e-05
0.000166381
-0.000100156
0.000171992
-0.000129551
0.000178534
-0.000157843
0.000186098
-0.000184309
0.000194781
-0.000208291
0.000204684
-0.00022922
0.000215915
-0.000246753
0.000228588
-0.000260772
0.000242819
-0.000271558
0.00025873
-0.000279722
0.000276435
-0.000286435
0.000296053
-0.000293176
0.000317678
-0.000302049
0.000341399
-0.000315234
0.000367252
-0.000335513
0.000395259
-0.000365032
0.000425353
-0.000406696
0.000457426
-0.000461132
0.000491288
-0.000531196
0.000526618
-0.000613239
0.000563162
-0.000711729
0.000600268
-0.000813924
0.000637816
-0.000931871
0.000674675
-0.00103528
0.000711214
-0.00115645
0.000745646
-0.00123358
0.000779299
-0.00134024
0.000809575
-0.00136146
0.000839219
-0.00144223
0.000864875
-0.00138246
0.000890858
-0.00143844
0.000913886
-0.00128356
0.000938674
-0.00132736
-0.0010955
0.000186019
0.000125658
0.000186817
0.000107092
0.000187964
8.65702e-05
0.000189498
6.40431e-05
0.000191471
3.94905e-05
0.000193948
1.29032e-05
0.000196943
-1.5177e-05
0.000200552
-4.44275e-05
0.000204841
-7.46448e-05
0.000209878
-0.000105193
0.000215744
-0.000135417
0.000222524
-0.000164624
0.00023031
-0.000192094
0.000239197
-0.000217178
0.000249287
-0.000239311
0.000260688
-0.000258153
0.000273511
-0.000273595