/*--------------------------------*- C++ -*----------------------------------*\
  =========                 |
  \\      /  F ield         | OpenFOAM: The Open Source CFD Toolbox
   \\    /   O peration     | Website:  https://openfoam.org
    \\  /    A nd           | Version:  7
     \\/     M anipulation  |
\*---------------------------------------------------------------------------*/
FoamFile
{
    version     2.0;
    format      ascii;
    class       volVectorField;
    location    "45";
    object      U;
}
// * * * * * * * * * * * * * * * * * * * * * * * * * * * * * * * * * * * * * //

dimensions      [0 1 -1 0 0 0 0];

internalField   nonuniform List<vector> 
8500
(
(-0.20971 -0.000323224 -8.80765e-22)
(-0.215114 -0.00102714 1.3696e-21)
(-0.220303 -0.0018248 5.61753e-22)
(-0.225263 -0.00271048 -2.7889e-22)
(-0.229981 -0.00367266 -8.99014e-22)
(-0.23444 -0.00469399 -5.49841e-23)
(-0.238619 -0.00574865 9.09817e-22)
(-0.242494 -0.00680224 -1.5663e-21)
(-0.246039 -0.00781198 8.80344e-22)
(-0.249225 -0.0087266 -1.77704e-22)
(-0.252017 -0.00949076 -7.33482e-22)
(-0.254376 -0.01004 -1.33545e-22)
(-0.256258 -0.0103088 1.56474e-21)
(-0.257615 -0.0102308 -1.50531e-21)
(-0.258392 -0.00974461 4.52473e-22)
(-0.25853 -0.00879832 -5.2101e-22)
(-0.257966 -0.00735539 -6.62192e-23)
(-0.25663 -0.00540024 -7.63321e-22)
(-0.254454 -0.00294593 5.64582e-22)
(-0.251362 -3.71849e-05 -9.66717e-22)
(-0.247286 0.00324744 1.07799e-21)
(-0.242139 0.00679438 7.89934e-22)
(-0.235877 0.0104487 -5.27174e-22)
(-0.228398 0.0140258 9.35446e-22)
(-0.219697 0.0173171 -1.26648e-22)
(-0.209643 0.0201014 -1.30501e-22)
(-0.198307 0.0221607 -4.60871e-22)
(-0.185492 0.0232961 1.20267e-22)
(-0.171398 0.0233396 5.71478e-23)
(-0.155726 0.0221924 -3.69237e-23)
(-0.138855 0.0197928 2.03719e-22)
(-0.120396 0.016227 3.81058e-23)
(-0.100861 0.0115413 -2.60444e-22)
(-0.0799902 0.00609662 -3.85355e-22)
(-0.0579963 -5.2417e-05 2.03208e-22)
(-0.0355437 -0.00617609 1.96544e-22)
(-0.0111659 -0.0124191 -1.23457e-22)
(0.0114613 -0.017633 9.5081e-23)
(0.0387304 -0.0223193 1.30943e-22)
(0.0594791 -0.0251463 -1.49716e-22)
(0.0913182 -0.0265777 -1.65829e-23)
(0.107431 -0.0261756 3.22232e-23)
(0.147068 -0.0226678 4.93424e-25)
(0.155162 -0.0190818 -4.82689e-23)
(0.207013 -0.00608567 2.05168e-23)
(-0.208815 0.00107027 1.35658e-21)
(-0.214201 0.000280502 -2.88212e-21)
(-0.219373 -0.00060232 3.33882e-21)
(-0.224318 -0.00157322 -6.09938e-21)
(-0.229021 -0.00262097 4.55613e-21)
(-0.233467 -0.00372859 -1.23422e-21)
(-0.237633 -0.00487098 -1.74806e-21)
(-0.241497 -0.00601402 7.13658e-22)
(-0.245033 -0.00711531 3.48275e-21)
(-0.248212 -0.00812399 -9.12483e-22)
(-0.251 -0.00898558 7.35618e-21)
(-0.253359 -0.00963591 -4.08124e-21)
(-0.255245 -0.0100099 -5.00866e-22)
(-0.256609 -0.0100418 1.74749e-21)
(-0.2574 -0.00967036 6.23796e-22)
(-0.257556 -0.00884408 -1.08532e-21)
(-0.257015 -0.00752653 -7.46324e-22)
(-0.255704 -0.00570222 2.44118e-21)
(-0.253554 -0.00338379 -9.11097e-22)
(-0.250486 -0.000614627 2.81957e-21)
(-0.246428 0.00252431 6.13213e-22)
(-0.241287 0.00592353 -5.00702e-22)
(-0.235013 0.00942827 2.35256e-22)
(-0.227499 0.0128546 -1.54844e-21)
(-0.218733 0.0159963 1.1026e-21)
(-0.208578 0.0186316 -2.47266e-22)
(-0.1971 0.0205471 -7.24197e-22)
(-0.184103 0.0215409 8.28939e-22)
(-0.169785 0.0214534 -6.90424e-23)
(-0.153853 0.0201781 -3.70498e-22)
(-0.136695 0.0176707 6.80186e-22)
(-0.117935 0.0139976 -8.59853e-22)
(-0.0980984 0.0092418 3.87055e-22)
(-0.0769509 0.00371597 8.42855e-22)
(-0.0547156 -0.00244867 -1.24388e-21)
(-0.0320951 -0.00863204 -4.66258e-22)
(-0.00761557 -0.0148218 -5.61441e-23)
(0.0149947 -0.0200953 -3.64328e-22)
(0.0421643 -0.0246564 8.86283e-23)
(0.0626788 -0.0275732 4.20888e-22)
(0.0941907 -0.0288149 6.02888e-23)
(0.109904 -0.0285677 -1.7594e-22)
(0.149014 -0.0248271 4.24532e-23)
(0.156689 -0.0214607 6.62328e-23)
(0.208051 -0.00833274 4.22077e-23)
(-0.207026 0.00245791 1.06035e-21)
(-0.212367 0.00158299 4.02342e-21)
(-0.217494 0.000615578 -2.61848e-21)
(-0.222395 -0.000439317 2.44173e-21)
(-0.227055 -0.00157264 -6.58858e-21)
(-0.231458 -0.00276648 2.59835e-21)
(-0.235582 -0.00399615 -2.22349e-22)
(-0.239405 -0.00522848 -8.13246e-22)
(-0.242901 -0.00642119 8.51925e-22)
(-0.246043 -0.00752382 -1.73037e-21)
(-0.248797 -0.00848277 -1.19087e-21)
(-0.251124 -0.0092342 3.60606e-21)
(-0.252982 -0.00971346 4.17668e-22)
(-0.254323 -0.00985517 -1.2086e-21)
(-0.255095 -0.00959861 -1.65463e-21)
(-0.255237 -0.00889251 3.15731e-21)
(-0.254687 -0.00770061 -3.20634e-21)
(-0.253371 -0.00600759 1.29337e-21)
(-0.251216 -0.00382565 -1.83571e-21)
(-0.248142 -0.0011979 -2.01723e-21)
(-0.244072 0.00179435 2.16697e-22)
(-0.238909 0.00504422 2.87192e-21)
(-0.232598 0.00839693 -3.66635e-21)
(-0.225024 0.0116695 2.27183e-21)
(-0.216171 0.0146585 -2.10851e-21)
(-0.205896 0.0171413 -1.1773e-21)
(-0.194262 0.0189093 6.05106e-22)
(-0.181068 0.0197584 1.04e-21)
(-0.166518 0.0195371 1.16331e-21)
(-0.150321 0.0181319 -1.46e-21)
(-0.132875 0.0155161 -7.71459e-22)
(-0.113816 0.0117365 8.19682e-22)
(-0.0936872 0.0069133 2.82346e-22)
(-0.072272 0.00131152 -6.20046e-22)
(-0.0498125 -0.00486329 7.06645e-22)
(-0.0270376 -0.0110988 1.07282e-21)
(-0.00248038 -0.0172273 1.10314e-21)
(0.0200977 -0.0225491 -4.01583e-22)
(0.0471378 -0.0269763 -1.17415e-22)
(0.0674036 -0.0299735 -4.44643e-22)
(0.0985512 -0.0310184 -3.8321e-23)
(0.113851 -0.0309191 1.24612e-22)
(0.152387 -0.0269451 -1.08283e-22)
(0.159636 -0.0238012 1.7895e-22)
(0.210434 -0.0105593 -1.00686e-22)
(-0.204347 0.00383242 -2.67122e-21)
(-0.209614 0.0028731 2.28458e-21)
(-0.214668 0.00182167 3.67927e-21)
(-0.219497 0.00068311 -6.46735e-21)
(-0.224085 -0.000534229 3.54994e-21)
(-0.228416 -0.00181433 2.96611e-21)
(-0.23247 -0.00313086 -1.46485e-21)
(-0.236223 -0.00445223 3.92753e-21)
(-0.23965 -0.00573612 -4.11089e-21)
(-0.242724 -0.00693246 1.82561e-21)
(-0.245413 -0.00798863 2.86173e-21)
(-0.247677 -0.00884102 -4.46271e-23)
(-0.249477 -0.00942541 -3.68947e-21)
(-0.250763 -0.00967692 -4.99739e-22)
(-0.251485 -0.00953513 3.50223e-21)
(-0.251583 -0.0089492 6.61392e-21)
(-0.250992 -0.00788305 3.36724e-21)
(-0.249638 -0.00632154 -1.67274e-21)
(-0.247449 -0.00427654 -7.56117e-22)
(-0.244339 -0.00179127 -1.53214e-21)
(-0.24023 0.00105639 1.02156e-21)
(-0.235017 0.00415249 1.9253e-21)
(-0.228643 0.007351 3.4887e-21)
(-0.220986 0.0104674 -3.46046e-21)
(-0.212025 0.0133007 6.2849e-22)
(-0.201611 0.0156281 -2.32718e-21)
(-0.189805 0.0172455 -1.46115e-22)
(-0.176404 0.017947 -3.91208e-21)
(-0.161616 0.0175897 -6.3966e-22)
(-0.145149 0.0160534 1.77252e-21)
(-0.127417 0.0133291 3.94823e-22)
(-0.108063 0.00944417 7.05685e-22)
(-0.0876523 0.00455774 -5.88015e-22)
(-0.0659799 -0.00111731 -8.1864e-22)
(-0.0433145 -0.00729504 1.93677e-21)
(-0.0203993 -0.0135748 -1.53153e-21)
(0.00421169 -0.0196334 -3.48885e-22)
(0.026743 -0.0249934 -4.6802e-22)
(0.0536249 -0.0292774 4.16356e-22)
(0.073629 -0.0323453 2.63606e-22)
(0.104378 -0.0331869 -4.15071e-23)
(0.119254 -0.0332278 -1.35397e-22)
(0.157173 -0.02902 -1.7861e-23)
(0.163989 -0.0261006 -2.45946e-22)
(0.214152 -0.0127627 7.25657e-23)
(-0.20078 0.00518658 -6.27954e-21)
(-0.205947 0.00414379 -1.49827e-21)
(-0.2109 0.00300921 5.0854e-21)
(-0.215628 0.00178702 -5.0328e-21)
(-0.220117 0.000486897 -9.13438e-23)
(-0.224349 -0.000877266 5.83397e-21)
(-0.228303 -0.00228191 -2.41978e-21)
(-0.231957 -0.00369171 -3.03249e-21)
(-0.235285 -0.00506643 6.79517e-21)
(-0.238263 -0.00635618 -9.03641e-21)
(-0.240857 -0.0075093 -2.44746e-21)
(-0.243029 -0.00846243 5.83668e-21)
(-0.244739 -0.00915172 -5.7005e-21)
(-0.245941 -0.00951279 2.31464e-21)
(-0.246582 -0.00948557 -5.45126e-21)
(-0.246604 -0.00901964 -8.12117e-21)
(-0.245942 -0.00807913 2.86793e-21)
(-0.244521 -0.00664918 2.0297e-22)
(-0.242268 -0.00474135 1.72454e-21)
(-0.239093 -0.00239886 -1.16177e-21)
(-0.234915 0.000313413 -5.44488e-21)
(-0.229628 0.00324404 -2.00802e-21)
(-0.223165 0.00628702 -3.36644e-21)
(-0.215402 0.00924523 9.4675e-21)
(-0.206314 0.0119203 -2.30375e-22)
(-0.195745 0.0140897 2.09088e-21)
(-0.183754 0.0155541 2.75951e-21)
(-0.170135 0.0161058 2.35607e-22)
(-0.155102 0.0156107 1.26003e-21)
(-0.138364 0.0139424 9.44091e-22)
(-0.120351 0.0111098 3.55047e-21)
(-0.100707 0.00712141 3.40023e-21)
(-0.0800265 0.00217756 2.96599e-22)
(-0.0581088 -0.00356916 1.60073e-21)
(-0.0352567 -0.00974246 -2.769e-21)
(-0.0122159 -0.0160587 4.93327e-22)
(0.0124249 -0.0220381 -8.39111e-22)
(0.0348951 -0.027427 1.35353e-21)
(0.0615917 -0.0315583 -3.54816e-23)
(0.0813229 -0.0346872 1.12581e-23)
(0.111642 -0.0353187 -1.68235e-22)
(0.126087 -0.0354923 6.24461e-23)
(0.163349 -0.0310505 1.36769e-22)
(0.16973 -0.0283565 3.72193e-23)
(0.219188 -0.0149406 2.15967e-22)
(-0.196331 0.00651332 -2.39922e-20)
(-0.201369 0.00538813 1.90997e-20)
(-0.206195 0.00417142 -1.46834e-20)
(-0.210796 0.00286682 -7.70935e-21)
(-0.215158 0.0014838 2.45064e-20)
(-0.219263 4.00195e-05 -8.22448e-21)
(-0.22309 -0.00145563 -4.98385e-21)
(-0.226616 -0.0029531 1.36635e-20)
(-0.229818 -0.00441825 -1.87614e-20)
(-0.23267 -0.00580097 5.57199e-21)
(-0.23514 -0.00705069 -5.16033e-21)
(-0.23719 -0.00810424 -6.80383e-21)
(-0.238783 -0.00889808 7.96744e-21)
(-0.239869 -0.00936837 -3.03908e-21)
(-0.240401 -0.00945536 8.77348e-21)
(-0.240317 -0.00910909 -9.48777e-21)
(-0.239554 -0.00829395 3.11259e-21)
(-0.238038 -0.00699538 -1.37833e-21)
(-0.23569 -0.00522472 -4.67284e-22)
(-0.232421 -0.00302526 5.8097e-21)
(-0.228151 -0.000459009 -1.96301e-21)
(-0.222764 0.00231539 9.24729e-21)
(-0.216188 0.00520174 -1.40149e-21)
(-0.208299 0.00800009 -1.04897e-20)
(-0.199065 0.0105151 1.80085e-22)
(-0.188324 0.0125245 -1.69255e-21)
(-0.176136 0.0138336 2.31542e-21)
(-0.162292 0.0142339 -1.13576e-22)
(-0.147011 0.0135997 2.33091e-21)
(-0.130002 0.0117992 -3.20349e-21)
(-0.111712 0.0088586 -2.47755e-21)
(-0.0917858 0.00477107 -2.48051e-21)
(-0.07085 -0.000231526 -1.04368e-21)
(-0.0487004 -0.00604097 -1.87616e-23)
(-0.0256815 -0.012204 1.25807e-21)
(-0.00253085 -0.0185487 1.5934e-21)
(0.0221161 -0.0244401 1.73073e-21)
(0.0445113 -0.0298482 -9.94588e-22)
(0.0709972 -0.0338177 -8.99238e-22)
(0.090446 -0.0369977 -2.19634e-22)
(0.120307 -0.0374128 -5.14798e-22)
(0.134317 -0.0377111 -6.63252e-22)
(0.170885 -0.0330353 -3.01159e-22)
(0.176833 -0.0305666 2.10817e-22)
(0.225519 -0.0170907 -3.13018e-22)
(-0.195888 0.00659942 8.10372e-21)
(-0.20056 0.00530171 -1.22074e-20)
(-0.205007 0.00391581 -1.31355e-20)
(-0.209215 0.00245052 -6.41769e-22)
(-0.213167 0.000923986 3.84198e-21)
(-0.216841 -0.00065464 5.12011e-21)
(-0.220212 -0.00224218 1.86608e-20)
(-0.223259 -0.00379744 -2.14391e-21)
(-0.225958 -0.00527261 -8.39952e-22)
(-0.228277 -0.00661846 9.2552e-21)
(-0.230178 -0.00777198 -1.69544e-20)
(-0.231624 -0.00866991 5.45746e-21)
(-0.232568 -0.00924895 -5.93219e-21)
(-0.23296 -0.00944967 5.44387e-21)
(-0.232742 -0.00922257 7.33068e-21)
(-0.231851 -0.00853232 -1.44614e-22)
(-0.23021 -0.00736476 -1.21388e-21)
(-0.227742 -0.00573104 3.1855e-21)
(-0.224353 -0.00367487 -4.62409e-21)
(-0.219963 -0.00126721 -7.38245e-21)
(-0.214451 0.00136861 3.79244e-21)
(-0.207741 0.00409173 -4.49639e-21)
(-0.199705 0.00672949 3.72407e-21)
(-0.190308 0.00908301 4.20314e-21)
(-0.179382 0.0109307 -1.16274e-21)
(-0.166988 0.0120831 -3.45162e-22)
(-0.152912 0.0123307 4.21751e-21)
(-0.137382 0.0115567 -6.18761e-21)
(-0.120102 0.00962401 2.91582e-21)
(-0.101544 0.00657659 -3.02226e-21)
(-0.081345 0.00239602 3.61306e-21)
(-0.0601695 -0.00266844 -1.04599e-21)
(-0.0378026 -0.00853156 1.33894e-21)
(-0.0146381 -0.0146779 -1.41675e-21)
(0.00860605 -0.021043 3.17204e-22)
(0.0332357 -0.0268379 3.212e-22)
(0.0555423 -0.0322556 1.63533e-21)
(0.0817934 -0.0360544 -1.18095e-21)
(0.100952 -0.0392757 -6.31743e-22)
(0.130329 -0.0394682 3.92829e-22)
(0.143901 -0.039883 7.75646e-22)
(0.179744 -0.0349735 3.14288e-22)
(0.185262 -0.0327288 1.42471e-22)
(0.233115 -0.0192106 -1.39723e-22)
(-0.189511 0.00777126 -5.2961e-21)
(-0.194003 0.00639377 -1.4624e-20)
(-0.198271 0.00492771 1.92601e-20)
(-0.202299 0.00338113 3.59075e-21)
(-0.206072 0.00176897 -1.35146e-20)
(-0.209566 0.000122117 1.22413e-20)
(-0.212758 -0.001565 5.35491e-21)
(-0.215624 -0.00320963 -1.24129e-20)
(-0.218144 -0.00477649 -1.9757e-21)
(-0.220285 -0.00621791 5.33171e-21)
(-0.22201 -0.00747085 1.06032e-20)
(-0.223282 -0.00847231 -9.32132e-21)
(-0.224056 -0.0091595 6.60161e-21)
(-0.224282 -0.00947331 6.18397e-21)
(-0.223904 -0.00936474 -4.64401e-21)
(-0.222856 -0.00879875 -7.59994e-21)
(-0.221064 -0.0077616 1.31973e-20)
(-0.218449 -0.00626438 -4.29872e-22)
(-0.214915 -0.00435104 1.00427e-20)
(-0.210381 -0.00209475 -7.94633e-22)
(-0.204723 0.000406906 -3.91027e-21)
(-0.19786 0.00295457 4.70854e-22)
(-0.189658 0.00543113 1.26169e-21)
(-0.180082 0.00762227 5.51233e-22)
(-0.168959 0.00930733 -1.97147e-21)
(-0.156351 0.0103019 -3.57037e-22)
(-0.142038 0.0103962 1.57789e-21)
(-0.126259 0.00948204 3.56203e-21)
(-0.108714 0.00741795 -6.07802e-23)
(-0.0898953 0.00426862 1.65962e-21)
(-0.069436 -9.70729e-06 -8.93586e-22)
(-0.0480382 -0.00512591 -1.88656e-22)
(-0.0254698 -0.0110392 -9.5921e-22)
(-0.00218191 -0.0171622 -3.24706e-21)
(0.0211387 -0.0235397 -6.63468e-22)
(0.0457276 -0.0292299 1.73528e-23)
(0.0679323 -0.0346477 1.1307e-21)
(0.0939262 -0.0382673 7.02177e-22)
(0.112788 -0.0415202 1.03183e-21)
(0.14166 -0.0414843 1.23592e-21)
(0.154795 -0.0420073 -1.89297e-22)
(0.189885 -0.0368644 1.27166e-22)
(0.19498 -0.0348413 -1.12096e-23)
(0.241941 -0.0212982 1.46747e-22)
(-0.182244 0.00889753 1.04086e-21)
(-0.186533 0.00744166 1.87236e-20)
(-0.190597 0.0058967 -1.13576e-20)
(-0.19442 0.00427025 6.70653e-21)
(-0.197987 0.002576 -2.28017e-20)
(-0.20128 0.000847264 1.41666e-21)
(-0.204269 -0.000927608 1.48877e-20)
(-0.206928 -0.00265993 -8.60178e-21)
(-0.209243 -0.00431765 -2.53398e-20)
(-0.211181 -0.00585397 1.84522e-20)
(-0.212705 -0.00720569 6.0267e-21)
(-0.213778 -0.00830998 -3.5339e-21)
(-0.214357 -0.00910459 -1.86926e-20)
(-0.214393 -0.00953073 1.03997e-20)
(-0.213828 -0.00953989 -3.474e-21)
(-0.212599 -0.00909736 -4.47092e-21)
(-0.210631 -0.00818982 5.81533e-21)
(-0.207845 -0.00682839 -8.93567e-21)
(-0.204143 -0.00505721 -1.02623e-20)
(-0.19944 -0.00294935 -1.40337e-20)
(-0.193616 -0.000599834 9.58682e-21)
(-0.186583 0.00179477 7.93856e-21)
(-0.178197 0.00410326 -3.42845e-21)
(-0.16843 0.00613141 -8.51042e-21)
(-0.1571 0.0076534 9.51219e-23)
(-0.144271 0.00848964 -7.77481e-21)
(-0.129719 0.0084304 -8.7707e-21)
(-0.113694 0.00737635 1.07503e-21)
(-0.0958889 0.00518334 -2.78832e-21)
(-0.0768222 0.0019412 1.44075e-21)
(-0.0561157 -0.00244539 -2.53911e-21)
(-0.0345136 -0.00760284 -1.14866e-21)
(-0.0117617 -0.0135617 -4.14051e-21)
(0.0116266 -0.0196549 2.35316e-21)
(0.0350057 -0.0260371 -2.604e-22)
(0.0595308 -0.0316143 -1.30989e-21)
(0.0816202 -0.037023 -3.22656e-21)
(0.107336 -0.0404552 2.33501e-21)
(0.125896 -0.0437301 8.67924e-22)
(0.154242 -0.0434603 -7.68094e-22)
(0.166943 -0.0440832 -3.4313e-22)
(0.201258 -0.0387077 -4.19934e-22)
(0.205939 -0.0369025 -3.0221e-22)
(0.251955 -0.0233514 9.21687e-23)
(-0.174095 0.0099725 4.10729e-21)
(-0.178157 0.0084398 -1.79154e-20)
(-0.181994 0.00681737 1.04258e-20)
(-0.185591 0.0051124 -1.84331e-22)
(-0.188929 0.00333778 9.58974e-21)
(-0.191996 0.00151553 -2.74044e-20)
(-0.194758 -0.000328593 1.24283e-20)
(-0.197187 -0.00215268 2.95661e-21)
(-0.199275 -0.00390071 6.48463e-21)
(-0.200987 -0.00553113 8.52911e-21)
(-0.202286 -0.00698087 -1.05089e-20)
(-0.203137 -0.00818718 -1.63575e-20)
(-0.203496 -0.00908837 1.36278e-20)
(-0.203318 -0.00962595 -1.1231e-20)
(-0.202543 -0.0097519 3.56289e-21)
(-0.201111 -0.00943183 -7.9747e-21)
(-0.198944 -0.00865292 2.82047e-21)
(-0.195964 -0.00742634 -1.34179e-22)
(-0.192073 -0.00579647 -3.65569e-21)
(-0.187182 -0.00383636 8.09518e-21)
(-0.181171 -0.00165421 3.26522e-21)
(-0.173951 0.000621837 6.52472e-21)
(-0.165369 0.00274716 2.09055e-21)
(-0.155399 0.00460954 -8.87228e-21)
(-0.143853 0.00596798 1.07505e-20)
(-0.1308 0.0066458 -7.98644e-23)
(-0.116008 0.00643404 -7.09664e-22)
(-0.0997422 0.00524139 4.40655e-21)
(-0.0816837 0.00292326 1.10177e-21)
(-0.0623837 -0.000423168 -8.42534e-21)
(-0.0414458 -0.00490138 -7.75438e-22)
(-0.0196586 -0.0100981 1.51678e-21)
(0.0032572 -0.0160968 5.30048e-21)
(0.0267222 -0.0221537 2.70727e-21)
(0.050141 -0.0285329 -3.9389e-22)
(0.0745791 -0.0339894 1.39733e-21)
(0.0965402 -0.0393801 -2.15735e-22)
(0.121958 -0.0426173 -2.24367e-21)
(0.140213 -0.0459049 8.28573e-23)
(0.168017 -0.045396 9.39826e-22)
(0.180289 -0.0461103 7.63084e-22)
(0.213809 -0.0405032 3.16303e-22)
(0.218089 -0.0389112 -3.46955e-22)
(0.263111 -0.0253683 1.16751e-22)
(-0.165072 0.0109908 5.50339e-21)
(-0.168885 0.009383 4.03728e-21)
(-0.172473 0.00768469 -2.1596e-20)
(-0.175821 0.00590264 2.05256e-20)
(-0.17891 0.00404932 7.03966e-22)
(-0.181727 0.00214449 -1.93771e-21)
(-0.18424 0.000241441 3.19454e-21)
(-0.18642 -0.00169206 -1.77423e-20)
(-0.188257 -0.00352991 5.75146e-21)
(-0.189722 -0.00525343 -2.27643e-20)
(-0.190774 -0.00680029 2.06561e-20)
(-0.191382 -0.00810769 -4.17159e-21)
(-0.191501 -0.00911449 -2.9676e-21)
(-0.191086 -0.00976249 -5.79634e-21)
(-0.190081 -0.0100041 1.05733e-20)
(-0.188423 -0.00980538 -5.96065e-21)
(-0.186037 -0.00915393 1.04611e-20)
(-0.182845 -0.00806103 -4.61799e-21)
(-0.178745 -0.0065714 1.78206e-20)
(-0.173649 -0.00475781 -1.31194e-20)
(-0.167431 -0.00273249 -1.10864e-20)
(-0.16001 -0.000607206 1.30531e-20)
(-0.151225 0.00136767 -8.79588e-21)
(-0.14104 0.00305912 -9.78865e-22)
(-0.129272 0.00425172 1.23994e-21)
(-0.115993 0.00477115 5.84727e-21)
(-0.100963 0.00440977 -3.07968e-21)
(-0.0844624 0.00308175 6.37153e-21)
(-0.0661619 0.000637427 -1.69805e-21)
(-0.0466433 -0.00282311 -2.62317e-21)
(-0.0254896 -0.00737553 -4.56139e-21)
(-0.00353994 -0.0126092 5.77467e-21)
(0.019519 -0.0186417 -2.21877e-21)
(0.0430361 -0.0246563 -2.02383e-21)
(0.0664748 -0.031025 2.61346e-21)
(0.0908029 -0.0363534 -1.90603e-22)
(0.112622 -0.0417175 -7.86077e-22)
(0.137724 -0.0447525 2.82843e-22)
(0.15567 -0.0480437 -2.84539e-21)
(0.182918 -0.0472911 -1.20991e-21)
(0.194768 -0.0480884 -7.02419e-23)
(0.227478 -0.0422508 -1.47943e-22)
(0.231372 -0.0408663 1.16486e-22)
(0.275356 -0.0273472 -1.17097e-22)
(-0.155182 0.0119476 -9.04938e-21)
(-0.158724 0.0102665 2.39373e-20)
(-0.162043 0.00849411 1.30378e-20)
(-0.165121 0.00663656 -2.11427e-21)
(-0.167941 0.0047061 -3.08902e-20)
(-0.170484 0.00272274 2.7839e-20)
(-0.172732 0.000737539 2.68749e-20)
(-0.174647 -0.00128313 -1.37629e-20)
(-0.176211 -0.00320898 1.0229e-20)
(-0.177408 -0.00502439 4.04504e-21)
(-0.178195 -0.00666737 -4.70663e-21)
(-0.178539 -0.0080748 -5.1338e-21)
(-0.178399 -0.00918611 -6.45054e-21)
(-0.177729 -0.00994335 1.5394e-20)
(-0.176474 -0.0102995 -1.47797e-21)
(-0.174573 -0.0102207 -1.46243e-20)
(-0.171949 -0.00969539 1.39562e-20)
(-0.168526 -0.00873477 -5.27026e-21)
(-0.1642 -0.00738402 -2.12549e-20)
(-0.158884 -0.00571549 5.40217e-21)
(-0.152448 -0.00384219 -4.67264e-21)
(-0.144811 -0.00189447 -1.50671e-21)
(-0.13581 -4.9926e-05 5.9678e-21)
(-0.125408 0.0014861 -4.07469e-21)
(-0.113413 0.00251157 2.44442e-22)
(-0.0999079 0.00287422 6.14417e-22)
(-0.0846438 0.00236204 -1.30715e-20)
(-0.0679174 0.000902193 1.3186e-20)
(-0.0493879 -0.00167973 -5.65546e-21)
(-0.0296671 -0.00523694 3.84382e-21)
(-0.00831581 -0.00986694 3.37975e-21)
(0.0137727 -0.0151332 -2.55504e-21)
(0.0369525 -0.0211939 -1.21734e-21)
(0.0604962 -0.0271601 3.17905e-21)
(0.0839341 -0.0335111 -1.03953e-21)
(0.108129 -0.0387044 -5.18204e-21)
(0.129794 -0.0440338 1.77233e-22)
(0.154563 -0.0468599 1.3559e-21)
(0.172197 -0.0501459 1.12654e-21)
(0.198878 -0.0491454 1.54718e-21)
(0.210315 -0.0500172 -1.20177e-21)
(0.242203 -0.0439508 4.39421e-22)
(0.245727 -0.0427668 6.09003e-22)
(0.288637 -0.0292863 -2.81058e-23)
(-0.144429 0.0128385 2.79652e-20)
(-0.147682 0.0110862 2.63961e-20)
(-0.150712 0.00924154 1.67886e-21)
(-0.153502 0.00731029 -1.63982e-21)
(-0.156035 0.0053042 1.30263e-21)
(-0.158289 0.00324221 2.55967e-21)
(-0.16025 0.00115527 -3.91338e-20)
(-0.161878 -0.000927918 3.57341e-21)
(-0.163155 -0.00294101 -2.18118e-20)
(-0.164067 -0.004847 2.89413e-21)
(-0.164571 -0.00658495 3.43219e-20)
(-0.164635 -0.00809122 -2.49499e-20)
(-0.164219 -0.00930579 1.40083e-20)
(-0.163277 -0.010171 -1.52575e-20)
(-0.161756 -0.0106402 -7.99008e-21)
(-0.159595 -0.01068 1.14608e-20)
(-0.156718 -0.0102793 -4.01845e-21)
(-0.153049 -0.00944935 4.46393e-21)
(-0.148484 -0.00823589 -5.9965e-23)
(-0.142934 -0.00671082 8.67825e-21)
(-0.136268 -0.00498733 -5.27782e-21)
(-0.128405 -0.00320035 -3.43355e-21)
(-0.119178 -0.001516 3.04728e-22)
(-0.108556 -0.000125802 -5.43374e-21)
(-0.0963354 0.000755815 1.16607e-20)
(-0.0826058 0.000969792 -6.87054e-21)
(-0.0671135 0.000287005 1.00957e-20)
(-0.0501734 -0.00131463 -8.35807e-21)
(-0.0314288 -0.00402226 7.97077e-21)
(-0.0115232 -0.00766609 -1.27469e-21)
(0.0100047 -0.0123728 2.15995e-21)
(0.0322075 -0.017667 6.20255e-21)
(0.0554845 -0.0237502 9.24019e-22)
(0.0790285 -0.0296621 -3.67699e-21)
(0.102444 -0.0359887 6.42591e-21)
(0.126483 -0.0410404 3.9149e-21)
(0.147978 -0.0463273 3.51971e-21)
(0.172398 -0.0489386 -3.82252e-22)
(0.18972 -0.0522109 8.13102e-22)
(0.215823 -0.050959 -7.7035e-22)
(0.226859 -0.051897 8.44641e-22)
(0.257917 -0.0456034 -4.33594e-22)
(0.261091 -0.0446123 -5.22248e-22)
(0.302892 -0.0311842 2.84922e-22)
(-0.132818 0.0136594 -2.37328e-21)
(-0.135765 0.0118382 -4.4372e-20)
(-0.138489 0.00992342 2.90226e-20)
(-0.140973 0.00792044 -1.15702e-20)
(-0.143201 0.0058405 1.43497e-21)
(-0.145151 0.00370208 -1.99443e-20)
(-0.146809 0.00153181 1.60481e-20)
(-0.148133 -0.000628666 9.35451e-21)
(-0.149107 -0.00272855 -8.96336e-21)
(-0.14972 -0.00472369 -7.77693e-21)
(-0.149926 -0.0065553 3.01285e-20)
(-0.149696 -0.0081591 -3.10791e-20)
(-0.148989 -0.00947556 1.0677e-20)
(-0.147762 -0.0104473 2.05972e-20)
(-0.145961 -0.0110281 5.70764e-21)
(-0.143526 -0.0111849 -7.6777e-21)
(-0.140384 -0.010907 1.58834e-21)
(-0.136456 -0.010206 7.19556e-21)
(-0.13164 -0.009128 2.22518e-21)
(-0.125846 -0.00774456 8.185e-21)
(-0.118942 -0.00616896 6.40084e-22)
(-0.110846 -0.00453478 6.66394e-22)
(-0.101389 -0.00301532 3.77466e-21)
(-0.0905401 -0.00178441 1.09667e-20)
(-0.0780946 -0.00105146 -1.03368e-20)
(-0.064151 -0.000990295 -4.31142e-22)
(-0.0484407 -0.0018237 2.39132e-21)
(-0.0312965 -0.00356421 1.94541e-21)
(-0.0123512 -0.00637986 -1.17408e-20)
(0.00771788 -0.0101109 9.97682e-22)
(0.0293999 -0.0148897 4.2139e-21)
(0.051691 -0.0202074 -1.85851e-21)
(0.0750401 -0.0263075 9.70128e-22)
(0.0985573 -0.0321596 -4.11469e-21)
(0.121928 -0.0384551 -5.06229e-21)
(0.145788 -0.0433594 -6.93996e-22)
(0.1671 -0.0485964 -3.43142e-21)
(0.191154 -0.0509875 -9.82612e-22)
(0.208162 -0.0542383 -1.14002e-21)
(0.233681 -0.0527317 4.79794e-22)
(0.244325 -0.0537278 -1.25127e-21)
(0.274549 -0.0472093 3.99211e-22)
(0.277394 -0.0464024 1.92653e-22)
(0.31806 -0.0330395 -4.7109e-22)
(-0.120352 0.0144072 -1.26292e-20)
(-0.122976 0.0125193 -5.50626e-21)
(-0.125378 0.0105367 8.25826e-21)
(-0.127542 0.00846417 -1.70031e-20)
(-0.129451 0.00631241 -7.99385e-21)
(-0.131082 0.00409993 3.14824e-20)
(-0.132422 0.00185237 -2.56192e-20)
(-0.133429 -0.000387486 8.31646e-21)
(-0.134088 -0.00257351 1.7148e-20)
(-0.134387 -0.00465631 -7.69697e-21)
(-0.134283 -0.00658013 4.34639e-21)
(-0.133746 -0.00827997 -6.4487e-21)
(-0.132737 -0.00969681 1.59121e-20)
(-0.131213 -0.0107735 -1.62349e-21)
(-0.129121 -0.0114642 -8.13295e-21)
(-0.126404 -0.0117363 -4.11556e-21)
(-0.122985 -0.0115794 -2.90747e-20)
(-0.11879 -0.0110054 1.93661e-20)
(-0.113714 -0.0100608 -1.10721e-20)
(-0.107669 -0.0088169 2.30093e-22)
(-0.100521 -0.00738703 6.23565e-22)
(-0.0921876 -0.00590327 8.19096e-21)
(-0.0824984 -0.00454136 -5.52159e-21)
(-0.071425 -0.00347152 -1.1422e-20)
(-0.0587578 -0.00290763 1.03444e-20)
(-0.0446041 -0.00300294 -3.39602e-21)
(-0.0286852 -0.00395989 1.21215e-20)
(-0.0113534 -0.00582484 -3.90278e-22)
(0.0077746 -0.00875191 3.41507e-22)
(0.0279845 -0.0125681 5.112e-21)
(0.0497968 -0.0174144 -2.64383e-21)
(0.0721491 -0.0227509 -2.9016e-21)
(0.0955439 -0.0288624 -4.69281e-21)
(0.119006 -0.0346494 -2.06901e-21)
(0.142308 -0.0409076 4.06853e-21)
(0.165965 -0.045659 5.13475e-22)
(0.187079 -0.0508394 4.24409e-22)
(0.210754 -0.0530057 3.78703e-21)
(0.227446 -0.0562273 1.63357e-21)
(0.252374 -0.0544638 -2.24424e-21)
(0.262641 -0.0555098 1.96336e-21)
(0.292027 -0.048769 -4.9047e-22)
(0.294565 -0.0481368 -1.76053e-22)
(0.334076 -0.0348509 8.30455e-23)
(-0.107028 0.015079 2.65026e-20)
(-0.109316 0.0131271 -7.16912e-21)
(-0.111384 0.0110791 7.64199e-21)
(-0.113215 0.00893923 1.78723e-20)
(-0.114791 0.00671784 -1.6709e-20)
(-0.116091 0.00443338 -1.34002e-20)
(-0.117101 0.00211003 2.29403e-20)
(-0.11778 -0.00020555 -1.56428e-20)
(-0.118113 -0.00247725 -1.95197e-20)
(-0.118089 -0.00464613 -4.61083e-22)
(-0.117665 -0.00666051 -1.51786e-20)
(-0.116811 -0.00845478 1.36877e-20)
(-0.115491 -0.00997033 -1.78451e-20)
(-0.113662 -0.0111503 1.96993e-20)
(-0.111271 -0.0119491 -1.90584e-20)
(-0.108263 -0.0123346 2.67585e-20)
(-0.104562 -0.0122968 2.21225e-20)
(-0.100092 -0.0118477 -3.21867e-20)
(-0.0947518 -0.0110343 -9.55228e-21)
(-0.0884515 -0.00992755 2.95828e-20)
(-0.0810553 -0.00864096 1.93136e-21)
(-0.0724839 -0.00730545 -1.16437e-20)
(-0.062563 -0.00609595 -4.85199e-21)
(-0.0512687 -0.00518133 1.90953e-20)
(-0.0383854 -0.00477386 -1.10576e-20)
(-0.0240299 -0.00501708 -4.8076e-21)
(-0.00791467 -0.0061112 -1.36696e-22)
(0.00958738 -0.00809844 6.39366e-21)
(0.028878 -0.0111364 -1.22562e-21)
(0.0492049 -0.0150338 -2.52397e-21)
(0.0711221 -0.0199431 -7.3615e-21)
(0.0935072 -0.0252936 3.67315e-23)
(0.11692 -0.0314113 2.10439e-21)
(0.140299 -0.0371282 6.07788e-21)
(0.163508 -0.0433434 -3.64727e-21)
(0.186938 -0.0479371 -5.13201e-22)
(0.207839 -0.0530545 1.40559e-21)
(0.231119 -0.0549921 -6.23151e-21)
(0.247494 -0.0581776 -2.278e-21)
(0.271827 -0.0561552 3.17602e-21)
(0.281729 -0.0572434 2.50654e-22)
(0.310277 -0.0502832 1.05795e-23)
(0.312533 -0.0498157 -2.29875e-22)
(0.350872 -0.0366174 -3.51212e-22)
(-0.0928452 0.0156727 -5.15594e-20)
(-0.0947851 0.0136595 5.49264e-20)
(-0.0965069 0.0115486 1.75759e-21)
(-0.0979939 0.00934398 -1.70364e-20)
(-0.0992275 0.0070553 2.98172e-20)
(-0.100187 0.00470103 -3.77472e-20)
(-0.100857 0.00230378 2.93118e-20)
(-0.101199 -8.35023e-05 -8.98728e-21)
(-0.101198 -0.00244055 2.56916e-20)
(-0.100843 -0.00469378 7.66654e-21)
(-0.100091 -0.0067969 1.72671e-20)
(-0.098915 -0.00868381 -1.65389e-20)
(-0.0972774 -0.0102963 -6.37245e-21)
(-0.0951375 -0.0115776 -1.5281e-20)
(-0.0924438 -0.0124827 1.67233e-20)
(-0.0891402 -0.0129795 6.00357e-21)
(-0.0851523 -0.0130587 2.18034e-21)
(-0.0804062 -0.0127322 4.51966e-21)
(-0.0747981 -0.0120476 9.93744e-21)
(-0.0682409 -0.0110756 -2.85458e-20)
(-0.0605968 -0.00992965 7.48703e-21)
(-0.0517886 -0.00873966 2.57933e-22)
(-0.0416394 -0.00767945 -4.72536e-21)
(-0.0301297 -0.00691551 -3.91296e-21)
(-0.0170385 -0.00665716 3.00461e-21)
(-0.0024932 -0.0070446 1.0765e-21)
(0.0138037 -0.00827726 1.51234e-21)
(0.0314574 -0.0103849 -6.40566e-21)
(0.0508891 -0.0135298 1.30761e-20)
(0.0713077 -0.0175042 -2.82259e-21)
(0.093303 -0.0224717 8.17451e-21)
(0.115691 -0.0278318 -2.95921e-21)
(0.139093 -0.0339504 -2.05407e-22)
(0.16236 -0.0395925 -3.31619e-21)
(0.185449 -0.0457594 2.41068e-21)
(0.20863 -0.050191 -4.2063e-21)
(0.229301 -0.0552398 -3.66417e-21)
(0.252171 -0.0569456 3.40206e-21)
(0.268228 -0.0600883 -1.7252e-22)
(0.291961 -0.0578061 -1.217e-21)
(0.301512 -0.0589289 -8.27698e-22)
(0.329226 -0.0517527 6.15804e-22)
(0.331222 -0.0514392 3.50411e-22)
(0.36838 -0.0383381 2.38011e-22)
(-0.0777956 0.0161869 3.92508e-20)
(-0.0793788 0.0141153 -5.4878e-20)
(-0.0807461 0.0119443 5.7996e-20)
(-0.0818806 0.00967742 -3.54069e-20)
(-0.0827638 0.00732394 1.83452e-21)
(-0.0833753 0.00490221 -2.96107e-20)
(-0.0836983 0.00243342 3.84697e-20)
(-0.083697 -2.20766e-05 2.66647e-22)
(-0.0833577 -0.00246362 -1.69535e-20)
(-0.0826647 -0.0047993 7.79081e-21)
(-0.0815818 -0.00698913 -1.22209e-20)
(-0.0800789 -0.00896675 6.08633e-21)
(-0.0781212 -0.0106742 -2.29379e-20)
(-0.0756682 -0.012055 1.69361e-20)
(-0.0726693 -0.0130643 1.90675e-20)
(-0.0690695 -0.0136703 -8.37316e-21)
(-0.0647946 -0.0138642 1.12679e-21)
(-0.0597719 -0.0136579 -1.34792e-20)
(-0.0538973 -0.0130997 4.5057e-21)
(-0.0470848 -0.0122597 2.61564e-20)
(-0.0391958 -0.0112515 -1.10395e-20)
(-0.0301553 -0.010204 2.0915e-20)
(-0.0197837 -0.0092901 -4.71039e-21)
(-0.00806711 -0.00867344 -1.12366e-20)
(0.00522121 -0.00856101 -1.49161e-21)
(0.0199423 -0.00908958 -2.89463e-21)
(0.0364041 -0.0104557 5.89107e-21)
(0.0541888 -0.0126813 1.71079e-21)
(0.0737383 -0.015928 -1.18558e-20)
(0.094222 -0.0199751 6.22467e-21)
(0.116267 -0.0249962 1.93716e-21)
(0.138628 -0.0303613 -9.60619e-22)
(0.161989 -0.0364759 -6.70816e-21)
(0.185113 -0.0420389 2.82627e-21)
(0.208057 -0.0481524 -8.11655e-21)
(0.230962 -0.0524184 4.11846e-21)
(0.251387 -0.0573934 -2.73219e-21)
(0.273833 -0.0588649 1.34678e-21)
(0.289571 -0.061959 1.40861e-21)
(0.3127 -0.0594164 -1.69822e-21)
(0.321914 -0.0605667 -1.06811e-22)
(0.348796 -0.0531781 -1.47982e-22)
(0.350559 -0.0530079 -5.25419e-22)
(0.386531 -0.0400123 -1.35694e-22)
(-0.0618691 0.0166209 2.21105e-20)
(-0.0630894 0.0144938 -2.05206e-20)
(-0.0640963 0.0122656 2.54785e-20)
(-0.0648729 0.00993924 -1.4208e-21)
(-0.0654004 0.00752361 5.43042e-21)
(-0.0656591 0.00503688 7.14476e-21)
(-0.06563 0.00249901 2.06365e-20)
(-0.0652827 -2.27413e-05 -1.24902e-20)
(-0.0646026 -0.00254606 -1.09681e-20)
(-0.0635697 -0.00496208 -1.9388e-20)
(-0.0621537 -0.00723639 1.39828e-20)
(-0.0603236 -0.00930262 1.25582e-21)
(-0.0580457 -0.0111029 4.90252e-21)
(-0.0552805 -0.012581 -2.40716e-20)
(-0.0519781 -0.0136923 1.06148e-20)
(-0.0480842 -0.0144054 -2.68779e-22)
(-0.0435252 -0.0147116 -8.9991e-21)
(-0.0382293 -0.0146231 -1.12315e-20)
(-0.0320924 -0.0141886 9.72181e-21)
(-0.0250298 -0.0134779 -2.58599e-20)
(-0.0169019 -0.0126045 1.63413e-20)
(-0.00763646 -0.0116963 -4.34464e-20)
(0.00294854 -0.0109253 2.20142e-21)
(0.014861 -0.0104525 1.07688e-20)
(0.0283331 -0.0104827 -1.25386e-20)
(0.0432136 -0.0111486 5.54871e-21)
(0.0598215 -0.0126435 4.88941e-21)