/*--------------------------------*- C++ -*----------------------------------*\
  =========                 |
  \\      /  F ield         | OpenFOAM: The Open Source CFD Toolbox
   \\    /   O peration     | Website:  https://openfoam.org
    \\  /    A nd           | Version:  7
     \\/     M anipulation  |
\*---------------------------------------------------------------------------*/
FoamFile
{
    version     2.0;
    format      ascii;
    class       volScalarField;
    location    "20";
    object      p;
}
// * * * * * * * * * * * * * * * * * * * * * * * * * * * * * * * * * * * * * //

dimensions      [0 2 -2 0 0 0 0];

internalField   nonuniform List<scalar> 
8500
(
-0.310261
-0.312916
-0.311677
-0.315726
-0.314314
-0.312709
-0.318696
-0.317097
-0.315337
-0.321834
-0.320033
-0.318109
-0.315805
-0.325144
-0.323127
-0.321031
-0.31855
-0.315783
-0.328631
-0.326383
-0.324106
-0.321444
-0.318495
-0.315379
-0.3323
-0.329807
-0.327341
-0.324489
-0.321356
-0.318061
-0.314679
-0.336154
-0.333401
-0.330738
-0.327692
-0.324369
-0.320892
-0.317333
-0.313739
-0.340196
-0.337168
-0.334301
-0.331056
-0.327538
-0.323875
-0.320134
-0.316354
-0.312543
-0.344427
-0.34111
-0.338033
-0.334583
-0.330866
-0.327013
-0.323082
-0.319106
-0.315081
-0.310966
-0.348846
-0.345229
-0.341935
-0.338276
-0.334356
-0.330307
-0.32618
-0.321995
-0.317736
-0.31335
-0.308758
-0.353454
-0.349524
-0.346008
-0.342135
-0.338009
-0.333759
-0.329426
-0.325017
-0.320503
-0.315816
-0.310869
-0.305569
-0.299841
-0.358247
-0.353993
-0.35025
-0.346162
-0.341825
-0.337367
-0.332816
-0.328167
-0.323372
-0.318352
-0.313012
-0.307261
-0.301032
-0.294299
-0.363223
-0.358634
-0.35466
-0.350353
-0.345802
-0.341128
-0.336347
-0.331436
-0.326332
-0.320944
-0.315171
-0.308927
-0.302163
-0.294873
-0.287105
-0.368374
-0.363441
-0.359234
-0.354705
-0.349935
-0.345038
-0.340012
-0.334815
-0.32937
-0.323574
-0.317327
-0.310551
-0.303217
-0.295347
-0.287015
-0.278334
-0.26942
-0.373693
-0.36841
-0.363968
-0.359215
-0.354221
-0.34909
-0.343799
-0.338291
-0.332469
-0.326225
-0.31946
-0.312113
-0.304178
-0.295707
-0.286801
-0.277596
-0.268221
-0.258858
-0.379172
-0.373531
-0.368853
-0.363875
-0.358651
-0.353273
-0.347699
-0.341847
-0.335611
-0.328874
-0.321548
-0.313592
-0.305028
-0.29594
-0.286455
-0.276728
-0.2669
-0.257149
-0.247416
-0.238409
-0.384798
-0.378796
-0.373881
-0.368676
-0.363216
-0.357578
-0.351694
-0.345466
-0.338773
-0.3315
-0.323571
-0.31497
-0.305752
-0.296033
-0.285967
-0.275723
-0.265452
-0.255322
-0.245291
-0.235999
-0.390558
-0.384191
-0.37904
-0.373606
-0.367903
-0.361987
-0.355768
-0.349127
-0.341934
-0.334078
-0.325504
-0.316226
-0.306334
-0.295975
-0.285328
-0.274574
-0.263869
-0.253371
-0.24305
-0.233482
-0.396435
-0.389704
-0.384318
-0.378653
-0.372697
-0.366485
-0.359901
-0.352806
-0.345067
-0.336583
-0.327324
-0.317339
-0.306757
-0.295754
-0.28453
-0.273275
-0.262147
-0.251291
-0.240687
-0.23085
-0.402411
-0.395316
-0.389698
-0.3838
-0.37758
-0.371051
-0.364067
-0.356478
-0.348146
-0.338989
-0.329007
-0.318291
-0.307006
-0.295358
-0.283563
-0.271818
-0.260278
-0.249075
-0.238196
-0.228098
-0.408465
-0.401009
-0.395162
-0.389028
-0.382532
-0.37566
-0.368243
-0.360113
-0.351141
-0.341267
-0.330531
-0.319063
-0.307066
-0.294775
-0.28242
-0.270196
-0.258257
-0.246718
-0.235572
-0.225218
-0.414574
-0.406762
-0.400688
-0.394316
-0.38753
-0.380289
-0.372398
-0.363682
-0.354023
-0.343392
-0.331871
-0.319635
-0.306924
-0.293996
-0.28109
-0.268402
-0.256075
-0.244211
-0.232807
-0.222206
-0.42071
-0.412551
-0.406254
-0.399639
-0.392546
-0.384906
-0.376501
-0.367153
-0.356761
-0.345335
-0.333004
-0.319989
-0.306565
-0.293009
-0.279565
-0.266427
-0.253726
-0.24155
-0.229896
-0.219054
-0.426847
-0.418348
-0.411834
-0.404969
-0.397552
-0.389482
-0.38052
-0.370492
-0.359323
-0.347069
-0.333908
-0.320108
-0.305975
-0.291803
-0.277838
-0.264264
-0.251203
-0.238725
-0.226833
-0.215758
-0.432953
-0.424126
-0.417398
-0.410278
-0.402516
-0.393981
-0.384419
-0.373665
-0.361679
-0.348567
-0.334561
-0.319975
-0.305142
-0.290368
-0.275897
-0.261904
-0.248498
-0.235732
-0.22361
-0.21231
-0.438994
-0.429853
-0.422915
-0.415533
-0.407403
-0.398369
-0.388162
-0.376636
-0.363796
-0.349802
-0.334942
-0.319573
-0.304052
-0.288693
-0.273736
-0.25934
-0.245604
-0.232563
-0.220222
-0.208706
-0.444935
-0.435494
-0.428352
-0.420698
-0.412178
-0.402606
-0.391711
-0.379371
-0.365643
-0.350749
-0.335031
-0.318886
-0.302694
-0.286769
-0.271343
-0.256564
-0.242512
-0.22921
-0.216662
-0.204939
-0.450738
-0.441015
-0.433672
-0.425737
-0.4168
-0.406653
-0.395026
-0.381834
-0.36719
-0.351381
-0.334807
-0.3179
-0.301054
-0.284585
-0.268712
-0.253567
-0.239216
-0.225667
-0.212924
-0.201005
-0.456364
-0.446377
-0.438837
-0.43061
-0.42123
-0.410469
-0.398069
-0.383989
-0.368406
-0.351676
-0.334252
-0.316599
-0.299122
-0.282131
-0.265832
-0.250341
-0.235708
-0.221927
-0.209002
-0.196897
-0.461771
-0.451541
-0.443808
-0.435276
-0.425426
-0.414013
-0.400801
-0.385801
-0.369263
-0.351611
-0.333349
-0.314969
-0.296885
-0.279397
-0.262695
-0.246878
-0.23198
-0.217983
-0.204889
-0.192611
-0.466917
-0.456465
-0.448542
-0.439692
-0.429343
-0.417242
-0.403182
-0.387236
-0.369732
-0.351162
-0.332079
-0.312998
-0.294333
-0.276373
-0.259292
-0.24317
-0.228026
-0.21383
-0.20058
-0.188142
-0.471757
-0.461106
-0.452996
-0.443814
-0.432938
-0.420114
-0.405174
-0.388262
-0.369787
-0.350309
-0.330427
-0.310671
-0.291454
-0.27305
-0.255614
-0.239209
-0.223837
-0.209459
-0.196069
-0.183484
-0.476248
-0.46542
-0.457126
-0.447598
-0.436167
-0.422587
-0.406739
-0.388847
-0.369403
-0.349034
-0.328377
-0.307977
-0.288239
-0.269419
-0.251654
-0.234987
-0.219408
-0.204867
-0.191352
-0.178634
-0.480342
-0.469363
-0.460887
-0.450998
-0.438985
-0.424619
-0.40784
-0.38896
-0.368554
-0.347316
-0.325915
-0.304905
-0.284677
-0.265471
-0.247402
-0.230498
-0.214732
-0.200046
-0.186422
-0.173587
-0.483994
-0.47289
-0.464232
-0.453967
-0.441347
-0.426169
-0.408443
-0.388573
-0.367221
-0.345139
-0.323028
-0.301442
-0.280759
-0.261198
-0.242853
-0.225735
-0.209803
-0.194991
-0.181275
-0.16834
-0.487158
-0.475955
-0.467118
-0.456462
-0.443211
-0.427198
-0.408513
-0.387658
-0.36538
-0.342488
-0.319704
-0.297579
-0.276476
-0.256592
-0.237998
-0.220691
-0.204615
-0.189699
-0.175908
-0.162889
-0.48979
-0.478513
-0.469497
-0.458436
-0.444534
-0.427669
-0.408021
-0.386192
-0.363015
-0.339347
-0.31593
-0.293306
-0.27182
-0.251644
-0.232832
-0.215361
-0.199164
-0.184164
-0.170316
-0.157231
-0.491843
-0.480519
-0.471327
-0.459847
-0.445275
-0.427545
-0.406935
-0.384151
-0.360106
-0.335704
-0.311696
-0.288616
-0.266783
-0.24635
-0.227347
-0.209738
-0.193443
-0.178382
-0.164497
-0.151364
-0.493275
-0.48193
-0.472561
-0.460652
-0.445395
-0.426793
-0.40523
-0.381515
-0.356639
-0.331546
-0.306993
-0.283498
-0.261359
-0.240701
-0.221539
-0.203819
-0.187451
-0.17235
-0.158446
-0.145285
-0.494043
-0.482704
-0.47316
-0.46081
-0.444857
-0.425383
-0.402879
-0.378264
-0.3526
-0.326864
-0.301813
-0.277948
-0.255541
-0.234694
-0.215402
-0.197599
-0.181182
-0.166065
-0.152162
-0.138993
-0.494106
-0.482798
-0.473081
-0.460283
-0.443627
-0.423284
-0.399861
-0.374382
-0.347976
-0.321647
-0.296148
-0.271958
-0.249323
-0.228323
-0.208933
-0.191074
-0.174634
-0.159524
-0.145644
-0.132486
-0.493426
-0.482175
-0.472286
-0.459033
-0.441673
-0.42047
-0.396156
-0.369854
-0.342757
-0.315889
-0.289993
-0.265524
-0.242702
-0.221584
-0.202128
-0.184242
-0.167805
-0.152726
-0.138889
-0.125763
-0.491965
-0.480798
-0.470738
-0.457027
-0.438964
-0.41692
-0.391747
-0.36467
-0.336936
-0.309583
-0.283342
-0.258641
-0.235674
-0.214475
-0.194985
-0.1771
-0.160692
-0.145669
-0.131898
-0.118829
-0.489691
-0.478631
-0.468405
-0.454235
-0.435476
-0.412612
-0.386619
-0.358818
-0.330504
-0.302725
-0.276192
-0.251307
-0.228236
-0.206992
-0.187501
-0.169648
-0.153295
-0.138353
-0.124674
-0.111684
-0.486572
-0.475643
-0.465254
-0.450628
-0.431185
-0.407528
-0.380761
-0.352291
-0.323458
-0.295311
-0.26854
-0.243519
-0.220387
-0.199136
-0.179677
-0.161884
-0.145613
-0.130777
-0.117213
-0.104312
-0.482579
-0.471806
-0.461259
-0.446181
-0.426072
-0.401656
-0.374162
-0.345084
-0.315794
-0.287339
-0.260385
-0.235277
-0.212127
-0.190905
-0.171511
-0.153808
-0.137647
-0.122942
-0.1095
-0.0966629
-0.477688
-0.467093
-0.456394
-0.440874
-0.420119
-0.394983
-0.366818
-0.337193
-0.307511
-0.27881
-0.251729
-0.226581
-0.203455
-0.182301
-0.163006
-0.145424
-0.1294
-0.11485
-0.101535
-0.088718
-0.471877
-0.461481
-0.450639
-0.434687
-0.413314
-0.387502
-0.358723
-0.328617
-0.29861
-0.269724
-0.242571
-0.217433
-0.194374
-0.173326
-0.154163
-0.136732
-0.120873
-0.106505
-0.0933488
-0.0807481
-0.465128
-0.454953
-0.443975
-0.427608
-0.405647
-0.379207
-0.349876
-0.319359
-0.289093
-0.260085
-0.232915
-0.207836
-0.184886
-0.163981
-0.144985
-0.127735
-0.112071
-0.0979088
-0.0849353
-0.0725721
-0.457426
-0.447493
-0.436389
-0.419626
-0.397112
-0.370098
-0.34028
-0.30942
-0.278964
-0.249896
-0.222765
-0.197793
-0.174995
-0.154271
-0.135475
-0.118439
-0.102997
-0.0890665
-0.0763037
-0.0641791
-0.44876
-0.439088
-0.42787
-0.410733
-0.387706
-0.360174
-0.329938
-0.298807
-0.268229
-0.239164
-0.212127
-0.187311
-0.164707
-0.144202
-0.12564
-0.108846
-0.0936553
-0.0799825
-0.0674545
-0.0555775
-0.439123
-0.429731
-0.418413
-0.400926
-0.37743
-0.349441
-0.318856
-0.287526
-0.256896
-0.227896
-0.201008
-0.176395
-0.154027
-0.133778
-0.115483
-0.0989637
-0.0840508
-0.0706617
-0.0583905
-0.0467768
-0.428512
-0.419419
-0.408014
-0.390206
-0.366288
-0.337905
-0.307043
-0.275588
-0.244975
-0.216101
-0.189416
-0.165053
-0.142963
-0.123007
-0.105013
-0.088797
-0.0741899
-0.0611097
-0.0491164
-0.0377848
-0.416927
-0.408149
-0.396674
-0.378576
-0.354288
-0.325575
-0.294511
-0.263005
-0.232475
-0.20379
-0.17736
-0.153294
-0.131523
-0.111897
-0.0942367
-0.0783537
-0.0640795
-0.0513328
-0.0396382
-0.0286086
-0.404372
-0.395927
-0.384399
-0.366046
-0.341439
-0.312466
-0.281272
-0.249788
-0.219411
-0.190973
-0.164852
-0.141128
-0.119717
-0.100457
-0.0831625
-0.067642
-0.0537274
-0.0413384
-0.029963
-0.0192557
-0.390855
-0.382758
-0.371196
-0.352624
-0.327755
-0.298591
-0.267344
-0.235955
-0.205797
-0.177665
-0.151904
-0.128568
-0.107556
-0.0886965
-0.0718001
-0.056671
-0.0431422
-0.0311343
-0.0200985
-0.00973381
-0.376388
-0.368654
-0.357079
-0.338327
-0.313253
-0.283969
-0.252743
-0.221522
-0.191648
-0.16388
-0.138529
-0.115625
-0.0950506
-0.0766274
-0.0601601
-0.0454505
-0.0323333
-0.0207296
-0.0100532
-5.11263e-05
-0.360985
-0.353629
-0.342062
-0.323171
-0.297952
-0.268619
-0.237491
-0.206509
-0.176981
-0.149634
-0.124742
-0.102313
-0.0822146
-0.0642614
-0.0482539
-0.0339914
-0.0213111
-0.0101339
0.000163643
0.00978342
-0.344667
-0.337702
-0.326165
-0.307177
-0.281874
-0.252564
-0.221609
-0.190934
-0.161817
-0.134945
-0.110559
-0.0886462
-0.0690615
-0.0516115
-0.0360937
-0.0223054
-0.0100865
0.00064243
0.0105419
0.0197602
-0.327454
-0.320893
-0.30941
-0.29037
-0.265046
-0.235837
-0.205113
-0.17482
-0.146175
-0.119831
-0.0959977
-0.0746415
-0.055606
-0.0386916
-0.0236926
-0.0104049
0.00132855
0.011588
0.0210707
0.0298686
-0.309372
-0.303227
-0.291823
-0.272776
-0.247498
-0.218472
-0.188021
-0.158187
-0.130077
-0.104311
-0.0810757
-0.0603154
-0.041864
-0.0255164
-0.0110646
0.0016969
0.0129214
0.022691
0.0317385
0.040097
-0.29045
-0.284733
-0.273432
-0.254425
-0.229253
-0.200445
-0.170408
-0.141068
-0.113546
-0.0884085
-0.0658125
-0.0456858
-0.0278519
-0.0121015
0.00177584
0.013986
0.0246786
0.0339385
0.0425326
0.0504323
-0.270719
-0.26544
-0.254268
-0.235351
-0.210342
-0.181834
-0.152263
-0.123486
-0.0966059
-0.0721439
-0.0502286
-0.0307713
-0.0135871
0.00153709
0.0148134
0.026448
0.0365863
0.0453172
0.0534398
-0.250212
-0.245383
-0.234368
-0.21559
-0.190794
-0.162667
-0.13362
-0.10547
-0.0792829
-0.0555408
-0.0343451
-0.0155916
0.000912145
0.0153824
0.0280324
0.0390679
0.0486297
0.0568132
-0.228966
-0.224598
-0.213766
-0.19516
-0.170665
-0.142974
-0.114512
-0.0870472
-0.0616033
-0.0386236
-0.0181843
-0.000167088
0.0156271
0.029417
0.0414165
0.0518301
0.0607939
-0.207019
-0.203126
-0.192502
-0.174114
-0.149979
-0.122791
-0.0949733
-0.0682489
-0.0435946
-0.0214174
-0.00176926
0.0154811
0.0305384
0.043623
0.0549491
0.0647192
-0.18441
-0.181008
-0.170608
-0.152503
-0.128777
-0.102154
-0.0750389
-0.0491059
-0.0252855
-0.00394834
0.0148761
0.031331
0.0456258
0.057982
0.0686137
0.0777194
-0.161175
-0.158296
-0.148139
-0.130359
-0.1071
-0.0811021
-0.0547439
-0.0296507
-0.00670521
0.0137567
0.0317273
0.0473601
0.0608688
0.0724754
0.0823932
-0.137363
-0.135038
-0.125143
-0.107727
-0.0849902
-0.0596738
-0.0341246
-0.00991643
0.0121158
0.0316701
0.0487588
0.0635452
0.0762462
0.087084
-0.113072
-0.111244
-0.101662
-0.084654
-0.062491
-0.0379096
-0.0132184
0.0100629
0.0311464
0.0497633
0.0659446
0.0798624
0.0917362
0.101788
-0.0883272
-0.0869744
-0.0777433
-0.0611856
-0.0396468
-0.0158511
0.00793685
0.0302524
0.050355
0.0680073
0.083258
0.0962872
0.107317
-0.0631594
-0.0622969
-0.0534378
-0.0373701
-0.0165032
0.00645974
0.0293023
0.0506168
0.0697091
0.0863723
0.100672
0.112795
0.122964
-0.0376242
-0.0372636
-0.028796
-0.0132568
0.00689357
0.02898
0.0508388
0.0711201
0.0891757
0.104828
0.118158
0.129359
-0.0117759
-0.0119243
-0.00386872
0.0111052
0.0304968
0.0516663
0.0725063
0.0917257
0.108721
0.123344
0.135688
0.014329
0.0136669
0.0212907
0.035665
0.054259
0.0744748
0.0942647
0.112397
0.128312
0.141889
0.153234
0.0406343
0.0394557
0.0466287
0.0603716
0.0781323
0.0973612
0.116073
0.133096
0.147915
0.160431
0.0670836
0.0653869
0.0720914
0.0851734
0.102069
0.120281
0.137891
0.153787
0.167494
0.178939
0.0936201
0.0914049
0.0976245
0.110019
0.12602
0.14319
0.159678
0.174431
0.187015
0.197382
0.120187
0.117454
0.123173
0.134856
0.149937
0.166044
0.181393
0.194991
0.206445
0.146726
0.143477
0.148684
0.159633
0.173772
0.188797
0.202995
0.21543
0.225748
0.173182
0.169419
0.174101
0.184299
0.197478
0.211406
0.224443
0.23571
0.199496
0.195224
0.19937
0.208801
0.221006
0.233827
0.245697
0.255794
0.225612
0.220835
0.224439
0.23309
0.244308
0.256016
0.266717
0.251474
0.246197
0.249253
0.257114
0.267339
0.27793
0.287463
0.277026
0.271257
0.273759
0.280825
0.290052
0.299527
0.307897
0.302214
0.295959
0.297905
0.304172
0.312402
0.320764
0.326982
0.320251
0.321641
0.327108
0.334343
0.341601
0.351279
0.344079
0.344916
0.349585
0.355832
0.361997
0.375051
0.367395
0.367681
0.371558
0.376827
0.398249
0.390146
0.389887
0.39298
0.397285
0.420822
0.412285
0.411489
0.413809
0.417165
0.442722
0.433764
0.43244
0.434001
0.43643
0.463903
0.454537
0.452697
0.453516
0.48432
0.474561
0.472218
0.472314
0.503929
0.493792
0.490961
0.490356
0.522688
0.51219
0.508887
0.507606
0.540558
0.529716
0.52596
0.524029
0.557501
0.546333
0.542143
0.573481
0.562005
0.557404
0.588465
0.576699
0.57171
0.60242
0.590386
0.585032
0.615318
0.603035
0.597342
0.627131
0.61462
0.608616
0.637835
0.625116
0.618829
0.647406
0.634503
0.627961
0.655826
0.64276
0.635993
0.663075
0.649869
0.66914
0.655817
0.674007
0.66059
0.677667
0.664178
0.68011
0.666575
0.681333
0.667774
0.681333
0.667774
0.68011
0.666575
0.677666
0.664178
0.674007
0.66059
0.66914
0.655817
0.663075
0.649869
0.655825
0.642759
0.635992
0.647406
0.634503
0.62796
0.637834
0.625116
0.618828
0.62713
0.614619
0.608615
0.615317
0.603034
0.597342
0.602419
0.590385
0.585031
0.588464
0.576698
0.571709
0.57348
0.562004
0.557403
0.5575
0.546332
0.542142
0.540557
0.529715
0.525959
0.524028
0.522687
0.512189
0.508886
0.507605
0.503927
0.493791
0.49096
0.490354
0.484319
0.47456
0.472216
0.472312
0.463902
0.454536
0.452696
0.453515
0.442721
0.433762
0.432439
0.434
0.436428
0.42082
0.412283
0.411487
0.413807
0.417164
0.398247
0.390144
0.389886
0.392978
0.397283
0.375049
0.367393
0.367679
0.371556
0.376825
0.381912
0.351277
0.344077
0.344914
0.349583
0.355831
0.361996
0.32698
0.320248
0.321639
0.327106
0.334341
0.341599
0.302211
0.295957
0.297903
0.30417
0.3124
0.320762
0.277024
0.271255
0.273756
0.280822
0.29005
0.299525
0.307895
0.251471
0.246195
0.24925
0.257112
0.267337
0.277928
0.287461
0.225609
0.220832
0.224436
0.233088
0.244306
0.256014
0.266715
0.199493
0.195221
0.199368
0.208799
0.221003
0.233825
0.245694
0.255792
0.173179
0.169417
0.174098
0.184296
0.197475
0.211404
0.22444
0.235708
0.146723
0.143474
0.148681
0.15963
0.17377
0.188795
0.202992
0.215427
0.225746
0.120184
0.117451
0.123171
0.134853
0.149934
0.166041
0.18139
0.194989
0.206443
0.0936171
0.0914019
0.0976215
0.110016
0.126017
0.143188
0.159676
0.174428
0.187013
0.19738
0.0670805
0.0653838
0.0720883
0.0851704
0.102066
0.120279
0.137889
0.153784
0.167491
0.178937
0.0406311
0.0394525
0.0466255
0.0603685
0.0781294
0.0973584
0.116071
0.133094
0.147912
0.160429
0.0143256
0.0136636
0.0212874
0.0356619
0.054256
0.0744719
0.0942619
0.112394
0.12831
0.141886
0.153232
-0.0117793
-0.0119277
-0.00387209
0.011102
0.0304937
0.0516633
0.0725034
0.0917229
0.108719
0.123341
0.135686
0.145952
-0.0376277
-0.0372671
-0.0287994
-0.0132602
0.00689033
0.0289769
0.0508358
0.0711172
0.089173
0.104825
0.118156
0.129357
-0.063163
-0.0623005
-0.0534414
-0.0373736
-0.0165065
0.00645655
0.0292993
0.0506139
0.0697063
0.0863696
0.100669
0.112792
0.122962
-0.0883309
-0.0869781
-0.077747
-0.0611891
-0.0396502
-0.0158544
0.00793372
0.0302494
0.0503521
0.0680045
0.0832554
0.0962847
0.107314
-0.113076
-0.111248
-0.101665
-0.0846576
-0.0624945
-0.037913
-0.0132216
0.0100598
0.0311435
0.0497605
0.0659419
0.0798598
0.0917337
0.101786
-0.137367
-0.135042
-0.125147
-0.107731
-0.0849939
-0.0596772
-0.0341279
-0.0099196
0.0121127
0.0316672
0.048756
0.0635425
0.0762436
0.0870815
-0.161179
-0.1583
-0.148143
-0.130363
-0.107104
-0.0811057
-0.0547473
-0.029654
-0.00670833
0.0137538
0.0317244
0.0473573
0.0608661
0.0724728
0.0823907
-0.184414
-0.181012
-0.170612
-0.152507
-0.128781
-0.102158
-0.0750424
-0.0491093
-0.0252886
-0.0039514
0.0148732
0.0313282
0.0456231
0.0579794
0.0686112
0.0777169
-0.207023
-0.20313
-0.192506
-0.174119
-0.149983
-0.122795
-0.0949769
-0.0682523
-0.0435979
-0.0214206
-0.00177227
0.0154782
0.0305356
0.0436203
0.0549465
0.0647166
0.0730614
-0.22897
-0.224603
-0.21377
-0.195164
-0.170669
-0.142978
-0.114515
-0.0870507
-0.0616067
-0.0386268
-0.0181874
-0.000170059
0.0156243
0.0294142
0.0414138
0.0518275
0.0607914
-0.250216
-0.245387
-0.234372
-0.215595
-0.190798
-0.162671
-0.133623
-0.105473
-0.0792863
-0.0555441
-0.0343482
-0.0155946
0.000909214
0.0153795
0.0280296
0.0390652
0.0486271
0.0568107
-0.270723
-0.265444
-0.254273
-0.235355
-0.210346
-0.181838
-0.152267
-0.12349
-0.0966094
-0.0721472
-0.0502318
-0.0307744
-0.0135901
0.00153419
0.0148106
0.0264453
0.0365836
0.0453146
0.0534374
-0.290455
-0.284737
-0.273436
-0.254429
-0.229258
-0.200449
-0.170412
-0.141072
-0.113549
-0.0884119
-0.0658158
-0.045689
-0.027855
-0.0121044
0.00177298
0.0139833
0.0246759
0.0339358
0.0425301
0.0504299
-0.309377
-0.303232
-0.291828
-0.27278
-0.247502
-0.218476
-0.188025
-0.158191
-0.130081
-0.104315
-0.0810791
-0.0603187
-0.0418671
-0.0255194
-0.0110675
0.00169407
0.0129186
0.0226883
0.0317359
0.0400945
-0.327459
-0.320898
-0.309415
-0.290374
-0.265051
-0.235841
-0.205118
-0.174824
-0.146179
-0.119834
-0.0960012
-0.0746448
-0.0556092
-0.0386947
-0.0236956
-0.0104078
0.00132575
0.0115853
0.0210681
0.029866
-0.344672
-0.337707
-0.32617
-0.307182
-0.281879
-0.252569
-0.221614
-0.190938
-0.161821
-0.134949
-0.110563
-0.0886496
-0.0690647
-0.0516146
-0.0360967
-0.0223083
-0.0100893
0.000639661
0.0105392
0.0197576
-0.360991
-0.353634
-0.342067
-0.323175
-0.297957
-0.268624
-0.237496
-0.206513
-0.176985
-0.149638
-0.124746
-0.102316
-0.0822179
-0.0642646
-0.048257
-0.0339944
-0.021314
-0.0101367
0.000160904
0.00978076
-0.376393
-0.368659
-0.357084
-0.338332
-0.313258
-0.283974
-0.252748
-0.221526
-0.191652
-0.163884
-0.138533
-0.115628
-0.095054
-0.0766307
-0.0601633
-0.0454535
-0.0323363
-0.0207325
-0.0100559
-5.38362e-05
-0.39086
-0.382763
-0.371201
-0.352629
-0.32776
-0.298596
-0.267348
-0.235959
-0.205801
-0.177669
-0.151908
-0.128572
-0.107559
-0.0886999
-0.0718034
-0.0566741
-0.0431452
-0.0311373
-0.0201013
-0.00973657
-0.404377
-0.395932
-0.384404
-0.366051
-0.341444
-0.312471
-0.281277
-0.249793
-0.219416
-0.190977
-0.164856
-0.141132
-0.119721
-0.10046
-0.0831658
-0.0676452
-0.0537305
-0.0413413
-0.0299659
-0.0192585
-0.416932
-0.408155
-0.396679
-0.378582
-0.354293
-0.32558
-0.294515
-0.263009
-0.23248
-0.203794
-0.177364
-0.153298
-0.131527
-0.1119
-0.0942401
-0.078357
-0.0640826
-0.0513359
-0.0396412
-0.0286115
-0.428517
-0.419424
-0.408019
-0.390211
-0.366294
-0.33791
-0.307048
-0.275593
-0.244979
-0.216106
-0.18942
-0.165056
-0.142966
-0.123011
-0.105017
-0.0888003
-0.074193
-0.0611128
-0.0491194
-0.0377877
-0.439129
-0.429737
-0.418418
-0.400931
-0.377435
-0.349446
-0.31886
-0.287531
-0.256901
-0.227901
-0.201012
-0.176398
-0.15403
-0.133782
-0.115487
-0.098967
-0.084054
-0.0706649
-0.0583935
-0.0467798
-0.448766
-0.439094
-0.427876
-0.410738
-0.387711
-0.360179
-0.329942
-0.298811
-0.268234
-0.239169
-0.212131
-0.187315
-0.16471
-0.144205
-0.125643
-0.10885
-0.0936586
-0.0799857
-0.0674576
-0.0555806
-0.457432
-0.447498
-0.436394
-0.419631
-0.397117
-0.370103
-0.340285
-0.309425
-0.278969
-0.2499
-0.222769
-0.197797
-0.174999
-0.154275
-0.135479
-0.118442
-0.103001
-0.0890698
-0.0763069
-0.0641822
-0.465134
-0.454959
-0.443981
-0.427614
-0.405652
-0.379213
-0.349881
-0.319363
-0.289098
-0.260089
-0.232919
-0.20784
-0.18489
-0.163985
-0.144988
-0.127739
-0.112075
-0.0979122
-0.0849385
-0.0725752
-0.471883
-0.461487
-0.450644
-0.434693
-0.413319
-0.387507
-0.358728
-0.328622
-0.298615
-0.269728
-0.242575
-0.217437
-0.194377
-0.173329
-0.154166
-0.136735
-0.120877
-0.106508
-0.0933521
-0.0807513
-0.477694
-0.467098
-0.4564
-0.440879
-0.420124
-0.394988
-0.366823
-0.337198
-0.307516
-0.278814
-0.251733
-0.226585
-0.203459
-0.182305
-0.16301
-0.145427
-0.129403
-0.114854
-0.101539
-0.0887213
-0.482585
-0.471812
-0.461265
-0.446187
-0.426077
-0.401661
-0.374168
-0.345089
-0.315799
-0.287344
-0.26039
-0.235281
-0.212131
-0.190909
-0.171515
-0.153812
-0.137651
-0.122945
-0.109504
-0.0966662
-0.486578
-0.475649
-0.46526
-0.450634
-0.431191
-0.407534
-0.380766
-0.352296
-0.323463
-0.295315
-0.268544
-0.243523
-0.220391
-0.19914
-0.179681
-0.161887
-0.145617
-0.130781
-0.117216
-0.104315
-0.489697
-0.478637
-0.468411
-0.454241
-0.435482
-0.412617
-0.386625
-0.358823
-0.330509
-0.302729
-0.276196
-0.251311
-0.228241
-0.206996
-0.187505
-0.169651
-0.153299
-0.138357
-0.124678
-0.111687
-0.491972
-0.480804
-0.470744
-0.457033
-0.43897
-0.416925
-0.391753
-0.364675
-0.336941
-0.309588
-0.283346
-0.258646
-0.235678
-0.214479
-0.194989
-0.177104
-0.160696
-0.145673
-0.131902
-0.118832
-0.493432
-0.482182
-0.472292
-0.459039
-0.441678
-0.420476
-0.396162
-0.36986
-0.342762
-0.315894
-0.289997
-0.265528
-0.242707
-0.221588
-0.202132
-0.184246
-0.167809
-0.15273
-0.138892
-0.125767
-0.494112
-0.482805
-0.473087
-0.460289
-0.443633
-0.423289
-0.399867
-0.374387
-0.347981
-0.321652
-0.296153
-0.271963
-0.249328
-0.228327
-0.208937
-0.191078
-0.174638
-0.159528
-0.145647
-0.132489
-0.494049
-0.48271
-0.473166
-0.460816
-0.444863
-0.425388
-0.402885
-0.378269
-0.352605
-0.326869
-0.301818
-0.277953
-0.255545
-0.234698
-0.215406
-0.197603
-0.181186
-0.166068
-0.152166
-0.138996
-0.493281
-0.481936
-0.472568
-0.460658
-0.445401
-0.426799
-0.405235
-0.38152
-0.356644
-0.331551
-0.306998
-0.283503
-0.261363
-0.240706
-0.221543
-0.203823
-0.187455
-0.172354
-0.15845
-0.145288
-0.49185
-0.480525
-0.471333
-0.459854
-0.445281
-0.427551
-0.406941
-0.384157
-0.360111
-0.335709
-0.311701
-0.28862
-0.266788
-0.246354
-0.227351
-0.209742
-0.193447
-0.178386
-0.1645
-0.151367
-0.489796
-0.478519
-0.469504
-0.458443
-0.44454
-0.427674
-0.408026
-0.386198
-0.36302
-0.339352
-0.315935
-0.293311
-0.271825
-0.251649
-0.232836
-0.215365
-0.199168
-0.184168
-0.17032
-0.157235
-0.487165
-0.475961
-0.467124
-0.456468
-0.443217
-0.427204
-0.408519
-0.387664
-0.365386
-0.342493
-0.319709
-0.297584
-0.276481
-0.256596
-0.238003
-0.220696
-0.204619
-0.189703
-0.175912
-0.162892
-0.484
-0.472896
-0.464239
-0.453973
-0.441353
-0.426175
-0.408448
-0.388578
-0.367226
-0.345145
-0.323033
-0.301447
-0.280764
-0.261203
-0.242858
-0.22574
-0.209807
-0.194995
-0.181279
-0.168344
-0.480348
-0.46937
-0.460893
-0.451004
-0.438991
-0.424625
-0.407846
-0.388965
-0.36856
-0.347321
-0.32592
-0.304909
-0.284682
-0.265476
-0.247407
-0.230503
-0.214736
-0.20005
-0.186426
-0.173591
-0.476254
-0.465427
-0.457132
-0.447604
-0.436173
-0.422593
-0.406744
-0.388853
-0.369408
-0.349039
-0.328382
-0.307982
-0.288244
-0.269424
-0.251658
-0.234992
-0.219412
-0.204871
-0.191356
-0.178638
-0.471763
-0.461112
-0.453002
-0.44382
-0.432944
-0.42012
-0.405179
-0.388268
-0.369793
-0.350315
-0.330432
-0.310676
-0.291459
-0.273055
-0.255618
-0.239213
-0.223842
-0.209464
-0.196074
-0.183488
-0.466923
-0.456471
-0.448548
-0.439698
-0.429349
-0.417248
-0.403188
-0.387242
-0.369738
-0.351167
-0.332084
-0.313003
-0.294338
-0.276378
-0.259296
-0.243174
-0.22803
-0.213834
-0.200584
-0.188146
-0.461777
-0.451547
-0.443814
-0.435282
-0.425431
-0.414019
-0.400807
-0.385807
-0.369269
-0.351616
-0.333354
-0.314974
-0.29689
-0.279402
-0.262699
-0.246883
-0.231985
-0.217988
-0.204893
-0.192615
-0.45637
-0.446383
-0.438843
-0.430616
-0.421236
-0.410475
-0.398075
-0.383994
-0.368412
-0.351682
-0.334258
-0.316604
-0.299127
-0.282136
-0.265837
-0.250346
-0.235713
-0.221931
-0.209006
-0.196902
-0.450744
-0.441021
-0.433678
-0.425743
-0.416806
-0.406659
-0.395032
-0.38184
-0.367196
-0.351387
-0.334812
-0.317905
-0.301059
-0.28459
-0.268717
-0.253572
-0.239221
-0.225671
-0.212929
-0.201009
-0.444941
-0.4355
-0.428358
-0.420704
-0.412184
-0.402611
-0.391716
-0.379377
-0.365649
-0.350754
-0.335036
-0.318891
-0.302699
-0.286774
-0.271348
-0.256569
-0.242517
-0.229214
-0.216667
-0.204944
-0.439
-0.429859
-0.422921
-0.415539
-0.407409
-0.398374
-0.388168
-0.376642
-0.363802
-0.349807
-0.334948
-0.319578
-0.304057
-0.288698
-0.27374
-0.259345
-0.245608
-0.232567
-0.220227
-0.20871
-0.432959
-0.424132
-0.417404
-0.410284
-0.402522
-0.393987
-0.384425
-0.37367
-0.361684
-0.348572
-0.334567
-0.31998
-0.305147
-0.290373
-0.275902
-0.261909
-0.248503
-0.235737
-0.223615
-0.212315
-0.426853
-0.418354
-0.41184
-0.404975
-0.397558
-0.389488
-0.380526
-0.370497
-0.359329
-0.347074
-0.333913
-0.320113
-0.30598
-0.291808
-0.277842
-0.264268
-0.251208
-0.23873
-0.226837
-0.215762
-0.420716
-0.412557
-0.40626
-0.399644
-0.392552
-0.384912
-0.376507
-0.367158
-0.356766
-0.34534
-0.333009
-0.319994
-0.30657
-0.293013
-0.27957
-0.266431
-0.253731
-0.241554
-0.229901
-0.219059
-0.414579
-0.406768
-0.400694
-0.394321
-0.387535
-0.380294
-0.372403
-0.363687
-0.354028
-0.343397
-0.331876
-0.31964
-0.306929
-0.294001
-0.281095
-0.268406
-0.25608
-0.244216
-0.232812
-0.222211
-0.408471
-0.401015
-0.395167
-0.389034
-0.382538
-0.375666
-0.368248
-0.360118
-0.351146
-0.341273
-0.330536
-0.319068
-0.307071
-0.29478
-0.282424
-0.270201
-0.258262
-0.246722
-0.235576
-0.225223
-0.402417
-0.395322
-0.389703
-0.383806
-0.377586
-0.371056
-0.364073
-0.356483
-0.348151
-0.338994
-0.329012
-0.318297
-0.307011
-0.295363
-0.283568
-0.271823
-0.260283
-0.24908
-0.238201
-0.228102
-0.396441
-0.389709
-0.384323
-0.378659
-0.372702
-0.36649
-0.359906
-0.352812
-0.345072
-0.336588
-0.327329
-0.317344
-0.306762
-0.295759
-0.284535
-0.27328
-0.262152
-0.251296
-0.240692
-0.230855
-0.390563
-0.384197
-0.379046
-0.373612
-0.367908
-0.361993
-0.355774
-0.349133
-0.341939
-0.334084
-0.325509
-0.316231
-0.306339
-0.29598
-0.285333
-0.274579
-0.263874
-0.253376
-0.243055
-0.233486
-0.384803
-0.378801
-0.373886
-0.368681
-0.363221
-0.357583
-0.351699
-0.345472
-0.338778
-0.331505
-0.323576
-0.314975
-0.305757
-0.296038
-0.285972
-0.275728
-0.265457
-0.255327
-0.245296
-0.236004
-0.379177
-0.373537
-0.368858
-0.36388
-0.358657
-0.353279
-0.347704
-0.341852
-0.335616
-0.328879
-0.321554
-0.313597
-0.305033
-0.295945
-0.28646
-0.276733
-0.266906
-0.257154
-0.247421
-0.238414
-0.373699
-0.368415
-0.363973
-0.35922
-0.354226
-0.349095
-0.343805
-0.338296
-0.332474
-0.32623
-0.319465
-0.312118
-0.304183
-0.295712
-0.286806
-0.277601
-0.268226
-0.258864
-0.368379
-0.363446
-0.35924
-0.354711
-0.349941
-0.345043
-0.340017
-0.33482
-0.329375
-0.323579
-0.317332
-0.310556
-0.303222
-0.295352
-0.28702
-0.278339
-0.269425
-0.363228
-0.358639
-0.354665
-0.350358
-0.345807
-0.341133
-0.336352
-0.331441
-0.326337
-0.320949
-0.315176
-0.308932
-0.302168
-0.294878
-0.28711
-0.358253
-0.353998
-0.350255
-0.346167
-0.34183
-0.337372
-0.332821
-0.328172
-0.323377
-0.318357
-0.313017
-0.307266
-0.301037
-0.294304
-0.353459
-0.349529
-0.346013
-0.34214
-0.338014
-0.333764
-0.32943
-0.325022
-0.320508
-0.315821
-0.310874
-0.305574
-0.348851
-0.345234
-0.34194
-0.338281
-0.334361
-0.330312
-0.326185
-0.322
-0.317741
-0.313354
-0.308763
-0.344432
-0.341115
-0.338038
-0.334588
-0.330871
-0.327017
-0.323087
-0.319111
-0.315085
-0.310971
-0.340201
-0.337173
-0.334306
-0.331061
-0.327542
-0.32388
-0.320138
-0.316359
-0.312548
-0.336159
-0.333405
-0.330743
-0.327697
-0.324373
-0.320897
-0.317338
-0.313744
-0.332305
-0.329811
-0.327345
-0.324494
-0.32136
-0.318066
-0.314684
-0.328636
-0.326388
-0.324111
-0.321448
-0.3185
-0.315383
-0.325148
-0.323131
-0.321035
-0.318555
-0.315787
-0.321838
-0.320038
-0.318114
-0.315809
-0.318701
-0.317102
-0.315342
-0.31573
-0.314318
-0.312921
-0.311682
-0.310266
-0.173904
-0.178536
-0.182999
-0.187297
-0.191433
-0.195412
-0.199238
-0.202915
-0.206448
-0.20984
-0.213096
-0.216219
-0.219213
-0.222081
-0.224827
-0.227454
-0.16671
-0.171282
-0.175701
-0.17997
-0.184094
-0.188074
-0.191916
-0.195621
-0.199195
-0.20264
-0.20596
-0.209158
-0.212238
-0.215203
-0.218056
-0.220799
-0.159837
-0.164334
-0.168694
-0.17292
-0.177016
-0.180984
-0.184827
-0.188548
-0.192151
-0.195639
-0.199015
-0.202283
-0.205444
-0.208504
-0.211465
-0.21433
-0.153273
-0.157693
-0.16199
-0.166168