/*--------------------------------*- C++ -*----------------------------------*\
  =========                 |
  \\      /  F ield         | OpenFOAM: The Open Source CFD Toolbox
   \\    /   O peration     | Website:  https://openfoam.org
    \\  /    A nd           | Version:  7
     \\/     M anipulation  |
\*---------------------------------------------------------------------------*/
FoamFile
{
    version     2.0;
    format      ascii;
    class       surfaceScalarField;
    location    "85";
    object      phi;
}
// * * * * * * * * * * * * * * * * * * * * * * * * * * * * * * * * * * * * * //

dimensions      [0 3 -1 0 0 0 0];

internalField   nonuniform List<scalar> 
16607
(
1.51717e-05
1.29749e-06
1.38742e-05
2.27262e-05
1.40375e-06
1.24704e-05
6.74404e-06
1.73859e-05
2.07544e-06
1.52961e-06
1.09408e-05
7.29785e-06
1.16177e-05
-9.2105e-06
1.67499e-06
9.26582e-06
7.92045e-06
5.3722e-06
2.0077e-05
-2.1367e-05
-7.26591e-05
1.83948e-06
7.42634e-06
8.61022e-06
-1.39854e-06
2.17075e-05
-3.44643e-05
4.25719e-05
-9.35235e-05
-0.000180476
2.02236e-06
5.40398e-06
9.36445e-06
-8.74063e-06
2.34686e-05
-4.85685e-05
4.58186e-05
-0.000115874
7.79066e-05
-0.000212564
-0.000340441
2.22271e-06
3.18127e-06
1.01795e-05
-1.66974e-05
2.53516e-05
-6.37405e-05
4.92548e-05
-0.000139777
8.33881e-05
-0.000246697
0.000129129
-0.000386182
-0.000559353
2.43944e-06
7.41826e-07
1.10511e-05
-2.53091e-05
2.73461e-05
-8.00355e-05
5.28599e-05
-0.000165291
8.90805e-05
-0.000282918
0.00013732
-0.000434422
0.000198528
-0.000620561
-0.000840828
2.67134e-06
-1.92951e-06
1.19744e-05
-3.46122e-05
2.94406e-05
-9.75017e-05
5.66112e-05
-0.000192461
9.49437e-05
-0.00032125
0.000145658
-0.000485136
0.000209527
-0.00068443
0.000286635
-0.000917935
-0.00118243
2.91713e-06
-4.84664e-06
1.29442e-05
-4.46393e-05
3.16223e-05
-0.00011618
6.04838e-05
-0.000221323
0.000100935
-0.000361701
0.000154075
-0.000538277
0.000220471
-0.000750826
0.000299898
-0.000997362
0.000391134
-0.00127367
-0.00157313
3.17551e-06
-8.02215e-06
1.3955e-05
-5.54188e-05
3.3878e-05
-0.000136103
6.44518e-05
-0.000251896
0.000107009
-0.000404258
0.000162501
-0.000593769
0.000231255
-0.00081958
0.000312717
-0.00107882
0.000405269
-0.00136622
0.000506199
-0.00167406
-0.00199268
3.44517e-06
-1.14673e-05
1.50011e-05
-6.69747e-05
3.61936e-05
-0.000157295
6.84878e-05
-0.000284191
0.000113119
-0.000448889
0.000170864
-0.000651514
0.000241779
-0.000890496
0.00032496
-0.00116201
0.000418394
-0.00145966
0.000519003
-0.00177466
0.000622924
-0.0020966
0.000725991
-0.00241461
-0.00271889
3.72478e-06
-1.51921e-05
1.60767e-05
-7.93266e-05
3.85549e-05
-0.000179773
7.2564e-05
-0.0003182
0.000119218
-0.000495543
0.00017909
-0.000711386
0.000251942
-0.000963348
0.000336503
-0.00124657
0.000430371
-0.00155352
0.000530144
-0.00187444
0.000631778
-0.00219823
0.000731136
-0.00251397
0.000824574
-0.00281233
-0.00308681
4.013e-06
-1.92051e-05
1.71759e-05
-9.24895e-05
4.09472e-05
-0.000203545
7.66516e-05
-0.000353904
0.000125258
-0.000544149
0.000187108
-0.000773236
0.000261648
-0.00103789
0.000347229
-0.00133215
0.000441082
-0.00164738
0.000539523
-0.00197288
0.0006384
-0.00229711
0.000733681
-0.00260925
0.00082202
-0.00290067
0.000901166
-0.00316596
-0.00340322
4.30847e-06
-2.35136e-05
1.82925e-05
-0.000106473
4.33552e-05
-0.000228608
8.07217e-05
-0.00039127
0.00013119
-0.000594617
0.000194847
-0.000836893
0.000270803
-0.00111384
0.000357034
-0.00141838
0.000450425
-0.00174077
0.000547067
-0.00206952
0.000642771
-0.00239281
0.000733679
-0.00270015
0.000816791
-0.00298378
0.000890295
-0.00323946
0.000953626
-0.00346655
0.00100729
-0.00366736
-0.00384622
4.60981e-06
-2.81234e-05
1.94203e-05
-0.000121284
4.57638e-05
-0.000254951
8.47448e-05
-0.000430251
0.000136968
-0.00064684
0.000202239
-0.000902165
0.000279322
-0.00119093
0.000365823
-0.00150488
0.000458317
-0.00183326
0.000552729
-0.00216393
0.000644903
-0.00248499
0.000731213
-0.00278646
0.000809042
-0.00306161
0.000877017
-0.00330744
0.000934977
-0.00352451
0.000983738
-0.00371612
0.00102475
-0.00388723
-0.00404342
4.91556e-06
-3.30389e-05
2.05529e-05
-0.000136921
4.81571e-05
-0.000282555
8.86915e-05
-0.000470786
0.000142543
-0.000700691
0.000209219
-0.000968841
0.000287126
-0.00126883
0.000373517
-0.00159127
0.000464698
-0.00192444
0.000556488
-0.00225572
0.000644833
-0.00257333
0.00072639
-0.00286802
0.000798944
-0.00313416
0.000861548
-0.00337004
0.000914409
-0.00357737
0.000958598
-0.00376031
0.000995686
-0.00392431
0.00102739
-0.00407512
0.00105534
-0.00421765
-0.00435679
5.22422e-06
-3.82632e-05
2.16838e-05
-0.000153381
5.05194e-05
-0.000311391
9.25325e-05
-0.000512799
0.00014787
-0.000756029
0.000215724
-0.0010367
0.000294143
-0.00134725
0.000380048
-0.00167717
0.000469524
-0.00201392
0.000558348
-0.00234455
0.000642624
-0.00265761
0.000719336
-0.00294473
0.000786677
-0.00320151
0.000844106
-0.00342747
0.000892154
-0.00362542
0.000932096
-0.00380025
0.000965582
-0.0039578
0.000994303
-0.00410384
0.00101979
-0.00424314
-0.00438014
0.00104314
5.53422e-06
-4.37974e-05
2.28061e-05
-0.000170653
5.28347e-05
-0.000341419
9.62388e-05
-0.000556203
0.000152905
-0.000812695
0.000221698
-0.00110549
0.000300312
-0.00142587
0.000385366
-0.00176223
0.000472774
-0.00210133
0.000558333
-0.00243011
0.000638359
-0.00273763
0.000710189
-0.00301656
0.000772426
-0.00326374
0.000824901
-0.00347995
0.000868427
-0.00366894
0.000904434
-0.00383626
0.000934609
-0.00398798
0.000960589
-0.00412982
0.000983793
-0.00426634
-0.00440156
0.00100521
5.8439e-06
-4.96413e-05
2.39129e-05
-0.000188722
5.50869e-05
-0.000372594
9.97817e-05
-0.000600898
0.000157606
-0.000870519
0.000227088
-0.00117497
0.000305581
-0.00150436
0.000389434
-0.00184608
0.000474445
-0.00218634
0.000556488
-0.00251215
0.000632137
-0.00281328
0.0006991
-0.00308353
0.000756375
-0.00332102
0.000804136
-0.00352771
0.000843428
-0.00370824
0.000875794
-0.00386863
0.000902921
-0.0040151
0.000926371
-0.00415327
0.000947448
-0.00428742
-0.00442114
0.000967026
6.15156e-06
-5.57928e-05
2.49972e-05
-0.000207567
5.72601e-05
-0.000404856
0.000103134
-0.000646772
0.000161934
-0.000929319
0.000231849
-0.00124489
0.000309907
-0.00158242
0.000392228
-0.0019284
0.000474549
-0.00226866
0.000552874
-0.00259047
0.000624069
-0.00288448
0.000686222
-0.00314568
0.000738708
-0.0033735
0.000782003
-0.003571
0.000817342
-0.00374358
0.000846338
-0.00389762
0.000870652
-0.00403942
0.000891755
-0.00417437
0.00091083
-0.0043065
-0.00443896
0.000928648
6.45542e-06
-6.22483e-05
2.60519e-05
-0.000227164
5.93386e-05
-0.000438143
0.000106269
-0.000693702
0.000165853
-0.000988903
0.000235941
-0.00131497
0.000313259
-0.00165974
0.000393742
-0.00200889
0.000473116
-0.00234803
0.000547566
-0.00266492
0.000614276
-0.00295119
0.000671711
-0.00320311
0.000719599
-0.00342139
0.000758679
-0.00361008
0.000790332
-0.00377523
0.000816208
-0.0039235
0.000837916
-0.00406112
0.000856827
-0.00419329
0.000874006
-0.00432367
-0.00445507
0.000890122
6.75366e-06
-6.90019e-05
2.70701e-05
-0.00024748
6.1307e-05
-0.00047238
0.000109162
-0.000741558
0.000169331
-0.00104907
0.000239332
-0.00138498
0.000315617
-0.00173602
0.00039398
-0.00208725
0.00047019
-0.00242424
0.000540651
-0.00273539
0.000602883
-0.00301342
0.000655722
-0.00325595
0.000699217
-0.00346489
0.000734329
-0.0036452
0.000762549
-0.00380345
0.00078553
-0.00394648
0.000804812
-0.00408041
0.000821661
-0.00421013
0.000837028
-0.00433904
-0.00446953
0.000851487
7.04443e-06
-7.60464e-05
2.80445e-05
-0.00026848
6.31507e-05
-0.000507486
0.000111791
-0.000790197
0.000172339
-0.00110962
0.000241996
-0.00145463
0.000316969
-0.00181099
0.000392959
-0.00216324
0.000465825
-0.00249711
0.000532223
-0.00280178
0.000590021
-0.00307122
0.000638407
-0.00330434
0.000677719
-0.0035042
0.000709105
-0.00367658
0.000734125
-0.00382847
0.000754412
-0.00396676
0.000771426
-0.00409742
0.000786322
-0.00422503
0.000799942
-0.00435266
-0.00448237
0.000812778
7.32586e-06
-8.33722e-05
2.89685e-05
-0.000290123
6.48557e-05
-0.000543373
0.000114133
-0.000839475
0.000174853
-0.00117034
0.000243914
-0.00152369
0.000317314
-0.00188439
0.000390707
-0.00223663
0.000460086
-0.00256649
0.000522385
-0.00286408
0.000575819
-0.00312465
0.000619911
-0.00334843
0.000655254
-0.00353954
0.000683142
-0.00370447
0.000705178
-0.00385051
0.00072295
-0.00398454
0.000737828
-0.0041123
0.000750861
-0.00423806
0.000762787
-0.00436459
-0.00449361
0.000774023
7.59608e-06
-9.09683e-05
2.98353e-05
-0.000312362
6.64089e-05
-0.000579947
0.000116171
-0.000889236
0.000176855
-0.00123102
0.000245076
-0.00159191
0.000316662
-0.00195598
0.000387263
-0.00230723
0.000453045
-0.00263227
0.00051124
-0.00292228
0.000560406
-0.00317382
0.000600373
-0.0033884
0.000631958
-0.00357112
0.000656565
-0.00372908
0.000675811
-0.00386975
0.000691226
-0.00399995
0.000704082
-0.00412515
0.000715323
-0.0042493
0.000725595
-0.00437486
-0.00450326
0.000735247
7.85327e-06
-9.88216e-05
3.06386e-05
-0.000335148
6.77982e-05
-0.000617107
0.000117888
-0.000939326
0.000178329
-0.00129147
0.000245477
-0.00165906
0.000315028
-0.00202553
0.000382672
-0.00237488
0.000444781
-0.00269438
0.000498895
-0.00297639
0.000543905
-0.00321883
0.000579924
-0.00342442
0.000607955
-0.00359916
0.000629484
-0.00375061
0.000646115
-0.00388638
0.000659309
-0.00401314
0.000670238
-0.00413608
0.000679747
-0.00425881
0.000688395
-0.00438351
-0.00451134
0.000696473
8.09564e-06
-0.000106917
3.13724e-05
-0.000358424
6.90129e-05
-0.000654747
0.000119271
-0.000989583
0.000179265
-0.00135146
0.000245119
-0.00172492
0.000312436
-0.00209285
0.000376988
-0.00243943
0.000435376
-0.00275277
0.000485456
-0.00302647
0.000526437
-0.00325981
0.000558687
-0.00345667
0.00058336
-0.00362383
0.000601997
-0.00376924
0.00061617
-0.00390056
0.00062726
-0.00402423
0.000636342
-0.00414516
0.000644165
-0.00426664
0.000651212
-0.00439055
-0.00451784
0.00065772
8.32147e-06
-0.000115239
3.20312e-05
-0.000382134
7.00435e-05
-0.000692759
0.000120309
-0.00103985
0.000179658
-0.00141081
0.000244012
-0.00178927
0.000308919
-0.00215775
0.000370269
-0.00250078
0.000424915
-0.00280741
0.000471029
-0.00307259
0.000508118
-0.0032969
0.000536774
-0.00348532
0.000558277
-0.00364533
0.000574191
-0.00378516
0.000586045
-0.00391241
0.000595132
-0.00403332
0.000602431
-0.00415246
0.000608605
-0.00427281
0.000614066
-0.00439601
-0.00452278
0.000619006
8.52914e-06
-0.000123768
3.26101e-05
-0.000406215
7.08818e-05
-0.000731031
0.000120995
-0.00108996
0.000179507
-0.00146932
0.000242168
-0.00185193
0.000304513
-0.0022201
0.000362578
-0.00255884
0.000413484
-0.00285832
0.000455714
-0.00311481
0.000489054
-0.00333024
0.00051429
-0.00351056
0.000532796
-0.00366384
0.000546143
-0.0037985
0.000555799
-0.00392207
0.00056297
-0.00404049
0.00056854
-0.00415803
0.000573092
-0.00427736
0.000576978
-0.0043999
-0.00452616
0.00058035
8.71711e-06
-0.000132485
3.31044e-05
-0.000430602
7.15214e-05
-0.000769448
0.000121323
-0.00113976
0.000178815
-0.00152682
0.000239609
-0.00191272
0.000299259
-0.00227975
0.00035398
-0.00261356
0.000401169
-0.00290551
0.000439611
-0.00315326
0.000469346
-0.00335998
0.00049133
-0.00353254
0.000507003
-0.00367951
0.000517921
-0.00380942
0.000525485
-0.00392963
0.000530811
-0.00404582
0.000534695
-0.00416192
0.000537647
-0.00428031
0.000539965
-0.00440222
-0.00452796
0.000541765
8.88398e-06
-0.000141369
3.35105e-05
-0.000455229
7.19569e-05
-0.000807895
0.000121291
-0.0011891
0.00017759
-0.00158311
0.000236356
-0.00197149
0.000293203
-0.0023366
0.000344541
-0.0026649
0.000388054
-0.00294902
0.000422812
-0.00318802
0.00044909
-0.00338625
0.000467981
-0.00355143
0.00048097
-0.0036925
0.000489583
-0.00381803
0.000495148
-0.0039352
0.00049869
-0.00404936
0.000500923
-0.00416415
0.000502291
-0.00428168
0.000503043
-0.00440297
-0.00452818
0.000503269
9.0285e-06
-0.000150397
3.38249e-05
-0.000480025
7.21849e-05
-0.000846255
0.0001209
-0.00123781
0.000175841
-0.00163805
0.000232439
-0.00202809
0.000286392
-0.00239055
0.000334331
-0.00271284
0.00037422
-0.00298891
0.000405408
-0.0032192
0.000428372
-0.00340922
0.000444321
-0.00356738
0.000454764
-0.00370295
0.000461183
-0.00382445
0.000464827
-0.00393884
0.000466635
-0.00405117
0.000467244
-0.00416476
0.000467039
-0.00428148
0.000466227
-0.00440216
-0.00452683
0.000464874
9.1507e-06
-0.000159548
3.40475e-05
-0.000504922
7.22068e-05
-0.000884414
0.000120157
-0.00128576
0.00017359
-0.00169149
0.000227895
-0.00208239
0.000278884
-0.00244154
0.000323423
-0.00275738
0.000359756
-0.00302524
0.000387488
-0.00324693
0.00040728
-0.00342901
0.000420429
-0.00358053
0.00042845
-0.00371097
0.000432772
-0.00382878
0.000434564
-0.00394063
0.00043468
-0.00405129
0.000433686
-0.00416377
0.000431915
-0.00427971
0.000429539
-0.00439978
-0.00452389
0.000426603
9.24744e-06
-0.000168796
3.41719e-05
-0.000529846
7.20152e-05
-0.000922257
0.000119059
-0.00133281
0.000170841
-0.00174327
0.000222743
-0.0021343
0.000270717
-0.00248951
0.000311869
-0.00279853
0.000344721
-0.0030581
0.000369115
-0.00327133
0.000385872
-0.00344577
0.000396353
-0.00359101
0.000402066
-0.00371668
0.000404377
-0.00383109
0.000404373
-0.00394063
0.000402831
-0.00404974
0.000400251
-0.00416119
0.00039692
-0.00427637
0.000392979
-0.00439584
-0.00451937
0.000388454
9.31903e-06
-0.000178115
3.41989e-05
-0.000554726
7.16141e-05
-0.000959672
0.000117618
-0.00137881
0.000167621
-0.00179327
0.000217027
-0.0021837
0.000261949
-0.00253443
0.000299743
-0.00283633
0.000329196
-0.00308755
0.00035037
-0.0032925
0.000364221
-0.00345962
0.000372158
-0.00359895
0.000375663
-0.00372018
0.000376038
-0.00383146
0.000374289
-0.00393888
0.000371116
-0.00404657
0.000366962
-0.00415703
0.000362073
-0.00427149
0.000356565
-0.00439033
-0.00451325
0.000350449
9.3648e-06
-0.000187479
3.41278e-05
-0.000579489
7.10058e-05
-0.00099655
0.000115842
-0.00142365
0.000163951
-0.00184138
0.000210783
-0.00223053
0.000252631
-0.00257628
0.000287106
-0.0028708
0.000313248
-0.00311369
0.000331319
-0.00331057
0.000342387
-0.00347069
0.000347893
-0.00360445
0.000349282
-0.00372157
0.000347787
-0.00382997
0.000344333
-0.00393542
0.000339553
-0.00404179
0.000333834
-0.00415131
0.000327389
-0.00426504
0.00032031
-0.00438325
-0.00450554
0.000312599
9.38429e-06
-0.000196864
3.39587e-05
-0.000604064
7.01934e-05
-0.00103279
0.000113744
-0.0014672
0.000159853
-0.00188749
0.000204048
-0.00227473
0.000242816
-0.00261505
0.000274019
-0.002902
0.000296942
-0.00313662
0.000312023
-0.00332565
0.000320427
-0.00347909
0.000323604
-0.00360763
0.000322959
-0.00372093
0.00031965
-0.00382666
0.000314527
-0.0039303
0.000308157
-0.00403542
0.00030088
-0.00414404
0.000292878
-0.00425704
0.000284228
-0.0043746
-0.00449623
0.000274919
9.37717e-06
-0.000206241
3.36921e-05
-0.000628379
6.91816e-05
-0.00106827
0.000111335
-0.00150935
0.000155354
-0.00193151
0.000196861
-0.00231624
0.000232552
-0.00265074
0.00026054
-0.00292999
0.000280336
-0.00315641
0.00029254
-0.00333786
0.000298388
-0.00348494
0.000299332
-0.00360857
0.000296725
-0.00371832
0.000291652
-0.00382158
0.000284888
-0.00392354
0.000276942
-0.00402747
0.000268112
-0.00413521
0.000258554
-0.00424748
0.000248327
-0.00436438
-0.00448532
0.000237419
9.3433e-06
-0.000215584
3.33291e-05
-0.000652365
6.79759e-05
-0.00110292
0.00010863
-0.00155
0.000150477
-0.00197336
0.00018926
-0.00235502
0.000221889
-0.00268337
0.000246723
-0.00295483
0.000263487
-0.00317318
0.000272919
-0.00334729
0.000276314
-0.00348833
0.000275112
-0.00360737
0.000270607
-0.00371382
0.000263812
-0.00381479
0.000255433
-0.00391516
0.000245922
-0.00401796
0.000235542
-0.00412483
0.000224426
-0.00423636
0.000212622
-0.00435257
-0.00447281
0.000200112
9.28268e-06
-0.000224867
3.28714e-05
-0.000675953
6.65827e-05
-0.00113663
0.000105644
-0.00158907
0.000145251
-0.00201296
0.000181283
-0.00239105
0.000210873
-0.00271296
0.00023262
-0.00297657
0.000246445
-0.003187
0.000253208
-0.00335405
0.000254246
-0.00348937
0.000250975
-0.0036041
0.00024463
-0.00370747
0.000236149
-0.00380631
0.000226176
-0.00390519
0.00021511
-0.0040069
0.000203181
-0.0041129
0.000190506
-0.00422369
0.000177121
-0.00433919
-0.0044587
0.000163009
9.19548e-06
-0.000234062
3.2321e-05
-0.000699079
6.50094e-05
-0.00116932
0.000102393
-0.00162645
0.0001397
-0.00205027
0.000172967
-0.00242432
0.00019955
-0.00273954
0.000218279
-0.0029953
0.000229257
-0.00319798
0.000233449
-0.00335824
0.000232218
-0.00348814
0.000226949
-0.00359883
0.000218814
-0.00369934
0.000208681
-0.00379617
0.00019713
-0.00389364
0.000184516
-0.00399428
0.00017104
-0.00409942
0.000156803
-0.00420945
0.000141837
-0.00432422
-0.00444299
0.000126121
9.08197e-06
-0.000243144
3.16807e-05
-0.000721678
6.32637e-05
-0.0012009
9.88929e-05
-0.00166208
0.000133853
-0.00208523
0.000164348
-0.00245481
0.000187961
-0.00276316
0.000203745
-0.00301109
0.000211967
-0.0032062
0.00021368
-0.00335996
0.000210262
-0.00348472
0.00020306
-0.00359163
0.000193179
-0.00368946
0.000181422
-0.00378442
0.000168308
-0.00388052
0.000154151
-0.00398013
0.000139129
-0.0040844
0.000123327
-0.00419365
0.000106776
-0.00430767
-0.00442567
8.94625e-05
8.94261e-06
-0.000252087
3.09532e-05
-0.000743688
6.13543e-05
-0.00123131
9.51608e-05
-0.00169589
0.000127735
-0.0021178
0.000155461
-0.00248254
0.000176148
-0.00278384
0.00018906
-0.003024
0.000194614
-0.00321176
0.000193936
-0.00335928
0.000188406
-0.00347919
0.000179328
-0.00358255
0.000167743
-0.00367787
0.000154384
-0.00377106
0.00013972
-0.00386586
0.000124028
-0.00396443
0.000107459
-0.00406783
9.00891e-05
-0.00417628
7.19429e-05
-0.00428953
-0.00440675
5.30188e-05
8.77794e-06
-0.000260865
3.01419e-05
-0.000765052
5.92901e-05
-0.00126045
9.12137e-05
-0.00172781
0.000121372
-0.00214796
0.000146339
-0.00250751
0.000164149
-0.00280165
0.000174263
-0.00303411
0.000177235
-0.00321473
0.000174247
-0.00335629
0.000166676
-0.00347162
0.000155774
-0.00357165
0.000142519
-0.00366462
0.000127581
-0.00375612
0.000111379
-0.00384966
9.4155e-05
-0.00394721
7.6044e-05
-0.00404972
5.71154e-05
-0.00415735
3.73604e-05
-0.00426977
-0.00438603
1.6638e-05
8.58863e-06
-0.000269453
2.92504e-05
-0.000785714
5.70803e-05
-0.00128828
8.70689e-05
-0.0017578
0.00011479
-0.00217568
0.000137015
-0.00252973
0.000151999
-0.00281664
0.00015939
-0.0030415
0.000159861
-0.0032152
0.000154642
-0.00335107
0.000145092
-0.00346207
0.000132415
-0.00355897
0.000117522
-0.00364972
0.000101024
-0.00373962
8.32934e-05
-0.00383192
6.45418e-05
-0.00392846
4.48904e-05
-0.00403007
2.44185e-05
-0.00413688
3.18835e-06
-0.00424854
-0.00436365
-1.91898e-05
8.37542e-06
-0.000277829
2.82826e-05
-0.000805621
5.47346e-05
-0.00131474
8.27433e-05
-0.00178581
0.000108014
-0.00220095
0.00012752
-0.00254924
0.000139732
-0.00282885
0.000144472
-0.00304624
0.000142522
-0.00321325
0.000135144
-0.00334369
0.000123676
-0.0034506
0.000109266
-0.00354456
9.2763e-05
-0.00363322
7.47224e-05
-0.00372158
5.54723e-05
-0.00381267
3.51975e-05
-0.00390818
1.40061e-05
-0.00400888
-8.03691e-06
-0.00411484
-3.0952e-05
-0.00422563
-0.00433992
-5.46815e-05
8.13919e-06
-0.000285968
2.72424e-05
-0.000824724
5.22627e-05
-0.00133976
7.8254e-05
-0.0018118
0.000101067
-0.00222377
0.000117882
-0.00256605
0.000127378
-0.00283835
0.000129542
-0.00304841
0.000125246
-0.00320895
0.000115777
-0.00333422
0.000102444
-0.00343727
8.63402e-05
-0.00352846
6.82538e-05
-0.00361513
4.86858e-05
-0.00370201
2.79252e-05
-0.00379191
6.13132e-06
-0.00388639
-1.65982e-05
-0.00398615
-4.02028e-05
-0.00409123
-6.46808e-05
-0.00420115
-0.0043146
-9.00034e-05
7.88085e-06
-0.000293849
2.61342e-05
-0.000842978
4.96741e-05
-0.0013633
7.36175e-05
-0.00183574
9.39727e-05
-0.00224412
0.000108129
-0.00258021
0.000114967
-0.00284518
0.000114625
-0.00304806
0.000108056
-0.00320238
9.65595e-05
-0.00332273
8.1412e-05
-0.00342212
6.36507e-05
-0.0035107
4.4004e-05
-0.00359549
2.29229e-05
-0.00368093
6.5806e-07
-0.00376965
-2.26481e-05
-0.00386308
-4.69139e-05
-0.00396188
-7.20779e-05
-0.00406607
-9.81197e-05
-0.00417511
-0.00428767
-0.000125048
7.60138e-06
-0.00030145
2.4962e-05
-0.000860338
4.69788e-05
-0.00138531
6.88499e-05
-0.00185761
8.67529e-05
-0.00226203
9.82862e-05
-0.00259174
0.000102526
-0.00284942
9.97481e-05
-0.00304529
9.09743e-05
-0.00319361
7.75099e-05
-0.00330926
6.05942e-05
-0.00340521
4.12079e-05
-0.00349131
2.00226e-05
-0.0035743
-2.55839e-06
-0.00365835
-2.63144e-05
-0.00374589
-5.11318e-05
-0.00383827
-7.69319e-05
-0.00393608
-0.000103653
-0.00403935
-0.000131263
-0.00414749
-0.00425914
-0.000159789
7.30184e-06
-0.000308752
2.37304e-05
-0.000876767
4.41864e-05
-0.00140577
6.3967e-05
-0.00187739
7.94285e-05
-0.00227749
8.83782e-05
-0.00260069
9.00786e-05
-0.00285112
8.49328e-05
-0.00304014
7.40201e-05
-0.0031827
5.86438e-05
-0.00329389
4.00027e-05
-0.00338656
1.90217e-05
-0.00347033
-3.68245e-06
-0.0035516
-2.77485e-05
-0.00363429
-5.29907e-05
-0.00372065
-7.93119e-05
-0.00381194
-0.000106643
-0.00390875
-0.000134919
-0.00401107
-0.0001641
-0.00411831
-0.00422903
-0.000194215
6.98333e-06
-0.000315735
2.24438e-05
-0.000892227
4.13063e-05
-0.00142463
5.89839e-05
-0.00189507
7.20193e-05
-0.00229052
7.84273e-05
-0.0026071
7.76478e-05
-0.00285034
7.02001e-05
-0.00303269
5.7211e-05
-0.00316971
3.99751e-05
-0.00327665
1.96485e-05
-0.00336624
-2.89978e-06
-0.00344778
-2.71026e-05
-0.0035274
-5.26423e-05
-0.00360875
-7.93609e-05
-0.00369393
-0.00010718
-0.00378413
-0.000136038
-0.00387989
-0.000165867
-0.00398124
-0.000196618
-0.00408756
-0.00419733
-0.000228314
6.64694e-06
-0.000322382
2.11066e-05
-0.000906687
3.83479e-05
-0.00144187
5.39152e-05
-0.00191064
6.45441e-05
-0.00230115
6.84542e-05
-0.00261101
6.52543e-05
-0.00284714
5.55688e-05
-0.00302301
4.05628e-05
-0.0031547
2.1516e-05
-0.0032576
-4.60731e-07
-0.00334426
-2.45477e-05
-0.0034237
-5.0232e-05
-0.00350171
-7.72322e-05
-0.00358175
-0.000105417
-0.00366575
-0.000134727
-0.00375482
-0.000165108
-0.00384951
-0.000196487
-0.00394986
-0.000228806
-0.00405524
-0.00416406
-0.000262077
6.29384e-06
-0.000328676
1.97232e-05
-0.000920116
3.53203e-05
-0.00145747
4.87748e-05
-0.00192409
5.70206e-05
-0.0023094
5.84784e-05
-0.00261247
5.29172e-05
-0.00284158
4.10559e-05
-0.00301115
2.40893e-05
-0.00313774
3.27827e-06
-0.00323679
-2.03108e-05
-0.00332067
-4.59154e-05
-0.00339809
-7.30639e-05
-0.00347456
-0.000101512
-0.0035533
-0.000131153
-0.00363611
-0.000161945
-0.00372402
-0.000193843
-0.00381761
-0.00022677
-0.00391694
-0.000260654
-0.00402136
-0.00412922
-0.000295493
5.9252e-06
-0.000334601
1.82979e-05
-0.000932489
3.22324e-05
-0.0014714
4.35761e-05
-0.00193544
4.94653e-05
-0.00231529
4.85178e-05
-0.00261152
4.06536e-05
-0.00283372
2.66764e-05
-0.00299717
7.803e-06
-0.00311886
-1.47289e-05
-0.00321426
-3.98998e-05
-0.0032955
-6.69968e-05
-0.00337099
-9.55924e-05
-0.00344597
-0.000125474
-0.00352342
-0.000156561
-0.00360502
-0.000188826
-0.00369176
-0.000222234
-0.00378421
-0.000256705
-0.00388246
-0.000292152
-0.00398591
-0.00409282
-0.000328552
5.54218e-06
-0.000340144
1.68351e-05
-0.000943782
2.90927e-05
-0.00148366
3.83318e-05
-0.00194468
4.18938e-05
-0.00231885
3.85889e-05
-0.00260821
2.84795e-05
-0.00282361
1.2444e-05
-0.00298113
-8.28486e-06
-0.00309813
-3.24968e-05
-0.00319005
-5.92187e-05
-0.00326878
-8.7786e-05
-0.00334243
-0.000117812
-0.00341594
-0.000149114
-0.00349211
-0.000181634
-0.0035725
-0.000215361
-0.00365803
-0.000250271
-0.0037493
-0.000286283
-0.00384645
-0.000323289
-0.00394891
-0.00405487
-0.000361245
5.14599e-06
-0.00034529
1.5339e-05
-0.000953975
2.59094e-05
-0.00149423
3.30537e-05
-0.00195182
3.43204e-05
-0.00232012
2.8707e-05
-0.0026026
1.64089e-05
-0.00281131
-1.6273e-06
-0.0029631
-2.41643e-05
-0.0030756
-5.00176e-05
-0.0031642
-7.82615e-05
-0.00324054
-0.000108278
-0.00331241
-0.000139718
-0.0033845
-0.000172427
-0.00345941
-0.000206366
-0.00353856
-0.000241543
-0.00362286
-0.000277945
-0.00371289
-0.000315491
-0.00380891
-0.000354055
-0.00391034
-0.00401536
-0.000393561
4.73785e-06
-0.000350027
1.38138e-05
-0.000963051
2.26905e-05
-0.00150311
2.77535e-05
-0.00195688
2.67589e-05
-0.00231912
1.88859e-05
-0.00259473
4.45585e-06
-0.00279688
-1.55309e-05
-0.00294311
-3.98271e-05
-0.0030513
-6.72846e-05
-0.00313674
-9.70227e-05
-0.0032108
-0.000128467
-0.00328097
-0.000161305
-0.00335166
-0.000195406
-0.0034253
-0.00023075
-0.00350321
-0.000267363
-0.00358624
-0.000305245
-0.00367501
-0.00034432
-0.00376983
-0.00038444
-0.00387022
-0.00397431
-0.000425491
4.31901e-06
-0.000354346
1.22634e-05
-0.000970995
1.94435e-05
-0.00151029
2.24418e-05
-0.00195988
1.92226e-05
-0.0023159
9.13692e-06
-0.00258464
-7.36992e-06
-0.00278037
-2.92525e-05
-0.00292123
-5.52649e-05
-0.00302529
-8.42917e-05
-0.00310771
-0.000115498
-0.00317959
-0.000148351
-0.00324811
-0.000182569
-0.00331744
-0.000218047
-0.00338983
-0.000254781
-0.00346648
-0.000292814
-0.00354821
-0.000332163
-0.00363566
-0.000372757
-0.00372924
-0.000414432
-0.00382855
-0.00393172
-0.000457025
3.89079e-06
-0.000358237
1.0692e-05
-0.000977796
1.61754e-05
-0.00151577
1.71284e-05
-0.00196083
1.17242e-05
-0.0023105
-4.98865e-07
-0.00257242
-1.90539e-05
-0.00276182
-4.27855e-05
-0.0028975
-7.04713e-05
-0.0029976
-0.000101034
-0.00307715
-0.000133682
-0.00314694
-0.000167924
-0.00321387
-0.000203507
-0.00328186
-0.000240346
-0.00335299
-0.000278454
-0.00342837
-0.000317888
-0.00350878
-0.000358688
-0.00359486
-0.000400792
-0.00368713
-0.000444019
-0.00378532
-0.00388758
-0.000488153
3.45445e-06
-0.000361692
9.10314e-06
-0.000983445
1.28932e-05
-0.00151956
1.18228e-05
-0.00195976
4.26995e-06
-0.00230294
-1.00907e-05
-0.00255806
-3.05947e-05
-0.00274132
-5.61216e-05
-0.00287197
-8.54399e-05
-0.00296828
-0.000117506
-0.00304508
-0.000151572
-0.00311288
-0.000187183
-0.00317826
-0.000224115
-0.00324493
-0.000262299
-0.0033148
-0.000301762
-0.00338891
-0.00034258
-0.00346796
-0.000384811
-0.00355263
-0.000428413
-0.00364353
-0.000473191
-0.00374054
-0.00384191
-0.000518864
3.01098e-06
-0.000364703
7.50064e-06
-0.000987935
9.60402e-06
-0.00152167
6.53349e-06
-0.00195669
-3.12676e-06
-0.00229328
-1.9548e-05
-0.00254164
-4.19769e-05
-0.00271889
-6.92538e-05
-0.00284469
-0.000100165
-0.00293737
-0.000133704
-0.00301154
-0.000169163
-0.00307742
-0.000206125
-0.0031413
-0.000244389
-0.00320666
-0.000283902
-0.00327529
-0.000324703
-0.00334811
-0.000366882
-0.00342578
-0.000410522
-0.00350899
-0.000455605
-0.00359845
-0.000501933
-0.00369422
-0.00379469
-0.000549149
2.56177e-06
-0.000367264
5.88792e-06
-0.000991261
6.31416e-06
-0.00152209
1.28158e-06
-0.00195166
-1.04627e-05
-0.00228154
-2.88924e-05
-0.00252321
-5.31938e-05
-0.00269459
-8.21758e-05
-0.00281571
-0.000114642
-0.00290491
-0.000149624
-0.00297656
-0.000186454
-0.00304059
-0.000224748
-0.003103
-0.000264328
-0.00316708
-0.000305153
-0.00323447
-0.000347273
-0.00330599
-0.000390791
-0.00338226
-0.000435814
-0.00346397
-0.000482358
-0.00355191
-0.000530231
-0.00364634
2.10818e-06
-0.000369373
4.26948e-06
-0.000993422
3.0249e-06
-0.00152085
-3.96122e-06
-0.00194467
-1.7722e-05
-0.00226778
-3.81143e-05
-0.00250281
-6.42387e-05
-0.00266846
-9.48819e-05
-0.00278507
-0.000128867
-0.00287092
-0.000165262
-0.00294017
-0.00020344
-0.00300241
-0.000243048
-0.0030634
-0.000283927
-0.00312621
-0.000326049
-0.00319234
-0.000369469
-0.00326257
-0.000414301
-0.00333743
-0.000460679
-0.00341759
-0.000508658
-0.00350393
1.65068e-06
-0.000371023
2.65002e-06
-0.000994422
-2.14556e-07
-0.00151798
-9.15157e-06
-0.00193574
-2.48995e-05
-0.00225203
-4.72065e-05
-0.00248051
-7.51056e-05
-0.00264056
-0.000107367
-0.00275281
-0.000142836
-0.00283545
-0.000180616
-0.00290239
-0.00022012
-0.0029629
-0.000261022
-0.00302249
-0.000303185
-0.00308404
-0.000346587
-0.00314894
-0.000391289
-0.00321787
-0.000437412
-0.00329131
-0.000485111
-0.00336989
1.18942e-06
-0.000372213
1.02192e-06
-0.000994254
-3.51588e-06
-0.00151344
-1.43019e-05
-0.00192495
-3.19881e-05
-0.00223435
-5.6162e-05
-0.00245633
-8.57887e-05
-0.00261094
-0.000119627
-0.00271897
-0.000156544
-0.00279853
-0.000195683
-0.00286325
-0.00023649
-0.0029221
-0.000278669
-0.00298031
-0.000322098
-0.00304061
-0.000366766
-0.00310427
-0.000412732
-0.0031719
-0.000460122
-0.00324392
7.22296e-07
-0.000372935
-6.04177e-07
-0.000992928
-6.75723e-06
-0.00150729
-1.9398e-05
-0.00191231
-3.89813e-05
-0.00221476
-6.49746e-05
-0.00243034
-9.6283e-05
-0.00257963
-0.000131658
-0.00268359
-0.00016999
-0.0027602
-0.00021046
-0.00282278
-0.000252549
-0.00288001
-0.000295986
-0.00293688
-0.000340666
-0.00299593
-0.000386583
-0.00305836
-0.000433798
-0.00312469
-0.00319528
2.17099e-07
-0.000373152
-2.2301e-06
-0.00099048
-9.97532e-06
-0.00149955
-2.44351e-05
-0.00189785
-4.58728e-05
-0.00219332
-7.36386e-05
-0.00240257
-0.000106584
-0.00254668
-0.000143455
-0.00264672
-0.00018317
-0.00272049
-0.000224944
-0.00278101
-0.000268293
-0.00283666
-0.00031297
-0.0028922
-0.000358884
-0.00295002
-0.000406037
-0.0030112
-0.000454485
-0.00307624
-2.55808e-07
-0.000372896
-3.84529e-06
-0.000986891
-1.31648e-05
-0.00149023
-2.94082e-05
-0.00188161
-5.26569e-05
-0.00217008
-8.21489e-05
-0.00237308
-0.000116687
-0.00251214
-0.000155016
-0.00260839
-0.000196082
-0.00267942
-0.000239134
-0.00273795
-0.00028372
-0.00279207
-0.000329618
-0.0028463
-0.000376751
-0.00290289
-0.000425124
-0.00296283
-6.94943e-07
-0.000372201
-5.44544e-06
-0.00098214
-1.63213e-05
-0.00147935
-3.43124e-05
-0.00186362
-5.93286e-05
-0.00214506
-9.05011e-05
-0.00234191
-0.000126588
-0.00247606
-0.000166339
-0.00256864
-0.000208723
-0.00263704
-0.000253027
-0.00269365
-0.000298829
-0.00274627
-0.000345928
-0.0027992
-0.000394262
-0.00285455
-0.00291325
-1.15751e-06
-0.000371044
-7.03474e-06
-0.000976263
-1.94411e-05
-0.00146694
-3.91433e-05
-0.00184391
-6.58833e-05
-0.00211832
-9.86909e-05
-0.0023091
-0.000136285
-0.00243846
-0.000177419
-0.00252751
-0.000221091
-0.00259336
-0.000266621
-0.00264812
-0.000313616
-0.00269928
-0.000361897
-0.00275092
-0.000411414
-0.00280504
-1.62305e-06
-0.000369421
-8.61061e-06
-0.000969276
-2.25207e-05
-0.00145303
-4.38968e-05
-0.00182254
-7.23167e-05
-0.0020899
-0.000106715
-0.0022747
-0.000145774
-0.0023994
-0.000188255
-0.00248503
-0.000233184
-0.00254843
-0.000279913
-0.00260139
-0.000328079
-0.00265111