/*--------------------------------*- C++ -*----------------------------------*\
  =========                 |
  \\      /  F ield         | OpenFOAM: The Open Source CFD Toolbox
   \\    /   O peration     | Website:  https://openfoam.org
    \\  /    A nd           | Version:  7
     \\/     M anipulation  |
\*---------------------------------------------------------------------------*/
FoamFile
{
    version     2.0;
    format      ascii;
    class       volVectorField;
    location    "85";
    object      U;
}
// * * * * * * * * * * * * * * * * * * * * * * * * * * * * * * * * * * * * * //

dimensions      [0 1 -1 0 0 0 0];

internalField   nonuniform List<vector> 
8500
(
(-0.00711988 0.00572789 1.52969e-19)
(-0.00664232 0.00516755 1.28425e-19)
(-0.00973381 0.0105527 -1.69086e-19)
(-0.00609671 0.00460093 8.06888e-19)
(-0.0074799 0.00887278 -4.78528e-19)
(0.00254848 0.0105389 -1.74327e-21)
(-0.00547279 0.00402517 -4.19548e-19)
(-0.00495842 0.00718952 4.72221e-21)
(0.00762503 0.00796251 3.46423e-19)
(-0.00475983 0.00343804 -1.46535e-19)
(-0.00214353 0.00550163 8.82612e-20)
(0.0132292 0.00542429 1.27423e-19)
(0.0411127 0.00356877 -3.78089e-19)
(-0.00394706 0.00283813 7.52142e-19)
(0.000990611 0.00380943 -1.89229e-19)
(0.0193958 0.00292993 -2.75735e-19)
(0.0509576 0.000548826 1.41397e-19)
(0.0957132 -0.00251897 6.73013e-19)
(-0.00302368 0.00222492 -3.39102e-19)
(0.00446931 0.0021152 5.23548e-20)
(0.0261582 0.000487428 -3.82221e-19)
(0.0616561 -0.00233677 -5.41698e-19)
(0.110933 -0.0055143 -2.33669e-19)
(0.173811 -0.00832474 -1.31274e-19)
(-0.00197911 0.00159889 -3.29709e-19)
(0.00831703 0.000423439 7.26885e-19)
(0.0335474 -0.00189256 4.54953e-19)
(0.0732383 -0.00506952 2.03665e-19)
(0.127274 -0.00824305 -7.35463e-20)
(0.195343 -0.0106829 -4.84053e-19)
(0.276783 -0.0118095 6.80921e-20)
(-0.000803115 0.000961528 5.85974e-20)
(0.012557 -0.00125907 -1.10508e-19)
(0.0415917 -0.00419643 8.10808e-20)
(0.0857295 -0.00762804 -1.95353e-19)
(0.144749 -0.0106759 4.14618e-19)
(0.218177 -0.0126087 7.53337e-19)
(0.305106 -0.012867 2.33398e-19)
(0.404014 -0.0110495 1.46347e-19)
(0.000514082 0.000315391 -1.96661e-19)
(0.0172109 -0.00292309 -4.59155e-19)
(0.0503163 -0.00640747 -3.47464e-19)
(0.0991496 -0.00998769 1.08744e-19)
(0.163362 -0.012781 -5.89875e-19)
(0.242285 -0.0140651 -7.3742e-19)
(0.334732 -0.0133137 -9.99353e-20)
(0.438807 -0.0101866 -2.31742e-19)
(0.551747 -0.00458186 -2.46358e-20)
(0.00198168 -0.000335944 -1.51256e-19)
(0.0222985 -0.00455697 -1.17861e-19)
(0.0597429 -0.00850588 5.35049e-19)
(0.113512 -0.0121206 -3.31487e-19)
(0.183107 -0.0145238 8.59058e-19)
(0.267631 -0.0150139 3.63559e-19)
(0.365576 -0.0131125 -2.39601e-19)
(0.474637 -0.00855788 -4.11512e-19)
(0.591585 -0.00136106 -6.58849e-19)
(0.7123 0.0081628 6.99955e-19)
(0.00360824 -0.000987904 2.97063e-19)
(0.0278375 -0.0061467 4.84742e-19)
(0.069889 -0.0104687 1.9291e-20)
(0.128825 -0.0139959 3.04084e-19)
(0.20397 -0.0158674 -7.36327e-19)
(0.294164 -0.0154157 1.78343e-19)
(0.397541 -0.0122272 -1.16317e-19)
(0.511352 -0.0061375 -2.26992e-20)
(0.631885 0.00271098 -2.23149e-19)
(0.754585 0.0138485 -4.93197e-19)
(0.874403 0.0265106 2.44874e-19)
(0.00540158 -0.00163497 -5.34852e-20)
(0.0338432 -0.007676 -7.29881e-19)
(0.080768 -0.0122703 -5.63642e-19)
(0.145089 -0.0155798 -3.58116e-20)
(0.225926 -0.0167727 1.28739e-19)
(0.321822 -0.015231 -2.49445e-19)
(0.430514 -0.0106238 -7.08541e-22)
(0.548782 -0.00290406 8.41316e-20)
(0.672432 0.00763633 1.24286e-19)
(0.796499 0.0203621 6.99644e-19)
(0.915714 0.0343543 2.90363e-19)
(1.02512 0.0485352 1.77814e-19)
(1.12075 0.0618344 -2.37056e-19)
(0.00736874 -0.00227073 9.43258e-20)
(0.0403284 -0.0091265 3.86499e-19)
(0.0923885 -0.0138821 2.42747e-19)
(0.162297 -0.0168361 -4.44262e-19)
(0.248942 -0.0171995 9.58421e-20)
(0.350531 -0.0144204 5.8599e-19)
(0.464371 -0.00827073 3.21557e-19)
(0.586752 0.00115881 4.34625e-20)
(0.713004 0.0134104 3.94615e-19)
(0.837805 0.0276757 -8.05117e-19)
(0.955744 0.0428872 -2.26252e-19)
(1.06201 0.0578728 -9.69741e-20)
(1.15301 0.0715394 5.70829e-19)
(1.22679 0.083033 -3.77566e-19)
(0.00951591 -0.00288799 -8.80103e-20)
(0.047303 -0.010478 -5.4582e-20)
(0.104754 -0.0152734 -1.4098e-19)
(0.180436 -0.0177266 4.66821e-19)
(0.272973 -0.0171064 3.12506e-19)
(0.380206 -0.0129457 -1.00827e-19)
(0.498977 -0.00514002 -1.85005e-20)
(0.625078 0.00606197 3.97706e-19)
(0.753383 0.020022 -6.06275e-19)
(0.878275 0.0357557 3.71393e-19)
(0.994296 0.0520575 3.80598e-19)
(1.09687 0.0676839 1.00976e-19)
(1.18288 0.081547 -2.03721e-19)
(1.25099 0.0928638 2.93891e-19)
(1.30153 0.101229 2.43535e-19)
(0.0118484 -0.00347879 -1.3594e-19)
(0.0547741 -0.0117085 6.00389e-20)
(0.117863 -0.0164118 3.97646e-19)
(0.199484 -0.0182119 6.84186e-21)
(0.297967 -0.0164523 -6.76697e-19)
(0.410749 -0.0107706 -4.65444e-19)
(0.534189 -0.00120765 -3.99463e-19)
(0.663572 0.0118104 -2.10479e-19)
(0.793356 0.0274535 8.00876e-19)
(0.917701 0.0445629 -3.61442e-20)
(1.0312 0.0618111 1.07376e-19)
(1.12961 0.0779089 1.75572e-19)
(1.21036 0.0918015 -5.90352e-19)
(1.27274 0.1028 -4.7093e-19)
(1.31769 0.110623 1.26802e-19)
(1.34734 0.115349 -2.50091e-20)
(1.36451 0.117349 -4.95681e-19)
(0.0143704 -0.00403454 1.73214e-19)
(0.0627453 -0.0127947 2.20353e-19)
(0.131707 -0.017263 -4.103e-19)
(0.21941 -0.0182515 -2.22295e-20)
(0.323858 -0.0151965 7.92414e-19)
(0.442054 -0.00786135 4.98188e-19)
(0.569852 0.00354562 -2.00112e-19)
(0.702045 0.018403 2.95506e-19)
(0.832718 0.0356814 -3.16664e-19)
(0.955893 0.0540544 -3.19747e-19)
(1.06632 0.072093 3.25476e-19)
(1.16016 0.0884905 -6.60082e-19)
(1.23547 0.102253 8.35579e-20)
(1.29214 0.112805 3.17512e-19)
(1.33169 0.119997 -1.72333e-19)
(1.35663 0.124034 2.46094e-19)
(1.36998 0.125372 -2.97254e-19)
(1.37472 0.124471 4.94809e-20)
(0.0170852 -0.00454605 2.02295e-19)
(0.071217 -0.0137121 -6.70823e-19)
(0.146275 -0.0177922 1.08111e-19)
(0.240177 -0.0178052 -1.12726e-19)
(0.350574 -0.0132999 -2.79606e-19)
(0.474005 -0.00418774 -2.23106e-19)
(0.60581 0.00913377 2.01658e-19)
(0.740308 0.0258326 -9.24902e-19)
(0.871275 0.0446767 -2.15945e-19)
(0.992685 0.0641839 1.40592e-19)
(1.09953 0.0828483 -1.78493e-19)
(1.1885 0.099375 5.08565e-19)
(1.25824 0.112856 3.56703e-19)
(1.3093 0.122847 1.23471e-19)
(1.34369 0.129337 6.84117e-19)
(1.36425 0.132647 -6.74598e-19)
(1.37415 0.133316 4.15255e-19)
(1.37634 0.131863 5.83886e-19)
(1.37338 0.129262 -4.14892e-19)
(1.36683 0.124197 1.16412e-19)
(0.0199949 -0.00500363 1.59348e-20)
(0.0801862 -0.0144354 -7.16569e-21)
(0.161547 -0.0179636 4.90104e-19)
(0.26174 -0.0168331 -7.02593e-20)
(0.378033 -0.0107256 -3.14475e-20)
(0.506479 0.000276326 5.30445e-19)
(0.6419 0.0155652 6.10233e-19)
(0.778178 0.0340859 1.68917e-19)
(0.908848 0.0544055 3.61556e-19)
(1.02793 0.0749031 -2.36573e-19)
(1.13077 0.0940233 -2.01448e-19)
(1.2146 0.110513 -5.10439e-21)
(1.27875 0.123574 -2.46953e-19)
(1.32435 0.132904 -9.50992e-21)
(1.35385 0.138632 -4.80442e-19)
(1.37039 0.141191 1.89458e-19)
(1.37718 0.141189 4.41366e-19)
(1.37714 0.139193 -2.22435e-19)
(1.37266 0.136126 2.55212e-19)
(1.36516 0.130825 4.56899e-19)
(0.0231004 -0.00539721 6.14829e-20)
(0.0896461 -0.0149385 -1.71164e-19)
(0.177497 -0.0177416 -1.01643e-20)
(0.284044 -0.0152964 5.33753e-21)
(0.406143 -0.00743952 -3.47048e-19)
(0.539344 0.00555231 -4.98288e-20)
(0.67796 0.0228424 -6.28829e-19)
(0.815477 0.043144 6.5412e-19)
(0.945273 0.0648301 3.37358e-19)
(1.06151 0.0861626 3.08816e-20)
(1.15997 0.105566 -3.03807e-21)
(1.2385 0.121859 -1.77131e-19)
(1.29707 0.134372 1.03896e-19)
(1.3374 0.142955 2.84697e-19)
(1.36233 0.147875 -4.9489e-19)
(1.37517 0.149669 3.77077e-19)
(1.3792 0.149001 -4.54626e-19)
(1.37721 0.146473 -2.03612e-20)
(1.37143 0.142953 1.4729e-21)
(1.36316 0.13742 2.04996e-19)
(0.0264014 -0.00571636 -1.35069e-19)
(0.0995862 -0.0151954 -1.53838e-19)
(0.194096 -0.0170911 2.21914e-19)
(0.30703 -0.0131583 -9.88147e-20)
(0.434808 -0.00341115 -3.08967e-20)
(0.572466 0.0116565 -3.06942e-19)
(0.713826 0.030962 3.44312e-19)
(0.852037 0.0529828 -6.19316e-19)
(0.980404 0.0759096 5.59337e-20)
(1.09333 0.0979126 9.61251e-20)
(1.18711 0.117428 -5.20524e-20)
(1.26023 0.133372 3.72661e-20)
(1.31332 0.145223 -4.34731e-19)
(1.3486 0.152988 -3.32323e-19)
(1.36926 0.157066 2.79516e-19)
(1.37876 0.158087 -8.99338e-20)
(1.38032 0.156761 -5.38437e-19)
(1.37665 0.153715 -1.02111e-19)
(1.36977 0.149755 -4.49392e-19)
(1.36086 0.143993 -5.54768e-19)
(0.0298962 -0.00595043 -3.18352e-20)
(0.109992 -0.0151795 2.28083e-19)
(0.211305 -0.0159776 1.65354e-19)
(0.330627 -0.0103841 4.87554e-19)
(0.463921 0.00138601 -1.70071e-20)
(0.605706 0.0185999 2.6234e-19)
(0.749341 0.039915 -5.56662e-19)
(0.887702 0.0635734 1.96488e-19)
(1.01411 0.0876006 -1.65803e-19)
(1.12332 0.110104 2.38699e-19)
(1.21217 0.129563 5.95778e-20)
(1.27985 0.145016 1.39285e-19)
(1.32758 0.156105 4.03185e-19)
(1.35808 0.162991 5.01165e-20)
(1.3748 0.166203 -2.50602e-19)
(1.38127 0.166451 4.15436e-19)
(1.38067 0.164478 1.46747e-19)
(1.37554 0.160927 -6.91895e-20)
(1.36774 0.156539 4.21806e-19)
(1.3583 0.15055 2.78999e-19)
(0.0335817 -0.00608863 1.03958e-19)
(0.120845 -0.014865 1.17633e-19)
(0.229083 -0.0143682 -2.92859e-19)
(0.354763 -0.00694213 -6.80021e-20)
(0.493374 0.00697392 8.71794e-20)
(0.638924 0.0263877 -5.11133e-20)
(0.784348 0.0496864 3.15074e-19)
(0.922325 0.0748825 -9.99124e-20)
(1.0463 0.0998581 -1.23365e-19)
(1.15142 0.122689 -4.2185e-19)
(1.23518 0.141929 -2.68824e-19)
(1.29742 0.156761 -2.50201e-19)
(1.33998 0.166998 -2.03467e-19)
(1.36598 0.17296 7.81096e-20)
(1.37906 0.17529 -1.52035e-19)
(1.38282 0.174768 1.81047e-20)
(1.38032 0.172162 2.91591e-19)
(1.37394 0.168117 3.09951e-19)
(1.36536 0.163312 2.20847e-20)
(1.35549 0.157097 1.94363e-19)
(0.0374533 -0.00612013 5.30544e-20)
(0.132124 -0.0142262 1.99644e-19)
(0.247381 -0.0122316 1.59173e-19)
(0.379355 -0.00280409 -2.66162e-19)
(0.523052 0.0133697 2.46771e-19)
(0.671979 0.0350196 -8.00856e-20)
(0.818699 0.0602563 -1.7194e-19)
(0.955776 0.0868737 4.14485e-19)
(1.07686 0.112636 -1.04541e-19)
(1.1776 0.135621 -3.35971e-21)
(1.25615 0.154486 2.88732e-19)
(1.31303 0.168578 -2.59878e-19)
(1.35063 0.177888 1.14659e-19)
(1.37241 0.182888 -2.89123e-19)
(1.38218 0.184329 4.89204e-19)
(1.38351 0.183046 -3.7167e-19)
(1.37935 0.17982 -2.24783e-19)
(1.37191 0.175293 -2.50053e-21)
(1.36269 0.170079 -3.31349e-19)
(1.35247 0.163636 -4.07274e-21)
(0.0415051 -0.00603419 -2.40049e-19)
(0.143802 -0.0132388 -8.95685e-20)
(0.266145 -0.00953889 -2.95424e-19)
(0.404317 0.00205463 -1.63752e-19)
(0.552837 0.0205853 -8.55222e-20)
(0.704733 0.0444893 -4.06456e-20)
(0.852256 0.0715997 1.90023e-19)
(0.987939 0.0995073 -1.04727e-19)
(1.10573 0.125889 -5.07758e-20)
(1.20185 0.148856 1.29723e-19)
(1.27514 0.167198 -1.75559e-19)
(1.32677 0.180444 2.25272e-19)
(1.35963 0.188764 2.1722e-19)
(1.37749 0.192776 4.91897e-20)
(1.38426 0.193325 -1.38978e-19)
(1.38343 0.191291 -3.259e-20)
(1.37784 0.187459 -1.92376e-19)
(1.3695 0.18246 -8.21317e-20)
(1.35974 0.176842 1.35643e-19)
(1.34924 0.17017 -2.31896e-19)
(0.0457297 -0.00582023 7.90148e-20)
(0.15585 -0.011879 -1.35563e-19)
(0.285317 -0.00626346 2.3115e-19)
(0.42956 0.00765447 1.09068e-19)
(0.582609 0.0286274 -1.57368e-19)
(0.737051 0.0547854 1.94825e-19)
(0.884886 0.0836872 4.91049e-20)
(1.01871 0.112741 -8.91149e-20)
(1.13286 0.139569 2.39688e-19)
(1.22418 0.162352 7.18838e-20)
(1.29219 0.180035 1.37483e-19)
(1.33873 0.192339 -1.42146e-19)
(1.36711 0.199616 -9.53744e-20)
(1.38134 0.202621 2.02846e-19)
(1.38539 0.202281 -5.83776e-20)
(1.38267 0.199508 3.35915e-19)
(1.37583 0.195084 1.78444e-19)
(1.36673 0.18962 -2.9758e-20)
(1.35653 0.183603 9.87957e-20)
(1.3458 0.176699 3.77638e-19)
(0.0501179 -0.00546795 -3.92284e-20)
(0.168234 -0.0101251 2.19523e-20)
(0.304834 -0.00238181 -2.10105e-19)
(0.454988 0.0140115 1.36052e-19)
(0.61225 0.0374973 1.28138e-19)
(0.768801 0.065891 -1.84087e-19)
(0.91647 0.0964855 8.529e-20)
(1.048 0.126533 -1.67216e-19)
(1.15821 0.153632 -2.39669e-19)
(1.24459 0.176068 8.71582e-20)
(1.30738 0.192965 1.61466e-20)
(1.34899 0.204246 1.37764e-19)
(1.37316 0.210438 9.31246e-20)
(1.38407 0.212425 -6.3795e-20)
(1.38567 0.211202 -1.3396e-20)
(1.38128 0.207703 -5.1076e-20)
(1.37337 0.202699 -2.67672e-19)
(1.36364 0.196776 2.24271e-20)
(1.35309 0.190363 -1.79037e-19)
(1.34218 0.183221 1.67018e-21)
(0.0546595 -0.00496749 -4.37432e-20)
(0.180917 -0.00795643 -5.64078e-20)
(0.324629 0.00212637 2.21849e-19)
(0.480506 0.0211369 -2.79074e-20)
(0.641639 0.0471908 1.32669e-21)
(0.799859 0.0777841 -1.24546e-19)
(0.946899 0.109958 -2.23851e-20)
(1.07575 0.140836 8.96884e-20)
(1.18175 0.168034 3.08571e-19)
(1.26311 0.189969 -9.97859e-20)
(1.32076 0.205964 1.71296e-20)
(1.35767 0.216149 5.50656e-20)
(1.37789 0.221225 -1.08209e-19)
(1.38575 0.222187 -7.02134e-20)
(1.38517 0.22009 1.89254e-20)
(1.37932 0.215879 6.66177e-20)
(1.37051 0.210305 1.70728e-19)
(1.36025 0.203929 -4.53597e-21)
(1.34941 0.19712 6.57494e-20)
(1.33837 0.189737 4.53281e-20)
(0.0593425 -0.00430947 7.61592e-20)
(0.193861 -0.00535478 1.57349e-19)
(0.344631 0.00727787 1.09182e-19)
(0.506012 0.0290375 -6.04339e-20)
(0.67066 0.0576984 2.25604e-19)
(0.830105 0.0904381 1.34532e-19)
(0.976074 0.124064 -2.03213e-19)
(1.10188 0.155606 -7.14261e-20)
(1.20348 0.182731 9.78918e-22)
(1.27979 0.204019 -6.0385e-20)
(1.33242 0.219008 -1.7562e-19)
(1.36484 0.228037 2.94487e-20)
(1.38139 0.231971 3.06184e-22)
(1.38648 0.231909 -1.88131e-19)
(1.38396 0.228949 8.68787e-20)
(1.37685 0.224038 -4.71818e-20)
(1.36727 0.217904 -2.09905e-19)
(1.35658 0.211077 1.02423e-19)
(1.34551 0.203872 -2.18672e-19)
(1.33437 0.196241 -1.32167e-19)
(0.0641537 -0.00348516 -2.67325e-20)
(0.207021 -0.00230391 -6.76504e-20)
(0.364768 0.0130857 -1.13712e-19)
(0.531409 0.0377147 -5.53105e-21)
(0.699197 0.0690056 -1.08807e-20)
(0.85943 0.103822 -1.26913e-19)
(1.00391 0.138762 2.95802e-20)
(1.12637 0.170797 2.7889e-20)
(1.2234 0.197681 -5.82252e-20)
(1.29467 0.218185 4.78085e-21)
(1.34243 0.232074 9.24947e-20)
(1.37059 0.239897 -1.22736e-20)
(1.38375 0.242673 7.14653e-20)
(1.38634 0.24159 3.22669e-20)
(1.3821 0.237779 -1.78743e-19)
(1.37389 0.23218 1.37927e-20)
(1.36367 0.225494 1.11246e-19)
(1.35263 0.218218 -2.6805e-20)
(1.34139 0.210617 5.17664e-21)
(1.33017 0.202731 -1.85387e-20)
(0.0690786 -0.00248656 -2.44295e-20)
(0.220352 0.00120998 -2.39614e-20)
(0.384962 0.019559 -4.28431e-20)
(0.556597 0.0471651 -2.8435e-20)
(0.72714 0.0810926 -7.49766e-20)
(0.88773 0.117901 8.75772e-20)
(1.03033 0.154008 1.74774e-19)
(1.14916 0.186362 6.14077e-20)
(1.24152 0.212844 3.16812e-20)
(1.30779 0.232437 -7.61513e-20)
(1.35086 0.245145 -8.31784e-22)
(1.37502 0.25172 5.021e-20)
(1.38506 0.253327 -6.5021e-20)
(1.38538 0.25123 2.50707e-20)
(1.37964 0.246581 8.50647e-20)
(1.3705 0.240305 -2.96717e-20)
(1.35974 0.233074 -5.30313e-20)
(1.34842 0.225349 -4.9594e-20)
(1.33705 0.21735 1.78119e-19)
(1.32579 0.209201 6.29243e-20)
(0.0741012 -0.0013065 -4.34497e-20)
(0.233808 0.00519807 5.28642e-20)
(0.405138 0.0267027 -1.21327e-20)
(0.581475 0.0573806 3.85644e-20)
(0.754383 0.0939348 -3.48977e-20)
(0.914912 0.132637 -2.14876e-20)
(1.05528 0.169755 -8.4799e-20)
(1.17025 0.202257 9.93878e-21)
(1.25786 0.228182 2.43179e-20)
(1.31923 0.246747 5.51342e-20)
(1.35778 0.258201 -2.17335e-20)
(1.3782 0.263497 -1.712e-20)
(1.38537 0.263929 1.59165e-20)
(1.38368 0.260827 -2.82217e-20)
(1.37662 0.255353 6.47894e-20)
(1.36668 0.248411 4.34565e-20)
(1.35549 0.240639 -7.48316e-21)
(1.34396 0.232465 -4.965e-21)
(1.3325 0.224065 -4.80355e-20)
(1.32122 0.215647 -6.04937e-20)
(0.0792048 6.12324e-05 9.35331e-21)
(0.247337 0.00966878 -1.64856e-20)
(0.425218 0.0345176 1.13665e-20)
(0.605947 0.0683477 -1.57407e-20)
(0.780824 0.107503 -6.08174e-20)
(0.94089 0.147988 2.83763e-20)
(1.07869 0.185957 1.39878e-20)
(1.18962 0.218436 -6.66897e-20)
(1.27246 0.243656 -4.23535e-20)
(1.32902 0.261088 -4.07208e-21)
(1.36329 0.271227 -5.99069e-20)
(1.38021 0.275218 6.24171e-20)
(1.38477 0.274476 -1.16625e-22)
(1.38128 0.270379 -8.4539e-21)
(1.37307 0.264093 -1.64451e-20)
(1.36247 0.256495 8.12998e-21)
(1.35093 0.248187 5.7346e-21)
(1.33924 0.239561 -2.27548e-21)
(1.32773 0.230758 -1.75865e-20)
(1.31645 0.222061 2.15972e-20)
(0.0843714 0.00162187 3.11644e-21)
(0.26089 0.0146276 1.08506e-20)
(0.445122 0.0430001 6.09742e-21)
(0.629919 0.0800487 -2.85661e-21)
(0.80637 0.121765 4.01202e-20)
(0.96559 0.163911 -9.031e-21)
(1.10054 0.202565 1.44482e-20)
(1.20727 0.234854 3.21779e-20)
(1.28534 0.25923 -5.8425e-21)
(1.33724 0.275434 1.47193e-21)
(1.36743 0.284206 1.64416e-20)
(1.38112 0.286875 -8.83842e-21)
(1.38331 0.284962 1.15864e-20)
(1.37823 0.279884 2.11486e-21)
(1.36903 0.272798 -2.23177e-20)
(1.35788 0.264551 1.10268e-21)
(1.34607 0.25571 2.94717e-20)
(1.33427 0.24663 -6.20609e-21)
(1.32275 0.23742 9.27376e-21)
(1.31148 0.228439 -1.04784e-20)
(0.0895825 0.00337955 1.27282e-21)
(0.274414 0.0200771 1.59633e-20)
(0.464772 0.0521426 8.69333e-21)
(0.653297 0.0924607 -1.78373e-21)
(0.830932 0.136683 3.69187e-20)
(0.988944 0.180358 -1.05044e-20)
(1.12078 0.219531 1.9785e-20)
(1.22321 0.251468 2.67785e-20)
(1.29655 0.274871 -5.57404e-21)
(1.34395 0.289761 1.26051e-21)
(1.3703 0.297124 1.86035e-20)
(1.38099 0.29846 -7.56984e-21)
(1.38105 0.295382 7.5396e-21)
(1.37457 0.289336 -1.88198e-21)
(1.36453 0.281462 -1.81556e-20)
(1.35292 0.272573 -5.40917e-22)
(1.34091 0.263201 2.92121e-20)
(1.32905 0.253665 -5.78645e-21)
(1.31754 0.244045 1.09383e-20)
(1.30632 0.234771 -1.17913e-20)
(0.0948188 0.00533729 1.11035e-20)
(0.287856 0.0260168 -2.04945e-20)
(0.484093 0.0619329 1.05019e-20)
(0.675996 0.105557 -8.52855e-21)
(0.854429 0.152216 -5.84465e-20)
(1.0109 0.197281 2.38919e-20)
(1.13939 0.236805 1.09747e-20)
(1.23744 0.268235 -7.55248e-20)
(1.30612 0.290545 -3.18976e-20)
(1.3492 0.304047 -2.74224e-23)
(1.37194 0.309966 -5.01e-20)
(1.37989 0.309963 4.21763e-20)
(1.37803 0.30573 -9.57315e-21)
(1.37032 0.298729 6.06595e-21)
(1.35958 0.290079 -2.38399e-20)
(1.34762 0.280556 1.82455e-20)
(1.33546 0.270654 1.17641e-20)
(1.32358 0.260658 -2.0851e-21)
(1.31212 0.250625 -2.3546e-20)
(1.30095 0.241052 2.16248e-20)
(0.10006 0.00749686 -2.39672e-20)
(0.301164 0.032443 -1.10087e-20)
(0.503007 0.0723551 -1.61771e-20)
(0.697929 0.119306 5.58254e-20)
(0.876788 0.168322 2.84284e-22)
(1.03139 0.214629 -3.00098e-20)
(1.15636 0.25434 -1.22937e-19)
(1.25 0.285113 1.21247e-20)
(1.31411 0.30622 1.41177e-20)
(1.35306 0.318268 6.29355e-20)
(1.37242 0.322717 9.49368e-21)
(1.37786 0.321375 -5.39045e-20)
(1.3743 0.315999 5.10943e-20)
(1.36553 0.308058 -2.07761e-20)
(1.3542 0.298643 7.9144e-20)
(1.34196 0.288489 -7.26697e-21)
(1.32972 0.278059 4.17383e-21)
(1.31786 0.267599 3.61168e-21)
(1.30647 0.257152 -6.2692e-20)
(1.29537 0.247272 -3.7933e-20)
(0.105285 0.00985878 -9.00743e-21)
(0.314283 0.0393487 -5.28536e-20)
(0.52144 0.0833887 4.1993e-20)
(0.719019 0.133673 -5.36532e-20)
(0.897939 0.184952 -9.69039e-20)
(1.0504 0.232352 8.50382e-20)
(1.17169 0.272085 1.40758e-19)
(1.2609 0.302059 5.06385e-20)
(1.32057 0.321864 3.53578e-20)
(1.35558 0.332403 -1.01968e-19)
(1.3718 0.335363 7.85978e-20)
(1.37496 0.332685 9.17556e-21)
(1.36989 0.326181 -1.00797e-19)
(1.36022 0.317313 3.95835e-20)
(1.34841 0.307143 1.4193e-19)
(1.33597 0.296366 -9.81224e-20)
(1.3237 0.285406 -2.82576e-20)
(1.31189 0.274481 -2.74684e-20)
(1.30059 0.263616 1.27662e-19)
(1.28958 0.253424 7.32977e-20)
(0.110473 0.0124223 6.26006e-20)
(0.327161 0.0467241 -1.06984e-19)
(0.539322 0.0950096 -1.56716e-19)
(0.739191 0.148619 7.10883e-21)
(0.917826 0.202058 -2.84229e-20)
(1.06788 0.250397 -1.16674e-19)
(1.18537 0.289991 -1.98646e-20)
(1.27017 0.319034 6.0396e-20)
(1.32553 0.337447 -9.77336e-20)
(1.35681 0.346432 8.04707e-20)
(1.37013 0.34789 9.39817e-20)
(1.37124 0.343884 -5.95549e-20)
(1.36484 0.336265 2.44962e-20)
(1.3544 0.326486 1.24985e-19)
(1.34222 0.315571 -1.68071e-19)
(1.32965 0.304174 2.96756e-20)
(1.31739 0.292686 8.11754e-20)
(1.30567 0.281292 -2.47386e-20)
(1.29449 0.270008 -2.64256e-20)
(1.28359 0.259497 -4.47205e-21)
(0.115604 0.0151853 9.2053e-20)
(0.339746 0.054556 1.72264e-19)
(0.556584 0.10719 9.20812e-20)
(0.758378 0.164102 -1.09944e-19)
(0.936394 0.219589 2.88458e-19)
(1.08382 0.268711 4.46634e-20)
(1.19741 0.308011 -1.23745e-19)
(1.27785 0.335999 -8.96484e-20)
(1.32905 0.35294 -7.20615e-20)
(1.35683 0.360332 2.41383e-20)
(1.36747 0.360282 -8.22651e-20)
(1.36672 0.354959 2.74044e-21)
(1.35917 0.346243 -5.65351e-20)
(1.3481 0.335567 -7.77432e-20)
(1.33563 0.323916 -1.33382e-20)
(1.323 0.311904 -8.3437e-21)
(1.31079 0.299888 -1.5009e-19)
(1.29919 0.288023 1.14213e-19)
(1.28816 0.276318 -1.74507e-19)
(1.27739 0.265484 -1.02199e-19)
(0.120655 0.0181444 -1.11586e-19)
(0.351988 0.0628284 -4.62145e-20)
(0.573161 0.119898 2.06475e-19)
(0.776516 0.180077 5.28252e-20)
(0.9536 0.237491 -1.81349e-19)
(1.09819 0.28724 -1.05513e-19)
(1.20781 0.326096 -3.51414e-20)
(1.28396 0.352914 2.29419e-19)
(1.33118 0.368313 1.64889e-19)
(1.35567 0.374084 -5.68725e-20)
(1.36386 0.372525 -3.33005e-20)
(1.36146 0.365899 8.43115e-20)
(1.35292 0.356103 -9.26606e-20)
(1.34133 0.344545 4.32415e-20)
(1.32866 0.332167 1.90302e-20)
(1.31602 0.319543 -2.3929e-20)
(1.30391 0.307 1.82836e-19)
(1.29246 0.294662 -7.75905e-20)
(1.2816 0.282536 1.57508e-19)
(1.27097 0.271375 -5.5838e-20)
(0.125608 0.021295 -6.2529e-20)
(0.363838 0.0715224 -1.16263e-19)
(0.588992 0.133099 -1.85434e-19)
(0.793549 0.196496 1.12457e-19)
(0.969405 0.255711 6.19713e-20)
(1.11098 0.305929 -8.85812e-20)
(1.21661 0.344199 1.48455e-19)
(1.28856 0.369741 -2.30074e-19)
(1.33197 0.383538 -2.4592e-19)
(1.35338 0.387667 1.49302e-19)
(1.35934 0.384603 5.61642e-20)
(1.35549 0.37669 -6.29222e-20)
(1.3461 0.365832 9.58684e-20)
(1.33411 0.353407 7.59361e-20)
(1.32132 0.340312 -5.5974e-20)
(1.30872 0.327081 -1.92549e-20)
(1.29674 0.314011 -1.39604e-19)
(1.28547 0.301199 2.88898e-20)
(1.2748 0.288652 -1.20676e-19)
(1.26434 0.27716 -1.98606e-20)
(0.13044 0.0246311 5.20154e-20)
(0.375249 0.0806163 -9.0993e-20)
(0.604019 0.146756 1.67174e-19)
(0.809426 0.213309 2.84047e-19)
(0.983779 0.274191 -4.10433e-19)
(1.12219 0.324725 3.63095e-19)
(1.22381 0.362272 9.77563e-20)
(1.29167 0.386443 -1.42571e-19)
(1.33146 0.398588 1.69651e-19)
(1.35002 0.40106 1.00797e-19)
(1.35396 0.3965 1.25758e-19)
(1.34883 0.387319 -2.1942e-19)
(1.33874 0.375419 -4.56742e-20)
(1.32644 0.362141 1.09949e-19)
(1.3136 0.348337 4.21758e-20)
(1.30109 0.334503 1.96168e-19)
(1.28929 0.320908 2.47968e-19)
(1.27822 0.307622 -6.13876e-20)
(1.26777 0.294653 1.07686e-19)
(1.25751 0.282828 1.21417e-19)
(0.135132 0.0281457 -1.48632e-20)
(0.386175 0.0900856 -2.10936e-19)
(0.61819 0.160827 -2.9182e-19)
(0.824101 0.230463 -3.82891e-19)
(0.996696 0.292876 -3.71306e-20)
(1.13182 0.343574 1.417e-19)
(1.22945 0.38027 -2.74233e-20)
(1.29334 0.402984 4.82915e-20)
(1.32971 0.413434 -7.48978e-20)
(1.34563 0.414242 1.26075e-19)
(1.34775 0.4082 -1.93588e-19)
(1.34151 0.397771 2.54176e-19)
(1.33085 0.384848 1.46963e-19)
(1.31835 0.370732 6.75328e-20)
(1.30552 0.35623 -1.01342e-19)
(1.29315 0.341798 -1.08771e-19)
(1.28155 0.327679 -1.0441e-19)
(1.27072 0.313919 7.6998e-21)
(1.26051 0.300528 1.40355e-19)
(1.25046 0.288368 -1.47675e-19)
(0.139665 0.0318302 -2.65157e-20)
(0.396575 0.0999037 1.64766e-19)
(0.631457 0.17527 2.08009e-19)
(0.837537 0.247905 -3.25596e-20)
(1.00814 0.311708 9.83192e-20)
(1.13987 0.362423 2.63216e-20)
(1.23355 0.398148 -1.44511e-19)
(1.29361 0.419328 1.15154e-19)
(1.32675 0.42805 1.08371e-19)
(1.34024 0.427192 -1.89811e-19)
(1.34075 0.419685 3.07248e-19)
(1.33357 0.408031 -2.57784e-19)
(1.32246 0.394106 1.49682e-19)
(1.30983 0.379167 -2.19719e-19)
(1.29707 0.363975 3.25608e-19)
(1.28489 0.34895 -2.07318e-19)
(1.27352 0.334311 -6.10943e-20)
(1.26296 0.320078 -8.27557e-20)
(1.25302 0.306262 -1.75717e-19)
(1.2432 0.293765 2.6342e-21)
(0.144019 0.0356752 1.91832e-19)
(0.406408 0.110041 2.05368e-19)
(0.643774 0.19004 -2.97874e-19)
(0.849701 0.265579 -1.81994e-19)
(1.0181 0.33063 2.7159e-19)
(1.14637 0.381217 -1.08874e-19)
(1.23614 0.415859 1.59773e-19)
(1.29253 0.435439 6.91769e-20)
(1.32264 0.442409 -1.61878e-19)
(1.33392 0.439891 -4.03965e-19)
(1.33299 0.430937 -7.25344e-20)
(1.32501 0.418083 -1.53073e-19)
(1.31357 0.403178 -2.28857e-19)
(1.3009 0.387431 1.86845e-20)
(1.28827 0.371559 -2.38229e-20)
(1.27631 0.355948 -2.34143e-20)
(1.26522 0.340792 1.91044e-19)
(1.25494 0.326088 1.3872e-19)
(1.24529 0.31185 1.51448e-20)
(1.23568 0.299015 8.13604e-20)
(0.148177 0.03967 -4.61971e-20)
(0.415636 0.120468 3.63405e-19)
(0.655103 0.205088 1.42434e-19)
(0.860565 0.283429 2.9058e-19)
(1.02657 0.349583 9.48106e-20)
(1.15132 0.399905 3.61945e-20)
(1.23726 0.433361 -2.32802e-19)
(1.29013 0.451284 -7.55653e-20)
(1.31741 0.456484 3.75958e-20)
(1.32668 0.452315 3.00215e-19)
(1.3245 0.44194 -9.89512e-20)
(1.31587 0.427911 1.23195e-19)
(1.3042 0.412047 2.62737e-19)
(1.29156 0.395509 6.03103e-20)
(1.27912 0.378967 -5.29269e-20)
(1.26742 0.362775 7.19216e-20)
(1.25663 0.347107 1.37975e-19)
(1.24667 0.331938 6.37382e-20)
(1.23734 0.317301 1.63066e-19)
(1.22793 0.304146 1.24582e-19)
(0.152121 0.043803 -1.202e-19)
(0.424227 0.131149 -1.8654e-19)
(0.66541 0.220366 1.18963e-19)
(0.870109 0.301397 4.0052e-20)
(1.03354 0.368511 8.02118e-20)
(1.15474 0.418434 -3.29889e-19)
(1.23694 0.450611 1.20433e-19)
(1.28646 0.466828 -2.61088e-19)
(1.31111 0.470249 -1.45771e-19)
(1.31857 0.464445 1.71204e-19)
(1.31531 0.452675 -1.84135e-20)
(1.30617 0.437498 1.14754e-20)
(1.29437 0.420697 -3.19821e-19)
(1.28183 0.403383 -1.30064e-19)
(1.26963 0.386183 1.08549e-19)
(1.25822 0.369418 -1.90677e-19)
(1.24776 0.353243 -1.03031e-19)
(1.23815 0.33761 -1.04197e-19)
(1.22915 0.322593 -1.83603e-19)
(1.22001 0.309097 -4.23007e-19)
(0.155836 0.0480615 7.02241e-20)
(0.432148 0.142051 -8.7615e-20)
(0.674666 0.235824 -4.80942e-19)
(0.878316 0.319426 2.60792e-19)
(1.03903 0.387354 -3.26488e-19)
(1.15667 0.436753 -4.64369e-20)
(1.23522 0.467566 -4.53193e-19)
(1.28156 0.482038 4.85763e-19)
(1.30379 0.483678 2.79135e-19)
(1.30963 0.476259 -1.67672e-20)
(1.30545 0.463122 1.01274e-19)
(1.29592 0.446827 -1.28753e-19)
(1.28408 0.429112 -1.05291e-20)
(1.27172 0.41104 6.06293e-20)
(1.25979 0.393192 -6.34613e-20)
(1.24872 0.375863 1.20619e-19)
(1.23861 0.359186 -1.62023e-19)
(1.22938 0.343097 -1.45436e-19)
(1.22072 0.327701 8.27793e-20)
(1.21191 0.313874 1.12475e-19)
(0.159306 0.0524321 1.5984e-19)
(0.439373 0.153138 1.61706e-19)
(0.682844 0.251409 1.25724e-19)
(0.885177 0.337457 -3.58225e-21)
(1.04304 0.406058 -8.42938e-20)
(1.15712 0.454813 5.75984e-19)
(1.23214 0.484185 3.28941e-19)
(1.27548 0.496882 2.23877e-19)
(1.29548 0.496744 3.20573e-19)
(1.29989 0.487736 3.98982e-20)
(1.29495 0.473264 -2.71369e-19)
(1.28515 0.455879 -2.95998e-20)
(1.27335 0.437275 -6.02133e-20)
(1.26122 0.418461 -1.9762e-19)
(1.24961 0.399979 -7.49142e-20)
(1.23891 0.382094 -1.056e-19)
(1.22919 0.364923 3.32537e-19)
(1.22035 0.348385 -4.64778e-21)
(1.21208 0.332616 9.52933e-20)
(1.20361 0.318461 7.64022e-20)
(0.162517 0.0569005 -5.37371e-20)
(0.445876 0.164371 -9.37612e-20)
(0.689926 0.267071 -2.05986e-19)
(0.890687 0.355431 -3.51307e-20)
(1.04558 0.424564 -3.45952e-19)
(1.15613 0.472564 -2.50514e-19)
(1.22774 0.500429 8.35004e-20)
(1.26826 0.511328 -6.12476e-19)
(1.28623 0.509423 -3.34584e-19)
(1.28938 0.498853 8.17697e-20)
(1.28382 0.48308 -4.31949e-20)
(1.27386 0.464636 2.48495e-19)
(1.2622 0.445167 3.41859e-19)
(1.25035 0.425631 8.71539e-20)
(1.23911 0.406527 2.38988e-19)
(1.2288 0.388097 -1.26782e-19)
(1.2195 0.37044 1.76351e-19)
(1.21108 0.353463 9.90793e-20)
(1.20322 0.337327 8.69376e-20)
(1.19511 0.322851 -1.65995e-19)
(0.165458 0.0614515 8.00554e-20)
(0.451636 0.175712 -9.28595e-21)
(0.695896 0.282755 -3.18524e-19)
(0.894845 0.373292 -4.89059e-22)
(1.04668 0.442819 7.78957e-19)
(1.15373 0.489958 1.56744e-19)
(1.22206 0.516257 1.19458e-19)
(1.25994 0.525344 3.54854e-19)
(1.27607 0.52169 -2.89065e-19)
(1.27813 0.50959 -3.13248e-19)
(1.2721 0.492551 -3.68259e-21)
(1.26209 0.473081 -2.26935e-19)
(1.25063 0.452773 -1.27379e-19)
(1.23912 0.432532 3.46329e-19)
(1.22828 0.412821 -9.17918e-20)
(1.21841 0.393857 6.01381e-21)
(1.20954 0.375723 -1.27848e-19)
(1.20158 0.358316 -1.96874e-19)
(1.19414 0.341823 1.26173e-20)
(1.18641 0.327033 1.89571e-19)
(0.168116 0.0660696 -3.86563e-19)
(0.456635 0.187123 2.43174e-19)
(0.700743 0.298409 5.46962e-19)
(0.897657 0.390981 1.7297e-19)
(1.04636 0.460768 -9.16707e-19)
(1.14996 0.506948 -3.8219e-19)
(1.21515 0.531633 -3.01646e-19)
(1.25057 0.538901 -1.10889e-19)
(1.26504 0.533518 3.79655e-19)
(1.26618 0.519924 4.10489e-20)
(1.25981 0.501658 -8.19685e-20)
(1.24984 0.481195 1.49939e-19)
(1.23865 0.460073 2.23102e-20)
(1.22754 0.439149 -4.14302e-19)
(1.21714 0.418846 1.26408e-19)
(1.20772 0.39936 1.69901e-19)
(1.19932 0.380759 8.28209e-20)
(1.19183 0.362932 1.1316e-19)
(1.18485 0.346093 -2.01718e-19)
(1.17752 0.330998 -9.89483e-20)
(0.170481 0.0707385 -2.64604e-20)
(0.460859 0.198562 1.22578e-19)
(0.704462 0.31398 6.17284e-20)
(0.899132 0.408442 1.84439e-19)
(1.04464 0.478356 5.11931e-19)
(1.14485 0.523489 -3.36271e-19)
(1.20705 0.546519 -2.07267e-20)
(1.24019 0.551969 3.29709e-19)
(1.25318 0.544885 -4.04748e-19)
(1.25356 0.529836 1.33188e-19)
(1.24697 0.510381 3.47471e-19)
(1.23714 0.488959 8.00959e-20)
(1.22629 0.467052 -1.76576e-19)
(1.21562 0.445465 2.99488e-19)
(1.2057 0.424587 -3.53229e-19)
(1.19676 0.404591 1.19588e-20)
(1.18884 0.385536 -8.42981e-20)
(1.18185 0.367299 1.51079e-19)
(1.17535 0.350126 1.34592e-19)
(1.16845 0.334736 1.21359e-19)
(0.172545 0.0754416 5.00643e-20)
(0.464297 0.209989 1.96026e-19)
(0.70705 0.329413 1.95444e-19)
(0.899283 0.425619 -1.2547e-19)
(1.04155 0.495534 1.12301e-20)
(1.13845 0.539536 3.12098e-19)
(1.1978 0.560879 5.58995e-19)
(1.22884 0.564518 -5.75757e-20)
(1.24053 0.555765 5.48293e-20)
(1.2403 0.539303 -1.66542e-19)
(1.2336 0.518701 -3.56444e-19)
(1.22399 0.496355 5.80632e-20)
(1.21355 0.473691 2.06689e-19)
(1.20337 0.451463 -4.24908e-20)
(1.19395 0.430027 -3.58045e-20)
(1.18552 0.409536 -1.42538e-19)
(1.17811 0.390038 -2.51922e-20)
(1.17164 0.371404 -5.72672e-20)
(1.16564 0.35391 -4.77128e-20)
(1.1592 0.338238 -1.14549e-19)
(0.174301 0.0801619 -1.72621e-19)