/*--------------------------------*- C++ -*----------------------------------*\
  =========                 |
  \\      /  F ield         | OpenFOAM: The Open Source CFD Toolbox
   \\    /   O peration     | Website:  https://openfoam.org
    \\  /    A nd           | Version:  7
     \\/     M anipulation  |
\*---------------------------------------------------------------------------*/
FoamFile
{
    version     2.0;
    format      ascii;
    class       volScalarField;
    location    "30";
    object      p;
}
// * * * * * * * * * * * * * * * * * * * * * * * * * * * * * * * * * * * * * //

dimensions      [0 2 -2 0 0 0 0];

internalField   nonuniform List<scalar> 
21350
(
-0.256561
-0.259581
-0.257998
-0.262744
-0.260996
-0.259248
-0.266051
-0.264129
-0.262243
-0.2601
-0.269505
-0.2674
-0.265371
-0.263086
-0.260568
-0.273108
-0.270811
-0.268632
-0.266203
-0.263541
-0.260732
-0.276861
-0.274363
-0.27203
-0.269452
-0.266644
-0.263693
-0.260648
-0.280764
-0.278056
-0.275564
-0.272834
-0.269876
-0.266783
-0.263598
-0.260357
-0.25708
-0.284817
-0.281891
-0.279235
-0.27635
-0.273241
-0.270001
-0.266674
-0.26329
-0.259866
-0.256401
-0.289017
-0.285866
-0.283043
-0.28
-0.276736
-0.273348
-0.269876
-0.266344
-0.262765
-0.259131
-0.255418
-0.293364
-0.289979
-0.286986
-0.283782
-0.280363
-0.276824
-0.273202
-0.269516
-0.265772
-0.261956
-0.258036
-0.253972
-0.249713
-0.297852
-0.294229
-0.291062
-0.287696
-0.284119
-0.280426
-0.27665
-0.272803
-0.268884
-0.264871
-0.260725
-0.256401
-0.251845
-0.247011
-0.241862
-0.302479
-0.298611
-0.295268
-0.291739
-0.288001
-0.284152
-0.280217
-0.276201
-0.272094
-0.267867
-0.263475
-0.258866
-0.253987
-0.248793
-0.243256
-0.237366
-0.307239
-0.30312
-0.299599
-0.295906
-0.292007
-0.287998
-0.283897
-0.279703
-0.275395
-0.270935
-0.266274
-0.261354
-0.256125
-0.250545
-0.244595
-0.238278
-0.231619
-0.224667
-0.312124
-0.307751
-0.304051
-0.300192
-0.29613
-0.291958
-0.287685
-0.283301
-0.278776
-0.274064
-0.269108
-0.263852
-0.258244
-0.252252
-0.245867
-0.239104
-0.232005
-0.224629
-0.217051
-0.209349
-0.317127
-0.312496
-0.308616
-0.304592
-0.300365
-0.296026
-0.291573
-0.286986
-0.282226
-0.277239
-0.271964
-0.266342
-0.260328
-0.253899
-0.247056
-0.239833
-0.232283
-0.22448
-0.216507
-0.208448
-0.200381
-0.192374
-0.322237
-0.317346
-0.313287
-0.309097
-0.304704
-0.300192
-0.29555
-0.290747
-0.285733
-0.280448
-0.274825
-0.268809
-0.262361
-0.255469
-0.24815
-0.240452
-0.232444
-0.224212
-0.215846
-0.207435
-0.199058
-0.190783
-0.18267
-0.174703
-0.327445
-0.322292
-0.318055
-0.313699
-0.309137
-0.304447
-0.299606
-0.294571
-0.289282
-0.283672
-0.277674
-0.271235
-0.264325
-0.256947
-0.249134
-0.24095
-0.232479
-0.223817
-0.215062
-0.206305
-0.197625
-0.189088
-0.180747
-0.172593
-0.164947
-0.332737
-0.327322
-0.322908
-0.318386
-0.313654
-0.30878
-0.303728
-0.298443
-0.292856
-0.286895
-0.280491
-0.2736
-0.266203
-0.258317
-0.249995
-0.241317
-0.232379
-0.223289
-0.214149
-0.205053
-0.196078
-0.187285
-0.178723
-0.170385
-0.162559
-0.338099
-0.332424
-0.327834
-0.323148
-0.318242
-0.313176
-0.3079
-0.302346
-0.296438
-0.290096
-0.283258
-0.275886
-0.267976
-0.259564
-0.25072
-0.24154
-0.232136
-0.222621
-0.213103
-0.203674
-0.194411
-0.185369
-0.176592
-0.168074
-0.160072
-0.343516
-0.337582
-0.332819
-0.327969
-0.322887
-0.317621
-0.312106
-0.306263
-0.300007
-0.293257
-0.285954
-0.278073
-0.269628
-0.260672
-0.251295
-0.24161
-0.23174
-0.221805
-0.211916
-0.202164
-0.19262
-0.183336
-0.17435
-0.165656
-0.157483
-0.348971
-0.342781
-0.337848
-0.332835
-0.327572
-0.322097
-0.316328
-0.310174
-0.303542
-0.296354
-0.288558
-0.280142
-0.271139
-0.261625
-0.251708
-0.241517
-0.231184
-0.220836
-0.210584
-0.200516
-0.190699
-0.181182
-0.171992
-0.163128
-0.154787
-0.354445
-0.348004
-0.342904
-0.337728
-0.332281
-0.326585
-0.320546
-0.314057
-0.307022
-0.299366
-0.291047
-0.282071
-0.272493
-0.262409
-0.251947
-0.241249
-0.230459
-0.219706
-0.2091
-0.198725
-0.188645
-0.1789
-0.169514
-0.160485
-0.15198
-0.359917
-0.353231
-0.347969
-0.34263
-0.336994
-0.331066
-0.324736
-0.317888
-0.310422
-0.302268
-0.293399
-0.283841
-0.273671
-0.263008
-0.251998
-0.240798
-0.229558
-0.218408
-0.207458
-0.196787
-0.186451
-0.176487
-0.16691
-0.157721
-0.149059
-0.365367
-0.358442
-0.353021
-0.347521
-0.341689
-0.335517
-0.328877
-0.321644
-0.313718
-0.305038
-0.295593
-0.285432
-0.274656
-0.263408
-0.251852
-0.240155
-0.228472
-0.216936
-0.205652
-0.194694
-0.184112
-0.173937
-0.164177
-0.154834
-0.146018
-0.370769
-0.363614
-0.35804
-0.352378
-0.346344
-0.339914
-0.332943
-0.3253
-0.316885
-0.30765
-0.297605
-0.286823
-0.275432
-0.263596
-0.251495
-0.239308
-0.227194
-0.215283
-0.203676
-0.192442
-0.181624
-0.171245
-0.16131
-0.151819
-0.142854
-0.376101
-0.368724
-0.363002
-0.357177
-0.350935
-0.344232
-0.336909
-0.328827
-0.319896
-0.31008
-0.299413
-0.287996
-0.275982
-0.263557
-0.250918
-0.238251
-0.225716
-0.213443
-0.201525
-0.190025
-0.178979
-0.168406
-0.158303
-0.148671
-0.139564
-0.381335
-0.373747
-0.367882
-0.361895
-0.355436
-0.348444
-0.340746
-0.3322
-0.322724
-0.312303
-0.300995
-0.288931
-0.27629
-0.26328
-0.25011
-0.236974
-0.224031
-0.211408
-0.199191
-0.187437
-0.176174
-0.165415
-0.155152
-0.145386
-0.136143
-0.386445
-0.378657
-0.372655
-0.366504
-0.359819
-0.352522
-0.344426
-0.335391
-0.325344
-0.314294
-0.30233
-0.28961
-0.276342
-0.262751
-0.249061
-0.235468
-0.222131
-0.209171
-0.196669
-0.184672
-0.173203
-0.162267
-0.151853
-0.14196
-0.132588
-0.391402
-0.383427
-0.377292
-0.370976
-0.364057
-0.356437
-0.347921
-0.33837
-0.327728
-0.31603
-0.303396
-0.290015
-0.276121
-0.261959
-0.24776
-0.233725
-0.220009
-0.206728
-0.193953
-0.181725
-0.17006
-0.158957
-0.148401
-0.138389
-0.128895
-0.396176
-0.388027
-0.381766
-0.375284
-0.36812
-0.36016
-0.3512
-0.341109
-0.32985
-0.317486
-0.304173
-0.290129
-0.275615
-0.260891
-0.246199
-0.231737
-0.217658
-0.20407
-0.191036
-0.17859
-0.16674
-0.155481
-0.144792
-0.134668
-0.12506
-0.400737
-0.392429
-0.386048
-0.379396
-0.371978
-0.36366
-0.354235
-0.343579
-0.331682
-0.31864
-0.30464
-0.289936
-0.27481
-0.259538
-0.244367
-0.229496
-0.215071
-0.201191
-0.187913
-0.175261
-0.163239
-0.151833
-0.141021
-0.130794
-0.121081
-0.405054
-0.396602
-0.390106
-0.383283
-0.375599
-0.366906
-0.356993
-0.345752
-0.3332
-0.319468
-0.304779
-0.289419
-0.273692
-0.257888
-0.242257
-0.226994
-0.21224
-0.198085
-0.184577
-0.171734
-0.15955
-0.148009
-0.137084
-0.126764
-0.116953
-0.409097
-0.400515
-0.393911
-0.386914
-0.378953
-0.369867
-0.359446
-0.3476
-0.334378
-0.319948
-0.304572
-0.288564
-0.27225
-0.255932
-0.239859
-0.224224
-0.20916
-0.194747
-0.181024
-0.168002
-0.15567
-0.144004
-0.132978
-0.122573
-0.112675
-0.412831
-0.404137
-0.397429
-0.390255
-0.382007
-0.372511
-0.361563
-0.349095
-0.335191
-0.32006
-0.304
-0.287356
-0.270473
-0.253659
-0.237166
-0.22118
-0.205824
-0.19117
-0.177248
-0.164062
-0.151594
-0.139815
-0.128698
-0.118218
-0.108242
-0.416225
-0.407436
-0.40063
-0.393276
-0.384729
-0.374807
-0.363314
-0.35021
-0.335617
-0.319784
-0.303048
-0.285783
-0.268349
-0.251062
-0.23417
-0.217853
-0.202225
-0.187348
-0.173243
-0.159907
-0.147316
-0.135438
-0.124241
-0.113697
-0.103653
-0.419246
-0.410379
-0.403482
-0.395944
-0.387088
-0.376725
-0.364671
-0.350919
-0.335632
-0.319101
-0.301701
-0.283832
-0.265869
-0.248131
-0.230864
-0.214238
-0.198358
-0.183276
-0.169005
-0.155534
-0.142835
-0.130869
-0.119605
-0.109006
-0.098905
-0.421863
-0.412936
-0.405953
-0.398227
-0.389052
-0.378233
-0.365607
-0.351198
-0.335214
-0.317993
-0.299944
-0.281491
-0.263023
-0.244859
-0.227241
-0.210329
-0.194217
-0.178949
-0.164529
-0.150939
-0.138144
-0.126104
-0.114785
-0.104143
-0.0939956
-0.424044
-0.415074
-0.40801
-0.400094
-0.39059
-0.379304
-0.366093
-0.351022
-0.334345
-0.316444
-0.297764
-0.278751
-0.259802
-0.241239
-0.223294
-0.206119
-0.189798
-0.174363
-0.159811
-0.146116
-0.133242
-0.121141
-0.109779
-0.0991046
-0.0889231
-0.425757
-0.416763
-0.409623
-0.401514
-0.391672
-0.379907
-0.366103
-0.350369
-0.333006
-0.314439
-0.295148
-0.2756
-0.256199
-0.237264
-0.219018
-0.201604
-0.185095
-0.169512
-0.154846
-0.141064
-0.128124
-0.115976
-0.104586
-0.0938901
-0.0836858
-0.426972
-0.417972
-0.410761
-0.402455
-0.392268
-0.380016
-0.365615
-0.349218
-0.331178
-0.311964
-0.292087
-0.272031
-0.252206
-0.232927
-0.214408
-0.19678
-0.180104
-0.164394
-0.149631
-0.135778
-0.122788
-0.110608
-0.0992016
-0.088497
-0.0782823
-0.427659
-0.418671
-0.411394
-0.402889
-0.39235
-0.379604
-0.364603
-0.347549
-0.328846
-0.309006
-0.288569
-0.268035
-0.247818
-0.228223
-0.209458
-0.19164
-0.174821
-0.159003
-0.144163
-0.130256
-0.117231
-0.105033
-0.0936253
-0.0829241
-0.0727115
-0.427789
-0.418831
-0.411494
-0.402788
-0.391891
-0.378648
-0.363047
-0.345345
-0.325996
-0.305553
-0.284586
-0.263607
-0.243027
-0.223149
-0.204165
-0.186183
-0.169242
-0.153338
-0.138439
-0.124495
-0.111452
-0.0992507
-0.0878553
-0.0771701
-0.0669724
-0.427335
-0.418425
-0.411033
-0.402124
-0.390866
-0.377123
-0.360928
-0.342589
-0.322614
-0.301597
-0.280131
-0.258739
-0.23783
-0.217698
-0.198525
-0.180404
-0.163366
-0.147396
-0.132457
-0.118494
-0.105448
-0.0932592
-0.0818904
-0.0712341
-0.0610643
-0.426271
-0.417426
-0.409984
-0.400872
-0.389251
-0.375009
-0.358226
-0.339267
-0.31869
-0.297128
-0.275197
-0.253426
-0.232223
-0.211869
-0.192534
-0.174301
-0.157188
-0.141174
-0.126214
-0.11225
-0.099219
-0.0870575
-0.0757299
-0.0651157
-0.0549873
-0.424572
-0.41581
-0.408323
-0.399008
-0.387024
-0.372286
-0.354926
-0.335365
-0.314213
-0.292139
-0.269779
-0.247666
-0.226202
-0.205658
-0.186192
-0.167872
-0.150708
-0.134672
-0.119711
-0.105763
-0.092763
-0.0806447
-0.0693729
-0.0588154
-0.0487439
-0.422216
-0.413554
-0.406027
-0.39651
-0.384163
-0.368936
-0.351013
-0.330873
-0.309175
-0.286624
-0.263872
-0.241454
-0.219765
-0.199064
-0.179495
-0.161115
-0.143925
-0.127887
-0.112945
-0.0990324
-0.0860799
-0.0740201
-0.0628188
-0.0523334
-0.0423348
-0.419181
-0.410635
-0.403075
-0.393357
-0.380652
-0.364944
-0.346475
-0.325781
-0.303571
-0.28058
-0.257473
-0.234788
-0.21291
-0.192085
-0.172443
-0.15403
-0.136837
-0.12082
-0.105917
-0.0920576
-0.0791697
-0.0671838
-0.0560675
-0.0456672
-0.0357429
-0.415448
-0.407035
-0.399446
-0.389531
-0.376474
-0.360297
-0.341301
-0.320083
-0.297394
-0.274002
-0.250582
-0.227668
-0.205637
-0.184721
-0.165035
-0.146617
-0.129445
-0.113471
-0.0986265
-0.0848394
-0.0720332
-0.0601372
-0.0491211
-0.0388119
-0.0289298
-0.411001
-0.402736
-0.395125
-0.385017
-0.371615
-0.354983
-0.335484
-0.313771
-0.290642
-0.266889
-0.243196
-0.220094
-0.197947
-0.176972
-0.157273
-0.138875
-0.12175
-0.10584
-0.0910753
-0.0773789
-0.0646719
-0.0528826
-0.0419828
-0.0317698
-0.0219079
-0.405824
-0.397723
-0.390095
-0.3798
-0.366062
-0.348993
-0.329016
-0.306843
-0.283313
-0.259241
-0.235318
-0.212066
-0.189839
-0.168839
-0.149158
-0.130807
-0.113752
-0.0979294
-0.0832644
-0.0696777
-0.0570875
-0.0454221
-0.0346521
-0.0245474
-0.0148459
-0.399904
-0.391982
-0.384344
-0.373868
-0.359806
-0.342319
-0.321893
-0.299296
-0.275406
-0.251058
-0.226947
-0.203587
-0.181317
-0.160325
-0.14069
-0.122414
-0.105454
-0.0897407
-0.0751961
-0.0617379
-0.0492824
-0.0377577
-0.0271328
-0.0171524
-0.0076258
-0.393232
-0.385502
-0.377862
-0.367212
-0.35284
-0.334958
-0.314113
-0.29113
-0.266923
-0.242344
-0.218087
-0.194659
-0.172382
-0.151433
-0.131874
-0.113699
-0.096858
-0.0812765
-0.0668728
-0.0535623
-0.0412593
-0.0298917
-0.0194276
-0.00959051
-0.000237902
-0.385798
-0.378274
-0.370639
-0.359825
-0.345159
-0.326905
-0.305675
-0.282346
-0.257866
-0.233101
-0.208742
-0.185286
-0.16304
-0.142165
-0.122713
-0.104666
-0.0879678
-0.0725402
-0.0582978
-0.0451539
-0.033021
-0.0218272
-0.0115396
-0.00186133
0.00731293
-0.377598
-0.370293
-0.362669
-0.351702
-0.336759
-0.318161
-0.296581
-0.272948
-0.248241
-0.223334
-0.198917
-0.175473
-0.153295
-0.132527
-0.11321
-0.0953181
-0.0787872
-0.0635358
-0.049475
-0.0365165
-0.0245711
-0.0135674
-0.00347192
0.00603376
0.015021
-0.368627
-0.361553
-0.353949
-0.342841
-0.327641
-0.308726
-0.286835
-0.262941
-0.238051
-0.21305
-0.188618
-0.165227
-0.143151
-0.122524
-0.103371
-0.0856605
-0.0693212
-0.0542675
-0.0404086
-0.0276542
-0.0159137
-0.00511643
0.00477184
0.0140919
0.0228812
-0.358884
-0.352054
-0.344478
-0.333241
-0.317805
-0.298606
-0.276441
-0.252331
-0.227306
-0.202255
-0.177853
-0.154553
-0.132617
-0.112161
-0.0932026
-0.0756989
-0.0595747
-0.0447406
-0.0311036
-0.0185719
-0.00705344
0.00352146
0.0131877
0.0223093
0.0308889
-0.348371
-0.341796
-0.334257
-0.322905
-0.307256
-0.287804
-0.265407
-0.241126
-0.216013
-0.190959
-0.166628
-0.14346
-0.121699
-0.101446
-0.0827102
-0.0654394
-0.0495538
-0.0349609
-0.0215655
-0.00927472
0.00200469
0.0123414
0.021771
0.0306816
0.0390391
-0.337091
-0.330782
-0.323289
-0.311837
-0.296
-0.27633
-0.253741
-0.229335
-0.204182
-0.17917
-0.154955
-0.131956
-0.110405
-0.0903875
-0.0719015
-0.0548891
-0.0392653
-0.0249347
-0.0118006
0.000231277
0.011255
0.0213379
0.0305167
0.0392038
0.0473269
-0.325051
-0.319017
-0.31158
-0.300045
-0.284046
-0.264192
-0.241455
-0.216971
-0.191824
-0.166901
-0.142842
-0.120052
-0.098744
-0.0789927
-0.0607846
-0.0440555
-0.0287164
-0.0146692
-0.00181554
0.0099397
0.0206914
0.0305052
0.0394192
0.0478705
0.0557471
-0.312257
-0.306509
-0.299137
-0.287536
-0.271403
-0.251403
-0.22856
-0.204046
-0.178953
-0.154163
-0.130302
-0.107758
-0.0867269
-0.0672713
-0.0493682
-0.0329472
-0.0179152
-0.00417182
0.00838239
0.0198435
0.0303071
0.039837
0.0484725
0.0566758
0.064294
-0.298722
-0.293268
-0.285972
-0.274324
-0.258083
-0.237975
-0.215072
-0.190573
-0.165581
-0.140968
-0.117346
-0.0950847
-0.0743639
-0.0552335
-0.0376619
-0.021573
-0.00687016
0.0065491
0.0187853
0.0299353
0.0400949
0.0493262
0.0576699
0.0656134
0.0729617
-0.284458
-0.279306
-0.272097
-0.26042
-0.244103
-0.223924
-0.201004
-0.176568
-0.151723
-0.127332
-0.103989
-0.0820454
-0.0616666
-0.0428901
-0.025676
-0.00994269
0.00440946
0.0174848
0.0293848
0.0402068
0.0500472
0.0589655
0.0670045
0.0746764
0.0817437
-0.269479
-0.264638
-0.257526
-0.24584
-0.229476
-0.209266
-0.186374
-0.162049
-0.137396
-0.113269
-0.0902432
-0.0686529
-0.0486472
-0.0302526
-0.0134211
0.0019335
0.0159139
0.028626
0.0401719
0.0506496
0.0601555
0.0687471
0.0764686
0.0838577
0.0906332
-0.253803
-0.249279
-0.242276
-0.230602
-0.214222
-0.19402
-0.171202
-0.147032
-0.122615
-0.0987945
-0.0761247
-0.0549212
-0.0353189
-0.0173332
-0.000908929
0.0140447
0.0276328
0.0399627
0.0511372
0.0612546
0.0704114
0.0786625
0.0860543
0.0931494
0.0996228
-0.237448
-0.23325
-0.226366
-0.214725
-0.198361
-0.178207
-0.155507
-0.131535
-0.107401
-0.0839268
-0.061649
-0.0408651
-0.0216955
-0.00414484
0.0118485
0.0263794
0.0395554
0.0514847
0.0622708
0.0720122
0.0808054
0.0887027
0.095753
0.102543
0.108704
-0.220437
-0.216568
-0.209817
-0.198229
-0.181913
-0.161848
-0.139307
-0.115582
-0.0917723
-0.0686833
-0.0468329
-0.0265002
-0.00779123
0.00929897
0.0248385
0.0389258
0.0516702
0.0631812
0.0735623
0.0829125
0.0913279
0.0988585
0.105555
0.11203
0.117869
-0.202791
-0.199258
-0.19265
-0.181139
-0.164905
-0.144963
-0.122625
-0.099192
-0.0757479
-0.0530826
-0.0316938
-0.0118426
0.00637862
0.0229841
0.0380477
0.0516712
0.0639656
0.0750409
0.085001
0.0939451
0.101969
0.10912
0.115452
0.1216
0.127108
-0.184535
-0.181343
-0.174889
-0.163479
-0.147362
-0.12757
-0.105488
-0.0823874
-0.0593494
-0.0371444
-0.0162499
0.00309081
0.0207984
0.0368959
0.0514625
0.0646028
0.0764293
0.0870523
0.0965759
0.105099
0.112718
0.119477
0.125433
0.131243
0.136409
-0.165694
-0.162849
-0.156562
-0.145273
-0.129292
-0.109717
-0.0879186
-0.0651915
-0.0425984
-0.0208889
-0.000519947
0.0182824
0.0354516
0.051019
0.0650685
0.0777072
0.0890487
0.0992036
0.108276
0.116364
0.123564
0.129918
0.135487
0.140948
0.145759
-0.146296
-0.143804
-0.137694
-0.126548
-0.11074
-0.0914127
-0.0699421
-0.0476285
-0.0255175
-0.00433721
0.0154764
0.0337141
0.0503216
0.0653377
0.078851
0.0909706
0.101811
0.111483
0.120089
0.127729
0.134497
0.140433
0.145604
0.150702
0.155143
-0.126368
-0.124237
-0.118316
-0.107331
-0.0917336
-0.0726874
-0.0515849
-0.0297234
-0.00813009
0.0124891
0.0317191
0.0493672
0.0653907
0.0798358
0.0927948
0.104379
0.114703
0.123877
0.132004
0.139183
0.145506
0.151011
0.155772
0.16049
0.164536
-0.105936
-0.104179
-0.098453
-0.0876589
-0.0722994
-0.0535701
-0.0328743
-0.0115017
0.00953992
0.0295677
0.0481873
0.0652223
0.0806411
0.0944964
0.106884
0.117917
0.127711
0.136374
0.144009
0.150715
0.15658
0.16164
0.165981
0.170297
0.173912
-0.0850262
-0.0836753
-0.0781399
-0.0675583
-0.0524678
-0.0340906
-0.0138382
0.00701023
0.0274679
0.0468757
0.0648598
0.0812598
0.0960543
0.109303
0.121104
0.131571
0.140821
0.148961
0.156093
0.162314
0.16771
0.172312
0.176222
0.180115
0.183254
-0.063683
-0.062747
-0.0574133
-0.0470624
-0.0322703
-0.0142792
0.00549468
0.0257854
0.0456288
0.0643896
0.0817149
0.0974592
0.111611
0.124236
0.135436
0.145326
0.154019
0.161625
0.168244
0.173971
0.178884
0.183016
0.186493
0.189941
0.192504
-0.0419819
-0.0413964
-0.0363033
-0.0262045
-0.0117391
0.00583309
0.0250949
0.0447962
0.0639967
0.0820856
0.0987302
0.1138
0.127293
0.13928
0.149865
0.159164
0.167291
0.174354
0.180451
0.185674
0.190094
0.193749
0.196804
0.199746
0.201466
-0.0199214
-0.0196836
-0.0148452
-0.00501864
0.0090927
0.0262146
0.0449326
0.0640146
0.0825456
0.0999394
0.115883
0.130261
0.14308
0.154415
0.164374
0.173072
0.180622
0.187133
0.192701
0.197414
0.201334
0.204519
0.207169
0.209446
0.209865
0.00246976
0.00234892
0.00692575
0.0164606
0.0301913
0.046833
0.0649772
0.0834121
0.101249
0.117926
0.133151
0.146821
0.158951
0.169623
0.178944
0.187031
0.193997
0.199949
0.204982
0.209181
0.212602
0.215338
0.217585
0.218965
0.217926
0.0251504
0.0246654
0.0289732
0.0381974
0.0515221
0.0676554
0.0851978
0.10296
0.12008
0.136021
0.15051
0.163457
0.174887
0.184884
0.193559
0.201026
0.207401
0.212787
0.217281
0.220962
0.22389
0.226197
0.227995
0.228275
0.22743
0.0480834
0.0472311
0.0512615
0.0601567
0.073051
0.0886492
0.105563
0.122628
0.139011
0.154198
0.167936
0.180149
0.190867
0.20018
0.208199
0.21504
0.220816
0.225632
0.229583
0.232746
0.235186
0.237055
0.238394
0.238122
0.237715
0.071229
0.0700079
0.0737526
0.0823012
0.0947423
0.10978
0.126042
0.142389
0.158014
0.172432
0.185406
0.196872
0.20687
0.21549
0.222846
0.229054
0.234227
0.238468
0.241872
0.244516
0.246469
0.247886
0.248763
0.248093
0.247735
0.0945475
0.0929571
0.0964083
0.104594
0.116561
0.131015
0.146603
0.16221
0.177063
0.190697
0.202895
0.213606
0.222874
0.230795
0.237482
0.243052
0.247617
0.25128
0.254134
0.256257
0.257722
0.258681
0.259108
0.258084
0.2576
0.117999
0.11604
0.11919
0.126998
0.13847
0.15232
0.167212
0.182064
0.196128
0.208966
0.22038
0.230327
0.238859
0.246074
0.252088
0.257016
0.260969
0.264051
0.266353
0.267953
0.268927
0.269424
0.269407
0.268031
0.267331
0.141545
0.139218
0.14206
0.149475
0.160434
0.17366
0.18784
0.201919
0.215183
0.227215
0.237835
0.247012
0.254803
0.261308
0.266644
0.270927
0.274267
0.276764
0.278512
0.279588
0.280069
0.2801
0.279639
0.277902
0.276926
0.165143
0.16245
0.164979
0.171987
0.182416
0.195001
0.208452
0.221747
0.234198
0.245417
0.255237
0.263638
0.270684
0.276477
0.281133
0.284768
0.287492
0.289404
0.290597
0.291147
0.291133
0.290695
0.289788
0.287678
0.286389
0.188755
0.185698
0.187907
0.194498
0.204382
0.21631
0.229017
0.241515
0.253147
0.263545
0.272561
0.280184
0.286482
0.29156
0.295534
0.298521
0.300628
0.301954
0.302591
0.302615
0.302104
0.301195
0.299839
0.297346
0.295718
0.21234
0.208922
0.210805
0.216968
0.226293
0.237551
0.249504
0.261196
0.272
0.281574
0.289782
0.296625
0.302174
0.306537
0.30983
0.312168
0.313658
0.314399
0.31448
0.313977
0.312968
0.311587
0.30978
0.306896
0.304912
0.235858
0.232082
0.233636
0.23936
0.248115
0.258691
0.26988
0.280759
0.290731
0.299477
0.306877
0.312939
0.31774
0.321388
0.324001
0.325691
0.326566
0.326722
0.326249
0.32522
0.323713
0.321858
0.319598
0.31632
0.313968
0.259268
0.255138
0.256359
0.261636
0.269812
0.279696
0.290113
0.300174
0.309312
0.317229
0.323821
0.329103
0.333158
0.336094
0.338028
0.339073
0.339335
0.338909
0.337882
0.336329
0.334325
0.331997
0.329283
0.325609
0.32288
0.282531
0.27805
0.278936
0.28376
0.291347
0.300532
0.310172
0.319412
0.327715
0.334804
0.34059
0.345096
0.348407
0.350634
0.351893
0.352296
0.351948
0.350943
0.349366
0.347291
0.344792
0.341992
0.338827
0.334756
0.331644
0.305606
0.30078
0.301328
0.305693
0.312685
0.321166
0.330025
0.338443
0.345912
0.352177
0.35716
0.360894
0.363466
0.364989
0.365578
0.365344
0.36439
0.362809
0.360687
0.358093
0.355102
0.351832
0.348218
0.343753
0.340254
0.328456
0.323289
0.323498
0.3274
0.333792
0.341565
0.349643
0.35724
0.363878
0.369322
0.373509
0.376476
0.378315
0.379139
0.379064
0.378198
0.376644
0.374494
0.37183
0.368721
0.365243
0.361507
0.357448
0.352591
0.348703
0.35104
0.345538
0.345408
0.348843
0.354633
0.361696
0.368993
0.375773
0.381585
0.386215
0.389612
0.39182
0.392934
0.393067
0.392333
0.390843
0.388695
0.385981
0.382781
0.379165
0.375204
0.371006
0.366506
0.361262
0.356984
0.37332
0.367488
0.36702
0.369988
0.375174
0.381528
0.388047
0.394015
0.399008
0.402832
0.405447
0.406904
0.407301
0.406752
0.405369
0.403262
0.400528
0.397257
0.393528
0.38941
0.384972
0.380318
0.375384
0.369758
0.365091
0.395259
0.389104
0.388298
0.390798
0.395381
0.401029
0.406775
0.411937
0.41612
0.419147
0.420991
0.421708
0.421398
0.420176
0.418153
0.415438
0.412126
0.408307
0.404057
0.399444
0.394537
0.389434
0.384071
0.37807
0.373015
0.416818
0.410347
0.409206
0.411239
0.415221
0.420168
0.425148
0.429513
0.432896
0.435138
0.436222
0.43621
0.435206
0.433321
0.430669
0.427356
0.423476
0.419118
0.414356
0.409256
0.403887
0.398342
0.39256
0.386189
0.38075
0.437962
0.431182
0.429708
0.431277
0.434663
0.438914
0.443137
0.446716
0.449311
0.450781
0.451118
0.450391
0.448704
0.446169
0.4429
0.439
0.434563
0.429675
0.424411
0.418834
0.413011
0.407033
0.400839
0.394107
0.388287
0.458655
0.451573
0.449771
0.45088
0.453674
0.457239
0.460714
0.463521
0.465342
0.466054
0.465659
0.464231
0.461874
0.458703
0.454829
0.450354
0.445372
0.439966
0.43421
0.428166
0.421899
0.415497
0.4089
0.401815
0.395619
0.478861
0.471485
0.469359
0.470013
0.472224
0.475112
0.477853
0.479901
0.480964
0.480934
0.479823
0.477709
0.474699
0.470906
0.466441
0.461405
0.455889
0.449977
0.443741
0.43724
0.430541
0.423724
0.416735
0.409305
0.402739
0.498546
0.490885
0.488441
0.488647
0.490283
0.492506
0.494528
0.495833
0.496155
0.4954
0.49359
0.490808
0.48716
0.48276
0.477719
0.472136
0.466102
0.459696
0.452991
0.446047
0.438925
0.431704
0.424333
0.416569
0.409639
0.517678
0.50974
0.506984
0.506749
0.507822
0.509393
0.510712
0.511293
0.510891
0.509431
0.506941
0.503508
0.49924
0.494251
0.488649
0.482535
0.475995
0.469111
0.46195
0.454574
0.447042
0.439428
0.431687
0.423598
0.416311
0.536223
0.528018
0.524957
0.52429
0.524812
0.525748
0.52638
0.526256
0.525152
0.523007
0.519857
0.515792
0.510922
0.505362
0.499217
0.492586
0.485557
0.478208
0.470606
0.462811
0.454881
0.446888
0.438788
0.430384
0.42275
0.554151
0.545688
0.54233
0.541242
0.541227
0.541543
0.541509
0.540701
0.538916
0.536107
0.532318
0.527642
0.522191
0.516077
0.509407
0.502278
0.494775
0.486977
0.478949
0.470749
0.462435
0.454074
0.445628
0.43692
0.428947
0.571432
0.56272
0.559073
0.557576
0.557039
0.556755
0.556076
0.554605
0.552163
0.548713
0.544308
0.539043
0.53303
0.526383
0.519207
0.511596
0.503638
0.495406
0.486967
0.478377
0.469692
0.460977
0.452197
0.443197
0.434896
0.588035
0.579085
0.57516
0.573266
0.572223
0.571359
0.570057
0.567949
0.564874
0.560807
0.555809
0.549977
0.543425
0.536265
0.528602
0.520529
0.512132
0.503484
0.49465
0.485685
0.476645
0.467589
0.45849
0.44921
0.440591
0.603935
0.594757
0.590563
0.588286
0.586756
0.585333
0.583433
0.580712
0.577029
0.572371
0.566804
0.56043
0.553361
0.54571
0.53758
0.529065
0.520248
0.511201
0.501989
0.492665
0.483284
0.473903
0.464498
0.454949
0.446024
0.619103
0.609708
0.605256
0.602612
0.600614
0.598655
0.596181
0.592874
0.588611
0.583389
0.577279
0.570386
0.562824
0.554704
0.546129
0.537192
0.527974
0.518547
0.508974
0.499308
0.489602
0.47991
0.470214
0.460409
0.451191
0.633514
0.623914
0.619215
0.616219
0.613774
0.611304
0.608284
0.604419
0.599602
0.593843
0.587217
0.579832
0.571801
0.563235
0.554238
0.544899
0.535301
0.525512
0.515597
0.505606
0.49559
0.485604
0.475631
0.465584
0.456085
0.647145
0.637351
0.632418
0.629086
0.626216
0.623261
0.619721
0.615328
0.609987
0.60372
0.596606
0.588754
0.580279
0.571292
0.561895
0.552177
0.542218
0.532088
0.521848
0.51155
0.501242
0.490977
0.480742
0.470466
0.4607
0.659973
0.649996
0.644841
0.641192
0.63792
0.634506
0.630477
0.625584
0.619751
0.613004
0.60543
0.597139
0.588247
0.578864
0.569089
0.559014
0.548716
0.538265
0.52772
0.517132
0.50655
0.496022
0.485542
0.47505
0.465033
0.671976
0.661828
0.656465
0.652518
0.648868
0.645023
0.640534
0.635174
0.628878
0.621683
0.613678
0.604976
0.595693
0.585939
0.575812
0.565403
0.554788
0.544035
0.533205
0.522346
0.511507
0.500734
0.490024
0.479331
0.469076
0.683134
0.672827
0.667269
0.663044
0.659041
0.654794
0.649878
0.644082
0.637356
0.629743
0.621338
0.612254
0.602608
0.592508
0.582054
0.571333
0.560424
0.549392
0.538296
0.527186
0.516108
0.505106
0.494183
0.483303
0.472827
0.693428
0.682975
0.677237
0.672754
0.668424
0.663805
0.658494
0.652295
0.645172
0.637174
0.628399
0.618962
0.60898
0.598562
0.587806
0.576799
0.565617
0.554327
0.542986
0.531644
0.520346
0.509134
0.498014
0.486961
0.476281
0.702842
0.692255
0.686352
0.681632
0.677003
0.672043
0.666368
0.659801
0.652314
0.643964
0.634851
0.625091
0.614803
0.604093
0.59306
0.581791
0.57036
0.558834
0.54727
0.535716
0.524216
0.512811
0.501512
0.490302
0.479433
0.71136
0.700652
0.694599
0.689663
0.684762
0.679493
0.67349
0.666589
0.658773
0.650103
0.640684
0.630632
0.620066
0.609093
0.59781
0.586303
0.574648
0.562908
0.551141
0.539395
0.527713
0.516134
0.504672
0.49332
0.482281
0.718967
0.708152
0.701964
0.696836
0.691691
0.686144
0.679848
0.672648
0.664538
0.655583
0.64589
0.635578
0.624764
0.613555
0.602049
0.59033
0.578473
0.566543
0.554596
0.542678
0.530833
0.519099
0.507492
0.496012
0.484821
0.725651
0.714741
0.708436
0.703137
0.697777
0.691987
0.685432
0.67797
0.669601
0.660395
0.650462
0.639921
0.628889
0.617473
0.60577
0.593866
0.581832
0.569735
0.557628
0.54556
0.533572
0.521701
0.509966
0.498375
0.487049
0.731401
0.72041
0.714002
0.708557
0.703012
0.697013
0.690234
0.682547
0.673954
0.664533
0.654393
0.643655
0.632435
0.620841
0.60897
0.596905
0.58472
0.572478
0.560235
0.548037
0.535926
0.523937
0.512093
0.500406
0.488964
0.736208
0.725148
0.718655
0.713087
0.707388
0.701212
0.694247
0.686371
0.677592
0.66799
0.657677
0.646774
0.635398
0.623656
0.611643
0.599444
0.587132
0.574769
0.562412
0.550106
0.537892
0.525805
0.51387
0.502102
0.490563
0.740062
0.728948
0.722387
0.71672
0.710896
0.70458
0.697465
0.689437
0.680509
0.670762
0.660311
0.649275
0.637773
0.625912
0.613786
0.601479
0.589065
0.576606
0.564157
0.551765
0.539468
0.527303
0.515294
0.503462
0.491845
0.742959
0.731804
0.725191
0.71945
0.713533
0.70711
0.699883
0.691741
0.6827
0.672845
0.662289
0.651154
0.639558
0.627607
0.615396
0.603008
0.590518
0.577986
0.565468
0.553011
0.540652
0.528427
0.516364
0.504483
0.492808
0.744893
0.733711
0.727063
0.721273
0.715292
0.708799
0.701497
0.693279
0.684163
0.674235
0.66361
0.652409
0.640749
0.628738
0.61647
0.604029
0.591487
0.578907
0.566344
0.553842
0.541442
0.529178
0.517077
0.505164
0.49345
0.745861
0.734665
0.728
0.722185
0.716173
0.709644
0.702305
0.694048
0.684895
0.674931
0.66427
0.653036
0.641345
0.629304
0.617008
0.60454
0.591972
0.579368
0.566781
0.554258
0.541838
0.529554
0.517435
0.505505
0.493771
0.745861
0.734665
0.728
0.722185
0.716173
0.709644
0.702305
0.694048
0.684895
0.674931
0.664271
0.653036
0.641345
0.629304
0.617008
0.60454
0.591972
0.579368
0.566781
0.554258
0.541838
0.529554
0.517435
0.505506
0.493771
0.744893
0.733711
0.727064
0.721273
0.715293
0.708799
0.701497
0.693279
0.684163
0.674236
0.66361
0.652409
0.640749
0.628738
0.61647
0.604029
0.591488
0.578908
0.566344
0.553842
0.541443
0.529178
0.517078
0.505165
0.49345
0.74296
0.731805
0.725192
0.719451
0.713533
0.707111
0.699884
0.691742
0.682701
0.672846
0.66229
0.651155
0.639559
0.627607
0.615396
0.603009
0.590518
0.577987
0.565469
0.553011
0.540653
0.528428
0.516364
0.504483
0.492808
0.740064
0.72895
0.722388
0.716721
0.710897
0.704581
0.697466
0.689438
0.68051
0.670763
0.660312
0.649276
0.637774
0.625913
0.613787
0.60148
0.589066
0.576607
0.564158
0.551765
0.539469
0.527303
0.515295
0.503462
0.491846
0.736209
0.72515
0.718657
0.713089
0.707389
0.701214
0.694249
0.686372
0.677593
0.667992
0.657679
0.646775
0.635399
0.623657
0.611644
0.599445
0.587133
0.57477
0.562413
0.550107
0.537893
0.525806
0.513871
0.502103
0.490564
0.731403
0.720412
0.714004
0.708559
0.703014
0.697014
0.690236
0.682548
0.673956
0.664534
0.654394
0.643656
0.632436
0.620843
0.608971
0.596906
0.584721
0.572479
0.560236
0.548038
0.535927
0.523938
0.512094
0.500407
0.488965
0.725653
0.714744
0.708438
0.703139
0.697779
0.69199
0.685434
0.677972
0.669603
0.660397
0.650464
0.639922
0.62889
0.617475
0.605772
0.593867
0.581834
0.569736
0.557629
0.545561
0.533573
0.521702
0.509968
0.498376
0.48705
0.71897
0.708154
0.701967
0.696838
0.691693
0.686147
0.67985
0.672651
0.66454
0.655585
0.645892
0.63558
0.624766
0.613557
0.602051
0.590332
0.578475
0.566545
0.554597
0.54268
0.530835
0.5191
0.507493
0.496013
0.484822
0.711363
0.700655
0.694602
0.689666
0.684765
0.679496
0.673493
0.666592
0.658775
0.650105
0.640686
0.630635
0.620068
0.609095
0.597812
0.586305
0.57465
0.56291
0.551143
0.539397
0.527715
0.516136
0.504674
0.493321
0.482282
0.702846
0.692259
0.686356
0.681635
0.677006
0.672046
0.666371
0.659804
0.652317
0.643966
0.634853
0.625094
0.614805
0.604095
0.593063
0.581793
0.570362
0.558836
0.547272
0.535718
0.524218
0.512813
0.501513
0.490303
0.479435