/*--------------------------------*- C++ -*----------------------------------*\
  =========                 |
  \\      /  F ield         | OpenFOAM: The Open Source CFD Toolbox
   \\    /   O peration     | Website:  https://openfoam.org
    \\  /    A nd           | Version:  7
     \\/     M anipulation  |
\*---------------------------------------------------------------------------*/
FoamFile
{
    version     2.0;
    format      ascii;
    class       volScalarField;
    location    "65";
    object      p;
}
// * * * * * * * * * * * * * * * * * * * * * * * * * * * * * * * * * * * * * //

dimensions      [0 2 -2 0 0 0 0];

internalField   nonuniform List<scalar> 
8500
(
-0.263531
-0.262036
-0.262444
-0.265235
-0.270484
-0.277622
-0.285289
-0.291421
-0.29359
-0.289654
-0.278564
-0.260616
-0.237684
-0.212003
-0.186723
-0.164208
-0.147145
-0.137785
-0.138285
-0.148048
-0.163392
-0.177142
-0.183057
-0.177182
-0.160543
-0.137176
-0.112136
-0.0902922
-0.074242
-0.0646039
-0.0626225
-0.0684168
-0.0852711
-0.0978183
-0.106397
-0.0979793
-0.0784046
-0.0576067
-0.031072
-0.0181821
-0.00138288
0.00691621
0.000784307
0.00862904
-0.264672
-0.261861
-0.260753
-0.261898
-0.265465
-0.271013
-0.277331
-0.282502
-0.284221
-0.280401
-0.269972
-0.253119
-0.231585
-0.207433
-0.183733
-0.162783
-0.147307
-0.139606
-0.141799
-0.15305
-0.169414
-0.183502
-0.189089
-0.182347
-0.164488
-0.139819
-0.113537
-0.0905861
-0.0735256
-0.0630758
-0.0602192
-0.0651823
-0.0812158
-0.0934431
-0.102284
-0.09453
-0.0758836
-0.0559059
-0.0303307
-0.0179645
-0.00176082
0.00628115
-0.000203281
0.00778951
-0.265821
-0.261675
-0.259027
-0.258498
-0.260354
-0.264278
-0.269211
-0.273386
-0.274624
-0.270896
-0.26111
-0.24534
-0.2252
-0.202579
-0.180474
-0.161112
-0.147263
-0.141265
-0.145185
-0.157937
-0.175312
-0.189729
-0.194986
-0.187377
-0.168307
-0.142348
-0.114843
-0.0908094
-0.0727558
-0.0615063
-0.0577925
-0.0619373
-0.0771591
-0.0890635
-0.0981495
-0.0910416
-0.0733165
-0.054165
-0.0295623
-0.017727
-0.00213419
0.00562906
-0.00122212
0.006922
-0.266982
-0.261484
-0.257278
-0.255053
-0.255172
-0.257442
-0.260956
-0.264101
-0.264823
-0.261158
-0.251987
-0.237285
-0.218531
-0.19744
-0.17694
-0.159192
-0.147008
-0.142757
-0.148433
-0.162695
-0.181074
-0.195811
-0.200737
-0.192268
-0.171996
-0.144762
-0.116057
-0.0909649
-0.0719374
-0.0599001
-0.0553479
-0.0586866
-0.0731053
-0.0846834
-0.0939967
-0.0875163
-0.0707055
-0.0523855
-0.0287668
-0.0174689
-0.00250204
0.00496054
-0.00227131
0.00602736
-0.268157
-0.261296
-0.255518
-0.25158
-0.249942
-0.250533
-0.252596
-0.254674
-0.254843
-0.251206
-0.242618
-0.228965
-0.211581
-0.192016
-0.173129
-0.157018
-0.146537
-0.144075
-0.151533
-0.167313
-0.186687
-0.201738
-0.206334
-0.197011
-0.175551
-0.147062
-0.11718
-0.0910553
-0.0710746
-0.0582624
-0.0528903
-0.0554352
-0.0690587
-0.0803065
-0.0898283
-0.0839567
-0.0680528
-0.050569
-0.0279442
-0.0171898
-0.0028634
0.00427627
-0.0033498
0.00510652
-0.269347
-0.261117
-0.253758
-0.248097
-0.244686
-0.243578
-0.244161
-0.245135
-0.244712
-0.241062
-0.233015
-0.220392
-0.204355
-0.186309
-0.169041
-0.154589
-0.145848
-0.145213
-0.154478
-0.17178
-0.192137
-0.207499
-0.211767
-0.201602
-0.17897
-0.149246
-0.118213
-0.0910837
-0.070172
-0.0565979
-0.0504247
-0.0521877
-0.0650233
-0.0759367
-0.0856474
-0.0803654
-0.0653609
-0.0487169
-0.0270945
-0.0168891
-0.00321726
0.00357701
-0.00445645
0.00416053
-0.270553
-0.260953
-0.25201
-0.24462
-0.239428
-0.236603
-0.235681
-0.235516
-0.234458
-0.230753
-0.223215
-0.211562
-0.196863
-0.180322
-0.164679
-0.151907
-0.144941
-0.146169
-0.15726
-0.176083
-0.197414
-0.213083
-0.21703
-0.206033
-0.182251
-0.151316
-0.119159
-0.0910529
-0.0692337
-0.0549114
-0.047956
-0.0489488
-0.0610031
-0.0715778
-0.0814567
-0.0767451
-0.0626323
-0.046831
-0.0262175
-0.0165663
-0.00356261
0.0028636
-0.00559001
0.0031905
-0.271774
-0.260809
-0.250284
-0.241166
-0.23419
-0.229637
-0.227186
-0.225848
-0.224111
-0.220303
-0.213228
-0.202506
-0.189115
-0.174065
-0.160047
-0.148976
-0.143816
-0.146939
-0.15987
-0.180212
-0.202506
-0.21848
-0.222112
-0.2103
-0.18539
-0.153271
-0.120018
-0.0909657
-0.0682639
-0.0532077
-0.0454888
-0.0457231
-0.0570021
-0.0672335
-0.0772595
-0.0730989
-0.0598699
-0.0449129
-0.0253133
-0.0162209
-0.00389841
0.00213695
-0.00674915
0.00219762
-0.27301
-0.260688
-0.248591
-0.237752
-0.228993
-0.222706
-0.218707
-0.216165
-0.213704
-0.209734
-0.203075
-0.193246
-0.181124
-0.167546
-0.155153
-0.145799
-0.142477
-0.14752
-0.162302
-0.184157
-0.207401
-0.223681
-0.227005
-0.214396
-0.188386
-0.155112
-0.120793
-0.090825
-0.0672667
-0.0514911
-0.0430276
-0.0425152
-0.0530239
-0.0629077
-0.0730589
-0.06943
-0.0570762
-0.0429644
-0.0243819
-0.0158526
-0.00422362
0.00139804
-0.00793247
0.00118313
-0.274257
-0.260593
-0.246938
-0.234391
-0.223858
-0.215836
-0.210276
-0.206499
-0.203271
-0.199083
-0.192784
-0.183797
-0.17291
-0.160781
-0.150007
-0.142386
-0.140926
-0.147913
-0.16455
-0.187907
-0.212091
-0.228675
-0.231703
-0.218318
-0.191237
-0.15684
-0.121487
-0.0906338
-0.066246
-0.0497664
-0.0405768
-0.0393295
-0.0490723
-0.0586039
-0.0688583
-0.0657415
-0.0542544
-0.0409873
-0.0234233
-0.0154607
-0.00453718
0.000647915
-0.0091385
0.000148299
-0.275512
-0.260527
-0.245335
-0.231098
-0.218806
-0.209054
-0.201923
-0.196884
-0.192845
-0.188385
-0.182385
-0.174175
-0.164495
-0.153784
-0.144624
-0.138747
-0.139171
-0.148116
-0.166608
-0.191453
-0.216564
-0.233456
-0.236198
-0.22206
-0.193941
-0.158456
-0.122102
-0.090395
-0.0652054
-0.0480377
-0.0381405
-0.0361703
-0.0451509
-0.0543261
-0.064661
-0.0620371
-0.0514074
-0.0389834
-0.0224376
-0.0150449
-0.00483802
-0.000112312
-0.0103657
-0.000905554
-0.276772
-0.260491
-0.243787
-0.227886
-0.213856
-0.202384
-0.193678
-0.187355
-0.182462
-0.177674
-0.171909
-0.164412
-0.155896
-0.146575
-0.139017
-0.134893
-0.137217
-0.14813
-0.16847
-0.194786
-0.220813
-0.238014
-0.240484
-0.225619
-0.196497
-0.159961
-0.122639
-0.0901114
-0.0641486
-0.0463093
-0.0357226
-0.033042
-0.0412632
-0.0500779
-0.0604707
-0.0583205
-0.0485384
-0.0369547
-0.0214248
-0.0146046
-0.00512507
-0.000881484
-0.0116126
-0.00197712
-0.27803
-0.260484
-0.242301
-0.224768
-0.209026
-0.195851
-0.18557
-0.177943
-0.172158
-0.166985
-0.161389
-0.154595
-0.147088
-0.139177
-0.133206
-0.130838
-0.135073
-0.147957
-0.170132
-0.197899
-0.224829
-0.242341
-0.244555
-0.228991
-0.198903
-0.161356
-0.123102
-0.0897859
-0.063079
-0.0445853
-0.0333269
-0.0299485
-0.0374126
-0.045863
-0.0562911
-0.0545954
-0.0456506
-0.0349031
-0.0203849
-0.0141396
-0.00539727
-0.00165839
-0.0128776
-0.00306508
-0.27928
-0.260505
-0.240882
-0.221753
-0.204334
-0.189478
-0.177628
-0.168682
-0.161969
-0.156355
-0.150859
-0.144696
-0.138167
-0.131614
-0.127211
-0.126598
-0.132747
-0.147598
-0.17159
-0.200785
-0.228604
-0.246432
-0.248406
-0.232172
-0.20116
-0.162642
-0.123494
-0.0894214
-0.0619999
-0.0428696
-0.030957
-0.0268939
-0.0336026
-0.0416852
-0.0521259
-0.0508658
-0.0427473
-0.0328304
-0.0193181
-0.0136494
-0.00565354
-0.0024418
-0.0141591
-0.00416814
-0.280517
-0.260554
-0.239534
-0.218853
-0.199795
-0.183285
-0.169877
-0.159604
-0.15193
-0.145821
-0.140357
-0.134747
-0.129166
-0.123911
-0.121054
-0.12219
-0.13025
-0.147055
-0.172841
-0.203436
-0.232132
-0.250279
-0.252031
-0.23516
-0.203266
-0.163822
-0.123816
-0.0890208
-0.0609142
-0.0411658
-0.0286162
-0.023882
-0.0298363
-0.037548
-0.0479792
-0.0471358
-0.0398318
-0.0307386
-0.0182245
-0.0131335
-0.00589281
-0.00323043
-0.0154556
-0.00528503
-0.281733
-0.260627
-0.238259
-0.216075
-0.195425
-0.177295
-0.162345
-0.150739
-0.142077
-0.13542
-0.129919
-0.124792
-0.120105
-0.116098
-0.11476
-0.117631
-0.127592
-0.146332
-0.173882
-0.205849
-0.235407
-0.253877
-0.255427
-0.237953
-0.205221
-0.164896
-0.124072
-0.088587
-0.0598251
-0.0394776
-0.0263076
-0.0209164
-0.0261169
-0.0334549
-0.0438548
-0.0434095
-0.0369075
-0.0286297
-0.0171042
-0.0125916
-0.00611404
-0.00402297
-0.0167654
-0.00641454
-0.282919
-0.260722
-0.237059
-0.213426
-0.191236
-0.171525
-0.155055
-0.142117
-0.132442
-0.125189
-0.119585
-0.114872
-0.111016
-0.108203
-0.108352
-0.112939
-0.124784
-0.145433
-0.174712
-0.208019
-0.238424
-0.257222
-0.258591
-0.240549
-0.207026
-0.165867
-0.124265
-0.0881226
-0.0587351
-0.0378083
-0.0240343
-0.0180007
-0.0224476
-0.0294093
-0.0397566
-0.0396911
-0.0339777
-0.0265055
-0.0159573
-0.0120233
-0.00631616
-0.00481814
-0.0180871
-0.00755549
-0.28407
-0.260835
-0.235936
-0.210914
-0.187241
-0.165992
-0.148029
-0.133765
-0.123058
-0.115165
-0.109393
-0.105024
-0.101934
-0.10026
-0.101859
-0.108136
-0.121837
-0.144362
-0.175328
-0.209941
-0.241178
-0.260308
-0.261518
-0.242947
-0.20868
-0.166737
-0.124397
-0.0876306
-0.0576468
-0.036161
-0.021799
-0.015138
-0.0188314
-0.0254145
-0.0356888
-0.0359847
-0.0310457
-0.0243679
-0.0147839
-0.0114282
-0.00649815
-0.00561459
-0.0194191
-0.00870678
-0.260963
-0.234891
-0.208543
-0.183451
-0.160714
-0.141289
-0.125709
-0.113956
-0.105381
-0.0993825
-0.0952793
-0.0928988
-0.0923014
-0.0953061
-0.10324
-0.118764
-0.143123
-0.175731
-0.211613
-0.243665
-0.263133
-0.264208
-0.245146
-0.210186
-0.167506
-0.12447
-0.0871135
-0.0565628
-0.0345387
-0.0196042
-0.0123313
-0.0152712
-0.0214735
-0.0316551
-0.0322943
-0.0281148
-0.0222187
-0.0135843
-0.0108059
-0.00665899
-0.00641104
-0.02076
-0.00986736
-0.261102
-0.233924
-0.206318
-0.179875
-0.155704
-0.134852
-0.117973
-0.105165
-0.0958729
-0.0895491
-0.0856597
-0.0839563
-0.0843597
-0.0887205
-0.0982708
-0.115577
-0.141721
-0.175921
-0.213034
-0.245884
-0.265694
-0.266658
-0.247145
-0.211542
-0.168179
-0.124489
-0.0865742
-0.0554852
-0.0329441
-0.0174524
-0.0095836
-0.0117699
-0.0175893
-0.0276594
-0.028624
-0.0251882
-0.0200597
-0.0123586
-0.010156
-0.00679767
-0.00720616
-0.0221082
-0.0110363
-0.26125
-0.233035
-0.204242
-0.176521
-0.150975
-0.128736
-0.110578
-0.0967109
-0.0866668
-0.0799279
-0.0761991
-0.0751439
-0.0764686
-0.0821292
-0.0932491
-0.112288
-0.140162
-0.175899
-0.214202
-0.247832
-0.267989
-0.268867
-0.248945
-0.212751
-0.168756
-0.124455
-0.0860153
-0.0544162
-0.0313797
-0.0153458
-0.0068973
-0.00833021
-0.0137645
-0.0237054
-0.0249776
-0.0222688
-0.0178926
-0.0111069
-0.00947823
-0.00691319
-0.00799867
-0.0234625
-0.0122126
-0.261403
-0.232225
-0.202318
-0.173396
-0.146537
-0.122955
-0.103543
-0.0886182
-0.0777933
-0.0713791
-0.0670322
-0.0664161
-0.0686598
-0.0755584
-0.0881941
-0.108908
-0.138452
-0.175667
-0.215119
-0.249509
-0.270016
-0.270834
-0.250547
-0.213815
-0.16924
-0.124371
-0.0854392
-0.0533578
-0.0298479
-0.0132864
-0.00427474
-0.00495488
-0.0100016
-0.0197967
-0.0213587
-0.0193596
-0.015719
-0.00982941
-0.00877214
-0.0070046
-0.00878731
-0.0248213
-0.0133956
-0.261557
-0.231488
-0.200553
-0.17051
-0.142399
-0.117521
-0.096887
-0.0809081
-0.0692679
-0.0622369
-0.0581339
-0.0578654
-0.060963
-0.0690339
-0.0831247
-0.105451
-0.136597
-0.175229
-0.215784
-0.250915
-0.271777
-0.272561
-0.251951
-0.214734
-0.169633
-0.12424
-0.0848485
-0.0523117
-0.0283505
-0.0112761
-0.00171798
-0.00164646
-0.00630275
-0.0159364
-0.0177708
-0.0164632
-0.0135404
-0.00852625
-0.00803738
-0.00707095
-0.00957084
-0.0261834
-0.0145845
-0.261718
-0.230813
-0.198932
-0.167884
-0.138575
-0.112443
-0.0906229
-0.0735999
-0.0611224
-0.0534541
-0.0495194
-0.0495455
-0.0534058
-0.0625803
-0.0780592
-0.101927
-0.134604
-0.174587
-0.2162
-0.252049
-0.27327
-0.274046
-0.253158
-0.215512
-0.169938
-0.124065
-0.0842457
-0.0512798
-0.0268895
-0.00931656
0.000771196
0.00159254
-0.00267001
-0.0121277
-0.0142169
-0.0135822
-0.0113582
-0.00719758
-0.00727355
-0.0071113
-0.010348
-0.0275475
-0.0157786
-0.261879
-0.230269
-0.197377
-0.165512
-0.135091
-0.107736
-0.0847642
-0.0667108
-0.0533841
-0.0450722
-0.041248
-0.0414701
-0.046015
-0.0562208
-0.0730152
-0.0983492
-0.132479
-0.173745
-0.216369
-0.252915
-0.274497
-0.275292
-0.254172
-0.216149
-0.170157
-0.123849
-0.083633
-0.0502635
-0.0254664
-0.00740939
0.00319126
0.00475975
0.000894905
-0.00837342
-0.0107002
-0.0107188
-0.00917376
-0.0058435
-0.00648027
-0.00712477
-0.0111177
-0.0289122
-0.0169774
-0.262039
-0.229799
-0.196167
-0.163164
-0.13194
-0.10342
-0.0793246
-0.0602558
-0.0460645
-0.0370719
-0.0333522
-0.0336598
-0.038816
-0.049977
-0.068009
-0.0947278
-0.130231
-0.172709
-0.216295
-0.253514
-0.27546
-0.276301
-0.254993
-0.21665
-0.170293
-0.123593
-0.0830126
-0.0492645
-0.0240826
-0.00555594
0.00554095
0.0078529
0.00439046
-0.00467604
-0.00722297
-0.00787499
-0.00698812
-0.00446413
-0.00565715
-0.00711047
-0.0118788
-0.0302763
-0.0181802
-0.262197
-0.229405
-0.195098
-0.161217
-0.128953
-0.0994901
-0.0743128
-0.054246
-0.0391628
-0.0297812
-0.0255692
-0.0261385
-0.0318315
-0.0438688
-0.0630563
-0.091074
-0.127865
-0.171484
-0.215983
-0.253851
-0.276161
-0.277073
-0.255624
-0.217016
-0.170348
-0.1233
-0.0823869
-0.048284
-0.0227392
-0.00375744
0.00781923
0.0108699
0.00781536
-0.00103777
-0.00378771
-0.00505249
-0.0048023
-0.00305956
-0.00480379
-0.00706753
-0.0126301
-0.0316386
-0.0193867
-0.262353
-0.229089
-0.194175
-0.159506
-0.126344
-0.0959018
-0.0697196
-0.0486861
-0.0326965
-0.0229053
-0.0182137
-0.0189277
-0.0250819
-0.0379143
-0.0581712
-0.0873985
-0.125392
-0.170076
-0.215437
-0.253927
-0.276603
-0.277613
-0.256068
-0.217251
-0.170325
-0.122973
-0.0817577
-0.0473234
-0.0214371
-0.00201498
0.0100253
0.0138087
0.0111685
0.00253951
-0.000396342
-0.00225277
-0.00261716
-0.00162983
-0.00391978
-0.00699514
-0.0133706
-0.0329977
-0.0205963
-0.262508
-0.228851
-0.19341
-0.15803
-0.124055
-0.0927451
-0.0655688
-0.0435696
-0.0268355
-0.0162807
-0.0112878
-0.0120441
-0.0185855
-0.0321298
-0.0533671
-0.0837115
-0.122817
-0.168493
-0.214663
-0.25375
-0.276792
-0.277923
-0.256328
-0.217356
-0.170227
-0.122614
-0.081127
-0.0463837
-0.0201771
-0.000329462
0.0121587
0.0166675
0.0144489
0.00605424
0.00294944
0.000523041
-0.000433389
-0.000174967
-0.00300469
-0.00689247
-0.0140993
-0.0343526
-0.0218087
-0.262662
-0.228693
-0.192804
-0.156798
-0.122078
-0.0899665
-0.0618732
-0.0389372
-0.021394
-0.0101412
-0.00477609
-0.00550341
-0.0123578
-0.0265295
-0.0486559
-0.0800226
-0.12015
-0.16674
-0.213667
-0.253322
-0.276733
-0.278006
-0.256408
-0.217337
-0.170055
-0.122225
-0.0804967
-0.0454661
-0.0189595
0.00129835
0.0142191
0.0194446
0.0176557
0.0095052
0.00624827
0.00327406
0.00174849
0.00130503
-0.00205809
-0.00675875
-0.014815
-0.0357018
-0.0230233
-0.262816
-0.228613
-0.192355
-0.155809
-0.120418
-0.0875558
-0.0586067
-0.03477
-0.0164187
-0.0044837
0.00131612
0.000680779
-0.00641226
-0.021126
-0.0440485
-0.0763411
-0.117398
-0.164827
-0.212457
-0.252651
-0.27643
-0.277868
-0.256311
-0.217195
-0.169814
-0.121808
-0.0798684
-0.0445715
-0.0177847
0.00286785
0.0162062
0.0221387
0.0207884
0.0128915
0.00949904
0.00599972
0.00392812
0.00281022
-0.00107952
-0.00659321
-0.015517
-0.0370442
-0.0242398
-0.26297
-0.228611
-0.192062
-0.155056
-0.11907
-0.0855138
-0.0557625
-0.0310642
-0.0119212
0.000708905
0.0069798
0.00649789
-0.00075976
-0.01593
-0.0395547
-0.0726759
-0.11457
-0.162761
-0.211039
-0.251741
-0.275889
-0.27751
-0.25604
-0.216935
-0.169506
-0.121366
-0.0792441
-0.0437012
-0.0166532
0.00437839
0.0181202
0.0247482
0.0238462
0.0162124
0.0127009
0.00869969
0.0061053
0.00434068
-6.85308e-05
-0.00639511
-0.0162042
-0.0383784
-0.0254577
-0.228687
-0.191923
-0.154537
-0.118029
-0.0838376
-0.0533375
-0.0278176
-0.0078975
0.00543595
0.0122084
0.0119394
0.00459046
-0.0109505
-0.035183
-0.0690352
-0.111674
-0.160549
-0.209421
-0.250598
-0.275116
-0.276938
-0.255601
-0.21656
-0.169134
-0.120901
-0.078626
-0.0428564
-0.0155653
0.00582935
0.019961
0.027272
0.0268287
0.0194674
0.0158532
0.0113739
0.00827996
0.00589652
0.000975358
-0.00616373
-0.0168756
-0.0397032
-0.0266765
-0.228841
-0.191937
-0.154246
-0.117286
-0.0825197
-0.0513248
-0.0250241
-0.0043435
0.00969549
0.0169978
0.0169985
0.00963067
-0.00619552
-0.0309413
-0.0654269
-0.108719
-0.158202
-0.20761
-0.249228
-0.274117
-0.276156
-0.254996
-0.216074
-0.1687
-0.120414
-0.0780143
-0.0420369
-0.0145201
0.00722115
0.0217294
0.0297096
0.0297357
0.0226567
0.0189554
0.0140224
0.0104521
0.00747787
0.00205263
-0.00589838
-0.0175304
-0.041017
-0.0278956
-0.229062
-0.192088
-0.154164
-0.116821
-0.0815387
-0.0497033
-0.0226654
-0.00124666
0.013494
0.0213485
0.021672
0.0143552
-0.0016718
-0.0268368
-0.0618591
-0.105713
-0.155726
-0.205614
-0.247638
-0.272901
-0.275171
-0.254233
-0.215479
-0.168203
-0.119901
-0.0774043
-0.0412382
-0.0135131
0.00855699
0.0234279
0.0320616
0.0325677
0.0257817
0.0220084
0.016646
0.0126222
0.00908499
0.00316378
-0.00559838
-0.0181676
-0.0423185
-0.0291145
-0.229326
-0.192347
-0.154258
-0.116598
-0.0808595
-0.0484397
-0.020712
0.00141623
0.0168478
0.025269
0.0259618
0.0187616
0.00261529
-0.0228772
-0.0583413
-0.102668
-0.153137
-0.203448
-0.245842
-0.271482
-0.273996
-0.253319
-0.214778
-0.167641
-0.11936
-0.076794
-0.0404588
-0.0125423
0.00983845
0.0250579
0.0343274
0.0353244
0.0288438
0.0250136
0.0192466
0.0147914
0.0107185
0.0043095
-0.00526307
-0.0187863
-0.0436064
-0.0303327
-0.229671
-0.192756
-0.154571
-0.116659
-0.0805223
-0.0475693
-0.0191935
0.0036212
0.0197393
0.0287503
0.0298549
0.0228408
0.00666031
-0.0190658
-0.0548764
-0.0995857
-0.150434
-0.201108
-0.243829
-0.269852
-0.272613
-0.252245
-0.213979
-0.167041
-0.118825
-0.0762181
-0.0397286
-0.011632
0.0110463
0.0266071
0.036498
0.0379973
0.0318334
0.027965
0.0218216
0.0169588
0.0123785
0.00549038
-0.00489175
-0.0193858
-0.0448789
-0.0315489
-0.230288
-0.193531
-0.155331
-0.117232
-0.0807431
-0.0472881
-0.0182805
0.00522395
0.0220501
0.0317022
0.0332795
0.0265472
0.0104442
-0.015397
-0.0514372
-0.0964201
-0.147548
-0.198498
-0.241483
-0.267932
-0.270934
-0.250981
-0.21311
-0.166468
-0.118376
-0.075754
-0.0391123
-0.0108357
0.0121376
0.0280489
0.0385585
0.0405739
0.0347264
0.0308369
0.024352
0.0191129
0.0140581
0.00670376
-0.004484
-0.0199634
-0.0461322
-0.0327589
-0.23107
-0.194553
-0.156409
-0.11818
-0.0813817
-0.047456
-0.0178412
0.00633537
0.023855
0.0341071
0.0362432
0.0298571
0.0139264
-0.0119108
-0.04805
-0.0931763
-0.144465
-0.195592
-0.238786
-0.265407
-0.268996
-0.249562
-0.212171
-0.165876
-0.117935
-0.0753133
-0.0385263
-0.0100782
0.0131731
0.0294282
0.0405473
0.04309
0.0375581
0.0336433
0.0268379
0.021247
0.0157491
0.00794399
-0.00404063
-0.0205164
-0.0473614
-0.0339606
-0.230509
-0.194118
-0.155988
-0.117653
-0.0806289
-0.0463654
-0.016315
0.00833291
0.0263247
0.0368558
0.0394125
0.033148
0.0171823
-0.00882736
-0.0452045
-0.0905803
-0.142118
-0.193499
-0.236932
-0.262832
-0.26758
-0.248298
-0.210997
-0.164768
-0.116863
-0.0742543
-0.0374086
-0.00887269
0.0145583
0.0310198
0.0426378
0.0456983
0.0405817
0.0366412
0.0294853
0.0235023
0.0175424
0.00926072
-0.00355726
-0.0210682
-0.0486003
-0.0351859
-0.227866
-0.191297
-0.152992
-0.114471
-0.0772261
-0.0426876
-0.0122801
0.0127777
0.0312188
0.0422532
0.0448072
0.038386
0.0219073
-0.00496195
-0.042406
-0.0888956
-0.141465
-0.193662
-0.237515
-0.264012
-0.267532
-0.247479
-0.209437
-0.162734
-0.114633
-0.0720169
-0.0352116
-0.00665855
0.0168898
0.0333667
0.0453769
0.0490881
0.0448199
0.0409978
0.0334152
0.026845
0.020221
0.0112175
-0.00286371
-0.0218284
-0.0502498
-0.0367824
-0.223064
-0.186851
-0.148914
-0.11073
-0.0737565
-0.0394078
-0.0090942
0.0159326
0.0343943
0.0453424
0.0479325
0.0413189
0.024491
-0.00284509
-0.0407439
-0.0875403
-0.140142
-0.192027
-0.235248
-0.260847
-0.263725
-0.243277
-0.205209
-0.15887
-0.111323
-0.069228
-0.0327755
-0.00441815
0.0191426
0.0357898
0.0483377
0.0526087
0.0489623
0.0450577
0.0371877
0.0301198
0.0229823
0.0132322
-0.00211666
-0.0226384
-0.051991
-0.0385311
-0.217635
-0.181934
-0.144531
-0.106859
-0.0703374
-0.0363639
-0.00633638
0.018466
0.0367536
0.0475242
0.0498573
0.0429016
0.0256677
-0.00206392
-0.0402045
-0.0869552
-0.139115
-0.19016
-0.232299
-0.256852
-0.258966
-0.238249
-0.200372
-0.154602
-0.107765
-0.0662963
-0.0302695
-0.00216002
0.0213689
0.0381636
0.0512082
0.0560064
0.0529545
0.048938
0.040807
0.0332708
0.0256866
0.015195
-0.00136485
-0.0234144
-0.053665
-0.0402378
-0.212178
-0.17707
-0.140288
-0.103213
-0.0672286
-0.0337073
-0.00403276
0.0204973
0.0385789
0.0491604
0.0512373
0.0439576
0.026354
-0.0017098
-0.0399975
-0.0865783
-0.138154
-0.18823
-0.229186
-0.25264
-0.253916
-0.232912
-0.195261
-0.150125
-0.104066
-0.0632785
-0.0277169
0.000124202
0.0235999
0.0405094
0.0540114
0.0593551
0.0569668
0.0529019
0.0445513
0.0365659
0.028542
0.0172816
-0.000534027
-0.024169
-0.0553236
-0.0419283
-0.20673
-0.172316
-0.136257
-0.0998821
-0.0645319
-0.0315526
-0.00230938
0.02189
0.039728
0.0501065
0.0519659
0.0444314
0.0265624
-0.00169896
-0.0399818
-0.0862377
-0.137087
-0.186077
-0.225752
-0.248024
-0.248434
-0.227161
-0.189819
-0.145418
-0.100227
-0.0601861
-0.0251356
0.00241139
0.0258094
0.0428067
0.0567325
0.0626292
0.0609621
0.0569068
0.0484046
0.0400109
0.0315673
0.019519
0.000392648
-0.0248941
-0.056956
-0.0435894
-0.201284
-0.167669
-0.132439
-0.0968676
-0.062254
-0.0299127
-0.00118867
0.0226077
0.0401489
0.0502981
0.051954
0.044222
0.0261937
-0.00211436
-0.0402107
-0.0859464
-0.135878
-0.183618
-0.221884
-0.242898
-0.242438
-0.220959
-0.184041
-0.140488
-0.0962568
-0.0570267
-0.0225328
0.00469366
0.0279899
0.0450487
0.059364
0.0658111
0.0649143
0.0609173
0.0523355
0.0435774
0.034741
0.0218914
0.00141237
-0.025577
-0.0585371
-0.0452039
-0.195872
-0.163151
-0.128846
-0.0941749
-0.0603928
-0.0287801
-0.000658529
0.0226648
0.0398575
0.0497512
0.0512125
0.0433348
0.0252472
-0.00296135
-0.0406912
-0.0857069
-0.13452
-0.180836
-0.217563
-0.237252
-0.235931
-0.214323
-0.177949
-0.135356
-0.0921691
-0.0538096
-0.0199152
0.00696551
0.030138
0.0472317
0.0619019
0.0688912
0.0688134
0.0649281
0.0563423
0.0472638
0.0380594
0.024394
0.00252608
-0.0262058
-0.0600467
-0.0467562
-0.190527
-0.158785
-0.125491
-0.0918077
-0.0589429
-0.0281416
-0.000699052
0.0220871
0.0388839
0.0485022
0.049783
0.0418156
0.0237702
-0.00419529
-0.0413846
-0.0854888
-0.132994
-0.177719
-0.212786
-0.231092
-0.228931
-0.207278
-0.171568
-0.130042
-0.0879796
-0.0505449
-0.0172901
0.0092207
0.0322496
0.0493517
0.0643424
0.0718604
0.0726492
0.0689367
0.0604301
0.0510798
0.0415295
0.0270334
0.00373942
-0.0267695
-0.0614675
-0.0482306
-0.185279
-0.154589
-0.122381
-0.0897611
-0.0578901
-0.0279749
-0.00128106
0.0209098
0.0372695
0.0465951
0.0477141
0.0397172
0.0218183
-0.00576151
-0.042241
-0.0852503
-0.131267
-0.174247
-0.207544
-0.224421
-0.221455
-0.199853
-0.164928
-0.124571
-0.0837051
-0.0472435
-0.014665
0.0114527
0.0343201
0.0514043
0.0666816
0.0747096
0.0764082
0.0729358
0.0645993
0.0550322
0.0451579
0.0298172
0.00505882
-0.0272563
-0.0627806
-0.0496088
-0.180152
-0.150574
-0.119514
-0.0880215
-0.0572105
-0.0282471
-0.00236439
0.0191794
0.0350644
0.044085
0.0450636
0.0370996
0.0194519
-0.00760159
-0.0432068
-0.0849458
-0.129305
-0.170398
-0.20183
-0.217249
-0.21353
-0.192084
-0.158063
-0.118969
-0.0793635
-0.0439165
-0.0120475
0.013655
0.0363445
0.0533857
0.0689159
0.0774298
0.0800747
0.0769146
0.0688457
0.0591232
0.0489476
0.0327508
0.00648995
-0.0276525
-0.0639642
-0.0508712
-0.175165
-0.146744
-0.116881
-0.086568
-0.0568717
-0.028916
-0.0038986
0.0169521
0.0323311
0.0410383
0.0419009
0.0340331
0.0167401
-0.00965035
-0.0442231
-0.0845264
-0.127071
-0.166151
-0.195641
-0.209596
-0.205193
-0.184014
-0.151012
-0.113264
-0.0749736
-0.0405758
-0.00944515
0.015821
0.038318
0.0552921
0.071042
0.0800131
0.0836309
0.0808596
0.0731605
0.0633507
0.0528978
0.0358367
0.00803773
-0.0279431
-0.0649946
-0.0519963
-0.17033
-0.143099
-0.114468
-0.0853737
-0.0568351
-0.0299325
-0.00582497
0.0142927
0.0291404
0.0375307
0.0383042
0.0305966
0.0137598
-0.0118364
-0.0452267
-0.0839405
-0.124531
-0.16149
-0.188985
-0.201491
-0.196493
-0.175696
-0.143817
-0.107486
-0.0705548
-0.0372333
-0.00686548
0.0179445
0.0402354
0.0571198
0.0730564
0.0824519
0.0870577
0.0847535
0.0775302
0.0677078
0.0570048
0.0390754
0.00970636
-0.0281119
-0.0658469
-0.0529619
-0.165656
-0.139633
-0.112256
-0.0844072
-0.0570575
-0.0312423
-0.00807948
0.011273
0.0255697
0.0336441
0.0343575
0.026874
0.0105913
-0.0140856
-0.0461533
-0.0831381
-0.121652
-0.156408
-0.181882
-0.19298
-0.187486
-0.167186
-0.136523
-0.101666
-0.0661266
-0.033901
-0.00431585
0.0200194
0.0420912
0.0588658
0.0749561
0.08474
0.0903346
0.0885759
0.0819357
0.072182
0.0612601
0.0424645
0.011499
-0.0281418
-0.0664952
-0.0537452
-0.161145
-0.136337
-0.110223
-0.0836345
-0.0574933
-0.032789
-0.0105959
0.00796862
0.0217003
0.0294632
0.0301469
0.0229496
0.00731447
-0.0163265
-0.046943
-0.0820759
-0.118413
-0.15091
-0.174365
-0.184119
-0.178242
-0.158547
-0.129177
-0.0958349
-0.0617084
-0.0305908
-0.00180346
0.0220399
0.04388
0.060527
0.0767378
0.0868719
0.0934406
0.0923026
0.086352
0.0767544
0.0656505
0.0459981
0.0134175
-0.0280153
-0.066913
-0.0543234
-0.156797
-0.133199
-0.108346
-0.0830213
-0.0580968
-0.0345162
-0.0133082
0.00445417
0.017613
0.0250719
0.0257564
0.0189044
0.00400324
-0.0184953
-0.0475463
-0.0807235
-0.114809
-0.145019
-0.166485
-0.174981
-0.168837
-0.149844
-0.121826
-0.0900237
-0.0573194
-0.0273147
0.000664724
0.0240007
0.045596
0.0621008
0.0783987
0.0888432
0.096355
0.0959062
0.0907478
0.0813986
0.0701564
0.0496663
0.0154613
-0.0277148
-0.067074
-0.0546744
-0.152606
-0.130204
-0.106602
-0.0825338
-0.0588242
-0.03637
-0.0161528
0.000801443
0.0133856
0.0205505
0.0212653
0.0148122
0.000722034
-0.0205408
-0.047929
-0.0790685
-0.110854
-0.138778
-0.158314
-0.165652
-0.159353
-0.141144
-0.114516
-0.0842621
-0.0529775
-0.0240837
0.00308199
0.025897
0.0472338
0.0635845
0.0799359
0.0906506
0.099058
0.0993561
0.0950855
0.0860805
0.0747514
0.0534538
0.0176276
-0.0272233
-0.0669528
-0.0547774
-0.148568
-0.12734
-0.104969
-0.0821409
-0.0596349
-0.0383004
-0.0190712
-0.00292331
0.00909002
0.0159731
0.016745
0.010737
-0.00247721
-0.0224273
-0.0480757
-0.0771196
-0.106584
-0.132253
-0.149937
-0.156227
-0.149877
-0.132514
-0.107294
-0.0785783
-0.0487
-0.0209087
0.00544192
0.0277244
0.0487878
0.0649755
0.0813466
0.0922915
0.101531
0.10262
0.099322
0.0907578
0.0794016
0.0573396
0.0199104
-0.0265247
-0.0665251
-0.0546132
-0.144674
-0.124592
-0.103426
-0.0818143
-0.0604927
-0.0402631
-0.022011
-0.00666079
0.00479057
0.0114053
0.0122579
0.0067321
-0.00555601
-0.0241356
-0.0479905
-0.074907
-0.102057
-0.125527
-0.141454
-0.146804
-0.140493
-0.124016
-0.1002
-0.072998
-0.0445023
-0.0177998
0.00773836
0.0294789
0.0502529
0.0662711
0.0826286
0.0937642
0.10376
0.105664
0.103409
0.0953806
0.084065
0.0612965
0.0223003
-0.0256047
-0.0657688
-0.0541651
-0.140916
-0.121949
-0.101954
-0.0815297
-0.0613664
-0.0422198
-0.0249276
-0.0103598
0.000542883
0.0069036
0.00785643
0.00283952
-0.00848865
-0.0256617
-0.0476946
-0.0724791
-0.0973466
-0.11865
-0.132968
-0.137484
-0.13128
-0.115708
-0.0932708
-0.0675443
-0.0403987
-0.0147659
0.00996552
0.0311572
0.0516245
0.0674683
0.0837798
0.0950676
0.105732
0.108456
0.107296
0.0998918
0.0886917
0.06529
0.0247839
-0.0244512
-0.064664
-0.0534191
-0.137286
-0.119397
-0.100538
-0.0812665
-0.06223
-0.0441386
-0.0277823
-0.0139773
-0.0036067
0.00251477
0.00358287
-0.000908932
-0.0112603
-0.0270131
-0.0472219
-0.0698965
-0.0925403
-0.111809
-0.124584
-0.128357
-0.122311
-0.107637
-0.0865392
-0.0622374
-0.0364017
-0.0118153
0.0121179
0.0327563
0.0528983
0.0685641
0.0847988
0.0962012
0.107437
0.110963
0.110927
0.104228
0.093224
0.0692784
0.0273439
-0.0230546
-0.063194
-0.0523644
-0.133776
-0.116926
-0.0991642
-0.0810075
-0.0630622
-0.0459938
-0.0305449
-0.017479
-0.00762092
-0.00172401
-0.000529862
-0.00449037
-0.0138644
-0.0282049
-0.0466128
-0.0672244
-0.0877229
-0.105055
-0.116397
-0.119506
-0.113646
-0.0998468
-0.0800312
-0.0570943
-0.0325219
-0.00895525
0.0141904
0.0342738
0.0540711
0.0695551
0.0856845
0.097165
0.108873
0.11316
0.114249
0.108322
0.097597
0.0732129
0.0299592
-0.0214084
-0.0613453
-0.0509938
-0.130377
-0.114528
-0.0978217
-0.080739
-0.0638461
-0.047765
-0.0331916
-0.0208377
-0.011471
-0.00578427
-0.00445727
-0.00788925
-0.0163
-0.029256
-0.0459085
-0.0645255
-0.0829729
-0.0984751
-0.108486
-0.110997
-0.105333
-0.0923677
-0.0737675
-0.0521285
-0.0287687
-0.00619185
0.0161782
0.0357075
0.0551402
0.0704378
0.086436
0.0979594
0.110037
0.115022
0.117211
0.112104
0.101741
0.0770384
0.0326053
-0.0195089
-0.0591074
-0.049304
-0.127082
-0.112194
-0.0965011
-0.0804501
-0.0645686
-0.0494368
-0.0357045
-0.0240334
-0.0151355
-0.00964522
-0.00818207
-0.0110958
-0.0185695
-0.030185
-0.0451466
-0.0618548
-0.078357
-0.0921398
-0.100915
-0.102879
-0.097405
-0.0852226
-0.0677633
-0.0473508
-0.0251495
-0.00353029
0.0180772
0.0370557
0.0561038
0.0712089
0.0870527
0.0985855
0.110932
0.116537
0.119764
0.115508
0.105581
0.0806942
0.0352557
-0.0173553
-0.0564735
-0.047296
-0.123884
-0.109916
-0.0951946
-0.0801321
-0.0652199
-0.0509977
-0.0380705
-0.0270517
-0.0185995
-0.0132926
-0.0116929
-0.0141045
-0.0206769
-0.0310086
-0.044358
-0.0592561
-0.0739263
-0.0861006
-0.0937281
-0.095185
-0.0898855
-0.0784261
-0.0620286
-0.0427689
-0.0216703
-0.000974848
0.0198836
0.0383168
0.0569608
0.0718658
0.0875339
0.099045
0.111555
0.117698
0.12187
0.118469
0.109045
0.0841166
0.0378831
-0.0149494
-0.0534401
-0.044976
-0.120776
-0.107689
-0.0938957
-0.0797783
-0.0657925
-0.0524393
-0.0402803
-0.0298828
-0.0218529
-0.0167172
-0.0149831
-0.0169131
-0.0226266
-0.0317402
-0.043566
-0.0567609
-0.069716
-0.0803909
-0.0869518
-0.0879331
-0.0827848
-0.0719851
-0.0565692
-0.0383879
-0.0183358
0.00147111
0.0215943
0.0394896
0.0577108
0.0724063
0.0878785
0.0993409
0.111929
0.118506
0.1235
0.120936
0.112061
0.0872411
0.0404611
-0.0122952
-0.0500078
-0.0423557
-0.117753
-0.105507
-0.0925993
-0.0793832
-0.0662808
-0.0537561
-0.042328
-0.0325205
-0.0248901
-0.0199144
-0.0180497
-0.0195217
-0.0244232
-0.0323897
-0.0427861
-0.0543889
-0.0657467
-0.0750282
-0.0805972
-0.0811285
-0.0761047
-0.0659005
-0.0513868
-0.0342109
-0.0151496
0.00380496
0.0232067
0.0405731
0.0583543
0.0728295
0.088085
0.0994766
0.112055
0.118971
0.124638
0.122867
0.114567
0.0900061
0.0429667
-0.00939808
-0.0461816