/*--------------------------------*- C++ -*----------------------------------*\
  =========                 |
  \\      /  F ield         | OpenFOAM: The Open Source CFD Toolbox
   \\    /   O peration     | Website:  https://openfoam.org
    \\  /    A nd           | Version:  7
     \\/     M anipulation  |
\*---------------------------------------------------------------------------*/
FoamFile
{
    version     2.0;
    format      ascii;
    class       volVectorField;
    location    "65";
    object      U;
}
// * * * * * * * * * * * * * * * * * * * * * * * * * * * * * * * * * * * * * //

dimensions      [0 1 -1 0 0 0 0];

internalField   nonuniform List<vector> 
8500
(
(-0.211322 -0.276925 -4.9182e-22)
(-0.205506 -0.301875 6.05396e-22)
(-0.196956 -0.317242 -1.30884e-21)
(-0.185159 -0.319833 2.84457e-22)
(-0.169258 -0.306501 7.31612e-22)
(-0.148129 -0.274514 -1.71784e-22)
(-0.120723 -0.222242 -4.18201e-22)
(-0.0865483 -0.15 6.55785e-22)
(-0.0460425 -0.0606769 -2.18298e-22)
(-0.000568488 0.0401604 7.51938e-22)
(0.0474303 0.145163 -1.93949e-22)
(0.0947054 0.246428 5.03771e-23)
(0.136998 0.337703 1.25631e-21)
(0.170085 0.414624 -1.54743e-21)
(0.190155 0.476693 -1.67101e-22)
(0.194366 0.525059 8.33252e-22)
(0.183664 0.560667 9.89239e-23)
(0.166181 0.578299 1.37714e-22)
(0.158818 0.563549 -2.94721e-22)
(0.180299 0.498738 4.59225e-22)
(0.232475 0.381323 -5.80922e-22)
(0.301595 0.225373 7.72566e-22)
(0.377383 0.0523611 6.9985e-22)
(0.455284 -0.11957 1.45788e-22)
(0.528016 -0.269405 -3.26261e-22)
(0.589015 -0.38643 -5.15461e-22)
(0.63057 -0.464142 2.39466e-22)
(0.654689 -0.506259 6.32308e-22)
(0.660181 -0.520708 -5.34728e-22)
(0.634789 -0.533027 -9.28814e-23)
(0.574752 -0.555777 2.43455e-22)
(0.514334 -0.543372 4.0514e-23)
(0.492524 -0.460994 -3.51184e-22)
(0.517587 -0.277862 9.20486e-23)
(0.569603 -0.0783855 1.92562e-22)
(0.639944 0.141482 -3.0802e-22)
(0.69165 0.282133 -1.23464e-22)
(0.7342 0.402209 -1.46125e-22)
(0.760463 0.424304 6.92314e-23)
(0.75981 0.440294 -4.97705e-24)
(0.713118 0.472567 4.66341e-24)
(0.645013 0.44335 -5.07496e-24)
(0.572371 0.433022 -7.78791e-25)
(0.585949 0.120821 1.38452e-23)
(-0.214229 -0.277631 4.06556e-21)
(-0.209477 -0.303056 -5.36525e-21)
(-0.202238 -0.318947 3.81044e-21)
(-0.192016 -0.322165 -1.2084e-21)
(-0.177939 -0.309611 1.90966e-21)
(-0.158803 -0.278563 1.5365e-21)
(-0.133403 -0.227328 -3.87404e-21)
(-0.10104 -0.156086 1.66224e-21)
(-0.0619978 -0.0675698 -2.94868e-21)
(-0.017582 0.0328035 4.95766e-21)
(0.0297371 0.137813 -1.44867e-21)
(0.0766925 0.23965 -8.08456e-22)
(0.118976 0.332105 -1.89732e-21)
(0.152348 0.410708 2.69879e-21)
(0.173037 0.474841 -5.0293e-22)
(0.178411 0.525267 -6.38497e-22)
(0.17 0.562222 1.31173e-21)
(0.156633 0.579545 -7.9532e-22)
(0.155324 0.562387 9.80974e-22)
(0.183232 0.494172 -7.32238e-22)
(0.239684 0.37428 5.87518e-22)
(0.311061 0.217268 -2.35939e-21)
(0.38818 0.04401 1.51973e-22)
(0.466754 -0.127555 -7.71592e-22)
(0.539382 -0.276319 6.88721e-22)
(0.599725 -0.391591 4.52314e-22)
(0.640023 -0.467343 -1.88864e-24)
(0.662444 -0.507652 5.12196e-22)
(0.666996 -0.519767 1.21282e-21)
(0.641817 -0.529085 3.83118e-23)
(0.581363 -0.55026 -7.17658e-23)
(0.518097 -0.539653 2.74833e-22)
(0.492808 -0.461006 7.72085e-22)
(0.514932 -0.281081 6.00898e-23)
(0.565286 -0.0833496 1.04928e-21)
(0.634162 0.136598 2.24324e-22)
(0.68581 0.278402 -1.50801e-22)
(0.729393 0.399574 3.31019e-22)
(0.756991 0.423276 -1.61134e-22)
(0.756155 0.442 3.51671e-24)
(0.709129 0.476513 2.43405e-24)
(0.642291 0.44804 -4.73941e-24)
(0.570143 0.435051 -1.51759e-24)
(0.58486 0.120314 -3.20878e-23)
(-0.215621 -0.278071 -4.3461e-21)
(-0.211909 -0.303962 4.93842e-21)
(-0.205966 -0.320372 7.07667e-22)
(-0.197318 -0.324218 -1.61334e-21)
(-0.185085 -0.312457 5.89146e-22)
(-0.167998 -0.282383 -1.1444e-21)
(-0.144705 -0.232247 -4.79423e-21)
(-0.114301 -0.162091 2.36911e-21)
(-0.0768861 -0.0744704 3.21075e-21)
(-0.0336844 0.025367 -3.17049e-21)
(0.0128241 0.13033 2.39731e-21)
(0.059357 0.232711 -1.86289e-21)
(0.101553 0.326332 1.49086e-21)
(0.135171 0.406602 -4.0385e-21)
(0.156509 0.472767 1.42656e-21)
(0.163178 0.525167 1.70695e-22)
(0.157289 0.563315 -1.65415e-21)
(0.148283 0.580152 6.0345e-22)
(0.153112 0.560541 4.32561e-22)
(0.187192 0.489128 1.11414e-21)
(0.247569 0.367064 -8.60795e-22)
(0.321048 0.209178 2.93837e-21)
(0.399427 0.035757 -1.57348e-22)
(0.478597 -0.135389 5.74678e-22)
(0.551028 -0.283055 -4.33409e-22)
(0.610635 -0.396565 9.59348e-23)
(0.64965 -0.470347 -1.15715e-21)
(0.670325 -0.508896 8.65735e-22)
(0.673836 -0.518787 -6.50912e-23)
(0.648864 -0.525131 5.35768e-22)
(0.588146 -0.544605 -4.58912e-22)
(0.522171 -0.535686 -2.97824e-22)
(0.493385 -0.460813 -4.24115e-22)
(0.512519 -0.284199 -9.27187e-22)
(0.561166 -0.0882764 1.02368e-21)
(0.628535 0.131704 7.58307e-22)
(0.680144 0.27459 -1.72571e-21)
(0.72475 0.39683 -1.48629e-21)
(0.75361 0.422203 2.77392e-22)
(0.752537 0.443718 -4.01546e-22)
(0.705222 0.480426 -4.72541e-24)
(0.639694 0.45267 -9.44667e-23)
(0.568098 0.437033 3.40454e-23)
(0.583945 0.119779 -2.673e-23)
(-0.215445 -0.27825 -6.59817e-21)
(-0.212749 -0.304596 1.36162e-20)
(-0.20809 -0.321516 -1.08195e-20)
(-0.201014 -0.325987 2.87904e-21)
(-0.190639 -0.315025 -3.01729e-21)
(-0.175648 -0.285954 -1.39106e-21)
(-0.154556 -0.236973 6.25223e-21)
(-0.126251 -0.167983 -4.1438e-21)
(-0.0906326 -0.0813478 2.494e-21)
(-0.0488098 0.0178758 -1.43118e-21)
(-0.0032516 0.122732 6.29162e-21)
(0.0427506 0.225622 -3.20353e-21)
(0.0847794 0.320386 -9.12967e-21)
(0.11861 0.402301 4.66968e-21)
(0.140638 0.470453 -4.95675e-22)
(0.148742 0.524729 2.21609e-21)
(0.1456 0.563913 -3.0425e-21)
(0.14117 0.580109 2.40012e-23)
(0.15217 0.558035 -3.21304e-21)
(0.192129 0.483651 -1.58774e-21)
(0.256105 0.359708 1.70824e-21)
(0.331549 0.201117 -1.24891e-21)
(0.411116 0.0276117 1.07455e-21)
(0.490806 -0.143064 -1.39564e-21)
(0.562946 -0.289606 -4.71819e-22)
(0.621734 -0.401346 2.21011e-21)
(0.65944 -0.473153 3.24367e-22)
(0.678329 -0.509986 -1.35751e-21)
(0.680702 -0.517768 -7.4787e-22)
(0.655922 -0.521178 1.22262e-21)
(0.595084 -0.538826 7.08593e-22)
(0.526551 -0.531474 -9.57368e-22)
(0.494256 -0.460407 1.0313e-21)
(0.510346 -0.287208 2.34582e-21)
(0.557242 -0.0931607 -1.249e-21)
(0.623068 0.126802 1.3305e-21)
(0.674658 0.270697 2.50275e-21)
(0.720271 0.393978 2.01104e-21)
(0.750319 0.421091 -3.92687e-22)
(0.748959 0.445447 3.13384e-22)
(0.7014 0.484303 4.51724e-23)
(0.63722 0.457237 1.49562e-22)
(0.566241 0.438967 9.17771e-24)
(0.583208 0.119217 1.24829e-22)
(-0.213652 -0.278172 -1.95066e-21)
(-0.211951 -0.304959 3.89478e-21)
(-0.208563 -0.322377 6.69043e-21)
(-0.203056 -0.327467 -4.05533e-21)
(-0.194551 -0.317309 8.39222e-21)
(-0.181694 -0.289261 -2.51767e-21)
(-0.162885 -0.241482 -1.02266e-20)
(-0.136814 -0.173732 5.07557e-21)
(-0.10316 -0.0881706 -5.2967e-21)
(-0.062887 0.0103563 4.01467e-21)
(-0.0184269 0.115046 -2.8829e-21)
(0.0269314 0.218392 4.48942e-21)
(0.0687138 0.314273 1.85794e-21)
(0.102729 0.397797 -4.95687e-21)
(0.125496 0.46788 5.49484e-21)
(0.135179 0.523927 -5.14528e-21)
(0.134998 0.563991 5.04503e-21)
(0.135326 0.579408 1.86627e-21)
(0.152477 0.554895 2.65337e-21)
(0.197996 0.477787 2.05794e-22)
(0.265267 0.352244 4.31947e-21)
(0.342553 0.1931 -6.70789e-21)
(0.42324 0.0195834 2.02421e-21)
(0.503372 -0.15057 -1.85439e-21)
(0.575127 -0.295964 3.49037e-21)
(0.633011 -0.405933 -2.74489e-21)
(0.669381 -0.475762 2.18754e-21)
(0.686453 -0.510919 1.09789e-21)
(0.687593 -0.516708 1.09795e-21)
(0.66298 -0.517236 8.5817e-23)
(0.602164 -0.532939 1.57465e-22)
(0.531231 -0.527022 2.78013e-22)
(0.495423 -0.459782 -2.32755e-21)
(0.508413 -0.290101 -3.22197e-21)
(0.553515 -0.097998 -8.25783e-22)
(0.617765 0.121891 -1.1872e-21)
(0.669361 0.266723 -7.63903e-22)
(0.715958 0.391023 8.84702e-22)
(0.747118 0.419942 8.96176e-22)
(0.745424 0.447187 3.18463e-22)
(0.697667 0.488138 -8.3151e-24)
(0.63487 0.461736 -1.68989e-22)
(0.564578 0.440851 -1.16603e-22)
(0.582654 0.118628 -1.32549e-22)
(-0.210195 -0.277841 -4.90129e-21)
(-0.209467 -0.305052 -1.17323e-20)
(-0.207341 -0.322955 -9.79041e-21)
(-0.203402 -0.328655 1.67089e-20)
(-0.196775 -0.319299 3.89255e-22)
(-0.186081 -0.292288 -1.05813e-20)
(-0.169628 -0.24575 2.16588e-20)
(-0.145914 -0.179308 -1.22131e-20)
(-0.114389 -0.0949064 4.55546e-21)
(-0.0758401 0.00283898 -4.39587e-21)
(-0.0326334 0.107304 7.57597e-21)
(0.0119627 0.211025 -1.15102e-21)
(0.0534196 0.307996 4.64587e-22)
(0.0875944 0.393084 1.42038e-21)
(0.111157 0.465029 1.81473e-21)
(0.122563 0.522733 4.52246e-22)
(0.125539 0.563525 -1.92262e-21)
(0.130773 0.578047 -3.55067e-21)
(0.154002 0.551154 -5.78618e-21)
(0.204746 0.471579 -5.01006e-21)
(0.275033 0.344698 2.58233e-21)
(0.35405 0.185139 7.9964e-21)
(0.435786 0.0116813 -7.45778e-21)
(0.516283 -0.157899 3.05302e-21)
(0.587563 -0.30212 -1.37813e-21)
(0.644454 -0.410323 5.50902e-21)
(0.679463 -0.478174 3.08078e-21)
(0.694696 -0.511692 -1.46367e-21)
(0.694509 -0.515605 -4.83392e-21)
(0.670031 -0.513313 -1.23651e-21)
(0.609369 -0.526959 3.51359e-22)
(0.536205 -0.522335 -3.41378e-22)
(0.496884 -0.458933 1.80431e-21)
(0.506718 -0.292872 4.98617e-22)
(0.549985 -0.102784 -4.06933e-21)
(0.612632 0.116974 4.40199e-22)
(0.664258 0.262668 -2.3067e-21)
(0.711811 0.387967 3.59394e-22)
(0.744005 0.41876 2.42858e-22)
(0.741933 0.448936 2.63768e-22)
(0.694024 0.491929 -8.86007e-23)
(0.632646 0.466164 1.98774e-22)
(0.563113 0.442682 2.25513e-22)
(0.582286 0.118013 1.3375e-22)
(-0.205027 -0.277261 7.20665e-21)
(-0.205252 -0.304876 -1.00689e-20)
(-0.204382 -0.32325 1.85927e-20)
(-0.202012 -0.329548 -4.81197e-21)
(-0.197271 -0.32099 -2.00587e-20)
(-0.188764 -0.295022 4.09328e-21)
(-0.174724 -0.249755 1.28551e-20)
(-0.153479 -0.184681 -3.91227e-21)
(-0.124241 -0.101523 -1.65746e-20)
(-0.087589 -0.00464372 5.75605e-21)
(-0.0458007 0.0995167 -1.63844e-20)
(-0.00208849 0.203539 3.05015e-21)
(0.038967 0.301557 2.5926e-21)
(0.0732791 0.388155 1.1553e-20)
(0.0976962 0.461882 -9.0078e-21)
(0.110964 0.521123 4.6324e-21)
(0.117276 0.562499 3.79319e-21)
(0.127523 0.576033 9.29943e-21)
(0.15671 0.546845 -2.74584e-21)
(0.212331 0.46507 4.72219e-21)
(0.285384 0.337096 6.35583e-21)
(0.366029 0.177246 -4.07416e-21)
(0.448742 0.00391408 -7.92753e-21)
(0.529526 -0.165043 5.36859e-21)
(0.600242 -0.308068 -4.28323e-21)
(0.656052 -0.414513 1.59684e-21)
(0.689672 -0.480389 -2.57799e-22)
(0.703054 -0.512303 4.8464e-22)
(0.701452 -0.514456 2.00293e-21)
(0.677067 -0.509418 1.39586e-21)
(0.616686 -0.520902 -1.71316e-21)
(0.541466 -0.517419 -7.0114e-22)
(0.498642 -0.457852 2.01218e-21)
(0.505264 -0.295512 -1.46241e-21)
(0.546655 -0.107513 1.98571e-21)
(0.607673 0.112049 -1.18699e-21)
(0.659356 0.258531 7.32161e-22)
(0.707831 0.384815 -4.22123e-22)
(0.74098 0.417548 -3.65281e-22)
(0.738489 0.450692 2.79302e-22)
(0.690474 0.495672 3.19913e-23)
(0.630548 0.470517 2.03722e-23)
(0.561851 0.44446 3.18427e-23)
(0.582106 0.117372 9.36406e-24)
(-0.198104 -0.276438 -8.42004e-21)
(-0.199263 -0.304434 -9.25483e-21)
(-0.199645 -0.323258 1.57777e-20)
(-0.198848 -0.330142 -9.71601e-21)
(-0.196002 -0.322373 -4.10709e-21)
(-0.1897 -0.297453 4.86146e-22)
(-0.178121 -0.253478 5.84579e-21)
(-0.159442 -0.189823 -9.82676e-21)
(-0.132636 -0.107989 -7.13837e-21)
(-0.0980538 -0.0120675 1.07959e-20)
(-0.0578497 0.0916958 9.22721e-21)
(-0.015146 0.195966 -4.07173e-21)
(0.0254292 0.294961 5.9716e-21)
(0.0598579 0.383001 -3.26264e-21)
(0.0851897 0.458423 5.75138e-21)
(0.100452 0.519078 -1.00825e-20)
(0.110253 0.560899 -7.30929e-21)
(0.125579 0.573376 -1.30202e-21)
(0.16056 0.542008 7.16844e-22)
(0.22071 0.4583 -1.08899e-20)
(0.2963 0.32946 -4.08023e-21)
(0.378478 0.169432 5.00493e-21)
(0.462094 -0.00370955 5.82192e-21)
(0.54309 -0.171993 -4.74184e-21)
(0.613155 -0.313801 -3.60718e-23)
(0.667795 -0.418499 -5.78435e-21)
(0.699997 -0.48241 -5.68286e-21)
(0.711521 -0.51275 2.37777e-21)
(0.708422 -0.513258 4.95602e-21)
(0.684081 -0.505559 2.05437e-22)
(0.624097 -0.514784 -4.42916e-22)
(0.547005 -0.512282 2.68022e-22)
(0.500697 -0.456534 -1.18738e-21)
(0.50405 -0.298014 3.19089e-21)
(0.543527 -0.112182 2.81534e-21)
(0.602896 0.107119 7.93812e-22)
(0.654662 0.254313 2.4294e-22)
(0.704017 0.381569 -3.56862e-21)
(0.738043 0.416309 -2.84127e-22)
(0.735095 0.452455 -1.32618e-21)
(0.68702 0.499363 1.55498e-22)
(0.628575 0.474792 -6.24241e-23)
(0.560795 0.446181 -3.23074e-22)
(0.582117 0.116706 2.05396e-23)
(-0.189388 -0.275376 6.59453e-21)
(-0.19146 -0.303726 1.90884e-20)
(-0.19309 -0.32298 -1.15229e-20)
(-0.193877 -0.330434 6.67299e-21)
(-0.192937 -0.323445 -1.29168e-20)
(-0.188856 -0.299569 5.4937e-21)
(-0.179773 -0.256903 -5.86102e-21)
(-0.163739 -0.194711 9.18924e-21)
(-0.1395 -0.114273 -4.56244e-22)
(-0.107154 -0.0194053 8.49375e-21)
(-0.0686978 0.083868 -5.84796e-21)
(-0.0271302 0.188317 -9.33769e-21)
(0.0128832 0.288211 -1.20537e-20)
(0.0474081 0.377618 1.39206e-20)
(0.0737122 0.454635 -5.91879e-21)
(0.0910898 0.516579 1.29125e-20)
(0.104505 0.558718 5.45978e-21)
(0.124937 0.570092 -2.62304e-21)
(0.165507 0.536681 3.48466e-22)
(0.229841 0.451307 1.02825e-21)
(0.307762 0.32181 -3.60676e-21)
(0.391381 0.161709 -1.13672e-20)
(0.475827 -0.0111807 6.88083e-21)
(0.556957 -0.178741 -3.16969e-21)
(0.626289 -0.319311 -9.3158e-23)
(0.67967 -0.422278 2.39164e-21)
(0.710423 -0.484236 8.29097e-21)
(0.720091 -0.513031 -2.09307e-21)
(0.715419 -0.512009 -4.0009e-21)
(0.691064 -0.501743 1.08214e-22)
(0.631588 -0.508621 1.22205e-21)
(0.552812 -0.506933 2.91465e-21)
(0.503049 -0.454976 5.86559e-22)
(0.503078 -0.300372 -3.48914e-21)
(0.540606 -0.116787 -1.19494e-21)
(0.598308 0.102182 2.53049e-22)
(0.65018 0.250016 3.00145e-21)
(0.700369 0.378235 1.43104e-21)
(0.73519 0.415047 1.05378e-23)
(0.731752 0.454223 4.7887e-22)
(0.683664 0.503 -1.8409e-22)
(0.626729 0.478984 2.65318e-23)
(0.559946 0.447844 -4.73251e-22)
(0.58232 0.116016 -1.29166e-22)
(-0.178842 -0.274082 -2.60415e-20)
(-0.181804 -0.302756 3.25926e-21)
(-0.184684 -0.322414 1.83607e-21)
(-0.187065 -0.330419 1.33275e-20)
(-0.188048 -0.3242 -1.11939e-20)
(-0.186203 -0.301364 2.48983e-21)
(-0.179643 -0.260014 -8.03159e-21)
(-0.166319 -0.19932 -2.47471e-21)
(-0.144764 -0.120347 -1.5155e-21)
(-0.114809 -0.0266238 1.38261e-20)
(-0.0782624 0.076062 -8.79743e-23)
(-0.0379599 0.180608 -8.12952e-21)
(0.00140866 0.281309 1.13217e-20)
(0.0360075 0.372 -1.12664e-20)
(0.0633363 0.450506 -2.90954e-21)
(0.0829338 0.513612 -4.42433e-21)
(0.100061 0.555953 -3.64389e-21)
(0.125582 0.566201 4.70617e-21)
(0.171503 0.530905 -6.78371e-23)
(0.239685 0.444127 -3.56896e-21)
(0.319751 0.314164 1.64057e-20)
(0.404724 0.154085 1.57127e-20)
(0.489925 -0.0184911 6.87175e-21)
(0.571112 -0.185281 -1.11908e-20)
(0.639633 -0.324592 1.84717e-20)
(0.691667 -0.425847 -1.48352e-20)
(0.720938 -0.485871 -6.62212e-21)
(0.72876 -0.513145 2.39926e-21)
(0.722444 -0.510703 -1.7379e-21)
(0.698013 -0.497975 -2.59577e-21)
(0.639143 -0.50243 -2.52315e-21)
(0.558878 -0.50138 -1.04551e-21)
(0.505699 -0.453171 9.15095e-22)
(0.502349 -0.302577 4.74825e-22)
(0.537895 -0.121323 1.21717e-21)
(0.593916 0.09724 -4.1068e-21)
(0.645918 0.24564 -1.45964e-21)
(0.696886 0.374816 -1.14257e-21)
(0.732422 0.413764 -9.29893e-22)
(0.728462 0.455993 -2.52219e-22)
(0.680407 0.506579 -2.37373e-22)
(0.625009 0.48309 -7.75796e-23)
(0.559307 0.449447 1.07043e-21)
(0.582717 0.115302 5.27645e-23)
(-0.166438 -0.272562 1.69862e-20)
(-0.170266 -0.301524 1.8779e-20)
(-0.174392 -0.321557 -1.8028e-20)
(-0.178384 -0.330094 1.04391e-20)
(-0.18131 -0.324631 -7.26997e-22)
(-0.181717 -0.302829 1.07417e-21)
(-0.177701 -0.262801 7.40164e-21)
(-0.167134 -0.203632 -2.19262e-20)
(-0.148363 -0.126184 2.09275e-20)
(-0.120944 -0.0336935 -2.35523e-20)
(-0.0864609 0.0683033 2.30612e-21)
(-0.0475534 0.172868 1.35691e-20)
(-0.00891388 0.274247 -6.54071e-21)
(0.0257334 0.366142 8.49645e-21)
(0.0541307 0.446024 5.75346e-21)
(0.0760348 0.510167 -6.86544e-21)
(0.0969402 0.552606 1.71997e-21)
(0.127494 0.561731 -5.07177e-21)
(0.178495 0.524722 2.0193e-21)
(0.250206 0.436791 -2.7379e-21)
(0.332247 0.306539 -1.27821e-20)
(0.418489 0.146572 4.86622e-21)
(0.504369 -0.0256326 -2.07133e-20)
(0.585537 -0.191606 -3.14065e-21)
(0.653172 -0.329637 -1.29902e-20)
(0.703775 -0.429204 1.2079e-20)
(0.731528 -0.487316 2.4929e-22)
(0.737519 -0.513094 2.29109e-21)
(0.729499 -0.509339 1.72001e-21)
(0.704921 -0.494262 2.79722e-22)
(0.646746 -0.496226 3.04811e-21)
(0.565191 -0.495633 6.29416e-22)
(0.508647 -0.451118 -2.41032e-21)
(0.501866 -0.304624 -2.54733e-22)
(0.535399 -0.125787 -2.6204e-22)
(0.589727 0.0922929 4.765e-21)
(0.641878 0.241187 4.77891e-22)
(0.693564 0.371318 8.30438e-22)
(0.729737 0.412464 1.50451e-21)
(0.725227 0.457765 4.89767e-23)
(0.677251 0.510097 4.61072e-23)
(0.623415 0.487105 5.85562e-23)
(0.558877 0.450987 -1.3417e-22)
(0.583308 0.114564 -4.91977e-23)
(-0.152155 -0.270827 -2.14744e-20)
(-0.156818 -0.300036 -1.48233e-20)
(-0.162186 -0.320409 3.99374e-20)
(-0.167805 -0.329454 7.63727e-22)
(-0.1727 -0.324733 -2.20183e-20)
(-0.175381 -0.303958 1.82266e-20)
(-0.173924 -0.265253 1.19923e-21)
(-0.16615 -0.20763 -1.56346e-20)
(-0.150241 -0.13176 5.30418e-21)
(-0.125486 -0.0405861 3.0002e-21)
(-0.0932118 0.0606166 -4.21664e-21)
(-0.0558328 0.165146 -2.34479e-21)
(-0.0180073 0.267006 1.00222e-20)
(0.0166624 0.360043 -2.53198e-21)
(0.0461593 0.441183 -3.64658e-21)
(0.0704356 0.50624 4.30494e-21)
(0.0951516 0.548686 -8.5546e-21)
(0.130641 0.556708 5.5773e-21)
(0.186435 0.518172 -1.19607e-21)
(0.261368 0.429331 6.85877e-21)
(0.34523 0.298949 1.13545e-21)
(0.432659 0.139178 1.69974e-20)
(0.51914 -0.0325975 9.94083e-21)
(0.600214 -0.197709 2.21278e-21)
(0.666894 -0.334441 -7.53634e-21)
(0.715983 -0.432344 -1.07029e-21)
(0.742181 -0.488572 -1.01166e-21)
(0.74636 -0.512876 1.01434e-21)
(0.736582 -0.507912 -3.28684e-21)
(0.711783 -0.490606 1.89132e-21)
(0.654383 -0.490025 -8.20275e-22)
(0.57174 -0.489705 6.10715e-23)
(0.511894 -0.448813 6.86288e-22)
(0.501629 -0.306504 -6.90978e-22)
(0.533123 -0.130176 3.59042e-21)
(0.58575 0.0873415 -7.84827e-21)
(0.638067 0.236658 3.3197e-22)
(0.690403 0.367746 -1.28139e-21)
(0.727134 0.411148 -1.06886e-22)
(0.72205 0.459537 3.1236e-22)
(0.674199 0.513551 1.05958e-22)
(0.621948 0.491028 3.69441e-23)
(0.558657 0.452462 -8.12306e-22)
(0.584094 0.113804 1.72938e-22)
(-0.135983 -0.268885 3.26074e-20)
(-0.141445 -0.298296 1.81778e-20)
(-0.148045 -0.31897 -8.05507e-21)
(-0.155306 -0.328495 -4.72953e-21)
(-0.162198 -0.3245 7.24139e-22)
(-0.167179 -0.304743 3.05047e-20)
(-0.168297 -0.26736 -1.35429e-20)
(-0.163339 -0.211299 6.26102e-21)
(-0.150354 -0.137054 -6.61569e-21)
(-0.128371 -0.0472765 4.86995e-21)
(-0.0984362 0.0530258 9.1845e-21)
(-0.0627269 0.157415 -2.15684e-20)
(-0.0258017 0.259625 -2.90595e-21)
(0.00886908 0.353702 3.33123e-21)
(0.0394797 0.435978 5.84165e-21)
(0.0661709 0.50183 2.45929e-21)
(0.0946969 0.544205 1.67099e-21)
(0.13499 0.551166 -2.62387e-21)
(0.195269 0.511295 -3.58495e-21)
(0.27314 0.421773 -1.26385e-20)
(0.35868 0.291408 1.72405e-20)
(0.447213 0.131913 -1.95805e-20)
(0.53422 -0.0393779 -7.41601e-21)
(0.615124 -0.203584 7.72317e-21)
(0.680782 -0.339 -1.22005e-21)
(0.728281 -0.435266 1.05015e-20)
(0.752883 -0.489644 -5.59912e-21)
(0.755276 -0.512494 5.63827e-21)
(0.743696 -0.506418 5.89807e-22)
(0.718595 -0.487012 4.10377e-22)
(0.662038 -0.483844 6.92047e-22)
(0.578511 -0.483607 -9.33142e-22)
(0.51544 -0.446253 -8.91493e-22)
(0.50164 -0.308211 -2.1788e-22)
(0.531069 -0.134485 4.41983e-21)
(0.58199 0.0823864 6.57454e-21)
(0.634487 0.232058 2.51769e-21)
(0.6874 0.364103 1.98803e-21)
(0.724611 0.40982 1.069e-21)
(0.718931 0.461306 4.44799e-23)
(0.671251 0.516938 -2.50562e-22)
(0.620607 0.494853 4.38213e-23)
(0.558644 0.453871 -2.42056e-22)
(0.585073 0.113021 -1.86048e-22)
(-0.11792 -0.266748 -3.84543e-22)
(-0.124138 -0.29631 -2.24669e-20)
(-0.131955 -0.317241 2.61793e-20)
(-0.140869 -0.327212 1.25789e-20)
(-0.149788 -0.323924 -2.06644e-21)
(-0.1571 -0.305178 -2.6054e-20)
(-0.160813 -0.269116 -3.73431e-21)
(-0.158686 -0.214628 2.50477e-22)
(-0.148665 -0.142047 -1.02425e-20)
(-0.129545 -0.0537418 -3.59436e-21)
(-0.102069 0.0455534 1.13351e-20)
(-0.0681576 0.149655 -1.24673e-20)
(-0.0322202 0.252163 1.34379e-20)
(0.00241585 0.347121 -1.09263e-20)
(0.0341421 0.430407 1.19068e-20)
(0.0632664 0.496939 -1.16601e-20)
(0.0955687 0.539179 7.43696e-21)
(0.140497 0.54514 -3.46195e-21)
(0.204947 0.50413 -1.95773e-21)
(0.285487 0.414143 3.26777e-21)
(0.372574 0.283929 -9.69179e-22)
(0.462133 0.124784 -1.04582e-21)
(0.549589 -0.0459667 4.35604e-21)
(0.630248 -0.209226 -2.35209e-20)
(0.69482 -0.343307 1.48932e-20)
(0.740657 -0.437965 -1.70561e-21)
(0.763621 -0.490532 1.03783e-20)
(0.764256 -0.511949 4.4341e-21)
(0.750841 -0.504854 1.95613e-21)
(0.725355 -0.483481 -4.02938e-21)
(0.669698 -0.477697 -5.30493e-22)
(0.585489 -0.477353 1.05157e-21)
(0.519284 -0.443439 1.71941e-21)
(0.501901 -0.309739 7.94758e-22)
(0.529242 -0.138711 -8.85948e-21)
(0.578455 0.0774285 -4.08575e-21)
(0.63114 0.227387 -3.1846e-21)
(0.684551 0.360397 1.92577e-21)
(0.722166 0.408481 -3.10645e-21)
(0.715874 0.463071 3.42324e-22)
(0.668409 0.520256 8.38355e-22)
(0.619393 0.498577 -3.01892e-22)
(0.558838 0.455211 5.2158e-22)
(0.586245 0.112218 -1.05129e-23)
(-0.0979798 -0.26443 -3.79632e-20)
(-0.104904 -0.294088 3.6475e-20)
(-0.113912 -0.315224 -1.02536e-20)
(-0.124483 -0.325604 -1.48167e-20)
(-0.135456 -0.322999 5.16746e-21)
(-0.145135 -0.305254 2.2326e-20)
(-0.151466 -0.270513 -1.30723e-20)
(-0.152181 -0.217608 7.2657e-21)
(-0.145151 -0.146724 1.03541e-20)
(-0.128964 -0.0599615 -1.58174e-21)
(-0.104054 0.0382222 2.60323e-21)
(-0.072056 0.141901 -5.78211e-21)
(-0.0371944 0.244614 -4.40127e-21)
(-0.00264119 0.340305 6.67668e-22)
(0.0301887 0.424474 2.58268e-21)
(0.0617389 0.491575 9.72952e-21)
(0.097751 0.53363 -1.39223e-21)
(0.147118 0.538665 -8.03689e-21)
(0.215419 0.496714 -3.54048e-21)
(0.29838 0.406465 1.54789e-20)
(0.386891 0.276524 -4.3546e-21)
(0.477396 0.117802 -1.86802e-20)
(0.565226 -0.0523567 1.95712e-20)
(0.645565 -0.214631 1.93251e-20)
(0.708994 -0.34736 3.74635e-21)
(0.753102 -0.44044 4.04393e-21)
(0.774384 -0.491239 7.04014e-22)
(0.773291 -0.511243 -6.6433e-21)
(0.758015 -0.503215 -2.61692e-21)
(0.732058 -0.480016 2.85225e-21)
(0.677347 -0.471599 1.6642e-21)
(0.592661 -0.470956 2.42494e-22)
(0.523426 -0.440369 -1.97772e-21)
(0.502413 -0.311081 2.0258e-21)
(0.527644 -0.142852 2.24185e-21)
(0.57515 0.0724689 -1.07278e-21)
(0.628029 0.222651 8.00018e-22)
(0.681852 0.356632 -1.40738e-21)
(0.719798 0.407134 1.53458e-21)
(0.712879 0.46483 -3.91023e-22)
(0.665675 0.523501 -4.24393e-22)
(0.618304 0.502198 1.81075e-22)
(0.559236 0.45648 7.75197e-22)
(0.587611 0.111393 -1.29653e-22)
(-0.0761883 -0.261944 1.78964e-20)
(-0.0837608 -0.29164 1.72407e-21)
(-0.0939253 -0.312926 -2.59949e-22)
(-0.106145 -0.323668 -3.11194e-21)
(-0.119194 -0.321719 -8.56975e-21)
(-0.131278 -0.304965 -5.39647e-21)
(-0.140257 -0.271545 -3.16714e-21)
(-0.143825 -0.220232 9.77765e-21)
(-0.1398 -0.151073 3.22829e-21)
(-0.126595 -0.0659177 1.03927e-21)
(-0.104341 0.0310539 -1.08613e-20)
(-0.0743636 0.134184 1.53952e-20)
(-0.0406657 0.236974 -5.8143e-21)
(-0.00625266 0.333262 1.00383e-20)
(0.0276526 0.418185 -4.6571e-21)
(0.0615956 0.485751 -1.06262e-20)
(0.10122 0.527584 1.72879e-21)
(0.154802 0.531778 1.88205e-20)
(0.226636 0.489082 -1.37387e-20)
(0.311786 0.398758 9.76382e-21)
(0.401606 0.269203 6.52845e-21)
(0.492981 0.110972 1.83455e-20)
(0.58111 -0.0585412 -3.1881e-21)
(0.661055 -0.219792 -2.35261e-20)
(0.723284 -0.351155 -1.54946e-20)
(0.765603 -0.442688 -6.46556e-21)
(0.785158 -0.491767 -1.30956e-20)
(0.78237 -0.510379 3.99996e-21)
(0.765221 -0.501499 1.33762e-21)
(0.738703 -0.476616 -8.8671e-22)
(0.684973 -0.465565 -1.45404e-21)
(0.600011 -0.464432 -2.64523e-22)
(0.527864 -0.437044 2.01963e-22)
(0.503179 -0.312231 -1.63061e-21)
(0.526278 -0.146903 -3.57158e-22)
(0.572081 0.0675085 5.88459e-21)
(0.625153 0.217852 -2.93634e-21)
(0.679299 0.352813 1.09427e-21)
(0.717505 0.40578 7.24475e-22)
(0.709948 0.46658 -6.83588e-22)
(0.66305 0.526671 1.98328e-22)
(0.617341 0.505712 -3.04942e-23)
(0.559833 0.457676 -5.62528e-22)
(0.589168 0.110547 8.81263e-23)
(-0.0525839 -0.259309 4.28774e-20)
(-0.0607436 -0.28898 -4.87251e-20)
(-0.0720173 -0.310354 3.88148e-20)
(-0.0858656 -0.321407 -1.83827e-20)
(-0.101003 -0.320079 1.36467e-20)
(-0.115527 -0.304302 -2.30037e-20)
(-0.127188 -0.272202 2.16482e-20)
(-0.133625 -0.222491 -1.0842e-20)
(-0.132611 -0.155084 -5.64226e-22)
(-0.12242 -0.0715941 -3.27746e-21)
(-0.102892 0.0240685 1.11548e-20)
(-0.0750329 0.126528 -1.21658e-20)
(-0.042585 0.229254 -5.56917e-21)
(-0.00837802 0.326 -1.37281e-21)
(0.026557 0.411551 1.00889e-20)
(0.0628349 0.479482 6.81265e-21)
(0.105946 0.521067 -1.17662e-20)
(0.163496 0.524519 -1.29157e-20)
(0.23855 0.481268 -5.84822e-21)
(0.325676 0.391041 -2.22434e-20)
(0.416694 0.261975 2.2719e-20)
(0.508865 0.104303 -4.72017e-21)
(0.597222 -0.0645139 -8.80921e-21)
(0.676698 -0.224707 3.98516e-21)
(0.737674 -0.354689 1.02468e-20)
(0.778149 -0.444708 1.05992e-20)
(0.795934 -0.49212 4.72767e-21)
(0.791483 -0.509361 -4.29209e-21)
(0.772456 -0.499702 -2.06699e-21)
(0.745289 -0.473281 -3.25043e-21)
(0.692563 -0.459608 -1.60409e-21)
(0.607522 -0.457796 9.87579e-22)
(0.532597 -0.433466 5.98098e-22)
(0.504199 -0.313182 1.12406e-22)
(0.525143 -0.150862 8.65981e-22)
(0.56925 0.0625487 -2.33135e-21)
(0.622512 0.212994 9.13519e-22)
(0.676887 0.348947 -1.65588e-21)
(0.715285 0.404422 -2.37716e-21)
(0.707083 0.468319 5.55548e-22)
(0.660536 0.529764 -2.10527e-22)
(0.616502 0.509117 4.09689e-22)
(0.560627 0.458797 6.78694e-22)
(0.590917 0.109681 2.98044e-22)
(-0.0272241 -0.256539 4.61031e-20)
(-0.0359027 -0.286122 -2.36843e-20)
(-0.048228 -0.307519 -1.51928e-21)
(-0.063669 -0.318825 9.21972e-21)
(-0.0808912 -0.318078 -6.66577e-21)
(-0.0978832 -0.303258 -2.26337e-20)
(-0.112265 -0.272478 9.84565e-21)
(-0.121593 -0.224379 -2.36362e-21)
(-0.123592 -0.158748 4.41852e-21)
(-0.116432 -0.0769777 -1.72209e-20)
(-0.099684 0.017284 4.20051e-21)
(-0.0740283 0.11895 1.18423e-20)
(-0.0429142 0.221464 -7.46385e-21)
(-0.00898679 0.318535 1.07508e-21)
(0.0269154 0.404584 2.29093e-21)
(0.065446 0.472789 -3.72153e-21)
(0.11189 0.51411 7.90629e-21)
(0.173146 0.516924 1.17404e-20)
(0.251116 0.473302 7.76422e-21)
(0.340019 0.383332 1.44468e-20)
(0.432131 0.254851 -1.7664e-20)
(0.525026 0.0978015 -8.18115e-22)
(0.613539 -0.0702689 -1.02726e-21)
(0.692473 -0.22937 6.94945e-21)
(0.752146 -0.35796 -8.63848e-21)
(0.790729 -0.446496 -6.22587e-22)
(0.806699 -0.492299 3.96499e-21)
(0.80062 -0.508193 4.91821e-21)
(0.779721 -0.497822 -3.64929e-21)
(0.751814 -0.470011 4.76989e-22)
(0.700104 -0.453742 2.07804e-21)
(0.615178 -0.451065 -2.40304e-21)
(0.537621 -0.429637 -7.80288e-23)
(0.505476 -0.313929 -3.29064e-21)
(0.52424 -0.154725 2.30163e-21)
(0.566659 0.057591 3.04656e-21)
(0.620104 0.208083 1.09396e-21)
(0.674611 0.345039 7.68777e-22)
(0.713135 0.403059 2.73678e-21)
(0.704284 0.470045 -4.72964e-22)
(0.658135 0.532777 -4.78805e-22)
(0.615788 0.512409 -3.59506e-22)
(0.561613 0.459841 -5.33024e-22)
(0.592855 0.108795 5.12896e-22)
(-0.00930534 -0.283083 -2.87372e-20)
(-0.0226143 -0.304435 2.47832e-20)
(-0.0395952 -0.315931 1.09098e-20)
(-0.0588802 -0.315714 1.53937e-20)
(-0.0783565 -0.301826 7.70493e-22)
(-0.0954968 -0.272364 5.98427e-21)
(-0.107743 -0.22589 -2.1123e-20)
(-0.112759 -0.162059 4.32768e-21)
(-0.108636 -0.082058 3.19723e-21)
(-0.0947047 0.0107089 7.2443e-21)
(-0.0713266 0.111477 4.34367e-21)
(-0.0416271 0.213616 3.26607e-21)
(-0.00805914 0.310881 7.75888e-21)
(0.028731 0.397301 -1.50944e-20)
(0.0694095 0.465693 1.09104e-20)
(0.119009 0.506747 4.69329e-21)
(0.183695 0.509031 2.47564e-21)
(0.264289 0.465214 1.10374e-20)
(0.354783 0.375647 -1.75484e-20)
(0.44789 0.247839 2.05486e-20)
(0.54144 0.0914736 -1.75478e-20)
(0.630042 -0.0758006 -1.88313e-21)
(0.708361 -0.23378 1.46268e-20)
(0.766681 -0.360967 -8.33089e-21)
(0.803332 -0.448052 9.42131e-21)
(0.817443 -0.492306 -5.48376e-21)
(0.809767 -0.506878 2.47443e-21)
(0.787014 -0.495856 1.5944e-22)
(0.758278 -0.466802 4.23263e-21)
(0.707585 -0.447978 8.72722e-23)
(0.62296 -0.444256 1.25216e-21)
(0.542932 -0.425562 5.03069e-22)
(0.507011 -0.314465 -2.51225e-23)
(0.523567 -0.15849 -2.60363e-22)
(0.56431 0.0526368 -2.7284e-21)
(0.617925 0.203122 7.02863e-22)
(0.672465 0.341094 -4.74339e-22)
(0.711054 0.401694 -1.26527e-21)
(0.701554 0.471756 2.42689e-22)
(0.655847 0.535708 2.23598e-22)
(0.615197 0.515588 2.38814e-22)
(0.562787 0.460806 2.07502e-22)
(0.594983 0.107889 -5.23383e-22)
(0.018965 -0.279881 -2.36715e-20)
(0.00474845 -0.30112 2.23193e-20)
(-0.0137024 -0.312736 -2.6264e-20)
(-0.0350064 -0.312992 -1.40445e-21)
(-0.056965 -0.300002 1.3994e-20)
(-0.0768952 -0.271851 -2.63548e-20)
(-0.0920931 -0.227015 1.47079e-20)
(-0.100136 -0.165011 -1.18197e-20)
(-0.0990505 -0.0868275 8.83601e-21)
(-0.0879555 0.00438792 -1.75086e-21)
(-0.0669171 0.104146 1.37339e-21)
(-0.038711 0.205709 -8.22405e-21)
(-0.00558578 0.303054 -8.55256e-21)
(0.0319973 0.389721 -1.45677e-21)
(0.0746978 0.458222 -6.28809e-21)
(0.127256 0.49901 -5.52545e-21)
(0.195089 0.500877 1.93606e-21)
(0.278026 0.457031 -1.26653e-20)
(0.369938 0.367999 2.86923e-20)
(0.463944 0.240945 -1.56381e-20)
(0.558084 0.0853249 -4.9359e-21)
(0.646708 -0.0811041 -1.9559e-20)
(0.72434 -0.237932 -3.22028e-20)
(0.78126 -0.363708 -9.58854e-21)
(0.815946 -0.449375 7.14292e-21)
(0.828157 -0.492144 -1.37849e-21)
(0.818915 -0.505422 2.92949e-21)
(0.794334 -0.493801 4.18499e-21)
(0.764681 -0.463653 -4.71373e-21)
(0.714995 -0.442327 -1.72973e-21)
(0.630852 -0.437386 1.39898e-23)
(0.548527 -0.421246 9.75673e-22)
(0.508806 -0.314785 1.83389e-21)
(0.523121 -0.162151 1.9097e-22)
(0.5622 0.0476881 1.62001e-21)
(0.615969 0.198117 -1.79442e-22)
(0.670443 0.337118 3.15891e-22)
(0.709039 0.400327 -7.18798e-22)
(0.698893 0.473448 7.56135e-22)
(0.653674 0.538555 1.52615e-22)
(0.614728 0.518649 -4.12831e-22)
(0.564144 0.461691 -5.69783e-22)
(0.597299 0.106964 -1.184e-21)
(0.0488094 -0.276536 8.32979e-21)
(0.0337671 -0.297593 -3.83344e-21)
(0.0139319 -0.309257 -2.18758e-20)
(-0.00932356 -0.309921 1.81378e-20)
(-0.0337387 -0.297787 -5.40013e-21)