/*--------------------------------*- C++ -*----------------------------------*\
  =========                 |
  \\      /  F ield         | OpenFOAM: The Open Source CFD Toolbox
   \\    /   O peration     | Website:  https://openfoam.org
    \\  /    A nd           | Version:  7
     \\/     M anipulation  |
\*---------------------------------------------------------------------------*/
FoamFile
{
    version     2.0;
    format      ascii;
    class       volScalarField;
    location    "95";
    object      p;
}
// * * * * * * * * * * * * * * * * * * * * * * * * * * * * * * * * * * * * * //

dimensions      [0 2 -2 0 0 0 0];

internalField   nonuniform List<scalar> 
14800
(
-0.352876
-0.355139
-0.356304
-0.357134
-0.357889
-0.358652
-0.359491
-0.36043
-0.361466
-0.362576
-0.363727
-0.364884
-0.365995
-0.366991
-0.367934
-0.346396
-0.348678
-0.3498
-0.350525
-0.3511
-0.351597
-0.352073
-0.35255
-0.353017
-0.353447
-0.353801
-0.354042
-0.354117
-0.35392
-0.353608
-0.340205
-0.342471
-0.343538
-0.344153
-0.34455
-0.344785
-0.344911
-0.344939
-0.344856
-0.344628
-0.344213
-0.343572
-0.342656
-0.341322
-0.339809
-0.334324
-0.336544
-0.337544
-0.338048
-0.338271
-0.338257
-0.338046
-0.337645
-0.337035
-0.336178
-0.33503
-0.333553
-0.331706
-0.329313
-0.32667
-0.328763
-0.330915
-0.331842
-0.332236
-0.332291
-0.332039
-0.331509
-0.330701
-0.329592
-0.328141
-0.326302
-0.324042
-0.321332
-0.317971
-0.31428
-0.323529
-0.325598
-0.326447
-0.326733
-0.32663
-0.326153
-0.325323
-0.324133
-0.322554
-0.320545
-0.318061
-0.315073
-0.311571
-0.307343
-0.302687
-0.318623
-0.3206
-0.32137
-0.321554
-0.321301
-0.320615
-0.319503
-0.317954
-0.315935
-0.313406
-0.310322
-0.306661
-0.302438
-0.297443
-0.291898
-0.314043
-0.315927
-0.316621
-0.316707
-0.316314
-0.315432
-0.314058
-0.312172
-0.309743
-0.306729
-0.303089
-0.298808
-0.293929
-0.288263
-0.281868
-0.309785
-0.311582
-0.312204
-0.312199
-0.311675
-0.31061
-0.30899
-0.30679
-0.303976
-0.300511
-0.296358
-0.291507
-0.28603
-0.279775
-0.272464
-0.305847
-0.307568
-0.308124
-0.308034
-0.307388
-0.306151
-0.304301
-0.301807
-0.298634
-0.294748
-0.29012
-0.284747
-0.278731
-0.271962
-0.263502
-0.302227
-0.303888
-0.304386
-0.304217
-0.303456
-0.302058
-0.29999
-0.29722
-0.29371
-0.289432
-0.284365
-0.27852
-0.272023
-0.264898
-0.256277
-0.29893
-0.300548
-0.300995
-0.300752
-0.299883
-0.298331
-0.296059
-0.293029
-0.289204
-0.284561
-0.279087
-0.272808
-0.265868
-0.25829
-0.249611
-0.295961
-0.297554
-0.297958
-0.297646
-0.296673
-0.294976
-0.29251
-0.289236
-0.285118
-0.280136
-0.274286
-0.267605
-0.260261
-0.25229
-0.243392
-0.293334
-0.294918
-0.295284
-0.294905
-0.293833
-0.291996
-0.289348
-0.285847
-0.281458
-0.276166
-0.269972
-0.262923
-0.255205
-0.246888
-0.23768
-0.291064
-0.292651
-0.292983
-0.292539
-0.29137
-0.289402
-0.286584
-0.282874
-0.27824
-0.272668
-0.266168
-0.258786
-0.250726
-0.242091
-0.232461
-0.289174
-0.290769
-0.291067
-0.290559
-0.289296
-0.287202
-0.284228
-0.28033
-0.275481
-0.269668
-0.262904
-0.255233
-0.246865
-0.237943
-0.22771
-0.287687
-0.289289
-0.28955
-0.288976
-0.287621
-0.28541
-0.282295
-0.278235
-0.273203
-0.267193
-0.260215
-0.252306
-0.243676
-0.234507
-0.223412
-0.28663
-0.288227
-0.288445
-0.287801
-0.286356
-0.284037
-0.280798
-0.276603
-0.271427
-0.265266
-0.258133
-0.250047
-0.241207
-0.231855
-0.219585
-0.286028
-0.287599
-0.287762
-0.287044
-0.28551
-0.283091
-0.279748
-0.275446
-0.270165
-0.263903
-0.256674
-0.248478
-0.239487
-0.230036
-0.216293
-0.285903
-0.287418
-0.287511
-0.28671
-0.285087
-0.282578
-0.279148
-0.274768
-0.269419
-0.263104
-0.255836
-0.247591
-0.238511
-0.229045
-0.213656
-0.286271
-0.287692
-0.287696
-0.286802
-0.285087
-0.282495
-0.278994
-0.274559
-0.269176
-0.262848
-0.255585
-0.247342
-0.238232
-0.228791
-0.211838
-0.287143
-0.288425
-0.288317
-0.287316
-0.285503
-0.282829
-0.279269
-0.274798
-0.269405
-0.263092
-0.255866
-0.247655
-0.23857
-0.229061
-0.210924
-0.288521
-0.289615
-0.289366
-0.28824
-0.286318
-0.283561
-0.279945
-0.27545
-0.270061
-0.263781
-0.256608
-0.248446
-0.23945
-0.229528
-0.210768
-0.290399
-0.291253
-0.290833
-0.28956
-0.287513
-0.284663
-0.280988
-0.276469
-0.271089
-0.264847
-0.257738
-0.249651
-0.240878
-0.230107
-0.211784
-0.292765
-0.293327
-0.292704
-0.291256
-0.289063
-0.286102
-0.282357
-0.277805
-0.272429
-0.26622
-0.259179
-0.251202
-0.242842
-0.231514
-0.217647
-0.295602
-0.295824
-0.294961
-0.293308
-0.29094
-0.287847
-0.284012
-0.279411
-0.274021
-0.26783
-0.260842
-0.252964
-0.244993
-0.23415
-0.233003
-0.298892
-0.298728
-0.297588
-0.295696
-0.293122
-0.289867
-0.285917
-0.281245
-0.275818
-0.269615
-0.262641
-0.254811
-0.247017
-0.236601
-0.235701
-0.302617
-0.302025
-0.300575
-0.298408
-0.295592
-0.292145
-0.28805
-0.283277
-0.277782
-0.271527
-0.26451
-0.256643
-0.248747
-0.238516
-0.235701
-0.306766
-0.305707
-0.303913
-0.301435
-0.298343
-0.29467
-0.2904
-0.285493
-0.279891
-0.273533
-0.266396
-0.258385
-0.250176
-0.239889
-0.234991
-0.31133
-0.309774
-0.307601
-0.304778
-0.301378
-0.297446
-0.292969
-0.287892
-0.282135
-0.275608
-0.268257
-0.259977
-0.251292
-0.240739
-0.233829
-0.31631
-0.314226
-0.311646
-0.308448
-0.304709
-0.30049
-0.295772
-0.290482
-0.284511
-0.277732
-0.270058
-0.261376
-0.252085
-0.241094
-0.232453
-0.321713
-0.319073
-0.31606
-0.312463
-0.308359
-0.303824
-0.298829
-0.293276
-0.287016
-0.279887
-0.271768
-0.26255
-0.252551
-0.240997
-0.230922
-0.327552
-0.324329
-0.320861
-0.316843
-0.312353
-0.307476
-0.302164
-0.296284
-0.289646
-0.28205
-0.273355
-0.263471
-0.252687
-0.240491
-0.229244
-0.333842
-0.330008
-0.326069
-0.321616
-0.316721
-0.311471
-0.305793
-0.299509
-0.292386
-0.284192
-0.274785
-0.264121
-0.252494
-0.239614
-0.227399
-0.340598
-0.336127
-0.331703
-0.326803
-0.321486
-0.31583
-0.309725
-0.302943
-0.295208
-0.286275
-0.276026
-0.26448
-0.251975
-0.238393
-0.225366
-0.347831
-0.342697
-0.337778
-0.332423
-0.326665
-0.320562
-0.313954
-0.30656
-0.298074
-0.288257
-0.277041
-0.264536
-0.251131
-0.23685
-0.22312
-0.355546
-0.349724
-0.344304
-0.338487
-0.332264
-0.32566
-0.318456
-0.310321
-0.300932
-0.290087
-0.277798
-0.264275
-0.249965
-0.234999
-0.220642
-0.363736
-0.357206
-0.351282
-0.344995
-0.338275
-0.331102
-0.32319
-0.314167
-0.303719
-0.291712
-0.278262
-0.263686
-0.248478
-0.232846
-0.217916
-0.372384
-0.365129
-0.358699
-0.35193
-0.344674
-0.336846
-0.328096
-0.318028
-0.306366
-0.293079
-0.278402
-0.262757
-0.246667
-0.230392
-0.214925
-0.381457
-0.373466
-0.366531
-0.359265
-0.351417
-0.34283
-0.333097
-0.321818
-0.308798
-0.294133
-0.278187
-0.261471
-0.244525
-0.227633
-0.211655
-0.390906
-0.382176
-0.374737
-0.366951
-0.358441
-0.348975
-0.338098
-0.325446
-0.310937
-0.294819
-0.277585
-0.259814
-0.24204
-0.224558
-0.208089
-0.400666
-0.391203
-0.383262
-0.374923
-0.365666
-0.355182
-0.342993
-0.328811
-0.312705
-0.295087
-0.276565
-0.257765
-0.239198
-0.221153
-0.204211
-0.410655
-0.400474
-0.39203
-0.383095
-0.37299
-0.361335
-0.347666
-0.331813
-0.314025
-0.294884
-0.275094
-0.255301
-0.235979
-0.2174
-0.200002
-0.420773
-0.409898
-0.40095
-0.391364
-0.380293
-0.367306
-0.351994
-0.334348
-0.314824
-0.294161
-0.273137
-0.252396
-0.23236
-0.213277
-0.195442
-0.430904
-0.419367
-0.409909
-0.399606
-0.38744
-0.372955
-0.355848
-0.336316
-0.315029
-0.292869
-0.270659
-0.24902
-0.228316
-0.208761
-0.190511
-0.440914
-0.428758
-0.41878
-0.407681
-0.394279
-0.378136
-0.359103
-0.337621
-0.314573
-0.29096
-0.267624
-0.245143
-0.223818
-0.203825
-0.185189
-0.450656
-0.437929
-0.427416
-0.415433
-0.400652
-0.382697
-0.361635
-0.33817
-0.31339
-0.288386
-0.263993
-0.24073
-0.218837
-0.198445
-0.179452
-0.459968
-0.446726
-0.435657
-0.422693
-0.406388
-0.38649
-0.363324
-0.337876
-0.311419
-0.2851
-0.259727
-0.23575
-0.213344
-0.192594
-0.173281
-0.468677
-0.454981
-0.44333
-0.429283
-0.411319
-0.389367
-0.364058
-0.336658
-0.308599
-0.281057
-0.254788
-0.230168
-0.207309
-0.186246
-0.166656
-0.476602
-0.462516
-0.450253
-0.435019
-0.415275
-0.391187
-0.36373
-0.334441
-0.304877
-0.276212
-0.249138
-0.22395
-0.200702
-0.179376
-0.159558
-0.483556
-0.469147
-0.456237
-0.439718
-0.418089
-0.39182
-0.362245
-0.331156
-0.300201
-0.270524
-0.242741
-0.217065
-0.193497
-0.171961
-0.151971
-0.489348
-0.474685
-0.461093
-0.443197
-0.419605
-0.391143
-0.359516
-0.326741
-0.294522
-0.263954
-0.235563
-0.209484
-0.185667
-0.163981
-0.143879
-0.49379
-0.478941
-0.464631
-0.44528
-0.419676
-0.389047
-0.355466
-0.321141
-0.2878
-0.256465
-0.227572
-0.201179
-0.17719
-0.155415
-0.135267
-0.496698
-0.48173
-0.466671
-0.445802
-0.418171
-0.385437
-0.350028
-0.314308
-0.279995
-0.248025
-0.218741
-0.192126
-0.168045
-0.146252
-0.126132
-0.497895
-0.482875
-0.467039
-0.444613
-0.414971
-0.38023
-0.343147
-0.306203
-0.271076
-0.238607
-0.209044
-0.182304
-0.158215
-0.136484
-0.116476
-0.497217
-0.482208
-0.465577
-0.441577
-0.409976
-0.373358
-0.334778
-0.296792
-0.261017
-0.228188
-0.198462
-0.171693
-0.147684
-0.126099
-0.106285
-0.494511
-0.479577
-0.462141
-0.436578
-0.403104
-0.36477
-0.324887
-0.286053
-0.249799
-0.216753
-0.186981
-0.160282
-0.136437
-0.115066
-0.0954723
-0.489645
-0.474845
-0.456607
-0.429518
-0.394292
-0.354426
-0.313452
-0.27397
-0.237412
-0.204292
-0.174594
-0.148068
-0.124476
-0.103347
-0.0838741
-0.482503
-0.467895
-0.448874
-0.420323
-0.383493
-0.342305
-0.300463
-0.260539
-0.22385
-0.190803
-0.1613
-0.135055
-0.111806
-0.0909608
-0.0714952
-0.472993
-0.458632
-0.43886
-0.40894
-0.370682
-0.328397
-0.285919
-0.245761
-0.209119
-0.17629
-0.147107
-0.121249
-0.0984249
-0.0779682
-0.0589981
-0.461042
-0.446984
-0.426509
-0.395338
-0.355852
-0.312711
-0.269834
-0.22965
-0.193228
-0.160763
-0.132027
-0.106671
-0.0843852
-0.0643451
-0.046081
-0.446605
-0.432902
-0.411789
-0.379507
-0.339011
-0.295265
-0.252228
-0.212226
-0.176196
-0.144243
-0.116088
-0.0913407
-0.0696697
-0.0501647
-0.0326493
-0.429659
-0.416364
-0.394692
-0.36146
-0.320189
-0.276093
-0.233138
-0.193521
-0.158052
-0.12677
-0.0993018
-0.075274
-0.0543097
-0.0354362
-0.0187081
-0.410206
-0.39737
-0.375233
-0.34123
-0.299428
-0.255244
-0.212606
-0.173575
-0.138847
-0.108355
-0.0817036
-0.0585001
-0.0383348
-0.0201752
-0.00429038
-0.388274
-0.375946
-0.35345
-0.318871
-0.276796
-0.232787
-0.190682
-0.152438
-0.118607
-0.0890469
-0.0633315
-0.0410551
-0.0217775
-0.00440703
0.010568
-0.363913
-0.35214
-0.329405
-0.294461
-0.25238
-0.208794
-0.167416
-0.130161
-0.0973892
-0.0688948
-0.0442297
-0.0229804
-0.00467511
0.0118331
0.0258284
-0.337196
-0.326021
-0.30318
-0.268106
-0.226259
-0.18328
-0.142934
-0.106819
-0.0752517
-0.0479522
-0.0244486
-0.00432313
0.0129289
0.0285022
0.0414468
-0.308215
-0.297687
-0.274887
-0.239903
-0.198469
-0.156426
-0.117279
-0.0824834
-0.0522621
-0.026279
-0.00404363
0.0148649
0.0309856
0.0455481
0.0573664
-0.277078
-0.267273
-0.244693
-0.209864
-0.169173
-0.128305
-0.0905493
-0.0572352
-0.0284933
-0.0039409
0.0169251
0.0345278
0.0494416
0.0629116
0.073515
-0.243908
-0.23493
-0.212758
-0.178041
-0.138519
-0.099032
-0.0628462
-0.0311626
-0.00402372
0.0189915
0.0383925
0.0546055
0.0682427
0.0805364
0.0898279
-0.20884
-0.200782
-0.178803
-0.145055
-0.106656
-0.0687275
-0.0342786
-0.00436028
0.0210629
0.0424428
0.0602885
0.0750334
0.0873361
0.0983787
0.106265
-0.172011
-0.165009
-0.143432
-0.110747
-0.0737175
-0.0375229
-0.00495901
0.0230723
0.0466787
0.0663338
0.0825397
0.095748
0.106674
0.116371
0.122668
-0.133635
-0.127794
-0.106822
-0.0752863
-0.0398468
-0.00555269
0.0249938
0.0510307
0.0727314
0.0905828
0.105078
0.116706
0.126221
0.134328
0.138474
-0.0941381
-0.0891753
-0.0690898
-0.0388602
-0.0051965
0.0270445
0.055456
0.0794054
0.0991242
0.115107
0.127845
0.137894
0.145954
0.151986
0.153076
-0.0535301
-0.0494756
-0.030414
-0.00165553
0.0300697
0.0601241
0.0862989
0.108082
0.125754
0.139817
0.150782
0.159275
0.165794
0.169341
0.167637
-0.0120084
-0.00893288
0.00900437
0.0361393
0.065783
0.0935371
0.117389
0.13694
0.152514
0.164621
0.173803
0.180718
0.185515
0.186572
0.186611
0.0301937
0.0322383
0.0489562
0.0743321
0.101771
0.12713
0.148591
0.165857
0.179292
0.189417
0.196795
0.202047
0.205081
0.204632
0.205638
0.0728414
0.0738178
0.0892279
0.112728
0.13786
0.160749
0.179765
0.194709
0.205978
0.214103
0.219654
0.223195
0.224548
0.222908
0.223607
0.1157
0.115581
0.129604
0.151129
0.173873
0.194236
0.210772
0.223369
0.232456
0.238571
0.242278
0.244095
0.24385
0.241068
0.240916
0.158535
0.157302
0.16987
0.18934
0.209636
0.227436
0.241471
0.251713
0.258613
0.262715
0.264572
0.264669
0.262861
0.258882
0.257616
0.201109
0.198752
0.20981
0.227166
0.244972
0.260191
0.271723
0.279613
0.284335
0.286431
0.286444
0.284833
0.281483
0.276258
0.273747
0.243189
0.239705
0.249212
0.264412
0.279711
0.292349
0.301389
0.306946
0.309509
0.309618
0.307804
0.304505
0.299628
0.293132
0.289309
0.284544
0.279936
0.287866
0.30089
0.31368
0.323758
0.330335
0.33359
0.334025
0.332178
0.328564
0.323602
0.317221
0.309451
0.304283
0.324945
0.319226
0.325567
0.336412
0.346716
0.354268
0.358427
0.359425
0.357777
0.354013
0.348637
0.342047
0.334193
0.325163
0.318639
0.36417
0.35736
0.362114
0.370799
0.378655
0.383736
0.385535
0.384336
0.38066
0.375031
0.367939
0.359766
0.35048
0.340217
0.332343
0.402004
0.394128
0.397313
0.403874
0.409341
0.412021
0.411535
0.408209
0.402573
0.395142
0.386392
0.376688
0.36602
0.35456
0.345356
0.438239
0.429331
0.430979
0.435471
0.438624
0.438991
0.436306
0.430938
0.423419
0.414258
0.403916
0.392745
0.380753
0.368142
0.35764
0.472675
0.462776
0.462933
0.465427
0.46636
0.464514
0.459733
0.452417
0.443105
0.432297
0.420439
0.407869
0.394621
0.380911
0.369153
0.505123
0.494279
0.493005
0.493591
0.492414
0.488471
0.481705
0.47255
0.461544
0.44918
0.43589
0.422
0.407567
0.39282
0.379859
0.535404
0.52367
0.521037
0.519819
0.516655
0.510745
0.502121
0.491243
0.478652
0.464831
0.450201
0.435077
0.419539
0.40382
0.389719
0.56335
0.550786
0.54688
0.543977
0.538965
0.531229
0.520882
0.50841
0.49435
0.479182
0.463311
0.447046
0.430487
0.413867
0.398699
0.588807
0.575478
0.570395
0.56594
0.559232
0.549823
0.537901
0.523969
0.508568
0.492167
0.475162
0.457854
0.440365
0.422921
0.406766
0.611632
0.59761
0.591457
0.585596
0.577355
0.566437
0.553094
0.537848
0.521238
0.503727
0.485701
0.467454
0.449128
0.430941
0.41389
0.631697
0.617058
0.609952
0.602841
0.593241
0.580988
0.566389
0.54998
0.532301
0.513808
0.494879
0.475803
0.456739
0.437894
0.420044
0.648888
0.633713
0.62578
0.617586
0.606809
0.593403
0.577718
0.560306
0.541703
0.522363
0.502655
0.482862
0.463162
0.443749
0.425204
0.663107
0.647479
0.638851
0.629749
0.617989
0.603617
0.587025
0.568774
0.549399
0.52935
0.508989
0.488599
0.468367
0.448478
0.429351
0.674267
0.658275
0.649092
0.639266
0.626721
0.611578
0.594262
0.57534
0.555349
0.534733
0.513852
0.492984
0.472328
0.452059
0.432465
0.682302
0.666037
0.656442
0.64608
0.632954
0.617241
0.599388
0.579969
0.55952
0.538485
0.517217
0.495994
0.475024
0.454472
0.434535
0.687159
0.670713
0.660855
0.650151
0.636652
0.620573
0.602374
0.582634
0.561889
0.540582
0.519064
0.497613
0.47644
0.455705
0.435547
0.688801
0.672268
0.662298
0.651449
0.63779
0.62155
0.603198
0.583315
0.562439
0.54101
0.51938
0.497827
0.476563
0.455746
0.435495
0.687209
0.670684
0.660754
0.649958
0.636351
0.620159
0.601848
0.582003
0.561159
0.53976
0.518158
0.496631
0.475389
0.45459
0.434375
0.682377
0.665955
0.656219
0.645674
0.632334
0.616397
0.598323
0.578694
0.558049
0.536831
0.515396
0.494023
0.472916
0.452238
0.432185
0.67432
0.658095
0.648703
0.638608
0.625747
0.610273
0.59263
0.573397
0.553114
0.532228
0.511099
0.490007
0.469149
0.448692
0.428931
0.663065
0.64713
0.638233
0.628783
0.61661
0.601805
0.584785
0.566126
0.546368
0.525964
0.505278
0.484594
0.464097
0.443962
0.424616
0.648658
0.633104
0.624848
0.616233
0.604956
0.591022
0.574815
0.556903
0.537832
0.518057
0.497951
0.477799
0.457773
0.438059
0.419251
0.631159
0.616075
0.608601
0.601008
0.590828
0.577962
0.562754
0.545762
0.527535
0.508534
0.48914
0.469643
0.450198
0.431001
0.412847
0.610646
0.596117
0.58956
0.583168
0.574281
0.562675
0.548646
0.532742
0.515513
0.497427
0.478875
0.460152
0.441396
0.42281
0.405422
0.58721
0.573318
0.567807
0.562786
0.55538
0.54522
0.532546
0.517891
0.501809
0.484775
0.467191
0.449359
0.431394
0.41351
0.396994
0.560959
0.547781
0.543435
0.539948
0.534201
0.525665
0.514514
0.501264
0.486472
0.470622
0.454128
0.437298
0.420227
0.403133
0.387587
0.532014
0.519623
0.516553
0.514749
0.510832
0.504089
0.494621
0.482925
0.469561
0.455021
0.439732
0.424012
0.407931
0.391711
0.377225
0.500511
0.488974
0.487281
0.487299
0.485368
0.480577
0.472944
0.462944
0.451137
0.438027
0.424054
0.409547
0.394549
0.379281
0.365939
0.466599
0.455977
0.45575
0.457717
0.457916
0.455226
0.44957
0.441398
0.431272
0.419704
0.40715
0.393951
0.380125
0.365884
0.353758
0.430439
0.420788
0.422105
0.42613
0.428593
0.428139
0.424592
0.418371
0.410039
0.400118
0.38908
0.377278
0.364707
0.351562
0.340717
0.392206
0.383574
0.386498
0.392678
0.397521
0.399428
0.39811
0.393953
0.38752
0.379343
0.369909
0.359588
0.348348
0.336362
0.326852
0.352084
0.344513
0.349096
0.357509
0.364834
0.369211
0.37023
0.36824
0.363801
0.357455
0.349705
0.34094
0.331102
0.320331
0.3122
0.310268
0.303792
0.31007
0.320781
0.330672
0.337613
0.341065
0.341332
0.338972
0.334535
0.328542
0.321398
0.313025
0.303518
0.296799
0.266962
0.26161
0.269606
0.282657
0.295182
0.304767
0.310732
0.313336
0.313128
0.310669
0.306494
0.30103
0.294175
0.285973
0.280686
0.22238
0.218171
0.227892
0.243309
0.258517
0.270809
0.279357
0.284363
0.28637
0.285946
0.283642
0.279906
0.274615
0.267745
0.263898
0.17674
0.173688
0.185126
0.202916
0.220836
0.235882
0.247065
0.254527
0.2588
0.260457
0.260068
0.258099
0.254406
0.248882
0.246464
0.130271
0.128379
0.141511
0.161661
0.182305
0.200133
0.213989
0.223947
0.230524
0.2343
0.235857
0.235688
0.233618
0.229436
0.228408
0.0832008
0.0824676
0.097257
0.119733
0.143092
0.163713
0.180263
0.192744
0.201653
0.207572
0.211098
0.212752
0.212326
0.209455
0.209742
0.035766
0.036181
0.0525752
0.077325
0.103368
0.126775
0.146026
0.161042
0.172298
0.180375
0.185882
0.189379
0.190622
0.189009
0.190456
-0.011797
-0.0102522
0.007681
0.0346316
0.063308
0.0894742
0.111417
0.128968
0.142575
0.152813
0.1603
0.16565
0.168613
0.168197
0.170503
-0.0592501
-0.0566026
-0.0372087
-0.00814983
0.0230884
0.051969
0.0765774
0.096648
0.112598
0.124995
0.13445
0.141644
0.146429
0.147282
0.149826
-0.106355
-0.102642
-0.0818767
-0.0508214
-0.0171141
0.0144164
0.041648
0.0642097
0.0824848
0.097031
0.108436
0.117428
0.124146
0.126653
0.127966
-0.152875
-0.148146
-0.126106
-0.0931852
-0.0571232
-0.0230265
0.00676934
0.0317795
0.0523477
0.069026
0.0823667
0.0930613
0.101664
0.106965
0.106103
-0.198574
-0.192894
-0.169681
-0.135046
-0.0967642
-0.0602044
-0.0279197
-0.00051755
0.0222997
0.0410822
0.0563613
0.0687426
0.0790217
0.087119
0.089467
-0.24322
-0.236663
-0.21239
-0.176211
-0.135865
-0.0969647
-0.0622832
-0.032559
-0.00754863
0.0132962
0.0305092
0.0446212
0.0564895
0.066911
0.0727886
-0.28666
-0.279189
-0.254033
-0.216495
-0.174257
-0.133159
-0.0961892
-0.0642271
-0.0370916
-0.0142422
0.00486897
0.0207297
0.0341556
0.0463506
0.0546615
-0.32884
-0.320188
-0.294443
-0.255714
-0.211777
-0.168642
-0.12951
-0.0954092
-0.0662297
-0.0414482
-0.020504
-0.00292862
0.0120308
0.0257301
0.0358217
-0.369298
-0.35959
-0.333528
-0.29369
-0.248271
-0.203278
-0.162125
-0.125997
-0.0948682
-0.0682383
-0.0455414
-0.0263155
-0.00985827
0.00524834
0.0169226
-0.407857
-0.397256
-0.370984
-0.330279
-0.283592
-0.236933
-0.193914
-0.155889
-0.122916
-0.0945309
-0.070168
-0.0493666
-0.0314656
-0.0150275
-0.00186728
-0.444382
-0.432991
-0.406392
-0.365502
-0.317598
-0.269478
-0.224767
-0.184984
-0.150286
-0.120248
-0.0943109
-0.0720151
-0.0527376
-0.0350538
-0.0205112
-0.478735
-0.466655
-0.439899
-0.398824
-0.350206
-0.300796
-0.254577
-0.213191
-0.176896
-0.145314
-0.117902
-0.0941983
-0.0736179
-0.0547716
-0.0389386
-0.510789
-0.4981
-0.471372
-0.430238
-0.381195
-0.330767
-0.283241
-0.240422
-0.202668
-0.169662
-0.140879
-0.115858
-0.0940505
-0.0741175
-0.0570699
-0.540433
-0.527196
-0.500655
-0.459706
-0.410415
-0.359311
-0.310666
-0.266597
-0.22753
-0.193225
-0.163181
-0.136939
-0.113983
-0.0930357
-0.0748443
-0.567578
-0.55384
-0.52763
-0.487116
-0.437838
-0.386264
-0.336798
-0.291645
-0.251418
-0.215946
-0.184756
-0.157391
-0.13337
-0.111479
-0.0922159
-0.592151
-0.577959
-0.55221
-0.512364
-0.463383
-0.4116
-0.361526
-0.315494
-0.274272
-0.237771
-0.205555
-0.177169
-0.152169
-0.129409
-0.109145
-0.614099
-0.599504
-0.574334
-0.535367
-0.486963
-0.435249
-0.384796
-0.338095
-0.296041
-0.258654
-0.225537
-0.196235
-0.170346
-0.146794
-0.125597
-0.633392
-0.618445
-0.59396
-0.55607
-0.50851
-0.457143
-0.406559
-0.359398
-0.316698
-0.278547
-0.244669
-0.214552
-0.187871
-0.16361
-0.141541
-0.650026
-0.634778
-0.611067
-0.574436
-0.527976
-0.477233
-0.426772
-0.379365
-0.336198
-0.297462
-0.262895
-0.232094
-0.204717
-0.179845
-0.156949
-0.66402
-0.648522
-0.62566
-0.590448
-0.545331
-0.495482
-0.445401
-0.397964
-0.354506
-0.315333
-0.280234
-0.24885
-0.220858
-0.19549
-0.171823
-0.675417
-0.659722
-0.637766
-0.604111
-0.56056
-0.51187
-0.462421
-0.415175
-0.371608
-0.332146
-0.296656
-0.264807
-0.236301
-0.210486
-0.186252
-0.684285
-0.668447
-0.647435
-0.615448
-0.573666
-0.526386
-0.477821
-0.430988
-0.387497
-0.347899
-0.312146
-0.279944
-0.251011
-0.224818
-0.200473
-0.690715
-0.674787
-0.654744
-0.624508
-0.584671
-0.539035
-0.491599
-0.4454
-0.402171
-0.36259
-0.326701
-0.294258
-0.264998
-0.238487
-0.213966
-0.694818
-0.678856
-0.659789
-0.631358
-0.593613
-0.549836
-0.503764
-0.458416
-0.415635
-0.376225
-0.340325
-0.307751
-0.27826
-0.251469
-0.22666
-0.696726
-0.680787
-0.662688
-0.636088
-0.600549
-0.558822
-0.514334
-0.470051
-0.427902
-0.388814
-0.35303
-0.320428
-0.290795
-0.263791
-0.238706
-0.696587
-0.68073
-0.663581
-0.638809
-0.605553
-0.566038
-0.523341
-0.480327
-0.438991
-0.400376
-0.364831
-0.332305
-0.302619
-0.275486
-0.250212
-0.694566
-0.678851
-0.662623
-0.639647
-0.608719
-0.571547
-0.530825
-0.489276
-0.44893
-0.410937
-0.375753
-0.343405
-0.313757
-0.286579
-0.261206
-0.690839
-0.675328
-0.659983
-0.63875
-0.610155
-0.575421
-0.536837
-0.496935
-0.45775
-0.420526
-0.385825
-0.353757
-0.324233
-0.297085
-0.271694
-0.68559
-0.670347
-0.655842
-0.636275
-0.609985
-0.577749
-0.541435
-0.503349
-0.46549
-0.429178
-0.395079
-0.36339
-0.334075
-0.307024
-0.281686
-0.679012
-0.664099
-0.650391
-0.632397
-0.608348
-0.578631
-0.544691
-0.508568
-0.472191
-0.436931
-0.403551
-0.372337
-0.343312
-0.316423
-0.291203
-0.671297
-0.656777
-0.64382
-0.627293
-0.605394
-0.578178
-0.546682
-0.512651
-0.4779
-0.443827
-0.41128
-0.380636
-0.351979
-0.325312
-0.300271
-0.662638
-0.648571
-0.636322
-0.62115
-0.601283
-0.576514
-0.547496
-0.515659
-0.482666
-0.44991
-0.418307
-0.388325
-0.360112
-0.333724
-0.308918
-0.653222
-0.639667
-0.628087
-0.614152
-0.596181
-0.573768
-0.547226
-0.517659
-0.486542
-0.455225
-0.424677
-0.395446
-0.367752
-0.341697
-0.317174
-0.64323
-0.63024
-0.619295
-0.606483
-0.590255
-0.57008
-0.545975
-0.518723
-0.48958
-0.459818
-0.430431
-0.402041
-0.374938
-0.349268
-0.325075
-0.632833
-0.620457
-0.610118
-0.598319
-0.583676
-0.565593
-0.543852
-0.518929
-0.491837
-0.463736
-0.435614
-0.408154
-0.381715
-0.35648
-0.332658
-0.622188
-0.610468
-0.600711
-0.589823
-0.576606
-0.560452
-0.540968
-0.518355
-0.49337
-0.467024
-0.44027
-0.413828
-0.388125
-0.363377
-0.339962
-0.611441
-0.600413
-0.591219
-0.58115
-0.569202
-0.554801
-0.537441
-0.517086
-0.494237
-0.469727
-0.444438
-0.419104
-0.394214
-0.370001
-0.347032
-0.600719
-0.59041
-0.581764
-0.572434
-0.561608
-0.548781
-0.53339
-0.51521
-0.4945
-0.47189
-0.448159
-0.424025
-0.400023
-0.376401
-0.353911
-0.590137
-0.580564
-0.572455
-0.563794
-0.553955
-0.542524
-0.528931
-0.512817
-0.494219
-0.473556
-0.451469
-0.428627
-0.405595
-0.38262
-0.360648
-0.57979
-0.570963
-0.56338
-0.555329
-0.546357
-0.536152
-0.524179
-0.509998
-0.493459
-0.474768
-0.454401
-0.432945
-0.410971
-0.388705
-0.367292
-0.569762
-0.56168
-0.554613
-0.547123
-0.53891
-0.529774
-0.519244
-0.506845
-0.492286
-0.475569
-0.456988
-0.43701
-0.416188
-0.394701
-0.373893
-0.560119
-0.552772
-0.546209
-0.539238
-0.531695
-0.523485
-0.514227
-0.503451
-0.490768
-0.476003
-0.459259
-0.440848
-0.421279
-0.400649
-0.380507
-0.550917
-0.544285
-0.53821
-0.531723
-0.524773
-0.517366
-0.509219
-0.499903
-0.488976
-0.476116
-0.46124
-0.444483
-0.426273
-0.40659
-0.38719
-0.542199
-0.536252
-0.530649
-0.524612
-0.51819
-0.51148
-0.5043
-0.496285
-0.48698
-0.475957
-0.462959
-0.447931
-0.431193
-0.412557
-0.393999
-0.534
-0.5287
-0.523544
-0.517928
-0.511983
-0.50588
-0.49954
-0.492677
-0.484854
-0.475577
-0.464446
-0.451208
-0.436054
-0.418579
-0.400997
-0.526347
-0.521643
-0.516909
-0.511687
-0.506173
-0.500606
-0.494998
-0.48915
-0.482669
-0.475033
-0.465729
-0.454323
-0.440866
-0.424674
-0.408245
-0.519257
-0.515093
-0.510751
-0.505897
-0.500779
-0.495691
-0.490726
-0.485771
-0.480496
-0.474382
-0.466845
-0.457288
-0.445631
-0.430849
-0.415806
-0.512741
-0.509052
-0.505069
-0.500559
-0.49581
-0.491157
-0.486764
-0.482601
-0.478404
-0.473686
-0.467832
-0.460109
-0.450338
-0.437091
-0.423739
-0.506798
-0.503514
-0.499858
-0.495672
-0.491271
-0.487023
-0.48315
-0.479691
-0.476457
-0.473009
-0.468732
-0.462798
-0.454971
-0.443369
-0.43208
-0.501418
-0.498467
-0.495105
-0.491225
-0.48716
-0.4833
-0.479909
-0.477088
-0.474716
-0.472412
-0.469591
-0.465366
-0.459502
-0.449614
-0.440862
-0.496577
-0.493886
-0.490787
-0.487201
-0.483467
-0.479988
-0.477059
-0.474827
-0.473231
-0.471955
-0.470459
-0.46783
-0.463888
-0.455749
-0.44991
-0.492237
-0.489736
-0.486873
-0.483574
-0.480173
-0.477077
-0.474603
-0.472929
-0.472043
-0.471688
-0.471383
-0.470212
-0.468083
-0.46162
-0.45905
-0.488343
-0.48597
-0.483321
-0.480304
-0.477244
-0.474544
-0.472528
-0.471396
-0.47117
-0.471647
-0.472403
-0.472543
-0.472022
-0.46713
-0.466644
-0.48483
-0.482532
-0.480078
-0.477344
-0.474635
-0.472348
-0.470803
-0.470209
-0.470611
-0.471847
-0.473546
-0.474867
-0.475647
-0.472757
-0.46632
-0.481617
-0.479353
-0.477082
-0.474633
-0.472289
-0.470433
-0.469377
-0.469325
-0.470335
-0.472276
-0.474819
-0.47721
-0.479008
-0.478803
-0.46971
-0.478615
-0.476361
-0.474263
-0.472103
-0.470136
-0.46873
-0.468178
-0.468676
-0.470283
-0.472889
-0.476199
-0.479571
-0.482263
-0.484588
-0.475392
-0.475731
-0.473475
-0.471549
-0.46968
-0.4681
-0.467156
-0.467121
-0.468175
-0.470371
-0.473609
-0.477626
-0.481883
-0.485426
-0.489638
-0.481218
-0.47287
-0.470616
-0.468861
-0.467288
-0.4661
-0.465624
-0.46611
-0.467717
-0.470489
-0.474332
-0.479004
-0.48404
-0.488408
-0.493909
-0.486712
-0.469939
-0.467705
-0.466126
-0.464848
-0.46405
-0.464039
-0.46504
-0.467189
-0.470518
-0.474932
-0.480207
-0.485925
-0.491093
-0.497467
-0.491905
-0.466853
-0.464666
-0.463271
-0.462286
-0.461871
-0.462311
-0.463807
-0.466473
-0.470327
-0.475273
-0.481098
-0.487414
-0.493343
-0.500323
-0.496695
-0.463535
-0.461432
-0.460229
-0.459531
-0.459484
-0.460352
-0.462312
-0.465457
-0.469791
-0.475219
-0.481535
-0.488374
-0.495005
-0.502432
-0.500866
-0.459918
-0.457943
-0.456939
-0.456519
-0.456819
-0.458082
-0.460462
-0.464036
-0.468795
-0.474642
-0.481385
-0.488675
-0.495933
-0.503728
-0.504201
-0.455951
-0.454148
-0.453351
-0.453197
-0.453815
-0.45543
-0.458179
-0.46212
-0.467237
-0.473434
-0.480529
-0.4882
-0.495998
-0.50413
-0.506511
-0.451595
-0.450008
-0.449423
-0.449519
-0.450422
-0.452341
-0.455398
-0.459637
-0.465038
-0.471507
-0.478875
-0.486853
-0.495098
-0.503555
-0.507644
-0.446828
-0.445497
-0.445127
-0.445452
-0.446602
-0.448773
-0.452071
-0.456534
-0.462138
-0.468796
-0.476354
-0.48456
-0.493154
-0.501917
-0.507473
-0.44164
-0.4406
-0.440444
-0.440975
-0.442332
-0.444698
-0.448169
-0.452779
-0.458503
-0.465263
-0.472923
-0.48127
-0.490109
-0.49914
-0.505899
-0.436038
-0.435317
-0.43537
-0.436081
-0.437603
-0.440105
-0.443681
-0.448359
-0.454119
-0.460893
-0.468564
-0.476956
-0.485925
-0.495161
-0.502843
-0.430042
-0.42966
-0.429912
-0.430776
-0.432419
-0.435002
-0.438613
-0.443282
-0.448993
-0.455691
-0.463279
-0.471614
-0.480592
-0.489951
-0.498251
-0.423686
-0.423652
-0.424092
-0.425079
-0.426801
-0.429408
-0.432989
-0.437574
-0.443154
-0.449685
-0.457092
-0.465261
-0.47412
-0.48349
-0.492143
-0.417014
-0.417328
-0.417939
-0.419023
-0.42078
-0.423359
-0.426847
-0.431277
-0.436645
-0.442922
-0.450048
-0.457942
-0.466556
-0.475692
-0.484598
-0.410078
-0.410735
-0.411497
-0.412647
-0.414401
-0.416903
-0.420239
-0.424447
-0.429529
-0.435464
-0.44221
-0.449709
-0.457928
-0.466685
-0.475551
-0.402942
-0.403923
-0.404816
-0.406004
-0.407718
-0.410098
-0.41323
-0.417156
-0.421881
-0.427393
-0.433661
-0.440646
-0.448321
-0.456552
-0.465031
-0.395671
-0.39695
-0.397952
-0.39915
-0.400792
-0.40301
-0.405893
-0.409482
-0.413788
-0.418802
-0.424502
-0.430859
-0.437851
-0.445391
-0.453219
-0.388334
-0.389879
-0.390965
-0.392149
-0.393689
-0.395712
-0.398306
-0.401514
-0.405346
-0.409797
-0.41485
-0.420479
-0.426663
-0.433354
-0.440317
-0.380997
-0.382771
-0.383918
-0.385064
-0.386478
-0.388279
-0.390553
-0.393343
-0.396658
-0.400493
-0.404832
-0.409649
-0.414922
-0.420624
-0.42655
-0.373727
-0.375687
-0.376872
-0.377961
-0.379228
-0.380785
-0.382716
-0.38506
-0.387826
-0.391005
-0.394581
-0.398523
-0.402804
-0.40741
-0.41217
-0.366582
-0.368687
-0.369885
-0.3709
-0.372006
-0.373305
-0.374877
-0.376758
-0.378953
-0.381451
-0.384229
-0.387255
-0.390495
-0.393926
-0.397439
-0.359616
-0.361822
-0.363013
-0.363941
-0.364874
-0.365907
-0.367112
-0.368522
-0.370137
-0.371941
-0.373905
-0.375996
-0.37817
-0.380386
-0.382614
-0.369072
-0.36941
-0.36906
-0.367441
-0.364514
-0.360277
-0.355217
-0.350343
-0.347205
-0.347415
-0.352405
-0.362659
-0.377196
-0.393401
-0.407224
-0.413923
-0.407686
-0.383477
-0.340635
-0.285839
-0.229382
-0.180277
-0.14293
-0.11838
-0.105565
-0.102963
-0.111194