/*--------------------------------*- C++ -*----------------------------------*\
  =========                 |
  \\      /  F ield         | OpenFOAM: The Open Source CFD Toolbox
   \\    /   O peration     | Website:  https://openfoam.org
    \\  /    A nd           | Version:  7
     \\/     M anipulation  |
\*---------------------------------------------------------------------------*/
FoamFile
{
    version     2.0;
    format      ascii;
    class       surfaceScalarField;
    location    "95";
    object      phi;
}
// * * * * * * * * * * * * * * * * * * * * * * * * * * * * * * * * * * * * * //

dimensions      [0 3 -1 0 0 0 0];

internalField   nonuniform List<scalar> 
29260
(
-4.64907e-06
-6.41632e-05
6.88122e-05
-1.68505e-05
-0.000147941
0.000160143
-3.55894e-05
-0.000197769
0.000216507
-6.00081e-05
-0.000218591
0.000243009
-8.94235e-05
-0.000216097
0.000245512
-0.000123338
-0.000195976
0.000229891
-0.000161417
-0.000163134
0.000201212
-0.000203453
-0.000121045
0.000163081
-0.00024934
-7.13892e-05
0.000117276
-0.000299064
-1.40183e-05
6.37418e-05
-0.000352718
5.2795e-05
8.59741e-07
-0.000410541
0.000131996
-7.4173e-05
-0.000472917
0.00022738
-0.000165004
-0.000540316
0.000343493
-0.000276094
0.000486565
-0.000413524
-0.000613357
-4.75151e-06
-5.94117e-05
-1.70793e-05
-0.000135613
-3.58308e-05
-0.000179017
-6.00575e-05
-0.000194364
-8.90271e-05
-0.000187127
-0.000122223
-0.00016278
-0.000159309
-0.000126048
-0.000200072
-8.02814e-05
-0.000244384
-2.7077e-05
-0.000292175
3.37721e-05
-0.00034344
0.00010406
-0.000398265
0.00018682
-0.00045683
0.000285945
-0.000519326
0.000405989
0.000553153
-0.000585915
-4.77007e-06
-5.46416e-05
-1.70278e-05
-0.000123356
-3.55086e-05
-0.000160536
-5.91823e-05
-0.00017069
-8.72644e-05
-0.000159045
-0.000119206
-0.000130838
-0.000154645
-9.06092e-05
-0.000193339
-4.15876e-05
-0.000235102
1.46856e-05
-0.000279768
7.84382e-05
-0.000327185
0.000151478
-0.00037723
0.000236865
-0.000429822
0.000338536
-0.000484821
0.000460989
0.000610231
-0.000541899
-4.71701e-06
-4.99246e-05
-1.67387e-05
-0.000111334
-3.47103e-05
-0.000142565
-5.75269e-05
-0.000147874
-8.43462e-05
-0.000132226
-0.000114572
-0.000100612
-0.000147796
-5.73848e-05
-0.000183719
-5.66516e-06
-0.000222069
5.30355e-05
-0.000262552
0.000118921
-0.000304829
0.000193755
-0.000348528
0.000280564
-0.000393261
0.00038327
-0.000438538
0.000506265
0.000655222
-0.000483529
-4.60739e-06
-4.53172e-05
-1.62633e-05
-9.96781e-05
-3.35399e-05
-0.000125288
-5.52615e-05
-0.000126152
-8.05209e-05
-0.000106966
-0.00010866
-7.24738e-05
-0.000139203
-2.68411e-05
-0.000171771
2.69027e-05
-0.000205984
8.72478e-05
-0.000241392
0.00015433
-0.000277446
0.00022981
-0.000313495
0.000316612
-0.000348821
0.000418596
-0.00038258
0.000540024
0.000686106
-0.000413463
-4.45813e-06
-4.0859e-05
-1.56584e-05
-8.84778e-05
-3.21122e-05
-0.000108834
-5.25739e-05
-0.00010569
-7.60637e-05
-8.34767e-05
-0.000101846
-4.66917e-05
-0.000129361
6.74301e-07
-0.000158129
5.56706e-05
-0.000187642
0.000116761
-0.00021728
0.000183968
-0.000246267
0.000258796
-0.000273658
0.000344004
-0.000298402
0.00044334
-0.000319321
0.000560942
0.000701459
-0.000334674
-4.2871e-06
-3.65719e-05
-1.49838e-05
-7.77811e-05
-3.05473e-05
-9.32707e-05
-4.9661e-05
-8.65767e-05
-7.12635e-05
-6.18742e-05
-9.45286e-05
-2.34267e-05
-0.000118797
2.49423e-05
-0.000143471
8.03447e-05
-0.000167902
0.000141192
-0.000191291
0.000207357
-0.000212627
0.000280132
-0.000230676
0.000362053
-0.000244055
0.00045672
-0.000251301
0.000568188
0.000700467
-0.000250309
-4.11207e-06
-3.24599e-05
-1.42986e-05
-6.75946e-05
-2.89641e-05
-7.86051e-05
-4.67174e-05
-6.88234e-05
-6.6408e-05
-4.21837e-05
-8.71075e-05
-2.72712e-06
-0.000108043
4.58776e-05
-0.000128489
0.000100791
-0.000147648
0.00016035
-0.000164535
0.000224244
-0.00017791
0.000293507
-0.000186257
0.0003704
-0.00018788
0.000458342
-0.00018111
0.000561418
0.000682945
-0.000163588
-3.94971e-06
-2.85102e-05
-1.36577e-05
-5.78866e-05
-2.74729e-05
-6.47899e-05
-4.39251e-05
-5.23712e-05
-6.17672e-05
-2.43416e-05
-7.99606e-05
1.54662e-05
-9.76094e-05
6.35265e-05
-0.000113854
0.000117035
-0.00012774
0.000174237
-0.000138103
0.000234607
-0.000143477
0.000298881
-0.000142079
0.000369002
-0.000131902
0.000448166
-0.000111193
0.000540709
0.000649598
-7.78456e-05
-3.81447e-06
-2.46957e-05
-1.31086e-05
-4.85925e-05
-2.61691e-05
-5.17293e-05
-4.14412e-05
-3.70991e-05
-5.75764e-05
-8.20641e-06
-7.34201e-05
3.131e-05
-8.79492e-05
7.80555e-05
-0.000100165
0.000129251
-0.000108963
0.000183035
-0.000112997
0.000238641
-0.000110587
0.000296471
-9.96914e-05
0.000358107
-7.7961e-05
0.000426436
-4.32581e-05
0.000506006
0.000603519
2.8208e-06
-3.71766e-06
-2.0978e-05
-1.26879e-05
-3.96222e-05
-2.51258e-05
-3.92915e-05
-3.93868e-05
-2.28381e-05
-5.40179e-05
6.42469e-06
-6.77469e-05
4.50389e-05
-7.94226e-05
8.97313e-05
-8.79105e-05
0.000137739
-9.19573e-05
0.000187082
-9.00505e-05
0.000236734
-8.0303e-05
0.000286723
-6.04092e-05
0.000338213
-2.77375e-05
0.000393764
2.03981e-05
0.00045787
0.00053922
8.4697e-05
-3.66646e-06
-1.73116e-05
-1.24183e-05
-3.08704e-05
-2.43877e-05
-2.7322e-05
-3.78361e-05
-9.38975e-06
-5.12046e-05
1.97932e-05
-6.31048e-05
5.69391e-05
-7.2261e-05
9.88875e-05
-7.74077e-05
0.000142886
-7.71538e-05
0.000186828
-6.98328e-05
0.000229413
-5.33686e-05
0.000270259
-2.51998e-05
0.000310044
1.76008e-05
0.000350963
7.77716e-05
0.000397699
0.000460015
0.000156977
-3.66318e-06
-1.36484e-05
-1.2306e-05
-2.22276e-05
-2.3966e-05
-1.5662e-05
-3.68068e-05
3.45101e-06
-4.91644e-05
3.21509e-05
-5.95375e-05
6.73122e-05
-6.65311e-05
0.000105881
-6.87565e-05
0.000145112
-6.46949e-05
0.000182766
-5.25408e-05
0.000217259
-3.00458e-05
0.000247764
5.59575e-06
0.000274403
5.76618e-05
0.000298897
0.000129367
0.000325995
0.000366971
0.00022241
-3.70473e-06
-9.94367e-06
-1.23388e-05
-1.35936e-05
-2.38343e-05
-4.16647e-06
-3.62538e-05
1.58705e-05
-4.78294e-05
4.37265e-05
-5.69502e-05
7.6433e-05
-6.21067e-05
0.000111038
-6.17925e-05
0.000144797
-5.43686e-05
0.000175342
-3.79003e-05
0.000200791
-9.97539e-06
0.000219839
3.24369e-05
0.00023199
9.3032e-05
0.000238302
0.000175635
0.000243392
0.000260205
0.000282401
-3.78238e-06
-6.16129e-06
-1.24859e-05
-4.89005e-06
-2.39276e-05
7.27526e-06
-3.60662e-05
2.80091e-05
-4.70299e-05
5.46901e-05
-5.50992e-05
8.45023e-05
-5.86499e-05
0.000114588
-5.60565e-05
0.000142204
-4.55577e-05
0.000164843
-2.50901e-05
0.000180323
7.91278e-06
0.000186836
5.6744e-05
0.000183159
0.000125524
0.000169522
0.000218866
0.00015005
0.000139073
0.000339998
-3.882e-06
-2.27929e-06
-1.26984e-05
3.92636e-06
-2.41439e-05
1.87208e-05
-3.60698e-05
3.9935e-05
-4.64973e-05
6.51176e-05
-5.35934e-05
9.15984e-05
-5.56106e-05
0.000116606
-5.07896e-05
0.000137383
-3.72268e-05
0.000151281
-1.27045e-05
0.000155801
2.55162e-05
0.000148615
8.09909e-05
0.000127684
0.000158312
9.22014e-05
0.000262998
4.53638e-05
2.04626e-06
0.000400025
-3.9848e-06
1.7055e-06
-1.29121e-05
1.28537e-05
-2.43492e-05
3.01579e-05
-3.6035e-05
5.16208e-05
-4.58755e-05
7.49581e-05
-5.19109e-05
9.76338e-05
-5.22483e-05
0.000116943
-4.4962e-05
0.000130097
-2.79621e-05
0.000134281
1.17337e-06
0.000126665
4.5416e-05
0.000104373
0.000108599
6.45014e-05
0.000195787
5.01306e-06
0.000313437
-7.22856e-05
-0.000153222
0.000468705
-4.0687e-06
5.77421e-06
-1.30518e-05
2.18368e-05
-2.43864e-05
4.14926e-05
-3.56917e-05
6.2926e-05
-4.47439e-05
8.40103e-05
-4.94318e-05
0.000102322
-4.768e-05
0.000115191
-3.73429e-05
0.00011976
-1.60728e-05
0.00011301
1.8842e-05
9.17507e-05
7.06837e-05
5.2531e-05
0.000143604
-8.41859e-06
0.000243088
-9.44717e-05
0.000376433
-0.00020563
-0.000329571
0.000552782
-4.11019e-06
9.8844e-06
-1.30371e-05
3.07636e-05
-2.40875e-05
5.2543e-05
-3.47498e-05
7.35883e-05
-4.26487e-05
9.19092e-05
-4.54863e-05
0.000105159
-4.09519e-05
0.000110657
-2.66086e-05
0.000105416
2.42727e-07
8.61591e-05
4.27113e-05
4.92821e-05
0.000104492
-9.24972e-06
0.000190093
-9.40191e-05
0.000305291
-0.00020967
0.00045803
-0.00035837
-0.000529716
0.000658175
-4.0865e-06
1.39709e-05
-1.27901e-05
3.94672e-05
-2.32881e-05
6.3041e-05
-3.29242e-05
8.32245e-05
-3.91428e-05
9.81277e-05
-3.94141e-05
0.000105431
-3.11296e-05
0.000102372
-1.14769e-05
8.57636e-05
2.26925e-05
5.19897e-05
7.50022e-05
-3.02765e-06
0.000149649
-8.38961e-05
0.000251514
-0.000195884
0.000386434
-0.00034459
0.000562762
-0.000534698
-0.000755334
0.00078838
-3.97808e-06
1.7949e-05
-1.22425e-05
4.77316e-05
-2.18426e-05
7.26412e-05
-2.99603e-05
9.13422e-05
-3.3826e-05
0.000101993
-3.06276e-05
0.000102232
-1.73917e-05
8.91363e-05
9.15036e-06
5.92216e-05
5.2691e-05
8.44904e-06
0.000117442
-6.77788e-05
0.000208161
-0.000174615
0.000330049
-0.000317773
0.000488665
-0.000503206
0.000692492
-0.000738524
-0.001006
0.000943162
-3.77068e-06
2.17197e-05
-1.13427e-05
5.53036e-05
-1.96383e-05
8.09368e-05
-2.56583e-05
9.73622e-05
-2.63831e-05
0.000102718
-1.86681e-05
9.45173e-05
8.87862e-07
6.95803e-05
3.60748e-05
2.40346e-05
9.11852e-05
-4.66614e-05
0.000171051
-0.000147645
0.000280945
-0.000284508
0.000426243
-0.000463071
0.000611811
-0.000688773
0.000845744
-0.000972458
-0.00127856
0.0011183
-3.45696e-06
2.51766e-05
-1.00607e-05
6.19073e-05
-1.66052e-05
8.74813e-05
-1.98902e-05
0.000100647
-1.66112e-05
9.94393e-05
-3.246e-06
8.11521e-05
2.40798e-05
4.22545e-05
6.97186e-05
-2.16042e-05
0.000138569
-0.000115512
0.000236033
-0.000245109
0.000367758
-0.000416234
0.00053904
-0.000634353
0.000753632
-0.000903365
0.00101777
-0.0012366
-0.00156733
0.00130655
-3.03711e-06
2.82137e-05
-8.39015e-06
6.72603e-05
-1.27211e-05
9.18123e-05
-1.26081e-05
0.000100534
-4.4323e-06
9.12634e-05
1.57394e-05
6.09803e-05
5.22823e-05
5.7116e-06
0.000110106
-7.94279e-05
0.000194662
-0.000200068
0.000311786
-0.000362233
0.000467267
-0.000571715
0.000666037
-0.000833123
0.000910655
-0.00114798
0.00120193
-0.00152788
-0.00186557
0.00150018
-2.51839e-06
3.07321e-05
-6.34757e-06
7.10895e-05
-8.00937e-06
9.34741e-05
-3.84178e-06
9.63666e-05
1.01116e-05
7.73101e-05
3.82131e-05
3.28788e-05
8.53339e-05
-4.14092e-05
0.000156894
-0.000150988
0.000258768
-0.000301942
0.000396985
-0.00050045
0.000577113
-0.000751843
0.00080336
-0.00105937
0.00107772
-0.00142234
0.00139412
-0.00184428
-0.00216695
0.0016955
-1.91381e-06
3.26459e-05
-3.96778e-06
7.31435e-05
-2.5307e-06
9.2037e-05
6.3153e-06
8.75206e-05
2.68793e-05
5.67461e-05
6.3952e-05
-4.19388e-06
0.000122866
-0.000100323
0.000209449
-0.000237571
0.000329795
-0.000422288
0.000489762
-0.000660416
0.000694151
-0.000956232
0.000945603
-0.00131082
0.00124445
-0.00172119
0.00158394
-0.00218377
-0.00260443
0.00202141
-1.23905e-06
3.3885e-05
-1.29474e-06
7.31992e-05
3.6299e-06
8.71124e-05
1.77283e-05
7.34222e-05
4.5664e-05
2.88103e-05
9.26359e-05
-5.11658e-05
0.000164369
-0.000172056
0.000266948
-0.00034015
0.000406397
-0.000561738
0.000587942
-0.000841961
0.000814947
-0.00118324
0.00108761
-0.00158349
0.001403
-0.00203658
0.00174996
-0.00253072
-0.00300175
0.00214728
-5.11518e-07
3.43965e-05
1.61787e-06
7.10698e-05
1.03792e-05
7.83511e-05
3.0245e-05
5.35564e-05
6.62294e-05
-7.17404e-06
0.000123899
-0.000108835
0.000209266
-0.000257423
0.000328463
-0.000459347
0.000487094
-0.000720369
0.000689221
-0.00104409
0.000936095
-0.00143011
0.00122482
-0.00187221
0.00154813
-0.00235989
0.00189226
-0.00287485
-0.00336838
0.0022589
2.57842e-07
3.41386e-05
4.73115e-06
6.65965e-05
1.76323e-05
6.545e-05
4.37215e-05
2.74672e-05
8.83446e-05
-5.17972e-05
0.000157371
-0.000177862
0.000256957
-0.000357009
0.000393019
-0.000595408
0.00057032
-0.000897671
0.000791204
-0.00126497
0.00105421
-0.00169312
0.00135304
-0.00217103
0.00167655
-0.0026834
0.00200909
-0.00320739
-0.00370511
0.00234581
1.05505e-06
3.30836e-05
8.01302e-06
5.96385e-05
2.53231e-05
4.81399e-05
5.80391e-05
-5.24874e-06
0.000111806
-0.000105564
0.000192705
-0.00025876
0.000306846
-0.00047115
0.000459602
-0.000748165
0.000654432
-0.0010925
0.000891413
-0.00150195
0.00116598
-0.00196768
0.00146845
-0.0024735
0.00178483
-0.00299978
0.00209891
-0.00352148
-0.00401031
0.00240411
1.87965e-06
3.12039e-05
1.14468e-05
5.00714e-05
3.34112e-05
2.61754e-05
7.31127e-05
-4.49502e-05
0.000136446
-0.000168897
0.000229575
-0.000351889
0.000358324
-0.0005999
0.000527145
-0.000916985
0.000737688
-0.00130304
0.000987315
-0.00175158
0.0012682
-0.00224857
0.00156779
-0.00277309
0.00187055
-0.00330254
0.00216121
-0.00381213
-0.00428283
0.00243373
2.73288e-06
2.84711e-05
1.50319e-05
3.77723e-05
4.18813e-05
-6.73951e-07
8.88877e-05
-9.19566e-05
0.00016212
-0.000242129
0.000267659
-0.000457428
0.000410748
-0.000742989
0.000594487
-0.00110072
0.000818251
-0.00152681
0.0010764
-0.00200973
0.00135805
-0.00253022
0.00164864
-0.00306369
0.00193254
-0.00358645
0.00219672
-0.00407631
-0.00452303
0.00243692
3.62164e-06
2.48494e-05
1.87805e-05
2.26135e-05
5.0737e-05
-3.26305e-05
0.000105327
-0.000146547
0.000188688
-0.00032549
0.000306605
-0.000575345
0.000463392
-0.000899777
0.000660357
-0.00129769
0.000894218
-0.00176067
0.00115629
-0.00227179
0.00143321
-0.00280715
0.00170954
-0.00334002
0.00197089
-0.00384779
0.00220731
-0.00431273
-0.00473258
0.00241686
4.55585e-06
2.02936e-05
2.27116e-05
4.45774e-06
5.9989e-05
-6.99079e-05
0.000122393
-0.000208951
0.000215985
-0.000419083
0.000345994
-0.000705353
0.000515425
-0.00106921
0.000723377
-0.00150564
0.0009637
-0.00200099
0.00122493
-0.00253302
0.00149209
-0.00307432
0.00175007
-0.003598
0.00198676
-0.00408448
0.00219567
-0.00452164
-0.00491409
0.00237718
5.54616e-06
1.47474e-05
2.68442e-05
-1.68403e-05
6.96419e-05
-0.000112706
0.000140023
-0.000279333
0.000243792
-0.000522851
0.000385314
-0.000846876
0.000565897
-0.00124979
0.000782112
-0.00172186
0.00102494
-0.00224382
0.00128072
-0.00278879
0.00153389
-0.00332749
0.00177075
-0.00383486
0.00198211
-0.00429584
0.00216488
-0.0047044
-0.0050707
0.00232149
6.60175e-06
8.14566e-06
3.1191e-05
-4.14296e-05
7.96818e-05
-0.000161196
0.000158116
-0.000357766
0.000271813
-0.000636548
0.00042395
-0.000999012
0.000613773
-0.00143961
0.000835146
-0.00194323
0.00107646
-0.00248514
0.00132263
-0.00303496
0.00155859
-0.00356345
0.00177285
-0.00404912
0.0019594
-0.00448238
0.00211814
-0.00486314
-0.00520566
0.00225309
7.72859e-06
4.1707e-07
3.57522e-05
-6.94532e-05
9.00664e-05
-0.000215511
0.000176513
-0.000444213
0.000299674
-0.000759709
0.000461194
-0.00116053
0.000657976
-0.0016364
0.000881189
-0.00216644
0.00111715
-0.0027211
0.00135026
-0.00326807
0.00156686
-0.00378005
0.00175818
-0.00424045
0.00192126
-0.00464546
0.00205846
-0.00500034
-0.00532206
0.00217486
8.92813e-06
-8.51106e-06
4.0513e-05
-0.000101038
0.000100719
-0.000275717
0.000195003
-0.000538497
0.000326923
-0.000891629
0.000496279
-0.00132989
0.000697463
-0.00183758
0.000919171
-0.00238815
0.00114633
-0.00294826
0.00136377
-0.00348551
0.00155989
-0.00397618
0.00172883
-0.00440938
0.00187033
-0.00478696
0.00198855
-0.00511856
-0.00542268
0.00208917
1.01971e-05
-1.87082e-05
4.54414e-05
-0.000136282
0.00011153
-0.000341805
0.000213316
-0.000640283
0.000353049
-0.00103136
0.000528423
-0.00150526
0.000731298
-0.00204046
0.000948317
-0.00260517
0.00116381
-0.00316375
0.00136381
-0.00368551
0.00153923
-0.00415159
0.00168696
-0.00455712
0.00180902
-0.00490901
0.00191074
-0.00522029
-0.00550987
0.00199793
1.15273e-05
-3.02354e-05
5.04892e-05
-0.000175244
0.000122355
-0.000413671
0.000231142
-0.00074907
0.000377514
-0.00117773
0.000556881
-0.00168463
0.00075872
-0.00224229
0.000968188
-0.00281464
0.00116981
-0.00336537
0.00135143
-0.00386713
0.00150659
-0.00430676
0.00163471
-0.00468524
0.0017395
-0.0050138
0.00182694
-0.00530774
-0.00558557
0.00190265
1.2906e-05
-4.31415e-05
5.55942e-05
-0.000217932
0.000133027
-0.000491104
0.000248144
-0.000864186
0.000399779
-0.00132937
0.000580995
-0.00186585
0.000779184
-0.00244048
0.000978675
-0.00301413
0.00116489
-0.00355158
0.00132786
-0.00403011
0.00146374
-0.00444263
0.00157403
-0.00479553
0.00166361
-0.00510338
0.00173871
-0.00538283
-0.00565134
0.00180447
1.43172e-05
-5.74586e-05
6.06826e-05
-0.000264298
0.00014336
-0.000573782
0.000263973
-0.000984799
0.000419341
-0.00148474
0.000600233
-0.00204674
0.000792387
-0.00263264
0.000979977
-0.00320172
0.00114987
-0.00372148
0.00129451
-0.00417474
0.00141237
-0.0045605
0.00150665
-0.0048898
0.00158291
-0.00517964
0.00164725
-0.00544717
-0.00570836
0.00170427
1.57416e-05
-7.32002e-05
6.56725e-05
-0.000314229
0.00015316
-0.00066127
0.000278292
-0.00110993
0.000435759
-0.00164221
0.000614216
-0.00222519
0.000798262
-0.00281668
0.000972541
-0.003376
0.00112577
-0.00387471
0.00125277
-0.00430173
0.00135407
-0.0046618
0.00143405
-0.00496979
0.00149863
-0.00524422
0.00155352
-0.00550205
-0.00575752
0.00160268
1.7158e-05
-9.03582e-05
7.04772e-05
-0.000367548
0.000162232
-0.000753024
0.000290786
-0.00123848
0.000448678
-0.0018001
0.00062273
-0.00239925
0.000796958
-0.00299091
0.000957005
-0.00353604
0.00109366
-0.00401137
0.00120399
-0.00441206
0.00129022
-0.00474802
0.00135751
-0.00503709
0.00141178
-0.00529849
0.00145823
-0.0055485
-0.00579948
0.00150019
1.8544e-05
-0.000108902
7.50088e-05
-0.000424013
0.000170388
-0.000848403
0.000301183
-0.00136928
0.00045784
-0.00195675
0.000625722
-0.00256713
0.000788802
-0.00315399
0.000934132
-0.00368137
0.00105466
-0.00413189
0.00114945
-0.00450686
0.00122204
-0.00482061
0.00127805
-0.00509309
0.00132315
-0.00534359
0.00136195
-0.00558731
-0.00583472
0.00139718
1.9876e-05
-0.000128778
7.91807e-05
-0.000483318
0.000177459
-0.000946681
0.000309262
-0.00150108
0.000463096
-0.00211059
0.000623287
-0.00272732
0.00077426
-0.00330496
0.000904756
-0.00381187
0.00100983
-0.00423696
0.00109028
-0.00458731
0.00115058
-0.00488092
0.0011965
-0.00513901
0.00123334
-0.00538043
0.00126509
-0.00561905
-0.00586354
0.00129392
2.11309e-05
-0.000149909
8.29113e-05
-0.000545098
0.000183295
-0.00104706
0.000314861
-0.00163265
0.000464399
-0.00226013
0.000615646
-0.00287857
0.000753894
-0.00344321
0.000869731
-0.00392771
0.000960179
-0.00432741
0.00102747
-0.0046546
0.0010767
-0.00493014
0.00111355
-0.00517587
0.00114285
-0.00540973
0.00116797
-0.00564418
-0.00588619
0.00119062
2.22858e-05
-0.000172195
8.6126e-05
-0.000608938
0.000187774
-0.00114871
0.000317879
-0.00176275
0.000461801
-0.00240405
0.000603119
-0.00301988
0.000728323
-0.00356841
0.000829895
-0.00402928
0.000906636
-0.00440415
0.000961895
-0.00470986
0.00100111
-0.00496935
0.00102972
-0.00520448
0.00105202
-0.00543204
0.00107084
-0.00566299
-0.0059028
0.00108746
2.33193e-05
-0.000195514
8.87598e-05
-0.000674379
0.000190806
-0.00125076
0.000318278
-0.00189023
0.000455435
-0.0025412
0.0005861
-0.00315055
0.000698189
-0.0036805
0.000786047
-0.00411714
0.000850019
-0.00446812
0.000894284
-0.00475412
0.000924393
-0.00499946
0.000945435
-0.00522552
0.000961166
-0.00544777
0.000973898
-0.00567573
-0.00591349
0.000984583
2.42117e-05
-0.000219726
9.07588e-05
-0.000740926
0.000192332
-0.00135233
0.000316079
-0.00201397
0.000445507
-0.00267063
0.000565029
-0.00327007
0.000664132
-0.00377961
0.000738925
-0.00419193
0.000791047
-0.00452025
0.000825253
-0.00478833
0.000847028
-0.00502124
0.000861029
-0.00523952
0.000870497
-0.00545723
0.0008773
-0.00568253
-0.00591831
0.000882122
2.49478e-05
-0.000244674
9.20863e-05
-0.000808064
0.000192331
-0.00145258
0.000311362
-0.002133
0.000432283
-0.00279155
0.000540382
-0.00337817
0.000626782
-0.00386601
0.000689209
-0.00425436
0.000730356
-0.00456139
0.000755326
-0.0048133
0.000769401
-0.00503531
0.000776777
-0.0052469
0.000780209
-0.00546067
0.000781189
-0.00568351
-0.00591732
0.000780195
2.55091e-05
-0.000270183
9.27062e-05
-0.000875261
0.000190794
-0.00155066
0.000304229
-0.00224644
0.000416037
-0.00290336
0.000512605
-0.00347474
0.000586694
-0.00394009
0.000637471
-0.00430513
0.000668453
-0.00459238
0.000684899
-0.00482975
0.000691796
-0.00504221
0.000692866
-0.00524797
0.000690426
-0.00545823
0.000685654
-0.00567874
-0.00591054
0.000678877
2.58861e-05
-0.000296069
9.26078e-05
-0.000941983
0.000187761
-0.00164582
0.000294838
-0.00235352
0.000397094
-0.00300562
0.00048217
-0.00355982
0.000544413
-0.00400234
0.000584246
-0.00434497
0.000605797
-0.00461393
0.000614329
-0.00483828
0.00061447
-0.00504235
0.000609477
-0.00524297
0.00060128
-0.00545003
0.000590804
-0.00566826
-0.00589801
0.000578269
2.60702e-05
-0.000322139
9.17894e-05
-0.0010077
0.000183287
-0.00173732
0.000283367
-0.0024536
0.000375779
-0.00309803
0.000449515
-0.00363355
0.000500424
-0.00405325
0.000529991
-0.00437454
0.000542766
-0.0046267
0.000543899
-0.00483941
0.00053762
-0.00503607
0.000526747
-0.0052321
0.000512874
-0.00543616
0.000496725
-0.00565211
-0.00587973
0.00047845
2.60565e-05
-0.000348196
9.02614e-05
-0.00107191
0.000177451
-0.0018245
0.000270014
-0.00254616
0.000352416
-0.00318043
0.000415054
-0.00369619
0.000455158
-0.00409335
0.000475095
-0.00439447
0.000479674
-0.00463128
0.00047384
-0.00483358
0.000461407
-0.00502364
0.00044479
-0.00521548
0.000425295
-0.00541666
0.000403494
-0.00563031
-0.00585571
0.000379478
2.58429e-05
-0.000374039
8.80451e-05
-0.00113411
0.000170345
-0.00190681
0.000254983
-0.0026308
0.000327321
-0.00325277
0.000379164
-0.00374803
0.000408996
-0.00412318
0.000419891
-0.00440537
0.000416781
-0.00462817
0.000404339
-0.00482113
0.000385966
-0.00500526
0.000363701
-0.00519322
0.000338615
-0.00539157
0.000311172
-0.00560287
-0.00582594
0.000281395
2.54307e-05
-0.000399469
8.51712e-05
-0.00119385
0.000162077
-0.00198371
0.000238485
-0.0027072
0.000300793
-0.00331508
0.000342189
-0.00378943
0.000362271
-0.00414326
0.000364662
-0.00440776
0.000354304
-0.00461781
0.000335555
-0.00480239
0.00031141
-0.00498112
0.000283573
-0.00516538
0.000252903
-0.0053609
0.000219803
-0.00556977
-0.00579039
0.000184251
2.48239e-05
-0.000424293
8.16781e-05
-0.0012507
0.000152758
-0.00205479
0.000220726
-0.00277517
0.000273113
-0.00336746
0.000304438
-0.00382076
0.000315272
-0.0041541
0.000309645
-0.00440213
0.000292421
-0.00460059
0.000267617
-0.00477758
0.000237845
-0.00495135
0.00020451
-0.00513205
0.000168284
-0.00532468
0.000129394
-0.00553088
-0.00574899
8.80015e-05
2.40289e-05
-0.000448322
7.76101e-05
-0.00130429
0.000142507
-0.00211969
0.000201906
-0.00283457
0.000244541
-0.0034101
0.000266183
-0.0038424
0.000268245
-0.00415616
0.000255038
-0.00438892
0.000231279
-0.00457683
0.000200632
-0.00474694
0.000165354
-0.00491607
0.000126602
-0.0050933
8.49506e-05
-0.00528303
4.02991e-05
-0.00548623
-0.00569957
-9.12247e-06
2.30542e-05
-0.000471376
7.30162e-05
-0.00135425
0.000131442
-0.00217811
0.000182218
-0.00288535
0.00021531
-0.00344319
0.000227664
-0.00385475
0.0002214
-0.0041499
0.000201006
-0.00436853
0.000170998
-0.00454682
0.00013469
-0.00471063
9.40109e-05
-0.00487539
4.98773e-05
-0.00504916
2.64535e-06
-0.00523579
-4.72774e-05
-0.0054363
-0.00564672
-0.000100126
2.19104e-05
-0.000493287
6.7948e-05
-0.00140028
0.000119681
-0.00222985
0.000161839
-0.00292751
0.000185635
-0.00346699
0.000189091
-0.00385821
0.000174917
-0.00413572
0.000147686
-0.0043413
0.000111677
-0.00451081
6.98671e-05
-0.00466882
2.38637e-05
-0.00482939
-2.55716e-05
-0.00499973
-7.80564e-05
-0.00518331
-0.000133701
-0.00538066
-0.00558859
-0.000191834
2.06091e-05
-0.000513896
6.2459e-05
-0.00144213
0.000107336
-0.00227472
0.000140935
-0.00296111
0.000155703
-0.00348175
0.000150643
-0.00385315
0.000128944
-0.00411402
9.51887e-05
-0.00430754
5.33982e-05
-0.00446902
6.1813e-06
-0.0046216
-4.50068e-05
-0.0047782
-9.96673e-05
-0.00494507
-0.000157578
-0.0051254
-0.00021861
-0.00531963
-0.0055248
-0.000282396
1.91635e-05
-0.000533059
5.66031e-05
-0.00147957
9.45163e-05
-0.00231264
0.00011966
-0.00298625
0.000125683
-0.00348778
0.000112478
-0.00383994
8.36079e-05
-0.00408515
4.36052e-05
-0.00426754
-3.81241e-06
-0.0044216
-5.6205e-05
-0.00456921
-0.00011256
-0.00472184
-0.000172431
-0.0048852
-0.000235679
-0.00506215
-0.000302129
-0.00525318
-0.00545543
-0.000371498
1.75877e-05
-0.000550647
5.04339e-05
-0.00151242
8.13244e-05
-0.00234353
9.81503e-05
-0.00300307
9.57235e-05
-0.00348535
7.47246e-05
-0.00381894
3.90125e-05
-0.00404944
-6.98343e-06
-0.00422154
-5.97682e-05
-0.00436882
-0.000117341
-0.00451164
-0.000178766
-0.00466042
-0.00024378
-0.00482018
-0.000312313
-0.00499362
-0.000384189
-0.0051813
-0.00538055
-0.000459072
1.58969e-05
-0.000566544
4.4004e-05
-0.00154053
6.78559e-05
-0.00236738
7.65344e-05
-0.00301175
6.59568e-05
-0.00347477
3.7488e-05
-0.00379047
-4.74553e-06
-0.00400721
-5.64949e-05
-0.0041698
-0.000114562
-0.00431075
-0.000177165
-0.00444903
-0.000243579
-0.004594
-0.000313663
-0.0047501
-0.000387426
-0.00491985
-0.000464704
-0.00510402
-0.00530022
-0.000545037
1.41074e-05
-0.000580651
3.73637e-05
-0.00156378
5.42012e-05
-0.00238422
5.49241e-05
-0.00301248
3.64998e-05
-0.00345635
1.01318e-06
-0.00375499
-4.75855e-05
-0.00395861
-0.000104915
-0.00411247
-0.00016811
-0.00424756
-0.000235642
-0.0043815
-0.00030696
-0.00452269
-0.000382033
-0.00467503
-0.000460958
-0.00484093
-0.000543599
-0.00502138
-0.00521449
-0.000629323
1.22386e-05
-0.00059289
3.05623e-05
-0.00158211
4.04464e-05
-0.0023941
3.342e-05
-0.00300545
7.51193e-06
-0.00343044
-3.49957e-05
-0.00371248
-8.95063e-05
-0.0039041
-0.000152191
-0.00404978
-0.000220378
-0.00417937
-0.000292742
-0.00430914
-0.000368875
-0.00444655
-0.000448844
-0.00459506
-0.000532848
-0.00475692
-0.000620797
-0.00493343
-0.00512343
-0.000711858
1.0309e-05
-0.000603199
2.36501e-05
-0.00159545
2.66634e-05
-0.00239711
1.21595e-05
-0.00299095
-2.11566e-05
-0.00339712
-7.01233e-05
-0.00366351
-0.000130413
-0.00384381
-0.000198286
-0.00398191
-0.000271341
-0.00410632
-0.000348441
-0.00423204
-0.000429297
-0.0043657
-0.000514059
-0.00451029
-0.000603038
-0.00466794
-0.00069623
-0.00484024
-0.00502708
-0.00079258
8.33045e-06
-0.000611529
1.66963e-05
-0.00160381
1.2894e-05
-0.00239331
-8.85786e-06
-0.00296919
-4.92068e-05
-0.00335678
-0.000104438
-0.00360828
-0.000170273
-0.00377797
-0.000243174
-0.00390901
-0.000320977
-0.00402851
-0.000402721
-0.00415029
-0.000488206
-0.00428021
-0.000577649
-0.00442085
-0.000671482
-0.00457411
-0.000769836
-0.00474189
-0.00492552
-0.000871397
6.30727e-06
-0.000617837
9.75869e-06
-0.00160727
-8.19984e-08
-0.00238347
-2.9638e-05
-0.00293964
-7.66806e-05
-0.00330973
-0.000137897
-0.00354707
-0.000209058
-0.00370681
-0.00028683
-0.00383123
-0.000369269
-0.00394607
-0.000455565
-0.004064
-0.000545587
-0.00419019
-0.000639599
-0.00432684
-0.000738154
-0.00447556
-0.000841559
-0.00463848
-0.00481893
-0.000948155
4.23213e-06
-0.000622069
2.71561e-06
-0.00160575
-1.43551e-05
-0.0023664
-5.01019e-05
-0.00290389
-0.000103503
-0.00325633
-0.000170455
-0.00348011
-0.000246739
-0.00363053
-0.000329233
-0.00374874
-0.000416201
-0.00385911
-0.000506958
-0.00397324
-0.00060143
-0.00409572
-0.000699898
-0.00422837
-0.000803037
-0.00437242
-0.000911356
-0.00453016
-0.00470747
-0.00102281
2.06463e-06
-0.000624133
-4.36102e-06
-0.00159932
-2.77111e-05
-0.00234305
-7.0096e-05
-0.00286151
-0.000129623
-0.00319681
-0.00020207
-0.00340767
-0.000283289
-0.00354931
-0.000370366
-0.00366166
-0.000461755
-0.00376772
-0.00055689
-0.0038781
-0.000655727
-0.00399688
-0.000758549
-0.00412555
-0.000866122
-0.00426484
-0.000979236
-0.00441705
-0.004591
-0.00109571
-3.5588e-07
-0.000623778
-1.14565e-05
-0.00158822
-4.08329e-05
-0.00231367
-8.95837e-05
-0.00281276
-0.000155003
-0.00313139
-0.000232716
-0.00332995
-0.000318688
-0.00346334
-0.00041021
-0.00357014
-0.000505917
-0.00367201
-0.000605348
-0.00377867
-0.000708487
-0.00389374
-0.000815601
-0.00401844
-0.000927475
-0.00415297
-0.00104517
-0.00429935
-0.00446926
-0.00116691
-2.26995e-06
-0.000621508
-1.83497e-05
-0.00157214
-5.36867e-05
-0.00227834
-0.000108541
-0.0027579
-0.000179606
-0.00306032
-0.000262366
-0.00324719
-0.000352915
-0.00337279
-0.000448744
-0.00347431
-0.000548661
-0.00357209
-0.000652305
-0.00367503
-0.00075971
-0.00378634
-0.000871174
-0.00390697
-0.000987388
-0.00403676
-0.00110896
-0.00417778
-0.00434243
-0.0012358
-4.34944e-06
-0.000617158
-2.51163e-05
-0.00155138
-6.62361e-05
-0.00223722
-0.000126945
-0.00269719
-0.000203407
-0.00298386
-0.000291
-0.0031596
-0.000385951
-0.00327784
-0.000485948
-0.00337431
-0.000589955
-0.00346809
-0.000697711
-0.00356727
-0.000809339
-0.00367471
-0.000925243
-0.00379107
-0.00104611
-0.00391589
-0.0011729
-0.00405099
-0.00421706
-0.00129826
-6.44063e-06
-0.000610718
-3.17461e-05
-0.00152607
-7.84426e-05
-0.00219052
-0.000144759
-0.00263087
-0.000226375
-0.00290224
-0.00031859
-0.00306739
-0.000417771
-0.00317866
-0.000521791
-0.00327029
-0.000629756
-0.00336012
-0.000741496
-0.00345553
-0.000857233
-0.00355897
-0.000977421
-0.00367088
-0.00110195
-0.00379136
-0.00122922
-0.00392371
-0.004069
-0.00137729
-8.51301e-06
-0.000602204
-3.82339e-05
-0.00149635
-9.02996e-05
-0.00213845
-0.000161979
-0.0025592
-0.00024851
-0.00281571
-0.000345141
-0.00297076
-0.000448381
-0.00307542
-0.000556277
-0.0031624
-0.000668062
-0.00324834
-0.000783648
-0.00333995
-0.000903281
-0.00343934
-0.00102725
-0.00354691
-0.00115541
-0.0036632
-0.00128908
-0.00379005
-0.00392333
-0.00143475
-1.05488e-05
-0.000591656
-4.4553e-05
-0.00146235
-0.000101776
-0.00208123
-0.000178573
-0.0024824
-0.000269786
-0.0027245
-0.000370632
-0.00286991
-0.000477761
-0.00296829
-0.000589385
-0.00305077
-0.000704851
-0.00313287
-0.00082414
-0.00322066
-0.000947503
-0.00331597
-0.0010752
-0.00341921
-0.00120746
-0.00353094
-0.00134577
-0.00365173
-0.00377739
-0.00149171
-1.25396e-05
-0.000579116
-5.06863e-05
-0.0014242
-0.00011285
-0.00201907
-0.000194525
-0.00240072
-0.000290191
-0.00262883
-0.000395053
-0.00276505
-0.000505903
-0.00285744
-0.000621103
-0.00293557
-0.000740107
-0.00301387
-0.000862944
-0.00309782
-0.000989867
-0.00318905
-0.00112115
-0.00328793
-0.00125718
-0.00339491
-0.00139896
-0.00350995
-0.0036296
-0.00154676
-1.44787e-05
-0.000564637
-5.66187e-05
-0.00138206
-0.000123506
-0.00195218
-0.000209819
-0.00231441
-0.000309714
-0.00252894
-0.000418398
-0.00265636
-0.000532801
-0.00274303
-0.000651427
-0.00281695
-0.000773822
-0.00289147
-0.000900055
-0.00297159
-0.00103039
-0.00305872
-0.00116511
-0.00315321
-0.00130464
-0.00325538
-0.0014496
-0.00336499