/*--------------------------------*- C++ -*----------------------------------*\
  =========                 |
  \\      /  F ield         | OpenFOAM: The Open Source CFD Toolbox
   \\    /   O peration     | Website:  https://openfoam.org
    \\  /    A nd           | Version:  7
     \\/     M anipulation  |
\*---------------------------------------------------------------------------*/
FoamFile
{
    version     2.0;
    format      ascii;
    class       surfaceScalarField;
    location    "50";
    object      phi;
}
// * * * * * * * * * * * * * * * * * * * * * * * * * * * * * * * * * * * * * //

dimensions      [0 3 -1 0 0 0 0];

internalField   nonuniform List<scalar> 
16730
(
-0.00358898
-0.000516282
-0.000498842
-0.00343736
-0.00354106
-0.000546762
-0.000478779
-0.00329451
-0.000527168
-0.00338897
-0.0034915
-0.00057673
-0.000457148
-0.00316137
-0.000505057
-0.0032466
-0.000554972
-0.00333906
-0.00344031
-0.000606165
-0.000481632
-0.00311403
-0.000530857
-0.00319737
-0.000582253
-0.00328766
-0.00338751
-0.000635049
-0.000457092
-0.00298933
-0.000505697
-0.00306543
-0.000556193
-0.00314688
-0.000609026
-0.00323483
-0.00333311
-0.000663426
-0.000431187
-0.00287097
-0.000479499
-0.00294102
-0.000529356
-0.00301557
-0.000581092
-0.00309514
-0.000635329
-0.00318059
-0.00327707
-0.000691374
-0.000451917
-0.00282278
-0.000501513
-0.00289142
-0.000552632
-0.00296445
-0.000605604
-0.00304217
-0.000661172
-0.00312502
-0.00321939
-0.000718846
-0.000422791
-0.00271015
-0.000472244
-0.00277333
-0.000523128
-0.00284054
-0.000575548
-0.00291203
-0.00062982
-0.0029879
-0.000686531
-0.00306831
-0.0031599
-0.000746026
-0.000441446
-0.00266083
-0.000492152
-0.00272262
-0.000544323
-0.00278837
-0.000598094
-0.00285826
-0.000653806
-0.00293219
-0.000712141
-0.00300998
-0.00310015
-0.000771889
-0.000409159
-0.00255358
-0.000459684
-0.0026103
-0.000511617
-0.00267069
-0.000565055
-0.00273493
-0.000620176
-0.00280314
-0.000677141
-0.00287522
-0.000735305
-0.00295181
-0.00303522
-0.000800237
-0.000375454
-0.00245113
-0.000425803
-0.00250323
-0.000477506
-0.0025586
-0.000530636
-0.00261756
-0.000585296
-0.00268027
-0.000641645
-0.00274679
-0.000699759
-0.00281711
-0.000759744
-0.00289183
-0.00297099
-0.000823973
-0.000390559
-0.00240096
-0.000442049
-0.00245174
-0.000494903
-0.00250575
-0.000549197
-0.00256327
-0.000605036
-0.00262443
-0.000662552
-0.00268928
-0.000721831
-0.00275783
-0.000783155
-0.0028305
-0.00290664
-0.000847505
-0.000354006
-0.00230271
-0.000405289
-0.00234967
-0.000457894
-0.00239914
-0.00051187
-0.00245177
-0.000567297
-0.00250784
-0.000624276
-0.00256745
-0.000682921
-0.00263063
-0.000743335
-0.00269741
-0.000805774
-0.00276806
-0.00284175
-0.00087066
-0.000367273
-0.00225166
-0.000419642
-0.0022973
-0.000473334
-0.00234545
-0.000528404
-0.0023967
-0.000584933
-0.00245131
-0.000643017
-0.00250937
-0.000702761
-0.00257089
-0.000764268
-0.00263591
-0.000827735
-0.0027046
-0.00277614
-0.000893351
-0.000328076
-0.00215632
-0.000380188
-0.00219955
-0.000433615
-0.00224388
-0.000488368
-0.00229069
-0.000544504
-0.00234056
-0.000602105
-0.00239371
-0.000661262
-0.00245021
-0.000722074
-0.00251008
-0.000784638
-0.00257334
-0.000849101
-0.00264013
-0.00270968
-0.000915554
-0.000339599
-0.00210455
-0.000392748
-0.0021464
-0.000447207
-0.00218942
-0.000502994
-0.00223491
-0.000560168
-0.00228339
-0.000618811
-0.00233507
-0.000679013
-0.00239001
-0.000740864
-0.00244822
-0.000804456
-0.00250975
-0.000869901
-0.00257469
-0.00264233
-0.000937253
-0.000350795
-0.00205176
-0.000404953
-0.00209224
-0.000460417
-0.00213395
-0.00051721
-0.00217811
-0.000575395
-0.00222521
-0.000635052
-0.00227541
-0.00069627
-0.00232879
-0.000759135
-0.00238536
-0.000823731
-0.00244516
-0.000890151
-0.00250827
-0.00257405
-0.000958435
-0.000307871
-0.00195759
-0.000361662
-0.00199797
-0.000416802
-0.0020371
-0.000473243
-0.00207751
-0.000531015
-0.00212034
-0.000590183
-0.00216604
-0.000650828
-0.00221476
-0.000713035
-0.00226658
-0.000776888
-0.00232151
-0.000842467
-0.00237958
-0.000909854
-0.00244088
-0.00250481
-0.000979088
-0.00031744
-0.00190435
-0.000372198
-0.00194321
-0.000428293
-0.001981
-0.000485685
-0.00202012
-0.000544409
-0.00206162
-0.000604533
-0.00210591
-0.000666138
-0.00215316
-0.000729308
-0.00220341
-0.000794126
-0.00225669
-0.000860667
-0.00231304
-0.000929011
-0.00237254
-0.00243462
-0.000999201
-0.000272496
-0.00180735
-0.000326708
-0.00185013
-0.000382405
-0.00188751
-0.000439426
-0.00192398
-0.000497741
-0.00196181
-0.00055739
-0.00200197
-0.000618443
-0.00204486
-0.000680981
-0.00209062
-0.000745089
-0.0021393
-0.000810848
-0.00219093
-0.000878332
-0.00224555
-0.000947621
-0.00230325
-0.00236348
-0.00101876
-0.000280526
-0.00175402
-0.000335674
-0.00179499
-0.00039228
-0.00183091
-0.000450199
-0.00186607
-0.00050941
-0.00190259
-0.000569957
-0.00194142
-0.000631912
-0.00198291
-0.000695357
-0.00202718
-0.000760377
-0.00207428
-0.000827053
-0.00212425
-0.00089546
-0.00217714
-0.000965678
-0.00223303
-0.0022914
-0.00103776
-0.000288285
-0.00169975
-0.000344337
-0.00173893
-0.000401823
-0.00177342
-0.000460612
-0.00180728
-0.000520691
-0.00184252
-0.000582109
-0.00188
-0.000644939
-0.00192008
-0.000709265
-0.00196285
-0.000775172
-0.00200838
-0.000842741
-0.00205669
-0.000912049
-0.00210783
-0.000983179
-0.0021619
-0.00221839
-0.00105619
-0.000240581
-0.00159578
-0.000295773
-0.00164455
-0.000352697
-0.00168201
-0.000411034
-0.00171508
-0.000470665
-0.00174765
-0.000531584
-0.0017816
-0.000593845
-0.00181774
-0.000657523
-0.0018564
-0.000722703
-0.00189767
-0.00078947
-0.00194161
-0.000857908
-0.00198825
-0.000928095
-0.00203765
-0.00100012
-0.00208988
-0.00214447
-0.00107403
-0.000246917
-0.001542
-0.000302988
-0.00158848
-0.000360753
-0.00162424
-0.000419912
-0.00165592
-0.000480355
-0.0016872
-0.000542087
-0.00171986
-0.000605163
-0.00175467
-0.000669662
-0.0017919
-0.000735669
-0.00183166
-0.000803271
-0.00187401
-0.000872552
-0.00191897
-0.000943594
-0.00196661
-0.00101648
-0.00201699
-0.00206967
-0.00109129
-0.000253014
-0.00148733
-0.00030993
-0.00153157
-0.000368506
-0.00156567
-0.000428455
-0.00159597
-0.000489683
-0.00162597
-0.000552199
-0.00165735
-0.000616063
-0.0016908
-0.000681355
-0.00172661
-0.000748161
-0.00176486
-0.000816571
-0.0018056
-0.00088667
-0.00184887
-0.000958542
-0.00189473
-0.00103228
-0.00194325
-0.001994
-0.00110795
-0.000203335
-0.00137049
-0.000258872
-0.00143179
-0.000316599
-0.00147384
-0.000375953
-0.00150631
-0.000436664
-0.00153526
-0.000498648
-0.00156399
-0.000561919
-0.00159408
-0.000626542
-0.00162618
-0.000692599
-0.00166055
-0.000760178
-0.00169728
-0.000829368
-0.00173641
-0.000900258
-0.00177798
-0.000972934
-0.00182206
-0.00104749
-0.0018687
-0.00191749
-0.001124
-0.000208127
-0.00131722
-0.00026449
-0.00137543
-0.000322994
-0.00141534
-0.000383095
-0.00144621
-0.000444538
-0.00147382
-0.000507248
-0.00150128
-0.000571247
-0.00153008
-0.000636601
-0.00156083
-0.000703394
-0.00159376
-0.000771717
-0.00162895
-0.000841659
-0.00166647
-0.000913313
-0.00170633
-0.000986766
-0.0017486
-0.00106211
-0.00179335
-0.00184017
-0.00113943
-0.000212715
-0.0012631
-0.000269867
-0.00131828
-0.000329116
-0.00135609
-0.000389932
-0.0013854
-0.000452076
-0.00141168
-0.000515483
-0.00143787
-0.00058018
-0.00146538
-0.000646236
-0.00149477
-0.000713737
-0.00152625
-0.000782775
-0.00155992
-0.000853442
-0.0015958
-0.000925831
-0.00163394
-0.00100003
-0.0016744
-0.00107615
-0.00171724
-0.00176206
-0.00115425
-0.000217099
-0.00120818
-0.000275004
-0.00126037
-0.000334962
-0.00129613
-0.000396462
-0.0013239
-0.000459278
-0.00134886
-0.000523352
-0.0013738
-0.000588717
-0.00140002
-0.000655446
-0.00142804
-0.000723626
-0.00145807
-0.000793351
-0.00149019
-0.000864713
-0.00152444
-0.000937808
-0.00156084
-0.00101273
-0.00159948
-0.00108958
-0.00164039
-0.0016832
-0.00116844
-0.000165582
-0.00107618
-0.000221278
-0.00115248
-0.000279899
-0.00120175
-0.000340533
-0.00123549
-0.000402686
-0.00126174
-0.000466142
-0.0012854
-0.000530854
-0.00130909
-0.000596858
-0.00133401
-0.000664231
-0.00136067
-0.00073306
-0.00138924
-0.000803442
-0.00141981
-0.00087547
-0.00145241
-0.000949242
-0.00148707
-0.00102485
-0.00152387
-0.00110241
-0.00156283
-0.00160362
-0.00118199
-0.000168826
-0.00102407
-0.000225252
-0.00109606
-0.000284552
-0.00114245
-0.000345829
-0.00117422
-0.000408602
-0.00119897
-0.000472668
-0.00122134
-0.000537988
-0.00124377
-0.000604602
-0.0012674
-0.000672588
-0.00129268
-0.000742037
-0.0013198
-0.000813045
-0.0013488
-0.000885709
-0.00137974
-0.000960128
-0.00141265
-0.0010364
-0.0014476
-0.00111463
-0.0014846
-0.00152335
-0.0011949
-0.000171902
-0.000971219
-0.000229019
-0.00103894
-0.000288963
-0.00108251
-0.000350849
-0.00111233
-0.000414211
-0.00113561
-0.000478856
-0.00115669
-0.000544753
-0.00117787
-0.000611946
-0.0012002
-0.000680515
-0.00122411
-0.000750554
-0.00124976
-0.000822158
-0.0012772
-0.000895428
-0.00130647
-0.000970462
-0.00133762
-0.00104736
-0.0013707
-0.00112624
-0.00140573
-0.00144242
-0.00120717
-0.000174811
-0.000917673
-0.00023258
-0.000981171
-0.000293131
-0.00102195
-0.000355593
-0.00104987
-0.000419511
-0.00107169
-0.000484705
-0.0010915
-0.000551148
-0.00111143
-0.00061889
-0.00113246
-0.000688012
-0.00115499
-0.000758609
-0.00117916
-0.00083078
-0.00120503
-0.000904624
-0.00123263
-0.000980243
-0.001262
-0.00105774
-0.0012932
-0.00113722
-0.00132625
-0.00136086
-0.00121878
-0.000177552
-0.000863471
-0.000235933
-0.00092279
-0.000297056
-0.000960831
-0.00036006
-0.000986866
-0.000424503
-0.00100725
-0.000490214
-0.00102579
-0.000557173
-0.00104447
-0.000625432
-0.0010642
-0.000695077
-0.00108535
-0.000766202
-0.00110804
-0.000838907
-0.00113232
-0.000913293
-0.00115824
-0.000989465
-0.00118583
-0.00106753
-0.00121514
-0.00114759
-0.00124619
-0.00127871
-0.00122974
-0.000125308
-0.000722513
-0.000180125
-0.000808654
-0.000239079
-0.000863835
-0.000300738
-0.000899172
-0.00036425
-0.000923355
-0.000429185
-0.000942314
-0.000495382
-0.00095959
-0.000562826
-0.000977027
-0.000631572
-0.000995457
-0.000701708
-0.00101521
-0.000773329
-0.00103641
-0.000846537
-0.00105911
-0.000921435
-0.00108334
-0.000998127
-0.00110913
-0.00107672
-0.00113654
-0.00115732
-0.00116558
-0.001196
-0.00124003
-0.000127139
-0.000673373
-0.000182528
-0.000753265
-0.000242017
-0.000804346
-0.000304176
-0.000837014
-0.000368162
-0.000859368
-0.000433558
-0.000876918
-0.000500209
-0.000892939
-0.000568106
-0.00090913
-0.000637309
-0.000926255
-0.000707904
-0.000944617
-0.00077999
-0.000964328
-0.000853669
-0.000985436
-0.000929045
-0.00100797
-0.00100622
-0.00103196
-0.00108532
-0.00105745
-0.00116643
-0.00108447
-0.00111277
-0.00124966
-0.00012884
-0.000623682
-0.000184761
-0.000697344
-0.000244747
-0.000744359
-0.00030737
-0.000774392
-0.000371797
-0.000794941
-0.000437621
-0.000811094
-0.000504694
-0.000825865
-0.000573014
-0.00084081
-0.00064264
-0.000856628
-0.000713663
-0.000873594
-0.000786182
-0.00089181
-0.0008603
-0.000911318
-0.000936122
-0.000932146
-0.00101376
-0.000954322
-0.00109331
-0.000977898
-0.0011749
-0.00100288
-0.00102905
-0.00125862
-0.000130413
-0.000573481
-0.000186825
-0.000640933
-0.000247269
-0.000683915
-0.000310319
-0.000711341
-0.000375154
-0.000730107
-0.000441373
-0.000744875
-0.000508837
-0.000758401
-0.000577547
-0.000772101
-0.000647566
-0.000786609
-0.000718985
-0.000802175
-0.000791904
-0.00081889
-0.000866428
-0.000836793
-0.000942664
-0.00085591
-0.00102072
-0.000876268
-0.0011007
-0.000897913
-0.00118273
-0.000920849
-0.000944882
-0.0012669
-0.000131857
-0.000522813
-0.000188717
-0.000584072
-0.000249581
-0.000623051
-0.000313024
-0.000647898
-0.000378232
-0.000664899
-0.000444814
-0.000678293
-0.000512637
-0.000690578
-0.000581705
-0.000703033
-0.000652085
-0.00071623
-0.000723868
-0.000730392
-0.000797155
-0.000745602
-0.000872053
-0.000761896
-0.000948668
-0.000779296
-0.00102711
-0.000797826
-0.00110749
-0.000817533
-0.00118992
-0.000838414
-0.000860297
-0.00127451
-0.00013317
-0.00047172
-0.000190439
-0.000526803
-0.000251684
-0.000561806
-0.000315484
-0.000584098
-0.000381031
-0.000599352
-0.000447944
-0.000611381
-0.000516093
-0.000622428
-0.000585488
-0.000633638
-0.000656196
-0.000645522
-0.00072831
-0.000658278
-0.000801934
-0.000671979
-0.000877171
-0.000686658
-0.000954132
-0.000702335
-0.00103293
-0.000719033
-0.00111367
-0.000736792
-0.00119647
-0.000755611
-0.000775334
-0.00128143
-0.000134354
-0.000420245
-0.00019199
-0.000469166
-0.000253578
-0.000500218
-0.000317699
-0.000519978
-0.000383552
-0.000533499
-0.000450761
-0.000544171
-0.000519206
-0.000553984
-0.000588895
-0.000563949
-0.000659899
-0.000574518
-0.000732312
-0.000585864
-0.000806238
-0.000598053
-0.000881783
-0.000611113
-0.000959055
-0.000625062
-0.00103817
-0.000639921
-0.00111923
-0.000655726
-0.00120237
-0.000672475
-0.000690029
-0.00128767
-0.000135406
-0.00036843
-0.000193369
-0.000411204
-0.000255262
-0.000438325
-0.000319668
-0.000455572
-0.000385793
-0.000467374
-0.000453267
-0.000476697
-0.000521973
-0.000485277
-0.000591924
-0.000493998
-0.000663192
-0.00050325
-0.000735872
-0.000513185
-0.000810067
-0.000523858
-0.000885885
-0.000535295
-0.000963436
-0.000547512
-0.00104283
-0.000560526
-0.00112419
-0.00057437
-0.00120762
-0.000589042
-0.00060442
-0.00129323
-0.000136328
-0.000316318
-0.000194576
-0.000352956
-0.000256736
-0.000376165
-0.000321392
-0.000390916
-0.000387755
-0.00040101
-0.000455461
-0.000408991
-0.000524396
-0.000416342
-0.000594577
-0.000423818
-0.000666076
-0.000431751
-0.000738989
-0.000440272
-0.00081342
-0.000449427
-0.000889478
-0.000459237
-0.000967272
-0.000469717
-0.00104692
-0.000480882
-0.00112853
-0.000492761
-0.00121222
-0.000505349
-0.000518544
-0.00129809
-8.47522e-05
-0.000217528
-0.000137119
-0.000263951
-0.000195612
-0.000294463
-0.000258
-0.000313777
-0.000322869
-0.000326047
-0.000389437
-0.000334443
-0.000457342
-0.000341086
-0.000526474
-0.000347209
-0.000596852
-0.00035344
-0.000668549
-0.000360054
-0.000741662
-0.000367159
-0.000816296
-0.000374793
-0.000892559
-0.000382974
-0.000970563
-0.000391714
-0.00105042
-0.000401025
-0.00113225
-0.000410933
-0.00121616
-0.000421432
-0.000432439
-0.00130227
-8.51993e-05
-0.000174232
-0.000137778
-0.000211372
-0.000196475
-0.000235766
-0.000259053
-0.000251199
-0.000324101
-0.000260999
-0.000390839
-0.000267706
-0.000458909
-0.000273015
-0.000528206
-0.000277913
-0.000598748
-0.000282898
-0.00067061
-0.000288192
-0.000743891
-0.000293879
-0.000818694
-0.000299989
-0.000895129
-0.000306538
-0.000973307
-0.000313535
-0.00105334
-0.000320991
-0.00113535
-0.000328923
-0.00121945
-0.00033733
-0.000346142
-0.00130575
-8.55572e-05
-0.000130773
-0.000138306
-0.000158623
-0.000197166
-0.000176907
-0.000259897
-0.000188468
-0.000325087
-0.000195808
-0.000391961
-0.000200832
-0.000460164
-0.000204812
-0.000529592
-0.000208485
-0.000600266
-0.000212225
-0.000672261
-0.000216197
-0.000745675
-0.000220464
-0.000820614
-0.000225051
-0.000897186
-0.000229966
-0.000975504
-0.000235217
-0.00105568
-0.000240813
-0.00113784
-0.000246767
-0.00122209
-0.000253077
-0.000259693
-0.00130854
-8.58258e-05
-8.71908e-05
-0.000138702
-0.000105747
-0.000197684
-0.000117925
-0.000260529
-0.000125623
-0.000325827
-0.00013051
-0.000392803
-0.000133857
-0.000461106
-0.000136509
-0.000530632
-0.000138958
-0.000601405
-0.000141453
-0.000673499
-0.000144103
-0.000747014
-0.00014695
-0.000822054
-0.00015001
-0.00089873
-0.00015329
-0.000977153
-0.000156794
-0.00105744
-0.000160528
-0.0011397
-0.000164502
-0.00122407
-0.000168713
-0.000173129
-0.00131063
-8.6005e-05
-4.35266e-05
-0.000138966
-5.27857e-05
-0.00019803
-5.88611e-05
-0.000260951
-6.2702e-05
-0.00032632
-6.51412e-05
-0.000393364
-6.68128e-05
-0.000461734
-6.8139e-05
-0.000531326
-6.93649e-05
-0.000602165
-7.06144e-05
-0.000674325
-7.19419e-05
-0.000747907
-7.33684e-05
-0.000823015
-7.49016e-05
-0.00089976
-7.6545e-05
-0.000978253
-7.8301e-05
-0.00105861
-8.01724e-05
-0.00114095
-8.21637e-05
-0.00122539
-8.42743e-05
-8.64872e-05
-0.00131203
-8.60947e-05
1.7866e-07
-0.000139099
2.18235e-07
-0.000198203
2.4333e-07
-0.000261162
2.57358e-07
-0.000326567
2.63708e-07
-0.000393645
2.65196e-07
-0.000462048
2.63826e-07
-0.000531674
2.60824e-07
-0.000602545
2.56829e-07
-0.000674739
2.52122e-07
-0.000748354
2.46801e-07
-0.000823497
2.40891e-07
-0.000900276
2.34386e-07
-0.000978805
2.27279e-07
-0.0010592
2.19558e-07
-0.00114157
2.11217e-07
-0.00122605
2.02242e-07
1.92565e-07
-0.00131273
-8.60949e-05
4.3884e-05
-0.000139099
5.32223e-05
-0.000198204
5.93479e-05
-0.000261163
6.32169e-05
-0.000326568
6.56687e-05
-0.000393646
6.73434e-05
-0.000462049
6.86668e-05
-0.000531675
6.98867e-05
-0.000602547
7.11282e-05
-0.000674741
7.24463e-05
-0.000748356
7.38621e-05
-0.000823499
7.53835e-05
-0.000900278
7.70139e-05
-0.000978807
7.87557e-05
-0.0010592
8.06116e-05
-0.00114157
8.25863e-05
-0.00122605
8.46789e-05
8.68725e-05
-0.00131273
-8.60057e-05
8.75486e-05
-0.000138968
0.000106184
-0.000198032
0.000118412
-0.000260953
0.000126139
-0.000326323
0.000131038
-0.000393367
0.000134388
-0.000461737
0.000137037
-0.00053133
0.00013948
-0.000602169
0.000141967
-0.00067433
0.000144608
-0.000747912
0.000147444
-0.000823021
0.000150492
-0.000899766
0.000153759
-0.00097826
0.000157249
-0.00105862
0.000160968
-0.00114096
0.000164925
-0.00122539
0.000169118
0.000173514
-0.00131204
-8.58271e-05
0.000131131
-0.000138704
0.000159061
-0.000197687
0.000177395
-0.000260533
0.000188984
-0.000325831
0.000196337
-0.000392807
0.000201364
-0.000461111
0.000205341
-0.000530639
0.000209007
-0.000601412
0.00021274
-0.000673507
0.000216703
-0.000747022
0.000220959
-0.000822063
0.000225534
-0.00089874
0.000230436
-0.000977164
0.000235673
-0.00105745
0.000241254
-0.00113972
0.000247191
-0.00122408
0.000253483
0.00026008
-0.00131065
-8.55589e-05
0.000174592
-0.000138309
0.000211811
-0.00019717
0.000236255
-0.000259901
0.000251716
-0.000325093
0.000261528
-0.000391967
0.000268239
-0.000460172
0.000273545
-0.000529601
0.000278437
-0.000600276
0.000283414
-0.000672272
0.000288699
-0.000745687
0.000294374
-0.000820626
0.000300474
-0.0008972
0.00030701
-0.000975519
0.000313992
-0.0010557
0.000321432
-0.00113785
0.000329348
-0.00122211
0.000337737
0.00034653
-0.00130856
-8.52015e-05
0.000217888
-0.000137782
0.000264391
-0.00019648
0.000294953
-0.00025906
0.000314296
-0.000324109
0.000326578
-0.000390847
0.000334977
-0.000458919
0.000341617
-0.000528217
0.000347735
-0.000598761
0.000353958
-0.000670624
0.000360562
-0.000743906
0.000367656
-0.000818711
0.000375278
-0.000895147
0.000383446
-0.000973327
0.000392172
-0.00105336
0.000401468
-0.00113537
0.000411359
-0.00121948
0.000421841
0.000432828
-0.00130578
-8.4755e-05
-0.000137123
0.00031676
-0.000195618
0.000353448
-0.000258007
0.000376685
-0.000322879
0.000391449
-0.000389447
0.000401546
-0.000457354
0.000409524
-0.000526488
0.000416869
-0.000596867
0.000424337
-0.000668566
0.000432261
-0.00074168
0.000440771
-0.000816316
0.000449914
-0.000892581
0.000459711
-0.000970587
0.000470177
-0.00105045
0.000481327
-0.00113227
0.000493189
-0.00121619
0.000505759
0.000518935
-0.0013023
-0.000136333
0.000368873
-0.000194583
0.000411698
-0.000256745
0.000438847
-0.000321402
0.000456106
-0.000387767
0.000467911
-0.000455475
0.000477232
-0.000524413
0.000485806
-0.000594595
0.000494519
-0.000666096
0.000503761
-0.000739011
0.000513686
-0.000813444
0.000524347
-0.000889504
0.000535771
-0.0009673
0.000547974
-0.00104695
0.000560973
-0.00112856
0.0005748
-0.00121225
0.000589454
0.000604813
-0.00129813
-0.000135412
0.00042069
-0.000193377
0.000469662
-0.000255272
0.000500742
-0.00031968
0.000520514
-0.000385807
0.000534038
-0.000453284
0.000544708
-0.000521992
0.000554514
-0.000591945
0.000564472
-0.000663215
0.000575031
-0.000735897
0.000586367
-0.000810095
0.000598545
-0.000885915
0.000611592
-0.000963468
0.000625527
-0.00104287
0.00064037
-0.00112422
0.000656158
-0.00120766
0.000672889
0.000690424
-0.00129327
-0.00013436
0.000472168
-0.000191999
0.000527301
-0.00025359
0.000562333
-0.000317713
0.000584637
-0.000383568
0.000599894
-0.00045078
0.00061192
-0.000519227
0.000622961
-0.000588918
0.000634164
-0.000659925
0.000646038
-0.000732341
0.000658783
-0.000806269
0.000672473
-0.000881816
0.000687139
-0.000959092
0.000702802
-0.00103821
0.000719484
-0.00111927
0.000737227
-0.00120241
0.000756028
0.000775732
-0.00128772
-0.000133177
0.000523263
-0.000190449
0.000584573
-0.000251697
0.000623581
-0.0003155
0.00064844
-0.00038105
0.000665444
-0.000447965
0.000678835
-0.000516117
0.000691114
-0.000585515
0.000703561
-0.000656225
0.000716749
-0.000728342
0.000730901
-0.000801968
0.000746099
-0.000877209
0.00076238
-0.000954173
0.000779765
-0.00103297
0.000798281
-0.00111371
0.000817971
-0.00119652
0.000838835
0.000860698
-0.00128149
-0.000131865
0.000573934
-0.000188728
0.000641437
-0.000249595
0.000684448
-0.000313041
0.000711886
-0.000378252
0.000730655
-0.000444837
0.00074542
-0.000512663
0.00075894
-0.000581734
0.000772632
-0.000652117
0.000787131
-0.000723903
0.000802687
-0.000797194
0.00081939
-0.000872095
0.000837281
-0.000948713
0.000856383
-0.00102716
0.000876725
-0.00110754
0.000898355
-0.00118998
0.000921272
0.000945286
-0.00127457
-0.000130422
0.000624139
-0.000186837
0.000697851
-0.000247284
0.000744895
-0.000310338
0.00077494
-0.000375176
0.000795492
-0.000441398
0.000811643
-0.000508866
0.000826408
-0.000577579
0.000841345
-0.000647601
0.000857153
-0.000719024
0.000874109
-0.000791947
0.000892313
-0.000866474
0.000911808
-0.000942713
0.000932622
-0.00102077
0.000954783
-0.00110076
0.000978343
-0.00118279
0.00100331
0.00102946
-0.00126697
-0.00012885
0.000673833
-0.000184774
0.000753776
-0.000244764
0.000804885
-0.00030739
0.000837566
-0.000371821
0.000859923
-0.000437648
0.00087747
-0.000504726
0.000893485
-0.000573048
0.000909668
-0.000642678
0.000926784
-0.000713705
0.000945136
-0.000786228
0.000964835
-0.000860349
0.00098593
-0.000936176
0.00100845
-0.00101381
0.00103242
-0.00109337
0.0010579
-0.00117497
0.0010849
0.00111318
-0.00125869
-0.000127149
0.000722976
-0.000182542
0.000809169
-0.000242036
0.000864379
-0.000304198
0.000899728
-0.000368188
0.000923913
-0.000433588
0.000942869
-0.000500243
0.00096014
-0.000568144
0.000977569
-0.00063735
0.00099599
-0.000707949
0.00101573
-0.000780039
0.00103693
-0.000853722
0.00105961
-0.000929103
0.00108383
-0.00100629
0.0011096
-0.00108538
0.001137
-0.0011665
0.00116602
0.00119642
-0.00124974
-0.000125319
-0.00018014
0.00086399
-0.000239099
0.000923337
-0.000300762
0.000961391
-0.000364277
0.000987429
-0.000429217
0.00100781
-0.000495418
0.00102634
-0.000562866
0.00104502
-0.000631617
0.00106474
-0.000701756
0.00108587
-0.000773382
0.00110855
-0.000846594
0.00113283
-0.000921497
0.00115873
-0.000998193
0.0011863
-0.00107679
0.00121559
-0.0011574
0.00124663
0.00127913
-0.00124011
-0.000177569
0.000918196
-0.000235954
0.000981723
-0.000297081
0.00102252
-0.000360089
0.00105044
-0.000424537
0.00107226
-0.000490252
0.00109206
-0.000557216
0.00111198
-0.00062548
0.001133
-0.000695129
0.00115552
-0.000766258
0.00117968
-0.000838968
0.00120554
-0.00091336
0.00123312
-0.000989536
0.00126248
-0.0010676
0.00129366
-0.00114767
0.00132669
0.00136128
-0.00122982
-0.000174828
0.000971747
-0.000232601
0.0010395
-0.000293158
0.00108308
-0.000355624
0.0011129
-0.000419547
0.00113618
-0.000484746
0.00115726
-0.000551194
0.00117843
-0.00061894
0.00120075
-0.000688067
0.00122465
-0.000758669
0.00125028
-0.000830845
0.00127771
-0.000904694
0.00130697
-0.000980318
0.0013381
-0.00105782
0.00137116
-0.00113731
0.00140618
0.00144285
-0.00121887
-0.00017192
0.0010246
-0.000229042
0.00109662
-0.000288991
0.00114302
-0.000350882
0.00117479
-0.000414249
0.00119955
-0.000478899
0.00122191
-0.000544801
0.00124433
-0.000611999
0.00126795
-0.000680574
0.00129323
-0.000750617
0.00132033
-0.000822227
0.00134932
-0.000895503
0.00138025
-0.000970542
0.00141314
-0.00104745
0.00144807
-0.00112633
0.00148506
0.00152379
-0.00120726
-0.000168845
0.00107672
-0.000225276
0.00115305
-0.000284582
0.00120233
-0.000345864
0.00123608
-0.000408642
0.00126232
-0.000472714
0.00128598
-0.000538039
0.00130965
-0.000604658
0.00133457
-0.000672649
0.00136122
-0.000742104
0.00138978
-0.000813118
0.00142033
-0.000885788
0.00145292
-0.000960212
0.00148756
-0.00103649
0.00152435
-0.00111473
0.00156329
0.00160406
-0.001195
-0.000165602
-0.000221304
0.00120875
-0.00027993
0.00126096
-0.00034057
0.00129672
-0.000402728
0.00132448
-0.00046619
0.00134944
-0.000530907
0.00137437
-0.000596918
0.00140058
-0.000664296
0.00142859
-0.000733131
0.00145862
-0.000803518
0.00149072
-0.000875553
0.00152495
-0.000949331
0.00156134
-0.00102495
0.00159997
-0.00110251
0.00164086
0.00168365
-0.0011821
-0.000217126
0.00126368
-0.000275037
0.00131887
-0.000335
0.00135668
-0.000396506
0.00138599
-0.000459328
0.00141226
-0.000523408
0.00143845
-0.000588779
0.00146595
-0.000655514
0.00149533
-0.000723701
0.0015268
-0.000793431
0.00156045
-0.0008648
0.00159632
-0.000937902
0.00163444
-0.00101283
0.00167489
-0.00108969
0.00171771
0.00176252
-0.00116855
-0.000212743
0.00131781
-0.000269902
0.00137603
-0.000329156
0.00141593
-0.000389978
0.00144681
-0.000452128
0.00147441
-0.000515542
0.00150186
-0.000580245
0.00153065
-0.000646307
0.00156139
-0.000713815
0.00159431
-0.000782859
0.0016295
-0.000853533
0.001667
-0.000925929
0.00170684
-0.00100014
0.0017491
-0.00107626
0.00179383
0.00184063
-0.00115437
-0.000208156
-0.000264526
0.0014324
-0.000323036
0.00147445
-0.000383144
0.00150692
-0.000444593
0.00153586
-0.000507309
0.00156458
-0.000571314
0.00159466
-0.000636675
0.00162675
-0.000703475
0.00166111
-0.000771805
0.00169783
-0.000841755
0.00173695
-0.000913415
0.0017785
-0.000986875
0.00182256
-0.00106223
0.00186919
0.00191796
-0.00113956
-0.000258909
0.00148794
-0.000316643
0.00153218
-0.000376003
0.00156628
-0.000436721
0.00159658
-0.000498711
0.00162657
-0.00056199
0.00165794
-0.00062662
0.00169138
-0.000692684
0.00172717
-0.00076027
0.00176541
-0.000829467
0.00180614
-0.000900364
0.0018494
-0.000973048
0.00189525
-0.00104761
0.00194375
0.00199447
-0.00112413
-0.000253052
0.00154262
-0.000309975
0.0015891
-0.000368558
0.00162486
-0.000428514
0.00165653
-0.000489749
0.00168781
-0.000552272
0.00172046
-0.000616143
0.00175525
-0.000681443
0.00179247
-0.000748257
0.00183223
-0.000816674
0.00187456
-0.00088678
0.0019195
-0.00095866
0.00196713
-0.0010324
0.00201749
0.00207015
-0.00110808
-0.000246956
0.0015964
-0.000303035
0.00164518
-0.000360807
0.00168263
-0.000419973
0.0017157
-0.000480424
0.00174826
-0.000542163
0.0017822
-0.000605247
0.00181834
-0.000669753
0.00185698
-0.000735768
0.00189824
-0.000803378
0.00194217
-0.000872667
0.00198879
-0.000943717
0.00203818
-0.00101662
0.00209039
0.00214497
-0.00109143
-0.000240622
-0.000295821
0.00170038
-0.000352753
0.00173957
-0.000411098
0.00177404
-0.000470736
0.0018079
-0.000531663
0.00184313
-0.000593931
0.00188061
-0.000657617
0.00192067
-0.000722805
0.00196343
-0.000789581
0.00200895
-0.000858027
0.00205724
-0.000928223
0.00210837
-0.00100025
0.00216242
0.00221889
-0.00107418
-0.000288335
0.00175467
-0.000344395
0.00179562
-0.000401889
0.00183154
-0.000460686
0.00186669
-0.000520773
0.00190321
-0.000582198
0.00194203
-0.000645037
0.0019835
-0.000709371
0.00202776
-0.000775286
0.00207486
-0.000842864
0.00212482
-0.000912182
0.00217769
-0.00098332
0.00223356
0.00229191
-0.00105634
-0.000280578
0.00180801
-0.000335733
0.00185078
-0.000392348
0.00188815
-0.000450275
0.00192462
-0.000509494
0.00196243
-0.000570049
0.00200259
-0.000632013
0.00204547
-0.000695467
0.00209122
-0.000760496
0.00213989
-0.000827181
0.0021915
-0.000895597
0.00224611
-0.000965825
0.00230379
0.002364
-0.00103792
-0.000272549
-0.000326769
0.001905
-0.000382475
0.00194386
-0.000439504
0.00198165
-0.000497827
0.00202076
-0.000557485
0.00206224
-0.000618547
0.00210653
-0.000681094
0.00215377
-0.000745211
0.00220401
-0.000810979
0.00225727
-0.000878474
0.0023136
-0.000947772
0.00237309
0.00243515
-0.00101892
-0.000317503
0.00195825
-0.00037227
0.00199863
-0.000428373
0.00203775
-0.000485774
0.00207816
-0.000544507
0.00212098
-0.00060464
0.00216666
-0.000666254
0.00221538
-0.000729434
0.00226719
-0.000794262
0.0023221
-0.000860813
0.00238015
-0.000929167
0.00244144
0.00250535
-0.000999367
-0.000307936
-0.000361735
0.00205242
-0.000416884
0.0020929
-0.000473335
0.00213461
-0.000531116
0.00217876
-0.000590293
0.00222584
-0.000650948
0.00227603
-0.000713165
0.0023294
-0.000777028
0.00238596
-0.000842617
0.00244574
-0.000910015
0.00250884
0.0025746
-0.00097926
-0.00035087
0.00210523
-0.000405038
0.00214707
-0.000460511
0.00219008
-0.000517313
0.00223556
-0.000575508
0.00228404
-0.000635175
0.0023357
-0.000696403
0.00239063
-0.000759279
0.00244884
-0.000823885
0.00251035
-0.000890316
0.00257527
0.00264289
-0.000958612
-0.000339677
-0.000392835
0.00220023
-0.000447304
0.00224455
-0.0005031
0.00229136
-0.000560284
0.00234122
-0.000618937
0.00239435
-0.00067915
0.00245084
-0.000741012
0.0025107
-0.000804615
0.00257395
-0.000870071
0.00264072
0.00271026
-0.000937435
-0.000380276
0.00225235
-0.000433713
0.00229799
-0.000488476
0.00234612
-0.000544623
0.00239737
-0.000602234
0.00245197
-0.000661403
0.00251001
-0.000722226
0.00257152
-0.000784801
0.00263653
-0.000849275
0.0027052
0.00277672
-0.00091574
-0.000367363
0.0023034
-0.000419742
0.00235037
-0.000473445
0.00239982
-0.000528526
0.00245245
-0.000585066
0.00250851
-0.000643161
0.00256811
-0.000702916
0.00263128
-0.000764435
0.00269804
-0.000827914
0.00276868
0.00284235
-0.000893543
-0.000354098
-0.000405392
0.00240166
-0.000458007
0.00245244
-0.000511994
0.00250643
-0.000567432
0.00256394
-0.000624423
0.0026251
-0.00068308
0.00268993
-0.000743506
0.00275847
-0.000805957
0.00283113
0.00290725
-0.000870855
-0.000390664
-0.000442165
0.00250394
-0.00049503
0.0025593
-0.000549335
0.00261825
-0.000605186
0.00268095
-0.000662714
0.00274746
-0.000722006
0.00281776
-0.000783342
0.00289247
0.00297161
-0.000847704
-0.000425921
0.0025543
-0.000477636
0.00261101
-0.000530777