/*--------------------------------*- C++ -*----------------------------------*\
  =========                 |
  \\      /  F ield         | OpenFOAM: The Open Source CFD Toolbox
   \\    /   O peration     | Website:  https://openfoam.org
    \\  /    A nd           | Version:  7
     \\/     M anipulation  |
\*---------------------------------------------------------------------------*/
FoamFile
{
    version     2.0;
    format      ascii;
    class       volVectorField;
    location    "85";
    object      U;
}
// * * * * * * * * * * * * * * * * * * * * * * * * * * * * * * * * * * * * * //

dimensions      [0 1 -1 0 0 0 0];

internalField   nonuniform List<vector> 
34000
(
(-0.000349242 -0.00342192 -1.07192e-21)
(-0.00242608 -0.00464694 -5.76645e-21)
(-0.00668513 -0.00148196 7.11698e-22)
(-0.0122947 0.00500816 -1.23034e-21)
(-0.0189525 0.0138506 1.88013e-21)
(-0.0264069 0.0242035 -1.38532e-20)
(-0.0344379 0.0353805 2.37501e-21)
(-0.0428705 0.0468687 -9.36562e-21)
(-0.0515606 0.0583329 -2.01952e-20)
(-0.0603872 0.0696041 1.72687e-20)
(-0.0692485 0.0806554 5.13571e-21)
(-0.0780601 0.0915685 -6.1632e-21)
(-0.0867546 0.102497 7.58149e-21)
(-0.0952836 0.113631 1.04027e-20)
(-0.103618 0.12517 -6.58402e-21)
(-0.111747 0.137304 -8.87026e-21)
(-0.119677 0.150204 -2.13013e-20)
(-0.127427 0.164021 -1.65287e-21)
(-0.135005 0.178871 -3.623e-21)
(-0.14241 0.194899 -7.07269e-21)
(-0.000283736 -0.00269343 -5.19934e-21)
(-0.00225804 -0.00279246 4.36602e-21)
(-0.00637413 0.00123954 -5.10534e-21)
(-0.0118218 0.00839316 -1.14903e-20)
(-0.018295 0.0177351 9.41307e-21)
(-0.0255388 0.0284559 5.73982e-20)
(-0.0333318 0.039895 -3.53749e-20)
(-0.041498 0.0515587 6.11321e-21)
(-0.0498931 0.0631261 2.89386e-20)
(-0.0583966 0.074439 -8.28416e-23)
(-0.0669066 0.0854796 1.70589e-20)
(-0.0753379 0.0963383 -2.26601e-20)
(-0.0836205 0.107178 2.3745e-20)
(-0.0917012 0.118198 -2.06087e-20)
(-0.0995436 0.12961 -7.92592e-21)
(-0.107128 0.141612 4.02535e-20)
(-0.114448 0.154383 -1.23992e-20)
(-0.121515 0.168078 1.97677e-21)
(-0.128315 0.182813 -2.36324e-20)
(-0.134801 0.198728 -2.43817e-21)
(-0.000243343 -0.00200585 -4.00593e-20)
(-0.00214889 -0.00104399 5.2216e-21)
(-0.00613926 0.00380434 8.03317e-21)
(-0.0114303 0.0115818 3.52136e-20)
(-0.0177139 0.0213929 -4.10281e-20)
(-0.0247332 0.0324595 -6.40069e-20)
(-0.0322661 0.0441448 5.82746e-20)
(-0.0401362 0.0559734 -1.58493e-20)
(-0.0481995 0.0676368 -8.14503e-21)
(-0.0563358 0.078986 -4.04452e-20)
(-0.0644435 0.0900106 1.08794e-20)
(-0.0724364 0.100808 4.0004e-20)
(-0.0802421 0.111548 -8.47389e-21)
(-0.0878023 0.12244 3.27169e-20)
(-0.0950737 0.133703 -2.68587e-20)
(-0.102026 0.145545 -8.47883e-21)
(-0.108644 0.158154 6.43018e-20)
(-0.114929 0.171686 -4.00819e-21)
(-0.120846 0.18626 1.00492e-19)
(-0.126292 0.202014 -2.33445e-20)
(-0.000225802 -0.00136224 6.53573e-20)
(-0.00209411 0.000591502 -2.91483e-20)
(-0.00597641 0.00620209 -2.03728e-20)
(-0.0111179 0.014561 -1.55622e-20)
(-0.0172099 0.0248088 2.88084e-20)
(-0.0239944 0.0361966 -5.18318e-21)
(-0.0312494 0.0481106 -9.67455e-20)
(-0.0387982 0.0600914 -1.0148e-20)
(-0.0464973 0.071842 -2.1271e-20)
(-0.0542271 0.0832209 -3.00875e-21)
(-0.0618863 0.0942231 -3.73385e-20)
(-0.0693877 0.104951 4.19899e-20)
(-0.0766565 0.115581 -6.23732e-20)
(-0.0836299 0.126329 -1.89343e-21)
(-0.0902574 0.137422 1.70796e-20)
(-0.0964998 0.149077 -1.31531e-19)
(-0.10233 0.161487 -1.0588e-19)
(-0.107742 0.174817 5.73078e-20)
(-0.112681 0.189186 -7.77503e-20)
(-0.116981 0.204733 2.39033e-21)
(-0.000228782 -0.000765107 -8.77064e-21)
(-0.00208901 0.00210755 1.14805e-19)
(-0.00588116 0.00842346 5.36537e-20)
(-0.0108821 0.017319 -3.52361e-21)
(-0.0167834 0.0279687 1.45683e-20)
(-0.0233267 0.0396513 2.50439e-21)
(-0.0302901 0.0517742 4.9289e-20)
(-0.0374971 0.0638931 5.81366e-20)
(-0.0448045 0.0757204 2.46418e-20)
(-0.0520933 0.0871208 8.77451e-20)
(-0.0592627 0.098093 -1.00527e-19)
(-0.0662247 0.108743 -2.14362e-20)
(-0.0729023 0.119251 4.4797e-20)
(-0.0792282 0.129839 -7.73405e-20)
(-0.0851451 0.14074 3.52611e-20)
(-0.0906052 0.152179 8.25094e-20)
(-0.0955702 0.164358 2.06446e-20)
(-0.100029 0.177445 2.75755e-20)
(-0.103908 0.191565 -4.47889e-20)
(-0.106969 0.206863 5.19016e-21)
(-0.000249833 -0.000215918 -4.2117e-20)
(-0.00212867 0.00350045 2.65493e-20)
(-0.00584875 0.0104626 -4.41413e-20)
(-0.0107199 0.0198478 1.26112e-20)
(-0.0164344 0.0308624 3.55576e-20)
(-0.0227337 0.042811 1.65125e-20)
(-0.0293962 0.0551209 3.04831e-20)
(-0.0362454 0.0673612 -2.17188e-20)
(-0.0431385 0.0792529 -1.32718e-19)
(-0.049957 0.0906647 -1.18252e-19)
(-0.0566004 0.101598 -7.64208e-20)
(-0.0629805 0.11216 2.92125e-20)
(-0.069018 0.122534 -1.67375e-20)
(-0.0746417 0.132945 1.27035e-19)
(-0.0797881 0.143632 -4.57136e-20)
(-0.084401 0.154828 3.70048e-20)
(-0.0884323 0.166741 5.44613e-20)
(-0.0918659 0.179547 -3.08888e-20)
(-0.0946141 0.193378 2.63483e-19)
(-0.0963569 0.208387 -9.73535e-20)
(-0.000286533 0.000284603 5.09234e-20)
(-0.00220815 0.00476807 -6.42308e-20)
(-0.0058744 0.0123158 -9.79935e-20)
(-0.0106282 0.022142 -2.60742e-20)
(-0.0161627 0.0334824 1.13549e-20)
(-0.0222189 0.045666 1.75121e-20)
(-0.0285754 0.0581384 5.85286e-20)
(-0.0350556 0.0704812 1.27447e-20)
(-0.0415167 0.0824223 5.02771e-21)
(-0.0478407 0.0938336 2.12015e-19)
(-0.0539275 0.104717 1.59179e-19)
(-0.0596885 0.11518 -9.48342e-20)
(-0.0650428 0.125406 -1.40766e-20)
(-0.0699156 0.135623 -3.79646e-20)
(-0.0742381 0.146076 3.72777e-20)
(-0.0779463 0.157001 -1.9628e-19)
(-0.0809829 0.168616 -4.04398e-20)
(-0.0833282 0.181103 -6.1707e-20)
(-0.0848857 0.194606 -1.49154e-19)
(-0.0852441 0.20929 8.07427e-20)
(-0.000336517 0.000736602 8.33487e-21)
(-0.00232262 0.00591033 -3.08205e-20)
(-0.00595338 0.0139821 8.81784e-20)
(-0.010604 0.0241989 -5.41928e-20)
(-0.0159679 0.0358241 -3.01157e-20)
(-0.0217856 0.0482094 4.77103e-20)
(-0.0278352 0.0608174 -8.18984e-20)
(-0.0339397 0.0732411 -1.15349e-20)
(-0.0399561 0.0852142 1.5488e-19)
(-0.0457667 0.0966105 -9.91203e-20)
(-0.0512716 0.107431 -4.08064e-20)
(-0.056382 0.117782 4.86154e-20)
(-0.0610159 0.127847 -1.28255e-20)
(-0.0650954 0.137853 -6.7211e-21)
(-0.0685468 0.148049 5.38214e-20)
(-0.0712998 0.158677 -1.41417e-19)
(-0.0732888 0.169962 5.07334e-20)
(-0.0744919 0.182096 -3.76191e-20)
(-0.0748099 0.195233 -8.44036e-20)
(-0.0737305 0.20956 3.06665e-20)
(-0.00039755 0.00114102 -2.36225e-20)
(-0.0024675 0.00692897 1.69466e-19)
(-0.00608118 0.015463 -3.77716e-20)
(-0.0106442 0.0260191 2.31322e-20)
(-0.0158496 0.0378863 1.67239e-19)
(-0.0214368 0.0504375 -1.13593e-19)
(-0.0271828 0.0631515 -5.55564e-20)
(-0.0329095 0.0756315 -9.68931e-20)
(-0.0384734 0.0876164 -1.06267e-19)
(-0.0437567 0.098981 -6.96514e-20)
(-0.0486599 0.109724 -9.40358e-20)
(-0.053094 0.119949 1.72019e-19)
(-0.056976 0.129836 -1.9562e-20)
(-0.0602258 0.139614 -3.95793e-20)
(-0.0627657 0.149532 -2.07765e-19)
(-0.06452 0.159837 1.17371e-19)
(-0.0654163 0.170762 3.00006e-20)
(-0.0654315 0.182508 7.25365e-20)
(-0.0644726 0.195248 4.89098e-20)
(-0.061915 0.209192 -1.29228e-19)
(-0.000467592 0.00149954 -7.25573e-20)
(-0.0026386 0.00782756 9.76904e-20)
(-0.00625368 0.0167624 5.52555e-20)
(-0.0107461 0.0276057 2.50839e-20)
(-0.0158077 0.0396705 2.03978e-20)
(-0.0211754 0.0523497 -7.51584e-20)
(-0.0266248 0.0651373 1.63424e-19)
(-0.031976 0.0776462 9.44002e-21)
(-0.0370843 0.0896198 1.50982e-19)
(-0.0418318 0.100933 -8.75478e-20)
(-0.0461187 0.111581 1.42317e-19)
(-0.0498564 0.121664 -1.40102e-19)
(-0.0529612 0.131357 -1.26697e-19)
(-0.0553512 0.140888 1.07666e-19)
(-0.0569456 0.150506 3.81446e-19)
(-0.0576646 0.160463 -2.09524e-19)
(-0.0574302 0.170999 1.72807e-19)
(-0.0562195 0.182328 3.92601e-20)
(-0.0539551 0.194639 -1.4861e-19)
(-0.0498983 0.208196 1.23387e-19)
(-0.000544858 0.00181456 1.31051e-19)
(-0.0028322 0.0086113 -7.57983e-20)
(-0.00646725 0.0178866 2.48609e-20)
(-0.0109074 0.0289648 9.60259e-20)
(-0.0158418 0.0411815 -8.94042e-20)
(-0.0210043 0.0539485 1.74426e-19)
(-0.0261676 0.0667746 -3.19397e-20)
(-0.0311496 0.0792819 4.05124e-21)
(-0.0358039 0.091218 -2.07971e-19)
(-0.0400117 0.102457 1.31847e-19)
(-0.0436734 0.11299 2.9799e-20)
(-0.0467002 0.122912 -3.86025e-20)
(-0.0490082 0.132394 4.96451e-20)
(-0.0505144 0.141658 -1.96506e-19)
(-0.0511358 0.150955 -1.10294e-19)
(-0.0507895 0.160539 2.30403e-19)
(-0.0493937 0.17066 -1.2849e-19)
(-0.0469255 0.18154 -1.83145e-19)
(-0.0433263 0.193391 3.40116e-19)
(-0.037774 0.206567 -1.43895e-21)
(-0.000627865 0.0020891 1.08592e-19)
(-0.00304525 0.00928694 -1.37379e-19)
(-0.00671892 0.0188439 -1.43887e-19)
(-0.0111262 0.0301049 -6.88954e-20)
(-0.0159522 0.0424265 -9.95922e-20)
(-0.0209261 0.0552393 -5.66892e-20)
(-0.0258171 0.0680661 -2.37925e-19)
(-0.0304399 0.0805385 2.96349e-20)
(-0.0346459 0.0924074 -1.00822e-19)
(-0.0383152 0.103546 3.54285e-19)
(-0.0413476 0.113942 -2.05977e-19)
(-0.0436545 0.123682 1.27612e-19)
(-0.045152 0.132932 -3.89973e-20)
(-0.0457565 0.14191 2.13008e-19)
(-0.0453836 0.150864 1.72067e-20)
(-0.0439485 0.160052 -1.81735e-19)
(-0.0413676 0.16973 -3.18694e-20)
(-0.0376218 0.180134 8.91101e-21)
(-0.0326601 0.1915 -1.54852e-20)
(-0.0256155 0.204272 2.23415e-19)
(-0.00071548 0.00232672 -1.35629e-19)
(-0.00327537 0.0098626 -1.29771e-19)
(-0.00700647 0.0196448 5.42253e-20)
(-0.0114013 0.0310368 1.35468e-19)
(-0.0161392 0.0434158 -9.46423e-21)
(-0.0209434 0.0562304 -9.32703e-20)
(-0.0255787 0.0690179 2.08761e-19)
(-0.0298557 0.0814187 -2.31282e-20)
(-0.0336229 0.093188 2.53283e-19)
(-0.0367589 0.104197 -2.82696e-19)
(-0.0391628 0.11443 7.48849e-20)
(-0.040746 0.123966 8.78121e-20)
(-0.0414249 0.132962 -2.78991e-21)
(-0.0411156 0.141633 -1.36483e-21)
(-0.0397331 0.150221 -1.66446e-19)
(-0.0371919 0.158989 2.33501e-20)
(-0.0334082 0.168199 2.22047e-19)
(-0.0283683 0.178104 2.84224e-19)
(-0.0220366 0.188967 -3.37761e-19)
(-0.0135013 0.201307 -2.16134e-19)
(-0.00080695 0.0025315 5.60432e-20)
(-0.00352097 0.0103476 8.72322e-20)
(-0.00732848 0.0203011 1.04795e-19)
(-0.011732 0.0317735 -1.7853e-19)
(-0.0164033 0.0441619 1.87338e-19)
(-0.0210585 0.056933 1.78627e-19)
(-0.0254569 0.0696386 -7.04123e-20)
(-0.0294041 0.0819288 3.052e-19)
(-0.0327455 0.0935625 -3.09453e-19)
(-0.0353573 0.104411 1.36904e-19)
(-0.0371379 0.114451 1.39752e-19)
(-0.0379986 0.123757 -1.14435e-20)
(-0.037856 0.132476 1.22353e-21)
(-0.0366264 0.140816 1.85476e-20)
(-0.0342248 0.149017 -1.28491e-19)
(-0.0305659 0.157341 1.27103e-19)
(-0.0255669 0.166058 -6.61271e-20)
(-0.0192214 0.175439 -1.47476e-19)
(-0.0115179 0.185783 1.89517e-19)
(-0.00150543 0.197688 3.92291e-20)
(-0.000901928 0.00270788 -3.25298e-20)
(-0.0037813 0.0107522 4.07783e-20)
(-0.00768438 0.0208266 -8.77563e-20)
(-0.0121183 0.0323299 -1.30486e-19)
(-0.0167453 0.0446796 -1.34969e-19)
(-0.0212735 0.0573607 -1.21728e-19)
(-0.0254554 0.0699399 1.96889e-19)
(-0.0290913 0.0820776 -1.01563e-19)
(-0.0320223 0.0935373 8.05089e-20)
(-0.0341224 0.104189 7.87242e-21)
(-0.0352887 0.114006 -2.15556e-20)
(-0.0354322 0.123053 5.32593e-20)
(-0.0344699 0.13147 -1.05348e-19)
(-0.0323186 0.139455 5.61466e-20)
(-0.0288936 0.147244 1.76953e-19)
(-0.0241105 0.1551 -2.57013e-19)
(-0.0178887 0.163301 -1.64038e-19)
(-0.0102305 0.172136 2.14824e-19)
(-0.00115535 0.181942 -1.26952e-19)
(0.0103134 0.193419 -1.91185e-19)
(-0.00100049 0.00286062 1.17531e-19)
(-0.00405645 0.0110874 -1.20602e-19)
(-0.00807448 0.0212358 9.86001e-20)
(-0.0125607 0.0327226 1.57469e-19)
(-0.0171664 0.0449857 -2.86615e-20)
(-0.0215901 0.0575295 -1.02696e-19)
(-0.0255769 0.0699363 -1.94418e-19)
(-0.028921 0.0818775 -1.47786e-19)
(-0.0314592 0.093122 -2.94733e-19)
(-0.0330625 0.10354 2.91406e-20)
(-0.0336265 0.113099 -2.53948e-20)
(-0.0330619 0.121856 -2.08689e-19)
(-0.0312859 0.129942 1.78636e-19)
(-0.0282158 0.137546 2.19739e-19)
(-0.0237675 0.144899 -1.08269e-20)
(-0.017858 0.152262 1.34238e-19)
(-0.0104099 0.159923 -6.74193e-20)
(-0.00143497 0.168191 9.93938e-21)
(0.00901063 0.177444 1.86323e-19)
(0.0219128 0.188501 4.45948e-19)
(-0.00110312 0.00299465 -5.17867e-20)
(-0.00434734 0.011365 -3.54135e-20)
(-0.0084999 0.0215444 1.00894e-19)
(-0.0130604 0.0329691 -1.40033e-19)
(-0.0176675 0.0450986 -3.61322e-20)
(-0.0220093 0.0574574 2.17229e-19)
(-0.0258227 0.0696446 -5.0847e-20)
(-0.0288954 0.0813436 -1.47398e-19)
(-0.0310592 0.0923295 2.39996e-19)
(-0.0321821 0.102473 -6.52551e-20)
(-0.0321579 0.111737 4.70394e-20)
(-0.0308969 0.120172 2.51438e-19)
(-0.0283161 0.127897 -3.4906e-19)
(-0.0243335 0.135093 -9.56426e-20)
(-0.0188656 0.141984 -1.85164e-19)
(-0.0118308 0.148829 3.7553e-19)
(-0.00315522 0.155925 1.15066e-20)
(0.0071392 0.163603 2.03832e-19)
(0.018955 0.172289 -7.66846e-20)
(0.03327 0.182938 -4.18725e-19)
(-0.00121072 0.00311504 -1.1807e-19)
(-0.00465569 0.0115966 1.69835e-19)
(-0.00896252 0.0217685 2.57528e-21)
(-0.0136189 0.0330881 -1.3205e-21)
(-0.0182495 0.0450381 1.76791e-19)
(-0.0225313 0.0571642 1.27331e-19)
(-0.0261923 0.0690839 -4.21718e-21)
(-0.0290134 0.0804937 3.79146e-19)
(-0.0308215 0.091176 1.44928e-19)
(-0.0314809 0.101003 -2.65372e-19)
(-0.0308837 0.109934 1.29948e-20)
(-0.0289392 0.118011 -1.07122e-20)
(-0.0255645 0.125344 3.65803e-19)
(-0.0206777 0.132104 -4.07214e-19)
(-0.0141958 0.138505 1.12856e-19)
(-0.00603831 0.144805 2.52888e-21)
(0.00386534 0.151311 -2.83513e-19)
(0.015483 0.158378 -2.9321e-19)
(0.0286725 0.166485 -3.69375e-20)
(0.044387 0.176737 4.20299e-19)
(-0.00132459 0.00322682 3.76065e-20)
(-0.00498396 0.0117943 -1.2071e-19)
(-0.00946484 0.0219243 1.15983e-19)
(-0.0142379 0.0330988 -1.73179e-19)
(-0.018913 0.0448248 2.14086e-19)
(-0.0231551 0.0566714 -3.59556e-19)
(-0.0266832 0.0682755 -8.8032e-20)
(-0.0292712 0.0793483 -1.98341e-19)
(-0.0307408 0.089681 -9.31611e-20)
(-0.0309529 0.0991481 1.65381e-19)
(-0.0297973 0.107706 3.34759e-19)
(-0.0271822 0.115389 -3.73057e-19)
(-0.0230246 0.122298 -1.3915e-19)
(-0.0172423 0.12859 5.01266e-19)
(-0.00975215 0.134475 -1.79444e-19)
(-0.000473967 0.140204 -2.58069e-19)
(0.0106603 0.146094 3.25405e-19)
(0.0236089 0.152526 6.88145e-20)
(0.0381827 0.16004 6.31884e-20)
(0.0552976 0.169912 -2.69301e-19)
(-0.00144637 0.00333489 1.4452e-20)
(-0.00533524 0.0119697 -6.24237e-20)
(-0.0100098 0.0220282 2.01555e-19)
(-0.0149193 0.0330203 -2.60337e-19)
(-0.0196577 0.04448 -2.16622e-19)
(-0.0238782 0.0560011 1.37591e-19)
(-0.0272903 0.0672422 3.76874e-19)
(-0.029661 0.0779305 -2.37231e-19)
(-0.030807 0.0878671 5.65409e-20)
(-0.0305854 0.0969303 -1.13241e-19)
(-0.0288839 0.105075 -4.54061e-19)
(-0.0256092 0.112327 2.74329e-19)
(-0.0206776 0.118777 2.18082e-19)
(-0.0140064 0.124574 -3.86905e-19)
(-0.00551128 0.129914 9.14755e-20)
(0.00488884 0.135046 3.57403e-19)
(0.0172613 0.140293 1.36995e-19)
(0.0315564 0.146067 4.8651e-20)
(0.0475365 0.152972 -2.8463e-19)
(0.0660748 0.162481 -1.37952e-19)
(-0.00157799 0.00344394 -1.01379e-19)
(-0.00571309 0.0121341 -1.85216e-19)
(-0.0106007 0.0220959 -1.07924e-19)
(-0.0156645 0.0328717 1.42571e-19)
(-0.0204827 0.044025 -8.24314e-21)
(-0.0246961 0.0551765 3.15388e-19)
(-0.0280055 0.0660082 -3.04682e-20)
(-0.0301709 0.0762651 3.59993e-20)
(-0.031004 0.0857599 2.22809e-19)
(-0.0303584 0.0943756 2.81592e-19)
(-0.0281192 0.102066 -1.22482e-20)
(-0.0241916 0.108851 -6.20622e-20)
(-0.0184906 0.114811 -3.6038e-19)
(-0.010932 0.120082 2.68767e-19)
(-0.00142939 0.124851 -2.3582e-20)
(0.010101 0.129361 -1.59025e-19)
(0.0237283 0.133939 -7.87778e-19)
(0.0393979 0.13903 2.76625e-19)
(0.0568225 0.145309 1.57323e-20)
(0.0768387 0.154476 -1.69708e-19)
(-0.00172161 0.00355831 9.2549e-20)
(-0.00612139 0.0122978 2.41268e-19)
(-0.0112407 0.0221423 -1.83123e-19)
(-0.0164746 0.0326715 -8.82507e-20)
(-0.0213853 0.043481 7.41821e-20)
(-0.0256022 0.0542211 -1.7914e-19)
(-0.0288171 0.064599 -3.30149e-19)
(-0.0307838 0.0743793 1.94817e-19)
(-0.0313091 0.0833876 -2.3013e-20)
(-0.030243 0.0915136 -4.43508e-19)
(-0.027468 0.0987105 8.54787e-20)
(-0.0228872 0.104993 4.71301e-20)
(-0.0164136 0.110433 -8.12085e-20)
(-0.0079607 0.115152 2.14651e-19)
(0.00256164 0.119326 4.14285e-19)
(0.015242 0.12319 -2.67452e-19)
(0.030155 0.127076 2.18866e-19)
(0.0472451 0.131459 5.10575e-20)
(0.0661744 0.137093 2.99911e-19)
(0.087765 0.145939 1.32957e-19)
(-0.00187956 0.00368186 -1.01271e-19)
(-0.00656415 0.0124703 -1.2853e-20)
(-0.0119327 0.0221812 2.58731e-19)
(-0.0173495 0.032437 2.55696e-19)
(-0.0223614 0.0428685 -5.21673e-20)
(-0.0265868 0.0531581 -3.33104e-20)
(-0.0297094 0.0630404 3.30473e-19)
(-0.0314771 0.0723013 -2.55951e-19)
(-0.0316921 0.0807811 7.70556e-20)
(-0.0302008 0.0883772 3.20058e-19)
(-0.0268828 0.0950442 3.04546e-19)
(-0.0216385 0.100792 1.16543e-19)
(-0.014378 0.105683 5.125e-19)
(-0.00501109 0.109828 -7.08847e-20)
(0.00655775 0.113388 -5.36853e-19)
(0.0204248 0.116587 2.6307e-19)
(0.0366742 0.119761 -1.37323e-19)
(0.0552553 0.123414 -3.22819e-19)
(0.0757776 0.128381 -2.27168e-19)
(0.0990918 0.136935 -2.2717e-19)
(-0.00205421 0.00381792 6.41899e-20)
(-0.00704526 0.0126599 1.33648e-19)
(-0.012679 0.022225 -9.39536e-20)
(-0.018288 0.0321842 -1.16784e-19)
(-0.0234045 0.0422072 -1.19769e-19)
(-0.027637 0.0520105 -3.27259e-20)
(-0.0306619 0.0613587 -3.38777e-19)
(-0.0322218 0.0700607 1.73725e-19)
(-0.0321145 0.0779731 -1.59104e-19)
(-0.0301828 0.0850027 -2.66946e-19)
(-0.0263027 0.0911068 8.97019e-21)
(-0.0203711 0.0962921 -6.69542e-19)
(-0.0122942 0.100612 -5.16779e-19)
(-0.00197618 0.104165 1.61292e-19)
(0.010686 0.107097 8.18597e-20)
(0.0257992 0.109622 -1.72922e-19)
(0.0434623 0.11207 6.67382e-19)
(0.0636362 0.114974 -1.03994e-19)
(0.0858742 0.119252 2.82463e-19)
(0.111124 0.127548 2.50877e-19)
(-0.00224787 0.00396912 -8.81487e-20)
(-0.00756824 0.0128732 -2.9147e-19)
(-0.0134812 0.0222842 9.18661e-20)
(-0.0192872 0.0319276 5.02481e-21)
(-0.0245056 0.0415149 3.92898e-19)
(-0.0287362 0.0508004 -2.33651e-19)
(-0.0316492 0.0595799 1.28155e-19)
(-0.0329823 0.0676876 1.80608e-19)
(-0.0325292 0.0749981 -1.44651e-20)
(-0.0301287 0.0814291 1.11196e-19)
(-0.0256525 0.0869422 3.33845e-19)
(-0.0189929 0.091542 6.96834e-19)
(-0.0100502 0.0952744 5.53222e-20)
(0.0012785 0.0982255 -3.04431e-19)
(0.0151066 0.100527 5.56222e-20)
(0.031555 0.102376 5.29748e-19)
(0.0507424 0.104096 -3.57654e-19)
(0.0726491 0.106243 1.21079e-21)
(0.0967653 0.10981 2.71648e-19)
(0.124235 0.11789 -1.69297e-19)
(-0.00246272 0.00413738 -8.35476e-20)
(-0.008136 0.0131153 3.42111e-19)
(-0.0143392 0.0223673 -2.61691e-19)
(-0.020342 0.0316792 -5.34888e-20)
(-0.0256526 0.0408082 -8.98276e-20)
(-0.0298637 0.0495483 -2.31924e-19)
(-0.0326402 0.0577294 2.3175e-19)
(-0.0337156 0.0652124 -7.69525e-20)
(-0.0328796 0.0718917 -1.35184e-19)
(-0.0299663 0.0776977 2.20808e-19)
(-0.024842 0.0825977 -2.55123e-19)
(-0.0173927 0.0865961 -8.21936e-20)
(-0.00751102 0.0897325 -9.19638e-21)
(0.00491591 0.0920817 2.12328e-19)
(0.0200145 0.0937599 -1.9039e-19)
(0.0379231 0.0949462 -3.58273e-19)
(0.0587851 0.0959516 -1.06806e-19)
(0.0826091 0.0973463 -1.55836e-19)
(0.108809 0.100184 -4.7516e-19)
(0.138858 0.108103 -1.40074e-19)
(-0.00270061 0.00432374 1.17819e-19)
(-0.00875056 0.0133894 -1.50334e-19)
(-0.0152517 0.0224805 -1.86627e-19)
(-0.021445 0.031449 -1.76956e-19)
(-0.02683 0.0401011 5.91254e-20)
(-0.0309941 0.0482733 3.42662e-20)
(-0.0335981 0.0558314 8.20964e-20)
(-0.0343715 0.062665 -2.12665e-19)
(-0.0330996 0.06869 1.64003e-19)
(-0.0296112 0.0738511 -4.86933e-19)
(-0.0237658 0.0781233 -2.43579e-19)
(-0.0154408 0.0815125 3.5057e-21)
(-0.00451835 0.0840539 2.12218e-19)
(0.00912704 0.0858124 -1.37898e-19)
(0.0256381 0.0868888 3.49388e-19)
(0.0451734 0.0874424 -8.53665e-20)
(0.0679057 0.0877652 1.1153e-19)
(0.0938803 0.0884318 4.12095e-19)
(0.122415 0.0905317 5.47082e-20)
(0.155479 0.09836 2.61707e-19)
(-0.002963 0.00452838 -2.48605e-19)
(-0.00941279 0.0136968 1.99744e-19)
(-0.0162151 0.0226276 2.25736e-19)
(-0.0225861 0.0312443 -1.30376e-19)
(-0.0280189 0.0394054 2.2286e-19)
(-0.0320976 0.0469923 2.15362e-19)
(-0.0344799 0.0539088 -3.94218e-20)
(-0.0348918 0.0600748 -7.2813e-20)
(-0.0331137 0.0654291 -1.98097e-19)
(-0.0289675 0.0699329 9.399e-20)
(-0.0223039 0.0735708 9.29831e-21)
(-0.0129892 0.0763522 -2.38741e-19)
(-0.000892175 0.0783103 1.74108e-19)
(0.0141289 0.079502 -1.36124e-19)
(0.0322361 0.0800138 -2.47466e-19)
(0.053611 0.079984 -3.1931e-19)
(0.0784577 0.07968 7.86427e-20)
(0.106866 0.0796686 1.07044e-19)
(0.138029 0.0810353 -1.02239e-19)
(0.174608 0.0888651 4.28349e-19)
(-0.00325082 0.00475055 -1.94811e-19)
(-0.0101221 0.0140367 -1.83666e-19)
(-0.017224 0.0228097 1.44926e-19)
(-0.023752 0.0310697 8.45727e-20)
(-0.0291963 0.0387302 3.38303e-20)
(-0.0331394 0.0457199 -6.25806e-20)
(-0.0352369 0.0519823 -4.47919e-20)
(-0.0352112 0.0574691 1.01098e-19)
(-0.032837 0.0621442 -9.40289e-20)
(-0.0279278 0.0659864 7.54099e-19)
(-0.0203228 0.0689924 5.46235e-20)
(-0.00987407 0.0711776 -8.21516e-20)
(0.00356674 0.0725755 -5.44969e-19)
(0.0201608 0.0732379 1.0512e-19)
(0.0400924 0.0732395 -2.65009e-19)
(0.0635675 0.072697 1.75182e-19)
(0.0908217 0.0718485 1.58724e-19)
(0.121995 0.0712404 -5.99548e-19)
(0.156113 0.0718978 -1.84907e-19)
(0.196758 0.0798488 -6.3993e-19)
(-0.00356434 0.00498855 9.44158e-20)
(-0.0108764 0.0144061 1.89327e-19)
(-0.0182701 0.0230254 -3.40749e-19)
(-0.0249264 0.0309266 -2.6083e-19)
(-0.0303354 0.0380814 1.31329e-19)
(-0.03408 0.0444676 1.2463e-19)
(-0.0358144 0.05007 -2.57432e-19)
(-0.0352574 0.0548737 -2.29477e-20)
(-0.0321766 0.0588689 1.37856e-20)
(-0.026375 0.0620541 -2.26938e-19)
(-0.0176772 0.0644402 3.26058e-19)
(-0.00591765 0.0660512 2.18197e-21)
(0.00907276 0.0669241 4.07093e-19)
(0.0274782 0.0671088 2.74973e-19)
(0.0495073 0.0666713 4.69779e-20)
(0.0753901 0.0657087 5.6894e-19)
(0.10539 0.0644259 -5.1341e-19)
(0.1397 0.0633382 2.3774e-19)
(0.177124 0.063335 1.85145e-19)
(0.222401 0.0715619 1.58657e-19)
(-0.00390307 0.00523977 4.50304e-19)
(-0.0116716 0.0148001 -3.18625e-19)
(-0.0193429 0.0232705 7.82365e-20)
(-0.0260897 0.0308139 2.52647e-19)
(-0.0314054 0.0374622 -2.72482e-19)
(-0.0348752 0.0432442 1.37545e-20)
(-0.0361524 0.0481873 2.05761e-19)
(-0.0349517 0.0523114 3.76891e-19)
(-0.0310322 0.0556343 5.07311e-19)
(-0.0241834 0.0581763 -4.84437e-19)
(-0.0142127 0.0599643 -2.87678e-19)
(-0.000932645 0.0610338 1.35845e-19)
(0.01585 0.0614287 -3.86122e-19)
(0.0363454 0.0612009 2.6266e-20)
(0.0607874 0.0604118 1.48669e-19)
(0.0894272 0.0591423 1.13066e-19)
(0.122548 0.0575633 3.45046e-19)
(0.16039 0.0561504 7.15252e-20)
(0.201484 0.0555648 -2.57445e-19)
(0.251932 0.0642653 2.75493e-19)
(-0.0042657 0.00550071 -4.26187e-19)
(-0.0125019 0.0152118 3.16746e-19)
(-0.0204289 0.023538 7.74115e-20)
(-0.027219 0.0307269 -2.49484e-19)
(-0.0323718 0.0368723 1.05149e-19)
(-0.0354766 0.0420551 -5.07068e-20)
(-0.0361863 0.0463464 -3.9147e-20)
(-0.0342105 0.0498019 -3.17831e-19)
(-0.0292978 0.0524687 -4.99373e-19)
(-0.0212218 0.0543903 4.64365e-19)
(-0.00976884 0.0556119 -1.66845e-19)
(0.00527346 0.0561832 5.23048e-21)
(0.0241261 0.0561584 9.2974e-20)
(0.0470265 0.0555957 1.94707e-19)
(0.0742332 0.0545571 -2.41111e-20)
(0.106012 0.053112 -5.49375e-20)
(0.142653 0.051399 -2.76805e-19)
(0.184432 0.0498517 -1.84302e-19)
(0.229548 0.0487953 -1.73777e-19)
(0.285622 0.0582181 2.76865e-19)
(-0.00465005 0.00576708 3.40131e-19)
(-0.0133592 0.0156326 -8.89683e-20)
(-0.0215121 0.0238189 3.03047e-19)
(-0.0282882 0.0306584 7.35768e-20)
(-0.0331967 0.0363081 -1.61898e-19)
(-0.0358321 0.0409021 2.63011e-20)
(-0.0358475 0.0445556 -3.43799e-19)
(-0.032946 0.0473615 1.55858e-19)
(-0.0268637 0.0493966 8.32977e-20)
(-0.0173554 0.0507296 -3.11564e-20)
(-0.00418329 0.0514261 -3.54997e-20)
(0.0128931 0.0515524 4.06131e-20)
(0.0341244 0.0511767 -1.84555e-19)
(0.0597758 0.0503677 -4.27336e-19)
(0.0901262 0.0491932 2.15163e-19)
(0.125447 0.0477177 -1.06218e-19)
(0.166017 0.0460528 -2.49983e-20)
(0.212115 0.0445926 4.46301e-19)
(0.261588 0.0432141 4.64908e-19)
(0.323576 0.0536653 -7.07621e-19)
(-0.005053 0.00603393 -8.71805e-20)
(-0.0142335 0.016052 -9.53249e-20)
(-0.0225737 0.0241014 -1.89746e-19)
(-0.0292683 0.0305984 1.38646e-19)
(-0.0338387 0.0357633 2.52147e-19)
(-0.0358865 0.0397837 -3.25058e-19)
(-0.0350642 0.04282 5.18667e-19)
(-0.0310677 0.0450021 -1.01031e-19)
(-0.0236181 0.0464382 1.45197e-20)
(-0.0124489 0.0472232 -3.46646e-19)
(0.00270458 0.0474449 -2.63868e-20)
(0.022113 0.0471889 -2.82161e-19)
(0.0460573 0.0465401 3.76068e-19)
(0.0748276 0.0455819 2.45152e-19)
(0.108716 0.0443939 -4.76284e-19)
(0.147986 0.0430417 -4.02731e-19)
(0.192881 0.04162 9.24846e-20)
(0.243638 0.0404896 5.34378e-19)
(0.297766 0.0389813 2.45666e-19)
(0.365698 0.0508258 1.32345e-19)
(-0.00547051 0.00629573 2.63756e-20)
(-0.0151128 0.0164584 9.26431e-20)
(-0.0235923 0.0243722 1.11153e-19)
(-0.0301274 0.0305342 -9.34216e-20)
(-0.0342542 0.0352283 2.33059e-19)
(-0.0355821 0.0386952 3.12078e-19)
(-0.0337631 0.0411405 4.7723e-21)
(-0.0284842 0.0427317 -4.00279e-19)
(-0.0194498 0.0436092 -3.18738e-19)
(-0.00636975 0.043895 3.32793e-19)
(0.0110493 0.0437007 -4.41729e-19)
(0.0331089 0.0431332 -4.93013e-19)
(0.0601181 0.0422968 -4.90295e-20)
(0.0923871 0.0412933 -2.6521e-20)
(0.130211 0.0402185 1.67444e-19)
(0.173824 0.0391468 1.09392e-19)
(0.223412 0.0381687 1.41017e-19)
(0.279088 0.0376172 -6.60714e-19)
(0.338138 0.0362251 -1.81247e-19)
(0.41167 0.0498733 4.74499e-19)
(-0.00589769 0.00654659 -1.60554e-19)
(-0.0159832 0.0168393 1.57072e-19)
(-0.0245445 0.0246163 -1.1636e-19)
(-0.0308313 0.0304513 -5.77039e-20)
(-0.0343971 0.0346908 -1.57441e-19)
(-0.0348595 0.0376286 -1.19307e-19)
(-0.0318697 0.0395146 -2.12377e-19)
(-0.0251045 0.0405543 3.50282e-19)
(-0.01425 0.0409206 1.38441e-19)
(0.0010092 0.0407635 -3.38505e-19)
(0.0209956 0.0402198 5.26729e-19)
(0.0460398 0.039419 2.6878e-19)
(0.0764751 0.0384868 -2.01229e-19)
(0.112622 0.0375457 -2.79759e-19)
(0.154764 0.0367123 -3.52141e-20)
(0.203083 0.0360753 2.84904e-19)
(0.25768 0.03574 -1.88318e-19)
(0.318438 0.0360029 7.18496e-20)
(0.382655 0.0350429 1.61362e-19)
(0.460936 0.0509145 4.01408e-19)
(-0.00632883 0.00678042 -1.66133e-20)
(-0.0168289 0.0171814 -3.87837e-19)
(-0.0254045 0.0248173 9.44296e-20)
(-0.0313439 0.0303333 2.10464e-19)
(-0.0342197 0.0341366 -3.90054e-20)
(-0.0336584 0.036573 -2.5437e-19)
(-0.0293099 0.0379363 2.79502e-19)
(-0.0208397 0.0384699 3.19052e-19)
(-0.00791438 0.038379 1.21962e-19)
(0.00980682 0.0378425 6.01706e-19)
(0.0326743 0.0370228 -2.77827e-19)
(0.0610441 0.0360729 1.32169e-19)
(0.0952656 0.0351413 -1.35825e-19)
(0.135658 0.0343723 3.23974e-19)
(0.182471 0.0339057 -2.85157e-20)
(0.235809 0.03385 -7.32945e-20)
(0.295662 0.034349 -1.17049e-19)
(0.36154 0.0356254 1.82953e-19)
(0.431147 0.035535 -4.60067e-19)
(0.512657 0.0540281 -6.18033e-19)
(-0.00675751 0.00699111 -9.2744e-20)
(-0.0176329 0.0174712 -3.41501e-20)
(-0.0261449 0.0249585 -3.13261e-19)
(-0.0316275 0.0301626 1.91804e-19)
(-0.0336734 0.0335495 -1.95701e-19)
(-0.0319185 0.0355153 -1.98401e-19)
(-0.0260108 0.036397 -1.81135e-20)
(-0.015604 0.0364749 -3.22244e-19)
(-0.000344929 0.0359869 -5.08452e-19)
(0.0201315 0.0351407 1.38414e-19)
(0.0462 0.0341246 1.54357e-19)
(0.0782354 0.0331154 1.85043e-19)
(0.116592 0.0322839 4.68635e-19)
(0.161568 0.0317964 -4.59498e-20)
(0.213363 0.0318159 -9.97288e-20)
(0.271968 0.0324739 -1.32324e-20)
(0.33724 0.0339812 2.48976e-19)
(0.408159 0.0364149 4.40269e-19)
(0.483316 0.0378932 -1.23286e-19)
(0.565567 0.0593936 4.50673e-19)
(-0.00717672 0.00717274 2.9015e-19)
(-0.0183766 0.0176955 -4.69371e-20)
(-0.026737 0.025023 2.76272e-19)
(-0.0316431 0.0299212 -2.83355e-19)
(-0.032709 0.0329123 4.18252e-19)
(-0.0295798 0.0344409 3.49504e-19)
(-0.0219015 0.0348857 -2.86613e-19)
(-0.00931601 0.0345634 -5.31651e-19)
(0.00854867 0.0337438 8.78629e-19)
(0.0320791 0.0326634 2.15613e-19)
(0.0616687 0.031536 -1.67295e-19)
(0.0977004 0.0305617 -1.6398e-19)
(0.140517 0.029932 -8.09772e-20)
(0.190379 0.0298329 -1.26572e-19)
(0.247402 0.0304477 -4.15652e-19)
(0.311444 0.0319293 -1.12026e-19)
(0.382213 0.034577 9.51824e-21)
(0.458061 0.0382393 -3.02338e-19)
(0.53891 0.0424021 1.50111e-19)
(0.618187 0.0668727 -3.21289e-19)
(-0.00757902 0.00731976 -4.63428e-19)
(-0.0190406 0.0178416 3.12617e-19)
(-0.0271509 0.0249941 -4.65976e-19)
(-0.0313511 0.029591 -2.53769e-19)
(-0.0312771 0.0322074 9.45535e-20)
(-0.0265833 0.0333344 -3.77612e-19)
(-0.0169139 0.0333903 5.90524e-19)
(-0.00189963 0.0327274 1.0096e-20)
(0.0188481 0.0316469 -3.26288e-19)
(0.0457323 0.0304131 -2.84159e-19)
(0.0791561 0.0292647 -5.04848e-19)
(0.119497 0.0284233 -6.31872e-21)
(0.167067 0.0280986 1.85411e-20)
(0.222059 0.0284911 -1.13677e-19)
(0.284481 0.0297971 5.02482e-19)
(0.354026 0.0321788 3.08208e-19)
(0.430257 0.0360205 7.63871e-20)
(0.510996 0.0408876 -3.28075e-19)
(0.597986 0.0489543 -1.79316e-20)
(0.671003 0.0737366 -5.33963e-19)
(-0.00795668 0.00742716 1.64604e-19)
(-0.0196048 0.0178978 -3.12393e-19)
(-0.0273562 0.0248564 4.02169e-19)
(-0.0307115 0.0291549 5.65572e-19)
(-0.0293288 0.0314179 -1.8405e-19)
(-0.0228716 0.0321802 2.37661e-20)
(-0.0109831 0.0318984 -4.98166e-19)
(0.00671564 0.0309586 -1.23842e-19)
(0.0306256 0.0296925 -3.83377e-19)
(0.0611593 0.0283913 4.97951e-19)
(0.0987176 0.0273171 4.5887e-19)
(0.143654 0.0267106 -8.13681e-20)
(0.196226 0.0267953 -6.04223e-20)
(0.256528 0.0277789 -4.99884e-21)
(0.324422 0.0298583 9.10748e-20)
(0.399403 0.0331815 -1.61914e-19)
(0.480868 0.0381764 -1.86684e-19)
(0.566324 0.0440916 3.94325e-19)
(0.659725 0.0561132 -1.26273e-19)
(0.729523 0.0737808 1.41359e-20)
(-0.00830179 0.0074906 4.34112e-20)
(-0.0200488 0.0178539 6.31461e-20)
(-0.0273219 0.0245958 -2.10496e-19)
(-0.0296842 0.028597 -5.82753e-19)
(-0.0268154 0.0305279 9.44911e-20)
(-0.0183888 0.0309642 2.85769e-19)
(-0.0040474 0.0303984 1.30249e-19)
(0.0165943 0.0292493 5.57589e-19)
(0.0439443 0.0278776 -3.49322e-19)
(0.0784143 0.0266002 -4.52252e-19)
(0.120388 0.0257002 -8.25893e-20)
(0.170173 0.0254342 2.03333e-19)
(0.227941 0.0260341 4.42094e-20)
(0.293653 0.0277056 2.37532e-19)
(0.366982 0.0306317 -2.88533e-19)
(0.447184 0.0349181 5.67903e-20)
(0.533424 0.040978 -7.30435e-20)
(0.622931 0.0476305 -3.92541e-20)
(0.720015 0.06103 8.93673e-20)
(0.794645 0.0690754 9.70444e-19)
(-0.0086064 0.00750651 -2.14827e-19)
(-0.0203517 0.0177012 1.45496e-20)
(-0.027017 0.0242003 -4.13744e-20)