/*--------------------------------*- C++ -*----------------------------------*\
  =========                 |
  \\      /  F ield         | OpenFOAM: The Open Source CFD Toolbox
   \\    /   O peration     | Website:  https://openfoam.org
    \\  /    A nd           | Version:  7
     \\/     M anipulation  |
\*---------------------------------------------------------------------------*/
FoamFile
{
    version     2.0;
    format      ascii;
    class       volScalarField;
    location    "25";
    object      p;
}
// * * * * * * * * * * * * * * * * * * * * * * * * * * * * * * * * * * * * * //

dimensions      [0 2 -2 0 0 0 0];

internalField   nonuniform List<scalar> 
8500
(
-0.236753
-0.236772
-0.236757
-0.236701
-0.236603
-0.236457
-0.236258
-0.236001
-0.235682
-0.235293
-0.234828
-0.23428
-0.233639
-0.232896
-0.232039
-0.231054
-0.229926
-0.228635
-0.22716
-0.225473
-0.223543
-0.221335
-0.218802
-0.215899
-0.212565
-0.208743
-0.204356
-0.199343
-0.193609
-0.187113
-0.179735
-0.171502
-0.162254
-0.152152
-0.140995
-0.129075
-0.116324
-0.102779
-0.0893719
-0.074229
-0.0621545
-0.0446542
-0.0375044
-0.0153228
-0.0189808
0.0121037
-0.236768
-0.236787
-0.236771
-0.236716
-0.236618
-0.236472
-0.236273
-0.236017
-0.235697
-0.235309
-0.234844
-0.234295
-0.233655
-0.232911
-0.232054
-0.231069
-0.229941
-0.22865
-0.227175
-0.225488
-0.223559
-0.22135
-0.218818
-0.215918
-0.21258
-0.20876
-0.204375
-0.199363
-0.193631
-0.187137
-0.17976
-0.17153
-0.162284
-0.152185
-0.141028
-0.129112
-0.116361
-0.102818
-0.0894096
-0.0742703
-0.0621918
-0.0446966
-0.0375385
-0.0153674
-0.0190115
0.0120655
-0.236795
-0.236814
-0.236798
-0.236743
-0.236645
-0.236499
-0.2363
-0.236044
-0.235725
-0.235336
-0.234872
-0.234323
-0.233683
-0.23294
-0.232083
-0.231099
-0.229971
-0.228681
-0.227206
-0.22552
-0.223592
-0.221384
-0.218854
-0.215955
-0.212616
-0.208803
-0.204421
-0.199413
-0.193684
-0.187193
-0.179821
-0.171595
-0.162351
-0.152256
-0.141101
-0.129188
-0.116436
-0.102897
-0.0894837
-0.0743502
-0.0622628
-0.0447765
-0.0376028
-0.0154504
-0.0190682
0.0119916
-0.236834
-0.236853
-0.236837
-0.236782
-0.236683
-0.236537
-0.236339
-0.236083
-0.235764
-0.235376
-0.234911
-0.234364
-0.233723
-0.232981
-0.232125
-0.231141
-0.230014
-0.228725
-0.227252
-0.225568
-0.223642
-0.221437
-0.21891
-0.216013
-0.212688
-0.208871
-0.204493
-0.19949
-0.193767
-0.187282
-0.179915
-0.171694
-0.162455
-0.152365
-0.141211
-0.129303
-0.116548
-0.103015
-0.0895936
-0.074468
-0.0623668
-0.044892
-0.037699
-0.0155703
-0.0191499
0.0118826
-0.236884
-0.236903
-0.236887
-0.236832
-0.236733
-0.236587
-0.236389
-0.236133
-0.235814
-0.235426
-0.234962
-0.234415
-0.233776
-0.233034
-0.232179
-0.231196
-0.230071
-0.228784
-0.227313
-0.225631
-0.223708
-0.221507
-0.218984
-0.216092
-0.212769
-0.208962
-0.204591
-0.199595
-0.193879
-0.187402
-0.180041
-0.171828
-0.162594
-0.15251
-0.141357
-0.129455
-0.116697
-0.10317
-0.0897382
-0.0746224
-0.0625023
-0.0450412
-0.0378274
-0.0157256
-0.0192551
0.0117394
-0.236945
-0.236964
-0.236948
-0.236892
-0.236794
-0.236647
-0.236449
-0.236193
-0.235875
-0.235487
-0.235024
-0.234478
-0.233839
-0.233099
-0.232245
-0.231264
-0.23014
-0.228855
-0.227387
-0.225709
-0.22379
-0.221593
-0.219076
-0.21619
-0.212875
-0.209075
-0.204713
-0.199726
-0.194018
-0.187551
-0.180198
-0.171994
-0.162766
-0.15269
-0.141539
-0.129644
-0.11688
-0.103361
-0.089916
-0.0748121
-0.0626688
-0.0452289
-0.0379804
-0.0159146
-0.0193818
0.0115632
-0.237017
-0.237035
-0.237018
-0.236962
-0.236864
-0.236717
-0.236519
-0.236264
-0.235946
-0.235559
-0.235096
-0.23455
-0.233913
-0.233174
-0.232321
-0.231343
-0.230221
-0.228939
-0.227474
-0.225801
-0.223886
-0.221695
-0.219185
-0.216305
-0.213007
-0.209209
-0.204856
-0.19988
-0.194183
-0.187727
-0.180384
-0.172191
-0.162969
-0.152902
-0.141753
-0.129866
-0.117096
-0.103586
-0.0901253
-0.0750354
-0.0628698
-0.0454493
-0.0381556
-0.0161356
-0.0195277
0.0113552
-0.237097
-0.237114
-0.237097
-0.237041
-0.236942
-0.236796
-0.236598
-0.236343
-0.236025
-0.235639
-0.235177
-0.234632
-0.233996
-0.233259
-0.232408
-0.231431
-0.230313
-0.229034
-0.227574
-0.225904
-0.223996
-0.221812
-0.219309
-0.216437
-0.213144
-0.209362
-0.205021
-0.200056
-0.194372
-0.187928
-0.180596
-0.172415
-0.163201
-0.153145
-0.141997
-0.130119
-0.117343
-0.103843
-0.0903643
-0.0752903
-0.0631079
-0.0456887
-0.0383585
-0.0163867
-0.0196901
0.011117
-0.237185
-0.237202
-0.237184
-0.237128
-0.237029
-0.236883
-0.236685
-0.23643
-0.236113
-0.235727
-0.235266
-0.234723
-0.234088
-0.233352
-0.232504
-0.23153
-0.230414
-0.229139
-0.227683
-0.226019
-0.224117
-0.22194
-0.219446
-0.216583
-0.2133
-0.209531
-0.205203
-0.200252
-0.194581
-0.188152
-0.180832
-0.172664
-0.163459
-0.153414
-0.142269
-0.130401
-0.117617
-0.104129
-0.0906306
-0.0755736
-0.0633449
-0.0459825
-0.0385863
-0.0166657
-0.0198662
0.0108502
-0.237279
-0.237296
-0.237278
-0.237221
-0.237122
-0.236976
-0.236778
-0.236524
-0.236207
-0.235822
-0.235362
-0.23482
-0.234187
-0.233453
-0.232607
-0.231636
-0.230524
-0.229253
-0.227802
-0.226144
-0.224249
-0.22208
-0.219595
-0.216742
-0.213472
-0.209716
-0.205401
-0.200466
-0.194809
-0.188395
-0.18109
-0.172936
-0.163741
-0.153708
-0.142566
-0.130709
-0.117917
-0.104442
-0.090922
-0.0758824
-0.063616
-0.0462938
-0.0388357
-0.0169702
-0.020053
0.0105567
-0.237395
-0.237376
-0.23732
-0.23722
-0.237074
-0.236877
-0.236623
-0.236307
-0.235923
-0.235464
-0.234923
-0.234292
-0.23356
-0.232717
-0.231749
-0.23064
-0.229374
-0.227928
-0.226277
-0.224389
-0.222229
-0.219753
-0.21691
-0.213654
-0.209913
-0.205613
-0.200694
-0.195053
-0.188656
-0.181365
-0.173227
-0.164042
-0.154024
-0.142884
-0.131039
-0.11824
-0.104778
-0.0912362
-0.0762192
-0.0639096
-0.0466244
-0.0391047
-0.0172979
-0.0202474
0.0102383
-0.237498
-0.237479
-0.237422
-0.237323
-0.237177
-0.23698
-0.236726
-0.236411
-0.236028
-0.235571
-0.235032
-0.234402
-0.233672
-0.232832
-0.231867
-0.230763
-0.229501
-0.228061
-0.226416
-0.224536
-0.222385
-0.21992
-0.217085
-0.213847
-0.21012
-0.205836
-0.200934
-0.19531
-0.188931
-0.181655
-0.173535
-0.164361
-0.154358
-0.143221
-0.13139
-0.118582
-0.105135
-0.0915701
-0.0765764
-0.0642243
-0.0469761
-0.0393911
-0.0176465
-0.0204465
0.00989699
-0.237604
-0.237585
-0.237527
-0.237428
-0.237282
-0.237086
-0.236833
-0.236519
-0.236137
-0.235681
-0.235143
-0.234516
-0.233789
-0.232951
-0.231989
-0.230889
-0.229633
-0.228198
-0.226561
-0.224689
-0.222547
-0.220093
-0.217281
-0.214046
-0.210336
-0.206068
-0.201183
-0.195577
-0.189217
-0.181958
-0.173855
-0.164693
-0.154706
-0.143573
-0.131756
-0.11894
-0.105509
-0.0919216
-0.0769512
-0.064557
-0.0473468
-0.0396927
-0.0180136
-0.0206475
0.00953481
-0.237711
-0.237691
-0.237634
-0.237535
-0.237389
-0.237193
-0.236941
-0.236628
-0.236247
-0.235793
-0.235257
-0.234632
-0.233907
-0.233072
-0.232115
-0.231019
-0.229768
-0.228339
-0.226709
-0.224845
-0.222713
-0.220269
-0.217477
-0.214251
-0.210556
-0.206306
-0.20144
-0.195852
-0.189511
-0.182269
-0.174186
-0.165036
-0.155066
-0.143938
-0.132137
-0.119313
-0.105899
-0.092288
-0.0773416
-0.0649051
-0.0477335
-0.0400073
-0.0183971
-0.0208476
0.00915376
-0.237817
-0.237797
-0.23774
-0.237641
-0.237497
-0.237301
-0.23705
-0.236738
-0.236359
-0.235906
-0.235372
-0.234749
-0.234027
-0.233195
-0.232241
-0.23115
-0.229904
-0.228481
-0.226858
-0.225004
-0.222882
-0.220445
-0.217666
-0.214459
-0.210781
-0.206547
-0.2017
-0.196131
-0.18981
-0.182586
-0.174523
-0.165387
-0.155435
-0.144311
-0.132527
-0.119696
-0.1063
-0.0926667
-0.0777447
-0.0652663
-0.0481336
-0.0403324
-0.0187947
-0.0210443
0.00875586
-0.237921
-0.237902
-0.237845
-0.237746
-0.237602
-0.237408
-0.237158
-0.236847
-0.236469
-0.236018
-0.235487
-0.234866
-0.234147
-0.233318
-0.232368
-0.231281
-0.230041
-0.228624
-0.227009
-0.225163
-0.22305
-0.220618
-0.217857
-0.214668
-0.211006
-0.20679
-0.201962
-0.196413
-0.190112
-0.182907
-0.174863
-0.165742
-0.155808
-0.144691
-0.132924
-0.120087
-0.106709
-0.0930551
-0.0781579
-0.0656384
-0.0485448
-0.0406658
-0.0192044
-0.0212354
0.00834307
-0.238022
-0.238003
-0.237946
-0.237849
-0.237705
-0.237512
-0.237263
-0.236954
-0.236578
-0.236129
-0.2356
-0.234982
-0.234265
-0.23344
-0.232494
-0.231412
-0.230176
-0.228766
-0.227158
-0.22532
-0.223218
-0.220819
-0.218049
-0.214875
-0.21123
-0.207032
-0.202224
-0.196693
-0.190414
-0.183227
-0.175205
-0.166098
-0.156184
-0.145074
-0.133325
-0.120483
-0.107125
-0.0934508
-0.0785784
-0.0660191
-0.0489645
-0.0410052
-0.0196243
-0.0214188
0.00791732
-0.238118
-0.238099
-0.238043
-0.237947
-0.237804
-0.237612
-0.237365
-0.237058
-0.236684
-0.236237
-0.23571
-0.235094
-0.234381
-0.23356
-0.232617
-0.231539
-0.230309
-0.228905
-0.227304
-0.225476
-0.223379
-0.220994
-0.218239
-0.215079
-0.211451
-0.207271
-0.202482
-0.196971
-0.190713
-0.183545
-0.175545
-0.166453
-0.15656
-0.145457
-0.133727
-0.120882
-0.107544
-0.0938514
-0.0790037
-0.0664063
-0.0493905
-0.0413484
-0.0200524
-0.0215929
0.00748045
-0.238208
-0.23819
-0.238135
-0.238039
-0.237898
-0.237708
-0.237462
-0.237157
-0.236785
-0.23634
-0.235816
-0.235203
-0.234493
-0.233675
-0.232737
-0.231663
-0.230438
-0.229041
-0.227447
-0.225627
-0.223533
-0.221161
-0.218424
-0.215279
-0.211666
-0.207504
-0.202734
-0.197244
-0.191006
-0.183859
-0.17588
-0.166804
-0.156932
-0.145837
-0.134128
-0.12128
-0.107963
-0.0942544
-0.0794313
-0.0667977
-0.0498206
-0.0416932
-0.020487
-0.021756
0.00703422
-0.23829
-0.238272
-0.238218
-0.238124
-0.237985
-0.237796
-0.237553
-0.237249
-0.23688
-0.236438
-0.235917
-0.235307
-0.2346
-0.233786
-0.232851
-0.231782
-0.230563
-0.229171
-0.227584
-0.225773
-0.223707
-0.221326
-0.218602
-0.215471
-0.211875
-0.20773
-0.20298
-0.197508
-0.191293
-0.184164
-0.176207
-0.167148
-0.157298
-0.146213
-0.134525
-0.121676
-0.10838
-0.0946577
-0.0798589
-0.0671913
-0.0502528
-0.0420376
-0.0209265
-0.021907
0.0065803
-0.238362
-0.238346
-0.238293
-0.238201
-0.238064
-0.237877
-0.237636
-0.237335
-0.236968
-0.236529
-0.236011
-0.235404
-0.234701
-0.23389
-0.23296
-0.231895
-0.230681
-0.229295
-0.227715
-0.225904
-0.223854
-0.221484
-0.218773
-0.215656
-0.212075
-0.207947
-0.203216
-0.197763
-0.191569
-0.18446
-0.176526
-0.167483
-0.157655
-0.146581
-0.134914
-0.122067
-0.108792
-0.0950591
-0.0802842
-0.0675851
-0.0506852
-0.0423796
-0.0213694
-0.0220448
0.00612024
-0.238409
-0.238358
-0.238268
-0.238133
-0.237949
-0.23771
-0.237412
-0.237048
-0.236612
-0.236097
-0.235494
-0.234794
-0.233987
-0.233061
-0.232001
-0.230791
-0.229411
-0.227837
-0.22602
-0.223988
-0.221633
-0.218934
-0.21583
-0.212265
-0.208153
-0.20344
-0.198006
-0.191834
-0.184744
-0.176832
-0.167807
-0.158002
-0.146939
-0.135295
-0.122451
-0.109198
-0.0954567
-0.0807051
-0.0679771
-0.0511159
-0.0427173
-0.0218142
-0.0221685
0.0056555
-0.23846
-0.238411
-0.238323
-0.238191
-0.23801
-0.237775
-0.23748
-0.237119
-0.236686
-0.236174
-0.235575
-0.234879
-0.234075
-0.233153
-0.232098
-0.230893
-0.229519
-0.227947
-0.226181
-0.224116
-0.221772
-0.219085
-0.215993
-0.212443
-0.208347
-0.203652
-0.198237
-0.192085
-0.185014
-0.177125
-0.168118
-0.158335
-0.147286
-0.135664
-0.122826
-0.109594
-0.0958485
-0.0811197
-0.0683656
-0.0515432
-0.043049
-0.0222595
-0.0222776
0.00518742
-0.238497
-0.238452
-0.238367
-0.238237
-0.238059
-0.237827
-0.237536
-0.237179
-0.23675
-0.236241
-0.235646
-0.234953
-0.234154
-0.233236
-0.232185
-0.230985
-0.229616
-0.228044
-0.226276
-0.224233
-0.2219
-0.219223
-0.216144
-0.212607
-0.208526
-0.203849
-0.198452
-0.19232
-0.185269
-0.177403
-0.168413
-0.158654
-0.147619
-0.136021
-0.12319
-0.10998
-0.0962328
-0.081526
-0.0687488
-0.0519656
-0.0433732
-0.0227042
-0.0223716
0.00471722
-0.23852
-0.238478
-0.238396
-0.23827
-0.238096
-0.237868
-0.23758
-0.237227
-0.236802
-0.236297
-0.235705
-0.235017
-0.234222
-0.233308
-0.232261
-0.231066
-0.229701
-0.228154
-0.226368
-0.22434
-0.222015
-0.219348
-0.21628
-0.212757
-0.208691
-0.20403
-0.19865
-0.192539
-0.185507
-0.177662
-0.168692
-0.158956
-0.147937
-0.136362
-0.123541
-0.110353
-0.096608
-0.0819225
-0.069125
-0.0523816
-0.0436883
-0.023147
-0.0224502
0.004246
-0.238527
-0.238488
-0.23841
-0.238288
-0.238118
-0.237894
-0.23761
-0.237262
-0.236841
-0.23634
-0.235753
-0.235068
-0.234277
-0.233368
-0.232325
-0.231136
-0.229771
-0.228232
-0.226454
-0.224432
-0.222115
-0.219458
-0.216402
-0.212891
-0.208838
-0.204194
-0.198831
-0.192739
-0.185726
-0.177903
-0.168952
-0.15924
-0.148238
-0.136686
-0.123879
-0.110712
-0.0969724
-0.0823075
-0.0694928
-0.05279
-0.043993
-0.0235868
-0.0225133
0.00377477
-0.238516
-0.238481
-0.238407
-0.23829
-0.238124
-0.237905
-0.237626
-0.237282
-0.236865
-0.23637
-0.235786
-0.235106
-0.234319
-0.233415
-0.232376
-0.231191
-0.229836
-0.228293
-0.226526
-0.224511
-0.222201
-0.219553
-0.216506
-0.213007
-0.208968
-0.204339
-0.198992
-0.192919
-0.185924
-0.178124
-0.169192
-0.159504
-0.14852
-0.136992
-0.1242
-0.111054
-0.0973246
-0.0826796
-0.0698506
-0.0531894
-0.0442862
-0.0240226
-0.0225608
0.00330438
-0.238486
-0.238455
-0.238386
-0.238274
-0.238114
-0.237899
-0.237625
-0.237286
-0.236874
-0.236384
-0.235805
-0.23513
-0.234347
-0.233447
-0.232413
-0.231228
-0.22989
-0.228343
-0.226583
-0.224573
-0.22227
-0.219631
-0.216593
-0.213105
-0.209078
-0.204464
-0.199132
-0.193078
-0.186101
-0.178323
-0.169411
-0.159747
-0.148782
-0.137278
-0.124505
-0.11138
-0.0976634
-0.0830376
-0.0701973
-0.0535787
-0.0445669
-0.0244534
-0.0225929
0.00283562
-0.23841
-0.238346
-0.238239
-0.238084
-0.237875
-0.237607
-0.237273
-0.236867
-0.236381
-0.235807
-0.235137
-0.234359
-0.233463
-0.232434
-0.231248
-0.229915
-0.228377
-0.226623
-0.224618
-0.222322
-0.21969
-0.216661
-0.213184
-0.209168
-0.204568
-0.199251
-0.193214
-0.186256
-0.178499
-0.169607
-0.159967
-0.149024
-0.137543
-0.124791
-0.111686
-0.0979874
-0.0833801
-0.0705316
-0.0539569
-0.044834
-0.0248781
-0.0226097
0.00236913
-0.238342
-0.238285
-0.238184
-0.238035
-0.237832
-0.23757
-0.237242
-0.236841
-0.236361
-0.235792
-0.235127
-0.234354
-0.233463
-0.232432
-0.231278
-0.229925
-0.228394
-0.226645
-0.224646
-0.222355
-0.21973
-0.216709
-0.213241
-0.209237
-0.204649
-0.199347
-0.193327
-0.186386
-0.178651
-0.169779
-0.160163
-0.149243
-0.137786
-0.125058
-0.111973
-0.0982956
-0.0837062
-0.0708525
-0.0543231
-0.045087
-0.0252961
-0.0226115
0.00190547
-0.238251
-0.2382
-0.238106
-0.237964
-0.237768
-0.237512
-0.23719
-0.236796
-0.236321
-0.235758
-0.235098
-0.23433
-0.233444
-0.232405
-0.231259
-0.229918
-0.228393
-0.226648
-0.224653
-0.222369
-0.21975
-0.216736
-0.213277
-0.209283
-0.204707
-0.199418
-0.193416
-0.186492
-0.178777
-0.169927
-0.160335
-0.149439
-0.138006
-0.125305
-0.112239
-0.098587
-0.0840149
-0.0711588
-0.0546764
-0.0453251
-0.0257064
-0.0225985
0.00144507
-0.238135
-0.238092
-0.238005
-0.23787
-0.237681
-0.237432
-0.237117
-0.236729
-0.236261
-0.235703
-0.235049
-0.234286
-0.233405
-0.232409
-0.231225
-0.229893
-0.228371
-0.22663
-0.224641
-0.222361
-0.219748
-0.216741
-0.21329
-0.209305
-0.204741
-0.199465
-0.193479
-0.186572
-0.178878
-0.170049
-0.160481
-0.149611
-0.138201
-0.125531
-0.112483
-0.0988607
-0.0843054
-0.0714499
-0.055016
-0.0455478
-0.0261082
-0.0225713
0.000988285
-0.237993
-0.237957
-0.237878
-0.237751
-0.237569
-0.237328
-0.23702
-0.236639
-0.236178
-0.235627
-0.234978
-0.23422
-0.23334
-0.232342
-0.231173
-0.229846
-0.228328
-0.226592
-0.224606
-0.222331
-0.219723
-0.216722
-0.213279
-0.209302
-0.20475
-0.199486
-0.193515
-0.186626
-0.178952
-0.170145
-0.160601
-0.149758
-0.138372
-0.125735
-0.112705
-0.0991159
-0.084577
-0.0717249
-0.0553413
-0.0457549
-0.0265009
-0.0225303
0.000535356
-0.237821
-0.237794
-0.237723
-0.237605
-0.237432
-0.237198
-0.236899
-0.236525
-0.236071
-0.235526
-0.234883
-0.234132
-0.233256
-0.232257
-0.2311
-0.229777
-0.228263
-0.22653
-0.224548
-0.222277
-0.219674
-0.216679
-0.213243
-0.209274
-0.204732
-0.19948
-0.193525
-0.186652
-0.178998
-0.170214
-0.160693
-0.14988
-0.138517
-0.125917
-0.112905
-0.0993521
-0.0848293
-0.0719833
-0.0556517
-0.045946
-0.0268838
-0.0224759
8.63906e-05
-0.2376
-0.237539
-0.23743
-0.237266
-0.237041
-0.23675
-0.236385
-0.235938
-0.235401
-0.234764
-0.234019
-0.233166
-0.232154
-0.231003
-0.229684
-0.228173
-0.226445
-0.224467
-0.222199
-0.219601
-0.216611
-0.21318
-0.20922
-0.204687
-0.199447
-0.193506
-0.18665
-0.179016
-0.170255
-0.160758
-0.149976
-0.138636
-0.126075
-0.11308
-0.0995682
-0.0850612
-0.0722242
-0.0559466
-0.0461206
-0.0272563
-0.0224082
-0.000358636
-0.237374
-0.237324
-0.237225
-0.237071
-0.236856
-0.236574
-0.236217
-0.235779
-0.235249
-0.23462
-0.233873
-0.233027
-0.232027
-0.230881
-0.229566
-0.228059
-0.226334
-0.224359
-0.222095
-0.219501
-0.216515
-0.213091
-0.209137
-0.204614
-0.199385
-0.193458
-0.186618
-0.179004
-0.170267
-0.160794
-0.150044
-0.138727
-0.126208
-0.113229
-0.0997623
-0.0852715
-0.0724459
-0.0562247
-0.046278
-0.0276176
-0.0223275
-0.000799569
-0.237117
-0.237078
-0.236989
-0.236846
-0.236641
-0.236368
-0.23602
-0.235591
-0.235069
-0.234447
-0.233694
-0.232862
-0.231872
-0.230731
-0.22942
-0.227917
-0.226195
-0.224224
-0.221963
-0.219372
-0.216391
-0.212972
-0.209024
-0.20451
-0.199292
-0.193379
-0.186556
-0.178962
-0.170249
-0.160799
-0.150084
-0.13879
-0.126316
-0.113355
-0.099936
-0.0854608
-0.0726504
-0.0564858
-0.0464208
-0.0279657
-0.0222372
-0.00123541
-0.236822
-0.236794
-0.236716
-0.236584
-0.236389
-0.236126
-0.235789
-0.235368
-0.234855
-0.234242
-0.233539
-0.232669
-0.231686
-0.23055
-0.229244
-0.227745
-0.226027
-0.22406
-0.221803
-0.219217
-0.21624
-0.212827
-0.208887
-0.204383
-0.199176
-0.193279
-0.186474
-0.178901
-0.170215
-0.16079
-0.150112
-0.138842
-0.126416
-0.113469
-0.100103
-0.0856397
-0.0728502
-0.0567353
-0.0465597
-0.0283004
-0.0221452
-0.0016657
-0.236462
-0.236449
-0.236387
-0.236268
-0.236088
-0.235838
-0.235513
-0.235105
-0.234603
-0.233995
-0.233289
-0.232445
-0.231472
-0.230344
-0.229045
-0.227553
-0.225841
-0.223879
-0.221628
-0.219048
-0.216077
-0.212673
-0.208742
-0.204249
-0.199056
-0.193175
-0.186391
-0.178841
-0.170182
-0.160784
-0.150144
-0.138896
-0.12652
-0.113586
-0.100274
-0.0858188
-0.0730493
-0.0569833
-0.046692
-0.0286335
-0.0220418
-0.00209928
-0.236052
-0.236063
-0.236022
-0.235924
-0.235763
-0.235532
-0.235224
-0.234832
-0.234345
-0.233746
-0.233046
-0.232221
-0.231257
-0.230138
-0.228845
-0.227358
-0.22565
-0.223691
-0.221442
-0.218863
-0.215894
-0.212491
-0.208562
-0.204072
-0.198885
-0.193011
-0.186239
-0.1787
-0.170065
-0.160681
-0.150079
-0.138847
-0.126523
-0.113606
-0.100343
-0.085926
-0.0731478
-0.0572014
-0.0467241
-0.0289848
-0.021847
-0.00256051
-0.235624
-0.235602
-0.235522
-0.235377
-0.23516
-0.234864
-0.234485
-0.234017
-0.233468
-0.232734
-0.231896
-0.230927
-0.229802
-0.228503
-0.227008
-0.225289
-0.223318
-0.221053
-0.218457
-0.21547
-0.212045
-0.208098
-0.203586
-0.198386
-0.192493
-0.185721
-0.178171
-0.169563
-0.160179
-0.14964
-0.138426
-0.126195
-0.113333
-0.100146
-0.085878
-0.0730273
-0.0574545
-0.0465253
-0.0295775
-0.0213343
-0.00334828
-0.234318
-0.234323
-0.234266
-0.234141
-0.233941
-0.233658
-0.233286
-0.23281
-0.232207
-0.231539
-0.230713
-0.229741
-0.228609
-0.227299
-0.225787
-0.224048
-0.222052
-0.21976
-0.217133
-0.214114
-0.210657
-0.20668
-0.202142
-0.196924
-0.191019
-0.184259
-0.176724
-0.168174
-0.15884
-0.148423
-0.137294
-0.125244
-0.112511
-0.0995113
-0.0854562
-0.072656
-0.0574948
-0.0462201
-0.0300776
-0.0208034
-0.00417328
-0.232598
-0.232639
-0.232614
-0.232517
-0.232341
-0.23208
-0.231724
-0.231264
-0.230697
-0.230011
-0.229183
-0.228206
-0.227066
-0.225743
-0.224215
-0.222455
-0.220434
-0.218113
-0.215455
-0.212403
-0.208914
-0.204907
-0.200343
-0.19511
-0.1892
-0.182456
-0.174947
-0.166465
-0.157198
-0.146914
-0.135898
-0.124042
-0.11147
-0.0986716
-0.0848582
-0.0721364
-0.0573857
-0.0458454
-0.0304248
-0.0203422
-0.00481509
-0.230433
-0.230524
-0.230544
-0.230488
-0.230348
-0.230118
-0.22979
-0.229355
-0.228807
-0.228128
-0.227307
-0.226333
-0.225192
-0.223861
-0.222322
-0.220545
-0.218503
-0.216158
-0.213473
-0.210392
-0.206874
-0.202842
-0.198258
-0.193017
-0.187107
-0.180389
-0.172916
-0.164512
-0.155327
-0.145186
-0.134301
-0.122645
-0.110263
-0.0976676
-0.0841277
-0.0714882
-0.0571653
-0.0453992
-0.0306591
-0.0199177
-0.00531343
-0.227736
-0.227892
-0.227971
-0.227969
-0.227878
-0.227691
-0.227401
-0.226999
-0.226475
-0.225818
-0.225015
-0.224053
-0.222917
-0.221587
-0.220043
-0.218256
-0.2162
-0.213836
-0.21113
-0.208028
-0.204489
-0.20044
-0.195845
-0.190605
-0.184707
-0.178026
-0.170603
-0.16229
-0.153204
-0.14322
-0.13249
-0.121045
-0.10888
-0.0964947
-0.0832553
-0.0707134
-0.0568234
-0.0448879
-0.0307735
-0.0195255
-0.00568784
-0.224466
-0.224699
-0.22485
-0.224914
-0.224884
-0.224752
-0.224511
-0.224152
-0.223665
-0.22304
-0.222264
-0.221321
-0.2202
-0.218879
-0.217338
-0.21555
-0.213487
-0.211114
-0.208396
-0.205281
-0.201731
-0.197676
-0.193081
-0.187855
-0.181983
-0.175355
-0.167997
-0.159792
-0.150826
-0.141013
-0.130464
-0.11924
-0.107321
-0.0951565
-0.0822397
-0.0698179
-0.0563576
-0.0443177
-0.0307685
-0.0191609
-0.00595629
-0.22063
-0.220949
-0.221181
-0.22132
-0.221359
-0.221292
-0.221109
-0.220803
-0.220363
-0.219779
-0.219039
-0.218125
-0.217027
-0.215724
-0.214196
-0.212416
-0.210357
-0.207984
-0.205264
-0.202148
-0.198599
-0.19455
-0.18997
-0.184772
-0.178943
-0.172382
-0.165111
-0.15703
-0.148205
-0.138579
-0.128235
-0.117245
-0.105596
-0.0936652
-0.0810877
-0.0688122
-0.0557725
-0.0436946
-0.0306521
-0.0188172
-0.00613648
-0.216276
-0.216684
-0.217001
-0.21722
-0.217334
-0.217336
-0.217218
-0.216971
-0.216585
-0.21605
-0.215354
-0.214477
-0.21341
-0.212134
-0.210628
-0.208865
-0.20682
-0.204458
-0.201748
-0.198643
-0.195108
-0.19108
-0.186528
-0.181376
-0.175606
-0.169131
-0.161964
-0.154024
-0.145363
-0.135938
-0.125822
-0.115079
-0.10372
-0.0920368
-0.0798094
-0.0677084
-0.0550759
-0.0430241
-0.0304348
-0.0184874
-0.00624461
-0.211486
-0.21198
-0.21238
-0.212678
-0.212867
-0.21294
-0.212889
-0.212704
-0.212376
-0.211892
-0.211242
-0.210414
-0.209385
-0.208142
-0.206665
-0.204928
-0.202906
-0.200566
-0.197878
-0.194796
-0.191287
-0.187295
-0.182788
-0.177696
-0.172003
-0.16563
-0.158587
-0.150804
-0.142326
-0.133117
-0.123247
-0.112763
-0.101711
-0.0902898
-0.0784178
-0.0665196
-0.0542786
-0.0423117
-0.0301292
-0.018165
-0.00629482
-0.206354
-0.206929
-0.207406
-0.207778
-0.208039
-0.208181
-0.208194
-0.208071
-0.207801
-0.207371
-0.206773
-0.205991
-0.205004
-0.2038
-0.202359
-0.200655
-0.198665
-0.196355
-0.193698
-0.190651
-0.187183
-0.183239
-0.178791
-0.173775
-0.168174
-0.161919
-0.155017
-0.147406
-0.139127
-0.130146
-0.120538
-0.110325
-0.099589
-0.0884439
-0.076928
-0.0652588
-0.0533928
-0.0415625
-0.029748
-0.0178449
-0.00629901
-0.200973
-0.20162
-0.202168
-0.202609
-0.202936
-0.203141
-0.203216
-0.203152
-0.202937
-0.202561
-0.202013
-0.201278
-0.200336
-0.199174
-0.197773
-0.196107
-0.194154
-0.191883
-0.189266
-0.186264
-0.182846
-0.178962
-0.174587
-0.16966
-0.164165
-0.158041
-0.151294
-0.143867
-0.135801
-0.127059
-0.117723
-0.107789
-0.0973759
-0.0865189
-0.0753562
-0.063939
-0.0524318
-0.0407812
-0.0293041
-0.017523
-0.00626692
-0.195425
-0.196137
-0.196749
-0.197251
-0.197638
-0.197902
-0.198033
-0.198023
-0.197861
-0.197535
-0.197034
-0.196343
-0.195451
-0.194333
-0.192973
-0.191349
-0.189438
-0.187211
-0.184642
-0.181692
-0.178333
-0.17452
-0.170227
-0.1654
-0.160024
-0.154041
-0.147461
-0.140226
-0.132384
-0.123887
-0.11483
-0.105182
-0.0950929
-0.0845334
-0.0737185
-0.062572
-0.0514087
-0.0399722
-0.028809
-0.0171966
-0.00620644
-0.189773
-0.190544
-0.191213
-0.191771
-0.192213
-0.19253
-0.192712
-0.192752
-0.192639
-0.192361
-0.191906
-0.191261
-0.190412
-0.189338
-0.188021
-0.186441
-0.184576
-0.182398
-0.179881
-0.17699
-0.173698
-0.169963
-0.165761
-0.161042
-0.155793
-0.14996
-0.143554
-0.13652
-0.128906
-0.12066
-0.111885
-0.102526
-0.0927595
-0.0825041
-0.0720298
-0.0611682
-0.0503358
-0.0391397
-0.0282729
-0.0168638
-0.0061239
-0.184065
-0.18489
-0.185611
-0.18622
-0.186712
-0.187077
-0.187307
-0.187393
-0.187326
-0.187092
-0.186682
-0.18608
-0.185274
-0.184244
-0.182972
-0.181437
-0.179621
-0.177494
-0.175034
-0.172206
-0.168988
-0.165336
-0.161232
-0.156627
-0.151512
-0.145835
-0.139608
-0.132778
-0.125395
-0.117402
-0.108909
-0.0998416
-0.090393
-0.0804451
-0.0703034
-0.0597365
-0.0492237
-0.0382873
-0.0277045
-0.0165239
-0.00602433
-0.178332
-0.179207
-0.179977
-0.180634
-0.181171
-0.181582
-0.181857
-0.181987
-0.181962
-0.181771
-0.181403
-0.180844
-0.18008
-0.179093
-0.177866
-0.176379
-0.174613
-0.172541
-0.170141
-0.167381
-0.164239
-0.160676
-0.156674
-0.152188
-0.147211
-0.141693
-0.135649
-0.129025
-0.121875
-0.114135
-0.10592
-0.0971437
-0.0880075
-0.0783681
-0.0685507
-0.0582843
-0.0480817
-0.0374182
-0.0271108
-0.0161766
-0.00591174
-0.172599
-0.173521
-0.174335
-0.175037
-0.175618
-0.176071
-0.176388
-0.17656
-0.176576
-0.176427
-0.176101
-0.175583
-0.174861
-0.173918
-0.172737
-0.171299
-0.169584
-0.167569
-0.165232
-0.162543
-0.159481
-0.156011
-0.152115
-0.147751
-0.142915
-0.137559
-0.131699
-0.125281
-0.118361
-0.110873
-0.102932
-0.0944447
-0.0856143
-0.0762822
-0.0667809
-0.0568179
-0.0469174
-0.0365354
-0.0264977
-0.0158221
-0.00578933
-0.166881
-0.167846
-0.168704
-0.169447
-0.170069
-0.170563
-0.170921
-0.171133
-0.171189
-0.17108
-0.170794
-0.170318
-0.169639
-0.16874
-0.167606
-0.166218
-0.164557
-0.162601
-0.160329
-0.157713
-0.154735
-0.15136
-0.147573
-0.143334
-0.138641
-0.133447
-0.12777
-0.121558
-0.114867
-0.107628
-0.0999568
-0.0917539
-0.0832221
-0.0741943
-0.0650013
-0.0553419
-0.045737
-0.0356414
-0.0258695
-0.0154607
-0.00565959
-0.16119
-0.162196
-0.163094
-0.163877
-0.164538
-0.165071
-0.165468
-0.165718
-0.165815
-0.165745
-0.1655
-0.165065
-0.164429
-0.163575
-0.162489
-0.161152
-0.159547
-0.157651
-0.155447
-0.152908
-0.150015
-0.146737
-0.143061
-0.138949
-0.1344
-0.129369
-0.123875
-0.117868
-0.111401
-0.104408
-0.0970005
-0.0890777
-0.0808373
-0.0721098
-0.0632177
-0.0538603
-0.0445453
-0.0347385
-0.0252299
-0.0150933
-0.00552449
-0.155536
-0.15658
-0.157515
-0.158336
-0.159035
-0.159605
-0.160039
-0.160328
-0.160462
-0.160432
-0.160227
-0.159834
-0.159241
-0.158433
-0.157396
-0.156112
-0.154564
-0.152731
-0.150597
-0.148136
-0.145331
-0.142153
-0.138589
-0.134606
-0.1302
-0.125332
-0.12002
-0.114215
-0.10797
-0.101218
-0.0940689
-0.086421
-0.0784649
-0.0700326
-0.0614347
-0.0523764
-0.0433464
-0.0338289
-0.0245817
-0.0147206
-0.00538555
-0.149927
-0.151006
-0.151976
-0.152832
-0.153567
-0.154173
-0.154643
-0.154968
-0.155141
-0.155149
-0.154984
-0.154633
-0.154084
-0.153323
-0.152336
-0.151105
-0.149616
-0.147849
-0.145786
-0.143405
-0.14069
-0.137613
-0.134164
-0.130308
-0.126047
-0.121341
-0.11621
-0.110604
-0.104577
-0.0980627
-0.0911657
-0.0837872
-0.0761086
-0.0679661
-0.0596558
-0.0508929
-0.0421435
-0.0329144
-0.0239274
-0.0143435
-0.00524395
-0.144373
-0.145483
-0.146486
-0.147374
-0.148142
-0.148782
-0.149286
-0.149648
-0.149857
-0.149904
-0.149779
-0.14947
-0.148965
-0.148251
-0.147315
-0.146139
-0.144711
-0.143009
-0.14102
-0.138721
-0.136097
-0.133123
-0.129788
-0.126062
-0.121945
-0.1174
-0.112447
-0.107039
-0.101225
-0.0949441
-0.0882938
-0.0811789
-0.0737714
-0.0659129
-0.0578841
-0.0494123
-0.0409394
-0.0319968
-0.023269
-0.0139628
-0.00510059
-0.138881
-0.14002
-0.141051
-0.141969
-0.142768
-0.14344
-0.143977
-0.144373
-0.144618
-0.144702
-0.144616
-0.144349
-0.143889
-0.143223
-0.142338
-0.141219
-0.139852
-0.138218
-0.136304
-0.134088
-0.131557
-0.128686
-0.125466
-0.12187
-0.117896
-0.113512
-0.108735
-0.103521
-0.0979172
-0.0918645
-0.0854555
-0.0785985
-0.0714556
-0.0638753
-0.0561222
-0.0479368
-0.0397365
-0.0310781
-0.0226081
-0.0135795
-0.00495619
-0.13346
-0.134623
-0.13568
-0.136625
-0.137452
-0.138153
-0.138722
-0.139151
-0.13943
-0.139551
-0.139504
-0.139278
-0.138863
-0.138245
-0.137412
-0.13635
-0.135045
-0.13348
-0.131641
-0.129509
-0.127071
-0.124305
-0.121201
-0.117734
-0.113904
-0.109678
-0.105075
-0.100052
-0.0946547
-0.0888258
-0.0826527
-0.0760479
-0.0691636
-0.0618556
-0.0543725
-0.0464686
-0.038537
-0.0301598
-0.0219465
-0.0131944
-0.00481131
-0.128118
-0.129302
-0.130381
-0.13135
-0.132202
-0.13293
-0.133528
-0.133988
-0.1343
-0.134457
-0.134448
-0.134263
-0.133892
-0.133322
-0.132542
-0.131537
-0.130295
-0.128799
-0.127037
-0.124989
-0.122646
-0.119984
-0.116996
-0.113657
-0.109969
-0.105901
-0.101469
-0.0966344
-0.0914394
-0.0858298
-0.0798873
-0.073529
-0.0668973
-0.0598556
-0.0526371
-0.0450098
-0.037343
-0.0292436
-0.0212854
-0.0128084
-0.0046664
-0.122863
-0.124063
-0.125161
-0.12615
-0.127025
-0.127778
-0.128402
-0.128891
-0.129235
-0.129425
-0.129454
-0.129309
-0.128982
-0.12846
-0.127732
-0.126784
-0.125605
-0.124179
-0.122494
-0.120532
-0.118282
-0.115725
-0.112853
-0.109643
-0.106095
-0.102182
-0.0979193
-0.0932699
-0.0882731
-0.082878
-0.077161
-0.0710435
-0.0646588
-0.0578774
-0.0509182
-0.0435621
-0.0361563
-0.0283311
-0.0206264
-0.0124225
-0.00452184
-0.117702
-0.118914
-0.120027
-0.121033
-0.121927
-0.122702
-0.123351
-0.123867
-0.12424
-0.124464
-0.124528
-0.124423
-0.124138
-0.123664
-0.122988
-0.122098
-0.120982
-0.119626
-0.118017
-0.116141
-0.113985
-0.111532
-0.108775
-0.105692
-0.102284
-0.0985244
-0.0944278
-0.08996
-0.0851576
-0.0799723
-0.0744757
-0.0685933
-0.0624498
-0.055923
-0.0492176
-0.0421277
-0.0349788
-0.027424
-0.0199705
-0.0120374
-0.00437796
-0.112641
-0.113862
-0.114986
-0.116006
-0.116917
-0.117711
-0.118382
-0.118922
-0.119323
-0.119577
-0.119676
-0.119609
-0.119367
-0.118939
-0.118315
-0.117482
-0.116429
-0.115142
-0.113611
-0.111819
-0.109757
-0.107408
-0.104765
-0.101808
-0.0985378
-0.0949293
-0.0909962
-0.0867065
-0.0820944
-0.0771144
-0.0718331
-0.0661803
-0.0602724
-0.0539943
-0.0475375
-0.0407084
-0.0338122
-0.0265237
-0.019319
-0.0116539
-0.00423506
-0.107688
-0.108914
-0.110045
-0.111075
-0.111999
-0.11281
-0.1135
-0.114062
-0.11449
-0.114773
-0.114905
-0.114875
-0.114674
-0.114292
-0.113718
-0.112941
-0.111951
-0.110733
-0.109278
-0.107571