/*--------------------------------*- C++ -*----------------------------------*\
  =========                 |
  \\      /  F ield         | OpenFOAM: The Open Source CFD Toolbox
   \\    /   O peration     | Website:  https://openfoam.org
    \\  /    A nd           | Version:  7
     \\/     M anipulation  |
\*---------------------------------------------------------------------------*/
FoamFile
{
    version     2.0;
    format      ascii;
    class       volScalarField;
    location    "70";
    object      p;
}
// * * * * * * * * * * * * * * * * * * * * * * * * * * * * * * * * * * * * * //

dimensions      [0 2 -2 0 0 0 0];

internalField   nonuniform List<scalar> 
8500
(
0.0802175
0.0833681
0.0911191
0.0869215
0.0948809
0.102072
0.0912224
0.0990577
0.106457
0.113045
0.104058
0.111266
0.118078
0.124007
0.109139
0.116967
0.123535
0.129738
0.134937
0.114297
0.122816
0.129935
0.135862
0.141434
0.145771
0.128785
0.136554
0.142953
0.148259
0.153141
0.156262
0.134869
0.143333
0.150338
0.156025
0.160742
0.16476
0.166067
0.150261
0.157921
0.164158
0.169155
0.173288
0.176175
0.175498
0.157298
0.16568
0.172529
0.177999
0.182322
0.185801
0.187288
0.186673
0.16439
0.17359
0.181106
0.187136
0.19184
0.195475
0.198254
0.198872
0.198628
0.181601
0.189873
0.196514
0.20172
0.205656
0.208586
0.210651
0.210596
0.210321
0.189647
0.198784
0.20612
0.21188
0.216258
0.219424
0.221639
0.222999
0.222354
0.221853
0.207774
0.215911
0.222305
0.22718
0.230728
0.233121
0.234613
0.235277
0.234062
0.233222
0.225822
0.232955
0.238405
0.242392
0.245107
0.246723
0.247489
0.247462
0.245674
0.244419
0.235776
0.243762
0.249888
0.254392
0.25749
0.259372
0.260211
0.260248
0.25953
0.257162
0.255442
0.254646
0.261564
0.266684
0.270241
0.272451
0.273501
0.273562
0.272869
0.271462
0.268506
0.266286
0.265531
0.273348
0.279199
0.283315
0.285928
0.287252
0.287472
0.286756
0.285335
0.283238
0.279689
0.276946
0.285156
0.291849
0.296638
0.299754
0.301427
0.30187
0.301263
0.299774
0.297626
0.294842
0.290698
0.287415
0.296937
0.304544
0.310119
0.313851
0.315974
0.316714
0.316281
0.314854
0.312596
0.309725
0.306258
0.30152
0.297686
0.317219
0.323661
0.328126
0.330812
0.331949
0.331765
0.330464
0.328223
0.325203
0.321615
0.31747
0.312142
0.30775
0.337187
0.342473
0.345841
0.34749
0.347654
0.346555
0.344396
0.341351
0.337578
0.33328
0.328464
0.322552
0.317598
0.350702
0.356806
0.36095
0.363232
0.363859
0.363062
0.361061
0.358056
0.354217
0.349701
0.344702
0.339225
0.332736
0.32722
0.371105
0.376039
0.379057
0.380272
0.379892
0.378148
0.37526
0.371422
0.366803
0.361555
0.355866
0.349738
0.342683
0.336606
0.391072
0.394854
0.396765
0.39693
0.395561
0.392889
0.389129
0.384474
0.379088
0.373122
0.366757
0.359991
0.352379
0.345746
0.406161
0.410566
0.413216
0.414041
0.413178
0.410841
0.407259
0.402646
0.397192
0.391056
0.384386
0.377358
0.369968
0.361813
0.354629
0.426274
0.429551
0.431094
0.430858
0.428989
0.425706
0.421236
0.41579
0.409554
0.402686
0.39533
0.387654
0.379657
0.370972
0.363245
0.445818
0.447993
0.448455
0.447184
0.444336
0.440132
0.434797
0.42854
0.421543
0.413962
0.405938
0.397632
0.389043
0.379843
0.371582
0.464759
0.465859
0.46527
0.462992
0.459193
0.454093
0.447919
0.440874
0.433139
0.424866
0.416194
0.407276
0.398114
0.388415
0.379631
0.481629
0.483059
0.483117
0.481507
0.478255
0.473534
0.467568
0.460581
0.452774
0.444325
0.435382
0.426082
0.416572
0.406856
0.396676
0.387382
0.50025
0.500687
0.499735
0.497139
0.492945
0.487335
0.480534
0.472762
0.46422
0.455081
0.445493
0.435588
0.425507
0.415258
0.404614
0.394824
0.51813
0.517608
0.515683
0.512138
0.507039
0.500573
0.492968
0.484442
0.475193
0.465393
0.455184
0.444698
0.434069
0.423307
0.412218
0.401948
0.535237
0.533792
0.530932
0.526478
0.52051
0.513225
0.50485
0.495602
0.485677
0.475242
0.46444
0.453397
0.442243
0.430992
0.419477
0.408744
0.551537
0.549209
0.545456
0.540132
0.533336
0.52527
0.51616
0.506224
0.495654
0.484615
0.473246
0.461673
0.450018
0.438301
0.426381
0.415204
0.569288
0.567
0.56383
0.559228
0.553078
0.545495
0.536687
0.52688
0.516291
0.505108
0.493495
0.48159
0.469512
0.457383
0.445224
0.43292
0.421319
0.584626
0.581597
0.57763
0.572223
0.565293
0.556966
0.547456
0.536991
0.525785
0.514024
0.501869
0.489456
0.476904
0.464327
0.451751
0.439085
0.427081
0.599029
0.5953
0.590582
0.584419
0.576754
0.567729
0.55756
0.546477
0.534691
0.522387
0.509724
0.496835
0.483836
0.470838
0.457872
0.444867
0.432482
0.612468
0.608084
0.602663
0.595793
0.587442
0.577765
0.566982
0.555321
0.542994
0.530184
0.517047
0.503713
0.490299
0.476908
0.463578
0.450256
0.437515
0.624918
0.619925
0.613852
0.606326
0.597339
0.587057
0.575704
0.56351
0.550682
0.537402
0.523826
0.510081
0.496281
0.482527
0.46886
0.455246
0.442173
0.636355
0.630801
0.624127
0.615998
0.606427
0.595589
0.583714
0.571028
0.557741
0.54403
0.53005
0.515929
0.501775
0.487688
0.473712
0.459829
0.44645
0.646757
0.640691
0.633471
0.624792
0.61469
0.603347
0.590996
0.577865
0.564159
0.550058
0.535711
0.521246
0.506771
0.492381
0.478124
0.463998
0.45034
0.656105
0.649578
0.641866
0.632694
0.622114
0.610318
0.59754
0.584008
0.569927
0.555474
0.540799
0.526026
0.511263
0.496601
0.482092
0.467747
0.453839
0.664381
0.657446
0.649297
0.639688
0.628686
0.616489
0.603333
0.589447
0.575035
0.560271
0.545305
0.530261
0.515243
0.50034
0.48561
0.471071
0.45694
0.678059
0.671569
0.664279
0.655752
0.645764
0.634395
0.62185
0.608367
0.594174
0.579474
0.564442
0.549224
0.533944
0.518705
0.503594
0.488671
0.473966
0.459641
0.684399
0.677657
0.670066
0.661218
0.65091
0.639231
0.626393
0.612633
0.598181
0.583238
0.567979
0.552548
0.537069
0.521644
0.506358
0.491272
0.476426
0.461938
0.68958
0.682632
0.674796
0.665687
0.655117
0.643186
0.630109
0.616124
0.601461
0.586321
0.570877
0.555273
0.539633
0.524056
0.508627
0.49341
0.478449
0.463828
0.693594
0.686487
0.678461
0.669151
0.658379
0.646254
0.632992
0.618835
0.604009
0.588718
0.573131
0.557395
0.54163
0.525937
0.510398
0.49508
0.480031
0.465308
0.696432
0.689213
0.681055
0.671603
0.660691
0.64843
0.635039
0.620761
0.605822
0.590425
0.574739
0.55891
0.543059
0.527284
0.51167
0.496281
0.48117
0.466376
0.698089
0.690807
0.682572
0.67304
0.662048
0.64971
0.636246
0.621899
0.606897
0.591439
0.575698
0.559817
0.543917
0.528097
0.512439
0.497011
0.481866
0.467033
0.698564
0.691266
0.683013
0.673461
0.662449
0.650092
0.636611
0.622248
0.607231
0.59176
0.576007
0.560114
0.544203
0.528373
0.512706
0.497269
0.482117
0.467275
0.697856
0.69059
0.682375
0.672864
0.661893
0.649577
0.636135
0.621809
0.606826
0.591388
0.575665
0.559802
0.543918
0.528114
0.512471
0.497056
0.481923
0.467104
0.695968
0.688781
0.680661
0.671251
0.660383
0.648165
0.634818
0.620581
0.605683
0.590323
0.574674
0.55888
0.543062
0.527318
0.511733
0.496371
0.481285
0.46652
0.692903
0.685844
0.677875
0.668627
0.657921
0.645861
0.632664
0.618568
0.603803
0.588568
0.573036
0.557352
0.541636
0.525989
0.510495
0.495217
0.480205
0.465525
0.688669
0.681784
0.674023
0.664997
0.654513
0.642669
0.629676
0.615774
0.60119
0.586126
0.570755
0.55522
0.539644
0.524129
0.508759
0.493596
0.478683
0.46412
0.683276
0.676611
0.669113
0.660368
0.650166
0.638595
0.625862
0.612204
0.597851
0.583003
0.567833
0.552488
0.53709
0.521741
0.506528
0.49151
0.476723
0.462307
0.670336
0.663155
0.654749
0.644888
0.633646
0.621227
0.607866
0.59379
0.579202
0.564277
0.549161
0.533977
0.518829
0.503805
0.488963
0.474329
0.460089
0.662971
0.656162
0.648152
0.638689
0.627834
0.615782
0.602766
0.589016
0.574733
0.560093
0.545245
0.530312
0.515399
0.500597
0.485959
0.471503
0.45747
0.654532
0.648146
0.64059
0.631582
0.621168
0.609535
0.596915
0.583536
0.569602
0.555289
0.540746
0.5261
0.511456
0.496907
0.482503
0.468252
0.454453
0.645036
0.639125
0.632077
0.62358
0.613661
0.602499
0.590324
0.577362
0.563819
0.549872
0.535674
0.521349
0.507006
0.492742
0.478602
0.464579
0.451044
0.634503
0.629116
0.62263
0.614698
0.605327
0.594687
0.583004
0.570504
0.557394
0.543854
0.530035
0.516067
0.502058
0.488109
0.474261
0.460492
0.447247
0.622953
0.61814
0.612268
0.604954
0.596182
0.586113
0.574968
0.562974
0.550339
0.537243
0.523841
0.510263
0.49662
0.483016
0.469487
0.455997
0.443067
0.610411
0.606217
0.601009
0.594365
0.586243
0.576793
0.566232
0.554786
0.542665
0.530052
0.517102
0.503947
0.490701
0.47747
0.464289
0.451101
0.438512
0.596903
0.593372
0.588877
0.582951
0.575529
0.566744
0.556811
0.545955
0.534387
0.522292
0.509828
0.497129
0.484309
0.471481
0.458674
0.445811
0.433587
0.582455
0.579629
0.575894
0.570735
0.564058
0.555984
0.546721
0.536496
0.525519
0.513978
0.502034
0.48982
0.477457
0.465059
0.452651
0.440136
0.4283
0.565017
0.562085
0.557739
0.551853
0.544533
0.535982
0.526425
0.516076
0.505123
0.49373
0.482034
0.470155
0.458213
0.446231
0.434085
0.422659
0.549563
0.547478
0.543988
0.538936
0.532412
0.524612
0.515761
0.506075
0.495743
0.484933
0.473781
0.462414
0.450955
0.439422
0.427667
0.416671
0.533298
0.532099
0.529507
0.525331
0.519642
0.512631
0.504523
0.495532
0.485854
0.475655
0.465078
0.454248
0.443296
0.432236
0.420892
0.410345
0.516255
0.515979
0.514324
0.511062
0.506247
0.500061
0.492729
0.484467
0.475472
0.465914
0.455936
0.445669
0.435248
0.424683
0.413771
0.403689
0.498466
0.499148
0.498467
0.496156
0.49225
0.486925
0.480401
0.472898
0.464615
0.455724
0.446372
0.436691
0.426824
0.416776
0.406313
0.396714
0.481639
0.481966
0.480641
0.477678
0.473245
0.46756
0.460845
0.453301
0.445103
0.4364
0.427328
0.418036
0.408525
0.398531
0.389429
0.463485
0.464851
0.464545
0.462557
0.459046
0.454229
0.448329
0.441549
0.434068
0.426037
0.417596
0.408898
0.399944
0.390435
0.381843
0.444722
0.447156
0.447897
0.446913
0.444352
0.44043
0.43537
0.429379
0.422637
0.4153
0.407508
0.399424
0.391046
0.382037
0.373966
0.428912
0.430728
0.430774
0.42919
0.426188
0.421992
0.416811
0.410829
0.404205
0.397082
0.389628
0.381842
0.37335
0.36581
0.410155
0.413069
0.414171
0.413587
0.411527
0.408216
0.403865
0.398664
0.39277
0.386333
0.379525
0.372347
0.364385
0.357385
0.390919
0.394953
0.397132
0.397569
0.396472
0.394066
0.390565
0.38616
0.381014
0.375277
0.36913
0.362574
0.355156
0.3487
0.37124
0.376413
0.379687
0.381166
0.381049
0.379566
0.37693
0.373338
0.368954
0.363931
0.358458
0.352538
0.345673
0.339767
0.357482
0.361869
0.364405
0.365286
0.36474
0.362985
0.360219
0.35661
0.352313
0.347525
0.342251
0.335951
0.330596
0.338195
0.343709
0.347316
0.349208
0.349613
0.348751
0.346824
0.344001
0.340441
0.336347
0.331729
0.326
0.321198
0.318588
0.325239
0.329929
0.332843
0.334211
0.334253
0.333174
0.331147
0.328332
0.32494
0.320986
0.315835
0.311582
0.306493
0.312274
0.31622
0.318559
0.319514
0.319291
0.318067
0.316005
0.313321
0.310036
0.305467
0.301757
0.287503
0.294381
0.299367
0.302683
0.304557
0.305198
0.304783
0.303478
0.301506
0.298895
0.29491
0.291731
0.276283
0.282312
0.286611
0.289409
0.290916
0.291315
0.290772
0.289514
0.287578
0.284175
0.281514
0.25801
0.265084
0.270368
0.274092
0.27647
0.277685
0.277904
0.277362
0.276103
0.273277
0.271111
0.247712
0.253982
0.258634
0.261883
0.263914
0.264896
0.265069
0.264487
0.262232
0.260527
0.230226
0.237479
0.243057
0.247177
0.250025
0.251768
0.252654
0.25275
0.251058
0.249768
0.212655
0.220888
0.227389
0.232376
0.236039
0.238542
0.240137
0.240916
0.239784
0.238834
0.204235
0.211654
0.217505
0.22198
0.22524
0.227538
0.229007
0.228453
0.227733
0.195877
0.202587
0.207871
0.211884
0.214875
0.217044
0.217143
0.216464
0.180084
0.187645
0.193733
0.198499
0.202166
0.20502
0.205959
0.204927
0.172704
0.179589
0.185108
0.189439
0.192938
0.195229
0.194145
0.157784
0.165459
0.171733
0.176744
0.180822
0.184217
0.185034
0.151363
0.158387
0.164098
0.168761
0.173006
0.175569
0.137321
0.145083
0.151501
0.156777
0.161703
0.165443
0.131834
0.138948
0.144854
0.150401
0.154982
0.12645
0.132984
0.139131
0.144424
0.121171
0.127895
0.133833
0.109425
0.116701
0.12323
0.105567
0.112646
0.102112
0.171035
0.160911
0.150841
0.140874
0.130567
0.120135
0.109725
0.0993376
0.0889829
0.0786892
0.0684763
0.165876
0.155616
0.144962
0.135194
0.1253
0.115243
0.105251
0.0953408
0.0854886
0.0757096
0.0660207
0.15949
0.149237
0.138424
0.128914
0.11953
0.109957
0.100436
0.0910301
0.0816986
0.0724406
0.0632724
0.152723
0.142788
0.132236
0.123106
0.114245
0.105182
0.0961343
0.0872081
0.0783688
0.069602
0.0609216
0.14601
0.13653
0.126385
0.117656
0.109273
0.100695
0.0921062
0.0836378
0.0752662
0.0669685
0.0587536
0.139567
0.130557
0.120871
0.112543
0.1046
0.0964838
0.0883414
0.0803136
0.072388
0.0645373
0.0567651
0.133431
0.12487
0.115667
0.107741
0.100215
0.0925395
0.08483
0.0772268
0.0697262
0.0623002
0.0549485
0.127605
0.119475
0.11076
0.103236
0.0961094
0.0888528
0.0815595
0.0743632
0.0672669
0.0602435
0.05329
0.122094
0.114379
0.106147
0.0990198
0.0922731
0.085414
0.0785179
0.0717099
0.0649974
0.058355
0.0517781
0.1169
0.109586
0.101822
0.0950783
0.088694
0.0822113
0.0756928
0.0692542
0.0629054
0.0566233
0.0504022
0.112019
0.105087
0.0977735
0.0913988
0.0853589
0.0792325
0.073072
0.066984
0.0609795
0.0550377
0.0491523
0.10744
0.100875
0.0939901
0.0879679
0.0822549
0.0764654
0.0706438
0.0648877
0.0592087
0.0535882
0.0480195
0.103152
0.0969363
0.0904592
0.0847725
0.0793694
0.0738981
0.0683969
0.0629545
0.057583
0.0522654
0.0469953
0.0991422
0.0932595
0.0871683
0.0818
0.0766901
0.0715191
0.0663202
0.0611741
0.0560927
0.0510607
0.0460718
0.0953975
0.0898315
0.0841047
0.0790379
0.0742051
0.0693173
0.0644035
0.0595369
0.054729
0.049966
0.0452421
0.0919048
0.0866394
0.0812561
0.0764741
0.071903
0.067282
0.0626368
0.0580337
0.0534835
0.048974
0.0444996
0.0886508
0.0836706
0.0786104
0.0740973
0.069773
0.0654031
0.061011
0.056656
0.0523485
0.0480776
0.0438381
0.0856229
0.0809128
0.0761561
0.0718963
0.0678047
0.0636713
0.0595171
0.0553958
0.0513168
0.0472707
0.0432523
0.0828086
0.0783541
0.0738821
0.0698608
0.0659883
0.0620773
0.0581471
0.0542456
0.0503819
0.0465472
0.0427371
0.080196
0.075983
0.0717779
0.0679808
0.0643147
0.0606129
0.0568932
0.0531987
0.0495374
0.0459018
0.0422878
0.0777735
0.0737888
0.0698335
0.066247
0.0627752
0.0592701
0.0557483
0.0522484
0.0487777
0.0453295
0.0419001
0.0755301
0.0717609
0.0680393
0.0646506
0.0613617
0.0580414
0.0547056
0.0513888
0.0480975
0.0448258
0.0415703
0.0734555
0.0698895
0.0663864
0.0631833
0.0600664
0.0569199
0.053759
0.0506143
0.0474918
0.0443862
0.0412946
0.0715397
0.0681654
0.0648664
0.0618373
0.0588822
0.0558991
0.0529025
0.0499198
0.0469562
0.044007
0.0410697
0.0697733
0.0665797
0.0634712
0.0606053
0.0578024
0.0549729
0.0521307
0.0493003
0.0464863
0.0436845
0.0408925
0.0681474
0.065124
0.0621934
0.0594805
0.0568206
0.0541355
0.0514385
0.0487514
0.0460781
0.0434151
0.0407603
0.0666536
0.0637905
0.0610259
0.0584564
0.055931
0.0533817
0.0508211
0.0482687
0.045728
0.0431957
0.0406701
0.0652839
0.0625718
0.0599621
0.0575268
0.055128
0.0527063
0.0502739
0.0478483
0.0454324
0.0430233
0.0406195
0.0640308
0.0614608
0.0589956
0.0566862
0.0544063
0.0521045
0.0497928
0.0474864
0.045188
0.042895
0.0406061
0.0628872
0.060451
0.0581205
0.0559289
0.0537609
0.051572
0.0493736
0.0471794
0.0449916
0.042808
0.0406273
0.0618465
0.0595361
0.0573313
0.0552501
0.0531871
0.0511043
0.0490124
0.0469238
0.0448402
0.0427596
0.0406811
0.0609022
0.0587101
0.0566225
0.0546446
0.0526805
0.0506974
0.0487057
0.0467163
0.0447308
0.0427473
0.0600483
0.0579675
0.0559891
0.054108
0.0522367
0.0503473
0.0484498
0.0465538
0.0446606
0.0427686
0.059279
0.0573029
0.0554263
0.0536357
0.0518516
0.0500504
0.0482413
0.0464331
0.0446268
0.0428211
0.058589
0.0567111
0.0549293
0.0532235
0.0515214
0.0498029
0.048077
0.0463513
0.0446268
0.0429022
0.0579729
0.0561873
0.0544939
0.0528673
0.0512421
0.0496014
0.0479536
0.0463055
0.0446579
0.0430096
0.0574257
0.0557268
0.0541157
0.0525631
0.0510101
0.0494424
0.0478679
0.0462927
0.0447174
0.043141
0.0569427
0.0553251
0.0537905
0.0523072
0.0508218
0.0493225
0.0478168
0.0463101
0.0448027
0.0432939
0.0565191
0.0549778
0.0535143
0.0520957
0.0506737
0.0492387
0.0477974
0.0463548
0.0449112
0.0434659
0.0561506
0.0546807
0.0532834
0.051925
0.0505624
0.0491875
0.0478067
0.0464243
0.0450405
0.0436548
0.0558329
0.0544297
0.0530938
0.0517916
0.0504846
0.0491659
0.0478417
0.0465156
0.0451878
0.043858
0.0555617
0.0542209
0.052942
0.0516922
0.0504369
0.0491709
0.0478994
0.046626
0.0453508
0.0440732
0.0553332
0.0540505
0.0528244
0.0516232
0.0504162
0.0491992
0.0479772
0.0467529
0.0455267
0.0442981
0.0551433
0.0539148
0.0527375
0.0515813
0.0504194
0.0492481
0.048072
0.0468935
0.045713
0.0445301
0.0549883
0.0538101
0.0526779
0.0515635
0.0504433
0.0493145
0.048181
0.0470453
0.0459073
0.0447669
0.0548646
0.0537331
0.0526423
0.0515664
0.0504849
0.0493954
0.0483016
0.0472054
0.0461069
0.0450061
0.0547687
0.0536802
0.0526274
0.0515871
0.0505413
0.0494881
0.0484309
0.0473712
0.0463093
0.0452451
0.0546972
0.0536482
0.0526302
0.0516224
0.0506094
0.0495897
0.0485661
0.0475401
0.046512
0.0454814
0.0546467
0.0536339
0.0526476
0.0516695
0.0506864
0.0496973
0.0487046
0.0477095
0.0467122
0.0457127
0.0546141
0.0536342
0.0526765
0.0517253
0.0507695
0.0498083
0.0488436
0.0478767
0.0469076
0.0459364
0.0545964
0.0536461
0.0527141
0.0517871
0.0508559
0.0499198
0.0489805
0.048039
0.0470955
0.04615
0.0545907
0.0536668
0.0527576
0.0518521
0.0509428
0.0500292
0.0491126
0.048194
0.0472734
0.0463508
0.0545942
0.0536935
0.0528043
0.0519176
0.0510276
0.0501338
0.0492373
0.0483388
0.0474385
0.0465365
0.0546042
0.0537236
0.0528514
0.051981
0.0511077
0.050231
0.0493519
0.048471
0.0475884
0.0467042
0.0546183
0.0537546
0.0528967
0.0520399
0.0511806
0.0503184
0.049454
0.048588
0.0477204
0.0468515
0.0546341
0.0537839
0.0529374
0.0520915
0.0512435
0.050393
0.0495406
0.0486868
0.0478316
0.0469751
0.0546499
0.0538099
0.0529719
0.0521342
0.0512947
0.0504533
0.0496102
0.0487659
0.0479204
0.0470739
0.0546629
0.0538294
0.0529967
0.0521641
0.0513302
0.0504946
0.0496577
0.0488197
0.0479809
0.0471412
0.0546737
0.0538435
0.0530135
0.0521835
0.0513526
0.0505205
0.0496875
0.0488536
0.0480191
0.0471841
0.0546765
0.0538446
0.0530124
0.0521803
0.0513476
0.0505141
0.0496798
0.0488451
0.04801
0.0471747
0.19012
0.190696
0.191846
0.193483
0.19558
0.198096
0.201006
0.204278
0.207885
0.211792
0.215962
0.220349
0.224899
0.229544
0.234207
0.238786
0.243176
0.247228
0.250807
0.253703
0.255753
0.256666
0.256283
0.254177
0.250303
0.243919
0.235449
0.223124
0.209038
0.186399
0.189699
0.19026
0.191383
0.192979
0.195022
0.197471
0.200297
0.203468
0.206955
0.210719
0.214723
0.218914
0.223237
0.227619
0.231979
0.236212
0.240207
0.243815
0.246895
0.249239
0.250683
0.25094
0.249857
0.247021
0.242396
0.235279
0.226069
0.213173
0.19836
0.177528
0.189257
0.189804
0.190897
0.192449
0.194434
0.196808
0.199543
0.202605
0.205962
0.209574
0.213399
0.217383
0.221468
0.225578
0.229629
0.233512
0.237117
0.240292
0.242897
0.244728
0.245626
0.245313
0.243652
0.240244
0.235083
0.227498
0.217921
0.204918
0.190265
0.171093
0.188793
0.189325
0.190386
0.191893
0.193815
0.196112
0.198751
0.201698
0.204919
0.20837
0.212009
0.215779
0.219618
0.223445
0.227177
0.230702
0.233909
0.236644
0.238772
0.240089
0.240446
0.239573
0.237351
0.2334
0.227739
0.219746
0.209866
0.196869
0.182383
0.16414
0.188308
0.188824
0.189852
0.19131
0.193169
0.195384
0.197925
0.200753
0.203834
0.207121
0.21057
0.21412
0.217707
0.221248
0.224658
0.227822
0.230629
0.232926
0.234578
0.235389
0.235215
0.2338
0.231036
0.226572
0.22044
0.212085
0.201935
0.188966
0.174582
0.156995
0.1878
0.1883
0.189293
0.190702
0.192493
0.194626
0.197064
0.199771
0.202707
0.205826
0.20908
0.212406
0.215738
0.218991
0.222076
0.22488
0.227289
0.229153
0.23034
0.23066
0.229976
0.228046
0.224777
0.219844
0.213293
0.204637
0.194277
0.181374
0.16713
0.150154
0.187269
0.187751
0.188709
0.190066
0.191789
0.193835
0.196168
0.198749
0.201537
0.204484
0.207539
0.210637
0.213711
0.216672
0.219432
0.221876
0.22389
0.225329
0.226063
0.225908
0.224738
0.222326
0.218589
0.213238
0.206323
0.197429
0.186924
0.174131
0.160088
0.143699
0.186714
0.187178
0.188099
0.189403
0.191055
0.193011
0.195236
0.197687
0.200323
0.203094
0.205946
0.208814
0.211625
0.214294
0.216728
0.218813
0.220438
0.221459
0.221752
0.221142
0.219509
0.216646
0.212481
0.206757
0.199531
0.190455
0.179862
0.167218
0.153415
0.137586
0.186135
0.18658
0.187463
0.188712
0.190289
0.192154
0.194267
0.196585
0.199066
0.201657
0.204303
0.206935
0.209483
0.211857
0.213966
0.215695
0.216937
0.21755
0.217416
0.216369
0.2143
0.211018
0.206462
0.200411
0.192921
0.183713
0.173083
0.160618
0.147083
0.131793
0.18553
0.185956
0.186799
0.187991
0.189493
0.191263
0.193261
0.195443
0.197765
0.200172
0.202609
0.205004
0.207286
0.209365
0.21115
0.212528
0.213393
0.213609
0.213063
0.2116
0.20912
0.205452
0.200544
0.194208
0.186503
0.177206
0.166585
0.154322
0.141078
0.126315
0.1849
0.185306
0.186108
0.187241
0.188665
0.190337
0.192217
0.194261
0.19642
0.198641
0.200865
0.203022
0.205037
0.206821
0.208284
0.209316
0.209812
0.209643
0.208702
0.206845
0.203982
0.199959
0.194737
0.188157
0.180281
0.170936
0.160362
0.148325
0.135392
0.121146
0.184243
0.184628
0.185389
0.186461
0.187804
0.189377
0.191136
0.193037
0.195032
0.197063
0.199073
0.200989
0.202737
0.204228
0.205373
0.206064
0.206201
0.20566
0.204342
0.202114
0.198894
0.19455
0.18905
0.182266
0.174259
0.164904
0.154413
0.14262
0.130015
0.116279
0.183559
0.183923
0.184641
0.18565
0.186911
0.188381
0.190017
0.191773
0.1936
0.19544
0.197233
0.198908
0.200389
0.201589
0.20242
0.202778
0.202566
0.201668
0.199991
0.197414
0.193866
0.189234
0.183491
0.176541
0.168442
0.159108
0.148732
0.1372
0.124935
0.111701
0.182848
0.18319
0.183863
0.184808
0.185985
0.18735
0.188861
0.190469
0.192126
0.193772
0.195348
0.19678
0.197996
0.198908
0.199431
0.199463
0.198913
0.197674
0.195657
0.192757
0.188909
0.184018
0.178068
0.170986
0.16283
0.153549
0.143314
0.132057
0.120142
0.107401
0.182108
0.182428
0.183056
0.183935
0.185026
0.186284
0.187666
0.189125
0.190609
0.192061
0.193418
0.194609
0.195561
0.196189
0.196409
0.196126
0.195251
0.193686
0.19135
0.18815
0.184029
0.178911
0.172787
0.165605
0.157426
0.148223
0.138153
0.127182
0.115625
0.103368
0.18134
0.181637
0.182219
0.183031
0.184033
0.185182
0.186434
0.187741
0.189052
0.190307
0.191446
0.192397
0.193088
0.193436
0.193361
0.192771
0.191585
0.189711
0.187077
0.183601
0.179235
0.17392
0.167653
0.160403
0.152229
0.143128
0.133242
0.122567
0.111372
0.0995896
0.180544
0.180817
0.181351
0.182094
0.183006
0.184044
0.185165
0.186319
0.187454
0.188513
0.189433
0.190146
0.190579
0.190653
0.190291
0.189407
0.187923
0.185758
0.182847
0.179118
0.174535
0.169052
0.162671
0.155381
0.147239
0.138262
0.128577
0.118204
0.107373
0.0960539
0.179718
0.179967
0.180453
0.181126
0.181946
0.182872
0.183859
0.184858
0.185817
0.186679
0.187383
0.187859
0.188039
0.187845
0.187205
0.186037
0.184272
0.181834
0.178666
0.17471
0.169935
0.164311
0.157845
0.15054
0.142455
0.133619
0.124149
0.114083
0.103616
0.092749
0.178863
0.179088
0.179524
0.180125
0.180853
0.181665
0.182517
0.18336
0.184143
0.184809
0.185297
0.18554
0.185471
0.185017
0.184108
0.18267
0.180637
0.177944
0.174542
0.170382
0.165442
0.159702
0.153177
0.145882
0.137874
0.129195
0.119953
0.110195
0.100091
0.0896633
0.177978
0.178178
0.178564
0.179093
0.179727
0.180423
0.181139
0.181826
0.182433
0.182903
0.183178
0.183192
0.18288
0.182173
0.181006
0.17931
0.177027
0.174098
0.170482
0.16614
0.161059
0.155229
0.14867
0.141406
0.133494
0.124987
0.115979
0.106532
0.0967871
0.0867853
0.177064
0.177238
0.177573
0.178029
0.178568
0.179148
0.179727
0.180258
0.180689
0.180965
0.181029
0.180818
0.18027
0.179319
0.177905
0.175965
0.173447
0.1703
0.166492
0.161992
0.156793
0.150896
0.144325
0.137111
0.129313
0.120987
0.112221
0.103084
0.0936931
0.0841042
0.176121
0.176269
0.176552
0.176934
0.177376
0.17784
0.178282
0.178656
0.178913
0.178997
0.178854
0.178423
0.177645
0.176459
0.17481
0.17264
0.169903
0.166558
0.162577
0.157941
0.152647
0.146704
0.140142
0.132996
0.125325
0.117191
0.108672
0.0998422
0.0907991
0.0816093
0.175148
0.175269
0.175501
0.175808
0.176153
0.1765
0.176805
0.177023
0.177106
0.177001
0.176655
0.17601
0.17501
0.173599
0.171726
0.169341
0.166402
0.162878
0.158745
0.153992
0.148625
0.142657
0.136121
0.129059
0.121528
0.113592
0.105323
0.0967975
0.0880952
0.0792905
0.174145
0.174241
0.17442
0.174651
0.1749
0.175128
0.175297
0.17536
0.175272
0.174981
0.174436
0.173583
0.172369
0.170744
0.16866
0.166073
0.16295
0.159264
0.154999
0.15015
0.144728
0.138754
0.132262
0.125298
0.117917
0.110185
0.102167
0.0939411
0.0855716
0.0771381
0.173115
0.173183
0.17331
0.173465
0.173616
0.173728
0.17376
0.17367
0.173413
0.172939
0.1722
0.171146
0.169728
0.167899
0.165616
0.162844
0.159552
0.155722
0.151343
0.146418
0.140961
0.134997
0.128564
0.121709
0.114487
0.106962
0.0991957
0.0912644
0.0832192
0.0751429
0.172056
0.172097
0.172171
0.17225
0.172304
0.172299
0.172196
0.171955
0.171531
0.170879
0.169952
0.168705
0.16709
0.165068
0.162601
0.159657
0.156213
0.152256
0.147782
0.142798
0.137323
0.131385
0.125024
0.11829
0.111233
0.103919
0.0964019
0.088759
0.081029
0.0732959
0.170969
0.170984
0.171004
0.171008
0.170965
0.170843
0.170607
0.170216
0.16963
0.168804
0.167696
0.166262
0.164462
0.162258
0.159618
0.156518
0.152938
0.148872
0.144319
0.139294
0.133816
0.127919
0.121642
0.115035
0.108149
0.101047
0.093778
0.0864168
0.0789924
0.0715889
0.169856
0.169843
0.169811
0.169739
0.1696
0.169363
0.168994
0.168457
0.167712
0.166717
0.165434
0.163822
0.161846
0.159472
0.156674
0.153432
0.149732
0.145572
0.140958
0.135906
0.13044
0.124596
0.118414
0.111943
0.105231
0.0983413
0.0913166
0.0842299
0.0771013
0.0700138
0.168717
0.168677
0.168593
0.168445
0.16821
0.16786
0.167362
0.166681
0.16578
0.164623
0.163172
0.161391
0.159249
0.156717
0.153773
0.150403
0.146598
0.142361
0.1377
0.132636
0.127196
0.121417
0.115337
0.109008
0.102474
0.0957947
0.0890105
0.0821905
0.0753478
0.0685631
0.167553
0.167487
0.16735
0.167128
0.166798
0.166336
0.165711
0.16489
0.163839
0.162525
0.160913
0.158972
0.156674
0.153996
0.15092
0.147436
0.143541
0.13924
0.134548
0.129486
0.124083
0.118378
0.112409
0.106226
0.0998704
0.0934009
0.0868524
0.0802914
0.0737243
0.0672296
0.166366
0.166273
0.166085
0.165789
0.165366
0.164794
0.164044
0.163087
0.161891
0.160426
0.158661
0.156569
0.154127
0.151314
0.148119
0.144535
0.140563
0.136214
0.131503
0.126455
0.121101
0.115478
0.109626
0.103592
0.0974162
0.0911537
0.0848357
0.0785253
0.0722239
0.0660065
0.165158
0.165038
0.164799
0.16443
0.163916
0.163236
0.162365
0.161276
0.159941
0.158331
0.156422
0.154188
0.151611
0.148676
0.145374
0.141703
0.137669
0.133283
0.128566
0.123544
0.118247
0.112715
0.106984
0.101102
0.0951054
0.0890467
0.0829535
0.0768854
0.0708395
0.0648872
0.163929
0.163784
0.163494
0.163054
0.16245
0.161665
0.160677
0.15946
0.157991
0.156244
0.154198
0.151832
0.149131
0.146085
0.142689
0.138944
0.134859
0.130451
0.125739
0.120752
0.115521
0.110085
0.10448
0.0987511
0.0929326
0.0870738
0.0811994
0.0753652
0.0695646
0.0638656
0.162683
0.162512
0.162173
0.161663
0.160972
0.160085
0.158982
0.157643
0.156046
0.154169
0.151995
0.149506
0.146692
0.143547
0.140068
0.136261
0.132138
0.127717
0.123021
0.118078
0.112921
0.107587
0.10211
0.0965346
0.0908923
0.0852291
0.079567
0.0739581
0.068393
0.0629358
0.161421
0.161225
0.160838
0.160259
0.159483
0.158497
0.157285
0.155829
0.15411
0.152111
0.149816
0.147215
0.144298
0.141064
0.137514
0.133657
0.129507
0.125084
0.120413
0.115522
0.110445
0.105216
0.0998702
0.0944476
0.088979
0.0835067
0.0780502
0.0726581
0.0673187
0.0620921
0.160146
0.159925
0.159491
0.158846
0.157987
0.156906
0.155589
0.15402
0.152186
0.150072
0.147666
0.144961
0.141952
0.13864
0.13503
0.131134
0.126967
0.122552
0.117914
0.113083
0.10809
0.10297
0.0977559
0.0924855
0.0871873
0.0819009
0.0766432
0.0714594
0.066336
0.061329
0.15886
0.158615
0.158135
0.157426
0.156488
0.155315
0.153897
0.152222
0.150279
0.148058
0.14555
0.14275
0.139659
0.136279
0.132619
0.128694
0.12452
0.120122
0.115525
0.110759
0.105854
0.100845
0.0957632
0.0906434
0.0855121
0.0804061
0.0753403
0.0703562
0.0654393
0.0606415
0.157567
0.157299
0.156774
0.156003
0.154988
0.153727
0.152213
0.150438
0.148394
0.146072
0.14347
0.140586
0.137422
0.133984
0.130285
0.126339
0.122168
0.117794
0.113244
0.108548
0.103735
0.0988389
0.0938882
0.0889166
0.0839482
0.0790169
0.0741358
0.069343
0.0646233
0.0600246
0.156269
0.155978
0.155411
0.15458
0.153492
0.152147
0.150543
0.148673
0.146533
0.14412
0.141432
0.138472
0.135244
0.131758
0.128028
0.124072
0.11991
0.115567
0.11107
0.106448
0.10173
0.0969469
0.0921267
0.0873005
0.0824906
0.0777282
0.0730245
0.0684147
0.063883
0.0594735
0.15497
0.154658
0.15405
0.153162
0.152003
0.150579
0.148889
0.146931
0.144703
0.142205
0.13944
0.136412
0.133129
0.129604
0.125852
0.121893
0.117748
0.113442
0.109003
0.104458
0.0998357
0.095166
0.0904746
0.0857906
0.0811345
0.0765347
0.0720013
0.0675661
0.0632134
0.0589835
0.153674
0.153341
0.152694
0.151751
0.150526
0.149027
0.147256
0.145215
0.142906
0.140332
0.137497
0.13441
0.131081
0.127525
0.123759
0.119803
0.115681
0.111418
0.10704
0.102575
0.0980499
0.0934927
0.0889279
0.0843823
0.0798749
0.0754316
0.0710611
0.0667925
0.0626099
0.0585504
0.152384
0.152031
0.151347
0.150353
0.149065
0.147495
0.145649
0.143532
0.141148
0.138504
0.135608
0.132469
0.129102
0.125523
0.12175
0.117805
0.113712
0.109495
0.105181
0.100798
0.0963696
0.0919236
0.0874826
0.0830714
0.0787074
0.0744142
0.0701993
0.066089
0.062068
0.0581697
0.151106
0.150734
0.150014
0.148971
0.147624
0.145988
0.144073
0.141885
0.139433
0.136727
0.133776
0.130594
0.127196
0.1236
0.119827
0.115898
0.111838
0.107672
0.103425
0.0991235
0.0947919
0.0904553
0.0861349
0.0818537
0.0776276
0.0734779
0.0694112
0.0654513
0.0615833
0.0578373
0.149843
0.149453
0.1487
0.147611
0.146209
0.144512
0.142531
0.140279
0.137766
0.135004
0.132006
0.128787
0.125365
0.12176
0.117991
0.114084
0.110061
0.105948
0.101769
0.0975502
0.093314
0.0890843
0.0848809
0.080725
0.076631
0.0726182
0.0686925
0.064875
0.0611516
0.0575494
0.1486
0.148193
0.14741
0.146278
0.144824
0.14307
0.14103
0.138719