/*--------------------------------*- C++ -*----------------------------------*\
  =========                 |
  \\      /  F ield         | OpenFOAM: The Open Source CFD Toolbox
   \\    /   O peration     | Website:  https://openfoam.org
    \\  /    A nd           | Version:  7
     \\/     M anipulation  |
\*---------------------------------------------------------------------------*/
FoamFile
{
    version     2.0;
    format      ascii;
    class       volVectorField;
    location    "70";
    object      U;
}
// * * * * * * * * * * * * * * * * * * * * * * * * * * * * * * * * * * * * * //

dimensions      [0 1 -1 0 0 0 0];

internalField   nonuniform List<vector> 
8500
(
(1.04515 0.376242 -6.93524e-21)
(1.03321 0.393136 -8.2615e-20)
(1.03464 0.376051 1.1085e-19)
(1.01973 0.412233 -1.11669e-19)
(1.02185 0.392728 1.38228e-19)
(1.02401 0.375525 -1.75563e-19)
(1.00567 0.43316 -6.36264e-20)
(1.00772 0.411644 2.27223e-19)
(1.01038 0.391974 -1.47001e-19)
(1.01328 0.374651 4.75412e-20)
(0.993053 0.432365 1.02708e-19)
(0.995649 0.410701 1.03355e-19)
(0.9988 0.390868 -3.97799e-19)
(1.00245 0.37341 9.09455e-20)
(0.977861 0.454231 1.33288e-19)
(0.980399 0.431178 -1.70934e-19)
(0.98353 0.4094 6.01129e-20)
(0.987129 0.389399 4.18632e-19)
(0.991535 0.371769 2.40442e-19)
(0.96154 0.477251 -5.88201e-20)
(0.964496 0.452744 -2.13756e-19)
(0.967727 0.429592 -6.89324e-20)
(0.971391 0.407735 -2.53659e-19)
(0.975386 0.387555 1.19981e-19)
(0.980543 0.369689 -2.84551e-19)
(0.947344 0.475408 -4.52939e-20)
(0.951102 0.450817 -2.23793e-20)
(0.955054 0.427597 1.38768e-19)
(0.959248 0.405701 2.68639e-19)
(0.963605 0.385326 -4.58447e-19)
(0.969599 0.36714 3.04087e-19)
(0.928609 0.499197 -4.02411e-21)
(0.93311 0.473087 -9.85921e-21)
(0.937691 0.448441 2.52518e-19)
(0.942387 0.425184 -9.75277e-20)
(0.947115 0.403282 -1.91633e-19)
(0.951891 0.382688 -7.06082e-21)
(0.958951 0.364134 -4.2517e-19)
(0.913468 0.496427 -1.25573e-19)
(0.918856 0.470284 7.01725e-20)
(0.924273 0.445612 1.9898e-19)
(0.92972 0.422345 5.89853e-20)
(0.935012 0.400455 -3.51258e-19)
(0.940428 0.379569 -1.216e-20)
(0.948614 0.36062 1.35458e-19)
(0.891979 0.520846 -7.45798e-20)
(0.898315 0.493138 -1.34763e-20)
(0.904597 0.466997 -2.08486e-19)
(0.910853 0.44233 -1.10571e-19)
(0.917052 0.41908 -1.26697e-19)
(0.922985 0.397225 4.11743e-19)
(0.929395 0.375973 -9.61594e-20)
(0.93781 0.355409 3.68212e-19)
(0.868421 0.546299 -2.31542e-19)
(0.875878 0.517006 9.95799e-20)
(0.883173 0.489328 1.61469e-19)
(0.890351 0.463225 6.92243e-20)
(0.897443 0.438598 1.81234e-19)
(0.904396 0.415393 8.65303e-20)
(0.911066 0.393589 -2.56301e-20)
(0.918474 0.37236 1.99987e-19)
(0.927093 0.351733 2.89389e-20)
(0.851324 0.541839 -1.01714e-19)
(0.859806 0.512602 -2.96372e-19)
(0.868061 0.484995 -2.08144e-20)
(0.876138 0.458968 -1.3091e-19)
(0.884062 0.434418 2.03793e-19)
(0.891772 0.41129 -3.1942e-19)
(0.899174 0.389547 -8.30982e-20)
(0.907322 0.36834 -1.25259e-19)
(0.916071 0.347662 -4.6003e-19)
(0.824342 0.567469 -3.7367e-20)
(0.834275 0.53677 -9.81257e-21)
(0.843784 0.507634 -4.23847e-20)
(0.853003 0.480138 -1.01262e-19)
(0.861977 0.454225 -1.46011e-19)
(0.870732 0.42979 7.63678e-20)
(0.879204 0.406775 2.55817e-19)
(0.887336 0.385127 -1.3713e-19)
(0.896143 0.364011 1.80751e-19)
(0.90515 0.34348 5.22759e-19)
(0.80628 0.561665 -4.56615e-19)
(0.817299 0.53109 -2.16731e-19)
(0.827837 0.502101 6.36049e-20)
(0.838019 0.474758 8.49659e-20)
(0.84789 0.448998 2.97011e-19)
(0.857474 0.424715 -4.18436e-19)
(0.866709 0.401848 1.23823e-19)
(0.875565 0.380331 7.65229e-20)
(0.884997 0.359361 -1.10789e-19)
(0.894352 0.339074 -3.92105e-19)
(0.788315 0.555201 2.42857e-19)
(0.800422 0.524801 3.89975e-19)
(0.81199 0.496003 3.1783e-19)
(0.823133 0.468855 2.31589e-19)
(0.833899 0.443288 -5.04553e-19)
(0.84431 0.419194 -3.55582e-21)
(0.854308 0.396512 -1.38104e-19)
(0.863879 0.375164 5.35371e-19)
(0.87393 0.35439 -2.56437e-20)
(0.883692 0.334398 -2.67195e-19)
(0.756389 0.579547 -3.34304e-19)
(0.770476 0.548079 7.93368e-21)
(0.783672 0.517904 1.25231e-19)
(0.796266 0.489343 -1.99399e-19)
(0.808368 0.462432 -2.54022e-19)
(0.820024 0.437097 6.44093e-19)
(0.83126 0.413229 2.61239e-19)
(0.842019 0.390767 -2.70932e-19)
(0.852303 0.369625 -3.18597e-19)
(0.862971 0.349091 -3.60099e-19)
(0.873183 0.329427 -3.00919e-20)
(0.737575 0.571527 1.73298e-19)
(0.752791 0.540301 6.78258e-20)
(0.767073 0.510401 -3.49321e-19)
(0.780689 0.482122 3.70705e-19)
(0.793745 0.455489 2.26497e-19)
(0.806287 0.430425 -9.1626e-20)
(0.818343 0.406821 -1.766e-19)
(0.829862 0.384615 1.55508e-19)
(0.840855 0.363715 -2.67134e-19)
(0.852144 0.343459 -3.74587e-19)
(0.862835 0.324146 3.65681e-19)
(0.701045 0.594224 5.40534e-19)
(0.718947 0.562799 -2.70341e-19)
(0.73529 0.531872 3.34541e-19)
(0.750652 0.502297 -3.90234e-19)
(0.765284 0.474345 5.13434e-20)
(0.779287 0.448032 -1.59357e-19)
(0.79271 0.423276 1.13434e-19)
(0.805582 0.399973 1.07836e-19)
(0.817856 0.378057 -6.76009e-20)
(0.829555 0.357433 6.66077e-19)
(0.841466 0.337488 -8.55272e-20)
(0.852658 0.318543 -3.11244e-19)
(0.681501 0.584507 -3.91714e-19)
(0.700533 0.553371 5.63983e-19)
(0.717999 0.522797 -6.44115e-20)
(0.734435 0.493595 1.62746e-19)
(0.750075 0.466015 1.96012e-19)
(0.765017 0.440062 7.89529e-20)
(0.779313 0.415654 -5.50405e-19)
(0.792993 0.392687 1.22789e-19)
(0.806019 0.371094 1.18925e-19)
(0.81842 0.35078 -3.97112e-19)
(0.830953 0.331175 1.52704e-19)
(0.842662 0.312613 5.8609e-20)
(0.639432 0.603613 -5.75292e-20)
(0.662206 0.574035 -6.22375e-21)
(0.682367 0.543248 8.78691e-20)
(0.700947 0.513082 -1.57913e-19)
(0.718447 0.484303 -2.02938e-20)
(0.735084 0.457138 -6.09471e-19)
(0.750957 0.431585 -4.71514e-19)
(0.766116 0.407563 -7.88989e-20)
(0.780598 0.384966 -6.87952e-20)
(0.794368 0.363729 -7.63768e-20)
(0.807468 0.343756 -1.56501e-19)
(0.82062 0.324519 -1.83009e-19)
(0.832855 0.306354 -2.48515e-19)
(0.619356 0.592111 -1.10234e-19)
(0.643193 0.562817 -5.04998e-20)
(0.664476 0.532441 -5.31506e-19)
(0.684162 0.502736 -5.07656e-19)
(0.702713 0.474426 9.5213e-20)
(0.720337 0.447719 8.31717e-19)
(0.737128 0.422608 1.27397e-19)
(0.753141 0.399007 3.41951e-19)
(0.768415 0.376816 -5.33553e-19)
(0.782921 0.355967 -1.28338e-19)
(0.796713 0.336363 6.44549e-19)
(0.81048 0.31752 2.90707e-19)
(0.823246 0.299766 1.19674e-18)
(0.599595 0.579806 -6.93681e-20)
(0.624495 0.550864 3.59466e-19)
(0.646892 0.520958 -2.23264e-19)
(0.66767 0.491767 1.67879e-19)
(0.687259 0.463973 3.8596e-19)
(0.705855 0.437767 -2.69572e-19)
(0.723551 0.413135 7.00226e-20)
(0.740406 0.389993 3.34873e-19)
(0.756461 0.36824 4.28418e-19)
(0.771696 0.34781 -2.2488e-19)
(0.786171 0.328605 -1.32005e-19)
(0.800545 0.310181 2.01484e-19)
(0.813846 0.292851 -5.91543e-19)
(0.550253 0.591115 8.11353e-20)
(0.580185 0.566712 2.27277e-19)
(0.606144 0.538189 -3.41473e-19)
(0.629643 0.508811 8.1514e-19)
(0.651498 0.480184 3.43167e-19)
(0.672109 0.452952 -1.17534e-19)
(0.691661 0.427289 -3.81689e-20)
(0.710248 0.403176 1.58817e-19)
(0.72793 0.380527 -4.43744e-19)
(0.744755 0.359246 3.66507e-20)
(0.760707 0.339264 -2.9008e-19)
(0.775857 0.320486 -1.30682e-19)
(0.790829 0.302504 -5.85174e-19)
(0.804664 0.285613 -2.56558e-19)
(0.530338 0.576985 -2.82765e-19)
(0.561162 0.552844 1.51949e-19)
(0.588172 0.524804 -9.43043e-20)
(0.612758 0.496011 -2.93698e-19)
(0.635673 0.467999 3.20218e-19)
(0.657287 0.441374 3.47142e-19)
(0.677777 0.416295 -1.41644e-21)
(0.697238 0.392737 -8.10236e-20)
(0.715734 0.370617 -4.59217e-20)
(0.733314 0.349839 3.48523e-19)
(0.749971 0.330335 3.18005e-19)
(0.765784 0.312012 8.97181e-20)
(0.781344 0.294494 6.15017e-19)
(0.79571 0.278057 2.03344e-19)
(0.510843 0.562027 -1.01684e-19)
(0.542559 0.538218 -1.76109e-19)
(0.570609 0.510724 -6.71585e-20)
(0.596266 0.482573 -9.18587e-21)
(0.62022 0.455224 -7.03289e-19)
(0.642816 0.42925 -8.99485e-19)
(0.664226 0.404795 -1.40678e-19)
(0.684543 0.38183 3.19621e-19)
(0.703835 0.360272 -1.27108e-19)
(0.722155 0.340027 -6.55934e-19)
(0.739504 0.321029 6.21916e-19)
(0.755965 0.303187 9.06876e-20)
(0.772101 0.286156 -2.56144e-19)
(0.786994 0.270187 4.06294e-19)
(0.453765 0.561006 1.17966e-19)
(0.491806 0.546262 4.11069e-19)
(0.524411 0.522852 -1.44143e-19)
(0.553486 0.495966 2.20188e-19)
(0.580192 0.46851 4.25571e-19)
(0.605163 0.441872 2.3465e-19)
(0.628721 0.416592 1.00007e-18)
(0.651028 0.392799 4.62798e-19)
(0.672182 0.370463 -3.94059e-20)
(0.692251 0.3495 -2.39748e-20)
(0.711295 0.32982 8.34491e-20)
(0.72932 0.311356 -6.84788e-19)
(0.746416 0.29402 -3.70776e-19)
(0.763114 0.277497 1.61511e-19)
(0.778526 0.262012 -5.62172e-19)
(0.43465 0.544372 8.78515e-20)
(0.473264 0.529709 -5.21863e-19)
(0.50675 0.506766 3.98164e-19)
(0.536832 0.480547 -1.87053e-19)
(0.564565 0.453838 -4.34097e-19)
(0.590528 0.427958 -1.0614e-19)
(0.615022 0.403413 -4.11772e-19)
(0.638205 0.380321 -8.67243e-19)
(0.660173 0.358647 7.45485e-20)
(0.681001 0.338312 7.02214e-19)
(0.70075 0.319226 -3.10165e-19)
(0.719434 0.301323 3.83878e-19)
(0.737149 0.284517 5.20222e-19)
(0.754393 0.268524 3.38556e-19)
(0.770317 0.253539 2.6056e-19)
(0.416058 0.526907 3.14523e-19)
(0.455251 0.512391 5.52321e-19)
(0.489607 0.489979 -6.75337e-19)
(0.520676 0.464486 5.3692e-19)
(0.549409 0.438574 4.3368e-19)
(0.576338 0.413497 -1.26054e-19)
(0.601743 0.389728 -6.81946e-20)
(0.625776 0.367373 2.52111e-19)
(0.648536 0.346396 -4.38498e-19)
(0.6701 0.326719 -5.94234e-19)
(0.690534 0.308255 2.2831e-19)
(0.70986 0.290939 -2.33036e-19)
(0.728176 0.274689 -2.82897e-19)
(0.745951 0.259244 -2.47661e-19)
(0.762376 0.244775 2.47905e-20)
(0.398029 0.508637 -5.44482e-19)
(0.437802 0.494332 -4.42962e-20)
(0.473014 0.472513 3.30518e-20)
(0.505045 0.447801 -5.68826e-20)
(0.534751 0.422736 -5.42877e-19)
(0.562617 0.398505 -2.33231e-20)
(0.588904 0.37555 -9.05743e-20)
(0.613761 0.353968 5.51784e-19)
(0.637287 0.333722 -1.73292e-19)
(0.659566 0.314733 -4.9841e-20)
(0.680664 0.296919 2.99519e-19)
(0.700612 0.280215 8.83397e-19)
(0.71951 0.264543 -9.0851e-20)
(0.737799 0.249668 -1.07913e-19)
(0.754713 0.23573 1.87329e-19)
(0.334233 0.489439 3.88029e-19)
(0.380598 0.489588 -2.29592e-19)
(0.420949 0.475557 -3.75834e-19)
(0.457 0.454391 3.7431e-19)
(0.489966 0.430514 -1.2646e-19)
(0.520614 0.406343 3.55562e-19)
(0.549386 0.383 1.64137e-19)
(0.576525 0.360898 -9.7242e-20)
(0.602178 0.340123 -3.75552e-19)
(0.626446 0.320637 4.69346e-19)
(0.649414 0.302366 -1.18806e-19)
(0.671155 0.285228 -5.24851e-19)
(0.691703 0.269162 -1.83071e-19)
(0.711164 0.25409 -5.8118e-20)
(0.729947 0.239803 9.22005e-19)
(0.747339 0.226412 -5.9959e-19)
(0.31735 0.469973 -2.88445e-19)
(0.363801 0.46979 5.706e-19)
(0.404726 0.456092 1.04198e-19)
(0.441592 0.435637 2.82515e-19)
(0.475464 0.412646 2.12083e-19)
(0.507022 0.389415 -5.8682e-19)
(0.536667 0.367 -3.1102e-19)
(0.564627 0.345786 5.82288e-19)
(0.591047 0.325852 -2.01971e-20)
(0.616028 0.307158 -4.84775e-19)
(0.63966 0.289632 1.25701e-19)
(0.662019 0.273197 6.11248e-19)
(0.683146 0.25779 -5.00522e-19)
(0.703149 0.243342 -2.05159e-19)
(0.722408 0.22966 -1.82798e-19)
(0.740262 0.216832 4.08361e-19)
(0.301118 0.449738 -3.88101e-19)
(0.347672 0.449273 -1.69466e-19)
(0.389161 0.435966 -7.15605e-20)
(0.426819 0.416276 -5.65038e-19)
(0.461564 0.394221 -4.33624e-19)
(0.493997 0.371972 5.80851e-19)
(0.52448 0.350524 3.2589e-19)
(0.553229 0.330234 -2.57515e-19)
(0.580384 0.311172 -3.00441e-19)
(0.60605 0.293299 3.29466e-19)
(0.63032 0.276545 -1.87937e-19)
(0.653272 0.260836 2.73685e-19)
(0.674954 0.246113 1.32995e-19)
(0.695477 0.232308 5.21911e-19)
(0.715191 0.219249 1.0516e-19)
(0.733492 0.207 -4.82545e-19)
(0.285574 0.428768 -7.93707e-20)
(0.332243 0.428067 -2.26466e-19)
(0.374283 0.415206 2.00457e-19)
(0.412706 0.396335 7.50792e-20)
(0.44829 0.375263 -2.24973e-19)
(0.481561 0.354038 1.5191e-19)
(0.512846 0.333593 -4.07621e-19)
(0.542348 0.314259 -9.18873e-20)
(0.570206 0.2961 3.79872e-19)
(0.596527 0.279076 1.36175e-19)
(0.621406 0.26312 2.16618e-19)
(0.644925 0.248162 -4.13918e-19)
(0.667139 0.234143 -1.61194e-19)
(0.688157 0.221001 -5.52677e-20)
(0.708306 0.208582 7.67576e-20)
(0.727037 0.196927 4.42586e-19)
(0.270751 0.407096 -1.77189e-19)
(0.317545 0.406205 3.92179e-19)
(0.360121 0.393842 6.2778e-19)
(0.399278 0.37584 1.8055e-19)
(0.435665 0.355796 2.48047e-19)
(0.469734 0.335634 -4.01338e-21)
(0.501783 0.316227 1.20374e-19)
(0.532003 0.297882 4.25104e-19)
(0.56053 0.280654 -6.30882e-20)
(0.587474 0.264506 -7.75494e-19)
(0.612933 0.249372 6.5573e-21)
(0.636992 0.235187 4.45833e-20)
(0.659711 0.221894 4.15556e-20)
(0.681202 0.209434 -2.5883e-19)
(0.701764 0.19767 -2.42409e-19)
(0.720906 0.186624 -4.75366e-19)
(0.205476 0.367126 -1.189e-19)
(0.256682 0.384758 2.36152e-19)
(0.303608 0.383721 2.33622e-19)
(0.346701 0.371906 -2.33931e-19)
(0.386559 0.35482 2.78017e-20)
(0.423708 0.335846 -1.54948e-19)
(0.458537 0.316785 3.86531e-20)
(0.49131 0.298449 -4.72952e-21)
(0.522209 0.281123 -1.90454e-19)
(0.551371 0.264854 -8.66603e-20)
(0.578905 0.249606 5.14978e-19)
(0.604913 0.235318 -3.89129e-19)
(0.629484 0.221926 2.63616e-19)
(0.652683 0.209378 1.07855e-19)
(0.674621 0.197619 -2.51299e-20)
(0.695573 0.186526 7.82328e-21)
(0.715108 0.176103 2.616e-19)
(0.192691 0.34542 3.28657e-19)
(0.243396 0.361791 -1.82692e-19)
(0.290458 0.360649 -3.23521e-19)
(0.334047 0.349429 -1.97753e-19)
(0.374571 0.333304 -3.86381e-19)
(0.412442 0.31544 3.18479e-19)
(0.447986 0.297515 -2.63449e-19)
(0.481442 0.280282 5.67823e-20)
(0.512983 0.264002 4.02949e-20)
(0.542742 0.248718 -1.766e-19)
(0.570834 0.234394 2.07391e-19)
(0.597359 0.220974 3.16435e-19)
(0.622413 0.208397 -2.83002e-19)
(0.646064 0.196612 -3.27163e-19)
(0.668423 0.185569 6.3182e-19)
(0.689743 0.175162 -5.742e-19)
(0.709649 0.165376 2.11908e-19)
(0.180675 0.323105 -2.74254e-19)
(0.230923 0.338234 5.86644e-20)
(0.278122 0.337024 1.28481e-19)
(0.322182 0.326444 -4.51315e-19)
(0.363335 0.311323 7.4177e-20)
(0.401884 0.294605 -3.10557e-19)
(0.4381 0.277849 2.6618e-19)
(0.472197 0.261748 6.41425e-20)
(0.504339 0.246541 -2.93883e-19)
(0.534659 0.232266 -6.73992e-20)
(0.563272 0.218889 1.61063e-19)
(0.590283 0.206357 7.66267e-20)
(0.615789 0.194613 -2.29594e-20)
(0.639863 0.18361 1.91367e-20)
(0.662618 0.1733 -5.55121e-19)
(0.684282 0.163591 3.9971e-19)
(0.704538 0.154455 3.74423e-19)
(0.169458 0.300223 2.50109e-19)
(0.219288 0.314124 1.71764e-19)
(0.266624 0.312885 3.2757e-19)
(0.311129 0.302985 4.60034e-20)
(0.35287 0.288906 3.2074e-20)
(0.392053 0.27337 -2.42379e-21)
(0.428896 0.257813 -3.40515e-19)
(0.463589 0.242871 1.80132e-19)
(0.496291 0.228762 -2.92874e-19)
(0.527133 0.21552 1.94736e-19)
(0.556231 0.203111 -3.16162e-19)
(0.583695 0.191485 -1.87883e-19)
(0.609622 0.180592 3.83316e-19)
(0.634091 0.170386 3.44486e-20)
(0.657213 0.160825 8.78065e-20)
(0.679198 0.151826 3.56628e-20)
(0.699782 0.143353 -4.12974e-19)
(0.159064 0.276812 -1.67537e-19)
(0.208518 0.289503 1.06312e-19)
(0.255986 0.288267 -2.4121e-19)
(0.300906 0.279086 1.84978e-19)
(0.343195 0.266085 2.66874e-20)
(0.382964 0.251764 1.58427e-19)
(0.420387 0.237434 -5.65095e-21)
(0.455633 0.223677 -1.5816e-19)
(0.488852 0.210689 1.5804e-19)
(0.520176 0.1985 -4.09935e-19)
(0.549724 0.187078 5.77827e-19)
(0.577605 0.176377 2.23415e-19)
(0.603921 0.166351 -4.72356e-19)
(0.628756 0.156958 4.79345e-20)
(0.652218 0.148159 3.14185e-19)
(0.674497 0.139882 -4.49478e-19)
(0.695386 0.132083 -2.49358e-21)
(0.149519 0.252917 1.09979e-19)
(0.198633 0.264412 -9.08196e-20)
(0.246228 0.26321 -4.54238e-20)
(0.291534 0.254783 -9.26521e-20)
(0.334326 0.242894 -1.18825e-19)
(0.374634 0.229816 -3.33504e-19)
(0.412589 0.21674 1.4701e-19)
(0.44834 0.204191 -2.06653e-19)
(0.482033 0.192345 3.83788e-19)
(0.513799 0.181228 2.61868e-19)
(0.543758 0.170811 -4.65603e-19)
(0.572023 0.161052 -4.72916e-19)
(0.598696 0.151908 2.28187e-19)
(0.623865 0.143341 -2.56727e-19)
(0.647638 0.135316 -3.20523e-20)
(0.670188 0.127772 2.57263e-19)
(0.691356 0.120659 -4.81346e-19)
(0.140844 0.22858 -1.76727e-19)
(0.189656 0.238891 -2.55104e-19)
(0.237371 0.237753 3.76614e-19)
(0.283028 0.230112 5.26992e-20)
(0.326279 0.219365 1.91498e-19)
(0.367076 0.207557 2.03572e-19)
(0.405513 0.195759 -4.86037e-20)
(0.441723 0.184438 2.8989e-19)
(0.475846 0.173753 -1.72467e-19)
(0.508013 0.163726 -2.2607e-19)
(0.538345 0.15433 3.63811e-19)
(0.566957 0.145528 4.182e-19)
(0.593954 0.13728 -4.84257e-19)
(0.619426 0.129552 6.7253e-20)
(0.643481 0.122313 -4.50792e-20)
(0.666276 0.115511 -1.60612e-19)
(0.687699 0.109094 6.44308e-20)
(0.13306 0.203844 1.94285e-19)
(0.181604 0.212985 1.41312e-19)
(0.22943 0.211935 -2.03386e-19)
(0.275405 0.205109 9.61647e-20)
(0.319067 0.19553 1.09418e-19)
(0.360303 0.185017 -3.47094e-19)
(0.399172 0.174518 1.7152e-19)
(0.435792 0.164445 1.94713e-20)
(0.4703 0.154939 1.6768e-19)
(0.502825 0.146017 -2.18975e-19)
(0.533492 0.137657 2.76036e-20)
(0.562415 0.129824 -1.75662e-20)
(0.589702 0.122485 2.46324e-20)
(0.615446 0.115607 1.51763e-19)
(0.639753 0.109166 2.75612e-20)
(0.662767 0.103114 -3.43299e-20)
(0.684419 0.0974015 3.95549e-21)
(0.126184 0.178754 -2.92305e-20)
(0.174496 0.186735 1.733e-19)
(0.222421 0.185797 -2.20421e-19)
(0.268677 0.179812 5.53656e-20)
(0.312703 0.171426 -1.97668e-19)
(0.354326 0.162229 5.02103e-22)
(0.393575 0.153047 -3.22413e-19)
(0.430558 0.144239 -2.36668e-19)
(0.465404 0.135927 1.28278e-19)
(0.498246 0.128125 3.42372e-20)
(0.529207 0.120813 -9.13557e-20)
(0.558404 0.113962 1.23471e-19)
(0.585946 0.107542 9.11557e-20)
(0.611929 0.101525 1.54162e-19)
(0.636459 0.0958891 7.65394e-20)
(0.659666 0.0905963 1.77772e-19)
(0.68152 0.0855964 7.266e-20)
(0.0742817 0.134619 2.82228e-19)
(0.120233 0.153356 -1.10905e-19)
(0.168345 0.160187 -5.12172e-20)
(0.216357 0.15938 -9.80927e-20)
(0.262858 0.154258 9.49321e-21)
(0.307197 0.147086 7.03549e-20)
(0.349155 0.139223 2.19674e-19)
(0.388733 0.131375 2.71502e-19)
(0.426027 0.123847 1.06391e-19)
(0.461166 0.116741 -2.57854e-20)
(0.494281 0.110071 -5.63264e-20)
(0.525496 0.103819 -1.43063e-19)
(0.55493 0.0979606 1.74482e-20)
(0.582692 0.0924693 -1.72345e-20)
(0.608882 0.0873221 -1.26185e-19)
(0.633604 0.0825001 -1.3335e-20)
(0.656977 0.0779723 -2.57214e-19)
(0.679007 0.0736925 5.07531e-21)
(0.0698234 0.112102 -1.15492e-19)
(0.115219 0.127696 -6.12642e-21)
(0.163164 0.133385 -1.32136e-20)
(0.21125 0.132726 6.55696e-20)
(0.257956 0.128485 -2.06813e-19)
(0.30256 0.122545 -8.16922e-20)
(0.344798 0.116033 -1.40615e-19)
(0.384652 0.109532 5.67764e-21)
(0.422208 0.103296 4.77393e-20)
(0.457593 0.097409 1.07679e-19)
(0.490937 0.0918812 -2.14195e-20)
(0.522365 0.0866987 9.6147e-20)
(0.551997 0.0818408 -4.74196e-20)
(0.579945 0.0772864 -1.73664e-19)
(0.606309 0.0730163 -1.84555e-20)
(0.631192 0.0690151 -4.08466e-20)
(0.654705 0.065258 1.96497e-19)
(0.676882 0.0617044 -3.3542e-20)
(0.0662087 0.0893791 -2.70363e-20)
(0.111155 0.101819 5.96863e-20)
(0.158964 0.106373 4.68424e-20)
(0.20711 0.105877 1.34781e-20)
(0.253981 0.102533 1.5967e-19)
(0.298798 0.0978388 -4.34649e-20)
(0.341263 0.0926897 3.89928e-20)
(0.381339 0.0875482 4.67759e-20)
(0.419107 0.0826145 3.27535e-20)
(0.45469 0.077955 -8.99627e-20)
(0.488218 0.0735782 1.19389e-19)
(0.519819 0.069473 9.08202e-20)
(0.549612 0.0656232 -3.59897e-20)
(0.577709 0.0620124 1.48051e-19)
(0.604213 0.0586256 2.34512e-19)
(0.629227 0.0554506 -3.4692e-20)
(0.652853 0.052469 8.9214e-20)
(0.67515 0.0496467 -4.06239e-20)
(0.0634465 0.0664942 1.83361e-20)
(0.108048 0.0757733 -9.44821e-20)
(0.155753 0.079197 4.90651e-20)
(0.203944 0.0788742 1.45219e-19)
(0.250941 0.0764393 -1.17557e-19)
(0.295919 0.0730028 -6.8857e-21)
(0.338555 0.069227 3.07248e-20)
(0.3788 0.0654536 6.9117e-20)
(0.416728 0.0618302 6.50969e-21)
(0.452461 0.0584056 -2.25696e-20)
(0.48613 0.0551863 -3.69834e-20)
(0.517861 0.0521645 -3.95429e-20)
(0.547776 0.0493286 1.52519e-20)
(0.575987 0.0466666 1.54835e-20)
(0.602598 0.0441678 -7.89684e-20)
(0.627711 0.0418237 -7.81797e-21)
(0.651423 0.039621 -1.92366e-19)
(0.673811 0.037534 8.09948e-20)
(0.0615435 0.0434928 -8.71564e-21)
(0.105907 0.0496052 4.00509e-20)
(0.153539 0.0519027 -2.35408e-20)
(0.201758 0.0517609 -7.44193e-20)
(0.248839 0.0502438 3.62975e-20)
(0.293926 0.048073 -8.47104e-22)
(0.336679 0.0456778 -1.06351e-19)
(0.377038 0.0432788 6.5061e-20)
(0.415075 0.0409713 -4.42108e-20)
(0.450911 0.0387869 3.54162e-20)
(0.484675 0.03673 -2.93344e-20)
(0.516495 0.034796 1.56138e-20)
(0.546493 0.0329779 2.85722e-20)
(0.574781 0.0312685 -8.44913e-20)
(0.601466 0.0296613 8.0328e-21)
(0.626646 0.028151 -3.88739e-21)
(0.650417 0.0267299 4.88071e-20)
(0.672867 0.025381 1.09908e-21)
(0.0605044 0.0204199 6.01752e-21)
(0.104735 0.0233621 7.5547e-21)
(0.152324 0.0245359 -1.50425e-20)
(0.200555 0.0245797 2.90628e-20)
(0.247679 0.0239856 -1.15452e-20)
(0.292823 0.0230854 3.6232e-20)
(0.335637 0.0220751 3.34594e-20)
(0.376056 0.0210544 -4.19891e-20)
(0.414151 0.0200664 -1.56194e-20)
(0.45004 0.0191252 2.14219e-20)
(0.483855 0.0182336 -1.51522e-20)
(0.515722 0.0173901 -1.95833e-20)
(0.545764 0.0165924 1.70523e-21)
(0.574094 0.0158378 2.04635e-20)
(0.600818 0.0151242 4.03698e-20)
(0.626035 0.0144498 3.03977e-21)
(0.649837 0.0138117 4.56367e-21)
(0.672321 0.0132026 2.03262e-20)
(0.0603313 -0.00267911 4.78932e-21)
(0.104535 -0.00290829 8.94743e-21)
(0.152111 -0.00285765 -7.57933e-21)
(0.200339 -0.00262661 2.75203e-20)
(0.247464 -0.00229593 -1.5335e-20)
(0.292612 -0.00192377 4.0025e-20)
(0.335431 -0.0015477 2.46882e-20)
(0.375856 -0.0011887 -3.33119e-20)
(0.413956 -0.000856217 -1.22834e-20)
(0.449851 -0.000552948 1.53372e-20)
(0.483671 -0.000278284 -1.28479e-20)
(0.515544 -3.03458e-05 -2.52031e-20)
(0.545591 0.000193065 6.67756e-21)
(0.573926 0.000394121 1.82104e-20)
(0.600655 0.000574823 4.14739e-20)
(0.625877 0.00073694 3.58521e-21)
(0.649683 0.000882555 3.18464e-21)
(0.672171 0.00101433 2.16685e-20)
(0.0610244 -0.0257588 3.25767e-20)
(0.105307 -0.0291586 2.51242e-20)
(0.1529 -0.0302318 -2.04137e-20)
(0.201108 -0.0298151 -1.21994e-19)
(0.248193 -0.0285613 7.42121e-20)
(0.293293 -0.0269185 -1.2325e-20)
(0.336061 -0.0251574 -5.82461e-20)
(0.376437 -0.0234199 1.09334e-23)
(0.414491 -0.021768 -3.25786e-20)
(0.450343 -0.0202213 4.27138e-20)
(0.484124 -0.0187812 -4.31759e-20)
(0.51596 -0.0174427 3.65939e-20)
(0.545974 -0.0161989 1.38764e-20)
(0.574277 -0.0150429 -6.72259e-20)
(0.600977 -0.0139685 2.03559e-20)
(0.626172 -0.0129705 -3.31051e-21)
(0.649956 -0.0120417 3.61467e-20)
(0.67242 -0.0111697 3.7533e-21)
(0.0625815 -0.0487737 -4.92829e-20)
(0.107049 -0.0553412 -7.71202e-20)
(0.15469 -0.0575408 8.88838e-20)
(0.202861 -0.056943 1.36485e-19)
(0.249865 -0.0547713 -1.22483e-19)
(0.294863 -0.0518625 3.24999e-20)
(0.337526 -0.0487206 1.58569e-20)
(0.377799 -0.0456085 7.95905e-20)
(0.415755 -0.0426404 -2.15725e-20)
(0.451516 -0.0398533 -7.47839e-20)
(0.485212 -0.0372507 1.53332e-20)
(0.51697 -0.0348242 -5.81396e-20)
(0.546911 -0.0325623 4.66245e-20)
(0.575147 -0.0304536 1.33633e-20)
(0.601783 -0.0284875 -1.05154e-19)
(0.626921 -0.0266554 6.30935e-21)
(0.650654 -0.024945 -1.55309e-19)
(0.673066 -0.023335 3.52751e-20)
(0.0649982 -0.0716788 2.49514e-20)
(0.109756 -0.0814089 3.38266e-20)
(0.157475 -0.0847386 -6.24184e-20)
(0.205594 -0.0839675 1.17238e-20)
(0.252476 -0.0808864 2.04134e-19)
(0.297321 -0.0767198 2.09415e-20)
(0.339822 -0.0722043 4.26105e-20)
(0.379938 -0.0677238 5.99221e-21)
(0.417745 -0.0634451 7.18839e-20)
(0.453367 -0.0594228 -8.00809e-20)
(0.486933 -0.0556623 1.14173e-19)
(0.518571 -0.052152 3.40078e-21)
(0.5484 -0.0488761 -2.91245e-20)
(0.576533 -0.0458182 2.23376e-19)
(0.603073 -0.0429638 1.74701e-19)
(0.628121 -0.0403008 -9.11895e-20)
(0.651777 -0.0378114 1.20935e-19)
(0.674107 -0.0354661 -2.70565e-21)
(0.0682678 -0.0944289 -1.75659e-19)
(0.113421 -0.107314 7.72643e-21)
(0.16125 -0.11178 -3.16646e-20)
(0.209302 -0.110846 -5.04898e-21)
(0.256021 -0.106868 -1.03705e-19)
(0.300661 -0.101454 -1.20531e-19)
(0.342946 -0.0955754 -5.04425e-20)
(0.38285 -0.0897352 -1.74186e-19)
(0.420458 -0.0841539 1.95785e-19)
(0.455892 -0.0789035 4.03334e-20)
(0.489285 -0.0739916 -8.20951e-20)
(0.520761 -0.0694037 1.40483e-19)
(0.55044 -0.0651192 -6.14485e-20)
(0.578434 -0.0611174 -1.39951e-19)
(0.604843 -0.0573795 -3.3057e-20)
(0.629771 -0.0538897 -4.46571e-20)
(0.653322 -0.050625 7.17052e-20)
(0.675542 -0.0475481 -5.48632e-21)
(0.0723815 -0.116979 1.0938e-20)
(0.118036 -0.133011 -2.74351e-20)
(0.166006 -0.138619 -7.7136e-20)
(0.213977 -0.137537 -3.56756e-20)
(0.260493 -0.132676 -6.43673e-20)
(0.304877 -0.126031 4.52803e-20)
(0.346892 -0.118801 2.69921e-19)
(0.386532 -0.111613 2.35602e-19)
(0.423888 -0.104739 1.48721e-19)
(0.459088 -0.0982693 -5.55616e-20)
(0.492263 -0.0922146 3.10573e-20)
(0.523536 -0.0865567 -2.29969e-19)
(0.553027 -0.0812709 8.02329e-20)
(0.580845 -0.0763317 -6.3883e-20)
(0.607092 -0.0717163 -9.06613e-20)
(0.631868 -0.0674054 4.86094e-20)
(0.655287 -0.0633699 -4.15589e-19)
(0.677369 -0.0595665 1.50877e-19)
(0.123589 -0.158452 5.57245e-20)
(0.171733 -0.165211 -2.44279e-20)
(0.219609 -0.163997 -3.71668e-20)
(0.265884 -0.158274 -1.22743e-19)
(0.309962 -0.150414 -2.60353e-20)
(0.351653 -0.141849 -1.10563e-20)
(0.390975 -0.133326 -4.22169e-19)
(0.42803 -0.125172 -3.09235e-19)
(0.462949 -0.117495 1.81255e-19)
(0.495862 -0.110307 2.65135e-20)
(0.526892 -0.103589 6.85507e-20)
(0.556157 -0.0973104 -6.59265e-20)
(0.583765 -0.0914419 3.37795e-19)
(0.609814 -0.0859564 6.66455e-20)
(0.634408 -0.0808311 9.94026e-20)
(0.657669 -0.0760305 2.34191e-19)
(0.679585 -0.0715067 -1.25507e-19)
(0.130067 -0.183592 7.23354e-20)
(0.178418 -0.191512 6.49524e-20)
(0.226186 -0.190186 -9.99008e-20)
(0.272183 -0.183621 1.71895e-19)
(0.315906 -0.174568 2.42766e-20)
(0.357221 -0.164686 -3.13256e-19)
(0.396173 -0.154845 1.97471e-19)
(0.432878 -0.145425 7.90854e-20)
(0.467468 -0.136554 -9.19893e-20)
(0.500076 -0.128246 2.47027e-20)
(0.530822 -0.120478 1.16071e-20)
(0.559823 -0.113217 -9.53309e-20)
(0.587186 -0.106429 2.43801e-19)
(0.613006 -0.100082 -8.56477e-20)
(0.637388 -0.0941505 6.2292e-20)
(0.660464 -0.0885912 1.33632e-19)
(0.682187 -0.0833543 -4.93524e-20)
(0.137455 -0.208386 -9.90411e-20)
(0.186047 -0.217477 -3.57424e-19)
(0.233697 -0.216062 2.40792e-19)
(0.279379 -0.208682 1.15962e-19)
(0.322698 -0.198459 1.99156e-19)
(0.363584 -0.187281 2.14992e-19)
(0.402116 -0.176141 1.37152e-19)
(0.438421 -0.165472 1.81276e-19)
(0.472638 -0.155421 -3.26717e-19)
(0.504898 -0.146007 3.63462e-20)
(0.535321 -0.137203 7.17499e-20)
(0.564021 -0.128972 3.70369e-19)
(0.591105 -0.121274 -2.0223e-19)
(0.616663 -0.114076 -5.07875e-20)
(0.640802 -0.107347 -1.18289e-19)
(0.663668 -0.101037 -7.74972e-20)
(0.68517 -0.0950949 2.0251e-19)
(0.145735 -0.232788 2.46729e-21)
(0.194603 -0.243063 -4.04411e-20)
(0.242125 -0.241585 1.56633e-19)
(0.287457 -0.233418 -3.38124e-19)
(0.330326 -0.222052 -1.91981e-20)
(0.370734 -0.209603 -3.02397e-19)
(0.408794 -0.197185 1.71724e-19)
(0.444652 -0.185286 -2.75618e-19)
(0.47845 -0.174073 2.66369e-19)
(0.51032 -0.163568 2.37137e-19)
(0.54038 -0.153742 -1.94673e-19)
(0.568744 -0.144553 -6.75822e-19)
(0.595514 -0.135959 3.624e-19)
(0.620779 -0.127921 -2.92205e-19)
(0.644646 -0.120405 -6.42903e-20)
(0.667275 -0.113352 2.38635e-19)
(0.688532 -0.106715 -1.96055e-19)
(0.154886 -0.256755 -1.5061e-19)
(0.204067 -0.268228 1.89214e-19)
(0.251453 -0.266715 -3.61593e-19)
(0.296403 -0.257793 6.67065e-20)
(0.338777 -0.245314 -7.34418e-21)
(0.378656 -0.231621 4.16109e-19)
(0.416196 -0.217948 -2.59046e-19)
(0.451559 -0.20484 -5.54746e-20)
(0.484895 -0.192484 7.26353e-20)
(0.516333 -0.180905 -9.13528e-20)
(0.545992 -0.170073 3.54818e-19)
(0.573983 -0.159942 1.96469e-19)
(0.600406 -0.150465 -3.97318e-19)
(0.625347 -0.1416 2.16106e-19)
(0.648913 -0.133308 2.98743e-19)
(0.67128 -0.125523 -5.47095e-19)
(0.692266 -0.118199 1.74239e-21)
(0.164886 -0.280244 1.48821e-19)
(0.214418 -0.292929 2.06302e-19)
(0.261664 -0.291412 1.17891e-19)
(0.3062 -0.28177 4.81464e-19)
(0.348035 -0.268213 -6.07744e-20)
(0.387337 -0.253304 1.9722e-19)
(0.424308 -0.238402 -6.88628e-19)
(0.459131 -0.224108 3.93517e-19)
(0.49196 -0.21063 -2.42325e-19)
(0.522927 -0.197997 7.13067e-20)
(0.552148 -0.186177 -3.84517e-19)
(0.579731 -0.17512 -3.0664e-20)
(0.605775 -0.164775 3.12511e-19)
(0.63036 -0.155096 5.28205e-20)
(0.653596 -0.146042 -1.49934e-20)
(0.675677 -0.137534 2.54646e-20)
(0.696367 -0.129535 -3.52164e-19)
(0.175712 -0.303213 -2.08735e-19)
(0.225634 -0.317126 1.75315e-20)
(0.272735 -0.315639 1.86789e-19)
(0.316829 -0.305316 -4.19489e-19)
(0.358083 -0.290714 4.453e-20)
(0.396762 -0.274623 -4.9428e-19)
(0.433118 -0.25852 5.46867e-19)
(0.467355 -0.243066 -1.43449e-19)
(0.499636 -0.228488 -1.63285e-19)
(0.530091 -0.214822 4.6797e-21)
(0.558837 -0.202033 1.96542e-21)
(0.585978 -0.190068 2.91709e-19)
(0.611611 -0.17887 -4.22761e-20)
(0.635811 -0.168393 -3.72762e-19)
(0.658689 -0.15859 -4.64167e-19)
(0.680458 -0.149372 5.4187e-19)
(0.70083 -0.14071 3.42252e-19)
(0.187338 -0.325621 2.42454e-19)
(0.23769 -0.340779 -3.74907e-19)
(0.284646 -0.339358 -3.55631e-19)
(0.328271 -0.328394 1.41725e-19)
(0.368904 -0.312788 -5.95332e-19)
(0.406915 -0.295548 5.9782e-19)
(0.44261 -0.278275 -2.61187e-19)
(0.476218 -0.261688 -2.63668e-19)
(0.507908 -0.246036 2.30818e-20)
(0.537814 -0.231359 -1.02265e-21)
(0.566048 -0.217622 -3.32636e-20)
(0.592714 -0.204767 2.25218e-19)
(0.617904 -0.192735 -2.14931e-19)
(0.641691 -0.181476 1.10766e-19)
(0.664184 -0.170938 2.41159e-19)
(0.685618 -0.161021 -3.03562e-19)
(0.705647 -0.151709 -6.2418e-20)
(0.199734 -0.347428 -3.42421e-20)
(0.25056 -0.363847 2.65673e-19)
(0.297371 -0.362531 2.38385e-19)
(0.340503 -0.350971 -3.76357e-19)
(0.380478 -0.334403 2.01106e-19)
(0.417778 -0.316052 -1.55362e-19)
(0.452767 -0.297642 -1.15146e-20)
(0.485703 -0.27995 3.9695e-20)
(0.516763 -0.26325 -9.52528e-20)
(0.546082 -0.247587 1.88584e-19)
(0.57377 -0.232923 -1.02048e-19)
(0.599928 -0.2192 -3.06273e-19)
(0.624646 -0.206352 4.3761e-19)
(0.647991 -0.194328 2.72633e-19)
(0.670073 -0.183072 -3.50671e-19)
(0.691147 -0.17247 2.03649e-19)
(0.710813 -0.16252 2.99702e-19)
(0.264215 -0.386294 5.18497e-20)
(0.310886 -0.385124 1.91262e-19)
(0.353502 -0.373014 3.75782e-19)
(0.392784 -0.355529 2.83317e-19)
(0.429331 -0.336106 5.48871e-19)
(0.463573 -0.316594 -5.08744e-20)