/*--------------------------------*- C++ -*----------------------------------*\
  =========                 |
  \\      /  F ield         | OpenFOAM: The Open Source CFD Toolbox
   \\    /   O peration     | Website:  https://openfoam.org
    \\  /    A nd           | Version:  7
     \\/     M anipulation  |
\*---------------------------------------------------------------------------*/
FoamFile
{
    version     2.0;
    format      ascii;
    class       volVectorField;
    location    "85";
    object      U;
}
// * * * * * * * * * * * * * * * * * * * * * * * * * * * * * * * * * * * * * //

dimensions      [0 1 -1 0 0 0 0];

internalField   nonuniform List<vector> 
8500
(
(1.05441 0.357356 -5.64677e-22)
(1.0431 0.37518 -2.1916e-20)
(1.04366 0.357531 5.26791e-20)
(1.03005 0.395205 -3.87722e-20)
(1.03147 0.375108 7.46551e-20)
(1.0328 0.357353 -8.96483e-20)
(1.01623 0.41711 -2.93456e-20)
(1.01772 0.394919 1.17377e-19)
(1.01971 0.374669 -6.6855e-20)
(1.02184 0.356807 2.07186e-20)
(1.00325 0.416582 5.29216e-20)
(1.00532 0.394259 7.06695e-20)
(1.00786 0.373858 -2.3217e-19)
(1.01079 0.355876 5.35339e-20)
(0.988153 0.4394 7.77095e-20)
(0.990237 0.415641 -9.79332e-20)
(0.992889 0.393219 4.71641e-20)
(0.995919 0.372664 2.59481e-19)
(0.999653 0.354528 1.58843e-19)
(0.971846 0.463388 -3.29745e-20)
(0.974404 0.438122 -1.26576e-19)
(0.977218 0.41428 -4.63452e-20)
(0.980439 0.391796 -1.57759e-19)
(0.98391 0.371075 8.81336e-20)
(0.988445 0.352722 -1.88895e-19)
(0.957239 0.461715 -2.95982e-20)
(0.960636 0.436383 -2.04024e-20)
(0.964206 0.41249 9.05643e-20)
(0.967994 0.389984 1.8304e-19)
(0.97187 0.369079 -3.10097e-19)
(0.977296 0.350429 2.13837e-19)
(0.938403 0.486447 -4.41892e-21)
(0.942607 0.459544 -5.69015e-21)
(0.946862 0.434175 1.67707e-19)
(0.95121 0.410263 -6.5314e-20)
(0.955564 0.387768 -1.33065e-19)
(0.959906 0.366652 -5.9428e-21)
(0.966475 0.347662 -3.05945e-19)
(0.92284 0.483784 -8.8759e-20)
(0.927966 0.456871 5.09234e-20)
(0.933092 0.431496 1.42015e-19)
(0.938223 0.40759 4.51301e-20)
(0.94317 0.385124 -2.58878e-19)
(0.948208 0.363718 -9.26478e-21)
(0.956012 0.344363 9.49343e-20)
(0.901138 0.509108 -5.26576e-20)
(0.907281 0.480584 -1.29784e-20)
(0.913334 0.453695 -1.53653e-19)
(0.919331 0.428345 -8.1239e-20)
(0.925243 0.404476 -9.21275e-20)
(0.93086 0.382061 3.0749e-19)
(0.936961 0.360284 -7.2643e-20)
(0.945081 0.339302 2.77466e-19)
(0.877277 0.53547 -1.63774e-19)
(0.884611 0.50531 7.29528e-20)
(0.891746 0.476843 1.19992e-19)
(0.898728 0.450017 4.95878e-20)
(0.905592 0.424728 1.37215e-19)
(0.912285 0.400923 6.7585e-20)
(0.918668 0.378577 -1.78473e-20)
(0.925814 0.356836 1.54049e-19)
(0.934161 0.335785 2.51921e-20)
(0.859736 0.531003 -7.72508e-20)
(0.868129 0.500932 -2.27521e-19)
(0.876258 0.472563 -1.45815e-20)
(0.884169 0.445837 -1.02148e-19)
(0.891893 0.420647 1.60688e-19)
(0.89937 0.396938 -2.51002e-19)
(0.906513 0.374671 -6.45042e-20)
(0.91443 0.352966 -9.8585e-20)
(0.922922 0.331862 -3.61484e-19)
(0.832352 0.557504 -2.56074e-20)
(0.842261 0.52591 -1.02721e-20)
(0.851714 0.495972 -3.85713e-20)
(0.860837 0.467743 -8.03389e-20)
(0.869676 0.441156 -1.16931e-19)
(0.878259 0.416102 6.39781e-20)
(0.886523 0.392526 2.02738e-19)
(0.894423 0.370372 -1.11029e-19)
(0.903022 0.348773 1.46581e-19)
(0.911783 0.327825 4.20018e-19)
(0.813849 0.551621 -3.62954e-19)
(0.824878 0.52019 -1.77719e-19)
(0.835392 0.490431 4.73305e-20)
(0.845508 0.462384 6.74702e-20)
(0.855271 0.435976 2.39824e-19)
(0.86471 0.411097 -3.38431e-19)
(0.873762 0.387689 1.0055e-19)
(0.882409 0.365684 6.06003e-20)
(0.891654 0.344247 -8.73011e-20)
(0.900775 0.323558 -3.16021e-19)
(0.795464 0.545063 1.92379e-19)
(0.807615 0.513846 3.14227e-19)
(0.819187 0.484311 2.59228e-19)
(0.830292 0.456487 1.91898e-19)
(0.840976 0.430297 -4.16417e-19)
(0.851267 0.405631 -4.37388e-21)
(0.861107 0.382429 -1.13781e-19)
(0.870493 0.360611 4.43433e-19)
(0.880374 0.339388 -1.88713e-20)
(0.889915 0.31901 -2.21459e-19)
(0.763044 0.570197 -2.71601e-19)
(0.777226 0.537833 6.15279e-21)
(0.790496 0.506879 1.05679e-19)
(0.803123 0.477613 -1.6737e-19)
(0.815212 0.450055 -2.11254e-19)
(0.826813 0.424124 5.37973e-19)
(0.837952 0.399708 2.18448e-19)
(0.848577 0.376748 -2.27923e-19)
(0.858697 0.355155 -2.63656e-19)
(0.869213 0.334191 -2.99227e-19)
(0.879216 0.314158 -2.75279e-20)
(0.743821 0.56201 1.44954e-19)
(0.759165 0.529934 5.73058e-20)
(0.773548 0.499292 -2.92831e-19)
(0.787224 0.470342 3.11873e-19)
(0.800292 0.443092 1.925e-19)
(0.812802 0.417457 -7.53597e-20)
(0.824785 0.39333 -1.47652e-19)
(0.836191 0.370647 1.29658e-19)
(0.847042 0.349315 -2.26843e-19)
(0.858195 0.328649 -3.17885e-19)
(0.868691 0.308984 3.07386e-19)
(0.706742 0.585502 4.60486e-19)
(0.724807 0.553104 -2.32216e-19)
(0.741308 0.521371 2.87444e-19)
(0.756798 0.491092 -3.34229e-19)
(0.771514 0.462501 4.41097e-20)
(0.785553 0.4356 -1.34715e-19)
(0.798966 0.410302 9.85418e-20)
(0.811787 0.386499 9.38514e-20)
(0.823969 0.364128 -5.85024e-20)
(0.835547 0.343093 5.66729e-19)
(0.847338 0.322758 -7.64307e-20)
(0.858349 0.30348 -2.63169e-19)
(0.686804 0.575542 -3.34607e-19)
(0.706032 0.543486 4.85866e-19)
(0.723684 0.512151 -5.20786e-20)
(0.740271 0.482282 1.39231e-19)
(0.756018 0.454096 1.71063e-19)
(0.771018 0.427585 6.90963e-20)
(0.785326 0.402662 -4.75119e-19)
(0.798976 0.379219 1.08023e-19)
(0.811929 0.357194 1.01556e-19)
(0.824229 0.336489 -3.4187e-19)
(0.836657 0.316515 1.28628e-19)
(0.8482 0.297639 5.00708e-20)
(0.644163 0.595504 -4.97965e-20)
(0.667141 0.564818 -6.18947e-21)
(0.687527 0.533165 7.93546e-20)
(0.706319 0.50228 -1.35404e-19)
(0.723993 0.472871 -1.91503e-20)
(0.740759 0.445133 -5.31885e-19)
(0.75671 0.419052 -4.12063e-19)
(0.771901 0.394541 -6.99595e-20)
(0.786372 0.371495 -5.94918e-20)
(0.800089 0.349849 -6.66991e-20)
(0.813105 0.329504 -1.37095e-19)
(0.826168 0.309919 -1.60067e-19)
(0.838251 0.291458 -2.15918e-19)
(0.623709 0.583679 -9.72001e-20)
(0.647785 0.55334 -4.51719e-20)
(0.669322 0.522148 -4.68865e-19)
(0.689242 0.491768 -4.47767e-19)
(0.707989 0.462865 8.30885e-20)
(0.72576 0.435618 7.33903e-19)
(0.742649 0.410008 1.10021e-19)
(0.758713 0.385947 2.99288e-19)
(0.773994 0.363331 -4.69463e-19)
(0.788466 0.342095 -1.12135e-19)
(0.802191 0.322142 5.62337e-19)
(0.815883 0.302971 2.51301e-19)
(0.828513 0.28494 1.03999e-18)
(0.603599 0.571045 -6.23102e-20)
(0.62877 0.541119 3.20724e-19)
(0.651446 0.510448 -2.01974e-19)
(0.67248 0.480623 1.48767e-19)
(0.692284 0.452273 3.4361e-19)
(0.711045 0.42556 -2.36677e-19)
(0.728857 0.40046 6.05539e-20)
(0.745781 0.376884 2.97054e-19)
(0.761861 0.354732 3.77009e-19)
(0.777078 0.333938 -1.98764e-19)
(0.791503 0.314405 -1.14441e-19)
(0.805816 0.295674 1.75994e-19)
(0.818995 0.278086 -5.14901e-19)
(0.553676 0.583261 7.24649e-20)
(0.583868 0.557616 2.04194e-19)
(0.610127 0.528168 -3.05664e-19)
(0.633928 0.498076 7.30206e-19)
(0.656059 0.468857 3.08322e-19)
(0.676902 0.441106 -1.03706e-19)
(0.696637 0.414968 -3.30515e-20)
(0.715356 0.390416 1.41175e-19)
(0.733124 0.367361 -3.94427e-19)
(0.749989 0.345706 3.28397e-20)
(0.765939 0.325384 -2.58531e-19)
(0.781054 0.306299 -1.15428e-19)
(0.795979 0.288031 -5.16128e-19)
(0.809705 0.2709 -2.25611e-19)
(0.533434 0.568723 -2.55721e-19)
(0.564552 0.543408 1.38872e-19)
(0.591888 0.514503 -8.52244e-20)
(0.616798 0.485044 -2.64902e-19)
(0.640006 0.456482 2.91507e-19)
(0.661868 0.429373 3.14471e-19)
(0.682556 0.403852 -8.6671e-22)
(0.702165 0.379885 -7.29136e-20)
(0.720761 0.357386 -4.15127e-20)
(0.738397 0.336259 3.12791e-19)
(0.755067 0.316438 2.81756e-19)
(0.770859 0.297829 7.95031e-20)
(0.786384 0.280047 5.44435e-19)
(0.800655 0.263388 1.79031e-19)
(0.513643 0.553354 -9.35746e-20)
(0.545684 0.52844 -1.59278e-19)
(0.574083 0.500138 -6.10777e-20)
(0.600082 0.471368 -9.17427e-21)
(0.624345 0.44351 -6.36435e-19)
(0.647204 0.417087 -8.14661e-19)
(0.668826 0.392222 -1.27063e-19)
(0.689305 0.368878 2.88474e-19)
(0.708711 0.346969 -1.14517e-19)
(0.727101 0.326401 -5.87509e-19)
(0.744477 0.30711 5.5652e-19)
(0.760931 0.289003 8.08134e-20)
(0.777044 0.271729 -2.27495e-19)
(0.791854 0.255556 3.60638e-19)
(0.455993 0.553353 1.07845e-19)
(0.49434 0.537176 3.76618e-19)
(0.527297 0.512728 -1.31995e-19)
(0.556743 0.48509 2.02014e-19)
(0.583807 0.457061 3.88865e-19)
(0.609101 0.429955 2.14395e-19)
(0.632935 0.404262 9.09902e-19)
(0.655467 0.380091 4.21359e-19)
(0.676795 0.357404 -3.48856e-20)
(0.696991 0.336118 -2.24099e-20)
(0.716118 0.31614 7.47905e-20)
(0.734183 0.297406 -6.15722e-19)
(0.751285 0.279827 -3.32196e-19)
(0.76797 0.263082 1.43946e-19)
(0.783312 0.247411 -5.00621e-19)
(0.436609 0.536235 8.12246e-20)
(0.475559 0.520211 -4.80881e-19)
(0.509423 0.496293 3.66787e-19)
(0.539895 0.469378 -1.7127e-19)
(0.568 0.442142 -3.98377e-19)
(0.594299 0.415832 -9.73123e-20)
(0.619081 0.390909 -3.75526e-19)
(0.6425 0.367471 -7.90172e-19)
(0.664654 0.345477 6.83871e-20)
(0.68562 0.324845 6.3775e-19)
(0.705463 0.305486 -2.81131e-19)
(0.7242 0.287336 3.45011e-19)
(0.741932 0.27031 4.68266e-19)
(0.759174 0.254114 3.03314e-19)
(0.77504 0.238962 2.32931e-19)
(0.417781 0.518288 2.92089e-19)
(0.457337 0.502481 5.11034e-19)
(0.492093 0.479157 -6.24106e-19)
(0.523568 0.45302 4.96509e-19)
(0.552688 0.426627 3.99726e-19)
(0.579963 0.401159 -1.16532e-19)
(0.605665 0.377046 -6.22386e-20)
(0.629945 0.354376 2.30354e-19)
(0.652901 0.333108 -4.00326e-19)
(0.674615 0.313161 -5.40294e-19)
(0.695154 0.29445 2.06766e-19)
(0.714542 0.276911 -2.11941e-19)
(0.732886 0.260461 -2.54078e-19)
(0.750668 0.244835 -2.22537e-19)
(0.767046 0.230216 2.26191e-20)
(0.399544 0.499539 -5.06351e-19)
(0.439707 0.48401 -4.02403e-20)
(0.475338 0.461341 2.99808e-20)
(0.50779 0.436037 -5.19118e-20)
(0.537893 0.410535 -5.02052e-19)
(0.566115 0.38595 -2.24997e-20)
(0.592709 0.362686 -8.32926e-20)
(0.617821 0.340821 5.07433e-19)
(0.641554 0.320312 -1.59301e-19)
(0.66399 0.30108 -4.58946e-20)
(0.685204 0.283044 2.73029e-19)
(0.705223 0.26614 8.02609e-19)
(0.72416 0.250289 -8.16751e-20)
(0.742463 0.235254 -9.8062e-20)
(0.759341 0.221184 1.69002e-19)
(0.335209 0.481473 3.63234e-19)
(0.381937 0.480015 -2.15472e-19)
(0.4227 0.464826 -3.50535e-19)
(0.459187 0.442868 3.48414e-19)
(0.492587 0.41845 -1.17332e-19)
(0.523642 0.393885 3.29689e-19)
(0.552777 0.370226 1.51935e-19)
(0.580231 0.347848 -8.98753e-20)
(0.606147 0.326821 -3.45148e-19)
(0.630629 0.307102 4.31576e-19)
(0.653764 0.288614 -1.09276e-19)
(0.675627 0.271279 -4.79606e-19)
(0.696257 0.255035 -1.6551e-19)
(0.715765 0.239807 -5.2644e-20)
(0.734571 0.225379 8.34644e-19)
(0.751935 0.211875 -5.4107e-19)
(0.318154 0.461474 -2.69423e-19)
(0.364992 0.459745 5.33987e-19)
(0.406349 0.444953 9.69539e-20)
(0.443667 0.423765 2.64827e-19)
(0.477983 0.400283 1.98225e-19)
(0.509955 0.376699 -5.4627e-19)
(0.53997 0.354005 -2.88671e-19)
(0.568252 0.332548 5.39737e-19)
(0.594941 0.312392 -1.78618e-20)
(0.620144 0.293493 -4.46777e-19)
(0.64395 0.275777 1.1519e-19)
(0.666439 0.259169 5.60093e-19)
(0.687656 0.243608 -4.5712e-19)
(0.707713 0.229024 -1.87064e-19)
(0.727001 0.215223 -1.65068e-19)
(0.744837 0.202299 3.70199e-19)
(0.301781 0.440713 -3.64759e-19)
(0.348743 0.438761 -1.59126e-19)
(0.390682 0.424422 -6.74655e-20)
(0.428805 0.404056 -5.2887e-19)
(0.464003 0.381557 -4.05223e-19)
(0.496857 0.358998 5.41932e-19)
(0.527716 0.337306 3.02887e-19)
(0.556791 0.316806 -2.38641e-19)
(0.584221 0.297552 -2.78462e-19)
(0.610114 0.279502 3.03832e-19)
(0.634564 0.262585 -1.73511e-19)
(0.657653 0.246728 2.51884e-19)
(0.679432 0.231873 1.21693e-19)
(0.700016 0.217953 4.76852e-19)
(0.719766 0.204795 9.63498e-20)
(0.738055 0.192468 -4.37877e-19)
(0.286124 0.419223 -7.49543e-20)
(0.333222 0.417093 -2.13793e-19)
(0.375728 0.403261 1.88283e-19)
(0.414626 0.383768 7.03433e-20)
(0.450671 0.362299 -2.11468e-19)
(0.484367 0.340804 1.42429e-19)
(0.516032 0.320151 -3.80646e-19)
(0.545865 0.30064 -8.52884e-20)
(0.574003 0.282318 3.52726e-19)
(0.600555 0.265145 1.26464e-19)
(0.625619 0.249051 1.99887e-19)
(0.649281 0.233969 -3.80949e-19)
(0.671598 0.219841 -1.47974e-19)
(0.692684 0.206606 -5.02241e-20)
(0.712873 0.194107 7.05635e-20)
(0.7316 0.182393 4.02625e-19)
(0.271217 0.397039 -1.67545e-19)
(0.318458 0.394775 3.69796e-19)
(0.361514 0.3815 5.92117e-19)
(0.401156 0.362929 1.70015e-19)
(0.438008 0.342534 2.3254e-19)
(0.472507 0.322141 -3.17559e-21)
(0.504939 0.302561 1.1227e-19)
(0.535491 0.28407 3.96738e-19)
(0.564302 0.26671 -5.85099e-20)
(0.591481 0.250439 -7.19871e-19)
(0.61713 0.235193 6.2422e-21)
(0.641337 0.220908 4.09139e-20)
(0.664164 0.207528 3.81668e-20)
(0.685728 0.194995 -2.37042e-19)
(0.706335 0.183172 -2.20851e-19)
(0.725479 0.172084 -4.33327e-19)
(0.205488 0.358426 -1.12535e-19)
(0.257092 0.374198 2.2365e-19)
(0.304481 0.371841 2.2098e-19)
(0.348066 0.359171 -2.20431e-19)
(0.388417 0.341568 2.66863e-20)
(0.426035 0.322287 -1.45972e-19)
(0.461295 0.303034 3.6699e-20)
(0.494452 0.28456 -4.46525e-21)
(0.525687 0.267118 -1.77537e-19)
(0.555134 0.250745 -8.02647e-20)
(0.582907 0.235402 4.78502e-19)
(0.609108 0.221028 -3.61317e-19)
(0.633831 0.20756 2.43611e-19)
(0.657142 0.194947 9.96721e-20)
(0.679157 0.183135 -2.30783e-20)
(0.700158 0.172003 7.46898e-21)
(0.7197 0.161556 2.38706e-19)
(0.192657 0.336191 3.12214e-19)
(0.243777 0.350736 -1.73327e-19)
(0.291317 0.348325 -3.06674e-19)
(0.335408 0.336306 -1.8684e-19)
(0.37643 0.319714 -3.64647e-19)
(0.414773 0.301587 3.00316e-19)
(0.450749 0.283507 -2.47387e-19)
(0.484591 0.266169 5.32573e-20)
(0.516467 0.249804 3.77692e-20)
(0.546514 0.234445 -1.64763e-19)
(0.574845 0.220053 1.92946e-19)
(0.601567 0.206571 2.93307e-19)
(0.626775 0.193941 -2.62328e-19)
(0.650541 0.182114 -3.01888e-19)
(0.672981 0.17104 5.81909e-19)
(0.694353 0.160611 -5.27017e-19)
(0.714271 0.150819 1.93854e-19)
(0.180621 0.313358 -2.60716e-19)
(0.2313 0.326691 5.55762e-20)
(0.278991 0.324265 1.21734e-19)
(0.323562 0.312939 -4.27627e-19)
(0.365217 0.297399 7.00782e-20)
(0.404239 0.280461 -2.93125e-19)
(0.440887 0.263587 2.50956e-19)
(0.475369 0.247413 6.01218e-20)
(0.507846 0.232152 -2.7554e-19)
(0.538454 0.21783 -6.28565e-20)
(0.567308 0.204411 1.50266e-19)
(0.594517 0.191842 7.13828e-20)
(0.620179 0.180068 -2.12319e-20)
(0.644372 0.169044 1.75872e-20)
(0.667209 0.158723 -5.12015e-19)
(0.688927 0.149012 3.67294e-19)
(0.709199 0.139887 3.43511e-19)
(0.16941 0.289968 2.38215e-19)
(0.219688 0.302105 1.6334e-19)
(0.267527 0.299697 3.11151e-19)
(0.312549 0.289103 4.34187e-20)
(0.354795 0.274653 3.03919e-20)
(0.394451 0.258938 -2.252e-21)
(0.431725 0.243299 -3.20923e-19)
(0.466802 0.228317 1.695e-19)
(0.499838 0.214183 -2.75067e-19)
(0.530966 0.200921 1.82609e-19)
(0.560307 0.188496 -2.95466e-19)
(0.587969 0.176858 -1.74876e-19)
(0.614053 0.165958 3.56224e-19)
(0.638642 0.155752 3.18555e-20)
(0.661849 0.1462 8.08983e-20)
(0.683889 0.137218 3.30825e-20)
(0.704492 0.128773 -3.78577e-19)
(0.159047 0.266061 -1.59647e-19)
(0.208964 0.277016 1.01404e-19)
(0.256946 0.27466 -2.29387e-19)
(0.30239 0.264835 1.75603e-19)
(0.345184 0.251509 2.50699e-20)
(0.385425 0.237048 1.49918e-19)
(0.423276 0.222672 -5.5952e-21)
(0.458903 0.208906 -1.49097e-19)
(0.492454 0.195921 1.48071e-19)
(0.524064 0.183739 -3.84316e-19)
(0.553852 0.172327 5.40296e-19)
(0.581932 0.161638 2.08352e-19)
(0.608407 0.151628 -4.39379e-19)
(0.633362 0.142256 4.45061e-20)
(0.65691 0.133485 2.90531e-19)
(0.679246 0.125244 -4.1427e-19)
(0.700155 0.117491 -2.09502e-21)
(0.149556 0.24168 1.04916e-19)
(0.199149 0.251467 -8.64733e-20)
(0.247268 0.249191 -4.33214e-20)
(0.293101 0.240169 -8.80886e-20)
(0.336399 0.227999 -1.12909e-19)
(0.377177 0.214821 -3.15812e-19)
(0.415555 0.201732 1.38803e-19)
(0.451684 0.189205 -1.94996e-19)
(0.485707 0.177391 3.60888e-19)
(0.517756 0.166308 2.4561e-19)
(0.547955 0.155925 -4.35955e-19)
(0.576417 0.146202 -4.41615e-19)
(0.603248 0.137097 2.12257e-19)
(0.628538 0.128572 -2.38461e-19)
(0.652397 0.120595 -2.96407e-20)
(0.675003 0.113105 2.37309e-19)
(0.696194 0.106054 -4.42833e-19)
(0.14096 0.216869 -1.68714e-19)
(0.190265 0.2255 -2.43277e-19)
(0.238512 0.223331 3.58808e-19)
(0.2847 0.215142 5.00237e-20)
(0.328455 0.204157 1.81793e-19)
(0.369718 0.192288 1.92945e-19)
(0.408575 0.18051 -4.59668e-20)
(0.445158 0.169241 2.73643e-19)
(0.479607 0.158617 -1.62491e-19)
(0.512054 0.148649 -2.12253e-19)
(0.542624 0.139313 3.40845e-19)
(0.571431 0.130569 3.9048e-19)
(0.598585 0.122381 -4.51494e-19)
(0.624177 0.114716 6.23986e-20)
(0.648318 0.107545 -4.18508e-20)
(0.671169 0.100815 -1.48428e-19)
(0.692615 0.0944765 5.93067e-20)
(0.133276 0.191671 1.85615e-19)
(0.182329 0.199157 1.34771e-19)
(0.230694 0.19712 -1.93854e-19)
(0.277201 0.189791 9.15502e-20)
(0.321365 0.180017 1.04021e-19)
(0.363062 0.169479 -3.29228e-19)
(0.402346 0.159032 1.62408e-19)
(0.439334 0.149041 1.8453e-20)
(0.474163 0.139622 1.57854e-19)
(0.506966 0.130787 -2.05931e-19)
(0.537866 0.12251 2.59727e-20)
(0.566982 0.114759 -1.6427e-20)
(0.594423 0.107501 2.28816e-20)
(0.620286 0.100707 1.41124e-19)
(0.644678 0.0943511 2.54829e-20)
(0.667747 0.08839 -3.16829e-20)
(0.689422 0.0827727 3.73683e-21)
(0.126522 0.166132 -2.7897e-20)
(0.175357 0.172483 1.65476e-19)
(0.223829 0.170598 -2.10218e-19)
(0.270618 0.164154 5.27507e-20)
(0.315141 0.155614 -1.87915e-19)
(0.35722 0.146427 4.5514e-22)
(0.396878 0.13733 -3.05409e-19)
(0.434222 0.128633 -2.23803e-19)
(0.469385 0.120434 1.20803e-19)
(0.502499 0.112743 3.2113e-20)
(0.53369 0.105539 -8.56843e-20)
(0.563077 0.0987921 1.1557e-19)
(0.590771 0.0924747 8.50871e-20)
(0.616871 0.0865611 1.43595e-19)
(0.641484 0.08103 7.11722e-20)
(0.664744 0.075845 1.6476e-19)
(0.68662 0.0709569 6.70296e-20)
(0.0742966 0.124052 2.70092e-19)
(0.120714 0.140297 -1.06041e-19)
(0.169364 0.145521 -4.89126e-20)
(0.217929 0.143807 -9.35865e-20)
(0.264961 0.138268 9.0775e-21)
(0.309794 0.130982 6.69115e-20)
(0.352201 0.123164 2.08538e-19)
(0.39218 0.115432 2.57209e-19)
(0.42983 0.108042 1.00498e-19)
(0.465279 0.101077 -2.4335e-20)
(0.498661 0.094543 -5.29477e-20)
(0.530101 0.0884217 -1.34328e-19)
(0.559721 0.0826892 1.63749e-20)
(0.587632 0.0773215 -1.60568e-20)
(0.613936 0.0722971 -1.17573e-19)
(0.638738 0.0675983 -1.22438e-20)
(0.662163 0.0631956 -2.38176e-19)
(0.684213 0.0590438 4.64817e-21)
(0.0699746 0.101126 -1.10519e-19)
(0.115863 0.114212 -5.85652e-21)
(0.164361 0.118316 -1.26265e-20)
(0.213005 0.116789 6.25281e-20)
(0.260241 0.112173 -1.97099e-19)
(0.305333 0.106156 -7.77101e-20)
(0.348013 0.0997233 -1.33511e-19)
(0.38826 0.0933685 5.35649e-21)
(0.426165 0.0872986 4.51154e-20)
(0.461853 0.0815775 1.01669e-19)
(0.495457 0.0762099 -2.02366e-20)
(0.527105 0.071181 9.02247e-20)
(0.556919 0.0664711 -4.44708e-20)
(0.585011 0.0620609 -1.62377e-19)
(0.611486 0.0579328 -1.72953e-20)
(0.636446 0.0540729 -3.79548e-20)
(0.660008 0.0504579 1.81972e-19)
(0.682203 0.0470483 -3.12021e-20)
(0.0665141 0.0780062 -2.5861e-20)
(0.111981 0.0879238 5.7106e-20)
(0.160359 0.0909134 4.4749e-20)
(0.209067 0.0895854 1.28202e-20)
(0.256466 0.0859063 1.52144e-19)
(0.301764 0.0811733 -4.13545e-20)
(0.344662 0.0761366 3.70795e-20)
(0.385124 0.0711705 4.43584e-20)
(0.423231 0.0664297 3.10219e-20)
(0.45911 0.0619614 -8.4885e-20)
(0.492892 0.0577685 1.12523e-19)
(0.524707 0.0538392 8.53526e-20)
(0.554676 0.0501588 -3.37913e-20)
(0.582913 0.0467123 1.38411e-19)
(0.609524 0.0434864 2.18675e-19)
(0.634611 0.0404707 -3.23104e-20)
(0.658282 0.0376478 8.26804e-20)
(0.680595 0.0349853 -3.76246e-20)
(0.0639234 0.0547379 1.75495e-20)
(0.109077 0.0614792 -9.03653e-20)
(0.157365 0.063359 4.68799e-20)
(0.206121 0.0622397 1.38599e-19)
(0.253642 0.0595083 -1.12035e-19)
(0.299094 0.0560689 -6.53258e-21)
(0.342155 0.0524376 2.92238e-20)
(0.382776 0.0488683 6.55716e-20)
(0.421035 0.045464 6.19168e-21)
(0.457056 0.0422552 -2.13343e-20)
(0.490971 0.0392431 -3.48545e-20)
(0.52291 0.0364193 -3.71539e-20)
(0.552995 0.0337736 1.43069e-20)
(0.58134 0.0312957 1.45076e-20)
(0.608053 0.0289764 -7.36569e-20)
(0.633236 0.0268089 -7.27016e-21)
(0.656988 0.0247814 -1.78408e-19)
(0.679389 0.0228695 7.49413e-20)
(0.0622086 0.031366 -8.33793e-21)
(0.107155 0.0349256 3.83027e-20)
(0.155385 0.0356984 -2.24876e-20)
(0.204173 0.0347942 -7.10268e-20)
(0.251774 0.0330179 3.45811e-20)
(0.297327 0.0308792 -8.0919e-22)
(0.340494 0.0286597 -1.01029e-19)
(0.38122 0.0264928 6.17019e-20)
(0.419578 0.0244301 -4.18662e-20)
(0.455693 0.0224855 3.34351e-20)
(0.489696 0.0206584 -2.76593e-20)
(0.521716 0.0189441 1.46667e-20)
(0.551878 0.0173367 2.67868e-20)
(0.580295 0.0158307 -7.90525e-20)
(0.607076 0.0144213 7.49627e-21)
(0.632321 0.0131049 -3.60014e-21)
(0.656128 0.011875 4.52958e-20)
(0.678586 0.0107158 1.01576e-21)
(0.0613735 0.00793582 5.75504e-21)
(0.106221 0.00831049 7.21662e-21)
(0.154422 0.00797769 -1.43685e-20)
(0.203226 0.00729196 2.77316e-20)
(0.250865 0.00647474 -1.10001e-20)
(0.296466 0.00564055 3.44738e-20)
(0.339684 0.00483635 3.17789e-20)
(0.380459 0.00407502 -3.98188e-20)
(0.418864 0.00335673 -1.47721e-20)
(0.455023 0.0026789 2.02427e-20)
(0.489068 0.00203935 -1.42782e-20)
(0.521128 0.0014366 -1.84035e-20)
(0.551327 0.000869623 1.62305e-21)
(0.579779 0.000337528 1.91702e-20)
(0.606593 -0.000160325 3.76841e-20)
(0.631869 -0.000623987 2.82909e-21)
(0.655702 -0.00105484 4.23651e-21)
(0.678188 -0.00145879 1.8807e-20)
(0.0614198 -0.0155071 4.57985e-21)
(0.106275 -0.0183186 8.54683e-21)
(0.154479 -0.0197571 -7.23758e-21)
(0.203281 -0.020224 2.62402e-20)
(0.250916 -0.0200816 -1.46052e-20)
(0.296512 -0.0196106 3.80669e-20)
(0.339723 -0.0189989 2.34389e-20)
(0.380493 -0.018354 -3.15768e-20)
(0.418893 -0.0177273 -1.16193e-20)
(0.455048 -0.0171378 1.44885e-20)
(0.489089 -0.0165893 -1.21062e-20)
(0.521146 -0.01608 -2.36853e-20)
(0.551343 -0.0156061 6.29084e-21)
(0.579793 -0.015164 1.70638e-20)
(0.606605 -0.0147498 3.8723e-20)
(0.63188 -0.0143604 3.33719e-21)
(0.655712 -0.0139918 2.95852e-21)
(0.678198 -0.0136396 2.00564e-20)
(0.0623468 -0.0389174 3.11243e-20)
(0.107317 -0.0449139 2.39776e-20)
(0.155554 -0.0474599 -1.94742e-20)
(0.204338 -0.0477106 -1.16276e-19)
(0.251927 -0.0466114 7.06681e-20)
(0.297464 -0.0448378 -1.17244e-20)
(0.340613 -0.0428124 -5.53103e-20)
(0.381322 -0.0407632 1.28303e-23)
(0.419665 -0.0387932 -3.07953e-20)
(0.455767 -0.0369379 4.03397e-20)
(0.489758 -0.0352028 -4.06627e-20)
(0.52177 -0.0335826 3.4419e-20)
(0.551925 -0.0320691 1.30242e-20)
(0.580336 -0.0306538 -6.28971e-20)
(0.607112 -0.0293287 1.89894e-20)
(0.632354 -0.028087 -3.09899e-21)
(0.656157 -0.02692 3.35521e-20)
(0.678614 -0.0258134 3.47353e-21)
(0.0641517 -0.0622495 -4.70658e-20)
(0.109344 -0.071428 -7.35831e-20)
(0.157646 -0.0750846 8.4754e-20)
(0.206395 -0.0751249 1.30032e-19)
(0.253896 -0.0730752 -1.16569e-19)
(0.29932 -0.0700048 3.08605e-20)
(0.342352 -0.0665707 1.50364e-20)
(0.382945 -0.0631216 7.53738e-20)
(0.421179 -0.0598122 -2.04085e-20)
(0.457178 -0.0566946 -7.05928e-20)
(0.491075 -0.0537762 1.44746e-20)
(0.522999 -0.0510483 -5.46416e-20)
(0.553072 -0.0484979 4.37151e-20)
(0.581408 -0.0461119 1.24698e-20)
(0.608113 -0.0438782 -9.81523e-20)
(0.633291 -0.0417865 5.87131e-21)
(0.657036 -0.0398229 -1.44227e-19)
(0.679434 -0.037964 3.26329e-20)
(0.0668296 -0.0854584 2.37959e-20)
(0.112352 -0.0978134 3.22613e-20)
(0.160748 -0.102585 -5.9507e-20)
(0.209447 -0.102424 1.11417e-20)
(0.256818 -0.0994335 1.94174e-19)
(0.302078 -0.0950751 1.98707e-20)
(0.344936 -0.0902403 4.03913e-20)
(0.385358 -0.0853983 5.61477e-21)
(0.423431 -0.0807556 6.79578e-20)
(0.459279 -0.0763815 -7.55997e-20)
(0.493036 -0.0722849 1.07481e-19)
(0.52483 -0.0684539 3.19468e-21)
(0.554782 -0.064871 -2.727e-20)
(0.583006 -0.0615185 2.08943e-19)
(0.609607 -0.0583799 1.63002e-19)
(0.634688 -0.0554416 -8.48143e-20)
(0.658349 -0.0526842 1.12354e-19)
(0.680658 -0.050076 -2.48151e-21)
(0.0703731 -0.108499 -1.67381e-19)
(0.116332 -0.124023 7.36384e-21)
(0.164855 -0.129916 -3.01721e-20)
(0.213488 -0.129565 -4.86073e-21)
(0.260688 -0.125647 -9.85796e-20)
(0.305732 -0.120013 -1.14412e-19)
(0.34836 -0.113788 -4.78272e-20)
(0.388558 -0.107562 -1.64909e-19)
(0.426418 -0.101595 1.85009e-19)
(0.462067 -0.0959719 3.80526e-20)
(0.495639 -0.0907042 -7.72492e-20)
(0.527261 -0.0857766 1.31996e-19)
(0.557053 -0.0811672 -5.75467e-20)
(0.585129 -0.0768536 -1.3087e-19)
(0.611591 -0.0728153 -3.08618e-20)
(0.636543 -0.069035 -4.15055e-20)
(0.660092 -0.0654878 6.66494e-20)
(0.682284 -0.0621345 -4.92058e-21)
(0.0747729 -0.131326 1.05208e-20)
(0.121275 -0.15001 -2.6067e-20)
(0.169957 -0.157032 -7.3361e-20)
(0.21851 -0.156506 -3.39926e-20)
(0.2655 -0.151676 -6.10889e-20)
(0.310275 -0.144782 4.30094e-20)
(0.352619 -0.137181 2.557e-19)
(0.392538 -0.129583 2.22789e-19)
(0.430134 -0.122302 1.40337e-19)
(0.465537 -0.11544 -5.23836e-20)
(0.498879 -0.10901 2.92352e-20)
(0.530287 -0.102994 -2.1599e-19)
(0.559881 -0.0973654 7.51728e-20)
(0.587772 -0.0920977 -5.97331e-20)
(0.614062 -0.0871661 -8.45975e-20)
(0.638854 -0.0825497 4.51801e-20)
(0.662264 -0.0782175 -3.85633e-19)
(0.684309 -0.0741244 1.39617e-19)
(0.12717 -0.175728 5.30446e-20)
(0.176044 -0.183888 -2.31946e-20)
(0.224502 -0.183205 -3.5266e-20)
(0.271243 -0.177484 -1.16365e-19)
(0.315699 -0.169347 -2.45989e-20)
(0.357705 -0.160385 -1.06396e-20)
(0.397293 -0.151431 -3.99134e-19)
(0.434574 -0.142848 -2.9184e-19)
(0.469682 -0.134759 1.7076e-19)
(0.502751 -0.127177 2.49644e-20)
(0.533904 -0.120083 6.43435e-20)
(0.563261 -0.113445 -6.1746e-20)
(0.590932 -0.107231 3.15565e-19)
(0.617015 -0.101414 6.19709e-20)
(0.641616 -0.0959687 9.23764e-20)
(0.66486 -0.0908575 2.17152e-19)
(0.686731 -0.086031 -1.16197e-19)
(0.134003 -0.20113 6.86719e-20)
(0.183102 -0.210439 6.15763e-20)
(0.231454 -0.20962 -9.45429e-20)
(0.277908 -0.20303 1.62967e-19)
(0.321995 -0.193673 2.30929e-20)
(0.36361 -0.18337 -2.96234e-19)
(0.402813 -0.173075 1.86555e-19)
(0.43973 -0.163207 7.45799e-20)
(0.474497 -0.153903 -8.66688e-20)
(0.507248 -0.145183 2.32957e-20)
(0.538106 -0.137021 1.08708e-20)
(0.567188 -0.129384 -8.92148e-20)
(0.594603 -0.122235 2.27465e-19)
(0.620447 -0.115541 -7.99426e-20)
(0.644827 -0.109275 5.79416e-20)
(0.667877 -0.103392 1.23832e-19)
(0.689547 -0.0978395 -4.5803e-20)
(0.141757 -0.226173 -9.39191e-20)
(0.191116 -0.236641 -3.38738e-19)
(0.239352 -0.23571 2.28226e-19)
(0.285481 -0.228277 1.09726e-19)
(0.329152 -0.217724 1.88353e-19)
(0.370323 -0.206103 2.0317e-19)
(0.409091 -0.194487 1.29301e-19)
(0.445593 -0.183349 1.70622e-19)
(0.479973 -0.172847 -3.0733e-19)
(0.512363 -0.163003 3.42118e-20)
(0.542885 -0.153788 6.71772e-20)
(0.571656 -0.145164 3.46425e-19)
(0.59878 -0.13709 -1.88762e-19)
(0.624353 -0.12953 -4.74402e-20)
(0.64848 -0.122453 -1.09819e-19)
(0.671311 -0.115805 -7.17394e-20)
(0.692752 -0.109535 1.87065e-19)
(0.150415 -0.25081 2.40397e-21)
(0.20007 -0.262452 -3.79333e-20)
(0.248179 -0.261434 1.48031e-19)
(0.29395 -0.253188 -3.19664e-19)
(0.337157 -0.241468 -1.8211e-20)
(0.377833 -0.228551 -2.85255e-19)
(0.416114 -0.215636 1.61666e-19)
(0.452154 -0.203249 -2.59501e-19)
(0.486101 -0.191567 2.50306e-19)
(0.518088 -0.180614 2.22649e-19)
(0.548235 -0.17036 -1.82246e-19)
(0.576657 -0.160763 -6.31584e-19)
(0.603457 -0.151777 3.37876e-19)
(0.628725 -0.143363 -2.71981e-19)
(0.65257 -0.135485 -5.96096e-20)
(0.675155 -0.128082 2.2102e-19)
(0.696341 -0.121104 -1.81216e-19)
(0.159956 -0.274998 -1.42154e-19)
(0.209944 -0.287827 1.79045e-19)
(0.257919 -0.286753 -3.41485e-19)
(0.303298 -0.277727 6.30698e-20)
(0.345995 -0.264869 -6.93838e-21)
(0.386127 -0.250685 3.92336e-19)
(0.423872 -0.236495 -2.44035e-19)
(0.459402 -0.22288 -5.19714e-20)
(0.492872 -0.210036 6.795e-20)
(0.524413 -0.197993 -8.5545e-20)
(0.554147 -0.186717 3.31797e-19)
(0.582184 -0.176162 1.83616e-19)
(0.608625 -0.166278 -3.70103e-19)
(0.633558 -0.157023 2.00843e-19)
(0.657091 -0.148356 2.76868e-19)
(0.679405 -0.140208 -5.06389e-19)
(0.70031 -0.132532 1.68676e-21)
(0.170357 -0.298695 1.40477e-19)
(0.220717 -0.312726 1.94553e-19)
(0.268553 -0.311627 1.11288e-19)
(0.313509 -0.301856 4.53548e-19)
(0.355652 -0.287894 -5.73743e-20)
(0.395191 -0.272474 1.85407e-19)
(0.43235 -0.257034 -6.47248e-19)
(0.467325 -0.242215 3.69452e-19)
(0.500273 -0.228232 -2.27576e-19)
(0.531329 -0.215118 6.67897e-20)
(0.560611 -0.202838 -3.5946e-19)
(0.588227 -0.191342 -2.85852e-20)
(0.614278 -0.180575 2.90848e-19)
(0.638844 -0.170493 4.89112e-20)
(0.662037 -0.161051 -1.40469e-20)
(0.684053 -0.152168 2.37934e-20)
(0.704653 -0.143805 -3.24545e-19)
(0.181594 -0.321857 -1.96232e-19)
(0.232366 -0.337107 1.62701e-20)
(0.280059 -0.336017 1.75539e-19)
(0.324562 -0.32554 -3.94793e-19)
(0.36611 -0.310512 4.17212e-20)
(0.405009 -0.293887 -4.64327e-19)
(0.441536 -0.277227 5.13646e-19)
(0.475909 -0.261229 -1.34708e-19)
(0.508294 -0.24613 -1.5286e-19)
(0.538824 -0.231967 4.38142e-21)
(0.567617 -0.218703 1.78822e-21)
(0.594779 -0.206283 2.71727e-19)
(0.620406 -0.194651 -3.95657e-20)
(0.644575 -0.183757 -3.45866e-19)
(0.667399 -0.173552 -4.29481e-19)
(0.689094 -0.163947 5.00613e-19)
(0.709364 -0.15491 3.15697e-19)
(0.193641 -0.344445 2.2777e-19)
(0.244867 -0.36093 -3.52023e-19)
(0.292415 -0.359886 -3.34046e-19)
(0.336439 -0.348746 1.33398e-19)
(0.37735 -0.33269 -5.58568e-19)
(0.415564 -0.314896 5.6079e-19)
(0.451414 -0.297047 -2.44696e-19)
(0.485141 -0.279898 -2.46985e-19)
(0.51692 -0.263708 2.18069e-20)
(0.546886 -0.248518 -7.79781e-22)
(0.575154 -0.234291 -3.10896e-20)
(0.601827 -0.220967 2.09482e-19)
(0.626999 -0.208487 -1.99362e-19)
(0.650743 -0.196798 1.02744e-19)
(0.67317 -0.185847 2.23096e-19)
(0.694519 -0.175531 -2.80164e-19)
(0.714437 -0.165832 -5.75362e-20)
(0.206468 -0.366418 -3.24225e-20)
(0.258191 -0.384156 2.48892e-19)
(0.305596 -0.383198 2.23381e-19)
(0.349117 -0.371438 -3.51909e-19)
(0.389354 -0.354398 1.89028e-19)
(0.42684 -0.335471 -1.45688e-19)
(0.461967 -0.316467 -1.03419e-20)
(0.495005 -0.298196 3.70307e-20)
(0.526139 -0.280942 -8.86175e-20)
(0.555503 -0.26475 1.75828e-19)
(0.58321 -0.249583 -9.53851e-20)
(0.609362 -0.235377 -2.84647e-19)
(0.634048 -0.222068 4.05903e-19)
(0.657338 -0.209601 2.52351e-19)
(0.679341 -0.19792 -3.23972e-19)
(0.70032 -0.186907 1.87996e-19)
(0.719864 -0.17656 2.75392e-19)
(0.27231 -0.406747 4.82657e-20)
(0.319576 -0.405916 1.78129e-19)
(0.362572 -0.393585 3.51804e-19)
(0.4021 -0.375605 2.65142e-19)
(0.438815 -0.355587 5.12313e-19)
(0.473178 -0.335462 -4.70265e-20)