/*--------------------------------*- C++ -*----------------------------------*\
  =========                 |
  \\      /  F ield         | OpenFOAM: The Open Source CFD Toolbox
   \\    /   O peration     | Website:  https://openfoam.org
    \\  /    A nd           | Version:  7
     \\/     M anipulation  |
\*---------------------------------------------------------------------------*/
FoamFile
{
    version     2.0;
    format      ascii;
    class       volScalarField;
    location    "65";
    object      p;
}
// * * * * * * * * * * * * * * * * * * * * * * * * * * * * * * * * * * * * * //

dimensions      [0 2 -2 0 0 0 0];

internalField   nonuniform List<scalar> 
8500
(
-0.164263
-0.166677
-0.16561
-0.169226
-0.168001
-0.166599
-0.171916
-0.170522
-0.168977
-0.174754
-0.173178
-0.171482
-0.169441
-0.177745
-0.175974
-0.174119
-0.171914
-0.169444
-0.180895
-0.178916
-0.176895
-0.174519
-0.171879
-0.169077
-0.184209
-0.182008
-0.179813
-0.177261
-0.174445
-0.171475
-0.168417
-0.187692
-0.185255
-0.182877
-0.180144
-0.177149
-0.174006
-0.170782
-0.167525
-0.191345
-0.188659
-0.186093
-0.183172
-0.179994
-0.176675
-0.173281
-0.169854
-0.166411
-0.195172
-0.192224
-0.189462
-0.18635
-0.182984
-0.179486
-0.175916
-0.172312
-0.168681
-0.165003
-0.199174
-0.19595
-0.192987
-0.189678
-0.186122
-0.18244
-0.178689
-0.174899
-0.171068
-0.167163
-0.163127
-0.203352
-0.19984
-0.19667
-0.193161
-0.18941
-0.18554
-0.181601
-0.177614
-0.173566
-0.169413
-0.165088
-0.160515
-0.15562
-0.207703
-0.203893
-0.20051
-0.196797
-0.192848
-0.188786
-0.184652
-0.180454
-0.17617
-0.171743
-0.167099
-0.162158
-0.156851
-0.151138
-0.212226
-0.208106
-0.204507
-0.200587
-0.196437
-0.192177
-0.187837
-0.183415
-0.178872
-0.174143
-0.169146
-0.163801
-0.15805
-0.151866
-0.145265
-0.216917
-0.212477
-0.208658
-0.20453
-0.200175
-0.195711
-0.191154
-0.186488
-0.181662
-0.176599
-0.171213
-0.165429
-0.1592
-0.15252
-0.145427
-0.137995
-0.130307
-0.22177
-0.217002
-0.212961
-0.208621
-0.204058
-0.199381
-0.194594
-0.189664
-0.184527
-0.179096
-0.173283
-0.167023
-0.160285
-0.153086
-0.145488
-0.137586
-0.12948
-0.121327
-0.226777
-0.221675
-0.217409
-0.212856
-0.20808
-0.203183
-0.198149
-0.192932
-0.187451
-0.181615
-0.175337
-0.168565
-0.161289
-0.153551
-0.145438
-0.137064
-0.128544
-0.120034
-0.111482
-0.103544
-0.23193
-0.226487
-0.221995
-0.217228
-0.212235
-0.207106
-0.201808
-0.196276
-0.190418
-0.184137
-0.177356
-0.170036
-0.162195
-0.153902
-0.145267
-0.136422
-0.127494
-0.118635
-0.109812
-0.101613
-0.237216
-0.231429
-0.226712
-0.221729
-0.216512
-0.211139
-0.205556
-0.199679
-0.193407
-0.186642
-0.179317
-0.171417
-0.162987
-0.154125
-0.144964
-0.135652
-0.126323
-0.117124
-0.108036
-0.0995858
-0.242624
-0.236489
-0.231547
-0.226347
-0.2209
-0.215269
-0.209376
-0.203122
-0.196396
-0.189105
-0.181198
-0.172688
-0.163649
-0.154208
-0.144521
-0.134746
-0.125025
-0.115494
-0.106147
-0.0974531
-0.248136
-0.241653
-0.236489
-0.23107
-0.225385
-0.219478
-0.213249
-0.206582
-0.199362
-0.191503
-0.182978
-0.173829
-0.164165
-0.154139
-0.143927
-0.133697
-0.123592
-0.113739
-0.104139
-0.0952084
-0.253735
-0.246906
-0.24152
-0.235881
-0.229949
-0.223748
-0.217153
-0.210035
-0.202278
-0.193811
-0.184633
-0.174822
-0.164519
-0.153906
-0.143174
-0.132498
-0.122018
-0.111853
-0.102006
-0.0928447
-0.259401
-0.252228
-0.246625
-0.240763
-0.234574
-0.228056
-0.221064
-0.213455
-0.205118
-0.196002
-0.18614
-0.175646
-0.164696
-0.153497
-0.142252
-0.13114
-0.120297
-0.109828
-0.0997428
-0.0903558
-0.265111
-0.2576
-0.251782
-0.245695
-0.239236
-0.232378
-0.224953
-0.216812
-0.207852
-0.19805
-0.187476
-0.176284
-0.164682
-0.152901
-0.141153
-0.129615
-0.11842
-0.107658
-0.097342
-0.0877354
-0.270841
-0.262998
-0.25697
-0.250654
-0.24391
-0.236686
-0.228793
-0.220076
-0.210452
-0.199929
-0.188619
-0.176717
-0.164463
-0.152107
-0.139866
-0.127917
-0.116381
-0.105336
-0.0947976
-0.0849775
-0.276563
-0.268398
-0.262163
-0.255614
-0.24857
-0.240951
-0.232551
-0.223217
-0.212888
-0.201613
-0.189547
-0.176927
-0.164025
-0.151103
-0.138384
-0.126036
-0.114173
-0.102856
-0.0921033
-0.0820763
-0.282247
-0.27377
-0.267334
-0.260547
-0.253184
-0.245141
-0.236194
-0.226201
-0.21513
-0.203074
-0.190238
-0.176898
-0.163354
-0.149879
-0.136697
-0.123965
-0.111787
-0.10021
-0.0892528
-0.0790259
-0.287861
-0.279087
-0.272453
-0.265422
-0.257721
-0.249221
-0.239688
-0.228994
-0.217146
-0.204287
-0.19067
-0.176614
-0.162438
-0.148425
-0.134795
-0.121696
-0.109217
-0.0973923
-0.0862396
-0.0758208
-0.293373
-0.284314
-0.277488
-0.270206
-0.262146
-0.253156
-0.242996
-0.231563
-0.218908
-0.205227
-0.190825
-0.176057
-0.161264
-0.146731
-0.13267
-0.11922
-0.106454
-0.0943947
-0.0830577
-0.0724554
-0.298746
-0.28942
-0.282405
-0.274863
-0.266422
-0.256907
-0.246083
-0.233874
-0.220385
-0.205869
-0.190683
-0.175214
-0.159819
-0.144785
-0.130314
-0.116529
-0.103492
-0.0912111
-0.0797007
-0.0689244
-0.303942
-0.294366
-0.287168
-0.279357
-0.270511
-0.260438
-0.24891
-0.235893
-0.221548
-0.20619
-0.190224
-0.174069
-0.158093
-0.142579
-0.127716
-0.113615
-0.100323
-0.0878347
-0.0761627
-0.0652227
-0.308922
-0.299116
-0.291739
-0.283648
-0.274372
-0.263707
-0.251441
-0.237587
-0.22237
-0.206167
-0.189432
-0.172609
-0.156074
-0.140101
-0.124869
-0.110471
-0.0969399
-0.084259
-0.0724378
-0.0613451
-0.313646
-0.303631
-0.296078
-0.287697
-0.277966
-0.266675
-0.253638
-0.238923
-0.222823
-0.205779
-0.18829
-0.170821
-0.15375
-0.137344
-0.121764
-0.107089
-0.0933355
-0.0804777
-0.0685203
-0.057287
-0.318073
-0.307871
-0.300146
-0.291461
-0.281251
-0.269303
-0.255464
-0.239869
-0.222882
-0.205006
-0.186781
-0.16869
-0.151111
-0.134297
-0.118393
-0.103461
-0.089503
-0.0764847
-0.064405
-0.0530438
-0.322159
-0.311792
-0.303898
-0.294898
-0.284184
-0.271549
-0.256885
-0.240396
-0.222522
-0.203828
-0.184891
-0.166207
-0.148147
-0.130952
-0.114747
-0.099579
-0.085436
-0.0722743
-0.0600866
-0.0486112
-0.325861
-0.315354
-0.307294
-0.297966
-0.286724
-0.273374
-0.257864
-0.240473
-0.221719
-0.202227
-0.182605
-0.163358
-0.144848
-0.127299
-0.110819
-0.0954372
-0.0811283
-0.067841
-0.0555603
-0.0439854
-0.329136
-0.318514
-0.31029
-0.300621
-0.288828
-0.274741
-0.258368
-0.240073
-0.220453
-0.200187
-0.179911
-0.160134
-0.141206
-0.123332
-0.106602
-0.0910287
-0.0765739
-0.0631796
-0.0508219
-0.0391626
-0.331941
-0.321228
-0.312843
-0.30282
-0.290456
-0.275611
-0.258366
-0.239172
-0.218703
-0.197691
-0.176796
-0.156524
-0.137211
-0.119042
-0.102089
-0.0863473
-0.0717675
-0.0582856
-0.045867
-0.0341397
-0.334233
-0.323455
-0.31491
-0.304522
-0.291568
-0.275949
-0.257827
-0.237744
-0.21645
-0.194727
-0.173249
-0.152519
-0.132855
-0.114423
-0.0972727
-0.0813874
-0.0667042
-0.0531546
-0.0406923
-0.0289139
-0.33597
-0.325152
-0.31645
-0.305685
-0.292125
-0.275721
-0.256723
-0.235767
-0.213679
-0.191281
-0.16926
-0.148111
-0.128132
-0.109467
-0.0921483
-0.0761438
-0.0613795
-0.0477828
-0.0352944
-0.0234827
-0.33711
-0.326279
-0.317421
-0.30627
-0.29209
-0.274896
-0.255029
-0.233222
-0.210373
-0.187341
-0.164821
-0.143292
-0.123035
-0.104169
-0.0867103
-0.0706119
-0.0557893
-0.0421668
-0.0296706
-0.0178441
-0.337615
-0.326795
-0.317783
-0.306237
-0.291429
-0.273442
-0.25272
-0.230091
-0.206519
-0.182898
-0.159922
-0.138056
-0.117557
-0.0985239
-0.0809542
-0.0647878
-0.0499304
-0.0363037
-0.0238185
-0.0119961
-0.337444
-0.326661
-0.317498
-0.30555
-0.290108
-0.271333
-0.249775
-0.226357
-0.202107
-0.177942
-0.154557
-0.132397
-0.111694
-0.0925271
-0.074876
-0.0586681
-0.0437999
-0.0301913
-0.0177361
-0.00593726
-0.336563
-0.325842
-0.31653
-0.304175
-0.288097
-0.268545
-0.246175
-0.222007
-0.197125
-0.172467
-0.148721
-0.126309
-0.105442
-0.0861751
-0.0684727
-0.0522501
-0.0373957
-0.0238275
-0.0114227
0.000331506
-0.334936
-0.324302
-0.314844
-0.30208
-0.285369
-0.265054
-0.241904
-0.217029
-0.191566
-0.166467
-0.142408
-0.11979
-0.0987973
-0.079465
-0.0617418
-0.045532
-0.0307159
-0.0172111
-0.00487872
0.006806
-0.332532
-0.32201
-0.31241
-0.299237
-0.2819
-0.260842
-0.236948
-0.211413
-0.185423
-0.159937
-0.135616
-0.112836
-0.0917577
-0.0723949
-0.0546818
-0.0385123
-0.0237592
-0.0103409
0.00189495
0.0134865
-0.329322
-0.318934
-0.309197
-0.295618
-0.277666
-0.255893
-0.231295
-0.205154
-0.178692
-0.152874
-0.128342
-0.105446
-0.084322
-0.0649639
-0.0472922
-0.0311907
-0.0165251
-0.0032164
0.00890262
0.0203995
-0.325279
-0.315049
-0.30518
-0.2912
-0.27265
-0.250192
-0.224938
-0.198244
-0.17137
-0.145276
-0.120585
-0.09762
-0.0764899
-0.057172
-0.0395732
-0.0235678
-0.00901536
0.00416013
0.0161547
0.0276003
-0.320381
-0.310331
-0.300336
-0.285965
-0.266837
-0.24373
-0.217868
-0.190682
-0.163455
-0.137145
-0.112347
-0.0893574
-0.0682623
-0.0490203
-0.0315262
-0.0156454
-0.00123289
0.0117849
0.0236504
0.0350794
-0.314607
-0.304758
-0.294645
-0.279894
-0.260213
-0.236499
-0.210084
-0.182466
-0.15495
-0.12848
-0.103628
-0.0806608
-0.0596411
-0.0405108
-0.0231534
-0.00742613
0.0068195
0.0196567
0.0313663
0.0425932
-0.30794
-0.298314
-0.288092
-0.272976
-0.252771
-0.228494
-0.201585
-0.173599
-0.145856
-0.119286
-0.0944315
-0.0715329
-0.0506292
-0.0316464
-0.0144577
0.00108688
0.0151388
0.0277706
0.0393035
0.0502967
-0.300367
-0.290984
-0.280663
-0.2652
-0.244504
-0.219714
-0.192371
-0.164082
-0.136177
-0.109566
-0.0847622
-0.0619781
-0.0412307
-0.0224312
-0.00544326
0.00988957
0.023721
0.0361236
0.0474518
0.0582076
-0.291879
-0.282757
-0.272349
-0.256559
-0.23541
-0.210161
-0.182447
-0.153922
-0.12592
-0.0993262
-0.0746256
-0.0520016
-0.0314507
-0.0128702
0.00388491
0.0189772
0.0325618
0.0447108
0.0558109
0.0663218
-0.282469
-0.273627
-0.263144
-0.247052
-0.225491
-0.199838
-0.171819
-0.143127
-0.115091
-0.0885746
-0.0640287
-0.04161
-0.0212955
-0.0029697
0.0135212
0.0283443
0.0416559
0.0535271
0.0643781
0.0746312
-0.272134
-0.26359
-0.253047
-0.23668
-0.21475
-0.188752
-0.160496
-0.131705
-0.103702
-0.0773198
-0.0529796
-0.0308112
-0.010773
0.00726369
0.0234586
0.0379842
0.0509969
0.0625668
0.0731491
0.0831284
-0.260876
-0.252648
-0.242059
-0.225446
-0.203195
-0.176914
-0.148488
-0.119669
-0.0917617
-0.0655721
-0.0414882
-0.0196144
0.000109139
0.0178216
0.0336895
0.0478895
0.0605778
0.0718233
0.0821177
0.0918062
-0.2487
-0.240802
-0.230185
-0.213359
-0.190836
-0.164335
-0.135811
-0.10703
-0.0792838
-0.0533432
-0.0295653
-0.00802953
0.0113409
0.028695
0.0442052
0.0580518
0.0703907
0.0812892
0.091277
0.100657
-0.235612
-0.228062
-0.217434
-0.200428
-0.177687
-0.151031
-0.122478
-0.0938055
-0.0662821
-0.0406463
-0.0172231
0.00393216
0.0229117
0.0398738
0.054996
0.0684621
0.0804266
0.0909562
0.100619
0.109673
-0.221627
-0.214438
-0.203819
-0.18667
-0.163764
-0.137019
-0.108507
-0.080011
-0.0527723
-0.0274958
-0.00447475
0.0162582
0.0348099
0.0513469
0.0660514
0.0791101
0.0906759
0.100815
0.110135
0.118846
-0.206758
-0.199944
-0.189355
-0.172101
-0.149086
-0.122319
-0.0939186
-0.0656651
-0.0387715
-0.0139075
0.00866503
0.028935
0.0470229
0.0631023
0.0773599
0.0899849
0.101128
0.110856
0.119814
0.128165
-0.191024
-0.1846
-0.17406
-0.156741
-0.133674
-0.106953
-0.0787337
-0.0507873
-0.0242987
0.000101466
0.0221806
0.0419481
0.0595369
0.0751273
0.0889094
0.101075
0.111771
0.121067
0.129647
0.137622
-0.174448
-0.168424
-0.157957
-0.140615
-0.117554
-0.0909452
-0.0629736
-0.0354008
-0.00937362
0.0145129
0.036055
0.0552819
0.0723375
0.0874081
0.100687
0.112367
0.122594
0.131437
0.139621
0.147202
-0.157053
-0.151443
-0.141072
-0.123748
-0.100752
-0.0743217
-0.0466644
-0.0195278
0.00598253
0.0293072
0.0502706
0.0689199
0.0854094
0.0999303
0.112678
0.123848
0.133583
0.141953
0.149723
0.156891
-0.13887
-0.133683
-0.123431
-0.10617
-0.0832987
-0.0571067
-0.0298349
-0.00319326
0.0217472
0.0444638
0.0648082
0.0828447
0.0987363
0.112679
0.12487
0.135505
0.144724
0.152602
0.159939
-0.119927
-0.115175
-0.105066
-0.0879127
-0.0652164
-0.0393378
-0.0125114
0.013577
0.0378965
0.059961
0.0796482
0.0970379
0.112301
0.125638
0.137247
0.147324
0.156003
0.163369
-0.100259
-0.0959516
-0.0860106
-0.069011
-0.0465412
-0.0210425
0.00527641
0.0307558
0.0544056
0.0757761
0.0947696
0.111481
0.126087
0.138792
0.149794
0.159289
0.167405
-0.0798992
-0.0760494
-0.0663004
-0.0494855
-0.0273223
-0.00225496
0.0234975
0.0483145
0.0712487
0.0918854
0.110151
0.126153
0.140076
0.152123
0.162496
0.171386
-0.0588865
-0.0555059
-0.04597
-0.0293915
-0.00758451
0.0169904
0.0421196
0.0662236
0.0883985
0.108264
0.12577
0.141034
0.154248
0.165615
0.175337
0.183601
-0.0372565
-0.0343645
-0.0250626
-0.00876689
0.0126331
0.0366572
0.0611093
0.0844525
0.105827
0.124887
0.141602
0.156103
0.168584
0.179251
0.188302
-0.0150459
-0.0126806
-0.00362095
0.0123497
0.03329
0.0567084
0.080432
0.10297
0.123506
0.141728
0.157625
0.171338
0.183065
0.193012
0.00768099
0.00951763
0.018307
0.033915
0.0543452
0.0771053
0.100052
0.121743
0.141406
0.158759
0.173812
0.186716
0.19767
0.206881
0.0308426
0.0322128
0.0406794
0.0558843
0.0757563
0.0978086
0.119934
0.140738
0.159495
0.175953
0.19014
0.202213
0.212377
0.0544311
0.0553289
0.0634488
0.0782122
0.0974799
0.118778
0.14004
0.159922
0.177743
0.193281
0.20658
0.217806
0.227165
0.0784003
0.0788114
0.0865668
0.100852
0.119472
0.139972
0.160332
0.17926
0.196119
0.210714
0.223107
0.23347
0.102697
0.102613
0.109985
0.123756
0.141687
0.16135
0.180772
0.198717
0.214589
0.228223
0.239693
0.127267
0.126683
0.133652
0.146877
0.16408
0.182868
0.201321
0.218257
0.233121
0.245776
0.25631
0.152057
0.150969
0.157518
0.170164
0.186604
0.204485
0.22194
0.237844
0.251683
0.263345
0.177011
0.175417
0.181529
0.193568
0.209214
0.226157
0.242589
0.257441
0.27024
0.280897
0.202075
0.199975
0.205634
0.21704
0.231861
0.24784
0.263229
0.277013
0.288759
0.227193
0.224589
0.229779
0.240528
0.2545
0.269492
0.28382
0.296523
0.307208
0.252312
0.249203
0.253913
0.263984
0.277084
0.29107
0.304321
0.315934
0.325551
0.277374
0.273764
0.277981
0.287355
0.299564
0.312529
0.324694
0.33521
0.302325
0.298217
0.301932
0.310594
0.321896
0.333828
0.344899
0.354315
0.327109
0.322508
0.325713
0.333649
0.344032
0.354922
0.364897
0.351672
0.346582
0.349271
0.356471
0.365928
0.375772
0.384648
0.375959
0.370388
0.372556
0.379012
0.387536
0.396333
0.404115
0.399917
0.393871
0.395515
0.401224
0.408814
0.416566
0.423492
0.416979
0.4181
0.423059
0.429717
0.43643
0.446633
0.439663
0.44026
0.444472
0.450201
0.455885
0.469288
0.46187
0.461947
0.465415
0.470225
0.491407
0.483552
0.483115
0.485846
0.489748
0.512942
0.504662
0.503716
0.50572
0.508729
0.533844
0.525152
0.523707
0.524996
0.52713
0.554069
0.544978
0.543043
0.543633
0.573571
0.564096
0.561683
0.561592
0.592308
0.582463
0.579588
0.578834
0.610238
0.600039
0.596717
0.595325
0.627323
0.616787
0.613034
0.611028
0.643524
0.632668
0.628505
0.658807
0.647649
0.643095
0.673137
0.661697
0.656773
0.686484
0.67478
0.66951
0.698818
0.68687
0.681279
0.710113
0.697942
0.692054
0.720344
0.707969
0.701813
0.729487
0.716932
0.710534
0.737524
0.72481
0.718198
0.744437
0.731586
0.750211
0.737245
0.754833
0.741774
0.758293
0.745165
0.760582
0.747409
0.761698
0.748501
0.761635
0.748439
0.760395
0.747223
0.757981
0.744855
0.754396
0.74134
0.74965
0.736686
0.743751
0.730902
0.736712
0.724002
0.71741
0.728549
0.715999
0.709624
0.71928
0.706911
0.700781
0.708923
0.696757
0.6909
0.697501
0.68556
0.680001
0.68504
0.673343
0.668109
0.671565
0.660133
0.655248
0.657107
0.645958
0.641445
0.641695
0.630849
0.62673
0.625365
0.614839
0.611135
0.609207
0.608151
0.597963
0.594691
0.593382
0.59009
0.580257
0.577436
0.57677
0.571223
0.56176
0.559404
0.559406
0.551589
0.542512
0.540636
0.541324
0.531233
0.522555
0.521172
0.522564
0.524824
0.510198
0.501933
0.501052
0.503164
0.506306
0.488531
0.480692
0.480322
0.483165
0.487206
0.466279
0.458877
0.459025
0.46261
0.467565
0.472388
0.44349
0.436536
0.437208
0.441541
0.447421
0.453268
0.420216
0.41372
0.414917
0.420003
0.426817
0.433699
0.396506
0.390478
0.392202
0.398041
0.405794
0.413722
0.372414
0.366861
0.369111
0.375703
0.384395
0.393374
0.401338
0.347992
0.342922
0.345695
0.353034
0.362665
0.372698
0.381763
0.323294
0.318713
0.322005
0.330084
0.340648
0.351733
0.361903
0.298375
0.294288
0.298092
0.306902
0.31839
0.330523
0.341796
0.351405
0.273289
0.269701
0.274009
0.283536
0.295936
0.309108
0.321482
0.332198
0.248092
0.245006
0.249809
0.260036
0.273332
0.287532
0.300999
0.312818
0.322629
0.22284
0.220258
0.225544
0.236453
0.250626
0.265838
0.280387
0.293303
0.304188
0.197587
0.195511
0.201267
0.212837
0.227865
0.244069
0.259686
0.273689
0.285642
0.295476
0.172389
0.17082
0.177031
0.189237
0.205094
0.222269
0.238936
0.254013
0.267024
0.277878
0.147302
0.146239
0.152889
0.165706
0.182362
0.200481
0.218176
0.234311
0.248368
0.260233
0.122381
0.121821
0.128893
0.142292
0.159716
0.178747
0.197446
0.21462
0.229708
0.242572
0.253299
0.097679
0.0976206
0.105097
0.119045
0.137201
0.157112
0.176786
0.194975
0.211077
0.224925
0.236593
0.246264
0.0732516
0.073689
0.08155
0.0960145
0.114864
0.135618
0.156236
0.175414
0.192508
0.207323
0.219919
0.230471
0.0491532
0.0500778
0.0583046
0.0732499
0.0927512
0.114308
0.135833
0.155971
0.174033
0.189796
0.203304
0.214723
0.224263
0.025437
0.0268343
0.035409
0.050798
0.0709073
0.0932235
0.115618
0.136683
0.155686
0.172374
0.186774
0.199046
0.209395
0.00214913
0.00401334
0.0129117
0.0287059
0.0493768
0.0724053
0.0956266
0.117584
0.137498
0.155087
0.170359
0.183465
0.194608
0.203996
-0.0207023
-0.018309
-0.00913924
0.00701909
0.0282032
0.0518944
0.0758974
0.0987069
0.119501
0.137962
0.154082
0.168003
0.179923
0.190051
-0.0430362
-0.0401153
-0.030702
-0.0142176
0.00742902
0.0317301
0.0564664
0.0800866
0.101724
0.121029
0.137971
0.152684
0.165362
0.176213
0.185438
-0.064787
-0.0613759
-0.0517297
-0.0349607
-0.0129045
0.011951
0.0373692
0.061755
0.0841972
0.104313
0.12205
0.137531
0.150946
0.162501
0.1724
0.180831
-0.0859182
-0.0820367
-0.072178
-0.0551712
-0.0327569
-0.00740526
0.0186404
0.043744
0.0669502
0.0878414
0.106344
0.122566
0.136694
0.148933
0.159486
0.168546
0.176238
-0.106393
-0.102054
-0.0920033
-0.074811
-0.052089
-0.0263025
0.000313623
0.0260842
0.0500107
0.0716401
0.0908746
0.10781
0.122626
0.135525
0.146711
0.156379
0.16466
-0.126175
-0.121389
-0.111171
-0.0938256
-0.0708747
-0.0447058
-0.0175787
0.00880522
0.0334057
0.0557335
0.0756658
0.0932836
0.10876
0.122295
0.134091
0.144344
0.15319
0.160714
-0.145228
-0.140007
-0.129646
-0.112193
-0.0890661
-0.0625811
-0.0350054
-0.0080643
0.0171614
0.0401454
0.0607389
0.0790071
0.0951151
0.10926
0.121641
0.132456
0.141844
0.149883
0.157381
-0.163519
-0.157873
-0.147394
-0.129878
-0.106626
-0.0799012
-0.0519368
-0.024497
0.00130261
0.0248986
0.0461148
0.0649996
0.0817086
0.0964351
0.109376
0.120729
0.130636
0.13917
0.147103
0.154429
-0.181016
-0.174957
-0.164383
-0.14685
-0.123532
-0.0966277
-0.0683462
-0.0404667
-0.0141467
0.0100148
0.0318134
0.0512791
0.0685575
0.0838367
0.0973115
0.109177
0.119579
0.128589
0.136938
0.144679
-0.197693
-0.191232
-0.180586
-0.163077
-0.139754
-0.112736
-0.0842048
-0.0559486
-0.0291639
-0.00448517
0.0178537
0.0378633
0.0556779
0.0714799
0.0854608
0.097814
0.108689
0.118153
0.126901
0.135038
-0.213522
-0.206672
-0.195977
-0.178535
-0.155264
-0.1282
-0.0994863
-0.0709204
-0.0437276
-0.0185818
0.00425372
0.0247688
0.0430853
0.059379
0.073838
0.0866534
0.0979769
0.107876
0.117004
0.12552
-0.228484
-0.221257
-0.210534
-0.193199
-0.170039
-0.142996
-0.114169
-0.0853587
-0.0578179
-0.0322567
-0.00896973
0.012011
0.0307941
0.0475478
0.0624562
0.0757076
0.0874561
0.0977686
0.10726
0.116138
-0.242557
-0.234968
-0.224238
-0.207048
-0.184055
-0.157102
-0.128232
-0.0992438
-0.0714157
-0.0454926
-0.0218008
-0.000395183
0.018818
0.0359992
0.0513275
0.0649885
0.0771378
0.0878428
0.0976785
0.106902
-0.255728
-0.247791
-0.237073
-0.220065
-0.197293
-0.170496
-0.141655
-0.112557
-0.084504
-0.0582738
-0.0342249
-0.0124363
0.00716979
0.0247452
0.0404635
0.0545069
0.0670325
0.0781083
0.0882707
0.0978219
-0.267983
-0.259714
-0.249026
-0.232235
-0.209737
-0.183162
-0.154421
-0.125282
-0.0970669
-0.0705856
-0.0462286
-0.0240997
-0.00413902
0.0137968
0.0298748
0.0442732
0.0571501
0.0685745
0.079045
0.0889064
-0.279315
-0.27073
-0.260089
-0.243548
-0.221374
-0.195084
-0.166512
-0.137403
-0.10909
-0.0824149
-0.0577999
-0.0353737
-0.0150979
0.00316428
0.0195709
0.0342965
0.0474993
0.0592497
0.0700092
0.0801632
-0.289719
-0.280835
-0.270257
-0.253994
-0.232193
-0.20625
-0.177917
-0.148907
-0.120561
-0.0937497
-0.0689276
-0.0462507
-0.0256948
-0.00714329
0.00956061
0.0245851
0.0380881
0.0501413
0.0611704
0.0715996
-0.299193
-0.290027
-0.279526
-0.26357
-0.242185
-0.21665
-0.188624
-0.159782
-0.131468
-0.10458
-0.0796019
-0.0567186
-0.035925
-0.0171172
-0.000148225
0.0151465
0.0289236
0.0412558
0.0525345
0.0632227
-0.30774
-0.298311
-0.2879
-0.272274
-0.251348
-0.226277
-0.198624
-0.170019
-0.141803
-0.114896
-0.0898143
-0.0667701
-0.0457793
-0.0267515
-0.00954879
0.0059873
0.0200121
0.032599
0.044106
0.0550396
-0.315365
-0.305694
-0.295384
-0.280109
-0.259679
-0.235126
-0.20791
-0.179609
-0.151557
-0.124691
-0.099558
-0.0763988
-0.0552512
-0.0360396
-0.0186354
-0.00288698
0.011359
0.0241762
0.0358875
0.0470571
-0.322079
-0.312184
-0.301986
-0.287082
-0.267181
-0.243195
-0.216479
-0.188548
-0.160723
-0.133958
-0.108827
-0.0855994
-0.0643356
-0.0449762
-0.0274031
-0.0114716
0.00296856
0.0159923
0.0278798
0.0392782
-0.327895
-0.317798
-0.30772
-0.2932
-0.273859
-0.250487
-0.224328
-0.196832
-0.169299
-0.142694
-0.117618
-0.0943676
-0.0730284
-0.0535574
-0.0358476
-0.0197624
-0.00515537
0.00804897
0.0200938
0.0316852
-0.332829
-0.322551
-0.312601
-0.298478
-0.279721
-0.257004
-0.231458
-0.204459
-0.17728
-0.150894
-0.125926
-0.1027
-0.0813267
-0.0617801
-0.0439659
-0.0277563
-0.0130095
0.000352765
0.0125311
0.0241554
-0.336902
-0.326464
-0.316649
-0.302933
-0.284781
-0.262756
-0.237873
-0.21143
-0.184667
-0.158558
-0.13375
-0.110596
-0.0892284
-0.0696424
-0.0517559
-0.0354507
-0.0205911
-0.00709597
0.00520662
0.0168803
-0.340136
-0.329563
-0.319887
-0.306583
-0.289053
-0.267752
-0.243579
-0.217748
-0.19146
-0.165685
-0.14109
-0.118053
-0.0967328
-0.077143
-0.0592161
-0.0428439
-0.0278975
-0.0142939
-0.00187688
0.0098892
-0.342558
-0.331873
-0.322342
-0.309452
-0.292556
-0.272005
-0.248583
-0.223418
-0.197661
-0.172277
-0.147946
-0.125073
-0.10384
-0.0842821
-0.0663464
-0.0499351
-0.0349269
-0.0212382
-0.00872653
0.00313328
-0.344197
-0.333424
-0.324041
-0.311566
-0.295311
-0.275531
-0.252898
-0.228446
-0.203276
-0.178337
-0.154321
-0.131656
-0.110551
-0.0910604
-0.0731471
-0.0567247
-0.0416797
-0.027929
-0.0153463
-0.00341648
-0.345085
-0.334248
-0.325017
-0.312954
-0.297343
-0.278351
-0.256538
-0.232843
-0.20831
-0.183868
-0.160217
-0.137806
-0.116868
-0.0974798
-0.0796199
-0.0632141
-0.0481571
-0.0343674
-0.0217362
-0.00976228
-0.345257
-0.334381
-0.325304
-0.313648
-0.29868
-0.280485
-0.259517
-0.23662
-0.212772
-0.188878
-0.16564
-0.143527
-0.122795
-0.103543
-0.085767
-0.0694051
-0.054361
-0.0405553
-0.0278959
-0.0158999
-0.344748
-0.333859
-0.324938
-0.313683
-0.299352
-0.281959
-0.261856
-0.239789
-0.216671
-0.193372
-0.170594
-0.148822
-0.128335
-0.109254
-0.0915916
-0.0753004
-0.0602937
-0.0464944
-0.0338265
-0.0218282
-0.343597
-0.332721
-0.323958
-0.313095
-0.299391
-0.282799
-0.263575
-0.242368
-0.220019
-0.19736
-0.175087
-0.153698
-0.133494
-0.114616
-0.0970975
-0.0809033
-0.0659579
-0.0521872
-0.0395298
-0.0275487
-0.341844
-0.331007
-0.322403
-0.311922
-0.298833
-0.283036
-0.264698
-0.244374
-0.222828
-0.200851
-0.179126
-0.158161
-0.138277
-0.119635
-0.102289
-0.0862179
-0.071357
-0.0576365
-0.0450083
-0.0330633
-0.339531
-0.328758
-0.320315
-0.310206
-0.297714
-0.282701
-0.265252
-0.245828
-0.225115
-0.203857
-0.182721
-0.162219
-0.14269
-0.124318
-0.107172
-0.0912486
-0.076495
-0.0628458
-0.0502649
-0.0383744
-0.3367
-0.326017
-0.317737
-0.307986
-0.296074
-0.281829
-0.265264
-0.24675
-0.226895
-0.206391
-0.185881
-0.16588
-0.146741
-0.128669
-0.111751
-0.0960005
-0.0813763
-0.0678189
-0.0553028
-0.0434842
-0.333394
-0.322826
-0.314711
-0.305305
-0.293952
-0.280456
-0.264764
-0.247165
-0.228187
-0.208466
-0.188618
-0.169154
-0.150439
-0.132696
-0.116034
-0.100479
-0.0860059
-0.0725601
-0.0601256
-0.0483957
-0.329656
-0.319228
-0.311281
-0.302208
-0.29139
-0.278618
-0.263784
-0.247099
-0.229012
-0.210098
-0.190943
-0.172049
-0.15379
-0.136407
-0.120026
-0.104691
-0.0903892
-0.0770741
-0.0647375
-0.0531123
-0.325531
-0.315266
-0.30749
-0.298736
-0.28843
-0.276354
-0.262358
-0.246579
-0.229389
-0.211304
-0.19287
-0.174577
-0.156805
-0.13981
-0.123736
-0.108643
-0.094532
-0.0813661
-0.0691429
-0.0576375
-0.321061
-0.310983
-0.303379
-0.294932
-0.285113
-0.273705
-0.260521
-0.245634
-0.229344
-0.212101
-0.194412
-0.176748
-0.159493
-0.142913
-0.12717
-0.112341
-0.0984406
-0.0854415
-0.0733468
-0.0619754
-0.316289
-0.30642
-0.298994
-0.290841
-0.281483
-0.270709
-0.258308
-0.244294
-0.228899
-0.212509
-0.195584
-0.178576
-0.161864
-0.145725
-0.130337
-0.115792
-0.102121
-0.089306
-0.0773541
-0.0661303
-0.311258
-0.301619
-0.294373
-0.286503
-0.277581
-0.267408
-0.255757
-0.242593
-0.228082
-0.212547
-0.196402
-0.180072
-0.163928
-0.148255
-0.133245
-0.119005
-0.105581
-0.0929657
-0.0811705
-0.0701069
-0.306008
-0.296619
-0.289557
-0.281959
-0.273448
-0.263842
-0.252904
-0.240561
-0.226918
-0.212237
-0.196883
-0.181249
-0.165696
-0.150513
-0.135902
-0.121987
-0.108826
-0.0964271
-0.0848014
-0.0739099
-0.300579
-0.291458
-0.284585
-0.277249
-0.269124
-0.260051
-0.249788
-0.238232
-0.225436
-0.211602
-0.197045
-0.182122
-0.16718
-0.152508
-0.138317
-0.124745
-0.111865
-0.0996964
-0.0882529
-0.0775445
-0.295009
-0.286171
-0.279492
-0.27241
-0.264649
-0.256073
-0.246446
-0.235641
-0.223665
-0.210666
-0.196905
-0.182704
-0.168391
-0.154249
-0.140499
-0.127288
-0.114704
-0.10278
-0.0915309
-0.0810158
-0.289333
-0.280795
-0.274313
-0.267478
-0.260058
-0.251946
-0.242915
-0.232821
-0.221634
-0.209451
-0.196483
-0.183012
-0.169341
-0.155748
-0.142456
-0.129623
-0.117351
-0.105686
-0.0946416
-0.0843292
-0.283586
-0.27536
-0.269081
-0.262486
-0.255388
-0.247707
-0.239231
-0.229807
-0.219374
-0.207984
-0.195798
-0.183059
-0.170042
-0.157013
-0.144197
-0.131759
-0.119813
-0.108419
-0.0975913
-0.0874904
-0.277801
-0.269898
-0.263826
-0.257466
-0.250672
-0.24339
-0.235429
-0.226632
-0.216915
-0.20629
-0.194873
-0.182863
-0.170508
-0.158056
-0.14573
-0.133704
-0.122098
-0.110988
-0.100386
-0.0905049
-0.272006
-0.264436
-0.258576
-0.252445
-0.245938
-0.239028
-0.231542
-0.223329
-0.214288
-0.204396
-0.193727
-0.182441
-0.17075
-0.158887
-0.147066
-0.135464
-0.124212
-0.113399
-0.103033
-0.0933786
-0.26623
-0.259
-0.253355
-0.247451
-0.241216
-0.23465
-0.227603
-0.219931
-0.211522
-0.202328
-0.192384
-0.181809
-0.170784
-0.159516
-0.148212
-0.137049
-0.126164
-0.115658
-0.105537
-0.0961173
-0.260497
-0.253612
-0.248186
-0.242506
-0.236532
-0.230285
-0.223641
-0.216467
-0.208647
-0.200113
-0.190865
-0.180986
-0.170621
-0.159954
-0.149178
-0.138466
-0.127959
-0.117772
-0.107906
-0.098727
-0.254831
-0.248295
-0.243091
-0.237632
-0.231906
-0.225957
-0.219683
-0.212966
-0.205692
-0.197777
-0.189194
-0.179991
-0.170278
-0.160213
-0.149972
-0.139722
-0.129606
-0.119748
-0.110145
-0.101214
-0.249252
-0.243066
-0.238086
-0.232846
-0.22736
-0.221688
-0.215754
-0.209456
-0.202684
-0.195346
-0.187393
-0.178841
-0.169768
-0.160303
-0.150602
-0.140825
-0.13111
-0.121593
-0.11226
-0.103584
-0.243778
-0.237942
-0.233187
-0.228166
-0.222911
-0.217499
-0.211877
-0.205961
-0.19965
-0.192846
-0.185486
-0.177557
-0.169107
-0.160237
-0.151079
-0.141782
-0.132479
-0.123312
-0.114257
-0.105845
-0.238426
-0.232936
-0.228408
-0.223604
-0.218573
-0.213407
-0.208072
-0.202504
-0.196612
-0.190301
-0.183494
-0.176158
-0.168311
-0.160025
-0.151411
-0.1426
-0.133717
-0.124911
-0.116143
-0.108003
-0.233207
-0.228062
-0.22376
-0.219171
-0.214358
-0.209424
-0.204356
-0.199105
-0.193595
-0.187734
-0.181441
-0.174663
-0.167395
-0.159682
-0.151608
-0.143287
-0.134833
-0.126397
-0.117923
-0.110065
-0.228135
-0.223328
-0.219252
-0.214877
-0.210277
-0.205564
-0.200742
-0.195781
-0.190617
-0.185167
-0.179347
-0.173092
-0.166377
-0.159218
-0.151678
-0.14385
-0.135832
-0.127776
-0.223219
-0.218742
-0.214891
-0.210728
-0.206336
-0.201835
-0.197244
-0.192547
-0.187697
-0.18262
-0.177233
-0.171465
-0.165271
-0.158648
-0.151632
-0.144295
-0.136719
-0.218466
-0.214312
-0.210682
-0.206729
-0.202542
-0.198245
-0.193869
-0.189416
-0.18485
-0.18011
-0.175118
-0.169799
-0.164096
-0.157985
-0.151479
-0.213882
-0.210042
-0.20663
-0.202884
-0.198898
-0.194798
-0.190626
-0.186397
-0.18209
-0.177655
-0.173021
-0.168113
-0.162866
-0.157242
-0.209472
-0.205935
-0.202737
-0.199194
-0.195406
-0.191497
-0.187519
-0.183498
-0.179426
-0.175266
-0.170956
-0.166423
-0.205238
-0.201993
-0.199003
-0.195661
-0.192066
-0.188343
-0.184551
-0.180724
-0.176868
-0.172956
-0.168938
-0.201182
-0.198216
-0.19543
-0.192284
-0.188879
-0.185336
-0.181722
-0.178079
-0.174422
-0.170735
-0.197305
-0.194605
-0.192015
-0.189061
-0.185841
-0.182476
-0.179034
-0.175565
-0.172091
-0.193604
-0.191158
-0.188758
-0.18599
-0.182952
-0.179759
-0.176484
-0.17318
-0.19008
-0.187873
-0.185656
-0.183069
-0.180207
-0.177183
-0.174069
-0.186729
-0.184748
-0.182704
-0.180292
-0.177602
-0.174742
-0.183548
-0.181778
-0.1799
-0.177656
-0.175133
-0.180532
-0.178959
-0.17724
-0.175157
-0.177678
-0.176288
-0.174718
-0.17498
-0.173759
-0.172433
-0.171366
-0.17003
-0.0465229
-0.0505554
-0.0544301
-0.0581503
-0.0617199
-0.0651426
-0.068422
-0.0715619
-0.074566
-0.0774378
-0.0801807
-0.0827976
-0.0852915
-0.0876648
-0.0899196
-0.0920578
-0.0364335
-0.0403707
-0.044175
-0.0478492
-0.051396
-0.0548185
-0.0581196
-0.0613022
-0.0643693
-0.0673238
-0.0701686
-0.0729066
-0.0755406
-0.0780734
-0.0805079
-0.0828468
-0.0272141
-0.0310411
-0.0347567
-0.0383635
-0.0418637
-0.04526
-0.0485546
-0.0517504
-0.0548498
-0.0578555
-0.0607703
-0.0635969
-0.0663383
-0.0689975
-0.0715776
-0.0740821
-0.0188216
-0.0225326
-0.0261501
-0.0296763
-0.033113
-0.0364625