/*--------------------------------*- C++ -*----------------------------------*\
  =========                 |
  \\      /  F ield         | OpenFOAM: The Open Source CFD Toolbox
   \\    /   O peration     | Website:  https://openfoam.org
    \\  /    A nd           | Version:  7
     \\/     M anipulation  |
\*---------------------------------------------------------------------------*/
FoamFile
{
    version     2.0;
    format      ascii;
    class       surfaceScalarField;
    location    "65";
    object      phi;
}
// * * * * * * * * * * * * * * * * * * * * * * * * * * * * * * * * * * * * * //

dimensions      [0 3 -1 0 0 0 0];

internalField   nonuniform List<scalar> 
16608
(
1.84469e-05
4.6495e-07
1.79819e-05
4.04193e-05
5.6483e-07
1.74171e-05
3.1068e-06
3.78773e-05
4.47918e-05
6.74453e-07
1.67426e-05
3.58859e-06
3.49632e-05
3.86713e-05
7.94404e-07
1.59482e-05
4.11032e-06
3.16472e-05
1.09679e-05
3.18137e-05
1.54773e-05
9.25195e-07
1.5023e-05
4.67351e-06
2.78989e-05
1.23178e-05
2.41695e-05
2.4997e-05
2.79809e-06
-3.73922e-05
1.06726e-06
1.39558e-05
5.27932e-06
2.36869e-05
1.37604e-05
1.56883e-05
2.77023e-05
-1.11437e-05
4.83686e-05
-5.80585e-05
-0.000126425
1.22093e-06
1.27349e-05
5.92855e-06
1.89792e-05
1.52966e-05
6.32034e-06
3.05662e-05
-2.64134e-05
5.30447e-05
-8.0537e-05
8.40808e-05
-0.000157461
-0.000258605
1.38645e-06
1.13484e-05
6.62154e-06
1.37441e-05
1.69257e-05
-3.98385e-06
3.35856e-05
-4.30732e-05
5.79449e-05
-0.000104896
9.13678e-05
-0.000190884
0.00013517
-0.000302407
-0.00044056
1.56395e-06
9.78445e-06
7.35822e-06
7.94988e-06
1.86465e-05
-1.52721e-05
3.67554e-05
-6.11822e-05
6.30563e-05
-0.000131197
9.89149e-05
-0.000226742
0.000145605
-0.000349097
0.000204179
-0.000499134
-0.000676995
1.75347e-06
8.03098e-06
8.13804e-06
1.56531e-06
2.04562e-05
-2.75903e-05
4.00683e-05
-8.07942e-05
6.83624e-05
-0.000159491
0.00010669
-0.00026507
0.000156258
-0.000398666
0.000217985
-0.000560861
0.000292315
-0.000751325
-0.00096846
1.95492e-06
6.07606e-06
8.95996e-06
-5.43973e-06
2.23512e-05
-4.09816e-05
4.35145e-05
-0.000101957
7.38429e-05
-0.00018982
0.000114654
-0.000305881
0.000167066
-0.000451077
0.000231828
-0.000625623
0.000309128
-0.000828625
0.000398411
-0.00105774
-0.00130897
2.16811e-06
3.90795e-06
9.8225e-06
-1.30941e-05
2.43265e-05
-5.54855e-05
4.70823e-05
-0.000124713
7.94738e-05
-0.000222211
0.000122765
-0.000349173
0.000177956
-0.000506269
0.000245597
-0.000693264
0.000325591
-0.000908619
0.00041702
-0.00114917
0.00051806
-0.00141001
0.00062603
-0.00168463
-0.00196547
2.39272e-06
1.51522e-06
1.07236e-05
-2.1425e-05
2.63759e-05
-7.11378e-05
5.07576e-05
-0.000149095
8.52275e-05
-0.000256681
0.000130974
-0.000394919
0.000188852
-0.000564146
0.00025918
-0.000763592
0.000341548
-0.000990987
0.000434664
-0.00124229
0.00053632
-0.00151167
0.000643516
-0.00179183
0.000752754
-0.00207471
-0.00235241
2.62832e-06
-1.1131e-06
1.16608e-05
-3.04575e-05
2.84922e-05
-8.79691e-05
5.4524e-05
-0.000175127
9.10729e-05
-0.00029323
0.000139228
-0.000443075
0.00019967
-0.000624587
0.000272457
-0.00083638
0.000356844
-0.00107537
0.000451159
-0.0013366
0.000552835
-0.00161334
0.000658607
-0.0018976
0.000764875
-0.00218098
0.000868161
-0.00245569
-0.00271553
2.87435e-06
-3.98745e-06
1.26311e-05
-4.02142e-05
3.06667e-05
-0.000106005
5.83633e-05
-0.000202823
9.69759e-05
-0.000331843
0.00014747
-0.00049357
0.000210323
-0.00068744
0.000285308
-0.000911365
0.000371327
-0.00116139
0.000466335
-0.00143161
0.000567441
-0.00171445
0.000671178
-0.00200134
0.000773925
-0.00228373
0.000872384
-0.00255415
0.000963988
-0.00280713
0.00104715
-0.00303968
-0.00325133
3.13014e-06
-7.11759e-06
1.36309e-05
-5.0715e-05
3.289e-05
-0.000125264
6.2255e-05
-0.000232188
0.000102899
-0.000372487
0.00015564
-0.00054631
0.000220723
-0.000752523
0.000297614
-0.000988256
0.000384853
-0.00124863
0.00048004
-0.0015268
0.000580002
-0.00181441
0.000681142
-0.00210248
0.000779901
-0.00238248
0.000873227
-0.00264748
0.000958939
-0.00289284
0.0010359
-0.00311664
0.001104
-0.00331943
-0.00350379
3.39486e-06
-1.05124e-05
1.46562e-05
-6.19763e-05
3.51513e-05
-0.000145759
6.6177e-05
-0.000263214
0.000108804
-0.000415114
0.000163675
-0.000601181
0.00023078
-0.000819628
0.000309258
-0.00106673
0.000397288
-0.00133666
0.00049214
-0.00162165
0.000590415
-0.00191269
0.000688458
-0.00220052
0.000782844
-0.00247687
0.000870829
-0.00273546
0.00095064
-0.00297265
0.00102157
-0.00318758
0.00108389
-0.00338175
0.00113859
-0.00355849
0.00118712
-0.00372183
-0.00387693
3.66758e-06
-1.418e-05
1.57024e-05
-7.40111e-05
3.74387e-05
-0.000167495
7.01053e-05
-0.000295881
0.000114648
-0.000459657
0.00017151
-0.000658043
0.000240403
-0.000888521
0.000320128
-0.00114646
0.000408511
-0.00142504
0.000502526
-0.00171567
0.000598609
-0.00200877
0.00069312
-0.00229503
0.000782837
-0.00256659
0.000865363
-0.00281799
0.000939344
-0.00304664
0.00100448
-0.00325271
0.00106137
-0.00343864
0.00111121
-0.00360833
0.00115555
-0.00376617
-0.00391723
0.00119584
3.94723e-06
-1.81272e-05
1.67647e-05
-8.68286e-05
3.97396e-05
-0.00019047
7.40147e-05
-0.000330156
0.000120389
-0.000506031
0.000179081
-0.000716735
0.000249507
-0.000958946
0.000330121
-0.00122707
0.000418417
-0.00151334
0.000511114
-0.00180836
0.000604548
-0.0021022
0.000695162
-0.00238564
0.000779995
-0.00265142
0.000857025
-0.00289502
0.000925313
-0.00311492
0.000984932
-0.00331233
0.00103675
-0.00349046
0.00108213
-0.00365371
0.00112264
-0.00380667
-0.00395428
0.00115969
4.23261e-06
-2.23599e-05
1.78376e-05
-0.000100434
4.20403e-05
-0.000214673
7.78788e-05
-0.000365994
0.000125982
-0.000554134
0.000186324
-0.000777077
0.000258007
-0.00103063
0.000339144
-0.00130821
0.000426916
-0.00160111
0.000517843
-0.00189929
0.000608222
-0.00219258
0.000694647
-0.00247207
0.000774461
-0.00273123
0.000846031
-0.00296659
0.000908814
-0.00317771
0.000963215
-0.00336673
0.00101033
-0.00353757
0.00105161
-0.00369499
0.00108862
-0.00384368
-0.00398837
0.0011227
4.5224e-06
-2.68823e-05
1.89151e-05
-0.000114826
4.43265e-05
-0.000240084
8.16703e-05
-0.000403338
0.000131384
-0.000603848
0.000193176
-0.00083887
0.000265826
-0.00110328
0.000347112
-0.0013895
0.00043394
-0.00168794
0.00052268
-0.00198803
0.000609656
-0.00227956
0.000691669
-0.00255408
0.000766397
-0.00280596
0.000832602
-0.00303279
0.000890107
-0.00323521
0.000939605
-0.00341623
0.000982357
-0.00358032
0.00101988
-0.00373251
0.00105369
-0.0038775
-0.00401972
0.00108504
4.81517e-06
-3.16974e-05
1.99912e-05
-0.000130002
4.65832e-05
-0.000266676
8.53613e-05
-0.000442116
0.00013655
-0.000655037
0.000199576
-0.000901896
0.000272892
-0.00117659
0.000353957
-0.00147056
0.000439437
-0.00177342
0.000525613
-0.00207421
0.000608898
-0.00236284
0.000686343
-0.00263153
0.000755983
-0.0028756
0.000816964
-0.00309377
0.000869445
-0.00328769
0.000914357
-0.00346114
0.000953082
-0.00361905
0.000987153
-0.00376658
0.00101802
-0.00390836
-0.00404854
0.00104684
5.10938e-06
-3.68068e-05
2.10593e-05
-0.000145952
4.87953e-05
-0.000294412
8.8924e-05
-0.000482245
0.000141438
-0.000707551
0.000205469
-0.000965926
0.000279142
-0.00125027
0.00035962
-0.00155104
0.000443377
-0.00185718
0.000526657
-0.00215749
0.000606018
-0.0024422
0.0006788
-0.00270431
0.000743405
-0.00294021
0.000799342
-0.00314971
0.000847068
-0.00333542
0.000887704
-0.00350178
0.000922714
-0.00365406
0.000953609
-0.00379748
0.000981757
-0.00393651
-0.00407498
0.0010082
5.40338e-06
-4.22102e-05
2.21127e-05
-0.000162662
5.09469e-05
-0.000323247
9.23307e-05
-0.000523629
0.000146007
-0.000761228
0.000210802
-0.00103072
0.000284521
-0.00132399
0.000364061
-0.00163058
0.000445746
-0.00193886
0.000525845
-0.00223758
0.000601107
-0.00251746
0.000669187
-0.00277239
0.000728852
-0.00299987
0.000779951
-0.00320081
0.000823198
-0.00337867
0.000859859
-0.00353844
0.000891436
-0.00368563
0.000919399
-0.00382544
0.000945016
-0.00396213
-0.00409918
0.000969217
5.69545e-06
-4.79056e-05
2.31443e-05
-0.00018011
5.30225e-05
-0.000353125
9.55541e-05
-0.00056616
0.000150218
-0.000815891
0.000215528
-0.00109603
0.000288986
-0.00139744
0.00036725
-0.00170884
0.000446551
-0.00201816
0.00052323
-0.00231426
0.000594269
-0.0025885
0.000657656
-0.00283578
0.000712515
-0.00305473
0.000759
-0.0032473
0.000798041
-0.00341771
0.000831009
-0.00357141
0.000859412
-0.00371404
0.000884654
-0.00385068
0.000907899
-0.00398537
-0.00412125
0.000929968
5.9838e-06
-5.38894e-05
2.41473e-05
-0.000198274
5.50065e-05
-0.000383984
9.85683e-05
-0.000609722
0.000154034
-0.000871357
0.000219608
-0.00116161
0.0002925
-0.00147034
0.000369173
-0.00178552
0.000445812
-0.0020948
0.000518879
-0.00238733
0.000585622
-0.00265525
0.000644368
-0.00289452
0.000694579
-0.00310494
0.000736684
-0.0032894
0.000771786
-0.00345281
0.000801323
-0.00360095
0.000826782
-0.0037395
0.000849485
-0.00387339
0.000870491
-0.00400638
-0.00414127
0.000890513
6.26659e-06
-6.0156e-05
2.51144e-05
-0.000217122
5.68838e-05
-0.000415753
0.000101348
-0.000654187
0.000157423
-0.000927431
0.000223005
-0.00122719
0.000295039
-0.00154237
0.000369831
-0.00186031
0.000443565
-0.00216854
0.000512874
-0.00245664
0.00057529
-0.00271766
0.00062948
-0.00294871
0.000675223
-0.00315068
0.000713185
-0.00332736
0.000744602
-0.00348423
0.000770948
-0.00362729
0.000793665
-0.00376221
0.000813987
-0.00389371
0.000832861
-0.00402525
-0.00415932
0.000850906
6.54196e-06
-6.6698e-05
2.60388e-05
-0.000236619
5.86396e-05
-0.000448354
0.000103871
-0.000699419
0.000160356
-0.000983916
0.000225694
-0.00129253
0.000296589
-0.00161326
0.000369234
-0.00193295
0.000439862
-0.00223916
0.000505305
-0.00252208
0.000563402
-0.00277576
0.00061315
-0.00299846
0.000654616
-0.00319215
0.000688669
-0.00336142
0.000716642
-0.0035122
0.000740014
-0.00365066
0.000760167
-0.00378237
0.000778238
-0.00391178
0.000795071
-0.00404209
-0.00417544
0.00081119
6.80802e-06
-7.3506e-05
2.69134e-05
-0.000256724
6.02599e-05
-0.000481701
0.000106116
-0.000745275
0.000162809
-0.00104061
0.000227653
-0.00135737
0.000297146
-0.00168276
0.000367407
-0.00200321
0.00043476
-0.00230652
0.000496272
-0.00258359
0.00055009
-0.00282958
0.00059553
-0.0030439
0.000632918
-0.00322954
0.000663289
-0.00339179
0.000688041
-0.00353695
0.000708634
-0.00367126
0.000726376
-0.00380011
0.000742306
-0.00392771
0.000757169
-0.00405695
-0.00418967
0.000771405
7.06291e-06
-8.05689e-05
2.77319e-05
-0.000277393
6.17318e-05
-0.000515701
0.000108064
-0.000791607
0.000164761
-0.00109731
0.000228871
-0.00142148
0.000296714
-0.0017506
0.000364383
-0.00207088
0.000428331
-0.00237047
0.000485878
-0.00264114
0.000535485
-0.00287919
0.000576768
-0.00308518
0.000610278
-0.00326305
0.000637184
-0.00341869
0.000658919
-0.00355869
0.000676905
-0.00368924
0.000692368
-0.00381557
0.000706249
-0.00394159
0.000719198
-0.0040699
-0.00420206
0.000731583
7.3048e-06
-8.78737e-05
2.84877e-05
-0.000298576
6.30432e-05
-0.000550256
0.000109698
-0.000838262
0.000166197
-0.0011538
0.00022934
-0.00148462
0.000295308
-0.00181657
0.000360205
-0.00213578
0.000420649
-0.00243091
0.000474229
-0.00269472
0.000519716
-0.00292467
0.000557001
-0.00312247
0.000586833
-0.00329288
0.000610478
-0.00344234
0.000629381
-0.00357759
0.000644911
-0.00370477
0.000658208
-0.00382887
0.000670113
-0.00395349
0.000681195
-0.00408098
-0.00421262
0.000691752
7.53188e-06
-9.54056e-05
2.9175e-05
-0.000320219
6.41833e-05
-0.000585264
0.000111006
-0.000885084
0.000167106
-0.0012099
0.000229061
-0.00154658
0.000292949
-0.00188046
0.000354924
-0.00219776
0.000411795
-0.00248778
0.000461434
-0.00274436
0.000502908
-0.00296615
0.00053636
-0.00315592
0.000562706
-0.00331923
0.000583281
-0.00346291
0.00059952
-0.00359383
0.000612727
-0.00371798
0.00062395
-0.00384009
0.000633942
-0.00396349
0.000643192
-0.00409023
-0.00422136
0.00065194
7.74247e-06
-0.000103148
2.97882e-05
-0.000342265
6.51425e-05
-0.000620619
0.000111975
-0.000931917
0.000167481
-0.00126541
0.000228041
-0.00160714
0.000289666
-0.00194208
0.000348595
-0.00225668
0.000401854
-0.00254104
0.000447598
-0.0027901
0.000485181
-0.00300373
0.000514968
-0.00318571
0.000538012
-0.00334227
0.000555693
-0.00348059
0.000569416
-0.00360755
0.000580413
-0.00372898
0.000589642
-0.00384932
0.000597771
-0.00397161
0.000605217
-0.00409768
-0.00422831
0.000612168
7.93578e-06
-0.000111084
3.03242e-05
-0.000364653
6.59156e-05
-0.00065621
0.000112602
-0.000978604
0.000167326
-0.00132013
0.000226298
-0.00166611
0.000285499
-0.00200128
0.000341287
-0.00231247
0.000390918
-0.00259067
0.000432834
-0.00283202
0.000466654
-0.00303755
0.000492942
-0.003212
0.00051286
-0.00336219
0.000527807
-0.00349554
0.000539148
-0.00361889
0.000548032
-0.00373786
0.000555333
-0.00385662
0.000561637
-0.00397792
0.0005673
-0.00410334
-0.00423348
0.000572465
8.10875e-06
-0.000119193
3.07752e-05
-0.000387319
6.64906e-05
-0.000691926
0.000112875
-0.00102499
0.000166633
-0.00137389
0.00022384
-0.00172332
0.000280478
-0.00205792
0.00033305
-0.00236504
0.00037906
-0.00263668
0.000417228
-0.00287019
0.00044742
-0.00306774
0.000470373
-0.00323495
0.000487328
-0.00337914
0.000499688
-0.0035079
0.000508761
-0.00362796
0.000515617
-0.00374472
0.000521043
-0.00386205
0.000525555
-0.00398243
0.000529451
-0.00410724
-0.00423686
0.000532837
8.26077e-06
-0.000127453
3.1139e-05
-0.000410198
6.68651e-05
-0.000727652
0.000112794
-0.00107092
0.000165415
-0.00142651
0.000220694
-0.0017786
0.000274651
-0.00211188
0.000323958
-0.00241435
0.000366373
-0.00267909
0.000400885
-0.0029047
0.000427586
-0.00309444
0.00044736
-0.00325472
0.000461506
-0.00339329
0.000471409
-0.0035178
0.000478315
-0.00363487
0.000483214
-0.00374962
0.00048681
-0.00386564
0.000489555
-0.00398518
0.000491697
-0.00410938
-0.00423848
0.00049331
8.39062e-06
-0.000135844
3.14124e-05
-0.000433219
6.70355e-05
-0.000763275
0.00011236
-0.00111624
0.00016368
-0.00147783
0.000216888
-0.0018318
0.000268067
-0.00216306
0.000314079
-0.00246036
0.000352939
-0.00271796
0.000383896
-0.00293566
0.000407245
-0.00311779
0.00042399
-0.00327147
0.000435466
-0.00340477
0.00044303
-0.00352537
0.000447859
-0.0036397
0.000450858
-0.00375262
0.000452661
-0.00386745
0.000453658
-0.00398617
0.000454057
-0.00410978
-0.00423832
0.000453901
8.49719e-06
-0.000144341
3.15929e-05
-0.000456315
6.69996e-05
-0.000798681
0.000111575
-0.00116082
0.000161444
-0.0015277
0.000212451
-0.00188281
0.000260774
-0.00221138
0.00030348
-0.00250307
0.000338841
-0.00275332
0.000366349
-0.00296316
0.000386481
-0.00313793
0.000400339
-0.00328533
0.000409275
-0.0034137
0.000414604
-0.0035307
0.00041743
-0.00364252
0.000418582
-0.00375377
0.00041862
-0.00386748
0.000417886
-0.00398544
0.000416547
-0.00410844
-0.0042364
0.000414628
8.57954e-06
-0.000152921
3.16786e-05
-0.000479414
6.67569e-05
-0.00083376
0.000110444
-0.0012045
0.000158721
-0.00157598
0.000207416
-0.00193151
0.000252823
-0.00225679
0.000292228
-0.00254247
0.000324155
-0.00278524
0.000348325
-0.00298733
0.000365373
-0.00315497
0.000376477
-0.00329643
0.000382989
-0.00342021
0.000386176
-0.00353388
0.000387066
-0.00364341
0.000386411
-0.00375311
0.000384709
-0.00386578
0.000382254
-0.00398298
0.000379185
-0.00410537
-0.00423272
0.000375505
8.63689e-06
-0.000161558
3.16683e-05
-0.000502446
6.63081e-05
-0.0008684
0.000108976
-0.00124717
0.000155533
-0.00162254
0.000201818
-0.00197779
0.000244267
-0.00229924
0.000280389
-0.0025786
0.000308957
-0.00281381
0.000329899
-0.00300828
0.000343991
-0.00316907
0.000352465
-0.0033049
0.000356661
-0.00342441
0.000357786
-0.00353501
0.000356796
-0.00364242
0.000354369
-0.00375069
0.000350947
-0.00386236
0.000346781
-0.00397882
0.000341985
-0.00410057
-0.00422729
0.000336549
8.66865e-06
-0.000170226
3.15613e-05
-0.000525338
6.56556e-05
-0.000902494
0.000107178
-0.00128869
0.000151899
-0.00166726
0.000195694
-0.00202159
0.000235158
-0.0023387
0.000268028
-0.00261147
0.000293316
-0.0028391
0.000311143
-0.0030261
0.000322401
-0.00318032
0.00032836
-0.00331086
0.000330334
-0.00342639
0.00032947
-0.00353414
0.000326648
-0.0036396
0.000322478
-0.00374652
0.00031735
-0.00385723
0.000311481
-0.00397295
0.000304963
-0.00409405
-0.0042201
0.000297774
8.67438e-06
-0.000178901
3.13578e-05
-0.000548022
6.48026e-05
-0.000935939
0.000105064
-0.00132896
0.000147843
-0.00171004
0.000189082
-0.00206282
0.000225546
-0.00237516
0.000255205
-0.00264113
0.000277298
-0.00286119
0.000292121
-0.00304093
0.000300661
-0.00318887
0.00030421
-0.00331441
0.00030405
-0.00342622
0.000301259
-0.00353135
0.000296646
-0.00363499
0.000290758
-0.00374063
0.000283937
-0.00385041
0.00027637
-0.00396538
0.000268132
-0.00408582
-0.00421116
0.000259195
8.6538e-06
-0.000187554
3.10583e-05
-0.000570426
6.37538e-05
-0.000968634
0.000102644
-0.00136785
0.000143391
-0.00175078
0.000182019
-0.00210145
0.000215482
-0.00240863
0.00024198
-0.00266762
0.000260966
-0.00288018
0.000272891
-0.00305285
0.000278823
-0.0031948
0.000280061
-0.00331565
0.000277842
-0.00342401
0.00027318
-0.00352669
0.000266811
-0.00362862
0.000259225
-0.00373304
0.000250721
-0.00384191
0.000241461
-0.00395612
0.000231507
-0.00407586
-0.00420048
0.000220826
8.6068e-06
-0.000196161
3.06642e-05
-0.000592484
6.25148e-05
-0.00100048
9.99335e-05
-0.00140526
0.000138566
-0.00178942
0.000174544
-0.00213743
0.000205015
-0.0024391
0.000228408
-0.00269102
0.000244376
-0.00289615
0.000253509
-0.00306198
0.000256936
-0.00319822
0.000255951
-0.00331466
0.000251743
-0.0034198
0.000245257
-0.00352021
0.000237164
-0.00362053
0.000227896
-0.00372378
0.000217717
-0.00383173
0.000206767
-0.00394517
0.000195099
-0.00406419
-0.00418806
0.00018268
8.53345e-06
-0.000204695
3.01771e-05
-0.000614127
6.10921e-05
-0.0010314
9.69471e-05
-0.00144112
0.000133396
-0.00182586
0.000166695
-0.00217073
0.000194194
-0.0024666
0.000214542
-0.00271136
0.000227582
-0.00290919
0.000234024
-0.00306843
0.000235042
-0.00319924
0.000231915
-0.00331154
0.00022578
-0.00341366
0.000217513
-0.00351194
0.000207721
-0.00361073
0.000196786
-0.00371284
0.000184939
-0.00381988
0.000172301
-0.00393254
0.000158921
-0.00405081
-0.00417391
0.000144766
8.43393e-06
-0.000213129
2.95993e-05
-0.000635293
5.94932e-05
-0.00106129
9.37006e-05
-0.00147533
0.000127907
-0.00186007
0.000158508
-0.00220133
0.000183062
-0.00249115
0.000200432
-0.00272873
0.000210633
-0.00291939
0.00021448
-0.00307227
0.000213178
-0.00319794
0.000207984
-0.00330634
0.000199977
-0.00340566
0.000189967
-0.00350193
0.000178498
-0.00359926
0.000165909
-0.00370025
0.000152398
-0.00380637
0.000138075
-0.00391821
0.000122985
-0.00403572
-0.00415802
0.000107096
8.30859e-06
-0.000221437
2.89334e-05
-0.000655918
5.7726e-05
-0.00109009
9.02106e-05
-0.00150781
0.000122126
-0.00189199
0.000150022
-0.00222923
0.000171664
-0.00251279
0.000186124
-0.00274319
0.000193574
-0.00292684
0.000194917
-0.00307362
0.00019138
-0.0031944
0.000184186
-0.00329915
0.000174356
-0.00339583
0.000162635
-0.00349021
0.000149511
-0.00358614
0.000135278
-0.00368602
0.000120109
-0.0037912
0.0001041
-0.0039022
8.7301e-05
-0.00401893
-0.00414038
6.96699e-05
8.1579e-06
-0.000229595
2.81825e-05
-0.000675942
5.57991e-05
-0.0011177
8.6494e-05
-0.00153851
0.000116079
-0.00192157
0.000141269
-0.00225442
0.000160041
-0.00253157
0.000171661
-0.00275481
0.000176446
-0.00293162
0.000175374
-0.00307254
0.000169678
-0.00318871
0.000160545
-0.00329002
0.000148937
-0.00338422
0.000135535
-0.00347681
0.000120773
-0.00357138
0.000104908
-0.00367016
8.80869e-05
-0.00377438
7.03972e-05
-0.00388451
5.18731e-05
-0.0040004
-0.00412097
3.24628e-05
7.98246e-06
-0.000237578
2.735e-05
-0.00069531
5.37216e-05
-0.00114407
8.25679e-05
-0.00156735
0.000109792
-0.00194879
0.000132286
-0.00227691
0.000148231
-0.00254751
0.000157083
-0.00276367
0.000159287
-0.00293383
0.000155881
-0.00306914
0.000148098
-0.00318092
0.000137083
-0.003279
0.000123736
-0.00337087
0.000108679
-0.00346175
9.2297e-05
-0.003555
7.481e-05
-0.00365267
5.63472e-05
-0.00375592
3.69931e-05
-0.00386516
1.67345e-05
-0.00398014
-0.00409936
-4.88061e-06
7.78297e-06
-0.000245361
2.64396e-05
-0.000713966
5.15029e-05
-0.00116914
7.84496e-05
-0.0015943
0.000103292
-0.00197364
0.000123104
-0.00229672
0.000136271
-0.00256068
0.000142426
-0.00276982
0.000142131
-0.00293353
0.000136469
-0.00306347
0.000126666
-0.00317112
0.000113819
-0.00326615
9.87698e-05
-0.00335582
8.20825e-05
-0.00344506
6.40949e-05
-0.00353701
4.49964e-05
-0.00363357
2.48989e-05
-0.00373582
3.87945e-06
-0.00384414
-1.80257e-05
-0.00395824
-0.00407658
-4.08e-05
7.56023e-06
-0.000252921
2.54551e-05
-0.000731861
4.91525e-05
-0.00119283
7.41562e-05
-0.0016193
9.66025e-05
-0.00199608
0.000113753
-0.00231387
0.000124196
-0.00257112
0.000127726
-0.00277335
0.000125009
-0.00293081
0.000117165
-0.00305563
0.000105402
-0.00315936
9.07699e-05
-0.00325152
7.40512e-05
-0.0033391
5.57555e-05
-0.00342677
3.61776e-05
-0.00351743
1.5477e-05
-0.00361287
-6.24977e-06
-0.00371409
-2.89255e-05
-0.00382146
-5.25159e-05
-0.00393465
-0.00405214
-7.69597e-05
7.31515e-06
-0.000260236
2.44008e-05
-0.000748947
4.66804e-05
-0.00121511
6.97047e-05
-0.00164233
8.9748e-05
-0.00201613
0.000104264
-0.00232839
0.000112036
-0.00257889
0.000113012
-0.00277433
0.000107949
-0.00292575
9.79915e-05
-0.00304567
8.43255e-05
-0.00314569
6.7951e-05
-0.00323515
4.9593e-05
-0.00332075
2.97095e-05
-0.00340688
8.55522e-06
-0.00349628
-1.37373e-05
-0.00359058
-3.70863e-05
-0.00369074
-6.14178e-05
-0.00379713
-8.6675e-05
-0.00390939
-0.00402598
-0.000112832
7.04866e-06
-0.000267285
2.32808e-05
-0.000765179
4.40962e-05
-0.00123593
6.51117e-05
-0.00166334
8.27515e-05
-0.00203377
9.46643e-05
-0.0023403
9.98208e-05
-0.00258405
9.83133e-05
-0.00277282
9.09757e-05
-0.00291841
7.89702e-05
-0.00303367
6.34538e-05
-0.00313018
4.5376e-05
-0.00321707
2.54064e-05
-0.00330078
3.95422e-06
-0.00338543
-1.8762e-05
-0.00347356
-4.26367e-05
-0.0035667
-6.76019e-05
-0.00366578
-9.35839e-05
-0.00377115
-0.000120512
-0.00388246
-0.00399812
-0.000148372
6.76182e-06
-0.000274046
2.20996e-05
-0.000780517
4.14099e-05
-0.00125524
6.03935e-05
-0.00168233
7.56353e-05
-0.00204901
8.49794e-05
-0.00234965
8.75784e-05
-0.00258665
8.36559e-05
-0.0027689
7.41129e-05
-0.00290887
6.01199e-05
-0.00301967
4.28018e-05
-0.00311286
2.30568e-05
-0.00319732
1.50074e-06
-0.00327922
-2.15003e-05
-0.00336243
-4.5765e-05
-0.00344929
-7.1211e-05
-0.00354126
-9.77849e-05
-0.0036392
-0.000125413
-0.00374352
-0.000154012
-0.00385386
-0.00396857
-0.000183562
6.4557e-06
-0.000280502
2.08616e-05
-0.000794922
3.86311e-05
-0.00127301
5.55658e-05
-0.00169926
6.84202e-05
-0.00206186
7.5234e-05
-0.00235646
7.53335e-05
-0.00258675
6.90633e-05
-0.00276263
5.73807e-05
-0.00289719
4.14575e-05
-0.00300375
2.23829e-05
-0.00309378
1.00367e-06
-0.00317595
-2.21127e-05
-0.0032561
-4.6646e-05
-0.0033379
-7.24446e-05
-0.0034235
-9.94503e-05
-0.00351425
-0.000127624
-0.00361103
-0.000156893
-0.00371425
-0.000187162
-0.00382359
-0.00393734
-0.000218392
6.13142e-06
-0.000286634
1.95712e-05
-0.000808362
3.57694e-05
-0.00128921
5.06439e-05
-0.00171414
6.11265e-05
-0.00207235
6.54507e-05
-0.00236078
6.31093e-05
-0.00258441
5.45568e-05
-0.00275407
4.07976e-05
-0.00288343
2.29979e-05
-0.00298595
2.20897e-06
-0.00307299
-2.07718e-05
-0.00315296
-4.54275e-05
-0.00323145
-7.14747e-05
-0.00331185
-9.87924e-05
-0.00339618
-0.000127345
-0.0034857
-0.000157108
-0.00358127
-0.000188013
-0.00368335
-0.000219948
-0.00379166
-0.00390444
-0.000252848
5.79013e-06
-0.000292424
1.82331e-05
-0.000820805
3.28342e-05
-0.00130381
4.56424e-05
-0.00172694
5.37727e-05
-0.00208048
5.56506e-05
-0.00236266
5.09269e-05
-0.00257968
4.01558e-05
-0.0027433
2.43799e-05
-0.00286765
4.75436e-06
-0.00296633
-1.77092e-05
-0.00305053
-4.22631e-05
-0.00312841
-6.84355e-05
-0.00320528
-9.5979e-05
-0.00328431
-0.0001248
-0.00336736
-0.000154885
-0.00345561
-0.000186226
-0.00354993
-0.000218758
-0.00365082
-0.000252357
-0.00375806
-0.00386988
-0.000286921
5.43303e-06
-0.000297857
1.68516e-05
-0.000832224
2.98347e-05
-0.00131679
4.05752e-05
-0.00173768
4.63769e-05
-0.00208628
4.58535e-05
-0.00236214
3.88057e-05
-0.00257263
2.58779e-05
-0.00273038
8.14237e-06
-0.00284992
-1.32612e-05
-0.00294492
-3.73625e-05
-0.00302643
-6.34619e-05
-0.00310231
-9.11297e-05
-0.00317761
-0.000120152
-0.00325528
-0.00015046
-0.00333705
-0.000182062
-0.00342401
-0.000214967
-0.00351702
-0.000249118
-0.00361667
-0.000284375
-0.0037228
-0.00383366
-0.000320597
5.0613e-06
-0.000302918
1.54311e-05
-0.000842594
2.67798e-05
-0.00132814
3.54559e-05
-0.00174636
3.89556e-05
-0.00208978
3.60774e-05
-0.00235926
2.67635e-05
-0.00256332
1.17387e-05
-0.00271535
-7.9018e-06
-0.00283028
-3.10384e-05
-0.00292179
-5.67427e-05
-0.00300072
-8.43611e-05
-0.00307469
-0.000113504
-0.00314846
-0.000143988
-0.0032248
-0.000175766
-0.00330527
-0.000208866
-0.00339091
-0.000243319
-0.00348257
-0.000279078
-0.00358091
-0.000315989
-0.00368589
-0.00379578
-0.000353866
4.67616e-06
-0.000307594
1.39761e-05
-0.000851894
2.36779e-05
-0.00133784
3.02971e-05
-0.00175298
3.15244e-05
-0.002091
2.63392e-05
-0.00235408
1.48163e-05
-0.0025518
-2.24681e-06
-0.00269829
-2.37409e-05
-0.00280878
-4.8568e-05
-0.00289696
-7.58422e-05
-0.00297345
-0.000104955
-0.00304558
-0.000135553
-0.00311787
-0.00016748
-0.00319287
-0.00020071
-0.00327204
-0.000235289
-0.00335633
-0.000271271
-0.00344659
-0.000308625
-0.00354355
-0.000347186
-0.00364733
-0.00375625
-0.000386713
4.27885e-06
-0.000311873
1.24908e-05
-0.000860105
2.05375e-05
-0.00134589
2.51107e-05
-0.00175755
2.40981e-05
-0.00208999
1.66544e-05
-0.00234663
2.9801e-06
-0.00253812
-1.60677e-05
-0.00267924
-3.93646e-05
-0.00278549
-6.58415e-05
-0.00287048
-9.46544e-05
-0.00294464
-0.000125237
-0.003015
-0.000157271
-0.00308583
-0.000190624
-0.00315952
-0.000225287
-0.00323738
-0.000261325
-0.00332029
-0.000298814
-0.0034091
-0.000337745
-0.00350462
-0.000377951
-0.00360712
-0.00371508
-0.000419126
3.87063e-06
-0.000315744
1.09793e-05
-0.000867214
1.73665e-05
-0.00135228
1.99083e-05
-0.00176009
1.66903e-05
-0.00208677
7.0372e-06
-0.00233698
-8.73557e-06
-0.00252235
-2.97109e-05
-0.00265826
-5.47635e-05
-0.00276043
-8.28517e-05
-0.00284239
-0.000113174
-0.00291432
-0.000145204
-0.00298297
-0.000178655
-0.00305238
-0.000213415
-0.00312476
-0.000249492
-0.0032013
-0.000286966
-0.00328282
-0.000325937
-0.00337013
-0.000366424
-0.00346413
-0.000408267
-0.00356528
-0.00367226
-0.00045109
3.45281e-06
-0.000319196
9.44591e-06
-0.000873207
1.41724e-05
-0.001357
1.47008e-05
-0.00176062
9.31361e-06
-0.00208139
-2.49717e-06
-0.00232517
-2.03149e-05
-0.00250453
-4.31665e-05
-0.00263541
-6.99293e-05
-0.00273367
-9.9592e-05
-0.00281273
-0.000131394
-0.00288251
-0.000164849
-0.00294951
-0.000199699
-0.00301753
-0.00023585
-0.00308861
-0.000273321
-0.00316383
-0.000312207
-0.00324393
-0.000352632
-0.0033297
-0.00039465
-0.00342212
-0.00043812
-0.00352181
3.02684e-06
-0.000322223
7.89449e-06
-0.000878075
1.09625e-05
-0.00136007
9.49832e-06
-0.00175916
1.98459e-06
-0.00207387
-1.19445e-05
-0.00231124
-3.17487e-05
-0.00248473
-5.64254e-05
-0.00261074
-8.48544e-05
-0.00270524
-0.000116056
-0.00278153
-0.000149312
-0.00284926
-0.00018417
-0.00291465
-0.0002204
-0.0029813
-0.000257924
-0.00305108
-0.000296771
-0.00312498
-0.000337045
-0.00320366
-0.000378892
-0.00328785
-0.00042241
-0.0033786
2.59391e-06
-0.000324817
6.32897e-06
-0.00088181
7.74426e-06
-0.00136149
4.30943e-06
-0.00175572
-5.30036e-06
-0.00206426
-2.12862e-05
-0.00229525
-4.30264e-05
-0.00246299
-6.94791e-05
-0.00258428
-9.95324e-05
-0.00267519
-0.00013224
-0.00274882
-0.000166922
-0.00281458
-0.000203162
-0.00287841
-0.000240755
-0.00294371
-0.000279636
-0.0030122
-0.00031984
-0.00308478
-0.000361477
-0.00316202
-0.000404713
-0.00324462
2.15498e-06
-0.000326972
4.75286e-06
-0.000884408
4.52439e-06
-0.00136126
-8.44036e-07
-0.00175036
-1.2517e-05
-0.00205259
-3.05148e-05
-0.00227726
-5.41394e-05
-0.00243936
-8.23203e-05
-0.0025561
-0.000113957
-0.00264355
-0.000148137
-0.00271464
-0.00018422
-0.00277849
-0.000221823
-0.00284081
-0.000260761
-0.00290477
-0.000300983
-0.00297198
-0.000342526
-0.00304324
-0.000385504
-0.00311904
1.71122e-06
-0.000328683
3.16985e-06
-0.000885867
1.30911e-06
-0.0013594
-5.99217e-06
-0.00174305
-1.96627e-05
-0.00203892
-3.9621e-05
-0.0022573
-6.50795e-05
-0.00241391
-9.49421e-05
-0.00252624
-0.000128123
-0.00261037
-0.000163745
-0.00267902
-0.000201203
-0.00274104
-0.000240147
-0.00280187
-0.000280414
-0.0028645
-0.000321962
-0.00293043
-0.00036483
-0.00300037
-0.00307475
1.26336e-06
-0.000329947
1.58254e-06
-0.000886186
-1.90136e-06
-0.00135591
-1.1088e-05
-0.00173387
-2.67263e-05
-0.00202328
-4.85965e-05
-0.00223543
-7.58393e-05
-0.00238666
-0.000107339
-0.00249474
-0.000142026
-0.00257568
-0.000179058
-0.00264199
-0.000217867
-0.00270223
-0.000258132
-0.0027616
-0.000299711
-0.00282292
-0.00034257
-0.00288757
-0.000386749
-0.00295619
8.10859e-07
-0.000330758
-1.06074e-08
-0.000885364
-5.09801e-06
-0.00135083
-1.6138e-05
-0.00172283
-3.37003e-05
-0.00200572
-5.74338e-05
-0.00221169
-8.6412e-05
-0.00235768
-0.000119504
-0.00246165
-0.000155661
-0.00253953
-0.000194072
-0.00260358
-0.000234208
-0.00266209
-0.000275774
-0.00272003
-0.000318648
-0.00278005
-0.000362805
-0.00284342
3.40573e-07
-0.000331098
-1.59717e-06
-0.000883427
-8.272e-06
-0.00134415
-2.11352e-05
-0.00170996
-4.05777e-05
-0.00198628
-6.61257e-05
-0.00218615
-9.67917e-05
-0.00232702
-0.000131434
-0.00242701
-0.000169023
-0.00250194
-0.000208785
-0.00256382
-0.000250222
-0.00262065
-0.00029307
-0.00267719
-0.00033722
-0.0027359
-0.00279798
-1.39678e-07
-0.000330958
-3.1837e-06
-0.000880382
-1.14208e-05
-0.00133591
-2.60731e-05
-0.00169531
-4.73517e-05
-0.001965
-7.4666e-05
-0.00215883
-0.000106973
-0.00229471
-0.000143123
-0.00239086
-0.00018211
-0.00246295
-0.000223193
-0.00252273
-0.000265907
-0.00257794
-0.000310014
-0.00263308
-0.000355424
-0.00269049
-5.71584e-07
-0.000330387
-4.75647e-06
-0.000876198
-1.45397e-05
-0.00132613
-3.09458e-05
-0.00167891
-5.40161e-05
-0.00194193
-8.3049e-05
-0.0021298
-0.000116951
-0.00226081
-0.000154568
-0.00235324
-0.000194917
-0.0024226
-0.000237292
-0.00248036
-0.000281259
-0.00253397
-0.000326603
-0.00258774
-0.00264384
-1.02269e-06
-0.000329364
-6.31926e-06
-0.000870901