/*--------------------------------*- C++ -*----------------------------------*\
  =========                 |
  \\      /  F ield         | OpenFOAM: The Open Source CFD Toolbox
   \\    /   O peration     | Website:  https://openfoam.org
    \\  /    A nd           | Version:  7
     \\/     M anipulation  |
\*---------------------------------------------------------------------------*/
FoamFile
{
    version     2.0;
    format      ascii;
    class       volScalarField;
    location    "65";
    object      p;
}
// * * * * * * * * * * * * * * * * * * * * * * * * * * * * * * * * * * * * * //

dimensions      [0 2 -2 0 0 0 0];

internalField   nonuniform List<scalar> 
8500
(
-0.248752
-0.249813
-0.250455
-0.251
-0.251473
-0.251878
-0.252233
-0.252553
-0.252846
-0.253122
-0.253383
-0.253634
-0.253877
-0.254113
-0.254346
-0.254579
-0.254816
-0.255064
-0.255326
-0.255609
-0.249116
-0.250146
-0.250771
-0.251302
-0.251764
-0.25216
-0.252509
-0.252825
-0.253118
-0.253396
-0.253663
-0.253924
-0.254181
-0.254437
-0.254695
-0.25496
-0.255237
-0.255535
-0.255857
-0.256211
-0.249525
-0.250521
-0.251126
-0.251642
-0.252091
-0.252477
-0.252818
-0.253129
-0.253419
-0.253697
-0.253968
-0.254237
-0.254506
-0.254779
-0.25506
-0.255354
-0.255668
-0.256013
-0.256392
-0.256811
-0.249974
-0.250933
-0.251518
-0.252017
-0.252452
-0.252826
-0.253158
-0.253461
-0.253747
-0.254023
-0.254296
-0.25457
-0.254848
-0.255136
-0.255437
-0.255758
-0.256106
-0.256495
-0.256927
-0.257406
-0.250461
-0.251382
-0.251945
-0.252425
-0.252844
-0.253204
-0.253525
-0.25382
-0.254099
-0.254372
-0.254644
-0.254921
-0.255206
-0.255505
-0.255823
-0.256167
-0.256546
-0.256975
-0.257456
-0.257989
-0.250985
-0.251865
-0.252405
-0.252865
-0.253266
-0.253611
-0.253919
-0.254203
-0.254474
-0.25474
-0.25501
-0.255287
-0.255576
-0.255884
-0.256215
-0.256578
-0.256984
-0.257449
-0.257975
-0.258555
-0.251541
-0.25238
-0.252894
-0.253333
-0.253715
-0.254043
-0.254336
-0.254607
-0.254868
-0.255126
-0.25539
-0.255664
-0.255955
-0.256267
-0.256609
-0.256987
-0.257415
-0.257913
-0.258478
-0.259099
-0.252128
-0.252923
-0.253412
-0.253828
-0.254189
-0.254499
-0.254776
-0.255032
-0.255279
-0.255527
-0.255782
-0.256051
-0.25634
-0.256654
-0.257001
-0.25739
-0.257836
-0.258361
-0.25896
-0.259614
-0.252743
-0.253493
-0.253955
-0.254347
-0.254686
-0.254976
-0.255234
-0.255473
-0.255706
-0.25594
-0.256184
-0.256444
-0.256727
-0.257038
-0.257387
-0.257783
-0.258242
-0.258788
-0.259417
-0.260094
-0.253382
-0.254087
-0.254521
-0.254888
-0.255204
-0.255473
-0.25571
-0.25593
-0.256145
-0.256363
-0.256593
-0.256841
-0.257114
-0.257419
-0.257765
-0.258162
-0.258628
-0.259191
-0.259842
-0.260534
-0.254044
-0.254703
-0.255109
-0.25545
-0.255741
-0.255987
-0.256202
-0.2564
-0.256594
-0.256793
-0.257006
-0.257238
-0.257498
-0.257792
-0.25813
-0.258523
-0.25899
-0.259563
-0.260231
-0.260928
-0.254725
-0.25534
-0.255716
-0.256031
-0.256296
-0.256516
-0.256706
-0.256881
-0.257052
-0.257229
-0.257421
-0.257634
-0.257876
-0.258154
-0.258479
-0.258863
-0.259324
-0.259902
-0.26058
-0.261271
-0.255425
-0.255994
-0.256341
-0.256628
-0.256865
-0.257059
-0.257223
-0.257371
-0.257516
-0.257668
-0.257836
-0.258026
-0.258246
-0.258504
-0.25881
-0.259178
-0.259627
-0.260202
-0.260883
-0.261556
-0.256139
-0.256664
-0.256982
-0.25724
-0.257449
-0.257614
-0.257749
-0.257869
-0.257985
-0.258109
-0.258248
-0.258411
-0.258605
-0.258837
-0.259119
-0.259465
-0.259896
-0.260459
-0.261138
-0.261777
-0.256868
-0.257349
-0.257637
-0.257866
-0.258045
-0.25818
-0.258284
-0.258373
-0.258458
-0.258549
-0.258657
-0.258789
-0.258952
-0.259154
-0.259406
-0.259723
-0.260126
-0.260671
-0.26134
-0.261916
-0.257608
-0.258047
-0.258305
-0.258504
-0.258653
-0.258755
-0.258827
-0.258881
-0.258932
-0.258989
-0.259061
-0.259158
-0.259285
-0.25945
-0.259666
-0.259948
-0.260317
-0.260835
-0.261487
-0.261951
-0.258359
-0.258757
-0.258986
-0.259155
-0.259271
-0.25934
-0.259376
-0.259394
-0.259407
-0.259425
-0.259459
-0.259516
-0.259602
-0.259727
-0.259901
-0.26014
-0.260466
-0.260948
-0.261578
-0.262013
-0.25912
-0.259479
-0.259678
-0.259816
-0.259899
-0.259932
-0.259931
-0.25991
-0.259882
-0.259858
-0.25985
-0.259863
-0.259905
-0.259983
-0.260109
-0.260297
-0.260573
-0.261009
-0.261595
-0.261981
-0.25989
-0.260213
-0.260382
-0.260488
-0.260536
-0.260532
-0.260491
-0.260428
-0.260356
-0.260288
-0.260233
-0.260199
-0.260191
-0.260218
-0.260289
-0.260421
-0.260636
-0.261018
-0.261551
-0.261851
-0.26067
-0.260957
-0.261098
-0.261171
-0.261183
-0.26114
-0.261057
-0.260949
-0.26083
-0.260714
-0.260609
-0.260523
-0.260462
-0.260433
-0.260444
-0.260511
-0.260657
-0.260973
-0.261447
-0.26163
-0.261458
-0.261712
-0.261825
-0.261865
-0.261839
-0.261755
-0.261627
-0.261472
-0.261304
-0.261136
-0.260978
-0.260837
-0.260719
-0.260628
-0.260574
-0.260569
-0.260637
-0.260876
-0.261279
-0.261316
-0.262257
-0.26248
-0.262564
-0.262571
-0.262506
-0.262379
-0.262204
-0.261998
-0.261778
-0.261555
-0.261341
-0.261142
-0.260962
-0.260806
-0.260681
-0.260598
-0.260579
-0.260728
-0.26105
-0.260907
-0.263067
-0.263261
-0.263317
-0.263289
-0.263184
-0.263011
-0.262787
-0.262528
-0.262252
-0.261972
-0.261698
-0.261437
-0.261194
-0.260969
-0.260768
-0.260601
-0.260486
-0.260533
-0.260761
-0.260397
-0.263889
-0.264057
-0.264084
-0.264021
-0.263874
-0.263654
-0.263377
-0.263063
-0.262728
-0.262387
-0.262051
-0.261727
-0.261416
-0.26112
-0.26084
-0.260583
-0.260363
-0.260295
-0.260418
-0.259784
-0.264727
-0.26487
-0.264868
-0.264769
-0.264578
-0.264308
-0.263977
-0.263604
-0.263207
-0.262803
-0.262402
-0.262011
-0.261631
-0.26126
-0.260899
-0.260548
-0.260216
-0.260021
-0.260026
-0.259064
-0.265582
-0.265702
-0.265672
-0.265534
-0.265298
-0.264976
-0.264587
-0.264152
-0.263691
-0.263221
-0.262753
-0.262292
-0.261841
-0.261395
-0.260949
-0.260502
-0.260052
-0.259715
-0.259594
-0.258233
-0.266458
-0.266556
-0.266496
-0.26632
-0.266036
-0.265658
-0.265209
-0.26471
-0.264182
-0.263643
-0.263104
-0.262573
-0.262049
-0.261526
-0.260996
-0.260449
-0.259876
-0.259387
-0.25913
-0.25729
-0.267358
-0.267436
-0.267346
-0.267128
-0.266794
-0.266359
-0.265846
-0.265279
-0.264681
-0.26407
-0.26346
-0.262856
-0.262259
-0.261658
-0.261042
-0.260396
-0.259698
-0.259044
-0.258646
-0.256236
-0.268286
-0.268344
-0.268223
-0.267963
-0.267576
-0.26708
-0.2665
-0.265862
-0.265191
-0.264506
-0.263822
-0.263144
-0.262471
-0.261794
-0.261093
-0.260348
-0.259522
-0.258694
-0.258153
-0.255074
-0.269249
-0.269286
-0.269132
-0.268827
-0.268384
-0.267824
-0.267175
-0.266463
-0.265715
-0.264953
-0.264192
-0.263439
-0.262691
-0.261936
-0.261151
-0.260309
-0.259356
-0.258345
-0.257665
-0.253811
-0.270249
-0.270266
-0.270077
-0.269724
-0.269223
-0.268596
-0.267873
-0.267083
-0.266256
-0.265415
-0.264575
-0.263744
-0.26292
-0.262087
-0.26122
-0.260282
-0.259205
-0.258004
-0.257191
-0.252458
-0.271294
-0.271288
-0.271063
-0.270659
-0.270096
-0.269398
-0.268598
-0.267727
-0.266818
-0.265893
-0.264972
-0.264062
-0.263161
-0.262251
-0.261302
-0.260271
-0.259073
-0.257677
-0.256739
-0.251035
-0.272389
-0.272359
-0.272094
-0.271636
-0.271007
-0.270235
-0.269354
-0.268399
-0.267403
-0.266393
-0.265388
-0.264397
-0.263417
-0.26243
-0.261401
-0.260279
-0.258964
-0.257371
-0.256311
-0.249562
-0.273541
-0.273484
-0.273176
-0.27266
-0.271962
-0.271111
-0.270145
-0.269102
-0.268017
-0.266918
-0.265827
-0.264753
-0.263693
-0.262628
-0.261518
-0.260309
-0.258879
-0.257094
-0.255904
-0.248075
-0.274756
-0.274668
-0.274314
-0.273737
-0.272964
-0.27203
-0.270976
-0.269841
-0.268663
-0.267473
-0.266293
-0.265134
-0.263992
-0.262848
-0.261659
-0.260364
-0.258823
-0.256857
-0.255512
-0.246628
-0.276043
-0.27592
-0.275515
-0.274871
-0.274019
-0.272999
-0.271851
-0.270621
-0.269347
-0.268063
-0.266791
-0.265544
-0.26432
-0.263096
-0.261828
-0.26045
-0.258802
-0.25668
-0.255131
-0.245313
-0.277409
-0.277244
-0.276783
-0.276068
-0.275133
-0.274021
-0.272777
-0.271448
-0.270074
-0.268692
-0.267326
-0.26599
-0.26468
-0.263376
-0.262031
-0.260576
-0.258823
-0.256586
-0.254721
-0.244157
-0.278861
-0.278648
-0.278127
-0.277334
-0.276311
-0.275103
-0.273758
-0.272325
-0.27085
-0.269367
-0.267905
-0.266476
-0.26508
-0.263696
-0.262277
-0.260754
-0.258912
-0.256632
-0.254191
-0.242944
-0.280407
-0.280138
-0.27955
-0.278676
-0.277559
-0.276249
-0.274799
-0.27326
-0.271679
-0.270094
-0.268532
-0.26701
-0.265526
-0.264061
-0.262572
-0.260998
-0.259114
-0.256955
-0.25369
-0.241997
-0.282057
-0.281723
-0.281062
-0.280099
-0.278883
-0.277467
-0.275908
-0.274259
-0.272569
-0.270878
-0.269215
-0.267597
-0.266023
-0.264477
-0.262921
-0.261315
-0.259454
-0.257667
-0.254079
-0.245683
-0.283816
-0.283408
-0.282667
-0.281609
-0.280288
-0.278761
-0.277088
-0.275326
-0.273525
-0.271726
-0.26996
-0.268243
-0.266577
-0.264948
-0.263325
-0.261693
-0.25988
-0.258538
-0.255703
-0.261663
-0.285695
-0.285201
-0.284373
-0.283213
-0.281781
-0.280138
-0.278348
-0.276469
-0.274554
-0.272645
-0.270773
-0.268955
-0.267193
-0.265477
-0.26378
-0.262113
-0.260325
-0.25932
-0.256734
-0.265102
-0.2877
-0.287109
-0.286186
-0.284918
-0.283368
-0.281604
-0.279692
-0.277693
-0.275661
-0.273639
-0.271659
-0.269737
-0.267875
-0.266064
-0.264282
-0.262556
-0.260744
-0.259853
-0.257165
-0.265237
-0.28984
-0.289139
-0.288112
-0.286728
-0.285055
-0.283165
-0.281127
-0.279005
-0.276853
-0.274717
-0.272625
-0.270594
-0.268626
-0.26671
-0.264826
-0.26301
-0.261116
-0.260158
-0.257287
-0.264441
-0.292121
-0.291298
-0.290158
-0.288651
-0.286847
-0.284826
-0.282659
-0.28041
-0.278136
-0.275882
-0.273675
-0.271531
-0.269448
-0.267414
-0.265407
-0.263463
-0.261431
-0.260264
-0.257148
-0.262966
-0.294551
-0.293591
-0.29233
-0.290692
-0.288752
-0.286595
-0.284293
-0.281915
-0.279516
-0.27714
-0.274814
-0.272549
-0.270341
-0.268173
-0.266019
-0.263907
-0.26168
-0.260194
-0.256776
-0.261062
-0.296026
-0.294635
-0.292857
-0.290774
-0.288475
-0.286036
-0.283525
-0.280998
-0.278497
-0.276046
-0.273652
-0.271305
-0.268983
-0.266653
-0.264332
-0.261857
-0.259969
-0.256209
-0.258939
-0.297077
-0.295153
-0.29292
-0.290475
-0.287893
-0.285246
-0.282587
-0.279956
-0.277373
-0.274839
-0.272338
-0.269841
-0.267304
-0.264732
-0.261958
-0.259608
-0.255481
-0.256722
-0.297584
-0.295196
-0.292598
-0.289871
-0.287083
-0.284288
-0.281521
-0.278798
-0.276111
-0.273437
-0.270738
-0.267962
-0.265098
-0.261982
-0.259131
-0.254618
-0.254487
-0.300157
-0.297606
-0.294852
-0.291974
-0.289042
-0.286106
-0.283196
-0.280321
-0.277466
-0.274597
-0.271668
-0.268618
-0.265423
-0.261927
-0.25855
-0.253642
-0.252272
-0.300156
-0.29724
-0.294208
-0.291127
-0.288043
-0.284982
-0.281942
-0.2789
-0.275813
-0.272623
-0.269263
-0.265701
-0.261791
-0.257877
-0.252567
-0.250098
-0.299769
-0.296578
-0.293343
-0.290104
-0.28688
-0.28366
-0.28041
-0.277075
-0.273592
-0.269888
-0.265925
-0.261573
-0.257117
-0.251403
-0.247966
-0.299089
-0.295693
-0.292291
-0.288891
-0.285472
-0.281988
-0.278376
-0.274565
-0.270481
-0.266085
-0.26127
-0.256276
-0.250157
-0.245872
-0.298181
-0.294604
-0.291012
-0.287372
-0.283628
-0.279706
-0.275531
-0.271033
-0.266177
-0.260879
-0.255353
-0.248833
-0.243805
-0.297044
-0.293242
-0.289356
-0.285319
-0.281051
-0.276477
-0.271531
-0.266191
-0.260398
-0.25435
-0.247432
-0.241751
-0.295575
-0.291414
-0.287051
-0.2824
-0.27739
-0.271966
-0.26612
-0.259823
-0.253264
-0.245954
-0.239695
-0.293537
-0.28881
-0.283739
-0.278257
-0.272327
-0.265958
-0.259151
-0.252092
-0.244398
-0.237623
-0.290583
-0.285052
-0.279064
-0.272602
-0.265697
-0.258378
-0.250833
-0.24276
-0.23552
-0.279798
-0.272782
-0.265331
-0.257501
-0.249481
-0.241038
-0.233374
-0.272856
-0.264852
-0.256515
-0.248034
-0.239229
-0.231173
-0.264256
-0.255416
-0.246486
-0.237329
-0.228907
-0.244834
-0.235332
-0.226566
-0.233236
-0.224141
-0.222447
-0.2126
-0.23487
-0.224578
-0.21501
-0.255912
-0.246341
-0.236621
-0.226619
-0.217343
-0.265406
-0.25671
-0.247599
-0.238279
-0.228574
-0.21961
-0.280263
-0.27322
-0.26558
-0.257404
-0.248759
-0.23985
-0.230448
-0.22182
-0.285222
-0.279282
-0.272768
-0.265661
-0.257999
-0.249824
-0.241338
-0.232246
-0.223985
-0.288754
-0.283742
-0.278266
-0.272251
-0.265658
-0.258503
-0.250799
-0.242749
-0.233973
-0.226117
-0.291235
-0.286913
-0.282279
-0.27723
-0.271683
-0.265582
-0.258922
-0.251686
-0.244085
-0.23563
-0.22823
-0.293013
-0.289161
-0.285135
-0.280843
-0.276187
-0.271075
-0.26544
-0.25926
-0.25249
-0.245349
-0.237221
-0.230338
-0.294342
-0.290804
-0.287186
-0.283428
-0.279447
-0.275149
-0.27044
-0.265243
-0.259525
-0.253213
-0.246543
-0.238748
-0.232456
-0.295355
-0.292057
-0.288716
-0.285314
-0.2818
-0.278101
-0.274127
-0.269788
-0.264999
-0.259721
-0.253856
-0.247668
-0.240209
-0.234598
-0.296079
-0.293017
-0.2899
-0.286747
-0.283545
-0.280255
-0.276811
-0.273132
-0.269129
-0.264717
-0.259854
-0.25442
-0.248723
-0.241604
-0.236778
-0.296477
-0.293695
-0.29081
-0.287869
-0.284894
-0.281881
-0.278797
-0.275585
-0.27217
-0.268471
-0.264403
-0.259927
-0.254906
-0.249703
-0.242926
-0.239004
-0.296481
-0.294046
-0.29144
-0.288728
-0.285958
-0.283155
-0.28032
-0.277426
-0.274425
-0.271249
-0.267823
-0.264066
-0.259946
-0.255312
-0.250601
-0.244168
-0.241279
-0.296002
-0.294003
-0.291741
-0.289307
-0.286765
-0.284161
-0.281524
-0.278858
-0.276141
-0.273333
-0.270372
-0.26719
-0.263712
-0.259914
-0.255637
-0.251408
-0.245315
-0.243598
-0.293487
-0.291651
-0.289556
-0.28729
-0.284913
-0.282472
-0.279996
-0.277491
-0.274941
-0.27231
-0.269543
-0.266578
-0.263346
-0.259833
-0.255877
-0.25211
-0.24635
-0.245938
-0.292455
-0.291098
-0.289416
-0.287484
-0.285381
-0.283165
-0.280884
-0.278564
-0.276213
-0.273821
-0.271353
-0.268762
-0.265989
-0.262972
-0.259706
-0.256031
-0.252686
-0.247248
-0.248253
-0.291073
-0.290047
-0.288826
-0.287293
-0.285518
-0.283573
-0.281515
-0.279388
-0.277219
-0.275019
-0.272776
-0.270461
-0.26803
-0.265427
-0.262594
-0.259536
-0.256095
-0.253116
-0.247976
-0.250464
-0.288642
-0.287758
-0.286665
-0.285275
-0.283649
-0.281858
-0.279953
-0.277977
-0.275956
-0.2739
-0.2718
-0.269629
-0.267343
-0.264891
-0.262217
-0.259326
-0.256067
-0.253372
-0.248493
-0.252436
-0.286332
-0.28558
-0.284609
-0.283354
-0.281873
-0.280229
-0.278472
-0.276643
-0.274765
-0.27285
-0.270886
-0.26885
-0.266699
-0.264381
-0.261841
-0.259079
-0.255948
-0.253428
-0.248754
-0.253951
-0.284135
-0.283506
-0.282649
-0.281523
-0.28018
-0.278678
-0.277065
-0.275378
-0.273639
-0.271859
-0.270027
-0.268119
-0.266093
-0.263897
-0.261469
-0.258801
-0.255741
-0.253259
-0.248722
-0.25474
-0.282044
-0.281529
-0.280781
-0.279776
-0.278565
-0.2772
-0.275725
-0.274174
-0.27257
-0.27092
-0.269215
-0.267429
-0.26552
-0.263433
-0.261102
-0.258497
-0.255454
-0.252833
-0.248346
-0.254512
-0.280051
-0.279642
-0.278996
-0.278107
-0.277021
-0.275786
-0.274443
-0.273025
-0.27155
-0.270026
-0.268442
-0.266772
-0.264974
-0.262989
-0.260741
-0.258177
-0.255102
-0.252132
-0.247343
-0.2509
-0.278147
-0.277839
-0.277289
-0.27651
-0.275543
-0.274432
-0.273215
-0.271923
-0.270572
-0.269168
-0.2677
-0.266141
-0.264448
-0.262558
-0.260388
-0.257855
-0.254729
-0.251314
-0.245719
-0.234921
-0.276328
-0.276114
-0.275655
-0.274978
-0.274124
-0.273131
-0.272035
-0.270862
-0.269629
-0.268339
-0.266982
-0.265529
-0.263936
-0.262137
-0.260043
-0.257551
-0.2544
-0.250627
-0.245358
-0.231285
-0.274586
-0.274462
-0.274087
-0.273508
-0.27276
-0.271878
-0.270896
-0.269836
-0.268715
-0.267535
-0.266282
-0.264929
-0.263431
-0.261721
-0.259705
-0.257272
-0.254166
-0.250285
-0.245843
-0.232202
-0.272915
-0.272876
-0.272582
-0.272095
-0.271447
-0.27067
-0.269794
-0.268842
-0.267826
-0.266748
-0.265594
-0.264336
-0.262928
-0.261303
-0.259369
-0.25701
-0.253998
-0.250168
-0.246292
-0.233302
-0.271311
-0.271353
-0.271135
-0.270734
-0.27018
-0.269501
-0.268726
-0.267874
-0.266958
-0.265975
-0.264914
-0.263745
-0.262422
-0.26088
-0.259027
-0.256751
-0.253848
-0.25014
-0.246571
-0.234285
-0.269769
-0.269889
-0.269742
-0.269422
-0.268956
-0.268369
-0.267688
-0.26693
-0.266106
-0.265213
-0.264238
-0.263152
-0.261909
-0.260446
-0.258673
-0.256485
-0.253694
-0.250148
-0.246778
-0.235388
-0.268285
-0.26848
-0.268401
-0.268156
-0.267773
-0.267272
-0.266678
-0.266008
-0.265269
-0.26446
-0.263565
-0.262556
-0.261388
-0.259999
-0.258305
-0.256205
-0.25353
-0.250172
-0.246959
-0.236592
-0.266856
-0.267123
-0.267108
-0.266934
-0.266628
-0.266207
-0.265694
-0.265105
-0.264446
-0.263714
-0.262893
-0.261955
-0.260858
-0.25954
-0.257923
-0.255912
-0.253356
-0.250199
-0.247122
-0.237817
-0.26548
-0.265816
-0.265861
-0.265754
-0.265519
-0.265173
-0.264736
-0.264222
-0.263636
-0.262975
-0.262223
-0.261352
-0.26032
-0.25907
-0.257528
-0.255607
-0.253174
-0.250222
-0.247278
-0.239013
-0.264154
-0.264558
-0.264659
-0.264615
-0.264446
-0.264169
-0.263802
-0.263357
-0.26284
-0.262245
-0.261556
-0.260747
-0.259778
-0.258593
-0.257125
-0.255295
-0.252989
-0.250241
-0.247438
-0.240154
-0.262878
-0.263346
-0.263501
-0.263515
-0.263408
-0.263195
-0.262892
-0.262512
-0.262057
-0.261523
-0.260894
-0.260143
-0.259233
-0.258112
-0.256718
-0.254981
-0.252805
-0.250259
-0.247608
-0.241224
-0.26165
-0.26218
-0.262386
-0.262454
-0.262405
-0.262251
-0.262008
-0.261687
-0.26129
-0.260813
-0.260239
-0.259543
-0.25869
-0.257631
-0.256312
-0.254669
-0.252626
-0.250276
-0.247788
-0.242211
-0.260469
-0.261058
-0.261313
-0.261431
-0.261436
-0.261337
-0.261149
-0.260883
-0.260541
-0.260116
-0.259594
-0.258951
-0.258153
-0.257156
-0.255912
-0.254365
-0.252456
-0.250295
-0.247974
-0.243105
-0.259335
-0.259982
-0.260281
-0.260448
-0.260503
-0.260454
-0.260318
-0.260102
-0.25981
-0.259435
-0.258962
-0.25837
-0.257626
-0.256691
-0.255521
-0.254073
-0.252297
-0.250314
-0.248163
-0.243905
-0.258249
-0.258951
-0.259293
-0.259504
-0.259605
-0.259603
-0.259514
-0.259346
-0.2591
-0.258772
-0.258346
-0.257802
-0.257112
-0.256239
-0.255145
-0.253794
-0.252149
-0.250333
-0.248349
-0.24461
-0.257211
-0.257965
-0.258347
-0.258599
-0.258743
-0.258785
-0.25874
-0.258616
-0.258414
-0.258129
-0.257749
-0.257253
-0.256614
-0.255803
-0.254785
-0.253532
-0.252012
-0.250353
-0.248531
-0.245224
-0.256221
-0.257025
-0.257444
-0.257735
-0.257919
-0.258001
-0.257997
-0.257914
-0.257753
-0.25751
-0.257173
-0.256723
-0.256137
-0.255386
-0.254443
-0.253284
-0.251888
-0.250372
-0.248709
-0.245747
-0.255281
-0.256132
-0.256585
-0.256912
-0.257133
-0.257253
-0.257286
-0.257242
-0.25712
-0.256917
-0.256621
-0.256216
-0.255681
-0.254991
-0.254122
-0.253054
-0.251776
-0.250391
-0.248884
-0.246171
-0.25439
-0.255285
-0.255772
-0.256131
-0.256387
-0.256541
-0.25661
-0.256601
-0.256516
-0.25635
-0.256095
-0.255734
-0.25525
-0.254619
-0.253822
-0.252843
-0.251674
-0.250413
-0.249025
-0.246527
-0.25355
-0.254487
-0.255004
-0.255394
-0.255681
-0.255868
-0.255969
-0.255994
-0.255943
-0.255814
-0.255597
-0.25528
-0.254844
-0.254271
-0.253545
-0.25265
-0.251585
-0.250434
-0.249136
-0.246995
-0.252761
-0.253737
-0.254282
-0.254701
-0.255017
-0.255234
-0.255366
-0.255421
-0.255403
-0.255309
-0.255129
-0.254854
-0.254466
-0.25395
-0.253291
-0.252477
-0.251509
-0.250458
-0.249252
-0.247394
-0.252026
-0.253038
-0.253608
-0.254053
-0.254396
-0.25464
-0.2548
-0.254886
-0.254898
-0.254836
-0.254693
-0.254458
-0.254116
-0.253655
-0.253061
-0.252324
-0.251446
-0.250488
-0.24937
-0.24772
-0.251344
-0.252389
-0.252983
-0.253451
-0.253819
-0.254088
-0.254275
-0.254387
-0.254429
-0.254399
-0.25429
-0.254093
-0.253797
-0.253389
-0.252856
-0.252193
-0.251398
-0.250525
-0.249492
-0.248013
-0.250717
-0.251792
-0.252407
-0.252897
-0.253287
-0.25358
-0.25379
-0.253928
-0.253997
-0.253997
-0.253921
-0.253762
-0.253509
-0.253151
-0.252679
-0.252084
-0.251368
-0.250573
-0.249622
-0.24829
-0.250146
-0.251247
-0.251881
-0.252391
-0.252801
-0.253115
-0.253348
-0.253509
-0.253604
-0.253632
-0.253588
-0.253465
-0.253254
-0.252944
-0.252528
-0.251999
-0.251356
-0.250636
-0.249764
-0.248563
-0.249631
-0.250755
-0.251406
-0.251933
-0.252362
-0.252695
-0.252948
-0.253132
-0.25325
-0.253304
-0.25329
-0.253202
-0.253031
-0.252768
-0.252407
-0.251939
-0.251366
-0.250716
-0.24992
-0.248838
-0.249173
-0.250317
-0.250983
-0.251525
-0.25197
-0.25232
-0.252592
-0.252796
-0.252937
-0.253016
-0.253031
-0.252975
-0.252843
-0.252625
-0.252315
-0.251907
-0.2514
-0.250817
-0.250096
-0.249123
-0.248772
-0.249934
-0.250612
-0.251167
-0.251626
-0.251991
-0.25228
-0.252502
-0.252664
-0.252767
-0.252809
-0.252785
-0.252689
-0.252514
-0.252254
-0.251902
-0.251459
-0.250941
-0.250294
-0.249425
-0.24843
-0.249605
-0.250293
-0.25086
-0.251331
-0.251709
-0.252013
-0.252252
-0.252434
-0.252559
-0.252626
-0.252632
-0.252571
-0.252437
-0.252224
-0.251927
-0.251545
-0.251091
-0.250516
-0.249747
-0.248146
-0.249331
-0.250027
-0.250603
-0.251084
-0.251474
-0.251791
-0.252046
-0.252245
-0.25239
-0.252482
-0.252516
-0.252489
-0.252394
-0.252227
-0.251983
-0.25166
-0.251269
-0.250766
-0.250094
-0.24792
-0.249111
-0.249814
-0.250396
-0.250886
-0.251286
-0.251615
-0.251883
-0.252098
-0.252263
-0.252377
-0.252438
-0.252443
-0.252386
-0.252263
-0.25207
-0.251804
-0.251475
-0.251044
-0.250467
-0.247753
-0.248947
-0.249653
-0.25024
-0.250737
-0.251145
-0.251483
-0.251764
-0.251993
-0.252176
-0.252311
-0.252398
-0.252434
-0.252413
-0.252332
-0.252189
-0.251979
-0.251711
-0.251352
-0.250869
-0.247643
-0.248837
-0.249544
-0.250135
-0.250636
-0.25105
-0.251397
-0.251688
-0.251931
-0.252129
-0.252285
-0.252396
-0.25246
-0.252474
-0.252435
-0.252339
-0.252185
-0.251977
-0.25169
-0.251299
-0.247591
-0.24878
-0.249487
-0.250079
-0.250583
-0.251002
-0.251355
-0.251655
-0.251909
-0.252123
-0.252297
-0.252431
-0.252523
-0.25257
-0.25257
-0.252521
-0.25242
-0.252273
-0.252058
-0.251758
-0.247596
-0.248777
-0.249481
-0.250072
-0.250577
-0.250999
-0.251357
-0.251664
-0.251929
-0.252156
-0.252347
-0.252502
-0.252621
-0.2527
-0.252738
-0.252734
-0.252686
-0.252598
-0.252455
-0.252244
-0.247657
-0.248827
-0.249526
-0.250113
-0.250617
-0.25104
-0.251402
-0.251716
-0.251989
-0.252228
-0.252434
-0.25261
-0.252753
-0.252862
-0.252937
-0.252977
-0.25298
-0.252951
-0.252879
-0.252757
-0.247773
-0.248927
-0.249619
-0.250202
-0.250703
-0.251126
-0.25149
-0.251807
-0.252088
-0.252337
-0.252558
-0.252751
-0.252918
-0.253056
-0.253166
-0.253248
-0.253302
-0.253331
-0.253328
-0.253293
-0.247942
-0.249078
-0.24976
-0.250336
-0.250833
-0.251254
-0.251618
-0.251938
-0.252224
-0.252483
-0.252716
-0.252926
-0.253115
-0.25328
-0.253424
-0.253546
-0.253649
-0.253735
-0.253801
-0.25385
-0.248162
-0.249277
-0.249947
-0.250515
-0.251005
-0.251423
-0.251785
-0.252107
-0.252398
-0.252663
-0.252907
-0.253133
-0.253341
-0.253533
-0.253708
-0.253869
-0.254018
-0.25416
-0.254294
-0.254424
-0.248433
-0.249522
-0.250179
-0.250737
-0.251219
-0.251631
-0.251991
-0.252313
-0.252606
-0.252877
-0.253131
-0.25337
-0.253596
-0.253811
-0.254016
-0.254214
-0.254408
-0.254604
-0.254803
-0.255012
-0.256084
-0.256462
-0.257017
-0.257544
-0.258163
-0.25882
-0.259541
-0.260302
-0.261093
-0.261879
-0.262617
-0.26324
-0.263667
-0.263801
-0.263521
-0.256818
-0.257295
-0.258001
-0.258696
-0.259513
-0.260395
-0.261371
-0.262418
-0.263522
-0.264646
-0.26574
-0.26673
-0.26752
-0.267997
-0.268018
-0.257564
-0.258128
-0.258987
-0.259845
-0.260858
-0.261963
-0.263193
-0.264523
-0.26594
-0.267402
-0.268854
-0.270213
-0.27137
-0.272194
-0.272521
-0.258318
-0.258956
-0.259966
-0.260984
-0.26219
-0.263516
-0.264997
-0.266609
-0.268336
-0.270136
-0.271946
-0.273675
-0.275202
-0.276378
-0.277017
-0.259073
-0.259773
-0.260934
-0.262106
-0.263502
-0.265044
-0.266773
-0.268664
-0.2707
-0.272836
-0.275004
-0.277104
-0.279002
-0.280534
-0.281489
-0.259823
-0.260572
-0.261883
-0.263204
-0.264786
-0.266541
-0.268514
-0.270679
-0.273021
-0.27549
-0.278014
-0.280485
-0.282756
-0.284645
-0.285922
-0.260563
-0.261347
-0.262807
-0.264272
-0.266035
-0.267997
-0.270209
-0.272644
-0.275287
-0.278087
-0.280964
-0.283804
-0.286449
-0.288695
-0.290299
-0.29093
-0.261285
-0.262093
-0.2637
-0.265302
-0.267242
-0.269405
-0.27185
-0.27455
-0.277489
-0.280614
-0.283842
-0.287048
-0.290065
-0.292667
-0.294603
-0.295489
-0.261986
-0.262803
-0.264555
-0.266287
-0.268398
-0.270757
-0.273429
-0.276387
-0.279616
-0.283061
-0.286633
-0.290202
-0.29359
-0.296555
-0.298818
-0.29996
-0.262659
-0.263471
-0.265368
-0.267223
-0.269499
-0.272045
-0.274937
-0.278146
-0.281657
-0.285415
-0.289327
-0.293252
-0.297008
-0.300335
-0.302927
-0.304324
-0.263301
-0.264093
-0.266132
-0.268102
-0.270537
-0.273263
-0.276367
-0.279818
-0.283603
-0.287667
-0.291911
-0.296186
-0.300304
-0.303989
-0.306912
-0.308564
-0.263907
-0.264663
-0.266842
-0.26892
-0.271506
-0.274405
-0.277712
-0.281396
-0.285446
-0.289806
-0.294375
-0.298989
-0.303464
-0.307502
-0.310759
-0.312661
-0.264475
-0.265177
-0.267495
-0.269672
-0.272401
-0.275464
-0.278965
-0.282872
-0.287176
-0.291822
-0.296707
-0.301651
-0.306475
-0.310858
-0.314452
-0.316598
-0.265003
-0.265629
-0.268087
-0.270354
-0.273218
-0.276436
-0.28012
-0.28424
-0.288786
-0.293707
-0.2989
-0.30416
-0.309323
-0.314044
-0.317977
-0.320358
-0.265508
-0.266011
-0.268614
-0.270962
-0.273953
-0.277316
-0.281173
-0.285493
-0.29027
-0.295452
-0.300945
-0.306505
-0.311998
-0.317046
-0.321321
-0.323925
-0.266004
-0.266312
-0.269075
-0.271494
-0.274603
-0.2781
-0.282119
-0.286628
-0.291622
-0.297053
-0.302837
-0.308674
-0.314488
-0.319852
-0.324479
-0.327283
-0.266319
-0.266616
-0.269459
-0.271952
-0.275165
-0.278787
-0.282956
-0.287642
-0.29284
-0.298507
-0.304574
-0.310654
-0.316784
-0.322453
-0.327444
-0.330404
-0.266623
-0.26684
-0.269774
-0.272331
-0.275637
-0.279374
-0.283679
-0.288529
-0.293915
-0.299798
-0.306095
-0.312489
-0.318891
-0.324847
-0.330013
-0.333255
-0.266911
-0.266985
-0.27002
-0.272631
-0.27602
-0.279861
-0.28429
-0.289289
-0.294851
-0.300936
-0.307449
-0.314119
-0.320787
-0.327021
-0.332373
-0.336051
-0.26717
-0.267061
-0.270199
-0.272853
-0.276315
-0.280248
-0.284788
-0.289922
-0.295645
-0.301916
-0.308631
-0.315551
-0.322474
-0.32898
-0.334606
-0.338561
-0.267402
-0.267072
-0.27031
-0.272998
-0.276521
-0.280534
-0.285173
-0.290428
-0.296296
-0.302735
-0.309638
-0.316786
-0.323949
-0.330715
-0.336601
-0.340797
-0.267617
-0.267023
-0.270356
-0.273069
-0.276641
-0.280723
-0.285446
-0.290807
-0.296803
-0.303393
-0.310469
-0.317823
-0.325208
-0.332214
-0.338339
-0.342768
-0.267822
-0.266918
-0.270339
-0.27307
-0.276678
-0.280816
-0.28561
-0.291062
-0.297169
-0.303892
-0.311123
-0.318662
-0.32625
-0.333476
-0.339822
-0.344472
-0.268027
-0.266764
-0.270263
-0.273003
-0.276634
-0.280817
-0.285667
-0.291195
-0.297397
-0.304235
-0.311602
-0.319305
-0.327076
-0.334502
-0.341049
-0.345908
-0.34841
-0.268241
-0.266567
-0.27013
-0.272873
-0.276514
-0.280729
-0.285622
-0.291209
-0.29749
-0.304425
-0.311909
-0.319755
-0.327688
-0.335292
-0.342023
-0.347076
-0.349741
-0.268472
-0.266339
-0.269946
-0.272684
-0.276322
-0.280556
-0.285478
-0.29111
-0.297452
-0.304466
-0.312048
-0.320014
-0.328088
-0.335851
-0.34275
-0.347979
-0.350799
-0.268727
-0.266088
-0.269714
-0.272442
-0.276062
-0.280303
-0.285239
-0.290902
-0.297288
-0.304362
-0.312023
-0.320089
-0.328282
-0.336182
-0.343232
-0.348621
-0.351588
-0.26901
-0.265826
-0.269439
-0.272149
-0.275738
-0.279974
-0.284911
-0.290589
-0.297003
-0.30412
-0.311839
-0.319983
-0.328274
-0.336289
-0.343475
-0.349005
-0.352108
-0.269318
-0.265565
-0.269127
-0.27181
-0.275355
-0.279572
-0.284498
-0.290176
-0.296602
-0.303743
-0.311502
-0.319703
-0.328069
-0.336179
-0.343483
-0.349136
-0.352365
-0.269643
-0.265318
-0.268783
-0.271429
-0.274916
-0.279103
-0.284004
-0.289668
-0.29609
-0.303239
-0.311018
-0.319254
-0.327674
-0.335856
-0.34327
-0.349023
-0.352363
-0.269968
-0.265094
-0.268412
-0.271008
-0.274426
-0.278569
-0.283433
-0.289069
-0.295472
-0.302611
-0.310391
-0.318642
-0.327093
-0.335325
-0.342865
-0.348675
-0.352109
-0.270264
-0.264899
-0.26802
-0.270549
-0.273885
-0.277974
-0.282789
-0.288383
-0.294753
-0.301865
-0.309628
-0.317874
-0.326332
-0.334592
-0.342319
-0.348098
-0.351607
-0.270486
-0.264735
-0.267612
-0.270051
-0.273296
-0.27732
-0.282074
-0.287614
-0.293936
-0.301005
-0.308733
-0.316954
-0.325398
-0.333661
-0.341571
-0.347285
-0.350864
-0.351169
-0.270572
-0.264594
-0.267192
-0.269513
-0.272658
-0.276607
-0.28129
-0.286765
-0.293024
-0.300036
-0.307711
-0.315888
-0.324296
-0.332531
-0.340064
-0.346228
-0.349884
-0.350298
-0.270438
-0.264452
-0.266758
-0.268932
-0.271968
-0.275835
-0.280438
-0.285836
-0.292021
-0.29896
-0.306565
-0.31468
-0.323033
-0.331231
-0.338692
-0.344945
-0.348675
-0.349199
-0.269967
-0.264263
-0.266307
-0.268304
-0.271225
-0.275006
-0.279522
-0.284833
-0.290933
-0.297786
-0.305307
-0.313343
-0.321624
-0.329774
-0.337209
-0.343452
-0.347256
-0.34789
-0.269008
-0.263982
-0.265842
-0.267634
-0.270434
-0.274123
-0.278546
-0.283762
-0.289765
-0.296519
-0.303941
-0.311882
-0.320075
-0.32816
-0.335551
-0.341768
-0.345634
-0.346378
-0.267492
-0.263576
-0.265357
-0.266917
-0.269578
-0.273164
-0.277481
-0.282584
-0.288471
-0.295107
-0.302409
-0.310232
-0.318316
-0.326323
-0.33366
-0.33982
-0.34374
-0.344609
-0.265212
-0.262757
-0.264727
-0.266068
-0.26858
-0.272058
-0.276261
-0.281239
-0.286995
-0.293493
-0.300653
-0.308336
-0.316285
-0.324181
-0.331438
-0.337557
-0.341528
-0.342533
-0.260183
-0.260852
-0.263804
-0.265044
-0.267497
-0.270953
-0.275114
-0.280032
-0.285717
-0.292134
-0.299199
-0.306777
-0.314613
-0.322379
-0.329547
-0.335645
-0.339595
-0.340613
-0.247882
-0.257875
-0.262965
-0.26425
-0.266737
-0.270263
-0.274473
-0.279421
-0.285132
-0.291567
-0.298644
-0.306222
-0.314049
-0.321803
-0.328909
-0.334839
-0.338645
-0.339479
-0.243073
-0.255628
-0.261961
-0.263182
-0.265654
-0.269264
-0.2735
-0.278418
-0.284058
-0.290376
-0.297281
-0.304624
-0.312147
-0.319513
-0.326192
-0.331614
-0.334907
-0.335235
-0.241754
-0.253851
-0.260623
-0.261879
-0.264352
-0.268046
-0.272312
-0.277192
-0.282741
-0.28891
-0.295597
-0.302643
-0.309788
-0.316694
-0.322845
-0.327659
-0.330339
-0.330083
-0.241475
-0.251831
-0.258683
-0.260169
-0.262666
-0.26642
-0.270713
-0.275551
-0.281001
-0.28701
-0.293465
-0.300202
-0.306961
-0.313404
-0.319018
-0.32324
-0.325328
-0.324516