/*--------------------------------*- C++ -*----------------------------------*\
  =========                 |
  \\      /  F ield         | OpenFOAM: The Open Source CFD Toolbox
   \\    /   O peration     | Website:  https://openfoam.org
    \\  /    A nd           | Version:  7
     \\/     M anipulation  |
\*---------------------------------------------------------------------------*/
FoamFile
{
    version     2.0;
    format      ascii;
    class       volVectorField;
    location    "20";
    object      U;
}
// * * * * * * * * * * * * * * * * * * * * * * * * * * * * * * * * * * * * * //

dimensions      [0 1 -1 0 0 0 0];

internalField   nonuniform List<vector> 
8500
(
(-0.0086355 0.00667173 9.16514e-20)
(-0.00854189 0.00635886 7.71663e-20)
(-0.0179158 0.0146623 -1.0177e-19)
(-0.00839057 0.00602096 4.86847e-19)
(-0.0169162 0.0136532 -2.88939e-19)
(-0.017233 0.0185761 -1.4162e-21)
(-0.00817476 0.00565782 -2.53284e-19)
(-0.0156997 0.0125885 2.3984e-21)
(-0.0144232 0.0169674 2.09281e-19)
(-0.00788732 0.00526955 -8.90031e-20)
(-0.0142467 0.0114711 5.30949e-20)
(-0.0111889 0.0153083 7.73408e-20)
(0.00115123 0.017357 -2.28505e-19)
(-0.00752082 0.00485665 4.56821e-19)
(-0.0125371 0.0103046 -1.15234e-19)
(-0.00749969 0.0136083 -1.6722e-19)
(0.00741027 0.0153284 8.60112e-20)
(0.0322383 0.0162566 4.07467e-19)
(-0.00706754 0.00441999 -2.05789e-19)
(-0.0105505 0.00909424 3.13828e-20)
(-0.00332492 0.0118784 -2.32848e-19)
(0.0143771 0.013311 -3.28916e-19)
(0.0425722 0.014207 -1.41532e-19)
(0.0812738 0.0152843 -7.92691e-20)
(-0.00651961 0.00396093 -2.0102e-19)
(-0.00826629 0.00784611 4.43384e-19)
(0.00136549 0.0101317 2.76838e-19)
(0.0220876 0.011326 1.2389e-19)
(0.0538803 0.0122639 -4.47893e-20)
(0.0967033 0.0136764 -2.93817e-19)
(0.150437 0.016183 4.10782e-20)
(-0.00586899 0.00348133 3.57816e-20)
(-0.00566388 0.00656785 -6.69049e-20)
(0.00660083 0.00838325 4.93121e-20)
(0.0305758 0.0093967 -1.19029e-19)
(0.0661951 0.0104593 2.5244e-19)
(0.11335 0.0123106 4.57452e-19)
(0.171814 0.0155656 1.41697e-19)
(0.241139 0.020728 8.8896e-20)
(-0.00510757 0.00298358 -1.2069e-19)
(-0.002723 0.00526849 -2.81342e-19)
(0.0124093 0.00664999 -2.13272e-19)
(0.0398727 0.00754871 6.65738e-20)
(0.0795443 0.0088275 -3.60172e-19)
(0.13123 0.0112284 -4.48974e-19)
(0.19457 0.0153544 -6.03535e-20)
(0.268925 0.0216795 -1.40229e-19)
(0.353229 0.0305121 -1.42803e-20)
(-0.00422726 0.00247064 -9.32295e-20)
(0.000576119 0.00395852 -7.28689e-20)
(0.0188174 0.00495105 3.28217e-19)
(0.0500062 0.00581016 -2.03217e-19)
(0.0939496 0.00740489 5.25356e-19)
(0.150348 0.010473 2.21691e-19)
(0.218682 0.0155959 -1.45882e-19)
(0.298088 0.0232053 -2.50114e-19)
(0.387199 0.0335399 -3.99607e-19)
(0.484037 0.0466037 4.24742e-19)
(-0.00322003 0.00194606 1.83355e-19)
(0.00425255 0.00264999 2.98837e-19)
(0.0258498 0.00330764 1.21675e-20)
(0.0610001 0.00421139 1.86445e-19)
(0.109426 0.00622995 -4.51101e-19)
(0.1707 0.0100886 1.09223e-19)
(0.244115 0.016336 -7.14449e-20)
(0.328545 0.0253472 -1.40833e-20)
(0.422292 0.0372741 -1.3634e-19)
(0.522995 0.0520025 -3.0022e-19)
(0.627627 0.0691269 1.49003e-19)
(-0.00207802 0.00141402 -3.29673e-20)
(0.00832435 0.00135646 -4.5129e-19)
(0.0335287 0.00174303 -3.4799e-19)
(0.0728739 0.00278488 -2.21977e-20)
(0.125981 0.00534284 7.90878e-20)
(0.192271 0.01012 -1.53023e-19)
(0.270817 0.0176193 -8.78159e-22)
(0.360196 0.0281432 5.10688e-20)
(0.45835 0.0417384 7.54367e-20)
(0.562516 0.0581549 4.2741e-19)
(0.669287 0.0768323 1.77604e-19)
(0.774826 0.0969292 1.08941e-19)
(0.875226 0.117408 -1.46067e-19)
(-0.000793612 0.000879286 5.87318e-20)
(0.0128083 9.30158e-05 2.3941e-19)
(0.0418735 0.000282434 1.49623e-19)
(0.0856417 0.00156508 -2.75133e-19)
(0.143615 0.00478503 5.90915e-20)
(0.215035 0.010612 3.60267e-19)
(0.298722 0.0194885 1.97312e-19)
(0.392926 0.0316266 2.62038e-20)
(0.495198 0.0469493 2.41896e-19)
(0.602369 0.0650543 -4.93453e-19)
(0.710674 0.0852168 -1.39207e-19)
(0.816048 0.106445 -5.96137e-20)
(0.914542 0.127595 3.54138e-19)
(1.0028 0.147519 -2.35285e-19)
(0.000640487 0.000347281 -5.4779e-20)
(0.0177198 -0.00112375 -3.39946e-20)
(0.0509001 -0.00104704 -8.78717e-20)
(0.0993123 0.000588099 2.88643e-19)
(0.162318 0.00459889 1.93725e-19)
(0.238952 0.0116087 -6.18798e-20)
(0.32775 0.0219833 -1.0951e-20)
(0.4266 0.0358256 2.44413e-19)
(0.532645 0.0529157 -3.73002e-19)
(0.642315 0.0726847 2.28606e-19)
(0.751524 0.0942389 2.34869e-19)
(0.856045 0.116445 6.29087e-20)
(0.951985 0.138072 -1.25702e-19)
(1.03626 0.157963 1.83937e-19)
(1.10693 0.175191 1.51891e-19)
(0.00223112 -0.000175971 -8.53669e-20)
(0.0230723 -0.00227583 3.75999e-20)
(0.060621 -0.00221662 2.47811e-19)
(0.113888 -0.000108532 4.09584e-21)
(0.182073 0.00482723 -4.19266e-19)
(0.263973 0.0131531 -2.88308e-19)
(0.357806 0.0251401 -2.46551e-19)
(0.461072 0.0407622 -1.29684e-19)
(0.570494 0.0596386 4.94098e-19)
(0.682116 0.0810222 -2.19699e-20)
(0.791581 0.10385 6.73528e-20)
(0.894584 0.126862 1.1053e-19)
(0.98738 0.148768 -3.6925e-19)
(1.06724 0.16843 -2.96839e-19)
(1.13272 0.185011 7.95508e-20)
(1.1837 0.198047 -1.53786e-20)
(1.22119 0.207484 -3.18195e-19)
(0.00398462 -0.000683832 1.085e-19)
(0.0288773 -0.00334383 1.38671e-19)
(0.0710444 -0.00319599 -2.56387e-19)
(0.129364 -0.000486262 -1.39945e-20)
(0.202851 0.00551271 4.93126e-19)
(0.290034 0.0152861 3.08616e-19)
(0.388781 0.0289911 -1.24375e-19)
(0.496182 0.0464523 1.83407e-19)
(0.608538 0.0671112 -1.96107e-19)
(0.721534 0.0900348 -1.98805e-19)
(0.830609 0.113997 2.03626e-19)
(0.931465 0.137629 -4.12234e-19)
(1.0206 0.159613 5.2337e-20)
(1.0957 0.178861 2.00447e-19)
(1.15587 0.194652 -1.10118e-19)
(1.2015 0.206669 1.58376e-19)
(1.23404 0.215003 -1.91737e-19)
(1.25558 0.219927 3.16577e-20)
(0.00590666 -0.00116908 1.27349e-19)
(0.0351437 -0.00430713 -4.21777e-19)
(0.082174 -0.00395361 6.76664e-20)
(0.14573 -0.000505896 -7.07935e-20)
(0.224615 0.00669736 -1.73615e-19)
(0.31706 0.0180463 -1.39435e-19)
(0.420554 0.0335635 1.25183e-19)
(0.53176 0.0529046 -5.75197e-19)
(0.646566 0.075319 -1.35053e-19)
(0.760341 0.0996842 8.72297e-20)
(0.868391 0.124622 -1.10725e-19)
(0.966518 0.148682 3.20079e-19)
(1.05154 0.170545 2.25605e-19)
(1.12165 0.189209 7.88015e-20)
(1.17646 0.204086 4.37267e-19)
(1.2169 0.215017 -4.33377e-19)
(1.24479 0.222232 2.67555e-19)
(1.26245 0.226129 3.79971e-19)
(1.27234 0.227624 -2.71779e-19)
(1.27653 0.2261 7.62289e-20)
(0.0080022 -0.00162392 1.02232e-20)
(0.0418782 -0.00514399 -4.48731e-21)
(0.0940086 -0.00445692 3.08782e-19)
(0.162967 -0.000128035 -4.45856e-20)
(0.247317 0.00842193 -1.92178e-20)
(0.344965 0.0214687 3.31313e-19)
(0.452994 0.0388792 3.81564e-19)
(0.567631 0.0601212 1.04509e-19)
(0.684371 0.0842403 2.25409e-19)
(0.798321 0.109926 -1.48889e-19)
(0.904737 0.135666 -1.26639e-19)
(0.999611 0.159955 -2.30957e-21)
(1.08016 0.181509 -1.56238e-19)
(1.14511 0.199434 -5.60776e-21)
(1.19463 0.213295 -3.07725e-19)
(1.23009 0.223093 1.21961e-19)
(1.25365 0.22919 2.87259e-19)
(1.26779 0.232092 -1.45082e-19)
(1.275 0.232726 1.67443e-19)
(1.27728 0.230607 3.02193e-19)
(0.0102753 -0.00204006 3.94015e-20)
(0.0490843 -0.0058317 -1.08653e-19)
(0.106542 -0.00467268 -6.39376e-21)
(0.181047 0.000686462 2.88441e-21)
(0.270901 0.0107253 -2.18193e-19)
(0.373651 0.0255847 -3.08932e-20)
(0.485958 0.0449544 -3.93749e-19)
(0.603613 0.0680968 4.10305e-19)
(0.721747 0.0938467 2.12239e-19)
(0.835273 0.120713 1.87325e-20)
(0.939482 0.147071 -2.16609e-21)
(1.03064 0.17139 -1.12047e-19)
(1.10645 0.192456 6.65829e-20)
(1.16616 0.209507 1.83072e-19)
(1.2105 0.22227 -3.19233e-19)
(1.24124 0.230907 2.44002e-19)
(1.26081 0.235901 -2.95462e-19)
(1.2718 0.237848 -1.33776e-20)
(1.27667 0.237674 1.29835e-21)
(1.27732 0.235004 1.36081e-19)
(0.0127292 -0.00240871 -8.60686e-20)
(0.0567626 -0.00634678 -9.85625e-20)
(0.119762 -0.00456729 1.40829e-19)
(0.199937 0.001976 -6.28141e-20)
(0.295299 0.0136441 -1.98064e-20)
(0.403011 0.0304212 -1.93452e-19)
(0.519297 0.0517991 2.16876e-19)
(0.639522 0.0768198 -3.89818e-19)
(0.758498 0.104104 3.60837e-20)
(0.871015 0.131994 6.0353e-20)
(0.97249 0.158776 -3.34867e-20)
(1.05955 0.182933 2.39357e-20)
(1.13041 0.203345 -2.79003e-19)
(1.18489 0.219405 -2.13925e-19)
(1.22421 0.23101 1.80167e-19)
(1.25053 0.238474 -5.8336e-20)
(1.26645 0.242389 -3.51802e-19)
(1.27465 0.243427 -6.75839e-20)
(1.27748 0.242497 -2.96967e-19)
(1.27675 0.239317 -3.68703e-19)
(0.015366 -0.00272067 -2.0461e-20)
(0.0649104 -0.00666515 1.45387e-19)
(0.133652 -0.00410716 1.05918e-19)
(0.219596 0.00377774 3.10048e-19)
(0.320435 0.0172116 -1.11338e-20)
(0.43293 0.0360001 1.65652e-19)
(0.552858 0.059417 -3.52288e-19)
(0.675178 0.086272 1.24187e-19)
(0.794438 0.114974 -1.04443e-19)
(0.905387 0.143716 1.52406e-19)
(1.00365 0.170727 3.7606e-20)
(1.0863 0.194534 9.00012e-20)
(1.15209 0.214143 2.59243e-19)
(1.20141 0.229115 3.24617e-20)
(1.23593 0.239519 -1.6317e-19)
(1.25813 0.245813 2.71085e-19)
(1.27076 0.248682 9.60853e-20)
(1.27648 0.248857 -4.57664e-20)
(1.27756 0.247222 2.78876e-19)
(1.27567 0.243571 1.85649e-19)
(0.0181866 -0.00296641 6.70823e-20)
(0.0735213 -0.00676238 7.56034e-20)
(0.148189 -0.00325904 -1.87209e-19)
(0.239972 0.00612713 -4.28447e-20)
(0.346225 0.0214581 5.54858e-20)
(0.463285 0.0423385 -3.27198e-20)
(0.586482 0.0678057 1.99808e-19)
(0.710404 0.0964293 -6.37259e-20)
(0.829396 0.126414 -7.85218e-20)
(0.938249 0.155826 -2.69265e-19)
(1.03289 0.182871 -1.73298e-19)
(1.11089 0.206151 -1.60748e-19)
(1.17156 0.224824 -1.32009e-19)
(1.21584 0.23863 5.08556e-20)
(1.24581 0.247806 -9.97781e-20)
(1.26421 0.252943 1.21336e-20)
(1.27388 0.254806 1.91537e-19)
(1.27744 0.254166 2.04401e-19)
(1.27702 0.251872 1.48856e-20)
(1.27416 0.247786 1.29839e-19)
(0.0211908 -0.00313609 3.46584e-20)
(0.0825856 -0.00661391 1.29239e-19)
(0.163343 -0.00199047 1.02329e-19)
(0.261009 0.00905743 -1.7039e-19)
(0.372577 0.0264095 1.58287e-19)
(0.493945 0.0494476 -5.15256e-20)
(0.620011 0.0769565 -1.10127e-19)
(0.745029 0.107262 2.6526e-19)
(0.863214 0.138379 -6.7049e-20)
(0.969489 0.168271 -2.6242e-21)
(1.06016 0.195157 1.859e-19)
(1.13332 0.217748 -1.68324e-19)
(1.18889 0.23537 7.42183e-20)
(1.2283 0.247947 -1.88626e-19)
(1.25401 0.255885 3.19928e-19)
(1.26893 0.259888 -2.43823e-19)
(1.27596 0.260786 -1.47861e-19)
(1.27763 0.259378 -1.57069e-21)
(1.27594 0.256466 -2.19831e-19)
(1.27227 0.251977 -2.68434e-21)
(0.024377 -0.00321971 -1.5591e-19)
(0.0920896 -0.00619532 -5.72566e-20)
(0.179079 -0.000270116 -1.90796e-19)
(0.282643 0.0125992 -1.05844e-19)
(0.39939 0.0320876 -5.44393e-20)
(0.524779 0.0573331 -2.63799e-20)
(0.653289 0.0868551 1.21517e-19)
(0.778892 0.118737 -6.66599e-20)
(0.895754 0.15082 -3.28523e-20)
(0.999013 0.181 8.33118e-20)
(1.08542 0.207543 -1.14086e-19)
(1.15365 0.229294 1.46307e-19)
(1.20418 0.245766 1.41826e-19)
(1.23893 0.257071 3.17048e-20)
(1.26066 0.263769 -9.1063e-20)
(1.27243 0.266668 -2.1814e-20)
(1.27712 0.266646 -1.2699e-19)
(1.27716 0.264513 -5.43671e-20)
(1.27439 0.261022 8.99356e-20)
(1.27005 0.256158 -1.55527e-19)
(0.0277423 -0.00320716 5.1748e-20)
(0.102016 -0.00548258 -8.79524e-20)
(0.195358 0.00193181 1.498e-19)
(0.304802 0.0167799 7.00858e-20)
(0.426562 0.0385093 -1.01497e-19)
(0.55565 0.065995 1.25856e-19)
(0.68616 0.0974814 3.14466e-20)
(0.811843 0.130816 -5.72743e-20)
(0.926894 0.16369 1.55275e-19)
(1.02675 0.193965 4.65475e-20)
(1.10867 0.219986 8.93211e-20)
(1.17192 0.240763 -9.29997e-20)
(1.21754 0.256004 -6.2167e-20)
(1.24786 0.266008 1.33174e-19)
(1.26592 0.271476 -3.83407e-20)
(1.27484 0.273305 2.21484e-19)
(1.27746 0.272406 1.17974e-19)
(1.2761 0.26959 -1.98022e-20)
(1.27243 0.265554 6.57033e-20)
(1.26754 0.260337 2.53178e-19)
(0.0312823 -0.00308833 -2.56155e-20)
(0.112343 -0.00445233 1.44234e-20)
(0.212132 0.00464316 -1.37208e-19)
(0.32741 0.0216235 8.837e-20)
(0.45398 0.0456869 8.28538e-20)
(0.586422 0.0754276 -1.18848e-19)
(0.718477 0.10881 5.5422e-20)
(0.843744 0.143458 -1.08742e-19)
(0.956534 0.17694 -1.56017e-19)
(1.05266 0.207119 5.70135e-20)
(1.12993 0.232453 1.06411e-20)
(1.18821 0.252136 9.00981e-20)
(1.22907 0.266081 6.16604e-20)
(1.25523 0.274766 -4.19447e-20)
(1.26991 0.279023 -8.83624e-21)
(1.27628 0.279819 -3.3718e-20)
(1.2771 0.278085 -1.77338e-19)
(1.27454 0.274623 1.48118e-20)
(1.27011 0.270071 -1.19229e-19)
(1.26477 0.264522 1.04405e-21)
(0.0349913 -0.00285322 -2.89565e-20)
(0.123047 -0.00308216 -3.71336e-20)
(0.229352 0.0078895 1.45178e-19)
(0.350385 0.0271501 -1.80115e-20)
(0.481533 0.0536271 6.57748e-22)
(0.616958 0.0856196 -8.1078e-20)
(0.750098 0.120812 -1.42818e-20)
(0.874472 0.15662 5.83414e-20)
(0.984588 0.190522 2.01908e-19)
(1.0767 0.220419 -6.52819e-20)
(1.14922 0.244912 1.14566e-20)
(1.20259 0.263397 3.6163e-20)
(1.23889 0.275995 -7.12167e-20)
(1.26116 0.283356 -4.63621e-20)
(1.27276 0.286426 1.24919e-20)
(1.27685 0.286228 4.41751e-20)
(1.2761 0.283701 1.13286e-19)
(1.27252 0.279626 -3.02087e-21)
(1.26746 0.274583 4.37936e-20)
(1.26175 0.268716 3.04203e-20)
(0.038862 -0.00249205 5.04809e-20)
(0.134099 -0.00135088 1.04032e-19)
(0.246961 0.0116937 7.21496e-20)
(0.373639 0.0333757 -3.95987e-20)
(0.509105 0.0623317 1.47858e-19)
(0.647126 0.0965546 8.8135e-20)
(0.78089 0.133453 -1.33226e-19)
(0.903916 0.170258 -4.69539e-20)
(1.01099 0.204389 9.97103e-22)
(1.09888 0.233824 -3.97863e-20)
(1.16658 0.257336 -1.16167e-19)
(1.21515 0.274535 1.94627e-20)
(1.24711 0.285749 2.33678e-22)
(1.26576 0.291789 -1.24875e-19)
(1.27456 0.293701 5.7696e-20)
(1.27665 0.292548 -3.13061e-20)
(1.27454 0.289265 -1.39477e-19)
(1.2701 0.284608 6.81143e-20)
(1.26452 0.279093 -1.45727e-19)
(1.25851 0.272921 -8.88619e-20)
(0.0428857 -0.00199537 -1.76795e-20)
(0.145466 0.000761191 -4.46023e-20)
(0.264898 0.0160758 -7.49779e-20)
(0.397081 0.0403117 -3.63498e-21)
(0.53658 0.071797 -6.70903e-21)
(0.676795 0.108211 -8.35914e-20)
(0.81073 0.146696 1.91554e-20)
(0.931983 0.184324 1.8277e-20)
(1.03569 0.218496 -3.84003e-20)
(1.11918 0.247299 3.21062e-21)
(1.18208 0.269702 6.12615e-20)
(1.22599 0.285541 -8.20176e-21)
(1.25384 0.295347 4.75868e-20)
(1.26915 0.300078 2.13505e-20)
(1.27543 0.300863 -1.18976e-19)
(1.27574 0.298793 9.18901e-21)
(1.27247 0.29479 7.39734e-20)
(1.2673 0.289575 -1.78335e-20)
(1.2613 0.283607 3.44985e-21)
(1.25505 0.277137 -1.24526e-20)
(0.0470522 -0.00135417 -1.62721e-20)
(0.157113 0.00327199 -1.59655e-20)
(0.2831 0.0210523 -2.84608e-20)
(0.420619 0.047965 -1.88696e-20)
(0.56384 0.0820143 -4.93451e-20)
(0.70584 0.120562 5.78664e-20)
(0.839505 0.1605 1.15729e-19)
(0.958591 0.198773 4.07946e-20)
(1.05866 0.232799 2.1086e-20)
(1.13764 0.26081 -5.074e-20)
(1.19577 0.28199 -4.77859e-22)
(1.23519 0.29641 3.34519e-20)
(1.25917 0.304793 -4.33822e-20)
(1.27143 0.308233 1.67118e-20)
(1.27545 0.307926 5.65932e-20)
(1.27421 0.304975 -1.97677e-20)
(1.26994 0.300282 -3.53173e-20)
(1.26418 0.294532 -3.30168e-20)
(1.25783 0.288123 1.1865e-19)
(1.25139 0.281363 4.22782e-20)
(0.0513499 -0.000559996 -2.924e-20)
(0.169001 0.00619743 3.54519e-20)
(0.301497 0.0266364 -8.15889e-21)
(0.444156 0.0563379 2.56384e-20)
(0.590771 0.0929695 -2.3122e-20)
(0.734144 0.133578 -1.42911e-20)
(0.867114 0.174824 -5.64348e-20)
(0.983674 0.213558 6.79565e-21)
(1.07988 0.247257 1.63609e-20)
(1.15428 0.274326 3.68105e-20)
(1.20772 0.294185 -1.4435e-20)
(1.24284 0.307138 -1.15179e-20)
(1.26323 0.314094 1.0605e-20)
(1.27268 0.316265 -1.88605e-20)
(1.2747 0.3149 4.32895e-20)
(1.27211 0.311104 2.89638e-20)
(1.26699 0.305749 -4.99855e-21)
(1.26073 0.299481 -3.30618e-21)
(1.25412 0.292643 -3.19993e-20)
(1.24752 0.285595 -4.06399e-20)
(0.0557658 0.000394945 6.31349e-21)
(0.181089 0.00955122 -1.11088e-20)
(0.320019 0.0328374 7.6023e-21)
(0.467596 0.0654277 -1.05301e-20)
(0.61726 0.104644 -4.07152e-20)
(0.761595 0.147224 1.89933e-20)
(0.893465 0.189622 9.24323e-21)
(1.00718 0.228633 -4.46716e-20)
(1.09934 0.261829 -2.83714e-20)
(1.16913 0.287819 -2.73728e-21)
(1.21801 0.306273 -4.02425e-20)
(1.24904 0.317723 4.19071e-20)
(1.26608 0.323254 -9.80241e-23)
(1.273 0.324182 -5.68369e-21)
(1.27324 0.321794 -1.0962e-20)
(1.26948 0.317184 5.41461e-21)
(1.26366 0.311193 3.82084e-21)
(1.257 0.304422 -1.51149e-21)
(1.25017 0.297164 -1.17004e-20)
(1.24345 0.289831 1.44871e-20)
(0.0602858 0.00151768 2.12351e-21)
(0.193334 0.0133446 7.33892e-21)
(0.338593 0.0396609 4.11024e-21)
(0.490841 0.0752268 -1.92732e-21)
(0.6432 0.117013 2.69165e-20)
(0.78809 0.161462 -6.04385e-21)
(0.918482 0.204848 9.67501e-21)
(1.02907 0.243953 2.16462e-20)
(1.11705 0.276479 -3.93957e-21)
(1.18225 0.301266 9.91673e-22)
(1.2267 0.31824 1.10746e-20)
(1.25388 0.328163 -5.9441e-21)
(1.26783 0.33228 7.78431e-21)
(1.27247 0.331994 1.41595e-21)
(1.27113 0.328616 -1.49289e-20)
(1.26637 0.323223 7.36792e-22)
(1.25996 0.316616 1.96467e-20)
(1.25298 0.309354 -4.12644e-21)
(1.246 0.301682 6.16483e-21)
(1.23919 0.294064 -7.03133e-21)
(0.0648947 0.00281437 8.81367e-22)
(0.205688 0.0175862 1.08857e-20)
(0.357144 0.0471081 5.89229e-21)
(0.513796 0.085723 -1.21196e-21)
(0.668484 0.13005 2.50248e-20)
(0.813533 0.17625 -7.12786e-21)
(0.942095 0.220456 1.34395e-20)
(1.04932 0.259472 1.81769e-20)
(1.13303 0.29117 -3.77907e-21)
(1.19369 0.314642 8.55947e-22)
(1.23388 0.330078 1.26157e-20)
(1.25743 0.338458 -5.13444e-21)
(1.26855 0.341176 5.08279e-21)
(1.27114 0.339706 -1.25528e-21)
(1.26843 0.33537 -1.21706e-20)
(1.26282 0.32922 -3.58363e-22)
(1.25592 0.322018 1.94644e-20)
(1.24869 0.314274 -3.84357e-21)
(1.2416 0.306193 7.25419e-21)
(1.23473 0.298289 -7.87694e-21)
(0.069576 0.00429026 7.66004e-21)
(0.218103 0.022282 -1.40172e-20)
(0.375597 0.0551765 7.18986e-21)
(0.536365 0.0968993 -5.81549e-21)
(0.693014 0.143722 -3.96912e-20)
(0.837839 0.191546 1.6229e-20)
(0.964251 0.236398 7.58226e-21)
(1.06791 0.275147 -5.14452e-20)
(1.14729 0.30587 -2.17736e-20)
(1.2035 0.327927 -1.90264e-23)
(1.23962 0.341776 -3.4065e-20)
(1.25979 0.348607 2.86066e-20)
(1.26831 0.349946 -6.44607e-21)
(1.26907 0.347323 4.1027e-21)
(1.26517 0.34206 -1.59968e-20)
(1.25884 0.335178 1.21954e-20)
(1.25156 0.327395 7.81237e-21)
(1.24415 0.319177 -1.3921e-21)
(1.23698 0.310691 -1.55738e-20)
(1.23008 0.302499 1.4439e-20)
(0.0743121 0.00594952 -1.66149e-20)
(0.230531 0.0274348 -7.58048e-21)
(0.393876 0.063859 -1.1032e-20)
(0.558457 0.108734 3.82268e-20)
(0.716696 0.157992 9.04175e-23)
(0.860931 0.207303 -2.0508e-20)
(0.984902 0.252625 -8.40669e-20)
(1.08484 0.290937 8.15595e-21)
(1.15987 0.320547 9.57791e-21)
(1.21174 0.341102 4.30607e-20)
(1.24399 0.353326 6.39459e-21)
(1.26101 0.358608 -3.65768e-20)
(1.26718 0.358591 3.46193e-20)
(1.26633 0.354846 -1.40188e-20)
(1.2614 0.348687 5.30673e-20)
(1.25448 0.341095 -4.88026e-21)
(1.24689 0.332744 2.76527e-21)
(1.23934 0.324058 2.39277e-21)
(1.23214 0.315169 -4.12867e-20)
(1.22523 0.306687 -2.51995e-20)
(0.0790847 0.00779523 -6.36807e-21)
(0.24292 0.0330448 -3.65268e-20)
(0.411905 0.0731447 2.88962e-20)
(0.579981 0.121202 -3.68374e-20)
(0.739443 0.172822 -6.68173e-20)
(0.882742 0.223474 5.84797e-20)
(1.00401 0.26909 9.67245e-20)
(1.1001 0.306799 3.47555e-20)
(1.17081 0.33517 2.42714e-20)
(1.21847 0.354149 -6.98153e-20)
(1.24706 0.364721 5.36743e-20)
(1.26117 0.368461 6.25331e-21)
(1.26523 0.367114 -6.82773e-20)
(1.26294 0.362278 2.67614e-20)
(1.25714 0.355249 9.52082e-20)
(1.24973 0.346966 -6.5505e-20)
(1.24191 0.33806 -1.87337e-20)
(1.23429 0.328909 -1.81087e-20)
(1.22709 0.31962 8.39895e-20)
(1.22018 0.310844 4.8658e-20)
(0.0838747 0.00982926 4.3526e-20)
(0.25522 0.0391087 -7.45724e-20)
(0.429608 0.0830183 -1.08669e-19)
(0.600852 0.134272 4.89547e-21)
(0.761174 0.188168 -2.00712e-20)
(0.903211 0.240008 -8.04609e-20)
(1.02156 0.285745 -1.3402e-20)
(1.11371 0.322693 4.17806e-20)
(1.18014 0.349712 -6.73787e-20)
(1.22376 0.367051 5.53041e-20)
(1.2489 0.375952 6.44066e-20)
(1.26034 0.378163 -4.06192e-20)
(1.26249 0.375513 1.6668e-20)
(1.25897 0.369618 8.43378e-20)
(1.25242 0.361744 -1.12815e-19)
(1.24462 0.352788 1.97158e-20)
(1.23664 0.343336 5.3661e-20)
(1.22898 0.333724 -1.62597e-20)
(1.22181 0.324036 -1.75226e-20)
(1.21494 0.314964 -3.0302e-21)
(0.0886627 0.0120523 6.46238e-20)
(0.267378 0.0456204 1.20007e-19)
(0.446912 0.0934605 6.36705e-20)
(0.620988 0.147911 -7.6402e-20)
(0.781817 0.203985 1.99934e-19)
(0.922291 0.256856 3.09399e-20)
(1.03753 0.302541 -8.57091e-20)
(1.12569 0.338581 -6.20199e-20)
(1.18791 0.364145 -4.99541e-20)
(1.22765 0.379792 1.67182e-20)
(1.24957 0.387012 -5.64715e-20)
(1.25857 0.387711 1.79483e-21)
(1.25903 0.383787 -3.83951e-20)
(1.25442 0.376862 -5.24786e-20)
(1.24726 0.368168 -8.95808e-21)
(1.23917 0.358553 -5.49443e-21)
(1.23108 0.348563 -9.92164e-20)
(1.22342 0.338493 7.4945e-20)
(1.21632 0.328407 -1.13869e-19)
(1.20949 0.319037 -6.71231e-20)
(0.0934288 0.0144638 -7.85462e-20)
(0.279343 0.0525706 -3.23134e-20)
(0.463747 0.104448 1.44338e-19)
(0.640312 0.162081 3.66114e-20)
(0.801305 0.220224 -1.26103e-19)
(0.939939 0.273966 -7.35217e-20)
(1.05191 0.319432 -2.46647e-20)
(1.13605 0.354425 1.59658e-19)
(1.19417 0.378442 1.1442e-19)
(1.23022 0.392355 -3.93074e-20)
(1.24914 0.397891 -2.28493e-20)
(1.25592 0.3971 5.78509e-20)
(1.25487 0.391933 -6.28021e-20)
(1.24935 0.384007 2.91538e-20)
(1.24169 0.374514 1.25759e-20)
(1.23337 0.364256 -1.5922e-20)
(1.22523 0.353734 1.20469e-19)
(1.21762 0.343207 -5.07876e-20)
(1.2106 0.332725 1.02432e-19)
(1.20385 0.323053 -3.61575e-20)
(0.0981526 0.0170619 -4.44285e-20)
(0.291065 0.0599471 -8.18885e-20)
(0.480043 0.115955 -1.29834e-19)
(0.658753 0.176741 7.87957e-20)
(0.819579 0.236836 4.36034e-20)
(0.956124 0.291285 -6.23694e-20)
(1.06469 0.336372 1.03652e-19)
(1.14482 0.370189 -1.60413e-19)
(1.19897 0.392579 -1.70994e-19)
(1.23152 0.404726 1.03441e-19)
(1.24766 0.408583 3.86101e-20)
(1.25243 0.406324 -4.29215e-20)
(1.25007 0.399946 6.54374e-20)
(1.24377 0.391046 5.13025e-20)
(1.23571 0.380775 -3.73879e-20)
(1.22725 0.369885 -1.2657e-20)
(1.2191 0.358839 -9.16725e-20)
(1.21157 0.347857 1.85948e-20)
(1.20467 0.33698 -7.77404e-20)
(1.19801 0.327004 -1.25173e-20)
(0.102814 0.0198434 3.68898e-20)
(0.302493 0.0677346 -6.46044e-20)
(0.495734 0.12795 1.17968e-19)
(0.676245 0.191847 2.0031e-19)
(0.836589 0.253768 -2.88507e-19)
(0.970819 0.308763 2.54793e-19)
(1.07589 0.353313 6.86918e-20)
(1.15205 0.385836 -1.00028e-19)
(1.20235 0.406532 1.18337e-19)
(1.2316 0.416889 6.99301e-20)
(1.24519 0.419076 8.66145e-20)
(1.24816 0.415379 -1.50129e-19)
(1.24465 0.407819 -3.07876e-20)
(1.2377 0.397973 7.41042e-20)
(1.22934 0.386942 2.8282e-20)
(1.2208 0.375433 1.29339e-19)
(1.2127 0.363867 1.6199e-19)
(1.20528 0.352431 -3.98932e-20)
(1.19851 0.34116 6.92382e-20)
(1.19196 0.33088 7.81927e-20)
(0.107393 0.022804 -1.09373e-20)
(0.31358 0.0759149 -1.50551e-19)
(0.510759 0.1404 -2.06472e-19)
(0.692727 0.207353 -2.7007e-19)
(0.852291 0.270967 -2.67272e-20)
(0.984009 0.326346 1.00145e-19)
(1.08551 0.370211 -1.89555e-20)
(1.15775 0.401333 3.35904e-20)
(1.20436 0.420275 -5.23568e-20)
(1.23052 0.428829 8.7754e-20)
(1.24177 0.429362 -1.33546e-19)
(1.24314 0.424254 1.73941e-19)
(1.23865 0.415545 9.95856e-20)
(1.23117 0.404778 4.50132e-20)
(1.2226 0.393007 -6.73337e-20)
(1.21403 0.380888 -7.1945e-20)
(1.20601 0.368807 -6.79007e-20)
(1.19874 0.35692 5.01061e-21)
(1.19214 0.345256 8.8772e-20)
(1.18572 0.334671 -9.46372e-20)
(0.111868 0.025938 -1.92539e-20)
(0.324277 0.0844672 1.16954e-19)
(0.525058 0.153267 1.47767e-19)
(0.708144 0.223209 -2.33175e-20)
(0.866648 0.288379 6.91825e-20)
(0.995682 0.343982 1.88931e-20)
(1.09358 0.387022 -1.0193e-19)
(1.16198 0.416645 8.10172e-20)
(1.20506 0.433787 7.60732e-20)
(1.22833 0.440531 -1.3186e-19)
(1.23745 0.439429 2.12434e-19)
(1.23741 0.432943 -1.7606e-19)
(1.23208 0.423116 1.01485e-19)
(1.2242 0.411453 -1.4705e-19)
(1.21548 0.398957 2.15572e-19)
(1.20694 0.386239 -1.35381e-19)
(1.19905 0.373649 -3.91941e-20)
(1.19195 0.361312 -5.25241e-20)
(1.18554 0.349257 -1.10394e-19)
(1.17928 0.338366 2.10036e-21)
(0.116222 0.0292386 1.37949e-19)
(0.334541 0.0933678 1.46852e-19)
(0.538578 0.166514 -2.12712e-19)
(0.722448 0.239365 -1.30166e-19)
(0.879631 0.305949 1.93133e-19)
(1.00583 0.361619 -7.71393e-20)
(1.10011 0.403701 1.13501e-19)
(1.16477 0.43174 4.89354e-20)
(1.20449 0.447043 -1.13639e-19)
(1.22508 0.451978 -2.81263e-19)
(1.23228 0.449266 -5.01338e-20)
(1.231 0.441434 -1.04765e-19)
(1.22498 0.43052 -1.54966e-19)
(1.21678 0.417986 1.25432e-20)
(1.20801 0.404782 -1.6395e-20)
(1.19954 0.391474 -1.49194e-20)
(1.19181 0.378379 1.22476e-19)
(1.18492 0.365595 8.75691e-20)
(1.17872 0.35315 1.03218e-20)
(1.17265 0.341955 5.09402e-20)
(0.120434 0.0326975 -3.33104e-20)
(0.344329 0.102591 2.61282e-19)
(0.551267 0.180097 1.01433e-19)
(0.735597 0.255768 2.07423e-19)
(0.891216 0.323619 6.79636e-20)
(1.01447 0.379204 2.61581e-20)
(1.10512 0.420207 -1.65123e-19)
(1.16615 0.446585 -5.31688e-20)
(1.2027 0.460021 2.64434e-20)
(1.22082 0.463155 2.08873e-19)
(1.22629 0.45886 -6.83788e-20)
(1.22394 0.449717 8.45654e-20)
(1.21736 0.437747 1.77109e-19)
(1.20895 0.424366 4.02354e-20)
(1.20018 0.41047 -3.51758e-20)
(1.19184 0.39658 4.66001e-20)
(1.1843 0.382986 8.72249e-20)
(1.17763 0.369757 3.87721e-20)
(1.17168 0.356921 9.99099e-20)
(1.16581 0.345426 7.54705e-20)
(0.124485 0.0363055 -8.72571e-20)
(0.353599 0.112108 -1.3376e-19)
(0.56308 0.193972 8.54688e-20)
(0.747554 0.272363 2.89742e-20)
(0.901388 0.341336 5.76693e-20)
(1.02159 0.396688 -2.3568e-19)
(1.10866 0.436497 8.57099e-20)
(1.16618 0.46115 -1.85068e-19)
(1.19975 0.472699 -1.02754e-19)
(1.21559 0.474045 1.19264e-19)
(1.21953 0.468199 -1.28887e-20)
(1.21627 0.457779 7.59375e-21)
(1.20925 0.444785 -2.15036e-19)
(1.20072 0.43058 -8.61691e-20)
(1.192 0.416007 6.96649e-20)
(1.18383 0.401546 -1.21827e-19)
(1.17652 0.387459 -6.50031e-20)
(1.17011 0.373788 -6.55336e-20)
(1.16441 0.360559 -1.11494e-19)
(1.15877 0.34877 -2.55283e-19)
(0.128359 0.0400523 5.07203e-20)
(0.362316 0.121889 -6.32428e-20)
(0.573976 0.208093 -3.46646e-19)
(0.75829 0.289096 1.88001e-19)
(0.910136 0.359041 -2.34402e-19)
(1.02721 0.414019 -3.34785e-20)
(1.11074 0.452531 -3.23477e-19)
(1.1649 0.475403 3.44136e-19)
(1.19567 0.485054 1.96183e-19)
(1.20944 0.484632 -1.18156e-20)
(1.21203 0.477268 6.94135e-20)
(1.20801 0.465609 -8.74121e-20)
(1.20066 0.451621 -6.92788e-21)
(1.19208 0.436614 4.05655e-20)
(1.18349 0.42138 -4.13525e-20)
(1.17553 0.406358 7.59747e-20)
(1.16847 0.391785 -9.94003e-20)
(1.16234 0.377678 -8.8496e-20)
(1.15693 0.364062 5.02663e-20)
(1.15148 0.351978 6.80349e-20)
(0.132037 0.0439266 1.16279e-19)
(0.370443 0.131901 1.17001e-19)
(0.583919 0.222412 9.07076e-20)
(0.767778 0.30591 -2.18576e-21)
(0.917456 0.376679 -6.10141e-20)
(1.03136 0.431148 4.13453e-19)
(1.11141 0.468268 2.34947e-19)
(1.16235 0.489314 1.59307e-19)
(1.19051 0.497065 2.25543e-19)
(1.20241 0.494898 2.73798e-20)
(1.20382 0.486053 -1.86409e-19)
(1.19918 0.473192 -1.94079e-20)
(1.19162 0.458241 -3.96448e-20)
(1.18306 0.442456 -1.28358e-19)
(1.17464 0.426575 -4.70849e-20)
(1.16693 0.411003 -6.65903e-20)
(1.16015 0.395951 2.05231e-19)
(1.15433 0.381416 -2.22428e-21)
(1.14925 0.367442 5.49807e-20)
(1.14396 0.355044 4.37794e-20)
(0.135505 0.0479158 -3.88986e-20)
(0.37795 0.14211 -6.8124e-20)
(0.592878 0.23688 -1.49186e-19)
(0.776002 0.322749 -2.5208e-20)
(0.92335 0.394194 -2.50046e-19)
(1.03404 0.448026 -1.79702e-19)
(1.11069 0.483669 5.99248e-20)
(1.15858 0.502853 -4.3435e-19)
(1.18432 0.508708 -2.34954e-19)
(1.19454 0.504826 5.70171e-20)
(1.19493 0.49454 -2.85535e-20)
(1.18982 0.480513 1.67682e-19)
(1.18212 0.46463 2.26038e-19)
(1.17367 0.448089 5.67337e-20)
(1.16547 0.431578 1.51504e-19)
(1.15804 0.415466 -7.79176e-20)
(1.15158 0.39994 1.03961e-19)
(1.14609 0.384976 5.76659e-20)
(1.14133 0.370682 4.83433e-20)
(1.1363 0.35798 -9.21854e-20)
(0.138747 0.0520069 5.87072e-20)
(0.384807 0.152481 -7.32956e-21)
(0.600825 0.251446 -2.31451e-19)
(0.782948 0.339556 -2.83143e-22)
(0.927823 0.411532 5.62716e-19)
(1.03529 0.464605 1.13138e-19)
(1.10864 0.498697 8.56201e-20)
(1.15363 0.515993 2.51218e-19)
(1.17714 0.519962 -2.03231e-19)
(1.18586 0.514399 -2.17105e-19)
(1.1854 0.502712 -1.48402e-21)
(1.17993 0.487558 -1.50591e-19)
(1.1722 0.470774 -8.32284e-20)
(1.16391 0.4535 2.21478e-19)
(1.15598 0.436375 -5.81064e-20)
(1.14886 0.419733 5.31668e-21)
(1.14274 0.403742 -7.60589e-20)
(1.13762 0.388361 -1.11124e-19)
(1.13319 0.373737 5.29772e-21)
(1.1285 0.360756 1.01562e-19)
(0.141749 0.0561857 -2.83294e-19)
(0.390991 0.162977 1.77657e-19)
(0.60774 0.266059 3.98059e-19)
(0.788609 0.356273 1.25599e-19)
(0.930887 0.428638 -6.6356e-19)
(1.03514 0.480839 -2.75118e-19)
(1.10528 0.513315 -2.15726e-19)
(1.14754 0.528704 -7.86497e-20)
(1.16902 0.530806 2.65579e-19)
(1.17642 0.523598 2.9057e-20)
(1.17526 0.510552 -5.40846e-20)
(1.16954 0.494311 1.01586e-19)
(1.16187 0.476658 1.44694e-20)
(1.1538 0.458674 -2.62838e-19)
(1.14618 0.44095 7.63275e-20)
(1.1394 0.423791 1.00357e-19)
(1.13365 0.407345 4.59245e-20)
(1.12891 0.391556 6.31061e-20)
(1.12485 0.376607 -1.06185e-19)
(1.12051 0.363351 -5.09102e-20)
(0.144498 0.0604375 -1.93492e-20)
(0.396478 0.173561 8.97864e-20)
(0.613605 0.280667 4.5116e-20)
(0.792982 0.372846 1.34303e-19)
(0.932558 0.445458 3.7061e-19)
(1.03361 0.496682 -2.42261e-19)
(1.10067 0.527485 -1.42801e-20)
(1.14037 0.540959 2.33486e-19)
(1.15999 0.541217 -2.82027e-19)
(1.16625 0.532405 9.18307e-20)
(1.16453 0.518046 2.34008e-19)
(1.15867 0.500756 5.31561e-20)
(1.15114 0.482265 -1.11343e-19)
(1.14335 0.463594 1.86263e-19)
(1.13607 0.44529 -2.12615e-19)
(1.12968 0.427627 4.19883e-21)
(1.1243 0.410734 -4.81326e-20)
(1.11997 0.394547 7.79291e-20)
(1.11631 0.37928 6.87258e-20)
(1.11234 0.365757 5.82834e-20)
(0.146984 0.0647469 3.6799e-20)
(0.40125 0.184192 1.43679e-19)
(0.618408 0.295219 1.43055e-19)
(0.79607 0.389217 -9.11478e-20)
(0.932857 0.46194 7.94584e-21)
(1.03075 0.51209 2.2505e-19)
(1.09485 0.541174 3.99102e-19)
(1.13215 0.552731 -4.13251e-20)
(1.1501 0.551174 3.86633e-20)
(1.15537 0.540802 -1.1309e-19)
(1.15323 0.525175 -2.38079e-19)
(1.14734 0.506877 3.81018e-20)
(1.14002 0.487579 1.31356e-19)
(1.13257 0.468246 -2.66562e-20)
(1.12567 0.44938 -1.73607e-20)
(1.11968 0.431225 -8.12709e-20)
(1.11472 0.413897 -1.28023e-20)
(1.1108 0.397322 -3.2106e-20)
(1.10757 0.381747 -2.45383e-20)
(1.10399 0.367965 -5.04634e-20)
(0.149196 0.069098 -1.27166e-19)