/*--------------------------------*- C++ -*----------------------------------*\
  =========                 |
  \\      /  F ield         | OpenFOAM: The Open Source CFD Toolbox
   \\    /   O peration     | Website:  https://openfoam.org
    \\  /    A nd           | Version:  7
     \\/     M anipulation  |
\*---------------------------------------------------------------------------*/
FoamFile
{
    version     2.0;
    format      ascii;
    class       volVectorField;
    location    "5";
    object      U;
}
// * * * * * * * * * * * * * * * * * * * * * * * * * * * * * * * * * * * * * //

dimensions      [0 1 -1 0 0 0 0];

internalField   nonuniform List<vector> 
3025
(
(1.02121 0.456451 3.08438e-20)
(0.982013 0.478972 1.99685e-20)
(0.998766 0.453475 -1.6368e-19)
(0.93764 0.50267 2.19426e-20)
(0.957149 0.47555 -2.95943e-20)
(0.975663 0.448952 1.56388e-19)
(0.911688 0.499055 -3.23569e-20)
(0.931577 0.470823 -1.93046e-20)
(0.951732 0.442764 -2.65173e-19)
(0.862589 0.519992 1.25156e-19)
(0.885579 0.494172 6.438e-20)
(0.905591 0.46505 3.13753e-19)
(0.926569 0.43525 9.61745e-20)
(0.807829 0.535756 2.58553e-20)
(0.836226 0.514209 -5.08058e-21)
(0.859738 0.487994 -3.24092e-19)
(0.880067 0.458537 -1.11484e-20)
(0.899524 0.426867 1.38601e-19)
(0.780901 0.52892 7.75917e-20)
(0.810065 0.506727 -1.03728e-20)
(0.834549 0.480173 2.71257e-19)
(0.856166 0.450676 -2.5269e-19)
(0.876682 0.418983 -1.06552e-19)
(0.71834 0.536385 6.11768e-20)
(0.754051 0.520262 -8.38989e-20)
(0.784117 0.497552 5.25749e-20)
(0.809724 0.470719 -3.82082e-20)
(0.83261 0.441175 2.14643e-19)
(0.853983 0.409718 -2.34347e-20)
(0.648043 0.534286 3.17153e-20)
(0.690993 0.526587 1.55796e-20)
(0.727381 0.509815 6.22397e-20)
(0.758433 0.486747 -2.24638e-19)
(0.785218 0.459787 5.95932e-20)
(0.809322 0.430343 5.23609e-20)
(0.831596 0.399348 9.40536e-20)
(0.620578 0.523404 9.7683e-21)
(0.663861 0.51488 -9.63007e-20)
(0.70101 0.497621 1.44809e-19)
(0.733109 0.474371 4.13022e-20)
(0.76111 0.447473 -1.29592e-19)
(0.786445 0.41834 -1.88557e-20)
(0.809732 0.388007 1.24589e-20)
(0.593382 0.510505 -2.13636e-20)
(0.637085 0.501302 -5.48151e-20)
(0.675062 0.483725 -1.39591e-19)
(0.708257 0.460472 -9.9645e-20)
(0.737505 0.433826 -1.09407e-20)
(0.764091 0.405202 1.45648e-19)
(0.788468 0.375689 -1.87044e-19)
(0.51624 0.494401 1.9595e-19)
(0.566608 0.495632 2.81823e-20)
(0.610805 0.485898 -9.70735e-20)
(0.649664 0.468172 -2.5651e-20)
(0.683991 0.445094 1.20578e-19)
(0.714509 0.418879 -4.24911e-20)
(0.742363 0.390937 -1.37039e-19)
(0.767881 0.362377 -1.51078e-19)
(0.49001 0.47844 -4.01012e-21)
(0.540408 0.478834 2.58769e-20)
(0.58516 0.468717 5.4156e-20)
(0.624943 0.451009 -6.03895e-20)
(0.660426 0.428279 2.20123e-20)
(0.692227 0.402664 1.71631e-19)
(0.721358 0.375559 -1.52894e-19)
(0.748049 0.348063 3.67267e-20)
(0.408379 0.447709 7.38594e-20)
(0.46443 0.460497 -2.01246e-19)
(0.514927 0.460168 -3.57469e-19)
(0.560284 0.449817 2.28873e-19)
(0.601019 0.43229 3.69269e-20)
(0.637672 0.410071 -1.28308e-19)
(0.670758 0.385215 3.78456e-20)
(0.701165 0.359085 2.1096e-19)
(0.729044 0.33275 -1.79317e-19)
(0.384098 0.429057 2.18376e-19)
(0.439651 0.440639 -2.99704e-20)
(0.490307 0.4397 2.73754e-19)
(0.536305 0.429259 1.69779e-19)
(0.57801 0.412069 2.96295e-19)
(0.615834 0.390519 1.11997e-20)
(0.650194 0.366569 -2.32945e-19)
(0.681864 0.34154 6.28247e-21)
(0.710929 0.316455 6.17403e-19)
(0.360688 0.408501 -2.76341e-19)
(0.415819 0.418939 9.65841e-20)
(0.466684 0.417503 -2.36324e-19)
(0.513347 0.407112 2.47331e-20)
(0.556026 0.390409 9.86942e-20)
(0.595008 0.369676 -1.67048e-19)
(0.630623 0.346769 3.69547e-20)
(0.663529 0.322958 -5.97557e-20)
(0.693765 0.299207 -2.16124e-19)
(0.280189 0.362631 -1.72765e-19)
(0.338297 0.386124 3.12386e-20)
(0.393075 0.395481 -5.30356e-20)
(0.444185 0.393658 4.19946e-20)
(0.491526 0.38345 -4.10978e-19)
(0.535169 0.367378 -1.54269e-19)
(0.575287 0.3476 3.57935e-20)
(0.612121 0.325864 -1.8994e-19)
(0.646225 0.303379 2.27008e-19)
(0.677603 0.28104 5.66323e-20)
(0.259995 0.340416 1.0934e-19)
(0.317061 0.362021 -2.87529e-20)
(0.371548 0.370359 -8.98876e-21)
(0.422933 0.368253 -1.40827e-19)
(0.470952 0.358357 1.61483e-19)
(0.515538 0.34305 2.16298e-19)
(0.556755 0.324357 -1.24543e-20)
(0.594762 0.303911 -8.21555e-20)
(0.630016 0.28285 -8.26618e-20)
(0.662494 0.261998 1.47846e-19)
(0.240991 0.316579 -2.31683e-19)
(0.297114 0.336292 1.59471e-19)
(0.351363 0.343672 6.82937e-20)
(0.40304 0.341384 3.73099e-20)
(0.451725 0.33192 5.29539e-20)
(0.497221 0.317503 -1.48854e-19)
(0.53949 0.300017 -1.55294e-19)
(0.578613 0.280971 4.22236e-19)
(0.614956 0.261427 -2.82027e-19)
(0.648481 0.242131 -1.33158e-20)
(0.2233 0.291228 1.65973e-19)
(0.278575 0.309049 8.43046e-20)
(0.332635 0.315529 4.54892e-20)
(0.384612 0.313153 5.16079e-20)
(0.43394 0.304234 9.27628e-21)
(0.480302 0.290824 -1.64659e-19)
(0.523563 0.274656 5.26891e-19)
(0.563736 0.257111 -2.11836e-19)
(0.601099 0.239168 3.49754e-19)
(0.635608 0.221496 -1.23999e-19)
(0.153289 0.235905 1.12524e-19)
(0.207037 0.26448 -1.58179e-19)
(0.261559 0.28041 2.84901e-19)
(0.31547 0.286046 -2.23878e-19)
(0.367745 0.28367 -3.00033e-20)
(0.417684 0.275399 2.08197e-19)
(0.464856 0.263104 -8.46342e-20)
(0.50904 0.248356 -1.39453e-19)
(0.550185 0.232405 -5.21641e-20)
(0.58849 0.216139 -2.93252e-19)
(0.623912 0.200151 8.92817e-20)
(0.139932 0.211086 -9.25249e-20)
(0.192307 0.236459 8.41376e-20)
(0.246167 0.250502 -2.65339e-19)
(0.299964 0.255345 1.59029e-19)
(0.352528 0.25305 -6.62679e-20)
(0.403035 0.245521 -4.92988e-20)
(0.450952 0.234438 2.29065e-19)
(0.495981 0.221203 -6.76662e-20)
(0.538011 0.206928 1.6881e-19)
(0.577173 0.19241 1.00962e-20)
(0.613426 0.178163 1.51989e-19)
(0.128039 0.185188 4.50426e-20)
(0.179206 0.207298 8.21697e-20)
(0.232493 0.219457 2.18434e-19)
(0.286203 0.223554 -1.86276e-19)
(0.339037 0.221412 1.48051e-20)
(0.390061 0.214711 -7.64391e-20)
(0.438651 0.204926 -1.57684e-19)
(0.484438 0.193287 -1.78648e-19)
(0.52726 0.180763 4.43802e-20)
(0.567186 0.168053 3.59211e-20)
(0.604182 0.155598 -2.29152e-19)
(0.11769 0.158339 2.01538e-20)
(0.167818 0.177135 -1.19378e-19)
(0.220617 0.187414 -2.97799e-19)
(0.274264 0.190807 1.24671e-20)
(0.327344 0.188883 8.28168e-20)
(0.378826 0.183085 -7.0262e-20)
(0.428006 0.174674 -1.88703e-19)
(0.474457 0.164702 3.92394e-20)
(0.51797 0.153994 -1.21334e-20)
(0.558563 0.143147 3.45963e-20)
(0.596207 0.132529 1.8472e-19)
(0.108957 0.130677 -1.1934e-19)
(0.158215 0.146116 7.57815e-20)
(0.210612 0.154519 1.39034e-19)
(0.264213 0.157244 9.99812e-20)
(0.317507 0.155593 -8.78531e-20)
(0.369381 0.15076 1.66336e-19)
(0.419065 0.143789 -1.16139e-20)
(0.466078 0.135545 1.70841e-20)
(0.510176 0.126708 1.72873e-19)
(0.551331 0.11777 -1.21972e-19)
(0.589525 0.109028 5.29726e-21)
(0.101897 0.102343 6.00851e-20)
(0.150458 0.114388 3.98929e-20)
(0.202535 0.120919 -7.73463e-20)
(0.256105 0.123006 -9.77923e-20)
(0.309578 0.121674 8.65597e-20)
(0.361772 0.11786 -4.18651e-20)
(0.411865 0.112382 1.04084e-19)
(0.459334 0.105917 5.51988e-20)
(0.503907 0.0989963 -7.22803e-20)
(0.545517 0.0920049 7.3493e-21)
(0.584155 0.0851714 -1.0479e-19)
(0.0965608 0.0734816 2.33125e-21)
(0.144597 0.0821045 -6.41788e-20)
(0.196436 0.0867671 8.22556e-20)
(0.249985 0.0882408 -3.51984e-20)
(0.303595 0.0872634 7.62047e-20)
(0.356034 0.0845093 -2.52608e-20)
(0.406437 0.0805662 -3.97913e-20)
(0.454253 0.07592 -2.35125e-20)
(0.499185 0.0709512 3.26037e-21)
(0.541139 0.0659361 8.17263e-20)
(0.580113 0.0610365 6.25674e-20)
(0.0929828 0.0442411 -1.23146e-20)
(0.140668 0.0494228 -3.02924e-20)
(0.19235 0.0522193 -2.06071e-21)
(0.245887 0.0530965 3.13024e-20)
(0.299589 0.0524996 -1.06013e-20)
(0.352194 0.0508353 -1.57846e-20)
(0.402806 0.0484574 4.62083e-20)
(0.450855 0.0456583 -2.77433e-20)
(0.496027 0.0426667 -2.61322e-21)
(0.538212 0.0396491 -9.40761e-20)
(0.577412 0.036702 -1.68844e-20)
(0.0911878 0.0147724 4.21819e-21)
(0.138698 0.0165009 -5.59557e-21)
(0.190301 0.0174329 1.78148e-20)
(0.243832 0.0177241 2.00369e-21)
(0.297582 0.0175234 7.40426e-21)
(0.350269 0.0169667 1.58757e-21)
(0.400987 0.016172 -7.34692e-21)
(0.449152 0.0152371 1.13372e-20)
(0.494445 0.0142382 3.09643e-21)
(0.536746 0.0132309 2.21653e-20)
(0.57606 0.0122473 -1.5755e-20)
(0.0911878 -0.0147726 6.64412e-21)
(0.138698 -0.0165011 -1.13462e-20)
(0.190301 -0.0174331 1.35349e-20)
(0.243832 -0.0177244 4.64471e-21)
(0.297582 -0.0175237 9.77059e-21)
(0.350269 -0.0169669 -8.14943e-21)
(0.400987 -0.0161723 5.62116e-21)
(0.449152 -0.0152373 1.12322e-20)
(0.494445 -0.0142384 3.04172e-21)
(0.536746 -0.0132311 2.28056e-20)
(0.57606 -0.0122475 -1.04663e-20)
(0.0929828 -0.0442413 -9.47956e-21)
(0.140668 -0.049423 -2.0214e-20)
(0.19235 -0.0522195 2.7039e-20)
(0.245887 -0.0530968 2.8889e-20)
(0.299589 -0.0524999 -2.02741e-20)
(0.352194 -0.0508355 -1.25342e-20)
(0.402806 -0.0484576 8.83731e-21)
(0.450855 -0.0456585 1.77687e-21)
(0.496027 -0.042667 -4.72033e-20)
(0.538212 -0.0396494 -5.97896e-20)
(0.577412 -0.0367022 -2.01619e-20)
(0.0965608 -0.0734818 -2.65782e-20)
(0.144597 -0.0821047 -2.85085e-21)
(0.196436 -0.0867673 6.28031e-22)
(0.249985 -0.088241 1.19846e-20)
(0.303595 -0.0872636 7.55294e-20)
(0.356034 -0.0845095 1.3222e-21)
(0.406437 -0.0805665 -6.3505e-20)
(0.454253 -0.0759203 3.51982e-20)
(0.499185 -0.0709514 -1.12045e-19)
(0.541139 -0.0659363 8.95095e-20)
(0.580114 -0.0610368 1.13375e-19)
(0.101898 -0.102343 5.75342e-20)
(0.150458 -0.114388 9.2818e-20)
(0.202535 -0.120919 -1.47839e-19)
(0.256105 -0.123006 -4.28292e-20)
(0.309578 -0.121674 -6.83472e-21)
(0.361772 -0.11786 -5.93608e-20)
(0.411865 -0.112382 7.65079e-20)
(0.459334 -0.105917 1.16162e-19)
(0.503907 -0.0989965 -5.966e-20)
(0.545517 -0.0920051 2.9879e-20)
(0.584155 -0.0851716 -8.80574e-20)
(0.108957 -0.130678 -1.83257e-19)
(0.158215 -0.146116 9.99284e-20)
(0.210612 -0.154519 1.80219e-19)
(0.264213 -0.157244 4.17647e-20)
(0.317507 -0.155593 -4.5299e-20)
(0.369381 -0.15076 1.49302e-19)
(0.419065 -0.143789 -9.07194e-21)
(0.466078 -0.135545 -2.19655e-20)
(0.510176 -0.126708 1.56663e-19)
(0.551331 -0.11777 -4.80835e-20)
(0.589525 -0.109028 -8.60572e-20)
(0.11769 -0.158339 1.21507e-19)
(0.167818 -0.177136 -1.7223e-19)
(0.220617 -0.187414 -1.72107e-19)
(0.274264 -0.190807 -3.73327e-20)
(0.327344 -0.188884 4.16325e-20)
(0.378826 -0.183085 -8.40826e-20)
(0.428006 -0.174674 -1.0442e-19)
(0.474457 -0.164702 3.93801e-20)
(0.51797 -0.153994 -4.93858e-20)
(0.558563 -0.143147 2.84995e-20)
(0.596207 -0.132529 1.87585e-19)
(0.128039 -0.185188 9.93313e-20)
(0.179206 -0.207298 -2.56191e-20)
(0.232493 -0.219457 2.61153e-19)
(0.286203 -0.223554 -1.79874e-19)
(0.339037 -0.221413 3.75347e-21)
(0.390061 -0.214712 -2.01303e-19)
(0.438651 -0.204927 3.80915e-20)
(0.484438 -0.193287 -2.62964e-19)
(0.52726 -0.180763 -9.77363e-22)
(0.567186 -0.168054 -1.16095e-20)
(0.604182 -0.155598 -5.51604e-20)
(0.139933 -0.211086 -1.86781e-20)
(0.192307 -0.236459 4.8314e-20)
(0.246167 -0.250502 -3.02479e-19)
(0.299964 -0.255345 2.74457e-19)
(0.352528 -0.25305 -1.52684e-19)
(0.403035 -0.245521 -9.93702e-20)
(0.450952 -0.234438 1.73469e-19)
(0.495981 -0.221203 6.31e-20)
(0.538011 -0.206928 1.32406e-19)
(0.577173 -0.19241 9.05652e-20)
(0.613426 -0.178163 -1.68791e-19)
(0.153289 -0.235905 -4.62271e-20)
(0.207037 -0.26448 -1.4745e-19)
(0.261559 -0.28041 1.06938e-19)
(0.31547 -0.286046 -2.44099e-20)
(0.367745 -0.28367 3.86462e-20)
(0.417684 -0.275399 1.14386e-19)
(0.464856 -0.263104 -3.54171e-20)
(0.50904 -0.248356 -9.4629e-20)
(0.550185 -0.232405 -6.61402e-20)
(0.58849 -0.216139 -2.51219e-19)
(0.623912 -0.200151 -1.79875e-20)
(0.2233 -0.291228 2.60793e-19)
(0.278575 -0.309049 -9.74296e-20)
(0.332635 -0.31553 9.7972e-20)
(0.384612 -0.313154 -3.61345e-20)
(0.433941 -0.304234 -7.10438e-20)
(0.480302 -0.290824 6.74559e-20)
(0.523563 -0.274656 3.96893e-19)
(0.563736 -0.257111 -1.53925e-19)
(0.601099 -0.239168 3.01385e-19)
(0.635608 -0.221496 -7.5523e-20)
(0.240991 -0.316579 -3.50134e-19)
(0.297114 -0.336292 -2.8865e-20)
(0.351363 -0.343672 2.2585e-19)
(0.40304 -0.341384 4.50833e-20)
(0.451725 -0.33192 1.00794e-19)
(0.497221 -0.317503 -2.17442e-19)
(0.53949 -0.300017 -2.1118e-19)
(0.578613 -0.280971 5.92854e-19)
(0.614956 -0.261427 -4.4702e-19)
(0.648482 -0.242131 2.7103e-19)
(0.259995 -0.340417 2.53734e-19)
(0.317061 -0.362021 -1.09243e-19)
(0.371548 -0.370359 -1.30021e-19)
(0.422933 -0.368253 -3.43021e-20)
(0.470952 -0.358357 1.97253e-19)
(0.515538 -0.34305 4.02861e-19)
(0.556755 -0.324357 -2.40413e-19)
(0.594762 -0.303911 -1.4014e-19)
(0.630016 -0.282851 3.69039e-20)
(0.662494 -0.261998 -1.95859e-20)
(0.280189 -0.362632 1.69741e-19)
(0.338297 -0.386125 1.77644e-20)
(0.393075 -0.395482 -1.83278e-19)
(0.444185 -0.393658 9.38927e-20)
(0.491526 -0.38345 -4.20022e-19)
(0.535169 -0.367379 -2.73103e-19)
(0.575287 -0.3476 4.45715e-20)
(0.612121 -0.325864 -1.68062e-19)
(0.646225 -0.303379 3.81152e-19)
(0.677603 -0.28104 -1.20323e-19)
(0.360689 -0.408501 -3.05355e-20)
(0.415819 -0.418939 -1.70522e-20)
(0.466684 -0.417503 -2.45448e-19)
(0.513347 -0.407112 2.46503e-19)
(0.556026 -0.39041 -3.57128e-19)
(0.595008 -0.369676 1.92778e-19)
(0.630623 -0.346769 -9.5315e-20)
(0.663529 -0.322958 -2.4693e-19)
(0.693765 -0.299207 -2.07963e-19)
(0.384098 -0.429057 9.44447e-20)
(0.439651 -0.440639 -3.51139e-20)
(0.490307 -0.4397 4.50089e-19)
(0.536305 -0.429259 -2.83924e-20)
(0.57801 -0.412069 4.52537e-19)
(0.615834 -0.390519 -1.32516e-19)
(0.650195 -0.366569 -1.11942e-19)
(0.681864 -0.34154 7.0882e-20)
(0.710929 -0.316455 3.79374e-19)
(0.408379 -0.44771 -1.65674e-19)
(0.46443 -0.460498 -1.10284e-19)
(0.514927 -0.460168 -3.14708e-19)
(0.560284 -0.449817 1.72013e-20)
(0.60102 -0.43229 1.32146e-20)
(0.637672 -0.410071 1.07013e-19)
(0.670758 -0.385216 7.10016e-20)
(0.701165 -0.359085 1.32275e-19)
(0.729044 -0.33275 -1.36501e-19)
(0.49001 -0.47844 -3.43934e-20)
(0.540408 -0.478834 2.08378e-19)
(0.58516 -0.468718 1.17616e-19)
(0.624943 -0.45101 -3.42682e-19)
(0.660426 -0.428279 9.62217e-20)
(0.692227 -0.402665 2.45152e-19)
(0.721359 -0.375559 -4.25997e-20)
(0.748049 -0.348063 -1.17907e-19)
(0.51624 -0.494401 2.39537e-19)
(0.566608 -0.495632 8.48515e-20)
(0.610806 -0.485898 -1.28469e-19)
(0.649664 -0.468172 3.25616e-21)
(0.683991 -0.445094 9.84387e-20)
(0.714509 -0.418879 -1.48672e-19)
(0.742363 -0.390937 -8.58721e-20)
(0.767881 -0.362378 -1.40793e-19)
(0.593382 -0.510505 -1.18029e-19)
(0.637085 -0.501302 2.21357e-20)
(0.675062 -0.483725 -4.16085e-20)
(0.708257 -0.460472 -1.32463e-19)
(0.737505 -0.433826 -9.62009e-20)
(0.764091 -0.405202 1.35269e-19)
(0.788468 -0.375689 -1.78807e-19)
(0.620578 -0.523404 2.0736e-19)
(0.663861 -0.51488 -1.75652e-19)
(0.70101 -0.497621 1.77915e-19)
(0.733109 -0.474371 -8.17628e-21)
(0.761111 -0.447473 -3.95953e-20)
(0.786445 -0.41834 -5.45865e-20)
(0.809732 -0.388007 -2.4167e-21)
(0.690993 -0.526587 7.38865e-20)
(0.727381 -0.509815 -6.76087e-20)
(0.758433 -0.486747 -5.4743e-20)
(0.785218 -0.459787 -1.06833e-19)
(0.809322 -0.430343 1.36773e-19)
(0.831596 -0.399348 1.50032e-19)
(0.718341 -0.536385 8.29502e-20)
(0.754051 -0.520263 -9.58224e-20)
(0.784117 -0.497552 5.43378e-20)
(0.809724 -0.470719 1.02379e-19)
(0.83261 -0.441175 4.28612e-20)
(0.853983 -0.409718 1.92349e-19)
(0.780901 -0.528921 1.24846e-19)
(0.810065 -0.506727 -1.39309e-19)
(0.834549 -0.480173 1.84513e-19)
(0.856166 -0.450676 -1.66428e-19)
(0.876682 -0.418983 -5.38138e-20)
(0.807829 -0.535756 -1.89991e-20)
(0.836226 -0.514209 6.66144e-20)
(0.859738 -0.487994 -2.75677e-19)
(0.880067 -0.458537 -8.69074e-20)
(0.899524 -0.426867 1.5246e-20)
(0.862589 -0.519993 4.94915e-21)
(0.88558 -0.494172 1.07256e-19)
(0.905591 -0.46505 1.57807e-19)
(0.926569 -0.43525 1.65852e-19)
(0.911688 -0.499056 4.95707e-20)
(0.931577 -0.470823 -3.75509e-20)
(0.951732 -0.442764 -2.32786e-19)
(0.93764 -0.50267 2.63577e-20)
(0.957149 -0.47555 -1.13665e-19)
(0.975663 -0.448952 2.59799e-19)
(0.982013 -0.478972 -1.1799e-20)
(0.998766 -0.453475 -1.4466e-19)
(1.02121 -0.456451 6.33975e-20)
(0.955551 0.413455 4.56943e-20)
(0.976881 0.418561 5.61628e-20)
(0.997252 0.423261 5.51283e-20)
(1.0172 0.426955 2.34838e-20)
(1.03714 0.429539 -1.15375e-20)
(1.05685 0.431021 6.9809e-21)
(0.976927 0.396834 -8.096e-20)
(0.996913 0.400211 -2.89132e-21)
(1.0157 0.403237 -2.94686e-20)
(1.03361 0.405644 -5.39239e-20)
(1.05152 0.407287 -2.43348e-20)
(1.06933 0.40813 -8.54356e-21)
(0.996887 0.381073 -5.87403e-20)
(1.01488 0.383671 -7.55015e-20)
(1.03189 0.385629 1.23221e-20)
(1.04802 0.386995 5.31267e-21)
(1.06414 0.387733 3.86498e-20)
(1.08024 0.387832 3.25066e-21)
(1.01521 0.365418 9.67652e-20)
(1.03148 0.367055 -1.8164e-21)
(1.04687 0.368084 -2.93002e-20)
(1.06146 0.368605 1.75906e-20)
(1.076 0.368618 -1.27791e-20)
(1.09051 0.368118 -6.48674e-21)
(1.03154 0.349599 -7.22105e-20)
(1.04627 0.350429 6.83499e-20)
(1.0602 0.350737 -3.95439e-21)
(1.07341 0.350619 1.37475e-20)
(1.08656 0.350084 1.87515e-21)
(1.09966 0.349127 4.20595e-21)
(1.04598 0.33353 -2.54172e-20)
(1.05931 0.333757 -1.81831e-20)
(1.0719 0.333539 1.27278e-20)
(1.08387 0.332958 1.12773e-20)
(1.09576 0.33203 1.10017e-21)
(1.1076 0.330751 3.13156e-21)
(1.05867 0.317354 4.59993e-20)
(1.07071 0.317121 -1.14714e-20)
(1.08207 0.316512 2.13173e-20)
(1.0929 0.315598 -1.30724e-20)
(1.10366 0.314394 -4.0813e-21)
(1.11437 0.3129 2.20411e-21)
(1.06973 0.301214 -2.52253e-20)
(1.08059 0.300628 1.73049e-21)
(1.09082 0.299731 -1.57885e-20)
(1.10061 0.298581 5.86065e-21)
(1.11034 0.297191 9.77126e-21)
(1.12002 0.295563 -3.92198e-21)
(1.07929 0.285218 2.10223e-20)
(1.08908 0.28437 -7.88927e-21)
(1.09829 0.283267 4.00384e-21)
(1.10713 0.281958 1.01296e-21)
(1.11592 0.280452 -8.92739e-22)
(1.12468 0.278751 -7.30635e-22)
(1.08751 0.269461 -2.12999e-20)
(1.09631 0.268427 2.18678e-21)
(1.10459 0.267187 1.30325e-21)
(1.11257 0.265778 1.42676e-21)
(1.12052 0.264209 -4.8078e-21)
(1.12843 0.262481 7.94882e-23)
(1.09449 0.254023 -2.44693e-22)
(1.1024 0.252865 1.71256e-21)
(1.10984 0.251539 3.50555e-21)
(1.11704 0.250078 7.65553e-21)
(1.12422 0.248487 6.37238e-21)
(1.13137 0.246766 2.32685e-21)
(1.10035 0.238961 3.01931e-22)
(1.10746 0.237728 7.40188e-21)
(1.11414 0.236361 -6.33414e-21)
(1.12064 0.234883 -3.50862e-21)
(1.12712 0.233301 -6.31477e-21)
(1.13358 0.231613 -2.75554e-22)
(1.1052 0.224317 5.00701e-21)
(1.11157 0.223048 -3.67588e-21)
(1.11758 0.221671 1.03492e-20)
(1.12344 0.220206 -6.72777e-21)
(1.12929 0.218655 1.52901e-21)
(1.1091 0.210117 6.57045e-21)
(1.11483 0.208843 6.29005e-21)
(1.12023 0.207481 -1.87999e-21)
(1.12551 0.206048 1.32638e-21)
(1.1308 0.204546 4.89674e-22)
(1.11215 0.196374 -5.19812e-21)
(1.11729 0.195118 -4.75348e-21)
(1.12215 0.193791 2.90986e-21)
(1.12692 0.192406 1.29506e-21)
(1.1317 0.190965 1.24222e-21)
(1.11442 0.183094 1.14013e-20)
(1.11904 0.181873 4.17715e-22)
(1.12341 0.180595 -4.78226e-21)
(1.12772 0.17927 -1.29353e-21)
(1.13205 0.177898 -2.56484e-21)
(1.11596 0.170275 -4.84684e-21)
(1.12011 0.169101 4.50754e-22)
(1.12406 0.167882 1.02169e-21)
(1.12796 0.166624 1.19453e-22)
(1.13188 0.165329 2.43368e-21)
(1.11685 0.157909 4.88998e-21)
(1.12059 0.156793 4.89441e-22)
(1.12415 0.155639 -1.21016e-21)
(1.12769 0.154454 2.17211e-21)
(1.13125 0.153238 1.59356e-22)
(1.11713 0.145985 -7.65845e-21)
(1.12052 0.144933 -1.14055e-22)
(1.12374 0.143851 -1.60207e-21)
(1.12696 0.142742 2.32204e-21)
(1.1302 0.141608 -1.0871e-21)
(1.11689 0.134491 1.03377e-21)
(1.11995 0.133508 -2.55475e-21)
(1.12289 0.132499 1.71586e-21)
(1.12582 0.131468 -2.04508e-21)
(1.12877 0.130416 1.05489e-21)
(1.11617 0.123411 3.63128e-21)
(1.11896 0.122499 8.1788e-23)
(1.12163 0.121565 -1.28086e-21)
(1.12431 0.120613 6.57019e-22)
(1.12702 0.119644 -3.49399e-21)
(1.11504 0.112727 -6.74457e-21)
(1.11759 0.111887 1.5319e-21)
(1.12004 0.111029 2.40146e-21)
(1.1225 0.110156 4.23386e-22)
(1.12499 0.109268 2.44986e-21)
(1.11357 0.102419 4.43816e-21)
(1.11591 0.101651 -2.21647e-21)
(1.11817 0.100868 -1.16103e-21)
(1.12044 0.100073 -4.03405e-22)
(1.12274 0.0992648 -1.62417e-21)
(1.11182 0.0924635 -3.50037e-21)
(1.11397 0.0917675 1.31987e-21)
(1.11607 0.0910593 -2.24787e-21)
(1.11818 0.0903405 3.12207e-21)
(1.12031 0.0896107 1.72174e-21)
(1.10985 0.0828358 2.7302e-21)
(1.11186 0.0822109 2.80654e-22)
(1.11381 0.0815758 7.42243e-22)
(1.11578 0.0809317 -1.89319e-21)
(1.11777 0.0802782 -1.57878e-21)
(1.10774 0.0735071 -2.56782e-22)
(1.10962 0.072952 -1.6844e-22)
(1.11145 0.0723883 2.37864e-21)
(1.1133 0.071817 -2.55603e-22)
(1.11517 0.0712378 3.63364e-23)
(1.10557 0.0644446 2.39787e-21)
(1.10733 0.0639578 -6.92641e-22)
(1.10907 0.0634638 -2.36745e-21)
(1.11081 0.0629633 8.03617e-22)
(1.11258 0.0624563 5.16212e-24)
(1.10339 0.0556109 -8.21326e-22)
(1.10506 0.0551908 -1.44428e-21)
(1.10672 0.0547647 2.62012e-21)
(1.10838 0.0543333 1.40054e-21)
(1.11006 0.0538963 5.01862e-22)
(1.10129 0.046963 -2.11411e-21)
(1.10289 0.0466082 1.39944e-21)
(1.10448 0.0462484 -1.61256e-21)
(1.10608 0.0458843 -1.74497e-21)
(1.10768 0.0455157 -1.3474e-21)
(1.09934 0.0384503 1.86062e-21)
(1.10089 0.0381595 3.33877e-23)
(1.10242 0.0378647 1.05211e-21)
(1.10397 0.0375665 -3.05811e-22)
(1.10552 0.0372648 1.3846e-21)
(1.09762 0.0300147 -6.66382e-23)
(1.09913 0.0297872 -1.35756e-21)
(1.10062 0.0295567 -2.44301e-22)
(1.10213 0.0293237 -9.87084e-24)
(1.10364 0.029088 -7.51047e-23)
(1.09622 0.0215846 -2.76257e-22)
(1.09769 0.0214198 -1.26457e-23)
(1.09917 0.021253 5.48423e-22)
(1.10064 0.0210844 -4.36591e-22)
(1.10212 0.020914 1.69204e-21)
(1.0952 0.0130801 -5.35901e-22)
(1.09666 0.0129791 -6.88e-23)
(1.09812 0.0128772 1.6707e-21)
(1.09958 0.0127745 -6.82243e-22)
(1.10104 0.0126708 -3.43632e-22)
(1.09466 0.00439408 -1.60119e-22)
(1.09613 0.00435697 -7.48946e-23)
(1.09758 0.00431955 -4.3252e-22)
(1.09904 0.00428197 7.73937e-22)
(1.1005 0.00424433 7.37262e-24)
(0.999921 0.00304124 0)
(0.998037 0.00899295 0)
(0.994422 0.0152811 0)
(0.989488 0.0221648 0)
(0.983286 0.0300602 0)
(0.975992 0.0392567 0)
(0.967715 0.05011 0)
(0.958628 0.0629623 0)
(0.948939 0.0781894 0)
(0.93894 0.0961766 0)
(0.92901 0.117312 0)
(0.919655 0.141961 0)
(0.911491 0.170419 0)
(0.905306 0.202856 0)
(0.90191 0.23922 0)
(0.902392 0.279074 0)
(0.907019 0.32147 0)
(0.918262 0.364263 0)
(0.926976 0.405139 0)
(0.999927 0.00318505 0)
(0.998119 0.00941047 0)
(0.994647 0.0159672 0)
(0.989921 0.0231253 0)
(0.984007 0.0313022 0)
(0.977095 0.0407872 0)
(0.969317 0.0519259 0)
(0.960872 0.0650446 0)
(0.952001 0.0804909 0)
(0.943031 0.0986101 0)
(0.93438 0.119734 0)
(0.926584 0.144151 0)
(0.92028 0.172064 0)
(0.916258 0.203533 0)
(0.915289 0.238393 0)
(0.918417 0.276148 0)
(0.925782 0.31582 0)
(0.940299 0.355373 0)
(0.950463 0.390432 0)
(0.999932 0.00332845 0)
(0.99821 0.00982976 0)
(0.9949 0.0166573 0)
(0.990408 0.0240924 0)
(0.984816 0.032551 0)
(0.978325 0.042321 0)
(0.971089 0.0537349 0)
(0.963332 0.0670993 0)
(0.955323 0.0827294 0)
(0.947418 0.100924 0)
(0.94006 0.121953 0)
(0.933804 0.146023 0)
(0.929288 0.173238 0)
(0.927277 0.203551 0)
(0.928486 0.236686 0)
(0.933876 0.272083 0)
(0.94342 0.308735 0)
(0.959987 0.344851 0)
(0.972605 0.375366 0)
(0.999937 0.00347179 0)
(0.998309 0.0102504 0)
(0.995181 0.0173489 0)
(0.990949 0.0250591 0)
(0.985711 0.0337947 0)
(0.979679 0.0438407 0)
(0.973029 0.0555152 0)
(0.966004 0.0691038 0)
(0.9589 0.0848874 0)
(0.952092 0.103119 0)
(0.94604 0.124003 0)
(0.941303 0.147673 0)
(0.938502 0.174139 0)
(0.938359 0.203259 0)
(0.941513 0.234664 0)
(0.948807 0.267748 0)
(0.960092 0.301485 0)
(0.977912 0.334442 0)
(0.992638 0.36147 0)
(0.999942 0.00361243 0)
(0.998417 0.0106642 0)
(0.995488 0.0180272 0)
(0.991541 0.0260026 0)
(0.986687 0.0349996 0)
(0.98115 0.0452981 0)
(0.975124 0.0571997 0)
(0.968872 0.0709656 0)
(0.962707 0.0868401 0)
(0.95702 0.105027 0)
(0.952277 0.125669 0)
(0.949025 0.148823 0)
(0.947859 0.174417 0)
(0.949434 0.202224 0)
(0.954304 0.231804 0)
(0.963171 0.262524 0)
(0.975809 0.293374 0)
(0.994298 0.323223 0)
(1.01048 0.347222 0)
(0.999946 0.00374875 0)
(0.998533 0.0110663 0)
(0.995818 0.0186837 0)
(0.992178 0.0269103 0)
(0.987737 0.0361482 0)
(0.982727 0.0466702 0)
(0.97736 0.0587578 0)
(0.971913 0.0726453 0)
(0.966713 0.0885378 0)
(0.962159 0.106588 0)
(0.958711 0.126877 0)
(0.956896 0.149389 0)
(0.957264 0.173978 0)
(0.960397 0.200347 0)
(0.966751 0.228004 0)
(0.97688 0.256312 0)
(0.990513 0.284309 0)
(1.00924 0.311085 0)
(1.02634 0.332349 0)
(0.999951 0.00387956 0)
(0.998656 0.0114528 0)
(0.996171 0.019312 0)
(0.992858 0.0277732 0)
(0.988856 0.0372286 0)
(0.984402 0.0479415 0)
(0.979722 0.060171 0)
(0.975105 0.0741222 0)
(0.970886 0.0899589 0)
(0.967462 0.107783 0)
(0.965282 0.127615 0)
(0.964838 0.149374 0)
(0.966628 0.172848 0)
(0.971148 0.197688 0)
(0.978759 0.223371 0)
(0.989864 0.249274 0)
(1.00417 0.27451 0)
(1.02281 0.298338 0)
(1.04039 0.317108 0)
(0.999956 0.0040036 0)
(0.998785 0.0118199 0)
(0.996543 0.0199052 0)
(0.993577 0.0285812 0)
(0.990036 0.0382273 0)
(0.986161 0.049095 0)
(0.982191 0.0614192 0)
(0.978421 0.0753736 0)
(0.975188 0.0910802 0)
(0.972881 0.108591 0)
(0.971926 0.12787 0)
(0.972775 0.148779 0)
(0.975862 0.171052 0)
(0.981597 0.194304 0)
(0.990246 0.218004 0)
(1.00207 0.241554 0)
(1.01677 0.264163 0)
(1.03508 0.285221 0)
(1.05278 0.301703 0)
(0.999961 0.00411944 0)
(0.99892 0.012163 0)
(0.996934 0.0204559 0)
(0.994331 0.0293233 0)
(0.99127 0.0391296 0)
(0.987995 0.0501125 0)
(0.984751 0.0624806 0)
(0.981836 0.0763751 0)
(0.979583 0.0918768 0)
(0.978366 0.10899 0)
(0.97858 0.127627 0)
(0.98063 0.147602 0)
(0.984883 0.168609 0)
(0.99166 0.190241 0)
(1.00114 0.211976 0)
(1.01346 0.233257 0)
(1.02831 0.253396 0)
(1.04613 0.271888 0)
(1.06364 0.286272 0)
(0.999966 0.00422557 0)
(0.999061 0.0124776 0)
(0.99734 0.020956 0)
(0.995116 0.029988 0)
(0.99255 0.0399206 0)
(0.989889 0.0509756 0)
(0.987381 0.0633339 0)
(0.98532 0.0771041 0)
(0.984031 0.0923266 0)
(0.983864 0.108961 0)
(0.985181 0.126877 0)
(0.988331 0.145847 0)
(0.993613 0.165542 0)
(1.00126 0.185546 0)
(1.01138 0.205361 0)
(1.02399 0.224479 0)
(1.0388 0.242318 0)
(1.056 0.258462 0)
(1.0731 0.270935 0)
(0.999972 0.00432039 0)
(0.999207 0.0127587 0)
(0.997762 0.0213974 0)
(0.995926 0.0305639 0)
(0.993868 0.0405854 0)
(0.99183 0.0516663 0)
(0.990059 0.0639593 0)
(0.988844 0.0775402 0)
(0.988491 0.0924113 0)
(0.989326 0.108493 0)
(0.991667 0.125617 0)
(0.995807 0.143528 0)
(1.00198 0.161882 0)
(1.01034 0.180272 0)
(1.02091 0.198233 0)
(1.03365 0.215313 0)
(1.04825 0.231031 0)
(1.06475 0.245049 0)
(1.08126 0.255794 0)
(0.999978 0.00440224 0)
(0.999357 0.0130013 0)
(0.998195 0.0217718 0)
(0.996758 0.0310392 0)
(0.995215 0.0411094 0)
(0.993803 0.0521677 0)
(0.992765 0.0643382 0)
(0.992375 0.0776654 0)
(0.992923 0.0921165 0)
(0.994699 0.107578 0)
(0.997977 0.123851 0)
(1.00299 0.140664 0)
(1.00992 0.157669 0)
(1.01883 0.174477 0)
(1.0297 0.190667 0)
(1.04242 0.205845 0)
(1.05669 0.219622 0)
(1.07242 0.231733 0)
(1.08824 0.240931 0)
(0.999984 0.00446939 0)
(0.999511 0.0132002 0)
(0.998637 0.0220707 0)
(0.997605 0.0314024 0)
(0.996581 0.0414783 0)
(0.995792 0.0524635 0)
(0.995474 0.0644543 0)
(0.995885 0.0774651 0)
(0.997286 0.091432 0)
(0.999934 0.106213 0)
(1.00406 0.12159 0)
(1.00983 0.137279 0)
(1.01737 0.152943 0)
(1.02669 0.168219 0)
(1.03772 0.182733 0)
(1.0503 0.196152 0)
(1.06413 0.208169 0)
(1.07906 0.218582 0)
(1.09413 0.226407 0)
(0.99999 0.00452009 0)
(0.999667 0.0133502 0)
(0.999086 0.0222858 0)
(0.998461 0.0316422 0)
(0.997954 0.0416785 0)
(0.997781 0.0525391 0)
(0.998164 0.0642931 0)
(0.999339 0.0769277 0)
(1.00154 0.0903521 0)
(1.00499 0.104402 0)
(1.00985 0.118847 0)
(1.01627 0.133404 0)
(1.0243 0.147751 0)
(1.03389 0.161557 0)
(1.04495 0.174501 0)
(1.05728 0.186305 0)
(1.07061 0.196737 0)
(1.08474 0.205649 0)
(1.099 0.212264 0)
(0.999997 0.00455259 0)
(0.999825 0.013446 0)
(0.999538 0.0224087 0)
(0.999319 0.0317476 0)
(0.999325 0.0416973 0)
(0.999754 0.0523811 0)
(1.00081 0.0638428 0)
(1.00271 0.0760451 0)
(1.00565 0.0888753 0)
(1.00981 0.102154 0)
(1.01533 0.115645 0)
(1.02227 0.129073 0)
(1.03066 0.142139 0)
(1.04041 0.15455 0)
(1.0514 0.166034 0)
(1.0634 0.176367 0)
(1.07618 0.18538 0)
(1.08949 0.192972 0)
(1.10294 0.19853 0)
(1 0.00456514 0)
(0.999984 0.0134824 0)
(0.999989 0.0224314 0)
(1.00017 0.0317083 0)
(1.00068 0.0415232 0)
(1.00169 0.0519783 0)
(1.00339 0.0630944 0)
(1.00596 0.0748129 0)
(1.00958 0.0870049 0)
(1.01437 0.0994815 0)
(1.02043 0.112008 0)
(1.0278 0.124324 0)
(1.03644 0.136158 0)
(1.04624 0.147255 0)
(1.05706 0.157391 0)
(1.06868 0.166394 0)
(1.08086 0.174144 0)
(1.09338 0.180581 0)
(1.10602 0.18522 0)
(1.00001 0.00455607 0)
(1.00014 0.0134544 0)
(1.00044 0.0223463 0)
(1.00102 0.0315148 0)
(1.00201 0.0411458 0)
(1.00358 0.0513214 0)
(1.00588 0.0620415 0)
(1.00908 0.0732306 0)
(1.01329 0.084748 0)
(1.01863 0.0964019 0)
(1.02514 0.107966 0)
(1.03283 0.119196 0)
(1.04161 0.129855 0)
(1.05138 0.139725 0)
(1.06195 0.148626 0)
(1.07314 0.156432 0)
(1.08471 0.163064 0)
(1.09645 0.168496 0)
(1.10831 0.172342 0)
(1.00002 0.00452377 0)
(1.0003 0.0133573 0)
(1.00088 0.0221461 0)
(1.00184 0.0311585 0)
(1.0033 0.0405567 0)
(1.0054 0.0504035 0)
(1.00826 0.0606812 0)
(1.01202 0.0713011 0)
(1.01677 0.082116 0)
(1.02257 0.0929364 0)
(1.02944 0.103548 0)
(1.03734 0.113731 0)
(1.04618 0.123278 0)
(1.05583 0.13201 0)
(1.06611 0.139788 0)
(1.07683 0.146522 0)
(1.08778 0.152171 0)
(1.09878 0.156731 0)
(1.10986 0.159894 0)
(1.00003 0.00446675 0)
(1.00045 0.0131867 0)
(1.0013 0.0218247 0)
(1.00264 0.0306322 0)
(1.00455 0.039749 0)
(1.00714 0.0492201 0)
(1.01051 0.0590133 0)
(1.01477 0.0690308 0)
(1.01998 0.0791235 0)
(1.02616 0.0891089 0)
(1.0333 0.098789 0)
(1.04133 0.107969 0)
(1.05015 0.116473 0)
(1.05962 0.124157 0)
(1.06955 0.130919 0)
(1.07978 0.136701 0)
(1.09013 0.141487 0)
(1.10041 0.145293 0)
(1.11076 0.147874 0)
(1.00003 0.0043837 0)
(1.0006 0.0129389 0)
(1.00171 0.0213765 0)
(1.00341 0.0299298 0)
(1.00573 0.0387177 0)
(1.00877 0.0477691 0)
(1.01262 0.0570407 0)
(1.01731 0.0664291 0)
(1.02291 0.0757879 0)
(1.02939 0.0849452 0)
(1.03672 0.0937221 0)
(1.04481 0.101949 0)
(1.05354 0.109482 0)
(1.06277 0.116208 0)
(1.07233 0.122056 0)
(1.08207 0.126994 0)
(1.09181 0.131028 0)
(1.10141 0.134186 0)
(1.11106 0.136271 0)
(1.00004 0.00427344 0)
(1.00074 0.0126104 0)