/*--------------------------------*- C++ -*----------------------------------*\
  =========                 |
  \\      /  F ield         | OpenFOAM: The Open Source CFD Toolbox
   \\    /   O peration     | Website:  https://openfoam.org
    \\  /    A nd           | Version:  7
     \\/     M anipulation  |
\*---------------------------------------------------------------------------*/
FoamFile
{
    version     2.0;
    format      ascii;
    class       surfaceScalarField;
    location    "35";
    object      phi;
}
// * * * * * * * * * * * * * * * * * * * * * * * * * * * * * * * * * * * * * //

dimensions      [0 3 -1 0 0 0 0];

internalField   nonuniform List<scalar> 
16730
(
-0.00364709
-0.000544746
-0.000525596
-0.00349437
-0.0035975
-0.000575187
-0.000503788
-0.00334987
-0.000553887
-0.00344427
-0.00354626
-0.000605125
-0.000480339
-0.00321505
-0.000529989
-0.00330022
-0.000581647
-0.00339262
-0.00349336
-0.000634545
-0.000504701
-0.00316604
-0.000555679
-0.00324925
-0.000608863
-0.00333943
-0.00343881
-0.000663418
-0.000478361
-0.00303994
-0.000528612
-0.00311579
-0.000580864
-0.00319699
-0.000635528
-0.00328477
-0.00338259
-0.000691743
-0.000450764
-0.00292031
-0.00050061
-0.00299009
-0.000552082
-0.00306432
-0.000605557
-0.00314352
-0.000661656
-0.00322867
-0.00332466
-0.00071959
-0.000471352
-0.00287067
-0.000522445
-0.002939
-0.000575129
-0.00301163
-0.000629794
-0.00308886
-0.000687245
-0.00317122
-0.003265
-0.000746908
-0.000440647
-0.00275688
-0.000491528
-0.00281979
-0.000543864
-0.00288666
-0.000597777
-0.00295772
-0.000653642
-0.00303299
-0.00071221
-0.00311265
-0.00320357
-0.000773632
-0.000459174
-0.00270618
-0.000511279
-0.00276769
-0.000564856
-0.00283309
-0.000620032
-0.00290254
-0.000677156
-0.00297587
-0.000737047
-0.00305276
-0.00314162
-0.000798997
-0.000425388
-0.00259782
-0.000477281
-0.00265428
-0.000530589
-0.00271438
-0.000585397
-0.00277828
-0.000641858
-0.00284608
-0.000700069
-0.00291765
-0.000759214
-0.00299361
-0.00307675
-0.00082409
-0.000390222
-0.00249429
-0.000441917
-0.00254613
-0.000494971
-0.00260123
-0.000549456
-0.00265989
-0.000605468
-0.00272227
-0.000663144
-0.00278841
-0.00072252
-0.00285828
-0.000783592
-0.00293254
-0.0030116
-0.000848742
-0.000405224
-0.00244279
-0.000458045
-0.0024933
-0.000512235
-0.00254704
-0.000567868
-0.00260426
-0.000625044
-0.00266509
-0.000683882
-0.00272957
-0.000744446
-0.00279771
-0.000806973
-0.00287001
-0.00294601
-0.000872558
-0.000367251
-0.00234356
-0.000419849
-0.0023902
-0.00047377
-0.00243938
-0.000529068
-0.00249174
-0.00058582
-0.00254751
-0.000644124
-0.00260679
-0.000704089
-0.0026696
-0.000765805
-0.002736
-0.000829524
-0.00280629
-0.00287975
-0.000895784
-0.000380424
-0.00229121
-0.000434094
-0.00233653
-0.00048909
-0.00238439
-0.000545468
-0.00243536
-0.000603309
-0.00248967
-0.000662707
-0.00254739
-0.000723766
-0.00260854
-0.000786585
-0.00267318
-0.000851375
-0.0027415
-0.00281272
-0.000918411
-0.000393243
-0.0022378
-0.000447959
-0.00228181
-0.000504002
-0.00232834
-0.000561433
-0.00237793
-0.000620332
-0.00243077
-0.000680793
-0.00248693
-0.000742913
-0.00254642
-0.000806792
-0.0026093
-0.000872593
-0.0026757
-0.00274484
-0.000940468
-0.000351276
-0.00214195
-0.000405706
-0.00218337
-0.000461441
-0.00222608
-0.000518505
-0.00227128
-0.000576961
-0.00231948
-0.00063689
-0.00237084
-0.000698383
-0.00242543
-0.000761533
-0.00248327
-0.000826435
-0.0025444
-0.000893219
-0.00260892
-0.00267609
-0.000961972
-0.000362385
-0.00208787
-0.000417812
-0.00212795
-0.00047454
-0.00216935
-0.000532597
-0.00221322
-0.000592051
-0.00226002
-0.000652981
-0.00230991
-0.000715478
-0.00236294
-0.00077963
-0.00241912
-0.000845526
-0.0024785
-0.000913272
-0.00254117
-0.00260643
-0.000982929
-0.000318105
-0.001993
-0.000373164
-0.00203281
-0.000429561
-0.00207155
-0.000487254
-0.00211165
-0.000546278
-0.0021542
-0.000606702
-0.0021996
-0.000668606
-0.002248
-0.000732079
-0.00229947
-0.000797206
-0.002354
-0.00086407
-0.00241164
-0.000932765
-0.00247248
-0.00253586
-0.00100334
-0.000327598
-0.00193848
-0.000383613
-0.0019768
-0.000440951
-0.00201421
-0.000499583
-0.00205302
-0.000559547
-0.00209423
-0.000620914
-0.00213823
-0.000683765
-0.00218515
-0.000748186
-0.00223504
-0.000814262
-0.00228792
-0.000882073
-0.00234383
-0.000951703
-0.00240285
-0.00246436
-0.0010232
-0.000281309
-0.00184094
-0.000336789
-0.001883
-0.000393731
-0.00191986
-0.000451984
-0.00195596
-0.000511526
-0.00199348
-0.000572403
-0.00203336
-0.000634685
-0.00207595
-0.000698456
-0.00212138
-0.0007638
-0.0021697
-0.000830801
-0.00222092
-0.000899536
-0.00227509
-0.000970088
-0.0023323
-0.00239194
-0.00104251
-0.000289276
-0.00178632
-0.000345678
-0.00182659
-0.000403517
-0.00186202
-0.000462656
-0.00189682
-0.000523083
-0.00193305
-0.000584845
-0.0019716
-0.000648016
-0.00201278
-0.00071268
-0.00205672
-0.000778921
-0.00210346
-0.000846822
-0.00215302
-0.00091646
-0.00220545
-0.000987918
-0.00226084
-0.00231861
-0.00106125
-0.000296971
-0.00173076
-0.000354264
-0.0017693
-0.000412971
-0.00180331
-0.000472969
-0.00183682
-0.000534252
-0.00187177
-0.000596872
-0.00190898
-0.000660906
-0.00194875
-0.000726435
-0.00199119
-0.000793547
-0.00203635
-0.000862324
-0.00208424
-0.000932844
-0.00213493
-0.00100519
-0.00218849
-0.00224438
-0.00107942
-0.000247941
-0.0016263
-0.000304394
-0.00167431
-0.000362548
-0.00171114
-0.000422094
-0.00174376
-0.000482922
-0.00177599
-0.000545034
-0.00180966
-0.000608484
-0.00184553
-0.000673352
-0.00188388
-0.000739721
-0.00192482
-0.000807678
-0.00196839
-0.000877306
-0.00201461
-0.000948684
-0.00206356
-0.0010219
-0.00211528
-0.00216927
-0.00109701
-0.000254226
-0.00157124
-0.000311545
-0.00161699
-0.000370528
-0.00165216
-0.000430884
-0.00168341
-0.000492514
-0.00171436
-0.000555426
-0.00174675
-0.00061968
-0.00178127
-0.000685355
-0.0018182
-0.000752537
-0.00185764
-0.000821312
-0.00189961
-0.000891766
-0.00194416
-0.000963979
-0.00199134
-0.00103804
-0.00204122
-0.0020933
-0.00111401
-0.000260272
-0.0015153
-0.000318423
-0.00155884
-0.000378205
-0.00159238
-0.000439341
-0.00162227
-0.000501744
-0.00165196
-0.000565429
-0.00168306
-0.000630459
-0.00171624
-0.000696913
-0.00175175
-0.00076488
-0.00178967
-0.000834448
-0.00183005
-0.000905701
-0.00187291
-0.000978725
-0.00191832
-0.00105361
-0.00196634
-0.00201649
-0.00113042
-0.000209283
-0.00139782
-0.000266079
-0.0014585
-0.000325029
-0.00149989
-0.000385578
-0.00153183
-0.000447464
-0.00156039
-0.000510612
-0.00158881
-0.000575042
-0.00161863
-0.000640819
-0.00165046
-0.000708025
-0.00168454
-0.00077675
-0.00172095
-0.000847083
-0.00175971
-0.00091911
-0.00180088
-0.000992918
-0.00184451
-0.0010686
-0.00189065
-0.00193886
-0.00114622
-0.000214038
-0.00134328
-0.000271646
-0.00140089
-0.000331362
-0.00144017
-0.000392647
-0.00147055
-0.000455254
-0.00149778
-0.000519118
-0.00152495
-0.000584263
-0.00155349
-0.000650759
-0.00158397
-0.00071869
-0.00161661
-0.000788145
-0.00165149
-0.000859214
-0.00168865
-0.000931988
-0.00172811
-0.00100655
-0.00176995
-0.00108301
-0.0018142
-0.00186045
-0.00116142
-0.000218588
-0.0012879
-0.000276974
-0.00134251
-0.000337422
-0.00137973
-0.000399411
-0.00140856
-0.00046271
-0.00143448
-0.00052726
-0.0014604
-0.000593093
-0.00148765
-0.000660279
-0.00151678
-0.000728905
-0.00154799
-0.000799062
-0.00158133
-0.000870841
-0.00161687
-0.000944333
-0.00165461
-0.00101963
-0.00169465
-0.00109683
-0.001737
-0.00178127
-0.001176
-0.000222935
-0.00123172
-0.000282062
-0.00128338
-0.000343208
-0.00131858
-0.000405871
-0.0013459
-0.000469831
-0.00137052
-0.000535039
-0.00139519
-0.00060153
-0.00142116
-0.000669378
-0.00144894
-0.00073867
-0.00147869
-0.0008095
-0.0015105
-0.000881959
-0.00154441
-0.000956142
-0.00158043
-0.00103214
-0.00161865
-0.00111006
-0.00165909
-0.00170137
-0.00118996
-0.000170142
-0.00109863
-0.000227078
-0.00117478
-0.000286909
-0.00122355
-0.000348721
-0.00125677
-0.000412026
-0.00128259
-0.000476618
-0.00130593
-0.000542453
-0.00132935
-0.000609573
-0.00135404
-0.000678053
-0.00138045
-0.000747983
-0.00140876
-0.000819456
-0.00143903
-0.000892567
-0.0014713
-0.000967412
-0.00150559
-0.00104408
-0.00154198
-0.00112269
-0.00158049
-0.00162076
-0.0012033
-0.000173361
-0.00104529
-0.000231015
-0.00111713
-0.000291515
-0.00116305
-0.00035396
-0.00119432
-0.000417876
-0.00121867
-0.000483069
-0.00124074
-0.000549502
-0.00126292
-0.000617221
-0.00128632
-0.000686304
-0.00131137
-0.000756842
-0.00133823
-0.000828929
-0.00136694
-0.000902663
-0.00139756
-0.000978139
-0.00143011
-0.00105545
-0.00146466
-0.00113471
-0.00150123
-0.00153947
-0.001216
-0.000176413
-0.000991215
-0.000234747
-0.0010588
-0.000295881
-0.00110192
-0.000358925
-0.00113128
-0.000423421
-0.00115418
-0.000489183
-0.00117497
-0.000556185
-0.00119592
-0.000624473
-0.00121803
-0.00069413
-0.00124172
-0.000765246
-0.00126711
-0.000837917
-0.00129427
-0.000912243
-0.00132324
-0.00098832
-0.00135403
-0.00106625
-0.00138673
-0.00114613
-0.00142134
-0.00145755
-0.00122806
-0.000179298
-0.000936455
-0.000238274
-0.00099982
-0.000300005
-0.00104019
-0.000363616
-0.00106767
-0.00042866
-0.00108914
-0.000494962
-0.00110867
-0.000562501
-0.00112838
-0.000631329
-0.00114921
-0.000701528
-0.00117152
-0.000773192
-0.00119545
-0.000846418
-0.00122105
-0.000921306
-0.00124835
-0.000997953
-0.00127739
-0.00107646
-0.00130822
-0.00115694
-0.00134087
-0.00137502
-0.00123947
-0.000182016
-0.000881047
-0.000241595
-0.000940241
-0.000303888
-0.000977893
-0.000368032
-0.00100352
-0.000433592
-0.00102358
-0.000500404
-0.00104186
-0.00056845
-0.00106033
-0.000637787
-0.00107987
-0.000708499
-0.0011008
-0.000780681
-0.00112326
-0.00085443
-0.0011473
-0.000929848
-0.00117293
-0.00100704
-0.0012002
-0.0010861
-0.00122916
-0.00116714
-0.00125983
-0.00129191
-0.00125024
-0.000128552
-0.000738355
-0.000184566
-0.000825034
-0.000244709
-0.000880097
-0.00030753
-0.000915072
-0.000372174
-0.000938878
-0.000438219
-0.000957531
-0.000505508
-0.000974571
-0.000574031
-0.000991811
-0.000643847
-0.00101005
-0.000715041
-0.00102961
-0.000787709
-0.0010506
-0.000861951
-0.00107305
-0.000937868
-0.00109701
-0.00101556
-0.0011225
-0.00109514
-0.00114958
-0.00117671
-0.00117826
-0.00120826
-0.00126036
-0.000130369
-0.000688068
-0.000186947
-0.000768455
-0.000247618
-0.000819427
-0.00031093
-0.00085176
-0.000376041
-0.000873767
-0.000442538
-0.000891033
-0.000510274
-0.000906835
-0.000579244
-0.000922841
-0.000649507
-0.00093979
-0.000721152
-0.000957966
-0.000794276
-0.000977472
-0.000868979
-0.000998351
-0.000945364
-0.00102063
-0.00102353
-0.00104433
-0.0011036
-0.00106952
-0.00118566
-0.00109619
-0.0011241
-0.00126982
-0.000132058
-0.000637236
-0.00018916
-0.000711353
-0.000250319
-0.000758267
-0.000314088
-0.000787992
-0.000379632
-0.000808222
-0.000446551
-0.000824115
-0.000514703
-0.000838683
-0.000584087
-0.000853457
-0.000654767
-0.00086911
-0.000726832
-0.000885901
-0.00080038
-0.000903924
-0.000875512
-0.000923218
-0.000952333
-0.000943807
-0.00103095
-0.000965719
-0.00111146
-0.000989004
-0.00119399
-0.00101366
-0.00103947
-0.00127862
-0.000133618
-0.0005859
-0.000191204
-0.000653767
-0.000252814
-0.000696657
-0.000317003
-0.000723803
-0.000382948
-0.000742277
-0.000450256
-0.000756807
-0.000518792
-0.000770147
-0.00058856
-0.000783689
-0.000659626
-0.000798044
-0.000732079
-0.000813448
-0.00080602
-0.000829984
-0.00088155
-0.000847688
-0.000958774
-0.000866583
-0.0010378
-0.000886694
-0.00111873
-0.00090807
-0.00120169
-0.000930705
-0.000954401
-0.00128676
-0.00013505
-0.000534103
-0.000193079
-0.000595739
-0.000255102
-0.000634635
-0.000319677
-0.000659227
-0.000385989
-0.000675965
-0.000453653
-0.000689143
-0.000522542
-0.000701258
-0.000592663
-0.000713568
-0.000664083
-0.000726625
-0.000736893
-0.000740638
-0.000811194
-0.000755683
-0.00088709
-0.000771793
-0.000964685
-0.000788988
-0.00104409
-0.000807292
-0.00112541
-0.00082675
-0.00120876
-0.000847355
-0.000868927
-0.00129423
-0.000136353
-0.000481886
-0.000194784
-0.000537308
-0.000257182
-0.000572237
-0.000322108
-0.000594301
-0.000388754
-0.000609318
-0.000456743
-0.000621154
-0.000525953
-0.000632047
-0.000596395
-0.000643127
-0.000668137
-0.000654883
-0.000741272
-0.000667502
-0.000815902
-0.000681053
-0.00089213
-0.000695564
-0.000970063
-0.000711055
-0.00104981
-0.000727546
-0.00113148
-0.000745079
-0.00121519
-0.000763646
-0.000783087
-0.00130103
-0.000137526
-0.000429291
-0.000196319
-0.000478515
-0.000259055
-0.000509501
-0.000324296
-0.00052906
-0.000391243
-0.000542371
-0.000459525
-0.000552872
-0.000529024
-0.000562548
-0.000599755
-0.000572396
-0.000671788
-0.00058285
-0.000745216
-0.000594074
-0.000820142
-0.000606127
-0.000896671
-0.000619036
-0.000974909
-0.000632817
-0.00105496
-0.00064749
-0.00113695
-0.000663091
-0.00122099
-0.000679614
-0.000696914
-0.00130716
-0.00013857
-0.000376361
-0.000197685
-0.000419401
-0.00026072
-0.000446466
-0.000326242
-0.000463538
-0.000393456
-0.000475157
-0.000461998
-0.00048433
-0.000531755
-0.000492791
-0.000602743
-0.000501408
-0.000675034
-0.000510558
-0.000748724
-0.000520384
-0.000823914
-0.000530937
-0.00090071
-0.00054224
-0.000979219
-0.000554308
-0.00105955
-0.000567158
-0.00114182
-0.000580821
-0.00122614
-0.000595292
-0.000610446
-0.00131261
-0.000139484
-0.000323138
-0.00019888
-0.000360005
-0.000262177
-0.000383169
-0.000327944
-0.000397771
-0.000395392
-0.000407709
-0.000464162
-0.00041556
-0.000534145
-0.000422808
-0.000605358
-0.000430195
-0.000677877
-0.00043804
-0.000751795
-0.000446466
-0.000827216
-0.000455516
-0.000904246
-0.00046521
-0.000982993
-0.000475561
-0.00106357
-0.000486583
-0.00114609
-0.000498304
-0.00123066
-0.000510718
-0.000523718
-0.00131739
-8.67927e-05
-0.000222608
-0.000140268
-0.000269663
-0.000199904
-0.000300369
-0.000263426
-0.000319647
-0.000329404
-0.000331793
-0.000397053
-0.00034006
-0.000466018
-0.000346595
-0.000536194
-0.000352632
-0.000607601
-0.000358788
-0.000680314
-0.000365327
-0.000754428
-0.000372351
-0.000830048
-0.000379896
-0.000907279
-0.000387979
-0.000986231
-0.000396609
-0.00106701
-0.0004058
-0.00114974
-0.000415574
-0.00123453
-0.000425927
-0.000436768
-0.00132148
-8.72365e-05
-0.000178327
-0.000140921
-0.000215978
-0.000200758
-0.000240532
-0.000264467
-0.000255938
-0.00033062
-0.00026564
-0.000398436
-0.000272244
-0.000467564
-0.000277467
-0.000537902
-0.000282295
-0.00060947
-0.000287219
-0.000682345
-0.000292452
-0.000756623
-0.000298073
-0.000832409
-0.000304111
-0.000909808
-0.00031058
-0.00098893
-0.000317487
-0.00106989
-0.000324843
-0.00115279
-0.000332667
-0.00123777
-0.000340954
-0.000349633
-0.0013249
-8.75917e-05
-0.000133883
-0.000141444
-0.000162126
-0.000201442
-0.000180534
-0.000265301
-0.000192079
-0.000331594
-0.000199347
-0.000399543
-0.000204295
-0.000468802
-0.000208209
-0.000539268
-0.000211828
-0.000610966
-0.000215522
-0.000683971
-0.000219447
-0.00075838
-0.000223663
-0.000834298
-0.000228193
-0.000911831
-0.000233046
-0.00099109
-0.000238229
-0.00107219
-0.000243748
-0.00115523
-0.000249618
-0.00124035
-0.000255836
-0.000262348
-0.00132764
-8.78582e-05
-8.9318e-05
-0.000141836
-0.000108147
-0.000201954
-0.000120416
-0.000265925
-0.000128108
-0.000332323
-0.000132949
-0.000400374
-0.000136245
-0.00046973
-0.000138852
-0.000540293
-0.000141265
-0.000612088
-0.000143727
-0.00068519
-0.000146344
-0.000759698
-0.000149156
-0.000835715
-0.000152176
-0.00091335
-0.000155412
-0.00099271
-0.000158868
-0.00107391
-0.000162548
-0.00115707
-0.000166463
-0.00124229
-0.00017061
-0.000174952
-0.00132969
-8.80359e-05
-4.46718e-05
-0.000142098
-5.40856e-05
-0.000202296
-6.0218e-05
-0.000266342
-6.40617e-05
-0.00033281
-6.64809e-05
-0.000400927
-6.81276e-05
-0.000470349
-6.9431e-05
-0.000540977
-7.0637e-05
-0.000612836
-7.18679e-05
-0.000686003
-7.31764e-05
-0.000760577
-7.45822e-05
-0.00083666
-7.60926e-05
-0.000914362
-7.77107e-05
-0.000993791
-7.94387e-05
-0.00107506
-8.12791e-05
-0.00115829
-8.32367e-05
-0.00124359
-8.53102e-05
-8.74819e-05
-0.00133106
-8.81247e-05
1.48583e-08
-0.000142228
1.81389e-08
-0.000202467
2.02858e-08
-0.00026655
2.16035e-08
-0.000333053
2.23777e-08
-0.000401204
2.28363e-08
-0.000470658
2.31359e-08
-0.000541318
2.33684e-08
-0.00061321
2.35804e-08
-0.00068641
2.37914e-08
-0.000761016
2.40082e-08
-0.000837133
2.42323e-08
-0.000914868
2.44638e-08
-0.000994331
2.47021e-08
-0.00107564
2.49466e-08
-0.0011589
2.51973e-08
-0.00124423
2.54528e-08
2.57082e-08
-0.00133174
-8.81247e-05
4.47015e-05
-0.000142228
5.41219e-05
-0.000202467
6.02586e-05
-0.00026655
6.41049e-05
-0.000333053
6.65256e-05
-0.000401204
6.81732e-05
-0.000470658
6.94772e-05
-0.000541318
7.06837e-05
-0.00061321
7.19151e-05
-0.00068641
7.3224e-05
-0.000761016
7.46302e-05
-0.000837133
7.6141e-05
-0.000914868
7.77596e-05
-0.000994331
7.94881e-05
-0.00107564
8.1329e-05
-0.0011589
8.32871e-05
-0.00124423
8.53611e-05
8.75334e-05
-0.00133174
-8.80359e-05
8.93477e-05
-0.000142098
0.000108184
-0.000202296
0.000120457
-0.000266342
0.000128151
-0.00033281
0.000132994
-0.000400927
0.00013629
-0.000470348
0.000138899
-0.000540977
0.000141312
-0.000612836
0.000143774
-0.000686003
0.000146392
-0.000760577
0.000149204
-0.00083666
0.000152225
-0.000914362
0.000155461
-0.000993791
0.000158917
-0.00107506
0.000162598
-0.00115829
0.000166513
-0.00124359
0.00017066
0.000175004
-0.00133106
-8.78581e-05
0.000133913
-0.000141836
0.000162162
-0.000201954
0.000180575
-0.000265925
0.000192122
-0.000332323
0.000199392
-0.000400373
0.00020434
-0.00046973
0.000208255
-0.000540293
0.000211875
-0.000612088
0.000215569
-0.00068519
0.000219494
-0.000759698
0.000223711
-0.000835715
0.000228242
-0.000913349
0.000233095
-0.00099271
0.000238278
-0.00107391
0.000243798
-0.00115707
0.000249669
-0.00124229
0.000255887
0.0002624
-0.00132969
-8.75916e-05
0.000178356
-0.000141444
0.000216014
-0.000201441
0.000240572
-0.0002653
0.000255981
-0.000331593
0.000265685
-0.000399543
0.00027229
-0.000468801
0.000277513
-0.000539268
0.000282342
-0.000610965
0.000287266
-0.000683971
0.000292499
-0.00075838
0.000298121
-0.000834298
0.00030416
-0.000911831
0.000310629
-0.000991089
0.000317536
-0.00107218
0.000324893
-0.00115523
0.000332717
-0.00124035
0.000341005
0.000349684
-0.00132764
-8.72364e-05
0.000222637
-0.000140921
0.000269699
-0.000200758
0.000300409
-0.000264467
0.00031969
-0.00033062
0.000331838
-0.000398436
0.000340106
-0.000467564
0.000346641
-0.000537901
0.000352679
-0.00060947
0.000358835
-0.000682345
0.000365374
-0.000756623
0.000372399
-0.000832408
0.000379945
-0.000909807
0.000388028
-0.000988929
0.000396658
-0.00106989
0.00040585
-0.00115279
0.000415624
-0.00123776
0.000425977
0.00043682
-0.0013249
-8.67926e-05
-0.000140268
0.000323174
-0.000199904
0.000360046
-0.000263426
0.000383212
-0.000329403
0.000397815
-0.000397052
0.000407755
-0.000466017
0.000415607
-0.000536193
0.000422855
-0.0006076
0.000430242
-0.000680313
0.000438087
-0.000754428
0.000446514
-0.000830047
0.000455564
-0.000907279
0.000465259
-0.00098623
0.00047561
-0.00106701
0.000486633
-0.00114974
0.000498354
-0.00123453
0.000510769
0.000523769
-0.00132148
-0.000139484
0.000376397
-0.000198879
0.000419441
-0.000262177
0.000446509
-0.000327944
0.000463583
-0.000395392
0.000475203
-0.000464162
0.000484376
-0.000534144
0.000492838
-0.000605358
0.000501455
-0.000677876
0.000510606
-0.000751794
0.000520432
-0.000827215
0.000530985
-0.000904246
0.000542289
-0.000982993
0.000554357
-0.00106357
0.000567207
-0.00114608
0.000580871
-0.00123066
0.000595343
0.000610497
-0.00131739
-0.00013857
0.000429327
-0.000197684
0.000478555
-0.000260719
0.000509544
-0.000326241
0.000529104
-0.000393455
0.000542417
-0.000461997
0.000552918
-0.000531754
0.000562595
-0.000602742
0.000572443
-0.000675034
0.000582897
-0.000748723
0.000594121
-0.000823913
0.000606175
-0.000900709
0.000619085
-0.000979218
0.000632866
-0.00105955
0.00064754
-0.00114182
0.000663141
-0.00122614
0.000679664
0.000696965
-0.00131261
-0.000137526
0.000481922
-0.000196319
0.000537348
-0.000259054
0.00057228
-0.000324296
0.000594346
-0.000391242
0.000609364
-0.000459524
0.0006212
-0.000529024
0.000632094
-0.000599754
0.000643174
-0.000671787
0.00065493
-0.000745216
0.00066755
-0.000820142
0.000681101
-0.00089667
0.000695613
-0.000974908
0.000711104
-0.00105496
0.000727596
-0.00113695
0.000745129
-0.00122098
0.000763697
0.000783138
-0.00130716
-0.000136353
0.000534138
-0.000194784
0.000595779
-0.000257181
0.000634677
-0.000322107
0.000659272
-0.000388753
0.00067601
-0.000456743
0.000689189
-0.000525953
0.000701304
-0.000596394
0.000713615
-0.000668136
0.000726672
-0.000741272
0.000740685
-0.000815901
0.000755731
-0.000892129
0.000771841
-0.000970062
0.000789037
-0.00104981
0.000807342
-0.00113148
0.0008268
-0.00121519
0.000847406
0.000868979
-0.00130103
-0.00013505
0.000585936
-0.000193078
0.000653807
-0.000255101
0.0006967
-0.000319676
0.000723847
-0.000385988
0.000742322
-0.000453653
0.000756853
-0.000522542
0.000770193
-0.000592662
0.000783736
-0.000664082
0.000798092
-0.000736892
0.000813496
-0.000811193
0.000830032
-0.000887089
0.000847737
-0.000964684
0.000866632
-0.00104409
0.000886744
-0.00112541
0.00090812
-0.00120876
0.000930756
0.000954452
-0.00129423
-0.000133618
0.000637272
-0.000191204
0.000711393
-0.000252813
0.00075831
-0.000317003
0.000788036
-0.000382948
0.000808267
-0.000450255
0.000824161
-0.000518791
0.000838729
-0.000588559
0.000853504
-0.000659625
0.000869157
-0.000732078
0.000885949
-0.000806019
0.000903973
-0.000881549
0.000923267
-0.000958773
0.000943857
-0.0010378
0.000965769
-0.00111873
0.000989055
-0.00120169
0.00101371
0.00103952
-0.00128676
-0.000132057
0.000688104
-0.00018916
0.000768495
-0.000250319
0.000819469
-0.000314087
0.000851804
-0.000379632
0.000873812
-0.00044655
0.000891079
-0.000514702
0.000906881
-0.000584086
0.000922888
-0.000654766
0.000939837
-0.000726831
0.000958014
-0.000800379
0.00097752
-0.000875511
0.000998399
-0.000952332
0.00102068
-0.00103095
0.00104438
-0.00111146
0.00106957
-0.00119399
0.00109624
0.00112415
-0.00127862
-0.000130368
0.00073839
-0.000186947
0.000825073
-0.000247617
0.00088014
-0.000310929
0.000915116
-0.00037604
0.000938923
-0.000442537
0.000957576
-0.000510273
0.000974617
-0.000579243
0.000991857
-0.000649506
0.0010101
-0.000721151
0.00102966
-0.000794275
0.00105064
-0.000868978
0.0010731
-0.000945363
0.00109706
-0.00102353
0.00112255
-0.0011036
0.00114963
-0.00118566
0.00117831
0.00120831
-0.00126982
-0.000128552
-0.000184565
0.000881087
-0.000244709
0.000940283
-0.000307529
0.000977937
-0.000372173
0.00100357
-0.000438218
0.00102362
-0.000505507
0.00104191
-0.00057403
0.00106038
-0.000643846
0.00107992
-0.00071504
0.00110085
-0.000787708
0.00112331
-0.00086195
0.00114734
-0.000937867
0.00117298
-0.00101556
0.00120025
-0.00109514
0.00122921
-0.00117671
0.00125988
0.00129196
-0.00126036
-0.000182015
0.000936494
-0.000241594
0.000999862
-0.000303887
0.00104023
-0.000368032
0.00106771
-0.000433591
0.00108918
-0.000500403
0.00110872
-0.000568449
0.00112843
-0.000637786
0.00114925
-0.000708498
0.00117156
-0.000780679
0.00119549
-0.000854429
0.00122109
-0.000929847
0.0012484
-0.00100703
0.00127744
-0.00108609
0.00130827
-0.00116713
0.00134092
0.00137507
-0.00125024
-0.000179297
0.000991255
-0.000238273
0.00105884
-0.000300004
0.00110196
-0.000363615
0.00113132
-0.000428659
0.00115422
-0.000494961
0.00117502
-0.0005625
0.00119597
-0.000631328
0.00121808
-0.000701527
0.00124176
-0.000773191
0.00126716
-0.000846417
0.00129432
-0.000921304
0.00132329
-0.000997952
0.00135408
-0.00107646
0.00138678
-0.00115694
0.00142139
0.0014576
-0.00123947
-0.000176412
0.00104533
-0.000234746
0.00111717
-0.00029588
0.00116309
-0.000358924
0.00119437
-0.00042342
0.00121872
-0.000489182
0.00124078
-0.000556184
0.00126297
-0.000624472
0.00128637
-0.000694128
0.00131142
-0.000765244
0.00133827
-0.000837916
0.00136699
-0.000912241
0.00139761
-0.000988319
0.00143016
-0.00106625
0.00146471
-0.00114613
0.00150128
0.00153952
-0.00122805
-0.00017336
0.00109867
-0.000231014
0.00117483
-0.000291514
0.00122359
-0.000353959
0.00125681
-0.000417875
0.00128264
-0.000483067
0.00130597
-0.0005495
0.0013294
-0.000617219
0.00135409
-0.000686302
0.0013805
-0.00075684
0.00140881
-0.000828928
0.00143908
-0.000902661
0.00147134
-0.000978137
0.00150564
-0.00105545
0.00154203
-0.00113471
0.00158054
0.00162081
-0.00121599
-0.000170141
-0.000227077
0.00123176
-0.000286908
0.00128343
-0.00034872
0.00131862
-0.000412025
0.00134594
-0.000476616
0.00137057
-0.000542452
0.00139524
-0.000609571
0.00142121
-0.000678051
0.00144898
-0.000747981
0.00147874
-0.000819454
0.00151055
-0.000892566
0.00154446
-0.00096741
0.00158048
-0.00104408
0.0016187
-0.00112268
0.00165914
0.00170142
-0.00120329
-0.000222934
0.00128794
-0.00028206
0.00134255
-0.000343207
0.00137977
-0.00040587
0.0014086
-0.00046983
0.00143453
-0.000535037
0.00146044
-0.000601528
0.0014877
-0.000669376
0.00151683
-0.000738668
0.00154803
-0.000809498
0.00158138
-0.000881957
0.00161692
-0.00095614
0.00165466
-0.00103214
0.0016947
-0.00111005
0.00173705
0.00178133
-0.00118996
-0.000218587
0.00134332
-0.000276973
0.00140094
-0.000337421
0.00144022
-0.00039941
0.00147059
-0.000462708
0.00149782
-0.000527259
0.00152499
-0.000593091
0.00155353
-0.000660278
0.00158402
-0.000728903
0.00161666
-0.00079906
0.00165154
-0.000870839
0.00168869
-0.000944331
0.00172816
-0.00101963
0.00176999
-0.00109683
0.00181425
0.0018605
-0.001176
-0.000214037
-0.000271645
0.00145855
-0.000331361
0.00149993
-0.000392645
0.00153188
-0.000455253
0.00156043
-0.000519116
0.00158886
-0.000584262
0.00161868
-0.000650757
0.00165051
-0.000718688
0.00168459
-0.000788143
0.00172099
-0.000859212
0.00175976
-0.000931986
0.00180093
-0.00100655
0.00184456
-0.00108301
0.0018907
0.00193892
-0.00116142
-0.000266078
0.00151534
-0.000325028
0.00155888
-0.000385576
0.00159242
-0.000447463
0.00162232
-0.00051061
0.00165201
-0.00057504
0.00168311
-0.000640817
0.00171629
-0.000708023
0.0017518
-0.000776748
0.00178972
-0.00084708
0.0018301
-0.000919107
0.00187296
-0.000992916
0.00191837
-0.0010686
0.00196639
0.00201654
-0.00114622
-0.00026027
0.00157129
-0.000318422
0.00161704
-0.000378203
0.00165221
-0.000439339
0.00168345
-0.000501742
0.00171441
-0.000565427
0.00174679
-0.000630456
0.00178132
-0.000696911
0.00181825
-0.000764878
0.00185769
-0.000834445
0.00189966
-0.000905699
0.00194421
-0.000978723
0.00199139
-0.00105361
0.00204127
0.00209335
-0.00113042
-0.000254224
0.00162635
-0.000311543
0.00167435
-0.000370526
0.00171119
-0.000430882
0.00174381
-0.000492512
0.00177604
-0.000555424
0.0018097
-0.000619678
0.00184557
-0.000685353
0.00188393
-0.000752535
0.00192487
-0.00082131
0.00196844
-0.000891763
0.00201466
-0.000963977
0.00206361
-0.00103804
0.00211533
0.00216932
-0.00111401
-0.000247939
-0.000304392
0.00173081
-0.000362546
0.00176934
-0.000422092
0.00180336
-0.00048292
0.00183687
-0.000545031
0.00187182
-0.000608482
0.00190902
-0.00067335
0.00194879
-0.000739719
0.00199124
-0.000807676
0.0020364
-0.000877303
0.00208429
-0.000948682
0.00213498
-0.0010219
0.00218854
0.00224443
-0.001097
-0.000296969
0.00178636
-0.000354262
0.00182664
-0.000412969
0.00186206
-0.000472967
0.00189686
-0.00053425
0.0019331
-0.00059687
0.00197164
-0.000660903
0.00201283
-0.000726433
0.00205677
-0.000793544
0.00210351
-0.000862321
0.00215307
-0.000932841
0.0022055
-0.00100519
0.00226089
0.00231866
-0.00107941
-0.000289274
0.00184098
-0.000345676
0.00188304
-0.000403515
0.0019199
-0.000462654
0.001956
-0.000523081
0.00199353
-0.000584842
0.0020334
-0.000648014
0.002076
-0.000712677
0.00212143
-0.000778918
0.00216975
-0.000846819
0.00222097
-0.000916457
0.00227514
-0.000987915
0.00233235
0.00239199
-0.00106124
-0.000281307
-0.000336787
0.00193852
-0.000393728
0.00197684
-0.000451981
0.00201426
-0.000511524
0.00205307
-0.0005724
0.00209428
-0.000634683
0.00213828
-0.000698453
0.0021852
-0.000763797
0.00223509
-0.000830798
0.00228797
-0.000899533
0.00234388
-0.000970085
0.0024029
0.00246441
-0.0010425
-0.000327595
0.00199305
-0.00038361
0.00203286
-0.000440949
0.00207159
-0.00049958
0.0021117
-0.000559544
0.00215425
-0.000620911
0.00219965
-0.000683762
0.00224805
-0.000748183
0.00229951
-0.000814259
0.00235405
-0.00088207
0.00241169
-0.0009517
0.00247253
0.00253591
-0.0010232
-0.000318102
-0.000373161
0.00208792
-0.000429558
0.00212799
-0.000487251
0.00216939
-0.000546275
0.00221327
-0.000606699
0.00226007
-0.000668603
0.00230996
-0.000732076
0.00236299
-0.000797202
0.00241917
-0.000864067
0.00247855
-0.000932762
0.00254122
0.00260648
-0.00100334
-0.000362382
0.00214199
-0.000417809
0.00218342
-0.000474537
0.00222612
-0.000532594
0.00227133
-0.000592047
0.00231952
-0.000652978
0.00237089
-0.000715475
0.00242548
-0.000779626
0.00248332
-0.000845522
0.00254445
-0.000913268
0.00260897
0.00267614
-0.000982926
-0.000351273
-0.000405703
0.00223785
-0.000461438
0.00228186
-0.000518501
0.00232839
-0.000576957
0.00237798
-0.000636886
0.00243082
-0.00069838
0.00248698
-0.00076153
0.00254647
-0.000826432
0.00260935
-0.000893215
0.00267575
0.00274489
-0.000961968
-0.00039324
0.00229125
-0.000447955
0.00233657
-0.000503998
0.00238443
-0.000561429
0.00243541
-0.000620329
0.00248971
-0.00068079
0.00254744
-0.000742909
0.00260859
-0.000806788
0.00267323
-0.00087259
0.00274155
0.00281277
-0.000940464
-0.000380421
0.0023436
-0.000434091
0.00239024
-0.000489086
0.00243943
-0.000545464
0.00249179
-0.000603305
0.00254756
-0.000662703
0.00260684
-0.000723762
0.00266965
-0.000786581
0.00273605
-0.000851371
0.00280634
0.0028798
-0.000918407
-0.000367248
-0.000419845
0.00244284
-0.000473766
0.00249335
-0.000529064
0.00254708
-0.000585816
0.00260431
-0.00064412
0.00266514
-0.000704085
0.00272962
-0.000765801
0.00279776
-0.00082952
0.00287006
0.00294606
-0.000895779
-0.00040522
-0.000458041
0.00254617
-0.000512231
0.00260127
-0.000567864
0.00265994
-0.00062504
0.00272232
-0.000683878
0.00278845
-0.000744442
0.00285833
-0.000806969
0.00293259
0.00301165
-0.000872554
-0.000441912
0.00259786
-0.000494967
0.00265433
-0.000549452
0.00271443
-0.000605463
0.00277833
-0.000663139
0.00284613