/*--------------------------------*- C++ -*----------------------------------*\
  =========                 |
  \\      /  F ield         | OpenFOAM: The Open Source CFD Toolbox
   \\    /   O peration     | Website:  https://openfoam.org
    \\  /    A nd           | Version:  7
     \\/     M anipulation  |
\*---------------------------------------------------------------------------*/
FoamFile
{
    version     2.0;
    format      ascii;
    class       volVectorField;
    location    "35";
    object      U;
}
// * * * * * * * * * * * * * * * * * * * * * * * * * * * * * * * * * * * * * //

dimensions      [0 1 -1 0 0 0 0];

internalField   nonuniform List<vector> 
8500
(
(1.02819 0.376601 -7.78305e-21)
(1.01585 0.392574 -8.95777e-20)
(1.018 0.376035 1.15899e-19)
(1.00204 0.410694 -1.20475e-19)
(1.00484 0.391803 1.439e-19)
(1.0077 0.375146 -1.82544e-19)
(0.987737 0.430603 -6.78326e-20)
(0.990398 0.409758 2.38507e-19)
(0.993709 0.390698 -1.54984e-19)
(0.9973 0.37392 4.98788e-20)
(0.975504 0.429478 1.08349e-19)
(0.978681 0.408479 1.05397e-19)
(0.982468 0.389252 -4.11466e-19)
(0.986797 0.372336 9.35767e-20)
(0.960151 0.450338 1.39509e-19)
(0.963228 0.427974 -1.78579e-19)
(0.966916 0.406853 6.05597e-20)
(0.971133 0.387455 4.30484e-19)
(0.976199 0.370366 2.4485e-19)
(0.943731 0.472338 -6.2026e-20)
(0.947188 0.448552 -2.23463e-19)
(0.950931 0.426082 -7.07538e-20)
(0.955128 0.404876 -2.61857e-19)
(0.95972 0.385296 1.21217e-19)
(0.965521 0.36797 -2.89583e-19)
(0.929959 0.470214 -4.68891e-20)
(0.934193 0.446338 -2.19522e-20)
(0.938632 0.423796 1.43113e-19)
(0.943336 0.402543 2.74581e-19)
(0.948266 0.382766 -4.67436e-19)
(0.954881 0.365119 3.07847e-19)
(0.911201 0.492984 -3.88266e-21)
(0.916147 0.467624 -1.03177e-20)
(0.921181 0.443688 2.60666e-19)
(0.926339 0.421103 -1.00408e-19)
(0.931553 0.399838 -1.95343e-19)
(0.936875 0.379841 -6.74317e-21)
(0.944507 0.361825 -4.29252e-19)
(0.896501 0.489964 -1.29425e-19)
(0.902311 0.464564 7.19745e-20)
(0.908159 0.440597 2.03539e-19)
(0.914046 0.417996 5.95544e-20)
(0.919803 0.396736 -3.55817e-19)
(0.925724 0.376453 -1.20894e-20)
(0.934397 0.358045 1.37231e-19)
(0.87506 0.513365 -7.71474e-20)
(0.881787 0.486437 -1.30383e-20)
(0.888469 0.461033 -2.12955e-19)
(0.895133 0.437065 -1.12785e-19)
(0.901752 0.414475 -1.29031e-19)
(0.908129 0.39324 4.16306e-19)
(0.914987 0.372596 -9.70415e-20)
(0.923809 0.35259 3.69941e-19)
(0.851598 0.537781 -2.40339e-19)
(0.859416 0.509308 1.02525e-19)
(0.867079 0.482401 1.65263e-19)
(0.874635 0.457028 7.10849e-20)
(0.882115 0.433094 1.84151e-19)
(0.889469 0.410542 8.72709e-20)
(0.896559 0.389351 -2.60021e-20)
(0.904367 0.368724 2.01092e-19)
(0.913356 0.348666 2.86689e-20)
(0.834976 0.533127 -1.0449e-19)
(0.843795 0.5047 -3.02811e-19)
(0.852397 0.477855 -2.15499e-20)
(0.860831 0.45255 -1.3257e-19)
(0.869123 0.428686 2.05854e-19)
(0.877214 0.406205 -3.21747e-19)
(0.885014 0.38507 -8.36811e-20)
(0.893532 0.364464 -1.25639e-19)
(0.902629 0.344366 -4.60082e-19)
(0.808156 0.55772 -3.91303e-20)
(0.818397 0.527876 -9.46796e-21)
(0.828221 0.499539 -4.20183e-20)
(0.837765 0.472797 -1.02659e-19)
(0.847076 0.447598 -1.47441e-19)
(0.856179 0.423842 7.6464e-20)
(0.865013 0.401468 2.57323e-19)
(0.873522 0.380422 -1.37507e-19)
(0.882674 0.359903 1.80519e-19)
(0.892014 0.339955 5.21787e-19)
(0.790581 0.55176 -4.66049e-19)
(0.801885 0.522027 -2.19412e-19)
(0.812716 0.493825 6.53723e-20)
(0.823203 0.467227 8.63147e-20)
(0.83339 0.442174 2.99615e-19)
(0.843304 0.418561 -4.2076e-19)
(0.852882 0.396329 1.24378e-19)
(0.862095 0.37541 7.69648e-20)
(0.871854 0.355033 -1.11023e-19)
(0.881531 0.335325 -3.91083e-19)
(0.773097 0.545151 2.48089e-19)
(0.785467 0.51558 3.96264e-19)
(0.797306 0.487559 3.21386e-19)
(0.808734 0.461146 2.32772e-19)
(0.819796 0.436277 -5.07152e-19)
(0.830518 0.412846 -3.35109e-21)
(0.840842 0.390792 -1.3833e-19)
(0.850751 0.370036 5.34287e-19)
(0.861112 0.34985 -2.57712e-20)
(0.871186 0.330431 -2.65371e-19)
(0.741413 0.568483 -3.40736e-19)
(0.755733 0.537896 8.10367e-21)
(0.769169 0.508537 1.26183e-19)
(0.782013 0.480741 -2.00565e-19)
(0.79438 0.454555 -2.5549e-19)
(0.806315 0.429909 6.4582e-19)
(0.817843 0.406697 2.61301e-19)
(0.82891 0.384856 -2.70284e-19)
(0.839514 0.364301 -3.17995e-19)
(0.850477 0.344348 -3.58578e-19)
(0.860991 0.325249 -2.9497e-20)
(0.723091 0.560358 1.75566e-19)
(0.738517 0.529996 6.82625e-20)
(0.753016 0.500899 -3.52281e-19)
(0.766863 0.473375 3.72853e-19)
(0.780164 0.447456 2.26979e-19)
(0.792967 0.423072 -9.20109e-20)
(0.805297 0.400116 -1.76541e-19)
(0.817107 0.378522 1.55622e-19)
(0.828403 0.358203 -2.65605e-19)
(0.839972 0.338521 -3.72012e-19)
(0.850955 0.319764 3.62892e-19)
(0.686864 0.582037 5.46898e-19)
(0.704946 0.551537 -2.72358e-19)
(0.721476 0.521457 3.36268e-19)
(0.737035 0.492671 -3.91927e-19)
(0.751878 0.465462 5.15233e-20)
(0.766108 0.439853 -1.59812e-19)
(0.779773 0.415768 1.12945e-19)
(0.792902 0.393103 1.07105e-19)
(0.80545 0.371792 -6.71177e-20)
(0.817436 0.351743 6.62265e-19)
(0.829613 0.332364 -8.43733e-20)
(0.841086 0.313965 -3.08555e-19)
(0.667821 0.572259 -3.95952e-19)
(0.687009 0.542026 5.67785e-19)
(0.704639 0.512283 -6.55325e-20)
(0.721251 0.483857 1.63543e-19)
(0.737083 0.457007 1.95803e-19)
(0.752234 0.431748 7.87744e-20)
(0.766755 0.408001 -5.48734e-19)
(0.780675 0.385663 1.22115e-19)
(0.793958 0.364667 1.18307e-19)
(0.806631 0.34492 -3.94335e-19)
(0.819416 0.325874 1.51787e-19)
(0.831395 0.307848 5.79248e-20)
(0.626131 0.590356 -5.81177e-20)
(0.649017 0.561735 -6.08523e-21)
(0.669309 0.531832 8.76091e-20)
(0.688034 0.50248 -1.58818e-19)
(0.70569 0.474462 -2.00138e-20)
(0.722501 0.448015 -6.08727e-19)
(0.738565 0.423146 -4.69903e-19)
(0.753932 0.399774 -7.81349e-20)
(0.768637 0.377798 -6.85461e-20)
(0.782648 0.35715 -7.58112e-20)
(0.796004 0.337735 -1.54737e-19)
(0.809395 0.319048 -1.80823e-19)
(0.821888 0.30141 -2.45408e-19)
(0.606561 0.578838 -1.1093e-19)
(0.630486 0.550476 -5.04471e-20)
(0.651878 0.520963 -5.32464e-19)
(0.671687 0.492056 -5.07684e-19)
(0.690377 0.464493 9.54519e-20)
(0.708156 0.438492 8.29051e-19)
(0.72512 0.414053 1.27225e-19)
(0.741324 0.391093 3.39955e-19)
(0.756806 0.369512 -5.29633e-19)
(0.771538 0.349243 -1.27253e-19)
(0.785571 0.330191 6.38525e-19)
(0.799562 0.311889 2.87967e-19)
(0.812576 0.294651 1.18211e-18)
(0.587296 0.566527 -6.93062e-20)
(0.612261 0.538492 3.59844e-19)
(0.634745 0.509429 -2.22293e-19)
(0.655627 0.481019 1.67743e-19)
(0.675336 0.453958 3.84506e-19)
(0.69407 0.428446 -2.69021e-19)
(0.711923 0.404475 6.99246e-20)
(0.728952 0.381963 3.3238e-19)
(0.745199 0.36081 4.25158e-19)
(0.760645 0.340951 -2.22596e-19)
(0.775346 0.32229 -1.30795e-19)
(0.789932 0.304397 1.99284e-19)
(0.803469 0.287574 -5.84183e-19)
(0.538451 0.576928 8.144e-20)
(0.568372 0.553436 2.27545e-19)
(0.594373 0.525795 -3.41322e-19)
(0.617939 0.49724 8.13832e-19)
(0.639879 0.469378 3.41844e-19)
(0.660592 0.442865 -1.17246e-19)
(0.680265 0.417883 -3.81935e-20)
(0.698992 0.394419 1.57716e-19)
(0.716834 0.37239 -4.40283e-19)
(0.733835 0.351699 3.62399e-20)
(0.749983 0.332279 -2.86725e-19)
(0.765344 0.314036 -1.29242e-19)
(0.780515 0.296576 -5.77771e-19)
(0.794574 0.280182 -2.52864e-19)
(0.519033 0.562839 -2.83072e-19)
(0.549824 0.53958 1.5135e-19)
(0.576855 0.512398 -9.40246e-20)
(0.601489 0.484409 -2.92541e-19)
(0.62447 0.457145 3.18133e-19)
(0.646169 0.431224 3.44698e-19)
(0.666764 0.406813 -1.4779e-21)
(0.68635 0.383893 -8.03601e-20)
(0.704989 0.362381 -4.54282e-20)
(0.722731 0.342183 3.44798e-19)
(0.739569 0.323232 3.14861e-19)
(0.755578 0.305434 8.87691e-20)
(0.771324 0.288429 6.07045e-19)
(0.785904 0.272479 2.00687e-19)
(0.500024 0.54793 -1.01289e-19)
(0.531686 0.524974 -1.76027e-19)
(0.559737 0.498316 -6.69701e-20)
(0.585422 0.470948 -9.00956e-21)
(0.609425 0.444331 -6.99372e-19)
(0.63209 0.419047 -8.92934e-19)
(0.653589 0.395247 -1.39566e-19)
(0.674015 0.372907 3.16652e-19)
(0.693436 0.351946 -1.25689e-19)
(0.711903 0.332272 -6.48798e-19)
(0.729419 0.313817 6.14405e-19)
(0.746063 0.296491 8.94444e-20)
(0.762372 0.279963 -2.52774e-19)
(0.777467 0.264472 3.99843e-19)
(0.443603 0.546229 1.17958e-19)
(0.481461 0.53222 4.09975e-19)
(0.513993 0.509638 -1.43392e-19)
(0.54305 0.483564 2.18904e-19)
(0.569766 0.456871 4.22853e-19)
(0.594769 0.430949 2.32773e-19)
(0.618379 0.406344 9.91634e-19)
(0.640761 0.383194 4.5824e-19)
(0.662008 0.36147 -3.91425e-20)
(0.682192 0.341093 -2.35962e-20)
(0.701369 0.321973 8.25138e-20)
(0.719546 0.304042 -6.76003e-19)
(0.736811 0.287213 -3.65667e-19)
(0.753671 0.271183 1.59199e-19)
(0.769274 0.256167 -5.53479e-19)
(0.424966 0.529689 8.74733e-20)
(0.463381 0.515732 -5.1943e-19)
(0.496777 0.493589 3.95768e-19)
(0.526822 0.468159 -1.85975e-19)
(0.554547 0.442194 -4.30738e-19)
(0.580526 0.417014 -1.05326e-19)
(0.605058 0.39313 -4.08333e-19)
(0.628299 0.370666 -8.58638e-19)
(0.650347 0.349594 7.35905e-20)
(0.671275 0.329833 6.93784e-19)
(0.691143 0.311295 -3.06056e-19)
(0.709966 0.293915 3.78913e-19)
(0.727837 0.277607 5.12528e-19)
(0.745231 0.262097 3.33283e-19)
(0.761334 0.247571 2.56283e-19)
(0.40684 0.512325 3.12758e-19)
(0.44582 0.498486 5.49014e-19)
(0.480068 0.476848 -6.70591e-19)
(0.511082 0.452121 5.32436e-19)
(0.539792 0.426934 4.29806e-19)
(0.566721 0.40254 -1.2463e-19)
(0.592148 0.379417 -6.75395e-20)
(0.616225 0.357677 2.49357e-19)
(0.639051 0.337289 -4.33375e-19)
(0.660701 0.318175 -5.86904e-19)
(0.681242 0.300249 2.25424e-19)
(0.700693 0.283445 -2.29433e-19)
(0.719152 0.267683 -2.78781e-19)
(0.737065 0.252712 -2.43656e-19)
(0.753659 0.238692 2.41706e-20)
(0.389265 0.494162 -5.41074e-19)
(0.428812 0.480507 -4.42343e-20)
(0.463899 0.459435 3.30646e-20)
(0.495859 0.435467 -5.66914e-20)
(0.525525 0.411109 -5.37719e-19)
(0.553376 0.387544 -2.28929e-20)
(0.57967 0.365221 -8.96075e-20)
(0.604558 0.344241 5.45039e-19)
(0.628137 0.32457 -1.7099e-19)
(0.650488 0.306132 -4.911e-20)
(0.67168 0.288844 2.9519e-19)
(0.69174 0.272643 8.70235e-19)
(0.710769 0.257449 -8.94759e-20)
(0.729184 0.243037 -1.06005e-19)
(0.746257 0.229539 1.83975e-19)
(0.32633 0.474766 3.85176e-19)
(0.372276 0.475229 -2.27363e-19)
(0.412389 0.461819 -3.72654e-19)
(0.448299 0.441375 3.7083e-19)
(0.481178 0.418219 -1.25332e-19)
(0.511771 0.394736 3.51732e-19)
(0.540513 0.372042 1.62316e-19)
(0.567646 0.350557 -9.59435e-20)
(0.593316 0.330371 -3.70965e-19)
(0.617623 0.311448 4.63121e-19)
(0.640651 0.293716 -1.16933e-19)
(0.662472 0.277093 -5.17025e-19)
(0.683121 0.261518 -1.8048e-19)
(0.7027 0.246915 -5.71689e-20)
(0.721599 0.233081 9.06131e-19)
(0.739138 0.220121 -5.88848e-19)
(0.30988 0.455447 -2.86642e-19)
(0.35591 0.455553 5.65783e-19)
(0.396584 0.442449 1.03403e-19)
(0.433295 0.42269 2.79332e-19)
(0.467064 0.400399 2.09651e-19)
(0.498553 0.377836 -5.79862e-19)
(0.528154 0.356054 -3.07139e-19)
(0.556095 0.335442 5.74787e-19)
(0.582518 0.316083 -2.00024e-20)
(0.607526 0.297939 -4.77825e-19)
(0.631206 0.28094 1.23996e-19)
(0.653632 0.265008 6.01885e-19)
(0.674848 0.250083 -4.92524e-19)
(0.694957 0.236093 -2.01649e-19)
(0.714321 0.222854 -1.79706e-19)
(0.732312 0.210448 4.00677e-19)
(0.294069 0.435366 -3.84669e-19)
(0.340199 0.435163 -1.67808e-19)
(0.381427 0.422423 -7.06493e-20)
(0.418916 0.403405 -5.58856e-19)
(0.453544 0.382028 -4.28542e-19)
(0.485893 0.360429 5.73741e-19)
(0.516319 0.339597 3.2175e-19)
(0.545035 0.319894 -2.54297e-19)
(0.572181 0.301393 -2.96267e-19)
(0.597862 0.284058 3.24675e-19)
(0.622166 0.267818 -1.84934e-19)
(0.645174 0.252602 2.69108e-19)
(0.666934 0.238349 1.30747e-19)
(0.687551 0.224992 5.12785e-19)
(0.707361 0.212366 1.03095e-19)
(0.725787 0.200529 -4.7344e-19)
(0.278934 0.414554 -7.8497e-20)
(0.325178 0.414092 -2.23778e-19)
(0.366947 0.401771 1.98216e-19)
(0.405186 0.383547 7.42072e-20)
(0.44064 0.363131 -2.21942e-19)
(0.473813 0.342537 1.49676e-19)
(0.505028 0.322692 -4.01897e-19)
(0.534485 0.303931 -9.06119e-20)
(0.562322 0.286319 3.74191e-19)
(0.588645 0.269819 1.33996e-19)
(0.613547 0.254365 2.13267e-19)
(0.637111 0.239888 -4.07083e-19)
(0.65939 0.226328 -1.5847e-19)
(0.680493 0.213624 -5.44665e-20)
(0.700727 0.201628 7.50681e-20)
(0.719574 0.190375 4.33895e-19)
(0.264508 0.393048 -1.75114e-19)
(0.310876 0.392371 3.87833e-19)
(0.353171 0.380522 6.19833e-19)
(0.392132 0.363142 1.78067e-19)
(0.428374 0.343732 2.44907e-19)
(0.462334 0.324183 -4.1352e-21)
(0.4943 0.30536 1.18752e-19)
(0.524463 0.287572 4.18709e-19)
(0.552957 0.270878 -6.22812e-20)
(0.579892 0.25524 -7.63092e-19)
(0.605362 0.240597 6.48748e-21)
(0.629455 0.22688 4.39453e-20)
(0.652229 0.214035 4.08245e-20)
(0.673793 0.202002 -2.54101e-19)
(0.694431 0.190651 -2.37848e-19)
(0.713679 0.179998 -4.65877e-19)
(0.200258 0.353672 -1.17562e-19)
(0.250824 0.370881 2.33282e-19)
(0.297323 0.370033 2.30665e-19)
(0.340126 0.358706 -2.31141e-19)
(0.379777 0.342218 2.7176e-20)
(0.416769 0.323857 -1.52676e-19)
(0.451474 0.305391 3.79293e-20)
(0.484153 0.287623 -4.60766e-21)
(0.514984 0.270838 -1.87584e-19)
(0.544101 0.255089 -8.52875e-20)
(0.571615 0.240339 5.0661e-19)
(0.597624 0.226528 -3.82436e-19)
(0.622218 0.213593 2.58944e-19)
(0.645461 0.201482 1.0588e-19)
(0.667461 0.190139 -2.46394e-20)
(0.688481 0.179449 7.55152e-21)
(0.708111 0.169409 2.56355e-19)
(0.187831 0.332157 3.24529e-19)
(0.237911 0.34809 -1.80356e-19)
(0.284546 0.347113 -3.19199e-19)
(0.327837 0.336356 -1.95135e-19)
(0.368142 0.320805 -3.80922e-19)
(0.405843 0.303533 3.13772e-19)
(0.441253 0.286184 -2.59466e-19)
(0.474603 0.269502 5.59508e-20)
(0.506064 0.253749 3.95562e-20)
(0.535769 0.23897 -1.73738e-19)
(0.563828 0.225131 2.03881e-19)
(0.590345 0.212175 3.10903e-19)
(0.615411 0.200043 -2.7793e-19)
(0.639095 0.188685 -3.21045e-19)
(0.661507 0.178048 6.19481e-19)
(0.682886 0.168032 -5.6266e-19)
(0.702879 0.15862 2.07415e-19)
(0.176162 0.310038 -2.70688e-19)
(0.2258 0.324715 5.79434e-20)
(0.272572 0.323647 1.26753e-19)
(0.316326 0.313504 -4.44674e-19)
(0.357249 0.298932 7.31279e-20)
(0.395617 0.282786 -3.05817e-19)
(0.431688 0.266588 2.61843e-19)
(0.465668 0.251021 6.31864e-20)
(0.497719 0.236326 -2.88983e-19)
(0.527973 0.222543 -6.62534e-20)
(0.556544 0.209637 1.58235e-19)
(0.583536 0.197556 7.52409e-20)
(0.609044 0.186246 -2.24326e-20)
(0.633143 0.175657 1.87679e-20)
(0.65594 0.165743 -5.44142e-19)
(0.677654 0.156414 3.91445e-19)
(0.697989 0.147642 3.66264e-19)
(0.165279 0.287357 2.46519e-19)
(0.214516 0.300792 1.69256e-19)
(0.261424 0.299671 3.22613e-19)
(0.305616 0.290183 4.53902e-20)
(0.347117 0.27663 3.16309e-20)
(0.386108 0.261645 -2.29922e-21)
(0.422794 0.246628 -3.34981e-19)
(0.457361 0.232204 1.7711e-19)
(0.489961 0.218592 -2.87657e-19)
(0.520727 0.205826 1.91252e-19)
(0.549774 0.193875 -3.10338e-19)
(0.577209 0.182689 -1.84389e-19)
(0.603129 0.172216 3.75946e-19)
(0.627613 0.162413 3.38323e-20)
(0.650768 0.153237 8.60913e-20)
(0.672794 0.144608 3.47825e-20)
(0.693447 0.136489 -4.04046e-19)
(0.15521 0.264152 -1.65118e-19)
(0.204084 0.276363 1.04575e-19)
(0.251125 0.275222 -2.37468e-19)
(0.295726 0.266428 1.8198e-19)
(0.337765 0.25393 2.62573e-20)
(0.377332 0.240139 1.55713e-19)
(0.414588 0.226331 -5.46391e-21)
(0.449696 0.213076 -1.55474e-19)
(0.482804 0.200569 1.55363e-19)
(0.514043 0.188842 -4.02486e-19)
(0.54353 0.177864 5.67074e-19)
(0.571373 0.16759 2.1905e-19)
(0.597673 0.157973 -4.63068e-19)
(0.622513 0.148971 4.69853e-20)
(0.645999 0.140546 3.07646e-19)
(0.668312 0.132628 -4.39818e-19)
(0.689261 0.125174 -2.49477e-21)
(0.145977 0.240468 1.0822e-19)
(0.194526 0.251468 -8.95386e-20)
(0.241696 0.250339 -4.46215e-20)
(0.286676 0.242274 -9.11172e-20)
(0.329209 0.230865 -1.16774e-19)
(0.369305 0.218297 -3.27802e-19)
(0.407083 0.205724 1.44518e-19)
(0.442687 0.19366 -2.02888e-19)
(0.476259 0.182281 3.76772e-19)
(0.507931 0.171611 2.56893e-19)
(0.53782 0.161625 -4.56664e-19)
(0.566037 0.152279 -4.63575e-19)
(0.592685 0.143532 2.23595e-19)
(0.617851 0.135345 -2.51378e-19)
(0.641639 0.127683 -3.14046e-20)
(0.664216 0.120488 2.51601e-19)
(0.685437 0.113709 -4.7033e-19)
(0.137604 0.216345 -1.73827e-19)
(0.185865 0.22615 -2.50872e-19)
(0.233155 0.225061 3.70187e-19)
(0.278481 0.217758 5.18222e-20)
(0.321464 0.207467 1.88155e-19)
(0.362041 0.196149 1.9992e-19)
(0.400291 0.184835 -4.76728e-20)
(0.436345 0.173984 2.84599e-19)
(0.470338 0.16375 -1.69191e-19)
(0.502401 0.154156 -2.21771e-19)
(0.532655 0.145177 3.5668e-19)
(0.561211 0.136775 4.09803e-19)
(0.588174 0.128911 -4.74192e-19)
(0.613634 0.121552 6.59175e-20)
(0.637697 0.114665 -4.41119e-20)
(0.660511 0.108201 -1.57032e-19)
(0.681979 0.102109 6.30181e-20)
(0.13011 0.191829 1.90983e-19)
(0.178118 0.20045 1.38906e-19)
(0.22552 0.199427 -1.99932e-19)
(0.271159 0.192914 9.44265e-20)
(0.314545 0.183769 1.07378e-19)
(0.355552 0.173725 -3.40702e-19)
(0.394225 0.163693 1.68301e-19)
(0.43068 0.154073 1.90878e-20)
(0.46505 0.145002 1.64498e-19)
(0.497463 0.136499 -2.14671e-19)
(0.528042 0.128542 2.70344e-20)
(0.556901 0.121097 -1.72065e-20)
(0.584146 0.114129 2.42414e-20)
(0.60987 0.107608 1.48556e-19)
(0.634177 0.101508 2.69419e-20)
(0.657204 0.0957836 -3.352e-20)
(0.678893 0.0903856 3.93635e-21)
(0.123513 0.166963 -2.87526e-20)
(0.171302 0.174411 1.70186e-19)
(0.218806 0.173478 -2.16434e-19)
(0.264721 0.167781 5.42909e-20)
(0.308464 0.159807 -1.94024e-19)
(0.349849 0.151058 5.91174e-22)
(0.388894 0.142325 -3.16164e-19)
(0.425703 0.133954 -2.32012e-19)
(0.460403 0.126061 1.25743e-19)
(0.493124 0.118664 3.35209e-20)
(0.52399 0.111741 -8.94847e-20)
(0.553115 0.105264 1.20864e-19)
(0.580607 0.0992034 8.92214e-20)
(0.606563 0.0935315 1.50812e-19)
(0.631085 0.0882255 7.4797e-20)
(0.654299 0.0832492 1.73595e-19)
(0.676182 0.0785541 7.0959e-20)
(0.0724867 0.124466 2.77081e-19)
(0.11783 0.141793 -1.08898e-19)
(0.165433 0.148079 -5.02771e-20)
(0.213026 0.147255 -9.62022e-20)
(0.259181 0.142396 9.2804e-21)
(0.303231 0.135613 6.89697e-20)
(0.344942 0.128179 2.15413e-19)
(0.384308 0.120761 2.66207e-19)
(0.421421 0.113653 1.04334e-19)
(0.456406 0.106952 -2.52571e-20)
(0.489392 0.100672 -5.51538e-20)
(0.520504 0.0947952 -1.40002e-19)
(0.549858 0.0892974 1.70595e-20)
(0.577564 0.0841529 -1.68599e-20)
(0.603719 0.0793386 -1.23285e-19)
(0.628426 0.0748353 -1.30523e-20)
(0.6518 0.0706134 -2.51101e-19)
(0.673852 0.0666284 4.98766e-21)
(0.0682528 0.102173 -1.13367e-19)
(0.113073 0.116365 -6.01231e-21)
(0.160523 0.121496 -1.2944e-20)
(0.208192 0.120798 6.43522e-20)
(0.254548 0.116797 -2.02748e-19)
(0.298856 0.111223 -8.00897e-20)
(0.34084 0.105119 -1.37809e-19)
(0.380474 0.0990308 5.59105e-21)
(0.417841 0.0931979 4.67809e-20)
(0.453064 0.0877001 1.05406e-19)
(0.486273 0.0825477 -2.09586e-20)
(0.517591 0.0777266 9.40934e-20)
(0.547136 0.0732164 -4.63936e-20)
(0.57502 0.0689962 -1.69712e-19)
(0.601342 0.0650471 -1.79636e-20)
(0.626204 0.0613533 -3.9927e-20)
(0.649712 0.0578914 1.91712e-19)
(0.671905 0.0546225 -3.27323e-20)
(0.0648523 0.0796767 -2.65072e-20)
(0.109254 0.090725 5.85018e-20)
(0.156581 0.094708 4.59396e-20)
(0.204313 0.0941508 1.32471e-20)
(0.250832 0.0910226 1.56458e-19)
(0.295346 0.0866718 -4.25632e-20)
(0.33755 0.0819108 3.81936e-20)
(0.377399 0.0771639 4.58502e-20)
(0.414971 0.0726167 3.2049e-20)
(0.450385 0.0683311 -8.8046e-20)
(0.483771 0.0643149 1.16795e-19)
(0.515254 0.060557 8.88078e-20)
(0.544954 0.0570417 -3.51777e-20)
(0.57298 0.0537525 1.44665e-19)
(0.599437 0.0506746 2.29009e-19)
(0.624422 0.047796 -3.38843e-20)
(0.648038 0.0450986 8.69489e-20)
(0.670344 0.0425509 -3.95662e-20)
(0.0622941 0.0570228 1.79717e-20)
(0.106381 0.0649193 -9.25746e-20)
(0.153618 0.0677601 4.807e-20)
(0.201397 0.0673542 1.42231e-19)
(0.248038 0.0651111 -1.15126e-19)
(0.292709 0.0619953 -6.72389e-21)
(0.335078 0.0585875 3.00606e-20)
(0.375089 0.0551906 6.76635e-20)
(0.412814 0.051937 6.34427e-21)
(0.448371 0.0488707 -2.20618e-20)
(0.481891 0.0459973 -3.61903e-20)
(0.513499 0.0433088 -3.86451e-20)
(0.543314 0.0407939 1.49164e-20)
(0.571448 0.0384409 1.50985e-20)
(0.598005 0.036239 -7.7064e-20)
(0.623084 0.0341798 -7.62545e-21)
(0.64678 0.0322506 -1.87515e-19)
(0.669172 0.0304281 7.89179e-20)
(0.0605849 0.0342558 -8.52882e-21)
(0.104463 0.0389952 3.92261e-20)
(0.151639 0.0406979 -2.30534e-20)
(0.19945 0.0404511 -7.28598e-20)
(0.246173 0.0391018 3.55335e-20)
(0.290948 0.0372291 -8.16133e-22)
(0.333427 0.0351816 -1.04047e-19)
(0.373546 0.033141 6.36265e-20)
(0.411374 0.0311866 -4.32501e-20)
(0.447027 0.0293449 3.46363e-20)
(0.480636 0.0276191 -2.86855e-20)
(0.512327 0.0260044 1.52502e-20)
(0.542219 0.0244939 2.79044e-20)
(0.570425 0.0230807 -8.24717e-20)
(0.597049 0.0217583 7.85777e-21)
(0.62219 0.0205216 -3.78535e-21)
(0.64594 0.0193631 4.75659e-20)
(0.668389 0.0182685 1.07726e-21)
(0.0597293 0.0114208 5.88926e-21)
(0.103502 0.013 7.39188e-21)
(0.150649 0.0135668 -1.47177e-20)
(0.198476 0.0134839 2.84377e-20)
(0.24524 0.0130335 -1.12946e-20)
(0.290067 0.0124089 3.54404e-20)
(0.332601 0.011726 3.27243e-20)
(0.372774 0.0110456 -4.10556e-20)
(0.410653 0.0103939 -1.52663e-20)
(0.446355 0.00977985 2.09347e-20)
(0.480008 0.00920443 -1.48025e-20)
(0.51174 0.00866606 -1.91207e-20)
(0.541671 0.00816246 1.67008e-21)
(0.569913 0.00769129 1.99696e-20)
(0.596571 0.00725041 3.93683e-20)
(0.621743 0.00683811 2.96239e-21)
(0.64552 0.00645192 4.44566e-21)
(0.667997 0.006087 1.97788e-20)
(0.0597295 -0.0114368 4.68271e-21)
(0.103502 -0.0130188 8.74798e-21)
(0.150649 -0.0135871 -7.40994e-21)
(0.198476 -0.0135047 2.68966e-20)
(0.24524 -0.0130543 -1.49875e-20)
(0.290067 -0.0124293 3.9111e-20)
(0.332601 -0.011746 2.41148e-20)
(0.372775 -0.011065 -3.2536e-20)
(0.410653 -0.0104129 -1.19942e-20)
(0.446355 -0.00979828 1.49733e-20)
(0.480008 -0.00922235 -1.25376e-20)
(0.511741 -0.0086835 -2.45877e-20)
(0.541671 -0.00817944 6.51691e-21)
(0.569913 -0.00770782 1.77545e-20)
(0.596571 -0.0072665 4.04069e-20)
(0.621743 -0.00685379 3.49078e-21)
(0.64552 -0.00646718 3.09828e-21)
(0.667998 -0.00610187 2.1068e-20)
(0.0605854 -0.0342717 3.18288e-20)
(0.104463 -0.039014 2.45371e-20)
(0.15164 -0.0407181 -1.99373e-20)
(0.199451 -0.0404719 -1.19172e-19)
(0.246174 -0.0391225 7.24873e-20)
(0.290949 -0.0372495 -1.20525e-20)
(0.333428 -0.0352015 -5.68828e-20)
(0.373547 -0.0331604 2.03685e-23)
(0.411374 -0.0312056 -3.17837e-20)
(0.447028 -0.0293633 4.16696e-20)
(0.480636 -0.027637 -4.21032e-20)
(0.512327 -0.0260218 3.56907e-20)
(0.542219 -0.0245109 1.35209e-20)
(0.570425 -0.0230972 -6.54926e-20)
(0.597049 -0.0217744 1.98011e-20)
(0.622191 -0.0205373 -3.22661e-21)
(0.64594 -0.0193784 3.5144e-20)
(0.668389 -0.0182834 3.64049e-21)
(0.0622948 -0.0570387 -4.81316e-20)
(0.106382 -0.064938 -7.52988e-20)
(0.153619 -0.0677804 8.67807e-20)
(0.201398 -0.067375 1.3326e-19)
(0.248039 -0.0651319 -1.19571e-19)
(0.29271 -0.0620157 3.17081e-20)
(0.335079 -0.0586074 1.54948e-20)
(0.37509 -0.05521 7.76458e-20)
(0.412815 -0.0519559 -2.10197e-20)
(0.448372 -0.0488891 -7.29577e-20)
(0.481892 -0.0460152 1.49846e-20)
(0.513499 -0.0433263 -5.66665e-20)
(0.543314 -0.0408109 4.54099e-20)
(0.571449 -0.0384574 1.30311e-20)
(0.598005 -0.0362551 -1.02357e-19)
(0.623084 -0.0341955 6.13807e-21)
(0.64678 -0.0322659 -1.50978e-19)
(0.669172 -0.0304429 3.42373e-20)
(0.0648533 -0.0796926 2.43477e-20)
(0.109255 -0.0907437 3.30254e-20)
(0.156583 -0.0947282 -6.09323e-20)
(0.204314 -0.0941715 1.13919e-20)
(0.250833 -0.0910433 1.99156e-19)
(0.295348 -0.0866922 2.04122e-20)
(0.337551 -0.0819308 4.15632e-20)
(0.377401 -0.0771833 5.79076e-21)
(0.414972 -0.0726356 7.0108e-20)
(0.450386 -0.0683495 -7.80498e-20)
(0.483772 -0.0643327 1.11259e-19)
(0.515255 -0.0605744 3.31188e-21)
(0.544955 -0.0570586 -2.83613e-20)
(0.572981 -0.053769 2.17386e-19)
(0.599438 -0.0506907 1.6992e-19)
(0.624423 -0.0478116 -8.86275e-20)
(0.648039 -0.0451138 1.17566e-19)
(0.670345 -0.0425657 -2.65319e-21)
(0.0682541 -0.102189 -1.71231e-19)
(0.113074 -0.116384 7.53673e-21)
(0.160524 -0.121516 -3.08931e-20)
(0.208194 -0.120819 -4.98703e-21)
(0.25455 -0.116818 -1.01134e-19)
(0.298857 -0.111243 -1.17493e-19)
(0.340842 -0.105139 -4.91568e-20)
(0.380476 -0.0990502 -1.69811e-19)
(0.417843 -0.0932168 1.90759e-19)
(0.453066 -0.0877185 3.93184e-20)
(0.486274 -0.0825655 -7.99657e-20)
(0.517592 -0.077744 1.36737e-19)
(0.547138 -0.0732333 -5.97786e-20)
(0.575021 -0.0690127 -1.36176e-19)
(0.601344 -0.0650631 -3.22198e-20)
(0.626205 -0.061369 -4.3337e-20)
(0.649713 -0.0579066 6.96334e-20)
(0.671906 -0.0546373 -5.30217e-21)
(0.0724883 -0.124482 1.07349e-20)
(0.117832 -0.141812 -2.6702e-20)
(0.165435 -0.148099 -7.51449e-20)
(0.213028 -0.147275 -3.48148e-20)
(0.259183 -0.142417 -6.26757e-20)
(0.303233 -0.135633 4.41508e-20)
(0.344944 -0.128199 2.62932e-19)
(0.38431 -0.12078 2.29404e-19)
(0.421422 -0.113672 1.44734e-19)
(0.456407 -0.10697 -5.40998e-20)
(0.489394 -0.10069 3.02408e-20)
(0.520506 -0.0948126 -2.23802e-19)
(0.54986 -0.0893143 7.80526e-20)
(0.577565 -0.0841693 -6.20971e-20)
(0.603721 -0.0793546 -8.81466e-20)
(0.628428 -0.0748509 4.72451e-20)
(0.651801 -0.0706286 -4.03303e-19)
(0.673854 -0.0666432 1.46275e-19)
(0.123516 -0.166982 5.43048e-20)
(0.171305 -0.174431 -2.37752e-20)
(0.218809 -0.173499 -3.61726e-20)
(0.264724 -0.167802 -1.19447e-19)
(0.308466 -0.159827 -2.52962e-20)
(0.349851 -0.151078 -1.08757e-20)
(0.388896 -0.142344 -4.11009e-19)
(0.425705 -0.133972 -3.01006e-19)
(0.460405 -0.126079 1.76325e-19)
(0.493126 -0.118681 2.58016e-20)
(0.523992 -0.111758 6.66863e-20)
(0.553117 -0.105281 -6.40881e-20)
(0.580609 -0.0992199 3.28156e-19)
(0.606565 -0.0935474 6.46422e-20)
(0.631087 -0.088241 9.64813e-20)
(0.6543 -0.0832644 2.27181e-19)
(0.676184 -0.0785689 -1.2171e-19)
(0.130113 -0.191847 7.0361e-20)
(0.178121 -0.20047 6.31256e-20)
(0.225523 -0.199448 -9.70757e-20)
(0.271161 -0.192935 1.67275e-19)
(0.314548 -0.18379 2.3691e-20)
(0.355554 -0.173745 -3.04769e-19)
(0.394227 -0.163712 1.92116e-19)
(0.430682 -0.154092 7.694e-20)
(0.465052 -0.14502 -8.95447e-20)
(0.497465 -0.136517 2.40418e-20)
(0.528044 -0.128559 1.12996e-20)
(0.556903 -0.121114 -9.26025e-20)
(0.584148 -0.114146 2.36562e-19)
(0.609872 -0.107624 -8.32299e-20)
(0.634179 -0.101523 6.04195e-20)
(0.657206 -0.0957987 1.29504e-19)
(0.678894 -0.0904003 -4.78825e-20)
(0.137607 -0.216364 -9.62664e-20)
(0.185868 -0.22617 -3.47416e-19)
(0.233158 -0.225081 2.3415e-19)
(0.278484 -0.217778 1.12686e-19)
(0.321467 -0.207487 1.93602e-19)
(0.362044 -0.196168 2.09034e-19)
(0.400294 -0.184855 1.33272e-19)
(0.436347 -0.174003 1.76109e-19)
(0.470341 -0.163768 -3.17515e-19)
(0.502404 -0.154174 3.53889e-20)
(0.532657 -0.145194 6.96314e-20)
(0.561213 -0.136792 3.59474e-19)
(0.588176 -0.128928 -1.96308e-19)
(0.613637 -0.121568 -4.93794e-20)
(0.637699 -0.114681 -1.1464e-19)
(0.660513 -0.108216 -7.50337e-20)
(0.681981 -0.102123 1.95913e-19)
(0.14598 -0.240486 2.42207e-21)
(0.19453 -0.251488 -3.91061e-20)
(0.241699 -0.25036 1.52063e-19)
(0.286679 -0.242295 -3.28469e-19)
(0.329212 -0.230885 -1.87239e-20)
(0.369309 -0.218316 -2.93704e-19)
(0.407086 -0.205743 1.66686e-19)
(0.44269 -0.193679 -2.67766e-19)
(0.476262 -0.182299 2.58608e-19)
(0.507934 -0.171629 2.30272e-19)
(0.537823 -0.161642 -1.88934e-19)
(0.56604 -0.152296 -6.55674e-19)
(0.592688 -0.143548 3.51356e-19)
(0.617853 -0.135361 -2.83258e-19)
(0.641642 -0.127699 -6.22229e-20)
(0.664218 -0.120503 2.30986e-19)
(0.685439 -0.113724 -1.89673e-19)
(0.155213 -0.264171 -1.46047e-19)
(0.204087 -0.276383 1.8376e-19)
(0.251129 -0.275243 -3.50911e-19)
(0.29573 -0.266448 6.47758e-20)
(0.337769 -0.25395 -7.18432e-21)
(0.377336 -0.240158 4.03995e-19)
(0.414591 -0.22635 -2.51577e-19)
(0.449699 -0.213094 -5.37763e-20)
(0.482807 -0.200587 7.02684e-20)
(0.514046 -0.188859 -8.85853e-20)
(0.543533 -0.177881 3.44035e-19)
(0.571376 -0.167607 1.90558e-19)
(0.597676 -0.157989 -3.84977e-19)
(0.622515 -0.148987 2.09274e-19)
(0.646001 -0.140561 2.89084e-19)
(0.668315 -0.132643 -5.29213e-19)
(0.689264 -0.125189 1.78124e-21)
(0.165283 -0.287375 1.4431e-19)
(0.21452 -0.300812 1.99993e-19)
(0.261428 -0.299691 1.14353e-19)
(0.30562 -0.290203 4.66776e-19)
(0.347121 -0.27665 -5.89925e-20)
(0.386112 -0.261665 1.91209e-19)
(0.422798 -0.246647 -6.67774e-19)
(0.457364 -0.232223 3.81605e-19)
(0.489965 -0.21861 -2.35153e-19)
(0.520731 -0.205844 6.91909e-20)
(0.549778 -0.193892 -3.72733e-19)
(0.577212 -0.182705 -2.96723e-20)
(0.603132 -0.172233 3.02617e-19)
(0.627616 -0.162429 5.10297e-20)
(0.650771 -0.153252 -1.46218e-20)
(0.672797 -0.144623 2.48084e-20)
(0.69345 -0.136504 -3.39893e-19)
(0.176166 -0.310056 -2.02025e-19)
(0.225804 -0.324734 1.68648e-20)
(0.272577 -0.323667 1.80821e-19)
(0.31633 -0.313524 -4.06499e-19)
(0.357253 -0.298952 4.30771e-20)
(0.395621 -0.282806 -4.78944e-19)
(0.431692 -0.266606 5.30108e-19)
(0.465672 -0.25104 -1.39116e-19)
(0.497723 -0.236344 -1.58184e-19)
(0.527977 -0.22256 4.56643e-21)
(0.556548 -0.209654 1.88869e-21)
(0.58354 -0.197573 2.82366e-19)
(0.609048 -0.186262 -4.10197e-20)
(0.633146 -0.175672 -3.60491e-19)
(0.655943 -0.165758 -4.48495e-19)
(0.677657 -0.156429 5.23374e-19)
(0.697992 -0.147657 3.30529e-19)
(0.187835 -0.332175 2.34587e-19)
(0.237916 -0.34811 -3.62714e-19)
(0.284551 -0.347133 -3.44214e-19)
(0.327841 -0.336376 1.37342e-19)
(0.368147 -0.320825 -5.76225e-19)
(0.405848 -0.303552 5.78843e-19)
(0.441258 -0.286203 -2.52783e-19)
(0.474608 -0.26952 -2.55335e-19)
(0.506069 -0.253767 2.24456e-20)
(0.535773 -0.238988 -8.91426e-22)
(0.563832 -0.225148 -3.22528e-20)
(0.590349 -0.212192 2.17702e-19)
(0.615414 -0.200059 -2.0771e-19)
(0.639099 -0.1887 1.07103e-19)
(0.661511 -0.178064 2.32965e-19)
(0.682889 -0.168047 -2.92963e-19)
(0.702882 -0.158634 -6.02021e-20)
(0.200263 -0.35369 -3.32363e-20)
(0.250829 -0.3709 2.56763e-19)
(0.297328 -0.370053 2.30461e-19)
(0.340131 -0.358726 -3.6359e-19)
(0.379782 -0.342238 1.94812e-19)
(0.416773 -0.323876 -1.50391e-19)
(0.451479 -0.30541 -1.09125e-20)
(0.484157 -0.287641 3.83466e-20)
(0.514988 -0.270856 -9.19563e-20)
(0.544106 -0.255106 1.82444e-19)
(0.571619 -0.240355 -9.88674e-20)
(0.597628 -0.226544 -2.96077e-19)
(0.622222 -0.213609 4.2271e-19)
(0.645464 -0.201498 2.63246e-19)
(0.667465 -0.190155 -3.3838e-19)
(0.688484 -0.179463 1.96564e-19)
(0.708115 -0.169423 2.88597e-19)
(0.264513 -0.393067 4.99822e-20)
(0.310882 -0.39239 1.84417e-19)
(0.353176 -0.380542 3.63214e-19)
(0.392138 -0.363161 2.73861e-19)
(0.428379 -0.343751 5.3014e-19)