/*--------------------------------*- C++ -*----------------------------------*\
  =========                 |
  \\      /  F ield         | OpenFOAM: The Open Source CFD Toolbox
   \\    /   O peration     | Website:  https://openfoam.org
    \\  /    A nd           | Version:  7
     \\/     M anipulation  |
\*---------------------------------------------------------------------------*/
FoamFile
{
    version     2.0;
    format      ascii;
    class       surfaceScalarField;
    location    "10";
    object      phi;
}
// * * * * * * * * * * * * * * * * * * * * * * * * * * * * * * * * * * * * * //

dimensions      [0 3 -1 0 0 0 0];

internalField   nonuniform List<scalar> 
16712
(
-1.28134e-06
1.28194e-06
-6.0817e-10
-4.77919e-06
3.49949e-06
-1.63609e-09
-1.02963e-05
5.51967e-06
-2.54387e-09
-1.76604e-05
7.36737e-06
-3.3297e-09
-2.67217e-05
9.06535e-06
-3.98922e-09
-3.73534e-05
1.06362e-05
-4.52569e-09
-4.94509e-05
1.21025e-05
-4.94764e-09
-6.29335e-05
1.34879e-05
-5.26897e-09
-7.77458e-05
1.48177e-05
-5.50486e-09
-9.386e-05
1.61199e-05
-5.67013e-09
-0.000111279
1.74251e-05
-5.77809e-09
-0.00013004
1.87669e-05
-5.83802e-09
-0.000150217
2.01826e-05
-5.85535e-09
-0.000171924
2.17127e-05
-5.83104e-09
-0.000195319
2.34012e-05
-5.76067e-09
-0.000220609
2.52948e-05
-5.63668e-09
-0.000248046
2.74427e-05
-5.44775e-09
-0.000277935
2.98944e-05
-5.17887e-09
-0.000310622
3.26915e-05
-4.81436e-09
3.59035e-05
-4.33383e-09
-0.000346521
-1.27266e-06
2.5546e-06
-4.74827e-06
6.97509e-06
-1.02315e-05
1.1003e-05
-1.75514e-05
1.46872e-05
-2.65589e-05
1.80728e-05
-3.7127e-05
2.12044e-05
-4.91509e-05
2.41264e-05
-6.25489e-05
2.68858e-05
-7.7264e-05
2.95328e-05
-9.32667e-05
3.21227e-05
-0.000110558
3.4716e-05
-0.00012917
3.73798e-05
-0.000149176
4.01878e-05
-0.000170684
4.32207e-05
-0.000193848
4.65659e-05
-0.00021887
5.03165e-05
-0.000245998
5.45703e-05
-0.000275529
5.94261e-05
-0.000307804
6.49662e-05
7.13274e-05
-0.000343228
-1.25546e-06
3.81006e-06
-4.68693e-06
1.04066e-05
-1.0103e-05
1.64191e-05
-1.73352e-05
2.19193e-05
-2.62356e-05
2.69732e-05
-3.66775e-05
3.16463e-05
-4.85551e-05
3.6004e-05
-6.17848e-05
4.01155e-05
-7.63068e-05
4.40549e-05
-9.20878e-05
4.79037e-05
-0.000109123
5.17516e-05
-0.000127442
5.56979e-05
-0.000147106
5.98519e-05
-0.000168219
6.43334e-05
-0.000190925
6.92722e-05
-0.000215415
7.48068e-05
-0.000241928
8.10829e-05
-0.000270749
8.82475e-05
-0.000302206
9.64227e-05
0.000105808
-0.000336687
-1.23004e-06
5.0401e-06
-4.59624e-06
1.37728e-05
-9.9129e-06
2.17357e-05
-1.7015e-05
2.90214e-05
-2.57567e-05
3.57149e-05
-3.60114e-05
4.19009e-05
-4.76719e-05
4.76645e-05
-6.06518e-05
5.30954e-05
-7.48872e-05
5.82903e-05
-9.0339e-05
6.33555e-05
-0.000106996
6.84083e-05
-0.000124876
7.35786e-05
-0.000144034
7.90098e-05
-0.00016456
8.48593e-05
-0.000186586
9.1298e-05
-0.000210287
9.85085e-05
-0.000235888
0.000106683
-0.000263656
0.000116016
-0.0002939
0.000126667
0.000138894
-0.000326986
-1.19685e-06
6.23695e-06
-4.47768e-06
1.70536e-05
-9.66414e-06
2.69222e-05
-1.65959e-05
3.59532e-05
-2.51294e-05
4.42485e-05
-3.51383e-05
5.19098e-05
-4.65136e-05
5.90399e-05
-5.91652e-05
6.5747e-05
-7.30239e-05
7.21489e-05
-8.80429e-05
7.83745e-05
-0.000104201
8.45668e-05
-0.000121507
9.08843e-05
-0.000139999
9.75023e-05
-0.000159754
0.000104614
-0.000180886
0.00011243
-0.000203552
0.000121174
-0.000227954
0.000131085
-0.00025434
0.000142403
-0.000282997
0.000155323
0.000170154
-0.000314257
-1.15646e-06
7.39342e-06
-4.33323e-06
2.02304e-05
-9.36073e-06
3.19497e-05
-1.60842e-05
4.26767e-05
-2.43629e-05
5.25271e-05
-3.40706e-05
6.16175e-05
-4.50962e-05
7.00655e-05
-5.73453e-05
7.79961e-05
-7.07415e-05
8.55451e-05
-8.52294e-05
9.28623e-05
-0.000100776
0.000100114
-0.000117376
0.000107484
-0.000135052
0.000115178
-0.000153861
0.000123423
-0.000173896
0.000132465
-0.000195292
0.00014257
-0.000218226
0.000154019
-0.000242921
0.000167098
-0.000269635
0.000182038
0.000199187
-0.000298668
-1.10958e-06
8.50299e-06
-4.16525e-06
2.3286e-05
-9.00743e-06
3.67919e-05
-1.54877e-05
4.91569e-05
-2.34684e-05
6.05079e-05
-3.28235e-05
7.09726e-05
-4.34394e-05
8.06814e-05
-5.52163e-05
8.9773e-05
-6.80702e-05
9.8399e-05
-8.19349e-05
0.000106727
-9.67646e-05
0.000114944
-0.000112537
0.000123256
-0.000129255
0.000131897
-0.000146954
0.000141122
-0.000165704
0.000151214
-0.000185611
0.000162477
-0.000206825
0.000175234
-0.000229541
0.000189813
-0.000253987
0.000206483
0.000225624
-0.000280424
-1.05699e-06
9.55998e-06
-3.97646e-06
2.62055e-05
-8.60976e-06
4.14252e-05
-1.48153e-05
5.53625e-05
-2.24589e-05
6.81514e-05
-3.14145e-05
7.99282e-05
-4.15656e-05
9.08324e-05
-5.28065e-05
0.000101014
-6.50445e-05
0.000110637
-7.82014e-05
0.000119884
-9.22163e-05
0.000128958
-0.000107048
0.000138088
-0.000122679
0.000147528
-0.000139119
0.000157562
-0.000156409
0.000168504
-0.000174628
0.000180695
-0.000193893
0.000194499
-0.000214366
0.000210287
-0.000236248
0.000228364
0.000249137
-0.00025976
-9.99578e-07
1.05596e-05
-3.76988e-06
2.89758e-05
-8.17383e-06
4.58291e-05
-1.40771e-05
6.12658e-05
-2.13489e-05
7.54232e-05
-2.98632e-05
8.84425e-05
-3.95002e-05
0.000100469
-5.01478e-05
0.000111662
-6.17035e-05
0.000122193
-7.40763e-05
0.000132257
-8.71886e-05
0.000142071
-0.000100979
0.000151879
-0.000115406
0.000161955
-0.000130452
0.000172608
-0.000146126
0.000184179
-0.000162476
0.000197044
-0.000179584
0.000211608
-0.000197582
0.000228285
-0.000216636
0.000247418
0.000269436
-0.000236935
-9.38301e-07
1.14979e-05
-3.54879e-06
3.15863e-05
-7.70627e-06
4.99866e-05
-1.32838e-05
6.68434e-05
-2.0154e-05
8.22934e-05
-2.81908e-05
9.64792e-05
-3.72706e-05
0.000109549
-4.72745e-05
0.000121666
-5.80897e-05
0.000133008
-6.9611e-05
0.000143778
-8.17432e-05
0.000154203
-9.44033e-05
0.000164539
-0.000107523
0.000175075
-0.000121056
0.00018614
-0.000134978
0.000198101
-0.000149301
0.000211367
-0.000164072
0.000226379
-0.000179388
0.000243601
-0.000195387
0.000263418
0.000286276
-0.000212227
-8.74157e-07
1.2372e-05
-3.31662e-06
3.40288e-05
-7.21407e-06
5.3884e-05
-1.24469e-05
7.20762e-05
-1.8891e-05
8.87375e-05
-2.64198e-05
0.000104008
-3.4906e-05
0.000118035
-4.42233e-05
0.000130983
-5.4248e-05
0.000143033
-6.48603e-05
0.00015439
-7.59461e-05
0.000165289
-8.73995e-05
0.000175992
-9.91252e-05
0.000186801
-0.000111044
0.000198058
-0.000123097
0.000210154
-0.000135257
0.000223527
-0.000147536
0.000238658
-0.000159996
0.00025606
-0.000172749
0.000276171
0.000299454
-0.000185927
-8.08172e-07
1.31802e-05
-3.07691e-06
3.62975e-05
-6.70443e-06
5.75115e-05
-1.15781e-05
7.69499e-05
-1.75769e-05
9.47363e-05
-2.45735e-05
0.000111005
-3.24366e-05
0.000125899
-4.10322e-05
0.000139578
-5.02252e-05
0.000152226
-5.98809e-05
0.000164046
-6.98658e-05
0.000175274
-8.00498e-05
0.000186176
-9.0309e-05
0.00019706
-0.00010053
0.00020828
-0.000110618
0.000220242
-0.000120506
0.000233414
-0.000130165
0.000248318
-0.000139625
0.00026552
-0.000148976
0.000285521
0.000308809
-0.000158331
-7.41379e-07
1.39216e-05
-2.83321e-06
3.83894e-05
-6.18461e-06
6.08629e-05
-1.06894e-05
8.14547e-05
-1.62292e-05
0.000100276
-2.26756e-05
0.000117451
-2.9893e-05
0.000133116
-3.77396e-05
0.000147425
-4.6069e-05
0.000160555
-5.47308e-05
0.000172708
-6.35718e-05
0.000184115
-7.24375e-05
0.000195042
-8.11741e-05
0.000205797
-8.96338e-05
0.000216739
-9.76821e-05
0.000228291
-0.00010521
0.000240942
-0.00011215
0.000255258
-0.000118497
0.000271867
-0.000124323
0.000291348
0.00031422
-0.000129734
-6.74792e-07
1.45964e-05
-2.58906e-06
4.03036e-05
-5.66182e-06
6.39357e-05
-9.79263e-06
8.55855e-05
-1.48651e-05
0.000105348
-2.07496e-05
0.000123336
-2.73058e-05
0.000139672
-3.43841e-05
0.000154503
-4.18265e-05
0.000167997
-4.94672e-05
0.000180349
-5.71333e-05
0.000191781
-6.46453e-05
0.000202554
-7.18193e-05
0.000212971
-7.84714e-05
0.000223391
-8.44267e-05
0.000234246
-8.95325e-05
0.000246048
-9.36792e-05
0.000259404
-9.68286e-05
0.000275016
-9.90422e-05
0.000293561
0.0003156
-0.000100423
-6.09388e-07
1.52057e-05
-2.34783e-06
4.20421e-05
-5.14299e-06
6.67309e-05
-8.89918e-06
8.93417e-05
-1.35014e-05
0.000109951
-1.88182e-05
0.000128652
-2.47046e-05
0.000145558
-3.10028e-05
0.000160802
-3.75436e-05
0.000174538
-4.4146e-05
0.000186951
-5.06174e-05
0.000198252
-5.67535e-05
0.00020869
-6.234e-05
0.000218557
-6.71565e-05
0.000228208
-7.09858e-05
0.000238075
-7.363e-05
0.000248692
-7.49352e-05
0.00026071
-7.48305e-05
0.000274911
-7.33717e-05
0.000292103
0.000312899
-7.06701e-05
-5.46088e-07
1.57518e-05
-2.11274e-06
4.36087e-05
-4.63472e-06
6.92528e-05
-8.01992e-06
9.27269e-05
-1.21539e-05
0.000114085
-1.69031e-05
0.000133402
-2.21173e-05
0.000150773
-2.76309e-05
0.000166315
-3.32636e-05
0.000180171
-3.88196e-05
0.000192507
-4.4087e-05
0.00020352
-4.88373e-05
0.00021344
-5.28258e-05
0.000222546
-5.57952e-05
0.000231177
-5.7485e-05
0.000239765
-5.76492e-05
0.000248856
-5.60877e-05
0.000259148
-5.26956e-05
0.000271519
-4.75347e-05
0.000286942
0.000306099
-4.07353e-05
-4.85736e-07
1.62376e-05
-1.88673e-06
4.50097e-05
-4.14304e-06
7.15092e-05
-7.16483e-06
9.57487e-05
-1.08373e-05
0.000117757
-1.5024e-05
0.000137588
-1.95697e-05
0.000155318
-2.43008e-05
0.000171046
-2.90262e-05
0.000184896
-3.35358e-05
0.000197017
-3.75995e-05
0.000207583
-4.09649e-05
0.000216806
-4.33576e-05
0.000224938
-4.44833e-05
0.000232303
-4.4037e-05
0.000239319
-4.17221e-05
0.000246542
-3.72875e-05
0.000254713
-3.05874e-05
0.000264819
-2.17077e-05
0.000278062
0.000295409
-1.10176e-05
-4.29083e-07
1.66667e-05
-1.67242e-06
4.6253e-05
-3.67337e-06
7.35101e-05
-6.34283e-06
9.84181e-05
-9.5646e-06
0.000120979
-1.31989e-05
0.000141223
-1.70847e-05
0.000159204
-2.10409e-05
0.000175003
-2.48661e-05
0.000188721
-2.83365e-05
0.000200487
-3.12043e-05
0.000210451
-3.31947e-05
0.000218796
-3.40043e-05
0.000225748
-3.3302e-05
0.000231601
-3.07374e-05
0.000236754
-2.59604e-05
0.000241765
-1.86636e-05
0.000247417
-8.64436e-06
0.0002548
4.15177e-06
0.000265266
0.00028066
1.89006e-05
-3.76772e-07
1.70434e-05
-1.47208e-06
4.73483e-05
-3.23034e-06
7.52684e-05
-5.56157e-06
0.000100749
-8.34697e-06
0.000123764
-1.14426e-05
0.000144318
-1.46816e-05
0.000162443
-1.78753e-05
0.000178196
-2.08121e-05
0.000191658
-2.32556e-05
0.000202931
-2.49414e-05
0.000212137
-2.55733e-05
0.000219428
-2.482e-05
0.000224995
-2.23145e-05
0.000229095
-1.766e-05
0.0002321
-1.04504e-05
0.000234555
-3.15259e-07
0.000237282
1.29902e-05
0.000241494
2.94151e-05
0.000248841
0.000261507
4.85688e-05
-3.29327e-07
1.73728e-05
-1.28752e-06
4.83065e-05
-2.81771e-06
7.67986e-05
-4.82721e-06
0.000102759
-7.19336e-06
0.00012613
-9.76721e-06
0.000146892
-1.23758e-05
0.000165052
-1.48225e-05
0.000180643
-1.68863e-05
0.000193722
-1.83186e-05
0.000204363
-1.88395e-05
0.000212658
-1.81328e-05
0.000218721
-1.58408e-05
0.000222703
-1.15613e-05
0.000224816
-4.85139e-06
0.00022539
4.75468e-06
0.000224949
1.76973e-05
0.000224339
3.42861e-05
0.000224906
5.45102e-05
0.000228617
0.00023816
7.7857e-05
-2.87139e-07
1.76599e-05
-1.12011e-06
4.91395e-05
-2.43828e-06
7.81167e-05
-4.14432e-06
0.000104465
-6.11033e-06
0.000128096
-8.18139e-06
0.000148963
-1.01777e-05
0.000167048
-1.1895e-05
0.00018236
-1.31025e-05
0.000194929
-1.35404e-05
0.000204801
-1.29142e-05
0.000212032
-1.08889e-05
0.000216696
-7.08188e-06
0.000218896
-1.05732e-06
0.000218791
7.67401e-06
0.000216658
1.96398e-05
0.000212983
3.53586e-05
0.00020862
5.52227e-05
0.000205041
7.92658e-05
0.000204574
0.000210554
0.000106872
-2.50463e-07
1.79104e-05
-9.70746e-07
4.98598e-05
-2.09382e-06
7.92398e-05
-3.51573e-06
0.000105887
-5.10179e-06
0.000129682
-6.69002e-06
0.000150551
-8.09316e-06
0.000168451
-9.09855e-06
0.000183366
-9.4662e-06
0.000195297
-8.92492e-06
0.000204259
-7.1666e-06
0.000210273
-3.83865e-06
0.000213368
1.46491e-06
0.000213592
9.21223e-06
0.000211044
1.99381e-05
0.000205932
3.4234e-05
0.000198687
5.27047e-05
0.00019015
7.58417e-05
0.000181904
0.000103747
0.000176669
0.000178579
0.000135722
-2.19409e-07
1.81298e-05
-8.39781e-07
5.04802e-05
-1.78503e-06
8.01851e-05
-2.94246e-06
0.000107044
-4.16891e-06
0.000130909
-5.29411e-06
0.000151677
-6.12235e-06
0.000169279
-6.43206e-06
0.000183675
-5.97346e-06
0.000194839
-4.46416e-06
0.00020275
-1.58265e-06
0.000207392
3.04043e-06
0.000208745
9.83317e-06
0.000206799
1.92944e-05
0.000201583
3.20031e-05
0.000193224
4.8616e-05
0.000182074
6.98304e-05
0.000168935
9.62556e-05
0.000155479
0.000128093
0.000144832
0.000142073
0.000164599
-1.93942e-07
1.83237e-05
-7.27062e-07
5.10133e-05
-1.5115e-06
8.09695e-05
-2.42361e-06
0.000107956
-3.31001e-06
0.000131795
-3.99062e-06
0.000152357
-4.26009e-06
0.000169549
-3.88695e-06
0.000183302
-2.61084e-06
0.000193562
-1.37585e-07
0.000200277
3.86796e-06
0.000203386
9.79174e-06
0.000202821
1.80831e-05
0.000198508
2.92702e-05
0.000190396
4.39746e-05
0.000178519
6.29177e-05
0.000163131
8.68946e-05
0.000144958
0.000116651
0.000125723
0.000152522
0.00010896
0.000100816
0.000193779
-1.73882e-07
1.84976e-05
-6.31909e-07
5.14713e-05
-1.27171e-06
8.16093e-05
-1.95643e-06
0.000108641
-2.52051e-06
0.000132359
-2.77241e-06
0.000152609
-2.4956e-06
0.000169272
-1.4473e-06
0.000182254
6.44789e-07
0.00019147
4.08783e-06
0.000196834
9.23168e-06
0.000198242
1.64795e-05
0.000195573
2.63019e-05
0.000188685
3.92553e-05
0.000177443
5.60019e-05
0.000161773
7.73261e-05
0.000141807
0.000104123
0.000118161
0.00013729
9.25563e-05
0.000177337
6.89128e-05
5.45315e-05
0.000223621
-1.58906e-07
1.86565e-05
-5.53132e-07
5.18655e-05
-1.06306e-06
8.21192e-05
-1.53629e-06
0.000109114
-1.79301e-06
0.000132616
-1.62829e-06
0.000152444
-8.12568e-07
0.000168456
9.10164e-07
0.000180531
3.8261e-06
0.000188554
8.25746e-06
0.000192402
1.45708e-05
0.000191929
2.31882e-05
0.000186956
3.46027e-05
0.000177271
4.93988e-05
0.000162646
6.82775e-05
0.000142894
9.20823e-05
0.000118002
0.000121807
8.84365e-05
0.000158511
5.58525e-05
0.000202916
2.45076e-05
2.89039e-06
0.000254557
-1.48556e-07
1.88051e-05
-4.89044e-07
5.2206e-05
-8.81895e-07
8.25121e-05
-1.15676e-06
0.000109389
-1.11736e-06
0.000132577
-5.432e-07
0.00015187
8.10593e-07
0.000167103
3.21568e-06
0.000178126
6.97482e-06
0.000184795
1.24282e-05
0.000186949
1.99623e-05
0.000184395
3.00211e-05
0.000176897
4.31226e-05
0.000164169
5.98802e-05
0.000145889
8.10323e-05
0.000121742
0.000107477
9.15574e-05
0.0001403
5.56138e-05
0.000180724
1.54283e-05
0.000229715
-2.44831e-05
-5.44789e-05
0.000287084
-1.42246e-07
1.89473e-05
-4.37499e-07
5.25013e-05
-7.23569e-07
8.27981e-05
-8.09727e-07
0.000109475
-4.80832e-07
0.000132248
5.01616e-07
0.000150888
2.40046e-06
0.000165204
5.50601e-06
0.000175021
1.0141e-05
0.00018016
1.66676e-05
0.000180422
2.54963e-05
0.000175566
3.70977e-05
0.000165296
5.20188e-05
0.000149248
7.09046e-05
0.000127003
9.45299e-05
9.81167e-05
0.000123841
6.22462e-05
0.000160004
1.94512e-05
0.000204396
-2.89643e-05
0.000258245
-7.83323e-05
-0.000117972
0.000321739
-1.39274e-07
1.90866e-05
-3.95922e-07
5.27579e-05
-5.82531e-07
8.29847e-05
-4.85503e-07
0.000109378
1.31688e-07
0.000131631
1.52826e-06
0.000149491
3.98811e-06
0.000162744
7.82378e-06
0.000171185
1.33822e-05
0.000174602
2.10523e-05
0.000172752
3.12742e-05
0.000165345
4.45511e-05
0.000152019
6.14646e-05
0.000132335
8.26957e-05
0.000105772
0.000109056
7.17561e-05
0.000141534
2.97682e-05
0.000181358
-2.03726e-05
0.000230038
-7.76444e-05
0.000289063
-0.000137357
-0.000187984
0.000359075
-1.38832e-07
1.92254e-05
-3.61363e-07
5.29805e-05
-4.52421e-07
8.30758e-05
-1.73025e-07
0.000109099
7.37385e-07
0.00013072
2.56179e-06
0.000147667
5.60859e-06
0.000159697
1.02166e-05
0.000166577
1.6762e-05
0.000168056
2.56661e-05
0.000163848
3.74056e-05
0.000153605
5.25234e-05
0.000136901
7.16432e-05
0.000113215
9.54882e-05
8.19269e-05
0.000124909
4.23353e-05
0.000160928
-6.25131e-06
0.000204816
-6.42601e-05
0.000258176
-0.000131005
0.000322736
-0.000201917
-0.000264875
0.000399627
-1.40027e-07
1.93654e-05
-3.30546e-07
5.3171e-05
-3.26187e-07
8.30714e-05
1.39954e-07
0.000108633
1.35529e-06
0.000129505
3.62979e-06
0.000145392
7.3002e-06
0.000156027
1.27364e-05
0.000161141
2.0349e-05
0.000160444
3.05987e-05
0.000153599
4.4006e-05
0.000140198
6.11622e-05
0.000119745
8.2742e-05
9.16353e-05
0.000109518
5.5151e-05
0.000142383
9.47026e-06
0.000182389
-4.62572e-05
0.000230821
-0.000112692
0.000289323
-0.000189507
0.000359817
-0.000272411
-0.000348931
0.000443873
-1.41892e-07
1.95073e-05
-2.99935e-07
5.3329e-05
-1.96212e-07
8.29677e-05
4.66647e-07
0.00010797
2.00586e-06
0.000127966
4.76182e-06
0.000142636
9.10383e-06
0.000151685
1.54378e-05
0.000154807
2.4215e-05
0.000151667
3.59426e-05
0.000141871
5.11932e-05
0.000124947
7.06159e-05
0.000100322
9.49455e-05
6.73057e-05
0.000125013
2.50837e-05
0.000161758
-2.72746e-05
0.000206255
-9.07546e-05
0.00025978
-0.000166217
0.000323948
-0.000253675
0.000400805
-0.000349268
-0.000440316
0.00049219
-1.43407e-07
1.96507e-05
-2.65793e-07
5.34514e-05
-5.44311e-08
8.27564e-05
8.21013e-07
0.000107094
2.71063e-06
0.000126076
5.98892e-06
0.000139358
1.10622e-05
0.000146611
1.83777e-05
0.000147491
2.84339e-05
0.00014161
4.17918e-05
0.000128513
5.90849e-05
0.000107654
8.10292e-05
7.83776e-05
0.00010843
3.99053e-05
0.000142184
-8.67034e-06
0.000183283
-6.83743e-05
0.000232822
-0.000140294
0.000292039
-0.000225434
0.000362441
-0.000324076
0.000446115
-0.000432942
-0.000539023
0.000544822
-1.4352e-07
1.97943e-05
-2.2426e-07
5.35321e-05
1.07424e-07
8.24247e-05
1.21746e-06
0.000105984
3.49185e-06
0.000123802
7.34301e-06
0.000135507
1.32189e-05
0.000140735
2.16137e-05
0.000139096
3.30798e-05
0.000130144
4.82393e-05
0.000113354
6.77951e-05
8.80982e-05
9.25389e-05
5.36338e-05
0.000123355
9.08934e-06
0.000161215
-4.65308e-05
0.000207169
-0.000114328
0.000262325
-0.000195449
0.00032786
-0.00029097
0.000405086
-0.000401302
0.000496045
-0.000523901
-0.000644822
0.000601844
-1.41159e-07
1.99354e-05
-1.71407e-07
5.35624e-05
2.97852e-07
8.19554e-05
1.67065e-06
0.000104612
4.37205e-06
0.0001211
8.85634e-06
0.000131023
1.56179e-05
0.000133974
2.52034e-05
0.000129511
3.82255e-05
0.000117122
5.53749e-05
9.62043e-05
7.74313e-05
6.60418e-05
0.00010527
2.57947e-05
0.000139862
-2.55027e-05
0.000182261
-8.8929e-05
0.000233573
-0.000165641
0.000294921
-0.000256797
0.000367402
-0.000363451
0.000452046
-0.000485946
0.000550762
-0.000622618
-0.000757201
0.000663142
-1.35255e-07
2.00707e-05
-1.03318e-07
5.35305e-05
5.25305e-07
8.13268e-05
2.19518e-06
0.000102942
5.3737e-06
0.000117922
1.05609e-05
0.000125835
1.83023e-05
0.000126233
2.92028e-05
0.00011861
4.39412e-05
0.000102384
6.32834e-05
7.68622e-05
8.80925e-05
4.12327e-05
0.000119333
-5.44637e-06
0.000158068
-6.42371e-05
0.000205432
-0.000136294
0.000262596
-0.000222804
0.000330686
-0.000324887
0.000410705
-0.00044347
0.000503344
-0.000578585
0.000610291
-0.000729565
-0.000875331
0.000728421
-1.24756e-07
2.01954e-05
-1.58416e-08
5.34215e-05
7.98073e-07
8.05129e-05
2.8054e-06
0.000100934
6.51876e-06
0.000114208
1.24879e-05
0.000119866
2.13141e-05
0.000117406
3.36656e-05
0.000106259
5.0293e-05
8.57564e-05
7.20426e-05
5.51126e-05
9.98655e-05
1.34097e-05
0.000134819
-4.04003e-05
0.000178057
-0.000107475
0.000230798
-0.000189034
0.000294268
-0.000286274
0.000369598
-0.000400218
0.000457684
-0.000531555
0.000558848
-0.000679749
0.000674462
-0.000845179
-0.000998172
0.000797303
-1.08732e-07
2.03042e-05
9.38118e-08
5.3219e-05
1.12407e-06
7.94826e-05
3.51512e-06
9.85434e-05
7.82839e-06
0.000109895
1.46672e-05
0.000113027
2.46929e-05
0.000107381
3.8642e-05
9.23098e-05
5.73413e-05
6.7057e-05
8.17215e-05
3.07324e-05
0.000112824
-1.76926e-05
0.000151798
-7.93741e-05
0.000199884
-0.000155561
0.000258376
-0.000247527
0.00032855
-0.000356447
0.00041154
-0.000483208
0.000508143
-0.000628158
0.000618346
-0.000789952
0.000742826
-0.00096966
-0.00112495
0.000869608
-8.61727e-08
2.03903e-05
2.30044e-07
5.29028e-05
1.51097e-06
7.82017e-05
4.33747e-06
9.57169e-05
9.32257e-06
0.00010491
1.71267e-05
0.000105223
2.84757e-05
9.60317e-05
4.41778e-05
7.66077e-05
6.514e-05
4.60949e-05
9.23788e-05
3.49359e-06
0.000127024
-5.23382e-05
0.000170313
-0.000122663
0.000223563
-0.000208811
0.000288125
-0.000312089
0.000365312
-0.000433634
0.000456267
-0.000574163
0.000561773
-0.000733664
0.000681751
-0.000909929
0.000815159
-0.00110307
-0.00125527
0.000945471
-5.62126e-08
2.04465e-05
3.95832e-07
5.24507e-05
1.96582e-06
7.66317e-05
5.28465e-06
9.2398e-05
1.10198e-05
9.91748e-05
1.98924e-05
9.63507e-05
3.26958e-05
8.32283e-05
5.03138e-05
5.89897e-05
7.37348e-05
2.26738e-05
0.000104061
-2.68326e-05
0.000142507
-9.07841e-05
0.000190384
-0.00017054
0.000249069
-0.000267496
0.000319945
-0.000382965
0.000404325
-0.000518014
0.000503348
-0.000673186
0.000617901
-0.000848218
0.000748614
-0.00104064
0.000893631
-0.00124809
-0.00138535
0.00102372
-1.82394e-08
2.04648e-05
5.93931e-07
5.18386e-05
2.49483e-06
7.47308e-05
6.36752e-06
8.85253e-05
1.29367e-05
9.26057e-05
2.2987e-05
8.63004e-05
3.73826e-05
6.88327e-05
5.70844e-05
3.92879e-05
8.31627e-05
-3.40452e-06
0.000116802
-6.04715e-05
0.000159291
-0.000133273
0.000212001
-0.000223251
0.000276338
-0.000331833
0.000353675
-0.000460302
0.000445266
-0.000609605
0.000552172
-0.000780091
0.00067525
-0.000971296
0.000815604
-0.001181
0.000975813
-0.00140829
-0.00160961
0.00120006
2.89001e-08
2.04359e-05
8.27459e-07
5.104e-05
3.10434e-06
7.24539e-05
7.59662e-06
8.40331e-05
1.50886e-05
8.51136e-05
2.64312e-05
7.49579e-05
4.25612e-05
5.27026e-05
6.45177e-05
1.73315e-05
9.34505e-05
-3.23374e-05
0.000130619
-9.76402e-05
0.000177375
-0.000180029
0.000235124
-0.000281
0.000305265
-0.000401973
0.000389103
-0.00054414
0.000487756
-0.000708258
0.000602067
-0.000894403
0.000732609
-0.00110184
0.000880342
-0.00132873
0.00104609
-0.00157405
-0.00181066
0.00124715
8.54023e-08
2.03505e-05
1.09852e-06
5.00269e-05
3.79918e-06
6.97533e-05
8.98035e-06
7.88519e-05
1.74881e-05
7.66058e-05
3.02416e-05
6.22044e-05
4.82515e-05
3.46927e-05
7.26339e-05
-7.05097e-06
0.000104614
-6.43177e-05
0.000145517
-0.000138543
0.000196737
-0.000231249
0.000259685
-0.000343948
0.000335708
-0.000477996
0.000425981
-0.000634413
0.00053139
-0.000813667
0.000652432
-0.00101545
0.000789146
-0.00123855
0.000941592
-0.00148118
0.00110838
-0.00174084
-0.00199905
0.00129677
1.51971e-07
2.01985e-05
1.40916e-06
4.87697e-05
4.58372e-06
6.65787e-05
1.05261e-05
7.29095e-05
2.01458e-05
6.69861e-05
3.44316e-05
4.79187e-05
5.4468e-05
1.46563e-05
8.14456e-05
-3.40286e-05
0.000116658
-9.95301e-05
0.000161481
-0.000183366
0.00021733
-0.000287098
0.000285585
-0.000412202
0.000367488
-0.0005599
0.000464018
-0.000730943
0.000575744
-0.000925393
0.000702707
-0.00114241
0.000844296
-0.00138014
0.000999549
-0.00163643
0.00116586
-0.00190715
-0.00217815
0.00134497
2.29031e-07
1.99695e-05
1.7611e-06
4.72376e-05
5.46162e-06
6.28782e-05
1.22398e-05
6.61314e-05
2.307e-05
5.61558e-05
3.90109e-05
3.19778e-05
6.12197e-05
-7.55252e-06
9.09568e-05
-6.37657e-05
0.000129574
-0.000138147
0.000178481
-0.000232273
0.000239084
-0.000347701
0.000312691
-0.00048581
0.000400389
-0.000647598
0.000502889
-0.000833442
0.000620365
-0.00104287
0.000752331
-0.00127437
0.000897494
-0.0015253
0.00105395
-0.00179289
0.00121833
-0.00207152
-0.00234934
0.00138951
3.16954e-07
2.15574e-06
4.53988e-05
6.43582e-06
5.85981e-05
1.41262e-05
5.8441e-05
2.62667e-05
4.40153e-05
4.39856e-05
1.4259e-05
6.85098e-05
-3.20768e-05
0.000101163
-9.64185e-05
0.000143341
-0.000180325
0.000196465
-0.000285398
0.000261902
-0.000413137
0.000340842
-0.00056475
0.000434156
-0.000740912
0.000542223
-0.000941509
0.000664764
-0.00116541
0.000800717
-0.00141033
0.000948134
-0.00167272
0.00110431
-0.00194906
0.00126537
-0.00223258
-0.00251291
0.00142894
2.59421e-06
7.5086e-06
5.36837e-05
1.61886e-05
4.9761e-05
2.97396e-05
3.04643e-05
4.93578e-05
-5.35922e-06
7.63354e-05
-5.90544e-05
0.000112049
-0.000132132
0.000157923
-0.0002262
0.000215366
-0.00034284
0.000285663
-0.000483434
0.00036984
-0.000648928
0.000468495
-0.000839567
0.000581617
-0.00105463
0.000708423
-0.00129222
0.000847268
-0.00154917
0.000995598
-0.00182105
0.00115008
-0.00210354
0.00130659
-0.0023891
-0.00266861
0.0014623
8.68156e-06
1.8429e-05
4.00136e-05
3.34899e-05
1.54034e-05
5.51256e-05
-2.69949e-05
8.4687e-05
-8.86158e-05
0.000123592
-0.000171037
0.000173273
-0.000275881
0.000235093
-0.000404661
0.000310219
-0.00055856
0.000399459
-0.000738167
0.000503081
-0.00094319
0.000620634
-0.00117218
0.000750807
-0.00142239
0.000891385
-0.00168975
0.0010393
-0.00196896
0.00119076
-0.00225501
0.00134163
-0.00253996
-0.00281602
0.00148904
2.08482e-05
2.91211e-05
3.75166e-05
-1.26504e-06
6.12833e-05
-5.07616e-05
9.3549e-05
-0.000120881
0.000135758
-0.000213245
0.000189326
-0.00032945
0.000255539
-0.000470873
0.000335397
-0.000638418
0.000429441
-0.000832211
0.000537558
-0.00105131
0.00065882
-0.00129345
0.00079138
-0.00155495
0.000932499
-0.00183087
0.00107869
-0.00211516
0.00122594
-0.00240226
0.00137023
-0.00268425
-0.00295473
0.00150893
2.34455e-05
4.18162e-05
-1.96357e-05
6.78207e-05
-7.67661e-05
0.000102899
-0.00015596
0.000148502
-0.000258849
0.000206005
-0.000386952
0.000276574
-0.000541442
0.000361
-0.000722844
0.000459504
-0.000930715
0.000571551
-0.00116335
0.00069571
-0.00141761
0.00082962
-0.00168886
0.000970089
-0.00197134
0.00111335
-0.00225842
0.00125532
-0.00254423
0.00139228
-0.0028212
-0.00308443
0.00152198
4.63827e-05
7.47236e-05
-0.000105107
0.000112707
-0.000193943
0.000161771
-0.000307913
0.000223216
-0.000448397
0.000298051
-0.000616277
0.000386809
-0.000811602
0.000489346
-0.00103325
0.000604669
-0.00127868
0.000730847
-0.00154378
0.000865041
-0.00182305
0.0010037
-0.00211
0.00114292
-0.00239763
0.00127872
-0.00268003
0.0014078
-0.00295028
-0.00320502
0.00152839
8.19732e-05
0.000122937
-0.000234908
0.0001755
-0.000360475
0.000240852
-0.000513749
0.000319805
-0.00069523
0.000412587
-0.000904384
0.00051865
-0.00113931
0.000636524
-0.00139655
0.000763793
-0.00167105
0.000897208
-0.00195647
0.00103297
-0.00224577
0.00116717
-0.00253183
0.0012961
-0.00280896
0.00141697
-0.00307115
-0.00331655
0.0015285
0.000133546
0.000189613
-0.000416542
0.000258793
-0.00058293
0.000341656
-0.000778093
0.000438084
-0.00100081
0.000547092
-0.00124832
0.000666734
-0.00151619
0.000794144
-0.00179846
0.000925751
-0.00208808
0.00105764
-0.00237765
0.00118602
-0.00266021
0.00130757
-0.00293052
0.00142008
-0.00318366
-0.00341925
0.00152278
0.000204024
0.000276905
-0.000655812
0.00036341
-0.000864598
0.000463038
-0.00110044
0.00057435
-0.00135963
0.000694937
-0.00163678
0.000821547
-0.00192507
0.00095038
-0.00221691
0.00107753
-0.0025048
0.00119945
-0.00278213
0.00131332
-0.00304439
0.0014175
-0.00328784
-0.00351347
0.00151172
0.000295044
0.000384864
-0.000954418
0.000487184
-0.00120276
0.000600112
-0.00147256
0.000720806
-0.00175748
0.000845702
-0.00204997
0.000970888
-0.0023421
0.00109258
-0.00262649
0.0012076
-0.00289715
0.00131364
-0.00315043
0.00140969
-0.00338389
-0.00359967
0.00149589
0.000405806
0.000510263
-0.00130722
0.000624084
-0.00158638
0.000744052
-0.00187744
0.000866379
-0.00217229
0.000987152
-0.00246287
0.00110283
-0.00274216
0.00121066
-0.00300498
0.00130891
-0.00324869
0.00139712
-0.0034721
-0.0036784
0.00147585
0.000532021
0.000645999
-0.00170036
0.000764435
-0.00199588
0.000883414
-0.00229127
0.000999135
-0.00257859
0.00110838
-0.00285141
0.00120891
-0.00310551
0.00129954
-0.00333932
0.00138031
-0.00355288
-0.00375021
0.00145213
0.000665626
0.000781768
0.000896716
-0.00240622
0.00100688
-0.00268875
0.00110944
-0.00295398
0.00120268
-0.00319874
0.00128595
-0.0034226
0.00135976
-0.00362668
-0.0038157
0.00142525
0.000906261
0.00101049
-0.00279298
0.00110625
-0.00304974
0.00119233
-0.00328482
0.00126861
-0.00349887
0.00133594
-0.00369401
-0.00387544
0.00139568
0.00101013
0.00109909
-0.0031387
0.00117826
-0.00336399
0.00124794
-0.00356856
0.00130931
-0.00375538
-0.00392998
0.00136385
0.00108829
0.00116084
0.00122438
-0.00363209
0.00128028
-0.00381129
-0.00397982
0.00133012
0.00119831
0.00124924
-0.00386222
-0.00402542
0.00129484
0.0012165
0.00125828
0.0012165
0.00386221
0.00402542
0.00125828
0.00119831
0.00363209
0.00124924
0.00381128
0.00397981
0.00129484
0.00108829
0.00313869
0.00116084
0.00336398
0.00122438
0.00356855
0.00128028
0.00375538
0.00392997
0.00133012
0.00101013
0.00279297
0.00109909
0.00304973
0.00117826
0.00328482
0.00124794
0.00349887
0.00130931
0.00369401
0.00387544
0.00136385
0.000795921
0.00211202
0.00090626
0.00240622
0.00101049
0.00268874
0.00110625
0.00295397
0.00119233
0.00319873
0.00126861
0.00342259
0.00133594
0.00362668
0.0038157
0.00139568
0.000665624
0.00170036
0.000781766
0.00199587
0.000896714
0.00229127
0.00100688
0.00257858
0.00110944
0.00285141
0.00120267
0.0031055
0.00128595
0.00333931
0.00135976
0.00355287
0.00375021
0.00142525
0.000532019
0.00130721
0.000645998
0.00158638
0.000764433
0.00187744
0.000883412
0.00217229
0.000999133
0.00246286
0.00110838
0.00274216
0.0012089
0.00300498
0.00129954
0.00324868
0.00138031
0.00347209
0.00367839
0.00145213
0.000405805
0.000954416
0.000510261
0.00120276
0.000624082
0.00147256
0.00074405
0.00175747
0.000866377
0.00204996
0.000987149
0.00234209
0.00110282
0.00262648
0.00121065
0.00289714
0.00130891
0.00315043
0.00139712
0.00338388
0.00359967
0.00147585
0.000295043
0.000655811
0.000384863
0.000864597
0.000487183
0.00110044
0.00060011
0.00135963
0.000720804
0.00163678
0.0008457
0.00192507
0.000970885
0.0022169
0.00109258
0.00250479
0.0012076
0.00278213
0.00131364
0.00304438
0.00140969
0.00328784
0.00351346
0.00149589
0.000204023
0.000416542
0.000276905
0.00058293
0.000363409
0.000778092
0.000463036
0.00100081
0.000574348
0.00124832
0.000694935
0.00151619
0.000821544
0.00179846
0.000950378
0.00208807
0.00107752
0.00237765
0.00119945
0.0026602
0.00131332
0.00293051
0.0014175
0.00318365
0.00341924
0.00151172
0.000133546
0.000234908
0.000189612
0.000360475
0.000258793
0.000513749
0.000341655
0.000695229
0.000438082
0.000904382
0.00054709
0.00113931
0.000666731
0.00139655
0.000794142
0.00167105
0.000925749
0.00195646
0.00105764
0.00224576
0.00118601
0.00253182
0.00130757
0.00280896
0.00142008
0.00307114
0.00331655
0.00152277
8.19731e-05
0.000105108
0.000122937
0.000193944
0.000175499
0.000307913
0.000240852
0.000448397