/*--------------------------------*- C++ -*----------------------------------*\
  =========                 |
  \\      /  F ield         | OpenFOAM: The Open Source CFD Toolbox
   \\    /   O peration     | Website:  https://openfoam.org
    \\  /    A nd           | Version:  7
     \\/     M anipulation  |
\*---------------------------------------------------------------------------*/
FoamFile
{
    version     2.0;
    format      ascii;
    class       surfaceScalarField;
    location    "55";
    object      phi;
}
// * * * * * * * * * * * * * * * * * * * * * * * * * * * * * * * * * * * * * //

dimensions      [0 3 -1 0 0 0 0];

internalField   nonuniform List<scalar> 
16756
(
-0.000443811
0.00050731
-0.000498861
-0.000451425
0.000555799
-0.000548185
-0.000458175
0.000589987
-0.000583238
-0.000464012
0.000603187
-0.00059735
-0.000468856
0.000588077
-0.000583233
-0.000472589
0.000537142
-0.000533409
-0.000475049
0.000443253
-0.000440793
-0.000476041
0.000300475
-0.000299483
-0.000475364
0.000105058
-0.000105735
-0.000472845
-0.000143561
0.000141042
-0.000468398
-0.000441632
0.000437185
-0.000462001
-0.000780226
0.000773829
-0.000453707
-0.00114493
0.00113663
-0.000443558
-0.00151574
0.00150559
-0.000431443
-0.00186761
0.0018555
-0.000416964
-0.00217134
0.00215686
-0.000399328
-0.00239486
0.00237722
-0.000377371
-0.00250504
0.00248308
-0.000349752
-0.00247082
0.0024432
-0.000315324
-0.00226688
0.00223245
-0.000273648
-0.00187993
0.00183825
-0.000225412
-0.00131185
0.00126361
-0.00017267
-0.000586174
0.000533432
-0.000118752
0.000258697
-0.000312615
-6.75966e-05
0.00116376
-0.00121492
-2.31014e-05
0.00207417
-0.00211867
1.24187e-05
0.0029187
-0.00295422
3.88603e-05
0.0036518
-0.00367824
6.01812e-05
0.004197
-0.00421832
8.30929e-05
0.0045067
-0.00452961
0.000116695
0.00449661
-0.00453021
0.000166993
0.00410427
-0.00415457
0.00023637
0.00335851
-0.00342789
0.000318015
0.00220314
-0.00228479
0.000405809
0.000958587
-0.00104638
0.000484524
-0.000545868
0.000467153
0.000549635
-0.0017268
0.00166169
0.00058875
-0.00303224
0.00299312
0.000604258
-0.00379908
0.00378358
0.000596964
-0.00453668
0.00454398
0.00058346
-0.00489521
0.00490871
0.000577817
-0.00448388
0.00448952
0.000602773
-0.00438213
0.00435717
-0.00154157
0.00150148
-0.000437626
0.000515337
-0.000444851
0.000563024
-0.000451255
0.000596392
-0.0004568
0.000608732
-0.000461416
0.000592692
-0.000464993
0.000540719
-0.000467379
0.000445639
-0.000468392
0.000301488
-0.000467847
0.000104514
-0.000465592
-0.000145816
-0.000461569
-0.000445656
-0.000455792
-0.000786002
-0.000448361
-0.00115236
-0.00043936
-0.00152474
-0.000428723
-0.00187825
-0.000416076
-0.00218399
-0.000400618
-0.00241031
-0.000381142
-0.00252451
-0.00035621
-0.00249575
-0.000324542
-0.00229855
-0.000285524
-0.00191894
-0.000239659
-0.00135771
-0.000188825
-0.000637008
-0.000136195
0.000206067
-8.55725e-05
0.00111314
-4.07072e-05
0.00202931
-3.74259e-06
0.00288173
2.5416e-05
0.00362264
5.08362e-05
0.00417158
7.91161e-05
0.00447842
0.000118881
0.00445685
0.000175343
0.00404781
0.000250186
0.00328367
0.000335961
0.00211737
0.000426636
0.000867912
0.000506995
-0.000626228
0.000572877
-0.00179269
0.000611914
-0.00307127
0.000626269
-0.00381344
0.000616327
-0.00452674
0.000598049
-0.00487693
0.00058641
-0.00447224
0.000604395
-0.00440011
-0.00157772
-0.000429291
0.000522883
-0.000436068
0.000569801
-0.000442066
0.00060239
-0.000447258
0.000613924
-0.000451582
0.000597017
-0.00045494
0.000544077
-0.00045719
0.000447889
-0.000458163
0.000302461
-0.000457689
0.00010404
-0.000455638
-0.000147867
-0.000451977
-0.000449317
-0.000446761
-0.000791218
-0.000440133
-0.00115899
-0.000432227
-0.00153264
-0.000423021
-0.00188746
-0.00041217
-0.00219484
-0.000398875
-0.00242361
-0.000381886
-0.0025415
-0.000359679
-0.00251796
-0.000330834
-0.00232739
-0.000294564
-0.00195521
-0.000251174
-0.00140111
-0.000202351
-0.000685831
-0.000151092
0.000154808
-0.000101049
0.0010631
-5.58089e-05
0.00198407
-1.73481e-05
0.00284327
1.46037e-05
0.00359069
4.41753e-05
0.004142
7.77949e-05
0.0044448
0.00012357
0.00441107
0.000185921
0.00398546
0.000265885
0.0032037
0.000355438
0.00202781
0.000448685
0.000774666
0.000530473
-0.000708016
0.000597008
-0.00185922
0.000635982
-0.00311025
0.000649325
-0.00382678
0.000636977
-0.00451439
0.000614178
-0.00485413
0.000596678
-0.00445474
0.000607647
-0.00441108
-0.00160985
-0.00041884
0.000529892
-0.000425109
0.00057607
-0.000430641
0.000607922
-0.000435418
0.0006187
-0.000439388
0.000600988
-0.000442465
0.000547154
-0.000444517
0.000449941
-0.000445387
0.000303331
-0.000444922
0.000103575
-0.000443013
-0.000149777
-0.000439653
-0.000452676
-0.000434936
-0.000795935
-0.000429048
-0.00116487
-0.000422177
-0.00153951
-0.000414347
-0.00189529
-0.000405248
-0.00220394
-0.000394086
-0.00243477
-0.000379578
-0.00255601
-0.000360115
-0.00253742
-0.000334142
-0.00235337
-0.000300693
-0.00198866
-0.000259868
-0.00144193
-0.000213149
-0.00073255
-0.000163339
0.000104998
-0.000113919
0.00101368
-6.83062e-05
0.00193846
-2.83136e-05
0.00280328
6.48042e-06
0.00355589
4.02179e-05
0.00410827
7.91053e-05
0.00440591
0.000130699
0.00435948
0.000198635
0.00391752
0.000283355
0.00311898
0.000376332
0.00193484
0.000471843
0.000679154
0.000554847
-0.000791021
0.000621915
-0.00192629
0.00066084
-0.00314917
0.000673312
-0.00383925
0.000658814
-0.0044999
0.000631776
-0.00482709
0.000608588
-0.00443155
0.000612534
-0.00441503
-0.00163785
-0.000406316
0.000536305
-0.000412019
0.000581773
-0.000417024
0.000612927
-0.000421324
0.000623
-0.000424879
0.000604543
-0.000427612
0.000549887
-0.000429403
0.000451733
-0.00043011
0.000304038
-0.000429592
0.000103057
-0.000427762
-0.000151607
-0.00042464
-0.000455798
-0.000420356
-0.000800219
-0.000415144
-0.00117008
-0.000409241
-0.00154542
-0.000402726
-0.0019018
-0.000395324
-0.00221134
-0.000386255
-0.00244384
-0.000374207
-0.00256806
-0.000357492
-0.00255414
-0.000334423
-0.00237643
-0.000303854
-0.00201923
-0.00026567
-0.00148011
-0.000221137
-0.000777083
-0.000172845
5.67056e-05
-0.000124093
0.000964924
-7.81162e-05
0.00189248
-3.6573e-05
0.00276174
1.08305e-06
0.00351824
3.89647e-05
0.00407038
8.30073e-05
0.00436187
0.000140191
0.00430229
0.000213382
0.00384433
0.000302483
0.00302988
0.000398528
0.00183879
0.000496
0.000581682
0.000580011
-0.000875032
0.000647493
-0.00199377
0.000686376
-0.00318806
0.000698118
-0.003851
0.000681733
-0.00448351
0.000650762
-0.00479612
0.000622101
-0.00440289
0.000619055
-0.00441198
-0.00166167
-0.00039177
0.000542068
-0.000396849
0.000586852
-0.000401268
0.000617346
-0.000405031
0.000626763
-0.000408109
0.000607621
-0.000410437
0.000552214
-0.000411907
0.000453202
-0.000412388
0.000304519
-0.000411757
0.000102426
-0.000409943
-0.00015342
-0.000406995
-0.000458746
-0.000403078
-0.000804136
-0.000398472
-0.00117469
-0.000393468
-0.00155042
-0.000388197
-0.00190707
-0.00038243
-0.00221711
-0.000375402
-0.00245087
-0.000365781
-0.00257768
-0.000351804
-0.00256812
-0.000331655
-0.00239658
-0.000304007
-0.00204688
-0.000268526
-0.0015156
-0.000226248
-0.000819361
-0.000179538
9.99551e-06
-0.000131498
0.000916883
-8.51747e-05
0.00184616
-4.20802e-05
0.00271864
-1.56723e-06
0.00347773
4.03981e-05
0.00402842
8.94449e-05
0.00431283
0.000151959
0.00423978
0.000230054
0.00376623
0.000323155
0.00293678
0.000421914
0.00174003
0.000521049
0.000482547
0.000605861
-0.000959844
0.000673637
-0.00206154
0.000712481
-0.0032269
0.000723629
-0.00386214
0.000705626
-0.00446551
0.00067105
-0.00476155
0.000637166
-0.00436901
0.000627203
-0.00440202
-0.00168126
-0.000375261
0.000547126
-0.000379661
0.000591251
-0.000383436
0.000621122
-0.000386603
0.00062993
-0.000389145
0.000610163
-0.000391007
0.000554077
-0.000392095
0.00045429
-0.000392291
0.000304715
-0.000391485
0.00010162
-0.000389626
-0.000155279
-0.000386787
-0.000461585
-0.00038317
-0.000807754
-0.000379099
-0.00117876
-0.000374919
-0.0015546
-0.000370819
-0.00191117
-0.000366614
-0.00222131
-0.000361564
-0.00245592
-0.000354324
-0.00258492
-0.00034306
-0.00257938
-0.00032583
-0.00241381
-0.000301131
-0.00207158
-0.0002684
-0.00154833
-0.000228436
-0.000859325
-0.000183365
-3.50751e-05
-0.000136081
0.000869598
-8.94368e-05
0.00179951
-4.48084e-05
0.00267401
-1.47531e-06
0.00343439
4.4483e-05
0.00398246
9.83483e-05
0.00425896
0.000165905
0.00417222
0.000248539
0.0036836
0.000345253
0.00284007
0.00044638
0.0016389
0.000546888
0.000382039
0.0006323
-0.00104526
0.00070025
-0.00212949
0.000739052
-0.0032657
0.000749734
-0.00387282
0.000730384
-0.00444616
0.000692547
-0.00472371
0.000653728
-0.00433019
0.000636961
-0.00438525
-0.00169659
-0.000356859
0.000551428
-0.000360525
0.000594917
-0.000363601
0.000624198
-0.000366114
0.000632444
-0.000368061
0.000612109
-0.000369399
0.000555415
-0.000370046
0.000454937
-0.000369898
0.000304567
-0.000368857
0.000100579
-0.000366892
-0.000157244
-0.000364099
-0.000464379
-0.000360712
-0.00081114
-0.000357103
-0.00118237
-0.000353671
-0.00155803
-0.00035066
-0.00191419
-0.000347938
-0.00222403
-0.000344795
-0.00245906
-0.000339875
-0.00258984
-0.000331286
-0.00258797
-0.000316962
-0.00242814
-0.000295221
-0.00209332
-0.000265273
-0.00157827
-0.000227668
-0.00089693
-0.000184295
-7.84482e-05
-0.000137807
0.000823111
-9.0877e-05
0.00175258
-4.47505e-05
0.00262789
1.33837e-06
0.0033883
5.11682e-05
0.00393263
0.000109635
0.00420049
0.000181923
0.00409993
0.000268721
0.0035968
0.000368663
0.00274013
0.000471818
0.00153575
0.000573419
0.000280438
0.000659236
-0.00113107
0.00072724
-0.0021975
0.000765988
-0.00330445
0.000776324
-0.00388316
0.000755895
-0.00442573
0.000715156
-0.00468297
0.000671723
-0.00428675
0.000648305
-0.00436183
-0.00170766
-0.000336638
0.000554923
-0.000339518
0.000597797
-0.000341841
0.000626521
-0.000343646
0.000634249
-0.000344942
0.000613405
-0.000345699
0.000556172
-0.000345848
0.000455087
-0.000345298
0.000304016
-0.000343965
9.92461e-05
-0.000341833
-0.000159376
-0.000339021
-0.000467191
-0.000335798
-0.000814363
-0.000332578
-0.00118559
-0.000329813
-0.0015608
-0.000327807
-0.00191619
-0.000326483
-0.00222536
-0.000325163
-0.00246038
-0.000322493
-0.00259251
-0.000316525
-0.00259394
-0.000305078
-0.00243958
-0.000286293
-0.0021121
-0.000259148
-0.00160542
-0.000223942
-0.000932136
-0.000182305
-0.000120085
-0.000136663
0.000777469
-8.94899e-05
0.00170541
-4.19185e-05
0.00258032
6.84984e-06
0.00333954
6.03873e-05
0.00387909
0.000123212
0.00413767
0.000199904
0.00402324
0.000290483
0.00350622
0.000393271
0.00263734
0.000498125
0.0014309
0.000600549
0.000178014
0.000686582
-0.0012171
0.000754521
-0.00226544
0.000793197
-0.00334313
0.000803295
-0.00389326
0.000782049
-0.00440448
0.000738777
-0.0046397
0.000691078
-0.00423905
0.000661202
-0.00433196
-0.00171449
-0.000314678
0.000557567
-0.000316725
0.000599843
-0.000318244
0.000628041
-0.000319289
0.000635293
-0.00031988
0.000613996
-0.000320002
0.000556294
-0.000319598
0.000454683
-0.00031859
0.000303008
-0.000316907
9.75635e-05
-0.00031455
-0.000161734
-0.000311658
-0.000470083
-0.000308531
-0.000817489
-0.000305626
-0.0011885
-0.000303448
-0.00156297
-0.000302359
-0.00191728
-0.000302339
-0.00222538
-0.000302752
-0.00245997
-0.00030225
-0.00259301
-0.000298839
-0.00259735
-0.000290225
-0.0024482
-0.000274379
-0.00212795
-0.000250044
-0.00162975
-0.000217265
-0.000964916
-0.000177402
-0.000159947
-0.000132654
0.00073272
-8.52889e-05
0.00165804
-3.63432e-05
0.00253137
1.49904e-05
0.0032882
7.20605e-05
0.00382202
0.000138976
0.00407075
0.000219729
0.00394249
0.000313706
0.00341225
0.000418966
0.00253208
0.000525202
0.00132466
0.000628191
7.5026e-05
0.000714258
-0.00130317
0.000782014
-0.00233319
0.00082059
-0.0033817
0.000830546
-0.00390322
0.000808735
-0.00438267
0.000763304
-0.00459427
0.000711716
-0.00418747
0.000675614
-0.00429585
-0.00171711
-0.000291068
0.000559318
-0.000292236
0.000601011
-0.000292905
0.00062871
-0.00029314
0.000635528
-0.000292975
0.000613831
-0.000292409
0.000555728
-0.0002914
0.000453673
-0.000289881
0.000301489
-0.000287794
9.54767e-05
-0.000285154
-0.000164374
-0.000282122
-0.000473115
-0.000279027
-0.000820585
-0.000276363
-0.00119116
-0.00027469
-0.00156465
-0.000274427
-0.00191754
-0.000275613
-0.00222419
-0.00027766
-0.00245792
-0.000279233
-0.00259144
-0.000278301
-0.00259828
-0.000272466
-0.00245403
-0.000259528
-0.00214089
-0.000237999
-0.00165128
-0.000207662
-0.000995252
-0.000169612
-0.000197997
-0.000125801
0.00068891
-7.83062e-05
0.00161055
-2.80729e-05
0.00248114
2.56951e-05
0.00323443
8.60964e-05
0.00376162
0.000156818
0.00400003
0.000241281
0.00385803
0.000338273
0.00331525
0.000445641
0.00242471
0.000552956
0.00121735
0.000656263
-2.82811e-05
0.000742191
-0.0013891
0.000809646
-0.00240065
0.000848088
-0.00342015
0.000857983
-0.00391311
0.000835846
-0.00436054
0.000788631
-0.00454705
0.000733553
-0.00413239
0.000691493
-0.00425379
-0.00171558
-0.000265898
0.000560137
-0.000266147
0.00060126
-0.000265922
0.000628485
-0.000265301
0.000634906
-0.000264332
0.000612863
-0.00026303
0.000554426
-0.000261365
0.000452008
-0.000259284
0.000299408
-0.000256741
9.29335e-05
-0.000253764
-0.000167351
-0.000250534
-0.000476345
-0.000247407
-0.000823712
-0.000244915
-0.00119365
-0.000243665
-0.0015659
-0.000244136
-0.00191707
-0.000246426
-0.0022219
-0.000249999
-0.00245435
-0.000253545
-0.00258789
-0.000255003
-0.00259682
-0.000251877
-0.00245716
-0.000241806
-0.00215096
-0.000223066
-0.00167002
-0.000195183
-0.00102314
-0.000158972
-0.000234209
-0.000116149
0.000646087
-6.85915e-05
0.00156299
-1.71744e-05
0.00242972
3.88813e-05
0.00317838
0.000102393
0.00369811
0.00017662
0.0039258
0.000264436
0.00377021
0.000364068
0.00321562
0.000473192
0.00231558
0.000581296
0.00110924
0.000684689
-0.000131674
0.000770312
-0.00147472
0.000837351
-0.00246769
0.000875616
-0.00345841
0.000885515
-0.00392301
0.000863278
-0.0043383
0.000814651
-0.00449843
0.000756499
-0.00407424
0.000708784
-0.00420608
-0.00171
-0.000239263
0.000559994
-0.000238557
0.000600555
-0.000237399
0.000627327
-0.00023588
0.000633387
-0.000234064
0.000611047
-0.000231979
0.000552341
-0.00022961
0.000449639
-0.000226919
0.000296717
-0.00022387
8.98845e-05
-0.000220506
-0.000170715
-0.000217023
-0.000479827
-0.000213804
-0.000826931
-0.000211415
-0.00119604
-0.000210509
-0.00156681
-0.00021162
-0.00191596
-0.00021491
-0.00221861
-0.000219896
-0.00244936
-0.000225302
-0.00258249
-0.000229049
-0.00259307
-0.000228552
-0.00245766
-0.000221294
-0.00215822
-0.000205318
-0.001686
-0.000179889
-0.00104856
-0.000145542
-0.000268556
-0.000103755
0.0006043
-5.62112e-05
0.00151545
-3.78051e-06
0.00237729
5.44542e-05
0.00312014
0.00012084
0.00363173
0.000198262
0.00384838
0.000289075
0.0036794
0.000390979
0.00311372
0.00050152
0.00220504
0.00061014
0.00100062
0.000713399
-0.000234933
0.000798558
-0.00155988
0.000865068
-0.0025342
0.000903107
-0.00349645
0.000913062
-0.00393296
0.000890929
-0.00431617
0.000841255
-0.00444875
0.00078046
-0.00401344
0.000727427
-0.00415305
-0.00170047
-0.000211258
0.000558861
-0.000209568
0.000598865
-0.000207442
0.000625202
-0.000204988
0.000630932
-0.000202284
0.000608343
-0.000199374
0.000549431
-0.000196258
0.000446523
-0.000192912
0.000293371
-0.000189311
8.62835e-05
-0.000185511
-0.000174515
-0.000181725
-0.000483612
-0.000178358
-0.000830299
-0.000176007
-0.00119839
-0.000175367
-0.00156745
-0.000177027
-0.0019143
-0.000181208
-0.00221443
-0.000187489
-0.00244308
-0.000194633
-0.00257534
-0.000200557
-0.00258715
-0.000202596
-0.00245562
-0.000198086
-0.00216273
-0.000184838
-0.00169925
-0.000161857
-0.00107155
-0.000129395
-0.000301018
-8.86945e-05
0.0005636
-4.12469e-05
0.001468
1.21997e-05
0.00232384
7.23086e-05
0.00306003
0.000141319
0.00356271
0.00022162
0.00376808
0.000315075
0.00358594
0.000418896
0.0030099
0.000530531
0.00209341
0.000639409
0.000891743
0.000742326
-0.00033785
0.000826872
-0.00164443
0.000892742
-0.00260007
0.000930501
-0.00353421
0.000940546
-0.00394301
0.000918704
-0.00429432
0.000868336
-0.00439838
0.000805339
-0.00395045
0.000747352
-0.00409506
-0.00168711
-0.000181981
0.000556718
-0.000179281
0.000596165
-0.00017616
0.000622081
-0.000172738
0.00062751
-0.000169111
0.000604716
-0.000165337
0.000545658
-0.000161434
0.00044262
-0.000157391
0.000289328
-0.000153195
8.20878e-05
-0.000148916
-0.000178795
-0.00014478
-0.000487748
-0.000141213
-0.000833866
-0.00013884
-0.00120076
-0.000138394
-0.00156789
-0.000140512
-0.00191218
-0.000145476
-0.00220947
-0.000152927
-0.00243563
-0.00016168
-0.00256659
-0.000169658
-0.00257917
-0.000174128
-0.00245115
-0.000172291
-0.00216456
-0.000161726
-0.00170981
-0.000141178
-0.00109209
-0.000110621
-0.000331575
-7.1057e-05
0.000524036
-2.37989e-05
0.00142074
3.04892e-05
0.00226955
9.23301e-05
0.00299819
0.000163709
0.00349134
0.000246569
0.00368522
0.000342317
0.00349019
0.000447713
0.0029045
0.000560135
0.00198099
0.00066903
0.000782848
0.000771411
-0.000440231
0.0008552
-0.00172822
0.000920325
-0.00266519
0.000957742
-0.00357163
0.000967898
-0.00395316
0.000946511
-0.00427294
0.000895789
-0.00434766
0.000831033
-0.00388569
0.000768488
-0.00403251
-0.00167009
-0.000151528
0.000553553
-0.000147801
0.000592438
-0.000143662
0.000617941
-0.000139245
0.000623094
-0.000134663
0.000600134
-0.000129992
0.000540987
-0.000125265
0.000437893
-0.000120488
0.000284551
-0.000115659
7.72588e-05
-0.000110861
-0.000183593
-0.000106333
-0.000492275
-0.00010252
-0.000837679
-0.000100071
-0.00120321
-9.97498e-05
-0.00156821
-0.00010224
-0.00190969
-0.000107878
-0.00220383
-0.000116373
-0.00242713
-0.000126597
-0.00255637
-0.000136495
-0.00256928
-0.000143281
-0.00244436
-0.000144028
-0.00216382
-0.000136092
-0.00171775
-0.000117959
-0.00111023
-8.93201e-05
-0.000360213
-5.09465e-05
0.000485662
-4.09123e-06
0.00137389
5.10175e-05
0.00221445
0.000114398
0.00293481
0.000187883
0.00341785
0.000272984
0.00360012
0.000370684
0.00339249
0.000477329
0.00279786
0.000590249
0.00186807
0.000698933
0.000674164
0.000800596
-0.000541894
0.000883495
-0.00181112
0.00094777
-0.00272947
0.000984783
-0.00360864
0.000995055
-0.00396344
0.000974266
-0.00425215
0.00092351
-0.00429691
0.000857441
-0.00381962
0.000790754
-0.00396583
-0.00164957
-0.000119993
0.000549359
-0.000115228
0.000587674
-0.000110054
0.000612768
-0.000104622
0.000617662
-9.90607e-05
0.000594572
-9.34634e-05
0.00053539
-8.78806e-05
0.00043231
-8.23365e-05
0.000279007
-7.68394e-05
7.17617e-05
-7.1487e-05
-0.000188945
-6.65313e-05
-0.000497231
-6.24326e-05
-0.000841778
-5.98592e-05
-0.00120579
-5.9602e-05
-0.00156847
-6.23818e-05
-0.00190691
-6.8589e-05
-0.00219762
-7.7998e-05
-0.00241772
-8.95501e-05
-0.00254481
-0.000101224
-0.0025576
-0.000110195
-0.00243539
-0.000113429
-0.00216058
-0.000108059
-0.00172312
-9.2315e-05
-0.00112597
-6.5607e-05
-0.000386921
-2.84837e-05
0.000448539
1.81596e-05
0.00132724
7.36697e-05
0.00215894
0.000138385
0.0028701
0.000213712
0.00334252
0.00030074
0.00351309
0.000400063
0.00329317
0.000507647
0.00269027
0.000620793
0.00175492
0.000729054
0.000565903
0.000829827
-0.000642667
0.000911709
-0.001893
0.000975038
-0.00279279
0.00101158
-0.00364518
0.00102196
-0.00397382
0.00100189
-0.00423208
0.000951401
-0.00424642
0.000884457
-0.00375268
0.000814066
-0.00389544
-0.00162575
-8.74651e-05
-8.16602e-05
0.000581869
-7.54441e-05
0.000606551
-6.89825e-05
0.0006112
-6.24217e-05
0.000588011
-5.58738e-05
0.000528842
-4.94076e-05
0.000425844
-4.30666e-05
0.000272666
-3.68696e-05
6.55647e-05
-3.09299e-05
-0.000194885
-2.55137e-05
-0.000502647
-2.10955e-05
-0.000846196
-1.836e-05
-0.00120852
-1.81175e-05
-0.00156871
-2.11155e-05
-0.00190391
-2.77894e-05
-0.00219095
-3.79835e-05
-0.00240753
-5.07154e-05
-0.00253208
-6.40106e-05
-0.00254431
-7.50274e-05
-0.00242437
-8.06359e-05
-0.00215497
-7.77604e-05
-0.00172599
-6.43739e-05
-0.00113936
-3.96105e-05
-0.000411685
-3.98184e-06
0.00041291
4.244e-05
0.00128082
9.83187e-05
0.00210306
0.000164161
0.00280426
0.000241066
0.00326562
0.000329714
0.00342444
0.000430342
0.00319254
0.000538574
0.00258204
0.000651691
0.0016418
0.000759331
0.000458263
0.000859055
-0.00074239
0.000939802
-0.00197374
0.00100209
-0.00285508
0.00103809
-0.00368118
0.00104857
-0.00398429
0.00102931
-0.00421282
0.000979364
-0.00419647
0.000911977
-0.00368529
0.000838338
-0.0038218
-0.00159883
-4.71918e-05
0.00057503
-3.99325e-05
0.000599292
-3.24334e-05
0.000603701
-2.48573e-05
0.000580435
-1.7333e-05
0.000521318
-9.93956e-06
0.000418451
-2.68647e-06
0.000265413
4.26941e-06
5.86088e-05
1.07048e-05
-0.00020132
1.65616e-05
-0.000508504
2.13051e-05
-0.00085094
2.42324e-05
-0.00121145
2.45147e-05
-0.00156899
2.13743e-05
-0.00190077
1.43294e-05
-0.0021839
3.37728e-06
-0.00239658
-1.02931e-05
-0.00251841
-2.50404e-05
-0.00252956
-3.79461e-05
-0.00241147
-4.58074e-05
-0.00214711
-4.53422e-05
-0.00172646
-3.42808e-05
-0.00115042
-1.15255e-05
-0.00043444
2.30789e-05
0.000378306
6.87274e-05
0.00123517
0.000124833
0.00204695
0.000191592
0.0027375
0.000269815
0.0031874
0.000359786
0.00333447
0.000461417
0.00309091
0.000570023
0.00247343
0.000682873
0.00152895
0.000789707
0.000351428
0.000888232
-0.000840915
0.000967732
-0.00205325
0.00102889
-0.00291624
0.00106429
-0.00371658
0.00107483
-0.00399483
0.00105646
-0.00419445
0.00100731
-0.00414733
0.000939896
-0.00361788
0.000863477
-0.00374538
-0.00156906
-1.19088e-05
0.000567171
-3.59541e-06
0.000590979
4.94673e-06
0.000595159
1.35163e-05
0.000571866
2.19989e-05
0.000512835
3.02756e-05
0.000410174
3.82624e-05
0.000257426
4.59079e-05
5.09633e-05
5.30704e-05
-0.000208483
5.94587e-05
-0.000514892
6.4584e-05
-0.000856065
6.77466e-05
-0.00121461
6.81147e-05
-0.00156936
6.48982e-05
-0.00189756
5.75843e-05
-0.00217659
4.62046e-05
-0.0023852
3.15742e-05
-0.00250378
1.54872e-05
-0.00251347
4.30965e-07
-0.00239641
-9.17412e-06
-0.00213751
-1.10224e-05
-0.00172461
-2.47191e-06
-0.00115897
1.87349e-05
-0.000455647
5.19276e-05
0.000345113
9.68935e-05
0.00119021
0.000153078
0.00199077
0.000220546
0.00267003
0.000299832
0.00310811
0.000390838
0.00324347
0.000493186
0.00298856
0.000601908
0.00236471
0.00071427
0.00141659
0.000820127
0.000245571
0.000917313
-0.000938101
0.000995463
-0.00213139
0.00105541
-0.00297619
0.00109014
-0.00375131
0.00110071
-0.0040054
0.00108328
-0.00417701
0.00103515
-0.0040992
0.000968112
-0.00355084
0.00088939
-0.00366666
-0.00153666
2.40992e-05
0.000558323
3.34065e-05
0.000581672
4.2959e-05
0.000585606
5.25544e-05
0.00056227
6.20186e-05
0.000503371
7.12189e-05
0.000400974
8.00529e-05
0.000248592
8.84462e-05
4.257e-05
9.62437e-05
-0.00021628
0.000103139
-0.000521788
0.000108639
-0.000861565
0.000112042
-0.00121802
0.000112518
-0.00156984
0.000109273
-0.00189431
0.000101769
-0.00216908
8.99822e-05
-0.00237341
7.46514e-05
-0.00248845
5.75059e-05
-0.00249633
4.13039e-05
-0.00238021
2.93504e-05
-0.00212555
2.52861e-05
-0.00172055
3.18956e-05
-0.00116558
5.08768e-05
-0.000474628
8.26003e-05
0.00031339
0.000126803
0.001146
0.000182917
0.00193465
0.000250889
0.00260206
0.000330991
0.00302801
0.000422758
0.0031517
0.000525551
0.00288577
0.000634152
0.00225611
0.000745818
0.00130493
0.000850538
0.000140852
0.000946255
-0.00103382
0.00102296
-0.0022081
0.00108162
-0.00303485
0.00111561
-0.0037853
0.00112617
-0.00401596
0.00110971
-0.00416056
0.00106281
-0.0040523
0.000996524
-0.00348455
0.00091598
-0.00358611
-0.00150191
6.07657e-05
0.000548522
7.10583e-05
0.000571379
8.16121e-05
0.000575052
9.22045e-05
0.000551678
0.00010264
0.000492935
0.000112761
0.000390852
0.000122443
0.000238911
0.000131584
3.34287e-05
0.000140017
-0.000224713
0.000147419
-0.000529189
0.000153292
-0.000867439
0.00015694
-0.00122166
0.00015754
-0.00157044
0.000154306
-0.00189108
0.000146686
-0.00216146
0.000134608
-0.00236133
0.000118726
-0.00247257
0.000100664
-0.00247827
8.31053e-05
-0.00236265
6.93829e-05
-0.00211183
6.32423e-05
-0.0017144
6.76894e-05
-0.00117003
8.47248e-05
-0.000491664
0.000114968
0.000283146
0.000158316
0.00110266
0.000214212
0.00187876
0.000282488
0.00253378
0.000363168
0.00294733
0.000455437
0.00305943
0.000558421
0.00278279
0.000666679
0.00214785
0.000777457
0.00119415
0.000880889
3.74197e-05
0.000975016
-0.00112795
0.00105018
-0.00228326
0.00110749
-0.00309216
0.00114069
-0.0038185
0.00115119
-0.00402646
0.00113572
-0.00414509
0.00109021
-0.00400678
0.00102503
-0.00341937
0.00094315
-0.00350423
-0.00146507
9.80257e-05
0.000537817
0.000109264
0.000560141
0.000120788
0.000563529
0.000132355
0.000540111
0.000143746
0.000481544
0.000154779
0.000379819
0.000165302
0.000228388
0.000175186
2.3544e-05
0.000184248
-0.000233775
0.000192147
-0.000537088
0.000198384
-0.000873676
0.000202269
-0.00122555
0.000203001
-0.00157117
0.000199808
-0.00188788
0.000192137
-0.00215379
0.000179875
-0.00234907
0.000163592
-0.00245629
0.000144797
-0.00245947
0.000126074
-0.00234393
0.000110748
-0.00209651
0.00010266
-0.00170632
0.000105038
-0.0011724
0.000120161
-0.000506786
0.000148891
0.000254415
0.000191293
0.00106026
0.000246827
0.00182322
0.000315213
0.0024654
0.000396243
0.0028663
0.00048877
0.0029669
0.000591706
0.00267985
0.000699415
0.00204014
0.000809128
0.00108443
0.000911132
-6.45839e-05
0.00100356
-0.00122037
0.0010771
-0.0023568
0.00113298
-0.00314804
0.00116534
-0.00385086
0.00117574
-0.00403686
0.00116126
-0.00413062
0.00111729
-0.00396281
0.00105354
-0.00335563
0.000970803
-0.00342149
-0.00142643
0.000135823
0.000526268
0.000147955
0.000548009
0.000160406
0.000551077
0.000172915
0.000527602
0.000185238
0.000469221
0.000197163
0.000367894
0.000208511
0.000217041
0.000219127
1.29279e-05
0.0002288
-0.000243448
0.000237177
-0.000545465
0.000243758
-0.000880256
0.000247865
-0.00122966
0.000248724
-0.00157203
0.000245591
-0.00188475
0.000237923
-0.00214612
0.000225576
-0.00233672
0.000209038
-0.00243975
0.000189696
-0.00244013
0.000170013
-0.00232424
0.000153276
-0.00207977
0.000143394
-0.00169644
0.000143797
-0.00117281
0.000157038
-0.000520028
0.000184226
0.000227228
0.000225594
0.00101889
0.000280628
0.00176819
0.000348937
0.00239709
0.000430101
0.00278513
0.000522656
0.00287435
0.000625323
0.00257718
0.000732293
0.00193317
0.000840774
0.000975953
0.000941219
-0.000165029
0.00103183
-0.00131098
0.00110368
-0.00242865
0.00115809
-0.00320245
0.00118954
-0.00388232
0.0011998
-0.00404711
0.0011863
-0.00411712
0.00114397
-0.00392048
0.00108197
-0.00329362
0.000998841
-0.00333836
-0.00138627
0.000174113
0.00051395
0.000187074
0.000535049
0.000200398
0.000537753
0.000213804
0.000514196
0.000227022
0.000456002
0.000239812
0.000355105
0.000251958
0.000204895
0.000263285
1.60058e-06
0.000273542
-0.000253705
0.000282369
-0.000554292
0.000289262
-0.00088715
0.000293565
-0.00123396
0.000294536
-0.001573
0.000291471
-0.00188169
0.000283849
-0.0021385
0.000271503
-0.00232438
0.00025485
-0.00242309
0.000235145
-0.00242042
0.000214714
-0.00230381
0.000196773
-0.00206183
0.000185268
-0.00168493
0.000183805
-0.00117134
0.000195207
-0.00053143
0.000220828
0.000201607
0.000261081
0.000978634
0.000315482
0.00171379
0.000383538
0.00232903
0.000464631
0.00270404
0.000557
0.00278198
0.000659192
0.00247499
0.000765246
0.00182712
0.00087234
0.000868858
0.000971104
-0.000263794
0.00105981
-0.00139969
0.00112989
-0.00249873
0.00118277
-0.00325533
0.00121329
-0.00391284
0.00122334
-0.00405717
0.0012108
-0.00410457
0.00117022
-0.0038799
0.00111022
-0.00323363
0.00102717
-0.00325531
-0.0013449
0.00021286
0.000500949
0.000226572
0.000521337
0.000240703
0.000523622
0.000254949
0.00049995
0.000269015
0.000441936
0.000282628
0.000341492
0.000295539
0.000191985
0.00030754
-1.04007e-05
0.000318346
-0.000264511
0.000327584
-0.00056353
0.00033475
-0.000894316
0.000339209
-0.00123842
0.000340267
-0.00157406
0.000337266
-0.00187869
0.00032972
-0.00213096
0.000317454
-0.00231211
0.000300814
-0.00240645
0.000280926
-0.00240054
0.000259963
-0.00228285
0.000241037
-0.0020429
0.000228097
-0.00167199
0.000224897
-0.00116814
0.000234515
-0.000541048
0.000258556
0.000177566
0.000297619
0.000939571
0.000351262
0.00166014
0.000418896
0.0022614
0.000499726
0.00262321
0.000591711
0.00268999
0.000693237
0.00237347
0.00079821
0.00172215
0.000903773
0.000763296
0.00100074
-0.000360762
0.00108745
-0.0014864
0.0011557
-0.00256698
0.001207
-0.00330663
0.00123655
-0.00394238
0.00124637
-0.00406699
0.00123474
-0.00409295
0.00119597
-0.00384114
0.00113822
-0.00317587
0.00105568
-0.00317277
-0.00130261
0.000252037
0.000487366
0.000266411
0.000506963
0.000281268
0.000508765
0.000296285
0.000484933
0.00031114
0.000427081
0.000325526
0.000327106
0.000339154
0.000178356
0.000351782
-2.30282e-05
0.00036309
-0.000275819
0.000372688
-0.000573128
0.000380075
-0.000901702
0.000384644
-0.00124299
0.000385751
-0.00157517
0.000382801
-0.00187573
0.00037535
-0.00212351
0.000363227
-0.00229999
0.00034672
-0.00238995
0.000326823
-0.00238064
0.000305544
-0.00226157
0.000285862
-0.00202322
0.000271691
-0.00165782
0.000266901
-0.00116335
0.000274807
-0.000548955
0.000297267
0.000155107
0.000335074
0.000901765
0.000387842
0.00160738
0.000454897
0.00219434
0.000535285
0.00254282
0.000626702
0.00259858
0.000727384
0.00227278
0.000831125
0.00161841
0.000935021
0.0006594
0.00103008
-0.000455826
0.00111471
-0.00157102
0.00118107
-0.00263334
0.00123077
-0.00335633
0.00125931
-0.00397092
0.00126885
-0.00407653
0.0012581
-0.0040822
0.00122119
-0.00380423
0.00116589
-0.00312056
0.0010843
-0.00309119
-0.00125971
0.000291627
0.00047331
0.00030656
0.000492031
0.000322051
0.000493274
0.000337757
0.000469226
0.000353329
0.00041151
0.000368422
0.000312013
0.000382709
0.000164069
0.000395904
-3.62238e-05
0.000407656
-0.000287571
0.000417553
-0.000583025
0.000425097
-0.000909246
0.000429717
-0.00124761
0.000430827
-0.00157628
0.000427903
-0.00187281
0.000420558
-0.00211616
0.000408631
-0.00228806
0.000392363
-0.00237368
0.000372621
-0.0023609
0.000351239
-0.00224019
0.000331036
-0.00200302
0.000315854
-0.00164264
0.00030964
-0.00115714
0.000315927
-0.000555242
0.00033682
0.000134214
0.000373316
0.000865268
0.000425103
0.00155559
0.000491433
0.00212801
0.000571212
0.00246304
0.000661891
0.0025079
0.000761566
0.00217311
0.000863931
0.00151604
0.000966031