/*--------------------------------*- C++ -*----------------------------------*\
  =========                 |
  \\      /  F ield         | OpenFOAM: The Open Source CFD Toolbox
   \\    /   O peration     | Website:  https://openfoam.org
    \\  /    A nd           | Version:  7
     \\/     M anipulation  |
\*---------------------------------------------------------------------------*/
FoamFile
{
    version     2.0;
    format      ascii;
    class       volVectorField;
    location    "55";
    object      U;
}
// * * * * * * * * * * * * * * * * * * * * * * * * * * * * * * * * * * * * * //

dimensions      [0 1 -1 0 0 0 0];

internalField   nonuniform List<vector> 
8500
(
(-0.227911 0.0499998 -4.68293e-22)
(-0.232355 0.0535833 5.79819e-22)
(-0.236362 0.0556193 -1.24473e-21)
(-0.23991 0.0555911 2.70198e-22)
(-0.242962 0.052978 6.56668e-22)
(-0.245463 0.0472974 -1.64676e-22)
(-0.247335 0.0381533 -3.45185e-22)
(-0.248483 0.0252969 5.42478e-22)
(-0.248794 0.00869255 -1.77684e-22)
(-0.248165 -0.011425 6.19795e-22)
(-0.24653 -0.0344932 -1.54486e-22)
(-0.243861 -0.0595919 3.03291e-23)
(-0.24018 -0.0854648 1.17067e-21)
(-0.235535 -0.110553 -1.55407e-21)
(-0.229931 -0.133074 -2.16247e-22)
(-0.223266 -0.151113 9.71035e-22)
(-0.215226 -0.162744 1.2407e-22)
(-0.205295 -0.166165 1.79511e-22)
(-0.192736 -0.159899 -3.6475e-22)
(-0.176845 -0.143008 5.02472e-22)
(-0.157056 -0.115439 -5.41285e-22)
(-0.133417 -0.0781097 6.83578e-22)
(-0.106522 -0.0331762 5.64175e-22)
(-0.0779369 0.0165139 1.13038e-22)
(-0.0495483 0.0672058 -2.56348e-22)
(-0.0237184 0.115724 -4.39415e-22)
(-0.0021789 0.158341 2.2094e-22)
(0.0141949 0.193049 6.50888e-22)
(0.0262672 0.216498 -5.84573e-22)
(0.0372997 0.227088 -1.02638e-22)
(0.0514291 0.221591 2.56801e-22)
(0.0744262 0.198035 2.75891e-23)
(0.106978 0.158949 -2.45731e-22)
(0.151562 0.102671 5.6711e-23)
(0.197427 0.0448004 9.87767e-23)
(0.249942 -0.0221138 -1.54073e-22)
(0.285321 -0.0722443 -6.75568e-23)
(0.324008 -0.125477 -8.69778e-23)
(0.330119 -0.154244 5.28289e-23)
(0.343315 -0.180434 -3.91803e-24)
(0.323526 -0.190295 3.24536e-23)
(0.330823 -0.170149 5.95466e-25)
(0.317846 -0.161871 1.3318e-23)
(0.363423 -0.0550958 9.45651e-24)
(-0.225755 0.0508637 3.88594e-21)
(-0.230026 0.0543495 -5.15475e-21)
(-0.233853 0.0562897 3.66182e-21)
(-0.237211 0.0561656 -1.15938e-21)
(-0.240059 0.0534537 1.79622e-21)
(-0.242345 0.0476684 1.40743e-21)
(-0.243989 0.0384105 -3.40827e-21)
(-0.244902 0.025429 1.46244e-21)
(-0.244981 0.0086891 -2.51606e-21)
(-0.244142 -0.0115712 4.23965e-21)
(-0.242339 -0.0347816 -1.19793e-21)
(-0.239582 -0.0600162 -7.12604e-22)
(-0.235933 -0.0860128 -1.82749e-21)
(-0.231489 -0.111214 2.76804e-21)
(-0.226303 -0.133848 -6.12339e-22)
(-0.220316 -0.152021 -8.02752e-22)
(-0.213241 -0.163835 1.65037e-21)
(-0.204566 -0.167508 -1.01454e-21)
(-0.193529 -0.161572 1.20501e-21)
(-0.179365 -0.145075 -8.00303e-22)
(-0.161413 -0.117915 4.93652e-22)
(-0.139605 -0.0809396 -1.97787e-21)
(-0.114393 -0.0362277 1.05605e-22)
(-0.0872255 0.0134395 -5.59419e-22)
(-0.0598519 0.0643298 5.3676e-22)
(-0.0345497 0.113251 3.65777e-22)
(-0.0128984 0.156374 -3.37752e-23)
(0.00430853 0.191569 4.83823e-22)
(0.0181124 0.215276 1.32295e-21)
(0.0317495 0.22578 3.43641e-23)
(0.0492688 0.219766 -6.28848e-23)
(0.0760359 0.195446 2.66868e-22)
(0.112197 0.155536 5.65521e-22)
(0.159986 0.0987978 5.1033e-23)
(0.208003 0.0407606 6.02194e-22)
(0.26233 -0.0256466 1.07204e-22)
(0.298316 -0.075103 -9.08493e-23)
(0.337684 -0.127176 2.0508e-22)
(0.343268 -0.154921 -1.31597e-22)
(0.355748 -0.180162 4.10147e-24)
(0.333694 -0.189743 1.83891e-23)
(0.337655 -0.169888 -7.52004e-25)
(0.321117 -0.16273 -2.41734e-23)
(0.362102 -0.0565516 -2.56247e-23)
(-0.222599 0.0516801 -4.14125e-21)
(-0.226665 0.0550726 4.75755e-21)
(-0.230276 0.056922 6.97853e-22)
(-0.233407 0.0567078 -1.5703e-21)
(-0.236015 0.0539037 5.59458e-22)
(-0.238046 0.0480209 -1.03515e-21)
(-0.239425 0.0386567 -4.44328e-21)
(-0.240064 0.0255586 2.16216e-21)
(-0.239873 0.00869252 2.79435e-21)
(-0.238783 -0.0117 -2.8095e-21)
(-0.236775 -0.0350402 2.26746e-21)
(-0.23389 -0.0603957 -1.68365e-21)
(-0.230236 -0.0864986 1.48675e-21)
(-0.225955 -0.111793 -4.32754e-21)
(-0.221154 -0.134517 1.53606e-21)
(-0.215815 -0.152802 1.6154e-22)
(-0.209682 -0.164775 -2.11012e-21)
(-0.20225 -0.168682 7.7694e-22)
(-0.192733 -0.163066 5.2701e-22)
(-0.180309 -0.146961 1.17672e-21)
(-0.164221 -0.120218 -7.8286e-22)
(-0.144281 -0.0836181 2.15602e-21)
(-0.120799 -0.0391591 -1.37895e-22)
(-0.0950938 0.0104453 3.96937e-22)
(-0.0687684 0.0614872 -3.33398e-22)
(-0.0440068 0.110757 7.30438e-23)
(-0.0222285 0.154327 -1.04606e-21)
(-0.00415176 0.18994 8.02599e-22)
(0.0114305 0.213838 -6.70517e-23)
(0.0276922 0.224197 6.27414e-22)
(0.0485726 0.217634 -5.1881e-22)
(0.0790032 0.19256 -2.8768e-22)
(0.118612 0.151866 -3.08496e-22)
(0.16941 0.0947357 -6.36811e-22)
(0.219403 0.0365929 6.92799e-22)
(0.275375 -0.0292507 4.34573e-22)
(0.311886 -0.0779945 -1.1078e-21)
(0.351866 -0.128873 -1.01118e-21)
(0.356987 -0.155554 2.33481e-22)
(0.368824 -0.179787 -3.70674e-22)
(0.344689 -0.189006 -2.71939e-23)
(0.345408 -0.169397 -4.26846e-24)
(0.325369 -0.163324 5.39328e-23)
(0.361645 -0.05786 -3.40755e-23)
(-0.218454 0.0524425 -6.30901e-21)
(-0.222279 0.0557458 1.31474e-20)
(-0.22564 0.0575095 -1.0599e-20)
(-0.228507 0.0572111 2.80628e-21)
(-0.230839 0.0543213 -3.00212e-21)
(-0.232578 0.0483481 -1.25381e-21)
(-0.233652 0.0388855 5.91691e-21)
(-0.23398 0.0256794 -3.89166e-21)
(-0.23348 0.00869668 2.29856e-21)
(-0.232101 -0.0118171 -1.37299e-21)
(-0.229847 -0.0352746 6.05974e-21)
(-0.226797 -0.0607363 -3.09391e-21)
(-0.223097 -0.0869277 -9.57765e-21)
(-0.218943 -0.112294 4.98363e-21)
(-0.214489 -0.135086 -5.17564e-22)
(-0.209766 -0.153457 2.90221e-21)
(-0.204548 -0.165567 -3.82694e-21)
(-0.19834 -0.169689 -6.27262e-23)
(-0.190335 -0.16438 -3.7721e-21)
(-0.179655 -0.148662 -1.51411e-21)
(-0.165449 -0.122345 1.61911e-21)
(-0.147409 -0.0861403 -9.06999e-22)
(-0.125695 -0.0419656 6.77064e-22)
(-0.101492 0.00753499 -9.40036e-22)
(-0.0762441 0.0586797 -3.40169e-22)
(-0.0520353 0.108242 1.64171e-21)
(-0.0301186 0.152196 2.81671e-22)
(-0.0111442 0.188158 -1.31224e-21)
(0.00624774 0.212179 -7.9601e-22)
(0.0251337 0.222339 1.52852e-21)
(0.0493238 0.215202 8.54493e-22)
(0.083292 0.189389 -1.1057e-21)
(0.126174 0.147957 9.58e-22)
(0.17978 0.0905015 1.74988e-21)
(0.23157 0.0323114 -6.96505e-22)
(0.289022 -0.0329162 8.64651e-22)
(0.325974 -0.0809131 1.65218e-21)
(0.366494 -0.130567 1.40868e-21)
(0.371214 -0.156147 -3.59817e-22)
(0.382483 -0.17932 2.83807e-22)
(0.35646 -0.188097 9.39469e-23)
(0.354052 -0.168683 4.62279e-24)
(0.330594 -0.163653 -2.45869e-23)
(0.362065 -0.0590179 1.62511e-22)
(-0.213331 0.0531442 -1.94801e-21)
(-0.216881 0.0563626 3.74197e-21)
(-0.219956 0.0580457 6.69995e-21)
(-0.222524 0.0576689 -4.04717e-21)
(-0.224542 0.0547 8.44801e-21)
(-0.225953 0.0486436 -2.51869e-21)
(-0.226685 0.0390906 -1.0255e-20)
(-0.226663 0.0257853 4.98722e-21)
(-0.225816 0.00869548 -5.15842e-21)
(-0.224109 -0.0119287 3.99851e-21)
(-0.221572 -0.0354909 -2.96044e-21)
(-0.218315 -0.0610438 4.53645e-21)
(-0.214531 -0.0873059 1.85681e-21)
(-0.210464 -0.112723 -5.80545e-21)
(-0.20632 -0.13556 6.44657e-21)
(-0.202177 -0.153993 -6.54946e-21)
(-0.197842 -0.166215 6.44005e-21)
(-0.192835 -0.17053 2.28517e-21)
(-0.186326 -0.165513 2.91405e-21)
(-0.177388 -0.150178 3.45278e-22)
(-0.165075 -0.124293 3.40491e-21)
(-0.148958 -0.088502 -4.62139e-21)
(-0.129044 -0.0446427 1.27108e-21)
(-0.106376 0.00471182 -1.15425e-21)
(-0.082232 0.0559091 2.17818e-21)
(-0.0585883 0.105706 -2.0914e-21)
(-0.0365256 0.149979 1.69573e-21)
(-0.0166357 0.186222 1.04274e-21)
(0.0025817 0.2103 1.23983e-21)
(0.0240711 0.220212 1.6669e-22)
(0.0514984 0.212482 2.0241e-22)
(0.0888613 0.185949 2.22085e-22)
(0.134831 0.143824 -2.34704e-21)
(0.19104 0.0861115 -2.56884e-21)
(0.244449 0.0279301 -5.11053e-22)
(0.303216 -0.0366335 -7.49479e-22)
(0.340525 -0.0838534 -5.28449e-22)
(0.381513 -0.132259 7.27637e-22)
(0.385887 -0.156707 8.61454e-22)
(0.396664 -0.17877 3.09054e-22)
(0.368955 -0.187025 -3.95884e-23)
(0.363552 -0.167754 -3.52025e-23)
(0.336782 -0.163716 -2.1632e-23)
(0.363374 -0.0600225 -2.11395e-22)
(-0.207243 0.0537789 -4.40079e-21)
(-0.210485 0.0569164 -1.13788e-20)
(-0.213239 0.0585239 -9.96486e-21)
(-0.215473 0.0580746 1.70506e-20)
(-0.217141 0.0550332 5.3478e-22)
(-0.218187 0.048901 -1.10265e-20)
(-0.218541 0.0392657 2.24276e-20)
(-0.218132 0.02587 -1.26285e-20)
(-0.216901 0.00868289 4.7462e-21)
(-0.214827 -0.0120406 -4.3822e-21)
(-0.211967 -0.0356949 7.94095e-21)
(-0.208466 -0.0613241 -1.11112e-21)
(-0.204558 -0.0876392 4.39358e-22)
(-0.200538 -0.113087 1.56767e-21)
(-0.196664 -0.135945 2.23627e-21)
(-0.193062 -0.154414 5.82914e-22)
(-0.189576 -0.166723 -2.49557e-21)
(-0.185739 -0.171208 -4.2415e-21)
(-0.180707 -0.166467 -5.92819e-21)
(-0.173501 -0.151507 -4.17255e-21)
(-0.163083 -0.126059 2.0271e-21)
(-0.148905 -0.0907001 5.13497e-21)
(-0.130815 -0.0471869 -4.53249e-21)
(-0.10971 0.00198055 1.86167e-21)
(-0.0866931 0.0531771 -9.63721e-22)
(-0.0636266 0.103149 3.68814e-21)
(-0.0414153 0.147674 2.37292e-21)
(-0.0206021 0.18413 -1.25672e-21)
(0.000440635 0.208202 -5.45972e-21)
(0.0244934 0.21782 -1.66167e-21)
(0.0550656 0.209485 5.21344e-22)
(0.0956656 0.182257 -4.90499e-22)
(0.144528 0.139488 1.82014e-21)
(0.203133 0.0815825 4.044e-22)
(0.257986 0.0234629 -3.24984e-21)
(0.317905 -0.0403928 3.38768e-22)
(0.355488 -0.0868097 -1.86821e-21)
(0.396867 -0.133949 3.8124e-22)
(0.400946 -0.157238 2.90414e-22)
(0.411307 -0.178148 2.71852e-22)
(0.382115 -0.185805 -1.62194e-22)
(0.37387 -0.166619 6.73989e-23)
(0.343917 -0.163518 -2.4029e-23)
(0.365577 -0.0608722 3.0608e-22)
(-0.200206 0.0543403 6.86647e-21)
(-0.203106 0.057401 -9.73139e-21)
(-0.205506 0.0589378 1.89167e-20)
(-0.207371 0.0584218 -4.6974e-21)
(-0.208655 0.0553146 -2.12366e-20)
(-0.2093 0.0491141 4.30858e-21)
(-0.209239 0.0394047 1.39193e-20)
(-0.208407 0.0259276 -4.21855e-21)
(-0.206754 0.00865303 -1.79989e-20)
(-0.204278 -0.0121588 6.21008e-21)
(-0.201057 -0.0358927 -1.82147e-20)
(-0.197273 -0.0615833 3.30202e-21)
(-0.193201 -0.0879338 2.79511e-21)
(-0.189187 -0.113391 1.42264e-20)
(-0.185542 -0.136246 -1.14661e-20)
(-0.182442 -0.154726 5.94867e-21)
(-0.179766 -0.167095 4.87697e-21)
(-0.177066 -0.171727 1.08488e-20)
(-0.173484 -0.167244 -2.72069e-21)
(-0.167994 -0.15265 4.34079e-21)
(-0.159466 -0.127642 4.44283e-21)
(-0.147234 -0.0927322 -2.64443e-21)
(-0.130985 -0.0495953 -4.43779e-21)
(-0.111467 -0.000649269 3.00575e-21)
(-0.0895963 0.0504854 -2.64872e-21)
(-0.0671197 0.10057 8.23233e-22)
(-0.0447624 0.145283 -2.90247e-22)
(-0.0230285 0.181882 4.22572e-22)
(-0.00017598 0.205889 2.26592e-21)
(0.0263819 0.215173 1.97235e-21)
(0.059989 0.206223 -2.5969e-21)
(0.103656 0.178328 -1.17089e-21)
(0.15521 0.134964 2.48731e-21)
(0.216004 0.076931 -1.50534e-21)
(0.272129 0.0189237 1.42301e-21)
(0.333039 -0.0441846 -9.0029e-22)
(0.370813 -0.0897762 4.67346e-22)
(0.412505 -0.135636 -2.59991e-22)
(0.416333 -0.157746 -3.34301e-22)
(0.426351 -0.177465 3.03614e-22)
(0.395883 -0.184448 6.59127e-23)
(0.384962 -0.165288 4.55081e-23)
(0.351978 -0.163062 -3.08022e-23)
(0.368677 -0.0615658 1.32549e-22)
(-0.192235 0.0548223 -7.54536e-21)
(-0.194763 0.0578101 -9.11798e-21)
(-0.196776 0.0592813 1.60115e-20)
(-0.19824 0.0587044 -1.02874e-20)
(-0.199104 0.0555381 -4.54754e-21)
(-0.199314 0.0492769 4.43398e-22)
(-0.198804 0.0395016 6.59632e-21)
(-0.197513 0.0259523 -1.1158e-20)
(-0.195403 0.00860015 -8.46984e-21)
(-0.192487 -0.012289 1.23179e-20)
(-0.188869 -0.0360899 1.07374e-20)
(-0.184762 -0.0618274 -4.68096e-21)
(-0.180487 -0.0881958 7.55357e-21)
(-0.176439 -0.113642 -4.10131e-21)
(-0.172982 -0.13647 7.72688e-21)
(-0.17034 -0.154934 -1.35026e-20)
(-0.168434 -0.167338 -9.25262e-21)
(-0.166834 -0.172092 -1.5348e-21)
(-0.16467 -0.167847 2.46497e-22)
(-0.160872 -0.15361 -9.31991e-21)
(-0.154224 -0.129042 -2.9627e-21)
(-0.143939 -0.0945968 2.86174e-21)
(-0.12954 -0.0518658 3.16448e-21)
(-0.111625 -0.00319125 -2.60367e-21)
(-0.0909197 0.0478355 -9.89782e-23)
(-0.0690459 0.0979716 -3.78068e-21)
(-0.0465504 0.142804 -4.37445e-21)
(-0.023909 0.17948 2.02224e-21)
(0.000722857 0.203366 5.61071e-21)
(0.0297107 0.21228 3.10246e-22)
(0.0662268 0.202712 -9.25114e-22)
(0.112782 0.174183 3.93781e-22)
(0.166823 0.130273 -1.43924e-21)
(0.229599 0.0721734 3.48212e-21)
(0.286827 0.0143266 2.51806e-21)
(0.348572 -0.0479995 6.96668e-22)
(0.386454 -0.0927471 7.91109e-23)
(0.428381 -0.13732 -3.2728e-21)
(0.431992 -0.158235 -2.7013e-22)
(0.441735 -0.176731 -1.37656e-21)
(0.410198 -0.182969 2.03087e-22)
(0.396782 -0.163774 -3.29996e-23)
(0.360939 -0.162352 1.06732e-22)
(0.372672 -0.062103 3.67154e-22)
(-0.183352 0.0552194 5.9222e-21)
(-0.185476 0.0581382 1.87403e-20)
(-0.187071 0.0595485 -1.14699e-20)
(-0.1881 0.0589166 7.46423e-21)
(-0.188513 0.0556979 -1.45455e-20)
(-0.188254 0.0493835 6.12353e-21)
(-0.18726 0.0395509 -7.14753e-21)
(-0.185477 0.0259385 1.09588e-20)
(-0.182875 0.00851871 -6.2867e-22)
(-0.179485 -0.0124368 1.02817e-20)
(-0.175432 -0.0362924 -7.09659e-21)
(-0.170967 -0.0620621 -1.18785e-20)
(-0.16645 -0.0884312 -1.60518e-20)
(-0.162327 -0.113846 1.88471e-20)
(-0.159015 -0.136623 -7.85391e-21)
(-0.156789 -0.155045 1.75921e-20)
(-0.155608 -0.167456 6.87812e-21)
(-0.155065 -0.172307 -3.26042e-21)
(-0.154283 -0.16828 5.0361e-22)
(-0.152151 -0.154387 1.53589e-21)
(-0.147363 -0.13026 -1.70049e-21)
(-0.139018 -0.0962932 -5.92024e-21)
(-0.126474 -0.0539967 3.69247e-21)
(-0.110175 -0.00564413 -1.64118e-21)
(-0.090648 0.0452293 -9.85325e-23)
(-0.0693922 0.0953543 1.25495e-21)
(-0.046772 0.140241 5.77944e-21)
(-0.0232464 0.176929 -1.88512e-21)
(0.00312014 0.200639 -4.48136e-21)
(0.0344474 0.209153 2.99504e-22)
(0.0737328 0.198967 2.09111e-21)
(0.122988 0.169838 5.2747e-21)
(0.179309 0.125433 8.88095e-22)
(0.243865 0.0673256 -3.9888e-21)
(0.302033 0.00968521 -1.2128e-21)
(0.364461 -0.0518281 3.23239e-22)
(0.402368 -0.0957162 2.83644e-21)
(0.444447 -0.138997 1.32067e-21)
(0.447871 -0.158709 2.57527e-23)
(0.457402 -0.175957 5.01355e-22)
(0.424998 -0.181382 -2.32972e-22)
(0.409281 -0.162089 1.14854e-22)
(0.37077 -0.161396 2.19189e-22)
(0.377557 -0.0624841 -9.99681e-22)
(-0.173574 0.0555264 -2.41897e-20)
(-0.175266 0.0583799 2.92411e-21)
(-0.176413 0.0597339 1.8835e-21)
(-0.176977 0.0590527 1.50507e-20)
(-0.176907 0.0557883 -1.25932e-20)
(-0.176147 0.0494284 3.19571e-21)
(-0.174638 0.039547 -9.8381e-21)
(-0.172328 0.0258808 -3.14886e-21)
(-0.169202 0.00840342 -1.93534e-21)
(-0.165302 -0.0126075 1.82162e-20)
(-0.160781 -0.0365054 2.65867e-24)
(-0.15592 -0.0622933 -1.1003e-20)
(-0.151124 -0.0886463 1.52708e-20)
(-0.146887 -0.11401 -1.59919e-20)
(-0.143678 -0.136713 -4.11809e-21)
(-0.141823 -0.155067 -6.22105e-21)
(-0.141321 -0.167457 -4.7127e-21)
(-0.141791 -0.172378 5.56444e-21)
(-0.14235 -0.168547 2.751e-23)
(-0.141848 -0.154985 -2.41842e-21)
(-0.138898 -0.131297 1.02998e-20)
(-0.13248 -0.0978216 8.04292e-21)
(-0.121789 -0.0559869 3.07654e-21)
(-0.107112 -0.00798945 -5.41316e-21)
(-0.0887763 0.0426688 9.27898e-21)
(-0.0681545 0.0927202 -8.36032e-21)
(-0.0454285 0.137595 -4.7278e-21)
(-0.0210519 0.174231 2.24282e-21)
(0.00699146 0.197717 -1.80223e-21)
(0.040554 0.205804 -3.94324e-21)
(0.0824575 0.195006 -4.91347e-21)
(0.134221 0.165313 -1.81384e-21)
(0.192615 0.120462 1.58484e-21)
(0.258752 0.0624035 5.97238e-22)
(0.317702 0.00501006 1.21938e-21)
(0.380665 -0.0556614 -4.16857e-21)
(0.418517 -0.0986778 -1.49811e-21)
(0.460665 -0.140668 -1.26334e-21)
(0.46392 -0.159172 -1.15152e-21)
(0.473294 -0.175151 -2.86848e-22)
(0.440221 -0.179701 -2.21726e-22)
(0.422407 -0.160246 -4.07331e-22)
(0.381437 -0.160202 -4.87602e-22)
(0.383321 -0.0627105 -6.8747e-22)
(-0.162924 0.0557384 1.47434e-20)
(-0.164156 0.0585301 1.82881e-20)
(-0.164827 0.0598326 -1.90832e-20)
(-0.164898 0.0591076 1.16992e-20)
(-0.164314 0.0558043 -4.0719e-22)
(-0.163023 0.0494066 1.53324e-21)
(-0.160966 0.0394849 9.71224e-21)
(-0.1581 0.0257743 -2.94141e-20)
(-0.154416 0.0082493 2.85144e-20)
(-0.149974 -0.0128061 -3.24405e-20)
(-0.144951 -0.0367343 3.06324e-21)
(-0.139661 -0.0625263 1.96991e-20)
(-0.13455 -0.0888467 -9.72325e-21)
(-0.13016 -0.114139 1.25338e-20)
(-0.127012 -0.136745 8.41857e-21)
(-0.125483 -0.155006 -1.01843e-20)
(-0.125612 -0.167347 2.436e-21)
(-0.127046 -0.172312 -5.46545e-21)
(-0.128901 -0.168654 2.49215e-21)
(-0.129991 -0.155408 -1.57703e-21)
(-0.128849 -0.132156 -7.46567e-21)
(-0.124339 -0.0991824 2.36031e-21)
(-0.115494 -0.0578358 -9.544e-21)
(-0.102442 -0.0102368 -1.26101e-21)
(-0.0853083 0.0401559 -6.24828e-21)
(-0.0653373 0.0900722 6.86511e-21)
(-0.0425298 0.134871 1.02784e-22)
(-0.0173445 0.171395 1.76359e-21)
(0.0123057 0.19461 2.21255e-21)
(0.0479875 0.202247 4.22123e-22)
(0.0923483 0.190845 6.09084e-21)
(0.146425 0.160627 1.58435e-21)
(0.206686 0.115378 -4.22477e-21)
(0.274212 0.0574221 -2.41269e-22)
(0.333792 0.000313022 -3.84783e-22)
(0.397147 -0.0594906 5.19077e-21)
(0.434865 -0.101626 5.08195e-22)
(0.476996 -0.142329 8.34003e-22)
(0.480093 -0.159626 1.95514e-21)
(0.489358 -0.174324 4.29867e-23)
(0.455806 -0.17794 7.16229e-23)
(0.436104 -0.158261 9.76994e-25)
(0.392901 -0.158779 5.96186e-23)
(0.389951 -0.0627841 1.14646e-21)
(-0.151422 0.0558513 -1.99071e-20)
(-0.15217 0.0585844 -1.5854e-20)
(-0.152339 0.0598398 4.18405e-20)
(-0.151888 0.0590766 2.07807e-21)
(-0.150764 0.055741 -2.64324e-20)
(-0.148912 0.0493131 2.39899e-20)
(-0.146279 0.0393598 2.49274e-21)
(-0.142825 0.0256141 -2.21566e-20)
(-0.138553 0.00805165 7.94597e-21)
(-0.133539 -0.0130374 4.2123e-21)
(-0.127982 -0.0369839 -6.04716e-21)
(-0.122231 -0.0627663 -3.06053e-21)
(-0.11677 -0.0890382 1.55364e-20)
(-0.11219 -0.114241 -3.86163e-21)
(-0.109063 -0.136728 -5.92383e-21)
(-0.107814 -0.154869 6.20272e-21)
(-0.108525 -0.167135 -1.16004e-20)
(-0.110873 -0.172115 6.07271e-21)
(-0.113974 -0.168607 -1.60473e-21)
(-0.116613 -0.155661 4.49547e-21)
(-0.117242 -0.132838 5.54987e-22)
(-0.114618 -0.100377 7.95947e-21)
(-0.107606 -0.0595434 4.26055e-21)
(-0.096179 -0.0123869 1.06027e-21)
(-0.0802549 0.0376927 -3.39455e-21)
(-0.0609533 0.0874131 -6.97125e-22)
(-0.0380938 0.132074 -6.81363e-22)
(-0.0121507 0.168426 1.1572e-21)
(0.0190255 0.191328 -3.39255e-21)
(0.0567009 0.198499 3.27779e-21)
(0.103351 0.186503 -1.78877e-21)
(0.159545 0.155799 2.4946e-22)
(0.221472 0.1102 1.19948e-21)
(0.290198 0.0523961 -1.1151e-21)
(0.350264 -0.0043917 4.7248e-21)
(0.413872 -0.0633072 -9.51505e-21)
(0.451378 -0.104554 4.05181e-22)
(0.493407 -0.143978 -1.64718e-21)
(0.496349 -0.160074 -1.1083e-22)
(0.505541 -0.173483 3.67971e-22)
(0.471692 -0.176113 9.84134e-23)
(0.450317 -0.15615 3.78952e-23)
(0.40512 -0.157139 4.25784e-22)
(0.39743 -0.0627076 -9.62186e-22)
(-0.13909 0.0558614 2.97234e-20)
(-0.139331 0.0585391 1.92768e-20)
(-0.138974 0.0597515 -6.73056e-21)
(-0.137977 0.0589555 -4.25199e-21)
(-0.136285 0.055594 1.50225e-21)
(-0.133846 0.0491436 4.21044e-20)
(-0.130609 0.0391672 -1.82878e-20)
(-0.126539 0.025396 9.3838e-21)
(-0.121652 0.00780606 -1.04723e-20)
(-0.116036 -0.0133059 7.30362e-21)
(-0.109915 -0.0372587 1.47654e-20)
(-0.103672 -0.0630182 -3.50029e-20)
(-0.0978295 -0.089226 -4.74778e-21)
(-0.0930262 -0.11432 5.61267e-21)
(-0.0898801 -0.136667 9.45366e-21)
(-0.0888668 -0.154664 4.13044e-21)
(-0.0901096 -0.166827 2.6429e-21)
(-0.0933164 -0.171796 -2.38235e-21)
(-0.0976104 -0.168411 -2.80894e-21)
(-0.101749 -0.155748 -8.39982e-21)
(-0.104112 -0.133349 9.02652e-21)
(-0.103345 -0.101408 -9.08676e-21)
(-0.098149 -0.0611097 -2.89791e-21)
(-0.0883424 -0.0144318 3.10248e-21)
(-0.0736352 0.0352817 -4.45916e-22)
(-0.0550231 0.0847465 4.98586e-21)
(-0.0321459 0.129211 -3.68685e-21)
(-0.0055035 0.165332 4.69515e-21)
(0.0271086 0.187884 7.37726e-22)
(0.0666436 0.194573 9.6525e-22)
(0.115409 0.181998 2.12978e-21)
(0.173525 0.150847 -2.69214e-21)
(0.236921 0.104944 -2.08555e-21)
(0.306668 0.0473394 -3.12947e-22)
(0.36708 -0.00909284 6.90279e-21)
(0.430808 -0.0671029 8.24872e-21)
(0.468027 -0.107456 3.45434e-21)
(0.509867 -0.145612 2.50617e-21)
(0.512648 -0.160517 1.6701e-21)
(0.521796 -0.172637 6.01017e-23)
(0.48782 -0.174235 -1.41485e-22)
(0.464988 -0.153927 -8.91032e-23)
(0.418047 -0.155292 1.33134e-22)
(0.405734 -0.0624848 9.00148e-22)
(-0.125949 0.0557657 -3.12046e-22)
(-0.125663 0.0583907 -2.28843e-20)
(-0.124759 0.0595641 2.77083e-20)
(-0.123193 0.0587405 1.59196e-20)
(-0.12091 0.0553595 -8.00364e-22)
(-0.117859 0.0488941 -3.51992e-20)
(-0.113991 0.0389032 -5.43309e-21)
(-0.10928 0.0251159 1.06905e-21)
(-0.103749 0.00750856 -1.71387e-20)
(-0.097505 -0.0136153 -6.35145e-21)
(-0.0907937 -0.0375628 1.89223e-20)
(-0.0840307 -0.0632862 -2.23906e-20)
(-0.077778 -0.089415 2.41605e-20)
(-0.0727185 -0.114383 -1.91848e-20)
(-0.0695167 -0.136569 2.017e-20)
(-0.0686952 -0.154398 -1.90979e-20)
(-0.0704185 -0.166431 9.71668e-21)
(-0.0744287 -0.171361 -4.76648e-21)
(-0.0798588 -0.168076 -1.38362e-21)
(-0.0854453 -0.155675 3.0295e-21)
(-0.0894969 -0.133691 -8.93383e-22)
(-0.0905542 -0.102276 -8.50674e-22)
(-0.0871538 -0.0625353 1.87501e-21)
(-0.0789602 -0.0163712 -9.01819e-21)
(-0.0654759 0.0329252 5.87159e-21)
(-0.0475744 0.0820765 -1.19099e-21)
(-0.0247184 0.126287 6.03356e-21)
(0.00255798 0.162123 3.58207e-21)
(0.0365081 0.184291 2.33263e-21)
(0.0777624 0.190488 -7.54403e-21)
(0.128467 0.177347 -1.38917e-21)
(0.188311 0.145791 3.12314e-21)
(0.252986 0.0996264 4.52781e-21)
(0.32358 0.0422656 1.73427e-21)
(0.384208 -0.0137802 -1.39392e-20)
(0.447927 -0.0708696 -5.95235e-21)
(0.484785 -0.110327 -4.36838e-21)
(0.526348 -0.147228 2.82609e-21)
(0.528957 -0.160955 -4.81457e-21)
(0.538077 -0.171793 4.37432e-22)
(0.50413 -0.172318 4.02634e-22)
(0.480057 -0.151609 6.38021e-22)
(0.431632 -0.153253 -2.8069e-22)
(0.414839 -0.0621197 -1.03756e-24)
(-0.11202 0.0555621 -3.5125e-20)
(-0.11119 0.0581367 3.55243e-20)
(-0.109719 0.0592748 -1.12769e-20)
(-0.107564 0.0584284 -1.91211e-20)
(-0.104668 0.0550341 5.30662e-21)
(-0.100983 0.0485612 3.21425e-20)
(-0.0964612 0.0385642 -2.07619e-20)
(-0.0910843 0.0247703 1.17667e-20)
(-0.0848865 0.00715577 1.81329e-20)
(-0.0779887 -0.0139691 -2.30957e-21)
(-0.0706624 -0.0378997 4.37938e-21)
(-0.063355 -0.0635743 -1.1118e-20)
(-0.056666 -0.0896095 -8.63464e-21)
(-0.0513214 -0.114435 1.17318e-21)
(-0.0480295 -0.13644 4.90416e-21)
(-0.0473575 -0.154079 1.61361e-20)
(-0.0495104 -0.165957 -3.63716e-21)
(-0.0542661 -0.170819 -1.06509e-20)
(-0.0607718 -0.167607 -3.13891e-21)
(-0.0677486 -0.155449 1.01847e-20)
(-0.0734402 -0.13387 -2.5066e-21)
(-0.076285 -0.102985 -7.94834e-21)
(-0.0746565 -0.0638212 7.0205e-21)
(-0.0680664 -0.018206 6.86857e-21)
(-0.0558101 0.0306256 1.21402e-21)
(-0.0386415 0.0794092 1.96254e-21)
(-0.0158491 0.123305 8.05756e-22)
(0.0119899 0.158811 -5.05901e-21)
(0.0471731 0.180562 -3.01658e-21)
(0.0900025 0.186258 5.14322e-21)
(0.142467 0.17257 4.8941e-21)
(0.203852 0.140647 1.42811e-21)
(0.269621 0.0942644 -5.85993e-21)
(0.340896 0.0371873 5.43709e-21)
(0.401615 -0.0184437 3.36306e-21)
(0.465201 -0.0745998 -2.21955e-21)
(0.501627 -0.11316 1.27252e-21)
(0.542827 -0.148822 -1.88625e-21)
(0.545244 -0.16139 2.49824e-21)
(0.554343 -0.170956 -5.00351e-22)
(0.520569 -0.170376 -2.18715e-22)
(0.495468 -0.149213 -3.54596e-22)
(0.445823 -0.151035 -4.26868e-22)
(0.424715 -0.0616176 3.00786e-22)
(-0.0973193 0.0552489 1.55905e-20)
(-0.0959318 0.0577754 1.83491e-21)
(-0.0938801 0.0588814 1.14527e-21)
(-0.0911184 0.0580168 -2.45698e-21)
(-0.0875916 0.0546152 -1.16314e-20)
(-0.0832509 0.0481418 -8.76832e-21)
(-0.0780549 0.0381473 -5.63855e-21)
(-0.0719902 0.0243564 1.80301e-20)
(-0.0651031 0.00674488 6.50731e-21)
(-0.0575301 -0.0143707 2.62126e-21)
(-0.0495672 -0.0382727 -2.28704e-20)
(-0.041694 -0.0638858 3.20573e-20)
(-0.0345465 -0.0898134 -1.24656e-20)
(-0.0288915 -0.114481 2.02997e-20)
(-0.0254783 -0.136286 -9.58605e-21)
(-0.0249159 -0.153713 -1.91264e-20)
(-0.027448 -0.165411 2.79263e-21)
(-0.0328898 -0.170179 2.13067e-20)
(-0.0404075 -0.167013 -1.03455e-20)
(-0.0487127 -0.155077 7.92445e-21)
(-0.0559909 -0.133891 3.74166e-21)
(-0.0605825 -0.103537 7.18987e-21)
(-0.0606989 -0.0649685 -1.50696e-21)
(-0.0557006 -0.0199357 -8.28254e-21)
(-0.0446765 0.0283858 -5.77907e-21)
(-0.0282647 0.0767524 -2.76943e-21)
(-0.00558175 0.120271 -7.48539e-21)
(0.022744 0.155407 3.39176e-21)
(0.0590499 0.176711 2.41149e-21)
(0.103308 0.181902 -9.60759e-22)
(0.157355 0.167685 -4.37226e-21)
(0.220096 0.135433 -8.16439e-22)
(0.286783 0.0888727 2.62359e-22)
(0.358581 0.0321166 -3.52998e-21)
(0.419273 -0.0230733 -1.21893e-21)
(0.482606 -0.078286 9.90888e-21)
(0.518531 -0.11595 -5.06925e-21)
(0.559281 -0.15039 2.01706e-21)
(0.561483 -0.161819 1.34019e-21)
(0.570556 -0.170131 -9.28277e-22)
(0.537083 -0.16842 6.92307e-23)
(0.511159 -0.146754 3.48524e-23)
(0.460566 -0.148653 3.12382e-22)
(0.43533 -0.0609839 -2.33209e-22)
(-0.0818643 0.0548258 3.90932e-20)
(-0.0799096 0.0573056 -4.77292e-20)
(-0.0772647 0.0583824 4.2414e-20)
(-0.073883 0.0575038 -2.15266e-20)
(-0.0697093 0.0541004 2.08042e-20)
(-0.0646965 0.0476337 -3.50511e-20)
(-0.0588073 0.0376501 3.7856e-20)
(-0.0520358 0.0238717 -1.99904e-20)
(-0.04444 0.00627331 -1.59156e-21)
(-0.0361728 -0.0148225 -6.8546e-21)
(-0.0275549 -0.0386843 2.54117e-20)
(-0.0190983 -0.0642233 -2.80144e-20)
(-0.0114741 -0.0900299 -1.29685e-20)
(-0.00548766 -0.114524 -2.57053e-21)
(-0.00192587 -0.136113 2.08512e-20)
(-0.00143597 -0.153308 1.14195e-20)
(-0.00429807 -0.164802 -1.84801e-20)
(-0.0103658 -0.169449 -1.49687e-20)
(-0.0188286 -0.166303 -5.59082e-21)
(-0.028396 -0.154566 -1.34999e-20)
(-0.0372025 -0.133758 1.05448e-20)
(-0.043496 -0.103937 -2.3235e-21)
(-0.0453275 -0.0659787 -2.97578e-21)
(-0.0419073 -0.0215591 1.32541e-21)
(-0.0321191 0.026211 3.54479e-21)
(-0.0164896 0.0741054 4.03318e-21)
(0.00603509 0.117198 2.46e-21)
(0.0347688 0.151921 -2.95952e-21)
(0.0720829 0.172753 -1.86311e-21)
(0.117621 0.177437 -6.30231e-21)
(0.173074 0.162708 -5.91229e-21)
(0.236994 0.130166 5.98413e-21)
(0.304432 0.0834659 2.30172e-21)
(0.3766 0.0270651 1.64367e-21)
(0.437152 -0.0276597 1.5987e-21)
(0.500118 -0.0819212 -4.34241e-21)
(0.535476 -0.118691 1.45389e-21)
(0.575691 -0.151928 -2.75708e-21)
(0.577649 -0.162243 -4.57584e-21)
(0.586682 -0.169323 7.38904e-22)
(0.553622 -0.166461 -5.6773e-23)
(0.527074 -0.14425 -5.01238e-22)
(0.475803 -0.146122 -3.81057e-22)
(0.446646 -0.0602252 -5.71631e-22)
(-0.0656678 0.0542931 4.17346e-20)
(-0.0631404 0.0567273 -2.35134e-20)
(-0.0598945 0.0577773 -3.725e-21)
(-0.0558826 0.0568883 1.08489e-20)
(-0.0510499 0.0534883 -9.09246e-21)
(-0.0453509 0.047035 -3.80026e-20)
(-0.038753 0.0370702 1.75652e-20)
(-0.0312584 0.0233134 -2.97106e-21)
(-0.0229377 0.00573786 1.01429e-20)
(-0.0139607 -0.0153254 -4.14398e-20)
(-0.00467299 -0.0391358 1.02389e-20)
(0.00438066 -0.0645887 2.96393e-20)
(0.0124952 -0.0902611 -1.8765e-20)
(0.0188293 -0.114568 2.92432e-21)
(0.0225626 -0.135925 5.66713e-21)
(0.0230135 -0.15287 -7.53427e-21)
(0.0198687 -0.164138 1.13571e-20)
(0.0132357 -0.16864 1.30356e-20)
(0.0038972 -0.165486 6.0205e-21)
(-0.00686138 -0.153925 7.08803e-21)
(-0.0171329 -0.133478 -8.66403e-21)
(-0.0250791 -0.104188 -1.93208e-22)
(-0.0285927 -0.0668536 -6.22862e-22)
(-0.0267352 -0.0230744 2.16375e-21)
(-0.0181869 0.0241082 -2.92338e-21)
(-0.00336517 0.0714658 -2.34284e-22)
(0.0189501 0.114098 2.47757e-21)
(0.0480094 0.148365 4.41319e-21)
(0.0862146 0.168701 -4.27837e-21)
(0.132886 0.172878 5.00754e-22)
(0.189572 0.157658 7.764e-21)
(0.254499 0.124861 -1.36591e-20)
(0.322528 0.0780578 -4.65366e-22)
(0.394922 0.0220436 -1.15835e-20)
(0.455228 -0.0321942 5.41237e-21)
(0.517715 -0.0854987 6.74294e-21)
(0.552442 -0.121378 2.2429e-21)
(0.59204 -0.153433 1.60018e-21)
(0.593721 -0.162659 5.65641e-21)
(0.602691 -0.168535 -7.46111e-22)
(0.570139 -0.16451 -1.15135e-22)
(0.543156 -0.141715 4.44213e-22)
(0.491476 -0.143459 2.84655e-22)
(0.458626 -0.0593484 -7.96348e-22)
(-0.0456384 0.0560412 -2.97833e-20)
(-0.041788 0.057066 2.53702e-20)
(-0.03714 0.0561699 1.27801e-20)
(-0.0316399 0.0527781 2.29841e-20)
(-0.0252442 0.0463442 3.31772e-21)
(-0.0179255 0.0364055 1.3192e-20)
(-0.0096948 0.022677 -4.63251e-20)
(-0.000635892 0.00513659 8.89113e-21)
(0.00906294 -0.0158771 6.81932e-21)
(0.019031 -0.0396272 1.94427e-20)
(0.0286908 -0.0649825 1.31064e-20)
(0.0373044 -0.0905087 9.13694e-21)
(0.0439972 -0.114615 1.87249e-20)
(0.0479197 -0.135726 -3.61547e-20)
(0.0483611 -0.152404 2.15815e-20)
(0.0449782 -0.163424 7.28847e-21)
(0.0378402 -0.167762 1.61796e-21)
(0.0276978 -0.164572 6.97175e-21)
(0.0158236 -0.153161 -1.03063e-20)
(0.00415589 -0.133059 8.51981e-21)
(-0.00538926 -0.104294 -6.57078e-21)
(-0.0105487 -0.0675926 -6.99261e-22)
(-0.010236 -0.0244814 4.08605e-21)
(-0.00293275 0.0220712 -2.87498e-21)
(0.011055 0.0688472 3.56089e-21)
(0.0331091 0.110979 -2.58235e-21)
(0.0624091 0.144749 1.56597e-21)
(0.101387 0.164571 -1.26693e-22)
(0.149046 0.168243 1.01332e-20)
(0.206796 0.152551 2.31949e-22)
(0.272566 0.119534 8.86616e-21)
(0.341036 0.0726616 2.60623e-21)
(0.413517 0.0170625 -8.06809e-22)
(0.473475 -0.0366681 -6.92754e-22)
(0.535376 -0.0890118 -6.34894e-21)
(0.569412 -0.124005 1.81936e-21)
(0.608312 -0.1549 -9.06537e-22)
(0.60968 -0.163065 -2.71389e-21)
(0.618555 -0.167768 3.50343e-22)
(0.586592 -0.162576 5.84748e-23)
(0.559349 -0.139164 -2.40858e-22)
(0.507525 -0.14068 -1.12044e-22)
(0.471227 -0.0583609 8.85237e-22)
(-0.0274141 0.0552491 -2.1698e-20)
(-0.0229605 0.0562489 2.7037e-20)
(-0.017675 0.0553488 -3.15706e-20)
(-0.0115034 0.0519708 -1.52577e-21)
(-0.00440454 0.0455619 2.68692e-20)
(0.00364304 0.0356568 -5.19597e-20)
(0.0126196 0.0219658 3.52822e-20)
(0.0224274 0.00447082 -2.92873e-20)
(0.0328557 -0.0164825 2.55414e-20)
(0.0435094 -0.0401604 -4.47662e-21)
(0.0537799 -0.0654062 5.30299e-21)
(0.0628956 -0.0907742 -2.48095e-20)
(0.0699526 -0.114668 -2.40473e-20)
(0.0740766 -0.13552 -1.92278e-21)
(0.0745334 -0.151916 -1.08783e-20)
(0.0709531 -0.16267 -7.28179e-21)
(0.0633693 -0.166822 3.07876e-21)
(0.0524972 -0.163568 -9.32187e-21)
(0.0395866 -0.152271 1.54855e-20)
(0.0265971 -0.132519 -8.27715e-21)
(0.0155129 -0.104261 -2.60193e-21)