/*--------------------------------*- C++ -*----------------------------------*\
  =========                 |
  \\      /  F ield         | OpenFOAM: The Open Source CFD Toolbox
   \\    /   O peration     | Website:  https://openfoam.org
    \\  /    A nd           | Version:  7
     \\/     M anipulation  |
\*---------------------------------------------------------------------------*/
FoamFile
{
    version     2.0;
    format      ascii;
    class       volScalarField;
    location    "55";
    object      p;
}
// * * * * * * * * * * * * * * * * * * * * * * * * * * * * * * * * * * * * * //

dimensions      [0 2 -2 0 0 0 0];

internalField   nonuniform List<scalar> 
34000
(
-0.229211
-0.2303
-0.23096
-0.231523
-0.232015
-0.232437
-0.232808
-0.23314
-0.233444
-0.233724
-0.233987
-0.234233
-0.234466
-0.234686
-0.234894
-0.235093
-0.235283
-0.235471
-0.235654
-0.235838
-0.2292
-0.23029
-0.230951
-0.231514
-0.232005
-0.232427
-0.232796
-0.233127
-0.233428
-0.233706
-0.233965
-0.234208
-0.234436
-0.23465
-0.234852
-0.235042
-0.235224
-0.235401
-0.235572
-0.23574
-0.229238
-0.230326
-0.230985
-0.231546
-0.232035
-0.232454
-0.232821
-0.233149
-0.233447
-0.23372
-0.233974
-0.234212
-0.234433
-0.23464
-0.234833
-0.235013
-0.235184
-0.235349
-0.235506
-0.235656
-0.229325
-0.230407
-0.231062
-0.23162
-0.232105
-0.23252
-0.232883
-0.233206
-0.233498
-0.233766
-0.234014
-0.234243
-0.234456
-0.234654
-0.234836
-0.235005
-0.235163
-0.235315
-0.235456
-0.235585
-0.229459
-0.230533
-0.231183
-0.231735
-0.232215
-0.232624
-0.232981
-0.233297
-0.233583
-0.233843
-0.234082
-0.234303
-0.234506
-0.234692
-0.234862
-0.235018
-0.235161
-0.235298
-0.235422
-0.235526
-0.229641
-0.230703
-0.231346
-0.231891
-0.232364
-0.232766
-0.233115
-0.233423
-0.2337
-0.233951
-0.234181
-0.23439
-0.234582
-0.234755
-0.234911
-0.235051
-0.235177
-0.235298
-0.235402
-0.235479
-0.229869
-0.230918
-0.231551
-0.232088
-0.232552
-0.232945
-0.233285
-0.233583
-0.23385
-0.23409
-0.234308
-0.234505
-0.234682
-0.23484
-0.23498
-0.235102
-0.23521
-0.235312
-0.235395
-0.235442
-0.230144
-0.231176
-0.231798
-0.232324
-0.232778
-0.23316
-0.233489
-0.233777
-0.234031
-0.234259
-0.234463
-0.234645
-0.234807
-0.234948
-0.235069
-0.235171
-0.235259
-0.235341
-0.235401
-0.235414
-0.230464
-0.231476
-0.232086
-0.2326
-0.233041
-0.233412
-0.233728
-0.234003
-0.234244
-0.234457
-0.234645
-0.234811
-0.234954
-0.235076
-0.235176
-0.235257
-0.235321
-0.235382
-0.235417
-0.235393
-0.230829
-0.231819
-0.232414
-0.232915
-0.233342
-0.233699
-0.234001
-0.23426
-0.234486
-0.234682
-0.234853
-0.235
-0.235124
-0.235224
-0.235301
-0.235357
-0.235396
-0.235432
-0.235441
-0.235377
-0.231236
-0.232202
-0.232781
-0.233267
-0.233679
-0.23402
-0.234306
-0.234549
-0.234757
-0.234935
-0.235087
-0.235213
-0.235314
-0.235389
-0.235441
-0.235469
-0.23548
-0.235491
-0.23547
-0.235362
-0.231685
-0.232625
-0.233187
-0.233656
-0.234051
-0.234374
-0.234643
-0.234867
-0.235056
-0.235214
-0.235344
-0.235447
-0.235523
-0.235572
-0.235595
-0.235593
-0.235572
-0.235554
-0.235503
-0.235345
-0.232175
-0.233087
-0.23363
-0.23408
-0.234457
-0.234762
-0.23501
-0.235214
-0.235381
-0.235517
-0.235623
-0.235701
-0.235749
-0.235769
-0.23576
-0.235725
-0.23567
-0.23562
-0.235535
-0.235323
-0.232704
-0.233586
-0.23411
-0.23454
-0.234896
-0.23518
-0.235408
-0.235589
-0.235733
-0.235844
-0.235924
-0.235973
-0.235992
-0.235979
-0.235936
-0.235863
-0.23577
-0.235685
-0.235564
-0.235292
-0.233271
-0.234122
-0.234624
-0.235034
-0.235368
-0.235629
-0.235833
-0.235991
-0.236109
-0.236193
-0.236244
-0.236264
-0.23625
-0.236201
-0.236119
-0.236006
-0.23587
-0.235746
-0.235586
-0.235245
-0.233874
-0.234694
-0.235174
-0.23556
-0.235871
-0.236108
-0.236287
-0.236418
-0.236508
-0.236563
-0.236584
-0.23657
-0.236521
-0.236434
-0.23631
-0.236152
-0.235968
-0.235801
-0.235598
-0.235178
-0.234514
-0.2353
-0.235756
-0.236119
-0.236404
-0.236615
-0.236767
-0.236869
-0.23693
-0.236953
-0.236941
-0.236892
-0.236804
-0.236675
-0.236505
-0.236298
-0.236061
-0.235846
-0.235598
-0.235084
-0.235188
-0.23594
-0.236371
-0.236708
-0.236967
-0.23715
-0.237272
-0.237344
-0.237373
-0.237362
-0.237314
-0.237227
-0.237098
-0.236924
-0.236705
-0.236442
-0.236148
-0.235877
-0.235581
-0.234955
-0.235896
-0.236613
-0.237019
-0.237329
-0.237559
-0.237712
-0.237803
-0.237841
-0.237836
-0.23779
-0.237704
-0.237576
-0.237402
-0.23718
-0.236907
-0.236585
-0.236225
-0.235893
-0.235544
-0.234765
-0.236637
-0.237319
-0.237697
-0.237979
-0.238178
-0.238299
-0.238357
-0.238361
-0.238318
-0.238234
-0.238108
-0.237937
-0.237716
-0.237442
-0.237111
-0.236725
-0.236293
-0.235892
-0.235487
-0.234487
-0.237411
-0.238056
-0.238406
-0.238658
-0.238825
-0.238912
-0.238934
-0.2389
-0.238819
-0.238694
-0.238525
-0.238309
-0.238039
-0.23771
-0.237317
-0.236861
-0.236351
-0.235871
-0.235414
-0.234263
-0.238216
-0.238824
-0.239146
-0.239366
-0.239499
-0.23955
-0.239534
-0.23946
-0.239338
-0.23917
-0.238956
-0.238692
-0.23837
-0.237983
-0.237525
-0.236994
-0.236397
-0.235828
-0.235267
-0.234003
-0.239053
-0.239624
-0.239915
-0.240102
-0.2402
-0.240212
-0.240155
-0.24004
-0.239874
-0.239661
-0.2394
-0.239086
-0.23871
-0.238262
-0.237735
-0.237124
-0.236434
-0.235767
-0.235098
-0.23365
-0.239922
-0.240456
-0.240715
-0.240868
-0.240927
-0.240898
-0.240798
-0.240638
-0.240426
-0.240166
-0.239855
-0.239489
-0.239058
-0.238548
-0.237948
-0.237252
-0.236461
-0.235685
-0.234905
-0.233211
-0.240824
-0.241319
-0.241546
-0.241662
-0.24168
-0.241608
-0.241462
-0.241255
-0.240994
-0.240684
-0.240323
-0.239903
-0.239414
-0.23884
-0.238166
-0.237381
-0.236482
-0.235584
-0.234683
-0.232687
-0.241758
-0.242215
-0.242408
-0.242484
-0.24246
-0.242342
-0.242148
-0.24189
-0.241578
-0.241215
-0.240801
-0.240326
-0.239778
-0.239138
-0.238388
-0.237512
-0.236498
-0.235466
-0.234436
-0.232071
-0.242727
-0.243144
-0.243301
-0.243337
-0.243267
-0.2431
-0.242854
-0.242543
-0.242177
-0.24176
-0.24129
-0.240758
-0.24015
-0.239444
-0.238617
-0.237647
-0.236513
-0.235335
-0.234166
-0.231359
-0.24373
-0.244108
-0.244227
-0.24422
-0.244101
-0.243882
-0.243582
-0.243214
-0.242791
-0.242316
-0.241789
-0.241199
-0.24053
-0.239757
-0.238853
-0.237789
-0.23653
-0.235194
-0.23388
-0.230547
-0.244771
-0.245108
-0.245188
-0.245135
-0.244965
-0.24469
-0.244331
-0.243903
-0.24342
-0.242885
-0.242298
-0.241648
-0.240917
-0.240077
-0.239096
-0.237938
-0.236554
-0.235049
-0.233587
-0.229634
-0.245851
-0.246145
-0.246184
-0.246083
-0.245858
-0.245524
-0.245102
-0.244611
-0.244064
-0.243466
-0.242816
-0.242104
-0.24131
-0.240404
-0.239347
-0.238095
-0.236585
-0.234903
-0.233293
-0.228622
-0.246973
-0.247223
-0.247219
-0.247065
-0.246782
-0.246385
-0.245897
-0.245339
-0.244723
-0.244059
-0.243344
-0.242568
-0.24171
-0.240737
-0.239604
-0.238262
-0.236628
-0.234761
-0.233007
-0.22752
-0.248139
-0.248344
-0.248293
-0.248085
-0.247739
-0.247274
-0.246716
-0.246086
-0.245399
-0.244664
-0.243881
-0.243038
-0.242115
-0.241074
-0.239868
-0.238437
-0.236682
-0.234626
-0.232734
-0.226338
-0.249353
-0.249511
-0.249411
-0.249143
-0.248731
-0.248195
-0.247562
-0.246855
-0.246092
-0.245283
-0.244428
-0.243516
-0.242525
-0.241416
-0.240137
-0.238619
-0.236748
-0.234502
-0.232476
-0.225095
-0.250618
-0.250727
-0.250574
-0.250244
-0.249761
-0.249148
-0.248436
-0.247648
-0.246804
-0.245916
-0.244985
-0.244001
-0.24294
-0.241762
-0.24041
-0.23881
-0.236826
-0.234393
-0.232229
-0.223817
-0.25194
-0.251996
-0.251788
-0.251391
-0.250832
-0.250138
-0.24934
-0.248466
-0.247537
-0.246566
-0.245555
-0.244494
-0.243361
-0.242112
-0.240688
-0.239008
-0.236918
-0.23431
-0.23199
-0.222555
-0.253323
-0.253322
-0.253054
-0.252586
-0.251946
-0.251165
-0.250278
-0.249313
-0.248294
-0.247235
-0.246139
-0.244999
-0.243789
-0.242469
-0.240973
-0.239217
-0.237027
-0.234268
-0.231756
-0.221395
-0.254771
-0.25471
-0.254379
-0.253834
-0.253108
-0.252235
-0.251253
-0.250191
-0.249077
-0.247925
-0.246742
-0.245517
-0.244229
-0.242835
-0.241269
-0.239443
-0.23716
-0.23429
-0.231491
-0.220367
-0.256292
-0.256165
-0.255765
-0.255139
-0.254322
-0.253352
-0.252268
-0.251105
-0.249891
-0.248642
-0.247365
-0.246054
-0.244684
-0.243215
-0.241582
-0.239698
-0.23734
-0.234429
-0.231104
-0.219255
-0.257891
-0.257693
-0.257219
-0.256506
-0.255592
-0.254519
-0.253329
-0.252059
-0.25074
-0.249389
-0.248016
-0.246613
-0.245159
-0.243615
-0.24192
-0.239995
-0.237614
-0.234822
-0.230725
-0.218343
-0.259574
-0.259299
-0.258746
-0.25794
-0.256922
-0.255741
-0.25444
-0.253058
-0.251629
-0.250173
-0.248698
-0.2472
-0.24566
-0.24404
-0.242287
-0.240343
-0.23801
-0.235595
-0.23124
-0.222026
-0.261348
-0.260989
-0.260351
-0.259446
-0.25832
-0.257024
-0.255606
-0.254108
-0.252565
-0.250998
-0.249419
-0.247823
-0.246192
-0.244495
-0.242685
-0.240732
-0.238479
-0.236538
-0.233073
-0.238409
-0.263222
-0.26277
-0.262041
-0.26103
-0.259789
-0.258373
-0.256833
-0.255214
-0.253552
-0.251872
-0.250184
-0.248486
-0.246762
-0.244983
-0.243113
-0.241145
-0.238953
-0.237398
-0.234249
-0.242204
-0.265201
-0.264649
-0.263821
-0.262698
-0.261336
-0.259794
-0.258127
-0.256383
-0.254599
-0.252801
-0.251001
-0.249198
-0.247376
-0.24551
-0.243568
-0.241567
-0.239386
-0.238008
-0.234807
-0.242634
-0.267294
-0.266631
-0.265698
-0.264456
-0.262966
-0.261294
-0.259495
-0.257621
-0.255711
-0.253792
-0.251877
-0.249964
-0.248039
-0.246076
-0.24405
-0.241987
-0.239766
-0.238391
-0.235061
-0.242129
-0.269508
-0.268724
-0.267678
-0.266311
-0.264687
-0.262878
-0.260943
-0.258935
-0.256896
-0.254853
-0.252819
-0.250791
-0.248755
-0.246686
-0.244557
-0.2424
-0.240085
-0.238576
-0.235058
-0.240923
-0.271852
-0.270934
-0.269768
-0.268268
-0.266505
-0.264553
-0.262478
-0.260333
-0.258161
-0.255991
-0.253833
-0.251685
-0.249529
-0.247339
-0.245086
-0.242799
-0.240338
-0.238585
-0.234825
-0.239257
-0.274331
-0.273269
-0.271974
-0.270335
-0.268425
-0.266327
-0.264106
-0.261821
-0.259514
-0.257212
-0.254926
-0.25265
-0.250363
-0.248036
-0.245634
-0.243179
-0.240522
-0.238439
-0.234401
-0.237344
-0.276955
-0.275735
-0.274303
-0.272517
-0.270455
-0.268205
-0.265836
-0.263406
-0.26096
-0.258522
-0.256102
-0.253689
-0.251258
-0.248775
-0.246198
-0.243536
-0.240636
-0.238162
-0.233821
-0.23532
-0.27973
-0.278339
-0.276761
-0.274821
-0.272601
-0.270194
-0.267673
-0.265096
-0.262506
-0.259928
-0.257366
-0.254806
-0.252216
-0.249554
-0.246773
-0.243867
-0.240682
-0.237773
-0.233114
-0.233266
-0.282662
-0.281087
-0.279355
-0.277253
-0.274869
-0.272302
-0.269624
-0.266896
-0.264159
-0.261435
-0.258723
-0.256002
-0.253233
-0.250369
-0.247352
-0.244165
-0.240658
-0.237287
-0.232301
-0.23123
-0.285758
-0.283984
-0.28209
-0.27982
-0.277266
-0.274533
-0.271696
-0.268812
-0.265924
-0.263046
-0.260173
-0.257275
-0.254308
-0.251214
-0.247929
-0.244427
-0.240565
-0.236717
-0.231397
-0.229236
-0.289024
-0.287037
-0.284972
-0.282527
-0.279798
-0.276895
-0.273894
-0.270852
-0.267805
-0.264765
-0.261717
-0.258626
-0.255435
-0.252082
-0.248497
-0.244647
-0.240402
-0.236072
-0.230414
-0.227291
-0.292466
-0.29025
-0.288005
-0.285379
-0.28247
-0.279394
-0.276225
-0.273019
-0.269807
-0.266594
-0.263356
-0.260049
-0.256609
-0.252966
-0.249048
-0.244819
-0.240168
-0.235354
-0.229356
-0.225393
-0.296086
-0.293628
-0.291196
-0.288382
-0.285288
-0.282034
-0.278693
-0.275317
-0.271931
-0.268532
-0.265087
-0.26154
-0.257821
-0.253855
-0.249571
-0.244936
-0.239861
-0.234567
-0.228228
-0.223533
-0.29989
-0.297175
-0.294547
-0.29154
-0.288256
-0.28482
-0.281303
-0.27775
-0.27418
-0.270579
-0.266905
-0.263091
-0.259061
-0.254739
-0.250058
-0.244992
-0.239477
-0.233711
-0.227031
-0.221696
-0.303879
-0.300893
-0.298062
-0.294856
-0.291379
-0.287757
-0.284057
-0.28032
-0.276553
-0.272732
-0.268804
-0.264693
-0.260319
-0.255606
-0.250499
-0.24498
-0.239012
-0.232782
-0.225764
-0.219867
-0.308055
-0.304784
-0.301745
-0.298335
-0.294659
-0.290847
-0.286959
-0.283027
-0.279048
-0.274986
-0.270775
-0.266335
-0.261581
-0.256445
-0.250881
-0.244891
-0.238463
-0.231778
-0.224424
-0.218031
-0.312419
-0.30885
-0.305595
-0.301977
-0.2981
-0.294093
-0.290009
-0.28587
-0.281661
-0.277333
-0.27281
-0.268004
-0.262834
-0.257241
-0.251196
-0.244718
-0.237825
-0.230695
-0.223008
-0.216171
-0.31697
-0.313091
-0.309615
-0.305785
-0.301702
-0.297495
-0.293206
-0.288846
-0.284386
-0.279764
-0.274893
-0.269685
-0.264063
-0.257981
-0.251431
-0.244454
-0.237093
-0.229528
-0.221513
-0.214275
-0.321705
-0.317505
-0.313804
-0.309759
-0.305466
-0.301052
-0.296548
-0.29195
-0.287215
-0.282267
-0.277013
-0.271364
-0.265252
-0.258651
-0.251576
-0.244091
-0.236263
-0.228273
-0.219934
-0.212327
-0.326622
-0.322089
-0.318159
-0.313896
-0.309389
-0.304762
-0.30003
-0.295175
-0.290137
-0.284828
-0.279151
-0.273021
-0.266385
-0.259239
-0.251622
-0.243621
-0.235328
-0.226923
-0.218266
-0.210318
-0.331714
-0.32684
-0.322678
-0.318194
-0.31347
-0.30862
-0.303645
-0.298509
-0.293137
-0.28743
-0.28129
-0.274639
-0.267446
-0.259729
-0.251557
-0.243038
-0.234284
-0.225474
-0.216504
-0.208235
-0.336975
-0.331752
-0.327355
-0.322648
-0.317701
-0.312619
-0.307385
-0.301942
-0.296202
-0.290056
-0.283409
-0.276199
-0.268417
-0.260108
-0.251371
-0.242335
-0.233125
-0.22392
-0.214643
-0.20607
-0.342394
-0.336816
-0.332184
-0.327252
-0.322077
-0.316752
-0.311237
-0.305458
-0.299311
-0.292685
-0.285489
-0.277682
-0.269281
-0.260365
-0.251056
-0.241503
-0.231845
-0.222256
-0.212677
-0.203813
-0.347961
-0.342024
-0.337155
-0.331998
-0.326588
-0.321005
-0.315187
-0.309039
-0.302446
-0.295293
-0.287506
-0.279066
-0.270022
-0.260484
-0.250601
-0.240537
-0.230439
-0.220475
-0.210602
-0.201456
-0.353663
-0.347362
-0.342259
-0.336873
-0.331222
-0.325365
-0.319217
-0.312665
-0.305581
-0.297859
-0.289438
-0.280333
-0.270625
-0.260456
-0.249998
-0.239428
-0.228901
-0.218572
-0.208412
-0.198993
-0.359483
-0.352819
-0.347481
-0.341866
-0.335963
-0.329815
-0.323308
-0.316312
-0.308693
-0.300355
-0.291262
-0.281461
-0.271072
-0.260266
-0.249237
-0.238171
-0.227224
-0.21654
-0.2061
-0.196416
-0.365403
-0.358376
-0.352806
-0.346959
-0.340796
-0.334334
-0.327436
-0.319954
-0.311755
-0.302756
-0.292954
-0.282432
-0.271349
-0.259904
-0.24831
-0.236757
-0.225401
-0.214373
-0.203661
-0.193719
-0.371403
-0.364016
-0.358217
-0.352135
-0.345699
-0.338901
-0.331576
-0.323565
-0.314738
-0.305035
-0.29449
-0.283226
-0.27144
-0.259359
-0.247207
-0.23518
-0.223427
-0.212065
-0.201089
-0.190894
-0.377459
-0.369717
-0.363692
-0.357373
-0.35065
-0.343489
-0.3357
-0.327114
-0.317612
-0.307165
-0.295846
-0.283824
-0.271331
-0.258618
-0.24592
-0.23343
-0.221293
-0.209609
-0.198376
-0.187937
-0.383547
-0.375456
-0.369209
-0.362648
-0.355623
-0.348069
-0.339776
-0.330569
-0.320348
-0.309118
-0.297
-0.284208
-0.271008
-0.257671
-0.24444
-0.231502
-0.218993
-0.206998
-0.195518
-0.18484
-0.389637
-0.381207
-0.374742
-0.367934
-0.360588
-0.352612
-0.343773
-0.333898
-0.322913
-0.310867
-0.29793
-0.28436
-0.270457
-0.256508
-0.242757
-0.229387
-0.216519
-0.204225
-0.192507
-0.181599
-0.395699
-0.386941
-0.380262
-0.373201
-0.365516
-0.357083
-0.347654
-0.337066
-0.325276
-0.312384
-0.298612
-0.284263
-0.269665
-0.255118
-0.240864
-0.227076
-0.213864
-0.201283
-0.189338
-0.178206
-0.4017
-0.392627
-0.385739
-0.378418
-0.370371
-0.361447
-0.351385
-0.340038
-0.327406
-0.313643
-0.299026
-0.2839
-0.268619
-0.25349
-0.23875
-0.224562
-0.211021
-0.198166
-0.186003
-0.174657
-0.407606
-0.398232
-0.39114
-0.38355
-0.375118
-0.365665
-0.354926
-0.342779
-0.329272
-0.314618
-0.299151
-0.283256
-0.267306
-0.251614
-0.236408
-0.221836
-0.207981
-0.194865
-0.182496
-0.170945
-0.413378
-0.403721
-0.396428
-0.38856
-0.379718
-0.3697
-0.358241
-0.345253
-0.330842
-0.315284
-0.298967
-0.282314
-0.265714
-0.249479
-0.233826
-0.21889
-0.204737
-0.191375
-0.178811
-0.167064
-0.418977
-0.409055
-0.401566
-0.393409
-0.384131
-0.373509
-0.361289
-0.347425
-0.332086
-0.315616
-0.298455
-0.28106
-0.263832
-0.247076
-0.230998
-0.215716
-0.201281
-0.187688
-0.174942
-0.163011
-0.424364
-0.414196
-0.406514
-0.398057
-0.388315
-0.377052
-0.364031
-0.34926
-0.332976
-0.315591
-0.297598
-0.279481
-0.261646
-0.244394
-0.227914
-0.212306
-0.197606
-0.183798
-0.170883
-0.158779
-0.429494
-0.419102
-0.411231
-0.40246
-0.392227
-0.380286
-0.36643
-0.350724
-0.333483
-0.315187
-0.296378
-0.277561
-0.259147
-0.241424
-0.224565
-0.208652
-0.193706
-0.179698
-0.166628
-0.154363
-0.434324
-0.423731
-0.415675
-0.406576
-0.395823
-0.38317
-0.368445
-0.351784
-0.333581
-0.314384
-0.294778
-0.275289
-0.256324
-0.238156
-0.220942
-0.204745
-0.189571
-0.175381
-0.162171
-0.149759
-0.438811
-0.42804
-0.4198
-0.410359
-0.39906
-0.385661
-0.370039
-0.352408
-0.333244
-0.31316
-0.292784
-0.272652
-0.253165
-0.234582
-0.217037
-0.200579
-0.185197
-0.170843
-0.157506
-0.144962
-0.442907
-0.431983
-0.423562
-0.413765
-0.401892
-0.387718
-0.371176
-0.352565
-0.332447
-0.311498
-0.29038
-0.269637
-0.249662
-0.230692
-0.212843
-0.196147
-0.180576
-0.166076
-0.15263
-0.139968
-0.446569
-0.435516
-0.426916
-0.416748
-0.404276
-0.389299
-0.37182
-0.352228
-0.331169
-0.309381
-0.287553
-0.266235
-0.245804
-0.226477
-0.208352
-0.19144
-0.175703
-0.161077
-0.147538
-0.134774
-0.449749
-0.438594
-0.429816
-0.419262
-0.406168
-0.390366
-0.371938
-0.351369
-0.329388
-0.306792
-0.284292
-0.262435
-0.241582
-0.221931
-0.203556
-0.186454
-0.170572
-0.155839
-0.142224
-0.129376
-0.452402
-0.441172
-0.432217
-0.421263
-0.407525
-0.390881
-0.371499
-0.349962
-0.327086
-0.303716
-0.280583
-0.258227
-0.236989
-0.217045
-0.198449
-0.181182
-0.165177
-0.150359
-0.136686
-0.12377
-0.454485
-0.443205
-0.434075
-0.422708
-0.408308
-0.390808
-0.370471
-0.347985
-0.324245
-0.300141
-0.276417
-0.253602
-0.232017
-0.211813
-0.193025
-0.175618
-0.159514
-0.144633
-0.130921
-0.117955
-0.455953
-0.44465
-0.435345
-0.423554
-0.408477
-0.390114
-0.36883
-0.345417
-0.320849
-0.296054
-0.271784
-0.248552
-0.226658
-0.206228
-0.187278
-0.169758
-0.153579
-0.138657
-0.124924
-0.111929
-0.456764
-0.445464
-0.435985
-0.423759
-0.407995
-0.388765
-0.366548
-0.342239
-0.316883
-0.291445
-0.266675
-0.243071
-0.220906
-0.200285
-0.181204
-0.163598
-0.147368
-0.132427
-0.118695
-0.105689
-0.456877
-0.445606
-0.435956
-0.423286
-0.406826
-0.386735
-0.363604
-0.338433
-0.312336
-0.286304
-0.261084
-0.237152
-0.214757
-0.193979
-0.174798
-0.157134
-0.140879
-0.125943
-0.11223
-0.0992333
-0.456253
-0.445037
-0.435217
-0.422098
-0.404939
-0.383996
-0.359977
-0.333986
-0.307198
-0.280624
-0.255003
-0.23079
-0.208205
-0.187307
-0.168056
-0.150363
-0.134108
-0.119201
-0.10553
-0.0925623
-0.454856
-0.443721
-0.433732
-0.42016
-0.402305
-0.380524
-0.355651
-0.328885
-0.301458
-0.274398
-0.248429
-0.223981
-0.201247
-0.180265
-0.160977
-0.143283
-0.127055
-0.112201
-0.0985949
-0.08568
-0.452651
-0.441621
-0.431468
-0.417442
-0.398896
-0.3763
-0.35061
-0.32312
-0.295112
-0.267622
-0.241357
-0.216721
-0.193881
-0.172851
-0.153559
-0.135893
-0.119717
-0.104942
-0.0914296
-0.0785914
-0.449608
-0.438707
-0.428393
-0.413915
-0.39469
-0.371306
-0.344841
-0.316683
-0.288153
-0.260291
-0.233786
-0.20901
-0.186104
-0.165063
-0.1458
-0.128191
-0.112094
-0.0974236
-0.0840285
-0.0712784
-0.445697
-0.434949
-0.42448
-0.409554
-0.389667
-0.365527
-0.338337
-0.309568
-0.280578
-0.252405
-0.225712
-0.200845
-0.177917
-0.156902
-0.1377
-0.120179
-0.104187
-0.0896445
-0.0763691
-0.0636661
-0.440894
-0.430322
-0.419703
-0.404338
-0.383809
-0.358951
-0.331089
-0.301772
-0.272387
-0.243963
-0.217138
-0.192227
-0.169319
-0.148368
-0.129261
-0.111857
-0.0959993
-0.0816085
-0.0684437
-0.0557075
-0.435177
-0.424803
-0.41404
-0.398248
-0.377104
-0.351571
-0.323094
-0.293294
-0.263579
-0.234965
-0.208064
-0.183158
-0.160312
-0.139463
-0.120485
-0.103228
-0.087532
-0.0733188
-0.0603075
-0.0478162
-0.428526
-0.418371
-0.407475
-0.39127
-0.369541
-0.343381
-0.314351
-0.284134
-0.254156
-0.225415
-0.198492
-0.17364
-0.150899
-0.130189
-0.111374
-0.0942941
-0.0787868
-0.0647808
-0.0519456
-0.0397099
-0.420928
-0.411013
-0.399993
-0.383394
-0.361113
-0.334379
-0.304859
-0.274296
-0.244123
-0.215318
-0.188428
-0.163678
-0.141085
-0.120551
-0.101932
-0.0850608
-0.0697741
-0.0559928
-0.0433679
-0.0313766
-0.41237
-0.402715
-0.391582
-0.374611
-0.351819
-0.324566
-0.294624
-0.263786
-0.233486
-0.204677
-0.177876
-0.153277
-0.130873
-0.110553
-0.0921639
-0.0755322
-0.0604929
-0.0469642
-0.0345729
-0.0228294
-0.402846
-0.39347
-0.382237
-0.364918
-0.341658
-0.313945
-0.283652
-0.25261
-0.222251
-0.193502
-0.166844
-0.142442
-0.120269
-0.100202
-0.0820755
-0.0657134
-0.0509487
-0.0376994
-0.0255627
-0.0140804
-0.392352
-0.383273
-0.371955
-0.354316
-0.330633
-0.302524
-0.27195
-0.240777
-0.210429
-0.1818
-0.155339
-0.131182
-0.109282
-0.089503
-0.0716733
-0.0556107
-0.041148
-0.0282036
-0.0163421
-0.00513887
-0.380888
-0.372123
-0.360735
-0.342807
-0.318753
-0.290312
-0.25953
-0.2283
-0.19803
-0.169582
-0.143371
-0.119506
-0.09792
-0.0784655
-0.0609649
-0.0452314
-0.0310976
-0.0184829
-0.00691702
0.00398753
-0.368457
-0.360023
-0.348583
-0.3304
-0.306026
-0.277321
-0.246405
-0.215191
-0.185066
-0.15686
-0.130952
-0.107423
-0.0861916
-0.0670979
-0.0499588
-0.0345836
-0.0208053
-0.00854441
0.00270552
0.0132912
-0.355067
-0.34698
-0.335507
-0.317105
-0.292467
-0.263566
-0.232591
-0.201465
-0.171553
-0.143647
-0.118092
-0.0949455
-0.0741078
-0.0554103
-0.0386645
-0.0236762
-0.0102798
0.00160388
0.0125177
0.0227643
-0.34073
-0.333005
-0.321518
-0.302935
-0.278091
-0.249066
-0.218106
-0.18714
-0.157505
-0.129957
-0.104806
-0.0820852
-0.0616803
-0.0434138
-0.0270924
-0.0125193
0.000469663
0.0119531
0.022511
0.0323986
-0.32546
-0.318111
-0.306633
-0.287909
-0.262918
-0.233838
-0.202969
-0.172235
-0.142941
-0.115806
-0.0911076
-0.0688559
-0.0489217
-0.0311202
-0.0152539
-0.00112358
0.0114328
0.0224937
0.0326762
0.0421851
-0.309275
-0.302317
-0.290869
-0.272047
-0.246969
-0.217907
-0.187202
-0.156768
-0.127878
-0.101212
-0.0770135
-0.0552723
-0.0358459
-0.0185426
-0.00316126
0.0104994
0.0225985
0.0332151
0.0430031
0.0521141
-0.292198
-0.285643
-0.274248
-0.255373
-0.23027
-0.201299
-0.170827
-0.140763
-0.112338
-0.0861922
-0.0625405
-0.0413502
-0.0224676
-0.00569473
0.00917256
0.0223371
0.033955
0.0441062
0.053481
0.0621753
-0.274254
-0.268114
-0.256797
-0.237912
-0.212848
-0.184042
-0.153866
-0.124242
-0.0963417
-0.0707678
-0.0477067
-0.0271065
-0.00880239
0.00740876
0.0217337
0.0343765
0.0454897
0.055155
0.0640983
0.0723568
-0.25547
-0.249756
-0.238542
-0.219695
-0.194733
-0.166149
-0.13636
-0.107232
-0.0799118
-0.0549591
-0.0325314
-0.0125588
0.00513326
0.0207524
0.0345076
0.0466036
0.0571893
0.0663488
0.0748423
0.0826457
-0.235878
-0.230602
-0.219516
-0.200755
-0.175952
-0.147665
-0.118326
-0.0897588
-0.0630728
-0.0387884
-0.0170349
0.00227421
0.019322
0.0343201
0.0474791
0.0590041
0.0690396
0.0776742
0.0856999
0.0930274
-0.215511
-0.210684
-0.199753
-0.181127
-0.156536
-0.128623
-0.0997959
-0.0718497
-0.0458501
-0.0222786
-0.00123832
0.0173729
0.0337458
0.048095
0.0606325
0.0715628
0.0810263
0.0891175
0.0966567
0.103485
-0.194405
-0.190039
-0.179289
-0.160833
-0.136534
-0.109054
-0.080802
-0.053534
-0.02827
-0.00545409
0.0148362
0.0327171
0.0483859
0.0620598
0.0739516
0.0842645
0.0931342
0.100664
0.107697
0.113997
-0.172598
-0.168706
-0.158165
-0.139921
-0.115977
-0.0889926
-0.0613771
-0.0348416
-0.0103601
0.0116602
0.0311656
0.0482855
0.0632229
0.0761966
0.0874198
0.0970936
0.105348
0.1123
0.118803
0.124533
-0.150129
-0.146726
-0.136407
-0.118444
-0.0949022
-0.0684766
-0.0415554
-0.0158038
0.00785123
0.0290382
0.0477262
0.0640564
0.0782367
0.0904871
0.101021
0.110034
0.117654
0.12401
0.129958
0.135063
-0.127035
-0.124152
-0.114074
-0.0964336
-0.0733519
-0.0475441
-0.0213722
0.00354729
0.0263345
0.0466531
0.0644933
0.0800073
0.0934068
0.104913
0.114737
0.123071
0.130034
0.135784
0.141153
0.145565
-0.103361
-0.101033
-0.0912135
-0.0739338
-0.0513677
-0.0262342
-0.000863659
0.0231785
0.0450596
0.0644772
0.0814417
0.096115
0.108712
0.119454
0.128552
0.136188
0.142477
0.147616
0.152386
0.155975
-0.0792053
-0.0773766
-0.0678673
-0.050991
-0.0289929
-0.00458723
0.0199331
0.0430559
0.0639954
0.0824821
0.0985454
0.112356
0.124131
0.134092
0.142448
0.149369
0.154972
0.159518
0.163628
0.166055
-0.0545978
-0.0532428
-0.0440826
-0.027652
-0.00627182
0.0173556
0.0409803
0.0631448
0.0831104
0.100639
0.115778
0.128705
0.139641
0.148807
0.156407
0.162601
0.167524
0.171504
0.174785
0.175483
-0.0295657
-0.0286998
-0.0199094
-0.0039644
0.0167502
0.0395521
0.0622391
0.0834099
0.102372
0.118918
0.133111
0.145138
0.155219
0.163577
0.17041
0.175871
0.180134
0.183554
0.185755
0.184568
-0.00416445
-0.00379949
0.00460161
0.0200227
0.0400271
0.0619597
0.0836704
0.103815
0.121748
0.137289
0.150519
0.161629
0.170842
0.17838
0.184438
0.189166
0.192783
0.195579
0.196456
0.195333
0.0215515
0.0214082
0.0293998
0.0442603
0.0635122
0.0845351
0.105234
0.124324
0.141204
0.155721
0.167971
0.178151
0.186486
0.193195
0.198469
0.202464
0.205424
0.207552
0.20761
0.206853
0.0475259
0.0468697
0.0544319
0.0686975
0.0871581
0.107234
0.126891
0.144901
0.160706
0.174184
0.185441
0.194679
0.202125
0.207996
0.212482
0.215743
0.218028
0.219474
0.218895
0.218111
0.0737027
0.0725305
0.0796445
0.0932833
0.110917
0.130014
0.148599
0.165507
0.180222
0.192646
0.202898
0.211185
0.217735
0.222762
0.226455
0.228977
0.230576
0.231349
0.230208
0.229206
0.100025
0.0983358
0.104984
0.117967
0.134741
0.152828
0.170319
0.186106
0.199716
0.211075
0.220313
0.227643
0.23329
0.237469
0.240365
0.242145
0.243051
0.243158
0.241469
0.240139
0.126437
0.12423
0.130396
0.142695
0.158582
0.175634
0.19201
0.20666
0.219154
0.229439
0.237658
0.244025
0.248765
0.252092
0.254189
0.255223
0.255433
0.254876
0.252637
0.250906
0.152882
0.150157
0.155826
0.167418
0.182391
0.198386
0.21363
0.227132
0.238501
0.247708
0.254903
0.260304
0.264135
0.266608
0.267905
0.268192
0.267701
0.266481
0.263684
0.261503
0.179301
0.176061
0.181219
0.192084
0.20612
0.22104
0.235139
0.247485
0.257724
0.265849
0.272019
0.276452
0.279374
0.280994
0.28149
0.281029
0.279837
0.277954
0.27459
0.271927
0.205639
0.201886
0.206522
0.216639
0.229722
0.243552
0.256496
0.26768
0.276788
0.283831
0.288976
0.292444
0.294459
0.295226
0.294924
0.293716
0.291822
0.289276
0.285341
0.282173
0.231838
0.227576
0.23168
0.241035
0.253149
0.265878
0.277661
0.287682
0.295659
0.301622
0.305746
0.308252
0.309363
0.309281
0.308184
0.306231
0.303639
0.300431
0.295922
0.292233
0.257842
0.253076
0.256639
0.265219
0.276352
0.287974
0.298595
0.307453
0.314303
0.319192
0.3223
0.32385
0.324062
0.323138
0.32125
0.318557
0.315268
0.311402
0.306321
0.3021
0.283594
0.278329
0.281346
0.289141
0.299287
0.309798
0.319257
0.326958
0.332688
0.336509
0.338609
0.339211
0.338533
0.336773
0.334101
0.330675
0.326695
0.322175
0.316525
0.311766
0.309039
0.303281
0.305748
0.312752
0.321906
0.331306
0.339608
0.34616
0.350779
0.353544
0.354646
0.35431
0.352751
0.350164
0.346717
0.342565
0.337901
0.332735
0.326521
0.32122
0.334121
0.327879
0.329793
0.336002
0.344163
0.352457
0.359611
0.365024
0.368545
0.370266
0.370383
0.369121
0.366693
0.363291
0.359079
0.35421
0.348871
0.343067
0.336297
0.330453
0.358788
0.352069
0.35343
0.358843
0.366015
0.373211
0.379228
0.383516
0.385953
0.386645
0.385793
0.38362
0.380336
0.376131
0.371167
0.365592
0.359588
0.353158
0.34584
0.339456
0.382985
0.3758
0.376609
0.381228
0.387418
0.393525
0.39842
0.401601
0.402973
0.402654
0.40085
0.397781
0.393657
0.388664
0.382961
0.376694
0.370037
0.362992
0.355138
0.348217
0.406662
0.399019
0.39928
0.403111
0.408328
0.413362
0.417153
0.419246
0.419573
0.418264
0.415527
0.411581
0.406635
0.400871
0.394444
0.387499
0.380203
0.372556
0.364178
0.356725
0.429765
0.421677
0.421396
0.424447
0.428703
0.432683
0.435391
0.436419
0.435724
0.433447
0.429798
0.424997
0.419247
0.41273
0.405598
0.397991
0.39007
0.381837
0.372948
0.364971
0.452248
0.443726
0.44291
0.445192
0.448505
0.45145
0.4531
0.453088
0.451397
0.448177
0.44364
0.438005
0.431474
0.424223
0.416404
0.408153
0.399624
0.390821
0.381435
0.372943
0.47406
0.465117
0.463776
0.465303
0.467692
0.469628
0.470245
0.469223
0.466564
0.462427
0.457028
0.450584
0.443294
0.435332
0.426845
0.417969
0.408851
0.399495
0.389628
0.380632
0.495156
0.485806
0.48395
0.484739
0.486227
0.48718
0.486796
0.484794
0.481197
0.476173
0.46994
0.462712
0.454688
0.446037
0.436905
0.427424
0.417736
0.407846
0.397515
0.388027
0.51549
0.505748
0.503391
0.50346
0.504073
0.504074
0.502721
0.499772
0.495269
0.48939
0.482351
0.474369
0.465636
0.456321
0.446568
0.436504
0.426266
0.415863
0.405084
0.395118
0.535019
0.5249
0.522057
0.521428
0.521194
0.520277
0.51799
0.514129
0.508756
0.502054
0.494242
0.485534
0.476121
0.466169
0.455818
0.445194
0.434428
0.423532
0.412325
0.401896
0.553702
0.543222
0.539909
0.538607
0.537558
0.535757
0.532574
0.52784
0.521633
0.514143
0.505591
0.496188
0.486124
0.475562
0.464639
0.45348
0.442209
0.430842
0.419225
0.40835
0.571498
0.560674
0.556911
0.554962
0.55313
0.550485
0.546447
0.540879
0.533876
0.525636
0.516378
0.506314
0.495629
0.484486
0.473019
0.461349
0.449597
0.437782
0.425776
0.414474
0.58837
0.57722
0.573025
0.570459
0.567882
0.564432
0.559581
0.553221
0.545464
0.536512
0.526585
0.515893
0.50462
0.492926
0.480943
0.46879
0.456581
0.444342
0.431967
0.420256
0.604282
0.592824
0.58822
0.585067
0.581784
0.577573
0.571953
0.564846
0.556376
0.546751
0.536193
0.524909
0.513082
0.500868
0.488398
0.475788
0.46315
0.450511
0.437788
0.425691
0.6192
0.607454
0.602463
0.598757
0.594808
0.589881
0.583539
0.57573
0.566592
0.556337
0.545187
0.533347
0.521
0.508298
0.495372
0.482335
0.469293
0.456279
0.443232
0.43077
0.633093
0.621078
0.615725
0.6115
0.606928
0.601333
0.594317
0.585854
0.576093
0.565251
0.553549
0.541193
0.52836
0.515205
0.501854
0.488418
0.475001
0.461639
0.448288
0.435485
0.645931
0.633668
0.627977
0.623271
0.618122
0.611907
0.604268
0.595199
0.584863
0.573477
0.561265
0.548431
0.535151
0.521576
0.507832
0.494029
0.480265
0.466581
0.452951
0.43983
0.657688
0.645197
0.639196
0.634047
0.628367
0.621583
0.613372
0.603749
0.592884
0.581001
0.568323