/*--------------------------------*- C++ -*----------------------------------*\
  =========                 |
  \\      /  F ield         | OpenFOAM: The Open Source CFD Toolbox
   \\    /   O peration     | Website:  https://openfoam.org
    \\  /    A nd           | Version:  7
     \\/     M anipulation  |
\*---------------------------------------------------------------------------*/
FoamFile
{
    version     2.0;
    format      ascii;
    class       volVectorField;
    location    "55";
    object      U;
}
// * * * * * * * * * * * * * * * * * * * * * * * * * * * * * * * * * * * * * //

dimensions      [0 1 -1 0 0 0 0];

internalField   nonuniform List<vector> 
34000
(
(-0.000250648 -0.000387522 -7.81959e-22)
(-0.00171057 -0.0010431 -4.20665e-21)
(-0.00474515 -0.00161284 5.15019e-22)
(-0.00879772 -0.00209972 -8.97764e-22)
(-0.0136559 -0.00251159 1.37271e-21)
(-0.0191242 -0.00285766 -1.0127e-20)
(-0.025019 -0.00314803 1.74182e-21)
(-0.0311852 -0.00339334 -6.87073e-21)
(-0.0374918 -0.00360417 -1.47973e-20)
(-0.0438316 -0.0037904 1.26684e-20)
(-0.05012 -0.00396066 3.77292e-21)
(-0.0562944 -0.00412183 -4.53392e-21)
(-0.062313 -0.00427882 5.57693e-21)
(-0.0681539 -0.00443442 7.64327e-21)
(-0.0738135 -0.00458953 -4.83595e-21)
(-0.0793046 -0.00474339 -6.53953e-21)
(-0.0846541 -0.00489407 -1.57068e-20)
(-0.0899016 -0.0050389 -1.21879e-21)
(-0.0950876 -0.00517527 -2.67601e-21)
(-0.100251 -0.00529868 -5.27442e-21)
(-0.000258683 0.000129054 -3.82057e-21)
(-0.0017325 0.000312345 3.1959e-21)
(-0.00477943 0.000414828 -3.75999e-21)
(-0.0088422 0.000456385 -8.46225e-21)
(-0.0137081 0.000445209 6.93263e-21)
(-0.0191813 0.00038778 4.21871e-20)
(-0.0250781 0.000289382 -2.603e-20)
(-0.031243 0.000154107 4.43324e-21)
(-0.037545 -1.44726e-05 2.13082e-20)
(-0.0438766 -0.00021269 -9.40698e-24)
(-0.0501533 -0.000436237 1.26784e-20)
(-0.0563124 -0.000679724 -1.68354e-20)
(-0.0623121 -0.000936459 1.76637e-20)
(-0.0681305 -0.00119847 -1.52393e-20)
(-0.0737643 -0.00145681 -5.93235e-21)
(-0.0792264 -0.0017022 2.99199e-20)
(-0.0845443 -0.00192568 -9.39389e-21)
(-0.0897581 -0.00211968 1.46187e-21)
(-0.0949083 -0.00227979 -1.7696e-20)
(-0.100032 -0.00239931 -1.90553e-21)
(-0.000286283 0.00064478 -2.95804e-20)
(-0.0018031 0.00166548 3.84382e-21)
(-0.00488107 0.00243888 5.91018e-21)
(-0.0089646 0.00300768 2.59973e-20)
(-0.0138416 0.00339606 -3.03141e-20)
(-0.0193169 0.00362619 -4.72957e-20)
(-0.0252071 0.00371872 4.31389e-20)
(-0.0313572 0.00369246 -1.18138e-20)
(-0.0376365 0.00356513 -5.95023e-21)
(-0.0439378 0.00335392 -3.01409e-20)
(-0.0501766 0.00307607 8.2507e-21)
(-0.0562904 0.00274925 2.96813e-20)
(-0.0622375 0.00239174 -6.10629e-21)
(-0.0679962 0.00202237 2.44357e-20)
(-0.0735633 0.00165995 -2.02e-20)
(-0.0789524 0.00132244 -6.14456e-21)
(-0.0841915 0.00102588 4.81711e-20)
(-0.0893225 0.000782872 -2.99856e-21)
(-0.0943853 0.000599635 7.56552e-20)
(-0.099412 0.00048521 -1.79583e-20)
(-0.000333314 0.00115753 4.83889e-20)
(-0.00192207 0.00301096 -2.16868e-20)
(-0.00504969 0.00445163 -1.51143e-20)
(-0.00916448 0.00554472 -1.15024e-20)
(-0.014056 0.00633023 2.132e-20)
(-0.0195304 0.00684592 -4.01703e-21)
(-0.0254056 0.00712768 -7.21065e-20)
(-0.0315275 0.00720893 -7.64559e-21)
(-0.0377661 0.00712145 -1.58949e-20)
(-0.0440148 0.0068959 -2.51313e-21)
(-0.0501895 0.00656237 -2.78922e-20)
(-0.056228 0.00615079 3.16329e-20)
(-0.0620887 0.00569106 -4.69088e-20)
(-0.0677503 0.00521289 -1.43501e-21)
(-0.0732099 0.00474512 1.28395e-20)
(-0.0784817 0.00431455 -9.97039e-20)
(-0.083595 0.00394455 -8.04589e-20)
(-0.0885934 0.00365286 4.36456e-20)
(-0.0935172 0.0034477 -5.8623e-20)
(-0.0983907 0.00334074 1.4804e-21)
(-0.00039952 0.00166523 -6.47897e-21)
(-0.0020888 0.00434355 8.56759e-20)
(-0.00528451 0.00644547 4.02123e-20)
(-0.00944099 0.00805815 -2.62502e-21)
(-0.0143504 0.00923712 1.08395e-20)
(-0.019821 0.0100354 1.66145e-21)
(-0.0256727 0.010504 3.69043e-20)
(-0.0317529 0.0106908 4.37553e-20)
(-0.0379329 0.0106414 1.86198e-20)
(-0.0441069 0.0103998 6.60022e-20)
(-0.0501914 0.0100089 -7.61181e-20)
(-0.0561245 0.0095107 -1.60892e-20)
(-0.0618652 0.00894683 3.39044e-20)
(-0.0673921 0.00835795 -5.91068e-20)
(-0.0727031 0.00778309 2.7002e-20)
(-0.0778133 0.00725817 6.2688e-20)
(-0.082753 0.00681421 1.51015e-20)
(-0.0875691 0.00647437 2.15843e-20)
(-0.0923018 0.00624913 -3.4608e-20)
(-0.0969654 0.00615325 3.77507e-21)
(-0.000484523 0.00216585 -3.16082e-20)
(-0.00230243 0.00565812 2.01931e-20)
(-0.0055844 0.00841299 -3.29224e-20)
(-0.00979287 0.0105388 9.57192e-21)
(-0.0147234 0.0121063 2.68133e-20)
(-0.0201875 0.0131834 1.2262e-20)
(-0.0260073 0.0138358 2.31704e-20)
(-0.0320325 0.0141256 -1.62953e-20)
(-0.038136 0.0141121 -1.00756e-19)
(-0.0442131 0.0138524 -9.02758e-20)
(-0.0501813 0.0134019 -5.87314e-20)
(-0.0559791 0.0128149 2.22889e-20)
(-0.0615659 0.0121446 -1.27455e-20)
(-0.0669206 0.0114425 9.72609e-20)
(-0.0720418 0.0107583 -3.50466e-20)
(-0.0769453 0.0101374 2.86351e-20)
(-0.0816635 0.00961875 4.1712e-20)
(-0.0862468 0.00923147 -2.34623e-20)
(-0.0907358 0.00898868 2.04775e-19)
(-0.0951325 0.00890891 -7.67407e-20)
(-0.000587833 0.00265746 3.83397e-20)
(-0.00256182 0.00694976 -4.83572e-20)
(-0.00594788 0.010347 -7.41868e-20)
(-0.0102185 0.0129779 -1.95976e-20)
(-0.0151736 0.0149276 8.63938e-21)
(-0.0206281 0.0162788 1.3351e-20)
(-0.0264078 0.0171113 4.47521e-20)
(-0.0323648 0.0175011 9.92257e-21)
(-0.0383739 0.0175209 3.36046e-21)
(-0.0443322 0.0172406 1.62106e-19)
(-0.050158 0.0167282 1.22012e-19)
(-0.0557905 0.0160497 -7.32346e-20)
(-0.0611895 0.0152699 -1.08158e-20)
(-0.0663343 0.0144517 -2.92222e-20)
(-0.0712239 0.0136554 2.89127e-20)
(-0.0758755 0.0129362 -1.53148e-19)
(-0.0803233 0.012342 -3.20278e-20)
(-0.0846226 0.0119082 -4.81138e-20)
(-0.0888147 0.0116511 -1.16435e-19)
(-0.0928867 0.0115941 6.34593e-20)
(-0.000708854 0.00313821 6.39631e-21)
(-0.00286555 0.00821375 -2.35564e-20)
(-0.00637313 0.0122406 6.69474e-20)
(-0.0107158 0.0153668 -4.12764e-20)
(-0.0156986 0.0176913 -2.31187e-20)
(-0.0211409 0.0193107 3.68873e-20)
(-0.0268722 0.0203189 -6.26213e-20)
(-0.0327477 0.0208052 -8.58515e-21)
(-0.0386449 0.0208553 1.19181e-19)
(-0.0444623 0.0205518 -7.63797e-20)
(-0.0501197 0.0199745 -3.14852e-20)
(-0.055557 0.0192014 3.72468e-20)
(-0.0607341 0.0183088 -9.84161e-21)
(-0.0656309 0.0173709 -5.11444e-21)
(-0.0702469 0.0164589 4.22077e-20)
(-0.0746006 0.0156387 -1.12284e-19)
(-0.0787284 0.0149677 3.92594e-20)
(-0.0826914 0.0144883 -2.98265e-20)
(-0.0865323 0.0142211 -6.69964e-20)
(-0.090221 0.0141953 2.42008e-20)
(-0.000846893 0.00360637 -1.79486e-20)
(-0.00321202 0.00944564 1.29563e-19)
(-0.00685801 0.0140873 -2.88227e-20)
(-0.0112824 0.0176972 1.77087e-20)
(-0.016296 0.0203878 1.28452e-19)
(-0.0217232 0.0222688 -8.71798e-20)
(-0.0273979 0.0234476 -4.29801e-20)
(-0.0331789 0.0240264 -7.49621e-20)
(-0.0389464 0.0241035 -8.22714e-20)
(-0.0446012 0.0237734 -5.43937e-20)
(-0.0500642 0.023128 -7.37351e-20)
(-0.0552761 0.0222568 1.34463e-19)
(-0.0601972 0.0212474 -1.49321e-20)
(-0.0648077 0.0201855 -3.14826e-20)
(-0.0691075 0.0191538 -1.64884e-19)
(-0.0731163 0.0182292 9.2645e-20)
(-0.0768734 0.0174797 2.30549e-20)
(-0.0804465 0.0169558 5.79929e-20)
(-0.0838806 0.0166833 3.93562e-20)
(-0.0871258 0.0166994 -1.05403e-19)
(-0.00100117 0.00406036 -5.57404e-20)
(-0.00359937 0.0106413 7.5608e-20)
(-0.00740007 0.0158807 4.27075e-20)
(-0.0119156 0.0199614 1.94511e-20)
(-0.0169629 0.023008 1.6311e-20)
(-0.0223721 0.0251432 -5.84525e-20)
(-0.027982 0.0264867 1.26882e-19)
(-0.0336554 0.0271535 7.14777e-21)
(-0.0392757 0.0272536 1.1813e-19)
(-0.0447458 0.0268936 -6.90836e-20)
(-0.0499883 0.0261765 1.11551e-19)
(-0.0549447 0.0252032 -1.10747e-19)
(-0.0595755 0.0240725 -1.00016e-19)
(-0.0638608 0.0228817 8.55753e-20)
(-0.067801 0.0217251 3.04211e-19)
(-0.0714172 0.020692 -1.68289e-19)
(-0.0747515 0.0198617 1.3868e-19)
(-0.0778793 0.0192944 3.20209e-20)
(-0.0808493 0.0190223 -1.20463e-19)
(-0.0835889 0.0190933 1.01134e-19)
(-0.00117084 0.00449872 1.01266e-19)
(-0.00402556 0.0117968 -5.81001e-20)
(-0.00799658 0.0176153 1.97751e-20)
(-0.0126121 0.0221521 7.47451e-20)
(-0.0176959 0.0255435 -6.91416e-20)
(-0.0230841 0.0279242 1.36049e-19)
(-0.028621 0.029426 -2.4794e-20)
(-0.0341737 0.0301756 3.1186e-21)
(-0.039629 0.0302946 -1.6321e-19)
(-0.0448925 0.0299007 1.03553e-19)
(-0.0498884 0.029108 2.39453e-20)
(-0.0545588 0.0280281 -3.16326e-20)
(-0.0588644 0.0267711 3.98337e-20)
(-0.0627852 0.0254456 -1.57966e-19)
(-0.0663217 0.0241584 -8.83054e-20)
(-0.0694961 0.0230116 1.86504e-19)
(-0.0723536 0.0220975 -1.0449e-19)
(-0.0749787 0.0214875 -1.49619e-19)
(-0.0774248 0.0212226 2.78307e-19)
(-0.0795941 0.0213643 -3.87476e-22)
(-0.00135499 0.00492014 8.48041e-20)
(-0.00448839 0.0129087 -1.06833e-19)
(-0.00864454 0.0192855 -1.11978e-19)
(-0.0133685 0.0242623 -5.36416e-20)
(-0.0184912 0.0279862 -7.79248e-20)
(-0.0238552 0.0306029 -4.42384e-20)
(-0.0293106 0.0322557 -1.87581e-19)
(-0.0347293 0.0330824 2.31565e-20)
(-0.0400018 0.0332158 -8.02223e-20)
(-0.0450366 0.0327839 2.81991e-19)
(-0.0497593 0.0319113 -1.64474e-19)
(-0.054113 0.03072 1.01362e-19)
(-0.0580581 0.029331 -3.11097e-20)
(-0.0615743 0.0278645 1.71752e-19)
(-0.0646618 0.0264398 1.41699e-20)
(-0.0673439 0.0251729 -1.48258e-19)
(-0.0696687 0.0241711 -2.66699e-20)
(-0.0717308 0.0235189 6.53532e-21)
(-0.0735906 0.0232686 -1.1475e-20)
(-0.0751212 0.0234996 1.88498e-19)
(-0.00155264 0.00532347 -1.05611e-19)
(-0.00498548 0.0139738 -1.02041e-19)
(-0.00934072 0.0208865 4.25538e-20)
(-0.0141809 0.0262858 1.06692e-19)
(-0.0193445 0.0303285 -7.72662e-21)
(-0.0246808 0.0331707 -7.39881e-20)
(-0.030046 0.0349666 1.6516e-19)
(-0.0353171 0.0358644 -1.86389e-20)
(-0.0403888 0.036007 2.02233e-19)
(-0.0451723 0.0355326 -2.25778e-19)
(-0.049595 0.0345756 5.97511e-20)
(-0.0536005 0.0332679 7.10058e-20)
(-0.0571492 0.0317407 -2.15095e-21)
(-0.0602197 0.030126 -1.20101e-21)
(-0.0628117 0.0285559 -1.36474e-19)
(-0.0649489 0.0271615 1.85989e-20)
(-0.0666825 0.0260667 1.83733e-19)
(-0.0681184 0.0253721 2.36914e-19)
(-0.0693258 0.0251444 -2.81822e-19)
(-0.0701447 0.0254867 -1.81141e-19)
(-0.0017628 0.00570771 4.42135e-20)
(-0.00551436 0.0149894 6.81519e-20)
(-0.0100816 0.022414 8.31605e-20)
(-0.0150452 0.0282166 -1.41043e-19)
(-0.0202511 0.0325633 1.48587e-19)
(-0.0255556 0.0356197 1.41999e-19)
(-0.0308216 0.03755 -5.5698e-20)
(-0.0359312 0.0385121 2.44496e-19)
(-0.0407834 0.0386587 -2.48517e-19)
(-0.0452924 0.0381371 1.10573e-19)
(-0.0493876 0.037091 1.1294e-19)
(-0.0530129 0.0356614 -8.82139e-21)
(-0.0561282 0.0339897 1.45342e-21)
(-0.0587107 0.0322187 1.49496e-20)
(-0.060759 0.0304943 -1.06877e-19)
(-0.0622967 0.0289635 1.06132e-19)
(-0.0633776 0.0277691 -5.48064e-20)
(-0.0641201 0.0270308 -1.2334e-19)
(-0.0646047 0.026834 1.5973e-19)
(-0.0646328 0.0273131 3.34298e-20)
(-0.00198444 0.00607203 -2.54974e-20)
(-0.00607243 0.0159529 3.20546e-20)
(-0.0108636 0.0238638 -6.9574e-20)
(-0.0159567 0.0300496 -1.04149e-19)
(-0.0212058 0.0346842 -1.07621e-19)
(-0.026474 0.0379425 -9.7339e-20)
(-0.031631 0.0399978 1.58968e-19)
(-0.0365645 0.0410171 -8.08642e-20)
(-0.0411779 0.041162 6.47335e-20)
(-0.0453886 0.0405884 7.14518e-21)
(-0.0491276 0.0394483 -1.77223e-20)
(-0.0523396 0.0378914 4.43568e-20)
(-0.0549832 0.0360683 -8.6735e-20)
(-0.0570339 0.0341327 4.55308e-20)
(-0.0584883 0.032244 1.47215e-19)
(-0.059369 0.0305664 -2.15645e-19)
(-0.0597324 0.0292639 -1.38197e-19)
(-0.0597097 0.0284792 1.81996e-19)
(-0.0593963 0.0283215 -1.06865e-19)
(-0.0585468 0.0289664 -1.65745e-19)
(-0.00221651 0.00641575 9.39618e-20)
(-0.006657 0.0168622 -9.64158e-20)
(-0.0116827 0.0252326 7.83641e-20)
(-0.0169108 0.0317798 1.26038e-19)
(-0.0222028 0.0366853 -2.32661e-20)
(-0.0274294 0.0401323 -8.34222e-20)
(-0.0324668 0.0423024 -1.56308e-19)
(-0.0372087 0.0433713 -1.19243e-19)
(-0.0415629 0.0435086 -2.40691e-19)
(-0.0454503 0.0428781 2.45063e-20)
(-0.0488035 0.0416393 -2.1568e-20)
(-0.0515675 0.0399496 -1.72212e-19)
(-0.0536995 0.0379682 1.49533e-19)
(-0.0551725 0.0358592 1.83697e-19)
(-0.0559802 0.0337953 -9.30571e-21)
(-0.0561437 0.0319589 1.12926e-19)
(-0.0557203 0.0305378 -5.72647e-20)
(-0.0548553 0.0297021 9.18709e-21)
(-0.0536631 0.0295913 1.61489e-19)
(-0.0518396 0.0304339 3.87999e-19)
(-0.00245795 0.00673831 -4.08404e-20)
(-0.00726531 0.0177157 -2.86645e-20)
(-0.0125349 0.0265173 8.07335e-20)
(-0.0179021 0.033403 -1.12813e-19)
(-0.023236 0.0385613 -2.94053e-20)
(-0.0284145 0.0421826 1.75313e-19)
(-0.0333207 0.0444568 -4.15137e-20)
(-0.0378543 0.0455672 -1.20406e-19)
(-0.0419278 0.0456908 1.95975e-19)
(-0.0454652 0.0449986 -5.27458e-20)
(-0.0484012 0.0436565 3.85774e-20)
(-0.0506805 0.041829 2.09938e-19)
(-0.0522588 0.0396825 -2.92224e-19)
(-0.0531057 0.037391 -8.00957e-20)
(-0.0532111 0.0351404 -1.57879e-19)
(-0.0525931 0.0331318 3.21e-19)
(-0.051309 0.0315796 1.00646e-20)
(-0.0495185 0.030686 1.77368e-19)
(-0.0473603 0.0306277 -6.43356e-20)
(-0.044454 0.0317019 -3.67363e-19)
(-0.00270772 0.00703932 -9.47786e-20)
(-0.00789456 0.0185118 1.37279e-19)
(-0.0134159 0.0277152 1.87852e-21)
(-0.0189252 0.0349154 -1.3327e-21)
(-0.0242986 0.0403071 1.43883e-19)
(-0.0294213 0.0440878 1.03827e-19)
(-0.0341834 0.0464546 -3.91754e-21)
(-0.0384904 0.047598 3.11851e-19)
(-0.0422597 0.0477018 1.19705e-19)
(-0.0454188 0.046943 -2.20471e-19)
(-0.0479039 0.0454936 1.04516e-20)
(-0.0496594 0.0435235 -7.60055e-21)
(-0.050639 0.0412059 3.0937e-19)
(-0.0508083 0.0387232 -3.46649e-19)
(-0.050152 0.0362739 9.58005e-20)
(-0.0486838 0.0340784 3.55099e-21)
(-0.0464595 0.0323801 -2.45599e-19)
(-0.043653 0.031419 -2.55186e-19)
(-0.0404354 0.0314164 -3.08211e-20)
(-0.0363218 0.0327564 3.72802e-19)
(-0.00296477 0.00731853 3.06911e-20)
(-0.00854188 0.0192494 -9.77133e-20)
(-0.0143214 0.0288242 9.45165e-20)
(-0.0199741 0.0363138 -1.41577e-19)
(-0.0253832 0.0419186 1.76031e-19)
(-0.0304409 0.0458426 -2.95351e-19)
(-0.0350441 0.0482898 -7.30154e-20)
(-0.0391045 0.0494574 -1.63042e-19)
(-0.0425441 0.0495351 -7.69844e-20)
(-0.0452938 0.0487054 1.37437e-19)
(-0.0472915 0.047145 2.80787e-19)
(-0.0484811 0.0450287 -3.15212e-19)
(-0.0488135 0.0425347 -1.18015e-19)
(-0.0482494 0.0398527 4.2881e-19)
(-0.0467675 0.037193 -1.55769e-19)
(-0.0443752 0.034795 -2.24573e-19)
(-0.0411243 0.0329338 2.85043e-19)
(-0.0372034 0.0318929 6.01051e-20)
(-0.0328279 0.0319474 5.73654e-20)
(-0.0273686 0.0336006 -2.39824e-19)
(-0.00322809 0.00757577 1.19937e-20)
(-0.00920439 0.0199277 -5.09404e-20)
(-0.0152467 0.0298424 1.65687e-19)
(-0.0210426 0.0375951 -2.14509e-19)
(-0.0264818 0.0433917 -1.77493e-19)
(-0.0314634 0.0474423 1.12383e-19)
(-0.035891 0.0499571 3.12079e-19)
(-0.0396823 0.0511396 -1.97249e-19)
(-0.042764 0.051185 4.77131e-20)
(-0.0450703 0.0502804 -9.50646e-20)
(-0.0465406 0.0486065 -3.84215e-19)
(-0.047118 0.0463413 2.32929e-19)
(-0.0467502 0.043667 1.88247e-19)
(-0.0453923 0.0407792 -3.34081e-19)
(-0.0430152 0.0378981 7.83362e-20)
(-0.0396181 0.0352819 3.12646e-19)
(-0.0352467 0.0332389 1.22805e-19)
(-0.0301016 0.0321025 4.32234e-20)
(-0.0244576 0.0322158 -2.53265e-19)
(-0.0175289 0.0342811 -1.23491e-19)
(-0.00349665 0.007811 -8.30343e-20)
(-0.00987916 0.020546 -1.52679e-19)
(-0.0161871 0.0307683 -8.81331e-20)
(-0.0221241 0.038757 1.16727e-19)
(-0.0275859 0.0447229 -6.82418e-21)
(-0.032478 0.0488824 2.61788e-19)
(-0.0367108 0.0514516 -2.47344e-20)
(-0.0402077 0.0526395 2.93485e-20)
(-0.0429001 0.0526465 1.88381e-19)
(-0.0447253 0.0516635 2.38769e-19)
(-0.0456239 0.0498744 -1.10754e-20)
(-0.045538 0.0474594 -5.29767e-20)
(-0.0444116 0.0446031 -3.10785e-19)
(-0.0421931 0.0415049 2.33225e-19)
(-0.0388444 0.0383932 -2.07146e-20)
(-0.0343545 0.0355434 -1.39804e-19)
(-0.0287595 0.0332981 -7.00246e-19)
(-0.0222664 0.0320446 2.482e-19)
(-0.0151973 0.0322052 1.32063e-20)
(-0.00669244 0.0347609 -1.53447e-19)
(-0.00376949 0.0080243 7.66209e-20)
(-0.0105632 0.0211039 1.9949e-19)
(-0.0171377 0.0316009 -1.51902e-19)
(-0.0232115 0.0397973 -7.36363e-20)
(-0.028686 0.0459094 6.15663e-20)
(-0.0334728 0.0501591 -1.48873e-19)
(-0.0374887 0.0527686 -2.76618e-19)
(-0.0406625 0.0539522 1.63892e-19)
(-0.0429303 0.0539148 -1.88191e-20)
(-0.0442321 0.0528508 -3.77256e-19)
(-0.0445096 0.0509462 7.24419e-20)
(-0.0437034 0.0483824 4.08441e-20)
(-0.0417532 0.0453448 -7.11513e-20)
(-0.0386001 0.0420346 1.8817e-19)
(-0.0341954 0.038686 3.66871e-19)
(-0.0285157 0.0355892 -2.39045e-19)
(-0.021585 0.03312 1.9426e-19)
(-0.0136171 0.0317228 4.74087e-20)
(-0.00495492 0.0319188 2.71625e-19)
(0.00532372 0.0349751 1.22296e-19)
(-0.00404564 0.00821578 -8.40403e-20)
(-0.0112537 0.0216014 -9.82074e-21)
(-0.0180934 0.0323391 2.15245e-19)
(-0.0242974 0.0407142 2.13679e-19)
(-0.0297721 0.0469482 -4.38407e-20)
(-0.0344349 0.0512688 -2.77511e-20)
(-0.0382084 0.0539041 2.78338e-19)
(-0.0410266 0.0550735 -2.16358e-19)
(-0.0428299 0.054986 6.60333e-20)
(-0.0435609 0.0538391 2.73971e-19)
(-0.0431616 0.0518201 2.62993e-19)
(-0.041571 0.0491109 1.02626e-19)
(-0.038724 0.045896 4.49409e-19)
(-0.0345533 0.0423763 -6.19299e-20)
(-0.0289984 0.0387886 -4.77012e-19)
(-0.0220214 0.0354349 2.34836e-19)
(-0.0136306 0.0327219 -1.25497e-19)
(-0.0040443 0.0311559 -2.92236e-19)
(0.00636508 0.0313774 -2.07158e-19)
(0.0186543 0.0349473 -2.08874e-19)
(-0.00432417 0.00838566 5.37762e-20)
(-0.0119474 0.0220383 1.12705e-19)
(-0.0190488 0.0329824 -7.84496e-20)
(-0.0253739 0.0415063 -9.76128e-20)
(-0.0308334 0.047837 -1.01428e-19)
(-0.0353499 0.0522085 -2.74234e-20)
(-0.0388516 0.0548544 -2.87243e-19)
(-0.0412774 0.0559993 1.47543e-19)
(-0.0425711 0.0558563 -1.36014e-19)
(-0.0426776 0.0546254 -2.30083e-19)
(-0.0415389 0.0524952 8.18482e-21)
(-0.0390916 0.0496466 -5.84859e-19)
(-0.0352651 0.0462622 -4.54312e-19)
(-0.0299832 0.0425403 1.43814e-19)
(-0.0231726 0.0387173 7.28085e-20)
(-0.0147787 0.0351021 -1.56411e-19)
(-0.00479019 0.032129 6.06769e-19)
(0.0065751 0.0303662 -9.52555e-20)
(0.018901 0.0305844 2.59323e-19)
(0.033446 0.0347165 2.33381e-19)
(-0.00460418 0.00853419 -7.37961e-20)
(-0.0126415 0.0224149 -2.44917e-19)
(-0.0199984 0.0335302 7.78968e-20)
(-0.0264325 0.0421722 4.36488e-21)
(-0.0318582 0.0485738 3.3183e-19)
(-0.0362025 0.0529752 -1.98209e-19)
(-0.0393986 0.055616 1.08658e-19)
(-0.0413898 0.0567261 1.55308e-19)
(-0.0421229 0.0565224 -1.22273e-20)
(-0.0415443 0.0552077 9.60974e-20)
(-0.0395953 0.052971 2.9256e-19)
(-0.0362094 0.0499922 6.12596e-19)
(-0.03131 0.0464505 4.92384e-20)
(-0.0248112 0.0425396 -2.72066e-19)
(-0.0166258 0.0384921 4.95021e-20)
(-0.00668124 0.034619 4.81994e-19)
(0.00505695 0.0313755 -3.2728e-19)
(0.0183776 0.0293887 1.38368e-21)
(0.0328073 0.0295639 2.52361e-19)
(0.0498765 0.0343078 -1.56825e-19)
(-0.00488478 0.00866169 -7.0724e-20)
(-0.0133327 0.0227312 2.8958e-19)
(-0.0209365 0.0339824 -2.21195e-19)
(-0.0274644 0.042711 -4.5243e-20)
(-0.0328338 0.0491567 -7.63853e-20)
(-0.0369757 0.0535664 -1.98692e-19)
(-0.0398276 0.0561859 1.98111e-19)
(-0.0413364 0.0572506 -6.53821e-20)
(-0.0414512 0.0569816 -1.17087e-19)
(-0.0401189 0.055584 1.91911e-19)
(-0.0372794 0.0532476 -2.22772e-19)
(-0.0328623 0.0501508 -7.18755e-20)
(-0.026784 0.0464688 -8.01896e-21)
(-0.0189485 0.0423891 1.91012e-19)
(-0.00925398 0.038137 -1.72965e-19)
(0.00239105 0.0340196 -3.26963e-19)
(0.0160469 0.0305053 -1.00298e-19)
(0.0315157 0.0282726 -1.45166e-19)
(0.0482524 0.0283585 -4.43188e-19)
(0.0681438 0.0337551 -1.32637e-19)
(-0.0051651 0.00876849 1.0039e-19)
(-0.0140179 0.0229877 -1.27105e-19)
(-0.0218569 0.0343387 -1.59488e-19)
(-0.02846 0.0431219 -1.50883e-19)
(-0.0337467 0.0495842 5.02669e-20)
(-0.0376512 0.0539799 2.82336e-20)
(-0.0401148 0.0565615 7.07368e-20)
(-0.041087 0.0575702 -1.83847e-19)
(-0.0405182 0.0572313 1.42465e-19)
(-0.0383549 0.0557528 -4.26959e-19)
(-0.0345345 0.0533256 -2.14511e-19)
(-0.0289814 0.0501264 3.57583e-21)
(-0.0216044 0.0463263 1.90499e-19)
(-0.0122966 0.0421054 -1.25001e-19)
(-0.000941404 0.0376788 3.19207e-19)
(0.0125718 0.0333437 -7.82345e-20)
(0.0283309 0.0295718 1.01831e-19)
(0.0461582 0.0270815 3.84579e-19)
(0.0654185 0.0270281 5.07453e-20)
(0.0884593 0.0331085 2.46528e-19)
(-0.00544427 0.00885493 -2.12095e-19)
(-0.0146939 0.0231846 1.7119e-19)
(-0.0227533 0.0345992 1.92341e-19)
(-0.0294091 0.0434042 -1.11998e-19)
(-0.0345822 0.049855 1.91514e-19)
(-0.0382093 0.0542138 1.84926e-19)
(-0.0402344 0.0567406 -3.3519e-20)
(-0.0406087 0.0576823 -6.34501e-20)
(-0.0392829 0.0572695 -1.72842e-19)
(-0.0362017 0.0557133 8.10308e-20)
(-0.0312985 0.053206 7.88946e-21)
(-0.0244915 0.0499234 -2.12604e-19)
(-0.0156807 0.0460326 1.58548e-19)
(-0.0047478 0.0417058 -1.24478e-19)
(0.00843859 0.037146 -2.26469e-19)
(0.0240074 0.032635 -2.95941e-19)
(0.0420742 0.0286367 7.25647e-20)
(0.0624879 0.0258934 1.01019e-19)
(0.0845004 0.0256509 -9.67212e-20)
(0.111043 0.0324387 4.07415e-19)
(-0.00572144 0.00892137 -1.67623e-19)
(-0.0153571 0.0233225 -1.57572e-19)
(-0.0236188 0.0347639 1.2463e-19)
(-0.0303008 0.0435575 7.25453e-20)
(-0.0353245 0.0499681 2.96979e-20)
(-0.0386283 0.0542668 -5.43757e-20)
(-0.0401581 0.0567212 -3.83754e-20)
(-0.0398656 0.0575854 8.78707e-20)
(-0.0377005 0.0570949 -8.28298e-20)
(-0.033604 0.0554651 6.65795e-19)
(-0.0275041 0.0528903 4.86034e-20)
(-0.019311 0.0495464 -7.47684e-20)
(-0.00891495 0.0455973 -4.93091e-19)
(0.00381435 0.0412081 9.5258e-20)
(0.0190226 0.0365684 -2.4424e-19)
(0.0368553 0.03194 1.61699e-19)
(0.0574535 0.0277679 1.48406e-19)
(0.0806988 0.0247991 -5.64975e-19)
(0.1057 0.0243245 -1.75936e-19)
(0.136117 0.0318393 -6.08468e-19)
(-0.00599571 0.00896816 8.1039e-20)
(-0.016004 0.0234016 1.63159e-19)
(-0.0244463 0.0348329 -2.94122e-19)
(-0.0311234 0.0435815 -2.25433e-19)
(-0.0359565 0.0499228 1.14452e-19)
(-0.0388851 0.0541377 1.07725e-19)
(-0.0398556 0.0565024 -2.2374e-19)
(-0.0388191 0.0572782 -2.01624e-20)
(-0.0357225 0.056707 1.19771e-20)
(-0.0305021 0.0550087 -2.00483e-19)
(-0.0230784 0.0523809 2.91857e-19)
(-0.0133522 0.0490007 1.64686e-21)
(-0.00120237 0.0450308 3.69922e-19)
(0.0135138 0.04063 2.51301e-19)
(0.0309553 0.0359755 4.22147e-20)
(0.0512814 0.031306 5.30986e-19)
(0.074654 0.0270371 -4.823e-19)
(0.100991 0.0239 2.23593e-19)
(0.129223 0.0231653 1.7481e-19)
(0.163892 0.0314302 1.50666e-19)
(-0.0062662 0.00899561 3.90658e-19)
(-0.0166308 0.0234223 -2.76081e-19)
(-0.0252278 0.0348065 6.70288e-20)
(-0.0318641 0.0434762 2.18841e-19)
(-0.0364598 0.0497189 -2.36097e-19)
(-0.0389543 0.0538261 1.16562e-20)
(-0.0392938 0.0560836 1.79998e-19)
(-0.0374271 0.0567607 3.31232e-19)
(-0.0332968 0.0561061 4.49086e-19)
(-0.0268321 0.0543456 -4.30574e-19)
(-0.017944 0.0516811 -2.56966e-19)
(-0.00652195 0.0482927 1.22113e-19)
(0.00756778 0.0443436 -3.51666e-19)
(0.0244807 0.0399892 2.40349e-20)
(0.0443877 0.0353958 1.37246e-19)
(0.0674574 0.0307788 1.05463e-19)
(0.093865 0.0265164 3.25171e-19)
(0.123566 0.023304 6.82195e-20)
(0.15527 0.0223059 -2.45682e-19)
(0.194558 0.0313588 2.6444e-19)
(-0.00653193 0.00900402 -3.70511e-19)
(-0.0172333 0.0233851 2.75019e-19)
(-0.0259552 0.0346849 6.68137e-20)
(-0.0325093 0.0432417 -2.17072e-19)
(-0.0368143 0.0493563 9.18139e-20)
(-0.0388088 0.0533322 -4.44398e-20)
(-0.0384372 0.0554653 -3.34648e-20)
(-0.0356446 0.0560338 -2.79661e-19)
(-0.0303672 0.0552943 -4.41775e-19)
(-0.0225253 0.053479 4.13667e-19)
(-0.0120182 0.0507959 -1.49084e-19)
(0.00127814 0.0474299 4.66181e-21)
(0.0175113 0.0435473 8.47022e-20)
(0.0368496 0.0393032 1.7998e-19)
(0.0594739 0.0348567 -2.18566e-20)
(0.0855562 0.0304018 -5.07695e-20)
(0.115275 0.0262749 -2.61761e-19)
(0.148617 0.0231199 -1.75447e-19)
(0.184029 0.0218909 -1.66204e-19)
(0.228263 0.0318012 2.65988e-19)
(-0.00679188 0.00899361 2.97353e-19)
(-0.0178073 0.0232901 -7.76266e-20)
(-0.0266192 0.0344683 2.64402e-19)
(-0.0330441 0.0428783 6.41565e-20)
(-0.0369985 0.0488357 -1.41614e-19)
(-0.038419 0.0526569 2.29332e-20)
(-0.0372472 0.0546491 -3.02424e-19)
(-0.0334229 0.0551001 1.37674e-19)
(-0.0268737 0.0542751 7.46711e-20)
(-0.0175088 0.0524142 -2.74911e-20)
(-0.00521369 0.0497325 -3.13898e-20)
(0.010151 0.0464221 3.72043e-20)
(0.0287481 0.042655 -1.69472e-19)
(0.0507581 0.0385901 -3.95097e-19)
(0.0763688 0.0343843 2.00505e-19)
(0.105749 0.0302146 -1.00187e-19)
(0.139064 0.0263763 -2.46109e-20)
(0.176321 0.0234521 4.24387e-19)
(0.215671 0.0220721 4.4382e-19)
(0.265093 0.0329611 -6.80418e-19)
(-0.00704491 0.00896457 -7.58154e-20)
(-0.0183478 0.0231375 -8.37004e-20)
(-0.02721 0.0341571 -1.65722e-19)
(-0.0334524 0.0423867 1.21649e-19)
(-0.0369889 0.0481581 2.20761e-19)
(-0.0377532 0.0518021 -2.85936e-19)
(-0.0356827 0.0536378 4.57247e-19)
(-0.0307099 0.0539637 -8.95032e-20)
(-0.0227523 0.0530544 1.31883e-20)
(-0.0117054 0.0511588 -3.10953e-19)
(0.00256104 0.048501 -2.37718e-20)
(0.0202035 0.045282 -2.5681e-19)
(0.0414005 0.0416827 3.44865e-19)
(0.0663441 0.0378698 2.27151e-19)
(0.0952247 0.0340039 -4.44227e-19)
(0.128198 0.0302526 -3.78493e-19)
(0.165403 0.0268759 8.7382e-20)
(0.206835 0.0243942 5.08832e-19)
(0.250341 0.0230029 2.34679e-19)
(0.305052 0.0350671 1.27536e-19)
(-0.00728978 0.00891697 2.3727e-20)
(-0.0188496 0.0229275 8.11365e-20)
(-0.0277168 0.0337516 9.78697e-20)
(-0.0337168 0.0417676 -8.17345e-20)
(-0.0367602 0.0473253 2.05031e-19)
(-0.0367771 0.0507707 2.74957e-19)
(-0.0336992 0.0524359 4.38681e-21)
(-0.0274501 0.0526309 -3.55749e-19)
(-0.017935 0.0516406 -2.84629e-19)
(-0.00503381 0.0497239 2.98357e-19)
(0.0114015 0.0471152 -4.00109e-19)
(0.0315456 0.0440263 -4.50001e-19)
(0.0555926 0.0406501 -4.5063e-20)
(0.083744 0.0371649 -2.35113e-20)
(0.116188 0.0337418 1.57042e-19)
(0.153056 0.0305475 1.03104e-19)
(0.194442 0.0278197 1.33857e-19)
(0.240283 0.026022 -6.29063e-19)
(0.288164 0.0248317 -1.73372e-19)
(0.348038 0.0383585 4.55823e-19)
(-0.00752504 0.00885081 -1.4118e-19)
(-0.0193067 0.0226599 1.38486e-19)
(-0.0281276 0.0332523 -1.02114e-19)
(-0.033818 0.0410224 -5.07929e-20)
(-0.0362848 0.0463397 -1.38407e-19)
(-0.0354535 0.0495667 -1.04985e-19)
(-0.031249 0.0510495 -1.87982e-19)
(-0.0235841 0.0511103 3.1095e-19)
(-0.0123498 0.0500452 1.23682e-19)
(0.00259143 0.0481243 -3.04148e-19)
(0.0214067 0.0455933 4.76738e-19)
(0.0442891 0.0426767 2.44838e-19)
(0.0714477 0.0395817 -1.85374e-19)
(0.10309 0.0365023 -2.60103e-19)
(0.139393 0.0336259 -3.34067e-20)
(0.180455 0.0311284 2.67825e-19)
(0.226305 0.0292445 -1.78774e-19)
(0.276751 0.028387 6.82505e-20)
(0.329242 0.0276931 1.53629e-19)
(0.393837 0.043059 3.84353e-19)
(-0.00774906 0.008766 -1.44009e-20)
(-0.0197126 0.0223347 -3.42132e-19)
(-0.0284295 0.0326595 8.34991e-20)
(-0.0337353 0.0401525 1.85517e-19)
(-0.0355331 0.0452044 -3.41637e-20)
(-0.033743 0.0481955 -2.24976e-19)
(-0.0282814 0.0494867 2.48233e-19)
(-0.0190491 0.0494133 2.84411e-19)
(-0.005921 0.0482834 1.08891e-19)
(0.011259 0.046379 5.41086e-19)
(0.0326779 0.0439586 -2.51814e-19)
(0.0585466 0.0412606 1.20693e-19)
(0.0890862 0.0385082 -1.24792e-19)
(0.124505 0.0359142 3.00368e-19)
(0.164963 0.0336871 -2.6448e-20)
(0.210505 0.0320224 -6.9345e-20)
(0.261083 0.031178 -1.10681e-19)
(0.316274 0.0315123 1.74027e-19)
(0.373639 0.0317267 -4.38468e-19)
(0.442068 0.0494118 -5.91293e-19)
(-0.00795996 0.0086623 -8.20409e-20)
(-0.02006 0.0219516 -3.05683e-20)
(-0.0286081 0.0319738 -2.76698e-19)
(-0.0334461 0.03916 1.69471e-19)
(-0.034473 0.0439237 -1.73124e-19)
(-0.0316027 0.0466641 -1.7592e-19)
(-0.0247423 0.0477578 -1.58463e-20)
(-0.0137787 0.047554 -2.86924e-19)
(0.00143048 0.0463737 -4.55607e-19)
(0.0210606 0.0445118 1.24751e-19)
(0.045318 0.0422401 1.398e-19)
(0.0744293 0.0398119 1.68635e-19)
(0.108623 0.0374672 4.31057e-19)
(0.148101 0.0354388 -4.2416e-20)
(0.192995 0.0339598 -9.33473e-20)
(0.243285 0.0332536 -1.29948e-20)
(0.298829 0.0336335 2.35063e-19)
(0.358846 0.035385 4.17361e-19)
(0.421348 0.0371609 -1.17106e-19)
(0.491964 0.0578731 4.28177e-19)
(-0.00815557 0.00853937 2.57635e-19)
(-0.0203407 0.02151 -4.19545e-20)
(-0.0286478 0.0311957 2.44557e-19)
(-0.032926 0.0380472 -2.50811e-19)
(-0.0330702 0.0425024 3.70413e-19)
(-0.0289876 0.0449807 3.10044e-19)
(-0.0205745 0.0458752 -2.54895e-19)
(-0.00770317 0.0455498 -4.74526e-19)
(0.00978666 0.0443392 7.86914e-19)
(0.0320898 0.0425516 1.94455e-19)
(0.0594297 0.0404728 -1.51495e-19)
(0.0920448 0.0383712 -1.49809e-19)
(0.130164 0.0365034 -7.45582e-20)
(0.173972 0.0351211 -1.16941e-19)
(0.22356 0.0344811 -3.87133e-19)
(0.278832 0.0348385 -1.054e-19)
(0.339555 0.0365895 8.73435e-21)
(0.404505 0.039922 -2.86565e-19)
(0.472503 0.0443295 1.42175e-19)
(0.542437 0.0688626 -3.05579e-19)
(-0.00833338 0.00839677 -4.11835e-19)
(-0.0205457 0.0210097 2.77129e-19)
(-0.0285313 0.030326 -4.13027e-19)
(-0.0321484 0.0368172 -2.2511e-19)
(-0.0312878 0.0409469 8.39813e-20)
(-0.0258492 0.0431556 -3.35245e-19)
(-0.0157178 0.043854 5.25543e-19)
(-0.000750268 0.0434213 8.95126e-21)
(0.0192317 0.0422067 -2.92564e-19)
(0.0444406 0.0405324 -2.55753e-19)
(0.0751138 0.0386981 -4.56829e-19)
(0.111494 0.0369866 -5.61183e-21)
(0.153801 0.0356692 1.68085e-20)
(0.202187 0.035013 -1.05249e-19)
(0.256686 0.0352924 4.67032e-19)
(0.317116 0.0367844 2.88486e-19)
(0.383179 0.0399687 7.17587e-20)
(0.453304 0.0449155 -3.09139e-19)
(0.527794 0.0531999 -1.69447e-20)
(0.594517 0.0801842 -5.03463e-19)
(-0.00849053 0.00823394 1.46293e-19)
(-0.0206649 0.0204498 -2.77566e-19)
(-0.02824 0.0293655 3.56841e-19)
(-0.0310849 0.0354733 5.01747e-19)
(-0.0290865 0.0392641 -1.63327e-19)
(-0.022137 0.0412005 2.11691e-20)
(-0.0101095 0.0417115 -4.43291e-19)
(0.0071547 0.0411926 -1.10349e-19)
(0.029851 0.0400077 -3.43502e-19)
(0.0582067 0.0384933 4.47989e-19)
(0.0924668 0.0369631 4.15218e-19)
(0.132869 0.0357126 -7.38651e-20)
(0.179607 0.0350247 -5.55288e-20)
(0.232783 0.035175 -4.80831e-21)
(0.292349 0.0364433 8.39464e-20)
(0.358013 0.0391028 -1.50976e-19)
(0.429415 0.0436734 -1.75287e-19)
(0.504835 0.0500402 3.71675e-19)
(0.587098 0.0624021 -1.19637e-19)
(0.655671 0.0843228 1.27514e-20)
(-0.00862373 0.00805019 3.86688e-20)
(-0.0206871 0.0198298 5.59749e-20)
(-0.0277534 0.0283153 -1.86932e-19)
(-0.0297049 0.0340198 -5.175e-19)
(-0.0264248 0.0374624 8.38475e-20)
(-0.0177976 0.0391291 2.54117e-19)
(-0.00368467 0.0394678 1.15975e-19)
(0.0160878 0.0388909 4.97872e-19)
(0.0417299 0.0377776 -3.12821e-19)
(0.0734786 0.0364787 -4.06597e-19)
(0.111578 0.0353209 -7.44454e-20)