/*--------------------------------*- C++ -*----------------------------------*\
  =========                 |
  \\      /  F ield         | OpenFOAM: The Open Source CFD Toolbox
   \\    /   O peration     | Website:  https://openfoam.org
    \\  /    A nd           | Version:  7
     \\/     M anipulation  |
\*---------------------------------------------------------------------------*/
FoamFile
{
    version     2.0;
    format      ascii;
    class       volScalarField;
    location    "5";
    object      p;
}
// * * * * * * * * * * * * * * * * * * * * * * * * * * * * * * * * * * * * * //

dimensions      [0 2 -2 0 0 0 0];

internalField   nonuniform List<scalar> 
12100
(
-0.35562
-0.360243
-0.3626
-0.363865
-0.364325
-0.363985
-0.362922
-0.361209
-0.358908
-0.356079
-0.352781
-0.349074
-0.344961
-0.340529
-0.356204
-0.360754
-0.363062
-0.364282
-0.3647
-0.364321
-0.363222
-0.361475
-0.359143
-0.356284
-0.352959
-0.349231
-0.345089
-0.34061
-0.357366
-0.361775
-0.363981
-0.365113
-0.365447
-0.364991
-0.363819
-0.362004
-0.359609
-0.356691
-0.353312
-0.349543
-0.345342
-0.340769
-0.359102
-0.363298
-0.365355
-0.366354
-0.366563
-0.36599
-0.364709
-0.362793
-0.360302
-0.357294
-0.353834
-0.350002
-0.345716
-0.340997
-0.361399
-0.365316
-0.367175
-0.367997
-0.368039
-0.367312
-0.365886
-0.363834
-0.361214
-0.358086
-0.354515
-0.350599
-0.346201
-0.341273
-0.364246
-0.367818
-0.369432
-0.370035
-0.36987
-0.368948
-0.367342
-0.365119
-0.362338
-0.359056
-0.355345
-0.351322
-0.346779
-0.341518
-0.367626
-0.370792
-0.372115
-0.372457
-0.372044
-0.370891
-0.369067
-0.366638
-0.363662
-0.360194
-0.356311
-0.352156
-0.347428
-0.341612
-0.371523
-0.374223
-0.375212
-0.375253
-0.374551
-0.373129
-0.371051
-0.368381
-0.365176
-0.361489
-0.357402
-0.35308
-0.348145
-0.342192
-0.375919
-0.378098
-0.378709
-0.378408
-0.377381
-0.375652
-0.373285
-0.370338
-0.366869
-0.362929
-0.358603
-0.354083
-0.348881
-0.342618
-0.380794
-0.3824
-0.382592
-0.381912
-0.38052
-0.378449
-0.375756
-0.3725
-0.368732
-0.364501
-0.359901
-0.355151
-0.34964
-0.342934
-0.386132
-0.387113
-0.386848
-0.385751
-0.383958
-0.381508
-0.378457
-0.374856
-0.370755
-0.366199
-0.361285
-0.356269
-0.350408
-0.343165
-0.391912
-0.392222
-0.391462
-0.389912
-0.387683
-0.384822
-0.381378
-0.3774
-0.372933
-0.368015
-0.362748
-0.357424
-0.351163
-0.343286
-0.398118
-0.39771
-0.396419
-0.394382
-0.391685
-0.388379
-0.384513
-0.380127
-0.375262
-0.369947
-0.364285
-0.35861
-0.351888
-0.343265
-0.404732
-0.403562
-0.401706
-0.39915
-0.395952
-0.392173
-0.387855
-0.383034
-0.377741
-0.371996
-0.365898
-0.359822
-0.352572
-0.34307
-0.411738
-0.409764
-0.407309
-0.404203
-0.400475
-0.396196
-0.391402
-0.38612
-0.380374
-0.374168
-0.367595
-0.361066
-0.353209
-0.342668
-0.419119
-0.416298
-0.413214
-0.409529
-0.405246
-0.400442
-0.39515
-0.389388
-0.383168
-0.376476
-0.369389
-0.362355
-0.353798
-0.342021
-0.426859
-0.42315
-0.419406
-0.415118
-0.410255
-0.404906
-0.399099
-0.392842
-0.386133
-0.378937
-0.371306
-0.363711
-0.354351
-0.341094
-0.434939
-0.430302
-0.425872
-0.420956
-0.415493
-0.409584
-0.40325
-0.396489
-0.389285
-0.381575
-0.373378
-0.365173
-0.354891
-0.339848
-0.44334
-0.437738
-0.432596
-0.427032
-0.420952
-0.41447
-0.407601
-0.400335
-0.39264
-0.384422
-0.375653
-0.3668
-0.355474
-0.338272
-0.45204
-0.445437
-0.43956
-0.433331
-0.426622
-0.419559
-0.412154
-0.404389
-0.396218
-0.387513
-0.378193
-0.368686
-0.356223
-0.336437
-0.461014
-0.453378
-0.446748
-0.43984
-0.432492
-0.424844
-0.416906
-0.408657
-0.400036
-0.390888
-0.38107
-0.370945
-0.357283
-0.334408
-0.470233
-0.461537
-0.454138
-0.446541
-0.438548
-0.430315
-0.421854
-0.413141
-0.404112
-0.394591
-0.384382
-0.373708
-0.358603
-0.331686
-0.479665
-0.469888
-0.461709
-0.453417
-0.444776
-0.435962
-0.426989
-0.417839
-0.408458
-0.39868
-0.388302
-0.377296
-0.360489
-0.32817
-0.489276
-0.478402
-0.469436
-0.460445
-0.451157
-0.441767
-0.432295
-0.422736
-0.413066
-0.403189
-0.393026
-0.382466
-0.366465
-0.33494
-0.499028
-0.487047
-0.477292
-0.467604
-0.457672
-0.44771
-0.437748
-0.427797
-0.417877
-0.40801
-0.398345
-0.389143
-0.380615
-0.383537
-0.508879
-0.49579
-0.485248
-0.474867
-0.464296
-0.453767
-0.443316
-0.432972
-0.422787
-0.412876
-0.40353
-0.395067
-0.38949
-0.398699
-0.518787
-0.504594
-0.493273
-0.482207
-0.471003
-0.459911
-0.44897
-0.438216
-0.427721
-0.417642
-0.408301
-0.399853
-0.394388
-0.402795
-0.528707
-0.513421
-0.501331
-0.489591
-0.477765
-0.466114
-0.454678
-0.443493
-0.432635
-0.422269
-0.412695
-0.403908
-0.39781
-0.404381
-0.538591
-0.522229
-0.509386
-0.496988
-0.48455
-0.472346
-0.460409
-0.448769
-0.437496
-0.426738
-0.416748
-0.407392
-0.400334
-0.404476
-0.548391
-0.530972
-0.517396
-0.504358
-0.491323
-0.478573
-0.466128
-0.454009
-0.442267
-0.431023
-0.420464
-0.410347
-0.402097
-0.403587
-0.558053
-0.539603
-0.525318
-0.51166
-0.498045
-0.484755
-0.471796
-0.45917
-0.446907
-0.43509
-0.423836
-0.412812
-0.403237
-0.402074
-0.567521
-0.548069
-0.533101
-0.518848
-0.50467
-0.490847
-0.477366
-0.464207
-0.451373
-0.438904
-0.426851
-0.414817
-0.40385
-0.400103
-0.576732
-0.556312
-0.540691
-0.52587
-0.511148
-0.496799
-0.482787
-0.469068
-0.455613
-0.442422
-0.429486
-0.41637
-0.403986
-0.39775
-0.585621
-0.56427
-0.548029
-0.532668
-0.517422
-0.502554
-0.488003
-0.473695
-0.459573
-0.445597
-0.43171
-0.41746
-0.403658
-0.395046
-0.594115
-0.571875
-0.555051
-0.539179
-0.523429
-0.508049
-0.492949
-0.478025
-0.463191
-0.448375
-0.433483
-0.418068
-0.402864
-0.391993
-0.602134
-0.579053
-0.561684
-0.545335
-0.529103
-0.513216
-0.497556
-0.481989
-0.466403
-0.450699
-0.43476
-0.418162
-0.401581
-0.388577
-0.609593
-0.585725
-0.567855
-0.551061
-0.534368
-0.517982
-0.50175
-0.485514
-0.469138
-0.452506
-0.435489
-0.4177
-0.399778
-0.384772
-0.616403
-0.591807
-0.573481
-0.556277
-0.539146
-0.522265
-0.505453
-0.488522
-0.471323
-0.45373
-0.435613
-0.416638
-0.397416
-0.380539
-0.622467
-0.597211
-0.578477
-0.560901
-0.543354
-0.525984
-0.50858
-0.490933
-0.472882
-0.454301
-0.435073
-0.414925
-0.394451
-0.375835
-0.627684
-0.601841
-0.582754
-0.564843
-0.546903
-0.529051
-0.511045
-0.492661
-0.473735
-0.454147
-0.433806
-0.412507
-0.390834
-0.370613
-0.631951
-0.605603
-0.586217
-0.568012
-0.549702
-0.531374
-0.51276
-0.493622
-0.473801
-0.453196
-0.431749
-0.409329
-0.386516
-0.364822
-0.635159
-0.608395
-0.58877
-0.570313
-0.551658
-0.532862
-0.513632
-0.493728
-0.473001
-0.451376
-0.428838
-0.405336
-0.381447
-0.358414
-0.637201
-0.610117
-0.590315
-0.571648
-0.552675
-0.533419
-0.513572
-0.492892
-0.471253
-0.448615
-0.425012
-0.400477
-0.375582
-0.35134
-0.637967
-0.610666
-0.590753
-0.57192
-0.552655
-0.53295
-0.512485
-0.491029
-0.46848
-0.444845
-0.420212
-0.394699
-0.368874
-0.343554
-0.637348
-0.60994
-0.589983
-0.571031
-0.551502
-0.531362
-0.510284
-0.488053
-0.464607
-0.44
-0.414383
-0.387957
-0.361285
-0.335016
-0.63524
-0.607839
-0.587909
-0.568884
-0.549121
-0.528562
-0.506881
-0.483886
-0.459561
-0.434018
-0.407473
-0.380209
-0.352777
-0.325689
-0.631538
-0.604264
-0.584433
-0.565385
-0.54542
-0.524462
-0.502191
-0.478452
-0.453278
-0.426846
-0.399438
-0.371418
-0.343321
-0.315542
-0.626145
-0.599123
-0.579465
-0.560442
-0.54031
-0.518976
-0.496137
-0.47168
-0.445698
-0.418433
-0.390239
-0.361554
-0.332893
-0.30455
-0.618972
-0.592327
-0.572916
-0.55397
-0.533708
-0.512026
-0.488647
-0.463508
-0.436767
-0.408738
-0.379843
-0.350594
-0.321472
-0.292694
-0.60993
-0.583793
-0.564705
-0.545886
-0.525534
-0.503537
-0.479654
-0.453879
-0.426441
-0.397726
-0.368226
-0.338518
-0.309048
-0.279961
-0.598944
-0.573445
-0.554756
-0.53612
-0.51572
-0.493448
-0.469104
-0.442747
-0.414684
-0.385372
-0.355371
-0.325319
-0.295613
-0.266344
-0.585949
-0.56122
-0.543005
-0.524605
-0.504204
-0.481701
-0.456948
-0.430075
-0.401468
-0.371658
-0.341268
-0.310991
-0.28117
-0.251842
-0.570891
-0.547062
-0.529396
-0.511288
-0.490936
-0.468252
-0.443149
-0.415836
-0.386776
-0.356576
-0.325917
-0.295539
-0.265724
-0.23646
-0.553728
-0.530925
-0.513883
-0.496124
-0.475873
-0.453066
-0.427682
-0.400012
-0.370601
-0.340127
-0.309324
-0.278974
-0.249288
-0.220209
-0.53443
-0.512779
-0.496433
-0.479079
-0.458987
-0.436121
-0.410532
-0.382598
-0.352945
-0.32232
-0.291503
-0.261313
-0.231884
-0.203107
-0.512981
-0.492602
-0.477024
-0.460134
-0.440262
-0.417406
-0.391696
-0.363599
-0.333823
-0.303174
-0.272478
-0.24258
-0.213535
-0.185176
-0.489381
-0.47039
-0.455647
-0.439282
-0.419694
-0.396923
-0.371185
-0.343034
-0.313257
-0.282718
-0.252279
-0.222805
-0.194269
-0.166405
-0.463643
-0.446151
-0.432311
-0.416529
-0.397293
-0.374689
-0.34902
-0.320931
-0.291283
-0.26099
-0.230944
-0.202029
-0.174122
-0.146745
-0.435796
-0.419906
-0.407033
-0.391895
-0.373082
-0.350732
-0.325237
-0.29733
-0.267943
-0.238036
-0.208522
-0.180302
-0.153162
-0.126362
-0.405886
-0.391694
-0.379849
-0.365417
-0.347101
-0.325094
-0.299883
-0.272284
-0.243294
-0.213911
-0.185067
-0.157658
-0.131326
-0.10554
-0.373973
-0.361568
-0.350808
-0.337142
-0.3194
-0.297832
-0.273018
-0.245855
-0.2174
-0.18868
-0.160639
-0.134165
-0.108762
-0.0840193
-0.340131
-0.329594
-0.319975
-0.307135
-0.290045
-0.269015
-0.244714
-0.218119
-0.190336
-0.162414
-0.135306
-0.109885
-0.0855294
-0.0618618
-0.304452
-0.295854
-0.287427
-0.275473
-0.259115
-0.238724
-0.215055
-0.189159
-0.162184
-0.135196
-0.109144
-0.0848874
-0.061682
-0.0391451
-0.267041
-0.260445
-0.253256
-0.242249
-0.226704
-0.207053
-0.184135
-0.15907
-0.133038
-0.107113
-0.0822372
-0.0592491
-0.0372856
-0.0159373
-0.228015
-0.223474
-0.217569
-0.207566
-0.192914
-0.174105
-0.152062
-0.127956
-0.102998
-0.078263
-0.0546758
-0.0330529
-0.0124157
0.00768741
-0.187507
-0.185067
-0.180483
-0.171541
-0.157862
-0.139998
-0.118947
-0.0959295
-0.0721741
-0.0487488
-0.0265582
-0.00638928
0.0128426
0.0316413
-0.14565
-0.145363
-0.14213
-0.134303
-0.121677
-0.104858
-0.0849145
-0.0631092
-0.0406801
-0.018681
0.00201009
0.0206426
0.0383911
0.0558213
-0.10261
-0.104504
-0.102651
-0.0959902
-0.0844928
-0.068817
-0.0500946
-0.0296212
-0.00863679
0.0118247
0.0309167
0.0479366
0.0641235
0.0801001
-0.0585636
-0.0626378
-0.0621982
-0.0567527
-0.0464565
-0.0320175
-0.0146236
0.00440435
0.023832
0.042649
0.0600459
0.0753933
0.0899449
0.104259
-0.0136728
-0.0199384
-0.0209341
-0.0167472
-0.00772085
0.00539299
0.0213575
0.038834
0.0566001
0.0736695
0.0892806
0.102928
0.115753
0.127908
0.0318794
0.023419
0.0209726
0.0238614
0.0315548
0.0432618
0.057704
0.0735327
0.0895409
0.104763
0.118501
0.130418
0.141217
0.150472
0.0779011
0.0672526
0.0633454
0.0649016
0.0712052
0.0814319
0.0942693
0.108366
0.122533
0.135823
0.147609
0.157656
0.165461
0.170436
0.124194
0.111373
0.106001
0.106196
0.11106
0.119743
0.130904
0.143199
0.155463
0.166775
0.176589
0.18459
0.187928
0.186907
0.170562
0.155593
0.148755
0.147566
0.150949
0.158032
0.167459
0.177897
0.188218
0.197547
0.205427
0.211624
0.213213
0.21242
0.2168
0.199714
0.191416
0.188827
0.190695
0.196133
0.203778
0.212318
0.220667
0.228008
0.233956
0.238337
0.238598
0.237753
0.262699
0.243536
0.233792
0.229793
0.230121
0.233881
0.239707
0.246316
0.252671
0.258016
0.262022
0.264541
0.263334
0.261768
0.308054
0.286862
0.275689
0.270278
0.26905
0.271108
0.275091
0.279749
0.284098
0.287441
0.289501
0.29015
0.287412
0.284763
0.352658
0.329492
0.316914
0.310097
0.307307
0.30765
0.309777
0.312477
0.314817
0.316161
0.316277
0.315058
0.310768
0.306838
0.396306
0.371229
0.357276
0.349066
0.344717
0.343344
0.343616
0.34436
0.344702
0.344061
0.342244
0.339168
0.333314
0.327994
0.438798
0.411878
0.396587
0.387004
0.38111
0.378033
0.376461
0.375268
0.373633
0.371031
0.367307
0.362395
0.354983
0.348214
0.479936
0.451249
0.434662
0.423736
0.416321
0.411561
0.408172
0.405072
0.401495
0.396971
0.391376
0.384667
0.375716
0.367475
0.519529
0.489157
0.471322
0.45909
0.450187
0.44378
0.438612
0.433649
0.428179
0.421784
0.414369
0.405913
0.395462
0.385751
0.557394
0.525424
0.506395
0.4929
0.482555
0.474548
0.467653
0.460883
0.453582
0.445379
0.436208
0.426069
0.414169
0.40301
0.593354
0.559877
0.539713
0.525009
0.513276
0.503727
0.49517
0.486664
0.477605
0.467671
0.456819
0.445072
0.431788
0.419222
0.62724
0.592354
0.57112
0.555266
0.54221
0.531189
0.521045
0.510886
0.500157
0.488578
0.476133
0.462865
0.448269
0.434353
0.658893
0.622699
0.600464
0.58353
0.569223
0.556812
0.54517
0.533451
0.521149
0.508024
0.494084
0.479391
0.463565
0.448369
0.688166
0.650769
0.627608
0.609666
0.594193
0.580482
0.567442
0.554269
0.540502
0.52594
0.51061
0.494597
0.477632
0.461237
0.714919
0.676429
0.652422
0.633553
0.617004
0.602095
0.587765
0.573254
0.558141
0.54226
0.525656
0.508435
0.490427
0.472923
0.739028
0.699558
0.674786
0.655078
0.637552
0.621554
0.606055
0.590329
0.573997
0.556923
0.539168
0.520857
0.501909
0.483398
0.760379
0.720044
0.694595
0.67414
0.655743
0.638775
0.622232
0.605426
0.58801
0.569876
0.5511
0.531822
0.512041
0.492632
0.778871
0.737789
0.711754
0.690649
0.671493
0.653679
0.636229
0.618483
0.600124
0.581069
0.561408
0.541294
0.52079
0.500598
0.794417
0.752709
0.72618
0.704527
0.684731
0.666202
0.647985
0.629446
0.610293
0.590463
0.570055
0.549238
0.528128
0.507274
0.806943
0.764731
0.737805
0.715708
0.695394
0.676288
0.657451
0.638271
0.618476
0.598021
0.577012
0.555627
0.534028
0.512639
0.816389
0.773799
0.746573
0.724141
0.703435
0.683892
0.664586
0.644921
0.624642
0.603714
0.582251
0.560439
0.538472
0.516678
0.822712
0.779869
0.752441
0.729785
0.708817
0.68898
0.669359
0.64937
0.628766
0.607522
0.585755
0.563657
0.541443
0.519377
0.825881
0.782911
0.755383
0.732614
0.711513
0.691529
0.671751
0.651599
0.630833
0.609429
0.58751
0.565268
0.542931
0.520729
0.825881
0.782911
0.755383
0.732614
0.711513
0.691529
0.671751
0.651599
0.630833
0.609429
0.58751
0.565268
0.542931
0.520729
0.822712
0.779869
0.752441
0.729785
0.708816
0.68898
0.669359
0.64937
0.628766
0.607522
0.585755
0.563657
0.541443
0.519377
0.816389
0.773799
0.746573
0.724141
0.703435
0.683892
0.664586
0.644921
0.624642
0.603714
0.582251
0.560439
0.538472
0.516678
0.806943
0.764731
0.737805
0.715708
0.695394
0.676288
0.657451
0.638271
0.618476
0.598021
0.577011
0.555627
0.534028
0.512639
0.794417
0.752709
0.72618
0.704527
0.684731
0.666202
0.647985
0.629446
0.610293
0.590463
0.570055
0.549238
0.528128
0.507274
0.778871
0.737789
0.711754
0.690649
0.671493
0.653679
0.636229
0.618483
0.600124
0.581069
0.561408
0.541294
0.52079
0.500598
0.760379
0.720043
0.694595
0.67414
0.655743
0.638774
0.622232
0.605426
0.58801
0.569875
0.5511
0.531822
0.512041
0.492632
0.739028
0.699558
0.674786
0.655078
0.637552
0.621554
0.606054
0.590329
0.573997
0.556923
0.539168
0.520857
0.501909
0.483398
0.714919
0.676429
0.652422
0.633553
0.617004
0.602095
0.587765
0.573254
0.558141
0.54226
0.525656
0.508435
0.490427
0.472923
0.688165
0.650769
0.627608
0.609666
0.594193
0.580482
0.567441
0.554269
0.540502
0.52594
0.51061
0.494597
0.477632
0.461237
0.658893
0.622699
0.600464
0.583529
0.569223
0.556812
0.54517
0.533451
0.521149
0.508024
0.494084
0.479391
0.463565
0.448369
0.62724
0.592353
0.571119
0.555266
0.54221
0.531189
0.521045
0.510886
0.500156
0.488577
0.476133
0.462865
0.448269
0.434353
0.593354
0.559877
0.539713
0.525009
0.513276
0.503727
0.495169
0.486663
0.477605
0.46767
0.456819
0.445072
0.431788
0.419222
0.557394
0.525424
0.506395
0.4929
0.482555
0.474548
0.467653
0.460883
0.453582
0.445379
0.436208
0.426068
0.414169
0.40301
0.519529
0.489157
0.471322
0.459089
0.450187
0.44378
0.438612
0.433649
0.428179
0.421784
0.414369
0.405913
0.395462
0.38575
0.479935
0.451249
0.434662
0.423736
0.416321
0.411561
0.408172
0.405071
0.401495
0.396971
0.391376
0.384667
0.375716
0.367475
0.438797
0.411877
0.396586
0.387004
0.38111
0.378032
0.376461
0.375268
0.373632
0.371031
0.367307
0.362395
0.354983
0.348214
0.396306
0.371228
0.357276
0.349065
0.344717
0.343344
0.343616
0.34436
0.344701
0.34406
0.342244
0.339168
0.333314
0.327994
0.352658
0.329492
0.316913
0.310097
0.307307
0.307649
0.309777
0.312476
0.314817
0.316161
0.316277
0.315058
0.310768
0.306838
0.308054
0.286862
0.275688
0.270278
0.26905
0.271108
0.275091
0.279749
0.284098
0.287441
0.289501
0.29015
0.287412
0.284763
0.262699
0.243536
0.233792
0.229793
0.230121
0.233881
0.239707
0.246316
0.252671
0.258015
0.262022
0.264541
0.263334
0.261767
0.216799
0.199713
0.191416
0.188827
0.190695
0.196133
0.203778
0.212318
0.220666
0.228007
0.233955
0.238336
0.238598
0.237753
0.170562
0.155593
0.148755
0.147566
0.150949
0.158031
0.167459
0.177897
0.188218
0.197547
0.205427
0.211623
0.213213
0.21242
0.124193
0.111373
0.106001
0.106196
0.11106
0.119742
0.130904
0.143199
0.155463
0.166775
0.176589
0.18459
0.187927
0.186907
0.0779008
0.0672523
0.0633451
0.0649014
0.071205
0.0814316
0.094269
0.108366
0.122532
0.135823
0.147609
0.157655
0.16546
0.170436
0.0318791
0.0234187
0.0209723
0.0238612
0.0315545
0.0432615
0.0577038
0.0735325
0.0895406
0.104763
0.118501
0.130418
0.141217
0.150472
-0.0136731
-0.0199387
-0.0209344
-0.0167475
-0.00772113
0.00539272
0.0213572
0.0388337
0.0565998
0.0736693
0.0892803
0.102927
0.115753
0.127908
-0.0585639
-0.0626381
-0.0621985
-0.056753
-0.0464568
-0.0320178
-0.0146238
0.00440409
0.0238318
0.0426488
0.0600457
0.0753931
0.0899447
0.104258
-0.10261
-0.104505
-0.102651
-0.0959905
-0.0844931
-0.0688173
-0.0500948
-0.0296215
-0.00863704
0.0118245
0.0309165
0.0479364
0.0641233
0.0800999
-0.145651
-0.145363
-0.14213
-0.134303
-0.121677
-0.104858
-0.0849147
-0.0631095
-0.0406804
-0.0186812
0.00200986
0.0206423
0.0383909
0.0558212
-0.187507
-0.185067
-0.180483
-0.171541
-0.157863
-0.139998
-0.118947
-0.0959297
-0.0721743
-0.048749
-0.0265584
-0.0063895
0.0128424
0.0316411
-0.228016
-0.223475
-0.217569
-0.207566
-0.192914
-0.174105
-0.152062
-0.127957
-0.102999
-0.0782633
-0.0546761
-0.0330531
-0.0124159
0.00768722
-0.267041
-0.260445
-0.253256
-0.242249
-0.226704
-0.207053
-0.184135
-0.15907
-0.133038
-0.107114
-0.0822375
-0.0592493
-0.0372858
-0.0159375
-0.304452
-0.295855
-0.287427
-0.275474
-0.259116
-0.238724
-0.215055
-0.189159
-0.162184
-0.135196
-0.109144
-0.0848876
-0.0616822
-0.0391453
-0.340132
-0.329594
-0.319975
-0.307135
-0.290045
-0.269015
-0.244714
-0.218119
-0.190336
-0.162414
-0.135306
-0.109885
-0.0855296
-0.061862
-0.373973
-0.361568
-0.350809
-0.337142
-0.3194
-0.297833
-0.273018
-0.245856
-0.217401
-0.18868
-0.160639
-0.134165
-0.108762
-0.0840195
-0.405886
-0.391695
-0.379849
-0.365417
-0.347101
-0.325094
-0.299883
-0.272284
-0.243294
-0.213911
-0.185067
-0.157658
-0.131326
-0.10554
-0.435796
-0.419906
-0.407033
-0.391896
-0.373083
-0.350732
-0.325237
-0.29733
-0.267944
-0.238036
-0.208523
-0.180302
-0.153162
-0.126362
-0.463643
-0.446151
-0.432311
-0.416529
-0.397293
-0.374689
-0.34902
-0.320931
-0.291283
-0.26099
-0.230944
-0.202029
-0.174122
-0.146745
-0.489381
-0.470391
-0.455648
-0.439282
-0.419694
-0.396923
-0.371185
-0.343034
-0.313258
-0.282719
-0.252279
-0.222805
-0.194269
-0.166405
-0.512981
-0.492603
-0.477024
-0.460135
-0.440262
-0.417406
-0.391697
-0.3636
-0.333823
-0.303174
-0.272478
-0.24258
-0.213535
-0.185176
-0.53443
-0.512779
-0.496433
-0.479079
-0.458987
-0.436121
-0.410532
-0.382598
-0.352946
-0.32232
-0.291504
-0.261314
-0.231884
-0.203107
-0.553728
-0.530926
-0.513884
-0.496124
-0.475873
-0.453066
-0.427683
-0.400012
-0.370601
-0.340127
-0.309324
-0.278974
-0.249289
-0.220209
-0.570892
-0.547062
-0.529396
-0.511288
-0.490936
-0.468252
-0.44315
-0.415836
-0.386776
-0.356576
-0.325917
-0.295539
-0.265724
-0.23646
-0.585949
-0.56122
-0.543006
-0.524606
-0.504205
-0.481701
-0.456948
-0.430076
-0.401468
-0.371658
-0.341268
-0.310991
-0.28117
-0.251842
-0.598944
-0.573446
-0.554756
-0.53612
-0.51572
-0.493448
-0.469104
-0.442748
-0.414684
-0.385372
-0.355371
-0.325319
-0.295614
-0.266344
-0.60993
-0.583793
-0.564705
-0.545887
-0.525535
-0.503538
-0.479655
-0.453879
-0.426441
-0.397726
-0.368226
-0.338519
-0.309048
-0.279961
-0.618972
-0.592328
-0.572917
-0.55397
-0.533708
-0.512026
-0.488647
-0.463508
-0.436767
-0.408738
-0.379843
-0.350594
-0.321472
-0.292694
-0.626146
-0.599123
-0.579465
-0.560442
-0.540311
-0.518976
-0.496137
-0.47168
-0.445698
-0.418433
-0.390239
-0.361555
-0.332893
-0.30455
-0.631538
-0.604264
-0.584434
-0.565385
-0.545421
-0.524462
-0.502191
-0.478452
-0.453279
-0.426846
-0.399438
-0.371418
-0.343322
-0.315542
-0.63524
-0.607839
-0.587909
-0.568885
-0.549122
-0.528563
-0.506881
-0.483887
-0.459562
-0.434019
-0.407474
-0.380209
-0.352778
-0.32569
-0.637349
-0.60994
-0.589984
-0.571032
-0.551502
-0.531363
-0.510285
-0.488054
-0.464607
-0.44
-0.414383
-0.387957
-0.361285
-0.335017
-0.637967
-0.610666
-0.590753
-0.571921
-0.552655
-0.532951
-0.512486
-0.491029
-0.46848
-0.444845
-0.420213
-0.394699
-0.368874
-0.343555
-0.637201
-0.610117
-0.590315
-0.571648
-0.552675
-0.533419
-0.513572
-0.492893
-0.471253
-0.448615
-0.425012
-0.400477
-0.375582
-0.35134
-0.635159
-0.608395
-0.58877
-0.570313
-0.551658
-0.532862
-0.513633
-0.493728
-0.473001
-0.451376
-0.428838
-0.405337
-0.381447
-0.358414
-0.631951
-0.605603
-0.586217
-0.568013
-0.549703
-0.531375
-0.51276
-0.493622
-0.473801
-0.453196
-0.431749
-0.409329
-0.386516
-0.364822
-0.627684
-0.601842
-0.582754
-0.564844
-0.546903
-0.529051
-0.511045
-0.492662
-0.473735
-0.454147
-0.433806
-0.412507
-0.390834
-0.370613
-0.622467
-0.597211
-0.578478
-0.560901
-0.543354
-0.525985
-0.50858
-0.490933
-0.472882
-0.454301
-0.435073
-0.414925
-0.394451
-0.375835
-0.616403
-0.591808
-0.573481
-0.556278
-0.539146
-0.522266
-0.505453
-0.488522
-0.471324
-0.45373
-0.435613
-0.416639
-0.397417
-0.380539
-0.609594
-0.585725
-0.567855
-0.551061
-0.534368
-0.517982
-0.50175
-0.485514
-0.469138
-0.452506
-0.435489
-0.4177
-0.399778
-0.384772
-0.602134
-0.579053
-0.561685
-0.545335
-0.529103
-0.513216
-0.497556
-0.481989
-0.466403
-0.450699
-0.43476
-0.418162
-0.401581
-0.388578
-0.594115
-0.571875
-0.555051
-0.539179
-0.52343
-0.508049
-0.492949
-0.478025
-0.463191
-0.448375
-0.433484
-0.418068
-0.402864
-0.391993
-0.585622
-0.56427
-0.548029
-0.532668
-0.517422
-0.502554
-0.488003
-0.473695
-0.459573
-0.445597
-0.43171
-0.417461
-0.403659
-0.395046
-0.576733
-0.556312
-0.540691
-0.52587
-0.511148
-0.496799
-0.482788
-0.469068
-0.455613
-0.442422
-0.429486
-0.41637
-0.403986
-0.39775
-0.567521
-0.548069
-0.533101
-0.518848
-0.50467
-0.490847
-0.477366
-0.464207
-0.451373
-0.438904
-0.426851
-0.414817
-0.40385
-0.400104
-0.558053
-0.539603
-0.525318
-0.51166
-0.498045
-0.484755
-0.471796
-0.45917
-0.446907
-0.43509
-0.423836
-0.412812
-0.403237
-0.402074
-0.548391
-0.530972
-0.517397
-0.504358
-0.491324
-0.478573
-0.466128
-0.454009
-0.442267
-0.431023
-0.420464
-0.410347
-0.402098
-0.403588
-0.538592
-0.522229
-0.509386
-0.496988
-0.48455
-0.472346
-0.460409
-0.448769
-0.437496
-0.426738
-0.416748
-0.407392
-0.400335
-0.404476
-0.528707
-0.513421
-0.501331
-0.489592
-0.477765
-0.466114
-0.454678
-0.443493
-0.432636
-0.422269
-0.412695
-0.403908
-0.39781
-0.404381
-0.518787
-0.504595
-0.493273
-0.482207
-0.471003
-0.459911
-0.44897
-0.438216
-0.427721
-0.417642
-0.408301
-0.399853
-0.394388
-0.402795
-0.508879
-0.49579
-0.485248
-0.474868
-0.464296
-0.453767
-0.443317
-0.432973
-0.422787
-0.412877
-0.40353
-0.395067
-0.38949
-0.398699
-0.499028
-0.487047
-0.477292
-0.467605
-0.457672
-0.44771
-0.437748
-0.427798
-0.417877
-0.40801
-0.398345
-0.389144
-0.380615
-0.383537
-0.489276
-0.478402
-0.469436
-0.460446
-0.451157
-0.441767
-0.432295
-0.422737
-0.413066
-0.403189
-0.393026
-0.382466
-0.366465
-0.334941
-0.479665
-0.469888
-0.461709
-0.453417
-0.444776
-0.435962
-0.426989
-0.417839
-0.408458
-0.39868
-0.388302
-0.377297
-0.36049
-0.32817
-0.470233
-0.461537
-0.454138
-0.446542
-0.438548
-0.430315
-0.421854
-0.413141
-0.404112
-0.394591
-0.384382
-0.373708
-0.358603
-0.331686
-0.461014
-0.453378
-0.446748
-0.43984
-0.432492
-0.424844
-0.416907
-0.408657
-0.400036
-0.390888
-0.381071
-0.370945
-0.357283
-0.334408
-0.45204
-0.445437
-0.439561
-0.433331
-0.426622
-0.419559
-0.412154
-0.404389
-0.396218
-0.387514
-0.378193
-0.368686
-0.356223
-0.336438
-0.44334
-0.437738
-0.432596
-0.427032
-0.420952
-0.41447
-0.407601
-0.400336
-0.39264
-0.384422
-0.375653
-0.3668
-0.355474
-0.338273
-0.434939
-0.430302
-0.425872
-0.420956
-0.415493
-0.409584
-0.40325
-0.396489
-0.389285
-0.381576
-0.373378
-0.365173
-0.354891
-0.339848
-0.426859
-0.42315
-0.419407
-0.415118
-0.410255
-0.404907
-0.399099
-0.392843
-0.386134
-0.378937
-0.371306
-0.363711
-0.354351
-0.341094
-0.419119
-0.416298
-0.413214
-0.409529
-0.405246
-0.400442
-0.39515
-0.389389
-0.383168
-0.376476
-0.369389
-0.362355
-0.353798
-0.342021
-0.411738
-0.409764
-0.407309
-0.404203
-0.400475
-0.396196
-0.391402
-0.386121
-0.380374
-0.374168
-0.367595
-0.361066
-0.353209
-0.342668
-0.404732
-0.403563
-0.401706
-0.39915
-0.395952
-0.392173
-0.387855
-0.383034
-0.377741
-0.371996
-0.365898
-0.359822
-0.352572
-0.34307
-0.398118
-0.397711
-0.396419
-0.394382
-0.391685
-0.388379
-0.384513
-0.380127
-0.375262
-0.369947
-0.364285
-0.35861
-0.351888
-0.343265
-0.391912
-0.392222
-0.391462
-0.389912
-0.387683
-0.384822
-0.381378
-0.3774
-0.372933
-0.368015
-0.362748
-0.357424
-0.351163
-0.343286
-0.386132
-0.387113
-0.386848
-0.385751
-0.383958
-0.381509
-0.378457
-0.374856
-0.370755
-0.366199
-0.361285
-0.356269
-0.350408
-0.343166
-0.380795
-0.3824
-0.382592
-0.381912
-0.38052
-0.378449
-0.375756
-0.3725
-0.368732
-0.364502
-0.359901
-0.355151
-0.349641
-0.342935
-0.375919
-0.378098
-0.378709
-0.378408
-0.377381
-0.375652
-0.373285
-0.370339
-0.366869
-0.362929
-0.358603
-0.354083
-0.348881
-0.342618
-0.371523
-0.374224
-0.375212
-0.375253
-0.374552
-0.373129
-0.371051
-0.368381
-0.365176
-0.361489
-0.357402
-0.35308
-0.348145
-0.342193
-0.367626
-0.370792
-0.372115
-0.372458
-0.372044
-0.370891
-0.369067
-0.366638
-0.363662
-0.360194
-0.356311
-0.352156
-0.347428
-0.341612
-0.364246
-0.367818
-0.369432
-0.370035
-0.36987
-0.368948
-0.367342
-0.365119
-0.362338
-0.359056
-0.355345
-0.351322
-0.34678
-0.341518
-0.361399
-0.365316
-0.367175
-0.367997
-0.368039
-0.367312
-0.365887
-0.363834
-0.361214
-0.358086
-0.354515
-0.350599
-0.346201
-0.341273
-0.359102
-0.363298
-0.365355
-0.366354
-0.366563
-0.36599
-0.364709
-0.362793
-0.360302
-0.357294
-0.353834
-0.350002
-0.345716
-0.340997
-0.357366
-0.361775
-0.363981
-0.365113
-0.365447
-0.364991
-0.363819
-0.362004
-0.359609
-0.356691
-0.353312
-0.349543
-0.345342
-0.340769
-0.356204
-0.360754
-0.363062
-0.364282
-0.3647
-0.364321
-0.363222
-0.361475
-0.359143
-0.356284
-0.352959
-0.349231
-0.345089
-0.34061
-0.35562
-0.360243
-0.3626
-0.363865
-0.364325
-0.363985
-0.362922
-0.361209
-0.358908
-0.356079
-0.352781
-0.349074
-0.344961
-0.340529
-0.335648
-0.327567
-0.319099
-0.309287
-0.298425
-0.28649
-0.273528
-0.259599
-0.244774
-0.229137
-0.212787
-0.195835
-0.17841
-0.160659
-0.142752
-0.124875
-0.107241
-0.0900658
-0.0735935
-0.0580305
-0.0436471
-0.0305513
-0.0190897
-0.00907981
-0.00117203
0.00557153
0.00950815
0.0134943
0.0130863
0.0159143
0.0102478
0.0153584
0.00136924
0.0158243
-0.336046
-0.327801
-0.31934
-0.30951
-0.298638
-0.286696
-0.27373
-0.259799
-0.244973
-0.229337
-0.212987
-0.196035
-0.178609
-0.160856
-0.142945
-0.125063
-0.107422
-0.0902392
-0.0737575
-0.0581839
-0.0437888
-0.0306807
-0.0192062
-0.00918324
-0.00126214
0.005494
0.00944365
0.0134403
0.0130449
0.0158791
0.0102264
0.0153343
0.00136717
0.0157978
-0.336834
-0.328256
-0.319815
-0.309951
-0.299058
-0.287105
-0.27413
-0.260195
-0.245369
-0.229733
-0.213383
-0.196431
-0.179003
-0.161246
-0.143328
-0.125437
-0.107783
-0.0905843
-0.074084
-0.0584893
-0.0440711
-0.0309385
-0.0194382
-0.00938935
-0.00144173
0.00533944
0.00931502
0.0133327
0.0129623
0.0158089
0.0101837
0.0152861
0.00136305
0.0157451
-0.337999
-0.328904
-0.320515
-0.310604
-0.29968
-0.287708
-0.274722
-0.260781
-0.245954
-0.230319
-0.213971
-0.197019
-0.179589
-0.161826
-0.143898
-0.125993
-0.10832
-0.0910977
-0.0745698
-0.0589439
-0.0444916
-0.0313225
-0.0197841
-0.00969666
-0.00170958
0.00510883
0.00912303
0.0131721
0.012839
0.0157039
0.01012
0.0152139
0.0013569
0.0156662
-0.339538
-0.329843
-0.321435
-0.311456
-0.30049
-0.288494
-0.275493
-0.261547
-0.246719
-0.231086
-0.214741
-0.19779
-0.180358
-0.162588
-0.144648
-0.126724
-0.109027
-0.0917744
-0.0752106
-0.0595439
-0.0450467
-0.0318298
-0.0202412
-0.010103
-0.00206388
0.00480362
0.00886883
0.0129592
0.0126756
0.0155646
0.0100354
0.0151182
0.00134875
0.0155617
-0.341516
-0.331006
-0.322554
-0.312493
-0.301474
-0.289449
-0.276431
-0.26248
-0.247652
-0.232023
-0.215683
-0.198734
-0.1813
-0.163524
-0.145569
-0.127624
-0.109898
-0.0926079
-0.0760004
-0.060284
-0.045732
-0.0324564
-0.0208062
-0.0106054
-0.00250228
0.0044257
0.00855387
0.0126952
0.0124728
0.0153916
0.00993033
0.0149991
0.00133866
0.0154319
-0.344026
-0.332119
-0.323841
-0.313696
-0.302615
-0.290557
-0.277521
-0.263564
-0.248739
-0.233117
-0.216783
-0.19984
-0.182406
-0.164622
-0.146652
-0.128682
-0.110922
-0.0935905
-0.0769323
-0.0611579
-0.0465417
-0.0331974
-0.0214747
-0.0112005
-0.00302191
0.00397738
0.00817997
0.0123814
0.0122317
0.0151856
0.00980526
0.0148571
0.00132667
0.0152776
-0.346212
-0.333747
-0.325295
-0.315046
-0.303892
-0.291797
-0.278742
-0.264782
-0.249963
-0.234351
-0.218029
-0.201093
-0.18366
-0.16587
-0.147885
-0.129889
-0.112092
-0.0947132
-0.0779983
-0.0621585
-0.0474698
-0.0340474
-0.0222423
-0.0118843
-0.00361946
0.00346131
0.00774922
0.0120195
0.0119534
0.0149475
0.00966067
0.0146927
0.00131286
0.0150993
-0.348845
-0.335427
-0.326879
-0.316521
-0.305285
-0.29315
-0.280077
-0.266116
-0.251306
-0.23571
-0.219402
-0.202478
-0.18505
-0.167255
-0.149255
-0.131232
-0.113396
-0.0959662
-0.0791893
-0.0632778
-0.0485089
-0.0350001
-0.0231034
-0.0126522
-0.0042912
0.00288051
0.00726398
0.0116113
0.0116392
0.0146781
0.00949718
0.0145065
0.00129731
0.0148979
-0.351804
-0.337199
-0.328576
-0.318097
-0.30677
-0.294593
-0.281503
-0.267546
-0.252751
-0.237175
-0.220887
-0.203979
-0.186559
-0.168763
-0.150748
-0.132699
-0.114822