/*--------------------------------*- C++ -*----------------------------------*\
  =========                 |
  \\      /  F ield         | OpenFOAM: The Open Source CFD Toolbox
   \\    /   O peration     | Website:  https://openfoam.org
    \\  /    A nd           | Version:  7
     \\/     M anipulation  |
\*---------------------------------------------------------------------------*/
FoamFile
{
    version     2.0;
    format      ascii;
    class       surfaceScalarField;
    location    "5";
    object      phi;
}
// * * * * * * * * * * * * * * * * * * * * * * * * * * * * * * * * * * * * * //

dimensions      [0 3 -1 0 0 0 0];

internalField   nonuniform List<scalar> 
23887
(
-1.94818e-06
1.94814e-06
3.4066e-11
-6.95273e-06
5.00446e-06
8.67762e-11
-1.44503e-05
7.49749e-06
1.25491e-10
-2.39012e-05
9.45065e-06
1.52649e-10
-3.47884e-05
1.08871e-05
1.72632e-10
-4.66271e-05
1.18384e-05
1.89152e-10
-5.89728e-05
1.23455e-05
2.04043e-10
-7.14354e-05
1.24624e-05
2.18289e-10
-8.36968e-05
1.22612e-05
2.32007e-10
-9.55325e-05
1.18355e-05
2.44654e-10
-0.000106836
1.13036e-05
2.55074e-10
-0.00011764
1.08036e-05
2.61982e-10
-0.000128106
1.04652e-05
2.64243e-10
1.04926e-05
2.60333e-10
-0.000138599
-1.92199e-06
3.87014e-06
-6.85126e-06
9.93373e-06
-1.42228e-05
1.48691e-05
-2.34937e-05
1.87215e-05
-3.41426e-05
2.1536e-05
-4.56784e-05
2.33742e-05
-5.76488e-05
2.43159e-05
-6.96541e-05
2.44677e-05
-8.13649e-05
2.39719e-05
-9.25438e-05
2.30144e-05
-0.000103072
2.18314e-05
-0.000112968
2.07001e-05
-0.000122386
1.98829e-05
1.97906e-05
-0.000131684
-1.86998e-06
5.74012e-06
-6.64955e-06
1.47133e-05
-1.37704e-05
2.19899e-05
-2.26831e-05
2.76343e-05
-3.28577e-05
3.17106e-05
-4.37905e-05
3.4307e-05
-5.50141e-05
3.55395e-05
-6.61094e-05
3.5563e-05
-7.67242e-05
3.45867e-05
-8.65959e-05
3.28861e-05
-9.55788e-05
3.08143e-05
-0.000103669
2.87902e-05
-0.000111
2.72141e-05
2.67074e-05
-0.000117917
-1.79283e-06
7.53294e-06
-6.35e-06
1.92705e-05
-1.30979e-05
2.87378e-05
-2.1478e-05
3.60144e-05
-3.09466e-05
4.11792e-05
-4.09824e-05
4.43428e-05
-5.10946e-05
4.56517e-05
-6.08359e-05
4.53044e-05
-6.98202e-05
4.3571e-05
-7.77468e-05
4.08127e-05
-8.44304e-05
3.74979e-05
-8.98309e-05
3.41908e-05
-9.40537e-05
3.14368e-05
3.00732e-05
-9.74196e-05
-1.69153e-06
9.22448e-06
-5.956e-06
2.35349e-05
-1.22126e-05
3.49943e-05
-1.98903e-05
4.36922e-05
-2.84281e-05
4.97169e-05
-3.72808e-05
5.31956e-05
-4.59278e-05
5.42987e-05
-5.3884e-05
5.32606e-05
-6.07188e-05
5.04058e-05
-6.60808e-05
4.61747e-05
-6.97321e-05
4.11493e-05
-7.15846e-05
3.60433e-05
-7.17044e-05
3.15566e-05
2.8738e-05
-7.03691e-05
-1.56732e-06
1.07918e-05
-5.4718e-06
2.74394e-05
-1.11232e-05
4.06458e-05
-1.79354e-05
5.05043e-05
-2.53255e-05
5.71069e-05
-3.27198e-05
6.059e-05
-3.95607e-05
6.11396e-05
-4.53172e-05
5.90171e-05
-4.95034e-05
5.45919e-05
-5.17052e-05
4.83765e-05
-5.16189e-05
4.1063e-05
-4.90976e-05
3.35219e-05
-4.41762e-05
2.66352e-05
2.15525e-05
-3.69907e-05
-1.42158e-06
1.22134e-05
-4.9022e-06
3.092e-05
-9.84001e-06
4.55836e-05
-1.56305e-05
5.62948e-05
-2.16656e-05
6.3142e-05
-2.73383e-05
6.62627e-05
-3.20479e-05
6.58492e-05
-3.52096e-05
6.21788e-05
-3.6272e-05
5.56544e-05
-3.47459e-05
4.68504e-05
-3.02476e-05
3.65647e-05
-2.25528e-05
2.58271e-05
-1.16877e-05
1.57701e-05
8.28143e-06
1.58332e-06
-1.25577e-06
1.34691e-05
-4.2523e-06
3.39166e-05
-8.37362e-06
4.97049e-05
-1.29942e-05
6.09154e-05
-1.74773e-05
6.76252e-05
-2.11785e-05
6.99639e-05
-2.34487e-05
6.81194e-05
-2.36422e-05
6.23723e-05
-2.11328e-05
5.3145e-05
-1.53432e-05
4.10607e-05
-5.79397e-06
2.70156e-05
7.82697e-06
1.22061e-05
2.56021e-05
-2.00503e-06
-1.34424e-05
4.7326e-05
-1.07136e-06
1.45405e-05
-3.52721e-06
3.63724e-05
-6.73487e-06
5.29126e-05
-1.00451e-05
6.42257e-05
-1.27899e-05
7.03699e-05
-1.42837e-05
7.14576e-05
-1.38246e-05
6.76603e-05
-1.07001e-05
5.92478e-05
-4.2006e-06
4.66455e-05
6.35096e-06
3.05092e-05
2.15453e-05
1.18212e-05
4.18012e-05
-8.04977e-06
6.72721e-05
-2.74759e-05
-4.3849e-05
9.76787e-05
-8.69683e-07
1.54102e-05
-2.73172e-06
3.82345e-05
-4.93404e-06
5.51149e-05
-6.80137e-06
6.6093e-05
-7.63169e-06
7.12002e-05
-6.69574e-06
7.05217e-05
-3.23569e-06
6.42003e-05
3.53264e-06
5.24795e-05
1.44089e-05
3.57692e-05
3.01807e-05
1.47374e-05
5.15655e-05
-9.56365e-06
7.91081e-05
-3.55924e-05
0.00011305
-6.14176e-05
-8.38844e-05
0.000153085
-6.51922e-07
1.60621e-05
-1.87008e-06
3.94526e-05
-2.98033e-06
5.62251e-05
-3.2791e-06
6.63918e-05
-2.02843e-06
6.99496e-05
1.54656e-06
6.69467e-05
8.26186e-06
5.7485e-05
1.89762e-05
4.17652e-05
3.45844e-05
2.0161e-05
5.59935e-05
-6.67177e-06
8.40632e-05
-3.76333e-05
0.000119487
-7.10163e-05
0.000162619
-0.000104549
-0.00013441
0.000213144
-4.18996e-07
1.64811e-05
-9.45769e-07
3.99794e-05
-8.81393e-07
5.61608e-05
5.07947e-07
6.50024e-05
3.99776e-06
6.64598e-05
1.04097e-05
6.05347e-05
2.06189e-05
4.72758e-05
3.55593e-05
2.68247e-05
5.62238e-05
-5.0347e-07
8.36454e-05
-3.40934e-05
0.000118841
-7.28284e-05
0.000162677
-0.000114853
0.000215655
-0.000157527
-0.000196222
0.000277467
-1.71546e-07
1.66527e-05
3.89656e-08
3.97689e-05
1.35682e-06
5.48429e-05
4.54889e-06
6.18103e-05
1.04293e-05
6.05794e-05
1.98668e-05
5.10972e-05
3.37952e-05
3.33475e-05
5.32229e-05
7.39697e-06
7.92397e-05
-2.65203e-05
0.000113008
-6.78616e-05
0.000155713
-0.000115533
0.000208425
-0.000167566
0.000271835
-0.000220936
-0.000270068
0.00034568
9.00589e-08
1.65626e-05
1.08146e-06
3.87775e-05
3.73008e-06
5.21943e-05
8.83595e-06
5.67045e-05
1.72532e-05
5.21621e-05
2.9898e-05
3.84523e-05
4.77611e-05
1.54844e-05
7.19219e-05
-1.67639e-05
0.000103563
-5.81616e-05
0.000143974
-0.000108272
0.000194516
-0.000166075
0.000256492
-0.000229541
0.000330837
-0.000295281
-0.000356635
0.000417405
3.65682e-07
1.61969e-05
2.18185e-06
3.69613e-05
6.23595e-06
4.81402e-05
1.3364e-05
4.95764e-05
2.4461e-05
4.10651e-05
4.04903e-05
2.2423e-05
6.24972e-05
-6.52245e-06
9.16272e-05
-4.58939e-05
0.000129147
-9.56816e-05
0.000176464
-0.000155589
0.000235115
-0.000224726
0.000306659
-0.000301085
0.000392349
-0.000380971
-0.000456542
0.000492255
6.55498e-07
1.55414e-05
3.33936e-06
3.42774e-05
8.87287e-06
4.26067e-05
1.81297e-05
4.03195e-05
3.20473e-05
2.71475e-05
5.16359e-05
2.8344e-06
7.79933e-05
-3.28798e-05
0.000112324
-8.02245e-05
0.000155967
-0.000139325
0.00021043
-0.000210053
0.000277412
-0.000291708
0.000358741
-0.000382414
0.000456069
-0.000478299
-0.000570315
0.000569841
9.5965e-07
1.45818e-05
4.55387e-06
3.06832e-05
1.16396e-05
3.55209e-05
2.31303e-05
2.88288e-05
4.00075e-05
1.02704e-05
6.33293e-05
-2.04875e-05
9.42441e-05
-6.37946e-05
0.000134009
-0.000119989
0.000184019
-0.000189335
0.000245857
-0.000271891
0.000321354
-0.000367205
0.0004126
-0.00047366
0.000521721
-0.000587419
-0.00069836
0.000649766
1.27826e-06
1.33035e-05
5.82494e-06
2.61365e-05
1.45342e-05
2.68117e-05
2.83615e-05
1.50015e-05
4.8335e-05
-9.70307e-06
7.55629e-05
-4.77153e-05
0.000111244
-9.94754e-05
0.000156681
-0.000165427
0.000213313
-0.000245967
0.000282764
-0.000341342
0.000366945
-0.000451386
0.000468165
-0.000574879
0.000589073
-0.000708327
-0.000840918
0.000731631
1.61124e-06
1.16923e-05
7.15129e-06
2.05965e-05
1.75528e-05
1.64101e-05
3.38157e-05
-1.26141e-06
5.70179e-05
-3.29052e-05
8.8321e-05
-7.90184e-05
0.000128977
-0.000140131
0.000180335
-0.000216785
0.000243862
-0.000309494
0.000321193
-0.000418673
0.000414248
-0.000544441
0.000525461
-0.000686092
0.000657983
-0.000840849
-0.00099798
0.000815046
1.95816e-06
9.7341e-06
8.53036e-06
1.40243e-05
2.06887e-05
4.25182e-06
3.94796e-05
-2.00523e-05
6.60345e-05
-5.94601e-05
0.000101574
-0.000114558
0.000147408
-0.000185965
0.000204937
-0.000274315
0.000275658
-0.000380214
0.000361187
-0.000504202
0.000463379
-0.000646634
0.000584646
-0.000807359
0.000728474
-0.000984678
-0.00116918
0.000899671
2.31809e-06
7.41601e-06
9.95786e-06
6.38452e-06
2.39309e-05
-9.72125e-06
4.53323e-05
-4.14537e-05
7.53502e-05
-8.94781e-05
0.000115269
-0.000154476
0.000166468
-0.000237164
0.000230413
-0.000338259
0.000308639
-0.000458441
0.00040275
-0.000598312
0.000514477
-0.000758362
0.000646019
-0.0009389
0.000800832
-0.00113949
-0.00135371
0.00098536
2.68959e-06
4.72642e-06
1.14275e-05
-2.35342e-06
2.72644e-05
-2.55581e-05
5.13442e-05
-6.55335e-05
8.49144e-05
-0.000123048
0.000129329
-0.000198891
0.000186046
-0.000293881
0.000256616
-0.000408829
0.000342653
-0.000544478
0.00044579
-0.000701449
0.000567651
-0.000880223
0.000710044
-0.00108129
0.000875694
-0.00130514
-0.00155062
0.00107261
3.07067e-06
1.65575e-06
1.29313e-05
-1.2214e-05
3.06693e-05
-4.32962e-05
5.74768e-05
-9.2341e-05
9.46599e-05
-0.000160231
0.000143644
-0.000247875
0.000205974
-0.000356212
0.00028331
-0.000486164
0.000377398
-0.000638567
0.000490023
-0.000814074
0.000622913
-0.00101311
0.000777585
-0.00123596
0.000954746
-0.0014823
-0.00175894
0.00116307
3.45895e-06
-1.8032e-06
1.44594e-05
-2.32145e-05
3.41225e-05
-6.29593e-05
6.36842e-05
-0.000121903
0.000104505
-0.000201052
0.000158077
-0.000301447
0.000226032
-0.000424167
0.000310148
-0.00057028
0.000412359
-0.000740778
0.00053477
-0.000936485
0.000679706
-0.00115805
0.000849643
-0.0014059
0.00104441
-0.00167707
-0.00197187
0.00125733
3.85188e-06
-5.65507e-06
1.60017e-05
-3.53642e-05
3.75989e-05
-8.45566e-05
6.99164e-05
-0.00015422
0.000114359
-0.000245495
0.000172472
-0.000359561
0.000245957
-0.000497651
0.000336688
-0.000661011
0.000446771
-0.000850862
0.000578676
-0.00106839
0.000735563
-0.00131494
0.000922271
-0.00159261
0.00115059
-0.00190539
-0.00228334
0.00146207
4.24672e-06
-9.90179e-06
1.7547e-05
-4.86646e-05
4.10721e-05
-0.000108082
7.6121e-05
-0.000189269
0.000124128
-0.000293501
0.000186669
-0.000422102
0.000265475
-0.000576457
0.000362458
-0.000757993
0.000479775
-0.000968179
0.000619986
-0.0012086
0.000786383
-0.00148133
0.000983752
-0.00178998
0.00122038
-0.00214202
-0.00256249
0.00149953
4.64112e-06
-1.45429e-05
1.90858e-05
-6.31093e-05
4.45182e-05
-0.000133514
8.22511e-05
-0.000227002
0.000133728
-0.000344978
0.000200525
-0.000488899
0.000284356
-0.000660288
0.000387085
-0.000860722
0.000510765
-0.00109186
0.000657723
-0.00135556
0.00083068
-0.00165429
0.0010328
-0.0019921
0.00126731
-0.00237654
-0.00282474
0.00152957
5.03308e-06
-1.9576e-05
2.06094e-05
-7.86856e-05
4.79162e-05
-0.000160821
8.82651e-05
-0.000267351
0.000143087
-0.000399801
0.000213927
-0.000559739
0.000302429
-0.00074879
0.000410332
-0.000968625
0.000539458
-0.00122098
0.000691697
-0.0015078
0.000868926
-0.00183152
0.00107262
-0.0021958
0.00130277
-0.00260669
-0.00307491
0.00155295
5.42102e-06
-2.4997e-05
2.21107e-05
-9.53753e-05
5.12484e-05
-0.000189958
9.41289e-05
-0.000310231
0.000152149
-0.000457821
0.000226788
-0.000634378
0.00031958
-0.000841582
0.000432074
-0.00108112
0.000565782
-0.00135469
0.000722076
-0.00166409
0.000901977
-0.00201142
0.00110563
-0.00239945
0.00133122
-0.00283228
-0.00331579
0.0015721
5.80373e-06
-3.08007e-05
2.35839e-05
-0.000113155
5.45003e-05
-0.000220875
9.98148e-05
-0.000355546
0.000160868
-0.000518874
0.000239046
-0.000712556
0.000335736
-0.000938271
0.000452255
-0.00119764
0.000589761
-0.0014922
0.000749102
-0.00182343
0.000930539
-0.00219286
0.00113324
-0.00260215
0.00135441
-0.00305345
-0.00354912
0.00158774
6.18028e-06
-3.6981e-05
2.5024e-05
-0.000131999
5.76594e-05
-0.00025351
0.000105299
-0.000403186
0.000169208
-0.000582783
0.000250654
-0.000794002
0.000350846
-0.00103846
0.000470844
-0.00131764
0.000611441
-0.00163279
0.000772981
-0.00198497
0.000955083
-0.00237496
0.0011562
-0.00280327
0.00137303
-0.00327028
-0.00377574
0.00159965
6.54985e-06
-4.35309e-05
2.64266e-05
-0.000151876
6.07144e-05
-0.000287798
0.000110561
-0.000453033
0.000177136
-0.000649357
0.000261567
-0.000878433
0.000364865
-0.00114176
0.000487816
-0.00144059
0.000630845
-0.00177582
0.000793832
-0.00214796
0.000975859
-0.00255699
0.00117486
-0.00300228
0.00138724
-0.00348265
-0.00399589
0.00160739
6.91151e-06
-5.04424e-05
2.77871e-05
-0.000172752
6.36535e-05
-0.000323664
0.000115579
-0.000504958
0.000184618
-0.000718397
0.000271743
-0.000965558
0.000377746
-0.00124776
0.00050313
-0.00156597
0.000647959
-0.00192065
0.000811688
-0.00231169
0.000992944
-0.00273824
0.00118927
-0.0031986
0.00139688
-0.00369026
-0.00420946
0.00161045
7.26416e-06
-5.77065e-05
2.91001e-05
-0.000194587
6.64639e-05
-0.000361028
0.000120329
-0.000558823
0.000191619
-0.000789687
0.000281132
-0.00105507
0.000389429
-0.00135606
0.000516723
-0.00169326
0.000662727
-0.00206666
0.000826505
-0.00247547
0.00100629
-0.00291803
0.00119933
-0.00339164
0.0014017
-0.00389264
-0.00441607
0.00160831
7.6063e-06
-6.53128e-05
3.03593e-05
-0.000217341
6.91308e-05
-0.0003998
0.000124784
-0.000614476
0.000198097
-0.000863001
0.000289676
-0.00114665
0.000399843
-0.00146623
0.000528513
-0.00182193
0.000675061
-0.00221321
0.000838188
-0.00263859
0.00101579
-0.00309563
0.00120485
-0.0035807
0.00140141
-0.0040892
-0.0046152
0.00160055
7.9361e-06
-7.32489e-05
3.15572e-05
-0.000240962
7.1637e-05
-0.000439879
0.000128914
-0.000671752
0.000204005
-0.000938093
0.000297312
-0.00123996
0.000408905
-0.00157782
0.000538401
-0.00195143
0.000684848
-0.00235965
0.000846609
-0.00280035
0.00102128
-0.0032703
0.00120566
-0.00376507
0.00139573
-0.00427928
-0.00480626
0.00158679
8.25131e-06
-8.15003e-05
3.26851e-05
-0.000265395
7.39633e-05
-0.000481158
0.000132685
-0.000730474
0.000209292
-0.0010147
0.000303969
-0.00133463
0.000416524
-0.00169038
0.000546279
-0.00208119
0.000691963
-0.00250534
0.000851628
-0.00296002
0.00102261
-0.00344129
0.00120155
-0.00394401
0.00138445
-0.00446218
-0.00498861
0.00156681
8.54935e-06
-9.00496e-05
3.37332e-05
-0.000290579
7.60882e-05
-0.000523513
0.00013606
-0.000790445
0.000213902
-0.00109254
0.000309569
-0.0014303
0.000422605
-0.00180341
0.000552035
-0.00221062
0.000696281
-0.00264958
0.000853112
-0.00311685
0.00101964
-0.00360782
0.00119239
-0.00411677
0.00136742
-0.00463721
-0.00516163
0.00154045
8.82737e-06
-9.8877e-05
3.46909e-05
-0.000316443
7.79889e-05
-0.000566811
0.000139
-0.000851457
0.000217778
-0.00117132
0.000314038
-0.00152656
0.000427052
-0.00191643
0.000555556
-0.00233912
0.000697682
-0.00279171
0.00085094
-0.00327011
0.00101226
-0.00376913
0.00117809
-0.0042826
0.00134457
-0.00480369
-0.00532475
0.00150769
9.08227e-06
-0.000107959
3.55469e-05
-0.000342908
7.96415e-05
-0.000610905
0.000141466
-0.000913282
0.000220861
-0.00125071
0.000317297
-0.001623
0.000429774
-0.0020289
0.000556744
-0.00246609
0.000696065
-0.00293103
0.000845021
-0.00341906
0.00100039
-0.0039245
0.0011586
-0.00444081
0.00131591
-0.004961
-0.00547742
0.00146858
9.31081e-06
-0.00011727
3.62896e-05
-0.000369886
8.10219e-05
-0.000655637
0.000143418
-0.000975677
0.000223096
-0.00133039
0.000319276
-0.00171918
0.000430688
-0.00214032
0.000555509
-0.00259091
0.000691348
-0.00306687
0.000835291
-0.00356301
0.000984011
-0.00407323
0.00113395
-0.00459075
0.00128152
-0.00510856
-0.00561921
0.0014233
9.50969e-06
-0.00012678
3.69074e-05
-0.000397284
8.21062e-05
-0.000700836
0.000144817
-0.00103839
0.000224428
-0.00141
0.000319908
-0.00181466
0.000429719
-0.00225013
0.00055178
-0.00271297
0.000683474
-0.00319856
0.000821724
-0.00370126
0.000963138
-0.00421464
0.00110421
-0.00473182
0.00124155
-0.0052459
-0.00574973
0.00137207
9.67561e-06
-0.000136455
3.73889e-05
-0.000424997
8.28716e-05
-0.000746319
0.000145627
-0.00110114
0.00022481
-0.00148919
0.000319136
-0.00190898
0.00042681
-0.0023578
0.000545509
-0.00283167
0.000672417
-0.00332547
0.000804332
-0.00383317
0.000937836
-0.00434814
0.00106952
-0.0048635
0.00119621
-0.00537259
-0.0058687
0.00131518
9.80538e-06
-0.000146261
3.77232e-05
-0.000452915
8.32967e-05
-0.000791892
0.000145816
-0.00116366
0.0002242
-0.00156757
0.000316914
-0.0020017
0.000421918
-0.00246281
0.000536667
-0.00294642
0.000658178
-0.00344698
0.000783161
-0.00395816
0.000908214
-0.0044732
0.00103006
-0.00498535
0.00114577
-0.0054883
-0.00597592
0.00125299
9.89596e-06
-0.000156157
3.79002e-05
-0.000480919
8.33622e-05
-0.000837354
0.000145355
-0.00122565
0.000222562
-0.00164478
0.000313206
-0.00209234
0.000415016
-0.00256462
0.000525249
-0.00305665
0.000640788
-0.00356252
0.000758294
-0.00407566
0.000874419
-0.00458932
0.00098605
-0.00509698
0.00109054
-0.00559279
-0.00607126
0.00118588
9.94453e-06
-0.000166101
3.79109e-05
-0.000508886
8.30512e-05
-0.000882495
0.00014422
-0.00128682
0.00021987
-0.00172043
0.00030799
-0.00218046
0.000406095
-0.00266272
0.000511275
-0.00316183
0.000620309
-0.00367155
0.000729848
-0.0041852
0.000836636
-0.00469611
0.000937757
-0.0051981
0.00103085
-0.00568588
-0.00615467
0.00111426
9.94854e-06
-0.00017605
3.77472e-05
-0.000536684
8.23496e-05
-0.000927097
0.000142394
-0.00134687
0.000216105
-0.00179414
0.000301255
-0.00226561
0.000395166
-0.00275663
0.000494786
-0.00326145
0.000596828
-0.0037736
0.000697968
-0.00428634
0.000795079
-0.00479322
0.000885465
-0.00528848
0.000967061
-0.00576748
-0.00622617
0.00103857
9.90576e-06
-0.000185956
3.74026e-05
-0.000564181
8.12465e-05
-0.000970941
0.000139863
-0.00140548
0.00021126
-0.00186554
0.000293007
-0.00234736
0.000382256
-0.00284588
0.000475845
-0.00335504
0.000570457
-0.00386821
0.000662828
-0.00437871
0.000749989
-0.00488038
0.000829485
-0.00536798
0.000899556
-0.00583755
-0.00628585
0.000959235
9.81589e-06
-0.000195771
3.6875e-05
-0.00059124
7.97387e-05
-0.0010138
0.000136626
-0.00146237
0.000205343
-0.00193425
0.00028327
-0.00242528
0.000367419
-0.00293003
0.000454548
-0.00344217
0.000541342
-0.003955
0.000624633
-0.004462
0.000701635
-0.00495738
0.000770153
-0.0054365
0.000828727
-0.00589612
-0.00633384
0.000876711
9.67461e-06
-0.000205446
3.61549e-05
-0.000617721
7.78137e-05
-0.00105546
0.000132674
-0.00151723
0.000198349
-0.00199993
0.000272059
-0.00249899
0.000350699
-0.00300867
0.000430978
-0.00352245
0.000509617
-0.00403364
0.000583575
-0.00453596
0.000650271
-0.00502408
0.000707778
-0.00549401
0.000754938
-0.00594328
-0.00637029
0.000791397
9.48236e-06
-0.000214928
3.52433e-05
-0.000643482
7.54751e-05
-0.0010957
0.000128015
-0.00156977
0.000190306
-0.00206222
0.000259425
-0.00256811
0.000332179
-0.00308142
0.000405264
-0.00359553
0.000475465
-0.00410384
0.000539893
-0.00460039
0.000596192
-0.00508038
0.000642709
-0.00554052
0.000678578
-0.00597915
-0.00639544
0.00070372
9.23851e-06
-0.000224167
3.41398e-05
-0.000668383
7.2726e-05
-0.00113428
0.000122664
-0.00161971
0.000181242
-0.0021208
0.000245422
-0.00263229
0.000311952
-0.00314795
0.000377541
-0.00366112
0.000439072
-0.00416537
0.000493826
-0.00465514
0.000539689
-0.00512624
0.000575282
-0.00557612
0.000600019
-0.00600389
-0.00640949
0.000614076
8.94289e-06
-0.00023311
3.28458e-05
-0.000692286
6.95728e-05
-0.00117101
0.000116637
-0.00166677
0.000171193
-0.00217535
0.000230114
-0.00269121
0.000290119
-0.00320796
0.000347957
-0.00371896
0.000400633
-0.00421805
0.000445622
-0.00470013
0.000481053
-0.00516167
0.000505826
-0.00560089
0.000519621
-0.00601768
-0.00641271
0.000522842
8.59579e-06
-0.000241706
3.13642e-05
-0.000715054
6.60258e-05
-0.00120567
0.000109957
-0.0017107
0.000160206
-0.0022256
0.000213579
-0.00274459
0.000266793
-0.00326117
0.00031667
-0.00376884
0.000360354
-0.00426173
0.00039553
-0.00473531
0.000420578
-0.00518672
0.000434664
-0.00561497
0.000437726
-0.00602075
-0.00640536
0.000430375
8.19795e-06
-0.000249904
2.96995e-05
-0.000736556
6.20983e-05
-0.00123807
0.000102655
-0.00175126
0.000148331
-0.00227128
0.000195898
-0.00279215
0.000242097
-0.00330737
0.000283845
-0.00381058
0.000318448
-0.00429634
0.000343805
-0.00476066
0.000358551
-0.00520147
0.000362112
-0.00561853
0.000354662
-0.0060133
-0.00638771
0.000337006
7.75056e-06
-0.000257654
2.7858e-05
-0.000756663
5.78068e-05
-0.00126802
9.47632e-05
-0.00178822
0.000135629
-0.00231214
0.000177164
-0.00283369
0.000216162
-0.00334637
0.000249655
-0.00384408
0.000275128
-0.00432181
0.0002907
-0.00477624
0.000295255
-0.00520602
0.000288468
-0.00561175
0.000270737
-0.00599556
-0.00636002
0.000243045
7.25523e-06
-0.000264909
2.58471e-05
-0.000775255
5.31706e-05
-0.00129534
8.63202e-05
-0.00182137
0.000122162
-0.00234799
0.000157474
-0.002869
0.000189124
-0.00337802
0.000214279
-0.00386923
0.000230612
-0.00433814
0.000236468
-0.00478209
0.000230969
-0.00520052
0.000214025
-0.0055948
0.000186237
-0.00596778
-0.00632254
0.000148764
6.71398e-06
-0.000271623
2.3676e-05
-0.000792217
4.82117e-05
-0.00131988
7.7368e-05
-0.00185052
0.000108002
-0.00237862
0.000136931
-0.00289793
0.000161123
-0.00340221
0.000177897
-0.00388601
0.000185119
-0.00434536
0.000181357
-0.00477833
0.000165964
-0.00518513
0.000139071
-0.00556791
0.000101435
-0.00593014
-0.00627537
5.42631e-05
6.12919e-06
-0.000277752
2.13547e-05
-0.000807443
4.29545e-05
-0.00134148
6.79517e-05
-0.00187552
9.32191e-05
-0.00240389
0.000115641
-0.00292035
0.000132303
-0.00341887
0.000140689
-0.00389439
0.000138865
-0.00434354
0.000125613
-0.00476508
0.000100504
-0.00516002
6.38904e-05
-0.0055313
1.67801e-05
-0.00588303
-0.00621871
-3.98871e-05
5.5036e-06
-0.000283256
1.88944e-05
-0.000820833
3.74251e-05
-0.00136001
5.81193e-05
-0.00189621
7.78911e-05
-0.00242366
9.3714e-05
-0.00293618
0.00010281
-0.00342797
0.000102839
-0.00389442
9.20637e-05
-0.00433276
6.94745e-05
-0.00474249
3.48422e-05
-0.00512539
-1.13068e-05
-0.00548515
-6.78529e-05
-0.00582648
-0.00615334
-0.000133213
4.84023e-06
-0.000288096
1.63074e-05
-0.000832301
3.16513e-05
-0.00137535
4.79207e-05
-0.00191248
6.20951e-05
-0.00243783
7.12592e-05
-0.00294534
7.27878e-05
-0.0034295
6.45235e-05
-0.00388616
4.49264e-05
-0.00431317
1.3178e-05
-0.00471074
-3.07736e-05
-0.00508144
-8.62389e-05
-0.00542968
-0.000151927
-0.0057608
-0.00607913
-0.000226137
4.14235e-06
-0.000292239
1.36065e-05
-0.000841765
2.5662e-05
-0.00138741
3.74068e-05
-0.00192423
4.59098e-05
-0.00244634
4.83868e-05
-0.00294782
4.238e-05
-0.00342349
2.59208e-05
-0.0038697
-2.33938e-06
-0.00428491
-4.30471e-05
-0.00467003
-9.60988e-05
-0.00502839
-0.000160667
-0.00536511
-0.000235309
-0.00568615
-0.00599625
-0.000318198
3.41346e-06
-0.000295652
1.0805e-05
-0.000849156
1.94868e-05
-0.00139609
2.66294e-05
-0.00193137
2.94135e-05
-0.00244912
2.52051e-05
-0.00294361
1.17267e-05
-0.00341001
-1.27989e-05
-0.00384517
-4.95374e-05
-0.00424817
-9.89763e-05
-0.00462059
-0.000160894
-0.00496647
-0.000234356
-0.00529165
-0.000317788
-0.00560272
-0.00590484
-0.000409196
2.65722e-06
-0.000298309
7.91682e-06
-0.000854416
1.31556e-05
-0.00140133
1.56399e-05
-0.00193386
1.26835e-05
-0.00244616
1.82103e-06
-0.00293275
-1.90379e-05
-0.00338915
-5.14716e-05
-0.00381274
-9.64709e-05
-0.00420317
-0.000154391
-0.00456267
-0.000224922
-0.00489594
-0.000307067
-0.00520951
-0.000399143
-0.00551065
-0.00580503
-0.000498947
1.87752e-06
-0.000300187
4.95577e-06
-0.000857494
6.69837e-06
-0.00140307
4.48909e-06
-0.00193165
-4.20548e-06
-0.00243747
-2.16687e-05
-0.00291528
-4.97858e-05
-0.00336104
-8.99414e-05
-0.00377258
-0.000142958
-0.00415015
-0.000209079
-0.00449655
-0.000287947
-0.00481707
-0.000378553
-0.0051189
-0.000479152
-0.00541005
-0.00569691
-0.000587275
1.07931e-06
-0.000301266
1.93547e-06
-0.00085835
1.4436e-07
-0.00140128
-6.77413e-06
-0.00192473
-2.11821e-05
-0.00242306
-4.51641e-05
-0.0028913
-8.03968e-05
-0.00332581
-0.000128065
-0.00372492
-0.000188829
-0.00408939
-0.00026284
-0.00442254
-0.000349734
-0.00473017
-0.000448558
-0.00502008
-0.00055758
-0.00530102
-0.00558048
-0.000674009
2.60637e-07
-0.000301527
-1.13051e-06
-0.000856959
-6.47752e-06
-0.00139593
-1.8102e-05
-0.0019131
-3.81773e-05
-0.00240299
-6.85777e-05
-0.0028609
-0.000110762
-0.00328362
-0.000165712
-0.00366997
-0.00023393
-0.00402117
-0.000315486
-0.00434099
-0.000410049
-0.00463561
-0.000516808
-0.00491332
-0.000634166
-0.00518367
-0.00545567
-0.000758974
-5.71171e-07
-0.000300956
-4.22809e-06
-0.000853302
-1.31393e-05
-0.00138702
-2.9449e-05
-0.00189679
-5.51275e-05
-0.00237731
-9.18276e-05
-0.0028242
-0.000140783
-0.00323467
-0.00020277
-0.00360798
-0.000278128
-0.00394581
-0.000366853
-0.00425226
-0.00046867
-0.00453379
-0.000583007
-0.00479898
-0.000708609
-0.00505806
-0.00532227
-0.000842014
-1.40598e-06
-0.00029955
-7.34423e-06
-0.000847364
-1.98142e-05
-0.00137455
-4.0772e-05
-0.00187584
-7.19729e-05
-0.00234611
-0.000114839
-0.00278133
-0.000170375
-0.00317913
-0.000239143
-0.00353921
-0.000321319
-0.00386363
-0.000416807
-0.00415677
-0.000525397
-0.0044252
-0.000646841
-0.00467754
-0.000780543
-0.00492436
-0.00517983
-0.000922979
-2.24876e-06
-0.000297301
-1.04666e-05
-0.000839146
-2.64762e-05
-0.00135854
-5.20301e-05
-0.00185028
-8.8658e-05
-0.00230948
-0.000137546
-0.00273245
-0.000199463
-0.00311721
-0.000274759
-0.00346392
-0.000363428
-0.00377497
-0.000465262
-0.00405494
-0.000580074
-0.00431039
-0.000707988
-0.00454962
-0.000849475
-0.00478288
-0.00502779
-0.00100152
-3.09354e-06
-0.000294207
-1.35826e-05
-0.000828657
-3.31002e-05
-0.00133902
-6.31842e-05
-0.0018202
-0.000105131
-0.00226753
-0.000159885
-0.00267769
-0.000227984
-0.00304911
-0.000309559
-0.00338234
-0.000404416
-0.00368011
-0.000512192
-0.00394716
-0.000632626
-0.00418996
-0.000766111
-0.00441614
-0.000914455
-0.00463453
-0.00486489
-0.00107735
-3.93657e-06
-0.000290271
-1.66797e-05
-0.000815914
-3.96619e-05
-0.00131604
-7.41965e-05
-0.00178566
-0.000121341
-0.00222039
-0.0001818
-0.00261723
-0.00025588
-0.00297503
-0.000343502
-0.00329472
-0.000444279
-0.00357933
-0.000557656
-0.00383379
-0.000683162
-0.00406445
-0.000821022
-0.00427828
-0.000974189
-0.00448136
-0.00468766
-0.00115141
-4.77216e-06
-0.000285499
-1.9742e-05
-0.000800944
-4.61319e-05
-0.00128965
-8.50239e-05
-0.00174677
-0.000137234
-0.00216818
-0.000203227
-0.00255124
-0.000283087
-0.00289517
-0.000376539
-0.00320127
-0.000483018
-0.00347285
-0.000601795
-0.00371501
-0.000732156
-0.00393409
-0.000873488
-0.00413695
-0.00102435
-0.0043305
-0.00452287
-0.00118915
-5.60093e-06
-0.000279898
-2.27655e-05
-0.000783779
-5.24981e-05
-0.00125992
-9.56444e-05
-0.00170363
-0.000152777
-0.00211105
-0.000224127
-0.00247989
-0.000309564
-0.00280974
-0.000408633
-0.0031022
-0.000520628
-0.00336086
-0.000644713
-0.00359093
-0.00078008
-0.00379872
-0.000926032
-0.003991
-0.00108203
-0.0041745
-0.00435425
-0.00125066
-6.41731e-06
-0.00027348
-2.57348e-05
-0.000764462
-5.87326e-05
-0.00122692
-0.000106017
-0.00165634
-0.000167917
-0.00204915
-0.000244434
-0.00240337
-0.000335235
-0.00271893
-0.000439698
-0.00299773
-0.000556998
-0.00324356
-0.000686229
-0.00346169
-0.000826552
-0.0036584
-0.000977313
-0.00384023
-0.00113823
-0.00401358
-0.00418251
-0.00130997
-7.21803e-06
-0.000266262
-2.86385e-05
-0.000743041
-6.48135e-05
-0.00119075
-0.000116107
-0.00160505
-0.000182609
-0.00198264
-0.000264093
-0.00232189
-0.000360033
-0.00262299
-0.00046965
-0.00288812
-0.00059201
-0.0031212
-0.000726143
-0.00332756
-0.000871175
-0.00351337
-0.00102643
-0.00368498
-0.00119155
-0.00384846
-0.00400756
-0.0013665
-7.99993e-06
-0.000258262
-3.14663e-05
-0.000719575
-7.07206e-05
-0.00115149
-0.000125885
-0.00154988
-0.000196811
-0.00191172
-0.000283054
-0.00223565
-0.000383898
-0.00252215
-0.000498416
-0.0027736
-0.000625571
-0.00299404
-0.000764327
-0.00318881
-0.000913764
-0.00336393
-0.00107316
-0.00352559
-0.00124204
-0.00367958
-0.00382954
-0.00142007
-8.76002e-06
-0.000249502
-3.42081e-05
-0.000694127
-7.64346e-05
-0.00110927
-0.000135322
-0.001491
-0.000210486
-0.00183655
-0.00030127
-0.00214486
-0.000406776
-0.00241665
-0.000525937
-0.00265444
-0.000657615
-0.00286236
-0.000800711
-0.00304571
-0.000954256
-0.00321039
-0.00111748
-0.00336236
-0.00128983
-0.00350722
-0.00364854
-0.00147084
-9.49544e-06
-0.000240007
-3.68545e-05
-0.000666768
-8.19378e-05
-0.00106418
-0.00014439
-0.00142854
-0.000223599
-0.00175735
-0.0003187
-0.00204976
-0.000428623
-0.00230672
-0.000552166
-0.00253089
-0.000688099
-0.00272643
-0.000835258
-0.00289855
-0.000992636
-0.00305301
-0.00115943
-0.00319557
-0.00133504
-0.00333161
-0.00346463
-0.00151895
-1.02036e-05
-0.000229803
-3.93971e-05
-0.000637574
-8.72139e-05
-0.00101637
-0.000153067
-0.00136269
-0.00023612
-0.00167429
-0.000335311
-0.00195057
-0.000449403
-0.00219263
-0.000577071
-0.00240323
-0.000716994
-0.00258651
-0.000867956
-0.00274759
-0.00102892
-0.00289205
-0.00119905
-0.00302544
-0.00137775
-0.00315291
-0.00327787
-0.00156451
-1.0882e-05
-0.000218921
-4.18278e-05
-0.000606629
-9.22484e-05
-0.000965945
-0.00016133
-0.00129361
-0.000248022
-0.0015876
-0.000351072
-0.00184752
-0.000469087
-0.00207462
-0.000600623
-0.00227169
-0.000744282
-0.00244285
-0.000898799
-0.00259307
-0.00106311
-0.00272774
-0.00123638
-0.00285217
-0.00141803
-0.00297127
-0.00308832
-0.00160757
-1.15284e-05
-0.000207393
-4.41394e-05
-0.000574018
-9.70277e-05
-0.000913056
-0.000169161
-0.00122148
-0.000259282
-0.00149748
-0.000365958
-0.00174084
-0.000487649
-0.00195293
-0.000622803
-0.00213654
-0.000769949
-0.0022957
-0.000927786
-0.00243524
-0.00109523
-0.00256029
-0.00127147
-0.00267593
-0.00145592
-0.00278682
-0.00289608
-0.00164816
-1.21408e-05
-0.000195252
-4.63254e-05
-0.000539833
-0.00010154
-0.000857842
-0.000176542
-0.00114647
-0.000269879
-0.00140414
-0.000379945
-0.00163078
-0.000505067
-0.0018278
-0.000643592
-0.00199801
-0.000793986
-0.00214531
-0.000954914
-0.00227431
-0.00112529
-0.00238991
-0.00130431
-0.00249692
-0.00149143
-0.0025997
-0.00270123
-0.00168628
-1.27173e-05
-0.000182535
-4.83797e-05
-0.000504171
-0.000105774
-0.000800448
-0.000183458
-0.00106879
-0.000279793
-0.00130781
-0.000393015
-0.00151756
-0.000521323
-0.0016995
-0.000662974
-0.00185636
-0.00081638
-0.0019919
-0.00098018
-0.00211051
-0.00115329
-0.0022168
-0.00133492
-0.00231529
-0.00152457
-0.00241005
-0.00250387
-0.00172192
-1.32561e-05
-0.000169279
-5.02969e-05
-0.00046713
-0.00010972
-0.000741025
-0.000189894
-0.000988615
-0.000289008
-0.00120869
-0.00040515
-0.00140141
-0.0005364
-0.00156825
-0.000680936
-0.00171183
-0.000837121
-0.00183572
-0.00100358
-0.00194405
-0.00117922
-0.00204115
-0.00136329
-0.00213122
-0.00155531
-0.00221803
-0.00230415
-0.00175504
-1.37557e-05
-0.000155523
-5.20719e-05
-0.000428814
-0.000113368
-0.000679728
-0.000195839
-0.000906145
-0.000297509
-0.00110702
-0.000416332
-0.00128259