/*--------------------------------*- C++ -*----------------------------------*\
  =========                 |
  \\      /  F ield         | OpenFOAM: The Open Source CFD Toolbox
   \\    /   O peration     | Website:  https://openfoam.org
    \\  /    A nd           | Version:  7
     \\/     M anipulation  |
\*---------------------------------------------------------------------------*/
FoamFile
{
    version     2.0;
    format      ascii;
    class       volVectorField;
    location    "65";
    object      U;
}
// * * * * * * * * * * * * * * * * * * * * * * * * * * * * * * * * * * * * * //

dimensions      [0 1 -1 0 0 0 0];

internalField   nonuniform List<vector> 
34000
(
(-0.000297586 0.00525804 -9.23466e-22)
(-0.00180509 0.0137746 -4.96276e-21)
(-0.0048335 0.0206959 6.05619e-22)
(-0.00884667 0.0261805 -1.05842e-21)
(-0.0136399 0.0303965 1.61647e-21)
(-0.0190226 0.0335215 -1.19275e-20)
(-0.0248144 0.0357356 2.05275e-21)
(-0.0308614 0.0372153 -8.09226e-21)
(-0.0370329 0.0381273 -1.74161e-20)
(-0.0432215 0.038623 1.49099e-20)
(-0.0493424 0.0388336 4.4409e-21)
(-0.0553332 0.0388671 -5.33667e-21)
(-0.0611536 0.0388074 6.56311e-21)
(-0.066784 0.0387146 8.99054e-21)
(-0.0722251 0.038627 -5.68751e-21)
(-0.0774955 0.0385639 -7.69827e-21)
(-0.0826298 0.0385286 -1.84917e-20)
(-0.0876777 0.0385105 -1.43513e-21)
(-0.0926852 0.0384878 -3.15355e-21)
(-0.0976931 0.0384247 -6.25997e-21)
(-0.00040754 0.00574928 -4.52323e-21)
(-0.00206601 0.0150699 3.77622e-21)
(-0.005172 0.0226409 -4.44359e-21)
(-0.00921101 0.0286398 -9.99807e-21)
(-0.013989 0.0332482 8.18739e-21)
(-0.0193249 0.0366571 4.97592e-20)
(-0.0250461 0.0390601 -3.06986e-20)
(-0.0310053 0.0406471 5.20504e-21)
(-0.0370771 0.0415984 2.5111e-20)
(-0.0431577 0.0420784 4.59863e-24)
(-0.0491651 0.0422313 1.49637e-20)
(-0.0550388 0.0421778 -1.98661e-20)
(-0.0607392 0.0420141 2.08451e-20)
(-0.0662473 0.0418119 -1.79556e-20)
(-0.0715634 0.0416205 -7.01143e-21)
(-0.076706 0.0414689 3.53001e-20)
(-0.0817099 0.0413683 -1.11458e-20)
(-0.0866252 0.0413143 1.72158e-21)
(-0.0914993 0.0412873 -2.09482e-20)
(-0.0963729 0.0412546 -2.29935e-21)
(-0.00053545 0.00622249 -3.5078e-20)
(-0.00237208 0.0163214 4.5504e-21)
(-0.00557355 0.0245245 6.98162e-21)
(-0.00964877 0.0310268 3.0738e-20)
(-0.0144152 0.0360217 -3.58296e-20)
(-0.0197014 0.0397122 -5.5865e-20)
(-0.0253438 0.0423044 5.09538e-20)
(-0.0312017 0.0440008 -1.39684e-20)
(-0.0371552 0.0449942 -6.99444e-21)
(-0.0431047 0.0454617 -3.56091e-20)
(-0.0489711 0.0455601 9.78817e-21)
(-0.0546957 0.0454224 3.50108e-20)
(-0.0602398 0.0451568 -7.14892e-21)
(-0.0655846 0.044847 2.8864e-20)
(-0.0707306 0.044553 -2.39048e-20)
(-0.0756961 0.0443139 -7.19986e-21)
(-0.0805162 0.0441496 5.69692e-20)
(-0.0852423 0.044062 -3.54685e-21)
(-0.0899232 0.0440344 8.97044e-20)
(-0.0945963 0.0440382 -2.15518e-20)
(-0.000680305 0.00667583 5.74363e-20)
(-0.00272096 0.0175242 -2.5755e-20)
(-0.00603515 0.0263399 -1.79085e-20)
(-0.0101567 0.0333329 -1.3597e-20)
(-0.014915 0.0387068 2.52097e-20)
(-0.0201492 0.0426755 -4.81209e-21)
(-0.0257046 0.0454564 -8.53211e-20)
(-0.0314479 0.0472635 -9.06444e-21)
(-0.037265 0.0483014 -1.87953e-20)
(-0.0430606 0.0487592 -3.04438e-21)
(-0.0487586 0.0488055 -3.2962e-20)
(-0.0543022 0.0485856 3.7453e-20)
(-0.0596536 0.0482197 -5.5506e-20)
(-0.0647944 0.047803 -1.70036e-21)
(-0.0697249 0.0474069 1.51935e-20)
(-0.0744636 0.0470807 -1.18257e-19)
(-0.0790459 0.0468534 -9.5538e-20)
(-0.0835255 0.0467342 5.19076e-20)
(-0.0879522 0.0467099 -6.95298e-20)
(-0.0923576 0.0467573 1.63648e-21)
(-0.000840994 0.00710765 -7.67454e-21)
(-0.00311011 0.0186741 1.01817e-19)
(-0.00655349 0.0280807 4.77899e-20)
(-0.0107312 0.0355499 -3.11141e-21)
(-0.015485 0.0412941 1.28369e-20)
(-0.0206649 0.0455365 1.89968e-21)
(-0.0261256 0.0485046 4.37108e-20)
(-0.0317414 0.0504229 5.18668e-20)
(-0.0374043 0.0515069 2.20834e-20)
(-0.0430234 0.0519569 7.81556e-20)
(-0.0485259 0.0519531 -9.02471e-20)
(-0.0538568 0.0516525 -1.90306e-20)
(-0.0589793 0.0511869 4.01801e-20)
(-0.0638751 0.0506632 -7.0212e-20)
(-0.0685446 0.0501644 3.21015e-20)
(-0.0730063 0.0497506 7.43991e-20)
(-0.0772962 0.0494606 1.77418e-20)
(-0.081471 0.0493113 2.58758e-20)
(-0.0855817 0.0492946 -4.13391e-20)
(-0.0896505 0.0493934 4.52993e-21)
(-0.00101632 0.00751643 -3.76891e-20)
(-0.00353676 0.0197671 2.41177e-20)
(-0.00712503 0.0297406 -3.90942e-20)
(-0.0113684 0.0376699 1.13995e-20)
(-0.0161213 0.0437742 3.18647e-20)
(-0.0212448 0.0482847 1.4509e-20)
(-0.0266033 0.0514376 2.75488e-20)
(-0.0320791 0.0534669 -1.9305e-20)
(-0.0375704 0.0545979 -1.19612e-19)
(-0.042991 0.0550416 -1.0726e-19)
(-0.0482712 0.0549889 -6.9863e-20)
(-0.0533579 0.0546081 2.64678e-20)
(-0.0582153 0.0540426 -1.51283e-20)
(-0.0628252 0.053411 1.15584e-19)
(-0.0671878 0.0528079 -4.16752e-20)
(-0.0713218 0.052305 3.41413e-20)
(-0.0752641 0.0519516 4.96313e-20)
(-0.0790749 0.0517736 -2.79001e-20)
(-0.0828066 0.0517685 2.45261e-19)
(-0.0864688 0.0519276 -9.28322e-20)
(-0.00120502 0.00790085 4.57628e-20)
(-0.00399798 0.0207996 -5.76051e-20)
(-0.00774597 0.0313143 -8.84098e-20)
(-0.0120641 0.0396858 -2.32824e-20)
(-0.0168197 0.0461386 1.02878e-20)
(-0.021885 0.0509104 1.5889e-20)
(-0.0271343 0.0542447 5.32706e-20)
(-0.032458 0.0563838 1.18468e-20)
(-0.0377606 0.0575621 3.87699e-21)
(-0.0429609 0.058 1.92667e-19)
(-0.0479923 0.0578989 1.45047e-19)
(-0.0528038 0.0574377 -8.71919e-20)
(-0.0573601 0.0567712 -1.28608e-20)
(-0.0616431 0.0560297 -3.47749e-20)
(-0.0656529 0.0553199 3.44785e-20)
(-0.069408 0.0547253 -1.82992e-19)
(-0.0729465 0.0543069 -3.84751e-20)
(-0.076333 0.0541007 -5.76241e-20)
(-0.0796217 0.0541113 -1.39701e-19)
(-0.082806 0.0543405 7.66653e-20)
(-0.00140577 0.00825977 7.68605e-21)
(-0.0044907 0.0217684 -2.81736e-20)
(-0.00841233 0.0327968 7.98269e-20)
(-0.012814 0.0415911 -4.92257e-20)
(-0.0175759 0.0483794 -2.76076e-20)
(-0.0225813 0.0534043 4.40294e-20)
(-0.0277147 0.0569156 -7.45423e-20)
(-0.0328746 0.0591625 -1.01548e-20)
(-0.0379721 0.0603874 1.4189e-19)
(-0.0429307 0.0608195 -9.09315e-20)
(-0.0476872 0.0606697 -3.74817e-20)
(-0.0521925 0.0601272 4.42747e-20)
(-0.0564119 0.0593578 -1.1703e-20)
(-0.0603271 0.0585033 -6.07461e-21)
(-0.0639378 0.0576828 5.0456e-20)
(-0.0672624 0.0569927 -1.34728e-19)
(-0.0703401 0.0565067 4.68422e-20)
(-0.0732409 0.0562721 -3.58435e-20)
(-0.0760213 0.0563026 -8.07838e-20)
(-0.0786548 0.0566129 2.91633e-20)
(-0.00161721 0.00859227 -2.14839e-20)
(-0.00501175 0.0226709 1.54947e-19)
(-0.00911998 0.0341837 -3.4443e-20)
(-0.0136136 0.0433798 2.11449e-20)
(-0.0183852 0.0504893 1.53306e-19)
(-0.0233293 0.0557581 -1.03938e-19)
(-0.0283404 0.0594407 -5.12972e-20)
(-0.0333253 0.0617924 -8.93963e-20)
(-0.0382014 0.0630624 -9.80747e-20)
(-0.0428974 0.0634879 -6.49229e-20)
(-0.0473534 0.0632884 -8.80555e-20)
(-0.0515218 0.0626628 1.60484e-19)
(-0.0553686 0.0617874 -1.77443e-20)
(-0.0588752 0.0608159 -3.7717e-20)
(-0.0620402 0.0598797 -1.97568e-19)
(-0.0648822 0.0590889 1.10996e-19)
(-0.0674412 0.0585313 2.74628e-20)
(-0.0697935 0.0582671 6.99163e-20)
(-0.071999 0.0583214 4.76387e-20)
(-0.074007 0.0587251 -1.28866e-19)
(-0.00183797 0.00889763 -6.68609e-20)
(-0.00555788 0.0235049 9.0724e-20)
(-0.00986468 0.0354714 5.11512e-20)
(-0.0144581 0.0450468 2.32711e-20)
(-0.0192428 0.0524616 1.9591e-20)
(-0.0241243 0.0579637 -6.98713e-20)
(-0.029007 0.061811 1.51499e-19)
(-0.0338059 0.0642635 8.4763e-21)
(-0.038445 0.0655764 1.41092e-19)
(-0.0428579 0.0659935 -8.26121e-20)
(-0.0469878 0.0657425 1.33211e-19)
(-0.0507891 0.0650312 -1.32448e-19)
(-0.0542279 0.064046 -1.19598e-19)
(-0.0572847 0.062952 1.02519e-19)
(-0.0599575 0.0618937 3.64943e-19)
(-0.062264 0.0609955 -2.02385e-19)
(-0.0642453 0.0603607 1.6695e-19)
(-0.0659849 0.0600647 3.87863e-20)
(-0.0675473 0.0601466 -1.45951e-19)
(-0.0688533 0.0606574 1.23525e-19)
(-0.00206666 0.00917539 1.21659e-19)
(-0.00612582 0.0242687 -6.95938e-20)
(-0.0106421 0.0366569 2.37923e-20)
(-0.0153426 0.0465877 8.95251e-20)
(-0.0201437 0.0542906 -8.26279e-20)
(-0.0249615 0.060014 1.62701e-19)
(-0.0297099 0.0640182 -2.96221e-20)
(-0.0343121 0.0665666 3.69277e-21)
(-0.0386988 0.067919 -1.9505e-19)
(-0.0428082 0.0683254 1.23727e-19)
(-0.0465871 0.0680203 2.87132e-20)
(-0.0499911 0.0672199 -3.80533e-20)
(-0.0529864 0.06612 4.77711e-20)
(-0.0555526 0.0648971 -1.89633e-19)
(-0.057686 0.0637088 -1.05987e-19)
(-0.0594035 0.0626947 2.24649e-19)
(-0.060747 0.0619755 -1.26197e-19)
(-0.061808 0.061644 -1.81346e-19)
(-0.0626574 0.0617565 3.37952e-19)
(-0.0631822 0.0623898 -2.48682e-22)
(-0.00230192 0.00942527 1.02096e-19)
(-0.00671231 0.0249611 -1.28246e-19)
(-0.0114479 0.0377378 -1.34237e-19)
(-0.0162623 0.0479988 -6.42604e-20)
(-0.0210828 0.0559712 -9.33394e-20)
(-0.0258355 0.0619028 -5.29397e-20)
(-0.0304438 0.0660547 -2.2458e-19)
(-0.034839 0.0686928 2.76805e-20)
(-0.038958 0.0700807 -9.60699e-20)
(-0.0427441 0.0704731 3.37668e-19)
(-0.0461469 0.0701108 -1.97029e-19)
(-0.0491235 0.069217 1.21327e-19)
(-0.0516401 0.0679967 -3.72885e-20)
(-0.0536744 0.0666373 2.06291e-19)
(-0.055221 0.0653095 1.7074e-20)
(-0.0562952 0.0641693 -1.78856e-19)
(-0.0569394 0.0633564 -3.2411e-20)
(-0.0572539 0.062984 7.72701e-21)
(-0.0573184 0.0631296 -1.35724e-20)
(-0.0569797 0.0639023 2.32336e-19)
(-0.00254241 0.00964727 -1.27102e-19)
(-0.00731411 0.0255817 -1.22738e-19)
(-0.0122777 0.0387124 5.10925e-20)
(-0.0172121 0.0492772 1.28041e-19)
(-0.0220546 0.0574992 -9.31491e-21)
(-0.0267409 0.0636244 -8.87201e-20)
(-0.0312035 0.0679138 1.9783e-19)
(-0.0353811 0.0706346 -2.23663e-20)
(-0.0392173 0.0720529 2.42318e-19)
(-0.04266 0.0724273 -2.7049e-19)
(-0.0456619 0.0720036 7.15756e-20)
(-0.0481812 0.0710116 8.52276e-20)
(-0.0501834 0.0696644 -2.58091e-21)
(-0.0516445 0.0681596 -1.46527e-21)
(-0.0525562 0.0666816 -1.64551e-19)
(-0.0529318 0.065403 2.22696e-20)
(-0.0528136 0.0644848 2.22616e-19)
(-0.0523112 0.064064 2.88213e-19)
(-0.051517 0.0642441 -3.4373e-19)
(-0.0502281 0.0651741 -2.22727e-19)
(-0.00278687 0.00984156 5.3325e-20)
(-0.00792807 0.0261301 8.18926e-20)
(-0.0131272 0.0395799 9.99965e-20)
(-0.0181869 0.0504208 -1.69341e-19)
(-0.0230536 0.0588711 1.78293e-19)
(-0.0276718 0.0651741 1.70282e-19)
(-0.0319827 0.0695895 -6.67235e-20)
(-0.0359324 0.0723846 2.93199e-19)
(-0.0394706 0.0738274 -2.98001e-19)
(-0.0425498 0.0741792 1.32665e-19)
(-0.0451256 0.0736896 1.35525e-19)
(-0.0471572 0.072594 -1.05109e-20)
(-0.0486093 0.0711125 1.8166e-21)
(-0.0494551 0.0694527 1.79842e-20)
(-0.0496831 0.0678119 -1.29015e-19)
(-0.0493035 0.0663807 1.28602e-19)
(-0.0483578 0.0653433 -6.64663e-20)
(-0.0469655 0.0648643 -1.50078e-19)
(-0.0452363 0.0650789 1.95119e-19)
(-0.0429054 0.0661843 4.12217e-20)
(-0.00303407 0.0100086 -3.07065e-20)
(-0.00855116 0.026607 3.85977e-20)
(-0.0139922 0.0403399 -8.36699e-20)
(-0.0191817 0.0514282 -1.25242e-19)
(-0.0240742 0.0600844 -1.29237e-19)
(-0.0286223 0.0665479 -1.16834e-19)
(-0.0327751 0.0710765 1.90879e-19)
(-0.036486 0.0739368 -9.69141e-20)
(-0.0397105 0.0753973 7.76385e-20)
(-0.0424056 0.075721 8.67676e-21)
(-0.0445298 0.0751604 -2.13015e-20)
(-0.0460429 0.0739552 5.34176e-20)
(-0.0469082 0.0723318 -1.04474e-19)
(-0.047096 0.0705063 5.47604e-20)
(-0.0465903 0.0686891 1.77918e-19)
(-0.0453973 0.067089 -2.61204e-19)
(-0.0435567 0.0659158 -1.67967e-19)
(-0.0411978 0.0653664 2.21875e-19)
(-0.0384557 0.065614 -1.30561e-19)
(-0.0349848 0.0669157 -2.05294e-19)
(-0.0032829 0.0101489 1.13488e-19)
(-0.00918048 0.027013 -1.16154e-19)
(-0.0148685 0.0409928 9.43045e-20)
(-0.0201914 0.0522988 1.51543e-19)
(-0.0251105 0.0611372 -2.79693e-20)
(-0.0295856 0.0677428 -1.00263e-19)
(-0.0335735 0.0723705 -1.87619e-19)
(-0.0370341 0.0752856 -1.43129e-19)
(-0.0399285 0.0767561 -2.89135e-19)
(-0.0422183 0.0770457 2.95092e-20)
(-0.0438644 0.0764088 -2.6013e-20)
(-0.0448271 0.0750879 -2.07204e-19)
(-0.0450681 0.0733144 1.80354e-19)
(-0.0445537 0.0713122 2.21729e-19)
(-0.0432627 0.0693038 -1.13497e-20)
(-0.041196 0.0675165 1.36926e-19)
(-0.0383898 0.066188 -6.94999e-20)
(-0.0349829 0.0655525 1.12352e-20)
(-0.0311455 0.0658287 1.98042e-19)
(-0.0264385 0.067368 4.80339e-19)
(-0.00353232 0.0102634 -4.92583e-20)
(-0.00981329 0.0273497 -3.45234e-20)
(-0.0157521 0.0415396 9.72348e-20)
(-0.0212107 0.0530328 -1.35724e-19)
(-0.0261563 0.0620284 -3.53553e-20)
(-0.0305549 0.0687563 2.10636e-19)
(-0.03437 0.073468 -4.99029e-20)
(-0.0375678 0.0764264 -1.44673e-19)
(-0.0401149 0.0778985 2.35417e-19)
(-0.0419769 0.0781475 -6.33037e-20)
(-0.043117 0.0774285 4.63856e-20)
(-0.043496 0.0759858 2.52887e-19)
(-0.0430734 0.0740542 -3.52325e-19)
(-0.0418109 0.0718642 -9.67102e-20)
(-0.0396809 0.069649 -1.91262e-19)
(-0.0366775 0.0676546 3.8965e-19)
(-0.0328315 0.0661482 1.21871e-20)
(-0.0282889 0.0654048 2.16973e-19)
(-0.0232548 0.0656937 -7.84184e-20)
(-0.0172254 0.0675326 -4.55405e-19)
(-0.00378141 0.0103531 -1.14471e-19)
(-0.010447 0.0276186 1.6563e-19)
(-0.0166391 0.0419819 2.24506e-21)
(-0.0222347 0.053631 -1.60973e-21)
(-0.0272055 0.0627578 1.73108e-19)
(-0.0315227 0.0695869 1.24844e-19)
(-0.0351559 0.0743661 -4.73976e-21)
(-0.0380771 0.0773554 3.74858e-19)
(-0.040258 0.0788198 1.43906e-19)
(-0.041668 0.0790214 -2.65185e-19)
(-0.0422726 0.0782147 1.25818e-20)
(-0.0420325 0.0766443 -9.02272e-21)
(-0.0409045 0.0745471 3.73366e-19)
(-0.0388453 0.0721583 -4.18972e-19)
(-0.0358196 0.0697207 1.15967e-19)
(-0.0318131 0.0674978 4.54844e-21)
(-0.0268496 0.0657879 -2.99225e-19)
(-0.0210835 0.0649108 -3.12181e-19)
(-0.0147337 0.0652037 -3.76772e-20)
(-0.00726635 0.0673648 4.63071e-19)
(-0.00402938 0.010419 3.7051e-20)
(-0.0110794 0.027822 -1.17962e-19)
(-0.0175257 0.0423218 1.13873e-19)
(-0.0232582 0.0540946 -1.70513e-19)
(-0.0282513 0.0633255 2.11895e-19)
(-0.0324808 0.0702337 -3.55263e-19)
(-0.0359214 0.0750627 -8.78256e-20)
(-0.0385505 0.0780695 -1.9598e-19)
(-0.0403444 0.0795164 -9.2557e-20)
(-0.041276 0.0796635 1.65285e-19)
(-0.0413128 0.0787634 3.38012e-19)
(-0.0404151 0.0770601 -3.79939e-19)
(-0.0385369 0.0747908 -1.4253e-19)
(-0.0356289 0.0721932 5.18414e-19)
(-0.0316471 0.069518 -1.88931e-19)
(-0.0265664 0.0670448 -2.73025e-19)
(-0.0204016 0.0651038 3.47691e-19)
(-0.0133139 0.0640661 7.35295e-20)
(-0.00554008 0.0643554 7.05265e-20)
(0.00351173 0.0668371 -2.98355e-19)
(-0.00427553 0.0104624 1.44655e-20)
(-0.0117081 0.0279623 -6.15213e-20)
(-0.0184083 0.0425617 1.99745e-19)
(-0.0242759 0.0544257 -2.58387e-19)
(-0.029287 0.0637326 -2.13572e-19)
(-0.0334206 0.0706965 1.35175e-19)
(-0.036656 0.0755566 3.75334e-19)
(-0.038975 0.0785665 -2.37213e-19)
(-0.0403584 0.0799854 5.74097e-20)
(-0.0407823 0.0800705 -1.14368e-19)
(-0.0402157 0.0790721 -4.62743e-19)
(-0.0386183 0.0772316 2.80752e-19)
(-0.0359408 0.0747849 2.27382e-19)
(-0.0321272 0.0719704 -4.0414e-19)
(-0.0271233 0.0690438 9.48108e-20)
(-0.0208919 0.0662991 3.80041e-19)
(-0.013435 0.0640974 1.49882e-19)
(-0.00491767 0.062866 5.28837e-20)
(0.00439692 0.0631277 -3.11162e-19)
(0.0151874 0.0659562 -1.53312e-19)
(-0.00451931 0.0104848 -1.0041e-19)
(-0.0123314 0.0280421 -1.84264e-19)
(-0.0192834 0.0427047 -1.06222e-19)
(-0.0252826 0.0546267 1.4062e-19)
(-0.0303053 0.0639806 -8.18974e-21)
(-0.0343325 0.0709756 3.14977e-19)
(-0.0373475 0.075847 -2.97375e-20)
(-0.0393359 0.0788447 3.52897e-20)
(-0.0402821 0.0802246 2.26648e-19)
(-0.0401652 0.0802406 2.87404e-19)
(-0.0389552 0.0791392 -1.33101e-20)
(-0.0366112 0.0771585 -6.38707e-20)
(-0.0330797 0.0745313 -3.75387e-19)
(-0.0282974 0.0714942 2.82215e-19)
(-0.0221992 0.0683052 -2.49705e-20)
(-0.0147333 0.0652693 -1.69924e-19)
(-0.00588548 0.062777 -8.54747e-19)
(0.00417896 0.0613138 3.04265e-19)
(0.015164 0.061514 1.64458e-20)
(0.0278626 0.0647211 -1.90891e-19)
(-0.00476031 0.0104875 9.26416e-20)
(-0.0129474 0.0280644 2.40799e-19)
(-0.0201476 0.0427538 -1.83116e-19)
(-0.0262729 0.0547005 -8.87046e-20)
(-0.0312984 0.0640715 7.41189e-20)
(-0.0352064 0.0710721 -1.79143e-19)
(-0.0379826 0.0759338 -3.32733e-19)
(-0.0396162 0.0789033 1.97112e-19)
(-0.0400947 0.0802327 -2.26343e-20)
(-0.0393993 0.0801723 -4.5404e-19)
(-0.0375009 0.0789643 8.7236e-20)
(-0.034357 0.0768422 4.92235e-20)
(-0.0299099 0.0740338 -8.59719e-20)
(-0.0240884 0.0707721 2.27638e-19)
(-0.016815 0.0673136 4.44986e-19)
(-0.00802176 0.0639704 -2.90921e-19)
(0.00232519 0.0611587 2.36964e-19)
(0.0140654 0.0594233 5.78844e-20)
(0.0268637 0.0595201 3.34231e-19)
(0.0416623 0.0631314 1.52103e-19)
(-0.00499821 0.0104721 -1.0166e-19)
(-0.0135546 0.0280322 -1.19523e-20)
(-0.0209976 0.0427128 2.59465e-19)
(-0.0272413 0.0546502 2.57338e-19)
(-0.0322582 0.0640078 -5.27898e-20)
(-0.0360307 0.0709874 -3.33975e-20)
(-0.0385464 0.0758176 3.34779e-19)
(-0.0397971 0.078742 -2.60217e-19)
(-0.0397725 0.0800092 7.94141e-20)
(-0.0384554 0.0798652 3.29705e-19)
(-0.035817 0.0785479 3.16809e-19)
(-0.0318128 0.0762851 1.23758e-19)
(-0.0263801 0.0732984 5.42658e-19)
(-0.0194391 0.0698142 -7.49473e-20)
(-0.0108992 0.0660846 -5.78667e-19)
(-0.000674578 0.0624236 2.85598e-19)
(0.0112915 0.059268 -1.53142e-19)
(0.0248493 0.0572192 -3.57977e-19)
(0.0396177 0.0571624 -2.54806e-19)
(0.0567338 0.0611955 -2.59514e-19)
(-0.00523283 0.0104401 6.50284e-20)
(-0.0141516 0.0279488 1.35953e-19)
(-0.0218302 0.0425851 -9.45908e-20)
(-0.028182 0.0544793 -1.17554e-19)
(-0.0331758 0.0637922 -1.22037e-19)
(-0.0367931 0.0707235 -3.30025e-20)
(-0.0390225 0.0754995 -3.45423e-19)
(-0.0398572 0.0783611 1.77422e-19)
(-0.0392885 0.0795539 -1.63615e-19)
(-0.0373002 0.0793198 -2.76869e-19)
(-0.0338627 0.0778917 9.85533e-21)
(-0.0289287 0.0754912 -7.04979e-19)
(-0.0224301 0.0723326 -5.48583e-19)
(-0.0142778 0.0686336 1.73905e-19)
(-0.0043673 0.0646383 8.84043e-20)
(0.00740621 0.060657 -1.90222e-19)
(0.0211255 0.0571398 7.40957e-19)
(0.0366577 0.0547392 -1.16866e-19)
(0.0535678 0.0544709 3.19575e-19)
(0.0732477 0.058934 2.909e-19)
(-0.0054641 0.0103931 -8.91947e-20)
(-0.0147373 0.0278171 -2.95449e-19)
(-0.0226419 0.0423745 9.3829e-20)
(-0.0290888 0.0541914 5.26828e-21)
(-0.0340416 0.0634278 3.993e-19)
(-0.0374799 0.0702827 -2.38379e-19)
(-0.0393922 0.074981 1.30674e-19)
(-0.0397724 0.0777618 1.86675e-19)
(-0.0386124 0.0788678 -1.46959e-20)
(-0.0358957 0.0785373 1.15664e-19)
(-0.0315911 0.0769981 3.52131e-19)
(-0.0256476 0.0744655 7.38304e-19)
(-0.0179908 0.0711455 5.94522e-20)
(-0.00852173 0.0672457 -3.2911e-19)
(0.00287852 0.0629985 5.98999e-20)
(0.0163347 0.0587049 5.86067e-19)
(0.0319578 0.0548192 -3.99498e-19)
(0.0496385 0.0520351 1.90512e-21)
(0.0688773 0.0514923 3.11395e-19)
(0.0913977 0.056383 -1.9462e-19)
(-0.00569202 0.0103325 -8.53972e-20)
(-0.0153103 0.0276404 3.49127e-19)
(-0.0234294 0.0420848 -2.66473e-19)
(-0.0299551 0.0537903 -5.44449e-20)
(-0.0348451 0.0629181 -9.18562e-20)
(-0.0380759 0.0696677 -2.38794e-19)
(-0.039635 0.0742642 2.38135e-19)
(-0.0395159 0.0769456 -7.86385e-20)
(-0.0377099 0.0779524 -1.40755e-19)
(-0.0341991 0.0775196 2.30711e-19)
(-0.0289493 0.0758704 -2.68302e-19)
(-0.0219048 0.0732139 -8.67516e-20)
(-0.0129837 0.0697476 -9.72154e-21)
(-0.00207669 0.0656678 2.31023e-19)
(0.0109501 0.0611926 -2.09627e-19)
(0.0262415 0.0566074 -3.97934e-19)
(0.0439379 0.0523608 -1.22631e-19)
(0.0639603 0.0491739 -1.78218e-19)
(0.0857297 0.0482919 -5.46476e-19)
(0.111399 0.0535983 -1.65449e-19)
(-0.00591668 0.0102598 1.21161e-19)
(-0.0158695 0.0274217 -1.53213e-19)
(-0.024189 0.0417197 -1.91921e-19)
(-0.0307739 0.0532798 -1.81511e-19)
(-0.0355748 0.0622664 6.048e-20)
(-0.0385644 0.0688817 3.40547e-20)
(-0.039728 0.0733518 8.49627e-20)
(-0.0390577 0.0759147 -2.20876e-19)
(-0.0365428 0.0768098 1.71103e-19)
(-0.0321624 0.0762695 -5.13171e-19)
(-0.0258781 0.074513 -2.58098e-19)
(-0.0176276 0.0717436 4.14371e-21)
(-0.00732087 0.0681506 2.29592e-19)
(0.00516313 0.0639188 -1.51056e-19)
(0.0199731 0.05925 3.86777e-19)
(0.0372733 0.0544092 -9.50904e-20)
(0.0572332 0.0498278 1.24192e-19)
(0.0798111 0.0462374 4.71387e-19)
(0.104327 0.0449559 6.24901e-20)
(0.133483 0.0506589 3.0635e-19)
(-0.0061382 0.0101763 -2.5584e-19)
(-0.0164138 0.0271637 2.06145e-19)
(-0.0249168 0.0412826 2.31509e-19)
(-0.0315372 0.0526636 -1.34638e-19)
(-0.036218 0.0614766 2.30122e-19)
(-0.0389267 0.067928 2.22196e-19)
(-0.0396459 0.0722469 -4.03085e-20)
(-0.0383645 0.0746724 -7.61722e-20)
(-0.0350684 0.0754435 -2.0762e-19)
(-0.0297324 0.074791 9.75183e-20)
(-0.0223115 0.0729312 9.52112e-21)
(-0.0127357 0.0700626 -2.55872e-19)
(-0.000904672 0.0663672 1.91e-19)
(0.0133147 0.0620187 -1.50231e-19)
(0.0300861 0.0572023 -2.74357e-19)
(0.0495916 0.0521583 -3.59482e-19)
(0.0720278 0.0472903 8.84349e-20)
(0.0973957 0.0433212 1.23411e-19)
(0.124886 0.0415916 -1.19251e-19)
(0.157892 0.047671 5.06655e-19)
(-0.00635672 0.0100832 -2.01966e-19)
(-0.0169418 0.026869 -1.89671e-19)
(-0.0256084 0.040777 1.49833e-19)
(-0.0322364 0.0519454 8.7213e-20)
(-0.0367605 0.0605524 3.5598e-20)
(-0.0391424 0.0668106 -6.52247e-20)
(-0.0393605 0.0709534 -4.61515e-20)
(-0.0373993 0.0732224 1.05479e-19)
(-0.0332398 0.0738576 -9.94017e-20)
(-0.0268501 0.0730892 7.9948e-19)
(-0.0181771 0.0711317 5.837e-20)
(-0.00714055 0.0681802 -9.00013e-20)
(0.00637155 0.0644112 -5.94241e-19)
(0.0225054 0.0599886 1.15237e-19)
(0.0414393 0.0550817 -2.95472e-19)
(0.0633706 0.0499041 1.96356e-19)
(0.0885186 0.0448225 1.80795e-19)
(0.116931 0.0405311 -6.91938e-19)
(0.147631 0.0383259 -2.16723e-19)
(0.184869 0.0447701 -7.56869e-19)
(-0.00657237 0.0099815 9.76748e-20)
(-0.017452 0.0265398 1.96253e-19)
(-0.0262588 0.0402058 -3.53479e-19)
(-0.0328619 0.0511288 -2.70747e-19)
(-0.0371866 0.0594977 1.37244e-19)
(-0.0391886 0.0655335 1.29348e-19)
(-0.0388405 0.0694757 -2.6848e-19)
(-0.0361213 0.0715698 -2.41655e-20)
(-0.031005 0.0720578 1.4414e-20)
(-0.0234509 0.0711708 -2.40771e-19)
(-0.0133955 0.0691229 3.50311e-19)
(-0.000745947 0.0661075 2.10618e-21)
(0.0146232 0.0622978 4.45328e-19)
(0.0328721 0.0578505 3.0307e-19)
(0.0541927 0.0529209 5.08785e-20)
(0.0787945 0.0476963 6.44565e-19)
(0.106912 0.0425 -5.87562e-19)
(0.13864 0.03798 2.7326e-19)
(0.172789 0.035302 2.14858e-19)
(0.21464 0.0421227 1.87265e-19)
(-0.0067852 0.00987217 4.70025e-19)
(-0.0179426 0.0261781 -3.31852e-19)
(-0.0268624 0.0395718 8.06373e-20)
(-0.0334025 0.0502171 2.62708e-19)
(-0.0374788 0.0583165 -2.83369e-19)
(-0.0390398 0.0641015 1.40382e-20)
(-0.0380516 0.0678193 2.15734e-19)
(-0.0344857 0.0697207 3.97054e-19)
(-0.0283073 0.0700513 5.38292e-19)
(-0.0194644 0.0690444 -5.16305e-19)
(-0.00788052 0.0669152 -3.0865e-19)
(0.0065518 0.0638578 1.46786e-19)
(0.0239736 0.0600442 -4.2328e-19)
(0.0445595 0.0556275 2.88102e-20)
(0.0685138 0.0507529 1.65526e-19)
(0.096053 0.0455837 1.27263e-19)
(0.127416 0.0403968 3.96277e-19)
(0.162743 0.0357824 8.39338e-20)
(0.200577 0.032674 -3.02103e-19)
(0.247399 0.0399248 3.28006e-19)
(-0.00699517 0.0097558 -4.45594e-19)
(-0.0184112 0.0257854 3.30403e-19)
(-0.0274127 0.0388773 8.02948e-20)
(-0.0338461 0.0492136 -2.60387e-19)
(-0.0376177 0.0570129 1.10043e-19)
(-0.0386682 0.0625197 -5.32082e-20)
(-0.0369559 0.0659903 -4.02556e-20)
(-0.0324434 0.0676827 -3.35063e-19)
(-0.0250845 0.0678472 -5.29526e-19)
(-0.014814 0.0667208 4.95917e-19)
(-0.00153953 0.0645218 -1.78842e-19)
(0.0148634 0.0614469 5.63224e-21)
(0.034553 0.0576702 1.0176e-19)
(0.0577186 0.0533449 2.16738e-19)
(0.0845746 0.048611 -2.64112e-20)
(0.115338 0.0436132 -6.14378e-20)
(0.150237 0.0385831 -3.18628e-19)
(0.189449 0.0340491 -2.14395e-19)
(0.231197 0.0306005 -2.03856e-19)
(0.28329 0.0383989 3.30405e-19)
(-0.00720206 0.00963282 3.57101e-19)
(-0.018855 0.0253625 -9.3211e-20)
(-0.0279021 0.0381241 3.17065e-19)
(-0.0341786 0.048121 7.69083e-20)
(-0.0375814 0.0555912 -1.69635e-19)
(-0.0380426 0.0607937 2.74939e-20)
(-0.0355119 0.0639962 -3.62116e-19)
(-0.0299407 0.0654649 1.64896e-19)
(-0.0212696 0.0654567 8.93153e-20)
(-0.00941734 0.0642137 -3.2886e-20)
(0.00572662 0.0619591 -3.75471e-20)
(0.0243061 0.0588946 4.45309e-20)
(0.0464975 0.0551993 -2.03584e-19)
(0.0725047 0.0510309 -4.75862e-19)
(0.102548 0.0465303 2.41724e-19)
(0.136836 0.0418305 -1.21881e-19)
(0.175572 0.0371241 -3.03984e-20)
(0.218945 0.0328827 5.18474e-19)
(0.264822 0.0292383 5.45913e-19)
(0.322376 0.0377895 -8.43931e-19)
(-0.00740545 0.00950336 -9.12251e-20)
(-0.0192705 0.0249101 -1.00312e-19)
(-0.0283217 0.0373136 -1.98715e-19)
(-0.0343844 0.0469422 1.45639e-19)
(-0.0373457 0.0540556 2.64419e-19)
(-0.0371292 0.0589297 -3.42184e-19)
(-0.033674 0.0618453 5.47184e-19)
(-0.0269193 0.0630784 -1.07079e-19)
(-0.01679 0.0628938 1.56536e-20)
(-0.00318625 0.0615402 -3.72052e-19)
(0.0140229 0.0592475 -2.84373e-20)
(0.0350024 0.0562248 -3.08059e-19)
(0.0599473 0.0526595 4.14148e-19)
(0.0890741 0.0487178 2.7331e-19)
(0.122605 0.0445479 -5.35695e-19)
(0.160727 0.0402801 -4.57913e-19)
(0.203601 0.0360787 1.06184e-19)
(0.251388 0.0323722 6.21158e-19)
(0.301594 0.0287365 2.88229e-19)
(0.364621 0.0383554 1.57395e-19)
(-0.00760464 0.00936729 2.82178e-20)
(-0.0196534 0.0244281 9.7276e-20)
(-0.0286615 0.0364467 1.17094e-19)
(-0.0344456 0.0456796 -9.79212e-20)
(-0.0368839 0.0524106 2.45242e-19)
(-0.0358904 0.0569348 3.28842e-19)
(-0.0313931 0.0595476 5.16769e-21)
(-0.0233166 0.0605363 -4.25263e-19)
(-0.0115681 0.0601749 -3.4034e-19)
(0.00397277 0.0587207 3.57027e-19)
(0.0234595 0.0564118 -4.78808e-19)
(0.0470789 0.0534667 -5.39148e-19)
(0.0750445 0.050084 -5.40054e-20)
(0.107582 0.0464428 -2.79996e-20)
(0.144907 0.0427046 1.89664e-19)
(0.187174 0.0390064 1.24928e-19)
(0.234479 0.0355003 1.62843e-19)
(0.286893 0.0325888 -7.67719e-19)
(0.341622 0.0292313 -2.1366e-19)
(0.409865 0.0403497 5.64435e-19)
(-0.0077986 0.0092242 -1.69287e-19)
(-0.0199983 0.023916 1.65658e-19)
(-0.0289096 0.0355239 -1.22267e-19)
(-0.0343425 0.0443354 -6.07301e-20)
(-0.0361664 0.0506609 -1.65588e-19)
(-0.0342857 0.0548166 -1.2557e-19)
(-0.0286158 0.0571141 -2.24723e-19)
(-0.0190653 0.0578537 3.71723e-19)
(-0.00552163 0.0573199 1.4796e-19)
(0.0121579 0.0557798 -3.63462e-19)
(0.0341505 0.0534815 5.70415e-19)
(0.0606648 0.0506551 2.93372e-19)
(0.0919302 0.0475124 -2.22223e-19)
(0.128177 0.044249 -3.12792e-19)
(0.169604 0.0410453 -4.04415e-20)
(0.216317 0.0380542 3.23481e-19)
(0.268327 0.0354366 -2.17477e-19)
(0.325528 0.0335806 8.29831e-20)
(0.384982 0.0308389 1.88122e-19)
(0.457828 0.0439876 4.76821e-19)
(-0.00798594 0.00907336 -1.73794e-20)
(-0.0202989 0.0233725 -4.09114e-19)
(-0.0290527 0.0345451 9.97132e-20)
(-0.034053 0.0429114 2.21755e-19)
(-0.0351608 0.0488112 -4.08933e-20)
(-0.0322708 0.0525835 -2.68709e-19)
(-0.0252848 0.0545577 2.96336e-19)
(-0.0140938 0.0550481 3.3957e-19)
(0.00143605 0.0543516 1.3007e-19)
(0.0214712 0.0527462 6.46481e-19)
(0.0462125 0.0504916 -3.01072e-19)
(0.0758888 0.0478306 1.44567e-19)
(0.110741 0.0449905 -1.49348e-19)
(0.150996 0.0421853 3.60785e-19)
(0.196825 0.039619 -3.17504e-20)
(0.248264 0.037468 -8.40694e-20)
(0.305222 0.0359304 -1.343e-19)
(0.367291 0.0353705 2.12334e-19)
(0.431691 0.0336799 -5.37643e-19)
(0.508041 0.0494864 -7.32579e-19)
(-0.00816478 0.00891377 -9.81524e-20)
(-0.0205478 0.0227962 -3.6327e-20)
(-0.0290756 0.0335098 -3.30518e-19)
(-0.0335524 0.0414096 2.02354e-19)
(-0.0338319 0.0468668 -2.06624e-19)
(-0.0297984 0.0502449 -2.0989e-19)
(-0.0213394 0.0518925 -1.89787e-20)
(-0.00832695 0.0521396 -3.42568e-19)
(0.00939507 0.0512962 -5.43735e-19)
(0.0320171 0.0496529 1.4885e-19)
(0.0597625 0.047482 1.67024e-19)
(0.0928767 0.04504 2.01718e-19)
(0.131606 0.0425704 5.16497e-19)
(0.176162 0.0403065 -5.0883e-20)
(0.226673 0.0384775 -1.12514e-19)
(0.283086 0.0372894 -1.60104e-20)
(0.345192 0.0370111 2.84788e-19)
(0.412136 0.0379455 5.08396e-19)
(0.481677 0.0379657 -1.43315e-19)
(0.559621 0.0572838 5.30998e-19)
(-0.00833278 0.00874417 3.07495e-19)
(-0.0207362 0.0221848 -4.98357e-20)
(-0.0289612 0.0324169 2.91781e-19)
(-0.0328139 0.0398315 -2.99213e-19)
(-0.0321415 0.0448328 4.41838e-19)
(-0.0268178 0.0478107 3.69793e-19)
(-0.0167153 0.0491342 -3.03937e-19)
(-0.00168631 0.0491502 -5.65914e-19)
(0.018448 0.0481833 9.38738e-19)
(0.043901 0.0465372 2.31976e-19)
(0.0749155 0.044498 -1.81013e-19)
(0.111747 0.0423361 -1.79104e-19)
(0.154637 0.0403104 -8.93213e-20)
(0.203768 0.0386722 -1.40224e-19)
(0.259207 0.0376734 -4.65649e-19)
(0.320797 0.0375503 -1.27447e-19)
(0.388211 0.0386696 1.04762e-20)
(0.460049 0.0412163 -3.49351e-19)
(0.535013 0.0440123 1.73887e-19)
(0.611397 0.0677935 -3.77328e-19)
(-0.00848705 0.00856304 -4.91228e-19)
(-0.0208539 0.0215359 3.30604e-19)
(-0.0286905 0.0312654 -4.92395e-19)
(-0.0318082 0.0381786 -2.68183e-19)
(-0.0300486 0.0427151 1.00006e-19)
(-0.0232754 0.0452921 -3.99583e-19)
(-0.0113454 0.0463004 6.26364e-19)
(0.00590894 0.0461047 1.08373e-20)
(0.0286885 0.0450453 -3.4899e-19)
(0.0572272 0.0434404 -3.05087e-19)
(0.0917818 0.0415894 -5.45267e-19)
(0.132609 0.0397766 -6.62206e-21)
(0.179929 0.0382741 2.00543e-20)
(0.233877 0.0373464 -1.26336e-19)
(0.294438 0.0372604 5.61317e-19)
(0.361329 0.0382696 3.48035e-19)
(0.434132 0.0408357 8.69575e-20)
(0.51101 0.0449673 -3.75217e-19)
(0.59231 0.0517881 -2.00395e-20)
(0.664513 0.0786849 -6.19037e-19)
(-0.00862419 0.00836867 1.74484e-19)
(-0.0208894 0.0208466 -3.3053e-19)
(-0.0282423 0.0300536 4.251e-19)
(-0.0305034 0.0364527 5.97657e-19)
(-0.0275098 0.0405199 -1.94513e-19)
(-0.0191149 0.0427011 2.53118e-20)
(-0.00516034 0.0434098 -5.28042e-19)
(0.0145409 0.0430299 -1.31281e-19)
(0.0402099 0.0419181 -4.09353e-19)
(0.0720965 0.0404073 5.3409e-19)
(0.110463 0.0388108 4.95458e-19)
(0.155554 0.0374245 -8.81611e-20)
(0.20755 0.0365303 -6.64918e-20)
(0.266511 0.0363983 -5.90087e-21)
(0.33231 0.0372968 1.00667e-19)
(0.40451 0.0394677 -1.81836e-19)
(0.48259 0.0434176 -2.11981e-19)
(0.564493 0.0488975 4.51553e-19)
(0.653174 0.0599591 -1.46185e-19)
(0.726376 0.0819207 1.86186e-20)
(-0.00874015 0.00815919 4.60767e-20)
(-0.0208299 0.0201138 6.68748e-20)
(-0.0275938 0.0287799 -2.22517e-19)
(-0.0288656 0.0346555 -6.15893e-19)
(-0.024479 0.0382539 9.99007e-20)
(-0.014278 0.0400507 3.02482e-19)
(0.00191072 0.0404831 1.38118e-19)
(0.024292 0.039955 5.9289e-19)
(0.0531034 0.03884 -3.72485e-19)
(0.0886039 0.0374863 -4.84544e-19)
(0.13105 0.0362198 -8.87828e-20)
(0.180655 0.0353462 2.21425e-19)
(0.237536 0.0351515 4.85458e-20)
(0.301645 0.0359018 2.621e-19)
(0.372704 0.0378499 -3.21296e-19)
(0.450076 0.0411929 6.45957e-20)
(0.533072 0.0464136 -8.21877e-20)