/*--------------------------------*- C++ -*----------------------------------*\
  =========                 |
  \\      /  F ield         | OpenFOAM: The Open Source CFD Toolbox
   \\    /   O peration     | Website:  https://openfoam.org
    \\  /    A nd           | Version:  7
     \\/     M anipulation  |
\*---------------------------------------------------------------------------*/
FoamFile
{
    version     2.0;
    format      ascii;
    class       volScalarField;
    location    "40";
    object      p;
}
// * * * * * * * * * * * * * * * * * * * * * * * * * * * * * * * * * * * * * //

dimensions      [0 2 -2 0 0 0 0];

internalField   nonuniform List<scalar> 
21350
(
-0.236207
-0.239215
-0.237641
-0.242365
-0.240626
-0.238888
-0.245659
-0.243747
-0.241871
-0.239737
-0.249099
-0.247006
-0.244985
-0.242711
-0.240203
-0.252688
-0.250403
-0.248234
-0.245815
-0.243164
-0.240365
-0.256427
-0.253941
-0.251618
-0.249051
-0.246254
-0.243314
-0.24028
-0.260315
-0.25762
-0.255139
-0.25242
-0.249473
-0.246391
-0.243217
-0.239987
-0.236722
-0.264353
-0.26144
-0.258796
-0.255922
-0.252824
-0.249596
-0.24628
-0.242908
-0.239496
-0.236045
-0.268538
-0.265401
-0.262589
-0.259558
-0.256306
-0.252929
-0.249469
-0.245949
-0.242383
-0.238763
-0.235068
-0.272869
-0.2695
-0.266518
-0.263326
-0.259919
-0.256392
-0.252781
-0.249109
-0.245379
-0.241578
-0.237677
-0.233634
-0.229401
-0.277343
-0.273735
-0.270579
-0.267226
-0.26366
-0.25998
-0.256216
-0.252383
-0.248479
-0.244482
-0.240357
-0.236056
-0.231529
-0.226728
-0.221617
-0.281954
-0.278102
-0.274771
-0.271254
-0.267529
-0.263692
-0.259769
-0.255768
-0.251677
-0.247469
-0.243099
-0.238516
-0.233668
-0.22851
-0.223014
-0.217169
-0.286698
-0.282596
-0.279088
-0.275406
-0.27152
-0.267524
-0.263437
-0.259257
-0.254966
-0.250527
-0.24589
-0.241
-0.235804
-0.230264
-0.224358
-0.218088
-0.211481
-0.204583
-0.291568
-0.287212
-0.283525
-0.279678
-0.275629
-0.27147
-0.267212
-0.262843
-0.258337
-0.253647
-0.248718
-0.243493
-0.237922
-0.231973
-0.225634
-0.218922
-0.211877
-0.204557
-0.197036
-0.189391
-0.296556
-0.291942
-0.288076
-0.284064
-0.27985
-0.275524
-0.271086
-0.266516
-0.261777
-0.256815
-0.251569
-0.245981
-0.240007
-0.233623
-0.22683
-0.21966
-0.212166
-0.204421
-0.196506
-0.188505
-0.180496
-0.172547
-0.301651
-0.296778
-0.292732
-0.288555
-0.284175
-0.279677
-0.275051
-0.270266
-0.265274
-0.260015
-0.254425
-0.248446
-0.242041
-0.235197
-0.227931
-0.220289
-0.212339
-0.204166
-0.19586
-0.187508
-0.17919
-0.170972
-0.162915
-0.155004
-0.306844
-0.301709
-0.297485
-0.293142
-0.288594
-0.283919
-0.279095
-0.274079
-0.268814
-0.263233
-0.25727
-0.250871
-0.244008
-0.236681
-0.228924
-0.220798
-0.212387
-0.203786
-0.195091
-0.186394
-0.177773
-0.169293
-0.16101
-0.152911
-0.145319
-0.312122
-0.306726
-0.302324
-0.297816
-0.293098
-0.288239
-0.283205
-0.277941
-0.272381
-0.266451
-0.260085
-0.253237
-0.24589
-0.238058
-0.229794
-0.221176
-0.2123
-0.203272
-0.194194
-0.185158
-0.176242
-0.167507
-0.159002
-0.150719
-0.142947
-0.317471
-0.311814
-0.307237
-0.302564
-0.297673
-0.292623
-0.287366
-0.281836
-0.275955
-0.269648
-0.262851
-0.255526
-0.247668
-0.239313
-0.230529
-0.221412
-0.21207
-0.202619
-0.193163
-0.183795
-0.174591
-0.165608
-0.156888
-0.148425
-0.140478
-0.322875
-0.316959
-0.31221
-0.307373
-0.302305
-0.297056
-0.291562
-0.285744
-0.279519
-0.272806
-0.265547
-0.257716
-0.249326
-0.24043
-0.231116
-0.221495
-0.211689
-0.201818
-0.191992
-0.182301
-0.172816
-0.163592
-0.154662
-0.146024
-0.137905
-0.328318
-0.322146
-0.317227
-0.312227
-0.306979
-0.301521
-0.295775
-0.289648
-0.28305
-0.275901
-0.268152
-0.259789
-0.250845
-0.241393
-0.231541
-0.221415
-0.211147
-0.200864
-0.190675
-0.180669
-0.170913
-0.161453
-0.15232
-0.143512
-0.135225
-0.33378
-0.327358
-0.322271
-0.317109
-0.311677
-0.306
-0.299984
-0.293524
-0.286526
-0.278913
-0.270644
-0.261724
-0.252207
-0.242187
-0.231792
-0.221161
-0.210438
-0.19975
-0.189207
-0.178895
-0.168874
-0.159188
-0.149858
-0.140885
-0.132435
-0.339242
-0.332574
-0.327325
-0.322
-0.31638
-0.310473
-0.304168
-0.297351
-0.289924
-0.281816
-0.273
-0.263501
-0.253394
-0.242798
-0.231857
-0.220725
-0.209552
-0.198468
-0.187581
-0.176972
-0.166697
-0.156791
-0.147271
-0.138138
-0.129529
-0.344682
-0.337775
-0.332368
-0.326881
-0.321066
-0.314916
-0.308303
-0.301104
-0.293219
-0.284588
-0.275199
-0.2651
-0.254391
-0.243211
-0.231724
-0.220096
-0.208482
-0.197012
-0.185792
-0.174896
-0.164374
-0.154257
-0.144554
-0.135267
-0.126504
-0.350076
-0.342938
-0.337378
-0.331729
-0.325713
-0.319306
-0.312364
-0.304757
-0.296387
-0.287204
-0.277218
-0.266501
-0.255178
-0.243412
-0.231383
-0.219266
-0.20722
-0.195376
-0.183832
-0.17266
-0.161902
-0.151581
-0.141703
-0.132267
-0.123356
-0.355401
-0.348041
-0.342332
-0.336522
-0.330298
-0.323619
-0.316327
-0.308284
-0.2994
-0.289639
-0.279035
-0.267685
-0.255741
-0.243389
-0.230821
-0.218225
-0.205759
-0.193551
-0.181697
-0.170259
-0.159274
-0.148758
-0.138712
-0.129135
-0.120081
-0.360629
-0.353058
-0.347205
-0.341233
-0.334793
-0.327827
-0.320162
-0.311658
-0.302233
-0.291869
-0.280627
-0.268632
-0.256063
-0.243126
-0.230029
-0.216964
-0.20409
-0.191533
-0.17938
-0.167688
-0.156485
-0.145783
-0.135577
-0.125865
-0.116676
-0.365734
-0.357963
-0.351973
-0.345837
-0.339173
-0.331902
-0.323842
-0.314851
-0.304858
-0.293869
-0.281972
-0.269324
-0.25613
-0.242613
-0.228997
-0.215475
-0.202207
-0.189314
-0.176875
-0.16494
-0.15353
-0.142651
-0.132294
-0.122455
-0.113136
-0.370687
-0.362728
-0.356606
-0.350306
-0.343408
-0.335817
-0.327339
-0.317834
-0.307249
-0.295615
-0.283051
-0.269744
-0.255925
-0.241838
-0.227713
-0.213749
-0.200103
-0.186887
-0.174176
-0.162009
-0.150403
-0.139358
-0.128857
-0.118898
-0.109458
-0.375459
-0.367326
-0.361078
-0.354611
-0.34747
-0.339541
-0.330621
-0.320579
-0.309379
-0.297083
-0.283841
-0.269873
-0.255435
-0.240788
-0.226169
-0.211779
-0.197769
-0.184247
-0.171276
-0.158891
-0.1471
-0.135897
-0.125263
-0.115193
-0.105638
-0.38002
-0.371727
-0.365358
-0.358723
-0.351328
-0.343043
-0.33366
-0.323057
-0.311222
-0.298249
-0.284323
-0.269696
-0.254647
-0.239452
-0.224356
-0.209556
-0.1952
-0.181386
-0.16817
-0.155579
-0.143615
-0.132265
-0.121508
-0.111334
-0.101673
-0.384339
-0.375901
-0.369417
-0.362611
-0.354952
-0.346293
-0.336425
-0.325239
-0.312752
-0.29909
-0.284478
-0.269196
-0.253548
-0.237821
-0.222264
-0.207073
-0.192387
-0.178298
-0.164852
-0.152069
-0.139943
-0.128457
-0.117587
-0.107319
-0.0975604
-0.388384
-0.379817
-0.373224
-0.366245
-0.35831
-0.34926
-0.338886
-0.327098
-0.313943
-0.299586
-0.284288
-0.26836
-0.252125
-0.235884
-0.219885
-0.204322
-0.189326
-0.174977
-0.161317
-0.148354
-0.136079
-0.124469
-0.113496
-0.103143
-0.0932963
-0.392123
-0.383442
-0.376747
-0.369591
-0.36137
-0.351912
-0.341013
-0.328606
-0.314771
-0.299715
-0.283735
-0.267171
-0.250367
-0.233631
-0.217212
-0.201296
-0.186008
-0.171418
-0.157558
-0.144431
-0.132019
-0.120296
-0.109232
-0.0988035
-0.0888782
-0.395523
-0.386747
-0.379954
-0.372618
-0.3641
-0.354218
-0.342777
-0.329735
-0.315213
-0.299457
-0.282802
-0.265618
-0.248264
-0.231054
-0.214236
-0.197989
-0.182428
-0.167615
-0.153571
-0.140293
-0.127759
-0.115935
-0.104791
-0.094297
-0.0843035
-0.398553
-0.389698
-0.382813
-0.375294
-0.366468
-0.356147
-0.344148
-0.33046
-0.315246
-0.298794
-0.281475
-0.263688
-0.245805
-0.228144
-0.21095
-0.194394
-0.17858
-0.163561
-0.149351
-0.135938
-0.123294
-0.111382
-0.100169
-0.0896209
-0.0795696
-0.40118
-0.392264
-0.385293
-0.377587
-0.368444
-0.357669
-0.345098
-0.330756
-0.314848
-0.297706
-0.27974
-0.261369
-0.24298
-0.224893
-0.207347
-0.190504
-0.174459
-0.159253
-0.144893
-0.131359
-0.11862
-0.106633
-0.0953651
-0.0847724
-0.0746744
-0.403373
-0.394413
-0.387361
-0.379466
-0.369995
-0.358754
-0.345601
-0.330599
-0.313999
-0.296179
-0.277582
-0.25865
-0.239781
-0.221294
-0.203422
-0.186315
-0.170059
-0.154686
-0.140193
-0.126555
-0.113734
-0.101686
-0.0903749
-0.0797492
-0.0696159
-0.4051
-0.396115
-0.388987
-0.380899
-0.371091
-0.359374
-0.345631
-0.329967
-0.312681
-0.294197
-0.274989
-0.255523
-0.236201
-0.217341
-0.199167
-0.181821
-0.165376
-0.149854
-0.135246
-0.12152
-0.108633
-0.0965372
-0.0851966
-0.0745494
-0.0643926
-0.40633
-0.397338
-0.39014
-0.381856
-0.371704
-0.359501
-0.345162
-0.328838
-0.310877
-0.291745
-0.271952
-0.251977
-0.232231
-0.213027
-0.194579
-0.177017
-0.160405
-0.144755
-0.130049
-0.116252
-0.103314
-0.0911848
-0.0798278
-0.069171
-0.059003
-0.407034
-0.398054
-0.39079
-0.382308
-0.371805
-0.35911
-0.344173
-0.327192
-0.308569
-0.288812
-0.268459
-0.248006
-0.227866
-0.208346
-0.189651
-0.171899
-0.155142
-0.139384
-0.1246
-0.110747
-0.0977747
-0.0856264
-0.0742669
-0.0636127
-0.053446
-0.407183
-0.398232
-0.390908
-0.382226
-0.371367
-0.358175
-0.34264
-0.325013
-0.305744
-0.285385
-0.264501
-0.243602
-0.2231
-0.203294
-0.18438
-0.166463
-0.149584
-0.133738
-0.118895
-0.105004
-0.0920124
-0.0798603
-0.0685122
-0.0578732
-0.0477207
-0.40675
-0.397846
-0.390467
-0.381582
-0.370364
-0.356674
-0.340545
-0.322283
-0.302389
-0.281455
-0.260072
-0.23876
-0.217928
-0.197868
-0.178762
-0.160705
-0.143728
-0.127816
-0.112931
-0.0990209
-0.0860257
-0.0738849
-0.0625627
-0.0519517
-0.0418262
-0.405708
-0.396869
-0.38944
-0.380353
-0.368772
-0.354585
-0.33787
-0.318987
-0.298492
-0.277013
-0.255165
-0.233473
-0.212345
-0.192062
-0.172795
-0.154624
-0.137571
-0.121614
-0.106708
-0.0927952
-0.0798134
-0.0676994
-0.0564174
-0.0458478
-0.0357626
-0.404034
-0.395277
-0.387802
-0.378513
-0.36657
-0.351888
-0.334597
-0.315114
-0.294043
-0.272052
-0.249773
-0.227739
-0.206349
-0.185876
-0.166475
-0.148217
-0.131112
-0.115131
-0.100223
-0.0863262
-0.0733745
-0.0613027
-0.0500758
-0.0395621
-0.0295325
-0.401703
-0.393045
-0.385531
-0.376041
-0.363737
-0.348567
-0.330713
-0.310651
-0.289035
-0.266566
-0.243894
-0.221553
-0.199938
-0.179306
-0.159801
-0.141482
-0.12435
-0.108366
-0.0934761
-0.0796133
-0.0667085
-0.0546944
-0.0435372
-0.0330954
-0.0231371
-0.398695
-0.390153
-0.382606
-0.372915
-0.360254
-0.344604
-0.326205
-0.305589
-0.28346
-0.260551
-0.237524
-0.214915
-0.193109
-0.172351
-0.152772
-0.13442
-0.117283
-0.101319
-0.086467
-0.0726565
-0.0598154
-0.0478743
-0.0368015
-0.0264451
-0.0165602
-0.394991
-0.386582
-0.379006
-0.369119
-0.356106
-0.339988
-0.321062
-0.299921
-0.277314
-0.254003
-0.230661
-0.207823
-0.185862
-0.165012
-0.145389
-0.127028
-0.109912
-0.0939903
-0.0791959
-0.0654564
-0.0526959
-0.0408438
-0.0298704
-0.019604
-0.00976011
-0.390574
-0.382312
-0.374714
-0.364635
-0.351277
-0.334705
-0.315276
-0.293642
-0.270594
-0.24692
-0.223305
-0.200276
-0.178198
-0.157288
-0.13765
-0.119309
-0.102238
-0.0863798
-0.0716637
-0.0580139
-0.0453515
-0.0336052
-0.0227468
-0.012573
-0.00274007
-0.385429
-0.37733
-0.369715
-0.359449
-0.345756
-0.328748
-0.308841
-0.286746
-0.263296
-0.239303
-0.215456
-0.192277
-0.170117
-0.149181
-0.129558
-0.111264
-0.0942616
-0.0784894
-0.063872
-0.0503308
-0.0377842
-0.0261606
-0.0154304
-0.00536524
0.00430361
-0.379542
-0.371621
-0.363997
-0.35355
-0.339534
-0.322108
-0.301752
-0.279232
-0.255421
-0.231151
-0.207115
-0.183825
-0.161621
-0.140692
-0.121115
-0.102894
-0.085985
-0.0703209
-0.0558228
-0.0424091
-0.0299961
-0.0185121
-0.00792619
0.00201606
0.0115074
-0.372904
-0.365174
-0.357548
-0.346928
-0.332602
-0.31478
-0.294007
-0.2711
-0.246971
-0.222468
-0.198285
-0.174926
-0.152714
-0.131825
-0.112323
-0.0942018
-0.0774107
-0.061877
-0.0475187
-0.0342515
-0.0219899
-0.0106621
-0.000235961
0.00956384
0.0188807
-0.365505
-0.357982
-0.350359
-0.339576
-0.324956
-0.306763
-0.285604
-0.26235
-0.237947
-0.213257
-0.18897
-0.165581
-0.143399
-0.122583
-0.103186
-0.0851912
-0.0685421
-0.053161
-0.0389629
-0.0258612
-0.0137686
-0.00261344
0.00763712
0.0172789
0.0264179
-0.357341
-0.350036
-0.342425
-0.331489
-0.316593
-0.298055
-0.276546
-0.252987
-0.228355
-0.203522
-0.179176
-0.155797
-0.13368
-0.11297
-0.0937073
-0.075866
-0.0593831
-0.0441769
-0.0301591
-0.0172418
-0.00533565
0.00563041
0.0156899
0.0251599
0.0341127
-0.348407
-0.341333
-0.333742
-0.322665
-0.307511
-0.288658
-0.266835
-0.243015
-0.2182
-0.19327
-0.168907
-0.145579
-0.123564
-0.102992
-0.0838929
-0.0662312
-0.0499386
-0.0349289
-0.0211118
-0.00839744
0.00330484
0.0140656
0.0239188
0.0332041
0.0419599
-0.338702
-0.331871
-0.324309
-0.313102
-0.297713
-0.278574
-0.256478
-0.23244
-0.207488
-0.182507
-0.158172
-0.134935
-0.113057
-0.0926557
-0.0737483
-0.0562925
-0.0402136
-0.0254222
-0.0118259
0.00066702
0.0121483
0.0226877
0.0323199
0.0414077
0.0499546
-0.328228
-0.321651
-0.314126
-0.302805
-0.287203
-0.267811
-0.245481
-0.221271
-0.196229
-0.171243
-0.146978
-0.12387
-0.102166
-0.0819668
-0.0632801
-0.0460558
-0.0302142
-0.0156627
-0.00230687
0.0099463
0.0211897
0.0314919
0.0408885
0.0497662
0.0580921
-0.316987
-0.310676
-0.303197
-0.291776
-0.275986
-0.256375
-0.233852
-0.209516
-0.184432
-0.159488
-0.135335
-0.112396
-0.0908991
-0.0709334
-0.0524955
-0.0355282
-0.019947
-0.00565672
0.00743912
0.0194345
0.0304234
0.0404729
0.0496197
0.0582748
0.0663672
-0.304987
-0.298951
-0.291527
-0.280023
-0.26407
-0.244275
-0.221604
-0.197188
-0.172109
-0.147251
-0.123253
-0.100521
-0.0792658
-0.0595642
-0.0414027
-0.0247173
-0.00941948
0.00458878
0.0174053
0.0291253
0.0398432
0.0496247
0.0585077
0.0669279
0.0747748
-0.292234
-0.286483
-0.279125
-0.267555
-0.251467
-0.231525
-0.208747
-0.184299
-0.159272
-0.134545
-0.110744
-0.088255
-0.0672758
-0.0478683
-0.0300103
-0.0136316
0.00136054
0.0150662
0.0275845
0.0390115
0.0494424
0.0589411
0.0675466
0.0757198
0.0833093
-0.27874
-0.273283
-0.266
-0.254382
-0.238188
-0.218136
-0.195295
-0.170862
-0.145934
-0.121383
-0.0978187
-0.0756107
-0.0549398
-0.035856
-0.0183279
-0.00227986
0.0123844
0.0257672
0.0379688
0.0490858
0.0592139
0.068415
0.0767298
0.0846441
0.0919646
-0.264517
-0.259362
-0.252166
-0.240519
-0.224247
-0.204124
-0.181265
-0.156893
-0.132111
-0.107779
-0.0844915
-0.0626
-0.0422694
-0.0235378
-0.00636571
0.00932811
0.0236431
0.0366832
0.0485498
0.05934
0.0691499
0.0780392
0.0860502
0.0936939
0.100734
-0.249579
-0.244735
-0.237636
-0.225981
-0.209661
-0.189505
-0.166674
-0.14241
-0.117817
-0.0937477
-0.0707762
-0.0492359
-0.0292768
-0.0109254
0.00586549
0.0211821
0.0351266
0.0478048
0.0593185
0.0697656
0.0792422
0.0878057
0.0955004
0.102862
0.109612
-0.233945
-0.229418
-0.222428
-0.210784
-0.194447
-0.174298
-0.151539
-0.12743
-0.10307
-0.0793056
-0.0566877
-0.0355325
-0.0159751
0.00196895
0.0183542
0.0332712
0.0468249
0.0591221
0.0702656
0.0803535
0.0894821
0.0977062
0.105072
0.112141
0.118589
-0.217632
-0.21343
-0.206559
-0.194947
-0.178626
-0.158524
-0.135881
-0.111968
-0.0878904
-0.0644697
-0.0422419
-0.0215045
-0.00237797
0.0151325
0.0310884
0.0455841
0.0587269
0.0706248
0.0813811
0.0910942
0.0998603
0.107732
0.114757
0.121522
0.127659
-0.200663
-0.196791
-0.190051
-0.178493
-0.162218
-0.142204
-0.119718
-0.09605
-0.0722949
-0.0492577
-0.0274555
-0.00716744
0.0115001
0.0285518
0.0440552
0.0581087
0.0708214
0.0823022
0.0926547
0.101978
0.110367
0.117873
0.124546
0.130996
0.136812
-0.183059
-0.179522
-0.172926
-0.161443
-0.145249
-0.125358
-0.103074
-0.0796951
-0.0563039
-0.0336883
-0.0123458
0.00746257
0.025644
0.0422125
0.0572416
0.0708327
0.0830966
0.094143
0.104076
0.112994
0.120993
0.12812
0.134429
0.140554
0.146039
-0.164844
-0.161649
-0.155207
-0.143824
-0.127745
-0.108006
-0.0859734
-0.0629255
-0.0399382
-0.0177811
0.00306906
0.0223686
0.0400381
0.0561002
0.0706337
0.0837431
0.0955403
0.106136
0.115633
0.124132
0.131726
0.138462
0.144397
0.150184
0.155329
-0.146046
-0.143196
-0.136921
-0.125659
-0.109716
-0.0901891
-0.0684406
-0.0457642
-0.0232198
-0.00155626
0.0187702
0.0375332
0.054666
0.0701995
0.0842173
0.0968265
0.10814
0.118269
0.127316
0.135381
0.142558
0.148889
0.154438
0.159877
0.164668
-0.126689
-0.124192
-0.118094
-0.106974
-0.091204
-0.0719224
-0.0505002
-0.0282354
-0.00617122
0.0149651
0.034738
0.0529382
0.0695108
0.0844946
0.0979777
0.110069
0.120883
0.130529
0.139112
0.14673
0.153476
0.15939
0.164542
0.169618
0.17404
-0.106802
-0.104666
-0.098757
-0.0877964
-0.0722364
-0.0532344
-0.0321787
-0.010364
0.0111844
0.0317615
0.0509526
0.0685648
0.0845551
0.0989694
0.1119
0.123457
0.133755
0.142905
0.15101
0.158168
0.16447
0.169954
0.174697
0.179395
0.183422
-0.0864114
-0.0846494
-0.078934
-0.0681644
-0.0528408
-0.034154
-0.0135033
0.00782433
0.0288229
0.0488106
0.0673931
0.0843939
0.099781
0.113607
0.125968
0.136975
0.146744
0.155385
0.162999
0.169684
0.17553
0.180571
0.184893
0.18919
0.192788
-0.0655426
-0.064185
-0.0586608
-0.0481033
-0.0330474
-0.014711
0.005498
0.0263033
0.04672
0.0660894
0.0840383
0.100406
0.11517
0.128391
0.140166
0.150609
0.159836
0.167954
0.175066
0.181268
0.186644
0.191229
0.195122
0.198997
0.202119
-0.044239
-0.0432969
-0.0379738
-0.0276462
-0.0128875
0.00506431
0.0247966
0.045046
0.0648503
0.0835747
0.100866
0.11658
0.130703
0.143302
0.154477
0.164344
0.173016
0.180601
0.187201
0.192909
0.197805
0.20192
0.205381
0.208812
0.211359
-0.0225767
-0.0219862
-0.0169029
-0.00682669
0.00760661
0.025141
0.044363
0.0640249
0.0831882
0.101242
0.117855
0.132896
0.146362
0.158324
0.168886
0.178163
0.18627
0.193313
0.199392
0.204598
0.209001
0.21264
0.215679
0.218605
0.220311
-0.000555339
-0.000312389
0.00451674
0.0143214
0.0284019
0.0454875
0.0641674
0.083212
0.101708
0.119068
0.134982
0.149332
0.162126
0.173437
0.183374
0.192051
0.199583
0.206075
0.211626
0.216323
0.220228
0.223397
0.226033
0.228294
0.228701
0.0217972
0.0216818
0.0262497
0.0357635
0.0494645
0.0660715
0.0841794
0.102579
0.120382
0.137028
0.152224
0.165868
0.177975
0.188624
0.197925
0.205992
0.212941
0.218875
0.223892
0.228075
0.231481
0.234203
0.236437
0.237803
0.236753
0.0444399
0.0439604
0.0482596
0.0574637
0.07076
0.0868602
0.104368
0.122096
0.139184
0.155096
0.169558
0.182481
0.193888
0.203865
0.212519
0.219969
0.226327
0.231697
0.236176
0.239843
0.242757
0.24505
0.246835
0.247103
0.246248
0.0673357
0.066489
0.0705112
0.079387
0.0922541
0.107821
0.124702
0.141735
0.158087
0.173247
0.186959
0.199149
0.209846
0.21914
0.22714
0.233965
0.239725
0.244526
0.248463
0.251612
0.25404
0.255896
0.257223
0.256941
0.256524
0.0904446
0.0892292
0.0929661
0.101496
0.113911
0.128919
0.14515
0.161466
0.177063
0.191455
0.204405
0.21585
0.225828
0.23443
0.241769
0.247962
0.25312
0.257347
0.260738
0.263369
0.26531
0.266716
0.267581
0.266901
0.266533
0.113727
0.112143
0.115586
0.123755
0.135696
0.150122
0.16568
0.181259
0.196085
0.209694
0.221871
0.232561
0.241811
0.249715
0.256386
0.261942
0.266494
0.270143
0.272985
0.275096
0.27655
0.277499
0.277915
0.276882
0.276389
0.137144
0.135191
0.138334
0.146124
0.157573
0.171396
0.18626
0.201085
0.215124
0.22794
0.239332
0.24926
0.257776
0.264975
0.270974
0.275889
0.27983
0.282899
0.28519
0.286779
0.287743
0.28823
0.288203
0.28682
0.28611
0.160655
0.158334
0.16117
0.168568
0.179505
0.192706
0.206859
0.220913
0.234153
0.246164
0.256765
0.265924
0.273699
0.28019
0.285513
0.289783
0.293111
0.295598
0.297336
0.298402
0.298873
0.298895
0.298425
0.296681
0.295696
0.18422
0.181533
0.184055
0.191048
0.201456
0.214017
0.227443
0.240714
0.253144
0.264342
0.274145
0.28253
0.289561
0.295341
0.299984
0.303608
0.306321
0.308224
0.309407
0.309948
0.309925
0.309479
0.308564
0.306447
0.305149
0.207799
0.204748
0.20695
0.213527
0.223391
0.235296
0.247981
0.260457
0.272068
0.282448
0.291447
0.299055
0.30534
0.310406
0.314369
0.317345
0.319442
0.32076
0.321389
0.321404
0.320885
0.319969
0.318605
0.316105
0.31447
0.231351
0.227939
0.229817
0.235966
0.245273
0.256509
0.268441
0.280112
0.290898
0.300454
0.308647
0.315476
0.321013
0.325365
0.328648
0.330977
0.332458
0.333191
0.333265
0.332754
0.331738
0.33035
0.328536
0.325646
0.323655
0.254837
0.251068
0.252617
0.258328
0.267066
0.277622
0.28879
0.29965
0.309606
0.318336
0.325722
0.331771
0.336561
0.3402
0.342803
0.344485
0.345352
0.345501
0.345021
0.343985
0.342472
0.340611
0.338344
0.335061
0.332702
0.278217
0.274093
0.27531
0.280575
0.288734
0.2986
0.308998
0.319042
0.328164
0.336067
0.342646
0.347917
0.351961
0.354889
0.356814
0.357852
0.358107
0.357675
0.356642
0.355083
0.353073
0.350739
0.348021
0.344342
0.341606
0.30145
0.296976
0.297857
0.302671
0.310242
0.31941
0.329032
0.338256
0.346545
0.353621
0.359395
0.363891
0.367193
0.369412
0.370664
0.371061
0.370707
0.369696
0.368114
0.366034
0.36353
0.360725
0.357555
0.353481
0.350363
0.324497
0.319677
0.320221
0.324576
0.331554
0.340018
0.348862
0.357265
0.364721
0.370974
0.375947
0.379672
0.382236
0.383752
0.384334
0.384095
0.383136
0.381551
0.379423
0.376825
0.37383
0.370556
0.366938
0.362469
0.358965
0.347318
0.342158
0.342364
0.346256
0.352635
0.360393
0.368456
0.37604
0.382666
0.3881
0.392277
0.395236
0.397069
0.397887
0.397806
0.396936
0.395378
0.393223
0.390555
0.387443
0.383962
0.380222
0.376159
0.371299
0.367406
0.369875
0.364379
0.364246
0.367673
0.373451
0.380501
0.387784
0.394552
0.400353
0.404974
0.408362
0.410564
0.411672
0.4118
0.411062
0.409568
0.407417
0.404699
0.401496
0.397877
0.393913
0.389712
0.385209
0.379963
0.375681
0.392129
0.386304
0.385833
0.388793
0.393967
0.40031
0.406816
0.412773
0.417756
0.421572
0.42418
0.425632
0.426024
0.42547
0.424084
0.421974
0.419237
0.415964
0.412233
0.408112
0.403672
0.399015
0.394078
0.388451
0.38378
0.414042
0.407894
0.407086
0.409578
0.414151
0.419788
0.425523
0.430675
0.434849
0.43787
0.439708
0.44042
0.440107
0.438881
0.436856
0.434138
0.430824
0.427003
0.422752
0.418137
0.413228
0.408123
0.402758
0.396755
0.391698
0.435577
0.429112
0.427969
0.429996
0.433969
0.438906
0.443875
0.448232
0.451608
0.453844
0.454923
0.454908
0.4539
0.452013
0.449359
0.446044
0.442163
0.437803
0.43304
0.42794
0.422569
0.417023
0.411239
0.404867
0.399426
0.456697
0.449923
0.448448
0.450012
0.453389
0.457631
0.461845
0.465417
0.468006
0.46947
0.469804
0.469074
0.467384
0.464848
0.461577
0.457676
0.453239
0.448351
0.443086
0.437509
0.431685
0.425706
0.419511
0.412778
0.406956
0.477367
0.470291
0.468488
0.469592
0.472379
0.475936
0.479404
0.482204
0.48402
0.484727
0.48433
0.482899
0.480541
0.47737
0.473495
0.46902
0.464038
0.458632
0.452876
0.446832
0.440565
0.434162
0.427565
0.42048
0.414282
0.497551
0.490182
0.488055
0.488705
0.490909
0.49379
0.496525
0.498567
0.499626
0.499592
0.498479
0.496364
0.493353
0.48956
0.485095
0.48006
0.474545
0.468634
0.462398
0.455898
0.449199
0.442382
0.435393
0.427964
0.421396
0.517215
0.509561
0.507116
0.507318
0.508949
0.511165
0.513182
0.514483
0.514801
0.514044
0.512233
0.50945
0.505802
0.501403
0.496363
0.490781
0.484748
0.478344
0.47164
0.464696
0.457576
0.450355
0.442985
0.435221
0.42829
0.536326
0.528395
0.525639
0.525401
0.526469
0.528035
0.529349
0.529926
0.529522
0.528061
0.525571
0.522138
0.51787
0.512883
0.507283
0.50117
0.494632
0.487749
0.480591
0.473216
0.465685
0.458073
0.450333
0.442244
0.434958
0.554852
0.546654
0.543593
0.542924
0.543442
0.544373
0.545001
0.544874
0.543769
0.541623
0.538473
0.53441
0.529542
0.523983
0.51784
0.511212
0.504186
0.496838
0.489239
0.481446
0.473518
0.465526
0.457428
0.449025
0.441391
0.572762
0.564305
0.560948
0.559858
0.559839
0.560152
0.560115
0.559305
0.557519
0.554711
0.550923
0.546249
0.5408
0.534688
0.528021
0.520895
0.513395
0.505599
0.497574
0.489377
0.481065
0.472706
0.464261
0.455555
0.447583
0.590024
0.581319
0.577674
0.576175
0.575635
0.575348
0.574667
0.573195
0.570753
0.567305
0.562901
0.557638
0.551629
0.544985
0.537812
0.530205
0.522249
0.514021
0.505585
0.496998
0.488316
0.479603
0.470826
0.461828
0.453527
0.606611
0.597668
0.593744
0.591849
0.590804
0.589938
0.588635
0.586526
0.583452
0.579387
0.574391
0.568562
0.562014
0.554858
0.547198
0.53913
0.530736
0.522092
0.513261
0.5043
0.495262
0.48621
0.477113
0.467835
0.459217
0.622495
0.613324
0.609131
0.606854
0.605322
0.603898
0.601997
0.599276
0.595595
0.59094
0.585376
0.579005
0.57194
0.564293
0.556168
0.547658
0.538845
0.529802
0.520594
0.511274
0.501896
0.492518
0.483116
0.47357
0.464646
0.637648
0.62826
0.623809
0.621164
0.619166
0.617207
0.614733
0.611427
0.607166
0.601947
0.595841
0.588952
0.581394
0.573279
0.56471
0.555777
0.546564
0.537142
0.527573
0.517911
0.508209
0.49852
0.488827
0.479025
0.469809
0.652045
0.642451
0.637755
0.634758
0.632313
0.629843
0.626823
0.62296
0.618147
0.612391
0.60577
0.598389
0.590363
0.581803
0.572811
0.563477
0.553884
0.544101
0.53419
0.524203
0.514192
0.504209
0.494239
0.484195
0.474698
0.665662
0.655874
0.650943
0.647613
0.644743
0.641788
0.63825
0.633859
0.628522
0.622258
0.615149
0.607302
0.598833
0.589852
0.580461
0.570748
0.560795
0.55067
0.540435
0.530142
0.519839
0.509577
0.499346
0.489074
0.47931
0.678477
0.668507
0.663354
0.659707
0.656435
0.653022
0.648995
0.644106
0.638276
0.631534
0.623965
0.61568
0.606794
0.597417
0.587649
0.577579
0.567287
0.556842
0.546302
0.535719
0.525142
0.514618
0.504142
0.493654
0.483639
0.690468
0.680327
0.674966
0.671021
0.667372
0.663528
0.659043
0.653686
0.647395
0.640205
0.632206
0.62351
0.614233
0.604485
0.594365
0.583962
0.573353
0.562607
0.551782
0.540929
0.530095
0.519326
0.50862
0.497931
0.48768
0.701615
0.691315
0.68576
0.681536
0.677535
0.67329
0.668377
0.662586
0.655864
0.648257
0.639858
0.630781
0.621141
0.611048
0.600601
0.589887
0.578984
0.567958
0.556869
0.545764
0.534692
0.523695
0.512776
0.5019
0.491427
0.711899
0.701453
0.695718
0.691237
0.686909
0.682293
0.676985
0.670791
0.663673
0.655681
0.646913
0.637483
0.627508
0.617097
0.606348
0.595348
0.584173
0.572889
0.561555
0.550219
0.538926
0.527719
0.516603
0.505555
0.494878
0.721304
0.710724
0.704824
0.700105
0.695479
0.690522
0.684851
0.67829
0.670808
0.662464
0.653358
0.643606
0.633325
0.622623
0.611597
0.600335
0.588912
0.577393
0.565835
0.554287
0.542793
0.531393
0.520098
0.508892
0.498028
0.729813
0.719112
0.713062
0.708129
0.70323
0.697965
0.691966
0.685071
0.67726
0.668597
0.659185
0.649142
0.638583
0.627618
0.616343
0.604844
0.593195
0.581463
0.569703
0.557963
0.546287
0.534713
0.523256
0.511908
0.500873
0.737412
0.726604
0.72042
0.715294
0.710152
0.704609
0.698317
0.691124
0.68302
0.674072
0.664386
0.654082
0.643276
0.632076
0.620577
0.608866
0.597017
0.585094
0.573153
0.561243
0.549404
0.537675
0.526073
0.514597
0.50341
0.744089
0.733186
0.726884
0.721588
0.716232
0.710446
0.703896
0.69644
0.688077
0.678879
0.668954
0.658421
0.647397
0.63599
0.624295
0.612398
0.600373
0.588282
0.576183
0.564121
0.55214
0.540274
0.528545
0.516958
0.505637
0.749833
0.738849
0.732445
0.727003
0.721461
0.715466
0.708693
0.701012
0.692426
0.683013
0.672881
0.662151
0.65094
0.639355
0.627491
0.615434
0.603257
0.591023
0.578787
0.566596
0.554491
0.542509
0.53067
0.518987
0.50755
0.754634
0.743582
0.737092
0.731528
0.725832
0.719661
0.712702
0.704832
0.69606
0.686466
0.676162
0.665267
0.653899
0.642166
0.630162
0.617971
0.605666
0.593312
0.580962
0.568663
0.556456
0.544375
0.532445
0.520682
0.509147
0.758485
0.747377
0.740819
0.735156
0.729336
0.723024
0.715916
0.707894
0.698974
0.689235
0.678792
0.667765
0.656272
0.644419
0.632302
0.620004
0.607598
0.595147
0.582705
0.57032
0.55803
0.54587
0.533867
0.52204
0.510428
0.761377
0.750229
0.74362
0.737883
0.731969
0.725551
0.718331
0.710195
0.701162
0.691315
0.680768
0.669642
0.658054
0.646112
0.63391
0.621531
0.609048
0.596525
0.584015
0.571564
0.559212
0.546994
0.534935
0.52306
0.511389
0.763308
0.752133
0.745489
0.739702
0.733726
0.727238
0.719942
0.71173
0.702623
0.692703
0.682086
0.670894
0.659244
0.647241
0.634982
0.62255
0.610016
0.597445
0.584888
0.572394
0.560001
0.547743
0.535648
0.52374
0.51203
0.764274
0.753085
0.746424
0.740612
0.734605
0.728081
0.720748
0.712498
0.703353
0.693397
0.682746
0.67152
0.659838
0.647806
0.635519
0.623059
0.6105
0.597904
0.585325
0.572809
0.560395
0.548118
0.536004
0.52408
0.512351
0.764273
0.753083
0.746422
0.740611
0.734604
0.72808
0.720747
0.712497
0.703352
0.693396
0.682745
0.671519
0.659837
0.647805
0.635518
0.623059
0.6105
0.597904
0.585324
0.572808
0.560395
0.548117
0.536004
0.52408
0.51235
0.763305
0.752129
0.745485
0.739699
0.733723
0.727234
0.719939
0.711727
0.70262
0.6927
0.682084
0.670892
0.659241
0.647239
0.63498
0.622548
0.610014
0.597443
0.584886
0.572392
0.559999
0.547741
0.535646
0.523738
0.512029
0.761371
0.750223
0.743614
0.737877
0.731963
0.725546
0.718325
0.71019
0.701157
0.69131
0.680763
0.669638
0.65805
0.646108
0.633906
0.621527
0.609045
0.596522
0.584011
0.571561
0.559209
0.546991
0.534932
0.523057
0.511386
0.758476
0.747369
0.740811
0.735148
0.729328
0.723017
0.715908
0.707887
0.698967
0.689229
0.678786
0.667759
0.656266
0.644414
0.632297
0.619999
0.607593
0.595142
0.582701
0.570315
0.558026
0.545866
0.533863
0.522036
0.510424
0.754623
0.743571
0.737081
0.731517
0.725821
0.719651
0.712692
0.704823
0.696052
0.686458
0.676154
0.665259
0.653892
0.642158
0.630155
0.617964
0.60566
0.593306
0.580956
0.568657
0.55645
0.544369
0.53244
0.520677
0.509143
0.74982
0.738835
0.732431
0.726989
0.721449
0.715454
0.708681
0.701001
0.692416
0.683002
0.672871
0.662141
0.65093
0.639346
0.627483
0.615426
0.603249
0.591015
0.57878
0.566589
0.554485
0.542502
0.530664
0.518981
0.507544
0.744073
0.73317
0.726868
0.721573
0.716217
0.710432
0.703882
0.696427
0.688065
0.678867
0.668942
0.65841
0.647386
0.635979
0.624285
0.612389
0.600363
0.588273
0.576174
0.564113
0.552132
0.540267
0.528538
0.516951
0.50563
0.737394
0.726585
0.720401
0.715276
0.710134
0.704593
0.698301
0.691109
0.683005
0.674058
0.664373
0.654069
0.643264
0.632064
0.620566
0.608855
0.597006
0.585084
0.573144
0.561233
0.549394
0.537666
0.526064
0.514589
0.503402
0.729792
0.719091
0.713041
0.708109
0.703211
0.697945
0.691948
0.685053
0.677244
0.668581
0.65917
0.649127
0.638569
0.627604
0.61633
0.604831
0.593183
0.581451
0.569691
0.557952
0.546276
0.534703
0.523246
0.511898
0.500864
0.72128
0.7107
0.704801
0.700083
0.695457
0.690501
0.684831
0.67827
0.67079
0.662446
0.653341
0.64359
0.633309
0.622608
0.611583
0.600321
0.588898
0.577379
0.565822
0.554275
0.542781
0.531382
0.520087
0.508882
0.498018
0.711873
0.701427
0.695692
0.691211