/*--------------------------------*- C++ -*----------------------------------*\
  =========                 |
  \\      /  F ield         | OpenFOAM: The Open Source CFD Toolbox
   \\    /   O peration     | Website:  https://openfoam.org
    \\  /    A nd           | Version:  7
     \\/     M anipulation  |
\*---------------------------------------------------------------------------*/
FoamFile
{
    version     2.0;
    format      ascii;
    class       surfaceScalarField;
    location    "80";
    object      phi;
}
// * * * * * * * * * * * * * * * * * * * * * * * * * * * * * * * * * * * * * //

dimensions      [0 3 -1 0 0 0 0];

internalField   nonuniform List<scalar> 
67470
(
-1.03411e-06
-2.44422e-05
2.54763e-05
-3.89441e-06
-6.30585e-05
6.59188e-05
-8.43381e-06
-9.37516e-05
9.8291e-05
-1.45076e-05
-0.000117016
0.00012309
-2.19761e-05
-0.000133503
0.000140972
-3.07093e-05
-0.000143989
0.000152723
-4.05902e-05
-0.000149322
0.000159203
-5.15189e-05
-0.000150365
0.000161294
-6.34158e-05
-0.000147943
0.00015984
-7.62237e-05
-0.000142784
0.000155592
-8.99102e-05
-0.000135473
0.000149159
-0.00010447
-0.000126416
0.000140976
-0.000119927
-0.000115824
0.000131281
-0.000136335
-0.000103702
0.000120111
-0.000153786
-8.98573e-05
0.000107307
-0.000172403
-7.39091e-05
9.25262e-05
-0.000192349
-5.53002e-05
7.52465e-05
-0.000213822
-3.33054e-05
5.47778e-05
-0.000237039
-7.05042e-06
3.02676e-05
2.46457e-05
5.62781e-07
-0.000262247
-1.06207e-06
-2.33801e-05
-3.98608e-06
-6.01345e-05
-8.60834e-06
-8.91293e-05
-1.47698e-05
-0.000110854
-2.2319e-05
-0.000125954
-3.11165e-05
-0.000135192
-4.1038e-05
-0.0001394
-5.19785e-05
-0.000139425
-6.38541e-05
-0.000136068
-7.66049e-05
-0.000130034
-9.01954e-05
-0.000121882
-0.000104617
-0.000111995
-0.000119888
-0.000100553
-0.000136057
-8.75329e-05
-0.000153205
-7.27096e-05
-0.000171444
-5.56702e-05
-0.000190919
-3.58249e-05
-0.000211805
-1.24192e-05
-0.000234293
1.54373e-05
4.89415e-05
-0.000258589
-1.08509e-06
-2.2295e-05
-4.06009e-06
-5.71595e-05
-8.74582e-06
-8.44436e-05
-1.49696e-05
-0.000104631
-2.25684e-05
-0.000118355
-3.1393e-05
-0.000126367
-4.13119e-05
-0.000129482
-5.22135e-05
-0.000128523
-6.40091e-05
-0.000124272
-7.66337e-05
-0.000117409
-9.00473e-05
-0.000108469
-0.000104235
-9.78072e-05
-0.000119209
-8.55795e-05
-0.000135007
-7.17343e-05
-0.000151699
-5.60184e-05
-0.000169379
-3.79896e-05
-0.000188174
-1.70297e-05
-0.000208233
7.63991e-06
-0.000229716
3.69202e-05
7.20122e-05
-0.000252787
-1.10349e-06
-2.11915e-05
-4.11769e-06
-5.41453e-05
-8.84895e-06
-7.97123e-05
-1.51115e-05
-9.8368e-05
-2.27311e-05
-0.000110736
-3.15489e-05
-0.00011755
-4.1425e-05
-0.000119605
-5.2241e-05
-0.000117707
-6.39018e-05
-0.000112611
-7.63363e-05
-0.000104974
-8.94976e-05
-9.53075e-05
-0.000103363
-8.39416e-05
-0.000117935
-7.10077e-05
-0.00013324
-5.64294e-05
-0.000149331
-3.99278e-05
-0.000166285
-2.1035e-05
-0.000184206
8.91312e-07
-0.000203216
2.66494e-05
-0.000223441
5.71455e-05
9.35732e-05
-0.000245002
-1.1177e-06
-2.00738e-05
-4.16032e-06
-5.11027e-05
-8.92076e-06
-7.49519e-05
-1.52008e-05
-9.20879e-05
-2.28151e-05
-0.000103121
-3.1595e-05
-0.00010877
-4.13919e-05
-0.000109808
-5.20798e-05
-0.000107019
-6.3556e-05
-0.000101135
-7.57418e-05
-9.27887e-05
-8.85818e-05
-8.24675e-05
-0.000102044
-7.04798e-05
-0.000116117
-5.6934e-05
-0.000130815
-4.17313e-05
-0.000146173
-2.45703e-05
-0.000162247
-4.96061e-06
-0.000179116
1.77604e-05
-0.000196873
4.44063e-05
-0.000215612
7.58845e-05
0.00011337
-0.000235409
-1.12815e-06
-1.89457e-05
-4.18959e-06
-4.80413e-05
-8.96463e-06
-7.01769e-05
-1.52432e-05
-8.58094e-05
-2.28289e-05
-9.55357e-05
-3.15433e-05
-0.000100055
-4.12288e-05
-0.000100123
-5.17506e-05
-9.64974e-05
-6.29976e-05
-8.98881e-05
-7.4882e-05
-8.09043e-05
-8.73384e-05
-7.00111e-05
-0.000100323
-5.74954e-05
-0.000113811
-4.34455e-05
-0.0001278
-2.77427e-05
-0.000142304
-1.00661e-05
-0.000157359
1.0094e-05
-0.000173016
3.34172e-05
-0.000189338
6.07289e-05
-0.000206388
9.29341e-05
0.000131179
-0.000224197
-1.13536e-06
-1.78103e-05
-4.20725e-06
-4.49694e-05
-8.98419e-06
-6.53999e-05
-1.52447e-05
-7.95489e-05
-2.27817e-05
-8.79987e-05
-3.14066e-05
-9.14304e-05
-4.09524e-05
-9.05772e-05
-5.1275e-05
-8.61749e-05
-6.22537e-05
-7.89094e-05
-7.37906e-05
-6.93675e-05
-8.58087e-05
-5.79929e-05
-9.82506e-05
-4.50535e-05
-0.000111077
-3.06193e-05
-0.000124265
-1.45548e-05
-0.000137809
3.47791e-06
-0.000151719
2.40047e-05
-0.000166022
4.77195e-05
-0.00018075
7.54571e-05
-0.000195933
0.000108118
0.000146811
-0.000211565
-1.13983e-06
-1.66705e-05
-4.2151e-06
-4.18941e-05
-8.98323e-06
-6.06318e-05
-1.52117e-05
-7.33204e-05
-2.26829e-05
-8.05275e-05
-3.11982e-05
-8.29151e-05
-4.05804e-05
-8.11949e-05
-5.06757e-05
-7.60796e-05
-6.13529e-05
-6.82322e-05
-7.25027e-05
-5.82177e-05
-8.40354e-05
-4.64603e-05
-9.58786e-05
-3.32103e-05
-0.000107976
-1.85224e-05
-0.000120284
-2.24675e-06
-0.000132774
1.59686e-05
-0.000145433
3.66634e-05
-0.000158258
6.05441e-05
-0.000171253
8.84529e-05
-0.00018442
0.000121285
0.000160107
-0.000197716
-1.1421e-06
-1.55284e-05
-4.21502e-06
-3.88212e-05
-8.9656e-06
-5.58812e-05
-1.51507e-05
-6.71353e-05
-2.25423e-05
-7.3136e-05
-3.09313e-05
-7.45261e-05
-4.01305e-05
-7.19957e-05
-4.99755e-05
-6.62346e-05
-6.03239e-05
-5.78838e-05
-7.10541e-05
-4.74875e-05
-8.20623e-05
-3.54521e-05
-9.326e-05
-2.20126e-05
-0.000104572
-7.21089e-06
-0.000115933
9.11462e-06
-0.000127292
2.73273e-05
-0.000138607
4.79786e-05
-0.000149849
7.17863e-05
-0.000160996
9.96004e-05
-0.000172023
0.000132311
0.00017094
-0.000182856
-1.14268e-06
-1.43857e-05
-4.20883e-06
-3.5755e-05
-8.93513e-06
-5.11549e-05
-1.50681e-05
-6.10024e-05
-2.23692e-05
-6.58349e-05
-3.06192e-05
-6.62761e-05
-3.96203e-05
-6.29946e-05
-4.9197e-05
-5.66579e-05
-5.91953e-05
-4.78855e-05
-6.94802e-05
-3.72026e-05
-7.9933e-05
-2.49993e-05
-9.04477e-05
-1.14979e-05
-0.000100929
3.27008e-06
-0.000111289
1.94751e-05
-0.000121451
3.74895e-05
-0.000131348
5.78751e-05
-0.000140922
8.13605e-05
-0.000150127
0.000108805
-0.000158914
0.000141098
0.000179215
-0.000167188
-1.1421e-06
-1.32436e-05
-4.19834e-06
-3.26988e-05
-8.89551e-06
-4.64577e-05
-1.49699e-05
-5.49279e-05
-2.21729e-05
-5.86319e-05
-3.02746e-05
-5.81744e-05
-3.90666e-05
-5.42025e-05
-4.83621e-05
-4.73624e-05
-5.79947e-05
-3.8253e-05
-6.78154e-05
-2.73818e-05
-7.76897e-05
-1.5125e-05
-8.74933e-05
-1.6943e-06
-9.71095e-05
1.28862e-05
-0.000106427
2.8793e-05
-0.000115343
4.64052e-05
-0.000123762
6.62937e-05
-0.0001316
8.9199e-05
-0.000138788
0.000115993
-0.00014526
0.00014757
0.000184862
-0.000150908
-1.14084e-06
-1.21028e-05
-4.18521e-06
-2.96544e-05
-8.85018e-06
-4.17928e-05
-1.4862e-05
-4.89161e-05
-2.19618e-05
-5.15322e-05
-2.99093e-05
-5.02268e-05
-3.84852e-05
-4.56266e-05
-4.74911e-05
-3.83565e-05
-5.67478e-05
-2.89963e-05
-6.6092e-05
-1.80376e-05
-7.53725e-05
-5.84444e-06
-8.4446e-05
7.3792e-06
-9.31736e-05
2.16138e-05
-0.00010142
3.7039e-05
-0.000109053
5.40382e-05
-0.00011595
7.3191e-05
-0.000122002
9.52514e-05
-0.000127119
0.00012111
-0.000131222
0.000151673
0.00018784
-0.000134199
-1.13934e-06
-1.09634e-05
-4.17097e-06
-2.66228e-05
-8.80226e-06
-3.71615e-05
-1.47495e-05
-4.29689e-05
-2.17436e-05
-4.45381e-05
-2.95339e-05
-4.24365e-05
-3.78902e-05
-3.72703e-05
-4.66022e-05
-2.96444e-05
-5.54779e-05
-2.01207e-05
-6.43391e-05
-9.17634e-06
-7.30178e-05
2.83422e-06
-8.13506e-05
1.5712e-05
-8.91759e-05
2.9439e-05
-9.63319e-05
4.4195e-05
-0.000102659
6.03655e-05
-0.000108006
7.8538e-05
-0.000112238
9.9483e-05
-0.000115244
0.000124116
-0.000116943
0.000153371
0.000188125
-0.000117228
-1.13798e-06
-9.82543e-06
-4.15691e-06
-2.36039e-05
-8.75438e-06
-3.2564e-05
-1.46367e-05
-3.70865e-05
-2.15247e-05
-3.76501e-05
-2.91574e-05
-3.48039e-05
-3.72935e-05
-2.91342e-05
-4.5711e-05
-2.12269e-05
-5.42048e-05
-1.16269e-05
-6.25819e-05
-7.99238e-07
-7.06568e-05
1.09091e-05
-7.82461e-05
2.33013e-05
-8.51643e-05
3.63573e-05
-9.12232e-05
5.02538e-05
-9.62337e-05
6.5376e-05
-0.000100015
8.23188e-05
-0.000102404
0.000101873
-0.000103278
0.00012499
-0.000102551
0.000152645
0.000185709
-0.000100136
-1.13708e-06
-8.68835e-06
-4.14408e-06
-2.05969e-05
-8.70868e-06
-2.79994e-05
-1.45272e-05
-3.1268e-05
-2.13103e-05
-3.0867e-05
-2.87867e-05
-2.73275e-05
-3.67044e-05
-2.12165e-05
-4.48297e-05
-1.31016e-05
-5.29442e-05
-3.51242e-06
-6.08402e-05
7.09676e-06
-6.83147e-05
1.83836e-05
-7.51639e-05
3.01504e-05
-8.11782e-05
4.23717e-05
-8.61416e-05
5.52172e-05
-8.98345e-05
6.90689e-05
-9.20445e-05
8.45289e-05
-9.25836e-05
0.000102412
-9.1311e-05
0.000123717
-8.81495e-05
0.000149483
0.000180596
-8.3036e-05
-1.13686e-06
-7.55148e-06
-4.13323e-06
-1.76005e-05
-8.66661e-06
-2.3466e-05
-1.44232e-05
-2.55114e-05
-2.11038e-05
-2.41864e-05
-2.84268e-05
-2.00045e-05
-3.61294e-05
-1.35139e-05
-4.39664e-05
-5.26454e-06
-5.17067e-05
4.22785e-06
-5.91276e-05
1.45177e-05
-6.6009e-05
2.5265e-05
-7.21262e-05
3.62677e-05
-7.72456e-05
4.74911e-05
-8.11224e-05
5.90939e-05
-8.35051e-05
7.14516e-05
-8.41484e-05
8.51722e-05
-8.28357e-05
0.000101099
-7.94119e-05
0.000120293
-7.38112e-05
0.000143883
0.000172789
-6.60048e-05
-1.13746e-06
-6.41403e-06
-4.12477e-06
-1.46132e-05
-8.62895e-06
-1.89618e-05
-1.43261e-05
-1.98142e-05
-2.09069e-05
-1.76056e-05
-2.80796e-05
-1.28318e-05
-3.55711e-05
-6.02245e-06
-4.31248e-05
2.28917e-06
-5.04969e-05
1.15999e-05
-5.74503e-05
2.14711e-05
-6.37477e-05
3.15624e-05
-6.91442e-05
4.16641e-05
-7.33813e-05
5.17281e-05
-7.61849e-05
6.18976e-05
-7.72701e-05
7.25369e-05
-7.63564e-05
8.42585e-05
-7.31958e-05
9.79387e-05
-6.76183e-05
0.000114716
-5.95748e-05
0.000135839
0.00016229
-4.90754e-05
-1.13889e-06
-5.27514e-06
-4.11872e-06
-1.16334e-05
-8.5957e-06
-1.44849e-05
-1.42356e-05
-1.41743e-05
-2.07191e-05
-1.11221e-05
-2.77446e-05
-5.80626e-06
-3.50286e-05
1.26153e-06
-4.23035e-05
9.56403e-06
-4.93131e-05
1.86095e-05
-5.58063e-05
2.79643e-05
-6.1529e-05
3.72851e-05
-6.6216e-05
4.63512e-05
-6.95843e-05
5.50964e-05
-7.13297e-05
6.3643e-05
-7.1132e-05
7.23392e-05
-6.86722e-05
8.17987e-05
-6.36676e-05
9.29341e-05
-5.5931e-05
0.000106979
-4.54386e-05
0.000125347
0.00014909
-3.22393e-05
-1.14108e-06
-4.13405e-06
-4.11475e-06
-8.65969e-06
-8.56602e-06
-1.00336e-05
-1.41503e-05
-8.59006e-06
-2.05382e-05
-4.73421e-06
-2.74182e-05
1.0738e-06
-3.44968e-05
8.3401e-06
-4.14955e-05
1.65627e-05
-4.81463e-05
2.52603e-05
-5.41842e-05
3.40022e-05
-5.93389e-05
4.24398e-05
-6.33254e-05
5.03377e-05
-6.58359e-05
5.76068e-05
-6.65356e-05
6.43427e-05
-6.50672e-05
7.08708e-05
-6.10691e-05
7.78006e-05
-5.42178e-05
8.60828e-05
-4.43042e-05
9.70655e-05
-3.13506e-05
0.000112393
0.000133248
-1.55079e-05
-1.14383e-06
-2.99022e-06
-4.11209e-06
-5.69144e-06
-8.53826e-06
-5.60741e-06
-1.40671e-05
-3.06122e-06
-2.03593e-05
1.55797e-06
-2.70935e-05
7.80802e-06
-3.39661e-05
1.52127e-05
-4.06882e-05
2.32848e-05
-4.69799e-05
3.1552e-05
-5.2563e-05
3.95854e-05
-5.71513e-05
4.70281e-05
-6.04402e-05
5.36266e-05
-6.20975e-05
5.92641e-05
-6.17573e-05
6.40025e-05
-5.90228e-05
6.81363e-05
-5.34853e-05
7.22631e-05
-4.47713e-05
7.73688e-05
-3.26325e-05
8.49267e-05
-1.71683e-05
9.69289e-05
0.000114854
1.22568e-06
-1.14683e-06
-1.84338e-06
-4.1096e-06
-2.72867e-06
-8.50991e-06
-1.2071e-06
-1.39818e-05
2.41063e-06
-2.01757e-05
7.75189e-06
-2.67606e-05
1.43929e-05
-3.34228e-05
2.18749e-05
-3.98629e-05
2.97249e-05
-4.57895e-05
3.74786e-05
-5.09113e-05
4.47071e-05
-5.49264e-05
5.10433e-05
-5.75113e-05
5.62115e-05
-5.83093e-05
6.00621e-05
-5.69228e-05
6.26161e-05
-5.29141e-05
6.41275e-05
-4.58224e-05
6.51715e-05
-3.52151e-05
6.67615e-05
-2.07587e-05
7.04703e-05
-2.16481e-06
7.8335e-05
9.35638e-05
1.91252e-05
-1.14966e-06
-6.93722e-07
-4.10574e-06
2.27404e-07
-8.47766e-06
3.16483e-06
-1.38884e-05
7.82142e-06
-1.99784e-05
1.38418e-05
-2.64063e-05
2.08209e-05
-3.28486e-05
2.83172e-05
-3.89951e-05
3.58713e-05
-4.45428e-05
4.30264e-05
-4.91872e-05
4.93515e-05
-5.26111e-05
5.44671e-05
-5.44718e-05
5.80722e-05
-5.43887e-05
5.99789e-05
-5.19322e-05
6.01596e-05
-4.66217e-05
5.88171e-05
-3.79412e-05
5.6491e-05
-2.53908e-05
5.42111e-05
-8.61439e-06
5.36939e-05
1.23485e-05
5.73721e-05
6.86972e-05
3.72151e-05
-1.1518e-06
4.58076e-07
-4.09862e-06
3.17423e-06
-8.43745e-06
7.50366e-06
-1.37801e-05
1.31641e-05
-1.97563e-05
1.9818e-05
-2.60148e-05
2.70793e-05
-3.22212e-05
3.45237e-05
-3.80546e-05
4.17047e-05
-4.31998e-05
4.81716e-05
-4.73388e-05
5.34906e-05
-5.01386e-05
5.72669e-05
-5.12375e-05
5.91711e-05
-5.02306e-05
5.8972e-05
-4.66561e-05
5.65851e-05
-3.99896e-05
5.21505e-05
-2.96552e-05
4.61566e-05
-1.50774e-05
3.96333e-05
4.17836e-06
3.44381e-05
2.81566e-05
3.33939e-05
4.048e-05
5.63737e-05
-1.15263e-06
1.61071e-06
-4.08604e-06
6.10764e-06
-8.38455e-06
1.18022e-05
-1.36485e-05
1.8428e-05
-1.94967e-05
2.56663e-05
-2.55672e-05
3.31497e-05
-3.15146e-05
4.04711e-05
-3.7006e-05
4.71961e-05
-4.17134e-05
5.28791e-05
-4.53045e-05
5.70816e-05
-4.74295e-05
5.93919e-05
-4.77072e-05
5.94488e-05
-4.57079e-05
5.69726e-05
-4.09373e-05
5.18146e-05
-3.2826e-05
4.40392e-05
-2.07346e-05
3.40652e-05
-4.00111e-06
2.28999e-05
1.79121e-05
1.25249e-05
4.51252e-05
6.1807e-06
8.56263e-06
7.70426e-05
-1.15148e-06
2.76219e-06
-4.06554e-06
9.02169e-06
-8.31366e-06
1.60503e-05
-1.34844e-05
2.35987e-05
-1.91852e-05
3.13671e-05
-2.50426e-05
3.90071e-05
-3.06992e-05
4.61278e-05
-3.58091e-05
5.2306e-05
-4.00303e-05
5.71002e-05
-4.30141e-05
6.00654e-05
-4.4393e-05
6.07708e-05
-4.37645e-05
5.88203e-05
-4.06733e-05
5.38815e-05
-3.45922e-05
4.57335e-05
-2.49057e-05
3.43527e-05
-1.09089e-05
2.00683e-05
8.1549e-06
3.83608e-06
3.29451e-05
-1.22653e-05
6.36845e-05
-2.45588e-05
-2.74736e-05
9.97208e-05
-1.14761e-06
3.9098e-06
-4.03446e-06
1.19085e-05
-8.2191e-06
2.02349e-05
-1.32779e-05
2.86575e-05
-1.88062e-05
3.68954e-05
-2.44181e-05
4.4619e-05
-2.97431e-05
5.14527e-05
-3.44204e-05
5.69834e-05
-3.80918e-05
6.07716e-05
-4.03906e-05
6.23642e-05
-4.09287e-05
6.13089e-05
-3.92803e-05
5.71719e-05
-3.49627e-05
4.95639e-05
-2.74147e-05
3.81854e-05
-1.59749e-05
2.29129e-05
1.28479e-07
3.96498e-06
2.17513e-05
-1.77867e-05
4.96929e-05
-4.0207e-05
8.43103e-05
-5.91761e-05
-6.81201e-05
0.000124957
-1.14027e-06
5.05006e-06
-3.99006e-06
1.47583e-05
-8.0949e-06
2.43398e-05
-1.30185e-05
3.35811e-05
-1.83434e-05
4.22203e-05
-2.36699e-05
4.99455e-05
-2.86124e-05
5.63952e-05
-3.27935e-05
6.11645e-05
-3.5836e-05
6.38141e-05
-3.73519e-05
6.38802e-05
-3.69295e-05
6.08864e-05
-3.41163e-05
5.43587e-05
-2.83996e-05
4.38472e-05
-1.91823e-05
2.89681e-05
-5.75747e-06
9.48809e-06
1.27117e-05
-1.45042e-05
3.71827e-05
-4.22578e-05
6.86075e-05
-7.16317e-05
0.00010751
-9.80788e-05
-0.000113929
0.000153319
-1.12868e-06
6.17874e-06
-3.92955e-06
1.75592e-05
-7.93505e-06
2.83453e-05
-1.26957e-05
3.83417e-05
-1.77801e-05
4.73047e-05
-2.27733e-05
5.49387e-05
-2.72724e-05
6.08943e-05
-3.08808e-05
6.47728e-05
-3.31988e-05
6.61321e-05
-3.38135e-05
6.44949e-05
-3.22849e-05
5.93579e-05
-2.81296e-05
5.02034e-05
-2.08009e-05
3.65184e-05
-9.66353e-06
1.78308e-05
6.03478e-06
-6.21023e-06
2.71926e-05
-3.5662e-05
5.48643e-05
-6.99294e-05
9.01608e-05
-0.000106928
0.000133805
-0.000141723
-0.000165492
0.000185368
-1.11211e-06
7.29086e-06
-3.85022e-06
2.02973e-05
-7.73362e-06
3.22287e-05
-1.2299e-05
4.29071e-05
-1.70997e-05
5.21055e-05
-2.17037e-05
5.95427e-05
-2.56885e-05
6.48791e-05
-2.86345e-05
6.77189e-05
-3.01161e-05
6.76137e-05
-2.96905e-05
6.40692e-05
-2.68841e-05
5.65515e-05
-2.11772e-05
4.44965e-05
-1.19836e-05
2.73248e-05
1.37315e-06
4.47409e-06
1.96907e-05
-2.45278e-05
4.39238e-05
-5.98951e-05
7.5213e-05
-0.000101219
0.000114824
-0.000146539
0.000163704
-0.000190603
-0.000223414
0.000221625
-1.08988e-06
8.38074e-06
-3.74952e-06
2.2957e-05
-7.48498e-06
3.59641e-05
-1.18183e-05
4.72405e-05
-1.62863e-05
5.65734e-05
-2.04375e-05
6.36939e-05
-2.38269e-05
6.82685e-05
-2.60085e-05
6.99005e-05
-2.65258e-05
6.81311e-05
-2.49008e-05
6.24442e-05
-2.06204e-05
5.22711e-05
-1.31214e-05
3.69975e-05
-1.77238e-06
1.59758e-05
1.41489e-05
-1.14472e-05
3.54858e-05
-4.58646e-05
6.32418e-05
-8.76511e-05
9.86271e-05
-0.000136604
0.000143043
-0.000190955
0.000197675
-0.000245234
-0.000288272
0.000262533
-1.06138e-06
9.44212e-06
-3.62514e-06
2.55207e-05
-7.18399e-06
3.9523e-05
-1.12445e-05
5.13009e-05
-1.5325e-05
6.0654e-05
-1.89525e-05
6.73213e-05
-2.16561e-05
7.09722e-05
-2.29592e-05
7.12036e-05
-2.23696e-05
6.75415e-05
-1.93679e-05
5.94424e-05
-1.33944e-05
4.62976e-05
-3.8355e-06
2.74386e-05
9.99289e-06
2.14743e-06
2.88643e-05
-3.03187e-05
5.36681e-05
-7.06685e-05
8.54485e-05
-0.000119431
0.000125462
-0.000176618
0.000175212
-0.000240705
0.000236121
-0.000306143
-0.00036057
0.00030842
-1.0261e-06
1.04682e-05
-3.4751e-06
2.79697e-05
-6.82612e-06
4.2874e-05
-1.05691e-05
5.50439e-05
-1.42024e-05
6.42872e-05
-1.72285e-05
7.03474e-05
-1.91473e-05
7.2891e-05
-1.94472e-05
7.15035e-05
-1.75947e-05
6.5689e-05
-1.30227e-05
5.48705e-05
-5.11807e-06
3.8393e-05
6.79152e-06
1.5529e-05
2.34503e-05
-1.45113e-05
4.5689e-05
-5.25574e-05
7.44445e-05
-9.9424e-05
0.000110793
-0.000155779
0.000156009
-0.000221835
0.000211645
-0.000296341
0.000279345
-0.000373844
-0.000440684
0.000359459
-9.83649e-07
1.14519e-05
-3.2978e-06
3.02839e-05
-6.40762e-06
4.59838e-05
-9.78528e-06
5.84216e-05
-1.2907e-05
6.74089e-05
-1.5248e-05
7.26885e-05
-1.62754e-05
7.39183e-05
-1.54379e-05
7.0666e-05
-1.21554e-05
6.24064e-05
-5.80654e-06
4.85216e-05
4.28277e-06
2.83037e-05
1.88509e-05
9.60877e-07
3.87099e-05
-3.43703e-05
6.47538e-05
-7.86013e-05
9.79685e-05
-0.000132639
0.000139452
-0.000197263
0.000190471
-0.000272853
0.000252551
-0.000358421
0.000327532
-0.000448825
-0.000528796
0.000415644
-9.3378e-07
1.23856e-05
-3.09208e-06
3.24422e-05
-5.92559e-06
4.88173e-05
-8.88736e-06
6.13834e-05
-1.14293e-05
6.99508e-05
-1.29967e-05
7.42559e-05
-1.30197e-05
7.39413e-05
-1.0903e-05
6.85493e-05
-6.01416e-06
5.75176e-05
2.32822e-06
4.01792e-05
1.4866e-05
1.57658e-05
3.24108e-05
-1.65839e-05
5.58493e-05
-5.78088e-05
8.61441e-05
-0.000108896
0.000124331
-0.000170826
0.000171524
-0.000244456
0.000228946
-0.000330276
0.000298019
-0.000427493
0.000380728
-0.000531534
-0.000624831
0.000476763
-8.76373e-07
1.3262e-05
-2.85722e-06
3.4423e-05
-5.37803e-06
5.13381e-05
-7.87124e-06
6.38766e-05
-9.76225e-06
7.18418e-05
-1.04632e-05
7.49569e-05
-9.36385e-06
7.2842e-05
-5.82012e-06
6.50056e-05
8.57575e-07
5.08399e-05
1.14165e-05
2.96203e-05
2.66722e-05
5.10214e-07
4.75149e-05
-3.74267e-05
7.49113e-05
-8.52052e-05
0.000109896
-0.000143881
0.000153557
-0.000214487
0.000207014
-0.000297913
0.000271422
-0.000394684
0.000348009
-0.00050408
0.000438835
-0.00062236
-0.000728383
0.000542388
-8.11447e-07
1.40735e-05
-2.59295e-06
3.62045e-05
-4.76387e-06
5.3509e-05
-6.73436e-06
6.58471e-05
-7.90098e-06
7.30085e-05
-7.63979e-06
7.46957e-05
-5.29629e-06
7.04985e-05
-1.73726e-07
5.9883e-05
8.47932e-06
4.21869e-05
2.14806e-05
1.6619e-05
3.97237e-05
-1.77328e-05
6.41815e-05
-6.18845e-05
9.59031e-05
-0.000116927
0.000135997
-0.000183975
0.0001856
-0.00026409
0.000245833
-0.000358146
0.00031776
-0.000466611
0.000402345
-0.000588665
0.000501613
-0.000721628
-0.000838666
0.000611896
-7.39149e-07
1.48126e-05
-2.29944e-06
3.77648e-05
-4.08289e-06
5.52925e-05
-5.4756e-06
6.72398e-05
-5.84286e-06
7.33757e-05
-4.52169e-06
7.33746e-05
-8.10028e-07
6.67868e-05
6.04542e-06
5.30276e-05
1.68616e-05
3.13706e-05
3.25304e-05
9.50216e-07
5.40256e-05
-3.9228e-05
8.24042e-05
-9.02632e-05
0.000118797
-0.00015332
0.000164383
-0.000229561
0.000220347
-0.000320053
0.000287802
-0.000425601
0.000367708
-0.000546517
0.000460722
-0.00068168
0.000568652
-0.000829558
-0.000954591
0.000684577
-6.59735e-07
1.54723e-05
-1.97722e-06
3.90823e-05
-3.33568e-06
5.6651e-05
-4.09516e-06
6.79993e-05
-3.58733e-06
7.28679e-05
-1.10728e-06
7.08945e-05
4.0977e-06
6.15818e-05
1.28406e-05
4.42846e-05
2.60068e-05
1.82044e-05
4.45639e-05
-1.76069e-05
6.95666e-05
-6.42307e-05
0.000102154
-0.00012285
0.000143533
-0.000194699
0.000194947
-0.000280975
0.000257619
-0.000382724
0.000332656
-0.000500639
0.000420918
-0.000634779
0.000522766
-0.000783528
0.000639314
-0.000946105
-0.00107517
0.000759895
-5.73551e-07
1.60459e-05
-1.62714e-06
4.01359e-05
-2.52342e-06
5.75472e-05
-2.59435e-06
6.80702e-05
-1.13552e-06
7.1409e-05
2.60253e-06
6.71565e-05
9.42594e-06
5.47584e-05
2.02099e-05
3.35007e-05
3.59097e-05
2.5046e-06
5.75689e-05
-3.92661e-05
8.63207e-05
-9.29824e-05
0.00012338
-0.000159909
0.000170019
-0.000241338
0.000227533
-0.000338489
0.00029717
-0.000452361
0.000380037
-0.000583505
0.000476963
-0.000731705
0.000588199
-0.000894764
0.000713127
-0.00107103
-0.00119996
0.00083791
-4.80996e-07
1.65269e-05
-1.25024e-06
4.09051e-05
-1.64778e-06
5.79448e-05
-9.75317e-07
6.73977e-05
1.51005e-06
6.89237e-05
6.6048e-06
6.20617e-05
1.51708e-05
4.61924e-05
2.81469e-05
2.05246e-05
4.65589e-05
-1.59074e-05
7.15242e-05
-6.42315e-05
0.000104249
-0.000125707
0.000146012
-0.000201673
0.000198138
-0.000293464
0.000261945
-0.000402296
0.000338683
-0.000529099
0.000429449
-0.000674271
0.000535146
-0.000837402
0.00065648
-0.0010161
0.000791692
-0.00120625
-0.00132807
0.000919806
-3.82594e-07
1.69095e-05
-8.47843e-07
4.13704e-05
-7.10924e-07
5.78079e-05
7.59071e-07
6.59277e-05
4.3458e-06
6.53369e-05
1.0895e-05
5.55125e-05
2.13258e-05
3.57616e-05
3.66419e-05
5.20856e-06
5.7938e-05
-3.72036e-05
8.64014e-05
-9.26948e-05
0.000123302
-0.000162607
0.000169968
-0.000248339
0.000227749
-0.000351245
0.000297953
-0.000472501
0.000381782
-0.000612927
0.000480263
-0.000772752
0.000594275
-0.000951415
0.00072492
-0.00114674
0.000874696
-0.00135602
-0.00153505
0.00108168
-2.78566e-07
1.71881e-05
-4.20813e-07
4.15126e-05
2.85593e-07
5.71015e-05
2.60637e-06
6.3607e-05
7.36827e-06
6.0575e-05
1.54681e-05
4.74127e-05
2.78837e-05
2.3346e-05
4.56827e-05
-1.25905e-05
7.00265e-05
-6.15474e-05
0.000102165
-0.000124833
0.00014342
-0.000203862
0.000195148
-0.000300068
0.000258691
-0.000414788
0.0003353
-0.00054911
0.000426058
-0.000703686
0.000531814
-0.000878508
0.000653201
-0.0010728
0.000791208
-0.00128475
0.00094679
-0.0015116
-0.00172537
0.00113711
-1.69364e-07
1.73574e-05
3.02524e-08
4.1313e-05
1.33972e-06
5.5792e-05
4.56364e-06
6.0383e-05
1.05734e-05
5.45652e-05
2.03185e-05
3.76677e-05
3.48357e-05
8.8288e-06
5.52555e-05
-3.30103e-05
8.28011e-05
-8.9093e-05
0.000118776
-0.000160808
0.000164536
-0.000249622
0.000221442
-0.000356974
0.000290789
-0.000484135
0.000373718
-0.000632038
0.000471113
-0.000801081
0.000583528
-0.000990922
0.000711134
-0.00120041
0.00085418
-0.0014278
0.00101192
-0.00166934
-0.00190587
0.00119242
-5.54135e-08
1.74128e-05
5.02774e-07
4.07548e-05
2.44983e-06
5.38449e-05
6.62862e-06
5.62042e-05
1.39579e-05
4.72359e-05
2.5441e-05
2.61846e-05
4.21733e-05
-7.90354e-06
6.53455e-05
-5.61824e-05
9.62358e-05
-0.000119983
0.000136189
-0.000200762
0.000186576
-0.000300009
0.00024873
-0.000419128
0.000323857
-0.000559262
0.000412926
-0.000721107
0.000516551
-0.000904706
0.00063489
-0.00110926
0.000767544
-0.00133306
0.00091387
-0.00157412
0.00107201
-0.00182748
-0.00207866
0.0012448
6.32279e-08
1.73496e-05
9.98014e-07
3.982e-05
3.61512e-06
5.12278e-05
8.79971e-06
5.10197e-05
1.75191e-05
3.85165e-05
3.08309e-05
1.28728e-05
4.98881e-05
-2.69607e-05
7.5937e-05
-8.22313e-05
0.000110303
-0.000154349
0.000154356
-0.000244815
0.000209458
-0.000355112
0.000276879
-0.000486549
0.00035769
-0.000640073
0.00045263
-0.000816047
0.000561971
-0.00101405
0.000685406
-0.0012327
0.000821928
-0.00146958
0.000970031
-0.00172222
0.00112706
-0.00198451
-0.00224463
0.00129302
1.86434e-07
1.71632e-05
1.51508e-06
3.84914e-05
4.83523e-06
4.79077e-05
1.10762e-05
4.47787e-05
2.12554e-05
2.83373e-05
3.64846e-05
-2.35635e-06
5.7972e-05
-4.84481e-05
8.70138e-05
-0.000111273
0.00012497
-0.000192305
0.00017322
-0.000293065
0.000233088
-0.000414979
0.000305742
-0.000559203
0.000392067
-0.000726397
0.000492514
-0.000916493
0.000606955
-0.00112849
0.000734575
-0.00136032
0.000873762
-0.00160877
0.00102224
-0.00187071
0.00117681
-0.00213907
-0.00240387
0.00133605
3.14285e-07
1.68489e-05
2.05432e-06
3.67513e-05
6.11054e-06
4.38514e-05
1.34584e-05
3.74309e-05
2.51661e-05
1.66296e-05
4.2399e-05
-1.95893e-05
6.6417e-05
-7.24661e-05
9.85585e-05
-0.000143415
0.000140205
-0.000233952
0.000192721
-0.000345581
0.000257363
-0.000479621
0.000335155
-0.000636995
0.000426744
-0.000817987
0.000532241
-0.00102199
0.000651071
-0.00124732
0.000781889
-0.00149113
0.000922516
-0.0017494
0.00107005
-0.00201824
0.00122095
-0.00228997
-0.00255606
0.00137314
4.47029e-07
1.64019e-05
2.61633e-06
3.4582e-05
7.44204e-06
3.90257e-05
1.59474e-05
2.89255e-05
2.92516e-05
3.32535e-06
4.8572e-05
-3.89097e-05
7.5215e-05
-9.91092e-05
0.000110552
-0.000178751
0.000155968
-0.000279369
0.000212789
-0.000402402
0.000282165
-0.000548997
0.000364935
-0.000719765
0.000461457
-0.000914509
0.000571452
-0.00113199
0.000693871
-0.00136974
0.000826839
-0.0016241
0.000967675
-0.00189023
0.00111301
-0.00216358
0.00125915
-0.00243611
-0.00270072
0.00140381
5.85068e-07
1.58168e-05
3.20221e-06
3.19649e-05
8.83155e-06
3.33964e-05
1.8545e-05
1.92121e-05
3.35129e-05
-1.16426e-05
5.50014e-05
-6.03981e-05
8.4357e-05
-0.000128465
0.000122971
-0.000217365
0.000172213
-0.000328611
0.000233341
-0.000463529
0.000307363
-0.000623019
0.00039488
-0.000807283
0.00049592
-0.00101555
0.000609773
-0.00124584
0.000734901
-0.00149487
0.000868931
-0.00175813
0.00100877
-0.00203007
0.00115074
-0.00230555
0.00129118
-0.00257655
-0.00283737
0.00142783
7.28898e-07
1.50879e-05
3.81335e-06
2.88804e-05
1.02812e-05
2.69286e-05
2.12538e-05
8.23945e-06
3.79513e-05
-2.834e-05
6.16847e-05
-8.41315e-05
9.38318e-05
-0.000160612
0.000135789
-0.000259322
0.000188888
-0.000381711
0.000254285
-0.000528926
0.000332804
-0.000701538
0.000424768
-0.000899247
0.000529825
-0.00112061
0.000646815
-0.00136283
0.000773713
-0.00162176
0.000907703
-0.00189212
0.00104538
-0.00216774
0.00118293
-0.00244311
0.00131689
-0.00271051
-0.00296565
0.00144517
8.79174e-07
1.42087e-05
4.45156e-06
2.53081e-05
1.17937e-05
1.95865e-05
2.40767e-05
-4.0436e-06
4.25681e-05
-4.68315e-05
6.86181e-05
-0.000110181
0.000103625
-0.000195619
0.000148973
-0.000304669
0.00020593
-0.000438668
0.000275513
-0.00059851
0.000358323
-0.000784348
0.000454358
-0.000995282
0.000562854
-0.0012291
0.000682188
-0.00148216
0.000809879
-0.00174946
0.000942742
-0.00202499
0.00107717
-0.00230217
0.0012094
-0.00257534
0.00133626
-0.00283737
-0.00308535
0.00145597
1.03663e-06
1.31721e-05
5.11873e-06
2.1226e-05
1.3372e-05
1.13332e-05
2.70164e-05
-1.7688e-05
4.73637e-05
-6.71787e-05
7.5796e-05
-0.000138614
0.000113719
-0.000233542
0.000162484
-0.000353433
0.000223263
-0.000499448
0.000296903
-0.000672149
0.000383733
-0.000871178
0.00048339
-0.00109494
0.000594677
-0.00134039
0.000715511
-0.00160299
0.000843006
-0.00187695
0.000973701
-0.00215568
0.00110392
-0.00243239
0.00123008
-0.0027015
0.00134941
-0.0029567
-0.00319645
0.00146051
1.20201e-06
1.19701e-05
5.81693e-06
1.66111e-05
1.50191e-05
2.13102e-06
3.00754e-05
-3.27443e-05
5.23371e-05
-8.94404e-05
8.32092e-05
-0.000169486
0.00012409
-0.000274423
0.000176272
-0.000405615
0.000240804
-0.00056398
0.000318316
-0.000749662
0.000408833
-0.000961694
0.000511597
-0.0011977
0.000624966
-0.00145376
0.000746425
-0.00172445
0.000872749
-0.00200328
0.00100031
-0.00228324
0.00112549
-0.00255757
0.001245
-0.00282101
0.00135657
-0.00306827
-0.00329907
0.00145919
1.37602e-06
1.0594e-05
6.54792e-06
1.14392e-05
1.67373e-05
-8.05831e-06
3.32547e-05
-4.92618e-05
5.74851e-05
-0.000113671
9.0845e-05
-0.000202846
0.000134706
-0.000318284
0.000190279
-0.000461188
0.000258451
-0.000632152
0.000339602
-0.000830813
0.00043341
-0.0010555
0.000538703
-0.001303
0.000653401
-0.00156845
0.0007746
-0.00184565
0.000898822
-0.0021275
0.00102238
-0.0024068
0.00114184
-0.00267703
0.00125432
-0.00293349
0.00135805
-0.003172
-0.00339349
0.00145248
1.55931e-06
9.03473e-06
7.31322e-06
5.68525e-06
1.85281e-05
-1.92732e-05
3.65542e-05
-6.72878e-05
6.28018e-05
-0.000139918
9.86858e-05
-0.00023873
0.000145531
-0.00036513
0.000204436
-0.000520092
0.000276093
-0.000703809
0.000360593
-0.000915313
0.00045724
-0.00115215
0.000564435
-0.00141019
0.000679682
-0.0016837
0.000799753
-0.00196572
0.00092101
-0.00224875
0.00103983
-0.00252562
0.00115305
-0.00279026
0.00125826
-0.0030387
0.00135425
-0.00326799
-0.0034801
0.00144086
1.75244e-06
7.28229e-06
8.11396e-06
-6.76273e-07
2.03923e-05
-3.15516e-05
3.99715e-05
-8.6867e-05
6.82778e-05
-0.000168225
0.000106709
-0.00027716
0.000156519
-0.00041494
0.000218665
-0.000582238
0.000293607
-0.000778751
0.000381115
-0.00100282
0.000480095
-0.00125113
0.000588528
-0.00151862
0.000703539
-0.00179871
0.000821651
-0.00208384
0.00093917
-0.00236627
0.00105264
-0.00263909
0.00115927
-0.00289688
0.00125715
-0.00313658
0.0013456
-0.00335644
-0.00355937
0.00142486
1.95584e-06
5.32645e-06
8.95077e-06
-7.6712e-06
2.23293e-05
-4.49302e-05
4.35023e-05
-0.00010804
7.38999e-05
-0.000198622
0.000114884
-0.000318145
0.000167616
-0.000467672
0.000232875
-0.000647497
0.00031086
-0.000856736
0.000400985
-0.00109295
0.000501752
-0.0013519
0.000610735
-0.00162761
0.000724738
-0.00191272
0.00084012
-0.00219922
0.000953234
-0.00247939
0.00106089
-0.00274674
0.00116071
-0.00299671
0.00125134
-0.00322721
0.00133257
-0.00343767
-0.0036318
0.00140501
2.16981e-06
3.15664e-06
9.82373e-06
-1.53251e-05
2.43373e-05
-5.94437e-05
4.71393e-05
-0.000130842
7.96507e-05
-0.000231134
0.000123178
-0.000361672
0.00017876
-0.000523254
0.00024697
-0.000715708
0.000327709
-0.000937474
0.000420018
-0.00118525
0.000521992
-0.00145387
0.000630833
-0.00173645
0.000743088
-0.00202497
0.000855046
-0.00231118
0.000963206
-0.00258755
0.00106471
-0.00284825
0.00115767
-0.00308967
0.00124123
-0.00331076
0.00131563
-0.00351208
-0.00369795
0.00138178
2.39448e-06
7.62167e-07
1.07323e-05
-2.36629e-05
2.64128e-05
-7.51243e-05
5.08728e-05
-0.000155302
8.55085e-05
-0.00026577
0.000131549
-0.000407713
0.000189882
-0.000581586
0.000260844
-0.000786669
0.000344009
-0.00102064
0.000438033
-0.00127928
0.000540614
-0.00155645
0.000648629
-0.00184446
0.000758447
-0.00213479
0.000866379
-0.00241911
0.000969156
-0.00269032
0.00106432
-0.00294342