/*--------------------------------*- C++ -*----------------------------------*\
  =========                 |
  \\      /  F ield         | OpenFOAM: The Open Source CFD Toolbox
   \\    /   O peration     | Website:  https://openfoam.org
    \\  /    A nd           | Version:  7
     \\/     M anipulation  |
\*---------------------------------------------------------------------------*/
FoamFile
{
    version     2.0;
    format      ascii;
    class       volVectorField;
    location    "80";
    object      U;
}
// * * * * * * * * * * * * * * * * * * * * * * * * * * * * * * * * * * * * * //

dimensions      [0 1 -1 0 0 0 0];

internalField   nonuniform List<vector> 
34000
(
(-0.000151865 -0.0144404 -9.16578e-22)
(-0.00162192 -0.0359853 -4.93054e-21)
(-0.0049631 -0.0516855 6.09825e-22)
(-0.00953585 -0.0623387 -1.05214e-21)
(-0.0150948 -0.0687516 1.60875e-21)
(-0.0214161 -0.0717121 -1.18533e-20)
(-0.0282931 -0.0719597 2.03173e-21)
(-0.0355558 -0.0701621 -8.01954e-21)
(-0.0430667 -0.0668946 -1.73081e-20)
(-0.0507192 -0.0626263 1.48107e-20)
(-0.0584356 -0.0577135 4.40754e-21)
(-0.0661648 -0.0524018 -5.29582e-21)
(-0.0738801 -0.0468335 6.52106e-21)
(-0.0815769 -0.041062 8.96156e-21)
(-0.0892712 -0.0350671 -5.67689e-21)
(-0.0969967 -0.0287723 -7.65574e-21)
(-0.104803 -0.0220576 -1.84069e-20)
(-0.112756 -0.0147711 -1.42999e-21)
(-0.120913 -0.00674064 -3.13568e-21)
(-0.12933 0.00226411 -6.123e-21)
(0.000104289 -0.0138343 -4.43425e-21)
(-0.00101419 -0.0343979 3.72875e-21)
(-0.00414327 -0.0493123 -4.35712e-21)
(-0.00860296 -0.0593467 -9.80941e-21)
(-0.0141209 -0.0652876 8.03927e-21)
(-0.0204503 -0.067902 4.90731e-20)
(-0.0273649 -0.0679088 -3.02545e-20)
(-0.0346792 -0.065956 5.2435e-21)
(-0.042244 -0.0626001 2.47857e-20)
(-0.0499438 -0.0582931 -7.75214e-23)
(-0.0576948 -0.0533759 1.46302e-20)
(-0.0654422 -0.0480799 -1.94445e-20)
(-0.0731569 -0.042535 2.04016e-20)
(-0.0808327 -0.036783 -1.77328e-20)
(-0.0884843 -0.0307941 -6.81348e-21)
(-0.0961441 -0.0244826 3.46929e-20)
(-0.103859 -0.0177214 -1.06523e-20)
(-0.111694 -0.0103544 1.70608e-21)
(-0.119694 -0.00220906 -2.03642e-20)
(-0.127888 0.00694578 -2.07038e-21)
(0.000337399 -0.0132092 -3.41042e-20)
(-0.000461659 -0.0327691 4.45257e-21)
(-0.00339595 -0.0468877 6.85916e-21)
(-0.00774893 -0.0563029 3.00459e-20)
(-0.013223 -0.061778 -3.5021e-20)
(-0.0195494 -0.0640571 -5.46742e-20)
(-0.0264835 -0.0638366 4.97971e-20)
(-0.033825 -0.0617432 -1.35475e-20)
(-0.041413 -0.058314 -6.99184e-21)
(-0.0491236 -0.0539829 -3.46347e-20)
(-0.0568667 -0.0490752 9.29824e-21)
(-0.0645834 -0.0438083 3.43423e-20)
(-0.0722416 -0.0383 -7.30641e-21)
(-0.0798334 -0.0325812 2.81198e-20)
(-0.0873717 -0.0266126 -2.30792e-20)
(-0.0948867 -0.0203004 -7.35145e-21)
(-0.102423 -0.0135115 5.53688e-20)
(-0.110044 -0.00608577 -3.4541e-21)
(-0.117782 0.00214857 8.6432e-20)
(-0.125633 0.0114226 -1.99504e-20)
(0.000546629 -0.0125686 5.55851e-20)
(3.34516e-05 -0.0311068 -2.47722e-20)
(-0.0027247 -0.0444229 -1.73523e-20)
(-0.00697863 -0.0532207 -1.32828e-20)
(-0.0124071 -0.0582381 2.45848e-20)
(-0.0187209 -0.0601939 -4.37652e-21)
(-0.0256579 -0.0597607 -8.25765e-20)
(-0.0330036 -0.0575424 -8.65945e-21)
(-0.0405859 -0.0540557 -1.81958e-20)
(-0.0482724 -0.0497163 -2.53999e-21)
(-0.0559671 -0.0448334 -3.19963e-20)
(-0.0636063 -0.0396106 3.59616e-20)
(-0.0711549 -0.0341538 -5.3509e-20)
(-0.0786026 -0.0284837 -1.62378e-21)
(-0.0859602 -0.0225519 1.46833e-20)
(-0.0932554 -0.0162573 -1.12907e-19)
(-0.10053 -0.00946103 -9.08557e-20)
(-0.107847 -0.00200042 4.91213e-20)
(-0.115224 0.00629582 -6.68546e-20)
(-0.122621 0.0156575 2.20799e-21)
(0.000731315 -0.0119156 -7.47622e-21)
(0.00046936 -0.029419 9.74943e-20)
(-0.00213255 -0.0419293 4.55684e-20)
(-0.00629636 -0.0501138 -3.00079e-21)
(-0.0116789 -0.0546829 1.24174e-20)
(-0.0179718 -0.0563288 2.18924e-21)
(-0.0248964 -0.0556982 4.20475e-20)
(-0.032225 -0.0533717 4.95985e-20)
(-0.0397746 -0.0498443 2.10265e-20)
(-0.0474045 -0.0455133 7.50344e-20)
(-0.0550123 -0.0406718 -8.59673e-20)
(-0.0625298 -0.0355096 -1.83775e-20)
(-0.0699185 -0.030121 3.83974e-20)
(-0.0771652 -0.0245168 -6.62118e-20)
(-0.0842782 -0.0186403 3.0199e-20)
(-0.0912828 -0.0123833 7.0796e-20)
(-0.0982181 -0.00560201 1.78881e-20)
(-0.105146 0.00186843 2.3428e-20)
(-0.112071 0.0101985 -3.82063e-20)
(-0.118911 0.0196164 4.39757e-21)
(0.000890982 -0.0112533 -3.56291e-20)
(0.000844659 -0.0277131 2.2424e-20)
(-0.00162213 -0.0394171 -3.75159e-20)
(-0.00570602 -0.0469944 1.06933e-20)
(-0.0110437 -0.0511263 3.02199e-20)
(-0.0173088 -0.0524766 1.40863e-20)
(-0.0242076 -0.0516651 2.59283e-20)
(-0.0314995 -0.0492477 -1.85326e-20)
(-0.0389912 -0.0456976 -1.13207e-19)
(-0.0465339 -0.041393 -1.00904e-19)
(-0.054019 -0.0366107 -6.52239e-20)
(-0.0613733 -0.0315271 2.49799e-20)
(-0.0685547 -0.026225 -1.43276e-20)
(-0.0755469 -0.0207059 1.08736e-19)
(-0.0823555 -0.0149048 -3.91371e-20)
(-0.0890031 -0.00870734 3.1619e-20)
(-0.0955259 -0.00196469 4.66455e-20)
(-0.101986 0.00548944 -2.64752e-20)
(-0.108376 0.0138249 2.23948e-19)
(-0.114567 0.0232681 -8.22526e-20)
(0.0010253 -0.0105844 4.30231e-20)
(0.00115827 -0.0259957 -5.44061e-20)
(-0.00119563 -0.0368958 -8.2991e-20)
(-0.0052111 -0.043874 -2.21627e-20)
(-0.0105062 -0.0475812 9.63566e-21)
(-0.0167384 -0.0486513 1.48756e-20)
(-0.0235995 -0.0476762 4.97456e-20)
(-0.0308369 -0.0451863 1.08186e-20)
(-0.0382477 -0.0416324 4.35063e-21)
(-0.045675 -0.0373732 1.80875e-19)
(-0.0530039 -0.0326693 1.35917e-19)
(-0.0601564 -0.0276836 -8.09422e-20)
(-0.0670863 -0.0224881 -1.20319e-20)
(-0.073774 -0.0170748 -3.24651e-20)
(-0.0802224 -0.0113713 3.18365e-20)
(-0.0864512 -0.00525663 -1.67383e-19)
(-0.0924941 0.00142236 -3.42886e-20)
(-0.0984141 0.0088333 -5.24695e-20)
(-0.104193 0.0171455 -1.26465e-19)
(-0.109653 0.0265844 6.8345e-20)
(0.00113407 -0.0099115 6.9775e-21)
(0.0014094 -0.024273 -2.5984e-20)
(-0.000854891 -0.0343739 7.46393e-20)
(-0.00481463 -0.0407632 -4.58754e-20)
(-0.0100711 -0.0440594 -2.54662e-20)
(-0.0162665 -0.0448658 4.04322e-20)
(-0.0230796 -0.0437453 -6.96016e-20)
(-0.0302467 -0.0412021 -9.85531e-21)
(-0.0375555 -0.0376641 1.31868e-19)
(-0.0448415 -0.0334704 -8.44581e-20)
(-0.0519835 -0.0288654 -3.48138e-20)
(-0.0588986 -0.0239986 4.15552e-20)
(-0.0655361 -0.018931 -1.0954e-20)
(-0.0718731 -0.0136461 -5.76105e-21)
(-0.0779095 -0.00806374 4.5871e-20)
(-0.0836624 -0.00205687 -1.20097e-19)
(-0.0891632 0.00453235 4.33333e-20)
(-0.0944771 0.0118728 -3.1872e-20)
(-0.099577 0.0201336 -7.10807e-20)
(-0.104233 0.0295401 2.61145e-20)
(0.0012172 -0.00923667 -1.98835e-20)
(0.00159751 -0.0225503 1.42893e-19)
(-0.000601404 -0.0318594 -3.18816e-20)
(-0.00451929 -0.0376712 1.9555e-20)
(-0.00974213 -0.0405714 1.41566e-19)
(-0.0158985 -0.0411315 -9.63236e-20)
(-0.0226551 -0.0398846 -4.70972e-20)
(-0.0297379 -0.0373083 -8.22926e-20)
(-0.0369257 -0.0338069 -9.0375e-20)
(-0.0440468 -0.0296999 -5.92577e-20)
(-0.0509738 -0.0252153 -8.00511e-20)
(-0.0576186 -0.0204896 1.46589e-19)
(-0.0639262 -0.0155732 -1.67334e-20)
(-0.0698701 -0.0104407 -3.3669e-20)
(-0.075447 -0.00500474 -1.76708e-19)
(-0.0806716 0.00086807 9.98419e-20)
(-0.0855735 0.00734046 2.56725e-20)
(-0.0902211 0.0145828 6.11747e-20)
(-0.0945813 0.0227648 4.09647e-20)
(-0.0983708 0.032113 -1.07388e-19)
(0.00127466 -0.00856181 -6.09067e-20)
(0.00172226 -0.0208322 8.20095e-20)
(-0.000436366 -0.0293588 4.65275e-20)
(-0.00432734 -0.0346063 2.11739e-20)
(-0.00952294 -0.0371267 1.71774e-20)
(-0.0156394 -0.0374588 -6.35848e-20)
(-0.0223325 -0.0361054 1.38541e-19)
(-0.0293186 -0.0335166 8.07419e-21)
(-0.0363685 -0.0300734 1.28235e-19)
(-0.0433033 -0.0260751 -7.43665e-20)
(-0.0499897 -0.0217338 1.21131e-19)
(-0.0563344 -0.0171727 -1.19195e-19)
(-0.0622779 -0.012432 -1.07863e-19)
(-0.0677898 -0.00747758 9.1586e-20)
(-0.0728638 -0.0022148 3.24077e-19)
(-0.0775123 0.00349631 -1.77532e-19)
(-0.0817638 0.00982391 1.46181e-19)
(-0.0856909 0.0169405 3.2909e-20)
(-0.0892579 0.0250173 -1.24368e-19)
(-0.0921284 0.0342843 1.02861e-19)
(0.00130647 -0.00788851 1.09758e-19)
(0.00178345 -0.0191229 -6.37615e-20)
(-0.000360696 -0.026878 2.08299e-20)
(-0.00424063 -0.0315758 8.09264e-20)
(-0.00941643 -0.0337334 -7.559e-20)
(-0.0154933 -0.0338566 1.47506e-19)
(-0.0221172 -0.0324171 -2.70337e-20)
(-0.028996 -0.0298374 3.50634e-21)
(-0.0358928 -0.0264746 -1.76531e-19)
(-0.0426221 -0.0226081 1.12082e-19)
(-0.0490448 -0.0184337 2.53169e-20)
(-0.0550623 -0.014062 -3.26845e-20)
(-0.0606107 -0.00952282 4.21875e-20)
(-0.0656554 -0.00477362 -1.66865e-19)
(-0.0701871 0.000287728 -9.36733e-20)
(-0.0742161 0.00580818 1.94905e-19)
(-0.0777704 0.0119622 -1.08261e-19)
(-0.0809283 0.0189254 -1.53348e-19)
(-0.0836552 0.026872 2.83714e-19)
(-0.0855626 0.0360381 -1.47541e-21)
(0.00131269 -0.00721804 9.0674e-20)
(0.00178099 -0.0174256 -1.15283e-19)
(-0.000375056 -0.024422 -1.2106e-19)
(-0.00426059 -0.0285857 -5.80422e-20)
(-0.00942494 -0.0303986 -8.39875e-20)
(-0.0154636 -0.0303327 -4.78702e-20)
(-0.0220139 -0.0288282 -2.01204e-19)
(-0.0287759 -0.0262796 2.50988e-20)
(-0.035506 -0.02302 -8.54952e-20)
(-0.0420125 -0.019309 3.0064e-19)
(-0.0481505 -0.0153261 -1.74921e-19)
(-0.0538165 -0.0111695 1.08497e-19)
(-0.0589417 -0.00685887 -3.31557e-20)
(-0.0634874 -0.00234332 1.80792e-19)
(-0.0674411 0.00248696 1.45725e-20)
(-0.0708113 0.00778652 -1.53484e-19)
(-0.0736261 0.0137373 -2.6639e-20)
(-0.0759709 0.0205198 7.67931e-21)
(-0.0778167 0.0283126 -1.33785e-20)
(-0.0787247 0.0373616 1.83125e-19)
(0.00129338 -0.00655144 -1.13297e-19)
(0.00171492 -0.0157431 -1.0861e-19)
(-0.00047985 -0.0219948 4.55326e-20)
(-0.0043882 -0.0256411 1.13913e-19)
(-0.0095501 -0.0271282 -7.9251e-21)
(-0.0155526 -0.0268935 -7.86743e-20)
(-0.0220258 -0.0253454 1.76475e-19)
(-0.0286628 -0.0228504 -1.95592e-20)
(-0.0352139 -0.0197173 2.1462e-19)
(-0.0414817 -0.0161858 -2.3982e-19)
(-0.0473161 -0.0124198 6.35875e-20)
(-0.0526083 -0.0085048 7.45349e-20)
(-0.0572849 -0.00445074 -2.37002e-21)
(-0.0613028 -0.000198451 -1.14709e-21)
(-0.0646462 0.00436981 -1.40751e-19)
(-0.0673218 0.00941698 1.99086e-20)
(-0.0693587 0.015134 1.86388e-19)
(-0.0708507 0.0217083 2.36875e-19)
(-0.0717793 0.0293255 -2.79904e-19)
(-0.0716575 0.0382455 -1.77957e-19)
(0.0012486 -0.00588949 4.66676e-20)
(0.00158532 -0.0140775 7.31053e-20)
(-0.000675221 -0.0195997 8.78504e-20)
(-0.0046239 -0.0227463 -1.50049e-19)
(-0.00979276 -0.0239268 1.57754e-19)
(-0.0157618 -0.0235441 1.50717e-19)
(-0.0221548 -0.0219743 -5.9515e-20)
(-0.0286592 -0.0195554 2.58091e-19)
(-0.0350199 -0.0165723 -2.62083e-19)
(-0.0410344 -0.0132449 1.15979e-19)
(-0.0465476 -0.0097212 1.18532e-19)
(-0.0514456 -0.00607486 -9.74215e-21)
(-0.0556503 -0.00230616 1.00686e-21)
(-0.0591141 0.00165229 1.57051e-20)
(-0.0618174 0.00592643 -1.08624e-19)
(-0.0637656 0.0106885 1.06812e-19)
(-0.0649891 0.0161403 -5.54122e-20)
(-0.0655917 0.0224792 -1.22923e-19)
(-0.0655708 0.0299004 1.56744e-19)
(-0.0643928 0.0386839 3.21375e-20)
(0.0011784 -0.00523279 -2.7155e-20)
(0.00139237 -0.0124306 3.40541e-20)
(-0.000961021 -0.0172396 -7.35335e-20)
(-0.0049676 -0.0199046 -1.0945e-19)
(-0.0101528 -0.0207985 -1.1355e-19)
(-0.0160911 -0.0202887 -1.02591e-19)
(-0.022401 -0.018719 1.66143e-19)
(-0.0287655 -0.0163989 -8.59061e-20)
(-0.0349248 -0.0135892 6.81611e-20)
(-0.0406719 -0.0104901 6.62315e-21)
(-0.0458472 -0.00723444 -1.82623e-20)
(-0.0503319 -0.00388396 4.51297e-20)
(-0.0540429 -0.000429764 -8.92266e-20)
(-0.0569278 0.00320363 4.75709e-20)
(-0.0589635 0.00715064 1.49322e-19)
(-0.0601536 0.0115938 -2.16244e-19)
(-0.06053 0.0167481 -1.37171e-19)
(-0.0602084 0.0228241 1.78605e-19)
(-0.059208 0.0300306 -1.04942e-19)
(-0.0569489 0.0386746 -1.55244e-19)
(0.00108279 -0.00458178 9.76779e-20)
(0.00113631 -0.0108037 -1.00776e-19)
(-0.00133678 -0.0149163 8.2534e-20)
(-0.00541852 -0.0171187 1.32166e-19)
(-0.0106292 -0.0177461 -2.41234e-20)
(-0.0165389 -0.0171303 -8.65002e-20)
(-0.0227626 -0.0155824 -1.64045e-19)
(-0.0289795 -0.0133835 -1.24842e-19)
(-0.0349262 -0.0107702 -2.49342e-19)
(-0.0403919 -0.00792343 2.46175e-20)
(-0.0452127 -0.00496101 -2.15225e-20)
(-0.0492652 -0.00193335 -1.76896e-19)
(-0.0524614 0.00117729 1.51237e-19)
(-0.0547439 0.00445419 1.85869e-19)
(-0.0560852 0.00804045 -9.02808e-21)
(-0.0564872 0.01213 1.12754e-19)
(-0.0559836 0.0169534 -5.66035e-20)
(-0.054703 0.0227388 8.30838e-21)
(-0.0526938 0.0297132 1.53284e-19)
(-0.0493262 0.0382193 3.62596e-19)
(0.000961807 -0.00393679 -4.31237e-20)
(0.000817515 -0.009198 -2.96443e-20)
(-0.00180164 -0.0126318 8.43657e-20)
(-0.00597516 -0.0143908 -1.17465e-19)
(-0.0112197 -0.0147719 -3.04034e-20)
(-0.0171023 -0.014071 1.82913e-19)
(-0.0232355 -0.0125663 -4.28434e-20)
(-0.0292962 -0.0105104 -1.24493e-19)
(-0.0350183 -0.0081158 2.03051e-19)
(-0.0401877 -0.00554454 -5.52386e-20)
(-0.0446368 -0.00289977 3.98814e-20)
(-0.0482378 -0.000221065 2.13069e-19)
(-0.0508977 0.00251756 -2.95644e-19)
(-0.0525537 0.00540686 -8.08695e-20)
(-0.0531737 0.00859864 -1.5605e-19)
(-0.0527569 0.0122993 3.15415e-19)
(-0.0513391 0.0167576 9.75668e-21)
(-0.0490632 0.0222245 1.68742e-19)
(-0.0460147 0.0289504 -6.37471e-20)
(-0.0415047 0.0373247 -3.39495e-19)
(0.00081547 -0.00329812 -9.81617e-20)
(0.000436486 -0.00761437 1.41591e-19)
(-0.00235429 -0.0103875 2.16853e-21)
(-0.00663518 -0.0117225 -1.1267e-21)
(-0.0119206 -0.0118775 1.48484e-19)
(-0.0177761 -0.0111121 1.0716e-19)
(-0.0238133 -0.00967143 -3.56883e-21)
(-0.0297076 -0.00777933 3.20235e-19)
(-0.0351912 -0.0056248 1.22577e-19)
(-0.0400477 -0.00335095 -2.2476e-19)
(-0.0441061 -0.00104686 1.09974e-20)
(-0.0472347 0.00125813 -9.05201e-21)
(-0.049335 0.00359762 3.0975e-19)
(-0.0503388 0.0060692 -3.44391e-19)
(-0.0502084 0.00883329 9.519e-20)
(-0.0489401 0.0121096 1.90828e-21)
(-0.0465706 0.0161682 -2.36727e-19)
(-0.0432586 0.0212888 -2.42722e-19)
(-0.039138 0.0277518 -3.0501e-20)
(-0.0334411 0.0360083 3.39319e-19)
(0.000643827 -0.00266606 3.13338e-20)
(-6.06891e-06 -0.00605381 -1.00515e-19)
(-0.0029929 -0.00818475 9.70793e-20)
(-0.00739525 -0.00911536 -1.45129e-19)
(-0.0127268 -0.00906432 1.79785e-19)
(-0.0185534 -0.00825446 -3.02609e-19)
(-0.0244866 -0.00689758 -7.42362e-20)
(-0.0302019 -0.00518907 -1.67543e-19)
(-0.0354307 -0.00329435 -7.88217e-20)
(-0.0399549 -0.00133808 1.40031e-19)
(-0.0436008 0.000604261 2.83713e-19)
(-0.0462327 0.00251289 -3.1623e-19)
(-0.047747 0.0044282 -1.17755e-19)
(-0.0480694 0.00645386 4.23999e-19)
(-0.047156 0.00875842 -1.51231e-19)
(-0.0449986 0.0115755 -2.16585e-19)
(-0.041634 0.0151996 2.7139e-19)
(-0.0372372 0.0199463 5.69935e-20)
(-0.0320072 0.0261388 5.19058e-20)
(-0.0250684 0.0343074 -2.16522e-19)
(0.00044697 -0.00204101 1.20801e-20)
(-0.00050918 -0.00451742 -5.19636e-20)
(-0.00371501 -0.0060251 1.68566e-19)
(-0.00825098 -0.00657091 -2.18239e-19)
(-0.0136318 -0.00633341 -1.8204e-19)
(-0.0194248 -0.00549828 1.15727e-19)
(-0.0252432 -0.00424392 3.17837e-19)
(-0.0307636 -0.00273719 -2.00381e-19)
(-0.0357176 -0.00112015 4.7897e-20)
(-0.0398863 0.000500621 -9.59221e-20)
(-0.0430935 0.00206275 -3.85009e-19)
(-0.0452 0.00355525 2.32624e-19)
(-0.0460969 0.00502438 1.84872e-19)
(-0.0457032 0.00657882 -3.27313e-19)
(-0.0439678 0.00839443 7.72596e-20)
(-0.0408768 0.0107188 3.00231e-19)
(-0.0364646 0.0138735 1.14424e-19)
(-0.0309192 0.0182182 4.03604e-20)
(-0.024528 0.0241323 -2.33736e-19)
(-0.0162995 0.0322846 -1.11536e-19)
(0.000225077 -0.00142343 -8.41635e-20)
(-0.00107154 -0.0030065 -1.54522e-19)
(-0.0045174 -0.00391021 -9.02744e-20)
(-0.00919677 -0.00409075 1.1941e-19)
(-0.014627 -0.00368586 -6.98647e-21)
(-0.0203785 -0.00284368 2.65524e-19)
(-0.0260677 -0.0017091 -2.56973e-20)
(-0.0313732 -0.000420466 3.0336e-20)
(-0.0360278 0.000903344 1.88724e-19)
(-0.0398124 0.0021735 2.38792e-19)
(-0.042549 0.0033402 -1.04594e-20)
(-0.0440949 0.00440051 -5.26381e-20)
(-0.0443357 0.00540552 -3.05482e-19)
(-0.0431835 0.00646762 2.27391e-19)
(-0.0405788 0.00776864 -2.01204e-20)
(-0.0364999 0.00956947 -1.337e-19)
(-0.0309761 0.0122204 -6.57109e-19)
(-0.0242 0.0161269 2.28624e-19)
(-0.0165354 0.0217087 1.24324e-20)
(-0.0070094 0.029958 -1.36545e-19)
(-2.15592e-05 -0.000814024 7.6902e-20)
(-0.00169143 -0.00152275 2.01235e-19)
(-0.00539606 -0.00184218 -1.53249e-19)
(-0.0102257 -0.0016768 -7.40312e-20)
(-0.015702 -0.0011229 6.23337e-20)
(-0.0214003 -0.000290737 -1.50771e-19)
(-0.0269412 0.000708493 -2.78614e-19)
(-0.0320067 0.00176491 1.64697e-19)
(-0.0363315 0.00278267 -1.94543e-20)
(-0.0396969 0.00369039 -3.76163e-19)
(-0.0419236 0.00445038 7.24798e-20)
(-0.0428653 0.00506703 4.00687e-20)
(-0.0424022 0.00559512 -6.89474e-20)
(-0.0404387 0.00614931 1.81935e-19)
(-0.0369058 0.00691563 3.50028e-19)
(-0.0317723 0.00816681 -2.24706e-19)
(-0.0250624 0.0102812 1.8281e-19)
(-0.0169844 0.0137112 4.27806e-20)
(-0.00789457 0.0189592 2.45694e-19)
(0.00307804 0.0273101 1.07092e-19)
(-0.000292484 -0.00021367 -8.40658e-20)
(-0.00236661 -6.82998e-05 -1.0493e-20)
(-0.00634601 0.000176395 2.16587e-19)
(-0.0113293 0.00066851 2.14637e-19)
(-0.0168445 0.00135382 -4.38219e-20)
(-0.0224731 0.0021603 -2.80271e-20)
(-0.0278414 0.00301052 2.79068e-19)
(-0.0326356 0.00382309 -2.16527e-19)
(-0.0365934 0.00452507 6.5381e-20)
(-0.0394966 0.00506234 2.71697e-19)
(-0.0411648 0.00540889 2.58832e-19)
(-0.0414483 0.0055758 9.92809e-20)
(-0.0402217 0.00562051 4.35574e-19)
(-0.0373808 0.00565827 -6.00151e-20)
(-0.0328462 0.00587718 -4.53651e-19)
(-0.0265751 0.00655968 2.2132e-19)
(-0.018583 0.00811217 -1.14991e-19)
(-0.0090934 0.0110456 -2.67544e-19)
(0.00151635 0.0159827 -1.86371e-19)
(0.0141571 0.0243892 -1.83448e-19)
(-0.000587042 0.000376477 5.33487e-20)
(-0.00309425 0.00135417 1.11749e-19)
(-0.00736122 0.00214229 -7.8616e-20)
(-0.0124978 0.00294215 -9.80414e-20)
(-0.01804 0.00374215 -1.00866e-19)
(-0.0235771 0.00450876 -2.75744e-20)
(-0.0287424 0.00519844 -2.86408e-19)
(-0.0332272 0.00575827 1.46999e-19)
(-0.0367723 0.00613816 -1.34987e-19)
(-0.0391608 0.00630112 -2.26881e-19)
(-0.0402112 0.00623264 7.68645e-21)
(-0.03977 0.00594994 -5.69841e-19)
(-0.0377059 0.00551218 -4.39355e-19)
(-0.0339056 0.00503355 1.37124e-19)
(-0.0282779 0.00470172 6.90584e-20)
(-0.0207665 0.00480575 -1.45708e-19)
(-0.0113737 0.00577834 5.57519e-19)
(-0.000332946 0.00819183 -8.59009e-20)
(0.0119327 0.0127949 2.30639e-19)
(0.0264552 0.0213286 2.00654e-19)
(-0.000904327 0.000954981 -7.33419e-20)
(-0.00387084 0.00274139 -2.43636e-19)
(-0.00843455 0.00405153 7.7088e-20)
(-0.0137196 0.00514034 4.1861e-21)
(-0.0192718 0.00603923 3.30774e-19)
(-0.0246898 0.0067534 -1.97171e-19)
(-0.0296148 0.00727325 1.08318e-19)
(-0.0337439 0.00757435 1.53262e-19)
(-0.0368216 0.00762951 -1.22186e-20)
(-0.0386321 0.00741887 9.45412e-20)
(-0.0389926 0.00693932 2.84637e-19)
(-0.0377457 0.00621399 5.93785e-19)
(-0.0347534 0.00530303 4.71331e-20)
(-0.0298926 0.00431805 -2.58758e-19)
(-0.0230593 0.00344354 4.72398e-20)
(-0.0141817 0.00297116 4.4691e-19)
(-0.00324505 0.00335598 -2.99277e-19)
(0.0095123 0.00523063 6.15341e-22)
(0.0236071 0.00947333 2.21128e-19)
(0.0402661 0.0182222 -1.37155e-19)
(-0.00124315 0.00152011 -6.97025e-20)
(-0.00469211 0.00408943 2.86414e-19)
(-0.00955763 0.00589936 -2.19513e-19)
(-0.0149814 0.00725842 -4.50199e-20)
(-0.020521 0.00824136 -7.5785e-20)
(-0.0257858 0.00889219 -1.96189e-19)
(-0.0304255 0.00923527 1.96094e-19)
(-0.034144 0.00927472 -6.51082e-20)
(-0.0366891 0.00900631 -1.14972e-19)
(-0.0378462 0.0084275 1.88005e-19)
(-0.0374306 0.00754674 -2.17255e-19)
(-0.0352804 0.0063931 -6.98685e-20)
(-0.0312501 0.00502733 -7.76327e-21)
(-0.0252061 0.00355724 1.80695e-19)
(-0.0170307 0.00216144 -1.61643e-19)
(-0.00663516 0.00112938 -3.01737e-19)
(0.0060159 0.000932651 -8.9246e-20)
(0.0206843 0.0022597 -1.28672e-19)
(0.0368118 0.00611986 -3.87573e-19)
(0.0559144 0.0151699 -1.1155e-19)
(-0.001602 0.00206982 9.84216e-20)
(-0.00555295 0.00539373 -1.25916e-19)
(-0.0107208 0.00768018 -1.56987e-19)
(-0.0162684 0.00929086 -1.49025e-19)
(-0.0217667 0.0103439 4.97654e-20)
(-0.0268369 0.0109222 2.86554e-20)
(-0.0311384 0.0110839 6.95656e-20)
(-0.0343814 0.0108619 -1.80698e-19)
(-0.0363176 0.010275 1.39579e-19)
(-0.0367326 0.00933825 -4.15527e-19)
(-0.035439 0.00807216 -2.07939e-19)
(-0.0322698 0.00651211 3.23525e-21)
(-0.0270708 0.00471952 1.81524e-19)
(-0.0196972 0.00279768 -1.17674e-19)
(-0.0100168 0.000916903 2.9702e-19)
(0.00207688 -0.000640686 -7.21352e-20)
(0.0166424 -0.0013949 9.35227e-20)
(0.0334468 -0.000609887 3.41726e-19)
(0.0518392 0.002849 4.47905e-20)
(0.0737409 0.0122892 2.10888e-19)
(-0.001979 0.00260182 -2.07935e-19)
(-0.0064474 0.0066491 1.67736e-19)
(-0.0119132 0.00938758 1.89784e-19)
(-0.0175639 0.0112312 -1.09971e-19)
(-0.0229857 0.0123412 1.8833e-19)
(-0.0278125 0.0128393 1.82259e-19)
(-0.0317138 0.0128176 -3.3261e-20)
(-0.0344066 0.0123373 -6.19877e-20)
(-0.0356453 0.0114408 -1.6883e-19)
(-0.0352152 0.0101612 7.98038e-20)
(-0.0329253 0.0085316 7.84061e-21)
(-0.0286017 0.00659459 -2.04247e-19)
(-0.022081 0.0044129 1.49417e-19)
(-0.0132061 0.00208518 -1.16562e-19)
(-0.00182971 -0.000228225 -2.10498e-19)
(0.0121718 -0.0022576 -2.70526e-19)
(0.0288818 -0.00352368 6.61281e-20)
(0.0480774 -0.00325585 8.95976e-20)
(0.0689923 -0.00021177 -8.3401e-20)
(0.0940908 0.00971271 3.44067e-19)
(-0.00237192 0.00311352 -1.63396e-19)
(-0.00736855 0.00784976 -1.54354e-19)
(-0.0131224 0.0110144 1.22181e-19)
(-0.0188496 0.0130719 7.13173e-20)
(-0.0241527 0.0142266 2.8717e-20)
(-0.0286794 0.0146385 -5.3103e-20)
(-0.0321095 0.0144333 -3.78848e-20)
(-0.0341662 0.013701 8.59847e-20)
(-0.0346063 0.0125075 -8.03724e-20)
(-0.0332134 0.0109047 6.4494e-19)
(-0.0297915 0.00893926 4.68396e-20)
(-0.0241582 0.006662 -7.05922e-20)
(-0.0161394 0.00413828 -4.6688e-19)
(-0.00556538 0.00146297 8.9518e-20)
(0.00772617 -0.0012144 -2.26212e-19)
(0.0238751 -0.00364086 1.48465e-19)
(0.0429884 -0.0053483 1.33684e-19)
(0.0648581 -0.00554821 -4.98402e-19)
(0.0885728 -0.00292379 -1.51147e-19)
(0.117297 0.00758648 -5.13623e-19)
(-0.00277812 0.00360216 7.9128e-20)
(-0.00830859 0.00898944 1.59381e-19)
(-0.0143351 0.0125526 -2.8745e-19)
(-0.0201057 0.0148047 -2.20458e-19)
(-0.0252408 0.0159924 1.11519e-19)
(-0.0294024 0.0163136 1.05689e-19)
(-0.0322807 0.0159271 -2.18815e-19)
(-0.0336045 0.0149518 -1.95964e-20)
(-0.0331318 0.0134775 1.17231e-20)
(-0.0306432 0.0115754 -1.94093e-19)
(-0.0259357 0.00930696 2.8e-19)
(-0.0188171 0.00673286 1.6884e-21)
(-0.00910108 0.00392289 3.49572e-19)
(0.00339554 0.000969799 2.3573e-19)
(0.0188491 -0.00198708 4.02663e-20)
(0.037413 -0.00471469 4.82912e-19)
(0.0592147 -0.00676601 -4.3243e-19)
(0.0840638 -0.00735446 1.98758e-19)
(0.110868 -0.00514102 1.52405e-19)
(0.14366 0.00606733 1.27693e-19)
(-0.00319458 0.00406479 3.78929e-19)
(-0.00925879 0.0100615 -2.68631e-19)
(-0.0155362 0.0139938 6.58845e-20)
(-0.0213106 0.0164207 2.13788e-19)
(-0.026221 0.0176301 -2.30846e-19)
(-0.0299441 0.0178571 1.15558e-20)
(-0.0321803 0.0172937 1.7529e-19)
(-0.0326631 0.0160869 3.21883e-19)
(-0.0311504 0.0143512 4.34564e-19)
(-0.0274179 0.0121777 -4.15479e-19)
(-0.0212541 0.0096439 -2.46731e-19)
(-0.0124548 0.00682227 1.16588e-19)
(-0.000820277 0.00378938 -3.31759e-19)
(0.0138463 0.000638502 2.27341e-20)
(0.0317339 -0.00249927 1.27681e-19)
(0.053005 -0.0054119 9.71147e-20)
(0.0778012 -0.00768204 2.90369e-19)
(0.10595 -0.00854586 5.8724e-20)
(0.136137 -0.0067153 -2.11241e-19)
(0.173427 0.00531968 2.21608e-19)
(-0.00361793 0.0044984 -3.58971e-19)
(-0.0102095 0.011059 2.67348e-19)
(-0.0167098 0.0153291 6.53262e-20)
(-0.0224415 0.0179101 -2.11416e-19)
(-0.027063 0.0191301 8.93471e-20)
(-0.0302657 0.0192608 -4.3158e-20)
(-0.0317595 0.0185263 -3.30033e-20)
(-0.0312819 0.0171023 -2.71572e-19)
(-0.028589 0.0151274 -4.27639e-19)
(-0.0234499 0.0127139 3.98585e-19)
(-0.0156422 0.00995656 -1.43298e-19)
(-0.00494838 0.00694169 4.47932e-21)
(0.00884592 0.0037554 8.00897e-20)
(0.025951 0.000494947 1.6756e-19)
(0.0465658 -0.00271336 -2.06211e-20)
(0.070856 -0.00567734 -4.69485e-20)
(0.0989671 -0.00801497 -2.33469e-19)
(0.130739 -0.00900457 -1.53962e-19)
(0.164598 -0.00750223 -1.43323e-19)
(0.206765 0.00551243 2.22449e-19)
(-0.00404443 0.00489994 2.87346e-19)
(-0.0111504 0.011975 -7.51731e-20)
(-0.0178389 0.0165493 2.56809e-19)
(-0.0234743 0.0192628 6.24328e-20)
(-0.0277349 0.0204826 -1.37648e-19)
(-0.0303266 0.0205156 2.23899e-20)
(-0.0309682 0.0196177 -2.93628e-19)
(-0.0293997 0.0179925 1.33397e-19)
(-0.0253739 0.0158034 7.17578e-20)
(-0.0186514 0.0131844 -2.67032e-20)
(-0.00899696 0.0102489 -3.04827e-20)
(0.00382183 0.00709907 3.52031e-20)
(0.0200345 0.00383362 -1.59242e-19)
(0.0398638 0.000557743 -3.67649e-19)
(0.0635147 -0.00260224 1.84929e-19)
(0.0911482 -0.00547031 -8.97745e-20)
(0.1229 -0.00770118 -2.02141e-20)
(0.15861 -0.00863094 3.72877e-19)
(0.196417 -0.00736672 3.80975e-19)
(0.24374 0.00681577 -5.6903e-19)
(-0.00447003 0.00526645 -7.338e-20)
(-0.0120702 0.0128024 -8.08281e-20)
(-0.0189052 0.0176451 -1.60818e-19)
(-0.0243836 0.0204686 1.17871e-19)
(-0.0282036 0.0216772 2.14492e-19)
(-0.0300852 0.021612 -2.77423e-19)
(-0.0297551 0.0205596 4.43371e-19)
(-0.0269546 0.0187513 -8.65797e-20)
(-0.0214313 0.0163755 1.26076e-20)
(-0.0129354 0.0135882 -2.9862e-19)
(-0.00121766 0.0105229 -2.27683e-20)
(0.0139705 0.00729946 -2.43449e-19)
(0.0328737 0.00403228 3.245e-19)
(0.0557248 0.000838718 2.11253e-19)
(0.08273 -0.00214926 -4.0918e-19)
(0.114035 -0.00476563 -3.4396e-19)
(0.149751 -0.00669796 7.8371e-20)
(0.189687 -0.00735023 4.46495e-19)
(0.231704 -0.00618702 2.01575e-19)
(0.284293 0.00939684 1.06681e-19)
(-0.00489041 0.00559509 2.26944e-20)
(-0.0129571 0.0135346 7.8498e-20)
(-0.0198898 0.0186074 9.45494e-20)
(-0.0251432 0.0215172 -7.93605e-20)
(-0.0284352 0.0227034 1.98732e-19)
(-0.029499 0.0225401 2.66535e-19)
(-0.0280684 0.0213435 4.16202e-21)
(-0.0238843 0.0193722 -3.43655e-19)
(-0.0166877 0.0168393 -2.74222e-19)
(-0.00621702 0.0139234 2.86609e-19)
(0.00779236 0.0107791 -3.81592e-19)
(0.0256054 0.0075459 -4.26171e-19)
(0.0474805 0.00435637 -4.24417e-20)
(0.0736573 0.00134417 -2.3146e-20)
(0.104336 -0.00134702 1.4351e-19)
(0.139636 -0.00355324 9.31496e-20)
(0.179623 -0.00498469 1.18814e-19)
(0.224034 -0.00511908 -5.52227e-19)
(0.270514 -0.00385886 -1.4766e-19)
(0.328218 0.0134064 3.82025e-19)
(-0.00530104 0.00588325 -1.36058e-19)
(-0.0137987 0.0141654 1.33624e-19)
(-0.0207729 0.0194278 -9.88812e-20)
(-0.0257258 0.0223988 -4.91531e-20)
(-0.0283945 0.0235512 -1.34152e-19)
(-0.0285246 0.0232903 -1.01796e-19)
(-0.0258556 0.021961 -1.81904e-19)
(-0.0201267 0.0198484 3.00542e-19)
(-0.011071 0.0171901 1.19094e-19)
(0.0015861 0.0141879 -2.91995e-19)
(0.0181249 0.011018 4.54994e-19)
(0.0388258 0.00784066 2.32237e-19)
(0.0639586 0.00480911 -1.74012e-19)
(0.0937646 0.00207673 -2.41131e-19)
(0.12843 -0.000195374 -3.00301e-20)
(0.168032 -0.00183621 2.43675e-19)
(0.212574 -0.00256168 -1.58464e-19)
(0.261649 -0.001931 6.07585e-20)
(0.312856 -0.000297687 1.32786e-19)
(0.375157 0.0189574 3.21507e-19)
(-0.00569724 0.00612863 -1.39374e-20)
(-0.014582 0.0146888 -3.30124e-19)
(-0.021534 0.0200982 8.05418e-20)
(-0.0261035 0.0231042 1.79495e-19)
(-0.0280458 0.024211 -3.30666e-20)
(-0.027118 0.0238536 -2.17657e-19)
(-0.023064 0.0224042 2.39864e-19)
(-0.01562 0.0201739 2.74415e-19)
(-0.00451023 0.0174245 1.04972e-19)
(0.0105533 0.0143806 5.19226e-19)
(0.0298661 0.0112406 -2.40197e-19)
(0.0537218 0.00818672 1.14281e-19)
(0.0823972 0.00539384 -1.17517e-19)
(0.116128 0.00303762 2.79549e-19)
(0.155076 0.00130127 -2.45487e-20)
(0.199261 0.000372208 -6.24061e-20)
(0.248607 0.000552545 -9.87463e-20)
(0.302464 0.00218185 1.52543e-19)
(0.358679 0.00458899 -3.77935e-19)
(0.424537 0.0261638 -4.94768e-19)
(-0.00607419 0.00632925 -7.89004e-20)
(-0.0152938 0.0151001 -2.93183e-20)
(-0.022152 0.0206116 -2.6714e-19)
(-0.0262475 0.0236253 1.63785e-19)
(-0.0273526 0.0246745 -1.67368e-19)
(-0.0252345 0.0242221 -1.7005e-19)
(-0.0196405 0.0226668 -1.54164e-20)
(-0.0103028 0.0203443 -2.76966e-19)
(0.00306385 0.0175403 -4.38387e-19)
(0.0207605 0.0145021 1.19587e-19)
(0.0430958 0.0114504 1.335e-19)
(0.070373 0.00858934 1.60088e-19)
(0.102869 0.00611594 4.05266e-19)
(0.140807 0.00422897 -3.97334e-20)
(0.184308 0.00313641 -8.54095e-20)
(0.233322 0.00305051 -1.0981e-20)
(0.287676 0.00431954 2.10979e-19)
(0.346358 0.00714842 3.67402e-19)
(0.407852 0.0109969 -1.01637e-19)
(0.475385 0.0352897 3.60201e-19)
(-0.00642706 0.00648356 2.47682e-19)
(-0.0159207 0.0153951 -4.03058e-20)
(-0.0226057 0.0209621 2.35968e-19)
(-0.0261287 0.0239551 -2.42241e-19)
(-0.0262778 0.0249345 3.57942e-19)
(-0.022829 0.0243896 2.99651e-19)
(-0.015532 0.0227438 -2.46186e-19)
(-0.00411436 0.020357 -4.57642e-19)
(0.0117188 0.0175378 7.5749e-19)
(0.0322798 0.0145561 1.86324e-19)
(0.0578873 0.0116542 -1.44641e-19)
(0.0888482 0.00905763 -1.41868e-19)
(0.125431 0.00698478 -7.0002e-20)
(0.167831 0.00565615 -1.0927e-19)
(0.216121 0.00530368 -3.56872e-19)
(0.270165 0.00616791 -9.51526e-20)
(0.329691 0.00866636 8.06594e-21)
(0.393246 0.012842 -2.51547e-19)
(0.46034 0.0192412 1.23738e-19)
(0.526429 0.0463718 -2.57757e-19)
(-0.00675099 0.00659043 -3.95902e-19)
(-0.0164489 0.0155706 2.66966e-19)
(-0.0228729 0.0211451 -3.98343e-19)
(-0.025717 0.0240884 -2.17301e-19)
(-0.0247834 0.024986 8.1055e-20)
(-0.0198558 0.024352 -3.23882e-19)
(-0.0106851 0.0226331 5.07468e-19)
(0.00300574 0.0202124 8.65501e-21)
(0.0215202 0.0174209 -2.81443e-19)
(0.0451796 0.0145501 -2.45444e-19)
(0.074307 0.0118633 -4.36511e-19)
(0.109205 0.00960609 -5.382e-21)
(0.15012 0.00801572 1.60933e-20)
(0.197207 0.00733039 -9.77109e-20)
(0.25047 0.00780011 4.31722e-19)
(0.309676 0.00968523 2.62631e-19)
(0.374477 0.0134721 6.41363e-20)
(0.443072 0.0190408 -2.74832e-19)
(0.516573 0.0292383 -1.6072e-20)
(0.578317 0.0567988 -4.30445e-19)
(-0.00704115 0.00664921 1.40638e-19)
(-0.0168645 0.0156247 -2.67293e-19)
(-0.0229316 0.0211577 3.44036e-19)
(-0.0249822 0.0240219 4.84222e-19)
(-0.0228312 0.0248261 -1.57697e-19)
(-0.0162686 0.0241077 2.0461e-20)
(-0.00504636 0.0223356 -4.28061e-19)
(0.0111172 0.0199146 -1.06533e-19)
(0.0325322 0.0171976 -3.30615e-19)
(0.0595241 0.0144968 4.29996e-19)
(0.0924138 0.012095 3.96672e-19)
(0.131487 0.010256 -7.02214e-20)
(0.176955 0.00923183 -5.21102e-20)
(0.228908 0.0092719 -3.95507e-21)
(0.287261 0.0106326 7.82277e-20)