/*--------------------------------*- C++ -*----------------------------------*\
  =========                 |
  \\      /  F ield         | OpenFOAM: The Open Source CFD Toolbox
   \\    /   O peration     | Website:  https://openfoam.org
    \\  /    A nd           | Version:  7
     \\/     M anipulation  |
\*---------------------------------------------------------------------------*/
FoamFile
{
    version     2.0;
    format      ascii;
    class       volScalarField;
    location    "65";
    object      p;
}
// * * * * * * * * * * * * * * * * * * * * * * * * * * * * * * * * * * * * * //

dimensions      [0 2 -2 0 0 0 0];

internalField   nonuniform List<scalar> 
8500
(
0.147565
0.151055
0.158105
0.154929
0.162184
0.168697
0.159495
0.166659
0.173378
0.179313
0.171902
0.178464
0.184619
0.189921
0.177212
0.184383
0.19033
0.195899
0.2005
0.182587
0.190436
0.196925
0.202254
0.207216
0.210985
0.196599
0.203724
0.209519
0.214247
0.218542
0.221137
0.202863
0.210672
0.217061
0.222167
0.226324
0.229782
0.230631
0.217755
0.224787
0.230434
0.234874
0.238464
0.240829
0.239774
0.224937
0.232678
0.238926
0.243831
0.247618
0.250576
0.2516
0.250603
0.232164
0.240708
0.247611
0.253066
0.257231
0.260352
0.262634
0.262827
0.262194
0.248828
0.256473
0.262529
0.267187
0.270609
0.273047
0.274639
0.274186
0.273524
0.256976
0.265469
0.272207
0.27741
0.281266
0.283941
0.285686
0.286597
0.285574
0.284692
0.274534
0.282058
0.287884
0.292229
0.29528
0.297204
0.298249
0.298487
0.296911
0.295698
0.292019
0.29857
0.303479
0.306962
0.309206
0.310377
0.310717
0.310285
0.308153
0.306535
0.302017
0.309402
0.314976
0.318967
0.321587
0.323022
0.323438
0.323071
0.321969
0.319272
0.317201
0.320304
0.326653
0.331249
0.334322
0.33608
0.336706
0.336366
0.335291
0.333518
0.33025
0.327692
0.331201
0.338429
0.343742
0.347364
0.349519
0.350416
0.350236
0.349142
0.347358
0.344916
0.341071
0.338002
0.350223
0.35636
0.360642
0.363291
0.364534
0.364574
0.36359
0.361745
0.359254
0.356144
0.35172
0.348126
0.361985
0.369016
0.374067
0.377323
0.379006
0.379341
0.378531
0.376748
0.374155
0.370962
0.367187
0.362186
0.358054
0.381647
0.387546
0.391519
0.393756
0.394482
0.393918
0.392263
0.38969
0.386356
0.382465
0.37803
0.372454
0.36778
0.401002
0.405779
0.408685
0.409915
0.409693
0.408239
0.40575
0.402394
0.398327
0.393746
0.388659
0.382514
0.377292
0.41444
0.420016
0.423683
0.425535
0.42577
0.424614
0.422282
0.41897
0.414842
0.410051
0.404788
0.399057
0.392351
0.386582
0.434214
0.438654
0.441227
0.44204
0.441296
0.439219
0.436024
0.431901
0.427013
0.42151
0.415576
0.409212
0.401954
0.395639
0.453561
0.456882
0.458378
0.45817
0.456464
0.453484
0.449441
0.444522
0.438889
0.432687
0.426094
0.41911
0.41131
0.404453
0.468509
0.472444
0.474666
0.475107
0.473899
0.471251
0.467386
0.462512
0.456815
0.450451
0.443565
0.436327
0.428735
0.420407
0.413013
0.487988
0.490828
0.491974
0.491383
0.489197
0.485629
0.4809
0.475215
0.468758
0.461681
0.454128
0.446259
0.438076
0.429232
0.421309
0.506908
0.508678
0.508775
0.507178
0.504039
0.499574
0.494003
0.48753
0.480332
0.472562
0.464358
0.455876
0.447118
0.437772
0.42933
0.525235
0.525962
0.525037
0.522462
0.518398
0.513063
0.506675
0.499435
0.491519
0.483076
0.474241
0.465163
0.455848
0.446017
0.437066
0.54187
0.542932
0.542647
0.540731
0.537209
0.532249
0.526071
0.518893
0.510911
0.5023
0.493206
0.48376
0.474107
0.464253
0.453954
0.444506
0.559867
0.559966
0.558702
0.555829
0.551392
0.545568
0.538577
0.530636
0.52194
0.512659
0.502936
0.492902
0.482694
0.472321
0.461571
0.451641
0.577134
0.576304
0.574096
0.570303
0.564986
0.558331
0.550559
0.541885
0.532502
0.522577
0.512251
0.501652
0.490911
0.480041
0.468858
0.458461
0.593639
0.591915
0.588802
0.584125
0.577966
0.570516
0.561996
0.55262
0.54258
0.532039
0.521136
0.509996
0.498745
0.487399
0.475803
0.464956
0.609348
0.60677
0.602791
0.597272
0.590309
0.5821
0.572868
0.562824
0.552157
0.541029
0.529577
0.517922
0.506185
0.494386
0.482397
0.471118
0.626747
0.624231
0.620839
0.616039
0.609719
0.601994
0.593065
0.583156
0.572478
0.561217
0.549532
0.537559
0.525415
0.513218
0.500991
0.488629
0.476938
0.64149
0.638259
0.634097
0.628519
0.621444
0.612998
0.60339
0.592843
0.581567
0.569745
0.557535
0.54507
0.532466
0.519834
0.507203
0.49449
0.482409
0.65531
0.651405
0.646518
0.640209
0.632424
0.623302
0.613057
0.601911
0.590074
0.577726
0.565024
0.552098
0.539061
0.526022
0.513013
0.499971
0.487522
0.668178
0.663642
0.658079
0.651088
0.642641
0.632889
0.622049
0.610346
0.597985
0.585148
0.571987
0.558631
0.545192
0.531773
0.518412
0.505064
0.49227
0.680069
0.674948
0.668757
0.661134
0.652074
0.641739
0.63035
0.618131
0.605287
0.591997
0.578411
0.564658
0.550847
0.537078
0.523392
0.509761
0.496646
0.690959
0.6853
0.678533
0.67033
0.660708
0.649839
0.637946
0.625254
0.611967
0.598261
0.584287
0.57017
0.556018
0.541928
0.527944
0.514054
0.500645
0.700826
0.694678
0.687387
0.678658
0.668526
0.657172
0.644822
0.631702
0.618013
0.603931
0.589605
0.575158
0.560697
0.546315
0.532062
0.517938
0.50426
0.709651
0.703064
0.695303
0.686103
0.675514
0.663726
0.650968
0.637463
0.623415
0.608997
0.594355
0.579613
0.564876
0.550233
0.535739
0.521405
0.507487
0.717416
0.710441
0.702266
0.692651
0.68166
0.669489
0.656371
0.642529
0.628164
0.613449
0.59853
0.583528
0.568548
0.553676
0.538969
0.524452
0.510321
0.730617
0.724105
0.716796
0.708263
0.698289
0.686952
0.674452
0.661023
0.646889
0.632252
0.617281
0.602123
0.586897
0.571707
0.556638
0.541748
0.527072
0.512757
0.736453
0.729706
0.722115
0.713283
0.703008
0.69138
0.678603
0.664914
0.650537
0.635671
0.620486
0.605127
0.589714
0.574348
0.559113
0.544071
0.529261
0.514793
0.741144
0.734207
0.72639
0.717316
0.706799
0.694936
0.681938
0.668039
0.653466
0.638415
0.623058
0.607538
0.591975
0.576467
0.561099
0.545934
0.531018
0.516425
0.74468
0.737599
0.729611
0.720354
0.709655
0.697615
0.684448
0.670392
0.65567
0.640481
0.624994
0.609352
0.593675
0.578061
0.562593
0.547335
0.532337
0.517651
0.747054
0.739876
0.731772
0.722392
0.711569
0.699411
0.686131
0.671968
0.657146
0.641864
0.626289
0.610566
0.594812
0.579126
0.56359
0.54827
0.533219
0.51847
0.74826
0.741032
0.732869
0.723426
0.71254
0.70032
0.686982
0.672764
0.657892
0.642561
0.626942
0.611177
0.595384
0.579661
0.564091
0.548739
0.53366
0.518879
0.748297
0.741067
0.7329
0.723454
0.712565
0.700341
0.687001
0.67278
0.657905
0.642572
0.626951
0.611184
0.595389
0.579666
0.564094
0.548741
0.533661
0.518879
0.747165
0.739979
0.731866
0.722476
0.711643
0.699475
0.686187
0.672016
0.657187
0.641897
0.626317
0.610588
0.594829
0.579139
0.563599
0.548276
0.533221
0.518469
0.744865
0.737771
0.729767
0.720494
0.709778
0.697722
0.684541
0.670471
0.655737
0.640537
0.62504
0.60939
0.593704
0.578083
0.562608
0.547344
0.532341
0.51765
0.741403
0.734448
0.726609
0.717512
0.706971
0.695087
0.682068
0.668151
0.65356
0.638494
0.623124
0.607591
0.592016
0.576498
0.561121
0.545947
0.531023
0.516424
0.736785
0.730015
0.722396
0.713534
0.70323
0.691573
0.67877
0.665057
0.650658
0.635772
0.62057
0.605194
0.589767
0.574387
0.559141
0.544087
0.529268
0.514791
0.731022
0.724482
0.717138
0.70857
0.698559
0.687187
0.674655
0.661197
0.647037
0.632375
0.617383
0.602205
0.586961
0.571755
0.556671
0.541768
0.52708
0.512755
0.71786
0.710845
0.702627
0.692969
0.681938
0.669729
0.656576
0.642703
0.62831
0.613569
0.598626
0.583604
0.568604
0.553715
0.538993
0.524461
0.510318
0.710163
0.703529
0.695719
0.686469
0.675834
0.664002
0.651204
0.637664
0.623583
0.609134
0.594466
0.579699
0.56494
0.550278
0.535765
0.521416
0.507483
0.701404
0.695204
0.687856
0.679072
0.668887
0.657484
0.645089
0.631928
0.618202
0.604086
0.589729
0.575255
0.560769
0.546365
0.532091
0.517949
0.504255
0.691603
0.685886
0.679056
0.670791
0.66111
0.650186
0.638243
0.625505
0.612177
0.598434
0.584426
0.570278
0.556098
0.541982
0.527976
0.514067
0.500639
0.680779
0.675593
0.669333
0.661642
0.652517
0.642121
0.630677
0.618407
0.605518
0.592186
0.578563
0.564776
0.550934
0.537137
0.523426
0.509774
0.496639
0.668952
0.664346
0.658707
0.651641
0.643123
0.633305
0.622405
0.610647
0.598237
0.585354
0.572152
0.558759
0.545286
0.531837
0.518449
0.505077
0.492261
0.656148
0.652167
0.647199
0.640808
0.632946
0.623753
0.613442
0.602237
0.590345
0.577949
0.565202
0.552235
0.539163
0.526091
0.513053
0.499985
0.487511
0.642391
0.639078
0.634828
0.629162
0.622004
0.613481
0.603803
0.593192
0.581858
0.569983
0.557725
0.545217
0.532574
0.519907
0.507244
0.494504
0.482397
0.627709
0.625106
0.62162
0.616726
0.610318
0.60251
0.593505
0.583528
0.572788
0.56147
0.549735
0.537715
0.52553
0.513295
0.501034
0.488642
0.476924
0.610278
0.6076
0.603522
0.597908
0.590857
0.582568
0.573263
0.563152
0.552425
0.541243
0.529741
0.518042
0.506265
0.494431
0.48241
0.471102
0.594622
0.592793
0.589574
0.584797
0.578545
0.57101
0.562412
0.552967
0.542862
0.532264
0.521309
0.510122
0.498829
0.487445
0.475815
0.464937
0.578171
0.577229
0.57491
0.57101
0.565595
0.558851
0.550997
0.542249
0.532798
0.522812
0.512432
0.501783
0.490998
0.480087
0.468869
0.458439
0.560955
0.560936
0.559555
0.556571
0.552031
0.546112
0.539036
0.531016
0.522249
0.512904
0.503124
0.493038
0.482783
0.472368
0.461581
0.451617
0.543008
0.543947
0.54354
0.541507
0.537876
0.532818
0.526549
0.519289
0.511233
0.502555
0.4934
0.4839
0.474198
0.4643
0.453962
0.444479
0.526293
0.526893
0.525845
0.523157
0.51899
0.51356
0.507086
0.499769
0.491783
0.483276
0.474384
0.465256
0.455894
0.446023
0.437035
0.508009
0.509645
0.509614
0.507899
0.504653
0.500089
0.494429
0.487875
0.480604
0.472768
0.464505
0.455969
0.447163
0.437776
0.429296
0.489129
0.49183
0.492844
0.49213
0.489832
0.486161
0.481339
0.475571
0.469037
0.461893
0.454277
0.446353
0.43812
0.429233
0.421271
0.47348
0.475565
0.475878
0.474553
0.471799
0.467838
0.462877
0.457101
0.450667
0.443717
0.436421
0.428778
0.420405
0.412971
0.454629
0.457808
0.459173
0.458844
0.457028
0.453948
0.449815
0.444815
0.439108
0.432841
0.426188
0.419151
0.411305
0.404406
0.435313
0.439606
0.442043
0.442731
0.441873
0.439694
0.436406
0.432199
0.427235
0.421665
0.415669
0.409251
0.401945
0.395588
0.415568
0.420993
0.42452
0.426243
0.426361
0.425099
0.422672
0.419272
0.415067
0.410206
0.40488
0.399093
0.392338
0.386525
0.402002
0.406634
0.409408
0.410517
0.410187
0.408635
0.406057
0.402621
0.398482
0.393836
0.388691
0.382496
0.37723
0.382668
0.388419
0.392256
0.39437
0.394984
0.394319
0.392573
0.389917
0.38651
0.382553
0.378059
0.372432
0.367712
0.363026
0.369905
0.374817
0.377946
0.379515
0.379746
0.378842
0.376976
0.374308
0.371047
0.367212
0.362159
0.357981
0.351127
0.357121
0.361273
0.363805
0.364942
0.364887
0.363818
0.361895
0.359336
0.356164
0.351688
0.348046
0.332117
0.339199
0.34438
0.347882
0.349929
0.350729
0.350462
0.349289
0.347435
0.34493
0.341032
0.337916
0.321082
0.327296
0.331771
0.334733
0.336392
0.33693
0.33651
0.335363
0.333527
0.330205
0.327599
0.302801
0.310049
0.315499
0.319378
0.321898
0.323243
0.323578
0.323138
0.321971
0.31922
0.317101
0.292669
0.299093
0.303889
0.30727
0.309422
0.310512
0.310778
0.310281
0.308093
0.306428
0.275185
0.282581
0.288291
0.292532
0.295491
0.297333
0.298303
0.298475
0.296844
0.295584
0.257626
0.265989
0.27261
0.277708
0.281471
0.284062
0.285732
0.286577
0.285498
0.28457
0.249345
0.256872
0.262822
0.267385
0.270722
0.273085
0.27461
0.274101
0.273394
0.2411
0.247896
0.253256
0.257336
0.260381
0.262596
0.26273
0.262053
0.225321
0.232955
0.239107
0.243927
0.247637
0.250527
0.251491
0.250448
0.218022
0.224958
0.230519
0.234882
0.238404
0.240707
0.239598
0.203119
0.210831
0.217134
0.222165
0.226253
0.229648
0.230442
0.196746
0.203785
0.209504
0.214165
0.218398
0.220938
0.182721
0.190485
0.196898
0.20216
0.207062
0.210775
0.177246
0.184343
0.190223
0.195732
0.200278
0.171847
0.178344
0.18444
0.189687
0.166526
0.173186
0.179068
0.154781
0.16198
0.16844
0.150838
0.157835
0.147283
0.235321
0.22554
0.21573
0.206065
0.196084
0.185979
0.175898
0.165843
0.155822
0.145864
0.135987
0.230079
0.22018
0.209793
0.200311
0.190731
0.18099
0.171311
0.161714
0.152177
0.142713
0.13334
0.223637
0.213751
0.203213
0.193977
0.184888
0.175614
0.166389
0.157277
0.14824
0.139277
0.130404
0.216832
0.207257
0.196972
0.1881
0.179515
0.170732
0.161961
0.15331
0.144746
0.136255
0.127849
0.210076
0.200941
0.191049
0.182562
0.174435
0.166119
0.15779
0.149578
0.141464
0.133423
0.125464
0.203578
0.194894
0.185445
0.177341
0.169638
0.161767
0.153866
0.146078
0.138391
0.130778
0.123244
0.19737
0.189118
0.180132
0.172416
0.165113
0.157665
0.15018
0.142799
0.135519
0.128314
0.121182
0.191455
0.183617
0.175101
0.167771
0.160851
0.153805
0.146719
0.139728
0.132836
0.126016
0.119265
0.185839
0.178399
0.170347
0.163396
0.156841
0.150176
0.143471
0.136852
0.130328
0.123872
0.117482
0.180522
0.173466
0.165863
0.15928
0.153073
0.146769
0.140425
0.13416
0.127983
0.121872
0.115822
0.1755
0.168811
0.16164
0.15541
0.149532
0.143569
0.137569
0.131639
0.125791
0.120005
0.114275
0.170763
0.164424
0.157665
0.151772
0.146207
0.140567
0.134891
0.129278
0.123741
0.118262
0.112834
0.166299
0.160295
0.153926
0.148353
0.143085
0.137749
0.13238
0.127066
0.121823
0.116633
0.111489
0.162096
0.15641
0.15041
0.145143
0.140154
0.135106
0.130025
0.124994
0.120027
0.115109
0.110233
0.158141
0.152757
0.147107
0.142127
0.137403
0.132625
0.127817
0.123052
0.118346
0.113684
0.10906
0.154422
0.149325
0.144003
0.139295
0.134821
0.130298
0.125745
0.121232
0.116771
0.112351
0.107964
0.150926
0.1461
0.141088
0.136636
0.132397
0.128114
0.123802
0.119525
0.115295
0.111101
0.106938
0.14764
0.14307
0.138349
0.134139
0.130122
0.126064
0.121979
0.117924
0.113912
0.109931
0.105977
0.144552
0.140226
0.135777
0.131795
0.127985
0.124139
0.120268
0.116422
0.112614
0.108834
0.105078
0.141652
0.137555
0.133362
0.129593
0.12598
0.122333
0.118661
0.115012
0.111396
0.107805
0.104235
0.138927
0.135047
0.131093
0.127525
0.124097
0.120636
0.117153
0.113689
0.110254
0.106841
0.103445
0.136369
0.132692
0.128963
0.125583
0.122328
0.119044
0.115737
0.112447
0.109182
0.105936
0.102704
0.133967
0.130482
0.126962
0.123759
0.120668
0.117548
0.114408
0.111281
0.108176
0.105087
0.10201
0.131711
0.128408
0.125084
0.122047
0.119108
0.116144
0.11316
0.110187
0.107232
0.104291
0.10136
0.129594
0.126461
0.12332
0.120439
0.117645
0.114826
0.111988
0.109159
0.106346
0.103544
0.100751
0.127607
0.124635
0.121664
0.118929
0.11627
0.113588
0.110889
0.108195
0.105515
0.102845
0.100181
0.125743
0.122921
0.120111
0.117512
0.114981
0.112427
0.109857
0.107292
0.104737
0.10219
0.0996486
0.123994
0.121315
0.118653
0.116183
0.113771
0.111339
0.10889
0.106445
0.104008
0.101578
0.0991511
0.122354
0.119808
0.117286
0.114936
0.112637
0.110318
0.107983
0.105651
0.103326
0.101005
0.0986872
0.120816
0.118396
0.116004
0.113767
0.111574
0.109362
0.107135
0.104909
0.102688
0.100471
0.0982554
0.119376
0.117074
0.114803
0.112672
0.110578
0.108467
0.106341
0.104215
0.102093
0.0999734
0.0978543
0.118027
0.115836
0.113679
0.111647
0.109647
0.10763
0.105599
0.103567
0.101538
0.0995106
0.116765
0.114678
0.112628
0.110688
0.108776
0.106848
0.104907
0.102964
0.101022
0.0990811
0.115584
0.113597
0.111645
0.109792
0.107963
0.106118
0.104261
0.102402
0.100543
0.0986834
0.114482
0.112586
0.110727
0.108956
0.107205
0.105439
0.103661
0.10188
0.100099
0.0983162
0.113453
0.111644
0.109871
0.108177
0.106499
0.104806
0.103103
0.101396
0.0996879
0.097978
0.112494
0.110766
0.109074
0.107452
0.105842
0.104219
0.102586
0.100948
0.099309
0.0976676
0.111601
0.10995
0.108333
0.106778
0.105233
0.103675
0.102107
0.100535
0.0989606
0.0973836
0.110771
0.109192
0.107645
0.106153
0.104668
0.103171
0.101665
0.100154
0.0986411
0.0971248
0.110001
0.108488
0.107007
0.105573
0.104146
0.102707
0.101258
0.099805
0.0983491
0.0968898
0.109287
0.107837
0.106417
0.105038
0.103664
0.102278
0.100884
0.0994852
0.0980831
0.0966774
0.108626
0.107236
0.105872
0.104545
0.10322
0.101885
0.100542
0.0991934
0.0978418
0.0964864
0.108017
0.106681
0.105371
0.104091
0.102813
0.101525
0.100229
0.098928
0.0976236
0.0963154
0.107456
0.106171
0.10491
0.103674
0.102439
0.101195
0.0999437
0.0986873
0.0974272
0.0961631
0.10694
0.105703
0.104487
0.103293
0.102099
0.100895
0.099685
0.09847
0.0972511
0.0960282
0.106468
0.105276
0.104101
0.102945
0.101788
0.100623
0.099451
0.0982744
0.0970938
0.0959093
0.106038
0.104886
0.103749
0.102629
0.101506
0.100376
0.09924
0.098099
0.096954
0.095805
0.105646
0.104531
0.10343
0.102342
0.101252
0.100154
0.0990504
0.0979422
0.0968301
0.0957141
0.105291
0.104211
0.103142
0.102083
0.101022
0.0999544
0.0988807
0.0978027
0.0967208
0.0956351
0.104971
0.103922
0.102883
0.101851
0.100816
0.0997756
0.0987293
0.0976789
0.0966246
0.0955666
0.104685
0.103664
0.102651
0.101643
0.100633
0.0996162
0.0985948
0.0975693
0.0965401
0.0955073
0.10443
0.103435
0.102444
0.101458
0.100469
0.0994748
0.0984756
0.0974725
0.0964658
0.0954556
0.104206
0.103232
0.102263
0.101295
0.100325
0.0993501
0.0983705
0.0973872
0.0964005
0.0954104
0.104011
0.103056
0.102104
0.101153
0.100199
0.0992406
0.0982781
0.097312
0.0963426
0.0953701
0.103844
0.102905
0.101967
0.10103
0.10009
0.0991454
0.0981972
0.0972457
0.0962912
0.0953336
0.103704
0.102778
0.101852
0.100925
0.0999959
0.0990629
0.0981264
0.0971868
0.0962443
0.0952991
0.103592
0.102675
0.101757
0.100839
0.0999177
0.0989933
0.0980657
0.0971354
0.0962024
0.0952669
0.103505
0.102594
0.101682
0.100768
0.0998523
0.0989334
0.0980116
0.0970874
0.0961607
0.0952318
0.103448
0.102539
0.101629
0.100718
0.0998051
0.0988893
0.0979711
0.0970507
0.0961282
0.0952037
0.103415
0.102504
0.101592
0.100678
0.0997623
0.0988446
0.0979247
0.0970029
0.0960793
0.0951542
0.240961
0.241572
0.242793
0.244531
0.246758
0.249431
0.252522
0.256
0.259835
0.263994
0.268439
0.273121
0.27799
0.282974
0.287998
0.292961
0.297758
0.302243
0.306278
0.30966
0.312224
0.313686
0.313887
0.312409
0.309203
0.303551
0.295854
0.284408
0.271236
0.249773
0.24058
0.241178
0.242372
0.24407
0.246244
0.24885
0.251859
0.255238
0.258956
0.262974
0.267254
0.271744
0.276388
0.281113
0.285839
0.29046
0.294868
0.298914
0.302457
0.305293
0.307258
0.308071
0.30758
0.30538
0.301431
0.295053
0.286625
0.274608
0.260724
0.240971
0.240179
0.240763
0.241927
0.243583
0.245699
0.248232
0.251151
0.254421
0.25801
0.261877
0.265981
0.270266
0.274675
0.27913
0.283549
0.287824
0.291845
0.29546
0.298533
0.300859
0.302282
0.302529
0.301461
0.298691
0.294207
0.287359
0.27856
0.26642
0.252679
0.234502
0.239758
0.240326
0.241459
0.243069
0.245123
0.247579
0.250403
0.25356
0.257014
0.260723
0.264642
0.268714
0.272878
0.277054
0.281157
0.285076
0.288701
0.29188
0.294477
0.296293
0.297177
0.296866
0.295239
0.291926
0.28694
0.279678
0.27057
0.258416
0.244822
0.227524
0.239314
0.239867
0.240967
0.242529
0.24452
0.246896
0.249622
0.252661
0.255976
0.259522
0.263252
0.267107
0.271021
0.274912
0.278695
0.282256
0.285483
0.288226
0.290351
0.291662
0.292018
0.291166
0.288998
0.28517
0.279711
0.27208
0.262694
0.250549
0.237038
0.220362
0.238849
0.239385
0.240451
0.241964
0.243888
0.246181
0.248806
0.251724
0.254896
0.258275
0.261812
0.265444
0.269104
0.272709
0.276169
0.279371
0.282203
0.284515
0.286176
0.286997
0.286844
0.285478
0.282803
0.278505
0.272623
0.264682
0.255077
0.242977
0.229587
0.21349
0.23836
0.238879
0.239909
0.241371
0.243228
0.245434
0.247955
0.250748
0.253773
0.256981
0.260319
0.263725
0.267128
0.270442
0.273579
0.276422
0.278861
0.280748
0.281957
0.282305
0.281665
0.279815
0.276672
0.27195
0.265698
0.25751
0.247747
0.235737
0.222526
0.206985
0.237848
0.238348
0.239342
0.240751
0.242536
0.244655
0.247067
0.249731
0.252605
0.255637
0.258774
0.261949
0.265091
0.268114
0.270925
0.273411
0.275461
0.276931
0.277699
0.277591
0.276488
0.274185
0.270609
0.265509
0.258939
0.250556
0.240692
0.228809
0.215815
0.200805
0.237311
0.237793
0.238749
0.240102
0.241815
0.243841
0.246142
0.248674
0.251393
0.254245
0.257176
0.260117
0.262996
0.265725
0.268211
0.270342
0.272008
0.27307
0.273411
0.272864
0.271322
0.268597
0.264626
0.259191
0.252349
0.24382
0.233904
0.222177
0.209426
0.194926
0.236749
0.237212
0.238128
0.239425
0.241061
0.242993
0.24518
0.247576
0.250136
0.252805
0.255527
0.258231
0.260845
0.263278
0.26544
0.267219
0.268508
0.269172
0.269099
0.268135
0.266179
0.263062
0.258733
0.253004
0.245936
0.237304
0.227379
0.215833
0.203347
0.189345
0.236161
0.236604
0.23748
0.238718
0.240276
0.24211
0.244179
0.246436
0.248834
0.251317
0.253826
0.256291
0.258638
0.260777
0.262616
0.264048
0.264967
0.265244
0.264774
0.263412
0.261068
0.257591
0.25294
0.246958
0.239706
0.231011
0.221115
0.209771
0.19757
0.184056
0.235547
0.235969
0.236803
0.23798
0.239458
0.241192
0.243141
0.245255
0.247488
0.249781
0.252076
0.2543
0.256378
0.258223
0.259743
0.260833
0.26139
0.261294
0.260442
0.258704
0.255999
0.252193
0.247256
0.241059
0.233663
0.224939
0.215107
0.203984
0.192083
0.179051
0.234905
0.235307
0.236097
0.237212
0.238607
0.240239
0.242063
0.244033
0.246097
0.248198
0.250276
0.252257
0.254068
0.25562
0.256825
0.257579
0.257785
0.257327
0.256113
0.254022
0.250981
0.246878
0.241688
0.235312
0.22781
0.21909
0.209352
0.198465
0.186877
0.174318
0.234236
0.234616
0.235362
0.236412
0.237723
0.239249
0.240948
0.242769
0.244662
0.246569
0.248428
0.250167
0.25171
0.252972
0.253866
0.254292
0.254157
0.253353
0.251794
0.249372
0.246024
0.241654
0.236245
0.229723
0.222148
0.213462
0.203843
0.193206
0.181941
0.169846
0.233539
0.233896
0.234597
0.235581
0.236804
0.238224
0.239793
0.241464
0.243184
0.244895
0.246534
0.24803
0.249307
0.250283
0.250871
0.250977
0.250513
0.249379
0.247494
0.244765
0.241135
0.236527
0.230932
0.224296
0.21668
0.208052
0.198575
0.1882
0.177264
0.165624
0.232813
0.233147
0.233801
0.234717
0.235852
0.237162
0.2386
0.240118
0.241663
0.243177
0.244595
0.245848
0.246863
0.247555
0.247845
0.247641
0.24686
0.245411
0.243221
0.240207
0.236323
0.231506
0.225754
0.219033
0.211405
0.202859
0.193543
0.183437
0.172836
0.16164
0.232058
0.232368
0.232974
0.233821
0.234866
0.236064
0.237369
0.238732
0.240101
0.241415
0.242614
0.243626
0.244379
0.244794
0.244792
0.244288
0.243205
0.241457
0.238982
0.235706
0.231594
0.226595
0.220716
0.213938
0.206323
0.197878
0.18874
0.178911
0.168645
0.157883
0.231274
0.23156
0.232117
0.232893
0.233845
0.234929
0.2361
0.237307
0.238498
0.239613
0.240592
0.241364
0.241861
0.242004
0.241719
0.240926
0.239553
0.237525
0.234784
0.231271
0.226954
0.221801
0.215821
0.209011
0.201432
0.193108
0.18416
0.174611
0.164681
0.154342
0.23046
0.230721
0.231228
0.231932
0.23279
0.233759
0.234793
0.235843
0.236855
0.237772
0.238531
0.239067
0.239311
0.239189
0.23863
0.237559
0.235912
0.233621
0.230635
0.226906
0.222411
0.217128
0.211073
0.204254
0.196732
0.188542
0.179796
0.17053
0.160933
0.151005
0.229616
0.229851
0.230308
0.230938
0.231701
0.232554
0.23345
0.234341
0.235175
0.235893
0.236436
0.236738
0.236734
0.236354
0.23553
0.234195
0.232288
0.229751
0.226541
0.222619
0.217969
0.21258
0.206473
0.199666
0.192219
0.184177
0.175641
0.166659
0.157392
0.147861
0.228741
0.228951
0.229356
0.229912
0.230579
0.231313
0.232071
0.232803
0.233458
0.233978
0.234307
0.234379
0.234134
0.233503
0.232426
0.230838
0.228688
0.225923
0.222509
0.218415
0.213633
0.208161
0.202023
0.195246
0.187891
0.180007
0.171688
0.162988
0.154047
0.144899
0.227837
0.22802
0.228373
0.228854
0.229423
0.230038
0.230657
0.23123
0.231706
0.232031
0.232148
0.231996
0.231514
0.230642
0.229321
0.227496
0.225117
0.222143
0.218544
0.214299
0.209406
0.203872
0.197723
0.190994
0.183744
0.176027
0.167929
0.15951
0.150888
0.142111
0.226902
0.227059
0.227359
0.227763
0.228234
0.22873
0.229209
0.229623
0.229922
0.230054
0.229963
0.22959
0.228881
0.227776
0.226223
0.224173
0.221582
0.218415
0.214651
0.210276
0.205293
0.199715
0.193574
0.186908
0.179775
0.172232
0.164358
0.156217
0.147906
0.139486
0.225938
0.226068
0.226314
0.226642
0.227013
0.22739
0.227729
0.227984
0.228108
0.228049
0.227754
0.227167
0.226237
0.224909
0.223137
0.220875
0.218088
0.214747
0.210836
0.20635
0.201296
0.195693
0.189575
0.182985
0.175979
0.168616
0.160967
0.153099
0.145093
0.137016
0.224944
0.225046
0.225239
0.225489
0.225761
0.226018
0.226217
0.226316
0.226267
0.22602
0.225525
0.224731
0.223588
0.222048
0.220067
0.217608
0.21464
0.211142
0.207103
0.202524
0.197417
0.191805
0.185726
0.179224
0.172352
0.165173
0.157749
0.150148
0.142439
0.134691
0.22392
0.223995
0.224134
0.224307
0.224479
0.224616
0.224677
0.22462
0.2244
0.223969
0.22328
0.222284
0.220938
0.219195
0.217019
0.214377
0.211245
0.207606
0.203457
0.198801
0.193658
0.188053
0.182025
0.17562
0.16889
0.161897
0.154697
0.147358
0.139936
0.132504
0.222869
0.222916
0.223
0.223095
0.223168
0.223186
0.223109
0.222899
0.22251
0.221899
0.221022
0.219833
0.218291
0.216357
0.213999
0.211188
0.207906
0.204143
0.199899
0.195185
0.19002
0.184436
0.17847
0.172171
0.165588
0.158782
0.151804
0.144721
0.137577
0.130447
0.221789
0.221809
0.221839
0.221856
0.22183
0.221729
0.221517
0.221154
0.220601
0.219815
0.218755
0.217381
0.215653
0.213539
0.21101
0.208045
0.204628
0.200757
0.196435
0.191676
0.186505
0.180953
0.17506
0.168874
0.162442
0.155823
0.149063
0.142229
0.135354
0.128513
0.220683
0.220675
0.220651
0.22059
0.220466
0.220247
0.219901
0.21939
0.218676
0.21772
0.216484
0.214932
0.213028
0.210745
0.208059
0.204952
0.201416
0.197451
0.193066
0.188277
0.183111
0.177603
0.171791
0.165724
0.159445
0.153013
0.146469
0.139876
0.13326
0.126696
0.21955
0.219515
0.219437
0.219299
0.219077
0.218743
0.218265
0.217608
0.216738
0.215618
0.214213
0.212491
0.210422
0.207981
0.205149
0.201915
0.198274
0.194229
0.189794
0.184989
0.179841
0.174386
0.168662
0.162718
0.156595
0.150347
0.144014
0.137655
0.131288
0.124988
0.218394
0.21833
0.218199
0.217985
0.217667
0.217218
0.216611
0.215812
0.21479
0.213511
0.211945
0.210062
0.207837
0.20525
0.202286
0.198937
0.195204
0.191094
0.186622
0.181812
0.176692
0.171299
0.16567
0.159852
0.153885
0.14782
0.141692
0.135559
0.129433
0.123385
0.217214
0.217123
0.216939
0.216649
0.216236
0.215676
0.214942
0.214005
0.212836
0.211405
0.209685
0.20765
0.205279
0.202557
0.199472
0.196022
0.19221
0.188047
0.183551
0.178747
0.173664
0.16834
0.162811
0.157122
0.151311
0.145426
0.139499
0.133584
0.127687
0.12188
0.216013
0.215895
0.215658
0.215295
0.214788
0.214118
0.213261
0.21219
0.21088
0.209303
0.207437
0.205259
0.202753
0.199907
0.196714
0.193175
0.189296
0.185092
0.180583
0.175794
0.170757
0.165508
0.160083
0.154524
0.148868
0.14316
0.137427
0.131722
0.126047
0.120469
0.214792
0.214648
0.21436
0.213923
0.213325
0.212548
0.211571
0.210371
0.208925
0.20721
0.205205
0.202894
0.200263
0.197303
0.194013
0.190397
0.186464
0.18223
0.177717
0.172954
0.167969
0.162801
0.157482
0.152055
0.146551
0.141016
0.135472
0.12997
0.124506
0.119146
0.213554
0.213383
0.213045
0.212537
0.21185
0.210969
0.209876
0.208552
0.206976
0.205129
0.202994
0.200559
0.197812
0.194751
0.191375
0.187692
0.183715
0.179462
0.174955
0.170225
0.165299
0.160215
0.155006
0.149709
0.144357
0.13899
0.133629
0.128321
0.12306
0.117908
0.212301
0.212105
0.211718
0.21114
0.210366
0.209384
0.20818
0.206736
0.205036
0.203065
0.200809
0.198258
0.195406
0.192253
0.188802
0.185064
0.181053
0.17679
0.172298
0.167606
0.162745
0.157749
0.15265
0.147484
0.14228
0.137077
0.131893
0.126771
0.121704
0.116749
0.211037
0.210815
0.210379
0.209734
0.208876
0.207797
0.206485
0.204928
0.203111
0.201022
0.198652
0.195995
0.193048
0.189813
0.186298
0.182514
0.178479
0.174214
0.169744
0.165098
0.160306
0.1554
0.150412
0.145375
0.140317
0.135273
0.130259
0.125315
0.120433
0.115666
0.209762
0.209516
0.209034
0.208323
0.207383
0.206211
0.204797
0.203131
0.201203
0.199005
0.19653
0.193776
0.190742
0.187436
0.183865
0.180045
0.175995
0.171736
0.167295
0.1627
0.157979
0.153166
0.148288
0.143379
0.138462
0.133572
0.128722
0.123949
0.119244
0.114656
0.208482
0.208212
0.207685
0.20691
0.205892
0.20463
0.203119
0.20135
0.199318
0.197018
0.194446
0.191603
0.188493
0.185123
0.181507
0.17766
0.173602
0.169356
0.164949
0.160409
0.155763
0.151043
0.146276
0.141491
0.136713
0.131972
0.127279
0.122669
0.118132
0.113713
0.207199
0.206906
0.206335
0.205499
0.204407
0.203059
0.201455
0.19959
0.19746
0.195065
0.192404
0.189481
0.186303
0.182879
0.179225
0.175359
0.171301
0.167075
0.162707
0.158225
0.153656
0.14903
0.144371
0.13971
0.135065
0.130467
0.125925
0.121471
0.117094
0.112836
0.205916
0.205601
0.204989
0.204095
0.202931
0.201502
0.19981
0.197854
0.195634
0.193151
0.190409
0.187414
0.184176
0.180707
0.177024
0.173145
0.169093
0.164892
0.160568
0.156147
0.151656
0.147123
0.142572
0.13803
0.133515
0.129054
0.124657
0.120351
0.116126
0.112021
0.204639
0.204303
0.20365
0.202701
0.201469
0.199963
0.198189
0.196148
0.193843
0.191281
0.188465
0.185407
0.182117
0.17861
0.174904
0.17102
0.16698
0.162808
0.158531
0.154173
0.149761
0.145321
0.140875
0.136449
0.132059
0.127731
0.123471
0.119306
0.115225
0.111264
0.203371
0.203014
0.202324
0.201322
0.200026
0.198448
0.196596
0.194476
0.192094
0.189458
0.186577
0.183462
0.180128
0.17659
0.172869
0.168985
0.164962
0.160824
0.156595
0.152302
0.147969
0.14362
0.139277
0.134963
0.130694
0.126492
0.122363
0.118333
0.114388
0.110563
0.202117
0.201741
0.201015
0.199963
0.198606
0.19696
0.195036
0.192843
0.190391
0.187688
0.184748
0.181584
0.178213
0.174651
0.17092
0.167042
0.16304
0.158938
0.154761
0.150533
0.146278
0.142019
0.137776
0.133571
0.129417
0.125335
0.121331
0.117428
0.113613
0.109916
0.200882
0.200488
0.199727
0.198628
0.197215
0.195506
0.193515
0.191255
0.188738
0.185976
0.182984
0.179778
0.176375
0.172795
0.16906
0.165192
0.161215
0.157152
0.153028
0.148865
0.144687
0.140516
0.13637
0.132268
0.128224
0.124257
0.120372
0.116588
0.112895
0.109319
0.199671
0.199259
0.198467
0.197324
0.195858
0.19409
0.192038
0.189717
0.187141
0.184326
0.181288
0.178046
0.174618
0.171026
0.167291
0.163437
0.159487
0.155465
0.151394
0.147297
0.143195
0.139108
0.135055
0.131052
0.127114
0.123255
0.119482
0.115811
0.112233
0.108771
0.198489
0.198062
0.19724
0.196056
0.194541
0.192719
0.19061
0.188233
0.185605
0.182742
0.179665
0.176392
0.172945
0.169345