/*--------------------------------*- C++ -*----------------------------------*\
  =========                 |
  \\      /  F ield         | OpenFOAM: The Open Source CFD Toolbox
   \\    /   O peration     | Website:  https://openfoam.org
    \\  /    A nd           | Version:  7
     \\/     M anipulation  |
\*---------------------------------------------------------------------------*/
FoamFile
{
    version     2.0;
    format      ascii;
    class       volScalarField;
    location    "35";
    object      p;
}
// * * * * * * * * * * * * * * * * * * * * * * * * * * * * * * * * * * * * * //

dimensions      [0 2 -2 0 0 0 0];

internalField   nonuniform List<scalar> 
8500
(
-0.206938
-0.207008
-0.207046
-0.207046
-0.207006
-0.20692
-0.206784
-0.206595
-0.206345
-0.206029
-0.205641
-0.205172
-0.204614
-0.203957
-0.203189
-0.202297
-0.201266
-0.200078
-0.198714
-0.19715
-0.195359
-0.193312
-0.190976
-0.188317
-0.185291
-0.181858
-0.177972
-0.17359
-0.168656
-0.163141
-0.156985
-0.150186
-0.142671
-0.134502
-0.125589
-0.11606
-0.105883
-0.0950657
-0.0840968
-0.0719314
-0.0612887
-0.0471085
-0.0391045
-0.0208418
-0.0198968
0.0068962
-0.206936
-0.207006
-0.207043
-0.207043
-0.207003
-0.206918
-0.206783
-0.206595
-0.206347
-0.206034
-0.205649
-0.205184
-0.20463
-0.203978
-0.203216
-0.202331
-0.201306
-0.200126
-0.198769
-0.197212
-0.195428
-0.193388
-0.191059
-0.188404
-0.185382
-0.18195
-0.178064
-0.173679
-0.168742
-0.16322
-0.157054
-0.150243
-0.142715
-0.134532
-0.125603
-0.116059
-0.105867
-0.0950379
-0.0840576
-0.0718865
-0.0612381
-0.0470617
-0.0390602
-0.0208166
-0.0198763
0.00688432
-0.206945
-0.207014
-0.207051
-0.207051
-0.207011
-0.206927
-0.206793
-0.206607
-0.206361
-0.20605
-0.205668
-0.205207
-0.204658
-0.204012
-0.203256
-0.202377
-0.20136
-0.200187
-0.198838
-0.197289
-0.195513
-0.193481
-0.191158
-0.18851
-0.185492
-0.182063
-0.178178
-0.173792
-0.16885
-0.163322
-0.157148
-0.150326
-0.142785
-0.134588
-0.125643
-0.116084
-0.105876
-0.0950349
-0.0840407
-0.0718649
-0.0612074
-0.0470372
-0.0390327
-0.0208137
-0.0198717
0.00685768
-0.206966
-0.207034
-0.20707
-0.20707
-0.20703
-0.206946
-0.206814
-0.206629
-0.206385
-0.206077
-0.205699
-0.205242
-0.204698
-0.204057
-0.203307
-0.202436
-0.201426
-0.200262
-0.198921
-0.197381
-0.195614
-0.19359
-0.191275
-0.188633
-0.18562
-0.182196
-0.178312
-0.173926
-0.168981
-0.163448
-0.157266
-0.150434
-0.142879
-0.134669
-0.125707
-0.116134
-0.105909
-0.0950562
-0.084046
-0.0718666
-0.0611963
-0.0470348
-0.0390219
-0.0208331
-0.0198913
0.00682485
-0.206997
-0.207065
-0.2071
-0.2071
-0.20706
-0.206976
-0.206845
-0.206661
-0.20642
-0.206115
-0.20574
-0.205287
-0.204748
-0.204113
-0.20337
-0.202506
-0.201505
-0.200349
-0.199018
-0.197487
-0.195729
-0.193714
-0.191408
-0.188773
-0.185767
-0.182347
-0.178467
-0.17408
-0.169134
-0.163596
-0.157407
-0.150565
-0.142998
-0.134774
-0.125796
-0.116209
-0.105965
-0.0951015
-0.084073
-0.0718911
-0.0612046
-0.0470542
-0.0390277
-0.0208747
-0.0199367
0.00678823
-0.207039
-0.207106
-0.20714
-0.207139
-0.207099
-0.207016
-0.206886
-0.206703
-0.206464
-0.206162
-0.205791
-0.205343
-0.204809
-0.20418
-0.203444
-0.202588
-0.201595
-0.200449
-0.199127
-0.197606
-0.195858
-0.193853
-0.191556
-0.18893
-0.185931
-0.182517
-0.17864
-0.174255
-0.169308
-0.163766
-0.15757
-0.15072
-0.14314
-0.134903
-0.125908
-0.116307
-0.106044
-0.09517
-0.0841212
-0.0719379
-0.0612321
-0.0470948
-0.0390495
-0.0209371
-0.0199536
0.0066947
-0.20709
-0.207156
-0.20719
-0.207188
-0.207148
-0.207065
-0.206936
-0.206755
-0.206518
-0.206218
-0.205851
-0.205407
-0.204879
-0.204257
-0.203528
-0.20268
-0.201696
-0.200559
-0.199247
-0.197737
-0.196
-0.194005
-0.191718
-0.189101
-0.18611
-0.182703
-0.178831
-0.174448
-0.169501
-0.163957
-0.157754
-0.150895
-0.143304
-0.135055
-0.126043
-0.116428
-0.106145
-0.0952608
-0.0841899
-0.0720063
-0.061278
-0.0471561
-0.0390865
-0.021016
-0.0199865
0.00658558
-0.20715
-0.207215
-0.207247
-0.207245
-0.207205
-0.207122
-0.206994
-0.206814
-0.20658
-0.206283
-0.20592
-0.205481
-0.204958
-0.204342
-0.203621
-0.202781
-0.201807
-0.20068
-0.199379
-0.197879
-0.196153
-0.19417
-0.191894
-0.189287
-0.186305
-0.182905
-0.179038
-0.174659
-0.169712
-0.164166
-0.157957
-0.151091
-0.143489
-0.135227
-0.126199
-0.11657
-0.106267
-0.0953728
-0.0842782
-0.0720955
-0.0613419
-0.0472372
-0.0391387
-0.0211083
-0.0200458
0.0064709
-0.207218
-0.207281
-0.207313
-0.20731
-0.207269
-0.207187
-0.207059
-0.206882
-0.206649
-0.206356
-0.205996
-0.205562
-0.205045
-0.204436
-0.203723
-0.202892
-0.201927
-0.20081
-0.19952
-0.198032
-0.196318
-0.194346
-0.192081
-0.189484
-0.18651
-0.183121
-0.17926
-0.174885
-0.169939
-0.164392
-0.158179
-0.151306
-0.143692
-0.135419
-0.126374
-0.116733
-0.106408
-0.0955049
-0.084385
-0.0722042
-0.0614227
-0.0473373
-0.0392085
-0.0212297
-0.0201029
0.00634348
-0.207354
-0.207385
-0.207381
-0.20734
-0.207258
-0.207131
-0.206955
-0.206725
-0.206435
-0.206079
-0.20565
-0.205139
-0.204537
-0.203832
-0.203009
-0.202055
-0.200948
-0.19967
-0.198194
-0.196492
-0.194532
-0.19228
-0.189693
-0.186722
-0.183349
-0.179496
-0.175125
-0.170182
-0.164633
-0.158416
-0.151537
-0.143913
-0.135629
-0.126567
-0.116914
-0.106567
-0.0956557
-0.0845092
-0.0723315
-0.0615194
-0.0474552
-0.0392971
-0.0213642
-0.0201652
0.00620026
-0.207433
-0.207462
-0.207458
-0.207417
-0.207335
-0.207209
-0.207034
-0.206806
-0.20652
-0.206168
-0.205744
-0.205239
-0.204644
-0.203947
-0.203134
-0.202189
-0.201094
-0.199827
-0.198363
-0.196674
-0.194727
-0.192487
-0.18991
-0.186955
-0.183588
-0.179743
-0.175378
-0.170437
-0.164888
-0.158668
-0.151783
-0.144149
-0.135855
-0.126776
-0.117112
-0.106742
-0.0958237
-0.0846495
-0.072476
-0.0616312
-0.0475887
-0.0393836
-0.0215241
-0.0202378
0.00604159
-0.207515
-0.207544
-0.207539
-0.207497
-0.207416
-0.207291
-0.207118
-0.206892
-0.206609
-0.206261
-0.205842
-0.205344
-0.204756
-0.204067
-0.203263
-0.202329
-0.201245
-0.19999
-0.198539
-0.196862
-0.194929
-0.192702
-0.190136
-0.187202
-0.183837
-0.179999
-0.17564
-0.170703
-0.165155
-0.158932
-0.152042
-0.144398
-0.136095
-0.127
-0.117324
-0.106933
-0.0960074
-0.0848045
-0.0726364
-0.06176
-0.0477342
-0.0394857
-0.0216919
-0.0203166
0.00586823
-0.207601
-0.207628
-0.207623
-0.207581
-0.2075
-0.207376
-0.207205
-0.206982
-0.206701
-0.206358
-0.205944
-0.205452
-0.204872
-0.204191
-0.203397
-0.202473
-0.201401
-0.200158
-0.198719
-0.197056
-0.195136
-0.192923
-0.190369
-0.187446
-0.184093
-0.180264
-0.175912
-0.170978
-0.165432
-0.159206
-0.152313
-0.14466
-0.136347
-0.127237
-0.117551
-0.107136
-0.0962051
-0.0849729
-0.0728112
-0.0619076
-0.047892
-0.0395975
-0.0218684
-0.0203985
0.00568075
-0.207689
-0.207715
-0.207709
-0.207667
-0.207586
-0.207463
-0.207294
-0.207073
-0.206796
-0.206457
-0.206049
-0.205563
-0.20499
-0.204318
-0.203534
-0.20262
-0.201559
-0.200329
-0.198904
-0.197254
-0.195347
-0.193148
-0.190606
-0.187696
-0.184354
-0.180535
-0.17619
-0.171261
-0.165717
-0.159489
-0.152592
-0.144931
-0.13661
-0.127484
-0.117788
-0.107352
-0.0964153
-0.0851533
-0.0729985
-0.0620466
-0.0480808
-0.0397206
-0.0220549
-0.0204819
0.00547973
-0.207776
-0.207802
-0.207795
-0.207753
-0.207673
-0.207551
-0.207384
-0.207166
-0.206893
-0.206558
-0.206155
-0.205676
-0.20511
-0.204447
-0.203672
-0.202769
-0.20172
-0.200502
-0.19909
-0.197455
-0.195561
-0.193376
-0.190846
-0.18795
-0.18462
-0.18081
-0.176473
-0.171549
-0.166007
-0.159779
-0.152879
-0.145209
-0.136881
-0.12774
-0.118036
-0.107577
-0.0966362
-0.0853442
-0.0731978
-0.0622009
-0.0482746
-0.0398525
-0.022251
-0.0205653
0.00526581
-0.207863
-0.207888
-0.207881
-0.207839
-0.207759
-0.207639
-0.207473
-0.207258
-0.206989
-0.206659
-0.206261
-0.205788
-0.20523
-0.204576
-0.203811
-0.202919
-0.201881
-0.200676
-0.199278
-0.197656
-0.195777
-0.193606
-0.19108
-0.188206
-0.184888
-0.181088
-0.176759
-0.17184
-0.166302
-0.160073
-0.15317
-0.145494
-0.137159
-0.128004
-0.118291
-0.10781
-0.0968661
-0.0855438
-0.073407
-0.0623674
-0.0484751
-0.0399916
-0.022455
-0.0206475
0.0050397
-0.207947
-0.207971
-0.207964
-0.207923
-0.207844
-0.207725
-0.207562
-0.207349
-0.207083
-0.206758
-0.206366
-0.2059
-0.20535
-0.204704
-0.203949
-0.203068
-0.202042
-0.20085
-0.199464
-0.197856
-0.195991
-0.193835
-0.19131
-0.188462
-0.185156
-0.181366
-0.177045
-0.172133
-0.166598
-0.16037
-0.153465
-0.145782
-0.137441
-0.128272
-0.118552
-0.10805
-0.0971033
-0.085751
-0.0736242
-0.0625419
-0.0486838
-0.0401369
-0.0226659
-0.0207269
0.00480211
-0.208028
-0.208051
-0.208044
-0.208003
-0.207925
-0.207808
-0.207647
-0.207438
-0.207176
-0.206855
-0.206469
-0.20601
-0.205467
-0.20483
-0.204084
-0.203214
-0.202201
-0.201021
-0.199649
-0.198055
-0.196204
-0.194063
-0.191607
-0.188717
-0.185423
-0.181643
-0.177331
-0.172425
-0.166895
-0.160667
-0.153762
-0.146072
-0.137726
-0.128544
-0.118818
-0.108295
-0.0973461
-0.0859644
-0.0738479
-0.0627231
-0.0488992
-0.040287
-0.0228826
-0.0208025
0.00455378
-0.208103
-0.208126
-0.208119
-0.208079
-0.208002
-0.207887
-0.207729
-0.207523
-0.207265
-0.206949
-0.206569
-0.206116
-0.205581
-0.204953
-0.204217
-0.203358
-0.202356
-0.201189
-0.19983
-0.19825
-0.196413
-0.194286
-0.191831
-0.188968
-0.185686
-0.181918
-0.177615
-0.172715
-0.16719
-0.160963
-0.154057
-0.146363
-0.138012
-0.128818
-0.119085
-0.108543
-0.0975928
-0.0861824
-0.0740767
-0.0629097
-0.0491199
-0.040441
-0.0231041
-0.020873
0.00429546
-0.208172
-0.208195
-0.208189
-0.20815
-0.208074
-0.207961
-0.207805
-0.207602
-0.207349
-0.207038
-0.206663
-0.206218
-0.205691
-0.205071
-0.204345
-0.203497
-0.202507
-0.201352
-0.200007
-0.198441
-0.196617
-0.1945
-0.192057
-0.189215
-0.185945
-0.182187
-0.177894
-0.173001
-0.167481
-0.161255
-0.15435
-0.146651
-0.138296
-0.129091
-0.119354
-0.108793
-0.0978418
-0.0864038
-0.074309
-0.0631007
-0.0493445
-0.0405976
-0.0233295
-0.0209375
0.00402788
-0.208256
-0.20825
-0.208213
-0.208138
-0.208028
-0.207875
-0.207676
-0.207427
-0.207121
-0.206753
-0.206314
-0.205794
-0.205184
-0.204468
-0.20363
-0.202651
-0.20151
-0.200178
-0.198626
-0.196815
-0.194704
-0.192282
-0.189455
-0.186198
-0.182451
-0.178167
-0.173281
-0.167767
-0.161543
-0.154639
-0.146936
-0.138578
-0.129362
-0.119621
-0.109043
-0.0980916
-0.086627
-0.0745435
-0.0632949
-0.0495717
-0.0407557
-0.0235581
-0.020995
0.00375176
-0.208308
-0.208303
-0.208268
-0.208195
-0.208087
-0.207938
-0.207743
-0.207498
-0.207197
-0.206835
-0.206403
-0.205892
-0.20529
-0.204584
-0.203757
-0.20279
-0.20166
-0.200341
-0.198803
-0.197005
-0.194928
-0.1925
-0.189687
-0.186442
-0.182707
-0.178432
-0.173554
-0.168046
-0.161825
-0.154922
-0.147216
-0.138856
-0.12963
-0.119886
-0.109291
-0.0983406
-0.0868509
-0.0747786
-0.0634911
-0.0498003
-0.0409143
-0.023789
-0.0210448
0.00346779
-0.208349
-0.208347
-0.208315
-0.208241
-0.208138
-0.207992
-0.207801
-0.207561
-0.207266
-0.20691
-0.206485
-0.205981
-0.205388
-0.204691
-0.203875
-0.20292
-0.201802
-0.200496
-0.198972
-0.197185
-0.195122
-0.192708
-0.18991
-0.186678
-0.182953
-0.178689
-0.173818
-0.168316
-0.162098
-0.155197
-0.147489
-0.139127
-0.129893
-0.120147
-0.109536
-0.0985873
-0.0870742
-0.0750129
-0.0636882
-0.050029
-0.0410723
-0.0240216
-0.0210861
0.00317664
-0.208379
-0.208378
-0.208348
-0.208279
-0.208178
-0.208036
-0.207849
-0.207614
-0.207325
-0.206975
-0.206557
-0.206062
-0.205477
-0.20479
-0.203984
-0.20304
-0.201935
-0.200642
-0.199131
-0.197347
-0.195302
-0.192907
-0.190122
-0.186902
-0.183189
-0.178934
-0.174072
-0.168576
-0.162362
-0.155464
-0.147753
-0.139391
-0.13015
-0.120402
-0.109778
-0.0988304
-0.0872958
-0.0752452
-0.0638851
-0.0502568
-0.0412288
-0.0242552
-0.0211183
0.00287892
-0.208396
-0.208397
-0.208369
-0.208306
-0.208208
-0.208069
-0.207887
-0.207657
-0.207374
-0.207031
-0.20662
-0.206132
-0.205556
-0.204879
-0.204083
-0.20315
-0.202057
-0.200776
-0.199278
-0.19749
-0.195475
-0.193094
-0.190322
-0.187115
-0.183412
-0.179168
-0.174314
-0.168824
-0.162615
-0.155719
-0.148008
-0.139646
-0.130399
-0.12065
-0.110014
-0.0990684
-0.0875144
-0.0754742
-0.064081
-0.0504825
-0.0413827
-0.0244892
-0.021141
0.00257521
-0.208398
-0.208403
-0.208378
-0.208318
-0.208224
-0.208091
-0.207914
-0.207689
-0.207412
-0.207075
-0.206671
-0.206192
-0.205625
-0.204957
-0.204171
-0.203248
-0.202167
-0.200899
-0.199415
-0.197705
-0.195637
-0.193268
-0.190509
-0.187313
-0.183622
-0.179388
-0.174542
-0.16906
-0.162855
-0.155963
-0.148252
-0.139891
-0.130639
-0.12089
-0.110243
-0.0993001
-0.087729
-0.0756986
-0.0642747
-0.0507053
-0.0415333
-0.0247232
-0.0211538
0.00226605
-0.208385
-0.208393
-0.208372
-0.208317
-0.208227
-0.208099
-0.207927
-0.207708
-0.207437
-0.207107
-0.206711
-0.206239
-0.205681
-0.205022
-0.204246
-0.203334
-0.202264
-0.201008
-0.199531
-0.197821
-0.195784
-0.193428
-0.190681
-0.187498
-0.183817
-0.179593
-0.174756
-0.169281
-0.163081
-0.156193
-0.148483
-0.140124
-0.130868
-0.12112
-0.110465
-0.0995242
-0.0879387
-0.0759173
-0.0644654
-0.050924
-0.0416798
-0.0249565
-0.0211563
0.00195191
-0.208355
-0.208367
-0.208351
-0.208301
-0.208216
-0.208092
-0.207926
-0.207714
-0.207449
-0.207126
-0.206737
-0.206273
-0.205723
-0.205074
-0.204308
-0.203406
-0.202348
-0.201103
-0.199627
-0.19793
-0.195916
-0.193572
-0.190838
-0.187666
-0.183996
-0.179782
-0.174954
-0.169486
-0.163292
-0.156409
-0.148701
-0.140344
-0.131086
-0.121339
-0.110678
-0.0997396
-0.0881424
-0.0761292
-0.0646523
-0.051138
-0.0418212
-0.0251888
-0.0211484
0.00163319
-0.208324
-0.208312
-0.208267
-0.208188
-0.20807
-0.20791
-0.207704
-0.207446
-0.20713
-0.206749
-0.206293
-0.205752
-0.205111
-0.204355
-0.203464
-0.202416
-0.201182
-0.199742
-0.198032
-0.196032
-0.193699
-0.190977
-0.187817
-0.184158
-0.179954
-0.175134
-0.169675
-0.163486
-0.156609
-0.148904
-0.14055
-0.131291
-0.121546
-0.110881
-0.0999453
-0.0883392
-0.0763334
-0.0648344
-0.0513462
-0.0419571
-0.0254195
-0.0211299
0.00131024
-0.208261
-0.208255
-0.208216
-0.208143
-0.208031
-0.207878
-0.207678
-0.207427
-0.207118
-0.206745
-0.206297
-0.205764
-0.205133
-0.204387
-0.203505
-0.202468
-0.201242
-0.19981
-0.198117
-0.19613
-0.193809
-0.191098
-0.187949
-0.184302
-0.180108
-0.175297
-0.169846
-0.163663
-0.156793
-0.14909
-0.140741
-0.131482
-0.12174
-0.111073
-0.10014
-0.0885283
-0.0765287
-0.0650112
-0.051548
-0.0420867
-0.0256481
-0.0211006
0.000983361
-0.208178
-0.208178
-0.208146
-0.208079
-0.207975
-0.207828
-0.207635
-0.207391
-0.20709
-0.206724
-0.206285
-0.205761
-0.205138
-0.204401
-0.203529
-0.202502
-0.201281
-0.199861
-0.198184
-0.196209
-0.193899
-0.1912
-0.188063
-0.184425
-0.180242
-0.17544
-0.169997
-0.163822
-0.156958
-0.14926
-0.140915
-0.131659
-0.12192
-0.111253
-0.100323
-0.0887088
-0.0767145
-0.0651818
-0.0517426
-0.0422095
-0.0258743
-0.0210606
0.000652754
-0.208072
-0.20808
-0.208055
-0.207996
-0.207898
-0.207759
-0.207574
-0.207337
-0.207044
-0.206686
-0.206255
-0.205739
-0.205125
-0.204397
-0.203535
-0.202519
-0.201319
-0.199898
-0.198232
-0.196268
-0.19397
-0.191282
-0.188155
-0.184529
-0.180355
-0.175563
-0.170129
-0.163961
-0.157104
-0.149412
-0.141073
-0.13182
-0.122085
-0.111421
-0.100494
-0.0888802
-0.0768898
-0.0653456
-0.0519294
-0.0423251
-0.0260975
-0.0210098
0.000318575
-0.207944
-0.207959
-0.207942
-0.207891
-0.207801
-0.20767
-0.207492
-0.207264
-0.206978
-0.206629
-0.206206
-0.205699
-0.205093
-0.204375
-0.203521
-0.202514
-0.201328
-0.199915
-0.198259
-0.196307
-0.194019
-0.191342
-0.188226
-0.18461
-0.180447
-0.175664
-0.170239
-0.16408
-0.15723
-0.149545
-0.141212
-0.131965
-0.122235
-0.111575
-0.100651
-0.0890416
-0.0770539
-0.0655021
-0.0521078
-0.0424331
-0.0263172
-0.0209485
-1.9101e-05
-0.207789
-0.207813
-0.207805
-0.207762
-0.207681
-0.207559
-0.20739
-0.207169
-0.206892
-0.206551
-0.206136
-0.205638
-0.205041
-0.204331
-0.203487
-0.202484
-0.201309
-0.19991
-0.198264
-0.196323
-0.194046
-0.19138
-0.188275
-0.184669
-0.180516
-0.175743
-0.170328
-0.164177
-0.157336
-0.149658
-0.141333
-0.132092
-0.122368
-0.111716
-0.100793
-0.0891926
-0.0772063
-0.0656507
-0.0522772
-0.0425332
-0.0265332
-0.0208766
-0.000360325
-0.207641
-0.207643
-0.20761
-0.207538
-0.207424
-0.207264
-0.207053
-0.206784
-0.206451
-0.206045
-0.205556
-0.204968
-0.204267
-0.203431
-0.202438
-0.201271
-0.199884
-0.198247
-0.196317
-0.19405
-0.191395
-0.1883
-0.184705
-0.180562
-0.175799
-0.170394
-0.164252
-0.157421
-0.149751
-0.141434
-0.132202
-0.122483
-0.111842
-0.100921
-0.0893321
-0.0773459
-0.0657906
-0.052437
-0.0426247
-0.0267449
-0.020794
-0.000705302
-0.207442
-0.207454
-0.207431
-0.207369
-0.207265
-0.207114
-0.206912
-0.206653
-0.206329
-0.205932
-0.205451
-0.204872
-0.20418
-0.203353
-0.202388
-0.201211
-0.199834
-0.198207
-0.196286
-0.19403
-0.191384
-0.1883
-0.184715
-0.180583
-0.175829
-0.170435
-0.164303
-0.157481
-0.149821
-0.141513
-0.132291
-0.122579
-0.11195
-0.101032
-0.0894583
-0.0774712
-0.0659202
-0.052586
-0.0427068
-0.0269516
-0.0207005
-0.00105401
-0.207216
-0.207239
-0.207226
-0.207175
-0.207081
-0.20694
-0.206748
-0.206498
-0.206183
-0.205795
-0.205323
-0.204752
-0.204068
-0.203249
-0.202289
-0.201125
-0.199758
-0.19814
-0.196229
-0.193982
-0.191347
-0.188273
-0.184698
-0.180577
-0.175833
-0.17045
-0.164328
-0.157517
-0.149868
-0.14157
-0.13236
-0.122656
-0.112042
-0.101126
-0.0895719
-0.0775824
-0.0660408
-0.0527237
-0.0427816
-0.0271511
-0.0205994
-0.00140516
-0.206958
-0.206992
-0.206991
-0.206951
-0.206867
-0.206737
-0.206554
-0.206313
-0.206008
-0.205629
-0.205166
-0.204604
-0.203929
-0.203112
-0.202164
-0.201014
-0.199656
-0.198048
-0.196147
-0.193911
-0.191287
-0.188224
-0.184661
-0.180552
-0.175821
-0.17045
-0.16434
-0.157542
-0.149906
-0.14162
-0.132424
-0.122728
-0.112133
-0.101218
-0.0896867
-0.0776904
-0.0661642
-0.0528556
-0.0428597
-0.0273429
-0.0204997
-0.00175766
-0.20664
-0.20669
-0.206704
-0.206678
-0.206608
-0.206491
-0.206321
-0.206093
-0.205799
-0.205432
-0.20498
-0.204429
-0.203764
-0.202945
-0.202019
-0.200883
-0.199537
-0.197941
-0.196053
-0.19383
-0.191219
-0.188171
-0.184622
-0.180528
-0.175811
-0.170456
-0.164361
-0.157578
-0.149956
-0.141683
-0.132503
-0.122815
-0.112239
-0.101322
-0.0898155
-0.0778073
-0.0662976
-0.052993
-0.0429403
-0.0275404
-0.0203899
-0.00212298
-0.206265
-0.206338
-0.206375
-0.20637
-0.20632
-0.206221
-0.206069
-0.205857
-0.205579
-0.205226
-0.204788
-0.204251
-0.203598
-0.202814
-0.20187
-0.200746
-0.199409
-0.197822
-0.195942
-0.193727
-0.191123
-0.188082
-0.18454
-0.180452
-0.175743
-0.170393
-0.164307
-0.157531
-0.149921
-0.141653
-0.132491
-0.122805
-0.112255
-0.101336
-0.0898589
-0.0778569
-0.0663475
-0.0531052
-0.0429282
-0.0277705
-0.020173
-0.00253737
-0.205848
-0.205907
-0.205925
-0.205896
-0.205816
-0.205681
-0.205486
-0.205223
-0.204884
-0.20446
-0.203941
-0.203316
-0.202534
-0.201571
-0.200438
-0.199094
-0.197497
-0.195606
-0.193377
-0.190758
-0.187698
-0.184138
-0.180029
-0.175304
-0.169935
-0.163843
-0.157051
-0.149454
-0.141178
-0.13206
-0.122373
-0.111901
-0.100998
-0.0896014
-0.0776871
-0.0661387
-0.0532118
-0.042604
-0.0282951
-0.0194485
-0.00347479
-0.204185
-0.204291
-0.204351
-0.20436
-0.204314
-0.204209
-0.204037
-0.203793
-0.203467
-0.203047
-0.202518
-0.201863
-0.201083
-0.200141
-0.199002
-0.19764
-0.196021
-0.194104
-0.191847
-0.189198
-0.18611
-0.182524
-0.178396
-0.173659
-0.168288
-0.162211
-0.155445
-0.147903
-0.139684
-0.130674
-0.121073
-0.110766
-0.0999732
-0.0887699
-0.0770127
-0.0655798
-0.052968
-0.0421419
-0.0285749
-0.0187846
-0.00436514
-0.201844
-0.202018
-0.202139
-0.202204
-0.202208
-0.202146
-0.202012
-0.201798
-0.201496
-0.201095
-0.200581
-0.199941
-0.199157
-0.198201
-0.197045
-0.195662
-0.19402
-0.192076
-0.18979
-0.187113
-0.184
-0.180393
-0.176252
-0.171513
-0.166153
-0.160106
-0.153385
-0.145919
-0.137785
-0.128905
-0.119428
-0.109305
-0.0986697
-0.0876743
-0.0761235
-0.0648276
-0.0525492
-0.0415955
-0.0286629
-0.0182684
-0.00494306
-0.198686
-0.198953
-0.19916
-0.199303
-0.199378
-0.199379
-0.199301
-0.199135
-0.198874
-0.198505
-0.198018
-0.197396
-0.196619
-0.195661
-0.194499
-0.193106
-0.191449
-0.189488
-0.187184
-0.184489
-0.181362
-0.177747
-0.173607
-0.168883
-0.163553
-0.157555
-0.150903
-0.143535
-0.135515
-0.126789
-0.117469
-0.107551
-0.0971148
-0.0863392
-0.0750423
-0.0638944
-0.0519809
-0.0409553
-0.028606
-0.0178192
-0.00530963
-0.194608
-0.194987
-0.1953
-0.19554
-0.195705
-0.195788
-0.195782
-0.195682
-0.195476
-0.195156
-0.194707
-0.194115
-0.193361
-0.19242
-0.191262
-0.189872
-0.188215
-0.186251
-0.183944
-0.181248
-0.178124
-0.17452
-0.170402
-0.165715
-0.160438
-0.154518
-0.147962
-0.140722
-0.132847
-0.124306
-0.115181
-0.105492
-0.0952968
-0.0847611
-0.0737573
-0.0627854
-0.0512496
-0.0402305
-0.0283983
-0.0174126
-0.00552316
-0.189648
-0.190148
-0.190575
-0.190923
-0.191188
-0.191364
-0.191443
-0.191419
-0.191282
-0.191021
-0.190623
-0.190074
-0.189357
-0.188455
-0.187314
-0.185939
-0.184297
-0.182347
-0.180055
-0.177376
-0.174277
-0.170707
-0.166636
-0.162012
-0.156817
-0.151002
-0.144574
-0.137493
-0.129799
-0.12147
-0.112577
-0.103144
-0.0932279
-0.082956
-0.072276
-0.0615157
-0.0503601
-0.0394289
-0.0280525
-0.0170286
-0.00562742
-0.18396
-0.184577
-0.185115
-0.185569
-0.185934
-0.186203
-0.18637
-0.186426
-0.186362
-0.186167
-0.185828
-0.18533
-0.184654
-0.183779
-0.1827
-0.181356
-0.179741
-0.177821
-0.175562
-0.172922
-0.169868
-0.166356
-0.162356
-0.157822
-0.152737
-0.147057
-0.140787
-0.133894
-0.126412
-0.118325
-0.109696
-0.100544
-0.0909368
-0.0809535
-0.0706189
-0.0601068
-0.0493289
-0.0385579
-0.0275905
-0.01665
-0.00565472
-0.177748
-0.178467
-0.179105
-0.179655
-0.180111
-0.180467
-0.180716
-0.180849
-0.180857
-0.180727
-0.180449
-0.180005
-0.17938
-0.178559
-0.177524
-0.176222
-0.174648
-0.172771
-0.170561
-0.167976
-0.164988
-0.161554
-0.157648
-0.153228
-0.148277
-0.142757
-0.136672
-0.129992
-0.122749
-0.114926
-0.106588
-0.0977367
-0.0884615
-0.0787892
-0.0688133
-0.0585829
-0.0481777
-0.0376265
-0.0270354
-0.0162652
-0.0056275
-0.171205
-0.172013
-0.172736
-0.173368
-0.173904
-0.174337
-0.174658
-0.17486
-0.174932
-0.174864
-0.174643
-0.174253
-0.17368
-0.172905
-0.171907
-0.17067
-0.169149
-0.167326
-0.165175
-0.16266
-0.159752
-0.156413
-0.152619
-0.148331
-0.143534
-0.138193
-0.132314
-0.125865
-0.118881
-0.111339
-0.103309
-0.0947749
-0.0858448
-0.0765016
-0.0668906
-0.0569692
-0.0469308
-0.0366446
-0.0264085
-0.0158679
-0.00556071
-0.164486
-0.165369
-0.166165
-0.166868
-0.167472
-0.16797
-0.168354
-0.168616
-0.168746
-0.168733
-0.168564
-0.168226
-0.167703
-0.166976
-0.16603
-0.164843
-0.16338
-0.161618
-0.159535
-0.157098
-0.154281
-0.151049
-0.147379
-0.143236
-0.138607
-0.133458
-0.127797
-0.121591
-0.114878
-0.107628
-0.0999151
-0.0917088
-0.0831296
-0.0741277
-0.0648824
-0.0552896
-0.045612
-0.0356224
-0.0257281
-0.0154562
-0.0054645
-0.157698
-0.158647
-0.159506
-0.16027
-0.160933
-0.161488
-0.161927
-0.162242
-0.162423
-0.16246
-0.16234
-0.162049
-0.161574
-0.160896
-0.16
-0.158864
-0.15746
-0.155764
-0.153755
-0.151403
-0.148684
-0.145566
-0.142028
-0.138037
-0.133584
-0.128635
-0.123198
-0.117242
-0.110804
-0.10385
-0.0964576
-0.088583
-0.0803545
-0.0717
-0.0628174
-0.053565
-0.0442422
-0.0345697
-0.0250089
-0.0150308
-0.00534616
-0.15091
-0.151917
-0.152832
-0.153651
-0.154366
-0.154972
-0.15546
-0.155823
-0.156051
-0.156133
-0.156059
-0.155814
-0.155385
-0.154756
-0.153909
-0.152826
-0.151483
-0.149856
-0.147924
-0.145661
-0.143044
-0.140044
-0.136643
-0.132809
-0.128535
-0.123788
-0.118578
-0.112873
-0.10671
-0.100052
-0.0929768
-0.0854329
-0.0775509
-0.0692447
-0.0607192
-0.0518128
-0.042839
-0.0334952
-0.0242624
-0.0145933
-0.00521125
-0.144164
-0.145223
-0.146189
-0.147056
-0.147819
-0.148472
-0.149005
-0.149413
-0.149685
-0.149811
-0.14978
-0.14958
-0.149197
-0.148616
-0.14782
-0.146792
-0.145513
-0.143957
-0.142104
-0.139932
-0.13742
-0.134541
-0.131279
-0.127603
-0.123508
-0.118964
-0.113979
-0.108523
-0.102631
-0.0962665
-0.0895026
-0.0822852
-0.0747425
-0.0667816
-0.0586062
-0.0500463
-0.0414157
-0.0324061
-0.0234974
-0.0141461
-0.00506424
-0.137486
-0.138592
-0.139604
-0.140516
-0.141324
-0.142019
-0.142596
-0.143045
-0.143359
-0.143528
-0.14354
-0.143385
-0.143048
-0.142516
-0.141773
-0.140803
-0.139587
-0.138104
-0.136334
-0.134255
-0.13185
-0.129094
-0.125971
-0.122454
-0.118537
-0.114193
-0.109431
-0.104219
-0.0985937
-0.0925152
-0.0860554
-0.0791578
-0.0719461
-0.0643248
-0.0564915
-0.0482756
-0.0399822
-0.0313083
-0.0227202
-0.0136915
-0.0049087
-0.130895
-0.132043
-0.133097
-0.13405
-0.134898
-0.135634
-0.136251
-0.136741
-0.137096
-0.137307
-0.137362
-0.137251
-0.136961
-0.13648
-0.135791
-0.13488
-0.13373
-0.132321
-0.130635
-0.128652
-0.126356
-0.123723
-0.120739
-0.11738
-0.11364
-0.109494
-0.10495
-0.0999777
-0.0946115
-0.0888123
-0.0826483
-0.0760627
-0.0691729
-0.0618841
-0.0543847
-0.046508
-0.0385459
-0.0302065
-0.0219358
-0.0132314
-0.00474746
-0.124405
-0.125591
-0.126681
-0.127672
-0.128558
-0.129332
-0.129987
-0.130516
-0.13091
-0.131161
-0.131259
-0.131193
-0.130951
-0.130521
-0.129888
-0.129038
-0.127956
-0.126623
-0.125023
-0.123137
-0.12095
-0.11844
-0.115596
-0.112393
-0.108828
-0.104876
-0.100545
-0.0958073
-0.0906936
-0.0851664
-0.0792896
-0.0730074
-0.0664304
-0.0594661
-0.0522925
-0.044749
-0.0371121
-0.0291042
-0.0211479
-0.0127679
-0.00458267
-0.118031
-0.119248
-0.120371
-0.121395
-0.122314
-0.123123
-0.123813
-0.124379
-0.124812
-0.125103
-0.125243
-0.125222
-0.125028
-0.124649
-0.124073
-0.123286
-0.122273
-0.121017
-0.119505
-0.117717
-0.11564
-0.113253
-0.110547
-0.1075
-0.104107
-0.100345
-0.096223
-0.0917133
-0.0868452
-0.0815824
-0.0759843
-0.069997
-0.0637237
-0.0570757
-0.0502196
-0.0430028
-0.0356852
-0.0280046
-0.0203595
-0.0123027
-0.00441593
-0.111783
-0.113026
-0.114177
-0.11523
-0.116179
-0.117018
-0.117742
-0.118342
-0.118811
-0.119141
-0.119322
-0.119345
-0.1192
-0.118873
-0.118355
-0.117631
-0.116688
-0.115511
-0.114086
-0.112397
-0.11043
-0.108166
-0.105598
-0.102703
-0.0994792
-0.095904
-0.0919861
-0.0876988
-0.0830696
-0.0780635
-0.0727359
-0.0670349
-0.0610567
-0.0547165
-0.04817
-0.0412728
-0.0342684
-0.0269105
-0.0195731
-0.0118372
-0.00424845
-0.105674
-0.106937
-0.10811
-0.109187
-0.110161
-0.111029
-0.111782
-0.112414
-0.112917
-0.113284
-0.113506
-0.113572
-0.113474
-0.1132
-0.112739
-0.112079
-0.111207
-0.110108
-0.108772
-0.107181
-0.105323
-0.103182
-0.100749
-0.0980054
-0.0949479
-0.0915556
-0.0878366
-0.083766
-0.0793688
-0.0746122
-0.0695469
-0.0641239
-0.0584322
-0.0523914
-0.0461467
-0.0395619
-0.0328647
-0.0258243
-0.0187908
-0.011373
-0.00408109
-0.0997128
-0.100991
-0.10218
-0.103276
-0.104272
-0.105163
-0.105943
-0.106604
-0.107139
-0.107541
-0.107801
-0.10791
-0.107858
-0.107636
-0.107233
-0.106636
-0.105834
-0.104815
-0.103566
-0.102072
-0.100324
-0.098304
-0.0960052
-0.0934095
-0.0905148
-0.0873012
-0.0837763
-0.0799164
-0.0757448
-0.0712302
-0.0664196
-0.0612663
-0.0558528
-0.0501032
-0.0441525
-0.0378728
-0.0314766
-0.0247481
-0.0180146
-0.0109112
-0.00391453
-0.0939096
-0.0951963
-0.0963971
-0.0975068
-0.0985199
-0.0994307
-0.100233
-0.10092
-0.101484
-0.101919
-0.102215
-0.102365
-0.102359
-0.102188
-0.101841
-0.101307
-0.100575
-0.0996338
-0.0984718
-0.0970753
-0.0954344
-0.0935341
-0.0913671
-0.0889169
-0.0861815
-0.0831424
-0.0798066
-0.0761517
-0.0721992
-0.0679194
-0.0633558
-0.0584641
-0.0533207
-0.0478543
-0.0421899
-0.036208
-0.0301065
-0.023684
-0.0172462
-0.010453
-0.00374928
-0.0882721
-0.0895617
-0.0907686
-0.0918875
-0.092913
-0.0938394
-0.0946606
-0.09537
-0.0959607
-0.0964253
-0.0967561
-0.0969448
-0.0969827
-0.0968605
-0.0965685
-0.0960964
-0.0954341
-0.0945699
-0.0934939
-0.092193
-0.090658
-0.088875
-0.0868373
-0.0845296
-0.0819499
-0.0790809
-0.0759291
-0.0724733
-0.0687335
-0.0646814
-0.0603573
-0.0557194
-0.0508383
-0.0456468
-0.0402613
-0.0345698
-0.0287565
-0.0226339
-0.016487
-0.0099995
-0.00358577
-0.082807
-0.0840941
-0.0853019
-0.0864252
-0.0874587
-0.0883967
-0.0892331
-0.0899615
-0.0905753
-0.0910673
-0.0914299
-0.0916553
-0.0917351
-0.0916603
-0.091422
-0.0910102
-0.0904154
-0.0896269
-0.0886355
-0.0874284
-0.0859973
-0.0843292
-0.0824181
-0.0802494
-0.0778216
-0.0751182
-0.0721452
-0.0688828
-0.0653492
-0.0615179
-0.057426
-0.053034
-0.0484073
-0.043483
-0.0383688
-0.0329602
-0.0274287
-0.0215996
-0.0157385
-0.00955157
-0.00342438
-0.07752
-0.0787994
-0.0800032
-0.0811263
-0.0821634
-0.0831088
-0.0839566
-0.0847007
-0.0853343
-0.0858507
-0.0862425
-0.0865021
-0.0866215
-0.0865922
-0.0864056
-0.0860524
-0.0855235
-0.0848087
-0.0838996
-0.0827843
-0.0814548
-0.0798991
-0.0781114
-0.0760783
-0.0737982
-0.0712558
-0.0684564
-0.0653815
-0.0620478
-0.0584305
-0.0545634
-0.0504097
-0.0460298
-0.0413647
-0.0365143
-0.0313812
-0.0261247
-0.0205826
-0.015002
-0.0091101
-0.0032654
-0.0724153
-0.0736821
-0.0748774
-0.0759959
-0.0770324
-0.0779813
-0.0788369
-0.079593
-0.0802433
-0.080781
-0.0811992
-0.0814904
-0.081647
-0.0816608
-0.0815238
-0.081227
-0.080762
-0.080119
-0.0792894
-0.0782633
-0.0770329
-0.0755868
-0.0739192
-0.072018
-0.0698813
-0.0674951
-0.0648641
-0.0619709
-0.0588308
-0.0554204
-0.0517711
-0.0478482
-0.0437074
-0.0392938
-0.0346997
-0.0298346
-0.0248464
-0.0195845
-0.0142786
-0.00867586
-0.00310912
-0.067496
-0.068746
-0.0699284
-0.0710382
-0.0720701
-0.0730188
-0.0738785
-0.0746433
-0.075307
-0.075863
-0.0763046
-0.0766246
-0.0768158
-0.0768703
-0.0767804
-0.0765377
-0.076134
-0.0755601
-0.0748082
-0.0738686
-0.0727343
-0.0713943
-0.0698434
-0.06807
-0.0660725
-0.0638376
-0.0613695
-0.0586522
-0.0556994
-0.0524892
-0.0490506
-0.045351
-0.0414419
-0.0372719
-0.0329267
-0.0283221
-0.0235952
-0.0186065
-0.0135693
-0.00824953
-0.00295579
-0.0627644
-0.0639935
-0.0651592
-0.0662564
-0.0672801
-0.068225
-0.0690853
-0.0698555
-0.0705293
-0.0711006
-0.0715627
-0.0719088
-0.0721318
-0.0722243
-0.072179
-0.0719876
-0.0716426
-0.0711353
-0.0704584
-0.0696026
-0.068561
-0.0673236
-0.0658856
-0.0642359
-0.062373
-0.0602845
-0.0579741
-0.0554266
-0.0526548
-0.0496382
-0.0464031
-0.0429194
-0.0392345
-0.0353005
-0.0311968
-0.026845
-0.0223724
-0.0176498