/*--------------------------------*- C++ -*----------------------------------*\
  =========                 |
  \\      /  F ield         | OpenFOAM: The Open Source CFD Toolbox
   \\    /   O peration     | Website:  https://openfoam.org
    \\  /    A nd           | Version:  7
     \\/     M anipulation  |
\*---------------------------------------------------------------------------*/
FoamFile
{
    version     2.0;
    format      ascii;
    class       surfaceScalarField;
    location    "35";
    object      phi;
}
// * * * * * * * * * * * * * * * * * * * * * * * * * * * * * * * * * * * * * //

dimensions      [0 3 -1 0 0 0 0];

internalField   nonuniform List<scalar> 
16753
(
-0.000365316
1.22014e-05
-1.78478e-06
-0.000375598
1.25488e-05
-2.26656e-06
-0.000385742
1.29578e-05
-2.81373e-06
-0.000395745
1.34308e-05
-3.42835e-06
-0.000405602
1.39685e-05
-4.11098e-06
-0.000415311
1.45692e-05
-4.86011e-06
-0.000424868
1.52279e-05
-5.67163e-06
-0.000434266
1.59362e-05
-6.53821e-06
-0.000443498
1.66814e-05
-7.44874e-06
-0.000452556
1.74454e-05
-8.3877e-06
-0.000461426
1.82049e-05
-9.3345e-06
-0.000470093
1.893e-05
-1.02629e-05
-0.000478536
1.9584e-05
-1.1141e-05
-0.000486729
2.01233e-05
-1.19303e-05
-0.00049464
2.04969e-05
-1.25863e-05
-0.000502228
2.06469e-05
-1.30585e-05
-0.000509446
2.05095e-05
-1.32918e-05
-0.000516235
2.00156e-05
-1.32268e-05
-0.000522525
1.90949e-05
-1.28047e-05
-0.000528236
1.76694e-05
-1.19584e-05
-0.000533272
1.56729e-05
-1.0637e-05
-0.000537523
1.304e-05
-8.78955e-06
-0.000540863
9.71231e-06
-6.37182e-06
-0.00054315
5.65477e-06
-3.36783e-06
-0.000544223
8.40289e-07
2.32548e-07
-0.000543915
-4.67499e-06
4.36689e-06
-0.000542037
-1.09027e-05
9.0249e-06
-0.000538386
-1.77409e-05
1.40898e-05
-0.000532749
-2.50606e-05
1.94234e-05
-0.00052491
-3.26766e-05
2.48383e-05
-0.000514647
-4.03815e-05
3.01184e-05
-0.000501758
-4.79004e-05
3.50106e-05
-0.000486018
-5.49646e-05
3.92247e-05
-0.000467284
-6.11953e-05
4.24616e-05
-0.00044532
-6.63639e-05
4.44003e-05
-0.000420141
-6.99918e-05
4.48126e-05
-0.000391406
-7.21057e-05
4.33705e-05
-0.000359501
-7.19147e-05
4.00095e-05
-0.000323674
-7.02727e-05
3.44455e-05
-0.000285183
-6.55448e-05
2.70541e-05
-0.000242101
-6.05181e-05
1.74357e-05
-0.00019756
-5.16224e-05
7.08164e-06
-0.000146775
-4.5819e-05
-4.96573e-06
-9.6442e-05
-3.52625e-05
-1.50705e-05
-3.50525e-05
-3.72793e-05
-2.41102e-05
-3.30564e-05
-2.79628e-05
-0.000363607
2.2574e-05
-0.000373844
2.27861e-05
-0.000383942
2.3056e-05
-0.000393898
2.33866e-05
-0.000403708
2.37785e-05
-0.000413369
2.42298e-05
-0.000422876
2.47348e-05
-0.000432223
2.52839e-05
-0.000441405
2.58626e-05
-0.00045041
2.64507e-05
-0.000459227
2.70219e-05
-0.000467839
2.75424e-05
-0.000476227
2.79714e-05
-0.000484363
2.82595e-05
-0.000492216
2.83495e-05
-0.000499745
2.81761e-05
-0.000506902
2.76669e-05
-0.00051363
2.67431e-05
-0.000519858
2.53227e-05
-0.000525505
2.33168e-05
-0.000530477
2.06445e-05
-0.000534662
1.72257e-05
-0.000537938
1.29877e-05
-0.00054016
7.87673e-06
-0.000541169
1.84962e-06
-0.000540799
-5.04505e-06
-0.000538862
-1.28392e-05
-0.000535156
-2.14469e-05
-0.00052947
-3.07472e-05
-0.000521589
-4.05573e-05
-0.000511292
-5.06787e-05
-0.000498378
-6.08143e-05
-0.000482625
-7.07178e-05
-0.00046389
-7.993e-05
-0.000441938
-8.83156e-05
-0.000416784
-9.51465e-05
-0.000388085
-0.000100804
-0.000356227
-0.000103773
-0.000320454
-0.000106046
-0.000282024
-0.000103975
-0.000239
-0.000103543
-0.000194517
-9.61053e-05
-0.000143777
-9.65591e-05
-9.35008e-05
-8.55385e-05
-3.2178e-05
-9.86021e-05
-9.39635e-05
-0.000360226
3.28642e-05
-0.00037038
3.29397e-05
-0.000380393
3.30692e-05
-0.000390262
3.32558e-05
-0.000399984
3.35004e-05
-0.000409555
3.38005e-05
-0.00041897
3.415e-05
-0.000428224
3.45381e-05
-0.00043731
3.49484e-05
-0.000446218
3.53586e-05
-0.000454935
3.57393e-05
-0.000463446
3.60532e-05
-0.000471729
3.62547e-05
-0.000479759
3.62894e-05
-0.000487503
3.60935e-05
-0.000494921
3.55943e-05
-0.000501965
3.47108e-05
-0.000508577
3.33546e-05
-0.000514687
3.14325e-05
-0.000520214
2.88442e-05
-0.000525064
2.54944e-05
-0.000529127
2.12885e-05
-0.000532279
1.61395e-05
-0.000534377
9.97513e-06
-0.000535264
2.73658e-06
-0.000534774
-5.53506e-06
-0.000532721
-1.4892e-05
-0.000528904
-2.52641e-05
-0.000523113
-3.65379e-05
-0.000515137
-4.85331e-05
-0.000504756
-6.10602e-05
-0.000491771
-7.37996e-05
-0.000475961
-8.65276e-05
-0.000457186
-9.87049e-05
-0.000435212
-0.00011029
-0.000410053
-0.000120306
-0.000381367
-0.00012949
-0.00034954
-0.0001356
-0.00031381
-0.000141775
-0.000275438
-0.000142346
-0.000232472
-0.000146509
-0.000188061
-0.000140516
-0.000137379
-0.00014724
-8.72013e-05
-0.000135717
-2.59879e-05
-0.000159816
-0.000154632
-0.000355187
4.30342e-05
-0.000365219
4.29714e-05
-0.000375108
4.29585e-05
-0.000384852
4.29991e-05
-0.000394445
4.30941e-05
-0.000403886
4.32408e-05
-0.000413168
4.34322e-05
-0.000422286
4.36565e-05
-0.000431234
4.38956e-05
-0.00044
4.41249e-05
-0.000448573
4.43119e-05
-0.000456935
4.44158e-05
-0.000465067
4.43866e-05
-0.000472942
4.41643e-05
-0.000480527
4.36789e-05
-0.000487783
4.28502e-05
-0.000494661
4.1589e-05
-0.000501104
3.97971e-05
-0.000507041
3.737e-05
-0.000512393
3.41963e-05
-0.000517065
3.01664e-05
-0.000520949
2.51717e-05
-0.00052392
1.91107e-05
-0.000525837
1.18927e-05
-0.000526544
3.4436e-06
-0.000525878
-6.20167e-06
-0.000523653
-1.71171e-05
-0.000519669
-2.92474e-05
-0.000513721
-4.24863e-05
-0.000505598
-5.66557e-05
-0.000495084
-7.15749e-05
-0.000481981
-8.69022e-05
-0.000466072
-0.000102436
-0.000447219
-0.000117558
-0.000425188
-0.00013232
-0.000399996
-0.000145498
-0.0003713
-0.000158186
-0.000339487
-0.000167413
-0.000303789
-0.000177473
-0.000265473
-0.000180662
-0.000222566
-0.000189416
-0.00017824
-0.000184842
-0.000127633
-0.000197848
-7.75909e-05
-0.000185758
-1.64612e-05
-0.000220945
-0.000214874
-0.000348511
5.30469e-05
-0.000358383
5.28436e-05
-0.000368111
5.2686e-05
-0.00037769
5.25781e-05
-0.000387116
5.25206e-05
-0.000396386
5.25108e-05
-0.000405495
5.2541e-05
-0.000414437
5.2598e-05
-0.000423203
5.26622e-05
-0.000431785
5.27065e-05
-0.000440169
5.26957e-05
-0.000448338
5.25853e-05
-0.000456272
5.23208e-05
-0.000463945
5.18369e-05
-0.000471323
5.10573e-05
-0.000478368
4.98945e-05
-0.000485029
4.82508e-05
-0.000491251
4.60186e-05
-0.000496964
4.30824e-05
-0.000502087
3.93195e-05
-0.000506527
3.46063e-05
-0.000510175
2.88205e-05
-0.000512911
2.18459e-05
-0.000514592
1.3574e-05
-0.000515064
3.91532e-06
-0.000514166
-7.09974e-06
-0.000511714
-1.95688e-05
-0.000507511
-3.345e-05
-0.000501354
-4.8644e-05
-0.000493035
-6.49745e-05
-0.00048234
-8.22701e-05
-0.000469075
-0.000100166
-0.000453027
-0.000118485
-0.000434058
-0.000136528
-0.000411938
-0.00015444
-0.000386685
-0.000170751
-0.000357957
-0.000186914
-0.000326141
-0.000199229
-0.000290464
-0.00021315
-0.000252202
-0.000218925
-0.000209355
-0.000232263
-0.000165129
-0.000229068
-0.000114612
-0.000248365
-6.47445e-05
-0.000235626
-3.04179e-06
-0.000282648
-0.000273881
-0.000340223
6.28661e-05
-0.000349899
6.25199e-05
-0.000359428
6.22149e-05
-0.000368805
6.19553e-05
-0.000378027
6.17422e-05
-0.000387088
6.15722e-05
-0.000395985
6.14372e-05
-0.000404709
6.13227e-05
-0.000413255
6.12074e-05
-0.00042161
6.1062e-05
-0.000429763
6.08484e-05
-0.000437696
6.05184e-05
-0.000445388
6.0013e-05
-0.000452813
5.92618e-05
-0.000459938
5.81822e-05
-0.000466723
5.66796e-05
-0.00047312
5.46478e-05
-0.000479071
5.19698e-05
-0.000484508
4.85194e-05
-0.000489351
4.41626e-05
-0.000493507
3.87622e-05
-0.000496869
3.21823e-05
-0.000499315
2.42923e-05
-0.000500707
1.49659e-05
-0.000500891
4.09897e-06
-0.000499709
-8.28165e-06
-0.000496979
-2.22987e-05
-0.000492507
-3.79224e-05
-0.000486091
-5.506e-05
-0.000477528
-7.3537e-05
-0.000466608
-9.31906e-05
-0.00045314
-0.000113635
-0.000436912
-0.000134712
-0.000417792
-0.000155648
-0.000395553
-0.000176678
-0.000370213
-0.000196091
-0.000341432
-0.000215695
-0.000309599
-0.000231062
-0.000273933
-0.000248816
-0.000235723
-0.000257136
-0.000192938
-0.000275047
-0.000148827
-0.000273179
-9.84168e-05
-0.000298775
-4.87738e-05
-0.000285269
1.1739e-05
-0.000343161
-0.000333286
-0.000330355
7.2457e-05
-0.0003398
7.19652e-05
-0.000349095
7.15096e-05
-0.000358234
7.1095e-05
-0.000367214
7.07224e-05
-0.00037603
7.03882e-05
-0.000384677
7.00835e-05
-0.000393147
6.97926e-05
-0.000401432
6.94926e-05
-0.000409522
6.91519e-05
-0.000417403
6.87295e-05
-0.000425058
6.81736e-05
-0.000432466
6.7421e-05
-0.0004396
6.63959e-05
-0.000446427
6.50096e-05
-0.000452908
6.31604e-05
-0.000458994
6.07338e-05
-0.000464628
5.76036e-05
-0.000469742
5.36331e-05
-0.000474256
4.86769e-05
-0.000478079
4.25848e-05
-0.000481104
3.52075e-05
-0.000483211
2.63999e-05
-0.000484264
1.60184e-05
-0.00048411
3.94481e-06
-0.000482594
-9.79678e-06
-0.000479538
-2.53555e-05
-0.000474748
-4.27124e-05
-0.000468027
-6.17806e-05
-0.000459177
-8.23873e-05
-0.000447989
-0.000104378
-0.000434277
-0.000127346
-0.000417835
-0.000151155
-0.000398531
-0.000174951
-0.000376144
-0.000199066
-0.000350693
-0.000221543
-0.000321839
-0.000244549
-0.000289975
-0.000262926
-0.000254312
-0.000284479
-0.000216153
-0.000295295
-0.000173433
-0.000317767
-0.000129451
-0.000317161
-7.91654e-05
-0.00034906
-2.98181e-05
-0.000334617
2.98835e-05
-0.000402862
-0.000392617
-0.000318942
8.17861e-05
-0.000328122
8.11457e-05
-0.000337149
8.05363e-05
-0.000346017
7.99629e-05
-0.000354721
7.94267e-05
-0.000363257
7.89237e-05
-0.000371617
7.84443e-05
-0.000379796
7.79716e-05
-0.000387785
7.7481e-05
-0.000395572
7.69388e-05
-0.000403143
7.63009e-05
-0.000410482
7.55122e-05
-0.000417566
7.4505e-05
-0.000424368
7.31985e-05
-0.000430857
7.1498e-05
-0.000436991
6.92945e-05
-0.000442723
6.64656e-05
-0.000447995
6.28761e-05
-0.000452741
5.83786e-05
-0.000456881
5.28172e-05
-0.000460324
4.60282e-05
-0.000462966
3.78496e-05
-0.000464689
2.81221e-05
-0.000465355
1.66846e-05
-0.000464816
3.40619e-06
-0.000462922
-1.16907e-05
-0.000459493
-2.87846e-05
-0.000454342
-4.7864e-05
-0.000447274
-6.88486e-05
-0.000438094
-9.15667e-05
-0.0004266
-0.000115873
-0.000412609
-0.000141337
-0.000395918
-0.000167845
-0.000376401
-0.000194469
-0.00035384
-0.000221627
-0.000328255
-0.000247127
-0.000299311
-0.000273493
-0.000267405
-0.000294833
-0.000231737
-0.000320147
-0.000193629
-0.000333402
-0.000150978
-0.000360418
-0.00010714
-0.000360999
-5.69925e-05
-0.000399208
-8.23026e-06
-0.000383379
5.10847e-05
-0.000462177
-0.000451583
-0.000306024
-0.000314908
9.00296e-05
-0.000323635
8.92628e-05
-0.000332199
8.85267e-05
-0.000340594
8.78225e-05
-0.000348816
8.71458e-05
-0.000356859
8.64864e-05
-0.000364713
8.5826e-05
-0.00037237
8.51385e-05
-0.000379819
8.43878e-05
-0.000387046
8.35271e-05
-0.000394031
8.24979e-05
-0.000400755
8.12282e-05
-0.000407188
7.96321e-05
-0.000413299
7.76089e-05
-0.000419047
7.50427e-05
-0.000424385
7.18032e-05
-0.000429255
6.77464e-05
-0.000433591
6.27148e-05
-0.000437316
5.65413e-05
-0.000440337
4.90499e-05
-0.000442554
4.00659e-05
-0.000443847
2.94156e-05
-0.000444085
1.69224e-05
-0.000443118
2.43899e-06
-0.000440805
-1.40041e-05
-0.000436962
-3.26275e-05
-0.000431408
-5.34177e-05
-0.000423954
-7.6303e-05
-0.000414408
-0.000101112
-0.000402572
-0.000127709
-0.000388268
-0.000155641
-0.000371299
-0.000184814
-0.000351541
-0.000214226
-0.000328782
-0.000244387
-0.000303045
-0.000272864
-0.000273996
-0.000302542
-0.000242037
-0.000326792
-0.000206358
-0.000355826
-0.000168304
-0.000371456
-0.000125726
-0.000402997
-8.20477e-05
-0.000404677
-3.20331e-05
-0.000449223
1.66454e-05
-0.000432057
7.50394e-05
-0.000520571
-0.000510054
-0.000300203
9.85866e-05
-0.000308599
9.76589e-05
-0.000316828
9.67562e-05
-0.000324885
9.58794e-05
-0.000332763
9.5024e-05
-0.000340456
9.41788e-05
-0.000347954
9.33246e-05
-0.000355249
9.24334e-05
-0.000362328
9.14669e-05
-0.000369177
9.03757e-05
-0.000375777
8.90976e-05
-0.000382105
8.75568e-05
-0.000388135
8.56621e-05
-0.000393834
8.33072e-05
-0.00039916
8.03693e-05
-0.000404067
7.67103e-05
-0.000408499
7.21777e-05
-0.000412388
6.66038e-05
-0.000415658
5.98113e-05
-0.000418219
5.16115e-05
-0.000419971
4.18176e-05
-0.000420796
3.02409e-05
-0.000420568
1.66941e-05
-0.000419133
1.00418e-06
-0.000416363
-1.67739e-05
-0.000412068
-3.69224e-05
-0.000406076
-5.94097e-05
-0.000398201
-8.41787e-05
-0.000388255
-0.000111058
-0.000376046
-0.000139917
-0.000361401
-0.000170286
-0.000344127
-0.000202088
-0.000324105
-0.000234249
-0.000301128
-0.000267364
-0.000275221
-0.00029877
-0.000246055
-0.000331708
-0.000214035
-0.000358812
-0.000178341
-0.000391519
-0.000140343
-0.000409454
-9.78437e-05
-0.000445497
-5.43425e-05
-0.000448178
-4.19426e-06
-0.000499371
4.40474e-05
-0.000480299
0.000101547
-0.000578071
-0.00056795
-0.000284052
0.000106789
-0.00029209
0.000105697
-0.000299957
0.000104623
-0.000307647
0.00010357
-0.000315154
0.00010253
-0.000322468
0.000101494
-0.000329583
0.000100439
-0.000336486
9.9337e-05
-0.000343166
9.81471e-05
-0.000349608
9.68171e-05
-0.000355792
9.52815e-05
-0.000361695
9.34603e-05
-0.000367291
9.12577e-05
-0.000372545
8.85614e-05
-0.000377418
8.52421e-05
-0.000381862
8.11542e-05
-0.000385821
7.61366e-05
-0.000389229
7.00121e-05
-0.000392011
6.25931e-05
-0.000394078
5.36786e-05
-0.00039533
4.30701e-05
-0.000395653
3.05638e-05
-0.000394916
1.59573e-05
-0.000392995
-9.17223e-07
-0.000389727
-2.00417e-05
-0.000384947
-4.17022e-05
-0.000378485
-6.58722e-05
-0.000370157
-9.25065e-05
-0.000359783
-0.000121432
-0.000347174
-0.000152527
-0.000332161
-0.000185298
-0.00031456
-0.00021969
-0.000294253
-0.000254555
-0.000271041
-0.000290576
-0.000244951
-0.00032486
-0.000215657
-0.000361002
-0.00018357
-0.000390899
-0.000147859
-0.00042723
-0.000109922
-0.00044739
-6.75083e-05
-0.000487911
-2.42183e-05
-0.000491468
2.54379e-05
-0.000549027
7.37216e-05
-0.000528583
0.000130425
-0.000634774
-0.00062521
-0.000266505
0.000114611
-0.000274159
0.000113351
-0.000281639
0.000112103
-0.000288937
0.000110868
-0.000296046
0.000109639
-0.000302957
0.000108405
-0.000309662
0.000107144
-0.000316149
0.000105824
-0.000322404
0.000104402
-0.000328412
0.000102825
-0.000334154
0.000101023
-0.000339605
9.89119e-05
-0.000344739
9.63914e-05
-0.000349521
9.33437e-05
-0.000353912
8.9633e-05
-0.000357864
8.51061e-05
-0.000361322
7.95941e-05
-0.00036422
7.29102e-05
-0.000366483
6.48568e-05
-0.000368026
5.52211e-05
-0.000368749
4.37932e-05
-0.000368539
3.03538e-05
-0.000367269
1.46871e-05
-0.000364822
-3.36365e-06
-0.000361032
-2.38323e-05
-0.000355738
-4.69954e-05
-0.000348778
-7.28327e-05
-0.000339972
-0.000101313
-0.000329144
-0.00013226
-0.000316111
-0.000165559
-0.00030071
-0.000200699
-0.000282762
-0.000237638
-0.000262155
-0.000275163
-0.000238694
-0.000314037
-0.00021241
-0.000351143
-0.000182981
-0.000390432
-0.000150824
-0.000423057
-0.000115095
-0.000462959
-7.72236e-05
-0.000485262
-3.49019e-05
-0.000530233
8.12393e-06
-0.000534494
5.75538e-05
-0.000598457
0.000105583
-0.000576612
0.000161492
-0.000690683
-0.000681782
-0.000247609
0.000122029
-0.000254856
0.000120598
-0.000261925
0.000119172
-0.000268809
0.000117751
-0.000275498
0.000116328
-0.000281984
0.000114891
-0.000288257
0.000113417
-0.000294305
0.000111871
-0.000300113
0.000110211
-0.000305665
0.000108377
-0.000310941
0.000106299
-0.000315918
0.000103888
-0.000320566
0.00010104
-0.000324853
9.76305e-05
-0.000328738
9.35178e-05
-0.000332173
8.85417e-05
-0.000335105
8.25253e-05
-0.000337467
7.52728e-05
-0.000339188
6.6577e-05
-0.00034018
5.62135e-05
-0.000340348
4.39613e-05
-0.00033958
2.95859e-05
-0.000337753
1.28599e-05
-0.000334753
-6.36389e-06
-0.000330415
-2.817e-05
-0.000324585
-5.28253e-05
-0.000317104
-8.0314e-05
-0.000307798
-0.000110619
-0.000296495
-0.000143563
-0.00028302
-0.000179034
-0.000267214
-0.000216505
-0.000248904
-0.000255947
-0.000227983
-0.000296085
-0.000204263
-0.000337757
-0.000177778
-0.000377628
-0.000148208
-0.000420001
-0.000115979
-0.000455285
-8.02341e-05
-0.000498704
-4.24338e-05
-0.000523062
7.96414e-08
-0.000572746
4.26691e-05
-0.000577083
9.17487e-05
-0.000647537
0.000139463
-0.000624327
0.000194566
-0.000745786
-0.000737626
-0.00022741
0.000129022
-0.000234231
0.000127419
-0.00024087
0.000125812
-0.000247319
0.0001242
-0.00025357
0.000122579
-0.000259612
0.000120933
-0.000265434
0.000119239
-0.000271023
0.000117461
-0.000276365
0.000115553
-0.000281443
0.000113454
-0.000286235
0.000111091
-0.000290717
0.000108371
-0.000294861
0.000105184
-0.000298632
0.000101402
-0.000301991
9.68765e-05
-0.00030489
9.14407e-05
-0.000307274
8.49098e-05
-0.000309081
7.70794e-05
-0.000310237
6.77329e-05
-0.000310658
5.66348e-05
-0.00031025
4.35535e-05
-0.000308904
2.82396e-05
-0.000306498
1.0454e-05
-0.000302924
-9.93804e-06
-0.000298019
-3.30748e-05
-0.000291634
-5.92107e-05
-0.000283613
-8.83347e-05
-0.000273789
-0.000120443
-0.000261996
-0.000155355
-0.000248064
-0.000192966
-0.00023184
-0.00023273
-0.000213157
-0.00027463
-0.000191912
-0.00031733
-0.000167926
-0.000361742
-0.000141235
-0.00040432
-0.000111523
-0.000449713
-7.92226e-05
-0.000487586
-4.34644e-05
-0.000534462
-5.75702e-06
-0.000560769
3.63584e-05
-0.000614862
7.9019e-05
-0.000619744
0.000127805
-0.000696322
0.000175178
-0.0006717
0.000229466
-0.000800074
-0.000792706
-0.000205954
0.000135574
-0.000212331
0.000133796
-0.000218523
0.000132004
-0.000224522
0.000130199
-0.000230318
0.000128374
-0.000235899
0.000126515
-0.000241255
0.000124595
-0.000246372
0.000122577
-0.000251232
0.000120414
-0.00025582
0.000118042
-0.000260112
0.000115383
-0.000264085
0.000112343
-0.000267709
0.000108808
-0.000270949
0.000104642
-0.000273766
9.96936e-05
-0.000276113
9.37871e-05
-0.000277934
8.67314e-05
-0.000279169
7.83136e-05
-0.000279744
6.83081e-05
-0.000279578
5.64688e-05
-0.000278577
4.25533e-05
-0.000276637
2.62987e-05
-0.000273635
7.45261e-06
-0.000269472
-1.41009e-05
-0.000263985
-3.8562e-05
-0.00025703
-6.61659e-05
-0.000248456
-9.69084e-05
-0.000238102
-0.000130797
-0.000225807
-0.000167651
-0.000211407
-0.000207366
-0.000194755
-0.000249383
-0.000175692
-0.000293692
-0.000154118
-0.000338904
-0.000129863
-0.000385998
-0.000102962
-0.00043122
-7.31082e-05
-0.000479568
-4.07397e-05
-0.000519954
-4.9686e-06
-0.000570234
3.26568e-05
-0.000598395
7.46336e-05
-0.000656838
0.000117051
-0.000662161
0.000165527
-0.000744798
0.000212542
-0.000718715
0.000266009
-0.000853542
-0.000846995
-0.000183281
0.000141669
-0.000189199
0.000139714
-0.000194931
0.000137736
-0.000200467
0.000135735
-0.000205795
0.000133702
-0.000210905
0.000131625
-0.000215783
0.000129473
-0.000220415
0.000127209
-0.000224783
0.000124782
-0.000228869
0.000122128
-0.000232651
0.000119165
-0.000236103
0.000115795
-0.000239196
0.0001119
-0.000241894
0.000107341
-0.000244158
0.000101958
-0.000245941
9.55697e-05
-0.000247188
8.79788e-05
-0.000247838
7.8964e-05
-0.000247821
6.8291e-05
-0.000247056
5.57035e-05
-0.000245451
4.09482e-05
-0.000242905
2.37525e-05
-0.000239294
3.84187e-06
-0.000234534
-1.8861e-05
-0.000228454
-4.46424e-05
-0.000220918
-7.37012e-05
-0.000211782
-0.000106045
-0.000200889
-0.00014169
-0.000188084
-0.000180455
-0.000173211
-0.000222239
-0.000156126
-0.000266468
-0.000136679
-0.000313138
-0.000114773
-0.00036081
-9.02475e-05
-0.000410523
-6.31395e-05
-0.000458328
-3.31461e-05
-0.000509561
-7.13957e-07
-0.000552386
3.50535e-05
-0.000606001
7.25882e-05
-0.000635929
0.000114426
-0.000698676
0.000156583
-0.000704317
0.000204728
-0.000792944
0.000251371
-0.000765357
0.000304015
-0.000906186
-0.000900468
-0.000159427
0.000147297
-0.000164876
0.000145164
-0.000170138
0.000142998
-0.000175201
0.000140798
-0.000180054
0.000138555
-0.000184683
0.000136254
-0.000189075
0.000133865
-0.000193214
0.000131348
-0.000197083
0.000128651
-0.000200661
0.000125706
-0.000203925
0.00012243
-0.00020685
0.00011872
-0.000209404
0.000114455
-0.000211554
0.000109491
-0.000213258
0.000103662
-0.00021447
9.67815e-05
-0.000215136
8.86447e-05
-0.000215195
7.90233e-05
-0.000214579
6.76744e-05
-0.000213207
5.4332e-05
-0.000210989
3.87303e-05
-0.000207831
2.05948e-05
-0.000203608
-3.81832e-07
-0.000198243
-2.4226e-05
-0.000191562
-5.13234e-05
-0.000183441
-8.18222e-05
-0.000173737
-0.000115748
-0.000162301
-0.000153126
-0.000148983
-0.000193773
-0.000133634
-0.000237588
-0.000116114
-0.000283988
-9.6284e-05
-0.000332969
-7.40471e-05
-0.000383047
-4.92537e-05
-0.000435317
-2.19413e-05
-0.00048564
8.18651e-06
-0.000539689
4.06758e-05
-0.000584875
7.6436e-05
-0.000641761
0.000113865
-0.000673358
0.000155552
-0.000740364
0.000197434
-0.0007462
0.000245227
-0.000840737
0.000291486
-0.000811616
0.000343311
-0.000958012
-0.000953109
-0.000134422
0.000152448
-0.000139396
0.000150138
-0.000144181
0.000147783
-0.000148766
0.000145383
-0.000153137
0.000142926
-0.000157282
0.000140399
-0.000161184
0.000137767
-0.000164828
0.000134991
-0.000168194
0.000132016
-0.000171261
0.000128773
-0.000174005
0.000125174
-0.000176399
0.000121115
-0.000178413
0.000116469
-0.000180012
0.000111089
-0.000181154
0.000104803
-0.000181792
9.742e-05
-0.000181874
8.87269e-05
-0.00018134
7.84891e-05
-0.000180122
6.64558e-05
-0.000178141
5.23517e-05
-0.000175309
3.58976e-05
-0.000171522
1.68079e-05
-0.000166713
-5.19042e-06
-0.000160725
-3.02139e-05
-0.000153443
-5.8606e-05
-0.000144735
-9.053e-05
-0.000134463
-0.00012602
-0.000122485
-0.000165104
-0.000108654
-0.000207604
-9.28303e-05
-0.000253412
-7.48785e-05
-0.00030194
-5.46678e-05
-0.000353179
-3.21042e-05
-0.000405611
-7.04815e-06
-0.000460373
2.04624e-05
-0.000513151
5.0717e-05
-0.000569943
8.32555e-05
-0.000617414
0.000119
-0.000677505
0.000156311
-0.00071067
0.000197835
-0.000781887
0.000239432
-0.000787797
0.000286849
-0.000888154
0.000332712
-0.000857479
0.000383726
-0.00100903
-0.00100491
-0.000108288
0.000157121
-0.000112784
0.000154633
-0.000117091
0.00015209
-0.000121197
0.000149489
-0.000125086
0.000146815
-0.000128746
0.000144059
-0.00013216
0.00014118
-0.000135308
0.00013814
-0.000138172
0.00013488
-0.000140729
0.00013133
-0.000142955
0.0001274
-0.000144821
0.000122981
-0.000146297
0.000117945
-0.000147346
0.000112138
-0.000147928
0.000105385
-0.000147995
9.74874e-05
-0.000147495
8.82274e-05
-0.00014637
7.73636e-05
-0.000144552
6.46373e-05
-0.000141965
4.97651e-05
-0.000138519
3.24516e-05
-0.000134123
1.24116e-05
-0.000128699
-1.06138e-05
-0.000122107
-3.6806e-05
-0.000114225
-6.64877e-05
-0.000104934
-9.98215e-05
-9.40978e-05
-0.000136856
-8.15802e-05
-0.000177622
-6.72419e-05
-0.000221942
-5.09487e-05
-0.000269705
-3.25707e-05
-0.000320318
-1.19861e-05
-0.000373764
1.08973e-05
-0.000428494
3.62074e-05
-0.000485683
6.39076e-05
-0.000540851
9.42803e-05
-0.000600316
0.000126858
-0.000649992
0.000162575
-0.000713222
0.00019976
-0.000747855
0.000241104
-0.000823232
0.000282407
-0.000829099
0.000329426
-0.000935173
0.000374884
-0.000902936
0.000425097
-0.00105924
-0.00105585
-8.10426e-05
-8.50615e-05
0.000158652
-8.88924e-05
0.000155921
-9.25223e-05
0.000153119
-9.59338e-05
0.000150227
-9.91132e-05
0.000147238
-0.000102042
0.000144109
-0.000104701
0.000140799
-0.000107069
0.000137248
-0.000109122
0.000133383
-0.000110836
0.000129113
-0.00011218
0.000124325
-0.000113124
0.000118888
-0.00011363
0.000112645
-0.000113658
0.000105413
-0.000113161
9.69903e-05
-0.000112087
8.71527e-05
-0.000110376
7.56534e-05
-0.000107965
6.22256e-05
-0.000104778
4.65784e-05
-0.000100726
2.84e-05
-9.57246e-05
7.40973e-06
-8.96969e-05
-1.66416e-05
-8.25046e-05
-4.39982e-05
-7.40322e-05
-7.49601e-05
-6.41643e-05
-0.000109689
-5.27716e-05
-0.000148248
-3.97231e-05
-0.000190671
-2.48853e-05
-0.00023678
-8.13144e-06
-0.000286459
1.06635e-05
-0.000339113
3.16116e-05
-0.000394712
5.48042e-05
-0.000451687
8.03587e-05
-0.000511238
0.000108238
-0.00056873
0.000138718
-0.000630796
0.000171324
-0.000682598
0.000207002
-0.0007489
0.000244049
-0.000784902
0.000285199
-0.000864382
0.000326199
-0.0008701
0.000372801
-0.000981774
0.000417841
-0.000947977
0.000467268
-0.00110867
-0.00110594
-5.62391e-05
0.000162201
-5.96012e-05
0.000159283
-6.27632e-05
0.000156281
-6.57053e-05
0.000153169
-6.84134e-05
0.000149946
-7.08676e-05
0.000146563
-7.3047e-05
0.000142978
-7.49291e-05
0.00013913
-7.64896e-05
0.000134944
-7.77014e-05
0.000130325
-7.85351e-05
0.000125159
-7.89577e-05
0.000119311
-7.89327e-05
0.000112619
-7.84183e-05
0.000104899
-7.7368e-05
9.59399e-05
-7.57295e-05
8.55142e-05
-7.34458e-05
7.33697e-05
-7.04519e-05
5.92317e-05
-6.66751e-05
4.28016e-05
-6.20324e-05
2.37573e-05
-5.64321e-05
1.80941e-06
-4.98143e-05
-2.32594e-05
-4.20317e-05
-5.17807e-05
-3.298e-05
-8.40119e-05
-2.25472e-05
-0.000120122
-1.0609e-05
-0.000160187
2.95948e-06
-0.000204239
1.82831e-05
-0.000252103
3.54843e-05
-0.00030366
5.46837e-05
-0.000358312
7.59835e-05
-0.000416012
9.94729e-05
-0.000475176
0.000125259
-0.000537023
0.000153304
-0.000596776
0.000183878
-0.000661369
0.000216501
-0.000715221
0.000252126
-0.000784526
0.000289026
-0.000821802
0.000329965
-0.000905321
0.000370657
-0.000910792
0.000416821
-0.00102794
0.000461435
-0.000992591
0.000510093
-0.00115732
-0.00115517
-2.63193e-05
0.000165291
-2.92252e-05
0.000162189
-3.1933e-05
0.000158989
-3.4419e-05
0.000155655
-3.66703e-05
0.000152198
-3.86644e-05
0.000148558
-4.03792e-05
0.000144693
-4.17909e-05
0.000140542
-4.28737e-05
0.000136027
-4.35997e-05
0.000131051
-4.39382e-05
0.000125498
-4.38557e-05
0.000119228
-4.3315e-05
0.000112079
-4.22741e-05
0.000103858
-4.06863e-05
9.43521e-05
-3.84997e-05
8.33277e-05
-3.5658e-05
7.0528e-05
-3.20978e-05
5.56715e-05
-2.77472e-05
3.8451e-05
-2.25165e-05
1.85266e-05
-1.6357e-05
-4.35014e-06
-9.15121e-06
-3.04652e-05
-7.87641e-07
-6.01443e-05
8.82091e-06
-9.36204e-05
1.98025e-05
-0.000131104
3.22696e-05
-0.000172654
4.63401e-05
-0.00021831
6.21369e-05
-0.0002679
7.97707e-05
-0.000321294
9.9359e-05
-0.0003779
0.000120994
-0.000437647
0.000144765
-0.000498947
0.000170767
-0.000563025
0.000198964
-0.000624974
0.000229617
-0.000692022
0.000262243
-0.000747847
0.000297803
-0.000820085
0.000334545
-0.000858544
0.000375257
-0.000946034
0.000415636
-0.000951171
0.000461345
-0.00107365
0.000505522
-0.00103677
0.00055343
-0.00120523
-0.00120355
4.70486e-06
0.000167941
2.23714e-06
0.000164657
-2.06199e-08
0.000161247
-2.08478e-06
0.000157719
-3.89959e-06
0.000154012
-5.45378e-06
0.000150112
-6.72427e-06
0.000145964
-7.6859e-06
0.000141504
-8.31162e-06
0.000136652
-8.57223e-06
0.000131311
-8.43619e-06
0.000125362
-7.8691e-06
0.000118661
-6.83322e-06
0.000111043
-5.28616e-06
0.000102311
-3.18078e-06
9.22468e-05
-4.60279e-07
8.06072e-05
2.91314e-06
6.71546e-05
7.01872e-06
5.15659e-05
1.19237e-05
3.35461e-05
1.77111e-05
1.27392e-05
2.44294e-05
-1.10685e-05
3.21923e-05
-3.82281e-05
4.11043e-05
-6.90563e-05
5.12641e-05
-0.00010378
6.2776e-05
-0.000142616
7.57535e-05
-0.000185631
9.03082e-05
-0.000232864
0.000106558
-0.00028415
0.000124605
-0.000339341
0.000144563
-0.000397859
0.000166516
-0.0004596
0.000190551
-0.000522982
0.000216751
-0.000589225
0.000245084
-0.000653307
0.000275801
-0.000722738
0.000308416
-0.000780463
0.000343894
-0.000855563
0.000380469
-0.000895119
0.000420939
-0.000986503
0.000461001
-0.000991233
0.000506239
-0.00111888
0.00054997
-0.0010805
0.00059715
-0.00125241
-0.00125108
3.68491e-05
0.000170175
3.47931e-05
0.000166713
3.29318e-05
0.000163108
3.12919e-05
0.000159359
2.98892e-05
0.000155415
2.87492e-05
0.000151252
2.78973e-05
0.000146816
2.73599e-05
0.000142041
2.71655e-05
0.000136847
2.73444e-05
0.000131132
2.79294e-05
0.000124777
2.89554e-05
0.000117635
3.04609e-05
0.000109537
3.24885e-05
0.000100283
3.50852e-05
8.96501e-05
3.83026e-05
7.73898e-05
4.21946e-05
6.32625e-05
4.6823e-05
4.69375e-05
5.22572e-05
2.81119e-05
5.85794e-05
6.41697e-06
6.58302e-05
-1.83193e-05
7.41294e-05
-4.65274e-05
8.35722e-05
-7.84991e-05
9.42528e-05
-0.000114461
0.000106271
-0.000154634
0.000119736
-0.000199096
0.000134752
-0.00024788
0.000151432
-0.000300829
0.000169871
-0.00035778
0.000190178
-0.000418167
0.000212427
-0.000481849
0.000236706
-0.00054726
0.000263085
-0.000615604
0.000291536
-0.000681758
0.000322299
-0.000753502
0.00035489
-0.000813054
0.000390271
-0.000890943
0.00042667
-0.000931519
0.00046688
-0.00102671
0.000506624
-0.00103098
0.000551379
-0.00116364
0.000594655
-0.00112378
0.000641128
-0.00129888
-0.00129777
7.01395e-05
0.000172026
6.84632e-05
0.000168389
6.6981e-05
0.00016459
6.57182e-05
0.000160622
6.46948e-05
0.000156438
6.39372e-05
0.000152009
6.34719e-05
0.000147281
6.33272e-05
0.000142186
6.35328e-05
0.000136641
6.41203e-05
0.000130545
6.51233e-05
0.000123774
6.65779e-05
0.000116181
6.85227e-05
0.000107593
7.10009e-05
9.78049e-05
7.40597e-05
8.65913e-05
7.77506e-05
7.36988e-05
8.21262e-05
5.8887e-05
8.72491e-05
4.18147e-05
9.31794e-05
2.21816e-05
0.000100011
-4.14265e-07
0.000107764
-2.60732e-05
0.000116574
-5.53364e-05
0.000126519
-8.84444e-05
0.000137693
-0.000125635
0.000150192
-0.000167133
0.000164117
-0.000213022
0.000179568
-0.000263332
0.000196653
-0.000317914
0.000215458
-0.000376585
0.00023609
-0.000438799
0.000258612
-0.000504371
0.000283112
-0.00057176
0.000309651
-0.000642142
0.0003382
-0.000710307
0.000368992
-0.000784293
0.000401543
-0.000845605
0.00043681
-0.000926211
0.000473026
-0.000967735
0.00051296
-0.00106665
0.000552385
-0.0010704
0.000596647
-0.0012079
0.00063946
-0.00116659
0.00068525
-0.00134467
-0.00134363
0.00010461
0.000173534
0.000103273
0.000169726
0.000102129
0.000165734
0.000101205
0.000161547
0.000100521
0.000157122
0.000100108
0.000152423
9.9991e-05
0.000147397
0.000100201
0.000141975
0.00010077
0.000136073
0.000101729
0.000129585
0.000103114
0.000122389
0.000104962
0.000114333
0.00010731
0.000105244
0.000110204
9.49111e-05
0.000113691
8.31049e-05
0.000117821
6.95685e-05
0.000122646
5.40618e-05
0.00012823
3.62313e-05
0.000134645
1.57666e-05
0.000141911
-7.68081e-06
0.000150157
-3.43193e-05
0.000159443
-6.46218e-05
0.000169859
-9.88611e-05
0.000181496
-0.000137272
0.000194444
-0.00018008
0.0002088
-0.000227378
0.000224657
-0.000279189
0.000242118
-0.000335375
0.000261261
-0.000395728
0.000282192
-0.00045973
0.000304962
-0.000527141
0.00032966
-0.000596458
0.000356334
-0.000668817
0.000384962