/*--------------------------------*- C++ -*----------------------------------*\
  =========                 |
  \\      /  F ield         | OpenFOAM: The Open Source CFD Toolbox
   \\    /   O peration     | Website:  https://openfoam.org
    \\  /    A nd           | Version:  7
     \\/     M anipulation  |
\*---------------------------------------------------------------------------*/
FoamFile
{
    version     2.0;
    format      ascii;
    class       volVectorField;
    location    "35";
    object      U;
}
// * * * * * * * * * * * * * * * * * * * * * * * * * * * * * * * * * * * * * //

dimensions      [0 1 -1 0 0 0 0];

internalField   nonuniform List<vector> 
8500
(
(-0.1859 0.00134816 -1.88262e-21)
(-0.191451 0.0013946 4.17563e-22)
(-0.196947 0.00144956 1.09509e-21)
(-0.20239 0.00151274 1.74342e-23)
(-0.207776 0.00158358 -2.04113e-21)
(-0.213104 0.00166115 2.33543e-21)
(-0.218374 0.00174411 -1.04777e-21)
(-0.223582 0.00183068 5.19216e-22)
(-0.228727 0.00191862 -1.0284e-21)
(-0.233803 0.00200512 9.08303e-22)
(-0.238807 0.00208685 -1.74269e-22)
(-0.24373 0.00215993 -3.35967e-22)
(-0.248564 0.00221995 -8.43175e-22)
(-0.253296 0.00226201 1.05411e-21)
(-0.257912 0.0022808 1.08391e-21)
(-0.262394 0.00227069 -1.01389e-21)
(-0.266717 0.00222599 -6.30464e-22)
(-0.270854 0.00214104 5.14193e-23)
(-0.27477 0.00201084 -2.03424e-22)
(-0.278427 0.00182966 6.44216e-22)
(-0.281776 0.00159457 -4.83851e-22)
(-0.284763 0.00130289 4.63974e-22)
(-0.287322 0.000952972 -8.0824e-22)
(-0.289382 0.000546759 -2.8841e-22)
(-0.290856 8.75739e-05 9.31667e-23)
(-0.291657 -0.000416564 -4.03849e-23)
(-0.291684 -0.000959661 -1.40507e-22)
(-0.29083 -0.00152798 -9.42616e-22)
(-0.288969 -0.00210591 9.65674e-22)
(-0.285992 -0.0026743 6.78702e-22)
(-0.28175 -0.0032132 -2.74114e-22)
(-0.276152 -0.0037002 7.70415e-23)
(-0.269023 -0.00411298 -2.63936e-22)
(-0.260314 -0.00442672 -4.36113e-22)
(-0.249839 -0.00462399 -7.71133e-22)
(-0.237558 -0.00468496 -5.21496e-22)
(-0.223449 -0.00460496 4.70315e-22)
(-0.207111 -0.00436061 -5.83469e-22)
(-0.189515 -0.00398529 4.58328e-22)
(-0.168291 -0.00344145 -1.42742e-22)
(-0.148351 -0.00282828 2.20725e-22)
(-0.120254 -0.00207844 2.17761e-22)
(-0.101135 -0.00140949 5.9819e-23)
(-0.0612336 -0.000678678 -2.03359e-22)
(-0.0494065 -0.000430561 -7.30652e-25)
(0.0138483 -0.000170034 1.54575e-23)
(-0.185168 0.00337012 -2.27388e-21)
(-0.190694 0.00334859 1.81595e-21)
(-0.196166 0.00333708 1.47251e-21)
(-0.201582 0.00333534 -6.35364e-23)
(-0.206942 0.00334278 -5.70168e-21)
(-0.212245 0.00335841 6.06553e-21)
(-0.217487 0.00338076 -4.11088e-21)
(-0.222668 0.00340786 -1.56896e-21)
(-0.227784 0.00343718 3.31731e-22)
(-0.232832 0.0034656 2.43411e-22)
(-0.237805 0.00348938 -4.85533e-21)
(-0.242697 0.00350416 6.82185e-21)
(-0.247499 0.00350501 -3.69422e-22)
(-0.252198 0.00348639 -6.25812e-21)
(-0.25678 0.00344232 1.61996e-21)
(-0.261226 0.00336642 1.4244e-21)
(-0.265512 0.00325216 -2.12656e-21)
(-0.26961 0.00309298 1.2664e-21)
(-0.273487 0.00288281 2.73682e-21)
(-0.277102 0.00261531 -2.48392e-21)
(-0.280408 0.00228616 1.875e-21)
(-0.28335 0.00189168 -1.30994e-21)
(-0.285863 0.00142956 6.37406e-22)
(-0.287877 0.000900365 8.89226e-22)
(-0.289305 0.000306954 1.8123e-22)
(-0.290059 -0.000344483 -6.58675e-23)
(-0.290041 -0.00104689 -6.44081e-22)
(-0.289142 -0.0017876 -1.86575e-23)
(-0.287239 -0.00255077 1.31379e-21)
(-0.284224 -0.00331638 -1.16346e-21)
(-0.279949 -0.00406426 -3.07639e-21)
(-0.274323 -0.00476858 2.21234e-22)
(-0.267173 -0.00540851 5.17721e-22)
(-0.25845 -0.00595125 -2.3955e-22)
(-0.247968 -0.00638714 3.07894e-22)
(-0.235691 -0.00667345 -7.02156e-22)
(-0.221592 -0.00683601 -4.0924e-22)
(-0.205273 -0.00679242 1.24142e-21)
(-0.1877 -0.00666597 -1.16609e-21)
(-0.166507 -0.00626515 1.14658e-22)
(-0.146595 -0.00592854 -7.35339e-22)
(-0.11853 -0.00521966 -6.88347e-22)
(-0.0994367 -0.00492023 1.23998e-22)
(-0.0595582 -0.00409062 5.81393e-22)
(-0.047758 -0.00450208 1.60813e-22)
(0.0154122 -0.00414846 6.61113e-23)
(-0.183713 0.00537779 1.14417e-20)
(-0.189191 0.00528834 -8.1896e-21)
(-0.194615 0.00521039 -4.02128e-23)
(-0.199983 0.00514375 4.18703e-21)
(-0.205293 0.00508781 -8.8179e-22)
(-0.210544 0.00504152 -1.33202e-21)
(-0.215735 0.00500328 7.49888e-21)
(-0.220863 0.0049709 -2.23117e-21)
(-0.225925 0.0049416 3.57178e-21)
(-0.230916 0.00491192 3.40159e-22)
(-0.235832 0.00487773 -2.54295e-21)
(-0.240666 0.00483421 -5.58959e-22)
(-0.245406 0.00477586 7.58738e-21)
(-0.250043 0.00469655 -1.26025e-21)
(-0.25456 0.0045896 -3.14938e-21)
(-0.258938 0.0044479 6.55039e-22)
(-0.263154 0.00426408 8.05376e-22)
(-0.26718 0.0040307 -3.898e-21)
(-0.270983 0.00374066 5.0239e-21)
(-0.274521 0.00338685 -4.23762e-21)
(-0.277748 0.00296374 -3.48597e-21)
(-0.280608 0.00246664 2.17017e-21)
(-0.283038 0.00189239 4.82012e-21)
(-0.284966 0.00124026 -2.36214e-21)
(-0.286308 0.000512586 4.13546e-22)
(-0.286976 -0.000284904 -2.67624e-21)
(-0.286872 -0.00114621 1.602e-21)
(-0.28589 -0.00205864 -1.10433e-21)
(-0.283906 -0.00300623 -3.84603e-21)
(-0.280814 -0.00396804 1.60494e-21)
(-0.276468 -0.00492371 3.46167e-22)
(-0.270778 -0.0058443 2.66611e-21)
(-0.263571 -0.00671012 3.90576e-22)
(-0.254803 -0.00748048 3.14806e-21)
(-0.244284 -0.00815333 -1.52381e-21)
(-0.231984 -0.00866393 2.67941e-21)
(-0.21787 -0.00906782 -1.13824e-21)
(-0.201552 -0.00922388 -1.41139e-21)
(-0.183984 -0.00934556 1.00118e-21)
(-0.162813 -0.00908693 -9.73706e-22)
(-0.142921 -0.00902698 -5.51244e-23)
(-0.114887 -0.00835863 1.33001e-21)
(-0.0958201 -0.00842963 -4.70168e-22)
(-0.0559737 -0.0074994 -5.55989e-22)
(-0.0442227 -0.00856814 -1.66974e-22)
(0.018781 -0.00811867 -1.35352e-22)
(-0.181538 0.00736249 3.28736e-21)
(-0.186946 0.00720523 2.08891e-21)
(-0.192299 0.00706093 8.21892e-21)
(-0.197594 0.00692945 -1.55563e-21)
(-0.202831 0.00681019 -7.97423e-21)
(-0.208008 0.006702 8.2959e-21)
(-0.213122 0.00660317 -1.07871e-21)
(-0.218172 0.00651132 -7.07303e-21)
(-0.223153 0.00642338 -2.28208e-21)
(-0.228063 0.00633558 3.05855e-21)
(-0.232895 0.00624338 -1.86263e-21)
(-0.237641 0.00614149 8.17345e-21)
(-0.242293 0.00602389 -1.16535e-20)
(-0.246837 0.00588383 3.7735e-21)
(-0.251259 0.00571396 -4.26545e-21)
(-0.255538 0.00550641 2.69908e-21)
(-0.259653 0.005253 3.27984e-21)
(-0.263574 0.00494541 -2.71827e-21)
(-0.267268 0.00457558 -5.12422e-21)
(-0.270694 0.00413551 3.25607e-21)
(-0.273806 0.00361856 -2.78849e-22)
(-0.276548 0.00301904 -4.13876e-21)
(-0.278858 0.00233288 -1.91367e-21)
(-0.280664 0.00155818 -3.84074e-22)
(-0.281881 0.000696759 -2.5624e-21)
(-0.282424 -0.000246081 4.47775e-21)
(-0.282196 -0.00126561 6.43773e-22)
(-0.281091 -0.00234888 1.97507e-21)
(-0.278988 -0.00347978 2.11706e-21)
(-0.275782 -0.0046365 -1.63594e-22)
(-0.271327 -0.00579848 2.19829e-22)
(-0.265538 -0.00693376 -5.69056e-21)
(-0.258241 -0.00802371 8.877e-22)
(-0.249396 -0.00901982 5.11996e-22)
(-0.23881 -0.00992752 3.10317e-21)
(-0.226462 -0.0106607 1.92584e-22)
(-0.212308 -0.0113041 -7.88202e-22)
(-0.195974 -0.0116581 1.05904e-21)
(-0.178392 -0.0120266 -1.18244e-21)
(-0.157235 -0.0119087 1.55585e-21)
(-0.137352 -0.0121252 1.00734e-21)
(-0.10935 -0.0114959 -3.87376e-22)
(-0.0903119 -0.0119381 1.9829e-21)
(-0.0505071 -0.0109039 5.07347e-22)
(-0.0388253 -0.0126368 6.96679e-22)
(0.0239307 -0.0120641 1.0441e-22)
(-0.178647 0.00931568 -1.49774e-20)
(-0.183963 0.00909078 1.29897e-20)
(-0.189222 0.00888028 -3.50613e-21)
(-0.194422 0.00868408 1.34982e-21)
(-0.199562 0.00850157 -1.22552e-20)
(-0.20464 0.00833154 2.507e-21)
(-0.209654 0.00817216 5.48579e-21)
(-0.214601 0.00802082 3.0183e-21)
(-0.219478 0.00787423 -1.71953e-21)
(-0.22428 0.00772826 3.08201e-21)
(-0.229001 0.00757799 -7.66228e-21)
(-0.233633 0.00741767 7.5748e-22)
(-0.238168 0.00724074 9.60194e-21)
(-0.242591 0.00703985 1.18263e-21)
(-0.246888 0.00680697 1.91259e-21)
(-0.25104 0.0065335 -1.06542e-20)
(-0.255021 0.00621044 -1.71742e-22)
(-0.258806 0.00582863 7.21155e-21)
(-0.262358 0.00537904 -2.1615e-21)
(-0.265639 0.0048528 -2.00366e-21)
(-0.268601 0.00424215 6.13016e-21)
(-0.271189 0.00354047 -6.94047e-21)
(-0.273342 0.00274276 -3.17563e-21)
(-0.274989 0.00184599 3.61371e-21)
(-0.276044 0.000851665 1.56139e-21)
(-0.276425 -0.00023593 9.40421e-22)
(-0.276036 -0.00141274 -6.30966e-21)
(-0.274771 -0.00266571 5.64364e-21)
(-0.272512 -0.00397854 -1.55365e-21)
(-0.269154 -0.00532859 1.59138e-21)
(-0.264556 -0.00669508 -1.09682e-21)
(-0.258633 -0.00804303 1.19111e-21)
(-0.251213 -0.00935493 -2.3394e-21)
(-0.24226 -0.0105745 -8.95979e-22)
(-0.23158 -0.0117146 -4.43133e-21)
(-0.219158 -0.012668 -2.83952e-21)
(-0.204942 -0.0135486 4.93182e-21)
(-0.188575 -0.0140981 4.31918e-21)
(-0.170963 -0.0147117 -1.56614e-21)
(-0.149811 -0.0147322 2.80687e-21)
(-0.129929 -0.0152246 -2.44909e-21)
(-0.101959 -0.0146321 1.03788e-21)
(-0.0829524 -0.015446 -1.23592e-21)
(-0.0432016 -0.0143032 1.33494e-22)
(-0.031603 -0.0167254 -1.04344e-22)
(0.0308245 -0.0159593 9.43757e-23)
(-0.175044 0.0112291 -1.43789e-20)
(-0.180246 0.0109368 -6.29893e-21)
(-0.185389 0.0106603 2.62739e-20)
(-0.190472 0.0103995 -1.01174e-20)
(-0.195493 0.0101539 -4.85605e-21)
(-0.20045 0.00992212 2.54668e-20)
(-0.20534 0.00970222 -1.15945e-21)
(-0.21016 0.00949143 -1.67754e-20)
(-0.214907 0.00928615 2.42796e-20)
(-0.219577 0.00908197 -2.34094e-20)
(-0.224161 0.00887356 9.46554e-22)
(-0.228654 0.00865471 -3.42513e-21)
(-0.233045 0.00841834 5.86804e-21)
(-0.23732 0.00815652 -3.17152e-21)
(-0.241464 0.00786054 -1.25265e-21)
(-0.245457 0.00752105 5.36676e-21)
(-0.249276 0.0071283 8.77439e-21)
(-0.252892 0.00667224 -5.79918e-22)
(-0.256272 0.00614293 -5.58193e-21)
(-0.259374 0.00553061 -7.77603e-21)
(-0.262153 0.00482647 -1.92236e-21)
(-0.264554 0.00402294 3.48467e-21)
(-0.266516 0.00311412 1.21273e-20)
(-0.267967 0.00209589 3.37942e-21)
(-0.268826 0.000969668 -1.23731e-20)
(-0.269009 -0.000262003 1.34126e-20)
(-0.268422 -0.00159488 7.52477e-23)
(-0.266962 -0.00301615 -4.72425e-21)
(-0.26451 -0.00450926 -6.97777e-22)
(-0.260967 -0.00605073 -3.70811e-22)
(-0.256191 -0.00761959 -4.39536e-21)
(-0.250103 -0.00917783 8.73519e-21)
(-0.242528 -0.0107091 3.34154e-21)
(-0.233439 -0.0121494 -3.17699e-21)
(-0.222637 -0.013519 4.73434e-21)
(-0.210119 -0.0146897 -2.67307e-21)
(-0.195817 -0.0158046 -2.67434e-21)
(-0.179402 -0.0165468 -6.33529e-21)
(-0.161744 -0.0174031 1.88556e-21)
(-0.140592 -0.0175591 -3.79897e-22)
(-0.120701 -0.0183265 2.34122e-21)
(-0.0927669 -0.0177673 -5.60464e-22)
(-0.0737948 -0.0189533 -1.45843e-21)
(-0.0341141 -0.0176957 -6.84255e-22)
(-0.0226013 -0.0207976 -2.23868e-22)
(0.0394175 -0.0198323 -1.96249e-22)
(-0.170734 0.0130946 1.21896e-20)
(-0.175801 0.0127353 1.78248e-20)
(-0.180808 0.0123931 5.49826e-21)
(-0.185752 0.012068 -1.2905e-20)
(-0.190631 0.0117594 3.66749e-21)
(-0.195444 0.011466 2.59689e-21)
(-0.200188 0.0111857 -1.31741e-20)
(-0.204859 0.0109155 3.45731e-22)
(-0.209453 0.0106515 2.53006e-20)
(-0.213966 0.0103891 -2.16095e-20)
(-0.21839 0.0101224 -1.04976e-22)
(-0.222718 0.00984497 2.22298e-20)
(-0.226938 0.00954906 -2.36839e-20)
(-0.231038 0.00922618 2.46364e-21)
(-0.235002 0.00886698 6.51542e-22)
(-0.23881 0.0084614 1.84683e-20)
(-0.242437 0.00799887 -2.8387e-20)
(-0.245856 0.00746857 1.73701e-20)
(-0.249032 0.00685959 -2.00795e-21)
(-0.251925 0.00616133 6.04547e-21)
(-0.25449 0.00536395 -7.86143e-21)
(-0.256671 0.00445895 -1.53831e-20)
(-0.258408 0.00343956 2.20219e-21)
(-0.259632 0.00230055 -4.27415e-21)
(-0.260259 0.00104349 -1.76328e-21)
(-0.260211 -0.000331333 1.40274e-22)
(-0.259392 -0.00181882 -5.47974e-21)
(-0.257702 -0.00340674 4.85358e-21)
(-0.255025 -0.00507822 1.06734e-21)
(-0.251264 -0.0068089 3.45958e-21)
(-0.246279 -0.00857764 -8.53172e-22)
(-0.239994 -0.0103434 -1.1408e-20)
(-0.232236 -0.012091 -6.27825e-21)
(-0.222984 -0.0137489 -8.96554e-22)
(-0.212034 -0.0153447 -4.05651e-21)
(-0.199399 -0.0167293 -2.32447e-22)
(-0.184992 -0.0180751 1.98701e-21)
(-0.168514 -0.0190065 6.76568e-22)
(-0.150795 -0.0201028 2.13294e-21)
(-0.129637 -0.0203906 -5.17547e-21)
(-0.109733 -0.0214318 1.93018e-21)
(-0.0818362 -0.0209017 7.47021e-23)
(-0.0629033 -0.0224593 6.10194e-22)
(-0.0233089 -0.0210758 1.81512e-22)
(-0.0118904 -0.0248121 -3.09997e-22)
(0.0496462 -0.0237201 -1.14217e-23)
(-0.165725 0.0149047 -2.51134e-20)
(-0.170636 0.0144788 -6.78136e-21)
(-0.175484 0.0140713 2.25566e-20)
(-0.180269 0.0136821 -2.29885e-20)
(-0.184986 0.0133109 1.98229e-20)
(-0.189634 0.012956 -1.21541e-20)
(-0.194209 0.0126154 -1.48086e-20)
(-0.198709 0.0122858 -1.39592e-21)
(-0.203128 0.0119631 1.44754e-20)
(-0.207461 0.0116424 -1.82833e-20)
(-0.211701 0.0113175 1.35122e-20)
(-0.21584 0.0109813 -6.99036e-21)
(-0.219866 0.0106257 1.26912e-20)
(-0.223766 0.0102416 -1.47593e-20)
(-0.227524 0.00981911 4.76619e-21)
(-0.23112 0.00934734 1.73768e-20)
(-0.234528 0.00881499 -1.61045e-20)
(-0.237722 0.00821044 -1.6491e-20)
(-0.240666 0.00752188 9.03235e-21)
(-0.243321 0.00673787 9.35073e-21)
(-0.245641 0.00584754 9.4603e-21)
(-0.247572 0.00484155 -4.7791e-21)
(-0.249054 0.00371222 7.63739e-22)
(-0.250018 0.0024532 4.29449e-21)
(-0.250382 0.00106672 4.04326e-21)
(-0.250071 -0.000450321 -2.17052e-21)
(-0.248989 -0.00209079 3.64643e-21)
(-0.247038 -0.00384351 2.63318e-22)
(-0.244104 -0.00569117 -1.44372e-21)
(-0.240095 -0.00760856 2.07694e-21)
(-0.23487 -0.00957436 9.32589e-21)
(-0.22836 -0.0115446 -8.47046e-22)
(-0.220392 -0.0135052 1.16496e-20)
(-0.210953 -0.0153771 -1.24948e-21)
(-0.199832 -0.0171952 6.87734e-21)
(-0.187061 -0.0187899 -2.99364e-21)
(-0.17253 -0.0203627 -3.6315e-21)
(-0.155978 -0.0214793 1.14486e-21)
(-0.138186 -0.0228123 1.08552e-21)
(-0.117018 -0.0232278 -3.16275e-22)
(-0.0970953 -0.0245412 -2.54427e-21)
(-0.0692405 -0.0240348 -2.39478e-22)
(-0.0503521 -0.0259633 3.2986e-21)
(-0.0108608 -0.0244338 -4.60627e-22)
(0.000452112 -0.0287876 -2.33875e-24)
(0.0614392 -0.0276049 -7.08217e-23)
(-0.16002 0.0166521 -6.53808e-21)
(-0.164756 0.0161601 -1.82041e-20)
(-0.169427 0.0156877 3.25789e-21)
(-0.174032 0.015235 1.63448e-20)
(-0.178567 0.0148013 -7.33372e-21)
(-0.183029 0.0143852 8.51439e-22)
(-0.187416 0.0139844 -1.21314e-20)
(-0.191723 0.0135956 9.39799e-21)
(-0.195945 0.0132143 1.0774e-20)
(-0.200078 0.0128352 7.93708e-21)
(-0.204112 0.012452 -2.35043e-20)
(-0.208039 0.012057 3.14632e-20)
(-0.211848 0.0116416 -1.55491e-20)
(-0.215525 0.0111963 1.47864e-20)
(-0.219052 0.0107103 -9.62899e-21)
(-0.222411 0.0101723 1.70682e-20)
(-0.225575 0.00957007 2.44363e-21)
(-0.228518 0.00889128 8.0775e-21)
(-0.231203 0.00812327 -1.22091e-20)
(-0.233593 0.00725372 -1.71039e-20)
(-0.23564 0.00627082 4.35162e-21)
(-0.237292 0.00516437 8.55624e-21)
(-0.23849 0.00392581 1.01452e-20)
(-0.239166 0.00254784 -7.15813e-21)
(-0.239239 0.00103602 -6.15743e-21)
(-0.238634 -0.00062461 -1.72803e-20)
(-0.237259 -0.00241643 1.09849e-20)
(-0.235018 -0.00433183 -2.68861e-21)
(-0.2318 -0.00635323 -5.54347e-21)
(-0.227514 -0.00845456 1.2765e-21)
(-0.222023 -0.0106143 -1.35664e-20)
(-0.215264 -0.0127856 -4.74947e-21)
(-0.207061 -0.0149553 -3.80276e-21)
(-0.197413 -0.0170373 5.49114e-21)
(-0.1861 -0.0190735 -6.08012e-21)
(-0.173177 -0.020874 2.02776e-21)
(-0.158506 -0.0226695 7.12419e-22)
(-0.141869 -0.0239668 -4.2372e-22)
(-0.123993 -0.025533 2.64036e-21)
(-0.102813 -0.0260711 -9.13332e-22)
(-0.0828688 -0.027655 -1.99106e-21)
(-0.055062 -0.0271664 -2.79361e-21)
(-0.0362233 -0.0294682 -4.58281e-21)
(0.00314413 -0.0277751 -8.21154e-22)
(0.0143412 -0.0327265 -1.36206e-21)
(0.074718 -0.0314668 1.68572e-22)
(-0.158168 0.0177726 -8.99786e-21)
(-0.162643 0.0172359 4.88967e-21)
(-0.167049 0.01672 -7.61825e-22)
(-0.171382 0.0162243 5.92143e-21)
(-0.17564 0.0157473 -6.22502e-21)
(-0.179819 0.0152867 7.29842e-21)
(-0.183914 0.0148387 -3.57662e-21)
(-0.18792 0.0143989 9.24254e-22)
(-0.191831 0.0139615 -5.8084e-21)
(-0.195639 0.0135199 1.08627e-20)
(-0.199334 0.013066 3.19163e-21)
(-0.202904 0.0125908 -4.97681e-21)
(-0.206335 0.0120841 -2.74501e-20)
(-0.20961 0.0115346 6.47612e-21)
(-0.212709 0.0109302 -4.5986e-21)
(-0.215606 0.0102581 1.00307e-20)
(-0.218273 0.00950518 -1.70479e-20)
(-0.220675 0.00865786 2.14921e-20)
(-0.222774 0.00770307 -1.61147e-21)
(-0.224524 0.00662802 -2.62922e-21)
(-0.225871 0.00542175 -6.32751e-21)
(-0.226759 0.00407473 -7.21406e-22)
(-0.227119 0.00257929 -7.3773e-21)
(-0.226874 0.000951865 1.40438e-20)
(-0.22595 -0.000859268 7.48615e-21)
(-0.224256 -0.00280074 8.96899e-21)
(-0.221699 -0.00487642 -1.80225e-20)
(-0.218169 -0.00706888 3.54405e-21)
(-0.213582 -0.00935108 1.41678e-21)
(-0.207801 -0.0117013 2.73292e-21)
(-0.200769 -0.0140699 5.35507e-21)
(-0.19231 -0.0164447 2.60833e-21)
(-0.182435 -0.0187324 5.28592e-21)
(-0.170913 -0.0209821 5.85422e-21)
(-0.157822 -0.0229836 -6.91172e-21)
(-0.142997 -0.0249971 1.00067e-20)
(-0.126268 -0.0264702 9.80287e-22)
(-0.108301 -0.0282655 -8.75893e-21)
(-0.0871073 -0.0289207 5.79647e-21)
(-0.0671411 -0.0307727 6.29857e-22)
(-0.0393899 -0.0302956 4.11452e-21)
(-0.0206072 -0.032981 9.36298e-22)
(0.0186155 -0.0311069 6.4587e-22)
(0.0296876 -0.0366134 6.74019e-22)
(0.089396 -0.0352979 -3.53139e-22)
(-0.150878 0.01931 3.51863e-20)
(-0.155139 0.0187097 -4.62895e-20)
(-0.159328 0.0181312 -1.93074e-20)
(-0.163443 0.0175741 5.26177e-20)
(-0.167478 0.0170366 4.2642e-22)
(-0.171431 0.0165164 -2.14926e-20)
(-0.175296 0.0160095 1.65727e-20)
(-0.179067 0.0155113 -6.4097e-21)
(-0.182738 0.0150158 -1.3805e-20)
(-0.1863 0.0145158 6.05051e-21)
(-0.189744 0.014003 -2.24659e-20)
(-0.193055 0.0134679 3.42107e-20)
(-0.196221 0.0128997 -1.16697e-20)
(-0.199224 0.0122866 -1.31561e-21)
(-0.202041 0.0116159 1.02616e-20)
(-0.20465 0.0108739 -5.07698e-21)
(-0.207019 0.0100469 -1.44346e-22)
(-0.209116 0.00912049 -7.79357e-21)
(-0.210902 0.00808079 6.62945e-21)
(-0.21233 0.00691411 1.32212e-20)
(-0.21335 0.00560871 -1.05317e-20)
(-0.213904 0.00415409 1.50948e-20)
(-0.213922 0.00254232 -3.93805e-21)
(-0.213337 0.000793243 -2.01074e-20)
(-0.212072 -0.00115917 1.61322e-20)
(-0.210033 -0.00324797 -1.49168e-21)
(-0.207136 -0.00548129 3.4612e-21)
(-0.203273 -0.00784187 -1.08491e-20)
(-0.198362 -0.0103016 1.53062e-20)
(-0.19227 -0.0128386 -7.37628e-21)
(-0.184946 -0.0154005 -1.04401e-21)
(-0.176213 -0.0179759 -9.19028e-21)
(-0.166093 -0.0204647 -8.77897e-21)
(-0.154347 -0.0229228 -1.10982e-21)
(-0.141077 -0.0251204 2.16962e-21)
(-0.126089 -0.0273467 -1.2931e-20)
(-0.109262 -0.0289902 -3.96404e-21)
(-0.0911968 -0.0310102 5.45706e-21)
(-0.0699924 -0.0317763 -1.40231e-21)
(-0.0500047 -0.0338933 2.79273e-21)
(-0.02232 -0.0334203 -4.07179e-21)
(-0.00359875 -0.0364898 -1.92706e-21)
(0.0354585 -0.034435 1.24533e-21)
(0.0463964 -0.040449 1.02263e-21)
(0.105381 -0.0390941 2.62472e-22)
(-0.142891 0.0207668 -1.04319e-20)
(-0.146921 0.0201037 -5.96838e-21)
(-0.150877 0.0194634 -8.60646e-21)
(-0.154756 0.0188454 2.29978e-20)
(-0.158552 0.018248 2.19816e-20)
(-0.162262 0.0176686 -3.54419e-20)
(-0.16588 0.0171031 5.37093e-20)
(-0.1694 0.0165467 -1.8393e-20)
(-0.172815 0.0159931 -1.87378e-20)
(-0.176114 0.0154349 9.66337e-21)
(-0.179288 0.0148632 4.46091e-21)
(-0.182324 0.0142682 -4.04686e-21)
(-0.185207 0.0136385 -1.48834e-20)
(-0.187918 0.0129618 7.57119e-21)
(-0.190436 0.0122247 1.12694e-20)
(-0.192736 0.0114129 8.25209e-21)
(-0.194789 0.010512 -4.1238e-21)
(-0.196561 0.00950673 -2.87262e-21)
(-0.198013 0.00838253 -1.00877e-21)
(-0.1991 0.0071248 -6.73881e-21)
(-0.199771 0.00572108 3.17783e-21)
(-0.199969 0.00415983 -1.78261e-20)
(-0.199625 0.00243262 2.62303e-20)
(-0.198679 0.000548952 -2.61818e-21)
(-0.197051 -0.00152792 -7.63499e-21)
(-0.194647 -0.00376159 -1.46032e-20)
(-0.19139 -0.00614969 1.80428e-21)
(-0.187174 -0.00867522 -2.78562e-21)
(-0.181921 -0.011309 1.37616e-21)
(-0.1755 -0.0140287 7.51708e-21)
(-0.167868 -0.0167795 -5.90365e-21)
(-0.158845 -0.0195508 9.90317e-21)
(-0.148468 -0.0222357 2.02266e-21)
(-0.136485 -0.0248969 -7.53574e-22)
(-0.123029 -0.0272852 5.70587e-21)
(-0.107868 -0.0297187 1.78229e-20)
(-0.0909402 -0.0315269 2.45644e-21)
(-0.0727739 -0.0337668 6.45889e-21)
(-0.0515622 -0.0346373 2.63261e-21)
(-0.0315558 -0.0370182 -4.59425e-21)
(-0.00394978 -0.0365351 1.36692e-21)
(0.0147003 -0.0399813 4.62112e-21)
(0.0535703 -0.0377625 -1.99996e-21)
(0.06437 -0.0442372 -5.18752e-22)
(0.122576 -0.0428514 3.69358e-23)
(-0.134209 0.0221379 3.99298e-21)
(-0.137993 0.021413 3.59013e-20)
(-0.141701 0.0207118 -1.99227e-20)
(-0.145329 0.0200337 -6.73938e-21)
(-0.148871 0.0193769 -1.32046e-21)
(-0.152324 0.0187388 -1.12136e-20)
(-0.15568 0.0181152 5.16664e-20)
(-0.158933 0.017501 -3.38216e-20)
(-0.162076 0.0168895 8.2741e-21)
(-0.165097 0.0162731 -2.95596e-20)
(-0.167987 0.0156426 5.77356e-21)
(-0.170731 0.0149877 1.92923e-20)
(-0.173314 0.0142965 -8.25001e-21)
(-0.175718 0.0135563 -5.51353e-21)
(-0.17792 0.0127528 1.00706e-20)
(-0.179896 0.0118714 -9.30048e-21)
(-0.181615 0.0108967 -8.70732e-22)
(-0.183044 0.00981293 1.13812e-20)
(-0.184145 0.00860471 -9.13703e-21)
(-0.184872 0.0072566 2.08113e-20)
(-0.185177 0.00575545 -7.65411e-22)
(-0.185002 0.00408872 -2.34761e-21)
(-0.184279 0.00224779 -1.13553e-20)
(-0.182951 0.000233541 -1.18494e-20)
(-0.180943 -0.00196817 4.22121e-21)
(-0.178156 -0.00434423 7.15583e-21)
(-0.174523 -0.00688412 8.23809e-21)
(-0.169937 -0.00957121 7.44757e-21)
(-0.164327 -0.0123752 -2.00053e-21)
(-0.157562 -0.0152734 -5.13156e-21)
(-0.149608 -0.0182085 4.24575e-21)
(-0.140284 -0.0211706 1.8733e-21)
(-0.12964 -0.0240463 7.70998e-22)
(-0.117411 -0.0269049 -1.91223e-21)
(-0.103762 -0.0294782 1.59003e-21)
(-0.0884232 -0.0321131 -3.22734e-21)
(-0.0713951 -0.0340799 -1.95864e-21)
(-0.0531266 -0.0365346 -5.68935e-21)
(-0.0319135 -0.0375025 -3.0646e-21)
(-0.0118926 -0.0401546 3.35995e-21)
(0.0156209 -0.0396334 3.97309e-21)
(0.0341876 -0.0434573 -4.07155e-21)
(0.0728461 -0.0410781 1.0209e-21)
(0.0835074 -0.0479773 1.217e-21)
(0.140885 -0.0465658 -1.8644e-22)
(-0.124833 0.023419 -3.88225e-21)
(-0.128358 0.0226335 -3.22245e-21)
(-0.131804 0.0218723 -3.32372e-20)
(-0.135167 0.021135 4.78226e-20)
(-0.138442 0.0204197 -3.62997e-20)
(-0.141623 0.0197235 6.87824e-20)
(-0.144705 0.0190423 -4.04766e-20)
(-0.147678 0.0183706 3.36665e-20)
(-0.150536 0.0177015 -1.61398e-20)
(-0.153266 0.0170272 -8.137e-21)
(-0.155858 0.016338 -1.60154e-20)
(-0.158297 0.0156233 4.02967e-20)
(-0.160567 0.0148707 -2.74461e-21)
(-0.162649 0.0140669 -1.18751e-20)
(-0.164521 0.0131973 9.95437e-21)
(-0.166158 0.0122463 -3.59665e-22)
(-0.167529 0.0111981 -2.25299e-20)
(-0.168601 0.0100362 -7.36003e-21)
(-0.169335 0.00874454 1.73125e-21)
(-0.169689 0.00730681 -2.0197e-21)
(-0.169611 0.00570925 -7.07797e-21)
(-0.169048 0.00393829 1.17248e-20)
(-0.167932 0.00198549 -1.42388e-22)
(-0.166207 -0.000152609 -8.65919e-21)
(-0.163802 -0.00248197 -3.87824e-21)
(-0.16062 -0.00499775 -2.54547e-21)
(-0.156596 -0.00768629 -3.34022e-21)
(-0.151627 -0.0105313 -2.52989e-21)
(-0.145647 -0.0135015 4.1259e-21)
(-0.138528 -0.0165737 5.15526e-21)
(-0.130242 -0.0196883 -4.7407e-21)
(-0.120607 -0.0228358 -6.4243e-21)
(-0.109689 -0.0258969 1.04295e-20)
(-0.0972091 -0.0289469 -5.90828e-21)
(-0.083365 -0.0316992 -1.02052e-20)
(-0.0678454 -0.0345294 -3.22537e-21)
(-0.0507193 -0.0366482 -3.85787e-21)
(-0.03235 -0.0393125 -5.1757e-21)
(-0.0111449 -0.0403698 -3.5474e-21)
(0.00888653 -0.0432904 -4.74714e-22)
(0.0362927 -0.0427254 -5.64714e-21)
(0.0547606 -0.0469167 3.73399e-21)
(0.0931802 -0.0443753 -1.08008e-23)
(0.103706 -0.051667 -2.37482e-23)
(0.160207 -0.0502334 5.19977e-22)
(-0.114762 0.0246063 2.67439e-20)
(-0.118014 0.0237615 2.55914e-20)
(-0.121186 0.0229417 -7.29542e-21)
(-0.124273 0.0221462 -3.69963e-20)
(-0.127269 0.0213731 6.16318e-21)
(-0.130168 0.0206198 -2.49852e-20)
(-0.132963 0.0198815 4.71937e-20)
(-0.135646 0.0191528 -3.71041e-20)
(-0.138207 0.0184265 1.62473e-20)
(-0.140635 0.0176945 1.85453e-20)
(-0.142917 0.0169469 -2.17141e-20)
(-0.14504 0.0161725 1.62592e-21)
(-0.146986 0.0153587 -3.97412e-20)
(-0.148735 0.0144915 3.26334e-20)
(-0.150266 0.0135558 3.43144e-20)
(-0.151551 0.0125355 -3.37647e-20)
(-0.152562 0.0114142 -1.44555e-20)
(-0.153265 0.0101746 5.36179e-20)
(-0.153621 0.00880007 -2.98176e-20)
(-0.153588 0.00727356 -2.51717e-20)
(-0.153116 0.00558067 -6.59704e-21)
(-0.152153 0.00370689 4.55308e-21)
(-0.150631 0.00164461 -3.51831e-21)
(-0.148498 -0.000614481 -7.59112e-21)
(-0.145684 -0.00307061 -5.82614e-22)
(-0.142095 -0.00572324 9.6458e-21)
(-0.13767 -0.00855713 -8.06496e-21)
(-0.132309 -0.0115563 3.4477e-21)
(-0.12595 -0.0146884 -1.44975e-20)
(-0.118468 -0.01793 2.99559e-21)
(-0.109844 -0.021219 3.78239e-21)
(-0.0998919 -0.0245463 2.28166e-21)
(-0.0886971 -0.0277871 -1.72874e-21)
(-0.075963 -0.0310221 5.30923e-21)
(-0.0619242 -0.0339473 -7.25525e-21)
(-0.0462245 -0.0369663 6.69491e-21)
(-0.0290054 -0.0392306 6.31893e-21)
(-0.0105392 -0.042099 6.96195e-21)
(0.0106474 -0.0432374 9.25113e-22)
(0.0306807 -0.046413 -3.47137e-21)
(0.0579632 -0.0458162 2.10059e-21)
(0.0763198 -0.0503588 4.25004e-22)
(0.114468 -0.0476514 8.47014e-22)
(0.124864 -0.055304 -2.48837e-21)
(0.180443 -0.0538505 -8.02275e-23)
(-0.10399 0.0256969 1.40826e-21)
(-0.106959 0.0247943 -2.30854e-20)
(-0.109847 0.0239171 -1.26537e-20)
(-0.112647 0.0230647 -1.27433e-20)
(-0.115354 0.022235 -5.97246e-21)
(-0.117962 0.0214253 -1.34778e-20)
(-0.120461 0.0206307 4.64837e-22)
(-0.122844 0.0198456 4.34134e-21)
(-0.125099 0.0190627 -1.53613e-20)
(-0.127216 0.0182734 2.97814e-20)
(-0.12918 0.0174676 -2.28949e-20)
(-0.130978 0.0166338 3.34754e-21)
(-0.13259 0.0157589 2.05658e-20)
(-0.133998 0.0148286 -3.78072e-20)
(-0.135178 0.013827 3.23207e-20)
(-0.136103 0.0127377 -2.05555e-20)
(-0.136745 0.0115436 3.67962e-20)
(-0.137069 0.0102268 -4.52519e-21)
(-0.137038 0.00877015 -1.19628e-20)
(-0.136608 0.00715578 -5.93539e-21)
(-0.135733 0.0053687 5.36889e-20)
(-0.13436 0.00339385 -2.9342e-20)
(-0.132424 0.00123051 1.37875e-20)
(-0.129874 -0.00115343 -2.50011e-21)
(-0.126642 -0.0037346 -3.2093e-22)
(-0.12264 -0.00652103 4.6602e-21)
(-0.117806 -0.00949684 -5.75873e-21)
(-0.112046 -0.0126463 1.22867e-20)
(-0.105303 -0.0159359 1.53613e-20)
(-0.0974525 -0.0193418 -3.89434e-21)
(-0.0884874 -0.0228001 -2.03447e-20)
(-0.0782164 -0.0263013 1.44031e-20)
(-0.0667441 -0.0297159 -6.977e-21)
(-0.0537559 -0.0331295 -1.89866e-20)
(-0.0395258 -0.0362211 1.29621e-20)
(-0.0236491 -0.0394221 -1.01929e-20)
(-0.00634461 -0.041825 -7.23135e-21)
(0.012212 -0.0448917 -4.77766e-21)
(0.0333681 -0.0461036 -4.81984e-21)
(0.0533924 -0.0495278 4.49707e-21)
(0.0805325 -0.0488937 1.37079e-21)
(0.098766 -0.0537805 -4.15738e-21)
(0.136607 -0.0509038 -1.37515e-21)
(0.14688 -0.058886 1.66564e-21)
(0.201496 -0.0574134 -2.87898e-22)
(-0.0925071 0.0266885 -6.13913e-20)
(-0.0951845 0.0257298 5.80233e-20)
(-0.0977793 0.0247969 -4.43555e-20)
(-0.100286 0.0238889 -1.77771e-20)
(-0.102697 0.0230037 3.72991e-20)
(-0.105005 0.0221388 4.1798e-20)
(-0.107201 0.0212888 -5.72689e-20)
(-0.109277 0.020448 4.37034e-20)
(-0.11122 0.019609 -3.73413e-20)
(-0.113019 0.0187629 6.36695e-21)
(-0.114659 0.0178993 3.22461e-20)
(-0.116124 0.0170064 2.49881e-21)
(-0.117397 0.0160707 -4.80708e-21)
(-0.118456 0.0150774 2.58099e-21)
(-0.119279 0.0140103 3.13762e-21)
(-0.119838 0.0128523 -1.55657e-22)
(-0.120104 0.0115858 5.95719e-21)
(-0.120043 0.0101925 -1.11604e-20)
(-0.119618 0.00865444 -4.69836e-21)
(-0.118786 0.00695322 -1.19422e-20)
(-0.117501 0.00507311 2.43804e-21)
(-0.115712 0.00299947 -4.24901e-21)
(-0.113356 0.000753607 -4.61374e-21)
(-0.110385 -0.00176949 1.42783e-21)
(-0.10673 -0.00447373 2.01783e-20)
(-0.102308 -0.00739071 -5.96173e-21)
(-0.0970626 -0.0105049 -2.91268e-21)
(-0.0908993 -0.0138003 7.32956e-21)
(-0.0837699 -0.017243 -2.58933e-21)
(-0.0755506 -0.0208081 -4.15024e-21)
(-0.0662439 -0.0244301 -1.17249e-20)
(-0.0556549 -0.0280993 1.32285e-20)
(-0.0439077 -0.0316816 -3.90698e-21)
(-0.0306689 -0.035267 1.26944e-20)
(-0.0162536 -0.0385186 -2.59512e-22)
(-0.000205844 -0.0418948 9.33765e-21)
(0.017174 -0.044429 8.57854e-21)
(0.0358121 -0.0476879 -4.64095e-21)
(0.0569235 -0.0489657 4.09344e-21)
(0.0769265 -0.0526344 1.44886e-21)
(0.103903 -0.0519526 2.30872e-21)
(0.122003 -0.057178 2.20016e-21)
(0.159497 -0.0541295 -4.34148e-22)
(0.169655 -0.062411 1.95405e-21)
(0.223268 -0.0609187 6.91085e-23)
(-0.0802994 0.0275796 8.29876e-21)
(-0.0826785 0.0265669 9.75657e-21)
(-0.0849744 0.0255799 -1.56534e-20)
(-0.0871807 0.024618 5.13725e-20)
(-0.0892898 0.0236787 -5.39317e-20)
(-0.0912934 0.0227596 3.11706e-20)
(-0.0931825 0.0218553 -3.63258e-20)
(-0.0949463 0.0209597 1.84535e-20)
(-0.0965732 0.0200652 3.36508e-21)
(-0.0980497 0.0191628 -1.6732e-20)
(-0.0993612 0.0182419 3.68662e-21)
(-0.100491 0.0172902 8.53501e-21)
(-0.10142 0.0162941 2.80482e-21)
(-0.102128 0.0152382 -1.55792e-21)
(-0.10259 0.0141059 -1.70687e-20)
(-0.102779 0.0128796 -1.90749e-20)
(-0.102665 0.0115413 2.23978e-20)
(-0.102216 0.0100721 -2.42424e-20)
(-0.101393 0.00845344 -5.77957e-21)
(-0.100156 0.00666645 2.96082e-20)
(-0.0984583 0.00469448 2.43784e-20)
(-0.0962449 0.00252337 -2.78115e-20)
(-0.0934714 0.000170011 2.34645e-20)
(-0.0900807 -0.00246341 -1.44201e-21)
(-0.0859967 -0.00528703 -4.65988e-21)
(-0.0811543 -0.00833115 9.51601e-21)
(-0.0754954 -0.0115799 -3.80313e-21)
(-0.0689296 -0.0150171 -1.15043e-20)
(-0.0614146 -0.0186081 1.47915e-20)
(-0.052828 -0.0223271 5.76279e-22)
(-0.0431828 -0.0261074 2.67906e-20)
(-0.0322797 -0.0299384 -7.05549e-21)
(-0.0202636 -0.033682 -1.19372e-21)
(-0.00678036 -0.0374324 -7.10237e-21)
(0.00781114 -0.0408373 -8.3291e-21)
(0.0240213 -0.0443816 -4.58638e-21)
(0.0414642 -0.04704 -2.47947e-21)
(0.0601724 -0.0504847 7.47671e-21)
(0.0812229 -0.0518203 7.26017e-21)
(0.101191 -0.0557291 -5.93725e-21)
(0.127981 -0.05499 4.54704e-22)
(0.145937 -0.0605472 -1.55025e-21)
(0.183041 -0.0573252 1.66763e-21)
(0.193093 -0.065877 -3.48528e-21)
(0.245667 -0.0643629 6.56254e-23)
(-0.0673473 0.0283699 1.0643e-20)
(-0.0694238 0.0273052 -4.64338e-21)
(-0.071417 0.026266 1.55928e-20)
(-0.07332 0.0252519 -2.6047e-21)
(-0.0751243 0.02426 -2.65706e-20)
(-0.0768209 0.0232882 3.29368e-20)
(-0.0784002 0.0223306 -1.27938e-20)
(-0.0798505 0.0213811 6.28374e-21)
(-0.0811591 0.020432 -4.06685e-20)
(-0.0823121 0.019474 2.58353e-20)
(-0.0832936 0.0184962 -2.36426e-20)
(-0.0840864 0.0174863 1.85364e-20)