/*--------------------------------*- C++ -*----------------------------------*\
  =========                 |
  \\      /  F ield         | OpenFOAM: The Open Source CFD Toolbox
   \\    /   O peration     | Website:  https://openfoam.org
    \\  /    A nd           | Version:  7
     \\/     M anipulation  |
\*---------------------------------------------------------------------------*/
FoamFile
{
    version     2.0;
    format      ascii;
    class       volScalarField;
    location    "25";
    object      p;
}
// * * * * * * * * * * * * * * * * * * * * * * * * * * * * * * * * * * * * * //

dimensions      [0 2 -2 0 0 0 0];

internalField   nonuniform List<scalar> 
8500
(
0.100138
0.103733
0.11063
0.107709
0.114811
0.121176
0.112367
0.119384
0.125954
0.131746
0.124714
0.131133
0.137145
0.14231
0.13011
0.137137
0.142946
0.148376
0.152845
0.13557
0.143271
0.149621
0.154817
0.159646
0.163288
0.149513
0.156497
0.162158
0.166758
0.170923
0.1734
0.155855
0.163519
0.169772
0.17475
0.178782
0.182116
0.182856
0.170675
0.177569
0.183085
0.187401
0.190871
0.19312
0.191968
0.177928
0.185528
0.191643
0.196423
0.20009
0.202933
0.203851
0.202763
0.185226
0.193624
0.200391
0.205719
0.209764
0.212771
0.214943
0.215038
0.214315
0.201809
0.209315
0.215241
0.219778
0.223084
0.225413
0.226901
0.226356
0.225604
0.21002
0.21837
0.224975
0.230054
0.233795
0.23636
0.238001
0.238812
0.237702
0.236732
0.227494
0.234881
0.240581
0.244807
0.247748
0.249569
0.250514
0.250656
0.248997
0.247698
0.244895
0.251316
0.256105
0.259477
0.261615
0.262687
0.262933
0.26241
0.260197
0.258496
0.254944
0.262196
0.267647
0.271524
0.274038
0.275373
0.275695
0.275238
0.27405
0.271277
0.269125
0.273144
0.279366
0.283847
0.286811
0.288469
0.289001
0.288572
0.287411
0.285557
0.282216
0.27958
0.284086
0.291184
0.296377
0.299889
0.301942
0.302745
0.302475
0.301297
0.299432
0.296912
0.292998
0.289856
0.303018
0.309031
0.3132
0.315746
0.316892
0.316843
0.315776
0.31385
0.311284
0.3081
0.303611
0.299945
0.314819
0.321722
0.326656
0.329805
0.331392
0.331637
0.330742
0.328881
0.326213
0.322948
0.319104
0.31404
0.309842
0.334385
0.340164
0.344028
0.346166
0.346801
0.346152
0.344418
0.341771
0.338367
0.334409
0.329909
0.324274
0.319535
0.353648
0.358312
0.361116
0.362252
0.361946
0.360413
0.357851
0.354425
0.350293
0.345648
0.3405
0.3343
0.329018
0.367112
0.372572
0.376133
0.377889
0.378038
0.376803
0.374398
0.371017
0.366825
0.361973
0.356651
0.350863
0.344105
0.338279
0.386791
0.391122
0.393596
0.39432
0.393496
0.391346
0.388082
0.383896
0.378949
0.37339
0.3674
0.360984
0.353677
0.347308
0.406044
0.409264
0.410669
0.410379
0.408598
0.40555
0.401445
0.396468
0.390779
0.384525
0.377881
0.370847
0.363002
0.356095
0.421005
0.424836
0.426965
0.427321
0.426037
0.423321
0.419393
0.414462
0.408711
0.402297
0.395363
0.388078
0.380441
0.37207
0.364629
0.440387
0.443132
0.444192
0.443523
0.441268
0.437637
0.43285
0.427114
0.420607
0.413485
0.405887
0.397975
0.38975
0.380867
0.3729
0.459215
0.460897
0.460913
0.459245
0.456043
0.451522
0.445899
0.439378
0.432136
0.424324
0.41608
0.407559
0.398762
0.389381
0.380897
0.477451
0.478097
0.477099
0.47446
0.470339
0.464952
0.458518
0.451235
0.443279
0.434798
0.425927
0.416814
0.407463
0.3976
0.38861
0.494077
0.49506
0.494702
0.49272
0.489139
0.484128
0.477904
0.470684
0.462665
0.454019
0.44489
0.435413
0.425727
0.415841
0.405512
0.396029
0.511981
0.512009
0.510678
0.507746
0.503257
0.497387
0.490356
0.482378
0.473649
0.464336
0.454584
0.444522
0.434285
0.423883
0.413105
0.403143
0.52916
0.528265
0.525997
0.522151
0.516788
0.510093
0.502285
0.49358
0.484168
0.474216
0.463864
0.45324
0.442474
0.431578
0.42037
0.409943
0.545579
0.543797
0.54063
0.535907
0.529707
0.522222
0.513672
0.504269
0.494204
0.48364
0.472716
0.461554
0.450281
0.438912
0.427294
0.41642
0.561205
0.558575
0.55455
0.54899
0.541992
0.533754
0.524496
0.514429
0.503742
0.492595
0.481124
0.469451
0.457695
0.445877
0.433867
0.422565
0.57857
0.576008
0.572571
0.56773
0.561375
0.55362
0.544667
0.534738
0.524042
0.512764
0.501064
0.489076
0.476917
0.464704
0.45246
0.440081
0.428369
0.593231
0.58996
0.585759
0.580145
0.573041
0.564571
0.554943
0.544381
0.533091
0.521256
0.509035
0.496558
0.483942
0.471297
0.458652
0.445924
0.433824
0.606971
0.603032
0.598112
0.591774
0.583965
0.574824
0.564564
0.553407
0.54156
0.529204
0.516493
0.503558
0.490513
0.477464
0.464443
0.451389
0.438923
0.619763
0.615199
0.609608
0.602593
0.594127
0.584362
0.573512
0.561801
0.549435
0.536593
0.523427
0.510066
0.496621
0.483194
0.469824
0.456466
0.443658
0.631582
0.626437
0.620224
0.612583
0.60351
0.593166
0.581771
0.569549
0.556703
0.543411
0.529824
0.516069
0.502255
0.48848
0.474787
0.461149
0.448022
0.642402
0.636725
0.62994
0.621725
0.612095
0.601221
0.589327
0.576636
0.563351
0.549647
0.535675
0.521559
0.507406
0.493313
0.479325
0.465429
0.45201
0.652203
0.646041
0.638739
0.630002
0.619867
0.608513
0.596166
0.58305
0.569367
0.55529
0.540969
0.526525
0.512066
0.497684
0.483429
0.469301
0.455616
0.660966
0.654369
0.646602
0.637399
0.626812
0.615029
0.602277
0.588781
0.574741
0.560331
0.545697
0.530961
0.516228
0.501588
0.487093
0.472758
0.458834
0.668671
0.661692
0.653515
0.643902
0.632917
0.620755
0.607647
0.593817
0.579464
0.564761
0.549852
0.534859
0.519885
0.505017
0.490313
0.475794
0.46166
0.681818
0.675305
0.667995
0.659466
0.649498
0.638171
0.625683
0.612269
0.598151
0.583528
0.568572
0.553426
0.538212
0.52303
0.507967
0.493082
0.478406
0.464089
0.687599
0.680854
0.673267
0.664442
0.654178
0.642564
0.629804
0.616132
0.601773
0.586925
0.571757
0.556414
0.541014
0.525659
0.510433
0.495396
0.480589
0.46612
0.692238
0.685306
0.677496
0.668434
0.657932
0.646087
0.633109
0.619232
0.604679
0.58965
0.574313
0.55881
0.543262
0.527768
0.51241
0.497252
0.482339
0.467747
0.695725
0.688653
0.680676
0.671435
0.660754
0.648736
0.635593
0.621561
0.606863
0.591698
0.576233
0.560611
0.544951
0.529352
0.513895
0.498646
0.483654
0.46897
0.698054
0.690888
0.682799
0.673438
0.662638
0.650505
0.637252
0.623116
0.608321
0.593065
0.577515
0.561813
0.546079
0.53041
0.514887
0.499577
0.484532
0.469786
0.69922
0.692006
0.683861
0.674441
0.663581
0.65139
0.638082
0.623894
0.609051
0.593749
0.578156
0.562415
0.546643
0.530939
0.515383
0.500043
0.484971
0.470195
0.69922
0.692006
0.683861
0.674441
0.663581
0.65139
0.638082
0.623894
0.609051
0.593749
0.578156
0.562415
0.546643
0.530939
0.515383
0.500043
0.484971
0.470195
0.698054
0.690888
0.682799
0.673438
0.662638
0.650505
0.637252
0.623116
0.608321
0.593065
0.577515
0.561813
0.546079
0.530409
0.514887
0.499577
0.484532
0.469786
0.695725
0.688653
0.680676
0.671435
0.660754
0.648736
0.635593
0.621561
0.606863
0.591698
0.576233
0.560611
0.544951
0.529352
0.513895
0.498646
0.483654
0.46897
0.692238
0.685306
0.677496
0.668434
0.657932
0.646087
0.633109
0.619232
0.604679
0.58965
0.574312
0.55881
0.543262
0.527767
0.51241
0.497251
0.482339
0.467747
0.687599
0.680854
0.673267
0.664442
0.654178
0.642563
0.629804
0.616132
0.601773
0.586925
0.571757
0.556414
0.541014
0.525659
0.510433
0.495396
0.480589
0.46612
0.681818
0.675305
0.667995
0.659466
0.649498
0.63817
0.625683
0.612268
0.59815
0.583528
0.568571
0.553426
0.538212
0.52303
0.507967
0.493081
0.478406
0.464089
0.668671
0.661692
0.653515
0.643902
0.632917
0.620755
0.607647
0.593817
0.579464
0.56476
0.549851
0.534859
0.519885
0.505017
0.490312
0.475794
0.461659
0.660966
0.654369
0.646602
0.637399
0.626812
0.615028
0.602277
0.588781
0.574741
0.560331
0.545697
0.530961
0.516228
0.501588
0.487093
0.472757
0.458833
0.652203
0.646041
0.638738
0.630002
0.619867
0.608513
0.596166
0.58305
0.569367
0.55529
0.540968
0.526525
0.512066
0.497684
0.483428
0.4693
0.455615
0.642402
0.636724
0.62994
0.621725
0.612095
0.601221
0.589327
0.576636
0.56335
0.549647
0.535674
0.521558
0.507406
0.493313
0.479324
0.465429
0.45201
0.631581
0.626437
0.620224
0.612583
0.60351
0.593166
0.581771
0.569549
0.556703
0.543411
0.529824
0.516069
0.502254
0.48848
0.474787
0.461148
0.448022
0.619763
0.615198
0.609607
0.602593
0.594127
0.584361
0.573511
0.561801
0.549435
0.536592
0.523426
0.510065
0.49662
0.483194
0.469824
0.456466
0.443657
0.606971
0.603031
0.598111
0.591773
0.583964
0.574824
0.564564
0.553407
0.541559
0.529203
0.516493
0.503558
0.490513
0.477463
0.464443
0.451388
0.438922
0.59323
0.589959
0.585758
0.580145
0.57304
0.564571
0.554943
0.54438
0.53309
0.521256
0.509034
0.496558
0.483941
0.471296
0.458651
0.445924
0.433824
0.57857
0.576008
0.572571
0.567729
0.561375
0.55362
0.544667
0.534737
0.524041
0.512764
0.501064
0.489075
0.476917
0.464703
0.45246
0.44008
0.428369
0.561204
0.558575
0.554549
0.548989
0.541992
0.533753
0.524495
0.514429
0.503741
0.492594
0.481124
0.46945
0.457694
0.445876
0.433867
0.422565
0.545578
0.543796
0.54063
0.535906
0.529707
0.522221
0.513671
0.504269
0.494204
0.48364
0.472715
0.461553
0.45028
0.438912
0.427293
0.41642
0.529159
0.528264
0.525997
0.52215
0.516787
0.510092
0.502285
0.493579
0.484167
0.474215
0.463864
0.453239
0.442473
0.431577
0.420369
0.409943
0.511981
0.512008
0.510678
0.507745
0.503256
0.497386
0.490355
0.482377
0.473648
0.464336
0.454584
0.444521
0.434284
0.423883
0.413105
0.403143
0.494076
0.495059
0.494701
0.492719
0.489138
0.484127
0.477903
0.470683
0.462664
0.454018
0.44489
0.435412
0.425727
0.41584
0.405511
0.396028
0.47745
0.478097
0.477099
0.474459
0.470338
0.464951
0.458517
0.451234
0.443279
0.434798
0.425926
0.416813
0.407463
0.397599
0.38861
0.459214
0.460896
0.460913
0.459244
0.456043
0.451521
0.445898
0.439377
0.432135
0.424324
0.416079
0.407558
0.398761
0.38938
0.380897
0.440386
0.443131
0.444191
0.443522
0.441267
0.437636
0.432849
0.427113
0.420606
0.413484
0.405886
0.397974
0.389749
0.380866
0.3729
0.424835
0.426964
0.42732
0.426036
0.42332
0.419392
0.414461
0.40871
0.402296
0.395362
0.388077
0.38044
0.372069
0.364628
0.406043
0.409263
0.410668
0.410378
0.408597
0.405549
0.401444
0.396467
0.390778
0.384524
0.37788
0.370847
0.363002
0.356094
0.38679
0.391121
0.393595
0.394319
0.393494
0.391345
0.388081
0.383895
0.378948
0.373389
0.367399
0.360983
0.353676
0.347307
0.367111
0.372571
0.376132
0.377888
0.378037
0.376801
0.374397
0.371016
0.366823
0.361972
0.35665
0.350862
0.344104
0.338278
0.353647
0.358311
0.361114
0.362251
0.361945
0.360412
0.357849
0.354424
0.350292
0.345647
0.340499
0.334299
0.329017
0.334384
0.340163
0.344027
0.346164
0.346799
0.346151
0.344417
0.34177
0.338366
0.334407
0.329908
0.324273
0.319534
0.314817
0.32172
0.326655
0.329804
0.331391
0.331636
0.330741
0.32888
0.326212
0.322947
0.319103
0.314039
0.309841
0.303016
0.30903
0.313198
0.315744
0.316891
0.316842
0.315774
0.313849
0.311282
0.308099
0.30361
0.299944
0.284085
0.291182
0.296376
0.299887
0.301941
0.302743
0.302474
0.301296
0.299431
0.296911
0.292997
0.289854
0.273143
0.279365
0.283845
0.286809
0.288467
0.288999
0.288571
0.287409
0.285555
0.282215
0.279579
0.254943
0.262194
0.267645
0.271522
0.274037
0.275372
0.275694
0.275237
0.274048
0.271276
0.269124
0.244893
0.251314
0.256103
0.259475
0.261614
0.262686
0.262931
0.262408
0.260196
0.258495
0.227492
0.234879
0.240579
0.244806
0.247747
0.249567
0.250512
0.250655
0.248995
0.247697
0.210019
0.218368
0.224974
0.230053
0.233793
0.236359
0.237999
0.238811
0.2377
0.236731
0.201807
0.209313
0.215239
0.219776
0.223083
0.225412
0.226899
0.226354
0.225603
0.193622
0.200389
0.205718
0.209762
0.212769
0.214942
0.215036
0.214313
0.177927
0.185526
0.191641
0.196421
0.200089
0.202931
0.20385
0.202761
0.170673
0.177567
0.183084
0.187399
0.190869
0.193118
0.191967
0.155853
0.163517
0.16977
0.174748
0.178781
0.182114
0.182855
0.149511
0.156495
0.162156
0.166756
0.170921
0.173398
0.135567
0.143269
0.149619
0.154816
0.159644
0.163287
0.130108
0.137135
0.142944
0.148374
0.152843
0.124712
0.131131
0.137143
0.142308
0.119382
0.125952
0.131745
0.107706
0.114809
0.121174
0.103731
0.110628
0.100135
0.187496
0.177757
0.167973
0.158342
0.1484
0.138334
0.128293
0.118278
0.108299
0.0983832
0.0885493
0.182212
0.172356
0.161994
0.152543
0.143
0.133296
0.123654
0.114095
0.104597
0.0951731
0.0858398
0.175731
0.16589
0.155377
0.146169
0.137115
0.127876
0.118684
0.109607
0.100606
0.0916797
0.0828431
0.168889
0.159358
0.149096
0.14025
0.131696
0.122945
0.114206
0.105587
0.0970553
0.0885973
0.0802258
0.162095
0.153002
0.143131
0.134666
0.126568
0.118281
0.109981
0.101798
0.0937131
0.0857024
0.0777744
0.155554
0.146911
0.13748
0.129397
0.121719
0.113874
0.105999
0.0982374
0.0905773
0.0829923
0.0754858
0.149302
0.141088
0.132118
0.124419
0.117139
0.109714
0.102253
0.0948955
0.0876403
0.0804596
0.0733529
0.14334
0.135537
0.127033
0.119718
0.112819
0.105794
0.0987287
0.0917587
0.0848882
0.0780904
0.0713622
0.137672
0.130265
0.122222
0.115285
0.108748
0.102102
0.095415
0.0888145
0.0823089
0.0758731
0.0695025
0.132301
0.125275
0.117679
0.111106
0.104914
0.0986269
0.0922996
0.0860503
0.0798902
0.0737965
0.0677633
0.12722
0.12056
0.113392
0.10717
0.101306
0.0953575
0.0893707
0.0834542
0.077621
0.0718501
0.066135
0.122421
0.116109
0.10935
0.103463
0.0979093
0.0922815
0.0866167
0.0810152
0.0754906
0.0700241
0.0646088
0.117892
0.111912
0.105541
0.0999718
0.0947127
0.0893874
0.0840267
0.0787226
0.0734892
0.0683094
0.0631765
0.11362
0.107956
0.101952
0.096685
0.091704
0.0866638
0.0815899
0.0765664
0.0716075
0.0666977
0.0618305
0.109593
0.104229
0.0985713
0.09359
0.0888716
0.0841
0.0792962
0.0745373
0.0698368
0.0651812
0.060564
0.105797
0.100717
0.0953868
0.0906753
0.0862045
0.0816857
0.0771363
0.0726263
0.0681693
0.0637528
0.0593707
0.102221
0.0974103
0.0923868
0.0879297
0.0836922
0.0794112
0.0751011
0.0708255
0.0665974
0.0624057
0.0582448
0.0988506
0.0942951
0.0895601
0.0853426
0.0813249
0.0772674
0.0731822
0.069127
0.0651143
0.0611341
0.0571812
0.0956753
0.0913605
0.0868962
0.0829041
0.0790932
0.0752458
0.0713719
0.067524
0.0637137
0.0599324
0.056175
0.0926831
0.0885957
0.084385
0.0806048
0.0769884
0.0733382
0.0696629
0.0660098
0.0623899
0.0587956
0.0552221
0.0898633
0.0859903
0.0820171
0.0784359
0.0750023
0.0715374
0.0680486
0.0645786
0.0611376
0.0577191
0.0543186
0.0872054
0.0835345
0.0797835
0.076389
0.0731272
0.0698364
0.0665227
0.0632246
0.059952
0.0566988
0.053461
0.0846996
0.081219
0.0776758
0.0744566
0.0713563
0.0682288
0.0650794
0.0619431
0.0588286
0.0557308
0.0526462
0.0823368
0.0790354
0.0756863
0.0726313
0.0696828
0.0667087
0.0637137
0.0607292
0.0577634
0.0548119
0.0518713
0.0801081
0.0769754
0.0738077
0.0709067
0.0681007
0.0652706
0.0624205
0.0595787
0.0567528
0.0539389
0.051134
0.0780055
0.0750314
0.0720332
0.0692766
0.0666044
0.0639096
0.0611956
0.0584879
0.0557935
0.0531091
0.0504318
0.0760214
0.0731965
0.0703566
0.0677352
0.0651888
0.062621
0.0600348
0.0574532
0.0548825
0.0523199
0.0497629
0.0741488
0.0714642
0.068772
0.0662774
0.0638492
0.0614006
0.0589345
0.0564713
0.054017
0.0515691
0.0491254
0.072381
0.0698283
0.0672741
0.0648984
0.0625811
0.0602445
0.0578911
0.0555394
0.0531946
0.0508547
0.0485177
0.0707121
0.0682832
0.065858
0.0635935
0.0613806
0.0591492
0.0569018
0.0546547
0.0524131
0.0501748
0.0479384
0.0691364
0.0668239
0.064519
0.0623589
0.0602439
0.0581114
0.0559634
0.0538149
0.0516702
0.0495278
0.0473861
0.0676485
0.0654454
0.0632529
0.0611906
0.0591676
0.057128
0.0550736
0.0530176
0.0509642
0.048912
0.0662439
0.0641434
0.0620559
0.0600852
0.0581487
0.0561963
0.0542298
0.0522609
0.0502934
0.0483262
0.0649178
0.0629137
0.0609244
0.0590395
0.0571842
0.0553138
0.0534298
0.0515428
0.0496562
0.047769
0.0636663
0.0617527
0.0598549
0.0580505
0.0562715
0.0544781
0.0526717
0.0508617
0.0490512
0.0472393
0.0624856
0.0606568
0.0588446
0.0571154
0.0554081
0.053687
0.0519534
0.0502158
0.0484769
0.0467361
0.061372
0.0596229
0.0578905
0.0562319
0.0545918
0.0529386
0.0512734
0.0496038
0.0479323
0.0462582
0.0603224
0.0586479
0.05699
0.0553975
0.0538204
0.0522309
0.05063
0.0490243
0.0474161
0.0458049
0.0593337
0.0577292
0.0561407
0.05461
0.0530921
0.0515624
0.0500217
0.048476
0.0469273
0.0453752
0.0584032
0.0568642
0.0553405
0.0538675
0.0524051
0.0509313
0.0494471
0.0479577
0.0464648
0.0449682
0.0575284
0.0560505
0.0545871
0.0531681
0.0517576
0.0503362
0.048905
0.0474683
0.0460278
0.0445833
0.0567068
0.0552861
0.0538788
0.0525101
0.0511481
0.0497758
0.048394
0.0470067
0.0456153
0.0442198
0.0559363
0.0545689
0.0532138
0.051892
0.0505753
0.0492488
0.0479132
0.046572
0.0452266
0.0438769
0.0552149
0.0538972
0.0525904
0.0513123
0.0500377
0.0487539
0.0474615
0.0461634
0.0448609
0.043554
0.0545409
0.0532692
0.0520073
0.0507696
0.0495343
0.0482902
0.0470379
0.0457799
0.0445175
0.0432504
0.0539126
0.0526836
0.051463
0.0502628
0.0490639
0.0478566
0.0466415
0.0454209
0.0441956
0.0429657
0.0533285
0.0521389
0.0509564
0.0497907
0.0486254
0.0474522
0.0462716
0.0450854
0.0438946
0.0426992
0.0527874
0.051634
0.0504863
0.0493524
0.0482181
0.0470762
0.0459273
0.044773
0.043614
0.0424505
0.0522881
0.0511679
0.050052
0.048947
0.047841
0.0467279
0.045608
0.0444829
0.0433532
0.0422189
0.0518298
0.0507395
0.0496524
0.0485738
0.0474935
0.0464065
0.0453132
0.0442147
0.0431117
0.0420042
0.0514116
0.0503483
0.0492871
0.0482321
0.047175
0.0461116
0.0450423
0.0439679
0.0428891
0.0418058
0.0510329
0.0499937
0.0489554
0.0479215
0.0468851
0.0458428
0.0447948
0.043742
0.0426849
0.0416235
0.0506936
0.0496753
0.0486571
0.0476417
0.0466234
0.0455996
0.0445706
0.0435369
0.0424989
0.0414569
0.0503933
0.0493931
0.0483921
0.0473925
0.0463898
0.045382
0.0443692
0.0433521
0.0423309
0.0413057
0.0501324
0.0491472
0.0481604
0.047174
0.0461844
0.04519
0.044191
0.0431878
0.0421808
0.04117
0.0499112
0.0489377
0.0479623
0.0469862
0.046007
0.0450234
0.0440354
0.0430436
0.0420481
0.041049
0.0497307
0.048766
0.0477989
0.0468305
0.0458591
0.0448835
0.0439041
0.042921
0.0419345
0.0409446
0.0495914
0.0486318
0.0476696
0.0467058
0.045739
0.0447685
0.0437943
0.0428168
0.0418362
0.0408525
0.0494972
0.0485398
0.0475798
0.0466181
0.0456537
0.044686
0.043715
0.0427411
0.0417643
0.0407847
0.0494452
0.048485
0.047522
0.0465573
0.0455902
0.04462
0.043647
0.0426712
0.041693
0.0407124
0.19108
0.191698
0.192933
0.19469
0.19694
0.199642
0.202766
0.206281
0.210157
0.21436
0.218852
0.223585
0.228506
0.233545
0.238627
0.24365
0.248509
0.253058
0.25716
0.260611
0.263248
0.264787
0.26507
0.26368
0.260568
0.255021
0.247436
0.236123
0.223086
0.201814
0.190691
0.191295
0.192502
0.194219
0.196417
0.199051
0.202093
0.205508
0.209266
0.213328
0.217655
0.222194
0.226891
0.231671
0.236454
0.241135
0.245605
0.249715
0.253325
0.256231
0.258269
0.259161
0.258752
0.256641
0.252787
0.246516
0.238201
0.226317
0.212571
0.192992
0.190281
0.190871
0.192048
0.193722
0.195861
0.198422
0.201373
0.204679
0.208308
0.212218
0.216368
0.220702
0.225162
0.229672
0.234148
0.238482
0.242564
0.246243
0.249383
0.251779
0.253275
0.2536
0.252615
0.249934
0.245545
0.238803
0.230117
0.218107
0.204501
0.186482
0.189849
0.190424
0.19157
0.193198
0.195275
0.197758
0.200614
0.203806
0.207299
0.21105
0.215014
0.219135
0.22335
0.227579
0.231738
0.235716
0.239401
0.242644
0.245308
0.247193
0.24815
0.247918
0.246372
0.243149
0.238258
0.231101
0.222104
0.210077
0.196615
0.179468
0.189396
0.189955
0.191067
0.192647
0.194661
0.197063
0.19982
0.202894
0.206247
0.209835
0.21361
0.217511
0.221476
0.22542
0.229258
0.232877
0.236165
0.238971
0.241162
0.242542
0.242971
0.242197
0.240111
0.236371
0.231007
0.22348
0.214204
0.202182
0.188801
0.17227
0.18892
0.189462
0.19054
0.192071
0.194017
0.196336
0.198992
0.201944
0.205153
0.208573
0.212153
0.215832
0.219542
0.223199
0.226714
0.229973
0.232864
0.235239
0.236966
0.237856
0.237776
0.236487
0.233894
0.229683
0.223895
0.216057
0.20656
0.19458
0.181318
0.16536
0.188421
0.188946
0.189988
0.191467
0.193344
0.195577
0.198127
0.200953
0.204015
0.207263
0.210644
0.214096
0.217547
0.220913
0.224103
0.227003
0.229501
0.231451
0.232724
0.233141
0.232573
0.2308
0.227737
0.223103
0.216944
0.208856
0.199201
0.187307
0.17422
0.158813
0.187897
0.188404
0.189409
0.190834
0.192641
0.194784
0.197225
0.199922
0.202832
0.205903
0.209082
0.212302
0.215492
0.218565
0.221429
0.22397
0.226079
0.227611
0.228443
0.228402
0.227371
0.225143
0.221648
0.216634
0.210155
0.201871
0.192112
0.180342
0.167469
0.152587
0.187349
0.187837
0.188804
0.190173
0.191906
0.193957
0.196286
0.19885
0.201603
0.204494
0.207466
0.210451
0.213377
0.216155
0.218693
0.220879
0.222602
0.223725
0.224129
0.223649
0.222178
0.219527
0.215635
0.210285
0.203533
0.195101
0.185288
0.17367
0.161036
0.14666
0.186775
0.187244
0.188171
0.189483
0.191139
0.193095
0.195308
0.197736
0.20033
0.203036
0.205798
0.208545
0.211205
0.213687
0.2159
0.217732
0.219077
0.219801
0.219791
0.218892
0.217005
0.213962
0.209711
0.204066
0.197086
0.188548
0.178723
0.167283
0.15491
0.141027
0.186175
0.186623
0.18751
0.188762
0.19034
0.192197
0.194293
0.19658
0.19901
0.20153
0.204078
0.206585
0.208976
0.211162
0.213052
0.214536
0.21551
0.215846
0.215436
0.214139
0.211864
0.208459
0.203884
0.197984
0.190818
0.182214
0.172416
0.161174
0.149082
0.135683
0.185548
0.185975
0.186819
0.188011
0.189507
0.191264
0.193238
0.195382
0.197646
0.199975
0.202307
0.204572
0.206694
0.208585
0.210154
0.211294
0.211906
0.211866
0.211075
0.209401
0.206762
0.203027
0.198164
0.192046
0.184735
0.1761
0.166362
0.155337
0.143541
0.130619
0.184893
0.185299
0.1861
0.187228
0.188641
0.190295
0.192144
0.194141
0.196237
0.198372
0.200486
0.202507
0.20436
0.205957
0.207209
0.208013
0.208271
0.20787
0.206714
0.204684
0.201709
0.197675
0.192558
0.186259
0.178838
0.170204
0.160556
0.149764
0.138278
0.125823
0.18421
0.184595
0.18535
0.186414
0.187741
0.189289
0.191011
0.192859
0.194782
0.196722
0.198616
0.200393
0.201977
0.203283
0.204223
0.204697
0.204613
0.203863
0.202361
0.199999
0.196714
0.192411
0.187073
0.180626
0.17313
0.164526
0.154994
0.144448
0.13328
0.121285
0.183499
0.183861
0.18457
0.185567
0.186807
0.188246
0.189838
0.191535
0.193284
0.195026
0.196699
0.198231
0.199549
0.200566
0.201199
0.201352
0.200937
0.199855
0.198025
0.195354
0.191786
0.187243
0.181716
0.175152
0.167612
0.159063
0.14967
0.139381
0.128538
0.116993
0.182759
0.183097
0.183759
0.184687
0.185838
0.187166
0.188627
0.190169
0.191742
0.193285
0.194736
0.196025
0.197077
0.19781
0.198142
0.197983
0.19725
0.195851
0.193714
0.190757
0.186932
0.182177
0.176491
0.16984
0.162284
0.153814
0.144578
0.134555
0.124041
0.112937
0.181988
0.182303
0.182917
0.183775
0.184834
0.18605
0.187376
0.188763
0.190158
0.191501
0.19273
0.193775
0.194565
0.195018
0.195058
0.194597
0.193559
0.19186
0.189436
0.186214
0.182158
0.17722
0.171404
0.164692
0.157146
0.148774
0.139712
0.12996
0.119778
0.109103
0.181188
0.181478
0.182043
0.18283
0.183796
0.184897
0.186087
0.187316
0.188531
0.189674
0.190682
0.191486
0.192017
0.192197
0.191951
0.191199
0.18987
0.187888
0.185196
0.181734
0.177473
0.172377
0.166457
0.159709
0.152197
0.14394
0.135065
0.125589
0.115738
0.10548
0.180358
0.180622
0.181137
0.181851
0.182722
0.183707
0.18476
0.18583
0.186865
0.187807
0.188595
0.189161
0.189437
0.189349
0.188827
0.187796
0.18619
0.183942
0.181003
0.177323
0.17288
0.167651
0.161653
0.154893
0.147434
0.139308
0.130631
0.121433
0.111911
0.102059
0.179497
0.179736
0.180199
0.180839
0.181614
0.182481
0.183395
0.184305
0.18516
0.185902
0.186471
0.186801
0.186828
0.18648
0.185691
0.184393
0.182525
0.18003
0.176863
0.172987
0.168386
0.163048
0.156995
0.150243
0.142855
0.134873
0.126402
0.117483
0.108286
0.0988262
0.178605
0.178818
0.179229
0.179794
0.180472
0.18122
0.181993
0.182743
0.183418
0.18396
0.184313
0.184412
0.184194
0.183594
0.182549
0.180996
0.178882
0.176156
0.172783
0.168732
0.163996
0.158571
0.152483
0.145759
0.138458
0.13063
0.122371
0.11373
0.104853
0.0957729
0.177683
0.177869
0.178227
0.178716
0.179295
0.179923
0.180556
0.181145
0.18164
0.181985
0.182124
0.181996
0.181541
0.180696
0.179405
0.177611
0.175266
0.172328
0.168767
0.164563
0.159712
0.154221
0.148119
0.141439
0.134239
0.126574
0.118531
0.110166
0.101603
0.0928886
0.17673
0.176889
0.177194
0.177606
0.178085
0.178592
0.179084
0.179513
0.179829
0.179979
0.179907
0.179557
0.178871
0.177792
0.176266
0.174244
0.171685
0.168551
0.164822
0.160483
0.155539
0.150002
0.143903
0.137281
0.130194
0.122699
0.114874
0.106783
0.098527
0.0901638
0.175747
0.175878
0.176129
0.176463
0.176843
0.177229
0.177579
0.177848
0.177986
0.177943
0.177666
0.177099
0.17619
0.174885
0.173137
0.170901
0.168142
0.164831
0.160952
0.156498
0.151479
0.145913
0.139834
0.133284
0.126319
0.118999
0.111395
0.103571
0.0956147
0.0875895
0.174733
0.174837
0.175034
0.175289
0.175568
0.175833
0.176042
0.176152
0.176115
0.175882
0.175403
0.174626
0.173502
0.171982
0.170023
0.167587
0.164644
0.161172
0.157161
0.152611
0.147535
0.141957
0.135911
0.129444
0.12261
0.115468
0.108084
0.100524
0.0928582
0.085157
0.17369
0.173766
0.173908
0.174085
0.174263
0.174406
0.174476
0.174428
0.174218
0.173799
0.173123
0.172143
0.170811
0.169086
0.166929
0.164307
0.161196
0.15758
0.153455
0.148825
0.143709
0.138132
0.132134
0.12576
0.119062
0.112102
0.104936
0.0976328
0.0902491
0.0828583
0.172617
0.172666
0.172752
0.17285
0.172928
0.172951
0.172881
0.172677
0.172297
0.171696
0.170829
0.169652
0.168124
0.166204
0.163861
0.161066
0.157802
0.154059
0.149835
0.145142
0.14
0.13444
0.1285
0.122227
0.115671
0.108893
0.101944
0.0948907
0.0877797
0.0806858
0.171516
0.171537
0.171569
0.171588
0.171565
0.171468
0.17126
0.170903
0.170356
0.169578
0.168526
0.16716
0.165443
0.16334
0.160823
0.15787
0.154468
0.150612
0.146306
0.141565
0.136412
0.130879
0.125007
0.118842
0.112432
0.105836
0.0991007
0.0922904
0.0854426
0.0786325
0.170388
0.17038
0.170357
0.170298
0.170175
0.169959
0.169616
0.169108
0.168398
0.167447
0.166216
0.16467
0.162774
0.160498
0.15782
0.154723
0.151197
0.147244
0.14287
0.138094
0.132943
0.127449
0.121653
0.115601
0.10934
0.102925
0.0963996
0.0898251
0.0832309
0.0766916
0.169234
0.169198
0.16912
0.168983
0.168761
0.168427
0.16795
0.167294
0.166426
0.165308
0.163905
0.162186
0.160121
0.157684
0.154858
0.151629
0.147994
0.143957
0.139529
0.134732
0.129593
0.124148
0.118435
0.112502
0.106391
0.100155
0.0938347
0.0874883
0.0811379
0.074857
0.168054
0.16799
0.167858
0.167643
0.167324
0.166874
0.166266
0.165466
0.164443
0.163163
0.161597
0.159714
0.157489
0.154903
0.15194
0.148593
0.144862
0.140755
0.136286
0.131479
0.126364
0.120975
0.115352
0.109539
0.103579
0.0975204
0.0914
0.0852739
0.0791575
0.0731228
0.166851
0.166759
0.166574
0.166282
0.165866
0.165303
0.164566
0.163625
0.162453
0.161019
0.159295
0.157257
0.154883
0.152158
0.14907
0.145618
0.141804
0.137639
0.133141
0.128336
0.123253
0.117928
0.112399
0.10671
0.100899
0.0950156
0.0890898
0.0831759
0.077284
0.0714837
0.165626
0.165507
0.165268
0.164901
0.16439
0.163716
0.162853
0.161777
0.16046
0.158877
0.157004
0.15482
0.152307
0.149454
0.146254
0.142708
0.138823
0.134613
0.130097
0.125303
0.12026
0.115005
0.109574
0.10401
0.0983486
0.0926354
0.0868986
0.0811888
0.0755119
0.0699346
0.164381
0.164235
0.163944
0.163502
0.162899
0.162115
0.161131
0.159923
0.158468
0.156743
0.154729
0.152407
0.149765
0.146796
0.143495
0.139867
0.135923
0.131678
0.127154
0.122379
0.117384
0.112204
0.106874
0.101436
0.0959215
0.0903751
0.0848211
0.0793075
0.0738362
0.0684708
0.163118
0.162945
0.162603
0.162089
0.161395
0.160505
0.159403
0.158068
0.15648
0.154621
0.152473
0.150024
0.147263
0.144187
0.140796
0.137098
0.133105
0.128835
0.124313
0.119565
0.114623
0.109522
0.104296
0.0989827
0.0936138
0.0882297
0.0828525
0.077527
0.0722521
0.0670882
0.16184
0.161641
0.161249
0.160664
0.159881
0.158889
0.157673
0.156216
0.154501
0.152514
0.150242
0.147673
0.144803
0.141631
0.138161
0.134403
0.130371
0.126087
0.121574
0.11686
0.111977
0.106958
0.101836
0.0966477
0.0914213
0.0861949
0.0809881
0.0758428
0.0707552
0.0657825
0.16055
0.160325
0.159884
0.15923
0.158361
0.15727
0.155944
0.15437
0.152536
0.150429
0.148039
0.14536
0.142391
0.139133
0.135594
0.131785
0.127725
0.123434
0.118937
0.114264
0.109444
0.10451
0.0994926
0.0944271
0.0893399
0.0842663
0.0792235
0.0742504
0.0693414
0.0645501
0.159249
0.159
0.158511
0.15779
0.156838
0.155651
0.154221
0.152536
0.150588
0.148368
0.145869
0.14309
0.14003
0.136696
0.133097
0.129248
0.125166
0.120877
0.116403
0.111775
0.107021
0.102174
0.0972614
0.0923172
0.0873658
0.0824398
0.0775545
0.0727459
0.0680068
0.0633876
0.157943
0.157669
0.157134
0.156348
0.155317
0.154038
0.152507
0.150717
0.148662
0.146336
0.143737
0.140865
0.137724
0.134323
0.130673
0.126792
0.122698
0.118416
0.113972
0.109393
0.104708
0.0999478
0.0951399
0.0903147
0.0854952
0.0807116
0.0759772
0.0713255
0.066748
0.0622917
0.156633
0.156336
0.155756
0.154908
0.1538
0.152434
0.150808
0.148918
0.146762
0.144338
0.141646
0.138691
0.135478
0.132018
0.128326
0.12442
0.120321
0.116054
0.111643
0.107117
0.102503
0.0978302
0.0931253
0.0884164
0.0837247
0.079078
0.0744881
0.0699857
0.0655617
0.0612595
0.155324
0.155004
0.154382
0.153474
0.152293
0.150843
0.149127
0.147144
0.144894
0.142379
0.139603
0.136571
0.133294
0.129784
0.126058
0.122135
0.118037
0.113789
0.109416
0.104945
0.100403
0.0958185
0.0912149
0.0866192
0.0820509
0.0775356
0.0730836
0.0687232
0.0644447
0.0602882
0.154021
0.153679
0.153016
0.152051
0.1508
0.149271
0.14747
0.145399
0.143062
0.140463
0.13761
0.13451
0.131177
0.127625
0.123872
0.119938
0.115847
0.111623
0.107291
0.102878
0.0984087
0.0939106
0.0894062
0.0849203
0.0804708
0.0760813
0.0717608
0.0675351
0.0633944
0.0593754
0.152726
0.152363
0.151661
0.150642
0.149325
0.147722
0.145841
0.143688
0.14127
0.138595
0.135672
0.132512
0.12913
0.125543
0.12177
0.117832
0.113752
0.109556
0.105267
0.100913
0.096517
0.0921044
0.0876967
0.0833169
0.0789815
0.0747121
0.0705166
0.0664185
0.0624081
0.0585188
0.151445
0.151063
0.150324
0.149254
0.147874
0.146201
0.144245
0.142017
0.139525
0.13678
0.133794
0.130581
0.127158
0.123542
0.119754
0.115817
0.111753
0.107588
0.103345
0.0990505
0.094727
0.0903981
0.0860842
0.0818066
0.0775805
0.0734253
0.0693484
0.065371
0.0614835
0.0577163
0.150184
0.149783
0.149009
0.14789
0.146452
0.144713
0.142688
0.14039
0.13783
0.135022
0.131981
0.128722
0.125263
0.121624
0.117827
0.113895
0.109851