/*--------------------------------*- C++ -*----------------------------------*\
  =========                 |
  \\      /  F ield         | OpenFOAM: The Open Source CFD Toolbox
   \\    /   O peration     | Website:  https://openfoam.org
    \\  /    A nd           | Version:  7
     \\/     M anipulation  |
\*---------------------------------------------------------------------------*/
FoamFile
{
    version     2.0;
    format      ascii;
    class       volScalarField;
    location    "80";
    object      p;
}
// * * * * * * * * * * * * * * * * * * * * * * * * * * * * * * * * * * * * * //

dimensions      [0 2 -2 0 0 0 0];

internalField   nonuniform List<scalar> 
8500
(
0.00423464
0.00720036
0.015716
0.0106151
0.0193359
0.0272398
0.014924
0.0234157
0.0315239
0.0387743
0.0284655
0.0362768
0.0437464
0.0502862
0.033677
0.0420659
0.0491865
0.0559949
0.0617549
0.0390418
0.0480841
0.0557109
0.0621424
0.0682705
0.0731173
0.0542989
0.0625359
0.069393
0.0751577
0.0805457
0.0841162
0.0607062
0.0695968
0.0770185
0.083116
0.0882508
0.09272
0.0943834
0.0768817
0.084916
0.0915198
0.0968833
0.101396
0.104663
0.104248
0.0843515
0.0930648
0.100236
0.106026
0.110673
0.114491
0.116272
0.115938
0.0919481
0.101437
0.109232
0.115536
0.120515
0.124434
0.127507
0.128361
0.128401
0.109981
0.118489
0.12536
0.130794
0.134962
0.138136
0.140453
0.140592
0.140585
0.118626
0.127959
0.135482
0.141425
0.145988
0.149343
0.151763
0.153336
0.152851
0.152598
0.137573
0.145856
0.152389
0.157402
0.161093
0.163636
0.165295
0.166135
0.165051
0.164437
0.156411
0.163642
0.169186
0.173269
0.176087
0.177816
0.178714
0.178827
0.177143
0.176091
0.167067
0.175113
0.181292
0.185846
0.189001
0.190948
0.191863
0.191998
0.191389
0.189098
0.187557
0.186716
0.193648
0.198778
0.202345
0.204573
0.205652
0.205756
0.205129
0.203799
0.200896
0.198831
0.198363
0.206164
0.211987
0.216072
0.218658
0.219964
0.220178
0.219474
0.218087
0.21604
0.21252
0.209907
0.218748
0.225382
0.230102
0.233148
0.234759
0.23515
0.234506
0.232997
0.230855
0.228093
0.223956
0.220779
0.231332
0.238861
0.244336
0.247962
0.24998
0.250624
0.250107
0.248612
0.246307
0.243415
0.239943
0.235191
0.231439
0.252348
0.25867
0.262998
0.265542
0.266541
0.266229
0.264815
0.262478
0.259385
0.255749
0.251575
0.246212
0.24188
0.273013
0.278142
0.281337
0.282811
0.282806
0.28155
0.27925
0.276083
0.272211
0.267842
0.262974
0.257008
0.252093
0.287352
0.293292
0.297244
0.299322
0.299744
0.298749
0.296564
0.293392
0.289407
0.284769
0.279676
0.274126
0.267565
0.262067
0.308417
0.313152
0.315945
0.316925
0.316312
0.314345
0.311247
0.30722
0.302432
0.29704
0.291237
0.285016
0.277871
0.271793
0.329007
0.332558
0.334215
0.334118
0.332491
0.329571
0.325579
0.320712
0.315137
0.309007
0.302507
0.29563
0.287914
0.28126
0.344901
0.349087
0.351477
0.352022
0.350872
0.348253
0.344402
0.339536
0.333849
0.327505
0.320654
0.313473
0.305956
0.297681
0.29046
0.365592
0.368621
0.369878
0.369337
0.36716
0.363575
0.358815
0.353098
0.346612
0.339518
0.331964
0.32412
0.315978
0.307161
0.29938
0.385676
0.387577
0.38773
0.386133
0.382956
0.378431
0.372789
0.366243
0.358981
0.351159
0.342921
0.334432
0.325685
0.316341
0.30801
0.405118
0.405922
0.405002
0.40238
0.398235
0.392798
0.386301
0.378953
0.370937
0.362409
0.35351
0.344395
0.335063
0.325209
0.316341
0.422716
0.423882
0.423623
0.421666
0.418053
0.412971
0.406654
0.39933
0.391206
0.382464
0.373254
0.363715
0.353997
0.344099
0.333753
0.324363
0.441783
0.441937
0.440652
0.437694
0.433125
0.427141
0.419975
0.411856
0.402986
0.393543
0.383677
0.373522
0.363223
0.352781
0.341963
0.332065
0.460072
0.45925
0.456977
0.453057
0.447572
0.440722
0.432742
0.423859
0.414273
0.404159
0.393663
0.382918
0.37206
0.361098
0.349828
0.339438
0.477549
0.475791
0.472572
0.467732
0.461369
0.453691
0.444934
0.43532
0.42505
0.414294
0.403197
0.391887
0.380497
0.369038
0.357336
0.346474
0.494183
0.491531
0.48741
0.481693
0.474494
0.466028
0.45653
0.446223
0.435301
0.423934
0.412265
0.400419
0.388522
0.37659
0.364477
0.353163
0.512505
0.509944
0.506442
0.501465
0.494916
0.486926
0.477714
0.467514
0.456549
0.44501
0.433065
0.420854
0.408499
0.396122
0.383744
0.371243
0.359497
0.528113
0.524803
0.520499
0.514714
0.507381
0.498645
0.488728
0.477868
0.466282
0.454163
0.441673
0.428951
0.416117
0.403288
0.390489
0.377623
0.365468
0.542749
0.538736
0.533678
0.527134
0.519066
0.50963
0.499054
0.487575
0.475409
0.462745
0.449745
0.436545
0.423262
0.41001
0.396817
0.383609
0.371068
0.556386
0.551716
0.545955
0.538704
0.529951
0.519865
0.508675
0.49662
0.483913
0.470743
0.457268
0.443623
0.429924
0.416277
0.402719
0.389193
0.376291
0.569
0.563722
0.557309
0.549405
0.54002
0.529332
0.517576
0.504989
0.491783
0.478145
0.464233
0.450177
0.436092
0.422082
0.408186
0.394366
0.38113
0.580568
0.574731
0.567722
0.559219
0.549255
0.538017
0.525743
0.512668
0.499007
0.484941
0.470627
0.456196
0.441759
0.427415
0.41321
0.399123
0.385579
0.59107
0.584725
0.577175
0.56813
0.557641
0.545905
0.533162
0.519647
0.505572
0.491119
0.476443
0.461672
0.446915
0.432271
0.417786
0.403457
0.389633
0.600486
0.593687
0.585652
0.576123
0.565165
0.552984
0.539822
0.525914
0.51147
0.496672
0.481671
0.466596
0.451555
0.436641
0.421907
0.407361
0.393286
0.6088
0.601601
0.59314
0.583185
0.571815
0.559243
0.545712
0.531459
0.516691
0.501589
0.486304
0.470962
0.455671
0.44052
0.425567
0.410831
0.396534
0.622685
0.615997
0.608453
0.599626
0.589304
0.57758
0.564672
0.550825
0.536274
0.521228
0.505865
0.490335
0.474764
0.459257
0.443903
0.428762
0.413862
0.399374
0.628996
0.622065
0.614233
0.605099
0.594471
0.582451
0.569262
0.555151
0.540353
0.525075
0.509494
0.493759
0.477997
0.46231
0.446786
0.431487
0.416451
0.401802
0.63412
0.626994
0.618931
0.609551
0.598677
0.586421
0.573008
0.558686
0.543689
0.528224
0.512469
0.496571
0.480655
0.464824
0.449164
0.433739
0.418593
0.403814
0.638048
0.630776
0.622539
0.612975
0.601918
0.589484
0.575903
0.561422
0.546277
0.530674
0.514788
0.498767
0.482736
0.466797
0.451034
0.435515
0.420287
0.40541
0.640774
0.633405
0.625052
0.615366
0.604187
0.591636
0.577943
0.563358
0.548115
0.532419
0.516447
0.500345
0.484238
0.468226
0.452396
0.436812
0.42153
0.406588
0.642295
0.634877
0.626467
0.616721
0.605481
0.592874
0.579127
0.564491
0.5492
0.533459
0.517444
0.501303
0.485158
0.469111
0.453246
0.437631
0.422322
0.407345
0.642608
0.635191
0.626782
0.617038
0.605801
0.593196
0.579453
0.564819
0.549531
0.533792
0.517779
0.50164
0.485496
0.46945
0.453585
0.437971
0.422661
0.407683
0.641715
0.634347
0.625998
0.616318
0.605146
0.592605
0.578921
0.564344
0.549108
0.533419
0.517453
0.501356
0.485252
0.469243
0.453413
0.43783
0.422549
0.407601
0.639618
0.632349
0.624118
0.614564
0.603519
0.5911
0.577533
0.563067
0.547934
0.532342
0.516466
0.500453
0.484428
0.468493
0.452732
0.437212
0.421986
0.4071
0.636323
0.629202
0.621147
0.611781
0.600924
0.588688
0.575294
0.560991
0.546012
0.530563
0.514821
0.498934
0.483026
0.4672
0.451541
0.436116
0.420973
0.406182
0.631838
0.624912
0.61709
0.607973
0.597367
0.585372
0.572208
0.558121
0.543345
0.528086
0.512522
0.496801
0.481048
0.465368
0.449846
0.434546
0.419513
0.404848
0.626174
0.61949
0.611958
0.603151
0.592854
0.58116
0.568281
0.554463
0.539939
0.524917
0.509573
0.494059
0.4785
0.463
0.447648
0.432505
0.417609
0.403101
0.612948
0.605761
0.597323
0.587396
0.57606
0.563522
0.550024
0.535801
0.52106
0.505981
0.490713
0.475385
0.460101
0.444952
0.429997
0.415265
0.400943
0.605299
0.598512
0.590501
0.581004
0.570083
0.557939
0.544813
0.530939
0.516525
0.501751
0.48677
0.471709
0.456676
0.441763
0.427026
0.412484
0.398379
0.596559
0.590226
0.582699
0.573689
0.563239
0.551544
0.53884
0.525362
0.511319
0.496893
0.482237
0.46748
0.452732
0.438087
0.423598
0.409271
0.395413
0.586746
0.580918
0.573933
0.565466
0.555543
0.544348
0.532116
0.51908
0.505452
0.491414
0.477121
0.462705
0.448275
0.43393
0.419718
0.405633
0.392049
0.575881
0.570609
0.564219
0.556351
0.547008
0.536365
0.524653
0.512105
0.498934
0.485324
0.471433
0.457392
0.443313
0.429299
0.415393
0.401575
0.388294
0.563985
0.559318
0.553577
0.546361
0.537651
0.52761
0.516465
0.50445
0.491778
0.478636
0.465182
0.45155
0.437855
0.424202
0.410631
0.397104
0.384152
0.551083
0.547068
0.542027
0.535516
0.52749
0.518099
0.507567
0.496128
0.483996
0.471359
0.458379
0.44519
0.43191
0.418647
0.405439
0.392227
0.379629
0.537201
0.533884
0.529592
0.523836
0.516543
0.50785
0.497976
0.487155
0.475602
0.463508
0.451036
0.438322
0.425487
0.412645
0.399826
0.386953
0.374734
0.522367
0.51979
0.516295
0.511342
0.50483
0.496881
0.487709
0.477546
0.46661
0.455095
0.443165
0.430959
0.418599
0.406204
0.393801
0.381291
0.369473
0.504815
0.502161
0.498059
0.492374
0.485212
0.476783
0.467319
0.457038
0.446136
0.43478
0.423112
0.411256
0.399336
0.387374
0.375248
0.363854
0.488988
0.487219
0.484012
0.479197
0.472866
0.46522
0.456491
0.446901
0.436645
0.425895
0.414794
0.40347
0.392051
0.380555
0.368835
0.357885
0.47234
0.471496
0.469226
0.465324
0.459863
0.453039
0.445083
0.436217
0.42664
0.416526
0.40602
0.395254
0.384361
0.373355
0.362061
0.351575
0.454904
0.455023
0.453729
0.450779
0.446228
0.440263
0.433113
0.425004
0.416137
0.406687
0.396804
0.386621
0.376278
0.365785
0.354938
0.344933
0.436714
0.437831
0.43755
0.435591
0.431985
0.426913
0.420603
0.413282
0.405153
0.396396
0.387162
0.377586
0.367816
0.357857
0.347475
0.337968
0.419952
0.420721
0.419786
0.41716
0.413014
0.407575
0.401071
0.393709
0.38567
0.377108
0.368162
0.358986
0.349583
0.339685
0.33069
0.401422
0.40327
0.403393
0.401779
0.39859
0.394052
0.388392
0.381822
0.374525
0.366659
0.358365
0.349804
0.340976
0.331579
0.32311
0.382274
0.385232
0.386443
0.38587
0.383667
0.380056
0.375267
0.369513
0.362981
0.355832
0.34821
0.340282
0.332049
0.323169
0.315237
0.36664
0.368966
0.369462
0.368271
0.365612
0.361717
0.356802
0.351057
0.344644
0.337714
0.330437
0.322814
0.314467
0.307082
0.347529
0.350994
0.352584
0.352429
0.350745
0.347766
0.34371
0.338771
0.333114
0.326891
0.320281
0.313286
0.305486
0.298655
0.327933
0.33256
0.335266
0.336168
0.335481
0.333438
0.33026
0.326145
0.321259
0.31576
0.309832
0.303478
0.296237
0.289968
0.30789
0.313697
0.317538
0.319518
0.319846
0.318757
0.316474
0.313197
0.309099
0.304336
0.299103
0.293404
0.286734
0.28103
0.294439
0.299432
0.302506
0.303866
0.303746
0.302373
0.29995
0.296652
0.292639
0.288112
0.283078
0.27699
0.271853
0.274822
0.280981
0.285164
0.287569
0.288432
0.287982
0.286425
0.283938
0.280685
0.276873
0.272516
0.267016
0.262447
0.254881
0.262218
0.26752
0.270983
0.272841
0.273324
0.272643
0.270977
0.268492
0.265405
0.26173
0.256826
0.252821
0.243174
0.249606
0.254136
0.256997
0.258423
0.258626
0.257789
0.256081
0.253723
0.250738
0.246432
0.242985
0.223885
0.231453
0.237056
0.240928
0.243303
0.244397
0.244396
0.243468
0.241844
0.239553
0.235847
0.232948
0.213091
0.219773
0.224661
0.22799
0.22998
0.230817
0.230674
0.229787
0.228191
0.225085
0.222716
0.194553
0.202316
0.208221
0.212508
0.215396
0.217075
0.217719
0.217569
0.216671
0.214158
0.212298
0.184713
0.191638
0.196882
0.20067
0.203192
0.204623
0.205211
0.20501
0.203085
0.201699
0.166996
0.174937
0.181139
0.185825
0.18919
0.191407
0.19273
0.19323
0.191885
0.190923
0.149193
0.158148
0.165303
0.170886
0.175092
0.178093
0.180148
0.181352
0.180586
0.179975
0.141296
0.1494
0.155875
0.160921
0.164703
0.167483
0.1694
0.169234
0.168862
0.133455
0.140818
0.146699
0.151259
0.154756
0.157397
0.157911
0.157593
0.117495
0.125738
0.132449
0.137787
0.141982
0.145333
0.146724
0.146075
0.110658
0.118194
0.12431
0.129192
0.13321
0.135999
0.135354
0.0956013
0.103953
0.110849
0.116433
0.121047
0.124968
0.12626
0.0897476
0.097418
0.103724
0.10894
0.113725
0.11679
0.0755964
0.0840293
0.0910643
0.0969112
0.102393
0.106656
0.070697
0.0784511
0.0849475
0.091068
0.0961912
0.0658927
0.0730379
0.0797771
0.0856317
0.061186
0.0685212
0.0750401
0.0494035
0.057309
0.0644373
0.046158
0.0538545
0.0433221
0.0996425
0.0890174
0.0785259
0.0680971
0.0572919
0.0463536
0.0354321
0.0245242
0.013641
0.00281282
-0.00794046
0.0944378
0.0836488
0.0725595
0.0623515
0.0519849
0.0414462
0.0309729
0.0205761
0.0102314
-4.46255e-05
-0.0102345
0.087971
0.0771921
0.0659467
0.0560229
0.0461987
0.0361751
0.0262053
0.0163475
0.00655999
-0.00315766
-0.0127883
0.0811244
0.0706864
0.0597228
0.0502065
0.0409387
0.0314573
0.0219921
0.0126482
0.00338843
-0.00580138
-0.0149064
0.0743617
0.0644066
0.0538802
0.0447914
0.0360316
0.0270681
0.0180938
0.00924094
0.000483942
-0.00820058
-0.016803
0.0679068
0.0584494
0.0484153
0.0397549
0.0314656
0.0229956
0.0145003
0.00612136
-0.00215525
-0.0103573
-0.0184805
0.0617976
0.0528165
0.0432997
0.0350719
0.027229
0.0192308
0.0112009
0.00327935
-0.00453846
-0.0122811
-0.0199484
0.0560376
0.0475145
0.0385226
0.0307283
0.0233127
0.0157642
0.00818237
0.000700175
-0.00668043
-0.0139867
-0.0212213
0.0506339
0.042554
0.0340808
0.0267132
0.0197064
0.0125854
0.00543197
-0.0016301
-0.00859479
-0.0154872
-0.0223118
0.0455889
0.0379363
0.0299671
0.0230138
0.0163972
0.0096817
0.00293639
-0.00372527
-0.0102949
-0.0167953
-0.0232318
0.0408973
0.0336551
0.0261703
0.0196158
0.013371
0.00704012
0.000682494
-0.00559856
-0.0117935
-0.0179229
-0.0239925
0.0365489
0.0296998
0.0226778
0.0165051
0.010614
0.00464743
-0.00134263
-0.00726268
-0.0131028
-0.0188814
-0.0246044
0.0325315
0.0260582
0.0194763
0.0136676
0.00811236
0.00249052
-0.00315163
-0.00872985
-0.0142344
-0.0196817
-0.0250775
0.0288313
0.022717
0.0165521
0.0110893
0.00585245
0.00055648
-0.00475681
-0.0100118
-0.0151993
-0.0203338
-0.025421
0.0254344
0.0196622
0.0138913
0.00875639
0.00382098
-0.00116729
-0.00617012
-0.0111199
-0.0160081
-0.0208477
-0.0256438
0.0223263
0.0168795
0.0114802
0.00665537
0.00200497
-0.00269303
-0.00740305
-0.0120649
-0.0166708
-0.0212324
-0.0257543
0.0194924
0.014355
0.00930514
0.00477307
0.00039186
-0.00403254
-0.00846669
-0.0128572
-0.0171971
-0.0214966
-0.0257602
0.0169184
0.0120745
0.00735287
0.0030967
-0.0010305
-0.00519721
-0.00937165
-0.0135065
-0.0175959
-0.0216488
-0.0256691
0.0145902
0.0100245
0.00561046
0.00161394
-0.0022738
-0.00619798
-0.0101281
-0.0140224
-0.0178759
-0.0216966
-0.025488
0.0124937
0.00819144
0.00406537
0.000312874
-0.00334929
-0.00704532
-0.0107457
-0.0144137
-0.0180453
-0.0216476
-0.0252235
0.0106156
0.00656248
0.00270553
-0.000817927
-0.00426776
-0.00774927
-0.0112338
-0.0146892
-0.018112
-0.0215088
-0.024882
0.00894273
0.00512504
0.00151927
-0.00178944
-0.00503953
-0.00831946
-0.0116013
-0.0148568
-0.0180834
-0.021287
-0.0244696
0.00746237
0.00386696
0.000495391
-0.00261219
-0.0056745
-0.00876506
-0.0118566
-0.0149244
-0.0179667
-0.0209885
-0.0239918
0.00616227
0.00277656
-0.000376882
-0.00329625
-0.00618212
-0.00909486
-0.0120079
-0.0148994
-0.0177685
-0.0206196
-0.0234543
0.00503065
0.00184259
-0.00110787
-0.00385126
-0.00657144
-0.00931726
-0.0120628
-0.0147889
-0.0174953
-0.020186
-0.0228623
0.00405614
0.00105426
-0.00170748
-0.00428646
-0.00685112
-0.00944031
-0.0120287
-0.0145997
-0.0171534
-0.0196935
-0.0222209
0.00322785
0.000401225
-0.0021852
-0.00461066
-0.00702944
-0.0094717
-0.0119129
-0.0143383
-0.0167487
-0.0191473
-0.0215348
0.00253534
-0.000126452
-0.0025501
-0.00483233
-0.00711431
-0.0094188
-0.011722
-0.0140111
-0.016287
-0.0185527
-0.0208089
0.00196858
-0.000538273
-0.0028109
-0.00495957
-0.00711334
-0.00928868
-0.0114626
-0.0136238
-0.0157737
-0.0179148
-0.0200476
0.00151796
-0.000843344
-0.00297594
-0.00500014
-0.00703381
-0.00908814
-0.011141
-0.0131825
-0.0152141
-0.0172383
-0.0192553
0.00117429
-0.00105039
-0.00305322
-0.00496147
-0.00688271
-0.0088237
-0.0107632
-0.0126926
-0.0146134
-0.0165279
-0.0184363
0.000928745
-0.00116776
-0.0030504
-0.00485073
-0.00666675
-0.00850163
-0.0103351
-0.0121595
-0.0139766
-0.0157883
0.000772879
-0.00120346
-0.00297484
-0.00467476
-0.00639239
-0.00812798
-0.00986222
-0.0115884
-0.0133084
-0.0150238
0.000698594
-0.00116517
-0.00283363
-0.00444017
-0.00606584
-0.00770857
-0.00935008
-0.0109845
-0.0126135
-0.0142387
0.000698128
-0.00106026
-0.00263353
-0.00415331
-0.0056931
-0.00724904
-0.0088039
-0.0103525
-0.0118964
-0.0134373
0.000764042
-0.000895769
-0.00238108
-0.00382028
-0.00527991
-0.00675479
-0.00822875
-0.00969715
-0.0111616
-0.0126236
0.000889205
-0.000678479
-0.00208254
-0.00344697
-0.00483185
-0.00623107
-0.00762953
-0.00902311
-0.0104134
-0.0118016
0.00106678
-0.000414878
-0.00174395
-0.00303903
-0.00435426
-0.00568293
-0.007011
-0.00833479
-0.0096558
-0.0109751
0.00129023
-0.00011119
-0.00137109
-0.00260192
-0.00385232
-0.00511525
-0.00637775
-0.00763651
-0.00889292
-0.010148
0.00155327
0.000226613
-0.000969529
-0.00214087
-0.00333099
-0.00453275
-0.00573421
-0.00693243
-0.00812869
-0.00932388
0.00184988
0.000592808
-0.00054462
-0.00166095
-0.00279508
-0.00393997
-0.0050847
-0.00622662
-0.00736691
-0.00850634
0.00217432
0.000981903
-0.000101508
-0.00116702
-0.00224923
-0.00334133
-0.00443338
-0.00552302
-0.00661129
-0.00769889
0.00252106
0.00138863
0.000354856
-0.000663776
-0.00169792
-0.00274107
-0.00378429
-0.00482544
-0.00586545
-0.00690493
0.00288482
0.00180794
0.000819708
-0.000155752
-0.00114545
-0.00214334
-0.00314136
-0.00413762
-0.00513293
-0.00612781
0.00326052
0.00223497
0.00128846
0.000352683
-0.000596033
-0.00155211
-0.00250839
-0.00346318
-0.00441717
-0.0053708
0.00364332
0.00266506
0.00175669
0.000857301
-5.37082e-05
-0.000971292
-0.00188912
-0.00280568
-0.00372157
-0.00463713
0.00402853
0.00309373
0.00222011
0.00135401
0.000477582
-0.000404654
-0.00128716
-0.00216859
-0.00304943
-0.00392998
0.00441168
0.00351664
0.00267461
0.00183882
0.000994003
0.000144103
-0.000706069
-0.00155533
-0.00240407
-0.00325251
0.00478844
0.00392962
0.00311616
0.00230788
0.00149181
0.000671354
-0.000149356
-0.000969283
-0.00178872
-0.00260785
0.00515465
0.00432863
0.00354087
0.00275739
0.00196732
0.00117353
0.000379518
-0.000413808
-0.00120666
-0.00199917
0.00550626
0.00470971
0.00394491
0.00318364
0.00241691
0.00164709
0.000877106
0.000107739
-0.000661154
-0.00142965
0.00583935
0.00506902
0.00432453
0.00358296
0.00283698
0.00208851
0.00133995
0.000591967
-0.000155515
-0.00090253
0.00615008
0.00540281
0.00467604
0.0039517
0.00322395
0.00249427
0.00176458
0.00103546
0.000306894
-0.000421124
0.0064347
0.00570731
0.00499574
0.00428621
0.00357417
0.00286074
0.00214741
0.00143466
0.000722534
1.10561e-05
0.00668954
0.0059789
0.00528001
0.00458289
0.00388409
0.00318439
0.00248491
0.00178608
0.00108795
0.000390591
0.00691084
0.00621373
0.00552498
0.00483783
0.00414973
0.00346119
0.00277302
0.00208557
0.00139894
0.000713209
0.00709518
0.00640844
0.00572735
0.00504775
0.00436787
0.00368798
0.00300864
0.00233014
0.00165259
0.00097611
0.00723827
0.00655836
0.00588213
0.0052074
0.00453296
0.00385887
0.00318551
0.00251313
0.00184187
0.00117184
0.00733809
0.00666203
0.00598831
0.0053162
0.00464492
0.00397439
0.00330483
0.00263646
0.0019694
0.00130376
0.00738745
0.00671057
0.00603531
0.0053618
0.00468945
0.00401814
0.00334804
0.00267935
0.00201222
0.0013468
0.132695
0.13323
0.134294
0.135809
0.137749
0.140077
0.14277
0.145798
0.149136
0.15275
0.156606
0.160658
0.164854
0.169126
0.173399
0.177572
0.181539
0.185153
0.188276
0.190699
0.192254
0.192648
0.191719
0.189027
0.184527
0.177453
0.168233
0.155048
0.140004
0.116153
0.132257
0.132778
0.133815
0.135289
0.137176
0.139436
0.142045
0.144972
0.148189
0.15166
0.155348
0.159202
0.163169
0.167175
0.171142
0.174963
0.178531
0.181694
0.18431
0.18617
0.187108
0.186832
0.185187
0.181747
0.176474
0.168645
0.158656
0.144879
0.129059
0.107081
0.1318
0.132307
0.133314
0.134744
0.136572
0.138758
0.141276
0.144093
0.147179
0.150497
0.154006
0.157652
0.16138
0.165112
0.168767
0.172236
0.175409
0.178134
0.18027
0.181609
0.181992
0.181136
0.178899
0.174873
0.169049
0.160737
0.150362
0.13647
0.120795
0.100529
0.131322
0.131813
0.132789
0.134173
0.135939
0.138047
0.140469
0.143172
0.146122
0.14928
0.152602
0.156033
0.159513
0.162962
0.166297
0.169406
0.172177
0.174458
0.17611
0.176929
0.176763
0.175338
0.172528
0.167948
0.161609
0.152878
0.142184
0.128297
0.112785
0.0934692
0.130823
0.131298
0.13224
0.133577
0.135279
0.137307
0.13963
0.142215
0.145025
0.148019
0.151151
0.154362
0.157589
0.160752
0.163762
0.166508
0.168877
0.170715
0.171888
0.172195
0.171492
0.169516
0.166156
0.161053
0.154232
0.14513
0.134157
0.120299
0.104892
0.0862487
0.130302
0.13076
0.131668
0.132955
0.134591
0.136536
0.138758
0.141221
0.143888
0.146714
0.149651
0.152638
0.155611
0.158484
0.161169
0.163552
0.165521
0.166924
0.167628
0.167439
0.16622
0.163724
0.159851
0.154273
0.147025
0.137618
0.126431
0.112643
0.0973871
0.0793727
0.129758
0.130198
0.131071
0.132308
0.133875
0.135734
0.137852
0.140189
0.142709
0.145363
0.148102
0.150862
0.153576
0.156157
0.158517
0.160539
0.162113
0.163088
0.163336
0.162669
0.160959
0.157976
0.153631
0.14763
0.140014
0.130369
0.119037
0.105369
0.0903282
0.0729227
0.129191
0.129613
0.13045
0.131633
0.13313
0.134901
0.13691
0.13912
0.141488
0.143967
0.146504
0.149034
0.151486
0.153775
0.155809
0.157473
0.158655
0.159212
0.159017
0.157893
0.155718
0.152281
0.147505
0.14113
0.133202
0.123377
0.111964
0.0984556
0.0836758
0.0668539
0.1286
0.129004
0.129803
0.130931
0.132355
0.134035
0.135934
0.138012
0.140226
0.142526
0.144858
0.147154
0.149344
0.151339
0.153048
0.154357
0.155156
0.155304
0.154682
0.15312
0.150508
0.146651
0.141484
0.134783
0.126595
0.116644
0.105203
0.0918885
0.0774003
0.0611442
0.127985
0.12837
0.129129
0.130201
0.13155
0.133136
0.134922
0.136865
0.138922
0.14104
0.143164
0.145225
0.14715
0.148852
0.150238
0.151196
0.15162
0.151372
0.150338
0.148362
0.145339
0.141098
0.13558
0.128599
0.1202
0.110171
0.0987515
0.0856594
0.0714894
0.0557895
0.127345
0.12771
0.128429
0.129443
0.130715
0.132205
0.133874
0.13568
0.137576
0.13951
0.141423
0.143247
0.144908
0.146317
0.147384
0.147997
0.148054
0.147423
0.145996
0.143628
0.140225
0.135633
0.129805
0.122587
0.114026
0.103961
0.0926072
0.0797625
0.0659338
0.0507842
0.126679
0.127023
0.127702
0.128656
0.129849
0.13124
0.132791
0.134456
0.136189
0.137936
0.139637
0.141223
0.14262
0.143738
0.144489
0.144765
0.144466
0.143466
0.141665
0.13893
0.135174
0.130267
0.124168
0.116755
0.108076
0.0980158
0.086766
0.0741912
0.0607233
0.0461188
0.125987
0.126311
0.126947
0.12784
0.128952
0.130242
0.131671
0.133194
0.134762
0.136319
0.137807
0.139155
0.140288
0.141119
0.141559
0.141506
0.140861
0.139509
0.137354
0.134276
0.130199
0.12501
0.118679
0.11111
0.102354
0.092335
0.0812234
0.0689378
0.0558465
0.0417816
0.125269
0.125571
0.126164
0.126994
0.128023
0.129211
0.130516
0.131893
0.133294
0.134661
0.135935
0.137045
0.137916
0.138463
0.138599
0.138226
0.137249
0.13556
0.133072
0.129677
0.125308
0.119871
0.113344
0.105658
0.0968633
0.0869175
0.075974
0.0639943
0.0512919
0.0377605
0.124524
0.124804
0.125352
0.126118
0.127062
0.128145
0.129325
0.130556
0.131787
0.132963
0.134023
0.134895
0.135507
0.135775
0.135614
0.13493
0.133634
0.131627
0.128828
0.125141
0.12051
0.114858
0.108171
0.100403
0.0916046
0.0817615
0.0710121
0.0593521
0.0470478
0.0340427
0.123752
0.124009
0.124512
0.125212
0.12607
0.127047
0.128099
0.129181
0.130243
0.131227
0.132072
0.132708
0.133065
0.133059
0.132609
0.131626
0.130026
0.127719
0.12463
0.120678
0.115814
0.109979
0.103166
0.0953484
0.0865785
0.0768643
0.0663313
0.0550022
0.0431023
0.0306151
0.122952
0.123187
0.123643
0.124276
0.125046
0.125914
0.126838
0.127771
0.128661
0.129453
0.130085
0.130488
0.130593
0.130319
0.12959
0.12832
0.126431
0.123842
0.120487
0.116295
0.111228
0.10524
0.098333
0.0904967
0.0817844
0.0722224
0.0619246
0.050935
0.0394432
0.0274646
0.122125
0.122336
0.122745
0.123309
0.123991
0.124749
0.125543
0.126325
0.127044
0.127644
0.128064
0.128238
0.128096
0.127562
0.126562
0.125018
0.122857
0.120006
0.116407
0.112001
0.106759
0.100648
0.0936764
0.0858495
0.077221
0.0678314
0.0577846
0.0471408
0.0360584
0.0245777
0.12127
0.121456
0.121818
0.122313
0.122904
0.123552
0.124215
0.124845
0.125393
0.125802
0.126013
0.12596
0.125577
0.124791
0.123532
0.121727
0.11931
0.116217
0.112397
0.107803
0.102412
0.0962064
0.089199
0.0814072
0.0728858
0.0636863
0.0539034
0.0436095
0.0329357
0.0219413
0.120386
0.120549
0.120862
0.121286
0.121786
0.122323
0.122854
0.123332
0.123709
0.123929
0.123934
0.123659
0.123041
0.122012
0.120505
0.118453
0.115798
0.112483
0.108464
0.103707
0.0981943
0.0919199
0.0849026
0.0771695
0.0687759
0.0597814
0.0502727
0.0403307
0.0300627
0.0195423
0.119475
0.119613
0.119877
0.12023
0.120638
0.121062
0.121461
0.121788
0.121996
0.122028
0.121829
0.121338
0.120493
0.119229
0.117487
0.115203
0.112327
0.10881
0.104616
0.0997183
0.0941095
0.0877916
0.0807883
0.0731352
0.0648875
0.0561107
0.046884
0.037294
0.0274275
0.0173679
0.118536
0.118649
0.118863
0.119145
0.11946
0.119771
0.120038
0.120215
0.120254
0.120102
0.119704
0.119002
0.117937
0.11645
0.114483
0.111984
0.108904
0.105204
0.100857
0.0958431
0.0901618
0.0838236
0.0768566
0.0693025
0.0612163
0.0526675
0.0437284
0.0344889
0.025018
0.0154056
0.117569
0.117657
0.117821
0.118031
0.118253
0.118451
0.118586
0.118613
0.118486
0.118152
0.11756
0.116653
0.115378
0.113677
0.111501
0.1088
0.105535
0.101673
0.0971933
0.0920856
0.0863544
0.0800176
0.0731069
0.0656686
0.0577574
0.0494448
0.0407968
0.0319048
0.0228224
0.0136432
0.116575
0.116637
0.116751
0.116888
0.117017
0.117103
0.117107
0.116986
0.116694
0.116183
0.115402
0.114298
0.11282
0.110917
0.108544
0.105658
0.102226
0.0982211
0.09363
0.0884496
0.0826898
0.0763744
0.0695379
0.0622304
0.0545052
0.0464351
0.03808
0.0295314
0.0208293
0.0120689
0.115555
0.115591
0.115654
0.115719
0.115755
0.115728
0.115602
0.115335
0.114882
0.114197
0.113233
0.111939
0.110269
0.108176
0.10562
0.102564
0.0989819
0.0948536
0.0901712
0.0849383
0.0791697
0.072894
0.0661479
0.0589839
0.051454
0.0436308
0.0355689
0.0273581
0.0190273
0.0106711
0.114508
0.114518
0.114531
0.114523
0.114466
0.114328
0.114074
0.113662
0.113052
0.112198
0.111057
0.109581
0.107728
0.105457
0.102732
0.0995233
0.0958084
0.0915751
0.0868206
0.0815544
0.0757953
0.0695758
0.0629344
0.0559248
0.0485976
0.0410242
0.0332541
0.0253748
0.0174054
0.00943887
0.113435
0.11342
0.113382
0.113302
0.113153
0.112905
0.112523
0.11197
0.111207
0.11019
0.108878
0.107229
0.105204
0.102767
0.0998874
0.0965405
0.0927102
0.0883897
0.0835815
0.0782997
0.072567
0.0664187
0.0598944
0.0530484
0.0459295
0.0386072
0.0311263
0.0235713
0.015953
0.0083614
0.112338
0.112297
0.112209
0.112057
0.111817
0.11146
0.110954
0.110263
0.109349
0.108175
0.1067
0.104887
0.102701
0.10011
0.0970898
0.0936206
0.0896914
0.085301
0.0804562
0.0751756
0.0694845
0.0634207
0.0570244
0.0503494
0.0434429
0.0363717
0.0291764
0.0219377
0.0146596
0.0074284
0.111217
0.111151
0.111013
0.11079
0.110459
0.109995
0.109367
0.108541
0.107483
0.106157
0.104527
0.102559
0.100223
0.0974914
0.0943443
0.0907679
0.086756
0.082312
0.077447
0.0721828
0.0665473
0.0605797
0.0543204
0.0478224
0.0411308
0.0343095
0.0273952
0.0204643
0.0135152
0.00662992
0.110074
0.109982
0.109796
0.109502
0.109083
0.108513
0.107766
0.106809
0.105612
0.10414
0.102363
0.10025
0.0977746
0.094915
0.0916552
0.0879866
0.0839074
0.0794254
0.0745551
0.0693214
0.0637539
0.0578928
0.0517781
0.0454616
0.0389862
0.0324126
0.0257737
0.0191416
0.0125101
0.00595637
0.10891
0.108793
0.108558
0.108195
0.107688
0.107016
0.106153
0.10507
0.103739
0.102129
0.100213
0.0979643
0.095361
0.0923856
0.0890268
0.0852803
0.0811486
0.0766431
0.0717816
0.0665911
0.0611027
0.0553567
0.0493928
0.0432611
0.0370018
0.0306727
0.024303
0.0179604
0.0116347
0.00539854
0.107727
0.107585
0.107302
0.106871
0.106279
0.105507
0.104531
0.103327
0.101867
0.100127
0.0980802
0.0957061
0.0929861
0.0899074
0.0864628
0.0826522
0.078482
0.0739667
0.0691268
0.063991
0.0585913
0.052968
0.0471596
0.0412145
0.0351705
0.0290817
0.0229744
0.0169116
0.0108801
0.00494757
0.106526
0.106359
0.106029
0.105532
0.104857
0.103987
0.102903
0.101582
0.100001
0.0981371
0.0959692
0.0934795
0.0906541
0.0874843
0.0839668
0.0801054
0.0759098
0.0713975
0.0665908
0.0615199
0.0562173
0.0507226
0.0450734
0.0393156
0.0334849
0.0276317
0.0217794
0.0159866
0.0102375
0.00459491
0.105309
0.105119
0.104743
0.104181
0.103425
0.102462
0.101273
0.0998409
0.0981443
0.0961643
0.0938838
0.0912888
0.0883691
0.08512
0.081542
0.0776424
0.0734338
0.0689359
0.0641731
0.0591761
0.0539775
0.0486163
0.0431286
0.037558
0.0319377
0.0263147
0.0207097
0.0151767
0.00969829
0.00433238
0.104079
0.103865
0.103445
0.10282
0.101986
0.100932
0.099644
0.0981057
0.0963003
0.0942124
0.0918283
0.0891378
0.0861347
0.0828178
0.0791912
0.0752652
0.071055
0.0665824
0.0618727
0.0569574
0.0518688
0.0466447
0.0413198
0.0359352
0.0305217
0.025123
0.0197571
0.0144738
0.00925439
0.00415209
0.102838
0.102601
0.102138
0.101452
0.100542
0.0994019
0.0980189
0.0963805
0.0944733
0.0922853
0.0898065
0.0870305
0.0839545
0.080581
0.0769171
0.0729757
0.0687745
0.0643366
0.0596885
0.0548615
0.0498875
0.0448031
0.0396413
0.0344407
0.0292298
0.0240488
0.0189136
0.0138698
0.00889791
0.00404647
0.101588
0.10133
0.100824
0.10008
0.099098
0.0978748
0.0964017
0.0946691
0.092667
0.0903869
0.0878224
0.0849705
0.081832
0.0784124
0.0747218
0.0707754
0.0665928
0.0621982
0.0576187
0.0528855
0.0480299
0.0430867
0.0380874
0.033068
0.0280548
0.0230847
0.0181717
0.0133572
0.00862127
0.00400825
0.100333
0.100053
0.0995078
0.0987069
0.097656
0.0963541
0.0947961
0.0929754
0.0908854
0.0885212
0.0858798
0.0829614
0.0797702
0.0763146
0.0726072
0.0686653
0.0645099
0.0601662
0.0556615
0.0510266
0.0462918
0.0414905
0.0366523
0.0318106
0.0269898
0.0222234
0.0175237
0.0129283
0.00841718
0.00403045
0.099075
0.0987752
0.0981912
0.0973365
0.09622
0.0948438
0.0932059
0.0913032
0.0891325
0.0866921
0.0839823
0.0810067
0.0777722
0.0742901
0.070575
0.0666462
0.0625258
0.0582395
0.0538147
0.0492815
0.0446692
0.0400095
0.0353301
0.0306622
0.0260279
0.0214578
0.0169625
0.0125761
0.00827862
0.00410635
0.0978181
0.0974987
0.0968781
0.0959724
0.0947937
0.0933475
0.0916352
0.0896567
0.0874123
0.0849034
0.0821336
0.0791094
0.0758407
0.0723408
0.0686266
0.0647187
0.06064
0.0564167