/*--------------------------------*- C++ -*----------------------------------*\
  =========                 |
  \\      /  F ield         | OpenFOAM: The Open Source CFD Toolbox
   \\    /   O peration     | Website:  https://openfoam.org
    \\  /    A nd           | Version:  7
     \\/     M anipulation  |
\*---------------------------------------------------------------------------*/
FoamFile
{
    version     2.0;
    format      ascii;
    class       volVectorField;
    location    "60";
    object      U;
}
// * * * * * * * * * * * * * * * * * * * * * * * * * * * * * * * * * * * * * //

dimensions      [0 1 -1 0 0 0 0];

internalField   nonuniform List<vector> 
34000
(
(-0.000248227 -0.00086053 -5.84261e-22)
(-0.00171404 -0.002102 -3.14911e-21)
(-0.0047688 -0.00297183 3.86292e-22)
(-0.00885056 -0.00352464 -6.72846e-22)
(-0.0137447 -0.00381656 1.03071e-21)
(-0.019254 -0.00390054 -7.60428e-21)
(-0.0251933 -0.00382473 1.30791e-21)
(-0.0314061 -0.00363127 -5.16338e-21)
(-0.0377606 -0.00335519 -1.11269e-20)
(-0.0441485 -0.00302372 9.52931e-21)
(-0.0504844 -0.00265602 2.83864e-21)
(-0.0567048 -0.00226348 -3.41251e-21)
(-0.0627668 -0.00185035 4.19896e-21)
(-0.0686474 -0.00141474 5.75777e-21)
(-0.0743418 -0.000949784 -3.6439e-21)
(-0.0798619 -0.000444846 -4.92736e-21)
(-0.0852337 0.000113441 -1.18376e-20)
(-0.0904961 0.000740202 -9.18787e-22)
(-0.0956917 0.00145081 -2.01731e-21)
(-0.100862 0.0022656 -3.93936e-21)
(-0.000246706 -0.000339974 -2.85313e-21)
(-0.00171261 -0.000736783 2.39006e-21)
(-0.00476847 -0.000930252 -2.81711e-21)
(-0.00885134 -0.000951715 -6.34166e-21)
(-0.0137454 -0.000841006 5.19777e-21)
(-0.0192525 -0.00063513 3.16624e-20)
(-0.0251865 -0.000366692 -1.95432e-20)
(-0.0313902 -6.29981e-05 3.33596e-21)
(-0.0377314 0.000255119 1.60144e-20)
(-0.0441011 0.000573986 -1.13527e-23)
(-0.0504138 0.000887304 9.52985e-21)
(-0.0566055 0.00119589 -1.26572e-20)
(-0.0626333 0.00150698 1.32847e-20)
(-0.0684739 0.00183316 -1.14709e-20)
(-0.0741222 0.00219109 -4.46082e-21)
(-0.07959 0.00260001 2.25237e-20)
(-0.0849033 0.00308048 -7.05833e-21)
(-0.090101 0.0036529 1.10114e-21)
(-0.0952247 0.00433486 -1.33179e-20)
(-0.100311 0.00514947 -1.41473e-21)
(-0.000264853 0.000179054 -2.20821e-20)
(-0.00176008 0.000624141 2.87267e-21)
(-0.00483577 0.00110451 4.42877e-21)
(-0.00893028 0.00161201 1.9477e-20)
(-0.0138277 0.00212309 -2.27238e-20)
(-0.0193295 0.00261669 -3.54784e-20)
(-0.0252496 0.00307573 3.23717e-20)
(-0.0314308 0.00348773 -8.86612e-21)
(-0.0377405 0.00384603 -4.47801e-21)
(-0.0440699 0.00415044 -2.26395e-20)
(-0.0503331 0.0044075 6.18725e-21)
(-0.0564663 0.00463016 2.23203e-20)
(-0.0624262 0.00483712 -4.60638e-21)
(-0.0681894 0.00505164 1.83755e-20)
(-0.073751 0.00530016 -1.51834e-20)
(-0.0791225 0.00561058 -4.64008e-21)
(-0.0843299 0.00601068 3.62389e-20)
(-0.0894135 0.0065262 -2.25662e-21)
(-0.0944131 0.00717698 5.68988e-20)
(-0.099357 0.00798905 -1.33595e-20)
(-0.000302501 0.000694433 3.61128e-20)
(-0.00185608 0.00197547 -1.61982e-20)
(-0.00497029 0.00312479 -1.13095e-20)
(-0.00908704 0.00415711 -8.62137e-21)
(-0.0139912 0.00506503 1.59795e-20)
(-0.0194849 0.00584329 -2.99568e-21)
(-0.0253828 0.00649025 -5.40741e-20)
(-0.031528 0.00700815 -5.73209e-21)
(-0.0377884 0.00740438 -1.19326e-20)
(-0.0440554 0.00769216 -1.87052e-21)
(-0.0502433 0.00789074 -2.09535e-20)
(-0.0562881 0.00802514 2.37496e-20)
(-0.0621467 0.00812545 -3.52415e-20)
(-0.0677957 0.00822561 -1.07771e-21)
(-0.0732299 0.0083619 9.6528e-21)
(-0.0784612 0.00857098 -7.48962e-20)
(-0.083516 0.008888 -6.04334e-20)
(-0.088436 0.0093441 3.27781e-20)
(-0.0932599 0.0099616 -4.40811e-20)
(-0.0980047 0.0107698 1.13563e-21)
(-0.000359363 0.0012041 -4.84257e-21)
(-0.00199997 0.00331199 6.39955e-20)
(-0.00517128 0.00512305 3.00633e-20)
(-0.00932085 0.00667432 -1.96517e-21)
(-0.0142353 0.00797426 8.11997e-21)
(-0.0197183 0.00903321 1.26033e-21)
(-0.0255858 0.00986475 2.76685e-20)
(-0.0316819 0.0104857 3.28046e-20)
(-0.0378753 0.0109172 1.396e-20)
(-0.0440581 0.0111858 4.95297e-20)
(-0.0501449 0.0113234 -5.71075e-20)
(-0.056072 0.0113668 -1.20857e-20)
(-0.0617961 0.0113575 2.54565e-20)
(-0.067294 0.0113402 -4.43438e-20)
(-0.0725606 0.011361 2.026e-20)
(-0.077608 0.0114655 4.70798e-20)
(-0.0824632 0.0116965 1.13916e-20)
(-0.0871704 0.0120908 1.61593e-20)
(-0.0917671 0.0126734 -2.59477e-20)
(-0.0962564 0.0134774 2.82572e-21)
(-0.000435034 0.00170608 -2.35637e-20)
(-0.00219084 0.00462872 1.50716e-20)
(-0.00543761 0.00709203 -2.4609e-20)
(-0.00963056 0.00915468 7.15785e-21)
(-0.014559 0.0108406 2.0066e-20)
(-0.0200288 0.0121753 9.19053e-21)
(-0.0258578 0.0131874 1.73491e-20)
(-0.0318919 0.0139079 -1.22184e-20)
(-0.0380011 0.0143718 -7.55221e-20)
(-0.0440781 0.0146184 -6.76629e-20)
(-0.0500384 0.014692 -4.40113e-20)
(-0.0558184 0.0146413 1.67165e-20)
(-0.0613752 0.0145191 -9.563e-21)
(-0.0666853 0.0143806 7.29588e-20)
(-0.071744 0.0142821 -2.62916e-20)
(-0.0765637 0.0142785 2.14638e-20)
(-0.0811726 0.0144204 3.1303e-20)
(-0.0856178 0.0147506 -1.76247e-20)
(-0.0899361 0.0152973 1.53415e-19)
(-0.0941138 0.0160981 -5.69129e-20)
(-0.000529001 0.00219851 2.85759e-20)
(-0.00242751 0.00592089 -3.61054e-20)
(-0.00576783 0.0090248 -5.54251e-20)
(-0.0100146 0.0115896 -1.46624e-20)
(-0.0149607 0.0136541 6.46225e-21)
(-0.0204149 0.0152589 9.99354e-21)
(-0.0261978 0.0164468 3.35007e-20)
(-0.0321573 0.017263 7.42389e-21)
(-0.038165 0.0177557 2.53962e-21)
(-0.0441151 0.0179771 1.21488e-19)
(-0.0499237 0.0179835 9.14539e-20)
(-0.0555276 0.0178353 -5.48703e-20)
(-0.0608842 0.0175962 -8.10845e-21)
(-0.06597 0.0173325 -2.19098e-20)
(-0.0707806 0.0171105 2.1665e-20)
(-0.0753289 0.0169946 -1.14701e-19)
(-0.0796444 0.0170441 -2.39502e-20)
(-0.0837781 0.0173081 -3.60353e-20)
(-0.0877666 0.0178184 -8.71811e-20)
(-0.0915767 0.0186184 4.70858e-20)
(-0.000640656 0.00267965 4.75907e-21)
(-0.00270859 0.00718403 -1.7576e-20)
(-0.00616016 0.0109147 5.00157e-20)
(-0.0104712 0.0139708 -3.08467e-20)
(-0.0154387 0.0164054 -1.72764e-20)
(-0.0208751 0.0182734 2.75918e-20)
(-0.0266043 0.0196318 -4.68768e-20)
(-0.0324768 0.0205393 -6.43952e-21)
(-0.0383662 0.021057 8.92541e-20)
(-0.0441683 0.0212496 -5.72082e-20)
(-0.0498001 0.0211851 -2.35881e-20)
(-0.0551992 0.0209354 2.79255e-20)
(-0.0603229 0.0205753 -7.37686e-21)
(-0.0651479 0.0201816 -3.83908e-21)
(-0.0696701 0.0198312 3.15957e-20)
(-0.073903 0.0195986 -8.39533e-20)
(-0.0778776 0.0195521 2.94289e-20)
(-0.0816499 0.0197478 -2.23e-20)
(-0.0852569 0.0202221 -5.00632e-20)
(-0.0886433 0.0210255 1.79544e-20)
(-0.000769301 0.00314788 -1.33711e-20)
(-0.00303246 0.00841397 9.66774e-20)
(-0.00661252 0.0127557 -2.15136e-20)
(-0.010998 0.0162905 1.32313e-20)
(-0.0159905 0.0190855 9.60346e-20)
(-0.0214071 0.021209 -6.52166e-20)
(-0.0270752 0.0227318 -3.21506e-20)
(-0.0328484 0.0237256 -5.60996e-20)
(-0.038603 0.0242641 -6.15865e-20)
(-0.0442363 0.0244238 -4.07091e-20)
(-0.0496666 0.0242846 -5.51812e-20)
(-0.0548321 0.0239291 1.00658e-19)
(-0.0596904 0.0234431 -1.11991e-20)
(-0.0642181 0.0229142 -2.35403e-20)
(-0.0684112 0.0224301 -1.23301e-19)
(-0.0722842 0.0220756 6.93106e-20)
(-0.07587 0.0219292 1.72944e-20)
(-0.0792301 0.0220547 4.33139e-20)
(-0.0824033 0.022494 2.93626e-20)
(-0.0853092 0.0233068 -7.7843e-20)
(-0.000914167 0.00360174 -4.15349e-20)
(-0.00339729 0.00960684 5.63805e-20)
(-0.00712257 0.0145418 3.18792e-20)
(-0.0115923 0.0185415 1.45335e-20)
(-0.0166137 0.0216858 1.21906e-20)
(-0.0220082 0.0240562 -4.37043e-20)
(-0.027608 0.0257366 9.49127e-20)
(-0.03327 0.0268111 5.35866e-21)
(-0.0388731 0.0273657 8.83836e-20)
(-0.044317 0.0274884 -5.16728e-20)
(-0.0495211 0.02727 8.34794e-20)
(-0.0544244 0.026804 -8.28407e-20)
(-0.0589846 0.0261869 -7.48243e-20)
(-0.0631782 0.025517 6.39893e-20)
(-0.0670014 0.024893 2.27393e-19)
(-0.0704695 0.024411 -1.25697e-19)
(-0.0736173 0.0241603 1.03572e-19)
(-0.0765135 0.0242137 2.38657e-20)
(-0.0791994 0.02462 -8.98137e-20)
(-0.0815669 0.0254505 7.4651e-20)
(-0.00107442 0.00403992 7.54433e-20)
(-0.00380112 0.0107592 -4.33229e-20)
(-0.00768768 0.0162679 1.47656e-20)
(-0.0122513 0.0207169 5.58322e-20)
(-0.0173049 0.0241983 -5.16825e-20)
(-0.0226755 0.0268061 1.01719e-19)
(-0.0281996 0.0286365 -1.8542e-20)
(-0.0337383 0.0297858 2.34018e-21)
(-0.0391736 0.0303514 -1.22091e-19)
(-0.0444074 0.0304323 7.74741e-20)
(-0.0493607 0.03013 1.78964e-20)
(-0.0539731 0.0295485 -2.36116e-20)
(-0.0582023 0.0287946 2.97687e-20)
(-0.0620248 0.0279773 -1.18019e-19)
(-0.0654366 0.0272066 -6.59887e-20)
(-0.0684537 0.0265905 1.39206e-19)
(-0.0711134 0.0262305 -7.79323e-20)
(-0.0734921 0.0262101 -1.11487e-19)
(-0.0756357 0.0265861 2.0728e-19)
(-0.0774051 0.0274452 -3.57904e-22)
(-0.00124918 0.00446127 6.31843e-20)
(-0.00424182 0.0118678 -7.96896e-20)
(-0.008305 0.0179291 -8.3602e-20)
(-0.0129716 0.0228105 -4.00661e-20)
(-0.0180608 0.0266156 -5.82292e-20)
(-0.023405 0.0294503 -3.30675e-20)
(-0.0288462 0.0314225 -1.40248e-19)
(-0.0342496 0.0326399 1.73188e-20)
(-0.0395007 0.0332109 -5.99823e-20)
(-0.0445037 0.0332452 2.10844e-19)
(-0.0491814 0.0328541 -1.22959e-19)
(-0.0534739 0.0321516 7.57988e-20)
(-0.057339 0.0312546 -2.32548e-20)
(-0.0607527 0.0302828 1.2829e-19)
(-0.0637106 0.0293579 1.05683e-20)
(-0.0662296 0.0286005 -1.10583e-19)
(-0.0683492 0.0281256 -1.98355e-20)
(-0.0701549 0.0280291 4.92688e-21)
(-0.0716989 0.0283786 -8.65033e-21)
(-0.0728075 0.02928 1.38659e-19)
(-0.00143753 0.00486481 -7.86746e-20)
(-0.00471713 0.01293 -7.61201e-20)
(-0.00897147 0.0195211 3.17687e-20)
(-0.0137496 0.0248166 7.96922e-20)
(-0.0188773 0.028931 -5.77285e-21)
(-0.0241928 0.031981 -5.53038e-20)
(-0.0295435 0.034086 1.23481e-19)
(-0.0347994 0.0353644 -1.39324e-20)
(-0.0398494 0.035935 1.51193e-19)
(-0.0446007 0.0359173 -1.68792e-19)
(-0.0489776 0.0354321 4.46695e-20)
(-0.0529208 0.034603 5.30462e-20)
(-0.0563881 0.0335564 -1.60765e-21)
(-0.0593545 0.0324225 -8.9123e-22)
(-0.0618152 0.0313349 -1.01786e-19)
(-0.0637872 0.0304279 1.39123e-20)
(-0.0653126 0.0298317 1.36815e-19)
(-0.0664869 0.0296566 1.76187e-19)
(-0.067371 0.0299842 -2.09449e-19)
(-0.0677522 0.0309447 -1.3337e-19)
(-0.00163852 0.00524971 3.29472e-20)
(-0.00522472 0.0139433 5.0834e-20)
(-0.00968382 0.0210399 6.2097e-20)
(-0.0145815 0.0267301 -1.05352e-19)
(-0.01975 0.031138 1.1104e-19)
(-0.0250339 0.0343911 1.06147e-19)
(-0.0302863 0.0366192 -4.16386e-20)
(-0.0353819 0.0379509 1.82778e-19)
(-0.0402138 0.0385147 -1.85768e-19)
(-0.0446919 0.0384395 8.26394e-20)
(-0.0487422 0.0378549 8.43893e-20)
(-0.0523062 0.0368932 -6.60877e-21)
(-0.0553409 0.0356901 1.06717e-21)
(-0.0578205 0.034386 1.1161e-20)
(-0.0597389 0.0331266 -7.9653e-20)
(-0.0611131 0.0320606 7.89962e-20)
(-0.0619873 0.0313354 -4.07998e-20)
(-0.0624684 0.031079 -9.17022e-20)
(-0.0626286 0.0313895 1.18603e-19)
(-0.0622104 0.0324298 2.46053e-20)
(-0.00185119 0.0056153 -1.90012e-20)
(-0.00576216 0.0149058 2.3899e-20)
(-0.0104386 0.0224823 -5.19467e-20)
(-0.0154629 0.0285462 -7.78001e-20)
(-0.020674 0.033231 -8.04281e-20)
(-0.0259228 0.0366739 -7.27613e-20)
(-0.0310684 0.0390147 1.1884e-19)
(-0.0359906 0.0403915 -6.04531e-20)
(-0.0405865 0.040942 4.83881e-20)
(-0.0447691 0.0408036 5.32641e-21)
(-0.0484662 0.0401141 -1.32377e-20)
(-0.0516198 0.0390139 3.30989e-20)
(-0.0541861 0.0376471 -6.47031e-20)
(-0.0561378 0.0361643 3.39935e-20)
(-0.0574669 0.0347231 1.09673e-19)
(-0.0581899 0.0334877 -1.60498e-19)
(-0.0583528 0.0326248 -1.02736e-19)
(-0.0580745 0.0322829 1.35152e-19)
(-0.0574421 0.0325821 -7.93474e-20)
(-0.056145 0.0337262 -1.21553e-19)
(-0.00207459 0.00596106 7.00658e-20)
(-0.00632695 0.0158157 -7.19798e-20)
(-0.0112322 0.0238453 5.85014e-20)
(-0.0163893 0.030261 9.41768e-20)
(-0.021644 0.0352049 -1.73962e-20)
(-0.0268534 0.0388235 -6.2377e-20)
(-0.0318829 0.0412657 -1.16853e-19)
(-0.0366175 0.042679 -8.91412e-20)
(-0.0409586 0.0432093 -1.79881e-19)
(-0.0448224 0.0430019 1.83115e-20)
(-0.0481384 0.0422021 -1.60878e-20)
(-0.0508489 0.0409575 -1.28544e-19)
(-0.0529093 0.0394201 1.11484e-19)
(-0.0542898 0.0377498 1.36902e-19)
(-0.0549803 0.0361162 -6.90392e-21)
(-0.0549955 0.0346999 8.40132e-20)
(-0.0543826 0.033689 -4.25738e-20)
(-0.0532735 0.0332566 6.7833e-21)
(-0.0517743 0.0335498 1.19579e-19)
(-0.0495092 0.0348254 2.84468e-19)
(-0.00230775 0.00628662 -3.04321e-20)
(-0.00691655 0.0166717 -2.14252e-20)
(-0.0120607 0.0251265 6.0284e-20)
(-0.0173558 0.0318708 -8.4313e-20)
(-0.0226539 0.0370551 -2.19901e-20)
(-0.0278187 0.0408342 1.31063e-19)
(-0.0327217 0.0433662 -3.10441e-20)
(-0.0372533 0.0448068 -9.00126e-20)
(-0.0413196 0.0453099 1.46459e-19)
(-0.0448396 0.0450278 -3.94236e-20)
(-0.0477448 0.0441124 2.88001e-20)
(-0.0499777 0.0427178 1.56631e-19)
(-0.0514923 0.041003 -2.17908e-19)
(-0.0522559 0.0391364 -5.96836e-20)
(-0.0522552 0.0372996 -1.17445e-19)
(-0.0515022 0.0356898 2.38587e-19)
(-0.0500442 0.0345189 7.47612e-21)
(-0.0480264 0.0339893 1.31392e-19)
(-0.0455798 0.034281 -4.78294e-20)
(-0.0422444 0.0357187 -2.69109e-19)
(-0.00254974 0.00659172 -7.07035e-20)
(-0.00752839 0.0174726 1.02522e-19)
(-0.0129204 0.0263237 1.39595e-21)
(-0.0183573 0.0333726 -1.00831e-21)
(-0.0236974 0.0387774 1.07597e-19)
(-0.0288109 0.0427013 7.76455e-20)
(-0.0335756 0.0453106 -2.93621e-21)
(-0.0378874 0.046769 2.33156e-19)
(-0.0416568 0.0472376 8.94732e-20)
(-0.0448062 0.0468752 -1.64691e-19)
(-0.0472687 0.0458394 7.79055e-21)
(-0.0489869 0.0442898 -5.71066e-21)
(-0.0499128 0.0423913 2.30576e-19)
(-0.0500105 0.0403202 -2.58147e-19)
(-0.0492619 0.038269 7.12953e-20)
(-0.0476756 0.0364523 2.54787e-21)
(-0.0452972 0.035108 -1.82208e-19)
(-0.0422857 0.0344726 -1.89028e-19)
(-0.0388044 0.0347653 -2.2908e-20)
(-0.0342787 0.0363991 2.72735e-19)
(-0.00279961 0.00687623 2.29358e-20)
(-0.00815986 0.0182178 -7.29663e-20)
(-0.013807 0.0274354 7.06707e-20)
(-0.019388 0.0347637 -1.05886e-19)
(-0.0247673 0.0403682 1.31706e-19)
(-0.0298213 0.0444202 -2.20944e-19)
(-0.0344342 0.0470938 -5.4625e-20)
(-0.0385074 0.0485602 -1.21889e-19)
(-0.0419557 0.0489871 -5.75307e-20)
(-0.0447051 0.048539 1.02692e-19)
(-0.04669 0.0473786 2.09646e-19)
(-0.047853 0.0456697 -2.35122e-19)
(-0.0481437 0.0435824 -8.79198e-20)
(-0.0475219 0.0412991 3.19271e-19)
(-0.0459643 0.039023 -1.15762e-19)
(-0.0434737 0.0369855 -1.66708e-19)
(-0.0400927 0.035453 2.11266e-19)
(-0.0359936 0.034701 4.45129e-20)
(-0.0313838 0.0349959 4.23161e-20)
(-0.0255311 0.0368768 -1.75448e-19)
(-0.00305647 0.00714013 8.98087e-21)
(-0.00880833 0.0189067 -3.80613e-20)
(-0.0147162 0.0284601 1.23956e-19)
(-0.0204421 0.0360418 -1.60529e-19)
(-0.025856 0.0418245 -1.32774e-19)
(-0.0308404 0.045987 8.40485e-20)
(-0.0352857 0.0487114 2.33467e-19)
(-0.0390989 0.0501756 -1.47529e-19)
(-0.0421993 0.0505535 3.56645e-20)
(-0.0445159 0.0500148 -7.10431e-20)
(-0.0459849 0.0487263 -2.86816e-19)
(-0.046548 0.0468553 1.73767e-19)
(-0.0461522 0.0445752 1.40226e-19)
(-0.0447525 0.0420737 -2.48628e-19)
(-0.0423183 0.039563 5.82964e-20)
(-0.0388457 0.0372911 2.32056e-19)
(-0.0343714 0.0355543 9.08887e-20)
(-0.0290799 0.0346721 3.19749e-20)
(-0.0232333 0.0349705 -1.87127e-19)
(-0.0159362 0.0371995 -9.05457e-20)
(-0.00331943 0.00738346 -6.20306e-20)
(-0.00947112 0.0195388 -1.14221e-19)
(-0.0156437 0.0293967 -6.58999e-20)
(-0.0215131 0.037205 8.73107e-20)
(-0.0269549 0.0431433 -5.10736e-21)
(-0.0318573 0.0473983 1.95955e-19)
(-0.0361168 0.0501591 -1.84729e-20)
(-0.0396458 0.0516107 2.19384e-20)
(-0.0423679 0.0519327 1.4085e-19)
(-0.0442153 0.0512991 1.78374e-19)
(-0.0451253 0.0498801 -8.29862e-21)
(-0.0450389 0.0478454 -3.95167e-20)
(-0.0438997 0.0453706 -2.31503e-19)
(-0.0416568 0.0426471 1.73531e-19)
(-0.0382714 0.039894 -1.54368e-20)
(-0.0337307 0.037375 -1.03752e-19)
(-0.0280632 0.0354169 -5.18454e-19)
(-0.0214613 0.0343881 1.83361e-19)
(-0.0142266 0.034688 9.7585e-21)
(-0.00540387 0.0373093 -1.12014e-19)
(-0.00358763 0.00760635 5.73047e-20)
(-0.0101455 0.0201142 1.49282e-19)
(-0.0165847 0.0302446 -1.13748e-19)
(-0.0225944 0.0382517 -5.51663e-20)
(-0.028055 0.0443223 4.60911e-20)
(-0.0328603 0.0486507 -1.11449e-19)
(-0.0369127 0.0514335 -2.07084e-19)
(-0.0401297 0.0528619 1.22656e-19)
(-0.0424393 0.0531209 -1.40488e-20)
(-0.0437763 0.0523888 -2.81918e-19)
(-0.044079 0.0508382 5.4092e-20)
(-0.0432872 0.0486403 3.04769e-20)
(-0.0413406 0.0459715 -5.29788e-20)
(-0.0381815 0.0430248 1.39997e-19)
(-0.0337616 0.0400246 2.72465e-19)
(-0.0280569 0.0372478 -1.77167e-19)
(-0.0210853 0.0350517 1.43883e-19)
(-0.013047 0.0338572 3.49837e-20)
(-0.00427204 0.0341512 2.00257e-19)
(0.00628397 0.0371759 8.9031e-20)
(-0.00386021 0.00780899 -6.2858e-20)
(-0.0108289 0.0206326 -7.26114e-21)
(-0.0175344 0.031003 1.61224e-19)
(-0.0236787 0.0391804 1.60122e-19)
(-0.0291464 0.0453593 -3.287e-20)
(-0.0338364 0.0497416 -2.0781e-20)
(-0.0376568 0.0525311 2.0844e-19)
(-0.0405301 0.0539256 -1.61939e-19)
(-0.0423882 0.0541152 4.94178e-20)
(-0.0431681 0.0532817 2.04777e-19)
(-0.0428089 0.0516 1.96336e-19)
(-0.0412484 0.0492415 7.65206e-20)
(-0.0384221 0.0463825 3.34769e-19)
(-0.0342643 0.0432154 -4.60699e-20)
(-0.0287162 0.0399673 -3.54191e-19)
(-0.0217402 0.0369258 1.74115e-19)
(-0.0133405 0.0344769 -9.27655e-20)
(-0.00372244 0.0330976 -2.15808e-19)
(0.00674524 0.0333788 -1.52682e-19)
(0.0192686 0.0368488 -1.51943e-19)
(-0.00413637 0.0079916 4.02693e-20)
(-0.0115183 0.0210943 8.45357e-20)
(-0.0184878 0.0316716 -5.87784e-20)
(-0.0247582 0.0399902 -7.31459e-20)
(-0.0302181 0.0462525 -7.61053e-20)
(-0.0347712 0.0506684 -2.05321e-20)
(-0.0383309 0.053449 -2.15195e-19)
(-0.040824 0.0547988 1.10504e-19)
(-0.042186 0.0549128 -1.01737e-19)
(-0.0423559 0.0539761 -1.71987e-19)
(-0.0412726 0.0521653 6.11394e-21)
(-0.0388718 0.0496517 -4.36304e-19)
(-0.0350835 0.0466098 -3.38404e-19)
(-0.0298337 0.0432299 1.06976e-19)
(-0.0230513 0.0397389 5.40335e-20)
(-0.0146836 0.0364311 -1.1589e-19)
(-0.00471703 0.0337181 4.48524e-19)
(0.00664182 0.0321343 -7.0236e-20)
(0.0189724 0.0323842 1.9077e-19)
(0.0337103 0.0363619 1.69588e-19)
(-0.00441527 0.00815442 -5.52661e-20)
(-0.0122109 0.0214992 -1.83641e-19)
(-0.0194394 0.0322499 5.84956e-20)
(-0.0258246 0.0406799 3.29382e-21)
(-0.0312585 0.0470001 2.48895e-19)
(-0.0356491 0.0514287 -1.48659e-19)
(-0.0389146 0.0541847 8.14072e-20)
(-0.0409858 0.0554788 1.16369e-19)
(-0.041801 0.0555113 -9.17015e-21)
(-0.0413006 0.0544708 7.18106e-20)
(-0.0394228 0.0525349 2.18557e-19)
(-0.0360999 0.0498745 4.57006e-19)
(-0.0312562 0.0466613 3.66652e-20)
(-0.0248081 0.0430819 -2.02311e-19)
(-0.0166713 0.0393596 3.68092e-20)
(-0.00677633 0.0357914 3.5704e-19)
(0.00491173 0.0328093 -2.41856e-19)
(0.0181905 0.031003 9.49152e-22)
(0.0325735 0.0311956 1.853e-19)
(0.0497999 0.035745 -1.13753e-19)
(-0.00469613 0.0082977 -5.30557e-20)
(-0.0129038 0.0218477 2.17374e-19)
(-0.0203836 0.0327377 -1.66022e-19)
(-0.026869 0.0412487 -3.39449e-20)
(-0.0322548 0.0476007 -5.73326e-20)
(-0.036453 0.0520207 -1.49164e-19)
(-0.0393856 0.0547357 1.48603e-19)
(-0.0409872 0.0559633 -4.89565e-20)
(-0.0411981 0.0559091 -8.76606e-20)
(-0.039959 0.054765 1.43631e-19)
(-0.0372064 0.05271 -1.66321e-19)
(-0.0328687 0.0499143 -5.35544e-20)
(-0.0268631 0.0465462 -5.95703e-21)
(-0.0190958 0.0427868 1.42019e-19)
(-0.00946841 0.0388535 -1.28377e-19)
(0.00210648 0.0350404 -2.42032e-19)
(0.0156881 0.0317935 -7.39029e-20)
(0.0310846 0.0297521 -1.06818e-19)
(0.0477273 0.0298563 -3.25387e-19)
(0.0677484 0.035039 -9.62444e-20)
(-0.0049781 0.00842169 7.53909e-20)
(-0.0135939 0.0221398 -9.53972e-20)
(-0.0213143 0.0331349 -1.19937e-19)
(-0.0278818 0.0416959 -1.13378e-19)
(-0.0331933 0.0480529 3.77591e-20)
(-0.0371641 0.0524425 2.11098e-20)
(-0.0397197 0.0551 5.3141e-20)
(-0.0407973 0.0562504 -1.37835e-19)
(-0.0403384 0.0561045 1.06819e-19)
(-0.0382831 0.0548583 -3.19516e-19)
(-0.034565 0.0526924 -1.60288e-19)
(-0.0291072 0.0497761 2.74789e-21)
(-0.0218189 0.0462743 1.42016e-19)
(-0.0125954 0.0423619 -9.29598e-20)
(-0.00132336 0.0382474 2.36876e-19)
(0.0121031 0.034217 -5.79397e-20)
(0.0277695 0.0307221 7.53087e-20)
(0.0455013 0.0284425 2.83125e-19)
(0.0646271 0.0284243 3.74183e-20)
(0.087781 0.0342993 1.78734e-19)
(-0.00526038 0.00852664 -1.59343e-19)
(-0.014278 0.0223758 1.28788e-19)
(-0.0222252 0.0334412 1.44558e-19)
(-0.0288527 0.0420208 -8.42829e-20)
(-0.034059 0.0483557 1.44034e-19)
(-0.037762 0.0526926 1.38897e-19)
(-0.0398902 0.055276 -2.51561e-20)
(-0.0403822 0.0563383 -4.7624e-20)
(-0.0391796 0.0560967 -1.29509e-19)
(-0.0362206 0.054751 6.05897e-20)
(-0.0314345 0.0524843 5.88976e-21)
(-0.0247378 0.0494655 -1.58749e-19)
(-0.0160304 0.0458565 1.18161e-19)
(-0.00519585 0.0418254 -9.26152e-20)
(0.00789436 0.0375702 -1.6806e-19)
(0.0233645 0.0333641 -2.19071e-19)
(0.0413267 0.0296544 5.36392e-20)
(0.0616309 0.0271482 7.43798e-20)
(0.0834776 0.0269735 -7.08666e-20)
(0.110131 0.0335986 2.94515e-19)
(-0.00554211 0.00861276 -1.26154e-19)
(-0.0149525 0.0225557 -1.18601e-19)
(-0.0231093 0.0336563 9.38465e-20)
(-0.0297705 0.0422228 5.45906e-20)
(-0.0348357 0.048508 2.24579e-20)
(-0.0382248 0.0527697 -4.09815e-20)
(-0.0398681 0.0552621 -2.87723e-20)
(-0.0397049 0.056226 6.59904e-20)
(-0.0376755 0.055885 -6.21209e-20)
(-0.0337145 0.0544438 4.98721e-19)
(-0.0277455 0.0520885 3.63684e-20)
(-0.0196764 0.0489886 -5.57588e-20)
(-0.00939687 0.0453039 -3.67479e-19)
(0.00322245 0.0411961 7.07919e-20)
(0.018325 0.0368519 -1.81332e-19)
(0.0360521 0.0325275 1.19761e-19)
(0.0565416 0.0286556 1.09583e-19)
(0.0796743 0.0259547 -4.15556e-19)
(0.104491 0.0255942 -1.28818e-19)
(0.135032 0.0330283 -4.39217e-19)
(-0.00582238 0.0086802 6.09562e-20)
(-0.0156139 0.0226796 1.22937e-19)
(-0.0239592 0.0337802 -2.21693e-19)
(-0.0306232 0.0423013 -1.69908e-19)
(-0.0355059 0.0485089 8.63306e-20)
(-0.0385284 0.0526729 8.09731e-20)
(-0.0396221 0.0550577 -1.68237e-19)
(-0.0387255 0.055913 -1.51664e-20)
(-0.0357762 0.0554698 8.94986e-21)
(-0.0307035 0.0539383 -1.50142e-19)
(-0.0234231 0.0515086 2.18513e-19)
(-0.0138329 0.0483522 1.16677e-21)
(-0.00181056 0.0446281 2.75866e-19)
(0.0127867 0.0404931 1.87076e-19)
(0.0301168 0.0361229 3.14773e-20)
(0.050336 0.0317538 3.92983e-19)
(0.0736036 0.0277947 -3.55937e-19)
(0.0998371 0.0249574 1.64695e-19)
(0.127879 0.0243925 1.28424e-19)
(0.162707 0.0327007 1.0877e-19)
(-0.00610023 0.00872909 2.94637e-19)
(-0.0162582 0.0227475 -2.08303e-19)
(-0.0247669 0.0338125 5.03986e-20)
(-0.0313977 0.0422559 1.65013e-19)
(-0.0360505 0.048358 -1.77894e-19)
(-0.0386469 0.0524016 8.7443e-21)
(-0.0391182 0.0546625 1.35594e-19)
(-0.0374009 0.0553997 2.49073e-19)
(-0.033428 0.0548522 3.37286e-19)
(-0.0271216 0.053237 -3.22999e-19)
(-0.0183875 0.0507492 -1.92263e-19)
(-0.00711155 0.047564 9.12568e-20)
(0.00684207 0.0438413 -2.6226e-19)
(0.0236301 0.0397355 1.79738e-20)
(0.0434239 0.035413 1.02092e-19)
(0.0663907 0.0310893 7.8344e-20)
(0.0927051 0.0271417 2.39823e-19)
(0.122324 0.0242577 4.99387e-20)
(0.153848 0.0234884 -1.79848e-19)
(0.193353 0.0327495 1.91862e-19)
(-0.00637463 0.0087595 -2.79619e-19)
(-0.0168811 0.0227592 2.07635e-19)
(-0.0255237 0.033753 5.03402e-20)
(-0.0320799 0.0420862 -1.6391e-19)
(-0.0364489 0.048055 6.93259e-20)
(-0.0385523 0.051956 -3.36092e-20)
(-0.0383198 0.0540769 -2.51338e-20)
(-0.0356846 0.0546873 -2.1049e-19)
(-0.0305732 0.0540348 -3.31843e-19)
(-0.0228984 0.052344 3.10362e-19)
(-0.0125539 0.0498166 -1.11709e-19)
(0.000588446 0.046633 3.4583e-21)
(0.0166795 0.0429567 6.32727e-20)
(0.03589 0.0389425 1.3403e-19)
(0.058403 0.0347508 -1.62648e-20)
(0.0843917 0.0305778 -3.76934e-20)
(0.114036 0.0267645 -1.93081e-19)
(0.147329 0.0239587 -1.28906e-19)
(0.182592 0.0230123 -1.21704e-19)
(0.227122 0.0333299 1.91219e-19)
(-0.00664443 0.00877142 2.2486e-19)
(-0.0174779 0.0227144 -5.86882e-20)
(-0.0262201 0.0336012 1.99955e-19)
(-0.0326544 0.041792 4.84815e-20)
(-0.0366789 0.0475999 -1.07066e-19)
(-0.0382142 0.0513365 1.72625e-20)
(-0.0371876 0.0533025 -2.28043e-19)
(-0.0335269 0.0537784 1.03607e-19)
(-0.0271504 0.0530215 5.61818e-20)
(-0.0179593 0.0512652 -2.07176e-20)
(-0.00583318 0.0487187 -2.36322e-20)
(0.00937224 0.0455701 2.78779e-20)
(0.0278238 0.0419891 -1.26525e-19)
(0.0497061 0.0381341 -2.94188e-19)
(0.0752111 0.0341642 1.49081e-19)
(0.104511 0.0302603 -7.39538e-20)
(0.137779 0.0267263 -1.78531e-20)
(0.175029 0.0241602 3.1199e-19)
(0.214279 0.0231014 3.2467e-19)
(0.264102 0.0346173 -4.90697e-19)
(-0.00690837 0.00876477 -5.71786e-20)
(-0.0180435 0.022613 -6.347e-20)
(-0.0268456 0.033357 -1.25365e-19)
(-0.0331044 0.0413731 9.22003e-20)
(-0.0367163 0.0469931 1.66882e-19)
(-0.0376 0.0505446 -2.1609e-19)
(-0.035679 0.0523419 3.45131e-19)
(-0.0308744 0.0526771 -6.74971e-20)
(-0.0230941 0.0518184 1.005e-20)
(-0.0122255 0.0500086 -2.33799e-19)
(0.00186808 0.0474666 -1.78649e-20)
(0.0193486 0.0443893 -1.92146e-19)
(0.0403995 0.0409556 2.57585e-19)
(0.0652183 0.0373318 1.69237e-19)
(0.0940016 0.0336806 -3.30205e-19)
(0.126912 0.0301741 -2.80486e-19)
(0.1641 0.0270833 6.4549e-20)
(0.205576 0.0249527 3.73936e-19)
(0.249054 0.0238968 1.71816e-19)
(0.304289 0.036805 9.34213e-20)
(-0.00716501 0.00873939 1.82071e-20)
(-0.0185722 0.0224542 6.14711e-20)
(-0.0273891 0.0330198 7.43462e-20)
(-0.0334119 0.0408298 -6.18367e-20)
(-0.0365351 0.0462358 1.55328e-19)
(-0.0366746 0.0495826 2.08051e-19)
(-0.033749 0.0511988 3.40836e-21)
(-0.0276706 0.0513895 -2.68497e-19)
(-0.0183351 0.0504339 -2.14417e-19)
(-0.00561425 0.0485857 2.24297e-19)
(0.0106468 0.0460743 -3.00369e-19)
(0.0306287 0.043108 -3.37055e-19)
(0.0545317 0.0398773 -3.37108e-20)
(0.0825637 0.0365599 -1.77337e-20)
(0.114921 0.0333282 1.16534e-19)
(0.151745 0.030353 7.63003e-20)
(0.193146 0.0278835 9.86577e-20)
(0.239087 0.0264112 -4.6231e-19)
(0.287031 0.025538 -1.26212e-19)
(0.347567 0.0400915 3.2856e-19)
(-0.00741274 0.00869502 -1.07011e-19)
(-0.0190576 0.0222376 1.05295e-19)
(-0.027838 0.0325893 -7.74133e-20)
(-0.033557 0.0401623 -3.85852e-20)
(-0.036107 0.0453295 -1.04866e-19)
(-0.0354002 0.0484537 -7.94878e-20)
(-0.0313489 0.0498789 -1.42099e-19)
(-0.0238552 0.0499235 2.34763e-19)
(-0.0128005 0.048879 9.30809e-20)
(0.00196068 0.0470108 -2.29096e-19)
(0.0206028 0.0445603 3.58004e-19)
(0.0433255 0.0417483 1.83394e-19)
(0.0703444 0.0387793 -1.38647e-19)
(0.101874 0.0358464 -1.93806e-19)
(0.138103 0.0331367 -2.47083e-20)
(0.17914 0.0308286 1.98652e-19)
(0.225036 0.0291663 -1.31717e-19)
(0.275633 0.0285883 5.03389e-20)
(0.328299 0.0281589 1.12533e-19)
(0.393688 0.0446586 2.75066e-19)
(-0.00764971 0.00863132 -1.07926e-20)
(-0.0194929 0.0219625 -2.60271e-19)
(-0.0281789 0.0320653 6.36483e-20)
(-0.0335185 0.0393714 1.40868e-19)
(-0.0354017 0.0442765 -2.59937e-20)
(-0.0337364 0.0471624 -1.70654e-19)
(-0.0284273 0.0483893 1.88089e-19)
(-0.0193647 0.0482898 2.15048e-19)
(-0.00641413 0.0471683 8.22007e-20)
(0.0105887 0.0453027 4.07656e-19)
(0.031838 0.0429475 -1.8927e-19)
(0.0575517 0.0403375 9.04204e-20)
(0.0879578 0.037693 -9.35346e-20)
(0.123273 0.0352244 2.24097e-19)
(0.163667 0.0331386 -1.97374e-20)
(0.209201 0.0316304 -5.12672e-20)
(0.259853 0.030963 -8.16949e-20)
(0.315237 0.0315095 1.27849e-19)
(0.3729 0.0319092 -3.20721e-19)
(0.442213 0.0507062 -4.24537e-19)
(-0.00787383 0.00854783 -6.24182e-20)
(-0.0198701 0.0216279 -2.35431e-20)
(-0.0283967 0.0314475 -2.10722e-19)
(-0.033273 0.0384582 1.28984e-19)
(-0.0343866 0.0430799 -1.31711e-19)
(-0.0316402 0.0457146 -1.3367e-19)
(-0.0249297 0.0467394 -1.19728e-20)
(-0.0141323 0.0465016 -2.17071e-19)
(0.000903618 0.0453195 -3.44295e-19)
(0.0203616 0.0434843 9.41933e-20)
(0.0444552 0.0412643 1.05197e-19)
(0.0734181 0.0389091 1.26591e-19)
(0.107486 0.0366554 3.22617e-19)
(0.146869 0.0347326 -3.16962e-20)
(0.191709 0.0333696 -6.93694e-20)
(0.242003 0.0327854 -9.44595e-21)
(0.297638 0.0332909 1.73788e-19)
(0.357878 0.0351666 3.06917e-19)
(0.420807 0.037035 -8.56548e-20)
(0.49233 0.0585983 3.05851e-19)
(-0.00808272 0.00844401 1.96827e-19)
(-0.0201808 0.0212331 -3.23323e-20)
(-0.0284753 0.0307357 1.86644e-19)
(-0.0327956 0.0374242 -1.91209e-19)
(-0.0330268 0.0417437 2.82124e-19)
(-0.0290657 0.0441176 2.35742e-19)
(-0.0207986 0.0449404 -1.93619e-19)
(-0.00808815 0.0445751 -3.59646e-19)
(0.00923468 0.0433543 5.9528e-19)
(0.0313726 0.0415833 1.46858e-19)
(0.0585565 0.0395446 -1.14006e-19)
(0.0910315 0.0375029 -1.12523e-19)
(0.129033 0.0357109 -5.58082e-20)
(0.172754 0.0344159 -8.74234e-20)
(0.222295 0.0338684 -2.88346e-19)
(0.277575 0.034314 -7.80633e-20)
(0.33839 0.0361359 6.51661e-21)
(0.403563 0.0394913 -2.10535e-19)
(0.472098 0.0438834 1.03997e-19)
(0.542949 0.0685239 -2.20428e-19)
(-0.00827365 0.00831924 -3.15018e-19)
(-0.0204154 0.020777 2.11764e-19)
(-0.0283969 0.02993 -3.15748e-19)
(-0.0320594 0.0362713 -1.72066e-19)
(-0.0312849 0.040273 6.42028e-20)
(-0.0259645 0.0423802 -2.55327e-19)
(-0.0159736 0.043006 3.99572e-19)
(-0.00116005 0.0425295 6.52702e-21)
(0.0186629 0.0412983 -2.21266e-19)
(0.0437154 0.0396322 -1.93226e-19)
(0.0742417 0.0378281 -3.44455e-19)
(0.110491 0.0361652 -4.33651e-21)
(0.152689 0.0349106 1.26618e-20)
(0.200995 0.0343259 -7.86049e-20)
(0.25545 0.0346772 3.48181e-19)
(0.315883 0.0362279 2.14184e-19)
(0.382017 0.0394341 5.30269e-20)
(0.452313 0.0443095 -2.28181e-19)
(0.527293 0.0524259 -1.28768e-20)
(0.594844 0.0781681 -3.65594e-19)
(-0.00844357 0.00817284 1.11905e-19)
(-0.0205635 0.0202588 -2.12886e-19)
(-0.0281425 0.0290306 2.73251e-19)
(-0.0310353 0.0350024 3.83811e-19)
(-0.0291216 0.0386739 -1.24869e-19)
(-0.0222857 0.0405132 1.58998e-20)
(-0.0103921 0.0409523 -3.376e-19)
(0.00672632 0.0403872 -8.42286e-20)
(0.0292729 0.0391811 -2.60457e-19)
(0.0574822 0.0376686 3.38977e-19)
(0.0916058 0.0361605 3.13285e-19)
(0.131887 0.0349492 -5.57141e-20)
(0.178525 0.0343131 -4.16146e-20)
(0.231627 0.0345219 -3.509e-21)
(0.291149 0.0358459 6.27896e-20)
(0.356805 0.0385429 -1.12304e-19)
(0.428241 0.0431042 -1.29807e-19)
(0.503731 0.0493412 2.7407e-19)
(0.586142 0.0613507 -8.7777e-20)
(0.654543 0.0811332 6.62127e-21)
(-0.00858903 0.00800402 2.9648e-20)
(-0.0206135 0.0196773 4.2628e-20)
(-0.0276912 0.0280381 -1.43388e-19)
(-0.0296925 0.0336208 -3.96613e-19)
(-0.026495 0.0369538 6.40325e-20)
(-0.0179761 0.038529 1.94092e-19)
(-0.00398949 0.0387979 8.83312e-20)
(0.0156465 0.038174 3.78711e-19)
(0.0411491 0.0370365 -2.37734e-19)
(0.0727625 0.0357346 -3.08007e-19)
(0.110737 0.0345926 -5.62446e-20)