/*--------------------------------*- C++ -*----------------------------------*\
  =========                 |
  \\      /  F ield         | OpenFOAM: The Open Source CFD Toolbox
   \\    /   O peration     | Website:  https://openfoam.org
    \\  /    A nd           | Version:  7
     \\/     M anipulation  |
\*---------------------------------------------------------------------------*/
FoamFile
{
    version     2.0;
    format      ascii;
    class       volScalarField;
    location    "30";
    object      p;
}
// * * * * * * * * * * * * * * * * * * * * * * * * * * * * * * * * * * * * * //

dimensions      [0 2 -2 0 0 0 0];

internalField   nonuniform List<scalar> 
3275
(
-0.517056
-0.49723
-0.524827
-0.504212
-0.488447
-0.532151
-0.510787
-0.494528
-0.479304
-0.464202
-0.538951
-0.516885
-0.50017
-0.484549
-0.469044
-0.453855
-0.438873
-0.545149
-0.522431
-0.5053
-0.489314
-0.47343
-0.457827
-0.44237
-0.426912
-0.411334
-0.550659
-0.527346
-0.509843
-0.493527
-0.477287
-0.461281
-0.445348
-0.429321
-0.413072
-0.396488
-0.379485
-0.555393
-0.531549
-0.51372
-0.497111
-0.480539
-0.464141
-0.44773
-0.431123
-0.414185
-0.396805
-0.378909
-0.360433
-0.34121
-0.55926
-0.534955
-0.51685
-0.499983
-0.483106
-0.466327
-0.449439
-0.432242
-0.414601
-0.396412
-0.377619
-0.358186
-0.33801
-0.31768
-0.298309
-0.562166
-0.537474
-0.519146
-0.502062
-0.484906
-0.467759
-0.450393
-0.4326
-0.414245
-0.39524
-0.375552
-0.355179
-0.334084
-0.31283
-0.292316
-0.564014
-0.539019
-0.520524
-0.503263
-0.485854
-0.468353
-0.450512
-0.432117
-0.413043
-0.39322
-0.372646
-0.351359
-0.329386
-0.307266
-0.285719
-0.56471
-0.5395
-0.520896
-0.5035
-0.485867
-0.468026
-0.449713
-0.430716
-0.410921
-0.390286
-0.368842
-0.346673
-0.323871
-0.300947
-0.278474
-0.564157
-0.538825
-0.520174
-0.502686
-0.484859
-0.466694
-0.447917
-0.42832
-0.407808
-0.386373
-0.364084
-0.341073
-0.317495
-0.293837
-0.270545
-0.562262
-0.536908
-0.518272
-0.500737
-0.482746
-0.464275
-0.445043
-0.424853
-0.403636
-0.38142
-0.358319
-0.334513
-0.310222
-0.285901
-0.261898
-0.558935
-0.53366
-0.515105
-0.497569
-0.479445
-0.460688
-0.441016
-0.420246
-0.398341
-0.375371
-0.351499
-0.326955
-0.302018
-0.277112
-0.252504
-0.554087
-0.529
-0.510592
-0.493101
-0.474878
-0.455858
-0.435762
-0.41443
-0.391862
-0.368175
-0.343582
-0.318363
-0.292855
-0.267446
-0.242339
-0.547639
-0.522848
-0.504655
-0.487257
-0.46897
-0.449712
-0.429214
-0.407344
-0.384146
-0.359786
-0.33453
-0.308708
-0.28271
-0.256884
-0.231384
-0.53951
-0.515129
-0.497219
-0.479962
-0.461648
-0.442182
-0.421308
-0.398932
-0.375144
-0.350165
-0.324312
-0.297966
-0.271566
-0.245414
-0.219625
-0.529633
-0.505775
-0.488217
-0.47115
-0.452848
-0.433205
-0.411989
-0.389145
-0.364816
-0.339279
-0.312904
-0.286121
-0.259412
-0.233028
-0.207056
-0.517947
-0.494726
-0.477589
-0.460762
-0.442513
-0.422729
-0.401209
-0.377942
-0.353129
-0.327105
-0.300292
-0.273164
-0.246244
-0.219725
-0.193674
-0.504399
-0.481929
-0.465282
-0.448745
-0.430591
-0.410708
-0.388927
-0.365291
-0.34006
-0.313626
-0.286464
-0.25909
-0.232061
-0.205508
-0.179479
-0.488949
-0.467342
-0.451252
-0.435056
-0.417043
-0.397104
-0.375113
-0.351168
-0.325591
-0.298834
-0.27142
-0.243904
-0.216871
-0.190386
-0.164481
-0.471564
-0.450931
-0.435464
-0.41966
-0.401835
-0.38189
-0.359745
-0.335559
-0.309716
-0.282729
-0.255165
-0.227615
-0.200687
-0.174374
-0.14869
-0.452225
-0.432673
-0.417894
-0.402534
-0.384946
-0.365049
-0.342811
-0.318459
-0.292439
-0.26532
-0.237714
-0.21024
-0.183527
-0.157493
-0.132125
-0.430923
-0.412556
-0.398529
-0.383663
-0.366366
-0.346574
-0.324312
-0.299874
-0.27377
-0.246624
-0.219086
-0.191801
-0.165415
-0.139766
-0.114803
-0.407665
-0.390582
-0.377367
-0.363047
-0.346095
-0.326469
-0.304257
-0.279819
-0.253731
-0.226667
-0.199312
-0.17233
-0.146377
-0.121213
-0.0966966
-0.382466
-0.366762
-0.354418
-0.340696
-0.324145
-0.304751
-0.282667
-0.258323
-0.232354
-0.205485
-0.178428
-0.151863
-0.126456
-0.101876
-0.0777507
-0.355359
-0.341122
-0.329704
-0.316631
-0.300539
-0.281448
-0.259575
-0.23542
-0.209679
-0.183119
-0.156477
-0.130446
-0.1057
-0.0818552
-0.0583182
-0.326386
-0.313699
-0.303259
-0.290887
-0.275315
-0.256598
-0.235023
-0.211159
-0.185756
-0.159621
-0.133511
-0.108127
-0.0841311
-0.0609838
-0.0384215
-0.295605
-0.284544
-0.275133
-0.26351
-0.248519
-0.230253
-0.209067
-0.185596
-0.160645
-0.135051
-0.109588
-0.0849599
-0.061818
-0.039497
-0.017866
-0.263085
-0.253718
-0.245383
-0.23456
-0.220213
-0.202474
-0.18177
-0.158799
-0.134412
-0.109476
-0.0847734
-0.0610071
-0.0388161
-0.0174248
0.00326143
-0.22891
-0.221298
-0.214081
-0.204107
-0.190467
-0.173335
-0.153208
-0.130843
-0.107133
-0.0829706
-0.059139
-0.036336
-0.0151866
0.00519066
0.0248896
-0.193173
-0.187371
-0.181312
-0.172234
-0.159364
-0.14292
-0.123464
-0.101813
-0.0788955
-0.0556177
-0.0327638
-0.0110213
0.00900148
0.0282894
0.0469576
-0.155982
-0.152034
-0.147171
-0.139034
-0.126998
-0.111322
-0.0926346
-0.0718039
-0.0497886
-0.027506
-0.00573336
0.0148563
0.0336735
0.0518026
0.0693983
-0.117453
-0.115398
-0.111762
-0.104611
-0.0934709
-0.0786438
-0.06082
-0.0409148
-0.0199112
0.00126912
0.0218608
0.0412093
0.0587479
0.0756523
0.0921318
-0.0777063
-0.0775886
-0.0752026
-0.0690794
-0.0588964
-0.0449971
-0.0281304
-0.0092535
0.0106323
0.0306071
0.0499216
0.0679438
0.0841353
0.0997476
0.115064
-0.0368866
-0.0387307
-0.0376181
-0.0325626
-0.0233955
-0.0105006
0.00531798
0.0230672
0.0417333
0.0604034
0.0783476
0.0949602
0.10974
0.123989
0.00485132
0.0010442
0.000856705
0.00480789
0.0129031
0.0247197
0.0394033
0.05593
0.0732797
0.0905508
0.107034
0.122156
0.135471
0.0473628
0.0415827
0.040079
0.042893
0.0498637
0.0605325
0.073999
0.0892145
0.105158
0.120941
0.135876
0.149428
0.0904871
0.0827307
0.0798997
0.0815471
0.0873449
0.0968012
0.108975
0.122798
0.137252
0.151467
0.164766
0.176671
0.134055
0.124328
0.120163
0.120619
0.1252
0.133385
0.144198
0.156557
0.169451
0.182026
0.193617
0.177892
0.166208
0.160707
0.15995
0.163277
0.17014
0.179532
0.190365
0.201643
0.212529
0.221828
0.208205
0.20137
0.199385
0.201424
0.20692
0.214841
0.224098
0.233714
0.242883
0.265679
0.250144
0.241982
0.238757
0.239484
0.243575
0.249983
0.257623
0.265543
0.309264
0.29185
0.282374
0.277904
0.277298
0.279956
0.284817
0.290809
0.3524
0.333147
0.322373
0.316658
0.314708
0.315912
0.319203
0.323524
0.394904
0.373859
0.361809
0.354855
0.351556
0.351294
0.353001
0.436595
0.413811
0.400512
0.392331
0.387684
0.385954
0.386072
0.477295
0.45283
0.438313
0.428923
0.42294
0.419746
0.516828
0.490745
0.475047
0.464473
0.457171
0.452531
0.555023
0.527392
0.510555
0.498825
0.490232
0.484169
0.591715
0.562609
0.544678
0.531831
0.52198
0.626744
0.596241
0.577267
0.563344
0.552278
0.659958
0.628139
0.608177
0.593227
0.580995
0.691211
0.658164
0.637271
0.621349
0.720367
0.68618
0.66442
0.647585
0.747298
0.712064
0.689504
0.671821
0.771886
0.735701
0.71241
0.693949
0.794022
0.756986
0.733036
0.713872
0.81361
0.775823
0.751291
0.830564
0.792128
0.767092
0.844807
0.805829
0.780369
0.856278
0.816864
0.791063
0.864926
0.825183
0.799126
0.870713
0.830751
0.804521
0.873612
0.83354
0.807225
0.873612
0.83354
0.807225
0.870713
0.830751
0.804521
0.864926
0.825183
0.799126
0.856278
0.816864
0.791063
0.844807
0.805829
0.780369
0.830564
0.792128
0.767092
0.81361
0.775823
0.751291
0.794022
0.756986
0.733036
0.713872
0.771886
0.735701
0.71241
0.693949
0.747298
0.712064
0.689504
0.671821
0.720367
0.68618
0.66442
0.647585
0.691211
0.658164
0.637271
0.621349
0.659958
0.628139
0.608177
0.593227
0.580995
0.626745
0.596241
0.577267
0.563344
0.552278
0.591715
0.562609
0.544678
0.531831
0.52198
0.555023
0.527392
0.510555
0.498825
0.490232
0.484169
0.516828
0.490745
0.475047
0.464473
0.457172
0.452531
0.477295
0.45283
0.438313
0.428923
0.42294
0.419747
0.436595
0.413811
0.400512
0.392331
0.387684
0.385954
0.386072
0.394904
0.373859
0.361809
0.354855
0.351556
0.351294
0.353001
0.3524
0.333147
0.322373
0.316658
0.314708
0.315912
0.319204
0.323524
0.309264
0.29185
0.282374
0.277904
0.277298
0.279956
0.284818
0.290809
0.265679
0.250144
0.241982
0.238757
0.239484
0.243575
0.249983
0.257623
0.265543
0.221828
0.208205
0.20137
0.199385
0.201424
0.20692
0.214841
0.224098
0.233714
0.242883
0.177892
0.166208
0.160707
0.15995
0.163277
0.17014
0.179532
0.190365
0.201643
0.212529
0.134055
0.124328
0.120163
0.120619
0.1252
0.133385
0.144198
0.156557
0.169451
0.182026
0.193617
0.0904871
0.0827308
0.0798997
0.0815472
0.0873449
0.0968012
0.108975
0.122798
0.137252
0.151467
0.164767
0.176671
0.0473629
0.0415827
0.040079
0.042893
0.0498637
0.0605325
0.073999
0.0892146
0.105158
0.120941
0.135876
0.149428
0.00485136
0.00104424
0.000856745
0.00480793
0.0129031
0.0247198
0.0394033
0.0559301
0.0732798
0.0905508
0.107035
0.122156
0.135471
-0.0368866
-0.0387307
-0.037618
-0.0325625
-0.0233955
-0.0105006
0.00531802
0.0230672
0.0417334
0.0604034
0.0783476
0.0949603
0.10974
0.123989
-0.0777063
-0.0775885
-0.0752026
-0.0690794
-0.0588963
-0.044997
-0.0281304
-0.00925346
0.0106324
0.0306071
0.0499217
0.0679439
0.0841354
0.0997477
0.115064
-0.117453
-0.115398
-0.111762
-0.104611
-0.0934708
-0.0786437
-0.06082
-0.0409147
-0.0199112
0.00126916
0.0218609
0.0412093
0.058748
0.0756523
0.0921318
-0.155982
-0.152034
-0.147171
-0.139034
-0.126998
-0.111322
-0.0926345
-0.0718038
-0.0497885
-0.027506
-0.00573332
0.0148563
0.0336735
0.0518027
0.0693983
-0.193173
-0.187371
-0.181312
-0.172234
-0.159364
-0.14292
-0.123464
-0.101813
-0.0788954
-0.0556176
-0.0327638
-0.0110212
0.00900152
0.0282894
0.0469576
-0.22891
-0.221298
-0.214081
-0.204107
-0.190467
-0.173335
-0.153208
-0.130843
-0.107133
-0.0829705
-0.059139
-0.0363359
-0.0151866
0.0051907
0.0248896
-0.263085
-0.253718
-0.245383
-0.23456
-0.220213
-0.202474
-0.18177
-0.158799
-0.134412
-0.109476
-0.0847734
-0.061007
-0.038816
-0.0174247
0.00326147
-0.295605
-0.284544
-0.275133
-0.26351
-0.248519
-0.230253
-0.209067
-0.185596
-0.160644
-0.135051
-0.109588
-0.0849599
-0.061818
-0.0394969
-0.017866
-0.326386
-0.313699
-0.303259
-0.290886
-0.275315
-0.256598
-0.235023
-0.211159
-0.185756
-0.159621
-0.133511
-0.108127
-0.0841311
-0.0609837
-0.0384215
-0.355359
-0.341122
-0.329703
-0.316631
-0.300539
-0.281448
-0.259575
-0.23542
-0.209679
-0.183119
-0.156477
-0.130446
-0.1057
-0.0818551
-0.0583181
-0.382466
-0.366762
-0.354418
-0.340696
-0.324144
-0.304751
-0.282667
-0.258323
-0.232354
-0.205485
-0.178428
-0.151863
-0.126456
-0.101876
-0.0777506
-0.407665
-0.390582
-0.377367
-0.363047
-0.346095
-0.326469
-0.304257
-0.279819
-0.253731
-0.226667
-0.199312
-0.17233
-0.146377
-0.121213
-0.0966965
-0.430923
-0.412556
-0.398529
-0.383663
-0.366366
-0.346574
-0.324312
-0.299874
-0.27377
-0.246624
-0.219086
-0.191801
-0.165414
-0.139766
-0.114803
-0.452225
-0.432673
-0.417894
-0.402534
-0.384946
-0.365049
-0.342811
-0.318459
-0.292439
-0.26532
-0.237714
-0.21024
-0.183527
-0.157493
-0.132124
-0.471564
-0.450931
-0.435464
-0.41966
-0.401835
-0.38189
-0.359745
-0.335559
-0.309716
-0.282729
-0.255165
-0.227615
-0.200687
-0.174374
-0.148689
-0.488949
-0.467342
-0.451252
-0.435056
-0.417043
-0.397104
-0.375113
-0.351168
-0.325591
-0.298834
-0.27142
-0.243904
-0.216871
-0.190386
-0.164481
-0.504399
-0.481929
-0.465282
-0.448745
-0.430591
-0.410708
-0.388927
-0.365291
-0.34006
-0.313626
-0.286464
-0.25909
-0.232061
-0.205508
-0.179479
-0.517947
-0.494725
-0.477589
-0.460762
-0.442513
-0.422729
-0.401209
-0.377942
-0.353129
-0.327105
-0.300292
-0.273164
-0.246244
-0.219725
-0.193674
-0.529633
-0.505775
-0.488217
-0.47115
-0.452848
-0.433205
-0.411989
-0.389145
-0.364816
-0.339279
-0.312904
-0.286121
-0.259412
-0.233028
-0.207056
-0.53951
-0.515129
-0.497219
-0.479962
-0.461648
-0.442181
-0.421308
-0.398932
-0.375144
-0.350165
-0.324312
-0.297966
-0.271566
-0.245414
-0.219625
-0.547639
-0.522848
-0.504655
-0.487257
-0.46897
-0.449712
-0.429214
-0.407344
-0.384146
-0.359786
-0.334529
-0.308707
-0.28271
-0.256884
-0.231384
-0.554087
-0.529
-0.510592
-0.493101
-0.474878
-0.455858
-0.435762
-0.41443
-0.391862
-0.368175
-0.343582
-0.318363
-0.292855
-0.267446
-0.242338
-0.558935
-0.53366
-0.515105
-0.497569
-0.479445
-0.460688
-0.441016
-0.420246
-0.398341
-0.375371
-0.351499
-0.326955
-0.302018
-0.277112
-0.252504
-0.562262
-0.536908
-0.518272
-0.500737
-0.482746
-0.464275
-0.445043
-0.424853
-0.403636
-0.38142
-0.358319
-0.334513
-0.310222
-0.285901
-0.261898
-0.564157
-0.538825
-0.520174
-0.502686
-0.484859
-0.466694
-0.447917
-0.42832
-0.407808
-0.386373
-0.364084
-0.341073
-0.317495
-0.293837
-0.270545
-0.56471
-0.5395
-0.520896
-0.5035
-0.485867
-0.468026
-0.449713
-0.430716
-0.410921
-0.390286
-0.368842
-0.346673
-0.32387
-0.300947
-0.278474
-0.564014
-0.539019
-0.520524
-0.503263
-0.485854
-0.468353
-0.450512
-0.432117
-0.413042
-0.39322
-0.372646
-0.351359
-0.329386
-0.307266
-0.285718
-0.562166
-0.537474
-0.519146
-0.502062
-0.484906
-0.467759
-0.450393
-0.4326
-0.414245
-0.39524
-0.375552
-0.355179
-0.334084
-0.31283
-0.292316
-0.55926
-0.534955
-0.51685
-0.499983
-0.483106
-0.466327
-0.449438
-0.432242
-0.414601
-0.396412
-0.377619
-0.358186
-0.33801
-0.31768
-0.298309
-0.555393
-0.531549
-0.51372
-0.497111
-0.480539
-0.464141
-0.44773
-0.431123
-0.414185
-0.396805
-0.378909
-0.360433
-0.34121
-0.550659
-0.527346
-0.509843
-0.493527
-0.477287
-0.461281
-0.445348
-0.429321
-0.413072
-0.396488
-0.545149
-0.522431
-0.5053
-0.489314
-0.47343
-0.457827
-0.44237
-0.426912
-0.538951
-0.516885
-0.50017
-0.484549
-0.469044
-0.453855
-0.438873
-0.532151
-0.510787
-0.494528
-0.479304
-0.464202
-0.524827
-0.504212
-0.488447
-0.517056
-0.49723
-0.219707
-0.228752
-0.237047
-0.244606
-0.25145
-0.257603
-0.263097
-0.267972
-0.200709
-0.209672
-0.218022
-0.225775
-0.232953
-0.239579
-0.245687
-0.251312
-0.182867
-0.191703
-0.200053
-0.207929
-0.215347
-0.222327
-0.22889
-0.235065
-0.16604
-0.174613
-0.182794
-0.190591
-0.198018
-0.205088
-0.211818
-0.218229
-0.150261
-0.158531
-0.166485
-0.174133
-0.181483
-0.188548
-0.195342
-0.201881
-0.135521
-0.143462
-0.151152
-0.158597
-0.165807
-0.17279
-0.17956
-0.18613
-0.121771
-0.129361
-0.136752
-0.143948
-0.150958
-0.15779
-0.164453
-0.17096
-0.108949
-0.116178
-0.123247
-0.130162
-0.136929
-0.143555
-0.150049
-0.15642
-0.0969964
-0.103858
-0.110593
-0.117204
-0.123698
-0.13008
-0.136358
-0.142539
-0.0858488
-0.0923445
-0.0987378
-0.105033
-0.111233
-0.117345
-0.123373
-0.129324
-0.0754473
-0.0815812
-0.0876325
-0.0936042
-0.0994999
-0.105324
-0.11108
-0.116773
-0.065738
-0.0715175
-0.0772298
-0.0828772
-0.0884626
-0.0939888
-0.0994593
-0.104878
-0.0566724
-0.0621073
-0.067487
-0.0728133
-0.0780881
-0.0833136
-0.0884923
-0.0936271
-0.0482053
-0.0533079
-0.0583647
-0.0633766
-0.0683452
-0.0732718
-0.0781583
-0.0830066
-0.0403008
-0.0450844
-0.0498295
-0.0545365
-0.0592063
-0.0638398
-0.0684381
-0.0730025
-0.0329218
-0.0374019
-0.041849
-0.0462631
-0.0506448
-0.0549944
-0.0593125
-0.0635998
-0.026042
-0.030234
-0.0343973
-0.0385318
-0.0426376
-0.0467147
-0.0507632
-0.0547834
-0.0196313
-0.0235521
-0.0274476
-0.0313175
-0.0351616
-0.0389796
-0.0427713
-0.0465366
-0.0136671
-0.0173336
-0.0209776
-0.0245985
-0.0281959
-0.0317694
-0.0353184
-0.0388426
-0.00812691
-0.0115563
-0.0149654
-0.0183535
-0.02172
-0.0250643
-0.0283856
-0.0316835
-0.00299153
-0.00620082
-0.00939166
-0.0125632
-0.0157147
-0.0188453
-0.0219544
-0.0250412
0.00175742
-0.00124857
-0.00423757
-0.00720867
-0.010161
-0.0130937
-0.016006
-0.0188971
0.0061355
0.00331661
0.000513494
-0.0022729
-0.00504163
-0.00779181
-0.0105226
-0.013233
0.0101582
0.00751057
0.00487772
0.00226062
-0.000339767
-0.0029225
-0.00548668
-0.00803144
0.013838
0.0113465
0.0088689
0.00640625
0.00395949
0.00152959
-0.000882535
-0.003276
0.0171865
0.0148365
0.0124997
0.0101772
0.0078698
0.00557858
0.00330445
0.00104828
0.0202127
0.0179902
0.0157802
0.013584
0.0114023
0.00923611
0.0070864
0.00495401
0.0229243
0.0208157
0.0187192
0.0166358
0.0145665
0.0125121
0.0104736
0.00845184
0.0253249
0.0233172
0.0213211
0.0193377
0.0173679
0.0154126
0.0134725
0.0115487
0.0274176
0.0254979
0.0235895
0.0216934
0.0198105
0.0179415
0.0160873
0.0142487
0.0291978
0.0273539
0.025521
0.0236999
0.0218916
0.0200968
0.0183164
0.016551
0.0306638
0.0288827
0.0271124
0.0253535
0.023607
0.0218736
0.020154
0.018449
0.0317968
0.030067
0.0283478
0.0266397
0.0249436
0.0232601
0.0215899
0.0199337
0.0325897
0.0308959
0.0292123
0.0275397
0.0258786
0.0242297
0.0225937
0.0209711
0.0193626
0.0330002
0.0313345
0.0296788
0.0280335
0.0263993
0.0247767
0.0231662
0.0215682
0.0199833
0.0844112
0.0634082
0.0427671
0.0225319
0.00274501
-0.0165588
-0.035354
-0.053612
-0.0712061
-0.0881951
-0.104555
-0.120236
-0.135231
-0.149524
-0.163095
-0.175928
-0.188012
-0.199338
-0.209904
0.0823837
0.0629468
0.0438958
0.0252503
0.0070393
-0.0107126
-0.0279854
-0.0447782
-0.0610856
-0.0766193
-0.0918288
-0.106402
-0.120353
-0.133707
-0.14645
-0.158567
-0.170053
-0.180905
-0.191122
0.076769
0.0592349
0.042069
0.02527
0.00885597
-0.00715547
-0.0227477
-0.0379067
-0.0525733
-0.0665001
-0.0806652
-0.0940985
-0.106941
-0.119293
-0.131154
-0.14251
-0.153359
-0.1637
-0.173535
0.0725488
0.0566536
0.0411005
0.0258793
0.0110004
-0.00352649
-0.0176937
-0.0315002
-0.0450027
-0.058304
-0.0706056
-0.0827902
-0.0946358
-0.106066
-0.117087
-0.127698
-0.137898
-0.147687
-0.157066
0.0691881
0.0547838
0.0406886
0.0268888
0.01339
0.000198797
-0.01268
-0.0252398
-0.0374818
-0.0494162
-0.060903
-0.0722016
-0.0831498
-0.0937397
-0.103993
-0.113913
-0.123498
-0.132749
-0.141668
0.0663947
0.0533475
0.0405748
0.0280618
0.0158108
0.00382624
-0.00788868
-0.0193304
-0.030493
-0.041341
-0.0517735
-0.0623642
-0.0725197
-0.0823304
-0.0918669
-0.101136
-0.110133
-0.118861
-0.127322
0.064154
0.0523332
0.0407508
0.0293921
0.0182569
0.00734685
-0.00333855
-0.0138
-0.024042
-0.0341049
-0.0440597
-0.0533901
-0.0626704
-0.0717772
-0.080656
-0.0893109
-0.0977475
-0.105968
-0.113974
0.062386
0.051671
0.0411594
0.030838
0.0207057
0.0107632
0.00101004
-0.00855399
-0.0179275
-0.0271131
-0.0361198
-0.0448859
-0.0535231
-0.0619872
-0.0702603
-0.0783487
-0.0862588
-0.0939935
-0.101556
0.061019
0.0512983
0.0417488
0.032359
0.0231273
0.0140541
0.00513857
-0.00362011
-0.0122225
-0.0206689
-0.0289572
-0.0370724
-0.0450922
-0.0529479
-0.0606461
-0.0681976
-0.0756061
-0.0828737
-0.0900027
0.0599909
0.051163
0.0424773
0.0339239
0.0255012
0.0172089
0.00904636
0.00101223
-0.00689457
-0.0146756
-0.0223331
-0.0298659
-0.0372685
-0.0445579
-0.051728
-0.0587796
-0.0657151
-0.0725369
-0.0792473
0.0673996
0.0592476
0.0512207
0.0433106
0.0355085
0.027813
0.0202239
0.0127403
0.00536096
-0.00191504
-0.00908895
-0.0161652
-0.0231495
-0.0299981
-0.0367694
-0.0434502
-0.0500343
-0.0565236
-0.0629208
-0.069228
0.0661531
0.0587432
0.0514351
0.0442214
0.0370948
0.0300542
0.0230993
0.0162296
0.00944406
0.00274196
-0.00387738
-0.0104154
-0.0168736
-0.0232418
-0.0295412
-0.0357639
-0.0419081
-0.0479758
-0.0539689
-0.0598891
0.0651843
0.0584395
0.0517763
0.0451883
0.0386696
0.0322191
0.025837
0.0195227
0.0132757
0.00709518
0.000980648
-0.00506883
-0.0110528
-0.0169664
-0.0228297
-0.0286241
-0.0343535
-0.0400221
-0.045631
-0.0511807
0.0644528
0.0583042
0.05222
0.0461948
0.0402236
0.034306
0.0284422
0.0226319
0.016875
0.0111713
0.00552056
-7.70986e-05
-0.00561657
-0.0110867
-0.0165679
-0.0219737
-0.0273176
-0.0326118
-0.0378579
-0.0430555
0.0639242
0.0583101
0.0527459
0.0472268
0.0417489
0.036312
0.0309163
0.0255619
0.0202484
0.0149757
0.00974369
0.00455162
-0.000606685
-0.00574044
-0.0107694
-0.0157841
-0.0207691
-0.0257129
-0.0306154
-0.0354779
0.0635698
0.0584351
0.0533382
0.0482749
0.0432423
0.0382404
0.0332697
0.0283306
0.0234232
0.0185477
0.0137044
0.00889396
0.00411598
-0.000630552
-0.00533682
-0.0100164
-0.0146655
-0.0192805
-0.0238612
-0.0284082
0.0633644
0.0586599
0.053983
0.0493303
0.0446996
0.0400911
0.0355056
0.0309435
0.0264053
0.0218913
0.0174019
0.0129377
0.00849899
0.00408617
-0.000298211
-0.00465774
-0.0089905
-0.0132955
-0.0175725
-0.0218214
0.0632865
0.0589679
0.0546687
0.0503859
0.046118
0.0418655
0.0376292
0.0334098
0.0292079
0.0250241
0.020859
0.0167131
0.0125872
0.00848188
0.00439895
0.000335819
-0.00370463
-0.0077219
-0.0117158
-0.0156857
0.063317
0.0593445
0.0553847
0.0514352
0.0474947
0.0435641
0.0396444
0.0357363
0.0318406
0.0279579
0.0240892
0.0202352
0.0163966
0.0125746
0.00877116
0.00498069
0.00121063
-0.00253923
-0.00626924
-0.00997879
0.0634387
0.0597766
0.0561217
0.052472
0.048827
0.0451874
0.0415544
0.0379288
0.0343115
0.0307033
0.0271053
0.0235182
0.0199431
0.016381
0.0128335
0.00929728
0.0057777
0.00227509
-0.00121039
-0.00467801
0.063636
0.0602517
0.0568704
0.0534905
0.0501117
0.0467348
0.043361
0.0399913
0.0366267
0.0332681
0.0299165
0.0265729
0.0232383
0.0199129
0.0165968
0.0133002
0.0100133
0.00673865
0.003479
0.000235354
0.0638946
0.0607589
0.0576229
0.0544852
0.0513458
0.0482058
0.0450663
0.0419285
0.0387932
0.0356616
0.0325347
0.0294136
0.0262993
0.0231929
0.0200952
0.0170089
0.0139326
0.0108681
0.00781667
0.00477948
0.0642011
0.0612873
0.0583705
0.05545
0.0525257
0.0495987
0.0466704
0.0437417
0.0408137
0.0378876
0.0349644
0.0320452
0.0291311
0.0262233
0.0233227
0.0204311
0.0175487
0.0146768
0.0118166
0.00896917
0.0645428
0.0618266
0.0591055
0.056379
0.0536473
0.0509116
0.048173
0.0454327
0.0426917
0.0399512
0.0372123
0.0344761
0.0317437
0.0290163
0.026295
0.0235812
0.0208755
0.0181793
0.0154936
0.0128195
0.0649078
0.0623669
0.0598198
0.0572662
0.0547064
0.0521417
0.049573
0.0470017
0.0444287
0.0418552
0.0392824
0.0367113
0.0341431
0.031579
0.02902
0.0264675
0.0239223
0.0213856
0.0188586
0.0163424
0.0652848
0.0628988
0.0605057
0.0581054
0.0556984
0.0532858
0.0508687
0.0484483
0.0460257
0.0436019
0.041178
0.0387553
0.0363348
0.0339177
0.0315051
0.0290982
0.0266979
0.0243055
0.0219221
0.0195487
0.0656627
0.0634127
0.0611552
0.05889
0.056618
0.05434
0.0520573
0.0497709
0.0474819
0.0451914
0.0429005
0.0406103
0.0383218
0.0360363
0.0337549
0.0314787
0.0292084
0.0269457
0.0246915
0.0224468
0.0660315
0.0639
0.0617608
0.0596139
0.0574602
0.0553006
0.0531361
0.0509679
0.048797
0.0466244
0.0444513
0.0422786
0.0401076
0.0379392
0.0357748
0.0336159
0.0314603
0.0293128
0.0271739
0.0250441
0.0663803
0.0643508
0.0623137
0.0602691
0.0582179
0.056161
0.0540995
0.0520343
0.0499664
0.047897
0.0458269
0.0437573
0.0416892
0.0396236
0.0375614
0.0355033
0.0334532
0.0314088
0.0293717
0.0273434
0.0667006
0.0647576
0.0628073
0.06085
0.0588865
0.0569176
0.0549445
0.052968
0.0509891
0.0490089
0.0470281
0.045048
0.0430694
0.0410935
0.039121
0.0371531
0.0351912
0.0332356
0.0312874
0.0293478
0.0669798
0.0651082
0.0632297
0.0613449
0.0594546
0.0575594
0.0556605
0.0537587
0.0518549
0.0499501
0.0480451
0.046141
0.0442387
0.0423391
0.0404431
0.0385518
0.0366662
0.0347871
0.0329153
0.031052
0.0672139
0.0653992
0.0635784
0.061752
0.0599207
0.0580854
0.0562469
0.0544061
0.0525639
0.050721
0.0488784
0.0470371
0.0451977
0.0433613
0.0415288
0.039701
0.0378789
0.0360632
0.0342549
0.0324548
0.0673798
0.0656066
0.0638283
0.0620453
0.0602585
0.0584686
0.0566764
0.0548827
0.0530883
0.051294
0.0495006
0.047709
0.0459199
0.0441341
0.0423526
0.0405761
0.0388054
0.0370414
0.0352847
0.0335362
0.0674952
0.0657498
0.0640003
0.0622472
0.0604911
0.0587329
0.0569731
0.0552125
0.0534518
0.0516918
0.0499332
0.0481768
0.0464232
0.0446734
0.0429279
0.0411877
0.0394533
0.0377256
0.0360053
0.0342931
0.0674868
0.065749
0.0640088
0.0622668
0.0605237
0.0587801
0.0570367
0.055294
0.0535528
0.0518137
0.0500773
0.0483442
0.0466152
0.0448907
0.0431715
0.0414581
0.0397512
0.0380514
0.0363592
0.0346753
0.0674868
0.065749
0.0640088
0.0622668
0.0605237
0.0587802
0.0570367
0.0552941
0.0535529
0.0518137
0.0500773
0.0483443
0.0466152
0.0448907
0.0431715
0.0414581
0.0397512
0.0380514
0.0363592
0.0346753
0.0674952
0.0657499
0.0640003
0.0622472
0.0604912
0.0587329
0.0569731
0.0552125
0.0534519
0.0516918
0.0499332
0.0481768
0.0464233
0.0446734
0.042928
0.0411877
0.0394533
0.0377256
0.0360053
0.0342931
0.0673798
0.0656067
0.0638283
0.0620454
0.0602586
0.0584687
0.0566765
0.0548828
0.0530883
0.051294
0.0495007
0.047709
0.0459199
0.0441342
0.0423526
0.0405761
0.0388055
0.0370414
0.0352847
0.0335363
0.0672139
0.0653992
0.0635784
0.061752
0.0599207
0.0580854
0.056247
0.0544062
0.0525639
0.0507211
0.0488785
0.0470371
0.0451978
0.0433614
0.0415288
0.039701
0.0378789
0.0360632
0.0342549
0.0324548
0.0669798
0.0651082
0.0632298
0.061345
0.0594546
0.0575595
0.0556606
0.0537587
0.0518549
0.0499501
0.0480452
0.046141
0.0442387
0.0423391
0.0404432
0.0385518
0.0366663
0.0347871
0.0329154
0.031052
0.0667006
0.0647577
0.0628073
0.06085
0.0588865
0.0569177
0.0549445
0.0529681
0.0509892
0.0490089
0.0470282
0.045048
0.0430695
0.0410935
0.0391211
0.0371531
0.0351912
0.0332356
0.0312874
0.0293478
0.0663803
0.0643509
0.0623137
0.0602692
0.058218
0.0561611
0.0540995
0.0520343
0.0499665
0.047897
0.0458269
0.0437573
0.0416892
0.0396236
0.0375614
0.0355033
0.0334532
0.0314089
0.0293718
0.0273434
0.0660315
0.0639001
0.0617608
0.059614
0.0574602
0.0553006
0.0531362
0.0509679
0.048797
0.0466245
0.0444513
0.0422787
0.0401076
0.0379392
0.0357748
0.0336159
0.0314603
0.0293128
0.0271739
0.0250441
0.0656628
0.0634128
0.0611552
0.0588901
0.056618
0.0543401
0.0520574
0.049771
0.047482
0.0451915
0.0429005
0.0406103
0.0383219
0.0360363
0.0337549
0.0314787
0.0292085
0.0269457
0.0246915
0.0224469
0.0652848
0.0628988
0.0605058
0.0581054
0.0556984
0.0532858
0.0508688
0.0484484
0.0460257
0.0436019
0.0411781
0.0387553
0.0363348
0.0339177
0.0315051
0.0290982
0.0266979
0.0243055
0.0219221
0.0195488
0.0649078
0.062367
0.0598199
0.0572662
0.0547065
0.0521417
0.0495731
0.0470017
0.0444287
0.0418553
0.0392824
0.0367113
0.0341432
0.031579
0.02902
0.0264675
0.0239223
0.0213856
0.0188586
0.0163424
0.0645428
0.0618266
0.0591056
0.0563791
0.0536474
0.0509117
0.0481731
0.0454327
0.0426918
0.0399513
0.0372123
0.0344761
0.0317438
0.0290164
0.0262951
0.0235812
0.0208756
0.0181793
0.0154936
0.0128196
0.0642011
0.0612873
0.0583706
0.05545
0.0525257
0.0495988
0.0466704
0.0437417
0.0408138
0.0378876
0.0349644
0.0320452
0.0291311
0.0262233
0.0233227
0.0204311
0.0175487
0.0146768
0.0118166
0.00896921
0.0638946
0.060759
0.0576229
0.0544852
0.0513459
0.0482059
0.0450664
0.0419285
0.0387932
0.0356616
0.0325347
0.0294136
0.0262994
0.0231929
0.0200952
0.0170089
0.0139327
0.0108681
0.0078167
0.00477952
0.063636
0.0602518
0.0568705
0.0534906
0.0501117
0.0467348
0.043361
0.0399913
0.0366267
0.0332682
0.0299166
0.026573
0.0232383
0.0199129
0.0165968
0.0133003
0.0100133
0.00673869
0.00347903
0.000235388
0.0634387
0.0597766
0.0561217
0.0524721
0.048827
0.0451875
0.0415544
0.0379288
0.0343115
0.0307034
0.0271053
0.0235183
0.0199431
0.016381
0.0128335
0.00929732
0.00577774
0.00227513
-0.00121035
-0.00467797
0.063317
0.0593446
0.0553847
0.0514352
0.0474948
0.0435642
0.0396444
0.0357363
0.0318406
0.027958
0.0240893
0.0202352
0.0163966
0.0125746
0.00877119
0.00498072
0.00121066
-0.0025392
-0.0062692
-0.00997876
0.0632866
0.058968
0.0546687
0.0503859
0.046118
0.0418655
0.0376292
0.0334099
0.029208
0.0250241
0.020859
0.0167132
0.0125872
0.00848191
0.00439898
0.000335853
-0.0037046
-0.00772187
-0.0117157
-0.0156857
0.0633645
0.0586599
0.053983
0.0493303
0.0446996
0.0400911
0.0355056
0.0309436
0.0264053
0.0218913
0.017402
0.0129378
0.00849903
0.0040862
-0.000298178
-0.0046577
-0.00899047
-0.0132955
-0.0175725
-0.0218214
0.0635698
0.0584351
0.0533382
0.0482749
0.0432423
0.0382404
0.0332698
0.0283307
0.0234232
0.0185477
0.0137045
0.00889399
0.00411601
-0.000630519
-0.00533679
-0.0100164
-0.0146655
-0.0192805
-0.0238612
-0.0284082
0.0639243
0.0583102
0.0527459
0.0472268
0.0417489
0.036312
0.0309163
0.0255619
0.0202485
0.0149758
0.00974373
0.00455165
-0.000606652
-0.00574041
-0.0107693
-0.0157841
-0.020769
-0.0257129
-0.0306154
-0.0354778
0.0644528
0.0583042
0.0522201
0.0461948
0.0402237
0.0343061
0.0284422
0.0226319
0.016875
0.0111713
0.0055206
-7.70652e-05
-0.00561654
-0.0110867
-0.0165678
-0.0219737
-0.0273176
-0.0326117
-0.0378578
-0.0430555
0.0651843
0.0584395
0.0517763
0.0451883
0.0386696
0.0322191
0.025837
0.0195228
0.0132757
0.00709522
0.000980682
-0.00506879
-0.0110528
-0.0169664
-0.0228296
-0.0286241
-0.0343534
-0.040022
-0.0456309
-0.0511807
0.0661532
0.0587433
0.0514352
0.0442214
0.0370949
0.0300542
0.0230994
0.0162296
0.00944409
0.00274199
-0.00387735
-0.0104154
-0.0168735
-0.0232418
-0.0295412
-0.0357639
-0.0419081
-0.0479757
-0.0539689
-0.0598891
0.0673996
0.0592476
0.0512208
0.0433106
0.0355085
0.027813
0.0202239
0.0127403
0.00536099
-0.00191501
-0.00908891
-0.0161651
-0.0231495
-0.0299981
-0.0367693
-0.0434502
-0.0500343
-0.0565236
-0.0629208
-0.069228
0.0689709
0.0599909
0.051163
0.0424774
0.033924
0.0255012
0.017209
0.00904639
0.00101227
-0.00689454
-0.0146755
-0.022333
-0.0298659
-0.0372685
-0.0445578
-0.051728
-0.0587795
-0.0657151
-0.0725369
-0.0792472
0.0709222
0.0610191
0.0512983
0.0417489
0.0323591
0.0231274
0.0140541
0.00513861
-0.00362007
-0.0122224
-0.0206689
-0.0289572
-0.0370724
-0.0450922
-0.0529479
-0.0606461
-0.0681975
-0.0756061
-0.0828737
-0.0900027
0.0733174
0.062386
0.051671
0.0411594
0.030838
0.0207057
0.0107632
0.00101008
-0.00855395
-0.0179275
-0.0271131
-0.0361198
-0.0448859
-0.0535231
-0.0619871
-0.0702602
-0.0783487
-0.0862588
-0.0939935
-0.101556
0.0762283
0.064154
0.0523333
0.0407508
0.0293921
0.018257
0.00734688
-0.00333851
-0.0137999
-0.024042
-0.0341049
-0.0440597
-0.05339
-0.0626704
-0.0717772
-0.0806559
-0.0893109
-0.0977475
-0.105968
-0.113974
0.0797346
0.0663948
0.0533476
0.0405749
0.0280618
0.0158108
0.00382628
-0.00788864
-0.0193303
-0.0304929
-0.0413409
-0.0517735
-0.0623642
-0.0725196
-0.0823303
-0.0918669
-0.101136
-0.110133
-0.118861
-0.127322
0.0691881
0.0547839
0.0406887
0.0268888
0.0133901
0.000198834
-0.01268
-0.0252397
-0.0374818
-0.0494161
-0.060903
-0.0722016
-0.0831497
-0.0937396
-0.103993
-0.113913
-0.123498
-0.132749
-0.141668
0.0725488
0.0566536
0.0411005
0.0258793
0.0110005
-0.00352645
-0.0176937
-0.0315002
-0.0450027
-0.0583039
-0.0706056