/*--------------------------------*- C++ -*----------------------------------*\
  =========                 |
  \\      /  F ield         | OpenFOAM: The Open Source CFD Toolbox
   \\    /   O peration     | Website:  https://openfoam.org
    \\  /    A nd           | Version:  7
     \\/     M anipulation  |
\*---------------------------------------------------------------------------*/
FoamFile
{
    version     2.0;
    format      ascii;
    class       volScalarField;
    location    "30";
    object      p;
}
// * * * * * * * * * * * * * * * * * * * * * * * * * * * * * * * * * * * * * //

dimensions      [0 2 -2 0 0 0 0];

internalField   nonuniform List<scalar> 
8500
(
-0.206041
-0.205951
-0.205814
-0.205626
-0.205382
-0.205074
-0.204698
-0.204245
-0.203708
-0.203079
-0.202348
-0.201506
-0.200541
-0.199441
-0.198193
-0.196782
-0.195192
-0.193406
-0.191405
-0.189168
-0.186675
-0.1839
-0.180823
-0.177416
-0.173656
-0.169518
-0.164973
-0.160006
-0.154583
-0.148707
-0.142334
-0.135501
-0.128144
-0.120346
-0.112043
-0.103305
-0.0942166
-0.0845451
-0.0750644
-0.0642821
-0.0552725
-0.0426666
-0.0359112
-0.0195675
-0.0185759
0.00553389
-0.206058
-0.205968
-0.205831
-0.205644
-0.205399
-0.205091
-0.204715
-0.204261
-0.203724
-0.203095
-0.202363
-0.20152
-0.200555
-0.199454
-0.198205
-0.196793
-0.195202
-0.193414
-0.191412
-0.189174
-0.186678
-0.183899
-0.180823
-0.177417
-0.173656
-0.169518
-0.164973
-0.160008
-0.154586
-0.148713
-0.142342
-0.135512
-0.12816
-0.120365
-0.112066
-0.103333
-0.0942466
-0.0845788
-0.0750991
-0.0643194
-0.0553077
-0.0427032
-0.0359415
-0.019599
-0.0185956
0.00551683
-0.206088
-0.205998
-0.205861
-0.205673
-0.205429
-0.205121
-0.204744
-0.204291
-0.203754
-0.203124
-0.202392
-0.201549
-0.200583
-0.199481
-0.198231
-0.196819
-0.195227
-0.193438
-0.191435
-0.189196
-0.1867
-0.183926
-0.180843
-0.177436
-0.173675
-0.169538
-0.164994
-0.16003
-0.15461
-0.148739
-0.142371
-0.135545
-0.128195
-0.120404
-0.112109
-0.103379
-0.0942949
-0.084631
-0.0751506
-0.0643741
-0.0553578
-0.0427568
-0.0359849
-0.0196484
-0.0186296
0.00548801
-0.20613
-0.20604
-0.205904
-0.205716
-0.205471
-0.205164
-0.204787
-0.204334
-0.203796
-0.203166
-0.202435
-0.201591
-0.200624
-0.199523
-0.198273
-0.196859
-0.195267
-0.193478
-0.191474
-0.189234
-0.186738
-0.183962
-0.180881
-0.177474
-0.173714
-0.169577
-0.165035
-0.160072
-0.154654
-0.148786
-0.142421
-0.135598
-0.128251
-0.120464
-0.11217
-0.103445
-0.0943613
-0.0847012
-0.0752185
-0.0644458
-0.0554226
-0.0428268
-0.0360411
-0.0197156
-0.0186848
0.00545463
-0.206185
-0.206094
-0.205958
-0.20577
-0.205526
-0.205218
-0.204841
-0.204388
-0.203851
-0.203221
-0.20249
-0.201646
-0.20068
-0.199578
-0.198328
-0.196915
-0.195322
-0.193533
-0.191529
-0.18929
-0.186793
-0.184016
-0.180937
-0.177531
-0.173771
-0.169636
-0.165095
-0.160134
-0.154719
-0.148853
-0.14249
-0.135671
-0.128326
-0.120543
-0.112251
-0.103529
-0.0944452
-0.0847889
-0.0753023
-0.064534
-0.0555015
-0.0429129
-0.0361095
-0.0197998
-0.0187556
0.00541174
-0.20625
-0.20616
-0.206023
-0.205836
-0.205591
-0.205284
-0.204908
-0.204455
-0.203918
-0.203288
-0.202557
-0.201714
-0.200748
-0.199647
-0.198397
-0.196984
-0.195392
-0.193603
-0.1916
-0.189361
-0.186865
-0.184088
-0.18101
-0.177605
-0.173847
-0.169713
-0.165174
-0.160216
-0.154802
-0.14894
-0.142579
-0.135763
-0.12842
-0.120641
-0.112349
-0.103632
-0.0945459
-0.0848936
-0.0754014
-0.0646381
-0.055594
-0.0430143
-0.0361896
-0.0198983
-0.018793
0.00531071
-0.206326
-0.206236
-0.206099
-0.205912
-0.205667
-0.20536
-0.204984
-0.204532
-0.203995
-0.203366
-0.202636
-0.201793
-0.200828
-0.199727
-0.198478
-0.197066
-0.195475
-0.193687
-0.191685
-0.189446
-0.186952
-0.184176
-0.1811
-0.177697
-0.17394
-0.169808
-0.165271
-0.160315
-0.154904
-0.149045
-0.142686
-0.135873
-0.128532
-0.120757
-0.112465
-0.103751
-0.0946627
-0.0850143
-0.0755151
-0.0647573
-0.0556994
-0.0431302
-0.0362808
-0.0200079
-0.0188534
0.00520584
-0.206412
-0.206321
-0.206184
-0.205997
-0.205753
-0.205446
-0.205071
-0.204619
-0.204083
-0.203455
-0.202725
-0.201884
-0.200919
-0.19982
-0.198572
-0.197161
-0.195571
-0.193784
-0.191783
-0.189546
-0.187053
-0.184279
-0.181205
-0.177804
-0.174049
-0.16992
-0.165385
-0.160432
-0.155023
-0.149167
-0.142811
-0.136001
-0.128662
-0.120889
-0.112598
-0.103887
-0.0947948
-0.0851503
-0.0756426
-0.0648908
-0.055817
-0.0432599
-0.0363847
-0.0201337
-0.0189263
0.00509626
-0.206506
-0.206415
-0.206278
-0.206091
-0.205847
-0.205541
-0.205166
-0.204715
-0.20418
-0.203553
-0.202824
-0.201984
-0.201021
-0.199923
-0.198676
-0.197267
-0.195678
-0.193894
-0.191894
-0.189659
-0.187168
-0.184395
-0.181324
-0.177926
-0.174174
-0.170047
-0.165515
-0.160565
-0.155159
-0.149306
-0.142952
-0.136146
-0.128807
-0.121038
-0.112745
-0.104038
-0.094941
-0.0853006
-0.0757829
-0.0650376
-0.055946
-0.0434022
-0.0365019
-0.0202782
-0.0189975
0.0049747
-0.206607
-0.206516
-0.206379
-0.206192
-0.205949
-0.205643
-0.205269
-0.204819
-0.204285
-0.203659
-0.202932
-0.202093
-0.201131
-0.200035
-0.19879
-0.197383
-0.195797
-0.194014
-0.192017
-0.189784
-0.187295
-0.184523
-0.181457
-0.178061
-0.174312
-0.170189
-0.16566
-0.160713
-0.15531
-0.14946
-0.143108
-0.136305
-0.128967
-0.121201
-0.112907
-0.104203
-0.0951003
-0.085464
-0.0759351
-0.0651968
-0.0560854
-0.0435553
-0.0366176
-0.0204403
-0.0190775
0.00483977
-0.206622
-0.206486
-0.206299
-0.206057
-0.205752
-0.205378
-0.204929
-0.204397
-0.203772
-0.203047
-0.20221
-0.20125
-0.200156
-0.198913
-0.197508
-0.195924
-0.194144
-0.192149
-0.18992
-0.187433
-0.184658
-0.181601
-0.178209
-0.174463
-0.170344
-0.165817
-0.160875
-0.155474
-0.149628
-0.143278
-0.136479
-0.129141
-0.121378
-0.113081
-0.10438
-0.0952716
-0.0856394
-0.0760981
-0.0653671
-0.0562347
-0.0437191
-0.0367424
-0.0206079
-0.0191636
0.00469224
-0.206733
-0.206597
-0.206411
-0.206169
-0.205865
-0.205493
-0.205045
-0.204514
-0.203891
-0.203168
-0.202333
-0.201375
-0.200283
-0.199044
-0.197641
-0.19606
-0.194283
-0.192291
-0.190065
-0.187581
-0.184826
-0.181757
-0.178369
-0.174626
-0.17051
-0.165987
-0.161048
-0.155651
-0.149809
-0.143461
-0.136664
-0.129327
-0.121567
-0.113267
-0.10457
-0.0954535
-0.0858256
-0.0762708
-0.0655475
-0.056393
-0.0438944
-0.0368745
-0.0207811
-0.0192525
0.00453281
-0.206847
-0.206712
-0.206526
-0.206285
-0.205982
-0.205611
-0.205165
-0.204636
-0.204015
-0.203293
-0.202461
-0.201506
-0.200417
-0.19918
-0.197781
-0.196203
-0.194429
-0.192441
-0.190218
-0.187737
-0.184991
-0.181922
-0.178537
-0.174799
-0.170687
-0.166168
-0.161233
-0.155839
-0.15
-0.143654
-0.136861
-0.129523
-0.121767
-0.113463
-0.104769
-0.095645
-0.0860214
-0.0764521
-0.0657365
-0.0565571
-0.044079
-0.0370139
-0.020961
-0.0193425
0.00436206
-0.206962
-0.206828
-0.206643
-0.206403
-0.206102
-0.205732
-0.205288
-0.20476
-0.204142
-0.203423
-0.202593
-0.201641
-0.200555
-0.199321
-0.197925
-0.196351
-0.194581
-0.192597
-0.190378
-0.1879
-0.185154
-0.182094
-0.178714
-0.17498
-0.170872
-0.166357
-0.161427
-0.156036
-0.150201
-0.143857
-0.137067
-0.129729
-0.121976
-0.113669
-0.104977
-0.0958446
-0.0862254
-0.0766408
-0.0659339
-0.0567277
-0.0442694
-0.0371589
-0.0211469
-0.0194323
0.00418059
-0.207078
-0.206944
-0.20676
-0.206521
-0.206221
-0.205854
-0.205412
-0.204887
-0.204271
-0.203554
-0.202727
-0.201779
-0.200696
-0.199466
-0.198074
-0.196503
-0.194737
-0.192757
-0.190543
-0.188063
-0.185326
-0.182273
-0.178898
-0.175168
-0.171065
-0.166554
-0.161628
-0.15624
-0.15041
-0.144067
-0.137282
-0.129943
-0.122192
-0.113881
-0.105193
-0.0960512
-0.0864365
-0.0768356
-0.0661378
-0.0569043
-0.0444653
-0.037308
-0.0213377
-0.0195206
0.00398906
-0.207191
-0.207058
-0.206876
-0.206639
-0.206341
-0.205975
-0.205535
-0.205013
-0.2044
-0.203686
-0.202863
-0.201918
-0.200839
-0.199613
-0.198225
-0.196658
-0.194897
-0.192922
-0.190711
-0.188224
-0.185504
-0.182457
-0.179087
-0.175362
-0.171264
-0.166757
-0.161836
-0.156451
-0.150625
-0.144284
-0.137502
-0.130163
-0.122415
-0.1141
-0.105415
-0.0962634
-0.0866532
-0.0770356
-0.0663468
-0.0570856
-0.0446659
-0.0374604
-0.0215321
-0.0196063
0.00378818
-0.207302
-0.20717
-0.206989
-0.206754
-0.206458
-0.206095
-0.205657
-0.205138
-0.204528
-0.203818
-0.202998
-0.202057
-0.200982
-0.19976
-0.198376
-0.196815
-0.195058
-0.193088
-0.190883
-0.188441
-0.185686
-0.182644
-0.179279
-0.175559
-0.171467
-0.166965
-0.162048
-0.156667
-0.150845
-0.144506
-0.137728
-0.130388
-0.122643
-0.114323
-0.105641
-0.0964799
-0.0868744
-0.0772396
-0.0665599
-0.0572705
-0.0448701
-0.037615
-0.0217294
-0.0196882
0.00357867
-0.207407
-0.207277
-0.207098
-0.206865
-0.206571
-0.206211
-0.205776
-0.20526
-0.204653
-0.203947
-0.203131
-0.202194
-0.201124
-0.199907
-0.198528
-0.196971
-0.19522
-0.193255
-0.191054
-0.188611
-0.185869
-0.182833
-0.179474
-0.175759
-0.171672
-0.167175
-0.162263
-0.156886
-0.151069
-0.144732
-0.137957
-0.130616
-0.122875
-0.11455
-0.105871
-0.0966995
-0.0870988
-0.0774465
-0.0667759
-0.0574579
-0.0450768
-0.037771
-0.0219286
-0.0197653
0.00336124
-0.207506
-0.207378
-0.207201
-0.20697
-0.206679
-0.206322
-0.205891
-0.205378
-0.204775
-0.204073
-0.203261
-0.202329
-0.201263
-0.200051
-0.198678
-0.197126
-0.195381
-0.193421
-0.191217
-0.188781
-0.186052
-0.183023
-0.179669
-0.17596
-0.171879
-0.167387
-0.16248
-0.157107
-0.151294
-0.144959
-0.138188
-0.130846
-0.123108
-0.114778
-0.106102
-0.0969211
-0.087325
-0.0776552
-0.0669937
-0.0576469
-0.045285
-0.0379274
-0.022129
-0.0198368
0.00313664
-0.207598
-0.207471
-0.207297
-0.207069
-0.206781
-0.206427
-0.205999
-0.20549
-0.204892
-0.204194
-0.203387
-0.20246
-0.201399
-0.200192
-0.198824
-0.197279
-0.195539
-0.193585
-0.191368
-0.188955
-0.186235
-0.183211
-0.179864
-0.176161
-0.172085
-0.167598
-0.162697
-0.157328
-0.15152
-0.145187
-0.13842
-0.131077
-0.123342
-0.115007
-0.106335
-0.0971433
-0.087552
-0.0778647
-0.0672121
-0.0578367
-0.0454936
-0.0380834
-0.0223299
-0.0199019
0.00290558
-0.207679
-0.207555
-0.207383
-0.207159
-0.206874
-0.206524
-0.2061
-0.205596
-0.205002
-0.204309
-0.203507
-0.202585
-0.20153
-0.200328
-0.198966
-0.197426
-0.195693
-0.193745
-0.191595
-0.189128
-0.186414
-0.183397
-0.180056
-0.176359
-0.17229
-0.167808
-0.162913
-0.157548
-0.151744
-0.145413
-0.13865
-0.131306
-0.123575
-0.115236
-0.106567
-0.097365
-0.0877786
-0.078074
-0.0674302
-0.0580263
-0.0457017
-0.038238
-0.0225307
-0.0199598
0.00266877
-0.207628
-0.20746
-0.207239
-0.206958
-0.206612
-0.206193
-0.205693
-0.205104
-0.204416
-0.203619
-0.202703
-0.201653
-0.200458
-0.199102
-0.197569
-0.195842
-0.193892
-0.191736
-0.189296
-0.18659
-0.183579
-0.180245
-0.176554
-0.172491
-0.168015
-0.163125
-0.157764
-0.151966
-0.145637
-0.138879
-0.131534
-0.123806
-0.115462
-0.106797
-0.0975852
-0.0880036
-0.0782821
-0.0676469
-0.0582149
-0.0459084
-0.0383905
-0.022731
-0.0200102
0.00242691
-0.207689
-0.207525
-0.207307
-0.207031
-0.206689
-0.206275
-0.20578
-0.205196
-0.204514
-0.203723
-0.202813
-0.201769
-0.20058
-0.199231
-0.197704
-0.195984
-0.194024
-0.191882
-0.189459
-0.186759
-0.183756
-0.180428
-0.176744
-0.172688
-0.168217
-0.163334
-0.157977
-0.152184
-0.145858
-0.139103
-0.131758
-0.124034
-0.115686
-0.107024
-0.0978028
-0.0882259
-0.0784881
-0.0678611
-0.0584017
-0.046113
-0.0385401
-0.0229302
-0.0200524
0.00218067
-0.207737
-0.207576
-0.207363
-0.207091
-0.206755
-0.206346
-0.205856
-0.205278
-0.204602
-0.203817
-0.202913
-0.201876
-0.200694
-0.199351
-0.197831
-0.196118
-0.194213
-0.192031
-0.189615
-0.186922
-0.183926
-0.180606
-0.176928
-0.172878
-0.168414
-0.163537
-0.158185
-0.152397
-0.146073
-0.139323
-0.131978
-0.124258
-0.115905
-0.107247
-0.0980167
-0.0884446
-0.078691
-0.068072
-0.0585859
-0.0463147
-0.0386861
-0.023128
-0.0200862
0.00193067
-0.207769
-0.207613
-0.207404
-0.207138
-0.206807
-0.206403
-0.20592
-0.205348
-0.204678
-0.2039
-0.203002
-0.201972
-0.200797
-0.199461
-0.197949
-0.196235
-0.194333
-0.19217
-0.189762
-0.187077
-0.184088
-0.180775
-0.177104
-0.173061
-0.168603
-0.163732
-0.158385
-0.152603
-0.146282
-0.139537
-0.132192
-0.124476
-0.116119
-0.107465
-0.098226
-0.0886585
-0.0788901
-0.0682787
-0.0587667
-0.0465127
-0.0388277
-0.0233239
-0.0201112
0.00167753
-0.207784
-0.207633
-0.20743
-0.207169
-0.206844
-0.206447
-0.20597
-0.205404
-0.204741
-0.20397
-0.203079
-0.202057
-0.200889
-0.19956
-0.198056
-0.196332
-0.194446
-0.1923
-0.189899
-0.187222
-0.184241
-0.180935
-0.177271
-0.173236
-0.168784
-0.16392
-0.158578
-0.152802
-0.146483
-0.139743
-0.132398
-0.124687
-0.116326
-0.107677
-0.0984297
-0.0888669
-0.0790846
-0.0684804
-0.0589435
-0.0467063
-0.0389643
-0.0235177
-0.0201274
0.00142183
-0.207782
-0.207636
-0.207439
-0.207184
-0.206865
-0.206475
-0.206004
-0.205446
-0.20479
-0.204026
-0.203143
-0.202128
-0.200967
-0.199647
-0.198151
-0.196483
-0.194555
-0.192418
-0.190025
-0.187356
-0.184382
-0.181085
-0.177428
-0.1734
-0.168955
-0.164098
-0.158761
-0.152991
-0.146676
-0.139941
-0.132597
-0.12489
-0.116527
-0.107881
-0.0986271
-0.0890686
-0.0792737
-0.0686761
-0.0591156
-0.0468951
-0.0390954
-0.0237091
-0.0201346
0.00116409
-0.207759
-0.207619
-0.207429
-0.207181
-0.206869
-0.206485
-0.206022
-0.205471
-0.204823
-0.204067
-0.203191
-0.202184
-0.201032
-0.19972
-0.198221
-0.196559
-0.194652
-0.192523
-0.190139
-0.187478
-0.184513
-0.181223
-0.177574
-0.173554
-0.169115
-0.164265
-0.158933
-0.15317
-0.146859
-0.14013
-0.132786
-0.125084
-0.116719
-0.108077
-0.0988172
-0.089263
-0.0794567
-0.0688653
-0.0592824
-0.0470785
-0.0392203
-0.0238978
-0.0201327
0.000904829
-0.207582
-0.207398
-0.207157
-0.206853
-0.206477
-0.206022
-0.205479
-0.204839
-0.204091
-0.203224
-0.202225
-0.201081
-0.199778
-0.198262
-0.196623
-0.194735
-0.192615
-0.190239
-0.187587
-0.184629
-0.181348
-0.177707
-0.173695
-0.169263
-0.16442
-0.159094
-0.153338
-0.14703
-0.140307
-0.132965
-0.125268
-0.116901
-0.108264
-0.0989992
-0.0894491
-0.0796329
-0.0690472
-0.0594433
-0.0472559
-0.0393385
-0.0240836
-0.0201219
0.000644499
-0.207522
-0.207346
-0.207113
-0.206817
-0.206449
-0.206002
-0.205468
-0.204836
-0.204097
-0.203238
-0.202248
-0.201113
-0.19982
-0.198382
-0.196681
-0.194802
-0.192691
-0.190324
-0.187681
-0.184732
-0.181459
-0.177826
-0.173822
-0.169397
-0.164563
-0.159243
-0.153493
-0.14719
-0.140473
-0.133133
-0.125441
-0.117074
-0.108441
-0.0991725
-0.0896263
-0.0798017
-0.0692212
-0.0595977
-0.0474269
-0.0394497
-0.0242662
-0.0201022
0.000383523
-0.207438
-0.20727
-0.207046
-0.206758
-0.206399
-0.205962
-0.205436
-0.204813
-0.204083
-0.203234
-0.202253
-0.201128
-0.199832
-0.198391
-0.196721
-0.194853
-0.192751
-0.190393
-0.187759
-0.184819
-0.181555
-0.17793
-0.173934
-0.169517
-0.164691
-0.159377
-0.153635
-0.147336
-0.140626
-0.133289
-0.125603
-0.117236
-0.108608
-0.0993363
-0.0897939
-0.0799625
-0.0693867
-0.0597451
-0.0475912
-0.0395534
-0.0244455
-0.0200737
0.000122282
-0.207328
-0.207169
-0.206954
-0.206676
-0.206326
-0.205898
-0.205382
-0.204769
-0.204049
-0.203209
-0.202238
-0.201122
-0.199811
-0.198393
-0.196745
-0.194886
-0.192793
-0.190445
-0.187819
-0.184889
-0.181634
-0.178018
-0.174031
-0.169622
-0.164803
-0.159497
-0.153762
-0.147469
-0.140766
-0.133432
-0.125752
-0.117386
-0.108763
-0.0994901
-0.0899511
-0.0801148
-0.0695432
-0.0598851
-0.0477483
-0.0396493
-0.0246211
-0.0200367
-0.000138883
-0.20719
-0.207041
-0.206836
-0.206568
-0.206229
-0.205811
-0.205305
-0.204702
-0.203992
-0.203162
-0.202201
-0.201096
-0.199864
-0.198385
-0.196748
-0.194899
-0.192816
-0.190477
-0.187862
-0.184941
-0.181695
-0.178088
-0.174111
-0.16971
-0.1649
-0.159601
-0.153874
-0.147587
-0.140891
-0.133561
-0.125888
-0.117524
-0.108906
-0.0996331
-0.0900975
-0.080258
-0.0696902
-0.0600172
-0.047898
-0.0397371
-0.0247928
-0.0199913
-0.000399675
-0.207022
-0.206884
-0.20669
-0.206432
-0.206104
-0.205697
-0.205202
-0.20461
-0.20391
-0.203092
-0.202141
-0.201044
-0.199803
-0.198356
-0.196731
-0.194891
-0.192819
-0.19049
-0.187885
-0.184973
-0.181738
-0.17814
-0.174172
-0.16978
-0.16498
-0.159688
-0.15397
-0.147689
-0.141001
-0.133676
-0.12601
-0.117649
-0.109036
-0.099765
-0.0902324
-0.0803918
-0.0698274
-0.0601411
-0.0480399
-0.0398166
-0.0249606
-0.0199379
-0.000659846
-0.206695
-0.206513
-0.206267
-0.205951
-0.205555
-0.205072
-0.204492
-0.203804
-0.202996
-0.202057
-0.200961
-0.19973
-0.198306
-0.196691
-0.194862
-0.192801
-0.190482
-0.187888
-0.184986
-0.181761
-0.178173
-0.174215
-0.169832
-0.165041
-0.159758
-0.154049
-0.147775
-0.141096
-0.133776
-0.126117
-0.11776
-0.109153
-0.099885
-0.0903553
-0.0805155
-0.069954
-0.0602561
-0.0481737
-0.0398875
-0.025124
-0.0198765
-0.000919191
-0.206474
-0.206305
-0.206072
-0.205768
-0.205385
-0.204914
-0.204346
-0.20367
-0.202875
-0.201948
-0.20087
-0.199642
-0.198231
-0.196627
-0.19481
-0.19276
-0.190452
-0.187868
-0.184977
-0.181763
-0.178185
-0.174237
-0.169864
-0.165083
-0.159808
-0.154109
-0.147843
-0.141173
-0.13386
-0.126208
-0.117857
-0.109255
-0.0999921
-0.0904652
-0.0806283
-0.0700696
-0.0603617
-0.048299
-0.0399494
-0.0252829
-0.0198074
-0.0011775
-0.206221
-0.206065
-0.205845
-0.205555
-0.205185
-0.204728
-0.204173
-0.203509
-0.202727
-0.201812
-0.200767
-0.19953
-0.198131
-0.196539
-0.194734
-0.192695
-0.190399
-0.187826
-0.184946
-0.181743
-0.178176
-0.174239
-0.169876
-0.165105
-0.15984
-0.154151
-0.147894
-0.141232
-0.133927
-0.126283
-0.117939
-0.109343
-0.100087
-0.090563
-0.080731
-0.0701747
-0.0604588
-0.0484162
-0.0400033
-0.025437
-0.0197317
-0.00143451
-0.205931
-0.205788
-0.205583
-0.205306
-0.204951
-0.204507
-0.203966
-0.203316
-0.202547
-0.201645
-0.200605
-0.199388
-0.198004
-0.196424
-0.194631
-0.192605
-0.190322
-0.187761
-0.184894
-0.181703
-0.178147
-0.174223
-0.169871
-0.165112
-0.159857
-0.15418
-0.147932
-0.141281
-0.133985
-0.12635
-0.118014
-0.109424
-0.100177
-0.0906544
-0.0808294
-0.0702741
-0.0605521
-0.0485283
-0.0400531
-0.0255874
-0.0196522
-0.00169013
-0.205573
-0.205448
-0.20526
-0.205001
-0.204663
-0.204236
-0.203712
-0.203079
-0.202326
-0.201436
-0.20041
-0.199213
-0.197844
-0.19628
-0.194501
-0.19249
-0.190221
-0.187675
-0.184821
-0.181644
-0.178102
-0.174191
-0.169851
-0.165106
-0.159863
-0.154198
-0.147961
-0.141322
-0.134035
-0.126409
-0.118083
-0.109498
-0.100261
-0.0907394
-0.0809229
-0.0703674
-0.0606404
-0.0486352
-0.0400969
-0.025735
-0.0195669
-0.00194562
-0.205153
-0.205054
-0.20489
-0.204655
-0.204338
-0.203933
-0.203428
-0.202815
-0.20208
-0.201201
-0.200194
-0.199017
-0.197663
-0.196114
-0.194349
-0.192351
-0.190094
-0.187559
-0.184717
-0.18155
-0.178018
-0.174117
-0.169786
-0.16505
-0.159816
-0.154159
-0.14793
-0.141299
-0.134021
-0.126403
-0.118087
-0.109508
-0.100282
-0.0907647
-0.0809583
-0.0704119
-0.0606775
-0.0487101
-0.0400976
-0.0258712
-0.01945
-0.00220417
-0.204736
-0.20459
-0.20437
-0.204069
-0.203678
-0.203186
-0.202586
-0.201866
-0.201028
-0.2
-0.198824
-0.197475
-0.19593
-0.194169
-0.192174
-0.18992
-0.187387
-0.184546
-0.18138
-0.177849
-0.173948
-0.169619
-0.164883
-0.15965
-0.153995
-0.147771
-0.141142
-0.133873
-0.126259
-0.117957
-0.109386
-0.100179
-0.0906762
-0.0808849
-0.0703712
-0.0606224
-0.0487404
-0.0400169
-0.0260158
-0.0192509
-0.00252289
-0.203998
-0.203872
-0.20367
-0.203386
-0.20301
-0.202532
-0.201943
-0.201231
-0.200379
-0.199381
-0.198218
-0.196876
-0.195338
-0.193582
-0.191592
-0.189342
-0.186813
-0.183976
-0.180815
-0.177288
-0.173393
-0.169071
-0.164344
-0.159124
-0.153482
-0.147276
-0.140666
-0.133424
-0.125834
-0.11757
-0.109027
-0.0998664
-0.0903989
-0.0806546
-0.0701915
-0.0604601
-0.0486811
-0.039869
-0.026119
-0.0190136
-0.00286352
-0.203073
-0.202969
-0.202787
-0.202521
-0.202161
-0.201698
-0.201122
-0.20042
-0.199578
-0.19859
-0.197435
-0.1961
-0.194567
-0.192816
-0.19083
-0.188584
-0.18606
-0.183226
-0.18007
-0.17655
-0.172662
-0.16835
-0.163634
-0.158429
-0.152805
-0.146623
-0.140037
-0.132829
-0.125271
-0.117052
-0.108548
-0.0994445
-0.0900213
-0.0803364
-0.0699331
-0.0602328
-0.0485644
-0.0396803
-0.026184
-0.0187676
-0.00318167
-0.201997
-0.20192
-0.201764
-0.201521
-0.201182
-0.200738
-0.200179
-0.199492
-0.198667
-0.197689
-0.196544
-0.195217
-0.193692
-0.191949
-0.189969
-0.187729
-0.18521
-0.182384
-0.179234
-0.175722
-0.171844
-0.167543
-0.162842
-0.157655
-0.152052
-0.145896
-0.139338
-0.132167
-0.124644
-0.116476
-0.108013
-0.0989715
-0.0895969
-0.0799755
-0.069638
-0.0599706
-0.048422
-0.0394649
-0.0262339
-0.018512
-0.00348529
-0.200741
-0.200698
-0.200574
-0.20036
-0.200047
-0.199627
-0.19909
-0.198423
-0.197616
-0.196653
-0.195523
-0.194209
-0.192696
-0.190963
-0.188993
-0.186762
-0.184253
-0.181435
-0.178296
-0.174795
-0.17093
-0.166645
-0.161961
-0.156795
-0.151216
-0.14509
-0.138564
-0.131435
-0.123951
-0.115839
-0.107421
-0.0984467
-0.0891254
-0.0795716
-0.0693064
-0.0596736
-0.0482542
-0.0392236
-0.0262681
-0.0182483
-0.00377269
-0.199277
-0.199275
-0.199189
-0.19901
-0.19873
-0.19834
-0.19783
-0.197188
-0.196403
-0.195461
-0.19435
-0.193053
-0.191555
-0.189837
-0.18788
-0.185662
-0.183166
-0.180362
-0.177236
-0.173751
-0.169902
-0.165636
-0.160974
-0.155834
-0.150283
-0.144193
-0.137703
-0.130621
-0.123181
-0.11513
-0.106764
-0.0978618
-0.0886001
-0.0791185
-0.0689332
-0.0593378
-0.048057
-0.0389549
-0.0262828
-0.0179785
-0.00404089
-0.197586
-0.197633
-0.197592
-0.197455
-0.197214
-0.196859
-0.196382
-0.195771
-0.195014
-0.194098
-0.19301
-0.191736
-0.190258
-0.188558
-0.18662
-0.184419
-0.18194
-0.179153
-0.176046
-0.172579
-0.168752
-0.164509
-0.159873
-0.154765
-0.149246
-0.143197
-0.136748
-0.129721
-0.12233
-0.114346
-0.106037
-0.0972138
-0.0880184
-0.078614
-0.0685168
-0.0589616
-0.0478291
-0.0386591
-0.0262764
-0.0177044
-0.00428773
-0.195655
-0.195758
-0.195769
-0.195681
-0.195485
-0.195173
-0.194735
-0.19416
-0.193437
-0.192553
-0.191494
-0.190246
-0.188794
-0.187118
-0.185202
-0.183023
-0.180566
-0.177801
-0.174717
-0.171274
-0.167473
-0.16326
-0.158655
-0.153582
-0.148103
-0.1421
-0.135699
-0.128731
-0.121396
-0.113485
-0.10524
-0.0965015
-0.0873799
-0.0780571
-0.0680569
-0.0585448
-0.0475701
-0.038337
-0.0262475
-0.0174281
-0.00451151
-0.193479
-0.193644
-0.193714
-0.193681
-0.193537
-0.193273
-0.192881
-0.192348
-0.191664
-0.190817
-0.189793
-0.188577
-0.187155
-0.185508
-0.183621
-0.181469
-0.179039
-0.176302
-0.173245
-0.169832
-0.166062
-0.161883
-0.157316
-0.152285
-0.14685
-0.1409
-0.134552
-0.12765
-0.120377
-0.112547
-0.104372
-0.0957242
-0.0866845
-0.0774476
-0.0675534
-0.0580878
-0.0472795
-0.0379897
-0.026195
-0.0171512
-0.00471089
-0.191058
-0.19129
-0.191424
-0.191452
-0.191365
-0.191156
-0.190814
-0.190329
-0.189691
-0.188886
-0.187902
-0.186724
-0.185338
-0.183725
-0.181871
-0.179753
-0.177355
-0.17465
-0.171627
-0.16825
-0.164517
-0.160378
-0.155853
-0.150871
-0.145486
-0.139597
-0.133308
-0.126479
-0.119275
-0.111531
-0.103434
-0.0948822
-0.0859326
-0.0767858
-0.0670069
-0.0575911
-0.0469574
-0.0376188
-0.026118
-0.0168755
-0.00488492
-0.188401
-0.188705
-0.188907
-0.189
-0.188975
-0.188824
-0.188538
-0.188106
-0.187517
-0.18676
-0.185821
-0.184686
-0.183341
-0.181769
-0.179953
-0.177873
-0.175513
-0.172847
-0.169863
-0.166527
-0.162836
-0.158744
-0.154268
-0.149341
-0.144013
-0.138189
-0.131967
-0.125217
-0.118089
-0.110439
-0.102427
-0.0939764
-0.0851253
-0.0760726
-0.0664179
-0.057056
-0.0466038
-0.037226
-0.0260158
-0.0166025
-0.00503306
-0.185526
-0.185903
-0.186176
-0.186336
-0.186376
-0.186288
-0.186061
-0.185685
-0.185151
-0.184445
-0.183556
-0.182469
-0.18117
-0.179642
-0.177871
-0.175833
-0.173517
-0.170894
-0.167956
-0.164666
-0.161024
-0.156985
-0.152564
-0.147698
-0.142433
-0.136682
-0.130532
-0.123869
-0.116823
-0.109272
-0.101353
-0.0930087
-0.0842647
-0.0753099
-0.065788
-0.0564844
-0.0462192
-0.0368134
-0.0258882
-0.0163336
-0.00515529
-0.182455
-0.182906
-0.18325
-0.183479
-0.183586
-0.183561
-0.183396
-0.18308
-0.182603
-0.181953
-0.181117
-0.180081
-0.178833
-0.177353
-0.17563
-0.173641
-0.171373
-0.168799
-0.165911
-0.162673
-0.159086
-0.155105
-0.150745
-0.145946
-0.140751
-0.135079
-0.129008
-0.122437
-0.115481
-0.108034
-0.100216
-0.0919823
-0.0833533
-0.0745003
-0.0651188
-0.0558787
-0.0458045
-0.0363833
-0.0257351
-0.0160697
-0.00525201
-0.179214
-0.179738
-0.180153
-0.180451
-0.180625
-0.180665
-0.180563
-0.180308
-0.17989
-0.179297
-0.178517
-0.177537
-0.176341
-0.174915
-0.173244
-0.171307
-0.169091
-0.166571
-0.163737
-0.160557
-0.15703
-0.153112
-0.148819
-0.144093
-0.138973
-0.133385
-0.127401
-0.120927
-0.114068
-0.106729
-0.0990202
-0.0909009
-0.0823944
-0.0736468
-0.0644125
-0.0552415
-0.0453607
-0.0359378
-0.0255571
-0.0158118
-0.00532408
-0.17583
-0.176425
-0.17691
-0.177276
-0.177516
-0.177621
-0.177582
-0.177389
-0.177031
-0.176497
-0.175775
-0.174851
-0.173712
-0.172341
-0.170725
-0.168844
-0.166684
-0.164222
-0.161447
-0.158329
-0.154865
-0.151016
-0.146794
-0.142147
-0.137108
-0.13161
-0.125717
-0.119345
-0.112589
-0.105364
-0.0977697
-0.0897689
-0.0813917
-0.0727532
-0.0636718
-0.054576
-0.0448895
-0.0354795
-0.025355
-0.0155601
-0.00537277
-0.17233
-0.172994
-0.173546
-0.173979
-0.174284
-0.174453
-0.174477
-0.174345
-0.174048
-0.173573
-0.172909
-0.172043
-0.170961
-0.169648
-0.16809
-0.166267
-0.164166
-0.161765
-0.159053
-0.156
-0.152605
-0.148829
-0.144683
-0.140118
-0.135165
-0.129761
-0.123965
-0.1177
-0.111052
-0.103945
-0.0964704
-0.0885914
-0.0803495
-0.0718235
-0.0628993
-0.0538853
-0.0443923
-0.0350105
-0.0251299
-0.0153149
-0.00539968
-0.168736
-0.169467
-0.170085
-0.170582
-0.170951
-0.171183
-0.171268
-0.171197
-0.17096
-0.170545
-0.16994
-0.169132
-0.168109
-0.166855
-0.165356
-0.163593
-0.161554
-0.159216
-0.156569
-0.153586
-0.150262
-0.146562
-0.142496
-0.138017
-0.133154
-0.127848
-0.122153
-0.115999
-0.109463
-0.102477
-0.0951283
-0.0873739
-0.0792719
-0.0708621
-0.0620982
-0.0531729
-0.0438713
-0.0345328
-0.0248833
-0.0150761
-0.00540668
-0.16507
-0.165866
-0.166548
-0.167108
-0.167539
-0.167831
-0.167977
-0.167966
-0.167788
-0.167432
-0.166886
-0.166137
-0.165173
-0.163979
-0.16254
-0.160838
-0.158863
-0.15659
-0.154011
-0.151098
-0.147849
-0.144229
-0.140245
-0.135856
-0.131086
-0.125881
-0.120291
-0.11425
-0.107831
-0.100968
-0.0937491
-0.0861218
-0.0781636
-0.0698734
-0.0612715
-0.0524421
-0.0433284
-0.0340485
-0.024617
-0.0148433
-0.00539582
-0.16135
-0.162209
-0.162952
-0.163574
-0.164065
-0.164417
-0.164622
-0.164669
-0.16455
-0.164252
-0.163765
-0.163075
-0.16217
-0.161035
-0.159657
-0.158018
-0.156107
-0.153901
-0.151392
-0.148552
-0.145379
-0.14184
-0.137942
-0.133645
-0.12897
-0.123869
-0.118387
-0.112461
-0.106163
-0.099425
-0.0923388
-0.0848406
-0.0770288
-0.0688615
-0.0604224
-0.0516958
-0.0427659
-0.033559
-0.0243327
-0.0146161
-0.00536927
-0.157589
-0.158509
-0.159313
-0.159994
-0.160544
-0.160954
-0.161217
-0.161323
-0.161261
-0.161021
-0.160592
-0.15996
-0.159114
-0.15804
-0.156723
-0.155148
-0.153302
-0.151164
-0.148725
-0.14596
-0.142865
-0.139409
-0.135598
-0.131394
-0.126817
-0.121822
-0.116449
-0.11064
-0.104465
-0.0978537
-0.0909028
-0.0835356
-0.0758718
-0.0678306
-0.0595538
-0.050937
-0.042186
-0.0330657
-0.0240324
-0.0143936
-0.00532921
-0.153798
-0.154778
-0.155641
-0.15638
-0.156988
-0.157456
-0.157776
-0.157939
-0.157934
-0.157751
-0.157379
-0.156806
-0.156019
-0.155005
-0.15375
-0.152239
-0.150458
-0.148389
-0.146021
-0.143332
-0.140316
-0.136944
-0.133221
-0.129112
-0.124636
-0.119746
-0.114485
-0.108795
-0.102744
-0.0962604
-0.0894461
-0.0822114
-0.0746964
-0.0667843
-0.0586687
-0.0501682
-0.0415908
-0.0325698
-0.0237182
-0.0141753
-0.00527776
-0.149987
-0.151026
-0.151947
-0.152743
-0.153408
-0.153932
-0.154309
-0.154528
-0.154579
-0.154453
-0.154139
-0.153623
-0.152896
-0.151941
-0.150749
-0.149301
-0.147587
-0.145586
-0.143291
-0.140678
-0.137742
-0.134455
-0.130822
-0.126808
-0.122433
-0.11765
-0.112502
-0.106931
-0.101005
-0.0946503
-0.0879735
-0.0808725
-0.0735063
-0.0657261
-0.0577697
-0.0493917
-0.0409826
-0.032072
-0.0233921
-0.0139604
-0.00521693
-0.146163
-0.147259
-0.148236
-0.149089
-0.14981
-0.150391
-0.150823
-0.151098
-0.151205
-0.151136
-0.150878
-0.15042
-0.149752
-0.148858
-0.147727
-0.146344
-0.144696
-0.142765
-0.140543
-0.138006
-0.13515
-0.131949
-0.128407
-0.124489
-0.120215
-0.11554
-0.110506
-0.105054
-0.0992542
-0.093028
-0.0864889
-0.0795225
-0.0723045
-0.0646588
-0.0568594
-0.0486093
-0.0403634
-0.0315729
-0.0230558
-0.013748
-0.00514858
-0.142331
-0.143483
-0.144517
-0.145426
-0.146202
-0.146837
-0.147325
-0.147655
-0.147818
-0.147805
-0.147604
-0.147204
-0.146595
-0.145761
-0.144693
-0.143374
-0.141793
-0.139932
-0.137783
-0.135323
-0.132548
-0.129433
-0.125981
-0.12216
-0.117988
-0.113422
-0.108501
-0.103168
-0.0974945
-0.0913975
-0.0849958
-0.0781649
-0.071094
-0.0635849
-0.0559399
-0.0478226
-0.0397349
-0.0310731
-0.0227111
-0.0135375
-0.00507435
-0.138498
-0.139705
-0.140794
-0.141757
-0.142587
-0.143278
-0.14382
-0.144205
-0.144424
-0.144466
-0.144322
-0.14398
-0.14343
-0.142657
-0.141651
-0.140396
-0.138883
-0.137092
-0.135016
-0.132634
-0.129941
-0.126912
-0.123551
-0.119827
-0.115756
-0.111298
-0.106491
-0.101278
-0.09573
-0.0897622
-0.0834972
-0.0768024
-0.0698771
-0.0625065
-0.0550133
-0.047033
-0.0390991
-0.0305727
-0.0223596
-0.0133282
-0.00499568
-0.134667
-0.135929
-0.137071
-0.138088
-0.138972
-0.139717
-0.140313
-0.140752
-0.141026
-0.141124
-0.141037
-0.140753
-0.140261
-0.139549
-0.138606
-0.137416
-0.13597
-0.13425
-0.132248
-0.129943
-0.127332
-0.12439
-0.12112
-0.117492
-0.113524
-0.109174
-0.104481
-0.0993862
-0.0939638
-0.088125
-0.0819958
-0.0754373
-0.0686561
-0.0614255
-0.0540815
-0.0462415
-0.0384575
-0.0300721
-0.0220029
-0.0131198
-0.00491379
-0.130845
-0.132159
-0.133354
-0.134424
-0.135361
-0.136158
-0.136808
-0.137302
-0.13763
-0.137784
-0.137753
-0.137527
-0.137094
-0.136443
-0.135562
-0.134438
-0.133059
-0.13141
-0.129482
-0.127255
-0.124726
-0.12187
-0.118692
-0.115161
-0.111294
-0.107052
-0.102472
-0.0974962
-0.0921982
-0.0864884
-0.0804937
-0.0740718
-0.0674329
-0.0603434
-0.0531461
-0.0454491
-0.0378116
-0.0295713
-0.0216422
-0.0129116
-0.00482968
-0.127035
-0.1284
-0.129647
-0.130768
-0.131757
-0.132607
-0.13331
-0.133857
-0.13424