/*--------------------------------*- C++ -*----------------------------------*\
  =========                 |
  \\      /  F ield         | OpenFOAM: The Open Source CFD Toolbox
   \\    /   O peration     | Website:  https://openfoam.org
    \\  /    A nd           | Version:  7
     \\/     M anipulation  |
\*---------------------------------------------------------------------------*/
FoamFile
{
    version     2.0;
    format      ascii;
    class       surfaceScalarField;
    location    "50";
    object      phi;
}
// * * * * * * * * * * * * * * * * * * * * * * * * * * * * * * * * * * * * * //

dimensions      [0 3 -1 0 0 0 0];

internalField   nonuniform List<scalar> 
67470
(
-8.49803e-07
4.96194e-07
3.53609e-07
-3.20307e-06
1.37886e-06
9.74411e-07
-6.93763e-06
2.19473e-06
1.53982e-06
-1.19325e-05
2.94385e-06
2.05103e-06
-1.80692e-05
3.62633e-06
2.51039e-06
-2.52336e-05
4.24275e-06
2.92162e-06
-3.33174e-05
4.79414e-06
3.28968e-06
-4.22205e-05
5.28238e-06
3.62067e-06
-5.18527e-05
5.71057e-06
3.92162e-06
-6.21362e-05
6.08342e-06
4.20017e-06
-7.30082e-05
6.4078e-06
4.46417e-06
-8.44226e-05
6.69314e-06
4.72128e-06
-9.6353e-05
6.95184e-06
4.97854e-06
-0.000108794
7.1994e-06
5.24206e-06
-0.000121765
7.45429e-06
5.51672e-06
-0.000135309
7.73736e-06
5.80598e-06
-0.000149492
8.07099e-06
6.11176e-06
-0.000164404
8.47769e-06
6.4343e-06
-0.000180151
8.97567e-06
6.77197e-06
9.58887e-06
7.12083e-06
-0.000196861
-8.48441e-07
1.34464e-06
-3.19795e-06
3.72837e-06
-6.92641e-06
5.92319e-06
-1.19128e-05
7.93024e-06
-1.80385e-05
9.75205e-06
-2.51891e-05
1.13934e-05
-3.32561e-05
1.28611e-05
-4.21389e-05
1.41652e-05
-5.17469e-05
1.53185e-05
-6.20017e-05
1.63383e-05
-7.28397e-05
1.72458e-05
-8.42141e-05
1.80675e-05
-9.60975e-05
1.88353e-05
-0.000108484
1.95861e-05
-0.000121392
2.03619e-05
-0.000134862
2.12078e-05
-0.000148962
2.21707e-05
-0.00016378
2.3296e-05
-0.000179423
2.46187e-05
2.61824e-05
-0.000196017
-8.44568e-07
2.1892e-06
-3.1836e-06
6.0674e-06
-6.89543e-06
9.63502e-06
-1.18592e-05
1.2894e-05
-1.79563e-05
1.58492e-05
-2.50721e-05
1.85091e-05
-3.30975e-05
2.08866e-05
-4.19312e-05
2.29989e-05
-5.14818e-05
2.48692e-05
-6.16698e-05
2.65262e-05
-7.243e-05
2.80059e-05
-8.3714e-05
2.93515e-05
-9.54927e-05
3.0614e-05
-0.000107759
3.18519e-05
-0.000120527
3.31304e-05
-0.000133839
3.45195e-05
-0.000147759
3.60906e-05
-0.000162375
3.79125e-05
-0.000177794
4.00371e-05
4.25277e-05
-0.000194139
-8.38236e-07
3.02744e-06
-3.16019e-06
8.38936e-06
-6.84501e-06
1.33198e-05
-1.17723e-05
1.78213e-05
-1.78234e-05
2.19003e-05
-2.48834e-05
2.55691e-05
-3.28427e-05
2.88458e-05
-4.1599e-05
3.17552e-05
-5.10594e-05
3.43296e-05
-6.11427e-05
3.66095e-05
-7.17816e-05
3.86449e-05
-8.29254e-05
4.04953e-05
-9.4542e-05
4.22307e-05
-0.000106621
4.39309e-05
-0.000119175
4.56847e-05
-0.000132243
4.75868e-05
-0.000145886
4.97341e-05
-0.000160193
5.22192e-05
-0.000175267
5.51114e-05
5.84936e-05
-0.000191233
-8.29522e-07
3.85696e-06
-3.12799e-06
1.06878e-05
-6.77569e-06
1.69675e-05
-1.16528e-05
2.26984e-05
-1.7641e-05
2.78884e-05
-2.46248e-05
3.25529e-05
-3.24938e-05
3.67149e-05
-4.11446e-05
4.0406e-05
-5.04825e-05
4.36674e-05
-6.04239e-05
4.65509e-05
-7.08987e-05
4.91197e-05
-8.18529e-05
5.14494e-05
-9.32507e-05
5.36285e-05
-0.000105078
5.57579e-05
-0.000117343
5.795e-05
-0.000130081
6.03247e-05
-0.000143352
6.30049e-05
-0.000157241
6.61082e-05
-0.000171851
6.97222e-05
7.39493e-05
-0.000187307
-8.18528e-07
4.67549e-06
-3.08734e-06
1.29566e-05
-6.68817e-06
2.05684e-05
-1.1502e-05
2.75123e-05
-1.74106e-05
3.3797e-05
-2.42983e-05
3.94406e-05
-3.20536e-05
4.44703e-05
-4.05715e-05
4.89239e-05
-4.97551e-05
5.2851e-05
-5.95181e-05
5.63138e-05
-6.97866e-05
5.93883e-05
-8.05026e-05
6.21654e-05
-9.16255e-05
6.47514e-05
-0.000103136
6.72684e-05
-0.000115038
6.98521e-05
-0.000127362
7.26484e-05
-0.000140164
7.58071e-05
-0.000153528
7.94722e-05
-0.000167556
8.37506e-05
8.87646e-05
-0.000182372
-8.05383e-07
5.48087e-06
-3.03867e-06
1.51899e-05
-6.5833e-06
2.4113e-05
-1.13212e-05
3.22502e-05
-1.71343e-05
3.96101e-05
-2.39065e-05
4.62128e-05
-3.15253e-05
5.2089e-05
-3.98836e-05
5.72823e-05
-4.88821e-05
6.18495e-05
-5.84308e-05
6.58625e-05
-6.84519e-05
6.94094e-05
-7.88819e-05
7.25954e-05
-8.96748e-05
7.55443e-05
-0.000100805
7.83985e-05
-0.00011227
8.13176e-05
-0.000124096
8.44737e-05
-0.000136334
8.80451e-05
-0.000149065
9.22037e-05
-0.000162393
9.70779e-05
0.00010281
-0.000176438
-7.90233e-07
6.27111e-06
-2.98248e-06
1.73822e-05
-6.46208e-06
2.75926e-05
-1.1112e-05
3.69001e-05
-1.68144e-05
4.53125e-05
-2.34526e-05
5.2851e-05
-3.09127e-05
5.95492e-05
-3.90857e-05
6.54552e-05
-4.7869e-05
7.06328e-05
-5.71687e-05
7.51623e-05
-6.6902e-05
7.91427e-05
-7.69995e-05
8.26928e-05
-8.74082e-05
8.5953e-05
-9.80953e-05
8.90857e-05
-0.000109052
9.22739e-05
-0.000120295
9.57172e-05
-0.000131874
9.96236e-05
-0.000143865
0.000104196
-0.000156373
0.000109585
0.000115957
-0.00016952
-7.73245e-07
7.04435e-06
-2.91934e-06
1.95283e-05
-6.32564e-06
3.09989e-05
-1.08762e-05
4.14506e-05
-1.64533e-05
5.08896e-05
-2.29397e-05
5.93374e-05
-3.02201e-05
6.68295e-05
-3.81828e-05
7.34179e-05
-4.67219e-05
7.91718e-05
-5.57389e-05
8.41793e-05
-6.51453e-05
8.85491e-05
-7.48648e-05
9.24123e-05
-8.48365e-05
9.59248e-05
-9.5019e-05
9.92682e-05
-0.000105394
0.000102649
-0.000115973
0.000106296
-0.000126797
0.000110447
-0.000137941
0.00011534
-0.00014951
0.000121154
0.000128076
-0.000161628
-7.54602e-07
7.79895e-06
-2.84986e-06
2.16235e-05
-6.1752e-06
3.43242e-05
-1.06157e-05
4.58911e-05
-1.60539e-05
5.63279e-05
-2.23717e-05
6.56552e-05
-2.9452e-05
7.39098e-05
-3.71805e-05
8.11464e-05
-4.54474e-05
8.74387e-05
-5.41492e-05
9.28811e-05
-6.31908e-05
9.75906e-05
-7.2488e-05
0.000101709
-8.1971e-05
0.000105408
-9.15884e-05
0.000108886
-0.000101312
0.000112373
-0.000111143
0.000116127
-0.000121117
0.000120421
-0.000131306
0.000125529
-0.000141815
0.000131663
0.000139036
-0.000152776
-7.34496e-07
8.53345e-06
-2.7747e-06
2.36637e-05
-6.01207e-06
3.75616e-05
-1.03327e-05
5.02117e-05
-1.56191e-05
6.16143e-05
-2.17524e-05
7.17884e-05
-2.86133e-05
8.07708e-05
-3.60848e-05
8.86179e-05
-4.40526e-05
9.54065e-05
-5.24076e-05
0.000101236
-6.10476e-05
0.000106231
-6.98797e-05
0.000110542
-7.88236e-05
0.000114352
-8.78166e-05
0.000117879
-9.68189e-05
0.000121375
-0.000105821
0.000125129
-0.000114849
0.000129449
-0.000123973
0.000134654
-0.000133301
0.00014099
0.000148707
-0.000142972
-7.1313e-07
9.24658e-06
-2.69452e-06
2.56451e-05
-5.83757e-06
4.07047e-05
-1.00292e-05
5.44034e-05
-1.5152e-05
6.6737e-05
-2.10856e-05
7.7722e-05
-2.77089e-05
8.73942e-05
-3.49014e-05
9.58103e-05
-4.25442e-05
0.000103049
-5.05222e-05
0.000109214
-5.87251e-05
0.000114434
-6.70503e-05
0.000118867
-7.54061e-05
0.000122708
-8.37165e-05
0.000126189
-9.19282e-05
0.000129587
-0.000100019
0.000133219
-0.000108005
0.000137436
-0.000115954
0.000142602
-0.000123976
0.000149013
0.000156953
-0.000132222
-6.9071e-07
9.93729e-06
-2.61003e-06
2.75644e-05
-5.6531e-06
4.37477e-05
-9.70753e-06
5.84578e-05
-1.46555e-05
7.1685e-05
-2.03753e-05
8.34419e-05
-2.67437e-05
9.37625e-05
-3.36362e-05
0.000102703
-4.09292e-05
0.000110342
-4.85008e-05
0.000116786
-5.62322e-05
0.000122165
-6.401e-05
0.000126645
-7.17296e-05
0.000130427
-7.93003e-05
0.00013376
-8.66532e-05
0.00013694
-9.37505e-05
0.000140316
-0.000100598
0.000144284
-0.000107258
0.000149262
-0.000113847
0.000155601
0.000163635
-0.000120529
-6.67442e-07
1.06047e-05
-2.52191e-06
2.94189e-05
-5.45999e-06
4.66858e-05
-9.3697e-06
6.23675e-05
-1.41325e-05
7.64478e-05
-1.96255e-05
8.89348e-05
-2.57222e-05
9.98593e-05
-3.22947e-05
0.000109275
-3.92139e-05
0.000117262
-4.63507e-05
0.000123922
-5.3577e-05
0.000129391
-6.07678e-05
0.000133835
-6.78042e-05
0.000137464
-7.45791e-05
0.000140535
-8.10052e-05
0.000143366
-8.70275e-05
0.000146339
-9.26378e-05
0.000149894
-9.78915e-05
0.000154516
-0.000102913
0.000160623
0.000168607
-0.000107886
-6.4353e-07
1.12483e-05
-2.43083e-06
3.12062e-05
-5.25957e-06
4.95145e-05
-9.01779e-06
6.61258e-05
-1.35861e-05
8.10161e-05
-1.88395e-05
9.41882e-05
-2.46489e-05
0.000105669
-3.0882e-05
0.000115508
-3.7404e-05
0.000123784
-4.40781e-05
0.000130597
-5.07665e-05
0.00013608
-5.73314e-05
0.0001404
-6.36384e-05
0.000143771
-6.95617e-05
0.000146458
-7.49936e-05
0.000148798
-7.98581e-05
0.000151203
-8.41299e-05
0.000154166
-8.78569e-05
0.000158243
-9.11719e-05
0.000163938
0.000171715
-9.42794e-05
-6.1917e-07
1.18674e-05
-2.33745e-06
3.29245e-05
-5.0531e-06
5.22302e-05
-8.65376e-06
6.97264e-05
-1.30187e-05
8.53811e-05
-1.80208e-05
9.91903e-05
-2.35277e-05
0.000111175
-2.94024e-05
0.000121383
-3.55041e-05
0.000129885
-4.16882e-05
0.000136781
-4.7806e-05
0.000142197
-5.37063e-05
0.000146301
-5.92378e-05
0.000149302
-6.42541e-05
0.000151474
-6.86239e-05
0.000153168
-7.22469e-05
0.000154826
-7.50767e-05
0.000156996
-7.71507e-05
0.000160317
-7.86115e-05
0.000165399
0.00017279
-7.9687e-05
-5.94546e-07
1.2462e-05
-2.24237e-06
3.45723e-05
-4.84173e-06
5.48296e-05
-8.27935e-06
7.3164e-05
-1.24328e-05
8.95345e-05
-1.71722e-05
0.00010393
-2.23616e-05
0.000116365
-2.78592e-05
0.000126881
-3.35178e-05
0.000135544
-3.91842e-05
0.000142447
-4.46986e-05
0.000147712
-4.98955e-05
0.000151498
-5.46051e-05
0.000154012
-5.86583e-05
0.000155527
-6.18974e-05
0.000156407
-6.41935e-05
0.000157122
-6.54742e-05
0.000158276
-6.57628e-05
0.000160605
-6.52119e-05
0.000164848
0.000171652
-6.40738e-05
-5.6983e-07
1.30318e-05
-2.14613e-06
3.61486e-05
-4.62649e-06
5.73099e-05
-7.89611e-06
7.64337e-05
-1.18302e-05
9.34687e-05
-1.62959e-05
0.000108395
-2.11531e-05
0.000121222
-2.62549e-05
0.000131983
-3.1447e-05
0.000140736
-3.65675e-05
0.000147567
-4.14449e-05
0.000152589
-4.58984e-05
0.000155951
-4.97385e-05
0.000157852
-5.27714e-05
0.00015856
-5.48094e-05
0.000158445
-5.56907e-05
0.000158004
-5.53112e-05
0.000157897
-5.36745e-05
0.000158969
-5.09429e-05
0.000162116
0.000168103
-4.73934e-05
-5.45175e-07
1.3577e-05
-2.04923e-06
3.76527e-05
-4.40828e-06
5.9669e-05
-7.50531e-06
7.95307e-05
-1.12126e-05
9.7176e-05
-1.53937e-05
0.000112576
-1.99037e-05
0.000125732
-2.45902e-05
0.000136669
-2.92918e-05
0.000145438
-3.38368e-05
0.000152112
-3.80419e-05
0.000156794
-4.17101e-05
0.000159619
-4.46309e-05
0.000160773
-4.65838e-05
0.000160513
-4.73479e-05
0.000159209
-4.6723e-05
0.000157379
-4.45664e-05
0.00015574
-4.0856e-05
0.000155258
-3.5765e-05
0.000157025
0.000161929
-2.95907e-05
-5.20715e-07
1.40977e-05
-1.95207e-06
3.9084e-05
-4.18783e-06
6.19047e-05
-7.10792e-06
8.24508e-05
-1.0581e-05
0.000100649
-1.44662e-05
0.000116462
-1.86138e-05
0.00012988
-2.28648e-05
0.00014092
-2.70501e-05
0.000149623
-3.09883e-05
0.000156051
-3.44832e-05
0.000160289
-3.73211e-05
0.000162457
-3.92694e-05
0.000162721
-4.00789e-05
0.000161323
-3.94919e-05
0.000158622
-3.72643e-05
0.000155151
-3.32068e-05
0.000151683
-2.72585e-05
0.00014931
-1.96243e-05
0.000149391
0.000152977
-1.06726e-05
-4.96562e-07
1.45943e-05
-1.85498e-06
4.04425e-05
-3.96566e-06
6.40154e-05
-6.70459e-06
8.51897e-05
-9.93597e-06
0.00010388
-1.35138e-05
0.00012004
-1.72825e-05
0.000133648
-2.10762e-05
0.000144714
-2.47176e-05
0.000153264
-2.80147e-05
0.000159348
-3.0758e-05
0.000163032
-3.27162e-05
0.000164415
-3.36337e-05
0.000163638
-3.32307e-05
0.00016092
-3.12098e-05
0.000156601
-2.72773e-05
0.000151219
-2.11887e-05
0.000145594
-1.28159e-05
0.000140937
-2.18727e-06
0.000138762
0.00014118
9.60952e-06
-4.72805e-07
1.50671e-05
-1.7582e-06
4.17279e-05
-3.74212e-06
6.59993e-05
-6.29559e-06
8.77432e-05
-9.27739e-06
0.000106862
-1.25355e-05
0.000123298
-1.59078e-05
0.000137021
-1.92206e-05
0.000148027
-2.22875e-05
0.000156331
-2.49054e-05
0.000161966
-2.68507e-05
0.000164978
-2.78739e-05
0.000165439
-2.76956e-05
0.00016346
-2.60034e-05
0.000159227
-2.24576e-05
0.000153055
-1.67097e-05
0.000145471
-8.45081e-06
0.000137335
2.48691e-06
0.00013
1.59746e-05
0.000125275
0.000125672
3.14829e-05
-4.49505e-07
1.55166e-05
-1.66187e-06
4.29402e-05
-3.51733e-06
6.78548e-05
-5.88083e-06
9.01067e-05
-8.60461e-06
0.000109586
-1.15297e-05
0.000126223
-1.44862e-05
0.000139977
-1.7292e-05
0.000150832
-1.97503e-05
0.00015879
-2.16462e-05
0.000163862
-2.2741e-05
0.000166073
-2.27664e-05
0.000165464
-2.14177e-05
0.000162111
-1.83496e-05
0.000156159
-1.3177e-05
0.000147883
-5.49182e-06
0.000137786
5.08973e-06
0.000126754
1.88141e-05
0.000116275
3.5587e-05
0.000108502
0.000106419
5.48398e-05
-4.26702e-07
1.59433e-05
-1.56602e-06
4.40795e-05
-3.29119e-06
6.958e-05
-5.45978e-06
9.22753e-05
-7.91632e-06
0.000112043
-1.04937e-05
0.0001288
-1.3013e-05
0.000142496
-1.52823e-05
0.000153102
-1.70937e-05
0.000160601
-1.82189e-05
0.000164987
-1.84032e-05
0.000166257
-1.73583e-05
0.000164419
-1.47538e-05
0.000159507
-1.02097e-05
0.000151615
-3.29413e-06
0.000140967
6.46532e-06
0.000128026
1.95364e-05
0.000113683
3.62607e-05
9.95509e-05
5.66106e-05
8.8152e-05
8.3064e-05
7.99656e-05
-4.04406e-07
1.63477e-05
-1.47059e-06
4.51457e-05
-3.06337e-06
7.11727e-05
-5.03153e-06
9.42434e-05
-7.21055e-06
0.000114222
-9.42372e-06
0.000131013
-1.14819e-05
0.000144555
-1.31818e-05
0.000154802
-1.43028e-05
0.000161722
-1.46017e-05
0.000165286
-1.38065e-05
0.000165462
-1.16074e-05
0.00016222
-7.64746e-06
0.000155547
-1.51128e-06
0.000145479
7.28138e-06
0.000132174
1.92701e-05
0.000116038
3.5015e-05
9.79377e-05
5.49708e-05
7.9595e-05
7.91999e-05
6.39229e-05
5.52092e-05
0.000107055
-3.82599e-07
1.67303e-05
-1.37542e-06
4.61385e-05
-2.8333e-06
7.26306e-05
-4.59475e-06
9.60049e-05
-6.48465e-06
0.000116112
-8.31517e-06
0.000132844
-9.88528e-06
0.000146125
-1.09786e-05
0.000155895
-1.13598e-05
0.000162103
-1.0769e-05
0.000164695
-8.91484e-06
0.000163607
-5.46466e-06
0.00015877
-3.31506e-08
0.000150115
7.83096e-06
0.000137615
1.86566e-05
0.000121349
3.30521e-05
0.000101642
5.16759e-05
7.93139e-05
7.51126e-05
5.61583e-05
0.000103543
3.54922e-05
2.24254e-05
0.000136327
-3.61238e-07
1.70915e-05
-1.28023e-06
4.70575e-05
-2.60016e-06
7.39505e-05
-4.14765e-06
9.75524e-05
-5.7353e-06
0.000117699
-7.16241e-06
0.000134271
-8.21409e-06
0.000147176
-8.65883e-06
0.00015634
-8.24433e-06
0.000161689
-6.69168e-06
0.000163142
-3.68756e-06
0.000160603
1.12588e-06
0.000153956
8.16386e-06
0.000143077
1.79144e-05
0.000127864
3.0955e-05
0.000108308
4.79622e-05
8.46349e-05
6.96951e-05
5.7581e-05
9.68825e-05
2.8971e-05
0.000129854
2.52025e-06
-1.57438e-05
0.000168024
-3.40248e-07
1.74318e-05
-1.18462e-06
4.79019e-05
-2.3629e-06
7.51288e-05
-3.68803e-06
9.88775e-05
-4.95851e-06
0.00011897
-5.95877e-06
0.000135271
-6.45795e-06
0.000147675
-6.20691e-06
0.000156089
-4.93373e-06
0.000160415
-2.33739e-06
0.000160546
1.92039e-06
0.000156346
8.22572e-06
0.000147651
1.70261e-05
0.000134277
2.88475e-05
0.000116043
4.4315e-05
9.28406e-05
6.41709e-05
6.4779e-05
8.92735e-05
3.24784e-05
0.000120504
-2.2595e-06
0.000158372
-3.53482e-05
-5.97704e-05
0.000202399
-3.19525e-07
1.77513e-05
-1.08809e-06
4.86705e-05
-2.12019e-06
7.61609e-05
-3.21323e-06
9.99705e-05
-4.14958e-06
0.000119906
-4.69666e-06
0.000135818
-4.60514e-06
0.000147584
-3.60552e-06
0.000155089
-1.40302e-06
0.000158213
2.32904e-06
0.000156814
7.95771e-06
0.000150717
1.59011e-05
0.000139708
2.66423e-05
0.000123536
4.0747e-05
0.000101938
5.88869e-05
7.47007e-05
8.18654e-05
4.18005e-05
0.000110633
3.71062e-06
0.000146224
-3.78507e-05
0.000189357
-7.84804e-05
-0.000110126
0.000239712
-2.98934e-07
1.80502e-05
-9.90003e-07
4.93615e-05
-1.87046e-06
7.70414e-05
-2.72012e-06
0.00010082
-3.30313e-06
0.000120489
-3.36748e-06
0.000135883
-2.64267e-06
0.000146859
-8.35652e-07
0.000153282
2.37481e-06
0.000155002
7.3452e-06
0.000151843
1.44759e-05
0.000143586
2.42219e-05
0.000129962
3.71058e-05
0.000110652
5.37357e-05
8.53085e-05
7.48293e-05
5.36071e-05
0.000101245
1.53852e-05
0.000134012
-2.90573e-05
0.00017431
-7.81478e-05
0.000223081
-0.000127252
-0.000167259
0.000280214
-2.78302e-07
1.83285e-05
-8.89591e-07
4.99728e-05
-1.61182e-06
7.77636e-05
-2.20511e-06
0.000101414
-2.41305e-06
0.000120697
-1.96165e-06
0.000135431
-5.56264e-07
0.000145454
2.1232e-06
0.000150603
6.42851e-06
0.000150697
1.27507e-05
0.000145521
2.15287e-05
0.000134808
3.32598e-05
0.000118231
4.85116e-05
9.54002e-05
6.79383e-05
6.58818e-05
9.23031e-05
2.92423e-05
0.000122512
-1.48234e-05
0.000159657
-6.62028e-05
0.000205034
-0.000123525
0.000259826
-0.000182043
-0.000231569
0.000324135
-2.57423e-07
1.85859e-05
-7.85955e-07
5.05014e-05
-1.34211e-06
7.83197e-05
-1.66409e-06
0.000101735
-1.47251e-06
0.000120505
-4.68616e-07
0.000134427
1.66959e-06
0.000143316
5.29301e-06
0.000146979
1.07884e-05
0.000145202
1.85866e-05
0.000137723
2.91708e-05
0.000124224
4.30871e-05
0.000104314
6.09543e-05
7.7533e-05
8.34773e-05
4.33588e-05
0.000111466
1.25365e-06
0.000145866
-4.92232e-05
0.00018781
-0.000108147
0.000238672
-0.000174386
0.000299866
-0.000243238
-0.000303364
0.000371661
-2.36046e-07
1.8822e-05
-6.78038e-07
5.09434e-05
-1.05884e-06
7.87005e-05
-1.09242e-06
0.000101769
-4.73865e-07
0.000119887
1.12323e-06
0.00013283
4.05167e-06
0.000140387
8.69722e-06
0.000142334
1.54864e-05
0.000138413
2.48951e-05
0.000128314
3.74577e-05
0.000111661
5.37754e-05
8.79966e-05
7.45253e-05
5.67831e-05
0.000100469
1.74151e-05
0.000132465
-3.07423e-05
0.000171492
-8.82498e-05
0.000218698
-0.000155353
0.000275477
-0.000231165
0.000343456
-0.000311217
-0.00038282
0.000422912
-2.13878e-07
1.90359e-05
-5.64625e-07
5.12941e-05
-7.59181e-07
7.88951e-05
-4.84908e-07
0.000101495
5.91289e-07
0.000118811
2.82655e-06
0.000130595
6.60806e-06
0.000136606
1.23606e-05
0.000136581
2.05555e-05
0.000130218
3.17196e-05
0.00011715
4.64443e-05
9.69366e-05
6.53937e-05
6.90472e-05
8.93103e-05
3.28665e-05
0.000119019
-1.22935e-05
0.00015543
-6.71532e-05
0.000199549
-0.000132369
0.000252515
-0.000208319
0.000315672
-0.000294322
0.000390819
-0.000386364
-0.000469922
0.000477921
-1.90574e-07
1.92264e-05
-4.44327e-07
5.15479e-05
-4.39965e-07
7.88907e-05
1.64223e-07
0.000100891
1.73223e-06
0.000117243
4.65511e-06
0.000127672
9.35811e-06
0.000131903
1.63095e-05
0.00012963
2.60301e-05
0.000120497
3.91036e-05
0.000104077
5.61849e-05
7.98552e-05
7.80078e-05
4.72244e-05
0.000105387
5.48715e-06
0.000139218
-4.61241e-05
0.000180466
-0.000108402
0.000230163
-0.000182066
0.000289414
-0.00026757
0.000359435
-0.000364344
0.000442133
-0.000469062
-0.000564397
0.000536608
-1.65741e-07
1.93922e-05
-3.15576e-07
5.16977e-05
-9.76224e-08
7.86728e-05
8.61333e-07
9.99316e-05
2.95908e-06
0.000115145
6.62378e-06
0.000124007
1.23225e-05
0.000126204
2.05713e-05
0.000121381
3.19456e-05
0.000109123
4.70911e-05
8.89314e-05
6.67324e-05
6.02139e-05
9.16786e-05
2.22782e-05
0.000122823
-2.56578e-05
0.000161137
-8.44381e-05
0.000207648
-0.000154912
0.00026341
-0.000237828
0.000329479
-0.000333639
0.000406877
-0.000441742
0.000497518
-0.000559703
-0.000665662
0.000598783
-1.38926e-07
1.95311e-05
-1.76621e-07
5.17354e-05
2.71729e-07
7.82244e-05
1.61343e-06
9.85899e-05
4.28285e-06
0.000112475
8.74855e-06
0.000119542
1.55232e-05
0.000119429
2.51749e-05
0.000111729
3.83383e-05
9.59592e-05
5.57262e-05
7.15435e-05
7.81374e-05
3.78027e-05
0.000106461
-6.04576e-06
0.000141675
-6.08713e-05
0.000184828
-0.000127591
0.000237013
-0.000207097
0.000299311
-0.000300127
0.000372722
-0.00040705
0.000458028
-0.000527048
0.000556996
-0.000658672
-0.00077288
0.000664214
-1.09619e-07
1.96407e-05
-2.53512e-08
5.16511e-05
6.72433e-07
7.75266e-05
2.42811e-06
9.68343e-05
5.71537e-06
0.000109188
1.10465e-05
0.000114211
1.89834e-05
0.000111492
3.01502e-05
0.000100562
4.52453e-05
8.08642e-05
6.50522e-05
5.17365e-05
9.04479e-05
1.24071e-05
0.000122404
-3.80021e-05
0.000161982
-0.000100449
0.000210312
-0.000175921
0.000268553
-0.000265338
0.000337822
-0.000369396
0.000419077
-0.000488304
0.000512864
-0.000620835
0.000620412
-0.00076622
-0.000885343
0.000732875
-7.73003e-08
1.9718e-05
1.39857e-07
5.1434e-05
1.10909e-06
7.65574e-05
3.31352e-06
9.46298e-05
7.26927e-06
0.000105232
1.35356e-05
0.000107944
2.27273e-05
0.000102301
3.55282e-05
8.77615e-05
5.27039e-05
6.36886e-05
7.51117e-05
2.93287e-05
0.000103708
-1.61891e-05
0.000139547
-7.38408e-05
0.000183769
-0.000144672
0.000237581
-0.000229732
0.000302206
-0.000329963
0.000378813
-0.000446003
0.000468395
-0.000577887
0.000571444
-0.000723883
0.000687769
-0.000882545
-0.00100292
0.000805349
-4.13277e-08
1.97594e-05
3.21791e-07
5.10708e-05
1.58673e-06
7.52925e-05
4.27832e-06
9.19383e-05
8.95785e-06
0.000100553
1.62346e-05
0.000100668
2.67798e-05
9.17554e-05
4.13402e-05
7.32011e-05
6.07509e-05
4.42778e-05
8.59449e-05
4.13467e-06
0.000117957
-4.82008e-05
0.000157918
-0.000113802
0.00020704
-0.000193795
0.00026659
-0.000289282
0.00033784
-0.000401212
0.000422011
-0.000530174
0.00052025
-0.000676126
0.000633565
-0.000837199
0.000761028
-0.00101001
-0.00112484
0.000882948
-1.05955e-09
1.97604e-05
5.22512e-07
5.05473e-05
2.11033e-06
7.37046e-05
5.33129e-06
8.87173e-05
1.07946e-05
9.50896e-05
1.91628e-05
9.22994e-05
3.11661e-05
7.9752e-05
4.76171e-05
5.67501e-05
6.94223e-05
2.24727e-05
9.75892e-05
-2.40323e-05
0.000133227
-8.38383e-05
0.000177534
-0.000158109
0.000231779
-0.00024804
0.000297258
-0.000354761
0.000375254
-0.000479208
0.000466991
-0.000621911
0.000573684
-0.000782819
0.000696845
-0.000960359
0.000840016
-0.00115318
-0.00132407
0.00103924
4.41508e-08
1.97163e-05
7.44951e-07
4.98465e-05
2.68588e-06
7.17637e-05
6.4824e-06
8.49208e-05
1.27943e-05
8.87777e-05
2.234e-05
8.27537e-05
3.59118e-05
6.61803e-05
5.43896e-05
3.82723e-05
7.87514e-05
-1.88917e-06
0.000110077
-5.53579e-05
0.000149542
-0.000123303
0.000198399
-0.000206966
0.000257945
-0.000307585
0.00032947
-0.000426287
0.000414203
-0.00056394
0.000513262
-0.00072097
0.000627706
-0.000897263
0.000759017
-0.00109167
0.000909062
-0.00130322
-0.00150814
0.00109313
9.5158e-08
1.96211e-05
9.91539e-07
4.89501e-05
3.31868e-06
6.94366e-05
7.7408e-06
8.04987e-05
1.49708e-05
8.15476e-05
2.57855e-05
7.1939e-05
4.1041e-05
5.09248e-05
6.16858e-05
1.76275e-05
8.8768e-05
-2.89714e-05
0.000123434
-9.00239e-05
0.000166915
-0.000166784
0.000220498
-0.000260549
0.000285477
-0.000372564
0.000363087
-0.000503896
0.000454427
-0.00065528
0.000560393
-0.000826936
0.000681652
-0.00101852
0.000819016
-0.00122903
0.000972409
-0.00145662
-0.00168452
0.00114879
1.5261e-07
1.94685e-05
1.26493e-06
4.78378e-05
4.01434e-06
6.66872e-05
9.11594e-06
7.5397e-05
1.7338e-05
7.33256e-05
2.95178e-05
5.97592e-05
4.65767e-05
3.38658e-05
6.95314e-05
-5.32718e-06
9.94967e-05
-5.89367e-05
0.000137678
-0.000128205
0.000185347
-0.000214454
0.000243799
-0.000319002
0.000314288
-0.000443054
0.000397939
-0.000587547
0.000495649
-0.000752989
0.000607988
-0.000939275
0.000735102
-0.00114564
0.000876967
-0.0013709
0.00103227
-0.00161192
-0.00185543
0.00120318
2.1725e-07
1.92512e-05
1.56776e-06
4.64873e-05
4.77838e-06
6.34766e-05
1.0617e-05
6.95584e-05
1.99092e-05
6.40334e-05
3.35543e-05
4.61141e-05
5.25395e-05
1.48806e-05
7.79476e-05
-3.07353e-05
0.000110955
-9.1944e-05
0.000152814
-0.000170065
0.000204819
-0.000266458
0.000268244
-0.000382427
0.000344259
-0.000519069
0.000433823
-0.000677111
0.000537557
-0.000856723
0.00065563
-0.00105735
0.000787611
-0.00127762
0.000932635
-0.00151592
0.00108851
-0.0017678
-0.0020217
0.00125479
2.89807e-07
1.89614e-05
1.9026e-06
4.48745e-05
5.61611e-06
5.9763e-05
1.22526e-05
6.29219e-05
2.26967e-05
5.35894e-05
3.79105e-05
3.09003e-05
5.89464e-05
-6.15531e-06
8.69502e-05
-5.87391e-05
0.000123152
-0.000128145
0.000168836
-0.000215749
0.000225296
-0.000322918
0.000293749
-0.00045088
0.000375236
-0.000600556
0.000470491
-0.000772366
0.000579798
-0.00096603
0.000702862
-0.00118041
0.000838659
-0.00141342
0.000985543
-0.00166281
0.00114068
-0.00192294
-0.00218332
0.00130229
3.70986e-07
1.85905e-05
2.27191e-06
4.29735e-05
6.53253e-06
5.55024e-05
1.40309e-05
5.54236e-05
2.57114e-05
4.19089e-05
4.25996e-05
1.40122e-05
6.58108e-05
-2.93665e-05
9.65483e-05
-8.94767e-05
0.000136085
-0.000167682
0.00018572
-0.000265385
0.000246716
-0.000383914
0.000320198
-0.000524361
0.000407026
-0.000687385
0.000507653
-0.000872993
0.000621969
-0.00108035
0.00074918
-0.00130762
0.000887678
-0.00155191
0.00103513
-0.00181026
0.00118825
-0.00207606
-0.00233973
0.00134466
4.61449e-07
1.8129e-05
2.67796e-06
4.0757e-05
7.53217e-06
5.06482e-05
1.59588e-05
4.69969e-05
2.89627e-05
2.89049e-05
4.76316e-05
-4.65667e-06
7.31406e-05
-5.48756e-05
0.000106743
-0.000123079
0.00014974
-0.000210678
0.000203424
-0.000319069
0.000268997
-0.000449486
0.000347444
-0.000602809
0.000439398
-0.000779339
0.000544976
-0.00097857
0.00066363
-0.001199
0.000794047
-0.00143804
0.000934077
-0.00169194
0.00108082
-0.001957
0.00123071
-0.00222595
-0.00249018
0.00138116
5.61811e-07
1.75672e-05
3.12281e-06
3.8196e-05
8.61901e-06
4.5152e-05
1.80423e-05
3.75736e-05
3.24576e-05
1.44896e-05
5.3013e-05
-2.5212e-05
8.09381e-05
-8.28007e-05
0.000117526
-0.000159667
0.000164089
-0.000257242
0.000221889
-0.000376869
0.000292026
-0.000519623
0.000375306
-0.00068609
0.000472082
-0.000876114
0.000582087
-0.00108858
0.000704307
-0.00132122
0.000836915
-0.00157065
0.000977275
-0.0018323
0.00112206
-0.00210178
0.0012676
-0.00237149
-0.00263389
0.00141131
6.72621e-07
1.68946e-05
3.60825e-06
3.52604e-05
9.79639e-06
3.89639e-05
2.0286e-05
2.70841e-05
3.6201e-05
-1.42545e-06
5.87463e-05
-4.77573e-05
8.9199e-05
-0.000113253
0.000128879
-0.000199347
0.000179091
-0.000307453
0.000241031
-0.000438809
0.000315666
-0.000594258
0.000403572
-0.000773996
0.000504773
-0.000977316
0.000618585
-0.00120239
0.000743512
-0.00144615
0.00087724
-0.00170438
0.00101673
-0.00197179
0.00115838
-0.00224344
0.00129856
-0.00251167
-0.00277018
0.00143485
7.94357e-07
1.61002e-05
4.13577e-06
3.1919e-05
1.10669e-05
3.20328e-05
2.26929e-05
1.54581e-05
4.01948e-05
-1.89273e-05
6.48292e-05
-7.23917e-05
9.79117e-05
-0.000146336
0.000140773
-0.000242208
0.000194686
-0.000361366
0.00026075
-0.000504874
0.000339754
-0.000673262
0.000432
-0.000866242
0.000537143
-0.00108246
0.000654052
-0.0013193
0.000780759
-0.00157285
0.000914513
-0.00183813
0.00105197
-0.00210925
0.00118942
-0.00238088
0.00132339
-0.00264564
-0.00289854
0.00145175
9.27421e-07
1.51728e-05
4.70652e-06
2.81399e-05
1.24322e-05
2.43071e-05
2.52645e-05
2.62573e-06
4.4438e-05
-3.81008e-05
7.12549e-05
-9.92086e-05
0.000107057
-0.000182138
0.000153168
-0.00028832
0.0002108
-0.000418998
0.000280923
-0.000574997
0.000364102
-0.000756441
0.000460325
-0.000962465
0.000568841
-0.00119097
0.000688064
-0.00143852
0.000815579
-0.00170037
0.000948273
-0.00197082
0.00108261
-0.0022436
0.00121491
-0.00251318
0.00134202
-0.00277275
-0.00301865
0.00146213
1.07213e-06
1.41007e-05
5.3213e-06
2.38907e-05
1.38933e-05
1.57351e-05
2.80005e-05
-1.14815e-05
4.89267e-05
-5.90269e-05
7.80109e-05
-0.000128293
0.000116608
-0.000220735
0.000166012
-0.000337723
0.000227345
-0.000480331
0.000301407
-0.00064906
0.000388502
-0.000843536
0.000488261
-0.00106222
0.000599507
-0.00130222
0.000720206
-0.00155922
0.000847542
-0.0018277
0.000978132
-0.00210141
0.00110838
-0.00237384
0.00123476
-0.00263956
0.00135452
-0.00289251
-0.0031304
0.00146626
1.22872e-06
1.28719e-05
5.98053e-06
1.91389e-05
1.545e-05
6.26564e-06
3.08986e-05
-2.69302e-05
5.36532e-05
-8.17815e-05
8.50797e-05
-0.000159719
0.000126528
-0.000262183
0.00017924
-0.000390435
0.000244215
-0.000545306
0.000322044
-0.000726889
0.000412728
-0.00093422
0.000515512
-0.00116501
0.000628783
-0.00141549
0.000750086
-0.00168052
0.00087627
-0.00195389
0.00100379
-0.00222893
0.00112909
-0.00249914
0.00124895
-0.00275942
0.00136109
-0.00300465
-0.00323384
0.00146453
1.39733e-06
1.14746e-05
6.68424e-06
1.3852e-05
1.71012e-05
-4.15134e-06
3.39547e-05
-4.37836e-05
5.86069e-05
-0.000106434
9.24381e-05
-0.000193551
0.000136775
-0.00030652
0.000192778
-0.000446439
0.000261291
-0.000613819
0.000342658
-0.000808255
0.00043654
-0.0010281
0.000541776
-0.00127024
0.000656325
-0.00153004
0.00077735
-0.00180155
0.000901452
-0.00207799
0.00102503
-0.00235251
0.0011447
-0.00261882
0.00125762
-0.00287234
0.00136203
-0.00310906
-0.0033292
0.00145739
1.57803e-06
9.89658e-06
7.43205e-06
7.99798e-06
1.88449e-05
-1.55642e-05
3.71624e-05
-6.21011e-05
6.37731e-05
-0.000133044
0.000100057
-0.000229835
0.000147296
-0.000353759
0.000206542
-0.000505684
0.000278443
-0.000685721
0.000363062
-0.000892874
0.000459694
-0.00112473
0.000566758
-0.00137731
0.000681809
-0.00164509
0.000801691
-0.00192143
0.000922848
-0.00219915
0.00104173
-0.00247139
0.00115524
-0.00273232
0.00126098
-0.00297809
0.00135773
-0.0032058
-0.00341683
0.00144535
1.77075e-06
8.12583e-06
8.22314e-06
1.54559e-06
2.0678e-05
-2.80191e-05
4.05134e-05
-8.19365e-05
6.9134e-05
-0.000161665
0.000107903
-0.000268603
0.000158032
-0.000403889
0.000220434
-0.000568085
0.000295529
-0.000760816
0.000383063
-0.000980407
0.000481942
-0.00122361
0.000590175
-0.00148554
0.000704947
-0.00175986
0.000822858
-0.00203934
0.000940297
-0.00231659
0.00105388
-0.00258497
0.00116085
-0.00283929
0.00125933
-0.00307656
0.0013486
-0.00329507
-0.00349715
0.00142892
1.97538e-06
6.15045e-06
9.0563e-06
-5.53533e-06
2.25961e-05
-4.15588e-05
4.39975e-05
-0.000103338
7.4668e-05
-0.000192336
0.000115935
-0.00030987
0.000168917
-0.000456871
0.000234351
-0.000633519
0.0003124
-0.000838865
0.000402461
-0.00107047
0.000503044
-0.0013242
0.000611763
-0.00159426
0.000725489
-0.00187359
0.000840662
-0.00215451
0.000953719
-0.00242964
0.00106152
-0.00269278
0.00116175
-0.00293952
0.00125302
-0.00316783
0.00133511
-0.00337716
-0.00357067
0.00140863
2.19167e-06
3.95878e-06
9.92983e-06
-1.32735e-05
2.4594e-05
-5.6223e-05
4.76019e-05
-0.000126346
8.035e-05
-0.000225084
0.000124109
-0.00035363
0.000179875
-0.000512637
0.000248182
-0.000701826
0.000328899
-0.000919581
0.000421057
-0.00116263
0.00052277
-0.00142591
0.000631288
-0.00170278
0.000743234
-0.00198553
0.000854982
-0.00226626
0.000963106
-0.00253777
0.00106481
-0.00279448
0.00115821
-0.00303292
0.00124244
-0.00325207
0.00131773
-0.00345244
-0.00363791
0.00138497
2.41928e-06
1.53951e-06
1.08416e-05
-2.16958e-05
2.66652e-05
-7.20466e-05
5.13121e-05
-0.000150993
8.61515e-05
-0.000259923
0.000132375
-0.000399853
0.00019083
-0.000571091
0.000261812
-0.000772808
0.00034487
-0.00100264
0.00043866
-0.00125642