/*--------------------------------*- C++ -*----------------------------------*\
  =========                 |
  \\      /  F ield         | OpenFOAM: The Open Source CFD Toolbox
   \\    /   O peration     | Website:  https://openfoam.org
    \\  /    A nd           | Version:  7
     \\/     M anipulation  |
\*---------------------------------------------------------------------------*/
FoamFile
{
    version     2.0;
    format      ascii;
    class       volVectorField;
    location    "50";
    object      U;
}
// * * * * * * * * * * * * * * * * * * * * * * * * * * * * * * * * * * * * * //

dimensions      [0 1 -1 0 0 0 0];

internalField   nonuniform List<vector> 
34000
(
(-0.000239735 3.88928e-05 -5.178e-22)
(-0.00162493 9.68633e-05 -2.79207e-21)
(-0.00450202 0.00013196 3.42181e-22)
(-0.00834993 0.000149607 -5.96726e-22)
(-0.0129718 0.000151786 9.14502e-22)
(-0.0181859 0.00014014 -6.74822e-21)
(-0.0238215 0.000116112 1.16121e-21)
(-0.0297338 8.08986e-05 -4.58502e-21)
(-0.0358006 3.56231e-05 -9.87978e-21)
(-0.0419215 -1.85181e-05 8.46318e-21)
(-0.0480174 -8.01221e-05 2.52168e-21)
(-0.0540292 -0.000147474 -3.03238e-21)
(-0.0599172 -0.000218489 3.7316e-21)
(-0.0656599 -0.000290727 5.11699e-21)
(-0.0712525 -0.000361469 -3.2386e-21)
(-0.076705 -0.000427866 -4.38242e-21)
(-0.0820403 -0.000487121 -1.05312e-20)
(-0.0872922 -0.000536719 -8.17634e-22)
(-0.0924983 -0.000574989 -1.79624e-21)
(-0.0976946 -0.000599444 -3.50915e-21)
(-0.000254536 0.000525378 -2.53154e-21)
(-0.00166257 0.00137647 2.11987e-21)
(-0.00455565 0.00205036 -2.50196e-21)
(-0.00841391 0.00257357 -5.63229e-21)
(-0.0130409 0.00296272 4.61666e-21)
(-0.0182555 0.00323386 2.81182e-20)
(-0.0238871 0.00340257 -1.73593e-20)
(-0.0297912 0.00348363 2.95796e-21)
(-0.035846 0.00349124 1.42282e-20)
(-0.0419513 0.00343914 -5.82218e-24)
(-0.048028 0.00334069 8.47839e-21)
(-0.0540173 0.00320896 -1.12608e-20)
(-0.0598794 0.00305671 1.18229e-20)
(-0.0655931 0.00289624 -1.02021e-20)
(-0.0711536 0.00273921 -3.97412e-21)
(-0.0765712 0.00259622 2.00544e-20)
(-0.081869 0.00247645 -6.30258e-21)
(-0.0870815 0.002387 9.79546e-22)
(-0.092246 0.0023314 -1.18826e-20)
(-0.0973959 0.00231448 -1.26942e-21)
(-0.00028772 0.00100963 -1.96082e-20)
(-0.00174613 0.00265039 2.54997e-21)
(-0.00467316 0.00396045 3.93269e-21)
(-0.00855219 0.00498717 1.7304e-20)
(-0.0131882 0.00576171 -2.01924e-20)
(-0.018401 0.0063144 -3.15292e-20)
(-0.0240213 0.00667486 2.8777e-20)
(-0.0299054 0.00687138 -7.8892e-21)
(-0.035932 0.00693117 -3.97481e-21)
(-0.0420016 0.00688046 -2.01466e-20)
(-0.0480354 0.00674454 5.51801e-21)
(-0.0539748 0.00654781 1.98551e-20)
(-0.0597806 0.00631368 -4.08245e-21)
(-0.0654316 0.00606437 1.63644e-20)
(-0.0709233 0.0058205 -1.35365e-20)
(-0.0762664 0.00560053 -4.11856e-21)
(-0.0814846 0.00542007 3.23084e-20)
(-0.0866136 0.00529092 -2.01239e-21)
(-0.0916903 0.00521849 5.0803e-20)
(-0.0967427 0.00521018 -1.19601e-20)
(-0.000339088 0.00148968 3.20798e-20)
(-0.00187516 0.00391369 -1.44022e-20)
(-0.00485397 0.00585508 -1.00534e-20)
(-0.00876413 0.00738163 -7.66118e-21)
(-0.0134128 0.00853874 1.42025e-20)
(-0.018622 0.00937084 -2.67847e-21)
(-0.0242237 0.00992141 -4.81119e-20)
(-0.0300758 0.0102321 -5.10747e-21)
(-0.0360581 0.010343 -1.06218e-20)
(-0.0420719 0.0102927 -1.68778e-21)
(-0.048039 0.0101184 -1.86533e-20)
(-0.0539015 0.00985568 2.11661e-20)
(-0.0596205 0.00953869 -3.14074e-20)
(-0.065175 0.00919957 -9.61424e-22)
(-0.0705611 0.00886801 8.6065e-21)
(-0.0757901 0.00857044 -6.68588e-20)
(-0.0808865 0.00832908 -5.3985e-20)
(-0.0858876 0.00816053 2.93061e-20)
(-0.0908302 0.00807221 -3.93633e-20)
(-0.0957341 0.00807447 9.81896e-22)
(-0.000408331 0.00196364 -4.30087e-21)
(-0.00204895 0.00516155 5.69277e-20)
(-0.00509716 0.00772725 2.67629e-20)
(-0.00904875 0.00974829 -1.7481e-21)
(-0.013714 0.0112839 7.2222e-21)
(-0.0189174 0.0123924 1.10309e-21)
(-0.0244934 0.0131308 2.46328e-20)
(-0.0303016 0.0135539 2.92259e-20)
(-0.0362236 0.0137144 1.24437e-20)
(-0.0421616 0.0136632 4.41273e-20)
(-0.0480385 0.0134492 -5.09245e-20)
(-0.0537969 0.0131192 -1.07664e-20)
(-0.0593984 0.0127181 2.27056e-20)
(-0.0648227 0.0122878 -3.9605e-20)
(-0.0700663 0.0118674 1.81063e-20)
(-0.0751414 0.0114913 4.20413e-20)
(-0.0800733 0.0111888 1.01223e-20)
(-0.084902 0.0109813 1.45043e-20)
(-0.0896641 0.0108785 -2.32489e-20)
(-0.0943683 0.0108943 2.52646e-21)
(-0.00049503 0.00242966 -2.09763e-20)
(-0.00226653 0.0063893 1.34451e-20)
(-0.00540149 0.00957015 -2.18912e-20)
(-0.00940468 0.0120787 6.38382e-21)
(-0.0140902 0.0139877 1.78801e-20)
(-0.0192859 0.0153686 8.1726e-21)
(-0.0248291 0.0162918 1.54761e-20)
(-0.0305819 0.0168249 -1.08809e-20)
(-0.0364275 0.0170332 -6.73605e-20)
(-0.0422698 0.0169794 -6.0396e-20)
(-0.0480329 0.0167241 -3.93207e-20)
(-0.0536601 0.0163253 1.49228e-20)
(-0.0591137 0.0158382 -8.536e-21)
(-0.0643739 0.0153151 6.51791e-20)
(-0.0694379 0.0148042 -2.34991e-20)
(-0.0743189 0.0143486 1.92124e-20)
(-0.0790435 0.0139845 2.79914e-20)
(-0.0836549 0.0137387 -1.57554e-20)
(-0.0881896 0.0136235 1.37636e-19)
(-0.0926427 0.0136569 -5.11434e-20)
(-0.000598665 0.00288598 2.54507e-20)
(-0.00252669 0.00759246 -3.216e-20)
(-0.00576541 0.0113772 -4.94111e-20)
(-0.00983024 0.0143648 -1.30588e-20)
(-0.0145398 0.0166406 5.76523e-21)
(-0.0197259 0.0182891 8.91832e-21)
(-0.0252293 0.0193934 2.99074e-20)
(-0.030915 0.0200338 6.64298e-21)
(-0.0366684 0.0202875 2.22555e-21)
(-0.0423954 0.0202292 1.08462e-19)
(-0.0480211 0.0199307 8.16801e-20)
(-0.0534901 0.0194609 -4.90562e-20)
(-0.0587652 0.0188858 -7.24491e-21)
(-0.0638272 0.0182677 -1.95882e-20)
(-0.0686744 0.0176644 1.93933e-20)
(-0.0733207 0.0171278 -1.02792e-19)
(-0.0777947 0.0167016 -2.1525e-20)
(-0.0821432 0.0164183 -3.233e-20)
(-0.0864033 0.0162932 -7.82808e-20)
(-0.0905534 0.0163494 4.22879e-20)
(-0.000718623 0.00333097 4.25105e-21)
(-0.00282801 0.00876678 -1.56901e-20)
(-0.00618707 0.0131422 4.4607e-20)
(-0.0103234 0.0165986 -2.75237e-20)
(-0.0150607 0.0192335 -1.54319e-20)
(-0.0202353 0.0211439 2.46687e-20)
(-0.0256921 0.022425 -4.18487e-20)
(-0.0312992 0.0231693 -5.7284e-21)
(-0.0369448 0.0234657 7.97468e-20)
(-0.0425367 0.0234004 -5.11246e-20)
(-0.0480017 0.0230563 -2.1085e-20)
(-0.0532853 0.0225133 2.49433e-20)
(-0.0583512 0.0218476 -6.58965e-21)
(-0.063181 0.0211319 -3.42861e-21)
(-0.0677735 0.0204338 2.83232e-20)
(-0.0721442 0.0198142 -7.5416e-20)
(-0.0763236 0.0193253 2.63506e-20)
(-0.080363 0.0190055 -2.00454e-20)
(-0.0843006 0.0188737 -4.50663e-20)
(-0.0880953 0.0189594 1.61132e-20)
(-0.000854209 0.00376307 -1.19258e-20)
(-0.00316886 0.00990829 8.63074e-20)
(-0.00666434 0.0148592 -1.92008e-20)
(-0.0108817 0.0187727 1.18143e-20)
(-0.0156504 0.021758 8.57874e-20)
(-0.0208118 0.0239234 -5.82508e-20)
(-0.0262151 0.0253763 -2.87462e-20)
(-0.0317323 0.0262205 -5.01583e-20)
(-0.0372545 0.0265564 -5.50687e-20)
(-0.0426917 0.0264814 -3.64421e-20)
(-0.0479726 0.0260891 -4.94252e-20)
(-0.0530437 0.0254699 9.01323e-20)
(-0.0578697 0.0247107 -1.00003e-20)
(-0.0624327 0.0238943 -2.11326e-20)
(-0.0667325 0.0230984 -1.1069e-19)
(-0.070786 0.0223937 6.22105e-20)
(-0.0746258 0.0218411 1.54692e-20)
(-0.0783091 0.0214858 3.89991e-20)
(-0.0818752 0.0213511 2.64876e-20)
(-0.0852612 0.0214748 -7.03401e-20)
(-0.00100465 0.0041809 -3.7107e-20)
(-0.00354742 0.0110133 5.04221e-20)
(-0.00719483 0.0165226 2.85034e-20)
(-0.0115025 0.0208801 1.29996e-20)
(-0.0163061 0.0242056 1.09473e-20)
(-0.0214524 0.0266185 -3.91044e-20)
(-0.0267956 0.0282374 8.49012e-20)
(-0.0322115 0.029177 4.77753e-21)
(-0.0375947 0.0295489 7.91353e-20)
(-0.0428578 0.0294609 -4.63157e-20)
(-0.0479311 0.0290173 7.47669e-20)
(-0.0527627 0.0283188 -7.4278e-20)
(-0.0573178 0.0274625 -6.70874e-20)
(-0.0615792 0.0265417 5.74423e-20)
(-0.0655476 0.0256445 2.04284e-19)
(-0.0692414 0.0248518 -1.13079e-19)
(-0.0726958 0.0242342 9.32128e-20)
(-0.0759744 0.0238448 2.15482e-20)
(-0.0791191 0.0237118 -8.10771e-20)
(-0.0820417 0.0238836 6.74557e-20)
(-0.00116913 0.00458319 6.74595e-20)
(-0.0039617 0.0120784 -3.86916e-20)
(-0.00777591 0.0181273 1.32534e-20)
(-0.0121828 0.0229143 4.99659e-20)
(-0.0170246 0.0265688 -4.62103e-20)
(-0.0221539 0.0292206 9.10472e-20)
(-0.0274302 0.0309987 -1.65864e-20)
(-0.0327337 0.0320288 2.09042e-21)
(-0.0379624 0.0324325 -1.09357e-19)
(-0.0430317 0.032328 6.94023e-20)
(-0.0478741 0.0318296 1.60791e-20)
(-0.0524387 0.0310481 -2.12609e-20)
(-0.0566916 0.0300909 2.67459e-20)
(-0.0606161 0.0290614 -1.06092e-19)
(-0.0642138 0.0280586 -5.93047e-20)
(-0.0675044 0.0271745 1.25362e-19)
(-0.0705261 0.0264903 -7.02742e-20)
(-0.07335 0.0260678 -1.00697e-19)
(-0.0760216 0.0259421 1.87371e-19)
(-0.0784243 0.0261743 -2.47649e-22)
(-0.00134675 0.00496884 5.65848e-20)
(-0.00440961 0.0131006 -7.13148e-20)
(-0.00840472 0.0196687 -7.48188e-20)
(-0.0129193 0.0248691 -3.58579e-20)
(-0.0178024 0.0288401 -5.21448e-20)
(-0.0229127 0.0317212 -2.96014e-20)
(-0.0281152 0.0336515 -1.25701e-19)
(-0.0332949 0.0347663 1.55048e-20)
(-0.0383535 0.0351972 -5.38179e-20)
(-0.0432095 0.0350722 1.89185e-19)
(-0.0477972 0.0345152 -1.10377e-19)
(-0.0520672 0.0336468 6.80036e-20)
(-0.0559862 0.032584 -2.08824e-20)
(-0.0595379 0.031441 1.15367e-19)
(-0.0627246 0.0303278 9.52763e-21)
(-0.0655674 0.029348 -9.96884e-20)
(-0.0681074 0.0285949 -1.79588e-20)
(-0.0704245 0.0281406 4.37893e-21)
(-0.0725693 0.0280283 -7.69574e-21)
(-0.0743932 0.0283357 1.25937e-19)
(-0.00153661 0.00533686 -7.04284e-20)
(-0.00488889 0.0140772 -6.82247e-20)
(-0.00907822 0.0211425 2.84634e-20)
(-0.0137085 0.0267389 7.14301e-20)
(-0.0186355 0.031013 -5.19764e-21)
(-0.0237245 0.0341129 -4.96087e-20)
(-0.0288462 0.0361872 1.10721e-19)
(-0.0338906 0.0373805 -1.252e-20)
(-0.0387634 0.0378337 1.35711e-19)
(-0.043386 0.0376838 -1.51514e-19)
(-0.0476951 0.0370641 4.00953e-20)
(-0.0516425 0.0361042 4.76952e-20)
(-0.0551953 0.034931 -1.44114e-21)
(-0.0583376 0.033669 -8.10915e-22)
(-0.0610718 0.0324396 -9.17639e-20)
(-0.0634205 0.0313591 1.24865e-20)
(-0.0654279 0.0305341 1.23648e-19)
(-0.0671836 0.0300488 1.59551e-19)
(-0.0687454 0.0299569 -1.89869e-19)
(-0.0699281 0.030357 -1.2098e-19)
(-0.00173775 0.00568647 2.9548e-20)
(-0.00539723 0.0150058 4.55216e-20)
(-0.00979317 0.0225449 5.57174e-20)
(-0.0145464 0.0285187 -9.44678e-20)
(-0.0195197 0.0330811 9.96097e-20)
(-0.0245847 0.0363885 9.52397e-20)
(-0.0296183 0.038598 -3.73355e-20)
(-0.0345154 0.0398629 1.64133e-19)
(-0.0391862 0.0403329 -1.66862e-19)
(-0.0435552 0.0401535 7.42776e-20)
(-0.0475613 0.0394665 7.58617e-20)
(-0.0511573 0.0384104 -5.90562e-21)
(-0.054311 0.0371215 9.96033e-22)
(-0.057006 0.0357344 1.00415e-20)
(-0.0592449 0.0343823 -7.19081e-20)
(-0.0610514 0.0331949 7.14373e-20)
(-0.0624728 0.0322942 -3.6889e-20)
(-0.0636095 0.0317784 -8.3069e-20)
(-0.0645287 0.0317146 1.07652e-19)
(-0.0650037 0.0322279 2.2369e-20)
(-0.00194924 0.006017 -1.70249e-20)
(-0.00593223 0.0158845 2.14211e-20)
(-0.0105462 0.0238727 -4.6605e-20)
(-0.0154289 0.0302039 -6.98549e-20)
(-0.0204502 0.0350389 -7.21978e-20)
(-0.025488 0.0385414 -6.5333e-20)
(-0.0304257 0.0408765 1.06823e-19)
(-0.0351633 0.0422057 -5.42471e-20)
(-0.0396154 0.0426865 4.34697e-20)
(-0.0437098 0.0424727 4.8486e-21)
(-0.0473876 0.0417138 -1.19222e-20)
(-0.0506028 0.0405565 2.98583e-20)
(-0.053323 0.039146 -5.83238e-20)
(-0.0555317 0.0376271 3.05921e-20)
(-0.0572308 0.036145 9.90554e-20)
(-0.0584447 0.0348437 -1.45166e-19)
(-0.0592237 0.0338623 -9.3069e-20)
(-0.05968 0.033316 1.22622e-19)
(-0.0598933 0.0332885 -7.20156e-20)
(-0.0595883 0.0339385 -1.1084e-19)
(-0.0021701 0.00632796 6.2947e-20)
(-0.00649142 0.0167116 -6.46514e-20)
(-0.0113338 0.0251229 5.2504e-20)
(-0.0163516 0.0317906 8.45858e-20)
(-0.0214218 0.0368812 -1.56487e-20)
(-0.0264287 0.0405656 -5.61132e-20)
(-0.0312619 0.0430161 -1.04985e-19)
(-0.035827 0.0444015 -8.01175e-20)
(-0.0400428 0.044887 -1.61887e-19)
(-0.0438408 0.0446334 1.65319e-20)
(-0.0471641 0.0437978 -1.45428e-20)
(-0.0499677 0.0425343 -1.15844e-19)
(-0.0522191 0.0409963 1.00661e-19)
(-0.0539006 0.0393385 1.23633e-19)
(-0.0550132 0.0377181 -6.27087e-21)
(-0.0555815 0.0362947 7.60306e-20)
(-0.0556581 0.0352262 -3.85685e-20)
(-0.0553682 0.0346484 6.20052e-21)
(-0.0548077 0.0346657 1.08916e-19)
(-0.0536432 0.0354796 2.59443e-19)
(-0.00239938 0.00661897 -2.72918e-20)
(-0.0070723 0.0174858 -1.92711e-20)
(-0.0121522 0.0262931 5.41509e-20)
(-0.01731 0.0332751 -7.57868e-20)
(-0.022429 0.0386036 -1.9787e-20)
(-0.0274002 0.0424557 1.17814e-19)
(-0.0321196 0.0450104 -2.7942e-20)
(-0.0364981 0.0464436 -8.10148e-20)
(-0.0404591 0.0469272 1.31807e-19)
(-0.0439376 0.0466287 -3.54391e-20)
(-0.0468788 0.0457115 2.59357e-20)
(-0.0492385 0.0443366 1.4134e-19)
(-0.0509837 0.0426651 -1.96732e-19)
(-0.0520951 0.040861 -5.39114e-20)
(-0.0525721 0.0390936 -1.06354e-19)
(-0.0524383 0.0375387 2.16254e-19)
(-0.0517485 0.0363754 6.78137e-21)
(-0.0506412 0.0357638 1.196e-19)
(-0.0492338 0.0358343 -4.33534e-20)
(-0.0471208 0.0368422 -2.4574e-19)
(-0.00263615 0.00688981 -6.35503e-20)
(-0.00767237 0.018206 9.22142e-20)
(-0.0129976 0.0273815 1.23896e-21)
(-0.0182989 0.0346545 -9.27014e-22)
(-0.0234657 0.040202 9.68252e-20)
(-0.0283955 0.0442067 6.9881e-20)
(-0.0329904 0.046854 -2.67825e-21)
(-0.037167 0.0483261 2.10009e-19)
(-0.0408533 0.048801 8.06233e-20)
(-0.0439876 0.048452 -1.48494e-19)
(-0.0465174 0.0474485 7.00496e-21)
(-0.0483989 0.0459575 -5.05602e-21)
(-0.0495982 0.0441467 2.08402e-19)
(-0.0500939 0.0421888 -2.33552e-19)
(-0.0498828 0.0402652 6.45229e-20)
(-0.0489867 0.0385683 2.42852e-21)
(-0.0474614 0.037301 -1.65545e-19)
(-0.0454594 0.0366519 -1.72073e-19)
(-0.0431264 0.0367835 -2.07733e-20)
(-0.039964 0.0380178 2.49489e-19)
(-0.00287948 0.00714037 2.06536e-20)
(-0.00828907 0.0188716 -6.5645e-20)
(-0.0138662 0.0283862 6.36151e-20)
(-0.0193131 0.0359262 -9.53449e-20)
(-0.0245254 0.0416728 1.1866e-19)
(-0.0294066 0.0458143 -1.99015e-19)
(-0.0338651 0.0485418 -4.9251e-20)
(-0.0378228 0.0500434 -1.09781e-19)
(-0.0412126 0.0505025 -5.1843e-20)
(-0.0439761 0.050098 9.25936e-20)
(-0.0460626 0.0490038 1.89225e-19)
(-0.047429 0.0473923 -2.12419e-19)
(-0.0480399 0.0454369 -7.95001e-20)
(-0.047871 0.0433182 2.8899e-19)
(-0.0469155 0.0412288 -1.05016e-19)
(-0.0451923 0.0393786 -1.51391e-19)
(-0.0427565 0.0379964 1.92193e-19)
(-0.0397751 0.0373049 4.05315e-20)
(-0.0364327 0.0375052 3.87284e-20)
(-0.0321056 0.0390018 -1.60639e-19)
(-0.00312849 0.00737066 8.10146e-21)
(-0.00891987 0.0194821 -3.4275e-20)
(-0.0147538 0.0293062 1.11696e-19)
(-0.0203472 0.0370881 -1.44674e-19)
(-0.025601 0.0430131 -1.19571e-19)
(-0.0304248 0.0472747 7.56609e-20)
(-0.0347329 0.0500694 2.1046e-19)
(-0.038453 0.0515906 -1.33039e-19)
(-0.0415222 0.052027 3.2208e-20)
(-0.0438855 0.0515617 -6.41229e-20)
(-0.0454944 0.0503732 -2.5911e-19)
(-0.0463054 0.0486375 1.57055e-19)
(-0.0462817 0.0465331 1.26985e-19)
(-0.0453951 0.0442473 -2.25258e-19)
(-0.0436341 0.0419831 5.27906e-20)
(-0.0410134 0.0399678 2.10807e-19)
(-0.0375855 0.0384583 8.28465e-20)
(-0.0335301 0.0377168 2.91551e-20)
(-0.0290873 0.0379898 -1.70934e-19)
(-0.0234765 0.0398077 -8.28715e-20)
(-0.0033823 0.00758078 -5.58901e-20)
(-0.00956221 0.0200373 -1.02966e-19)
(-0.0156563 0.0301405 -5.93368e-20)
(-0.0213952 0.0381383 7.86342e-20)
(-0.0266849 0.0442201 -4.60291e-21)
(-0.0314405 0.0485843 1.76708e-19)
(-0.0355823 0.0514326 -1.66159e-20)
(-0.0390432 0.0529635 1.97441e-20)
(-0.041765 0.05337 1.27224e-19)
(-0.0436959 0.0528394 1.61161e-19)
(-0.0447888 0.0515534 -7.53825e-21)
(-0.0450004 0.0496912 -3.57352e-20)
(-0.0442912 0.0474349 -2.09626e-19)
(-0.0426289 0.0449769 1.57297e-19)
(-0.0399958 0.0425298 -1.39879e-20)
(-0.0364006 0.0403376 -9.42833e-20)
(-0.0318912 0.038687 -4.72308e-19)
(-0.0266563 0.0378818 1.67459e-19)
(-0.0209945 0.0382132 8.91451e-21)
(-0.0140033 0.04046 -1.02722e-19)
(-0.00364008 0.00777091 5.1692e-20)
(-0.0102135 0.020537 1.3462e-19)
(-0.0165694 0.0308885 -1.02599e-19)
(-0.0224509 0.0390755 -4.97859e-20)
(-0.0277686 0.0452917 4.15674e-20)
(-0.032443 0.0497403 -1.00517e-19)
(-0.0363999 0.0526281 -1.86909e-19)
(-0.0395775 0.0541582 1.10742e-19)
(-0.0419218 0.054528 -1.26465e-20)
(-0.043384 0.053928 -2.54788e-19)
(-0.0439185 0.0525424 4.8873e-20)
(-0.0434815 0.0505528 2.7594e-20)
(-0.0420306 0.0481433 -4.80394e-20)
(-0.0395282 0.0455104 1.26991e-19)
(-0.0359496 0.0428742 2.47555e-19)
(-0.0312955 0.0404943 -1.61278e-19)
(-0.025608 0.0386876 1.31027e-19)
(-0.019088 0.0378028 3.1978e-20)
(-0.0120538 0.0381988 1.83331e-19)
(-0.00355022 0.0409215 8.17795e-20)
(-0.00390104 0.00794132 -5.67182e-20)
(-0.0108713 0.0209816 -6.49391e-21)
(-0.0174885 0.0315498 1.45466e-19)
(-0.0235076 0.0398986 1.44525e-19)
(-0.0288433 0.046226 -2.96856e-20)
(-0.0334207 0.0507401 -1.87482e-20)
(-0.0371712 0.0536527 1.88232e-19)
(-0.0400377 0.0551716 -1.46278e-19)
(-0.0419703 0.0554979 4.46933e-20)
(-0.0429232 0.054825 1.85177e-19)
(-0.0428517 0.0533392 1.77701e-19)
(-0.0417109 0.051223 6.93837e-20)
(-0.0394554 0.0486618 3.03526e-19)
(-0.0360413 0.0458539 -4.17838e-20)
(-0.0314355 0.0430254 -3.21909e-19)
(-0.0256289 0.0404494 1.58443e-19)
(-0.0186551 0.0384731 -8.4673e-20)
(-0.0107272 0.0374967 -1.97162e-19)
(-0.00218944 0.0379703 -1.39828e-19)
(0.00802963 0.0411689 -1.39527e-19)
(-0.00416439 0.00809231 3.63712e-20)
(-0.0115329 0.0213712 7.63894e-20)
(-0.018409 0.0321243 -5.30557e-20)
(-0.0245585 0.0406067 -6.60223e-20)
(-0.0298992 0.0470213 -6.87811e-20)
(-0.0343609 0.0515814 -1.85334e-20)
(-0.0378798 0.0545039 -1.94457e-19)
(-0.0404036 0.0560009 9.9866e-20)
(-0.0418859 0.0562772 -9.19881e-20)
(-0.0422834 0.0555289 -1.5562e-19)
(-0.041552 0.0539436 5.55971e-21)
(-0.0396456 0.0517042 -3.95317e-19)
(-0.0365144 0.0489956 -3.06887e-19)
(-0.0321082 0.0460166 9.71572e-20)
(-0.0263837 0.0429965 4.91279e-20)
(-0.0193205 0.0402195 -1.05562e-19)
(-0.01094 0.0380617 4.0937e-19)
(-0.00146423 0.0369781 -6.42738e-20)
(0.00872104 0.0375212 1.74954e-19)
(0.0208661 0.0412469 1.56145e-19)
(-0.0044294 0.00822421 -4.99106e-20)
(-0.0121957 0.0217062 -1.65882e-19)
(-0.0193261 0.0326118 5.28829e-20)
(-0.0255959 0.0411991 2.98653e-21)
(-0.0309258 0.0476764 2.24878e-19)
(-0.0352495 0.0522624 -1.34359e-19)
(-0.0385079 0.0551792 7.35629e-20)
(-0.0406526 0.0566436 1.05283e-19)
(-0.0416407 0.056864 -8.28461e-21)
(-0.0414306 0.0560387 6.49929e-20)
(-0.0399785 0.0543564 1.98041e-19)
(-0.0372361 0.0519996 4.14285e-19)
(-0.0331492 0.0491519 3.32825e-20)
(-0.0276598 0.0460104 -1.83792e-19)
(-0.0207139 0.0428049 3.3431e-20)
(-0.0122778 0.0398275 3.25333e-19)
(-0.00235725 0.0374798 -2.20807e-19)
(0.00882142 0.0362723 9.34516e-22)
(0.0208167 0.0368666 1.7021e-19)
(0.0351157 0.0411869 -1.04526e-19)
(-0.00469532 0.0083374 -4.79653e-20)
(-0.012857 0.0219871 1.96495e-19)
(-0.0202345 0.0330125 -1.50043e-19)
(-0.0266118 0.0416755 -3.0675e-20)
(-0.0319117 0.0481903 -5.18331e-20)
(-0.0360713 0.0527815 -1.3494e-19)
(-0.0390356 0.0556769 1.34395e-19)
(-0.0407599 0.057098 -4.42456e-20)
(-0.0412037 0.0572569 -7.93536e-20)
(-0.0403268 0.0563541 1.30054e-19)
(-0.0380849 0.0545792 -1.50673e-19)
(-0.0344269 0.0521139 -4.8537e-20)
(-0.0292934 0.0491395 -5.40325e-21)
(-0.0226178 0.0458497 1.29079e-19)
(-0.0143347 0.0424721 -1.16835e-19)
(-0.00439525 0.0393021 -2.20664e-19)
(0.00721307 0.0367626 -6.76371e-20)
(0.020265 0.0354171 -9.79061e-20)
(0.0342495 0.0360394 -2.98892e-19)
(0.0509579 0.0410204 -8.88493e-20)
(-0.00496145 0.00843225 6.81999e-20)
(-0.0135141 0.0222143 -8.62228e-20)
(-0.021129 0.0333266 -1.0851e-19)
(-0.0275977 0.0420356 -1.02544e-19)
(-0.0328446 0.0485621 3.41415e-20)
(-0.0368097 0.0531374 1.9028e-20)
(-0.0394413 0.0559954 4.80983e-20)
(-0.0406978 0.0573625 -1.24764e-19)
(-0.0405407 0.0574548 9.67249e-20)
(-0.0389299 0.0564753 -2.89519e-19)
(-0.03582 0.0546144 -1.45296e-19)
(-0.0311562 0.0520527 2.50496e-21)
(-0.0248728 0.0489686 1.28953e-19)
(-0.0168945 0.0455513 -8.45177e-20)
(-0.00714302 0.0420233 2.15648e-19)
(0.00444576 0.0386785 -5.28148e-20)
(0.0179057 0.0359543 6.87188e-20)
(0.033018 0.0344625 2.59347e-19)
(0.0491859 0.0350856 3.43157e-20)
(0.0685882 0.0407915 1.64643e-19)
(-0.00522707 0.00850914 -1.44158e-19)
(-0.0141641 0.0223883 1.16557e-19)
(-0.0220038 0.0335543 1.30746e-19)
(-0.0285444 0.0422791 -7.62859e-20)
(-0.0337112 0.0487911 1.30359e-19)
(-0.0374463 0.0533291 1.25681e-19)
(-0.0397013 0.0561334 -2.27432e-20)
(-0.0404362 0.0574362 -4.31388e-20)
(-0.0396138 0.0574575 -1.17308e-19)
(-0.0371935 0.0564033 5.48283e-20)
(-0.0331271 0.0544649 5.32468e-21)
(-0.0273552 0.0518224 -1.44031e-19)
(-0.0198053 0.048651 1.07401e-19)
(-0.0103921 0.0451342 -8.42343e-20)
(0.000975216 0.0414872 -1.53008e-19)
(0.014377 0.0379973 -1.99797e-19)
(0.0298696 0.0351084 4.89648e-20)
(0.0472468 0.0334717 6.80786e-20)
(0.0658069 0.0340662 -6.51626e-20)
(0.0882148 0.0405599 2.71767e-19)
(-0.00549146 0.00856839 -1.14219e-19)
(-0.0148041 0.0225095 -1.07347e-19)
(-0.0228529 0.0336959 8.49547e-20)
(-0.029442 0.0424059 4.94046e-20)
(-0.0344969 0.0488769 2.03695e-20)
(-0.0379616 0.0533559 -3.71282e-20)
(-0.0397895 0.0560903 -2.60266e-20)
(-0.0399422 0.0573184 5.9766e-20)
(-0.038382 0.057265 -5.63128e-20)
(-0.0350667 0.0561394 4.52145e-19)
(-0.0299441 0.0541346 3.29884e-20)
(-0.0229491 0.0514303 -5.06736e-20)
(-0.014001 0.0481989 -3.33877e-19)
(-0.00300427 0.0446184 6.43783e-20)
(0.010145 0.0408945 -1.6511e-19)
(0.0255424 0.0373034 1.09184e-19)
(0.0432671 0.0342863 1.00108e-19)
(0.0631313 0.0325212 -3.80764e-19)
(0.0843045 0.0330588 -1.18436e-19)
(0.110053 0.0404031 -4.05393e-19)
(-0.00575388 0.00861035 5.51776e-20)
(-0.0154308 0.0225785 1.11318e-19)
(-0.0236697 0.0337517 -2.00764e-19)
(-0.0302797 0.0424161 -1.53878e-19)
(-0.0351861 0.0488193 7.82368e-20)
(-0.0383341 0.0532174 7.33117e-20)
(-0.039678 0.0558657 -1.52386e-19)
(-0.0391798 0.0570093 -1.37486e-20)
(-0.0368004 0.0568783 8.10295e-21)
(-0.0324942 0.055686 -1.36125e-19)
(-0.0262039 0.0536279 1.98303e-19)
(-0.0178566 0.0508843 1.04902e-21)
(-0.00736275 0.0476257 2.50682e-19)
(0.00538425 0.044025 1.70116e-19)
(0.0205009 0.0402779 2.85826e-20)
(0.0380966 0.0366453 3.58501e-19)
(0.0582717 0.0335563 -3.25275e-19)
(0.0808613 0.0316999 1.50739e-19)
(0.104879 0.0321584 1.1788e-19)
(0.134319 0.0404194 1.00329e-19)
(-0.00601353 0.00863528 2.66957e-19)
(-0.0160408 0.0225954 -1.88713e-19)
(-0.0244471 0.0337218 4.56061e-20)
(-0.0310459 0.0423098 1.49473e-19)
(-0.0357619 0.0486183 -1.61132e-19)
(-0.0385404 0.0529136 7.90425e-21)
(-0.0393363 0.0554599 1.22896e-19)
(-0.0381102 0.0565096 2.25787e-19)
(-0.0348205 0.0562991 3.05881e-19)
(-0.0294166 0.0550462 -2.92989e-19)
(-0.0218339 0.0529502 -1.74458e-19)
(-0.0119907 0.0501931 8.28487e-20)
(0.000213282 0.0469453 -2.38355e-19)
(0.0148959 0.0433755 1.63297e-20)
(0.0321856 0.0396702 9.28983e-20)
(0.0522028 0.0360726 7.13388e-20)
(0.075065 0.0329906 2.19241e-19)
(0.100633 0.0311069 4.58915e-20)
(0.127732 0.0314768 -1.65212e-19)
(0.161216 0.0407298 1.7711e-19)
(-0.00626957 0.0086434 -2.53397e-19)
(-0.0166305 0.0225606 1.88142e-19)
(-0.0251775 0.0336065 4.55864e-20)
(-0.0317281 0.0420871 -1.4854e-19)
(-0.0362058 0.0482741 6.28402e-20)
(-0.0385554 0.0524451 -3.04772e-20)
(-0.0387312 0.0548739 -2.2737e-20)
(-0.0366915 0.0558211 -1.90842e-19)
(-0.0323902 0.0555301 -3.00935e-19)
(-0.0257699 0.0542244 2.81576e-19)
(-0.016757 0.0521081 -1.01365e-19)
(-0.00525881 0.0493667 3.13614e-21)
(0.0088367 0.0461722 5.74967e-20)
(0.0256591 0.0426916 1.21956e-19)
(0.0453474 0.0391041 -1.47859e-20)
(0.0680295 0.0356345 -3.43292e-20)
(0.0938328 0.032663 -1.76467e-19)
(0.122641 0.030848 -1.18076e-19)
(0.153065 0.0311416 -1.11649e-19)
(0.190923 0.04148 1.76585e-19)
(-0.0065211 0.00863487 2.03873e-19)
(-0.0171959 0.0224742 -5.32024e-20)
(-0.0258526 0.033406 1.81264e-19)
(-0.0323128 0.0417484 4.39449e-20)
(-0.0364979 0.0477873 -9.70724e-20)
(-0.038352 0.0518128 1.56414e-20)
(-0.0378273 0.0541094 -2.06787e-19)
(-0.0348786 0.0549466 9.39607e-20)
(-0.0294535 0.0545755 5.10014e-20)
(-0.0214859 0.0532267 -1.87876e-20)
(-0.010891 0.05111 -2.14302e-20)
(0.00243644 0.0484165 2.53385e-20)
(0.0186218 0.0453221 -1.15041e-19)
(0.0378065 0.0419953 -2.67699e-19)
(0.0601382 0.038611 1.35759e-19)
(0.0857466 0.035378 -6.75491e-20)
(0.11476 0.0326449 -1.64472e-20)
(0.147077 0.0310306 2.85709e-19)
(0.181069 0.0312931 2.98291e-19)
(0.223574 0.0428414 -4.53041e-19)
(-0.00676707 0.00860977 -5.18164e-20)
(-0.0177325 0.0223362 -5.75727e-20)
(-0.0264634 0.0331204 -1.13658e-19)
(-0.0327849 0.0412941 8.36283e-20)
(-0.0366166 0.0471589 1.51312e-19)
(-0.0379005 0.0510187 -1.95987e-19)
(-0.0365863 0.0531693 3.13035e-19)
(-0.0326231 0.0538902 -6.12357e-20)
(-0.0259509 0.0534412 9.14028e-21)
(-0.0164924 0.0520608 -2.12242e-19)
(-0.00414992 0.0499663 -1.62219e-20)
(0.0111965 0.0473559 -1.74584e-19)
(0.0296864 0.0444123 2.34184e-19)
(0.0514728 0.041309 1.5401e-19)
(0.0767094 0.0382214 -3.00739e-19)
(0.105522 0.0353463 -2.55773e-19)
(0.138026 0.0330026 5.89392e-20)
(0.174114 0.0317581 3.42379e-19)
(0.21192 0.0320814 1.57676e-19)
(0.259237 0.045011 8.63283e-20)
(-0.00700634 0.00856809 1.65513e-20)
(-0.0182356 0.0221465 5.57464e-20)
(-0.0269998 0.0327498 6.74599e-20)
(-0.0331284 0.0407247 -5.6069e-20)
(-0.0365384 0.0463904 1.40908e-19)
(-0.0371694 0.0500652 1.88737e-19)
(-0.0349669 0.0520576 3.10738e-21)
(-0.0298734 0.0526578 -2.43658e-19)
(-0.0218188 0.0521352 -1.94614e-19)
(-0.0107132 0.0507372 2.03607e-19)
(0.00355643 0.0486901 -2.72842e-19)
(0.021126 0.0462012 -3.06318e-19)
(0.04215 0.0434625 -3.06503e-20)
(0.0667924 0.0406564 -1.60607e-20)
(0.0952094 0.0379642 1.06205e-19)
(0.127514 0.0355779 6.96154e-20)
(0.163797 0.0337939 9.01783e-20)
(0.203906 0.0331215 -4.23269e-19)
(0.245784 0.0336616 -1.16085e-19)
(0.297891 0.0482014 3.03062e-19)
(-0.00723758 0.00850974 -9.70737e-20)
(-0.0186996 0.021905 9.55533e-20)
(-0.027451 0.0322944 -7.02179e-20)
(-0.0333257 0.0400413 -3.50115e-20)
(-0.0362381 0.0454836 -9.51264e-20)
(-0.0361245 0.0489559 -7.21065e-20)
(-0.0329252 0.0507797 -1.28935e-19)
(-0.0265745 0.0512571 2.13035e-19)
(-0.0169904 0.0506678 8.44803e-20)
(-0.00406837 0.0492693 -2.08025e-19)
(0.0123213 0.0472981 3.25182e-19)
(0.0323317 0.0449723 1.66643e-19)
(0.0561326 0.0424958 -1.26103e-19)
(0.0838968 0.0400634 -1.76429e-19)
(0.115779 0.0378683 -2.25492e-20)
(0.151869 0.036106 1.81128e-19)
(0.19222 0.0350654 -1.20414e-19)
(0.236578 0.0351909 4.60051e-20)
(0.282812 0.0361859 1.03117e-19)
(0.339407 0.0526204 2.5365e-19)
(-0.00745927 0.00843451 -9.77522e-21)
(-0.0191185 0.0216112 -2.36209e-19)
(-0.0278049 0.0317542 5.77822e-20)
(-0.0333576 0.0392448 1.2783e-19)
(-0.0356882 0.0444413 -2.35807e-20)
(-0.0347291 0.0476953 -1.54883e-19)
(-0.0304143 0.0493427 1.70739e-19)
(-0.0226681 0.0496981 1.95224e-19)
(-0.0113953 0.0490524 7.46205e-20)
(0.00352505 0.0476741 3.70193e-19)
(0.0222404 0.045811 -1.71948e-19)
(0.0449215 0.0436936 8.21791e-20)
(0.071752 0.0415394 -8.50666e-20)
(0.102911 0.0395591 2.03952e-19)
(0.138545 0.0379625 -1.79709e-20)
(0.178714 0.0369589 -4.67834e-20)
(0.223415 0.0368514 -7.46378e-20)
(0.272212 0.0380077 1.17045e-19)
(0.32313 0.0398202 -2.94119e-19)
(0.383489 0.0584994 -3.91714e-19)
(-0.00766965 0.0083421 -5.66547e-20)
(-0.0194856 0.0212647 -2.14019e-20)
(-0.0280485 0.0311295 -1.91278e-19)
(-0.0332033 0.0383367 1.17083e-19)
(-0.0348592 0.0432667 -1.19568e-19)
(-0.0329439 0.0462892 -1.21355e-19)
(-0.0273841 0.0477555 -1.0855e-20)
(-0.0180927 0.0479932 -1.97055e-19)
(-0.00495976 0.0473054 -3.12654e-19)
(0.0121529 0.0459725 8.55679e-20)
(0.0334112 0.0442543 9.55712e-20)
(0.0590024 0.0423947 1.15049e-19)
(0.0891216 0.0406262 2.93407e-19)
(0.12395 0.0391766 -2.88319e-20)
(0.163619 0.0382768 -6.32284e-20)
(0.208148 0.0381588 -8.65991e-21)
(0.257468 0.0391678 1.58663e-19)
(0.310856 0.0415765 2.80903e-19)
(0.366808 0.0448223 -7.85163e-20)
(0.429476 0.0662328 2.81693e-19)
(-0.00786674 0.0082321 1.78738e-19)
(-0.0197933 0.0208647 -2.93909e-20)
(-0.0281671 0.0304204 1.69471e-19)
(-0.0328404 0.0373188 -1.7361e-19)
(-0.0337195 0.041964 2.56155e-19)
(-0.0307272 0.044745 2.14041e-19)
(-0.0237818 0.046029 -1.75812e-19)
(-0.0127838 0.0461577 -3.26588e-19)
(0.0023925 0.045447 5.40604e-19)
(0.0219031 0.0441898 1.3342e-19)
(0.0459314 0.0426588 -1.03577e-19)
(0.0746788 0.0411112 -1.02298e-19)
(0.108347 0.0397948 -5.07639e-20)
(0.147113 0.0389546 -7.95522e-20)
(0.191086 0.0388426 -2.62681e-19)
(0.240235 0.039719 -7.12453e-20)
(0.294431 0.0419953 5.94986e-21)
(0.352589 0.0458392 -1.92723e-19)
(0.414021 0.0515549 9.53271e-20)
(0.476382 0.076073 -2.03106e-19)
(-0.00804819 0.008104 -2.86101e-19)
(-0.0200333 0.0204107 1.92301e-19)
(-0.0281449 0.0296271 -2.86752e-19)
(-0.0322443 0.0361934 -1.56282e-19)
(-0.032235 0.0405382 5.832e-20)
(-0.0280345 0.0430711 -2.31866e-19)
(-0.0195518 0.0441761 3.62869e-19)
(-0.00667427 0.0442095 5.90439e-21)
(0.0107401 0.043501 -2.00956e-19)
(0.0328645 0.0423561 -1.75523e-19)
(0.0598974 0.0410606 -3.12982e-19)
(0.0920502 0.0398852 -3.94784e-21)
(0.129524 0.0390911 1.15013e-20)
(0.172481 0.038938 -7.15757e-20)
(0.220995 0.0396944 3.17134e-19)
(0.274982 0.0416425 1.95362e-19)
(0.334275 0.045262 4.84856e-20)
(0.397516 0.0506225 -2.08859e-19)
(0.465432 0.0600042 -1.16326e-20)
(0.52502 0.0858091 -3.37959e-19)
(-0.00821134 0.0079572 1.01634e-19)
(-0.0201964 0.0199019 -1.93394e-19)
(-0.0279648 0.0287502 2.48202e-19)
(-0.0313888 0.0349631 3.48622e-19)
(-0.0303696 0.0389954 -1.13422e-19)
(-0.0248189 0.041278 1.44268e-20)
(-0.0146359 0.0422122 -3.06629e-19)
(0.000305519 0.04217 -7.65234e-20)
(0.0201633 0.0414949 -2.36591e-19)
(0.0451257 0.040506 3.07955e-19)
(0.0754029 0.0395017 2.84682e-19)
(0.111209 0.0387651 -5.06498e-20)
(0.152733 0.0385683 -3.78611e-20)
(0.200106 0.0391799 -3.23195e-21)
(0.253351 0.0408749 5.71677e-20)
(0.312311 0.0439355 -1.0239e-19)
(0.376793 0.0488747 -1.18518e-19)
(0.445339 0.0556164 2.50916e-19)
(0.521041 0.0688032 -8.09751e-20)
(0.581983 0.0888545 4.68014e-21)
(-0.00835316 0.00779103 2.69321e-20)
(-0.0202721 0.0193374 3.86992e-20)
(-0.0276079 0.0277904 -1.30266e-19)
(-0.0302458 0.0336315 -3.60323e-19)
(-0.0280848 0.0373428 5.81569e-20)
(-0.0210311 0.0393774 1.76318e-19)
(-0.00897376 0.0401549 8.02322e-20)
(0.00822667 0.0400632 3.44017e-19)
(0.0307425 0.0394605 -2.15983e-19)
(0.0587742 0.0386791 -2.79833e-19)
(0.0925366 0.0380298 -5.10959e-20)