/*--------------------------------*- C++ -*----------------------------------*\
  =========                 |
  \\      /  F ield         | OpenFOAM: The Open Source CFD Toolbox
   \\    /   O peration     | Website:  https://openfoam.org
    \\  /    A nd           | Version:  7
     \\/     M anipulation  |
\*---------------------------------------------------------------------------*/
FoamFile
{
    version     2.0;
    format      ascii;
    class       volScalarField;
    location    "30";
    object      p;
}
// * * * * * * * * * * * * * * * * * * * * * * * * * * * * * * * * * * * * * //

dimensions      [0 2 -2 0 0 0 0];

internalField   nonuniform List<scalar> 
8500
(
0.0844294
0.0876508
0.0943099
0.0914246
0.0980691
0.104207
0.0959661
0.102426
0.108532
0.114079
0.107637
0.1135
0.119026
0.123894
0.112951
0.119391
0.124639
0.129547
0.133625
0.118346
0.12545
0.131219
0.135846
0.140089
0.143162
0.131622
0.138031
0.143123
0.14714
0.15061
0.152224
0.137876
0.144978
0.150688
0.155121
0.158568
0.161083
0.160599
0.152026
0.158397
0.163411
0.167224
0.170151
0.171595
0.169072
0.159139
0.166223
0.171858
0.176182
0.179403
0.181784
0.182115
0.1804
0.16627
0.174149
0.180444
0.185336
0.188972
0.191585
0.193366
0.19307
0.192142
0.182136
0.189167
0.194664
0.198809
0.201753
0.203739
0.204899
0.204096
0.203273
0.190128
0.197992
0.204168
0.208861
0.212252
0.214499
0.215843
0.216384
0.215101
0.214082
0.206864
0.213813
0.219126
0.22301
0.225643
0.227186
0.227877
0.227796
0.226019
0.224663
0.215718
0.223543
0.229571
0.234017
0.237087
0.238958
0.239792
0.239821
0.239115
0.236819
0.235047
0.233291
0.240136
0.245239
0.248816
0.251069
0.252175
0.252296
0.251658
0.250319
0.247487
0.245254
0.250752
0.256614
0.260791
0.263496
0.264932
0.265272
0.264677
0.263367
0.261393
0.258011
0.255291
0.26135
0.268069
0.272949
0.2762
0.278035
0.278653
0.278227
0.276916
0.274934
0.272321
0.268382
0.265157
0.279528
0.285212
0.289112
0.29144
0.292407
0.292211
0.291021
0.288995
0.286339
0.283088
0.278589
0.274848
0.29095
0.297498
0.30215
0.305075
0.306484
0.306588
0.305582
0.303632
0.300894
0.297568
0.29368
0.288623
0.28436
0.309753
0.315226
0.318854
0.32081
0.321308
0.320555
0.318745
0.316041
0.312596
0.308604
0.304084
0.298471
0.293682
0.328274
0.33268
0.335292
0.33629
0.335885
0.334285
0.331679
0.328228
0.324083
0.31943
0.314285
0.308124
0.302806
0.341304
0.346477
0.349829
0.351437
0.351487
0.35019
0.347753
0.344362
0.340174
0.335337
0.330033
0.32427
0.317567
0.311723
0.360236
0.36433
0.36664
0.367259
0.366375
0.3642
0.360939
0.356773
0.35186
0.346342
0.340395
0.334025
0.32679
0.320421
0.378768
0.381798
0.383083
0.382729
0.380927
0.37789
0.373819
0.368893
0.363267
0.357081
0.350502
0.343537
0.335781
0.328891
0.393252
0.396864
0.398849
0.399128
0.397819
0.395118
0.391236
0.386372
0.380702
0.374377
0.367536
0.360339
0.352791
0.344526
0.337121
0.411918
0.414489
0.41545
0.414746
0.412504
0.408924
0.404216
0.398576
0.392179
0.385172
0.377691
0.369891
0.361775
0.353014
0.345101
0.430056
0.431611
0.431571
0.429907
0.426755
0.422319
0.416806
0.410411
0.403306
0.395635
0.387531
0.379143
0.370476
0.361232
0.352821
0.447631
0.448195
0.447181
0.444583
0.440548
0.435279
0.428985
0.421858
0.414065
0.405749
0.397041
0.388082
0.378879
0.369168
0.360269
0.463737
0.46461
0.464209
0.462252
0.458749
0.453857
0.447783
0.440732
0.432895
0.424437
0.415497
0.406204
0.396693
0.386973
0.376812
0.367436
0.480998
0.480957
0.479624
0.476754
0.472377
0.466659
0.459807
0.452027
0.443505
0.434405
0.424864
0.415006
0.404963
0.394745
0.38415
0.374312
0.497566
0.496641
0.49441
0.49066
0.485443
0.47893
0.471331
0.462849
0.453669
0.443952
0.433833
0.423434
0.412879
0.402184
0.391172
0.380887
0.513406
0.511632
0.508537
0.503945
0.497922
0.490648
0.482333
0.47318
0.46337
0.453063
0.442391
0.431473
0.420429
0.409277
0.397868
0.387151
0.528486
0.525899
0.52198
0.516582
0.509792
0.501792
0.492795
0.483001
0.472592
0.461722
0.450523
0.43911
0.4276
0.416014
0.404227
0.393096
0.545317
0.542776
0.539415
0.534712
0.52855
0.52103
0.512342
0.502697
0.492296
0.481317
0.469914
0.458214
0.446333
0.434382
0.422384
0.410239
0.398713
0.559467
0.556247
0.552153
0.546708
0.539824
0.531616
0.522277
0.512021
0.501047
0.489531
0.477625
0.465454
0.453131
0.440762
0.428377
0.415894
0.403993
0.572732
0.568873
0.564089
0.557947
0.550385
0.54153
0.531581
0.520752
0.50924
0.49722
0.484842
0.472229
0.459491
0.446732
0.433983
0.421184
0.40893
0.585085
0.580627
0.575198
0.568406
0.560211
0.550753
0.540236
0.528873
0.51686
0.504371
0.491552
0.478528
0.465404
0.452281
0.439194
0.426101
0.413516
0.5965
0.591486
0.58546
0.578065
0.569285
0.55927
0.548226
0.536369
0.523894
0.510971
0.497745
0.48434
0.47086
0.4574
0.444001
0.430636
0.417744
0.606953
0.601428
0.594854
0.586906
0.577589
0.567063
0.555538
0.543228
0.530328
0.517008
0.50341
0.489656
0.475849
0.462081
0.448396
0.434783
0.421608
0.616424
0.610434
0.603361
0.594912
0.585108
0.574119
0.562157
0.549437
0.536152
0.522471
0.508536
0.494466
0.480363
0.466316
0.452372
0.438534
0.425102
0.624891
0.618485
0.610966
0.602067
0.591828
0.580424
0.568071
0.554984
0.541356
0.527353
0.513116
0.498763
0.484395
0.470098
0.455923
0.441884
0.428222
0.632339
0.625565
0.617653
0.608358
0.597736
0.585967
0.57327
0.55986
0.545929
0.531643
0.51714
0.502539
0.487938
0.473421
0.459043
0.444827
0.430961
0.645099
0.638752
0.63166
0.623409
0.613773
0.60282
0.590737
0.577744
0.564056
0.549865
0.535334
0.520603
0.505788
0.490986
0.47628
0.461727
0.447359
0.433317
0.650685
0.644116
0.636758
0.628223
0.618302
0.607072
0.594726
0.581485
0.567565
0.553155
0.53842
0.523498
0.508503
0.493534
0.47867
0.46397
0.449475
0.435286
0.655169
0.64842
0.640849
0.632085
0.621935
0.610483
0.597926
0.584486
0.570379
0.555795
0.540895
0.525819
0.510681
0.495577
0.480586
0.46577
0.451172
0.436864
0.65854
0.651656
0.643925
0.634989
0.624666
0.613048
0.600331
0.586742
0.572494
0.557778
0.542756
0.527564
0.512318
0.497113
0.482026
0.467121
0.452447
0.43805
0.660791
0.653818
0.645978
0.636928
0.62649
0.61476
0.601937
0.588248
0.573907
0.559103
0.543998
0.528729
0.513411
0.498138
0.482988
0.468024
0.453298
0.438842
0.661918
0.654899
0.647006
0.637898
0.627403
0.615617
0.602741
0.589002
0.574614
0.559766
0.54462
0.529313
0.513958
0.498651
0.483469
0.468476
0.453724
0.439238
0.661919
0.6549
0.647007
0.637898
0.627403
0.615617
0.602741
0.589002
0.574614
0.559766
0.54462
0.529313
0.513958
0.498651
0.483469
0.468476
0.453725
0.439238
0.660792
0.653818
0.645979
0.636928
0.626491
0.61476
0.601938
0.588249
0.573907
0.559103
0.543998
0.52873
0.513412
0.498138
0.482988
0.468024
0.453299
0.438842
0.658541
0.651657
0.643926
0.63499
0.624667
0.613048
0.600332
0.586743
0.572495
0.557779
0.542757
0.527565
0.512319
0.497113
0.482027
0.467122
0.452448
0.438051
0.65517
0.648422
0.640851
0.632086
0.621936
0.610485
0.597927
0.584487
0.57038
0.555796
0.540897
0.52582
0.510682
0.495578
0.480587
0.46577
0.451173
0.436865
0.650687
0.644117
0.63676
0.628224
0.618304
0.607074
0.594727
0.581487
0.567566
0.553157
0.538421
0.523499
0.508505
0.493535
0.478671
0.463972
0.449476
0.435287
0.645101
0.638754
0.631662
0.623411
0.613775
0.602822
0.590739
0.577746
0.564058
0.549867
0.535336
0.520604
0.505789
0.490987
0.476281
0.461729
0.44736
0.433318
0.632342
0.625567
0.617655
0.608361
0.597738
0.585969
0.573272
0.559862
0.545931
0.531645
0.517142
0.502541
0.48794
0.473423
0.459045
0.444829
0.430963
0.624894
0.618488
0.610969
0.60207
0.591831
0.580426
0.568074
0.554987
0.541358
0.527355
0.513118
0.498765
0.484397
0.4701
0.455925
0.441886
0.428223
0.616427
0.610437
0.603364
0.594915
0.585111
0.574122
0.56216
0.549439
0.536155
0.522474
0.508539
0.494469
0.480365
0.466318
0.452375
0.438536
0.425105
0.606957
0.601432
0.594857
0.586909
0.577593
0.567066
0.555541
0.543231
0.530331
0.51701
0.503413
0.489659
0.475851
0.462083
0.448398
0.434785
0.421611
0.596504
0.59149
0.585464
0.578069
0.569289
0.559273
0.54823
0.536373
0.523897
0.510974
0.497748
0.484343
0.470863
0.457403
0.444004
0.430639
0.417747
0.58509
0.580631
0.575203
0.56841
0.560215
0.550757
0.54024
0.528876
0.516864
0.504375
0.491556
0.478531
0.465407
0.452284
0.439197
0.426104
0.413519
0.572737
0.568878
0.564094
0.557951
0.550389
0.541534
0.531585
0.520756
0.509244
0.497224
0.484845
0.472233
0.459495
0.446735
0.433987
0.421188
0.408933
0.559472
0.556253
0.552159
0.546713
0.539829
0.53162
0.522282
0.512026
0.501051
0.489535
0.477629
0.465458
0.453135
0.440766
0.428381
0.415898
0.403997
0.545322
0.542782
0.539421
0.534717
0.528555
0.521035
0.512346
0.502701
0.4923
0.481321
0.469918
0.458219
0.446338
0.434386
0.422388
0.410242
0.398716
0.528492
0.525905
0.521985
0.516588
0.509797
0.501797
0.4928
0.483006
0.472596
0.461726
0.450527
0.439114
0.427604
0.416018
0.404231
0.3931
0.513412
0.511638
0.508543
0.50395
0.497928
0.490654
0.482339
0.473185
0.463376
0.453068
0.442396
0.431477
0.420433
0.409281
0.397872
0.387155
0.497573
0.496648
0.494416
0.490666
0.485449
0.478936
0.471337
0.462855
0.453675
0.443958
0.433839
0.423439
0.412884
0.402188
0.391177
0.380891
0.481006
0.480964
0.479631
0.47676
0.472384
0.466666
0.459813
0.452033
0.443511
0.43441
0.424869
0.415011
0.404968
0.39475
0.384155
0.374316
0.463744
0.464617
0.464217
0.462259
0.458756
0.453864
0.447789
0.440739
0.432901
0.424443
0.415503
0.406209
0.396698
0.386978
0.376817
0.367441
0.447639
0.448202
0.447189
0.444591
0.440555
0.435286
0.428992
0.421864
0.414071
0.405755
0.397046
0.388087
0.378884
0.369174
0.360274
0.430064
0.431619
0.431579
0.429914
0.426763
0.422326
0.416813
0.410418
0.403313
0.395642
0.387538
0.379149
0.370481
0.361237
0.352826
0.411926
0.414498
0.415458
0.414754
0.412512
0.408931
0.404223
0.398583
0.392186
0.385179
0.377698
0.369897
0.361781
0.35302
0.345107
0.396873
0.398857
0.399137
0.397828
0.395126
0.391244
0.386379
0.380709
0.374384
0.367542
0.360345
0.352798
0.344532
0.337127
0.378777
0.381807
0.383092
0.382737
0.380935
0.377898
0.373827
0.368901
0.363274
0.357088
0.350509
0.343544
0.335787
0.328897
0.360246
0.364339
0.366649
0.367268
0.366383
0.364209
0.360947
0.356781
0.351868
0.34635
0.340402
0.334032
0.326797
0.320428
0.341314
0.346487
0.349838
0.351446
0.351496
0.350199
0.347762
0.34437
0.340182
0.335345
0.33004
0.324278
0.317574
0.311729
0.328284
0.33269
0.335302
0.336299
0.335894
0.334294
0.331687
0.328237
0.324091
0.319438
0.314293
0.308131
0.302813
0.309764
0.315236
0.318864
0.32082
0.321317
0.320565
0.318754
0.31605
0.312604
0.308612
0.304092
0.298479
0.293689
0.290962
0.297509
0.302161
0.305085
0.306494
0.306598
0.305591
0.303641
0.300903
0.297576
0.293689
0.288631
0.284367
0.27954
0.285223
0.289123
0.29145
0.292417
0.29222
0.29103
0.289004
0.286348
0.283097
0.278597
0.274856
0.261362
0.26808
0.27296
0.276211
0.278045
0.278663
0.278237
0.276926
0.274943
0.27233
0.26839
0.265165
0.250764
0.256626
0.260802
0.263507
0.264942
0.265282
0.264687
0.263377
0.261402
0.25802
0.255299
0.233303
0.240148
0.245251
0.248827
0.251079
0.252186
0.252306
0.251667
0.250329
0.247496
0.245263
0.223555
0.229583
0.234029
0.237098
0.238969
0.239803
0.239832
0.239124
0.236829
0.235056
0.206877
0.213825
0.219138
0.223022
0.225654
0.227197
0.227887
0.227806
0.226029
0.224672
0.190141
0.198005
0.20418
0.208873
0.212264
0.21451
0.215854
0.216394
0.215111
0.214091
0.182149
0.18918
0.194677
0.198821
0.201764
0.20375
0.20491
0.204106
0.203282
0.174162
0.180456
0.185348
0.188983
0.191597
0.193377
0.19308
0.192153
0.159152
0.166236
0.17187
0.176194
0.179414
0.181795
0.182126
0.180411
0.152039
0.158411
0.163424
0.167236
0.170163
0.171607
0.169083
0.13789
0.144992
0.150701
0.155133
0.15858
0.161094
0.16061
0.131636
0.138045
0.143136
0.147152
0.150622
0.152235
0.11836
0.125464
0.131232
0.135859
0.140101
0.143174
0.112965
0.119405
0.124652
0.12956
0.133637
0.107651
0.113513
0.119039
0.123907
0.10244
0.108546
0.114092
0.0914387
0.0980826
0.10422
0.0876646
0.0943231
0.0844428
0.161962
0.153526
0.144589
0.135979
0.127085
0.117906
0.108681
0.0994837
0.0903104
0.0811831
0.0721341
0.150753
0.142191
0.132151
0.123399
0.115065
0.106531
0.0979683
0.0895508
0.081272
0.0731017
0.0650444
0.137877
0.129624
0.120012
0.111915
0.104533
0.0970318
0.089452
0.0819986
0.0746949
0.0674953
0.0603853
0.125322
0.117748
0.109093
0.101858
0.0953267
0.0886959
0.081956
0.0753031
0.0687842
0.0623621
0.0560174
0.114286
0.107487
0.0998
0.0933484
0.0875184
0.081607
0.0755903
0.0696409
0.0638111
0.0580721
0.0524038
0.104679
0.0985537
0.0917115
0.0859348
0.080695
0.0753923
0.0700008
0.0646668
0.0594381
0.0542916
0.0492086
0.0962217
0.0906809
0.0845863
0.079416
0.0747026
0.0699382
0.0651011
0.060314
0.0556179
0.0509937
0.0464248
0.0887503
0.0837348
0.0783032
0.0736742
0.0694292
0.0651391
0.0607887
0.0564815
0.052252
0.0480839
0.0439631
0.0821471
0.0776053
0.0727566
0.0686038
0.0647722
0.0608991
0.0569754
0.0530892
0.0492688
0.0455006
0.0417724
0.0762985
0.0721807
0.0678418
0.0641065
0.060639
0.057133
0.0535842
0.0500677
0.046607
0.0431901
0.0398068
0.0711005
0.067361
0.063468
0.0600991
0.0569532
0.0537712
0.0505527
0.0473619
0.0442181
0.041111
0.0380319
0.0664644
0.0630625
0.0595599
0.0565131
0.0536518
0.0507565
0.0478297
0.0449265
0.0420628
0.0392297
0.0364197
0.062315
0.0592144
0.0560544
0.0532913
0.0506824
0.0480413
0.0453729
0.0427245
0.0401092
0.0375192
0.0349483
0.0585884
0.0557573
0.0528984
0.0503857
0.0480012
0.0455863
0.0431474
0.0407254
0.0383311
0.0359576
0.0335997
0.0552304
0.0526405
0.0500469
0.0477561
0.0455716
0.0433585
0.0411242
0.038904
0.0367069
0.0345269
0.0323596
0.0521951
0.0498213
0.0474623
0.0453685
0.0433629
0.0413303
0.0392789
0.0372393
0.0352189
0.0332125
0.0312162
0.0494431
0.0472636
0.0451127
0.0431943
0.0413492
0.0394787
0.0375914
0.0357139
0.0338522
0.032002
0.0301599
0.0469413
0.0449367
0.0429709
0.0412095
0.0395087
0.0377842
0.0360445
0.0343129
0.0325945
0.0308852
0.0291824
0.0446612
0.0428145
0.0410139
0.0393933
0.0378228
0.0362301
0.0346237
0.0330239
0.031435
0.0298534
0.0282769
0.0425785
0.0408747
0.039222
0.0377281
0.0362756
0.0348022
0.0333165
0.0318361
0.0303647
0.0288991
0.0274374
0.0406722
0.039098
0.0375782
0.0361986
0.0348531
0.0334881
0.032112
0.0307401
0.0293756
0.0280157
0.0266586
0.0389241
0.0374678
0.0360677
0.0347916
0.0335435
0.0322772
0.0310009
0.0297279
0.0284608
0.0271974
0.025936
0.0373184
0.0359696
0.0346777
0.0334954
0.0323363
0.0311601
0.0299748
0.0287921
0.0276142
0.026439
0.0252653
0.0358413
0.0345906
0.0333967
0.0323
0.0312221
0.0301284
0.0290264
0.0279263
0.0268302
0.025736
0.0246428
0.0344805
0.0333198
0.0322149
0.0311962
0.0301928
0.0291748
0.0281491
0.0271249
0.0261038
0.0250841
0.0240649
0.0332253
0.0321472
0.0311233
0.0301759
0.029241
0.0282925
0.027337
0.0263826
0.0254306
0.0244795
0.0235286
0.0320662
0.031064
0.030114
0.029232
0.0283601
0.0274756
0.0265847
0.0256946
0.0248063
0.0239186
0.0230307
0.0309945
0.0300622
0.0291799
0.0283579
0.027544
0.0267187
0.0258874
0.0250566
0.0242271
0.023398
0.0225685
0.0300025
0.0291347
0.0283144
0.0275478
0.0267875
0.0260168
0.0252406
0.0244646
0.0236896
0.0229147
0.0221393
0.0290833
0.0282753
0.0275119
0.0267962
0.0260856
0.0253654
0.0246402
0.023915
0.0231905
0.0224659
0.0217406
0.0282306
0.0274779
0.0267669
0.0260983
0.0254338
0.0247604
0.0240825
0.0234044
0.0227268
0.0220488
0.0213702
0.0274389
0.0267374
0.0260747
0.0254497
0.0248279
0.024198
0.023564
0.0229297
0.0222956
0.0216611
0.0210258
0.0267029
0.026049
0.0254309
0.0248462
0.0242642
0.0236748
0.0230815
0.0224878
0.0218943
0.0213002
0.0207054
0.0260181
0.0254084
0.0248315
0.0242843
0.0237392
0.0231874
0.0226321
0.0220763
0.0215205
0.0209641
0.0204069
0.0253801
0.0248115
0.0242728
0.0237604
0.0232497
0.022733
0.022213
0.0216925
0.0211719
0.0206506
0.0201286
0.0247851
0.0242548
0.0237516
0.0232716
0.0227929
0.0223089
0.0218219
0.0213343
0.0208465
0.020358
0.0242297
0.023735
0.0232647
0.0228149
0.0223662
0.0219126
0.0214563
0.0209995
0.0205423
0.0200845
0.0237107
0.0232492
0.0228095
0.0223878
0.021967
0.0215419
0.0211144
0.0206862
0.0202576
0.0198284
0.0232253
0.0227947
0.0223834
0.021988
0.0215933
0.0211948
0.020794
0.0203926
0.0199908
0.0195884
0.0227709
0.0223692
0.0219843
0.0216134
0.0212431
0.0208695
0.0204937
0.0201173
0.0197405
0.0193631
0.0223454
0.0219704
0.0216102
0.0212622
0.0209147
0.0205642
0.0202118
0.0198588
0.0195053
0.0191513
0.0219466
0.0215966
0.0212593
0.0209327
0.0206065
0.0202776
0.019947
0.0196158
0.0192842
0.018952
0.0215728
0.021246
0.0209301
0.0206234
0.0203171
0.0200084
0.0196982
0.0193873
0.0190761
0.0187642
0.0212225
0.0209172
0.0206212
0.0203331
0.0200453
0.0197555
0.0194642
0.0191724
0.0188801
0.0185873
0.0208943
0.0206091
0.0203316
0.0200607
0.0197902
0.0195179
0.0192443
0.0189702
0.0186956
0.0184204
0.0205873
0.0203205
0.0200601
0.0198054
0.019551
0.0192949
0.0190378
0.01878
0.0185219
0.0182632
0.0203004
0.0200507
0.0198062
0.0195664
0.0193269
0.0190859
0.018844
0.0186015
0.0183585
0.0181151
0.0200329
0.0197989
0.0195691
0.0193432
0.0191174
0.0188904
0.0186625
0.0184341
0.0182052
0.0179759
0.0197844
0.0195648
0.0193484
0.0191353
0.0189222
0.0187081
0.0184931
0.0182777
0.0180618
0.0178455
0.0195545
0.019348
0.0191439
0.0189425
0.018741
0.0185387
0.0183356
0.018132
0.017928
0.0177236
0.019343
0.0191483
0.0189555
0.0187647
0.0185739
0.0183822
0.0181899
0.0179971
0.017804
0.0176104
0.0191499
0.0189659
0.0187831
0.0186019
0.0184207
0.0182387
0.0180561
0.0178731
0.0176897
0.0175059
0.0189754
0.0188008
0.0186271
0.0184545
0.0182818
0.0181084
0.0179345
0.0177602
0.0175856
0.0174105
0.0188196
0.0186533
0.0184875
0.0183225
0.0181573
0.0179915
0.0178253
0.0176586
0.0174916
0.0173243
0.0186834
0.0185242
0.0183652
0.0182066
0.0180479
0.0178887
0.0177291
0.017569
0.0174087
0.017248
0.0185669
0.0184135
0.0182602
0.018107
0.0179537
0.0178
0.0176458
0.0174914
0.0173366
0.0171815
0.0184717
0.018323
0.0181741
0.0180254
0.0178764
0.017727
0.0175773
0.0174273
0.017277
0.0171264
0.0183975
0.018252
0.0181064
0.0179608
0.0178149
0.0176688
0.0175223
0.0173756
0.0172286
0.0170814
0.0183477
0.0182043
0.0180608
0.0179172
0.0177733
0.0176292
0.0174849
0.0173403
0.0171955
0.0170505
0.0183202
0.0181773
0.0180343
0.0178911
0.0177478
0.0176043
0.0174606
0.0173167
0.0171727
0.0170285
0.152499
0.153249
0.154717
0.156811
0.159471
0.162639
0.166269
0.170317
0.174737
0.179484
0.184509
0.189754
0.195157
0.200643
0.206127
0.211507
0.216669
0.221475
0.225775
0.229387
0.232123
0.233753
0.234062
0.232754
0.229631
0.224279
0.216649
0.205916
0.192625
0.174178
0.151456
0.152176
0.153581
0.155586
0.158124
0.16114
0.164582
0.168403
0.172554
0.176983
0.181636
0.186451
0.191357
0.196274
0.20111
0.205758
0.210099
0.213994
0.217293
0.21982
0.221398
0.221812
0.220875
0.218329
0.214022
0.207617
0.199117
0.187991
0.174939
0.159632
0.150324
0.151013
0.152351
0.154257
0.156665
0.159515
0.162755
0.166334
0.170198
0.174293
0.178558
0.182925
0.187322
0.191661
0.195848
0.199773
0.203318
0.206344
0.20871
0.21025
0.210807
0.210189
0.208247
0.204768
0.199657
0.192672
0.1839
0.173059
0.160793
0.146819
0.149101
0.149755
0.151021
0.152824
0.155093
0.157769
0.160797
0.164122
0.167689
0.171437
0.175303
0.179216
0.183096
0.186855
0.190397
0.193611
0.19638
0.198573
0.200057
0.200681
0.200307
0.198774
0.195964
0.191715
0.185976
0.178596
0.169685
0.15909
0.147254
0.133958
0.147785
0.148402
0.149593
0.151286
0.15341
0.155905
0.158713
0.161778
0.165039
0.168435
0.171897
0.175351
0.178717
0.181904
0.184815
0.187343
0.189374
0.190787
0.191458
0.191255
0.19006
0.187744
0.184218
0.179368
0.173173
0.165549
0.156601
0.146246
0.134841
0.122311
0.146374
0.146953
0.148065
0.149644
0.151619
0.153926
0.156509
0.159306
0.162256
0.165295
0.168351
0.17135
0.174208
0.176836
0.179139
0.181013
0.182352
0.183045
0.182981
0.182049
0.180151
0.177188
0.173097
0.167806
0.161317
0.15359
0.144732
0.134714
0.123857
0.112151
0.144868
0.145406
0.146438
0.147899
0.149719
0.151834
0.154185
0.15671
0.159346
0.162026
0.164678
0.167226
0.169588
0.171675
0.173397
0.174655
0.175353
0.17539
0.174673
0.173107
0.170618
0.167132
0.162612
0.157016
0.150367
0.142657
0.133997
0.124395
0.114129
0.103214
0.143265
0.143762
0.14471
0.14605
0.147712
0.149631
0.151746
0.153997
0.156317
0.15864
0.160892
0.162999
0.164879
0.166448
0.16762
0.168304
0.168415
0.167863
0.166571
0.164464
0.161487
0.15759
0.152756
0.14697
0.140267
0.132667
0.124277
0.115128
0.105453
0.0952847
0.141566
0.142019
0.142883
0.144099
0.145599
0.147319
0.149198
0.151173
0.153179
0.155148
0.157008
0.158686
0.160104
0.161181
0.161838
0.161994
0.161572
0.160498
0.158709
0.156148
0.152777
0.148568
0.14352
0.137638
0.130968
0.123544
0.115469
0.106788
0.0976949
0.088238
0.139771
0.14018
0.140958
0.142048
0.143384
0.144904
0.146545
0.148245
0.14994
0.151562
0.153042
0.154307
0.155285
0.1559
0.156081
0.155754
0.154856
0.153325
0.151113
0.148178
0.1445
0.140066
0.134889
0.128988
0.122415
0.115217
0.107486
0.0992788
0.0907528
0.0819683
0.13788
0.138244
0.138935
0.139898
0.14107
0.142389
0.143794
0.145223
0.146612
0.147897
0.149009
0.14988
0.150443
0.150628
0.150372
0.149611
0.148293
0.146368
0.143802
0.140569
0.136659
0.132075
0.126839
0.120981
0.114556
0.107617
0.100248
0.0925099
0.0845304
0.0763759
0.135895
0.136214
0.136817
0.137653
0.138661
0.13978
0.140952
0.142114
0.143206
0.144164
0.144925
0.145424
0.145599
0.145388
0.144735
0.143589
0.141904
0.139646
0.136791
0.133325
0.12925
0.12458
0.119343
0.113578
0.107338
0.10068
0.0936797
0.0863993
0.0789403
0.0713722
0.133817
0.134091
0.134606
0.135316
0.136161
0.137083
0.138025
0.138928
0.139733
0.140379
0.140806
0.140956
0.140772
0.1402
0.139192
0.137706
0.135707
0.133172
0.130086
0.126448
0.122266
0.117563
0.112373
0.106737
0.100709
0.094345
0.0877124
0.0808733
0.0739059
0.0668814
0.131649
0.131878
0.132307
0.13289
0.133575
0.134305
0.135023
0.135675
0.136204
0.136553
0.136667
0.136493
0.13598
0.135082
0.133759
0.131979
0.129716
0.126955
0.123692
0.119933
0.115694
0.111003
0.105896
0.100418
0.0946191
0.0885552
0.0822839
0.0758664
0.0693609
0.0628387
0.129393
0.129578
0.129921
0.130382
0.130909
0.131451
0.131954
0.132364
0.13263
0.1327
0.132522
0.13205
0.131239
0.13005
0.128453
0.126421
0.123939
0.121001
0.117608
0.113774
0.10952
0.104877
0.0998828
0.0945824
0.0890232
0.0832588
0.0773386
0.071321
0.0652476
0.0591887
0.127053
0.127195
0.127454
0.127794
0.12817
0.12853
0.128825
0.129006
0.129025
0.128833
0.128386
0.127642
0.126563
0.125119
0.123284
0.121043
0.118385
0.115311
0.11183
0.10796
0.103725
0.0991596
0.0943005
0.0891919
0.0838778
0.0784087
0.0728265
0.0671864
0.0615159
0.0558838
0.124634
0.124733
0.12491
0.125134
0.125362
0.125548
0.125646
0.125611
0.125398
0.124964
0.124271
0.123282
0.121966
0.1203
0.118264
0.11585
0.113055
0.109884
0.106352
0.102479
0.0982925
0.0938271
0.0891192
0.0842112
0.0791432
0.0739622
0.0687032
0.0634182
0.0581225
0.0528833
0.122139
0.122196
0.122295
0.122407
0.122494
0.122515
0.122426
0.122188
0.12176
0.121105
0.120189
0.118982
0.117459
0.115602
0.113401
0.110849
0.107952
0.104718
0.101165
0.097317
0.0932023
0.0888548
0.0843096
0.0796069
0.0747827
0.0698805
0.0649291
0.059977
0.0550298
0.0501521
0.119573
0.119591
0.119614
0.11962
0.119573
0.119437
0.119174
0.118748
0.118123
0.117267
0.116151
0.114752
0.113051
0.111035
0.108698
0.106042
0.103073
0.0998057
0.0962595
0.0924598
0.0884352
0.0842189
0.0798439
0.075348
0.070763
0.0661289
0.0614692
0.0568287
0.052205
0.0476604
0.116942
0.116922
0.116874
0.116778
0.116606
0.116324
0.115899
0.1153
0.114496
0.113459
0.112168
0.110603
0.10875
0.106604
0.104161
0.101429
0.0984163
0.0951412
0.0916244
0.087892
0.083972
0.0798964
0.0756961
0.0714057
0.0670537
0.0626763
0.0582922
0.0539431
0.0496198
0.0453821
0.114252
0.114196
0.114081
0.113891
0.113601
0.113183
0.11261
0.111853
0.110888
0.109692
0.108248
0.106541
0.104563
0.102313
0.0997914
0.0970084
0.0939772
0.0907164
0.087248
0.083598
0.0797937
0.0758655
0.0718415
0.0677538
0.0636272
0.0594946
0.0553707
0.0512937
0.0472493
0.0432949
0.111509
0.11142
0.111242
0.110963
0.110565
0.110024
0.109315
0.108417
0.107309
0.105974
0.104398
0.102573
0.100495
0.0981649
0.0955891
0.092779
0.0897501
0.0865223
0.0831179
0.0795625
0.0758821
0.0721051
0.0682574
0.064368
0.0604586
0.0565589
0.05268
0.0488572
0.045072
0.0413791
0.10872
0.1086
0.108364
0.108005
0.107507
0.106853
0.106023
0.105
0.103767
0.102313
0.100627
0.098706
0.0965495
0.0941624
0.0915536
0.0887367
0.0857285
0.0825495
0.0792219
0.0757705
0.0722197
0.0685959
0.0649226
0.0612262
0.0575252
0.0538466
0.0501983
0.046613
0.0430688
0.0396178
0.105892
0.105744
0.105455
0.105022
0.104435
0.10368
0.102743
0.10161
0.10027
0.0987144
0.096939
0.0949428
0.0927291
0.0903054
0.087683
0.084877
0.0819053
0.0787882
0.0755477
0.0722072
0.0687897
0.0653195
0.0618177
0.0583081
0.0548068
0.0513377
0.0479064
0.0445429
0.0412229
0.037996
0.103032
0.102859
0.102522
0.102023
0.101356
0.100512
0.0994809
0.0982539
0.0968236
0.0951859
0.0933396
0.0912874
0.0890353
0.0865934
0.0839746
0.081195
0.0782729
0.0752286
0.072083
0.0688586
0.0655764
0.0622588
0.0589247
0.0555955
0.0522847
0.0490141
0.0457868
0.0426306
0.0395195
0.0365006
0.100148
0.0999519
0.0995723
0.0990148
0.0982779
0.0973567
0.0962456
0.0949395
0.0934352
0.0917322
0.0898327
0.0877421
0.0854691
0.0830253
0.080425
0.077685
0.0748236
0.0718607
0.0688162
0.0657111
0.062565
0.059398
0.0562272
0.0530714
0.0499424
0.0468595
0.0438242
0.0408619
0.0379456
0.0351198
0.0972476
0.0970315
0.0966148
0.0960063
0.0952089
0.094222
0.0930437
0.091673
0.0901102
0.0883581
0.0864216
0.0843088
0.0820302
0.079599
0.0770302
0.074341
0.0715495
0.0686748
0.0657358
0.0627521
0.0597416
0.0567225
0.0537098
0.0507207
0.0477648
0.0448594
0.0420047
0.0392238
0.0364894
0.0338432
0.0943387
0.0941053
0.0936566
0.0930048
0.0921564
0.0911148
0.089882
0.0884604
0.0868536
0.0850672
0.0831088
0.0809884
0.078718
0.076312
0.0737859
0.0711569
0.0684426
0.0656613
0.062831
0.0599695
0.0570931
0.0542186
0.0513589
0.0485294
0.0457382
0.0430007
0.0403158
0.037705
0.0351404
0.0326617
0.0914291
0.091181
0.0907055
0.0900177
0.0891275
0.088042
0.0867667
0.0853072
0.0836699
0.081863
0.0798962
0.0777812
0.0755313
0.0731614
0.0706874
0.0681263
0.0654951
0.0628112
0.0600913
0.0573519
0.0546077
0.0518738
0.0491618
0.0464849
0.0438503
0.0412715
0.0387465
0.036295
0.0338894
0.0315668
0.0885265
0.0882665
0.0877692
0.0870524
0.0861293
0.0850101
0.0837036
0.0822182
0.0805629
0.0787481
0.0767851
0.0746871
0.0724683
0.070144
0.06773
0.0652431
0.0626995
0.0601156
0.057507
0.0548887
0.0522742
0.0496767
0.0471067
0.0445758
0.04209
0.0396611
0.0372867
0.0349846
0.0327278
0.0305511
0.0856389
0.0853694
0.0848552
0.0841161
0.0831684
0.0820252
0.080698
0.0791979
0.0775361
0.0757246
0.0737765
0.0717057
0.0695271
0.0672562
0.0649089
0.062501
0.0600483
0.0575662
0.0550688
0.0525701
0.0500821
0.0476168
0.0451832
0.0427916
0.040447
0.0381599
0.0359274
0.0337655
0.0316482
0.0296079
0.0827737
0.0824973
0.0819706
0.0812158
0.0802513
0.079093
0.077755
0.0762504
0.0745924
0.0727945
0.0708707
0.068836
0.0667055
0.0644947
0.0622191
0.0598941
0.0575346
0.0551549
0.052768
0.0503868
0.048022
0.0456842
0.0433815
0.0411228
0.0389123
0.0367592
0.0346603
0.0326301
0.0306437
0.028731
0.0799384
0.0796573
0.0791226
0.0783579
0.077384
0.076219
0.0748791
0.0733793
0.0717343
0.0699588
0.0680679
0.0660768
0.0640009
0.0618556
0.0596559
0.0574165
0.0551515
0.0528742
0.0505967
0.0483304
0.0460851
0.0438702
0.0416928
0.0395608
0.0374775
0.0354511
0.0334781
0.0315717
0.0297081
0.027915
0.0771404
0.0768567
0.0763179
0.0755489
0.0745723
0.0734081
0.0720744
0.0705877
0.0689639
0.0672188
0.0653679
0.0634268
0.0614109
0.0593353
0.0572145
0.0550627
0.0528928
0.0507172
0.0485471
0.0463929
0.0442633
0.0421667
0.0401091
0.0380977
0.036135
0.0342284
0.0323741
0.0305841
0.0288358
0.0271548
0.0743865
0.0741022
0.0735629
0.0727947
0.0718215
0.070665
0.0693447
0.0678784
0.066283
0.064575
0.0627702
0.0608844
0.0589328
0.0569302
0.0548906
0.0528272
0.0507523
0.0486773
0.0466124
0.0445671
0.0425492
0.0405661
0.0386231
0.0367264
0.0348781
0.0330846
0.0313422
0.0296617
0.0280218
0.0264459
0.0716835
0.0714004
0.0708639
0.0701011
0.0691368
0.067994
0.0666935
0.065254
0.0636931
0.0620278
0.0602743
0.058448
0.0565642
0.0546369
0.0526797
0.050705
0.0487244
0.0467483
0.0447862
0.0428464
0.0409361
0.0390618
0.0372281
0.0354405
0.0337006
0.032014
0.0303771
0.0287996
0.0272614
0.0257842
0.0690376
0.0687573
0.0682267
0.0674732
0.0665227
0.065399
0.0641238
0.0627166
0.0611955
0.0595777
0.0578794
0.056116
0.0543023
0.052452
0.0505778
0.0486915
0.0468039
0.0449247
0.0430624
0.0412246
0.0394177
0.0376475
0.035918
0.0342341
0.0325968
0.0310112
0.0294738
0.0279931
0.0265506
0.025166
0.066455
0.0661788
0.0656567
0.0649162
0.0639836
0.0628837
0.0616384
0.0602681
0.058791
0.0572245
0.0555846
0.0538866
0.0521447
0.0503721
0.0485809
0.0467822
0.044986
0.0432012
0.0414356
0.0396961
0.0379884
0.0363177
0.0346875
0.0331018
0.0315617
0.0300715
0.0286278
0.0272382
0.0258856
0.0245879
0.0639412
0.0636705
0.063159
0.0624345
0.0615236
0.0604511
0.0592399
0.0579102
0.0564806
0.0549683
0.0533893
0.0517582
0.050089
0.0483942
0.0466854
0.0449729
0.043266
0.041573
0.0399008
0.0382559
0.0366432
0.0350674
0.0335314
0.032039
0.0305908
0.0291906
0.0278351
0.0265312
0.0252631
0.0240469
0.0615016
0.0612373
0.0607384
0.0600325
0.0591462
0.0581045
0.0569304
0.0556443
0.0542649
0.052809
0.0512923
0.0497291
0.0481329
0.0465155
0.0448879
0.0432599
0.0416399
0.0400356
0.0384535
0.0368993
0.0353773
0.0338919
0.0324455
0.0310413
0.0296799
0.0283646
0.0270922
0.0258688
0.02468
0.0235404
0.059141
0.058884
0.0583993
0.0577141
0.0568547
0.0558464
0.054712
0.0534718
0.0521443
0.0507462
0.0492927
0.0477978
0.0462742
0.0447333
0.0431854
0.0416396
0.0401039
0.0385853
0.0370896
0.0356221
0.0341867
0.0327871
0.0314256
0.0301049
0.0288255
0.0275901
0.0263958
0.0252481
0.0241337
0.0230657
0.056864
0.0566151
0.0561458
0.0554828
0.0546524
0.0536793
0.0525863
0.0513936
0.0501193
0.0487798
0.0473898
0.0459627
0.0445108
0.043045
0.0415748
0.0401089
0.0386545
0.0372182
0.0358054
0.0344206
0.0330675
0.0317493
0.0304682
0.0292263
0.0280241
0.0268639
0.0257431
0.0246663
0.0236217
0.0226209