/*--------------------------------*- C++ -*----------------------------------*\
  =========                 |
  \\      /  F ield         | OpenFOAM: The Open Source CFD Toolbox
   \\    /   O peration     | Website:  https://openfoam.org
    \\  /    A nd           | Version:  7
     \\/     M anipulation  |
\*---------------------------------------------------------------------------*/
FoamFile
{
    version     2.0;
    format      ascii;
    class       surfaceScalarField;
    location    "30";
    object      phi;
}
// * * * * * * * * * * * * * * * * * * * * * * * * * * * * * * * * * * * * * //

dimensions      [0 3 -1 0 0 0 0];

internalField   nonuniform List<scalar> 
16730
(
-0.00359134
-0.000519202
-0.00050143
-0.00343968
-0.00354333
-0.000549446
-0.000481196
-0.00329736
-0.000529568
-0.00339131
-0.00349372
-0.000579171
-0.000459543
-0.00316468
-0.000507373
-0.00324953
-0.000557205
-0.00334147
-0.00344256
-0.000608367
-0.000483989
-0.00311736
-0.000533109
-0.0032004
-0.000584358
-0.00329022
-0.00338988
-0.000637045
-0.000459451
-0.00299278
-0.000508047
-0.00306877
-0.000558431
-0.00315002
-0.000611066
-0.00323759
-0.00333566
-0.000665283
-0.000433461
-0.00287442
-0.000481855
-0.00294439
-0.000531732
-0.00301889
-0.000583378
-0.00309837
-0.000637392
-0.00318358
-0.00327987
-0.000693179
-0.000454173
-0.00282611
-0.000503879
-0.00289468
-0.000555066
-0.0029677
-0.000608007
-0.00304543
-0.000663363
-0.00312822
-0.00322249
-0.000720748
-0.00042489
-0.00271343
-0.000474483
-0.00277651
-0.000525511
-0.00284366
-0.000578067
-0.00291515
-0.000632422
-0.00299108
-0.000689016
-0.00307163
-0.00316319
-0.000748312
-0.000443511
-0.00266397
-0.00049437
-0.00272565
-0.000546713
-0.00279131
-0.000600694
-0.00286117
-0.00065666
-0.00293511
-0.00071523
-0.00301306
-0.00310355
-0.000774871
-0.000411041
-0.00255671
-0.00046171
-0.0026133
-0.000513802
-0.00267356
-0.000567428
-0.00273769
-0.000622801
-0.00280579
-0.000680141
-0.00287777
-0.000738907
-0.00295429
-0.0030371
-0.000805361
-0.000377155
-0.00245425
-0.000427642
-0.00250622
-0.000479489
-0.00256145
-0.000532777
-0.00262027
-0.000587623
-0.00268284
-0.00064421
-0.00274921
-0.000702649
-0.00281933
-0.000763138
-0.0028938
-0.00297218
-0.000828051
-0.000392217
-0.00240395
-0.000443843
-0.0024546
-0.000496838
-0.00250846
-0.000551285
-0.00256583
-0.0006073
-0.00262683
-0.000665029
-0.00269148
-0.000724578
-0.00275978
-0.000786269
-0.00283211
-0.00290748
-0.00085097
-0.00035549
-0.0023057
-0.000406904
-0.00235253
-0.00045964
-0.00240186
-0.000513753
-0.00245435
-0.000569327
-0.00251025
-0.000626468
-0.00256968
-0.0006853
-0.00263265
-0.000745931
-0.00269915
-0.000808626
-0.00276941
-0.00284243
-0.00087368
-0.000368717
-0.00225453
-0.000421212
-0.00230004
-0.000475032
-0.00234804
-0.000530233
-0.00239914
-0.0005869
-0.00245359
-0.000645133
-0.00251145
-0.000705037
-0.00257274
-0.000766718
-0.00263747
-0.000830359
-0.00270577
-0.00277674
-0.000896053
-0.000329356
-0.0021592
-0.000381591
-0.00220229
-0.00043514
-0.00224649
-0.000490016
-0.00229316
-0.000546277
-0.00234288
-0.000604007
-0.00239586
-0.000663299
-0.00245216
-0.000724249
-0.00251179
-0.000786951
-0.00257477
-0.000851534
-0.00264119
-0.00271025
-0.00091802
-0.000340842
-0.00210731
-0.00039411
-0.00214902
-0.000448687
-0.00219191
-0.000504591
-0.00223726
-0.000561884
-0.00228559
-0.000620647
-0.00233709
-0.00068097
-0.00239184
-0.000742941
-0.00244982
-0.000806644
-0.00251107
-0.000872174
-0.00257566
-0.00264288
-0.000939539
-0.000352001
-0.0020544
-0.000406275
-0.00209475
-0.000461852
-0.00213633
-0.000518757
-0.00218036
-0.000577054
-0.00222729
-0.000636822
-0.00227733
-0.000698149
-0.00233051
-0.000761118
-0.00238685
-0.000825805
-0.00244638
-0.000892288
-0.00250918
-0.00257459
-0.000960578
-0.000308926
-0.00196025
-0.000362831
-0.00200049
-0.000418083
-0.0020395
-0.000474634
-0.00207978
-0.000532513
-0.00212248
-0.000591786
-0.00216802
-0.000652533
-0.00221658
-0.000714839
-0.0022682
-0.000778783
-0.00232291
-0.000844438
-0.00238073
-0.000911874
-0.00244174
-0.00250536
-0.000981113
-0.000318463
-0.00190689
-0.000373332
-0.00194562
-0.000429534
-0.0019833
-0.000487031
-0.00202229
-0.000545857
-0.00206365
-0.00060608
-0.0021078
-0.00066778
-0.00215488
-0.00073104
-0.00220494
-0.000795938
-0.00225801
-0.000862545
-0.00231412
-0.00093093
-0.00237336
-0.00243516
-0.00100112
-0.000273375
-0.00180991
-0.000327699
-0.00185256
-0.000383504
-0.00188982
-0.000440628
-0.00192617
-0.000499043
-0.00196387
-0.000558789
-0.0020039
-0.000619936
-0.00204665
-0.000682563
-0.00209225
-0.000746753
-0.00214075
-0.000812583
-0.00219218
-0.000880125
-0.00224658
-0.000949449
-0.00230403
-0.00236401
-0.0010206
-0.000281378
-0.00175647
-0.000336634
-0.00179731
-0.000393344
-0.00183311
-0.000451363
-0.00186815
-0.00051067
-0.00190457
-0.000571309
-0.00194326
-0.000633353
-0.00198461
-0.000696881
-0.00202872
-0.000761976
-0.00207566
-0.000828717
-0.00212544
-0.000897175
-0.00217812
-0.000967425
-0.00223378
-0.00229192
-0.00103952
-0.000289111
-0.00170208
-0.000345268
-0.00174115
-0.000402854
-0.00177552
-0.000461739
-0.00180927
-0.00052191
-0.00184439
-0.000583416
-0.00188176
-0.000646329
-0.00192169
-0.000710733
-0.00196432
-0.000776709
-0.00200968
-0.000844337
-0.00205781
-0.000913692
-0.00210876
-0.000984851
-0.00216262
-0.0022189
-0.00105787
-0.000241274
-0.00159812
-0.000296573
-0.00164678
-0.000353599
-0.00168412
-0.000412032
-0.00171709
-0.000471755
-0.00174955
-0.000532763
-0.00178339
-0.000595107
-0.00181941
-0.000658864
-0.00185794
-0.000724117
-0.00189907
-0.000790949
-0.00194285
-0.000859442
-0.00198932
-0.000929672
-0.00203853
-0.00100172
-0.00209058
-0.00214497
-0.00107565
-0.000247589
-0.00154424
-0.000303764
-0.00159061
-0.000361627
-0.00162626
-0.000420878
-0.00165784
-0.000481411
-0.00168901
-0.000543227
-0.00172157
-0.000606383
-0.00175626
-0.000670957
-0.00179336
-0.000737033
-0.00183299
-0.000804695
-0.00187519
-0.000874027
-0.00191999
-0.000945109
-0.00196745
-0.00101803
-0.00201766
-0.00207015
-0.00109284
-0.000253666
-0.00148946
-0.000310682
-0.00153359
-0.000369352
-0.00156759
-0.000429392
-0.0015978
-0.000490705
-0.0016277
-0.000553302
-0.00165897
-0.000617242
-0.00169232
-0.000682605
-0.001728
-0.000749477
-0.00176612
-0.000817944
-0.00180672
-0.00088809
-0.00184984
-0.00096
-0.00189554
-0.00103376
-0.0019439
-0.00199447
-0.00110944
-0.000203864
-0.00137261
-0.000259504
-0.00143382
-0.000317328
-0.00147577
-0.000376773
-0.00150814
-0.000437571
-0.001537
-0.000499637
-0.00156563
-0.000562987
-0.00159562
-0.000627683
-0.00162762
-0.000693808
-0.00166188
-0.000761448
-0.00169848
-0.000830692
-0.00173748
-0.000901627
-0.0017789
-0.000974338
-0.00182283
-0.00104892
-0.00186932
-0.00191795
-0.00112544
-0.00020864
-0.00131923
-0.000265103
-0.00137735
-0.000323701
-0.00141717
-0.000383891
-0.00144796
-0.000445417
-0.00147547
-0.000508206
-0.00150285
-0.00057228
-0.00153155
-0.000637704
-0.0015622
-0.000704563
-0.00159502
-0.000772944
-0.0016301
-0.000842938
-0.00166748
-0.000914634
-0.00170721
-0.00098812
-0.00174935
-0.00106349
-0.00179395
-0.00184061
-0.00114083
-0.000213213
-0.00126501
-0.000270462
-0.00132011
-0.000329801
-0.00135783
-0.000390703
-0.00138705
-0.000452928
-0.00141325
-0.000516412
-0.00143936
-0.000581181
-0.00146678
-0.000647304
-0.00149607
-0.000714868
-0.00152745
-0.000783961
-0.001561
-0.000854677
-0.00159677
-0.000927107
-0.00163478
-0.00100134
-0.00167511
-0.00107748
-0.00171781
-0.0017625
-0.00115559
-0.000217583
-0.00120999
-0.000275581
-0.00126211
-0.000335627
-0.00129778
-0.00039721
-0.00132547
-0.000460104
-0.00135035
-0.000524252
-0.00137521
-0.000589687
-0.00140135
-0.000656481
-0.00142928
-0.000724721
-0.00145921
-0.000794499
-0.00149123
-0.000865908
-0.00152536
-0.000939042
-0.00156164
-0.00101399
-0.00160016
-0.00109087
-0.00164094
-0.00168362
-0.00116974
-0.000165956
-0.00107792
-0.000221748
-0.00115419
-0.000280459
-0.0012034
-0.000341179
-0.00123706
-0.000403411
-0.00126324
-0.000466944
-0.00128682
-0.000531727
-0.00131043
-0.000597799
-0.00133527
-0.000665234
-0.00136185
-0.000734121
-0.00139033
-0.000804553
-0.00142079
-0.000876626
-0.00145329
-0.000950436
-0.00148784
-0.00102608
-0.00152452
-0.00110365
-0.00156336
-0.00160403
-0.00118325
-0.000169189
-0.00102571
-0.000225708
-0.00109767
-0.000285096
-0.00114401
-0.000346456
-0.0011757
-0.000409307
-0.00120039
-0.000473447
-0.00122268
-0.000538836
-0.00124504
-0.000605515
-0.00126859
-0.000673561
-0.0012938
-0.000743065
-0.00132082
-0.000814122
-0.00134974
-0.00088683
-0.00138058
-0.000961284
-0.00141338
-0.00103758
-0.00144822
-0.00111584
-0.00148511
-0.00152374
-0.00119612
-0.000172255
-0.000972771
-0.000229462
-0.00104047
-0.000289492
-0.00108398
-0.000351458
-0.00111374
-0.000414896
-0.00113695
-0.000479613
-0.00115797
-0.000545577
-0.00117908
-0.000612833
-0.00120134
-0.00068146
-0.00122517
-0.000751552
-0.00125073
-0.000823204
-0.00127809
-0.000896515
-0.00130727
-0.000971584
-0.00133831
-0.00104851
-0.00137129
-0.0011274
-0.00140622
-0.0014428
-0.00120835
-0.000175155
-0.000919135
-0.000233011
-0.000982612
-0.000293645
-0.00102334
-0.000356185
-0.0010512
-0.000420177
-0.00107296
-0.000485441
-0.0010927
-0.000551949
-0.00111257
-0.000619752
-0.00113354
-0.000688931
-0.00115599
-0.000759579
-0.00118008
-0.000831795
-0.00120587
-0.000905679
-0.00123338
-0.000981332
-0.00126266
-0.00105886
-0.00129377
-0.00113836
-0.00132672
-0.00136123
-0.00121993
-0.000177887
-0.000864845
-0.000236353
-0.000924146
-0.000297557
-0.00096214
-0.000360636
-0.000988118
-0.000425151
-0.00100844
-0.00049093
-0.00102692
-0.000557952
-0.00104555
-0.000626271
-0.00106522
-0.00069597
-0.00108629
-0.000767145
-0.00110891
-0.000839894
-0.00113312
-0.00091432
-0.00115896
-0.000990524
-0.00118646
-0.00106861
-0.00121568
-0.00114869
-0.00124664
-0.00127906
-0.00123085
-0.000125549
-0.000723758
-0.00018045
-0.000809943
-0.000239488
-0.000865108
-0.000301226
-0.000900402
-0.000364811
-0.000924532
-0.000429817
-0.000943437
-0.00049608
-0.00096066
-0.000563585
-0.000978041
-0.000632389
-0.000996412
-0.000702578
-0.0010161
-0.000774248
-0.00103724
-0.000847499
-0.00105987
-0.000922434
-0.00108402
-0.000999157
-0.00110973
-0.00107778
-0.00113706
-0.0011584
-0.00116601
-0.00119634
-0.00124112
-0.000127373
-0.000674536
-0.000182846
-0.00075447
-0.000242416
-0.000805538
-0.000304651
-0.000838167
-0.00036871
-0.000860473
-0.000434174
-0.000877973
-0.00050089
-0.000893945
-0.000568847
-0.000910083
-0.000638105
-0.000927154
-0.000708752
-0.000945458
-0.000780885
-0.000965107
-0.000854606
-0.000986147
-0.000930019
-0.00100861
-0.00100723
-0.00103252
-0.00108634
-0.00105794
-0.00116748
-0.00108488
-0.0011131
-0.00125072
-0.000129069
-0.000624765
-0.000185071
-0.000698468
-0.000245137
-0.000745473
-0.000307834
-0.00077547
-0.000372332
-0.000795975
-0.000438222
-0.000812083
-0.000505359
-0.000826808
-0.000573737
-0.000841705
-0.000643418
-0.000857473
-0.000714491
-0.000874385
-0.000787056
-0.000892542
-0.000861215
-0.000911989
-0.000937072
-0.000932751
-0.00101474
-0.00095486
-0.00109431
-0.000978366
-0.00117592
-0.00100327
-0.00102937
-0.00125965
-0.000130637
-0.000574485
-0.000187128
-0.000641977
-0.000247649
-0.000684951
-0.000310773
-0.000712346
-0.000375677
-0.000731072
-0.000441961
-0.000745799
-0.000509487
-0.000759282
-0.000578254
-0.000772938
-0.000648326
-0.0007874
-0.000719795
-0.000802916
-0.000792759
-0.000819578
-0.000867323
-0.000837425
-0.000943592
-0.000856482
-0.00102168
-0.000876776
-0.00110168
-0.000898357
-0.00118373
-0.000921226
-0.00094519
-0.00126791
-0.000132075
-0.000523741
-0.000189014
-0.000585038
-0.000249953
-0.000624012
-0.000313468
-0.000648831
-0.000378744
-0.000665796
-0.00044539
-0.000679153
-0.000513273
-0.000691399
-0.000582397
-0.000703814
-0.000652829
-0.000716968
-0.00072466
-0.000731085
-0.000797992
-0.000746247
-0.000872928
-0.000762488
-0.000949576
-0.000779834
-0.00102805
-0.000798307
-0.00110845
-0.000817954
-0.0011909
-0.000838774
-0.000860594
-0.0012755
-0.000133385
-0.000472573
-0.00019073
-0.000527693
-0.000252049
-0.000562692
-0.000315919
-0.000584961
-0.000381533
-0.000600182
-0.000448508
-0.000612178
-0.000516717
-0.00062319
-0.000586167
-0.000634364
-0.000656926
-0.000646209
-0.000729087
-0.000658924
-0.000802753
-0.000672581
-0.000878029
-0.000687213
-0.000955023
-0.00070284
-0.00103384
-0.000719486
-0.00111461
-0.000737191
-0.00119743
-0.000755954
-0.00077562
-0.0012824
-0.000134564
-0.000421024
-0.000192275
-0.000469981
-0.000253936
-0.000501031
-0.000318126
-0.000520771
-0.000384044
-0.000534264
-0.000451316
-0.000544907
-0.000519818
-0.000554688
-0.000589561
-0.000564621
-0.000660615
-0.000575155
-0.000733075
-0.000586464
-0.000807042
-0.000598613
-0.000882624
-0.000611631
-0.000959929
-0.000625535
-0.00103907
-0.000640347
-0.00112016
-0.000656103
-0.00120331
-0.000672802
-0.000690304
-0.00128862
-0.000135613
-0.000369137
-0.000193649
-0.000411945
-0.000255614
-0.000439067
-0.000320088
-0.000456297
-0.000386277
-0.000468075
-0.000453812
-0.000477372
-0.000522575
-0.000485925
-0.00059258
-0.000494617
-0.000663897
-0.000503838
-0.000736622
-0.000513739
-0.000810858
-0.000524377
-0.000886713
-0.000535776
-0.000964295
-0.000547953
-0.00104372
-0.000560925
-0.00112509
-0.000574726
-0.00120854
-0.000589353
-0.000604685
-0.00129416
-0.000136532
-0.000316954
-0.000194852
-0.000353624
-0.000257083
-0.000376837
-0.000321805
-0.000391574
-0.000388232
-0.000401648
-0.000455998
-0.000409606
-0.000524989
-0.000416933
-0.000595222
-0.000424384
-0.00066677
-0.00043229
-0.000739727
-0.000440782
-0.000814199
-0.000449905
-0.000890293
-0.000459682
-0.000968118
-0.000470127
-0.00104779
-0.000481256
-0.00112942
-0.000493096
-0.00121313
-0.000505644
-0.000518798
-0.00129901
-8.48827e-05
-0.000218018
-0.00013732
-0.000264517
-0.000195884
-0.00029506
-0.000258342
-0.000314379
-0.000323278
-0.000326638
-0.000389907
-0.000335019
-0.000457871
-0.000341642
-0.000527059
-0.000347745
-0.000597488
-0.000353954
-0.000669233
-0.000360545
-0.000742391
-0.000367624
-0.000817064
-0.000375231
-0.000893363
-0.000383384
-0.000971397
-0.000392093
-0.00105128
-0.000401373
-0.00113313
-0.000411247
-0.00121706
-0.000421712
-0.000432683
-0.00130318
-8.53282e-05
-0.00017466
-0.000137977
-0.000211868
-0.000196744
-0.000236293
-0.000259391
-0.000251732
-0.000324505
-0.000261525
-0.000391304
-0.000268219
-0.000459433
-0.000273513
-0.000528784
-0.000278394
-0.000599377
-0.000283361
-0.000671287
-0.000288635
-0.000744611
-0.000294301
-0.000819454
-0.000300389
-0.000895924
-0.000306914
-0.000974132
-0.000313885
-0.00105419
-0.000321313
-0.00113622
-0.000329217
-0.00122034
-0.000337594
-0.000346377
-0.00130665
-8.56848e-05
-0.000131139
-0.000138502
-0.000159051
-0.000197432
-0.000177363
-0.000260231
-0.000188933
-0.000325486
-0.000196269
-0.000392421
-0.000201285
-0.000460682
-0.000205252
-0.000530165
-0.000208911
-0.000600889
-0.000212637
-0.000672931
-0.000216593
-0.000746388
-0.000220844
-0.000821366
-0.000225411
-0.000897973
-0.000230307
-0.00097632
-0.000235537
-0.00105652
-0.00024111
-0.0011387
-0.000247041
-0.00122297
-0.000253327
-0.000259918
-0.00130942
-8.59524e-05
-8.74956e-05
-0.000138897
-0.000106106
-0.000197948
-0.000118312
-0.000260861
-0.00012602
-0.000326223
-0.000130907
-0.000393259
-0.000134248
-0.00046162
-0.000136892
-0.0005312
-0.000139331
-0.000602023
-0.000141815
-0.000674164
-0.000144452
-0.000747721
-0.000147286
-0.0008228
-0.000150332
-0.00089951
-0.000153597
-0.000977963
-0.000157084
-0.00105827
-0.000160801
-0.00114056
-0.000164756
-0.00122494
-0.000168949
-0.000173344
-0.00131151
-8.61308e-05
-4.37705e-05
-0.00013916
-5.30769e-05
-0.000198293
-5.91789e-05
-0.000261281
-6.30321e-05
-0.000326714
-6.54744e-05
-0.000393818
-6.7144e-05
-0.000462245
-6.84652e-05
-0.000531891
-6.96846e-05
-0.000602779
-7.09264e-05
-0.000674986
-7.22454e-05
-0.00074861
-7.36625e-05
-0.000823756
-7.51855e-05
-0.000900535
-7.68179e-05
-0.000979057
-7.8562e-05
-0.00105944
-8.04207e-05
-0.0011418
-8.23986e-05
-0.00122625
-8.44951e-05
-8.6693e-05
-0.0013129
-8.622e-05
-4.72648e-09
-0.000139291
-5.44441e-09
-0.000198465
-5.78687e-09
-0.000261491
-5.89992e-09
-0.000326959
-5.88937e-09
-0.000394097
-5.81948e-09
-0.000462557
-5.72253e-09
-0.000532236
-5.61144e-09
-0.000603157
-5.48996e-09
-0.000675397
-5.35881e-09
-0.000749054
-5.21819e-09
-0.000824235
-5.06838e-09
-0.000901048
-4.90986e-09
-0.000979605
-4.74312e-09
-0.00106002
-4.56876e-09
-0.00114242
-4.38766e-09
-0.00122691
-4.20001e-09
-4.00328e-09
-0.0013136
-8.622e-05
4.37611e-05
-0.000139291
5.3066e-05
-0.000198465
5.91674e-05
-0.000261491
6.30203e-05
-0.000326959
6.54626e-05
-0.000394097
6.71323e-05
-0.000462557
6.84538e-05
-0.000532236
6.96733e-05
-0.000603157
7.09155e-05
-0.000675397
7.22347e-05
-0.000749054
7.36521e-05
-0.000824235
7.51754e-05
-0.000901048
7.68081e-05
-0.000979605
7.85526e-05
-0.00106002
8.04116e-05
-0.00114242
8.23898e-05
-0.00122691
8.44867e-05
8.6685e-05
-0.0013136
-8.61308e-05
8.74861e-05
-0.00013916
0.000106095
-0.000198292
0.0001183
-0.000261281
0.000126009
-0.000326714
0.000130896
-0.000393818
0.000134237
-0.000462244
0.00013688
-0.000531891
0.00013932
-0.000602779
0.000141804
-0.000674986
0.000144442
-0.00074861
0.000147276
-0.000823756
0.000150322
-0.000900535
0.000153587
-0.000979057
0.000157075
-0.00105944
0.000160792
-0.0011418
0.000164748
-0.00122625
0.00016894
0.000173336
-0.0013129
-8.59523e-05
0.00013113
-0.000138897
0.00015904
-0.000197948
0.000177351
-0.000260861
0.000188921
-0.000326223
0.000196258
-0.000393259
0.000201273
-0.00046162
0.00020524
-0.0005312
0.0002089
-0.000602023
0.000212626
-0.000674164
0.000216583
-0.000747721
0.000220833
-0.0008228
0.000225401
-0.00089951
0.000230297
-0.000977962
0.000235527
-0.00105827
0.000241101
-0.00114056
0.000247033
-0.00122494
0.000253319
0.00025991
-0.00131151
-8.56848e-05
0.000174651
-0.000138502
0.000211857
-0.000197432
0.000236281
-0.000260231
0.00025172
-0.000325486
0.000261513
-0.000392421
0.000268208
-0.000460682
0.000273502
-0.000530165
0.000278383
-0.000600889
0.00028335
-0.000672931
0.000288624
-0.000746388
0.00029429
-0.000821365
0.000300379
-0.000897972
0.000306904
-0.00097632
0.000313875
-0.00105652
0.000321304
-0.0011387
0.000329208
-0.00122297
0.000337586
0.000346369
-0.00130942
-8.53281e-05
0.000218009
-0.000137977
0.000264506
-0.000196744
0.000295048
-0.000259391
0.000314367
-0.000324504
0.000326626
-0.000391304
0.000335007
-0.000459433
0.000341631
-0.000528784
0.000347734
-0.000599377
0.000353943
-0.000671287
0.000360534
-0.000744611
0.000367614
-0.000819453
0.000375221
-0.000895923
0.000383374
-0.000974131
0.000392084
-0.00105419
0.000401364
-0.00113622
0.000411238
-0.00122034
0.000421704
0.000432675
-0.00130665
-8.48827e-05
-0.00013732
0.000316943
-0.000195884
0.000353613
-0.000258342
0.000376825
-0.000323277
0.000391562
-0.000389907
0.000401637
-0.000457871
0.000409594
-0.000527059
0.000416922
-0.000597488
0.000424373
-0.000669233
0.000432279
-0.00074239
0.000440771
-0.000817064
0.000449895
-0.000893363
0.000459673
-0.000971397
0.000470118
-0.00105128
0.000481246
-0.00113313
0.000493087
-0.00121706
0.000505636
0.00051879
-0.00130317
-0.000136532
0.000369126
-0.000194852
0.000411933
-0.000257082
0.000439055
-0.000321805
0.000456285
-0.000388231
0.000468063
-0.000455997
0.00047736
-0.000524989
0.000485913
-0.000595222
0.000494606
-0.000666769
0.000503827
-0.000739727
0.000513729
-0.000814198
0.000524367
-0.000890292
0.000535766
-0.000968118
0.000547943
-0.00104779
0.000560916
-0.00112942
0.000574717
-0.00121313
0.000589344
0.000604677
-0.00129901
-0.000135613
0.000421013
-0.000193649
0.000469969
-0.000255614
0.000501019
-0.000320088
0.000520759
-0.000386277
0.000534252
-0.000453812
0.000544895
-0.000522575
0.000554676
-0.000592579
0.00056461
-0.000663896
0.000575144
-0.000736621
0.000586454
-0.000810857
0.000598603
-0.000886712
0.000611621
-0.000964294
0.000625525
-0.00104372
0.000640338
-0.00112509
0.000656094
-0.00120854
0.000672793
0.000690296
-0.00129416
-0.000134564
0.000472562
-0.000192275
0.000527681
-0.000253936
0.00056268
-0.000318126
0.000584949
-0.000384044
0.000600171
-0.000451315
0.000612166
-0.000519817
0.000623179
-0.00058956
0.000634353
-0.000660615
0.000646198
-0.000733074
0.000658913
-0.000807042
0.000672571
-0.000882624
0.000687203
-0.000959929
0.00070283
-0.00103907
0.000719476
-0.00112016
0.000737182
-0.00120331
0.000755946
0.000775612
-0.00128862
-0.000133384
0.000523729
-0.00019073
0.000585026
-0.000252049
0.000623999
-0.000315919
0.000648819
-0.000381533
0.000665784
-0.000448507
0.000679141
-0.000516716
0.000691387
-0.000586166
0.000703803
-0.000656925
0.000716957
-0.000729087
0.000731075
-0.000802752
0.000746236
-0.000878028
0.000762478
-0.000955022
0.000779824
-0.00103384
0.000798298
-0.00111461
0.000817945
-0.00119743
0.000838766
0.000860586
-0.0012824
-0.000132075
0.000574474
-0.000189014
0.000641964
-0.000249953
0.000684939
-0.000313468
0.000712333
-0.000378743
0.00073106
-0.000445389
0.000745787
-0.000513272
0.000759271
-0.000582397
0.000772927
-0.000652828
0.000787389
-0.000724659
0.000802906
-0.000797991
0.000819568
-0.000872927
0.000837415
-0.000949575
0.000856472
-0.00102804
0.000876767
-0.00110845
0.000898348
-0.0011909
0.000921217
0.000945182
-0.00127549
-0.000130636
0.000624753
-0.000187127
0.000698455
-0.000247649
0.00074546
-0.000310773
0.000775457
-0.000375676
0.000795963
-0.00044196
0.000812071
-0.000509486
0.000826796
-0.000578253
0.000841694
-0.000648325
0.000857462
-0.000719794
0.000874374
-0.000792758
0.000892532
-0.000867321
0.000911978
-0.000943591
0.000932742
-0.00102167
0.00095485
-0.00110168
0.000978357
-0.00118373
0.00100326
0.00102936
-0.00126791
-0.000129069
0.000674525
-0.000185071
0.000754458
-0.000245136
0.000805525
-0.000307833
0.000838155
-0.000372331
0.000860461
-0.000438221
0.000877961
-0.000505358
0.000893933
-0.000573736
0.000910072
-0.000643417
0.000927143
-0.00071449
0.000945447
-0.000787055
0.000965096
-0.000861213
0.000986137
-0.000937071
0.0010086
-0.00101473
0.00103251
-0.00109431
0.00105794
-0.00117592
0.00108487
0.00111309
-0.00125965
-0.000127372
0.000723746
-0.000182845
0.00080993
-0.000242416
0.000865096
-0.000304651
0.00090039
-0.000368709
0.00092452
-0.000434173
0.000943425
-0.000500889
0.000960648
-0.000568846
0.000978029
-0.000638104
0.000996401
-0.000708751
0.00101609
-0.000780884
0.00103723
-0.000854605
0.00105986
-0.000930017
0.00108401
-0.00100723
0.00110972
-0.00108634
0.00113705
-0.00116748
0.001166
0.00119634
-0.00125072
-0.000125548
-0.00018045
0.000864832
-0.000239487
0.000924133
-0.000301225
0.000962127
-0.000364811
0.000988106
-0.000429816
0.00100843
-0.000496079
0.00102691
-0.000563584
0.00104553
-0.000632388
0.00106521
-0.000702577
0.00108628
-0.000774246
0.0011089
-0.000847497
0.00113311
-0.000922432
0.00115895
-0.000999155
0.00118645
-0.00107777
0.00121567
-0.0011584
0.00124663
0.00127906
-0.00124112
-0.000177886
0.000919122
-0.000236352
0.000982599
-0.000297556
0.00102333
-0.000360636
0.00105119
-0.00042515
0.00107295
-0.000490929
0.00109269
-0.000557951
0.00111256
-0.00062627
0.00113352
-0.000695969
0.00115598
-0.000767143
0.00118007
-0.000839893
0.00120586
-0.000914318
0.00123337
-0.000990522
0.00126265
-0.00106861
0.00129376
-0.00114869
0.00132671
0.00136122
-0.00123085
-0.000175154
0.000972758
-0.00023301
0.00104045
-0.000293644
0.00108397
-0.000356184
0.00111372
-0.000420176
0.00113694
-0.000485439
0.00115795
-0.000551948
0.00117907
-0.000619751
0.00120133
-0.000688929
0.00122516
-0.000759578
0.00125072
-0.000831794
0.00127807
-0.000905678
0.00130726
-0.00098133
0.0013383
-0.00105885
0.00137128
-0.00113836
0.00140621
0.00144279
-0.00121993
-0.000172255
0.0010257
-0.000229461
0.00109766
-0.000289491
0.001144
-0.000351457
0.00117569
-0.000414894
0.00120037
-0.000479612
0.00122267
-0.000545575
0.00124503
-0.000612831
0.00126858
-0.000681459
0.00129379
-0.00075155
0.00132081
-0.000823202
0.00134973
-0.000896513
0.00138057
-0.000971582
0.00141337
-0.00104851
0.00144821
-0.0011274
0.0014851
0.00152373
-0.00120835
-0.000169188
0.00107791
-0.000225707
0.00115418
-0.000285095
0.00120338
-0.000346455
0.00123705
-0.000409306
0.00126323
-0.000473446
0.00128681
-0.000538834
0.00131042
-0.000605513
0.00133526
-0.000673559
0.00136183
-0.000743063
0.00139032
-0.000814121
0.00142078
-0.000886828
0.00145327
-0.000961282
0.00148783
-0.00103758
0.00152451
-0.00111583
0.00156335
0.00160402
-0.00119612
-0.000165955
-0.000221747
0.00120997
-0.000280458
0.00126209
-0.000341178
0.00129777
-0.00040341
0.00132546
-0.000466942
0.00135034
-0.000531726
0.0013752
-0.000597798
0.00140133
-0.000665232
0.00142927
-0.000734119
0.0014592
-0.000804551
0.00149122
-0.000876624
0.00152535
-0.000950434
0.00156163
-0.00102608
0.00160015
-0.00110365
0.00164093
0.00168362
-0.00118325
-0.000217582
0.001265
-0.00027558
0.00132009
-0.000335626
0.00135782
-0.000397209
0.00138704
-0.000460102
0.00141324
-0.000524251
0.00143935
-0.000589686
0.00146677
-0.000656479
0.00149606
-0.000724719
0.00152744
-0.000794497
0.00156099
-0.000865906
0.00159676
-0.00093904
0.00163477
-0.00101399
0.0016751
-0.00109086
0.0017178
0.00176249
-0.00116973
-0.000213212
0.00131922
-0.000270461
0.00137734
-0.0003298
0.00141716
-0.000390701
0.00144794
-0.000452927
0.00147546
-0.00051641
0.00150283
-0.000581179
0.00153154
-0.000647302
0.00156219
-0.000714865
0.00159501
-0.000783959
0.00163009
-0.000854675
0.00166747
-0.000927104
0.0017072
-0.00100134
0.00174934
-0.00107747
0.00179394
0.0018406
-0.00115559
-0.000208639
-0.000265102
0.0014338
-0.0003237
0.00147575
-0.000383889
0.00150813
-0.000445415
0.00153699
-0.000508205
0.00156562
-0.000572278
0.00159561
-0.000637702
0.00162761
-0.00070456
0.00166186
-0.000772941
0.00169847
-0.000842935
0.00173747
-0.000914631
0.00177889
-0.000988118
0.00182282
-0.00106349
0.00186931
0.00191794
-0.00114082
-0.000259503
0.00148944
-0.000317327
0.00153358
-0.000376772
0.00156758
-0.00043757
0.00159778
-0.000499635
0.00162769
-0.000562985
0.00165896
-0.000627681
0.00169231
-0.000693806
0.00172799
-0.000761446
0.00176611
-0.00083069
0.00180671
-0.000901624
0.00184983
-0.000974336
0.00189553
-0.00104892
0.00194389
0.00199446
-0.00112544
-0.000253665
0.00154422
-0.000310681
0.00159059
-0.000369351
0.00162625
-0.00042939
0.00165782
-0.000490703
0.001689
-0.0005533
0.00172156
-0.00061724
0.00175625
-0.000682603
0.00179335
-0.000749474
0.00183298
-0.000817941
0.00187518
-0.000888087
0.00191998
-0.000959997
0.00196744
-0.00103376
0.00201765
0.00207014
-0.00110944
-0.000247588
0.00159811
-0.000303762
0.00164677
-0.000361625
0.00168411
-0.000420876
0.00171707
-0.000481409
0.00174953
-0.000543225
0.00178337
-0.000606381
0.0018194
-0.000670955
0.00185793
-0.00073703
0.00189906
-0.000804692
0.00194284
-0.000874024
0.00198931
-0.000945106
0.00203852
-0.00101802
0.00209057
0.00214496
-0.00109284
-0.000241273
-0.000296572
0.00170207
-0.000353597
0.00174114
-0.00041203
0.00177551
-0.000471753
0.00180926
-0.00053276
0.00184438
-0.000595105
0.00188175
-0.000658862
0.00192168
-0.000724114
0.00196431
-0.000790946
0.00200967
-0.000859439
0.0020578
-0.000929668
0.00210875
-0.00100172
0.00216261
0.00221889
-0.00107565
-0.00028911
0.00175645
-0.000345266
0.00179729
-0.000402852
0.00183309
-0.000461737
0.00186814
-0.000521907
0.00190455
-0.000583413
0.00194325
-0.000646326
0.0019846
-0.00071073
0.00202871
-0.000776706
0.00207565
-0.000844334
0.00212543
-0.000913689
0.00217811
-0.000984848
0.00223377
0.00229191
-0.00105787
-0.000281376
0.0018099
-0.000336632
0.00185255
-0.000393342
0.0018898
-0.00045136
0.00192616
-0.000510667
0.00196386
-0.000571306
0.00200389
-0.00063335
0.00204664
-0.000696878
0.00209224
-0.000761973
0.00214074
-0.000828714
0.00219217
-0.000897172
0.00224657
-0.000967421
0.00230402
0.002364
-0.00103951
-0.000273373
-0.000327697
0.00190687
-0.000383501
0.00194561
-0.000440625
0.00198328
-0.00049904
0.00202227
-0.000558786
0.00206364
-0.000619933
0.00210779
-0.00068256
0.00215487
-0.000746749
0.00220493
-0.00081258
0.002258
-0.000880121
0.00231411
-0.000949445
0.00237335
0.00243515
-0.00102059
-0.000318461
0.00196023
-0.00037333
0.00200048
-0.000429531
0.00203948
-0.000487028
0.00207977
-0.000545854
0.00212246
-0.000606077
0.00216801
-0.000667777
0.00221657
-0.000731037
0.00226819
-0.000795935
0.0023229
-0.000862541
0.00238072
-0.000930926
0.00244173
0.00250535
-0.00100112
-0.000308923
-0.000362828
0.00205438
-0.00041808
0.00209474
-0.00047463
0.00213632
-0.000532509
0.00218034
-0.000591782
0.00222728
-0.00065253
0.00227731
-0.000714835
0.0023305
-0.000778779
0.00238684
-0.000844434
0.00244637
-0.00091187
0.00250917
0.00257459
-0.000981109
-0.000351998
0.00210729
-0.000406272
0.00214901
-0.000461849
0.0021919
-0.000518754
0.00223725
-0.00057705
0.00228558
-0.000636819
0.00233708
-0.000698145
0.00239182
-0.000761114
0.00244981
-0.000825801
0.00251106
-0.000892283
0.00257565
0.00264288
-0.000960574
-0.000340839
-0.000394107
0.00220228
-0.000448684
0.00224647
-0.000504588
0.00229315
-0.00056188
0.00234287
-0.000620643
0.00239584
-0.000680966
0.00245215
-0.000742936
0.00251178
-0.00080664
0.00257476
-0.00087217
0.00264118
0.00271024
-0.000939534
-0.000381587
0.00225451
-0.000435137
0.00230002
-0.000490012
0.00234803
-0.000546273
0.00239913
-0.000604003
0.00245357
-0.000663294
0.00251144
-0.000724244
0.00257273
-0.000786947
0.00263746
-0.000851529
0.00270576
0.00277673
-0.000918015
-0.000368714
0.00230569
-0.000421208
0.00235252
-0.000475028
0.00240185
-0.000530229
0.00245433
-0.000586896
0.00251024
-0.000645128
0.00256967
-0.000705033
0.00263263
-0.000766713
0.00269914
-0.000830354
0.0027694
0.00284242
-0.000896048
-0.000355487
-0.0004069
0.00240393
-0.000459636
0.00245458
-0.000513749
0.00250845
-0.000569322
0.00256581
-0.000626464
0.00262681
-0.000685295
0.00269147
-0.000745926
0.00275977
-0.00080862
0.0028321
0.00290747
-0.000873675
-0.000392213
-0.000443838
0.00250621
-0.000496833
0.00256144
-0.000551281
0.00262026
-0.000607295
0.00268283
-0.000665024
0.00274919
-0.000724572
0.00281932
-0.000786264
0.00289379
0.00297217
-0.000850964
-0.000427638
0.00255669
-0.000479484