/*--------------------------------*- C++ -*----------------------------------*\
  =========                 |
  \\      /  F ield         | OpenFOAM: The Open Source CFD Toolbox
   \\    /   O peration     | Website:  https://openfoam.org
    \\  /    A nd           | Version:  7
     \\/     M anipulation  |
\*---------------------------------------------------------------------------*/
FoamFile
{
    version     2.0;
    format      ascii;
    class       volScalarField;
    location    "95";
    object      p;
}
// * * * * * * * * * * * * * * * * * * * * * * * * * * * * * * * * * * * * * //

dimensions      [0 2 -2 0 0 0 0];

internalField   nonuniform List<scalar> 
8500
(
-0.372848
-0.373879
-0.374449
-0.37487
-0.375202
-0.375501
-0.375843
-0.37629
-0.376894
-0.377694
-0.37872
-0.379997
-0.381554
-0.383423
-0.385647
-0.388281
-0.391398
-0.395085
-0.399413
-0.404501
-0.371953
-0.3732
-0.373889
-0.374405
-0.374818
-0.375183
-0.375576
-0.376062
-0.376688
-0.377491
-0.378497
-0.379727
-0.381204
-0.382955
-0.385016
-0.387435
-0.390274
-0.39361
-0.397505
-0.402068
-0.371101
-0.372561
-0.373365
-0.373975
-0.374466
-0.374895
-0.375339
-0.375861
-0.376507
-0.37731
-0.378292
-0.379469
-0.38086
-0.382484
-0.384372
-0.386561
-0.389104
-0.392069
-0.395503
-0.399503
-0.37031
-0.371976
-0.372893
-0.373594
-0.374161
-0.374652
-0.375146
-0.375702
-0.376366
-0.377166
-0.37812
-0.379241
-0.380539
-0.38203
-0.383735
-0.385683
-0.387917
-0.390492
-0.393441
-0.396846
-0.369597
-0.371462
-0.372487
-0.373275
-0.373916
-0.374468
-0.375009
-0.375598
-0.376278
-0.377074
-0.377998
-0.379059
-0.380262
-0.381614
-0.383128
-0.384825
-0.386737
-0.38891
-0.391355
-0.394139
-0.368979
-0.371033
-0.37216
-0.373032
-0.373745
-0.374355
-0.374942
-0.375564
-0.376259
-0.377049
-0.377942
-0.378941
-0.380045
-0.381253
-0.382572
-0.384011
-0.385593
-0.387352
-0.389278
-0.391421
-0.368472
-0.370703
-0.371927
-0.372879
-0.373661
-0.374328
-0.37496
-0.375613
-0.376323
-0.377106
-0.377967
-0.378903
-0.379906
-0.380968
-0.382086
-0.383262
-0.384507
-0.385846
-0.387243
-0.388732
-0.368092
-0.370487
-0.371801
-0.372828
-0.373676
-0.374398
-0.375074
-0.375758
-0.376482
-0.377258
-0.378087
-0.378959
-0.37986
-0.380774
-0.381691
-0.3826
-0.383503
-0.384418
-0.38528
-0.386108
-0.367853
-0.370399
-0.371795
-0.372892
-0.373801
-0.374576
-0.375296
-0.37601
-0.376748
-0.377518
-0.378315
-0.379124
-0.379922
-0.380689
-0.381401
-0.382042
-0.382603
-0.383093
-0.383417
-0.383582
-0.36777
-0.370448
-0.37192
-0.373081
-0.374049
-0.374875
-0.375636
-0.37638
-0.377132
-0.377897
-0.378663
-0.379409
-0.380106
-0.380724
-0.381234
-0.381605
-0.381823
-0.38189
-0.381678
-0.381183
-0.367854
-0.370647
-0.372185
-0.373405
-0.374427
-0.375301
-0.376103
-0.376877
-0.377644
-0.378404
-0.37914
-0.379825
-0.380422
-0.380894
-0.381201
-0.381304
-0.38118
-0.380827
-0.380084
-0.378936
-0.368116
-0.371005
-0.372599
-0.373872
-0.374944
-0.375864
-0.376705
-0.377509
-0.378291
-0.379047
-0.379755
-0.380381
-0.38088
-0.381207
-0.381313
-0.38115
-0.380687
-0.379919
-0.378651
-0.376858
-0.368563
-0.371528
-0.373169
-0.374488
-0.375606
-0.376569
-0.377448
-0.378281
-0.379079
-0.379833
-0.380515
-0.381083
-0.381488
-0.381672
-0.38158
-0.381153
-0.380352
-0.379176
-0.377391
-0.374963
-0.369203
-0.372223
-0.373901
-0.375258
-0.376417
-0.37742
-0.378336
-0.379198
-0.380012
-0.380765
-0.381423
-0.381938
-0.38225
-0.382295
-0.382007
-0.381318
-0.380184
-0.378605
-0.376313
-0.37326
-0.370039
-0.373092
-0.374796
-0.376185
-0.37738
-0.37842
-0.379371
-0.380261
-0.381093
-0.381847
-0.382483
-0.382946
-0.383169
-0.383079
-0.382598
-0.381651
-0.380186
-0.37821
-0.375419
-0.371748
-0.371073
-0.374137
-0.375857
-0.377269
-0.378494
-0.379569
-0.380552
-0.38147
-0.38232
-0.383077
-0.383694
-0.384109
-0.384247
-0.384025
-0.383355
-0.382152
-0.380359
-0.37799
-0.374709
-0.370424
-0.372306
-0.375357
-0.377082
-0.37851
-0.37976
-0.380864
-0.381878
-0.382824
-0.383692
-0.384453
-0.385054
-0.385425
-0.385482
-0.385131
-0.384277
-0.382821
-0.380702
-0.377943
-0.374178
-0.369276
-0.373733
-0.37675
-0.378468
-0.379904
-0.381172
-0.382302
-0.383345
-0.384317
-0.385204
-0.385971
-0.386558
-0.386888
-0.386869
-0.386395
-0.385359
-0.383654
-0.38121
-0.378062
-0.373819
-0.36829
-0.375351
-0.37831
-0.38001
-0.381445
-0.382725
-0.383877
-0.384946
-0.385942
-0.386848
-0.387622
-0.388199
-0.388492
-0.3884
-0.387808
-0.386596
-0.384645
-0.381876
-0.37834
-0.373622
-0.367444
-0.37715
-0.38003
-0.381701
-0.383127
-0.384412
-0.38558
-0.386672
-0.387691
-0.388616
-0.389398
-0.389966
-0.390226
-0.390067
-0.389361
-0.387979
-0.385785
-0.382691
-0.378764
-0.373576
-0.366714
-0.379122
-0.381902
-0.383532
-0.384939
-0.386224
-0.387403
-0.388513
-0.389553
-0.390495
-0.391286
-0.391847
-0.392077
-0.391855
-0.391042
-0.389494
-0.387063
-0.383645
-0.379323
-0.373668
-0.366074
-0.381255
-0.383914
-0.385492
-0.386873
-0.388148
-0.389332
-0.390456
-0.391514
-0.392472
-0.393271
-0.393826
-0.394029
-0.393748
-0.392833
-0.391126
-0.388463
-0.384724
-0.380002
-0.373887
-0.365497
-0.383536
-0.386055
-0.387571
-0.388915
-0.390173
-0.391356
-0.392488
-0.393559
-0.39453
-0.395336
-0.395886
-0.396063
-0.395727
-0.394716
-0.392856
-0.389968
-0.38591
-0.380782
-0.374222
-0.364951
-0.385949
-0.388311
-0.389754
-0.391052
-0.392285
-0.393459
-0.394593
-0.395672
-0.396652
-0.397462
-0.398005
-0.398158
-0.39777
-0.396667
-0.394661
-0.391557
-0.387185
-0.381647
-0.374656
-0.364359
-0.388479
-0.390668
-0.392028
-0.393271
-0.394469
-0.395626
-0.396756
-0.397836
-0.398819
-0.399629
-0.400163
-0.40029
-0.399851
-0.39866
-0.396515
-0.393203
-0.388527
-0.382583
-0.375207
-0.363592
-0.391109
-0.393112
-0.394379
-0.395558
-0.396712
-0.397843
-0.398958
-0.400032
-0.401011
-0.401815
-0.402336
-0.402434
-0.401944
-0.400667
-0.398387
-0.394877
-0.389908
-0.383567
-0.375928
-0.362856
-0.393821
-0.395627
-0.396792
-0.397897
-0.398997
-0.400092
-0.401183
-0.402242
-0.403209
-0.403999
-0.404499
-0.404564
-0.404018
-0.402656
-0.400246
-0.396544
-0.391294
-0.384535
-0.376383
-0.362587
-0.396599
-0.398198
-0.399253
-0.400274
-0.40131
-0.402358
-0.403415
-0.404447
-0.405391
-0.406157
-0.406628
-0.406652
-0.406047
-0.404596
-0.402056
-0.39817
-0.392653
-0.385512
-0.37687
-0.362202
-0.399425
-0.400811
-0.401749
-0.402677
-0.403638
-0.404627
-0.405637
-0.406629
-0.407538
-0.408269
-0.408699
-0.408672
-0.407999
-0.406455
-0.403782
-0.399722
-0.393947
-0.386434
-0.377413
-0.361684
-0.402283
-0.403452
-0.404266
-0.405092
-0.405966
-0.406884
-0.407834
-0.408774
-0.409634
-0.410316
-0.410692
-0.410602
-0.40985
-0.408204
-0.4054
-0.401157
-0.395142
-0.387267
-0.377946
-0.36107
-0.40516
-0.40611
-0.406793
-0.407508
-0.408285
-0.409118
-0.409993
-0.410865
-0.411661
-0.412279
-0.412587
-0.412419
-0.411576
-0.409818
-0.406873
-0.40245
-0.396205
-0.38798
-0.378416
-0.360368
-0.408041
-0.408772
-0.409321
-0.409915
-0.410583
-0.411318
-0.412104
-0.412892
-0.413608
-0.414144
-0.414367
-0.414106
-0.413156
-0.411273
-0.408178
-0.403573
-0.397104
-0.388541
-0.37878
-0.359574
-0.410916
-0.411431
-0.41184
-0.412306
-0.412853
-0.413476
-0.414157
-0.414845
-0.415463
-0.415901
-0.416021
-0.415649
-0.414576
-0.412553
-0.409297
-0.404503
-0.397813
-0.388924
-0.378993
-0.358686
-0.413776
-0.414079
-0.414344
-0.414674
-0.415089
-0.415587
-0.416147
-0.416718
-0.41722
-0.417541
-0.417541
-0.417041
-0.415828
-0.41365
-0.410219
-0.405229
-0.398317
-0.389118
-0.379015
-0.357709
-0.416614
-0.416711
-0.41683
-0.417016
-0.417288
-0.417646
-0.41807
-0.418507
-0.418875
-0.419062
-0.418923
-0.418278
-0.416908
-0.41456
-0.410941
-0.405747
-0.398609
-0.389123
-0.378817
-0.356673
-0.419427
-0.419324
-0.419294
-0.41933
-0.419448
-0.419654
-0.419926
-0.420212
-0.42043
-0.420465
-0.420169
-0.419361
-0.417819
-0.415286
-0.411469
-0.406063
-0.39869
-0.388953
-0.378382
-0.355635
-0.422214
-0.421919
-0.421738
-0.421616
-0.421571
-0.421612
-0.421718
-0.421837
-0.421887
-0.421753
-0.421285
-0.420297
-0.418567
-0.415836
-0.411811
-0.40619
-0.398576
-0.388632
-0.377653
-0.354537
-0.424975
-0.424496
-0.424163
-0.423878
-0.423661
-0.423525
-0.42345
-0.423387
-0.423255
-0.422936
-0.422279
-0.421097
-0.419165
-0.416225
-0.411985
-0.406152
-0.398304
-0.388226
-0.37652
-0.353026
-0.427717
-0.42706
-0.426574
-0.426121
-0.425723
-0.425399
-0.425131
-0.424873
-0.424543
-0.424024
-0.423164
-0.421774
-0.419627
-0.416468
-0.412009
-0.405975
-0.39794
-0.387885
-0.375134
-0.351359
-0.430444
-0.429617
-0.428978
-0.428351
-0.427765
-0.427243
-0.426771
-0.426305
-0.425765
-0.425033
-0.423956
-0.422344
-0.419971
-0.416582
-0.411901
-0.405679
-0.397524
-0.387722
-0.374378
-0.35383
-0.433166
-0.432176
-0.431381
-0.430578
-0.429796
-0.429068
-0.428382
-0.427697
-0.426935
-0.425978
-0.424672
-0.422826
-0.420213
-0.416583
-0.411672
-0.405265
-0.397019
-0.387515
-0.374719
-0.367566
-0.435896
-0.434745
-0.433795
-0.43281
-0.431828
-0.430885
-0.429977
-0.429064
-0.42807
-0.426877
-0.425331
-0.423237
-0.420371
-0.416487
-0.411333
-0.404726
-0.396373
-0.387066
-0.374606
-0.37025
-0.438644
-0.437337
-0.436229
-0.43506
-0.433872
-0.43271
-0.431572
-0.430423
-0.429187
-0.427749
-0.42595
-0.423597
-0.420463
-0.416307
-0.41089
-0.404057
-0.395552
-0.386249
-0.373832
-0.369452
-0.441426
-0.439963
-0.438696
-0.437339
-0.435942
-0.434555
-0.433182
-0.43179
-0.430305
-0.428611
-0.426549
-0.423922
-0.420503
-0.416056
-0.410352
-0.403256
-0.394544
-0.385081
-0.372566
-0.367341
-0.444256
-0.442637
-0.441208
-0.439661
-0.43805
-0.436435
-0.434822
-0.433182
-0.431441
-0.429483
-0.427145
-0.424229
-0.420507
-0.415745
-0.409724
-0.402327
-0.39335
-0.383604
-0.370896
-0.364465
-0.447151
-0.445371
-0.443778
-0.442038
-0.440212
-0.438365
-0.436509
-0.434615
-0.432612
-0.43038
-0.427754
-0.424531
-0.420485
-0.415383
-0.409015
-0.401275
-0.391981
-0.381866
-0.368906
-0.361188
-0.44818
-0.44642
-0.444484
-0.44244
-0.44036
-0.438257
-0.436106
-0.433833
-0.431317
-0.428389
-0.424842
-0.420447
-0.414977
-0.408229
-0.400107
-0.390452
-0.379913
-0.366671
-0.357736
-0.449145
-0.447011
-0.444747
-0.442432
-0.44008
-0.437667
-0.435119
-0.432308
-0.429062
-0.42517
-0.420401
-0.414532
-0.407371
-0.398833
-0.38878
-0.377787
-0.364258
-0.354234
-0.449631
-0.447146
-0.444594
-0.441992
-0.439313
-0.436481
-0.433363
-0.429781
-0.425521
-0.42035
-0.414052
-0.406447
-0.397461
-0.386984
-0.375526
-0.361714
-0.35075
-0.452356
-0.449649
-0.446859
-0.444004
-0.441054
-0.437928
-0.43449
-0.430553
-0.425899
-0.420297
-0.413539
-0.405459
-0.395999
-0.38508
-0.37316
-0.35908
-0.347321
-0.452264
-0.449236
-0.446124
-0.442899
-0.43947
-0.435694
-0.43138
-0.426304
-0.420242
-0.412992
-0.404409
-0.394455
-0.383082
-0.370713
-0.35638
-0.343959
-0.451733
-0.448362
-0.444853
-0.441109
-0.436978
-0.432262
-0.426736
-0.420181
-0.412409
-0.403299
-0.392835
-0.381005
-0.368202
-0.353635
-0.340667
-0.450723
-0.446922
-0.442848
-0.438342
-0.433197
-0.427191
-0.42011
-0.411789
-0.40213
-0.391145
-0.378857
-0.365642
-0.350857
-0.337438
-0.449107
-0.444687
-0.439781
-0.43418
-0.42766
-0.420024
-0.411126
-0.4009
-0.389387
-0.376646
-0.36304
-0.348053
-0.334263
-0.446623
-0.441292
-0.435201
-0.428136
-0.419913
-0.410415
-0.399609
-0.387565
-0.374379
-0.360402
-0.345226
-0.33113
-0.442865
-0.436253
-0.428609
-0.419769
-0.409649
-0.398252
-0.385679
-0.372057
-0.35773
-0.342377
-0.328024
-0.437323
-0.429066
-0.419583
-0.408823
-0.396827
-0.383728
-0.369682
-0.355025
-0.339504
-0.324934
-0.429494
-0.419342
-0.407927
-0.39533
-0.381712
-0.367254
-0.352283
-0.336604
-0.321846
-0.406955
-0.393755
-0.379627
-0.36477
-0.349502
-0.33367
-0.318748
-0.392097
-0.37747
-0.362228
-0.346677
-0.330699
-0.315626
-0.375235
-0.359623
-0.343802
-0.327681
-0.312471
-0.340869
-0.324612
-0.309271
-0.321481
-0.306016
-0.31827
-0.30565
-0.334068
-0.320873
-0.308601
-0.3615
-0.348858
-0.3362
-0.323392
-0.311487
-0.374133
-0.362431
-0.350379
-0.338232
-0.325831
-0.314314
-0.394348
-0.384659
-0.374228
-0.363216
-0.351776
-0.340166
-0.328194
-0.31709
-0.400907
-0.392788
-0.383852
-0.374165
-0.363856
-0.35305
-0.342005
-0.330485
-0.319823
-0.405243
-0.398539
-0.391102
-0.382896
-0.373947
-0.364351
-0.354199
-0.343747
-0.332706
-0.322522
-0.407874
-0.402257
-0.396104
-0.389305
-0.381799
-0.373576
-0.364699
-0.355221
-0.345393
-0.334858
-0.325196
-0.409399
-0.404495
-0.399275
-0.393619
-0.387411
-0.380569
-0.373056
-0.364899
-0.356114
-0.346941
-0.336941
-0.327855
-0.41031
-0.405824
-0.401187
-0.396314
-0.3911
-0.385432
-0.379217
-0.372392
-0.364952
-0.356873
-0.348387
-0.338955
-0.330509
-0.410906
-0.406677
-0.40237
-0.397961
-0.393388
-0.388564
-0.383385
-0.377754
-0.371587
-0.364857
-0.357494
-0.349728
-0.340897
-0.333169
-0.411281
-0.407285
-0.403196
-0.399044
-0.394827
-0.390509
-0.386024
-0.381284
-0.37619
-0.37065
-0.364614
-0.357974
-0.350958
-0.342764
-0.335848
-0.411388
-0.407697
-0.403834
-0.399867
-0.395847
-0.391791
-0.387689
-0.383496
-0.379143
-0.37454
-0.369588
-0.364225
-0.358307
-0.352072
-0.344548
-0.338557
-0.411098
-0.407838
-0.40429
-0.400548
-0.396691
-0.392782
-0.38886
-0.384937
-0.380994
-0.376979
-0.372817
-0.368412
-0.363695
-0.35849
-0.353061
-0.346241
-0.341306
-0.410241
-0.407572
-0.404472
-0.401058
-0.397427
-0.393666
-0.389851
-0.386039
-0.382264
-0.378529
-0.374807
-0.371038
-0.367134
-0.363028
-0.358519
-0.353914
-0.34783
-0.344103
-0.406738
-0.404239
-0.401288
-0.397999
-0.394469
-0.390792
-0.387055
-0.383333
-0.379677
-0.376116
-0.372643
-0.369219
-0.365768
-0.362232
-0.358393
-0.354621
-0.349297
-0.346949
-0.405205
-0.403439
-0.401098
-0.398287
-0.395111
-0.391672
-0.388068
-0.384398
-0.380747
-0.377188
-0.373769
-0.370505
-0.36738
-0.364331
-0.361318
-0.358111
-0.355166
-0.350619
-0.349829
-0.40298
-0.401949
-0.400344
-0.39815
-0.395466
-0.392395
-0.389037
-0.385498
-0.381881
-0.378287
-0.374804
-0.3715
-0.36841
-0.365539
-0.362843
-0.360301
-0.357676
-0.35553
-0.351763
-0.352707
-0.39973
-0.398912
-0.397454
-0.395395
-0.392828
-0.389851
-0.386566
-0.383082
-0.37951
-0.375961
-0.372538
-0.369324
-0.366376
-0.363719
-0.361326
-0.359197
-0.357094
-0.355694
-0.35269
-0.3555
-0.396723
-0.396095
-0.394771
-0.392833
-0.390372
-0.387481
-0.384262
-0.380825
-0.37729
-0.373776
-0.370398
-0.367256
-0.364423
-0.361942
-0.359806
-0.35803
-0.356378
-0.355632
-0.353351
-0.358046
-0.393962
-0.393501
-0.392295
-0.390467
-0.388101
-0.385287
-0.382126
-0.378732
-0.375228
-0.371742
-0.368399
-0.365312
-0.362572
-0.360235
-0.358311
-0.356827
-0.355548
-0.355321
-0.353692
-0.360071
-0.391449
-0.391131
-0.390025
-0.388295
-0.386016
-0.383272
-0.380164
-0.376808
-0.373331
-0.369868
-0.366553
-0.36351
-0.360842
-0.358622
-0.356871
-0.355622
-0.354636
-0.354728
-0.353632
-0.361221
-0.389184
-0.38898
-0.387966
-0.38632
-0.384118
-0.381437
-0.378379
-0.375058
-0.371607
-0.368164
-0.364872
-0.361864
-0.359256
-0.357131
-0.35552
-0.354454
-0.353688
-0.353837
-0.35294
-0.359379
-0.387167
-0.38705
-0.386111
-0.384539
-0.382406
-0.379784
-0.376772
-0.373487
-0.370062
-0.36664
-0.36337
-0.360393
-0.357835
-0.355788
-0.354293
-0.35337
-0.352779
-0.35279
-0.35181
-0.34556
-0.385396
-0.385339
-0.38446
-0.382951
-0.38088
-0.378313
-0.375347
-0.372099
-0.368702
-0.365304
-0.362057
-0.359111
-0.356597
-0.354618
-0.353222
-0.352422
-0.351996
-0.351809
-0.35152
-0.34212
-0.383865
-0.383841
-0.383007
-0.381552
-0.379537
-0.377023
-0.374104
-0.370895
-0.367531
-0.364162
-0.360945
-0.358032
-0.355562
-0.353645
-0.35234
-0.351656
-0.351427
-0.351235
-0.352115
-0.343141
-0.382568
-0.382551
-0.381749
-0.380338
-0.378373
-0.37591
-0.37304
-0.369876
-0.366552
-0.363221
-0.36004
-0.357166
-0.354743
-0.352888
-0.35167
-0.351104
-0.351093
-0.35106
-0.352895
-0.344568
-0.381494
-0.381459
-0.380676
-0.379302
-0.377383
-0.374971
-0.372153
-0.369039
-0.365764
-0.36248
-0.359345
-0.35652
-0.354151
-0.352362
-0.35123
-0.350784
-0.350985
-0.351182
-0.353662
-0.346053
-0.380634
-0.380557
-0.379781
-0.378436
-0.37656
-0.374199
-0.371437
-0.368381
-0.365165
-0.361939
-0.358863
-0.356098
-0.353793
-0.352076
-0.351034
-0.350708
-0.351102
-0.351565
-0.354495
-0.347883
-0.379972
-0.379832
-0.379054
-0.377731
-0.375894
-0.373586
-0.370884
-0.367894
-0.364748
-0.361593
-0.35859
-0.355899
-0.35367
-0.352035
-0.35109
-0.350885
-0.351457
-0.35221
-0.355462
-0.350095
-0.379493
-0.379274
-0.378482
-0.377177
-0.375377
-0.373123
-0.370487
-0.367571
-0.364505
-0.361436
-0.358521
-0.355919
-0.353782
-0.352241
-0.3514
-0.351322
-0.352062
-0.353116
-0.356602
-0.352617
-0.379181
-0.378866
-0.378055
-0.376762
-0.374998
-0.372799
-0.370234
-0.367401
-0.364428
-0.361457
-0.358646
-0.35615
-0.35412
-0.352689
-0.351964
-0.35202
-0.352925
-0.35428
-0.357945
-0.355389
-0.379018
-0.378595
-0.377759
-0.376473
-0.374743
-0.372602
-0.370114
-0.367373
-0.364503
-0.361646
-0.358954
-0.356581
-0.354675
-0.353369
-0.352774
-0.352974
-0.354047
-0.355699
-0.359517
-0.358362
-0.378985
-0.378446
-0.377579
-0.376298
-0.374603
-0.372521
-0.370114
-0.367473
-0.364718
-0.361988
-0.359431
-0.357197
-0.355433
-0.354269
-0.35382
-0.354176
-0.355423
-0.357366
-0.361333
-0.361488
-0.379062
-0.378402
-0.377502
-0.376224
-0.374563
-0.372544
-0.370223
-0.36769
-0.36506
-0.362469
-0.360061
-0.357984
-0.356378
-0.355373
-0.355085
-0.355609
-0.35704
-0.359267
-0.363389
-0.364723
-0.379232
-0.378449
-0.377513
-0.376238
-0.374611
-0.372657
-0.370427
-0.368009
-0.365514
-0.363073
-0.360829
-0.358922
-0.35749
-0.356661
-0.356548
-0.357255
-0.35888
-0.361382
-0.36567
-0.368027
-0.379474
-0.37857
-0.377599
-0.376327
-0.374735
-0.372848
-0.370714
-0.368417
-0.366065
-0.363786
-0.361716
-0.359993
-0.358749
-0.35811
-0.358188
-0.359089
-0.360918
-0.363687
-0.368151
-0.371367
-0.379771
-0.37875
-0.377746
-0.376477
-0.374923
-0.373105
-0.371071
-0.3689
-0.366699
-0.36459
-0.362705
-0.361177
-0.360133
-0.359695
-0.359976
-0.361082
-0.363123
-0.366152
-0.370799
-0.374719
-0.380105
-0.378975
-0.37794
-0.376677
-0.375162
-0.373417
-0.371486
-0.369447
-0.367401
-0.365469
-0.363777
-0.362453
-0.361619
-0.361393
-0.361885
-0.363205
-0.365463
-0.368742
-0.373576
-0.378064
-0.38046
-0.37923
-0.378168
-0.376915
-0.375442
-0.373772
-0.371947
-0.370042
-0.368158
-0.366408
-0.364915
-0.363801
-0.363183
-0.363175
-0.363886
-0.365424
-0.367902
-0.371423
-0.376444
-0.381387
-0.38082
-0.379501
-0.378419
-0.377179
-0.375751
-0.374158
-0.372442
-0.370675
-0.368954
-0.36739
-0.3661
-0.365199
-0.364801
-0.365016
-0.365948
-0.367707
-0.370405
-0.374158
-0.379364
-0.384674
-0.38117
-0.379776
-0.378681
-0.377459
-0.376078
-0.374565
-0.37296
-0.371332
-0.369777
-0.3684
-0.367313
-0.366627
-0.366451
-0.366888
-0.368042
-0.37002
-0.372935
-0.376911
-0.382299
-0.387911
-0.381496
-0.380043
-0.378941
-0.377742
-0.376414
-0.374983
-0.37349
-0.372002
-0.370613
-0.369422
-0.368538
-0.368066
-0.368108
-0.368765
-0.370137
-0.372331
-0.375458
-0.379647
-0.385212
-0.39108
-0.381787
-0.38029
-0.379191
-0.378021
-0.376748
-0.375402
-0.374021
-0.372674
-0.371448
-0.370442
-0.369757
-0.369494
-0.36975
-0.370622
-0.372207
-0.37461
-0.37794
-0.382333
-0.388068
-0.394162
-0.382031
-0.380508
-0.37942
-0.378285
-0.377072
-0.375812
-0.374544
-0.373335
-0.372271
-0.371445
-0.370954
-0.370894
-0.371357
-0.372435
-0.374225
-0.376827
-0.380351
-0.384935
-0.390832
-0.397134
-0.382218
-0.380687
-0.37962
-0.378526
-0.377377
-0.376205
-0.375049
-0.373976
-0.373069
-0.372417
-0.372113
-0.372247
-0.372908
-0.374182
-0.376164
-0.378954
-0.38266
-0.387424
-0.393474
-0.399971
-0.38234
-0.38082
-0.379782
-0.378736
-0.377655
-0.376571
-0.375527
-0.374586
-0.373831
-0.373346
-0.37322
-0.373538
-0.374384
-0.375843
-0.378004
-0.380968
-0.384842
-0.389772
-0.395962
-0.402645
-0.382388
-0.380898
-0.3799
-0.378908
-0.377898
-0.376904
-0.375969
-0.375157
-0.374547
-0.374221
-0.374263
-0.374753
-0.375771
-0.377399
-0.379724
-0.382847
-0.386873
-0.391951
-0.398269
-0.405129
-0.382357
-0.380916
-0.379967
-0.379036
-0.378099
-0.377196
-0.376368
-0.37568
-0.375208
-0.375032
-0.375229
-0.375878
-0.377053
-0.378834
-0.381307
-0.38457
-0.38873
-0.39394
-0.400369
-0.407393
-0.382243
-0.380869
-0.379978
-0.379113
-0.378254
-0.377441
-0.376717
-0.376148
-0.375806
-0.375768
-0.376109
-0.376902
-0.378218
-0.380135
-0.382737
-0.386121
-0.390397
-0.395718
-0.402237
-0.409412
-0.382041
-0.380753
-0.379929
-0.379137
-0.378358
-0.377634
-0.377012
-0.376554
-0.376334
-0.376424
-0.376895
-0.377816
-0.379257
-0.381292
-0.384003
-0.387489
-0.391857
-0.397266
-0.403853
-0.411158
-0.381751
-0.380566
-0.379818
-0.379103
-0.378406
-0.377772
-0.377246
-0.376895
-0.376787
-0.376993
-0.377581
-0.378615
-0.380163
-0.382296
-0.385097
-0.388661
-0.393099
-0.39857
-0.4052
-0.412609
-0.381371
-0.380307
-0.379643
-0.37901
-0.378397
-0.37785
-0.377419
-0.377166
-0.377162
-0.377473
-0.378163
-0.379295
-0.380932
-0.383144
-0.386012
-0.389632
-0.394115
-0.39962
-0.406264
-0.413745
-0.380904
-0.379977
-0.379404
-0.378857
-0.37833
-0.377869
-0.377527
-0.377367
-0.377457
-0.377861
-0.378639
-0.379853
-0.381561
-0.383832
-0.386746
-0.390398
-0.394899
-0.400409
-0.407033
-0.41455
-0.380352
-0.379577
-0.379102
-0.378644
-0.378204
-0.377828
-0.377571
-0.377497
-0.377672
-0.378157
-0.379011
-0.38029
-0.382051
-0.384362
-0.3873
-0.390959
-0.39545
-0.400931
-0.407503
-0.415012
-0.379719
-0.379111
-0.378739
-0.378374
-0.378021
-0.377728
-0.377552
-0.377558
-0.377808
-0.378364
-0.37928
-0.380609
-0.382407
-0.384737
-0.387677
-0.391318
-0.39577
-0.401189
-0.407672
-0.415125
-0.379013
-0.378583
-0.378321
-0.378051
-0.377785
-0.377573
-0.377474
-0.377552
-0.377871
-0.378486
-0.379452
-0.380816
-0.382633
-0.384964
-0.387883
-0.391481
-0.395865
-0.401188
-0.407544
-0.414884
-0.378241
-0.378
-0.377851
-0.377679
-0.3775
-0.377368
-0.377341
-0.377487
-0.377865
-0.37853
-0.379532
-0.380918
-0.382739
-0.385052
-0.387929
-0.391458
-0.395745
-0.400935
-0.407132
-0.414288
-0.377412
-0.37737
-0.377338
-0.377264
-0.377173
-0.377117
-0.37716
-0.377367
-0.377797
-0.378503
-0.379531
-0.380926
-0.382734
-0.385011
-0.387825
-0.391261
-0.395421
-0.400443
-0.40642
-0.413384
-0.376537
-0.376703
-0.376789
-0.376814
-0.37681
-0.376829
-0.376938
-0.377201
-0.377676
-0.378415
-0.379459
-0.38085
-0.382632
-0.384856
-0.387587
-0.390905
-0.394909
-0.399728
-0.40545
-0.412155
-0.37563
-0.376007
-0.376214
-0.376339
-0.376421
-0.376513
-0.376684
-0.376999
-0.377514
-0.378277
-0.379328
-0.380704
-0.382446
-0.384602
-0.387231
-0.390409
-0.394229
-0.398811
-0.40424
-0.410622
-0.374702
-0.375296
-0.375624
-0.375849
-0.376016
-0.376179
-0.376409
-0.376771
-0.37732
-0.378101
-0.379151
-0.380503
-0.382193
-0.384266
-0.386776
-0.389792
-0.393401
-0.397713
-0.402812
-0.408814
-0.37377
-0.374582
-0.375032
-0.375355
-0.375605
-0.375838
-0.376125
-0.376531
-0.377109
-0.377902
-0.378943
-0.380261
-0.38189
-0.383866
-0.38624
-0.389075
-0.392449
-0.396462
-0.401193
-0.406762
-0.413875
-0.428232
-0.446431
-0.466616
-0.488348
-0.508619
-0.524982
-0.533694
-0.53171
-0.516146
-0.48565
-0.441634
-0.389266
-0.335541
-0.287081
-0.247571
-0.410392
-0.423491
-0.440158
-0.458656
-0.478721
-0.497406
-0.512445
-0.520163
-0.517643
-0.502156
-0.472498
-0.430123
-0.379974
-0.328653
-0.282503
-0.245031
-0.406778
-0.418513
-0.433572
-0.450264
-0.468551
-0.485539
-0.499173
-0.505856
-0.502809
-0.487441
-0.458701
-0.418034
-0.370158
-0.321282
-0.277471
-0.24206
-0.403088
-0.413355
-0.426739
-0.441516
-0.457918
-0.473101
-0.485245
-0.490849
-0.487271
-0.47207
-0.444287
-0.405393
-0.359829
-0.313425
-0.271974
-0.23864
-0.399377
-0.408075
-0.419732
-0.432492
-0.446908
-0.46018
-0.470749
-0.475222
-0.4711
-0.456098
-0.429299
-0.392236
-0.349002
-0.305083
-0.266002
-0.234757
-0.395697
-0.402734
-0.412622
-0.423275
-0.435614
-0.446874
-0.455779
-0.459064
-0.454373
-0.439583
-0.413773
-0.378597
-0.337692
-0.296258
-0.259547
-0.230399
-0.392102
-0.397388
-0.405481
-0.413948
-0.424129
-0.433281
-0.440435
-0.442468
-0.43717
-0.422594
-0.397893
-0.364385
-0.325918
-0.286957
-0.252608
-0.22556
-0.38864
-0.392096
-0.398381
-0.404597
-0.412549
-0.419505
-0.424821
-0.425534
-0.419576
-0.4052
-0.381577
-0.349783
-0.313701
-0.277189
-0.245186
-0.220239
-0.385355
-0.38691
-0.391388
-0.395302
-0.400968
-0.405651
-0.409043
-0.408364
-0.401629
-0.387473
-0.364887
-0.334817
-0.301063
-0.26697
-0.237289
-0.214442
-0.382289
-0.381881
-0.384566
-0.386143
-0.38948
-0.391822
-0.393211
-0.39106
-0.383419
-0.369501
-0.347901
-0.3195
-0.288029
-0.25632
-0.228929
-0.208178
-0.379478
-0.377054
-0.377972
-0.377193
-0.378173
-0.378119
-0.37743
-0.373737
-0.366255
-0.351375
-0.33068
-0.303923
-0.27458
-0.245264
-0.220124
-0.201465
-0.376951
-0.372469
-0.37166
-0.36852
-0.367129
-0.364641
-0.361806
-0.356466
-0.34788
-0.333137
-0.313288
-0.288164
-0.260743
-0.233833
-0.2109
-0.194326
-0.374735
-0.368161
-0.365676
-0.360188
-0.356425
-0.351479
-0.346442
-0.339371
-0.329646
-0.314889
-0.29579
-0.272195
-0.246662
-0.222064
-0.201288
-0.18679
-0.372847
-0.36416
-0.360057
-0.35225
-0.346131
-0.338719
-0.331437
-0.322565
-0.311683
-0.296729
-0.278266
-0.256077
-0.23239
-0.209993
-0.191328
-0.178892
-0.3713
-0.36049
-0.354838
-0.344754
-0.336307
-0.326439
-0.316884
-0.306154
-0.294051
-0.278754
-0.260798
-0.239896
-0.217963
-0.19767
-0.181066
-0.170672
-0.370099
-0.357168
-0.350042
-0.337738
-0.327004
-0.314706
-0.302867
-0.290234
-0.27684
-0.261065
-0.243475
-0.223735
-0.203439
-0.185147
-0.170553
-0.162178
-0.369244
-0.354205
-0.345689
-0.331236
-0.318267
-0.303579
-0.289461
-0.274891
-0.260141
-0.243752
-0.226386
-0.207673
-0.188893
-0.172486
-0.159846
-0.15346
-0.368725
-0.351606
-0.341788
-0.325271
-0.31013
-0.293109
-0.27673
-0.260205
-0.244036
-0.22687
-0.209625
-0.191797
-0.17441
-0.159755
-0.149008
-0.14457
-0.368529
-0.349371
-0.338343
-0.31986
-0.302619
-0.283333
-0.264728
-0.246247
-0.228593
-0.210714
-0.193298
-0.176194
-0.160077
-0.147026
-0.138105
-0.135568
-0.141347
-0.368633
-0.347492
-0.335352
-0.315012
-0.295752
-0.274283
-0.253501
-0.233074
-0.213885
-0.196243
-0.177504
-0.160951
-0.145986
-0.134378
-0.127206
-0.12651
-0.134166
-0.369011
-0.345953
-0.332803
-0.310728
-0.289541
-0.265979
-0.243081
-0.220736
-0.199947
-0.180974
-0.162289
-0.146153
-0.132225
-0.121895
-0.116381
-0.117457
-0.126933
-0.369628
-0.344736
-0.330679
-0.307003
-0.283988
-0.258436
-0.233494
-0.209274
-0.186876
-0.166595
-0.147765
-0.131875
-0.118887
-0.109663
-0.105701
-0.108467
-0.119693
-0.370446
-0.343817
-0.328956
-0.303822
-0.279087
-0.251658
-0.224758
-0.19872
-0.17474
-0.153264
-0.134008
-0.118169
-0.10607
-0.097767
-0.0952364
-0.0995972
-0.11249
-0.371449
-0.343172
-0.3276
-0.301164
-0.274828
-0.245643
-0.21688
-0.189095
-0.163572
-0.140943
-0.121084
-0.10505
-0.0938933
-0.0862902
-0.0850523
-0.0909013
-0.105364
-0.372649
-0.342744
-0.326574
-0.299002
-0.27119
-0.240382
-0.209861
-0.180409
-0.15339
-0.129619
-0.109052
-0.0925725
-0.0824588
-0.0753047
-0.0752113
-0.0824298
-0.0983538
-0.373871
-0.342438
-0.32587
-0.297305
-0.26815
-0.235857
-0.203695
-0.172664
-0.144202
-0.119303
-0.0979206
-0.0815727
-0.071114
-0.0648638
-0.0657699
-0.0742284
-0.0914925
-0.374832
-0.342414
-0.32547
-0.29603
-0.265677
-0.232047
-0.198374
-0.165855
-0.136018
-0.109987
-0.0876465
-0.0714427
-0.0606249
-0.0550227
-0.0567771
-0.0663378
-0.0848109
-0.375772
-0.342774
-0.32505
-0.295121
-0.263721
-0.228933
-0.193883
-0.159972
-0.128831
-0.101625
-0.0787684
-0.0622701
-0.0510048
-0.0458188
-0.0482763
-0.0587929
-0.0783352
-0.376676
-0.343182
-0.32483
-0.294539
-0.2622
-0.226478
-0.190163
-0.155009
-0.12261
-0.0942127
-0.0712627
-0.0532863
-0.0422047
-0.0372882
-0.040302
-0.0516231
-0.0720879
-0.377458
-0.343631
-0.324751
-0.294252
-0.261192
-0.224538
-0.187135
-0.150948
-0.11733
-0.0878676
-0.063739
-0.0453915
-0.0342371
-0.0294562
-0.0328808
-0.0448516
-0.0660875
-0.378058
-0.34412
-0.324748
-0.294172
-0.260567
-0.223241
-0.184952
-0.147666
-0.113035
-0.0824899
-0.0573295
-0.0385424
-0.0271024
-0.0223401
-0.0260314
-0.0384962
-0.060349
-0.378417
-0.34462
-0.324782
-0.29425
-0.26027
-0.222456
-0.18344
-0.145255
-0.109656
-0.0781399
-0.0521403
-0.0326398
-0.0208044
-0.0159486
-0.0197655
-0.0325694
-0.0548838
-0.378473
-0.345099
-0.32482
-0.294444
-0.260258
-0.222132
-0.18256
-0.143642
-0.107178
-0.0747881
-0.0479869
-0.0276594
-0.0153436
-0.0102838
-0.0140889
-0.0270791
-0.0497004
-0.0813151
-0.378159
-0.345521
-0.324832
-0.294713
-0.260491
-0.222231
-0.182282
-0.142778
-0.105572
-0.0723693
-0.0447756
-0.0235987
-0.0107144
-0.0053438
-0.00900318
-0.0220297
-0.0448049
-0.0766028
-0.3774
-0.34584
-0.324786
-0.295008
-0.260911
-0.222693
-0.182543
-0.142605
-0.10478
-0.0708322
-0.0424734
-0.0204528
-0.00690489
-0.0011222
-0.00450692
-0.0174238
-0.0402031
-0.0720482
-0.376097
-0.345983
-0.324635
-0.295268
-0.261443
-0.223427
-0.183243
-0.143022
-0.104704
-0.0700967
-0.0410204
-0.0181694
-0.00388548
0.00239818
-0.00059265
-0.0132626
-0.0359025
-0.0676639
-0.374167
-0.345929
-0.3244
-0.295506
-0.262093
-0.22443
-0.184373
-0.144017
-0.105326
-0.0701423
-0.0403873
-0.016768
-0.00164832
0.00522384
0.00274812
-0.00953696
-0.0318953
-0.0634434
-0.371698
-0.345805
-0.324269
-0.295956
-0.263133
-0.226012
-0.186263
-0.145923
-0.106964
-0.0712547
-0.0408077
-0.0171118
-0.000345221
0.00725537
0.00546834
-0.00624262
-0.0281301
-0.0592919
-0.368523
-0.345323
-0.324042
-0.296442
-0.264395
-0.228018
-0.188776
-0.148626
-0.109537
-0.0733997
-0.0422929
-0.018324
-4.75456e-05
0.00839444
0.00743613
-0.00351629
-0.0247173
-0.0552711
-0.362425
-0.342759
-0.322015
-0.294902
-0.263427
-0.227652
-0.188883
-0.149018
-0.110017
-0.0737873
-0.0424001
-0.0175019
0.00068069
0.00954236
0.00896462
-0.001624
-0.0224579
-0.0526485
-0.349901
-0.337934
-0.318022
-0.290847
-0.259351
-0.22362
-0.184895
-0.145053
-0.106042
-0.0697639
-0.0381732
-0.0126082
0.00485513
0.0135104
0.0125856
0.00141754
-0.0202385
-0.0514011
-0.337679
-0.328878
-0.309479
-0.282621
-0.251816
-0.217045
-0.179396
-0.140658
-0.102706
-0.0673929
-0.0365984
-0.0119489
0.00521639
0.013515
0.0123398
0.00107114
-0.0204791
-0.051268
-0.327529
-0.318792
-0.299622
-0.273334
-0.243437
-0.209856
-0.173545
-0.136194
-0.0995944
-0.0655422
-0.0358449
-0.0120931
0.00424816
0.0119412