/*--------------------------------*- C++ -*----------------------------------*\
  =========                 |
  \\      /  F ield         | OpenFOAM: The Open Source CFD Toolbox
   \\    /   O peration     | Website:  https://openfoam.org
    \\  /    A nd           | Version:  7
     \\/     M anipulation  |
\*---------------------------------------------------------------------------*/
FoamFile
{
    version     2.0;
    format      ascii;
    class       volScalarField;
    location    "10";
    object      p;
}
// * * * * * * * * * * * * * * * * * * * * * * * * * * * * * * * * * * * * * //

dimensions      [0 2 -2 0 0 0 0];

internalField   nonuniform List<scalar> 
3025
(
-0.526494
-0.5352
-0.514383
-0.543535
-0.521819
-0.505372
-0.489852
-0.551423
-0.528854
-0.511852
-0.495845
-0.479968
-0.558781
-0.535411
-0.517895
-0.501435
-0.485094
-0.469087
-0.453282
-0.565523
-0.541408
-0.523423
-0.506545
-0.489763
-0.473269
-0.456901
-0.44049
-0.571555
-0.546759
-0.528352
-0.511093
-0.493894
-0.476921
-0.45998
-0.442883
-0.425485
-0.407667
-0.576777
-0.551373
-0.532596
-0.514994
-0.497402
-0.479956
-0.462435
-0.444634
-0.4264
-0.407623
-0.388211
-0.36795
-0.581088
-0.555154
-0.536062
-0.518157
-0.500196
-0.482286
-0.46418
-0.445658
-0.426571
-0.406821
-0.386348
-0.365008
-0.343355
-0.322892
-0.584382
-0.558004
-0.538656
-0.52049
-0.502186
-0.483821
-0.465124
-0.445869
-0.425916
-0.40519
-0.383667
-0.361281
-0.338578
-0.316787
-0.586552
-0.559824
-0.540282
-0.521898
-0.503278
-0.484467
-0.465177
-0.445181
-0.424354
-0.402656
-0.380105
-0.356715
-0.333026
-0.310031
-0.587489
-0.560513
-0.540841
-0.522283
-0.503375
-0.48413
-0.464248
-0.443507
-0.421808
-0.399149
-0.375601
-0.351257
-0.326652
-0.302579
-0.587085
-0.559968
-0.540234
-0.52155
-0.502381
-0.482717
-0.462247
-0.440763
-0.418201
-0.394603
-0.370097
-0.344858
-0.319413
-0.294387
-0.585235
-0.55809
-0.538365
-0.519601
-0.500203
-0.480135
-0.459085
-0.436869
-0.41346
-0.388953
-0.363541
-0.337475
-0.311271
-0.285416
-0.581834
-0.554782
-0.535136
-0.516342
-0.496748
-0.476295
-0.45468
-0.431747
-0.407516
-0.382144
-0.355884
-0.329067
-0.302193
-0.275633
-0.576786
-0.549948
-0.530457
-0.511682
-0.491926
-0.471112
-0.448951
-0.425325
-0.400309
-0.374122
-0.347085
-0.319603
-0.292154
-0.265012
-0.569999
-0.543502
-0.52424
-0.505535
-0.485653
-0.464506
-0.441825
-0.417538
-0.391783
-0.364844
-0.33711
-0.309055
-0.28113
-0.253531
-0.561382
-0.535357
-0.516399
-0.497818
-0.47785
-0.456402
-0.433234
-0.408328
-0.38189
-0.354272
-0.32593
-0.297404
-0.269109
-0.241175
-0.550861
-0.525437
-0.506862
-0.488457
-0.468446
-0.446733
-0.423119
-0.397646
-0.370591
-0.342377
-0.313526
-0.284636
-0.256082
-0.227936
-0.538367
-0.513677
-0.495559
-0.477385
-0.457376
-0.435442
-0.411431
-0.385451
-0.357856
-0.32914
-0.299885
-0.270748
-0.242048
-0.213812
-0.523845
-0.500019
-0.482434
-0.464547
-0.444588
-0.422482
-0.398129
-0.371714
-0.343665
-0.314549
-0.285005
-0.255739
-0.227013
-0.198805
-0.507248
-0.484415
-0.467438
-0.449894
-0.430039
-0.407814
-0.383185
-0.356413
-0.328007
-0.298601
-0.26889
-0.23962
-0.210986
-0.182925
-0.488545
-0.466831
-0.450535
-0.433392
-0.413696
-0.391414
-0.366582
-0.339542
-0.310882
-0.281304
-0.251551
-0.222405
-0.193988
-0.166189
-0.467718
-0.447245
-0.431701
-0.415017
-0.395539
-0.373268
-0.348312
-0.321101
-0.292301
-0.262675
-0.23301
-0.204117
-0.176043
-0.148619
-0.444761
-0.425647
-0.410926
-0.394759
-0.375563
-0.353374
-0.328383
-0.301106
-0.272285
-0.242739
-0.213294
-0.184785
-0.157181
-0.13022
-0.419687
-0.402043
-0.388211
-0.372622
-0.353774
-0.331746
-0.306815
-0.279582
-0.250864
-0.221532
-0.19244
-0.164446
-0.137421
-0.110926
-0.39252
-0.376452
-0.363575
-0.348623
-0.330192
-0.308409
-0.283638
-0.256566
-0.22808
-0.199097
-0.170495
-0.143145
-0.116799
-0.0907362
-0.363302
-0.348908
-0.337048
-0.322793
-0.304851
-0.283402
-0.258897
-0.232108
-0.203987
-0.175489
-0.147511
-0.120925
-0.0953788
-0.0703071
-0.332091
-0.319462
-0.308676
-0.295179
-0.277801
-0.256777
-0.232649
-0.206269
-0.178647
-0.150769
-0.123548
-0.0978466
-0.0731873
-0.0491467
-0.298957
-0.288175
-0.278519
-0.265841
-0.249104
-0.228601
-0.204963
-0.17912
-0.152132
-0.12501
-0.0986735
-0.0739746
-0.0503154
-0.027319
-0.263989
-0.255129
-0.246654
-0.234853
-0.218835
-0.198952
-0.175921
-0.150744
-0.124522
-0.0982891
-0.0729614
-0.0493774
-0.0268219
-0.00491815
-0.227288
-0.220414
-0.213169
-0.202304
-0.187084
-0.167921
-0.145614
-0.121231
-0.0959111
-0.0706949
-0.0464942
-0.0241297
-0.00277062
0.0179843
-0.18897
-0.184137
-0.178166
-0.168295
-0.153954
-0.135608
-0.114145
-0.0906846
-0.0663964
-0.0423222
-0.019362
0.00168599
0.0217639
0.0413135
-0.149164
-0.146418
-0.141761
-0.132939
-0.119554
-0.102131
-0.0816262
-0.059215
-0.0360852
-0.0132738
0.008338
0.0279798
0.0466966
0.0649812
-0.108005
-0.107393
-0.104083
-0.0963638
-0.0840126
-0.0676088
-0.0481787
-0.0269397
-0.00509151
0.016341
0.0365008
0.0546529
0.0719296
0.0888843
-0.0656413
-0.0672114
-0.0652689
-0.0587044
-0.0474627
-0.032175
-0.0139308
0.00601723
0.0264657
0.0464074
0.065015
0.0815998
0.0973568
-0.022263
-0.0260059
-0.0254699
-0.0201081
-0.0100476
0.00403147
0.0209828
0.0395268
0.0584635
0.076807
0.0937653
0.108721
0.0219748
0.0160468
0.0151543
0.0192702
0.0280817
0.0408645
0.0564226
0.0734568
0.0907767
0.107418
0.122635
0.066892
0.0587734
0.0564368
0.0592677
0.0667674
0.0781729
0.0922452
0.107673
0.12328
0.138119
0.151506
0.112298
0.101994
0.0982029
0.0997145
0.105846
0.115801
0.128305
0.142042
0.155851
0.168803
0.157996
0.145522
0.140271
0.140435
0.145149
0.153589
0.164454
0.17643
0.188379
0.203791
0.189169
0.182458
0.181251
0.184506
0.191376
0.200542
0.210702
0.22075
0.249479
0.232739
0.224575
0.22198
0.223741
0.228997
0.236416
0.244715
0.294853
0.276035
0.266428
0.262437
0.26268
0.266285
0.27192
0.339708
0.318858
0.307826
0.302437
0.301144
0.303075
0.3069
0.383836
0.36101
0.348578
0.341794
0.338959
0.339203
0.341204
0.427034
0.402293
0.388491
0.380325
0.375952
0.374506
0.469102
0.442515
0.427378
0.417851
0.411952
0.408826
0.509842
0.481485
0.465055
0.454196
0.446793
0.549065
0.519018
0.501343
0.489188
0.480315
0.586585
0.554935
0.536069
0.522662
0.512363
0.622225
0.589065
0.569067
0.554459
0.655818
0.621245
0.600178
0.58443
0.687205
0.651319
0.629254
0.612432
0.716236
0.679143
0.656154
0.638332
0.742773
0.704583
0.680749
0.766691
0.727516
0.70292
0.787875
0.747832
0.72256
0.806224
0.765432
0.739574
0.821652
0.780232
0.753881
0.834083
0.792158
0.76541
0.843459
0.801154
0.774106
0.849735
0.807175
0.779927
0.85288
0.810193
0.782844
0.85288
0.810193
0.782844
0.849735
0.807175
0.779927
0.843459
0.801154
0.774106
0.834083
0.792158
0.76541
0.821652
0.780232
0.75388
0.806224
0.765432
0.739574
0.787875
0.747832
0.72256
0.766691
0.727516
0.70292
0.742773
0.704583
0.680749
0.716236
0.679143
0.656154
0.638332
0.687205
0.651319
0.629254
0.612432
0.655818
0.621245
0.600178
0.58443
0.622225
0.589065
0.569067
0.554459
0.586585
0.554935
0.536069
0.522662
0.512363
0.549065
0.519018
0.501343
0.489188
0.480315
0.509842
0.481485
0.465055
0.454196
0.446793
0.469102
0.442515
0.427378
0.417851
0.411952
0.408826
0.427034
0.402293
0.388491
0.380325
0.375952
0.374506
0.383836
0.36101
0.348577
0.341794
0.338959
0.339203
0.341204
0.339707
0.318858
0.307826
0.302436
0.301144
0.303075
0.3069
0.294853
0.276035
0.266428
0.262437
0.26268
0.266285
0.27192
0.278327
0.249479
0.232739
0.224575
0.22198
0.223741
0.228997
0.236416
0.244715
0.203791
0.189169
0.182458
0.181251
0.184506
0.191376
0.200542
0.210702
0.22075
0.157996
0.145522
0.140271
0.140435
0.145149
0.153589
0.164454
0.17643
0.188379
0.112298
0.101994
0.0982029
0.0997144
0.105846
0.115801
0.128305
0.142042
0.155851
0.168803
0.066892
0.0587733
0.0564367
0.0592676
0.0667674
0.0781728
0.0922452
0.107673
0.123279
0.138119
0.151506
0.0219747
0.0160467
0.0151542
0.0192702
0.0280816
0.0408645
0.0564225
0.0734568
0.0907766
0.107418
0.122635
-0.0222631
-0.026006
-0.02547
-0.0201081
-0.0100477
0.00403141
0.0209828
0.0395268
0.0584635
0.076807
0.0937653
0.108721
-0.0656414
-0.0672115
-0.0652689
-0.0587045
-0.0474628
-0.032175
-0.0139309
0.00601717
0.0264657
0.0464073
0.065015
0.0815998
0.0973568
-0.108005
-0.107393
-0.104083
-0.0963638
-0.0840126
-0.0676089
-0.0481788
-0.0269397
-0.00509157
0.0163409
0.0365008
0.0546528
0.0719295
0.0888843
-0.149164
-0.146418
-0.141761
-0.132939
-0.119554
-0.102131
-0.0816263
-0.059215
-0.0360853
-0.0132738
0.00833795
0.0279797
0.0466965
0.0649811
-0.188971
-0.184137
-0.178166
-0.168295
-0.153954
-0.135608
-0.114145
-0.0906847
-0.0663964
-0.0423222
-0.019362
0.00168593
0.0217638
0.0413134
-0.227288
-0.220414
-0.213169
-0.202304
-0.187085
-0.167921
-0.145614
-0.121231
-0.0959111
-0.0706949
-0.0464943
-0.0241298
-0.00277067
0.0179843
-0.263989
-0.255129
-0.246654
-0.234853
-0.218835
-0.198952
-0.175921
-0.150744
-0.124522
-0.0982892
-0.0729614
-0.0493774
-0.0268219
-0.00491819
-0.298957
-0.288175
-0.278519
-0.265841
-0.249104
-0.228601
-0.204963
-0.17912
-0.152132
-0.12501
-0.0986735
-0.0739747
-0.0503154
-0.0273191
-0.332091
-0.319462
-0.308676
-0.295179
-0.277801
-0.256777
-0.232649
-0.206269
-0.178647
-0.150769
-0.123548
-0.0978466
-0.0731874
-0.0491467
-0.363302
-0.348908
-0.337048
-0.322793
-0.304851
-0.283402
-0.258897
-0.232109
-0.203987
-0.175489
-0.147511
-0.120925
-0.0953788
-0.0703071
-0.39252
-0.376452
-0.363575
-0.348623
-0.330192
-0.308409
-0.283638
-0.256566
-0.22808
-0.199097
-0.170495
-0.143145
-0.116799
-0.0907362
-0.419687
-0.402043
-0.388211
-0.372622
-0.353774
-0.331746
-0.306815
-0.279582
-0.250864
-0.221532
-0.19244
-0.164446
-0.137421
-0.110926
-0.444762
-0.425647
-0.410926
-0.394759
-0.375563
-0.353375
-0.328384
-0.301106
-0.272285
-0.242739
-0.213294
-0.184786
-0.157181
-0.13022
-0.467718
-0.447245
-0.431701
-0.415017
-0.395539
-0.373268
-0.348312
-0.321101
-0.292301
-0.262675
-0.23301
-0.204117
-0.176043
-0.148619
-0.488545
-0.466831
-0.450535
-0.433392
-0.413696
-0.391414
-0.366582
-0.339542
-0.310882
-0.281305
-0.251551
-0.222405
-0.193988
-0.166189
-0.507248
-0.484415
-0.467438
-0.449894
-0.430039
-0.407815
-0.383185
-0.356414
-0.328007
-0.298601
-0.26889
-0.23962
-0.210986
-0.182925
-0.523845
-0.500019
-0.482434
-0.464547
-0.444588
-0.422482
-0.398129
-0.371714
-0.343665
-0.314549
-0.285005
-0.255739
-0.227013
-0.198805
-0.538367
-0.513677
-0.495559
-0.477385
-0.457376
-0.435442
-0.411431
-0.385451
-0.357856
-0.32914
-0.299886
-0.270748
-0.242048
-0.213812
-0.550861
-0.525437
-0.506862
-0.488457
-0.468446
-0.446733
-0.423119
-0.397646
-0.370591
-0.342377
-0.313526
-0.284637
-0.256082
-0.227936
-0.561382
-0.535357
-0.5164
-0.497818
-0.47785
-0.456402
-0.433234
-0.408328
-0.38189
-0.354272
-0.32593
-0.297404
-0.269109
-0.241175
-0.569999
-0.543502
-0.52424
-0.505536
-0.485653
-0.464506
-0.441825
-0.417538
-0.391783
-0.364844
-0.33711
-0.309055
-0.28113
-0.253531
-0.576786
-0.549948
-0.530457
-0.511682
-0.491926
-0.471112
-0.448951
-0.425325
-0.400309
-0.374122
-0.347085
-0.319603
-0.292154
-0.265012
-0.581834
-0.554782
-0.535136
-0.516342
-0.496748
-0.476295
-0.45468
-0.431747
-0.407516
-0.382144
-0.355884
-0.329067
-0.302194
-0.275633
-0.585235
-0.55809
-0.538365
-0.519601
-0.500203
-0.480135
-0.459086
-0.436869
-0.41346
-0.388953
-0.363541
-0.337475
-0.311271
-0.285416
-0.587085
-0.559968
-0.540234
-0.52155
-0.502381
-0.482717
-0.462247
-0.440763
-0.418201
-0.394603
-0.370097
-0.344858
-0.319413
-0.294387
-0.587489
-0.560513
-0.540841
-0.522283
-0.503375
-0.48413
-0.464248
-0.443507
-0.421808
-0.399149
-0.375601
-0.351257
-0.326652
-0.302579
-0.586552
-0.559824
-0.540282
-0.521898
-0.503278
-0.484467
-0.465177
-0.445181
-0.424354
-0.402656
-0.380105
-0.356715
-0.333026
-0.310031
-0.584383
-0.558004
-0.538656
-0.52049
-0.502187
-0.483821
-0.465124
-0.445869
-0.425916
-0.40519
-0.383667
-0.361281
-0.338578
-0.316787
-0.581088
-0.555154
-0.536062
-0.518157
-0.500196
-0.482286
-0.46418
-0.445658
-0.426571
-0.406821
-0.386348
-0.365008
-0.343355
-0.322892
-0.576777
-0.551373
-0.532596
-0.514994
-0.497402
-0.479956
-0.462435
-0.444634
-0.4264
-0.407623
-0.388211
-0.36795
-0.571555
-0.546759
-0.528352
-0.511093
-0.493894
-0.476921
-0.45998
-0.442883
-0.425485
-0.407667
-0.565523
-0.541408
-0.523423
-0.506545
-0.489763
-0.47327
-0.456901
-0.44049
-0.558782
-0.535411
-0.517895
-0.501435
-0.485094
-0.469087
-0.453282
-0.551423
-0.528854
-0.511852
-0.495845
-0.479968
-0.543535
-0.521819
-0.505372
-0.5352
-0.514383
-0.526494
-0.241036
-0.250482
-0.259118
-0.26696
-0.274032
-0.280362
-0.285987
-0.290953
-0.221395
-0.230737
-0.239422
-0.247466
-0.254894
-0.261735
-0.268025
-0.273807
-0.202987
-0.212187
-0.220869
-0.229047
-0.236739
-0.243968
-0.25076
-0.257145
-0.185654
-0.194568
-0.203066
-0.21116
-0.218864
-0.226194
-0.23317
-0.239815
-0.16943
-0.178011
-0.186262
-0.194191
-0.20181
-0.209133
-0.216175
-0.222956
-0.154301
-0.162523
-0.170484
-0.178191
-0.185655
-0.192887
-0.199899
-0.206709
-0.140211
-0.148053
-0.155688
-0.163123
-0.170367
-0.17743
-0.184322
-0.191056
-0.127094
-0.134543
-0.141829
-0.148957
-0.155935
-0.162771
-0.169474
-0.176055
-0.114883
-0.121936
-0.128859
-0.135658
-0.142338
-0.148906
-0.15537
-0.161738
-0.103508
-0.110168
-0.116723
-0.123179
-0.12954
-0.135813
-0.142003
-0.148117
-0.0929111
-0.0991815
-0.105369
-0.111476
-0.117507
-0.123466
-0.129359
-0.13519
-0.0830292
-0.0889209
-0.0947448
-0.100504
-0.1062
-0.111838
-0.117421
-0.122952
-0.0738168
-0.0793407
-0.0848093
-0.0902242
-0.0955875
-0.100902
-0.106169
-0.111393
-0.0652226
-0.0703941
-0.0755192
-0.0805991
-0.0856353
-0.0906293
-0.0955829
-0.100498
-0.0572141
-0.0620476
-0.066842
-0.071598
-0.0763164
-0.0809979
-0.0856438
-0.0902553
-0.0497508
-0.054264
-0.0587436
-0.0631899
-0.0676031
-0.0719836
-0.0763319
-0.0806487
-0.0428027
-0.0470138
-0.0511956
-0.055348
-0.0594708
-0.0635641
-0.0676279
-0.0716622
-0.0363433
-0.0402708
-0.0441725
-0.0480479
-0.0518965
-0.055718
-0.0595121
-0.0632787
-0.0303459
-0.0340092
-0.0376494
-0.0412655
-0.0448572
-0.0484237
-0.0519645
-0.0554792
-0.0247906
-0.0282084
-0.0316052
-0.0349801
-0.0383322
-0.0416608
-0.0449653
-0.0482449
-0.0196553
-0.0228466
-0.0260184
-0.02917
-0.0323003
-0.0354086
-0.0384939
-0.0415554
-0.0149226
-0.0179055
-0.0208704
-0.0238164
-0.0267424
-0.0296474
-0.0325307
-0.0353911
-0.0105756
-0.0133679
-0.0161434
-0.0189011
-0.0216398
-0.0243586
-0.0270565
-0.0297326
-0.00660007
-0.00921885
-0.0118218
-0.0144078
-0.0169758
-0.0195247
-0.0220536
-0.0245615
-0.00298289
-0.00544463
-0.00789131
-0.0103218
-0.0127351
-0.0151301
-0.0175057
-0.0198611
0.000285737
-0.00203466
-0.00434067
-0.00663118
-0.00890511
-0.0111614
-0.0133991
-0.0156171
0.00321451
0.00102023
-0.00116021
-0.0033257
-0.0054752
-0.00760767
-0.00972212
-0.0118176
0.00580762
0.00372491
0.00165557
-0.000399318
-0.00243874
-0.00446168
-0.00646719
-0.00845432
0.00806851
0.00608305
0.00411057
0.0021521
0.00020862
-0.0017189
-0.00362953
-0.00552238
0.00999299
0.00809103
0.0062017
0.00432598
0.00246481
0.0006191
-0.00121026
-0.00302241
-0.00481654
0.0115782
0.00974549
0.00792509
0.00611793
0.00432487
0.0025468
0.000784544
-0.000961091
-0.00268933
0.0128046
0.0110282
0.00926385
0.00751239
0.00577461
0.0040513
0.00234323
0.000651137
-0.00102427
0.0136634
0.0119266
0.0102014
0.00848885
0.00678955
0.00510427
0.00343373
0.00177862
0.0001396
0.0141086
0.012402
0.010707
0.00902396
0.00735365
0.00569662
0.00405346
0.00242473
0.00081098
0.0579316
0.0361685
0.0148095
-0.00609777
-0.0265078
-0.0463878
-0.0657474
-0.0846122
-0.102309
-0.119651
-0.136248
-0.152087
-0.167184
-0.181511
-0.195046
-0.207773
-0.219683
-0.230771
0.0561688
0.0360995
0.0164546
-0.00274342
-0.0214608
-0.0396664
-0.0573313
-0.0743733
-0.0904785
-0.106888
-0.122364
-0.137067
-0.151123
-0.164527
-0.177261
-0.189317
-0.20069
-0.211382
0.0509915
0.0329418
0.0152911
-0.00196145
-0.0187974
-0.0351995
-0.0511599
-0.0667432
-0.0820802
-0.0961504
-0.11009
-0.123582
-0.136534
-0.148955
-0.160842
-0.172189
-0.182994
-0.193259
0.0472022
0.030889
0.0149438
-0.000643076
-0.0158602
-0.0306955
-0.0451362
-0.0591778
-0.0728265
-0.0859013
-0.0987556
-0.111171
-0.123124
-0.134635
-0.145711
-0.156349
-0.166551
-0.176318
0.0442651
0.0295245
0.0151143
0.00102086
-0.0127493
-0.0261887
-0.039291
-0.0520498
-0.0644593
-0.0764879
-0.0882448
-0.0996477
-0.110679
-0.12135
-0.131668
-0.141633
-0.151246
-0.16051
0.0418866
0.0285712
0.015547
0.00279836
-0.00967246
-0.0218617
-0.0337677
-0.0453903
-0.056741
-0.0678379
-0.078511
-0.0889781
-0.0991699
-0.109067
-0.118677
-0.128002
-0.137046
-0.14581
0.0400463
0.0280145
0.0162336
0.00468883
-0.00661996
-0.0176908
-0.0285232
-0.0391173
-0.0494753
-0.0595981
-0.0694408
-0.0791161
-0.0885407
-0.0977198
-0.106668
-0.115389
-0.123884
-0.132157
0.0386613
0.0277824
0.0171162
0.00664929
-0.00361945
-0.013689
-0.0235594
-0.033231
-0.0427037
-0.0519642
-0.0609703
-0.0699693
-0.0787093
-0.0872289
-0.0955617
-0.103713
-0.111683
-0.119476
0.0376572
0.027811
0.0181424
0.00863928
-0.00070016
-0.00987614
-0.0188901
-0.0277438
-0.0364408
-0.0450007
-0.0534542
-0.0615682
-0.0696102
-0.0775257
-0.0852883
-0.092901
-0.100369
-0.107695
0.0369713
0.0280496
0.0192742
0.0106347
0.00212921
-0.00624239
-0.0144812
-0.0225884
-0.0305644
-0.0384118
-0.0461358
-0.0537045
-0.061176
-0.0685319
-0.0757627
-0.0828718
-0.0898637
-0.0967416
0.0365498
0.0284554
0.0204799
0.0126145
0.00485754
-0.0027911
-0.0103324
-0.0177675
-0.0250978
-0.032325
-0.0394487
-0.0464602
-0.0533957
-0.060221
-0.0669437
-0.0735723
-0.0801089
-0.0865545
0.0363481
0.0289941
0.0217354
0.0145648
0.00748116
0.000484488
-0.00642558
-0.0132495
-0.0199877
-0.0266401
-0.0331931
-0.0396176
-0.0461262
-0.05249
-0.0587462
-0.0649261
-0.0710335
-0.0770675
0.0431008
0.0363278
0.0296361
0.0230194
0.0164717
0.00999207
0.00358029
-0.00276436
-0.00904299
-0.0152565
-0.0214073
-0.0275112
-0.0335929
-0.0394515
-0.0453125
-0.0511367
-0.0568981
-0.0625968
-0.0682358
0.0426204
0.0364586
0.0303604
0.0243201
0.0183331
0.0123989
0.00651773
0.000689469
-0.00508613
-0.010809
-0.0164786
-0.0220958
-0.0276637
-0.0331653
-0.0386303
-0.0440509
-0.0494195
-0.0547364
-0.0600036
0.0423299
0.0367149
0.0311484
0.0256258
0.0201433
0.0147009
0.00929899
0.00393777
-0.00138275
-0.00666253
-0.0119014
-0.0170994
-0.0222564
-0.0273691
-0.0324447
-0.0374803
-0.0424746
-0.047428
-0.052341
0.0422009
0.0370751
0.0319854
0.0269278
0.0218997
0.0169011
0.0119329
0.00699528
0.00208869
-0.00278659
-0.00763026
-0.0124421
-0.0172214
-0.0219656
-0.0266815
-0.0313628
-0.0360098
-0.0406236
-0.045204
0.042209
0.037521
0.0328588
0.0282193
0.0236005
0.0190027
0.014427
0.00987403
0.00534428
0.000838397
-0.00364303
-0.00809934
-0.0125282
-0.0169252
-0.0213166
-0.0256727
-0.0299972
-0.0342938
-0.0385626
0.0423325
0.0380361
0.0337572
0.0294933
0.0252429
0.0210067
0.0167858
0.0125809
0.00839273
0.00422204
6.95828e-05
-0.00406403
-0.00817969
-0.0122788
-0.0163389
-0.0203844
-0.0244104
-0.0284126
-0.0323904
0.0425526
0.0386064
0.0346712
0.0307448
0.0268262
0.0229165
0.0190167
0.0151279
0.011251
0.00738681
0.00353641
-0.000299222
-0.00411962
-0.00792459
-0.0117068
-0.0154739
-0.0192232
-0.0229522
-0.02666
0.0428522
0.039219
0.0355914
0.0319679
0.0283479
0.0247324
0.0211227
0.0175199
0.013925
0.0103392
0.00676341
0.00319879
-0.000353708
-0.00389312
-0.00741673
-0.010926
-0.0144193
-0.0178951
-0.0213525
0.0432153
0.0398615
0.0365092
0.0331572
0.0298053
0.0264547
0.0231066
0.0197624
0.0164231
0.0130898
0.00976376
0.00644611
0.00313798
-0.000159471
-0.00344445
-0.00671694
-0.00997545
-0.0132187
-0.0164457
0.0436275
0.0405224
0.0374159
0.0343068
0.0311953
0.0280826
0.0249701
0.021859
0.0187505
0.0156458
0.0125462
0.0094528
0.00636693
0.00328979
0.000222922
-0.0028332
-0.005877
-0.00890723
-0.0119228
0.0440746
0.0411908
0.038303
0.0354107
0.0325141
0.0296146
0.0267135
0.0238121
0.0209115
0.0180132
0.0151182
0.0122279
0.00934351
0.00646639
0.003598
0.000738773
-0.00210934
-0.00494518
-0.00776766
0.0445436
0.0418557
0.0391621
0.0364626
0.0337577
0.0310485
0.0283365
0.025623
0.0229091
0.0201962
0.0174855
0.0147784
0.012076
0.00937986
0.00669149
0.00401027
0.00133958
-0.00131967
-0.0039666
0.045022
0.0425068
0.0399849
0.0374562
0.0349213
0.0323814
0.0298379
0.027292
0.024745
0.0221981
0.0196527
0.0171099
0.0145712
0.0120379
0.00951151
0.00699133
0.00448086
0.00198104
-0.000507268
0.0454974
0.0431338
0.0407627
0.0383843
0.0359994
0.0336091
0.0312147
0.0288174
0.0264186
0.0240194
0.021621
0.0192248
0.0168321
0.0144437
0.0120606
0.00968773
0.00732199
0.00496525
0.00261941
0.0459586
0.0437268
0.0414873
0.0392403
0.0369868
0.0347278
0.0324646
0.0301984
0.0279304
0.0256618
0.0233939
0.0211278
0.0188649
0.0166063
0.0143532
0.0121073
0.00986921
0.00764016
0.00542153
0.0463936
0.0442752
0.0421491
0.0400158
0.0378762
0.0357312
0.0335821
0.0314301
0.0292764
0.027122
0.0249682
0.0228162
0.0206672
0.0185224
0.0163829
0.0142502
0.0121251
0.0100088
0.00790263
0.0467923
0.04477
0.0427403
0.0407039
0.0386614
0.0366141
0.034563
0.0325092
0.0304539
0.0283982
0.0263432
0.02429
0.0222399
0.0201939
0.0181531
0.0161189
0.0140922
0.0120742
0.0100659
0.0471409
0.045198
0.0432483
0.0412923
0.0393311
0.0373655
0.0353967
0.0334257
0.0314536
0.0294813
0.0275101
0.025541
0.023575
0.0216133
0.019657
0.0177071
0.0157647
0.0138309
0.0119066
0.0474337
0.0455541
0.0436684
0.0417774
0.0398818
0.0379827
0.0360809
0.0341776
0.0322736
0.03037
0.0284678
0.026568
0.0246716
0.0227797
0.0208933
0.0190133
0.0171408
0.0152768
0.0134223
0.0476463
0.0458131
0.0439749
0.0421324
0.0402865
0.0384379
0.0365877
0.0347367
0.0328859
0.0310362
0.0291885
0.0273437
0.0255029
0.0236669
0.0218367
0.0200132
0.0181974
0.01639
0.0145921
0.047794
0.045992
0.0441862
0.0423771
0.0405655
0.0387523
0.0369382
0.0351241
0.0333108
0.0314992
0.0296901
0.0278844
0.0260829
0.0242865
0.0224962
0.0207126
0.0189367
0.0171693
0.0154113
0.0478009
0.0460083
0.0442138
0.042418
0.0406216
0.0388255
0.0370302
0.0352367
0.0334456
0.0316576
0.0298735
0.0280939
0.0263197
0.0245516
0.0227901
0.0210362
0.0192904
0.0175534
0.0158259
0.0478009
0.0460083
0.0442138
0.0424179
0.0406216
0.0388255
0.0370302
0.0352367
0.0334456
0.0316576
0.0298734
0.0280939
0.0263197
0.0245516
0.0227901
0.0210362
0.0192904
0.0175534
0.0158259
0.047794
0.045992
0.0441862
0.0423771
0.0405655
0.0387523
0.0369382
0.0351241
0.0333108
0.0314992
0.0296901
0.0278844
0.0260829
0.0242865
0.0224961
0.0207126
0.0189367
0.0171693
0.0154113
0.0476463
0.0458131
0.0439749
0.0421324
0.0402865
0.0384379
0.0365877
0.0347367
0.0328859
0.0310361
0.0291884
0.0273437
0.0255029
0.0236669
0.0218367
0.0200132
0.0181973
0.01639
0.0145921
0.0474337
0.0455541
0.0436684
0.0417774
0.0398818
0.0379827
0.0360809
0.0341776
0.0322736
0.03037
0.0284678
0.026568
0.0246716
0.0227797
0.0208932
0.0190133
0.0171408
0.0152768
0.0134223
0.0471409
0.045198
0.0432483
0.0412923
0.0393311
0.0373655
0.0353967
0.0334257
0.0314535
0.0294813
0.0275101
0.025541
0.023575
0.0216133
0.019657
0.0177071
0.0157647
0.0138309
0.0119066
0.0467923
0.04477
0.0427403
0.0407038
0.0386614
0.0366141
0.034563
0.0325092
0.0304539
0.0283982
0.0263432
0.02429
0.0222399
0.0201938
0.0181531
0.0161189
0.0140922
0.0120742
0.0100659
0.0463936
0.0442752
0.0421491
0.0400158
0.0378761
0.0357312
0.0335821
0.0314301
0.0292763
0.027122
0.0249682
0.0228162
0.0206672
0.0185224
0.0163829
0.0142502
0.0121251
0.0100088
0.00790262
0.0459586
0.0437268
0.0414873
0.0392403
0.0369868
0.0347278
0.0324646
0.0301984
0.0279304
0.0256618
0.0233939
0.0211278
0.0188649
0.0166063
0.0143532
0.0121073
0.0098692
0.00764015
0.00542152
0.0454974
0.0431337
0.0407627
0.0383843
0.0359994
0.0336091
0.0312147
0.0288174
0.0264186
0.0240193
0.021621
0.0192248
0.0168321
0.0144437
0.0120606
0.00968772
0.00732197
0.00496523
0.0026194
0.045022
0.0425068
0.0399849
0.0374562
0.0349213
0.0323814
0.0298379
0.027292
0.024745
0.0221981
0.0196527
0.0171099
0.0145712
0.0120379
0.0095115
0.00699132
0.00448085
0.00198102
-0.00050728
0.0445436
0.0418557
0.0391621
0.0364626
0.0337577
0.0310485
0.0283365
0.025623
0.0229091
0.0201962
0.0174855
0.0147784
0.012076
0.00937984
0.00669148
0.00401026
0.00133956
-0.00131968
-0.00396661
0.0440746
0.0411908
0.038303
0.0354107
0.0325141
0.0296146
0.0267135
0.0238121
0.0209115
0.0180131
0.0151182
0.0122279
0.0093435
0.00646638
0.00359798
0.000738761
-0.00210935
-0.00494519
-0.00776767
0.0436274
0.0405224
0.0374158
0.0343067
0.0311952
0.0280826
0.0249701
0.021859
0.0187505
0.0156458
0.0125461
0.00945279
0.00636692
0.00328978
0.000222909
-0.00283322
-0.00587701
-0.00890724
-0.0119228
0.0432153
0.0398615
0.0365092
0.0331572
0.0298053
0.0264546
0.0231066
0.0197624
0.0164231
0.0130898
0.00976375
0.0064461
0.00313797
-0.000159484
-0.00344446
-0.00671695
-0.00997547
-0.0132187
-0.0164457
0.0428521
0.0392189
0.0355914
0.0319679
0.0283478
0.0247323
0.0211227
0.0175199
0.013925
0.0103392
0.00676339
0.00319877
-0.000353723
-0.00389313
-0.00741675
-0.010926
-0.0144193
-0.0178951
-0.0213525
0.0425526
0.0386064
0.0346712
0.0307448
0.0268262
0.0229165
0.0190167
0.0151279
0.011251
0.00738679
0.0035364
-0.000299239
-0.00411964
-0.00792461
-0.0117068
-0.0154739
-0.0192232
-0.0229523
-0.02666
0.0423325
0.038036
0.0337572
0.0294933
0.0252429
0.0210067
0.0167858
0.0125809
0.00839271
0.00422202
6.95641e-05
-0.00406405
-0.00817971
-0.0122788
-0.0163389
-0.0203844
-0.0244104
-0.0284126
-0.0323904
0.042209
0.0375209
0.0328588
0.0282193
0.0236004
0.0190027
0.014427
0.00987401
0.00534426
0.000838376
-0.00364305
-0.00809936
-0.0125282
-0.0169252
-0.0213166
-0.0256727
-0.0299972
-0.0342939
-0.0385626
0.0422009
0.0370751
0.0319854
0.0269278
0.0218997
0.0169011
0.0119328
0.00699526
0.00208867
-0.00278661
-0.00763028
-0.0124421
-0.0172214
-0.0219656
-0.0266816
-0.0313628
-0.0360098
-0.0406236
-0.045204
0.0423299
0.0367149
0.0311484
0.0256257
0.0201433
0.0147009
0.00929897
0.00393775
-0.00138278
-0.00666255
-0.0119014
-0.0170994
-0.0222564
-0.0273691
-0.0324447
-0.0374803
-0.0424746
-0.047428
-0.052341
0.0426204
0.0364586
0.0303603
0.0243201
0.0183331
0.0123989
0.0065177
0.000689441
-0.00508616
-0.010809
-0.0164786
-0.0220959
-0.0276637
-0.0331653
-0.0386303
-0.044051
-0.0494195
-0.0547364
-0.0600037
0.0431008
0.0363278
0.0296361
0.0230194
0.0164717
0.00999204
0.00358026
-0.00276439
-0.00904301
-0.0152565
-0.0214073
-0.0275112
-0.033593
-0.0394515
-0.0453125
-0.0511367
-0.0568981
-0.0625968
-0.0682358
0.0438047
0.0363481
0.0289941
0.0217354
0.0145648
0.00748113
0.000484458
-0.00642561
-0.0132495
-0.0199878
-0.0266401
-0.0331932
-0.0396176
-0.0461263
-0.05249
-0.0587462
-0.0649261
-0.0710335
-0.0770675
0.0447715
0.0365498
0.0284554
0.0204798
0.0126144
0.0048575
-0.00279113
-0.0103324
-0.0177676
-0.0250979
-0.032325
-0.0394487
-0.0464602
-0.0533957
-0.0602211
-0.0669437
-0.0735724
-0.080109
-0.0865545
0.0460488
0.0369712
0.0280496
0.0192741
0.0106346
0.00212918
-0.00624242
-0.0144813
-0.0225885
-0.0305644
-0.0384119
-0.0461358
-0.0537045
-0.061176
-0.0685319
-0.0757627
-0.0828718
-0.0898637
-0.0967416
0.047692
0.0376571
0.0278109
0.0181423
0.00863923
-0.000700198
-0.00987617
-0.0188901
-0.0277438
-0.0364408
-0.0450007
-0.0534542
-0.0615682
-0.0696102
-0.0775258
-0.0852883
-0.092901
-0.100369
-0.107695
0.0497659
0.0386613
0.0277823
0.0171161
0.00664925
-0.00361949
-0.013689
-0.0235594
-0.033231
-0.0427038
-0.0519642
-0.0609704
-0.0699693
-0.0787094
-0.087229
-0.0955617
-0.103713
-0.111683
-0.119476
0.0523445
0.0400463
0.0280144
0.0162335
0.00468879
-0.00662
-0.0176908
-0.0285233
-0.0391173
-0.0494753
-0.0595981
-0.0694408
-0.0791162
-0.0885407
-0.0977199
-0.106668
-0.115389
-0.123884
-0.132157
0.0418865
0.0285712
0.0155469
0.00279832
-0.0096725
-0.0218618
-0.0337677
-0.0453903
-0.0567411
-0.067838
-0.078511
-0.0889781
-0.0991699
-0.109067
-0.118677
-0.128002
-0.137046
-0.14581
0.0442651
0.0295245
0.0151143
0.00102082
-0.0127494
-0.0261888
-0.0392911
-0.0520498
-0.0644593
-0.076488
-0.0882449
-0.0996477
-0.110679
-0.12135
-0.131668
-0.141633
-0.151246
-0.16051
0.0472021
0.0308889
0.0149438
-0.000643116
-0.0158602
-0.0306956
-0.0451363
-0.0591778
-0.0728266
-0.0859014
-0.0987556
-0.111171
-0.123124
-0.134635
-0.145711
-0.156349
-0.166551
-0.176318
0.0509914
0.0329418
0.0152911
-0.00196149
-0.0187975
-0.0351996
-0.0511599
-0.0667432
-0.0820802
-0.0961504
-0.11009
-0.123582
-0.136534
-0.148955
-0.160842
-0.172189
-0.182994
-0.193259
0.0561687
0.0360995
0.0164545
-0.00274346
-0.0214609
-0.0396664
-0.0573314
-0.0743733
-0.0904785
-0.106888
-0.122364
-0.137067
-0.151123
-0.164527
-0.177261
-0.189317
-0.20069
-0.211382
0.0579316
0.0361685
0.0148094
-0.00609781
-0.0265078
-0.0463878
-0.0657474
-0.0846123
-0.102309
-0.119652
-0.136248
-0.152087
-0.167184
-0.181511
-0.195046
-0.207773
-0.219683
-0.230771
0.0141086
0.012402
0.010707
0.00902396
0.00735365
0.00569662
0.00405346
0.00242472
0.0136634
0.0119266
0.0102014
0.00848884
0.00678954
0.00510427
0.00343373
0.00177861
0.0128046
0.0110282
0.00926384
0.00751238
0.0057746
0.0040513
0.00234323
0.00065113
0.0115782
0.00974548
0.00792509
0.00611792
0.00432487
0.0025468
0.000784541
-0.000961096
0.00999298
0.00809102
0.00620169
0.00432597
0.0024648
0.000619092
-0.00121026
-0.00302242
0.0080685
0.00608304
0.00411056
0.00215209
0.000208612
-0.00171891
-0.00362954
-0.00552239
0.00580761
0.0037249
0.00165557
-0.000399327
-0.00243875
-0.00446169
-0.0064672
-0.00845433
0.0032145
0.00102022
-0.00116022
-0.00332571
-0.00547521
-0.00760768
-0.00972213
-0.0118176
0.000285726
-0.00203467
-0.00434068
-0.00663119
-0.00890512
-0.0111614
-0.0133991
-0.0156172
-0.0029829
-0.00544464
-0.00789132
-0.0103218
-0.0127351
-0.0151301
-0.0175057
-0.0198611
-0.00660008
-0.00921886
-0.0118218
-0.0144078
-0.0169758
-0.0195247
-0.0220536
-0.0245615
-0.0105756
-0.0133679
-0.0161435
-0.0189011
-0.0216398
-0.0243586
-0.0270565
-0.0297326
-0.0149226
-0.0179055
-0.0208704
-0.0238164
-0.0267424
-0.0296475
-0.0325307
-0.0353912
-0.0196553
-0.0228466
-0.0260184
-0.02917
-0.0323003
-0.0354086
-0.0384939
-0.0415554
-0.0247906
-0.0282085
-0.0316052
-0.0349801
-0.0383322
-0.0416608
-0.0449653
-0.0482449
-0.0303459
-0.0340093
-0.0376494
-0.0412656
-0.0448572