/*--------------------------------*- C++ -*----------------------------------*\
  =========                 |
  \\      /  F ield         | OpenFOAM: The Open Source CFD Toolbox
   \\    /   O peration     | Website:  https://openfoam.org
    \\  /    A nd           | Version:  7
     \\/     M anipulation  |
\*---------------------------------------------------------------------------*/
FoamFile
{
    version     2.0;
    format      ascii;
    class       surfaceScalarField;
    location    "10";
    object      phi;
}
// * * * * * * * * * * * * * * * * * * * * * * * * * * * * * * * * * * * * * //

dimensions      [0 3 -1 0 0 0 0];

internalField   nonuniform List<scalar> 
5826
(
-4.80655e-05
7.07288e-06
-5.51384e-05
-0.00018632
7.41651e-06
-6.25549e-05
2.96312e-05
-0.000208535
6.75296e-05
-0.000384002
-0.000590676
7.74872e-06
-7.03036e-05
3.08442e-05
-0.00023163
7.00803e-05
-0.000423239
0.000126227
-0.000646823
-0.000903881
8.06738e-06
-7.8371e-05
3.19911e-05
-0.000255554
7.24599e-05
-0.000463707
0.000130113
-0.000704476
0.000205451
-0.00097922
0.000298743
-0.0012888
-0.00163344
8.36997e-06
-8.6741e-05
3.30624e-05
-0.000280246
7.46473e-05
-0.000505292
0.000133618
-0.000763446
0.000210295
-0.0010559
0.000304727
-0.00138323
0.000416577
-0.00174529
-0.00214105
8.65367e-06
-9.53947e-05
3.40475e-05
-0.00030564
7.66194e-05
-0.000547864
0.000136703
-0.00082353
0.000214427
-0.00113362
0.000309608
-0.00147841
0.000421646
-0.00185733
0.000549429
-0.00226883
0.000691261
-0.00271032
-0.00317809
8.91539e-06
-0.00010431
3.4935e-05
-0.00033166
7.83523e-05
-0.000591281
0.000139329
-0.000884507
0.000217788
-0.00121208
0.000313308
-0.00157393
0.000425021
-0.00196904
0.000551532
-0.00239534
0.000690871
-0.00284966
0.000840493
-0.00332771
0.000997337
-0.0038242
-0.00433297
9.15186e-06
-0.000113462
3.57133e-05
-0.000358221
7.98213e-05
-0.000635389
0.000141454
-0.000946139
0.000220319
-0.00129095
0.00031575
-0.00166936
0.000426611
-0.0020799
0.000551233
-0.00251997
0.00068739
-0.00298582
0.000832328
-0.00347264
0.000982859
-0.00397473
0.00113552
-0.00448564
0.00128677
-0.00499864
-0.00550651
0.00143316
9.35975e-06
-0.000122822
3.63705e-05
-0.000385232
8.1002e-05
-0.000680021
0.000143039
-0.00100818
0.000221965
-0.00136987
0.000316864
-0.00176426
0.000426337
-0.00218937
0.000548453
-0.00264208
0.00068075
-0.00311811
0.000820299
-0.00361219
0.000963825
-0.00411826
0.0011079
-0.00462971
0.00124914
-0.00513989
-0.00564178
0.00138441
9.5357e-06
-0.000132357
3.68949e-05
-0.000412591
8.18708e-05
-0.000724997
0.000144045
-0.00107035
0.000222674
-0.0014485
0.000316589
-0.00185817
0.000424134
-0.00229692
0.000543131
-0.00276108
0.00067091
-0.00324589
0.000804401
-0.00374568
0.000940283
-0.00425414
0.0010752
-0.00476463
0.00120597
-0.00527066
-0.0057656
0.00132978
9.67643e-06
-0.000142034
3.72752e-05
-0.00044019
8.24054e-05
-0.000770127
0.00014444
-0.00113239
0.0002224
-0.00152646
0.000314873
-0.00195065
0.000419951
-0.002402
0.00053523
-0.00287636
0.000657861
-0.00336852
0.000784668
-0.00387249
0.000912326
-0.0043818
0.00103759
-0.00488989
0.0011575
-0.00539057
-0.0058777
0.0012696
9.77881e-06
-0.000151813
3.75011e-05
-0.000467912
8.25854e-05
-0.000815211
0.000144191
-0.00119399
0.000221107
-0.00160338
0.000311675
-0.00204122
0.000413755
-0.00250408
0.000524737
-0.00298734
0.000641624
-0.00348541
0.000761171
-0.00399204
0.000880091
-0.00450072
0.000995278
-0.00500507
0.00110404
-0.00549933
-0.00597793
0.00120426
9.83991e-06
-0.000161653
3.75628e-05
-0.000495635
8.23929e-05
-0.000860041
0.000143274
-0.00125487
0.000218762
-0.00167886
0.000306968
-0.00212942
0.000405531
-0.00260264
0.000511662
-0.00309347
0.000622248
-0.003596
0.000734017
-0.00410381
0.000843752
-0.00461045
0.000948527
-0.00510985
0.00104592
-0.00559672
-0.00606618
0.00113417
9.85707e-06
-0.00017151
3.7452e-05
-0.00052323
8.18126e-05
-0.000904402
0.000141667
-0.00131473
0.000215347
-0.00175254
0.000300738
-0.00221481
0.000395282
-0.00269718
0.000496039
-0.00319423
0.000599813
-0.00369977
0.000703342
-0.00420734
0.000803517
-0.00471063
0.000897617
-0.00520395
0.000983506
-0.00568261
-0.00614245
0.00105977
9.82793e-06
-0.000181338
3.71616e-05
-0.000550564
8.08327e-05
-0.000948073
0.000139357
-0.00137325
0.000210848
-0.00182404
0.000292984
-0.00229695
0.00038303
-0.00278723
0.000477924
-0.00328912
0.000574424
-0.00379627
0.000669313
-0.00430222
0.000759621
-0.00480093
0.000842858
-0.00528718
0.000917179
-0.00575693
-0.00620678
0.000981509
9.75203e-06
-0.00019109
3.66889e-05
-0.000577501
7.94485e-05
-0.000990832
0.00013634
-0.00143014
0.00020527
-0.00189297
0.000283727
-0.00237541
0.000368824
-0.00287233
0.000457406
-0.0033777
0.000546222
-0.00388509
0.00063213
-0.00438813
0.000712334
-0.00488114
0.000784585
-0.00535944
0.00084734
-0.00581969
-0.00625928
0.00089984
9.62497e-06
-0.000200715
3.60242e-05
-0.0006039
7.76466e-05
-0.00103245
0.000132604
-0.0014851
0.000198608
-0.00195897
0.000272978
-0.00244978
0.000352702
-0.00295205
0.000434565
-0.00345957
0.000515336
-0.00396586
0.000591985
-0.00446478
0.000661907
-0.00495106
0.000723115
-0.00542064
0.00077436
-0.00587093
-0.0063001
0.000815183
9.44704e-06
-0.000210162
3.51677e-05
-0.000629621
7.54296e-05
-0.00107272
0.000128157
-0.00153783
0.000190885
-0.0020217
0.000260785
-0.00251968
0.000334746
-0.00302601
0.000409526
-0.00353435
0.000481946
-0.00403828
0.000549114
-0.00453195
0.000608639
-0.00501059
0.0006588
-0.0054708
0.00069864
-0.00591077
-0.00632944
0.000727979
9.21748e-06
-0.000219379
3.41187e-05
-0.000654522
7.27993e-05
-0.0011114
0.00012301
-0.00158804
0.000182127
-0.00208082
0.000247198
-0.00258475
0.000315043
-0.00309386
0.000382421
-0.00360173
0.000446236
-0.00410209
0.000503758
-0.00458947
0.000552824
-0.00505965
0.000591985
-0.00550996
0.000620564
-0.00593935
-0.00634752
0.000638641
8.93601e-06
-0.000228315
3.2878e-05
-0.000678464
6.97616e-05
-0.00114828
0.000117179
-0.00163545
0.000172369
-0.00213601
0.00023228
-0.00264466
0.000293693
-0.00315527
0.000353396
-0.00366143
0.000408403
-0.0041571
0.000456164
-0.00463723
0.000494759
-0.00509825
0.000523007
-0.00553821
0.000540503
-0.00595685
-0.00635458
0.000547562
8.60279e-06
-0.000236918
3.14482e-05
-0.000701309
6.63256e-05
-0.00118316
0.000110687
-0.00167982
0.000161655
-0.00218697
0.000216106
-0.00269911
0.000270807
-0.00320997
0.000322608
-0.00371323
0.000368652
-0.00420314
0.000406588
-0.00467517
0.000434741
-0.0051264
0.000452199
-0.00555567
0.000458813
-0.00596346
-0.00635088
0.000455113
8.21847e-06
-0.000245136
2.98335e-05
-0.000722924
6.2504e-05
-0.00121583
0.000103561
-0.00172087
0.000150035
-0.00223345
0.000198757
-0.00274783
0.000246509
-0.00325772
0.000290223
-0.00375694
0.000327196
-0.00424012
0.000355287
-0.00470326
0.000373067
-0.00514418
0.000379884
-0.00556249
0.000375834
-0.00595941
-0.00633669
0.000361643
7.78412e-06
-0.00025292
2.80397e-05
-0.00074318
5.83127e-05
-0.0012461
9.58343e-05
-0.00175839
0.000137567
-0.00227518
0.000180323
-0.00279059
0.000220926
-0.00329833
0.000256416
-0.00379243
0.000284255
-0.00426795
0.000302519
-0.00472153
0.000310026
-0.00515169
0.000306375
-0.00555884
0.000291887
-0.00594492
-0.00631227
0.000267471
7.30128e-06
-0.000260222
2.60741e-05
-0.000761953
5.37704e-05
-0.0012738
8.7544e-05
-0.00179217
0.000124315
-0.00231195
0.000160903
-0.00282717
0.000194197
-0.00333162
0.000221364
-0.0038196
0.000240047
-0.00428664
0.000248541
-0.00473002
0.000245903
-0.00514905
0.000231969
-0.0055449
0.000207274
-0.00592023
-0.00627789
0.000172894
6.77189e-06
-0.000266994
2.39455e-05
-0.000779126
4.88988e-05
-0.00129875
7.87318e-05
-0.001822
0.000110348
-0.00234357
0.000140598
-0.00285742
0.000166463
-0.00335749
0.000185252
-0.00383839
0.000194796
-0.00429618
0.000193609
-0.00472883
0.000180977
-0.00513641
0.000156959
-0.00552088
0.000122272
-0.00588554
-0.00623379
7.81685e-05
6.19827e-06
-0.000273192
2.16637e-05
-0.000794592
4.37219e-05
-0.00132081
6.94425e-05
-0.00184772
9.57377e-05
-0.00236986
0.000119517
-0.0028812
0.000137869
-0.00337584
0.000148262
-0.00384878
0.000148722
-0.00429664
0.000137975
-0.00471809
0.000115524
-0.00511396
8.16422e-05
-0.005487
3.71952e-05
-0.00584109
-0.00617963
-1.69639e-05
5.5831e-06
-0.000278775
1.924e-05
-0.000808249
3.82656e-05
-0.00133984
5.9724e-05
-0.00186918
8.0561e-05
-0.0023907
9.77672e-05
-0.00289841
0.000108562
-0.00338663
0.000110581
-0.0038508
0.000102045
-0.00428811
8.18854e-05
-0.00469793
4.98073e-05
-0.00508189
6.2722e-06
-0.00544347
-4.76282e-05
-0.00578719
-0.00611687
-0.000110385
4.92936e-06
-0.000283704
1.66862e-05
-0.000820006
3.25575e-05
-0.00135571
4.9626e-05
-0.00188625
6.48959e-05
-0.00240597
7.54613e-05
-0.00290897
7.86875e-05
-0.00338986
7.23886e-05
-0.0038445
5.49786e-05
-0.0042707
2.55803e-05
-0.00466853
-1.59212e-05
-0.00504038
-6.88968e-05
-0.00539049
-0.000132101
-0.00572399
-0.00604511
-0.000203866
4.24029e-06
-0.000287945
1.40154e-05
-0.000829781
2.66267e-05
-0.00136832
3.91999e-05
-0.00189882
4.88215e-05
-0.00241559
5.27102e-05
-0.00291286
4.83924e-05
-0.00338554
3.38663e-05
-0.00382998
7.73493e-06
-0.00424456
-3.07045e-05
-0.00463009
-8.14114e-05
-0.00498968
-0.000143614
-0.00532829
-0.000215913
-0.00565169
-0.00596451
-0.000296512
3.51936e-06
-0.000291464
1.12407e-05
-0.000837502
2.05027e-05
-0.00137758
2.84975e-05
-0.00190682
3.2417e-05
-0.00241951
2.96236e-05
-0.00291007
1.78184e-05
-0.00337374
-4.81148e-06
-0.00380735
-3.94825e-05
-0.00420989
-8.6739e-05
-0.00458283
-0.000146417
-0.00493
-0.000217635
-0.00525707
-0.000298858
-0.00557047
-0.00587524
-0.000388121
2.77021e-06
-0.000294234
8.37607e-06
-0.000843108
1.42156e-05
-0.00138342
1.75708e-05
-0.00191017
1.57602e-05
-0.0024177
6.30883e-06
-0.00290062
-1.28973e-05
-0.00335453
-4.34787e-05
-0.00377676
-8.64756e-05
-0.0041669
-0.000142299
-0.00452701
-0.000210695
-0.0048616
-0.000290712
-0.00517705
-0.000380709
-0.00548047
-0.00577745
-0.000478504
1.99667e-06
-0.000296231
5.43536e-06
-0.000846547
7.79549e-06
-0.00138578
6.47113e-06
-0.00190885
-1.07135e-06
-0.00241016
-1.71321e-05
-0.00288456
-4.36244e-05
-0.00332804
-8.19747e-05
-0.00373841
-0.000133057
-0.00411581
-0.000197167
-0.0044629
-0.000274002
-0.00478477
-0.000362595
-0.00508846
-0.000461236
-0.00538183
-0.00567121
-0.000567479
1.20323e-06
-0.000297434
2.4325e-06
-0.000847776
1.27205e-06
-0.00138462
-4.75218e-06
-0.00190282
-1.8009e-05
-0.0023969
-4.06015e-05
-0.00286196
-7.42401e-05
-0.0032944
-0.000120153
-0.0036925
-0.000179052
-0.00405692
-0.000251138
-0.00439081
-0.000336098
-0.00469981
-0.00043302
-0.00499154
-0.000540199
-0.00527465
-0.00555654
-0.000654868
3.92576e-07
-0.000297827
-6.19601e-07
-0.000846764
-5.3257e-06
-0.00137991
-1.60506e-05
-0.0018921
-3.49789e-05
-0.00237797
-6.4008e-05
-0.00283294
-0.000104633
-0.00325377
-0.00015788
-0.00363925
-0.000224302
-0.00399049
-0.000304019
-0.0043111
-0.000396745
-0.00460708
-0.000501707
-0.00488658
-0.000617334
-0.00515902
-4.39152e-07
-0.000297388
-3.70552e-06
-0.000843497
-1.19691e-05
-0.00137165
-2.73779e-05
-0.00187669
-5.19176e-05
-0.00235343
-8.72682e-05
-0.00279758
-0.000134702
-0.00320634
-0.000195039
-0.00357892
-0.000268672
-0.00391686
-0.00035564
-0.00422413
-0.000455716
-0.00450701
-0.000568357
-0.00477394
-1.26958e-06
-0.000296118
-6.8129e-06
-0.000837954
-1.86313e-05
-0.00135983
-3.86901e-05
-0.00185663
-6.87641e-05
-0.00232336
-0.000110306
-0.00275604
-0.000164359
-0.00315229
-0.000231533
-0.00351174
-0.000312051
-0.00383634
-0.000405865
-0.00413031
-0.000512804
-0.00440007
-2.10988e-06
-0.000294008
-9.92903e-06
-0.000830135
-2.52857e-05
-0.00134447
-4.99457e-05
-0.00183197
-8.54614e-05
-0.00228784
-0.000133052
-0.00270845
-0.000193528
-0.00309181
-0.000267284
-0.00343799
-0.000354364
-0.00374926
-0.000454603
-0.00403007
-0.00428682
-2.9529e-06
-0.000291055
-1.30411e-05
-0.000820047
-3.19069e-05
-0.00132561
-6.11045e-05
-0.00180277
-0.000101956
-0.00224699
-0.000155442
-0.00265497
-0.000222142
-0.00302511
-0.000302233
-0.0033579
-0.000395566
-0.00365593
-0.000501823
-0.00392382
-3.7948e-06
-0.00028726
-1.61366e-05
-0.000807705
-3.84699e-05
-0.00130327
-7.21283e-05
-0.00176912
-0.000118198
-0.00220092
-0.000177419
-0.00259575
-0.000250142
-0.00295239
-0.000336334
-0.0032717
-0.000435651
-0.00355661
-4.62983e-06
-0.000282631
-1.91991e-05
-0.000793136
-4.49452e-05
-0.00127753
-8.29731e-05
-0.00173109
-0.000134129
-0.00214977
-0.000198917
-0.00253096
-0.000277463
-0.00287384
-0.000369536
-0.00317963
-0.00345153
-5.45856e-06
-0.000277172
-2.22246e-05
-0.00077637
-5.13201e-05
-0.00124843
-9.36159e-05
-0.00168879
-0.000149717
-0.00209367
-0.000219894
-0.00246078
-0.000304059
-0.00278968
-0.000401801
-0.00308189
-6.27535e-06
-0.000270897
-2.51973e-05
-0.000757448
-5.75661e-05
-0.00121606
-0.000104015
-0.00164234
-0.000164907
-0.00203277
-0.000240284
-0.0023854
-0.000329855
-0.00270011
-7.07689e-06
-0.00026382
-2.8106e-05
-0.000736418
-6.36612e-05
-0.00118051
-0.000114136
-0.00159187
-0.000179654
-0.00196726
-0.000260031
-0.00230503
-0.00260536
-7.85997e-06
-0.00025596
-3.09398e-05
-0.000713339
-6.95844e-05
-0.00114186
-0.000123947
-0.00153751
-0.000193914
-0.00189729
-0.000279082
-0.00221986
-0.00250566
-8.62153e-06
-0.000247338
-3.36885e-05
-0.000688272
-7.53163e-05
-0.00110024
-0.000133419
-0.0014794
-0.000207649
-0.00182306
-0.00029739
-0.00213012
-9.35869e-06
-0.00023798
-3.63427e-05
-0.000661288
-8.08386e-05
-0.00105574
-0.000142524
-0.00141772
-0.000220824
-0.00174476
-0.00203603
-1.00688e-05
-0.000227911
-3.88935e-05
-0.000632463
-8.61349e-05
-0.0010085
-0.000151239
-0.00135261
-0.000233408
-0.00166259
-1.07492e-05
-0.000217162
-4.1333e-05
-0.000601879
-9.11901e-05
-0.000958642
-0.000159541
-0.00128426
-0.00157676
-1.13979e-05
-0.000205764
-4.36536e-05
-0.000569623
-9.59904e-05
-0.000906306
-0.00016741
-0.00121284
-0.00148747
-1.20125e-05
-0.000193751
-4.58486e-05
-0.000535787
-0.000100523
-0.000851631
-0.000174829
-0.00113854
-1.25912e-05
-0.00018116
-4.7912e-05
-0.000500467
-0.000104778
-0.000794765
-0.00106153
-1.31323e-05
-0.000168028
-4.9838e-05
-0.000463761
-0.000108744
-0.000735859
-0.000982025
-1.3634e-05
-0.000154394
-5.16215e-05
-0.000425773
-0.000112412
-0.000675069
-0.000900204
-1.4095e-05
-0.000140299
-5.32579e-05
-0.000386611
-0.000115773
-0.000612554
-1.45138e-05
-0.000125785
-5.4743e-05
-0.000346381
-0.000548477
-1.48892e-05
-0.000110896
-5.60728e-05
-0.000305198
-0.000483003
-1.52202e-05
-9.56754e-05
-5.7244e-05
-0.000263174
-0.000416301
-1.55057e-05
-8.01697e-05
-5.82536e-05
-0.000220426
-0.000348542
-1.5745e-05
-6.44247e-05
-5.9099e-05
-0.000177072
-0.000279899
-1.59372e-05
-4.84875e-05
-5.97779e-05
-0.000133232
-0.000210547
-1.60819e-05
-3.24056e-05
-6.02886e-05
-8.90248e-05
-0.000140661
-1.61786e-05
-1.6227e-05
-6.06298e-05
-4.45736e-05
-7.04198e-05
-1.6227e-05
4.40782e-12
-6.08006e-05
1.32017e-11
2.28363e-11
-1.6227e-05
1.6227e-05
-6.08006e-05
4.45736e-05
7.04199e-05
-1.61786e-05
3.24056e-05
-6.06298e-05
8.90249e-05
0.000140662
-1.60819e-05
4.84875e-05
-6.02886e-05
0.000133232
0.000210547
-1.59372e-05
6.44247e-05
-5.97779e-05
0.000177072
0.000279899
-1.5745e-05
8.01697e-05
-5.9099e-05
0.000220426
0.000348542
-1.55057e-05
9.56754e-05
-5.82536e-05
0.000263174
0.000416301
-1.52202e-05
0.000110896
-5.7244e-05
0.000305198
0.000483003
-1.48892e-05
0.000125785
-5.60728e-05
0.000346381
0.000548477
-1.45138e-05
0.000140299
-5.4743e-05
0.000386611
0.000612554
-1.4095e-05
0.000154394
-5.32579e-05
0.000425773
-0.000115773
0.000675069
0.000900204
-1.3634e-05
0.000168028
-5.16215e-05
0.000463761
-0.000112412
0.000735859
0.000982025
-1.31323e-05
0.00018116
-4.9838e-05
0.000500467
-0.000108744
0.000794765
0.00106153
-1.25912e-05
0.000193751
-4.7912e-05
0.000535787
-0.000104778
0.000851631
0.00113854
-1.20125e-05
0.000205764
-4.58486e-05
0.000569623
-0.000100523
0.000906306
-0.000174829
0.00121284
0.00148747
-1.13979e-05
0.000217162
-4.36536e-05
0.000601879
-9.59904e-05
0.000958642
-0.00016741
0.00128426
0.00157676
-1.07492e-05
0.000227911
-4.1333e-05
0.000632463
-9.11901e-05
0.0010085
-0.000159541
0.00135261
0.00166259
-1.00688e-05
0.00023798
-3.88935e-05
0.000661288
-8.6135e-05
0.00105574
-0.000151239
0.00141772
-0.000233408
0.00174476
0.00203603
-9.35869e-06
0.000247338
-3.63427e-05
0.000688272
-8.08387e-05
0.00110024
-0.000142524
0.0014794
-0.000220824
0.00182306
0.00213012
-8.62153e-06
0.00025596
-3.36885e-05
0.000713339
-7.53163e-05
0.00114186
-0.000133419
0.00153751
-0.000207649
0.00189729
-0.00029739
0.00221986
0.00250566
-7.85997e-06
0.00026382
-3.09398e-05
0.000736419
-6.95844e-05
0.00118051
-0.000123947
0.00159187
-0.000193914
0.00196726
-0.000279082
0.00230503
0.00260536
-7.07689e-06
0.000270897
-2.8106e-05
0.000757448
-6.36612e-05
0.00121606
-0.000114136
0.00164234
-0.000179654
0.00203277
-0.000260031
0.0023854
-0.000354781
0.00270011
0.0029787
-6.27535e-06
0.000277172
-2.51974e-05
0.00077637
-5.75661e-05
0.00124843
-0.000104015
0.00168879
-0.000164907
0.00209367
-0.000240284
0.00246078
-0.000329855
0.00278968
0.00308189
-5.45856e-06
0.000282631
-2.22246e-05
0.000793136
-5.13201e-05
0.00127753
-9.36159e-05
0.00173109
-0.000149717
0.00214977
-0.000219894
0.00253096
-0.000304059
0.00287384
-0.000401801
0.00317963
0.00345153
-4.62983e-06
0.00028726
-1.91991e-05
0.000807705
-4.49452e-05
0.00130328
-8.29731e-05
0.00176912
-0.000134129
0.00220092
-0.000198917
0.00259575
-0.000277463
0.00295239
-0.000369536
0.0032717
0.00355661
-3.7948e-06
0.000291055
-1.61366e-05
0.000820047
-3.847e-05
0.00132561
-7.21283e-05
0.00180277
-0.000118198
0.00224699
-0.000177419
0.00265497
-0.000250142
0.00302511
-0.000336334
0.0033579
-0.000435651
0.00365593
0.00392382
-2.9529e-06
0.000294008
-1.30411e-05
0.000830135
-3.19069e-05
0.00134447
-6.11045e-05
0.00183197
-0.000101956
0.00228784
-0.000155442
0.00270845
-0.000222142
0.00309181
-0.000302233
0.00343799
-0.000395566
0.00374926
-0.000501823
0.00403007
0.00428682
-2.10988e-06
0.000296118
-9.92903e-06
0.000837954
-2.52857e-05
0.00135983
-4.99457e-05
0.00185663
-8.54614e-05
0.00232336
-0.000133052
0.00275604
-0.000193528
0.00315229
-0.000267284
0.00351174
-0.000354364
0.00383634
-0.000454603
0.00413031
0.00440007
-1.26958e-06
0.000297388
-6.8129e-06
0.000843497
-1.86313e-05
0.00137165
-3.86901e-05
0.00187669
-6.87641e-05
0.00235343
-0.000110306
0.00279759
-0.000164359
0.00320634
-0.000231533
0.00357892
-0.000312051
0.00391686
-0.000405865
0.00422413
-0.000512804
0.00450701
0.00477394
-4.39153e-07
0.000297827
-3.70552e-06
0.000846764
-1.19691e-05
0.00137991
-2.73779e-05
0.0018921
-5.19177e-05
0.00237797
-8.72682e-05
0.00283294
-0.000134702
0.00325377
-0.000195039
0.00363925
-0.000268672
0.00399049
-0.00035564
0.0043111
-0.000455716
0.00460708
-0.000568357
0.00488658
0.00515902
3.92575e-07
0.000297434
-6.19604e-07
0.000847776
-5.32571e-06
0.00138462
-1.60506e-05
0.00190282
-3.49789e-05
0.0023969
-6.40081e-05
0.00286196
-0.000104633
0.0032944
-0.00015788
0.0036925
-0.000224302
0.00405692
-0.000304019
0.00439081
-0.000396745
0.00469981
-0.000501707
0.00499154
-0.000617334
0.00527465
0.00555654
1.20323e-06
0.000296231
2.4325e-06
0.000846547
1.27204e-06
0.00138578
-4.75219e-06
0.00190885
-1.8009e-05
0.00241016
-4.06015e-05
0.00288456
-7.42402e-05
0.00332804
-0.000120153
0.00373841
-0.000179052
0.00411581
-0.000251138
0.0044629
-0.000336098
0.00478477
-0.00043302
0.00508846
-0.000540199
0.00538183
0.00567121
-0.000654868
1.99667e-06
0.000294234
5.43535e-06
0.000843108
7.79548e-06
0.00138342
6.47112e-06
0.00191017
-1.07137e-06
0.0024177
-1.71321e-05
0.00290062
-4.36244e-05
0.00335453
-8.19748e-05
0.00377676
-0.000133057
0.0041669
-0.000197167
0.00452701
-0.000274002
0.0048616
-0.000362595
0.00517705
-0.000461236
0.00548047
0.00577745
-0.000567479
2.77021e-06
0.000291464
8.37606e-06
0.000837502
1.42156e-05
0.00137758
1.75708e-05
0.00190682
1.57602e-05
0.00241951
6.3088e-06
0.00291007
-1.28973e-05
0.00337374
-4.34787e-05
0.00380735
-8.64757e-05
0.00420989
-0.000142299
0.00458283
-0.000210695
0.00493
-0.000290712
0.00525707
-0.000380709
0.00557047
0.00587524
-0.000478504
3.51936e-06
0.000287945
1.12407e-05
0.000829781
2.05027e-05
0.00136832
2.84975e-05
0.00189882
3.24169e-05
0.00241559
2.96236e-05
0.00291286
1.78184e-05
0.00338554
-4.81152e-06
0.00382998
-3.94826e-05
0.00424456
-8.6739e-05
0.00463009
-0.000146417
0.00498968
-0.000217635
0.00532829
-0.000298858
0.00565169
0.00596451
-0.000388121
4.24029e-06
0.000283704
1.40154e-05
0.000820006
2.66267e-05
0.00135571
3.91999e-05
0.00188625
4.88215e-05
0.00240597
5.27102e-05
0.00290897
4.83923e-05
0.00338986
3.38662e-05
0.0038445
7.73488e-06
0.0042707
-3.07045e-05
0.00466853
-8.14114e-05
0.00504038
-0.000143614
0.00539049
-0.000215913
0.00572399
0.00604511
-0.000296512
4.92936e-06
0.000278775
1.66862e-05
0.000808249
3.25575e-05
0.00133984
4.9626e-05
0.00186918
6.48959e-05
0.0023907
7.54613e-05
0.00289841
7.86875e-05
0.00338663
7.23886e-05
0.0038508
5.49786e-05
0.00428811
2.55803e-05
0.00469793
-1.59213e-05
0.00508189
-6.88968e-05
0.00544347
-0.000132102
0.00578719
0.00611687
-0.000203867
5.5831e-06
0.000273192
1.924e-05
0.000794592
3.82656e-05
0.00132081
5.9724e-05
0.00184772
8.0561e-05
0.00236986
9.77671e-05
0.0028812
0.000108562
0.00337584
0.00011058
0.00384878
0.000102045
0.00429664
8.18854e-05
0.00471809
4.98072e-05
0.00511396
6.27216e-06
0.005487
-4.76283e-05
0.00584109
0.00617963
-0.000110385
6.19827e-06
0.000266994
2.16637e-05
0.000779127
4.37219e-05
0.00129875
6.94425e-05
0.001822
9.57377e-05
0.00234357
0.000119517
0.00285742
0.000137869
0.00335749
0.000148262
0.00383839
0.000148722
0.00429618
0.000137975
0.00472883
0.000115524
0.00513641
8.16422e-05
0.00552088
3.71952e-05
0.00588554
0.00623379
-1.69639e-05
6.77189e-06
0.000260222
2.39455e-05
0.000761953
4.88988e-05
0.0012738
7.87318e-05
0.00179217
0.000110348
0.00231195
0.000140598
0.00282717
0.000166463
0.00333162
0.000185252
0.0038196
0.000194796
0.00428664
0.000193609
0.00473002
0.000180977
0.00514905
0.000156959
0.0055449
0.000122272
0.00592023
0.00627789
7.81685e-05
7.30128e-06
0.00025292
2.60741e-05
0.00074318
5.37704e-05
0.0012461
8.7544e-05
0.0017584
0.000124315
0.00227518
0.000160903
0.00279059
0.000194197
0.00329833
0.000221364
0.00379243
0.000240047
0.00426795
0.000248541
0.00472153
0.000245903
0.00515169
0.000231969
0.00555884
0.000207274
0.00594492
0.00631227
0.000172894
7.78412e-06
0.000245136
2.80397e-05
0.000722924
5.83127e-05
0.00121583
9.58343e-05
0.00172087
0.000137567
0.00223345
0.000180323
0.00274783
0.000220926
0.00325772
0.000256416
0.00375694
0.000284255
0.00424012
0.000302519
0.00470326
0.000310026
0.00514418
0.000306375
0.00556249
0.000291887
0.00595941
0.00633669
0.000267471
8.21847e-06
0.000236918
2.98335e-05
0.000701309
6.2504e-05
0.00118316
0.000103561
0.00167982
0.000150035
0.00218697
0.000198757
0.00269911
0.000246509
0.00320997
0.000290223
0.00371323
0.000327196
0.00420314
0.000355287
0.00467517
0.000373067
0.0051264
0.000379884
0.00555567
0.000375834
0.00596346
0.00635088
0.000361643
8.60279e-06
0.000228315
3.14482e-05
0.000678464
6.63256e-05
0.00114828
0.000110687
0.00163546
0.000161655
0.00213601
0.000216106
0.00264466
0.000270807
0.00315527
0.000322608
0.00366143
0.000368651
0.0041571
0.000406588
0.00463723
0.000434741
0.00509825
0.000452199
0.00553821
0.000458813
0.00595685
0.00635458
0.000455113
8.93601e-06
0.000219379
3.2878e-05
0.000654522
6.97616e-05
0.0011114
0.000117179
0.00158804
0.000172369
0.00208082
0.00023228
0.00258475
0.000293693
0.00309386
0.000353396
0.00360173
0.000408402
0.00410209
0.000456164
0.00458947
0.000494759
0.00505965
0.000523007
0.00550996
0.000540503
0.00593935
0.00634752
0.000547562
9.21748e-06
0.000210162
3.41187e-05
0.000629621
7.27993e-05
0.00107272
0.00012301
0.00153783
0.000182127
0.0020217
0.000247198
0.00251968
0.000315043
0.00302601
0.000382421
0.00353435
0.000446236
0.00403828
0.000503758
0.00453195
0.000552824
0.00501059
0.000591985
0.0054708
0.000620564
0.00591077
0.00632944
0.000638641
9.44704e-06
0.000200715
3.51677e-05
0.0006039
7.54295e-05
0.00103246
0.000128157
0.0014851
0.000190885
0.00195897
0.000260785
0.00244978
0.000334746
0.00295205
0.000409526
0.00345957
0.000481946
0.00396586
0.000549114
0.00446478
0.000608639
0.00495106
0.0006588
0.00542064
0.00069864
0.00587093
0.0063001
0.000727979
9.62497e-06
0.00019109
3.60242e-05
0.000577501
7.76466e-05
0.000990833
0.000132604
0.00143014
0.000198608
0.00189297
0.000272978
0.00237541
0.000352702
0.00287233
0.000434565
0.00337771
0.000515336
0.00388509
0.000591985
0.00438813
0.000661907
0.00488114
0.000723115
0.00535944
0.00077436
0.00581969
0.00625928
0.000815183
9.75202e-06
0.000181338
3.66889e-05
0.000550564
7.94485e-05
0.000948073
0.00013634
0.00137325
0.00020527
0.00182404
0.000283727
0.00229695
0.000368824
0.00278723
0.000457406
0.00328912
0.000546222
0.00379627
0.00063213
0.00430223
0.000712334
0.00480093
0.000784585
0.00528718
0.00084734
0.00575693
0.00620678
0.00089984
9.82793e-06
0.00017151
3.71616e-05
0.00052323
8.08327e-05
0.000904402
0.000139357
0.00131473
0.000210848
0.00175254
0.000292984
0.00221481
0.00038303
0.00269719
0.000477924
0.00319423
0.000574424
0.00369977
0.000669312
0.00420734
0.000759621
0.00471063
0.000842857
0.00520395
0.000917179
0.00568261
0.00614245
0.000981509
9.85707e-06
0.000161653
3.7452e-05
0.000495635
8.18126e-05
0.000860041
0.000141667
0.00125487
0.000215347
0.00167886
0.000300738
0.00212942
0.000395282
0.00260264
0.000496039
0.00309347
0.000599813
0.003596
0.000703342
0.00410381
0.000803517
0.00461045
0.000897617
0.00510985
0.000983506
0.00559672
0.00606618
0.00105977
9.83991e-06
0.000151813
3.75628e-05
0.000467912
8.23929e-05
0.000815211
0.000143274
0.00119399
0.000218762
0.00160338
0.000306968
0.00204122
0.000405531
0.00250408
0.000511662
0.00298734
0.000622248
0.00348541
0.000734017
0.00399204
0.000843752
0.00450072
0.000948527
0.00500507
0.00104592
0.00549933
0.00597793
0.00113417
9.77881e-06
0.000142034
3.75011e-05
0.00044019
8.25854e-05
0.000770127
0.000144191
0.00113239
0.000221107
0.00152646
0.000311675
0.00195065
0.000413755
0.002402
0.000524737
0.00287636
0.000641624
0.00336852
0.000761171
0.00387249
0.000880091
0.0043818
0.000995278
0.00488989
0.00110404
0.00539057
0.0058777
0.00120426
9.67643e-06
0.000132357
3.72752e-05
0.000412591
8.24054e-05
0.000724997
0.00014444
0.00107035
0.0002224
0.0014485
0.000314873
0.00185818
0.000419951
0.00229692
0.00053523
0.00276108
0.000657861
0.00324589
0.000784668
0.00374568
0.000912326
0.00425414
0.00103759
0.00476463
0.0011575
0.00527066
0.0057656
0.0012696
9.5357e-06
0.000122822
3.68949e-05
0.000385232
8.18708e-05
0.000680021
0.000144045
0.00100818
0.000222674
0.00136987
0.000316589
0.00176426
0.000424134
0.00218938
0.000543131
0.00264208
0.00067091
0.00311811
0.000804401
0.00361219
0.000940283
0.00411826
0.0010752
0.00462971
0.00120597
0.00513989
0.00564178
0.00132978
9.35975e-06
0.000113462
3.63705e-05
0.000358221
8.1002e-05
0.000635389
0.000143039
0.00094614
0.000221965
0.00129095
0.000316864
0.00166936
0.000426337
0.0020799
0.000548453
0.00251997
0.00068075
0.00298582
0.000820298
0.00347265
0.000963825
0.00397473
0.0011079
0.00448564
0.00124914
0.00499864
0.00550651
0.00138441
9.15186e-06
0.00010431
3.57133e-05
0.00033166
7.98213e-05
0.000591281
0.000141454
0.000884507
0.000220319
0.00121208
0.00031575
0.00157393
0.000426611
0.00196904
0.000551233
0.00239534
0.00068739
0.00284966
0.000832328
0.00332771
0.000982859
0.0038242
0.00113552
0.00433297
0.00128677
0.00143315
8.91539e-06
9.53947e-05
3.4935e-05
0.00030564
7.83523e-05
0.000547864
0.000139329
0.00082353
0.000217788
0.00113362
0.000313308
0.00147841
0.000425021
0.00185733
0.000551532
0.00226883
0.000690871
0.00271032
0.000840493
0.00317809
0.000997337
8.65367e-06
8.6741e-05
3.40475e-05
0.000280247
7.66194e-05
0.000505292
0.000136703
0.000763446
0.000214427
0.0010559
0.000309608
0.00138323
0.000421646
0.00174529
0.000549429
0.00214105
0.000691261
8.36998e-06
7.83711e-05
3.30624e-05
0.000255554
7.46472e-05
0.000463708
0.000133618
0.000704476
0.000210295
0.00097922
0.000304727
0.0012888
0.000416577
0.00163344
8.06738e-06
7.03037e-05
3.19911e-05
0.00023163
7.24599e-05
0.000423239
0.000130113
0.000646823
0.000205451
0.000903881
0.000298743
7.74872e-06
6.2555e-05
3.08442e-05
0.000208535
7.00803e-05
0.000384003
0.000126227
7.4165e-06
5.51385e-05
2.96312e-05
0.00018632
7.07287e-06
4.80656e-05
0.00515992
0.000983588
-0.005162
0.00515127
0.00106843
0.00513558
0.00114986
0.0051124
0.00122745
0.00508128
0.00130072
0.00504183
0.00136924
0.00499367
0.00143257
0.00149032
0.00542435
0.000977474
-0.00541823
0.00542477
0.001068
0.00541902
0.00115561
0.00540661
0.00123986
0.00538705
0.00132028
0.00535988
0.00139641
0.00532465
0.0014678
0.00153401
0.00568255
0.000963629
-0.0056687
0.00569171
0.00105884
0.00569569
0.00115163
0.00569398
0.00124156
0.00568607
0.00132819
0.00567144
0.00141104
0.00564959
0.00148965
0.00156358
0.00593539
0.000942968
-0.00591473
0.00595243
0.00104181
0.00596535
0.00113871
0.00597365
0.00123326
0.00597681
0.00132503
0.00597427
0.00141358
0.00596549
0.00149844
0.00157915
0.00618483
0.000916653
-0.00615851
0.00620859
0.00101805
0.00622935
0.00111795
0.00624661
0.00121599
0.00625987
0.00131178
0.00626856
0.00140488
0.00627213
0.00149487
0.00158129
0.00643324
0.000885943
-0.00640253
0.00646243
0.000988852
0.00648971
0.00109068
0.00651462
0.00119108
0.00653669
0.00128971
0.00655539
0.00138618
0.00657016
0.0014801
0.00157103
0.00668311
0.000852061
-0.00664923
0.00671643
0.000955538
0.00674883
0.00105827
0.00677995
0.00115997
0.00680934
0.00126032
0.00683654
0.00135898
0.00686104
0.0014556
0.00154979
0.00693681
0.000816091
-0.00690084
0.00697304
0.000919313
0.00700924
0.00102206
0.00704513
0.00112409
0.00708032
0.00122512
0.00711443
0.00132488
0.007147
0.00142303
0.00151926
0.00719641
0.00077892
-0.00715924
0.00723452
0.000881204
0.00727336
0.000983213
0.00731271
0.00108474
0.00735227
0.00118556
0.00739173
0.00128542
0.00743071
0.00138406
0.00148118
0.00746362
0.000741232
-0.00742593
0.0075028
0.000842025
0.00754333
0.000942683
0.00758504
0.00104303
0.00762773
0.00114287
0.00767113
0.00124201
0.00771497
0.00134022
0.00143725
0.00773981
0.000703516
-0.00770209
0.00777945