/*--------------------------------*- C++ -*----------------------------------*\
  =========                 |
  \\      /  F ield         | OpenFOAM: The Open Source CFD Toolbox
   \\    /   O peration     | Website:  https://openfoam.org
    \\  /    A nd           | Version:  7
     \\/     M anipulation  |
\*---------------------------------------------------------------------------*/
FoamFile
{
    version     2.0;
    format      ascii;
    class       volVectorField;
    location    "40";
    object      U;
}
// * * * * * * * * * * * * * * * * * * * * * * * * * * * * * * * * * * * * * //

dimensions      [0 1 -1 0 0 0 0];

internalField   nonuniform List<vector> 
3275
(
(-0.0217189 -0.0015364 1.46735e-21)
(-0.0125883 -0.00178451 -1.10398e-21)
(-0.00175412 -0.00199122 -1.41933e-22)
(0.0106647 -0.00215647 6.38072e-22)
(0.0245327 -0.00228237 -2.06801e-22)
(0.0397081 -0.00237231 5.37437e-22)
(0.0560491 -0.00243024 -2.88283e-22)
(0.0734179 -0.00246024 -3.75464e-23)
(0.0916836 -0.00246625 -4.19507e-22)
(0.110722 -0.00245187 1.37512e-22)
(0.130418 -0.00242037 -6.2798e-22)
(0.15066 -0.00237465 -1.32636e-22)
(0.171351 -0.00231722 9.30828e-23)
(0.19239 -0.00225036 -2.27272e-22)
(0.213699 -0.0021759 -7.6291e-23)
(0.235173 -0.00209577 -1.17817e-22)
(0.256776 -0.00201101 -1.51904e-24)
(0.278361 -0.00192376 5.83611e-23)
(0.299998 -0.00183355 -1.34693e-22)
(0.321379 -0.00174443 1.3934e-22)
(0.342888 -0.0016516 2.96558e-23)
(0.363699 -0.00156627 -5.04422e-23)
(0.385116 -0.00147012 4.90275e-23)
(0.404774 -0.00139787 -4.79848e-23)
(0.426618 -0.00128931 1.80873e-23)
(0.443852 -0.00125116 -4.24077e-23)
(0.467894 -0.00110015 -1.38208e-24)
(0.479494 -0.00114152 -4.90737e-24)
(0.510524 -0.000900749 -3.85418e-23)
(-0.0195472 -0.00461257 -6.93989e-21)
(-0.0103761 -0.00535403 2.43328e-21)
(0.000479665 -0.00597165 -2.49819e-21)
(0.0129021 -0.00646528 3.21544e-21)
(0.0267575 -0.00684133 6.26476e-22)
(0.0419063 -0.0071099 -2.16509e-21)
(0.0582088 -0.00728282 -1.10094e-21)
(0.0755296 -0.00737229 3.96221e-22)
(0.0937396 -0.00739001 -1.55583e-21)
(0.112716 -0.00734679 2.14331e-21)
(0.132346 -0.00725236 6.96123e-22)
(0.152519 -0.00711538 -1.3943e-22)
(0.173139 -0.00694337 6.35604e-22)
(0.194104 -0.00674312 -4.67506e-22)
(0.215339 -0.00652013 3.42961e-22)
(0.23674 -0.00628013 6.13979e-23)
(0.25827 -0.00602627 1.82745e-22)
(0.279783 -0.00576493 2.89791e-23)
(0.301348 -0.00549474 9.43132e-23)
(0.32266 -0.00522778 -7.0036e-22)
(0.3441 -0.00494969 8.85499e-23)
(0.364845 -0.00469408 -8.90879e-23)
(0.386196 -0.004406 -1.46618e-22)
(0.405793 -0.0041896 -4.03512e-23)
(0.427574 -0.00386429 -1.16867e-22)
(0.444754 -0.00375012 -2.39351e-23)
(0.468733 -0.00329751 -2.23759e-24)
(0.480291 -0.00342168 6.28674e-23)
(0.511249 -0.00270043 -8.74361e-23)
(-0.0152075 -0.00769858 5.45392e-21)
(-0.00595671 -0.00892488 -2.41203e-21)
(0.00494078 -0.00994587 -2.99382e-21)
(0.0173692 -0.0107616 2.61398e-21)
(0.0311985 -0.0113829 5.43758e-21)
(0.0462932 -0.0118264 -2.86477e-22)
(0.0625184 -0.0121117 -1.94157e-21)
(0.0797428 -0.012259 -2.67705e-21)
(0.0978411 -0.0122876 2.36636e-21)
(0.116694 -0.0122153 -8.45527e-22)
(0.136192 -0.0120581 2.0486e-22)
(0.156227 -0.0118304 -6.09217e-22)
(0.176703 -0.0115447 -1.49441e-21)
(0.197523 -0.011212 4.27621e-22)
(0.218611 -0.0108416 7.0114e-22)
(0.239865 -0.010443 2.78087e-22)
(0.261249 -0.0100212 3.49216e-22)
(0.282618 -0.00958708 -4.68579e-22)
(0.304041 -0.00913814 4.75809e-22)
(0.325213 -0.00869459 -9.78076e-24)
(0.346517 -0.00823241 -1.69946e-22)
(0.36713 -0.0078077 4.58282e-22)
(0.388351 -0.00732881 2.85871e-22)
(0.407825 -0.00696931 6.95399e-23)
(0.429482 -0.00642831 1.16613e-22)
(0.446553 -0.00623898 7.13928e-23)
(0.470407 -0.00548607 -8.27754e-24)
(0.481884 -0.00569321 1.93247e-23)
(0.512696 -0.00449467 -3.67474e-23)
(-0.00870668 -0.0108002 4.11049e-21)
(0.000659743 -0.0124972 -7.79324e-21)
(0.0116164 -0.0139092 2.78064e-21)
(0.0240508 -0.0150367 7.95179e-22)
(0.0378384 -0.015895 1.48408e-21)
(0.0528503 -0.0165074 6.69043e-21)
(0.068958 -0.0169009 -4.43489e-21)
(0.0860369 -0.0171034 1.32838e-21)
(0.103967 -0.0171415 -5.91667e-22)
(0.122636 -0.0170397 2.07589e-21)
(0.141935 -0.0168202 -7.57676e-22)
(0.161762 -0.0165028 8.86908e-22)
(0.182025 -0.0161046 -2.11318e-21)
(0.202628 -0.0156413 3.12364e-21)
(0.223497 -0.0151254 -2.3375e-21)
(0.244532 -0.01457 -5.56497e-22)
(0.265697 -0.0139825 -6.45675e-22)
(0.286851 -0.0133776 9.11691e-22)
(0.308062 -0.012752 1.17107e-21)
(0.329027 -0.0121339 5.25734e-22)
(0.350127 -0.0114896 -2.14705e-22)
(0.370543 -0.0108978 -9.82027e-22)
(0.39157 -0.0102299 -8.73767e-23)
(0.410862 -0.00972905 -6.05806e-23)
(0.432332 -0.00897416 8.2827e-23)
(0.449243 -0.00871109 2.27898e-23)
(0.47291 -0.00766002 -2.47067e-25)
(0.484265 -0.0079504 -2.52846e-22)
(0.514861 -0.00627986 1.54733e-22)
(-5.53418e-05 -0.0139223 1.87399e-20)
(0.00945824 -0.0160703 -1.72918e-20)
(0.0204873 -0.017856 3.95503e-21)
(0.0329241 -0.0192811 2.85247e-21)
(0.0466515 -0.0203653 -3.41696e-21)
(0.0615493 -0.0211383 -4.53858e-21)
(0.077498 -0.0216344 -1.28034e-22)
(0.0943814 -0.0218885 2.21019e-21)
(0.112087 -0.0219342 -3.86466e-21)
(0.130509 -0.0218025 2.72677e-21)
(0.149544 -0.0215214 -2.38756e-21)
(0.169096 -0.0211156 2.99283e-21)
(0.189075 -0.020607 9.24962e-22)
(0.20939 -0.0200154 -1.64414e-21)
(0.229968 -0.0193565 1.871e-21)
(0.250713 -0.0186473 -1.02499e-21)
(0.27159 -0.0178969 7.5181e-22)
(0.292459 -0.0171242 7.48963e-22)
(0.313389 -0.0163248 -1.11551e-21)
(0.33408 -0.015535 -7.99698e-22)
(0.354911 -0.0147114 1.0068e-22)
(0.375068 -0.013955 4.24263e-22)
(0.395838 -0.0131008 1.55017e-22)
(0.414889 -0.012461 -1.67776e-22)
(0.436112 -0.0114947 1.67023e-23)
(0.45281 -0.0111599 -1.54381e-22)
(0.47623 -0.00981362 -1.86359e-23)
(0.487425 -0.0101876 2.05098e-22)
(0.517735 -0.00805241 -1.9923e-22)
(0.0107328 -0.0170677 1.06672e-20)
(0.0204189 -0.0196419 5.72437e-22)
(0.0315279 -0.0217797 -6.63307e-21)
(0.0439587 -0.0234844 -1.39162e-20)
(0.0576035 -0.0247806 6.24911e-21)
(0.0723532 -0.0257041 5.14197e-21)
(0.0880993 -0.0262957 -1.29202e-21)
(0.104736 -0.0265972 1.77447e-22)
(0.12216 -0.0266485 2.6208e-21)
(0.140273 -0.0264865 -6.23296e-22)
(0.15898 -0.0261445 -2.17372e-21)
(0.178189 -0.0256523 1.04156e-21)
(0.197815 -0.0250359 2.30823e-22)
(0.217772 -0.0243189 -1.46207e-22)
(0.23799 -0.0235206 -7.27682e-22)
(0.258376 -0.0226611 -1.9084e-21)
(0.278896 -0.0217515 -2.77047e-23)
(0.299412 -0.0208147 -1.35184e-21)
(0.319995 -0.0198452 7.7906e-22)
(0.340347 -0.0188874 -3.47525e-22)
(0.360844 -0.0178879 9.41339e-22)
(0.38068 -0.0169705 -7.83822e-22)
(0.401133 -0.0159331 -9.392e-23)
(0.419887 -0.0151575 2.75624e-22)
(0.440805 -0.0139829 3.47581e-22)
(0.457241 -0.0135789 -4.8311e-24)
(0.480354 -0.0119413 4.33935e-24)
(0.491353 -0.0123994 -7.80176e-23)
(0.521308 -0.00980875 1.8062e-22)
(0.0236408 -0.0202375 3.95885e-21)
(0.0335169 -0.0232079 1.05894e-20)
(0.0447065 -0.0256719 -1.19374e-20)
(0.0571168 -0.0276352 1.17298e-20)
(0.070652 -0.0291271 -8.95465e-21)
(0.0852159 -0.030189 -7.32074e-21)
(0.100713 -0.0308681 5.37123e-21)
(0.11705 -0.0312122 -3.12672e-21)
(0.134135 -0.0312668 6.55121e-21)
(0.151877 -0.0310742 -2.95839e-21)
(0.170191 -0.0306727 8.36753e-21)
(0.188991 -0.0300965 2.25497e-22)
(0.208198 -0.0293754 -3.27195e-21)
(0.227729 -0.028537 4.85238e-21)
(0.247519 -0.0276034 6.90582e-24)
(0.267478 -0.026598 2.5879e-21)
(0.287574 -0.0255336 -1.66631e-21)
(0.307672 -0.0244373 3.47154e-22)
(0.327844 -0.0233022 8.63742e-22)
(0.347794 -0.0221807 5.80952e-22)
(0.367897 -0.0210096 -4.0929e-22)
(0.387353 -0.0199353 9.64883e-22)
(0.40743 -0.0187188 2.4891e-22)
(0.425832 -0.0178112 -3.84588e-22)
(0.446388 -0.0164321 -3.47233e-23)
(0.462514 -0.0159618 1.99075e-22)
(0.485266 -0.0140374 8.6467e-24)
(0.496032 -0.0145802 3.87346e-22)
(0.525567 -0.0115453 -7.92221e-23)
(0.0386488 -0.0234302 5.29862e-21)
(0.0487229 -0.0267622 -2.13587e-20)
(0.059985 -0.0295226 1.44749e-20)
(0.0723533 -0.0317205 9.24433e-22)
(0.0857461 -0.0333896 -1.0829e-21)
(0.100082 -0.0345769 -1.6952e-21)
(0.115282 -0.0353347 1.11004e-20)
(0.131265 -0.0357161 5.00619e-21)
(0.147951 -0.0357718 -1.96081e-21)
(0.165262 -0.0355488 -1.04677e-20)
(0.183119 -0.0350895 2.40046e-21)
(0.201445 -0.0344322 5.33601e-21)
(0.220166 -0.0336105 -5.95706e-21)
(0.239206 -0.0326552 4.59906e-22)
(0.258503 -0.0315911 -1.42048e-21)
(0.277969 -0.0304451 3.32171e-22)
(0.297578 -0.0292313 1.25761e-21)
(0.317195 -0.0279807 -1.56784e-22)
(0.336895 -0.0266852 9.21307e-22)
(0.356383 -0.0254052 -4.48919e-22)
(0.376033 -0.0240675 3.93489e-22)
(0.395053 -0.0228411 -9.4364e-22)
(0.414698 -0.02145 -5.5947e-24)
(0.432697 -0.0204147 6.1359e-22)
(0.452839 -0.0188356 -2.75773e-22)
(0.468609 -0.0183027 -1.96848e-22)
(0.490945 -0.0160969 -2.75141e-23)
(0.501445 -0.0167249 -7.08692e-22)
(0.530497 -0.0132587 -2.34005e-22)
(0.0557338 -0.0266412 8.45964e-21)
(0.0660025 -0.0302958 -6.86041e-21)
(0.0773192 -0.0333197 -3.93769e-21)
(0.0896157 -0.0357258 1.01012e-20)
(0.102827 -0.0375523 -1.4456e-20)
(0.116889 -0.0388508 1.06524e-20)
(0.131739 -0.0396781 -1.02984e-20)
(0.147312 -0.0400917 -8.28671e-21)
(0.163541 -0.0401465 8.44438e-21)
(0.180358 -0.0398934 5.92352e-21)
(0.197695 -0.0393787 -1.10065e-20)
(0.215484 -0.038644 -2.86572e-21)
(0.233656 -0.0377263 -5.3015e-22)
(0.252141 -0.0366594 1.58133e-21)
(0.270882 -0.0354706 6.57982e-24)
(0.289795 -0.0341899 -2.12418e-21)
(0.308855 -0.0328327 -8.87081e-22)
(0.327932 -0.031434 -1.47112e-21)
(0.3471 -0.029984 -3.20828e-21)
(0.366069 -0.0285514 8.65705e-23)
(0.385211 -0.0270527 -1.31973e-21)
(0.403741 -0.0256797 -4.90635e-22)
(0.422903 -0.0241193 8.38117e-22)
(0.44045 -0.0229612 -2.23029e-22)
(0.460126 -0.0211872 -4.08123e-22)
(0.475499 -0.0205955 1.32298e-22)
(0.497368 -0.0181145 3.13471e-23)
(0.507572 -0.0188283 2.82135e-22)
(0.53608 -0.0149454 3.69272e-22)
(0.0748695 -0.0298624 4.75324e-21)
(0.0853162 -0.0337969 -1.43284e-20)
(0.0966582 -0.0370487 1.33869e-20)
(0.108844 -0.0396349 -2.18931e-20)
(0.121827 -0.0415979 1.22224e-20)
(0.135564 -0.0429929 -1.00289e-21)
(0.150009 -0.0438805 -6.10372e-21)
(0.165114 -0.0443214 2.19673e-21)
(0.180825 -0.0443738 -1.99553e-22)
(0.197088 -0.0440917 -8.74962e-21)
(0.213845 -0.0435245 7.25544e-21)
(0.231034 -0.042717 -3.71982e-22)
(0.248596 -0.0417086 -1.62074e-22)
(0.266466 -0.0405362 -3.1233e-21)
(0.284591 -0.0392293 3.65898e-21)
(0.302891 -0.0378206 6.18551e-23)
(0.321345 -0.0363268 -2.25421e-21)
(0.339825 -0.0347868 3.95708e-23)
(0.358407 -0.033189 3.70486e-21)
(0.376805 -0.0316104 -8.36767e-22)
(0.395386 -0.0299569 7.25889e-22)
(0.413377 -0.0284434 -6.44528e-23)
(0.432005 -0.0267194 -1.17392e-21)
(0.449055 -0.0254441 3.27291e-22)
(0.468219 -0.0234809 -2.17768e-22)
(0.483155 -0.0228347 -3.48125e-22)
(0.504509 -0.0200854 7.19433e-24)
(0.514389 -0.0208857 3.46579e-22)
(0.542296 -0.016602 -2.96643e-22)
(0.0960261 -0.0330817 -1.11797e-20)
(0.106619 -0.0372504 3.62128e-21)
(0.117945 -0.0406925 3.20426e-20)
(0.129971 -0.0434297 -1.04366e-20)
(0.142673 -0.0455078 -6.11043e-21)
(0.156027 -0.0469849 9.2439e-21)
(0.170009 -0.0479239 5.09413e-21)
(0.184585 -0.0483878 2.60391e-21)
(0.199719 -0.0484369 5.9418e-21)
(0.215367 -0.0481277 9.38039e-22)
(0.231483 -0.0475119 8.05398e-21)
(0.248014 -0.0466367 -3.11167e-21)
(0.264907 -0.0455439 -4.03859e-21)
(0.282104 -0.0442729 3.59768e-21)
(0.299556 -0.0428551 4.46788e-21)
(0.317188 -0.041326 5.04429e-22)
(0.334982 -0.0397032 2.991e-21)
(0.352813 -0.0380293 -1.23581e-22)
(0.370758 -0.036291 -3.4265e-21)
(0.388534 -0.0345735 2.17658e-21)
(0.406508 -0.0327722 -9.2217e-23)
(0.423914 -0.0311249 -9.95082e-22)
(0.441963 -0.0292438 5.7169e-22)
(0.458474 -0.0278573 3.12915e-23)
(0.477082 -0.0257109 5.09114e-22)
(0.491544 -0.025015 1.16296e-23)
(0.51234 -0.0220049 1.8185e-23)
(0.52187 -0.0228925 -1.10642e-22)
(0.549124 -0.0182253 4.28726e-22)
(0.11917 -0.0362824 -2.87078e-20)
(0.12986 -0.0406374 4.08878e-23)
(0.141114 -0.0442313 2.00442e-20)
(0.152921 -0.0470901 -3.35242e-21)
(0.16528 -0.0492625 -3.01495e-20)
(0.17819 -0.0508079 2.26497e-20)
(0.191646 -0.0517902 3.37958e-21)
(0.205633 -0.0522735 6.382e-21)
(0.220129 -0.0523195 -2.10003e-20)
(0.235104 -0.0519859 -4.78483e-22)
(0.25052 -0.0513262 -2.19061e-21)
(0.266335 -0.0503894 6.05013e-21)
(0.282504 -0.0492194 -4.68716e-21)
(0.298973 -0.0478575 -9.16939e-22)
(0.3157 -0.046337 -2.88893e-21)
(0.332612 -0.0446956 7.87381e-22)
(0.349696 -0.042952 -1.93201e-21)
(0.36683 -0.0411525 2.08803e-21)
(0.38409 -0.0392817 -2.2571e-21)
(0.401201 -0.0374331 8.85517e-22)
(0.418521 -0.0354913 -1.2019e-21)
(0.4353 -0.0337174 7.13602e-22)
(0.45273 -0.0316861 7.7549e-22)
(0.468663 -0.0301947 -1.17368e-21)
(0.486676 -0.0278719 -3.64073e-22)
(0.500633 -0.0271314 4.3787e-22)
(0.520829 -0.0238688 -5.29593e-23)
(0.529989 -0.0248442 -3.05498e-22)
(0.556541 -0.0198121 8.80381e-23)
(0.14426 -0.039443 -4.0612e-22)
(0.154983 -0.0439353 2.05117e-20)
(0.166094 -0.0476424 7.80458e-22)
(0.17761 -0.0505944 -1.10288e-20)
(0.189557 -0.0528411 -4.50192e-21)
(0.201957 -0.0544421 -1.0166e-20)
(0.214822 -0.055461 2.99519e-20)
(0.228158 -0.0559616 -1.46641e-20)
(0.241955 -0.0560056 1.36436e-21)
(0.256198 -0.0556515 -1.98623e-20)
(0.270859 -0.0549536 1.07154e-20)
(0.285904 -0.0539624 1.98575e-21)
(0.301296 -0.0527231 5.18517e-22)
(0.316987 -0.0512788 -2.15309e-21)
(0.332939 -0.0496644 1.81225e-23)
(0.349085 -0.0479198 -3.69096e-21)
(0.365413 -0.0460643 3.66331e-21)
(0.381805 -0.0441479 1.36324e-21)
(0.398338 -0.0421531 5.89861e-23)
(0.414741 -0.0401817 1.93864e-21)
(0.43137 -0.0381075 1.28767e-22)
(0.447484 -0.0362147 7.03097e-22)
(0.464256 -0.0340406 1.28002e-21)
(0.479579 -0.0324512 -1.66148e-22)
(0.496961 -0.0299591 -3.26387e-22)
(0.510385 -0.0291793 1.08932e-22)
(0.529944 -0.0256729 -8.31512e-24)
(0.538714 -0.0267367 2.77193e-22)
(0.56452 -0.0213591 -6.70615e-22)
(0.18192 -0.0471176 1.68089e-20)
(0.192803 -0.0509006 -3.49202e-20)
(0.203949 -0.0539187 1.8822e-20)
(0.215407 -0.0562217 -2.48511e-21)
(0.227223 -0.0578676 3.20884e-20)
(0.239431 -0.058918 -1.88893e-20)
(0.252051 -0.0594352 3.06368e-21)
(0.265091 -0.0594799 3.85665e-22)
(0.278545 -0.0591104 -4.28319e-22)
(0.292397 -0.0583812 -5.39854e-21)
(0.306621 -0.0573437 5.54469e-21)
(0.321188 -0.056044 5.60955e-22)
(0.336053 -0.0545267 -4.64213e-22)
(0.351186 -0.0528279 3.65175e-21)
(0.366522 -0.0509897 3.05673e-21)
(0.382053 -0.0490318 -1.42277e-21)
(0.397663 -0.0470079 8.07613e-22)
(0.413432 -0.0448982 -3.24213e-21)
(0.429092 -0.0428129 -1.69619e-21)
(0.444992 -0.0406145 4.17166e-22)
(0.460409 -0.038611 -1.08299e-21)
(0.476491 -0.0363018 -7.10152e-22)
(0.491174 -0.0346217 1.18399e-21)
(0.507893 -0.0319679 1.26203e-21)
(0.520759 -0.0311544 2.23122e-22)
(0.53965 -0.0274137 2.56113e-23)
(0.548016 -0.0285664 -2.23654e-22)
(0.573034 -0.0228635 6.6068e-22)
(0.210598 -0.0501538 -1.29109e-20)
(0.221153 -0.0539777 -4.11407e-20)
(0.231835 -0.0570379 9.72955e-21)
(0.24272 -0.0593819 1.74424e-20)
(0.253878 -0.0610643 -2.50124e-20)
(0.265359 -0.0621432 2.05831e-20)
(0.277201 -0.0626781 -3.38522e-21)
(0.289425 -0.0627278 1.13371e-21)
(0.302036 -0.0623494 -3.6311e-21)
(0.315028 -0.061597 3.44704e-21)
(0.328384 -0.0605222 7.3093e-21)
(0.342079 -0.0591719 1.88205e-21)
(0.356076 -0.0575917 -9.88745e-21)
(0.370349 -0.0558188 -1.51549e-21)
(0.384837 -0.0538973 -1.14734e-22)
(0.399534 -0.0518471 9.9454e-22)
(0.414329 -0.0497257 -2.18827e-21)
(0.429298 -0.0475105 -9.42098e-22)
(0.444183 -0.0453206 6.66024e-22)
(0.459326 -0.043007 -5.19179e-22)
(0.474016 -0.0409012 4.79797e-22)
(0.48938 -0.0384651 -1.18787e-22)
(0.503397 -0.0367018 -6.82798e-22)
(0.519428 -0.0338942 -1.5896e-22)
(0.531715 -0.0330528 -5.96176e-22)
(0.549909 -0.0290876 1.28103e-23)
(0.55786 -0.0303296 3.89354e-22)
(0.582056 -0.0243222 -6.90461e-22)
(0.240931 -0.0530093 2.51198e-20)
(0.251043 -0.0568434 1.89393e-21)
(0.26116 -0.0599254 -2.87489e-20)
(0.271383 -0.0622986 3.84352e-20)
(0.281802 -0.064012 -3.50397e-20)
(0.292487 -0.0651191 2.2569e-20)
(0.303488 -0.065675 -2.14181e-21)
(0.314839 -0.0657356 -1.23926e-20)
(0.326555 -0.0653562 7.66584e-21)
(0.33864 -0.0645899 -4.50028e-21)
(0.351083 -0.063488 -5.75653e-21)
(0.363866 -0.0620977 7.35495e-22)
(0.376958 -0.0604657 7.43377e-21)
(0.390335 -0.0586297 -2.77497e-21)
(0.403942 -0.0566357 1.33537e-21)
(0.417773 -0.0545039 -1.48198e-21)
(0.431721 -0.0522952 9.95399e-22)
(0.445864 -0.0499846 1.70782e-21)
(0.459946 -0.0476996 5.94285e-22)
(0.474305 -0.04528 9.56801e-22)
(0.488246 -0.0430808 -7.43202e-22)
(0.502868 -0.0405262 9.66843e-22)
(0.516198 -0.0386875 -9.36034e-23)
(0.531517 -0.0357345 -8.58357e-22)
(0.54321 -0.0348709 -2.22927e-22)
(0.560684 -0.0306917 1.15957e-22)
(0.568211 -0.0320234 -2.41451e-22)
(0.591554 -0.0257326 7.8157e-22)
(0.272821 -0.0556465 -6.17711e-21)
(0.282362 -0.0594653 -3.12306e-20)
(0.291804 -0.0625538 2.78689e-20)
(0.301272 -0.0649484 -4.38626e-20)
(0.310872 -0.0666911 7.7931e-21)
(0.320689 -0.0678286 1.5398e-20)
(0.330788 -0.0684111 -3.24369e-21)
(0.341211 -0.0684906 -1.3513e-20)
(0.351985 -0.0681197 -4.41158e-22)
(0.363119 -0.0673501 2.09252e-20)
(0.37461 -0.0662324 -9.74113e-21)
(0.386445 -0.0648137 -8.67e-21)
(0.398598 -0.0631414 4.47787e-21)
(0.411048 -0.0612539 1.29011e-21)
(0.423744 -0.0591988 -5.49063e-23)
(0.436682 -0.0569964 -2.31605e-21)
(0.449759 -0.0547113 2.5272e-21)
(0.463051 -0.0523156 6.12669e-23)
(0.47631 -0.0499456 -7.87085e-22)
(0.489863 -0.0474294 -1.05258e-21)
(0.503035 -0.0451459 -1.22761e-21)
(0.516896 -0.0424816 -9.27588e-22)
(0.529525 -0.0405754 6.89885e-22)
(0.544114 -0.0374856 5.95376e-22)
(0.5552 -0.0366058 5.30395e-22)
(0.571935 -0.0322233 -8.18147e-23)
(0.579035 -0.0336448 -1.07416e-22)
(0.601499 -0.027092 -3.64946e-22)
(0.306157 -0.0580249 1.832e-21)
(0.314988 -0.0618099 -8.96053e-21)
(0.32364 -0.0648955 1.00369e-20)
(0.332254 -0.0673087 -3.30066e-21)
(0.340954 -0.0690826 -1.3431e-20)
(0.349836 -0.0702562 2.87139e-20)
(0.358973 -0.0708734 -2.10251e-20)
(0.368418 -0.0709816 -4.57161e-21)
(0.378204 -0.0706303 -5.28059e-21)
(0.388348 -0.0698691 2.2298e-20)
(0.398851 -0.0687478 -1.72063e-20)
(0.409707 -0.0673131 6.2492e-21)
(0.420892 -0.065613 1.49932e-21)
(0.43239 -0.063686 -7.62734e-21)
(0.444151 -0.0615818 -2.06132e-21)
(0.456175 -0.0593203 5.16822e-21)
(0.468361 -0.0569698 -2.23419e-21)
(0.480783 -0.0544996 1.60026e-21)
(0.4932 -0.0520548 4.55691e-22)
(0.505933 -0.0494517 -1.45725e-22)
(0.518321 -0.0470931 -4.03166e-22)
(0.531407 -0.044328 -1.27937e-22)
(0.543322 -0.0423626 5.31254e-22)
(0.557169 -0.0391447 4.26439e-23)
(0.567641 -0.0382548 4.68009e-23)
(0.583621 -0.0336802 2.86919e-23)
(0.590294 -0.0351916 2.99882e-22)
(0.611857 -0.0283981 2.39073e-23)
(0.34081 -0.060102 -6.42635e-21)
(0.348786 -0.0638431 -3.4501e-20)
(0.356528 -0.0669232 3.89193e-21)
(0.364193 -0.0693576 -5.4257e-23)
(0.371912 -0.0711689 2.44752e-20)
(0.379791 -0.0723873 -1.18888e-20)
(0.387911 -0.0730498 2.00259e-20)
(0.396331 -0.0731986 -2.14442e-20)
(0.405089 -0.0728795 1.9538e-20)
(0.414209 -0.0721398 -1.47153e-20)
(0.423694 -0.0710282 1.27808e-20)
(0.433544 -0.0695906 -7.52952e-21)
(0.443738 -0.0678756 1.63434e-20)
(0.454263 -0.0659219 -8.15916e-21)
(0.465071 -0.0637807 7.90322e-21)
(0.476163 -0.0614719 -7.97823e-22)
(0.487442 -0.0590674 8.32356e-22)
(0.498982 -0.0565335 -1.86775e-21)
(0.510546 -0.0540243 1.09998e-21)
(0.522446 -0.0513442 2.43754e-22)
(0.53404 -0.04892 1.37295e-22)
(0.546342 -0.0460632 -6.62316e-22)
(0.557536 -0.0440468 7.61444e-22)
(0.570631 -0.0407098 -6.93053e-22)
(0.580486 -0.0398156 -1.71707e-22)
(0.595702 -0.0350605 1.09634e-23)
(0.60195 -0.0366615 -3.2897e-22)
(0.622598 -0.0296484 -5.458e-23)
(0.376637 -0.0618345 5.31276e-20)
(0.383608 -0.0655312 -2.32244e-20)
(0.390321 -0.0686106 -2.31511e-20)
(0.396941 -0.0710745 2.07917e-20)
(0.403603 -0.0729339 6.02064e-21)
(0.410418 -0.0742093 -8.56753e-21)
(0.41747 -0.0749303 1.04134e-20)
(0.424822 -0.0751335 -3.45594e-21)
(0.432517 -0.0748607 -9.61933e-22)
(0.440582 -0.0741568 -3.74623e-21)
(0.449026 -0.0730688 6.63203e-21)
(0.457848 -0.0716422 -5.04822e-21)
(0.467033 -0.0699257 -1.01935e-20)
(0.476568 -0.0679582 1.15431e-20)
(0.48641 -0.0657926 -6.6358e-21)
(0.496559 -0.0634485 -5.95438e-21)
(0.506922 -0.0610016 6.91489e-21)
(0.517569 -0.0584151 -1.51964e-21)
(0.528272 -0.055852 -2.19682e-21)
(0.539333 -0.0531048 1.74743e-21)
(0.550129 -0.0506246 -1.26211e-21)
(0.561641 -0.0476852 1.61978e-22)
(0.572112 -0.045626 -4.69261e-22)
(0.584452 -0.0421791 2.1302e-22)
(0.59369 -0.0412866 3.13435e-22)
(0.608135 -0.0363628 5.17734e-23)
(0.613966 -0.0380529 -1.58901e-22)
(0.633686 -0.0308408 6.94588e-23)
(0.419294 -0.0668404 -5.37194e-20)
(0.424863 -0.0699317 1.03114e-20)
(0.430347 -0.0724392 4.82295e-20)
(0.43588 -0.0743615 -4.08159e-20)
(0.441573 -0.0757093 4.44424e-21)
(0.447512 -0.0765045 2.02573e-20)
(0.45376 -0.0767777 -2.90114e-20)
(0.460363 -0.0765669 2.34343e-20)
(0.46735 -0.0759141 2.44716e-21)
(0.474732 -0.0748647 -3.91762e-21)
(0.482511 -0.0734637 -4.65195e-21)
(0.490674 -0.0717597 7.37353e-22)
(0.49921 -0.069792 8.5592e-23)
(0.508077 -0.0676149 2.20398e-21)
(0.517276 -0.0652478 1.16522e-21)
(0.526717 -0.0627702 -2.36913e-21)
(0.536468 -0.0601422 -5.77961e-22)
(0.546308 -0.0575359 -8.45184e-22)
(0.556528 -0.0547318 -1.23292e-22)
(0.566525 -0.0522051 1.69868e-21)
(0.577247 -0.0491926 -7.83182e-22)
(0.586995 -0.0470989 7.28197e-22)
(0.59858 -0.0435514 3.24094e-23)
(0.607206 -0.0426661 -4.32401e-22)
(0.620879 -0.0375858 5.12567e-23)
(0.626303 -0.0393644 2.82596e-22)
(0.645089 -0.0319736 2.70811e-22)
(0.455671 -0.0677403 3.36477e-21)
(0.459988 -0.0708636 4.69573e-21)
(0.464253 -0.0734341 6.10737e-21)
(0.468594 -0.0754382 -1.235e-21)
(0.473116 -0.0768768 -6.64249e-21)
(0.477902 -0.0777639 -7.21262e-22)
(0.483016 -0.0781247 6.81042e-21)
(0.488504 -0.0779927 4.1748e-21)
(0.494394 -0.0774073 -1.55953e-21)
(0.500701 -0.0764124 -7.42777e-22)
(0.507427 -0.075052 -5.34192e-21)
(0.514561 -0.0733751 -1.15748e-21)
(0.522092 -0.071421 -9.96963e-22)
(0.529981 -0.0692456 5.11318e-21)
(0.538229 -0.0668682 5.7545e-21)
(0.546748 -0.0643719 -6.23858e-21)
(0.555603 -0.0617136 3.20238e-21)
(0.564581 -0.059075 -1.57162e-21)
(0.573962 -0.0562242 2.14284e-21)
(0.583164 -0.0536607 -8.63417e-22)
(0.5931 -0.0505844 7.28194e-22)
(0.602132 -0.0484645 -4.83975e-23)
(0.612966 -0.0448259 -1.46102e-22)
(0.620988 -0.0439535 -2.67424e-24)
(0.633891 -0.0387289 3.22615e-23)
(0.638923 -0.0405951 5.98743e-23)
(0.656772 -0.0330448 -2.10062e-22)
(0.492557 -0.0682186 2.37091e-20)
(0.495527 -0.0714014 -2.28331e-20)
(0.4985 -0.0740598 1.60032e-20)
(0.501593 -0.0761684 9.81296e-21)
(0.504901 -0.0777188 -1.17141e-20)
(0.508504 -0.0787176 -1.04545e-20)
(0.512461 -0.0791843 2.06009e-20)
(0.516816 -0.0791486 -1.01449e-20)
(0.521599 -0.0786469 2.86651e-21)
(0.526823 -0.077722 -6.47023e-21)
(0.532492 -0.0764169 1.74098e-20)
(0.538594 -0.0747809 -3.6192e-21)
(0.545121 -0.0728534 -6.86471e-21)
(0.552034 -0.0706923 7.40493e-22)
(0.559333 -0.0683161 -2.56785e-21)
(0.566934 -0.0658123 7.25419e-21)
(0.5749 -0.0631343 -5.62887e-21)
(0.583022 -0.0604734 2.01511e-21)
(0.591571 -0.0575853 -1.27972e-21)
(0.599986 -0.0549943 9.29547e-22)
(0.609143 -0.0518626 -4.56961e-22)
(0.617469 -0.0497248 -2.37083e-22)
(0.62756 -0.0460033 3.04971e-23)
(0.634991 -0.0451498 3.36004e-22)
(0.647131 -0.0397918 -9.84207e-24)
(0.651787 -0.0417456 -5.03734e-23)
(0.668701 -0.0340527 7.08833e-23)
(0.529761 -0.0682733 4.76531e-20)
(0.531302 -0.0715541 -3.25551e-20)
(0.532924 -0.0743334 3.89146e-20)
(0.534724 -0.0765754 -1.90834e-20)
(0.536788 -0.078263 1.53229e-20)
(0.539184 -0.079396 -1.66664e-20)
(0.541969 -0.0799885 -3.23365e-21)
(0.545183 -0.0800668 6.58056e-21)
(0.548853 -0.0796648 1.51851e-21)
(0.552993 -0.078824 6.94254e-22)
(0.557605 -0.0775869 -5.70209e-21)
(0.56268 -0.0760035 8.447e-22)
(0.568207 -0.0741132 4.25268e-21)
(0.57415 -0.0719761 -3.48155e-21)
(0.580509 -0.0696102 -1.33962e-21)
(0.587201 -0.0671076 6.13685e-21)
(0.594286 -0.0644178 -3.41546e-21)
(0.601563 -0.0617427 -8.67081e-22)
(0.609291 -0.0588243 1.4175e-22)
(0.61693 -0.0562133 7.75578e-22)
(0.625321 -0.0530328 6.78537e-22)
(0.632954 -0.0508842 1.19088e-22)
(0.642315 -0.0470864 -2.96518e-22)
(0.64917 -0.0462574 -4.8179e-22)
(0.660558 -0.0407753 6.32093e-24)
(0.664856 -0.0428166 6.22355e-23)
(0.680842 -0.0349962 -1.66581e-22)
(0.567084 -0.0677938 -3.12013e-20)
(0.567135 -0.0712203 -1.3708e-20)
(0.567361 -0.0741612 1.87163e-20)
(0.567837 -0.0765723 -1.32875e-20)
(0.568634 -0.0784288 1.30508e-20)
(0.569811 -0.0797246 1.31454e-21)
(0.571417 -0.0804691 4.56e-21)
(0.573487 -0.0806852 -1.62122e-20)
(0.576047 -0.0804046 1.29545e-20)
(0.579106 -0.0796679 -1.54738e-20)
(0.58267 -0.0785172 1.16809e-20)
(0.586725 -0.0770031 1.97415e-21)
(0.591263 -0.0751654 -3.18523e-21)
(0.596248 -0.0730663 5.34057e-23)
(0.601678 -0.0707238 -5.17791e-21)
(0.607474 -0.0682342 1.25637e-21)
(0.613692 -0.0655442 2.13068e-21)
(0.620138 -0.0628648 -3.57659e-22)
(0.62706 -0.059927 8.00593e-22)
(0.633939 -0.0573041 3.31807e-22)
(0.641579 -0.0540859 5.58377e-22)
(0.648536 -0.0519318 -4.17126e-22)
(0.657183 -0.0480714 8.57119e-24)
(0.66348 -0.0472667 2.29954e-22)
(0.674131 -0.0416812 2.19699e-23)
(0.678095 -0.0437993 -8.76346e-23)
(0.693162 -0.0358761 1.68984e-23)
(0.610195 -0.0664339 0)
(0.608716 -0.0700439 0)
(0.60752 -0.0731843 0)
(0.606657 -0.0758055 0)
(0.606177 -0.0778774 0)
(0.606125 -0.0793879 0)
(0.606542 -0.0803414 0)
(0.607456 -0.0807561 0)
(0.608886 -0.0806604 0)
(0.610842 -0.0800921 0)
(0.613324 -0.0790919 0)
(0.616319 -0.0777092 0)
(0.619818 -0.0759839 0)
(0.623784 -0.0739785 0)
(0.628214 -0.0717119 0)
(0.633032 -0.0692814 0)
(0.638288 -0.066635 0)
(0.643798 -0.0639862 0)
(0.649794 -0.0610652 0)
(0.655784 -0.0584525 0)
(0.662524 -0.055228 0)
(0.668655 -0.0530763 0)
(0.676405 -0.049184 0)
(0.681987 -0.0483957 0)
(0.691666 -0.0427418 0)
(0.695161 -0.0449111 0)
(0.70898 -0.0369168 0)
(0.66608 -0.0652669 0)
(0.662583 -0.0690557 0)
(0.659514 -0.0723733 0)
(0.65689 -0.0751743 0)
(0.654734 -0.0774287 0)
(0.653074 -0.0791229 0)
(0.651935 -0.0802584 0)
(0.651336 -0.08085 0)
(0.651291 -0.080923 0)
(0.651803 -0.0805123 0)
(0.652871 -0.0796565 0)
(0.65448 -0.078403 0)
(0.656618 -0.0767917 0)
(0.659249 -0.0748831 0)
(0.662369 -0.0726989 0)
(0.665903 -0.0703329 0)
(0.669896 -0.0677406 0)
(0.674175 -0.0651266 0)
(0.67895 -0.0622375 0)
(0.683768 -0.0596336 0)
(0.68932 -0.0564266 0)
(0.694356 -0.0542627 0)
(0.70092 -0.05038 0)
(0.705543 -0.0495675 0)
(0.713941 -0.0439215 0)
(0.716782 -0.0460533 0)
(0.728966 -0.0380975 0)
(0.724497 -0.0631176 0)
(0.71892 -0.0672196 0)
(0.713912 -0.0708214 0)
(0.709457 -0.0738879 0)
(0.705557 -0.0763947 0)
(0.70222 -0.0783302 0)
(0.699459 -0.0796958 0)
(0.697283 -0.080505 0)
(0.6957 -0.0807817 0)
(0.694708 -0.080559 0)
(0.694302 -0.0798743 0)
(0.694467 -0.0787739 0)
(0.695189 -0.077298 0)
(0.696432 -0.0755056 0)
(0.69819 -0.0734216 0)
(0.700391 -0.0711364 0)
(0.703073 -0.0686135 0)
(0.706075 -0.0660478 0)
(0.709587 -0.0632048 0)
(0.71319 -0.0606202 0)
(0.717516 -0.0574458 0)
(0.721419 -0.0552751 0)
(0.726759 -0.0514231 0)
(0.73039 -0.0505793 0)
(0.737465 -0.044981 0)
(0.739634 -0.0470387 0)
(0.750115 -0.0391913 0)
(0.777024 -0.0642235 0)
(0.770097 -0.0682299 0)
(0.763814 -0.071665 0)
(0.758159 -0.074513 0)
(0.753128 -0.0767671 0)
(0.748722 -0.0784307 0)
(0.744943 -0.0795181 0)
(0.741792 -0.0800527 0)
(0.739264 -0.0800669 0)
(0.737352 -0.0795978 0)
(0.736039 -0.0786909 0)
(0.735311 -0.0773871 0)
(0.735132 -0.0757446 0)
(0.735492 -0.0737914 0)
(0.736327 -0.0716149 0)
(0.737665 -0.0691867 0)
(0.739359 -0.0666927 0)
(0.741577 -0.0639168 0)
(0.743937 -0.0613706 0)
(0.747006 -0.0582473 0)
(0.749749 -0.0560839 0)
(0.753836 -0.0522822 0)
(0.756451 -0.051412 0)
(0.762169 -0.0458915 0)
(0.763655 -0.0478586 0)
(0.772376 -0.0401729 0)
(0.836031 -0.0601164 0)
(0.827307 -0.0646232 0)
(0.819282 -0.0685113 0)
(0.811934 -0.0717749 0)
(0.805251 -0.0744137 0)
(0.799229 -0.0764347 0)
(0.793866 -0.077854 0)
(0.789158 -0.0786957 0)
(0.7851 -0.0789924 0)
(0.781681 -0.078781 0)
(0.778886 -0.0781069 0)
(0.776699 -0.0770119 0)
(0.775087 -0.0755536 0)
(0.774039 -0.0737629 0)
(0.773493 -0.0717249 0)
(0.773473 -0.069419 0)
(0.773844 -0.067022 0)
(0.774751 -0.0643373 0)
(0.775852 -0.0618506 0)
(0.777649 -0.0588003 0)
(0.779217 -0.0566599 0)
(0.782033 -0.0529318 0)
(0.783619 -0.0520401 0)
(0.787956 -0.0466331 0)
(0.788755 -0.0484913 0)
(0.795673 -0.0410247 0)
(0.894944 -0.0549538 0)
(0.884647 -0.060031 0)
(0.875055 -0.064439 0)
(0.866152 -0.0681805 0)
(0.857929 -0.0712612 0)
(0.850381 -0.0736925 0)
(0.843506 -0.0754927 0)
(0.8373 -0.0766873 0)
(0.831757 -0.0773092 0)
(0.82687 -0.077396 0)
(0.822623 -0.0769929 0)
(0.819001 -0.0761427 0)
(0.815974 -0.0749026 0)
(0.813531 -0.0733066 0)
(0.811615 -0.0714372 0)
(0.810244 -0.069282 0)
(0.809296 -0.0670084 0)
(0.808897 -0.06444 0)
(0.80874 -0.062035 0)
(0.809264 -0.0590808 0)
(0.809656 -0.05698 0)
(0.811199 -0.0533508 0)
(0.811755 -0.0524428 0)
(0.814701 -0.0471878 0)
(0.814817 -0.0489172 0)
(0.819903 -0.04173 0)
(0.952665 -0.0488157 0)
(0.941111 -0.0545022 0)
(0.930216 -0.0594742 0)
(0.919977 -0.0637395 0)
(0.910397 -0.067308 0)
(0.901478 -0.0701943 0)
(0.893221 -0.0724186 0)
(0.885628 -0.0740077 0)
(0.878696 -0.074995 0)
(0.872421 -0.0754185 0)
(0.866791 -0.0753234 0)
(0.861795 -0.0747536 0)
(0.857405 -0.0737656 0)
(0.853611 -0.0723966 0)
(0.850363 -0.0707265 0)
(0.847674 -0.068751 0)
(0.845435 -0.066628 0)
(0.843754 -0.0642017 0)
(0.842359 -0.0619019 0)
(0.84163 -0.0590676 0)
(0.840861 -0.0570243 0)
(0.841144 -0.0535198 0)
(0.840682 -0.0526018 0)
(0.842242 -0.0475376 0)
(0.84169 -0.0491201 0)
(0.844936 -0.0422714 0)
(1.00806 -0.0418456 0)
(0.995638 -0.0481419 0)
(0.983775 -0.0536919 0)
(0.972492 -0.0585035 0)
(0.961807 -0.0625876 0)
(0.951735 -0.0659596 0)
(0.942287 -0.0686407 0)
(0.933474 -0.0706578 0)
(0.9253 -0.0720444 0)
(0.917765 -0.0728386 0)
(0.910866 -0.0730851 0)
(0.904593 -0.0728286 0)
(0.898928 -0.0721251 0)
(0.893861 -0.0710142 0)
(0.889349 -0.0695737 0)
(0.885403 -0.0678065 0)
(0.881928 -0.0658616 0)
(0.879013 -0.0636035 0)
(0.876425 -0.0614328 0)
(0.874482 -0.0587426 0)
(0.872587 -0.0567756 0)
(0.871641 -0.0534216 0)
(0.87019 -0.0525012 0)
(0.870388 -0.0476663 0)