/*--------------------------------*- C++ -*----------------------------------*\
  =========                 |
  \\      /  F ield         | OpenFOAM: The Open Source CFD Toolbox
   \\    /   O peration     | Website:  https://openfoam.org
    \\  /    A nd           | Version:  7
     \\/     M anipulation  |
\*---------------------------------------------------------------------------*/
FoamFile
{
    version     2.0;
    format      ascii;
    class       volScalarField;
    location    "35";
    object      p;
}
// * * * * * * * * * * * * * * * * * * * * * * * * * * * * * * * * * * * * * //

dimensions      [0 2 -2 0 0 0 0];

internalField   nonuniform List<scalar> 
8500
(
-0.266866
-0.265443
-0.263798
-0.261908
-0.259754
-0.257308
-0.254545
-0.251438
-0.247955
-0.244069
-0.23975
-0.234969
-0.229702
-0.223927
-0.217627
-0.2108
-0.203438
-0.195575
-0.187206
-0.178423
-0.169204
-0.159725
-0.149906
-0.140054
-0.129942
-0.120086
-0.110001
-0.100497
-0.0907254
-0.0818453
-0.0726327
-0.0645022
-0.0560892
-0.0486531
-0.0413411
-0.0343639
-0.0285816
-0.0216812
-0.0180253
-0.010717
-0.0099812
-0.00169855
-0.0050093
0.00495563
-0.266866
-0.265445
-0.263804
-0.26192
-0.259772
-0.257334
-0.25458
-0.251482
-0.248008
-0.244131
-0.239821
-0.235046
-0.229783
-0.22401
-0.217706
-0.210872
-0.203499
-0.195622
-0.187236
-0.178433
-0.169195
-0.159697
-0.149862
-0.139996
-0.129877
-0.120018
-0.109938
-0.100443
-0.0906851
-0.0818218
-0.0726278
-0.0645158
-0.0561194
-0.0486966
-0.0413931
-0.0344205
-0.028636
-0.0217324
-0.0180659
-0.0107508
-0.0100011
-0.00171249
-0.00501242
0.00495535
-0.266878
-0.26546
-0.263823
-0.261945
-0.259804
-0.257374
-0.254629
-0.251541
-0.248078
-0.24421
-0.239907
-0.235142
-0.229883
-0.224111
-0.217805
-0.210964
-0.20358
-0.195689
-0.187285
-0.178463
-0.169204
-0.159687
-0.149835
-0.139956
-0.129828
-0.119967
-0.109889
-0.100402
-0.0906575
-0.0818111
-0.0726349
-0.0645412
-0.0561604
-0.0487506
-0.0414546
-0.0344864
-0.0286989
-0.021792
-0.0181139
-0.010792
-0.0100271
-0.00173294
-0.0050195
0.00494945
-0.266901
-0.265487
-0.263855
-0.261983
-0.259849
-0.257428
-0.254693
-0.251615
-0.248163
-0.244305
-0.240007
-0.235254
-0.23
-0.22423
-0.217922
-0.211075
-0.203681
-0.195775
-0.187353
-0.178511
-0.169232
-0.159695
-0.149825
-0.139932
-0.129795
-0.11993
-0.109854
-0.100376
-0.0906431
-0.0818129
-0.0726536
-0.0645778
-0.0562117
-0.0488149
-0.0415254
-0.0345615
-0.0287701
-0.0218598
-0.0181692
-0.0108405
-0.0100591
-0.00175981
-0.00503046
0.00493793
-0.266937
-0.265526
-0.263899
-0.262033
-0.259908
-0.257496
-0.254771
-0.251704
-0.248264
-0.244415
-0.240131
-0.235383
-0.230135
-0.224367
-0.218057
-0.211204
-0.203799
-0.195879
-0.18744
-0.178579
-0.169278
-0.159721
-0.149833
-0.139926
-0.129779
-0.11991
-0.109834
-0.100364
-0.090642
-0.0818274
-0.0726841
-0.0646257
-0.0562734
-0.0488892
-0.0416055
-0.0346456
-0.0288495
-0.0219355
-0.0182316
-0.010896
-0.0100971
-0.00179301
-0.0050452
0.0049208
-0.266984
-0.265577
-0.263955
-0.262097
-0.259979
-0.257577
-0.254863
-0.251807
-0.248379
-0.24454
-0.24027
-0.235529
-0.230286
-0.224521
-0.218209
-0.211351
-0.203936
-0.196002
-0.187546
-0.178664
-0.169343
-0.159765
-0.149858
-0.139936
-0.129778
-0.119904
-0.10983
-0.100366
-0.0906542
-0.0818548
-0.0727264
-0.064685
-0.0563455
-0.0489735
-0.0416945
-0.0347384
-0.0289367
-0.0220189
-0.0183008
-0.0109584
-0.0101408
-0.00183245
-0.00506359
0.0048981
-0.267041
-0.265639
-0.264023
-0.262171
-0.260063
-0.257671
-0.254968
-0.251924
-0.248508
-0.24468
-0.240421
-0.235689
-0.230453
-0.224691
-0.218378
-0.211515
-0.20409
-0.196142
-0.187668
-0.178767
-0.169425
-0.159827
-0.1499
-0.139963
-0.129794
-0.119915
-0.10984
-0.100382
-0.0906798
-0.0818949
-0.0727804
-0.0647554
-0.0564277
-0.0490675
-0.0417924
-0.0348397
-0.0290317
-0.0221099
-0.0183768
-0.0110276
-0.0101901
-0.00187802
-0.00508548
0.00486988
-0.267109
-0.265711
-0.264101
-0.262257
-0.260158
-0.257776
-0.255085
-0.252053
-0.24865
-0.244833
-0.240587
-0.235865
-0.230636
-0.224877
-0.218563
-0.211695
-0.204261
-0.196299
-0.187808
-0.178887
-0.169524
-0.159905
-0.149959
-0.140006
-0.129826
-0.119941
-0.109865
-0.100413
-0.0907187
-0.0819476
-0.0728461
-0.0648369
-0.05652
-0.049171
-0.0418989
-0.0349492
-0.0291341
-0.022208
-0.0184592
-0.0111032
-0.0102448
-0.00192959
-0.00511069
0.00483617
-0.267186
-0.265793
-0.264189
-0.262353
-0.260263
-0.257892
-0.255213
-0.252194
-0.248804
-0.244992
-0.240766
-0.236054
-0.230832
-0.225077
-0.218763
-0.211891
-0.204448
-0.196473
-0.187965
-0.179024
-0.169639
-0.16
-0.150035
-0.140066
-0.129873
-0.119983
-0.109905
-0.100458
-0.090771
-0.082013
-0.0729234
-0.0649293
-0.0566222
-0.0492837
-0.0420138
-0.0350666
-0.0292437
-0.0223131
-0.0185479
-0.0111852
-0.0103047
-0.00198706
-0.00513903
0.00479706
-0.267271
-0.265883
-0.264287
-0.262459
-0.260378
-0.258019
-0.255352
-0.252346
-0.248968
-0.245158
-0.240957
-0.236255
-0.231041
-0.22529
-0.218977
-0.212101
-0.204649
-0.196661
-0.188136
-0.179177
-0.169771
-0.160111
-0.150127
-0.140142
-0.129937
-0.12004
-0.109959
-0.100517
-0.0908365
-0.0820909
-0.0730121
-0.0650324
-0.056734
-0.0494055
-0.0421369
-0.0351917
-0.0293602
-0.0224249
-0.0186426
-0.0112734
-0.0103696
-0.0020503
-0.00517029
0.00475262
-0.267364
-0.265982
-0.264392
-0.262573
-0.260502
-0.258154
-0.2555
-0.252508
-0.249143
-0.245393
-0.24116
-0.236468
-0.231262
-0.225516
-0.219204
-0.212324
-0.204864
-0.196864
-0.188323
-0.179344
-0.169918
-0.160238
-0.150234
-0.140234
-0.130016
-0.120112
-0.110028
-0.10059
-0.090915
-0.082181
-0.0731122
-0.0651459
-0.0568554
-0.049536
-0.0422678
-0.0353241
-0.0294835
-0.0225431
-0.0187432
-0.0113674
-0.0104393
-0.00211917
-0.00520426
0.00470293
-0.267463
-0.266087
-0.264504
-0.262694
-0.260634
-0.258298
-0.255656
-0.252678
-0.249327
-0.245581
-0.241372
-0.236691
-0.231494
-0.225754
-0.219443
-0.21256
-0.205092
-0.19708
-0.188523
-0.179526
-0.17008
-0.16038
-0.150357
-0.140341
-0.13011
-0.120199
-0.110112
-0.100676
-0.0910065
-0.0822833
-0.0732233
-0.0652696
-0.056986
-0.0496749
-0.0424065
-0.0354635
-0.0296133
-0.0226675
-0.0188493
-0.0114672
-0.0105136
-0.00219355
-0.0052407
0.00464809
-0.267569
-0.266198
-0.264623
-0.262822
-0.260773
-0.258448
-0.25582
-0.252856
-0.249519
-0.245783
-0.241592
-0.236924
-0.231735
-0.226001
-0.219692
-0.212807
-0.205332
-0.197309
-0.188737
-0.179722
-0.170256
-0.160536
-0.150494
-0.140463
-0.130219
-0.120301
-0.110209
-0.100776
-0.0911107
-0.0823974
-0.0733454
-0.0654033
-0.0571258
-0.049822
-0.0425526
-0.0356097
-0.0297494
-0.0227978
-0.0189609
-0.0115725
-0.0105924
-0.00227329
-0.00527939
0.0045882
-0.267678
-0.266314
-0.264747
-0.262955
-0.260917
-0.258605
-0.255991
-0.253041
-0.249714
-0.245996
-0.241821
-0.237164
-0.231985
-0.226257
-0.219951
-0.213064
-0.205582
-0.197549
-0.188962
-0.179931
-0.170445
-0.160707
-0.150646
-0.140599
-0.130342
-0.120417
-0.11032
-0.10089
-0.0912274
-0.0825232
-0.0734782
-0.0655467
-0.0572743
-0.049977
-0.042706
-0.0357624
-0.0298915
-0.0229338
-0.0190776
-0.0116831
-0.0106753
-0.00235825
-0.00532008
0.00452339
-0.267791
-0.266434
-0.264875
-0.263093
-0.261066
-0.258766
-0.256166
-0.25323
-0.24991
-0.246216
-0.242055
-0.237411
-0.232242
-0.226521
-0.220218
-0.21333
-0.205843
-0.197799
-0.189199
-0.180151
-0.170647
-0.16089
-0.150811
-0.140749
-0.130479
-0.120546
-0.110445
-0.101016
-0.0913563
-0.0826603
-0.0736216
-0.0656996
-0.0574314
-0.0501395
-0.0428663
-0.0359213
-0.0300394
-0.0230752
-0.0191992
-0.0117989
-0.0107622
-0.0024483
-0.00536253
0.00445377
-0.267907
-0.266557
-0.265006
-0.263234
-0.261218
-0.258931
-0.256345
-0.253423
-0.250134
-0.246441
-0.242295
-0.237663
-0.232505
-0.226792
-0.220492
-0.213603
-0.206111
-0.198059
-0.189446
-0.180382
-0.170861
-0.161086
-0.150989
-0.140912
-0.130629
-0.120689
-0.110583
-0.101155
-0.0914972
-0.0828085
-0.0737751
-0.0658615
-0.0575969
-0.0503093
-0.0430334
-0.0360861
-0.0301929
-0.0232218
-0.0193257
-0.0119196
-0.0108528
-0.0025433
-0.00540651
0.00437947
-0.268024
-0.26668
-0.265139
-0.263376
-0.261373
-0.259099
-0.256527
-0.25362
-0.250357
-0.246669
-0.242538
-0.23792
-0.232773
-0.227067
-0.220771
-0.213883
-0.206387
-0.198327
-0.189702
-0.180623
-0.171085
-0.161293
-0.151179
-0.141088
-0.130793
-0.120845
-0.110734
-0.101306
-0.0916498
-0.0829674
-0.0739386
-0.0660323
-0.0577706
-0.0504861
-0.043207
-0.0362565
-0.0303518
-0.0233734
-0.0194567
-0.0120452
-0.0109471
-0.0026431
-0.00545178
0.00430064
-0.26814
-0.266805
-0.265272
-0.26352
-0.261528
-0.259268
-0.256711
-0.253819
-0.250567
-0.246899
-0.242784
-0.23818
-0.233044
-0.227347
-0.221056
-0.214169
-0.206669
-0.198602
-0.189966
-0.180874
-0.17132
-0.161512
-0.151382
-0.141277
-0.130969
-0.121014
-0.110897
-0.10147
-0.0918138
-0.0831368
-0.0741118
-0.0662115
-0.057952
-0.0506695
-0.0433868
-0.0364324
-0.0305159
-0.0235297
-0.0195921
-0.0121753
-0.0110447
-0.00274756
-0.00549812
0.0042174
-0.266928
-0.265405
-0.263664
-0.261684
-0.259437
-0.256895
-0.254008
-0.250779
-0.247131
-0.243031
-0.238441
-0.233317
-0.227629
-0.221344
-0.214459
-0.206957
-0.198883
-0.190237
-0.181133
-0.171564
-0.161741
-0.151595
-0.141477
-0.131157
-0.121195
-0.111072
-0.101644
-0.0919889
-0.0833163
-0.0742945
-0.066399
-0.0581411
-0.0508594
-0.0435728
-0.0366133
-0.030685
-0.0236905
-0.0197317
-0.0123099
-0.0111456
-0.00285654
-0.00554531
0.00412992
-0.26705
-0.265536
-0.263806
-0.261838
-0.259606
-0.257078
-0.254184
-0.250994
-0.247362
-0.243278
-0.238703
-0.233591
-0.227913
-0.221634
-0.214752
-0.207249
-0.19917
-0.190515
-0.181399
-0.171816
-0.161979
-0.151819
-0.141688
-0.131357
-0.121388
-0.111259
-0.10183
-0.0921746
-0.0835056
-0.0744862
-0.0665943
-0.0583376
-0.0510554
-0.0437646
-0.0367992
-0.0308588
-0.0238557
-0.0198754
-0.0124488
-0.0112494
-0.0029699
-0.00559315
0.00403834
-0.267168
-0.265664
-0.263946
-0.261991
-0.259772
-0.257259
-0.254447
-0.251207
-0.247593
-0.243525
-0.238964
-0.233865
-0.228197
-0.221926
-0.215047
-0.207543
-0.199461
-0.190798
-0.181672
-0.172077
-0.162226
-0.152052
-0.14191
-0.131568
-0.121592
-0.111457
-0.102027
-0.0923708
-0.0837043
-0.0746868
-0.0667973
-0.0585411
-0.0512572
-0.043962
-0.0369897
-0.0310373
-0.024025
-0.0200229
-0.0125918
-0.0113561
-0.00308748
-0.00564143
0.00394281
-0.267283
-0.265789
-0.264082
-0.26214
-0.259935
-0.257437
-0.254623
-0.251418
-0.24782
-0.243769
-0.239223
-0.234138
-0.228481
-0.222217
-0.215343
-0.20784
-0.199755
-0.191086
-0.181951
-0.172344
-0.162482
-0.152295
-0.142142
-0.13179
-0.121806
-0.111666
-0.102235
-0.092577
-0.0839121
-0.074896
-0.0670075
-0.0587515
-0.0514646
-0.0441649
-0.0371846
-0.0312203
-0.0241982
-0.0201741
-0.0127387
-0.0114654
-0.00320915
-0.00568998
0.00384351
-0.267392
-0.265909
-0.264213
-0.262284
-0.260094
-0.257603
-0.254803
-0.251625
-0.248044
-0.244009
-0.239479
-0.234408
-0.228763
-0.222508
-0.215639
-0.208138
-0.200051
-0.191377
-0.182235
-0.172618
-0.162745
-0.152547
-0.142383
-0.132021
-0.122031
-0.111886
-0.102452
-0.0927929
-0.0841285
-0.0751133
-0.0672246
-0.0589685
-0.0516773
-0.044373
-0.0373837
-0.0314074
-0.0243753
-0.0203289
-0.0128895
-0.0115772
-0.00333477
-0.00573861
0.00374059
-0.267494
-0.266022
-0.264339
-0.262423
-0.260247
-0.257756
-0.254987
-0.251827
-0.248264
-0.244245
-0.239731
-0.234674
-0.229042
-0.222796
-0.215934
-0.208436
-0.200349
-0.191671
-0.182523
-0.172898
-0.163015
-0.152806
-0.142634
-0.132263
-0.122266
-0.112115
-0.102679
-0.0930181
-0.0843534
-0.0753386
-0.0674484
-0.0591918
-0.051895
-0.044586
-0.0375868
-0.0315987
-0.0245559
-0.020487
-0.013044
-0.0116914
-0.00346417
-0.00578718
0.00363423
-0.267589
-0.266128
-0.264457
-0.262555
-0.260394
-0.257959
-0.255166
-0.252024
-0.248477
-0.244476
-0.239978
-0.234936
-0.229317
-0.223081
-0.216227
-0.208733
-0.200647
-0.191967
-0.182814
-0.173182
-0.163292
-0.153073
-0.142892
-0.132513
-0.122511
-0.112354
-0.102915
-0.0932522
-0.0845862
-0.0755715
-0.0676785
-0.0594212
-0.0521175
-0.0448039
-0.0377937
-0.0317939
-0.02474
-0.0206484
-0.0132019
-0.0118077
-0.00359721
-0.00583552
0.00352458
-0.267676
-0.266226
-0.264568
-0.26268
-0.260533
-0.258108
-0.255337
-0.252213
-0.248684
-0.2447
-0.240219
-0.235192
-0.229587
-0.223363
-0.216517
-0.209029
-0.200945
-0.192265
-0.183109
-0.17347
-0.163574
-0.153347
-0.143159
-0.132772
-0.122764
-0.112602
-0.10316
-0.0934949
-0.0848266
-0.0758117
-0.0679146
-0.0596565
-0.0523446
-0.0450264
-0.0380043
-0.0319929
-0.0249274
-0.0208129
-0.0133633
-0.011926
-0.00373376
-0.00588352
0.00341182
-0.267752
-0.266315
-0.264669
-0.262795
-0.260655
-0.258246
-0.2555
-0.252394
-0.248882
-0.244916
-0.240453
-0.235442
-0.229851
-0.223639
-0.216803
-0.209321
-0.201242
-0.192562
-0.183405
-0.173762
-0.16386
-0.153627
-0.143433
-0.133038
-0.123025
-0.112859
-0.103413
-0.0937458
-0.0850744
-0.0760589
-0.0681565
-0.0598973
-0.0525759
-0.0452533
-0.0382182
-0.0321955
-0.0251179
-0.0209803
-0.0135279
-0.0120462
-0.00387364
-0.00593105
0.00329612
-0.267817
-0.266393
-0.264761
-0.262901
-0.260757
-0.258381
-0.255654
-0.252565
-0.249072
-0.245124
-0.240678
-0.235684
-0.230108
-0.223909
-0.217084
-0.209611
-0.201537
-0.19286
-0.183702
-0.174057
-0.164152
-0.153913
-0.143713
-0.133313
-0.123295
-0.113124
-0.103674
-0.0940045
-0.085329
-0.0763128
-0.0684038
-0.0601434
-0.0528114
-0.0454844
-0.0384354
-0.0324015
-0.0253115
-0.0211505
-0.0136956
-0.0121681
-0.00401671
-0.005978
0.00317764
-0.267871
-0.266459
-0.264841
-0.262996
-0.260916
-0.258506
-0.255798
-0.252727
-0.249252
-0.245322
-0.240894
-0.235917
-0.230357
-0.224173
-0.21736
-0.209896
-0.201829
-0.193156
-0.184001
-0.174355
-0.164447
-0.154204
-0.144
-0.133594
-0.123572
-0.113396
-0.103942
-0.0942707
-0.0855903
-0.076573
-0.0686562
-0.0603946
-0.0530506
-0.0457195
-0.0386556
-0.0326108
-0.0255078
-0.0213234
-0.0138662
-0.0122916
-0.00416282
-0.00602428
0.00305657
-0.267911
-0.266512
-0.264908
-0.263078
-0.261005
-0.25862
-0.25593
-0.252877
-0.24942
-0.24551
-0.2411
-0.236141
-0.230598
-0.224429
-0.217629
-0.210176
-0.202118
-0.193451
-0.184299
-0.174653
-0.164745
-0.154499
-0.144292
-0.133882
-0.123856
-0.113676
-0.104218
-0.0945439
-0.0858577
-0.0768392
-0.0689135
-0.0606507
-0.0532935
-0.0459584
-0.0388787
-0.0328231
-0.0257068
-0.0214988
-0.0140397
-0.0124165
-0.0043118
-0.0060698
0.00293306
-0.267936
-0.266552
-0.264962
-0.263142
-0.261081
-0.258723
-0.25605
-0.253015
-0.249577
-0.245686
-0.241295
-0.236355
-0.230829
-0.224676
-0.217892
-0.210451
-0.202403
-0.193743
-0.184596
-0.174953
-0.165046
-0.154799
-0.14459
-0.134177
-0.124147
-0.113964
-0.104501
-0.0948238
-0.086131
-0.0771112
-0.0691753
-0.0609113
-0.0535398
-0.0462009
-0.0391045
-0.0330385
-0.0259084
-0.0216765
-0.0142159
-0.0125428
-0.00446351
-0.0061145
0.00280728
-0.267946
-0.266576
-0.265002
-0.263187
-0.26115
-0.258811
-0.256156
-0.25314
-0.249722
-0.245849
-0.241479
-0.236557
-0.23105
-0.224915
-0.218146
-0.210719
-0.202683
-0.194032
-0.184893
-0.175254
-0.165349
-0.155102
-0.144892
-0.134476
-0.124444
-0.114257
-0.104789
-0.09511
-0.0864098
-0.0773887
-0.0694415
-0.0611762
-0.0537893
-0.0464468
-0.0393329
-0.0332566
-0.0261124
-0.0218565
-0.0143946
-0.0126703
-0.00461777
-0.00615832
0.0026794
-0.266584
-0.265026
-0.263241
-0.261206
-0.258886
-0.256249
-0.253251
-0.249852
-0.246
-0.241649
-0.236748
-0.231261
-0.225144
-0.218392
-0.210981
-0.202958
-0.194318
-0.185187
-0.175554
-0.165654
-0.155408
-0.145199
-0.134781
-0.124746
-0.114557
-0.105084
-0.0954023
-0.0866938
-0.0776712
-0.0697117
-0.0614453
-0.0540418
-0.046696
-0.0395636
-0.0334774
-0.0263187
-0.0220385
-0.0145757
-0.0127988
-0.00477443
-0.00620121
0.00254959
-0.266575
-0.265032
-0.263283
-0.261245
-0.258944
-0.256326
-0.253348
-0.249968
-0.246137
-0.241807
-0.236926
-0.23146
-0.225362
-0.218629
-0.211235
-0.203227
-0.1946
-0.18548
-0.175855
-0.16596
-0.155717
-0.145509
-0.135091
-0.125054
-0.114862
-0.105384
-0.0957002
-0.0869828
-0.0779587
-0.0699857
-0.0617182
-0.0542971
-0.0469482
-0.0397966
-0.0337007
-0.0265271
-0.0222226
-0.014759
-0.0129284
-0.00493332
-0.00624312
0.00241799
-0.266547
-0.26502
-0.263279
-0.261268
-0.258986
-0.256386
-0.253428
-0.250069
-0.246259
-0.24195
-0.237091
-0.231646
-0.22557
-0.218857
-0.211481
-0.20349
-0.194877
-0.18577
-0.176154
-0.166267
-0.156028
-0.145823
-0.135405
-0.125367
-0.115173
-0.10569
-0.0960032
-0.087276
-0.0782505
-0.0702631
-0.0619946
-0.0545549
-0.0472032
-0.0400317
-0.0339262
-0.0267375
-0.0224083
-0.0149445
-0.0130587
-0.00509428
-0.00628401
0.00228475
-0.266499
-0.264988
-0.263262
-0.261274
-0.259011
-0.25643
-0.253492
-0.250154
-0.246365
-0.242079
-0.237242
-0.231819
-0.225765
-0.219073
-0.211717
-0.203745
-0.195148
-0.186055
-0.17645
-0.166572
-0.156339
-0.146138
-0.135722
-0.125682
-0.115487
-0.105999
-0.0963101
-0.0875727
-0.0785458
-0.0705432
-0.0622739
-0.0548146
-0.0474604
-0.0402683
-0.0341536
-0.0269496
-0.0225955
-0.0151318
-0.0131897
-0.00525711
-0.00632382
0.00215005
-0.266431
-0.264937
-0.26323
-0.261262
-0.259017
-0.256457
-0.253539
-0.250222
-0.246455
-0.242191
-0.237378
-0.231978
-0.225947
-0.219278
-0.211944
-0.203992
-0.195413
-0.186336
-0.176744
-0.166877
-0.156652
-0.146456
-0.136042
-0.126002
-0.115807
-0.106312
-0.0966219
-0.0878736
-0.0788454
-0.0708265
-0.0625565
-0.0550768
-0.0477204
-0.0405069
-0.0343833
-0.0271635
-0.0227845
-0.0153211
-0.0133215
-0.00542166
-0.00636272
0.00201405
-0.266341
-0.264864
-0.263177
-0.261229
-0.259004
-0.256465
-0.253569
-0.250274
-0.24653
-0.242291
-0.237503
-0.232129
-0.226124
-0.219481
-0.21217
-0.204242
-0.195684
-0.186625
-0.177049
-0.167195
-0.156978
-0.146788
-0.136377
-0.126337
-0.11614
-0.106639
-0.0969464
-0.0881858
-0.0791554
-0.0711185
-0.0628474
-0.0553455
-0.0479866
-0.0407504
-0.0346177
-0.0273811
-0.022977
-0.0155131
-0.0134552
-0.00558804
-0.00640124
0.00187692
-0.26622
-0.26476
-0.263096
-0.261174
-0.258972
-0.256455
-0.253584
-0.250315
-0.246597
-0.242385
-0.237624
-0.232279
-0.226302
-0.219687
-0.212404
-0.204502
-0.195967
-0.18693
-0.17737
-0.16753
-0.157323
-0.14714
-0.136732
-0.126691
-0.116492
-0.106983
-0.0972863
-0.0885113
-0.0794776
-0.0714206
-0.0631473
-0.0556213
-0.0482595
-0.0409988
-0.0348569
-0.0276023
-0.0231724
-0.0157078
-0.0135901
-0.0057564
-0.00643883
0.00173855
-0.266068
-0.264627
-0.262991
-0.261096
-0.258917
-0.256424
-0.253575
-0.250329
-0.246633
-0.242444
-0.237705
-0.232383
-0.226428
-0.219835
-0.212573
-0.20469
-0.196174
-0.187154
-0.177609
-0.167783
-0.157587
-0.147412
-0.137011
-0.126973
-0.116779
-0.107267
-0.0975738
-0.0887891
-0.0797585
-0.0716857
-0.063415
-0.0558692
-0.0485072
-0.0412274
-0.0350767
-0.027811
-0.0233537
-0.0158969
-0.0137153
-0.00592478
-0.00646954
0.00159822
-0.26594
-0.264609
-0.262897
-0.261013
-0.258849
-0.256369
-0.253533
-0.250299
-0.246614
-0.242435
-0.237706
-0.232392
-0.226445
-0.219859
-0.212605
-0.20473
-0.196223
-0.187213
-0.177681
-0.167867
-0.157688
-0.147529
-0.137149
-0.127125
-0.116954
-0.107452
-0.0977817
-0.0890002
-0.0799903
-0.0719126
-0.0636579
-0.0561017
-0.048747
-0.041458
-0.0352992
-0.0280357
-0.023543
-0.0161134
-0.0138471
-0.00612844
-0.00649378
0.00142453
-0.265427
-0.264014
-0.26242
-0.260554
-0.258402
-0.255934
-0.253107
-0.249881
-0.246205
-0.242034
-0.237315
-0.232012
-0.22608
-0.219512
-0.21228
-0.204432
-0.195957
-0.186983
-0.177493
-0.167723
-0.157591
-0.147478
-0.137148
-0.127166
-0.117042
-0.107571
-0.0979432
-0.0891777
-0.080204
-0.0721281
-0.0639022
-0.0563387
-0.0490023
-0.0417059
-0.0355471
-0.028288
-0.023762
-0.0163632
-0.0140046
-0.00636429
-0.0065275
0.00122368
-0.264759
-0.263382
-0.261789
-0.259933
-0.257792
-0.255332
-0.252512
-0.249293
-0.245622
-0.241458
-0.236747
-0.231457
-0.225539
-0.218992
-0.211786
-0.203971
-0.195535
-0.186607
-0.177168
-0.167453
-0.157381
-0.147325
-0.137057
-0.127127
-0.117062
-0.107631
-0.0980542
-0.0893119
-0.0803809
-0.0723122
-0.0641204
-0.0565538
-0.0492405
-0.0419401
-0.0357856
-0.0285334
-0.0239779
-0.0166113
-0.0141626
-0.00660048
-0.00656252
0.00102315
-0.264
-0.262654
-0.261072
-0.259231
-0.257104
-0.254655
-0.251845
-0.248634
-0.244972
-0.240818
-0.236118
-0.230842
-0.224943
-0.21842
-0.211245
-0.203467
-0.195075
-0.186197
-0.176814
-0.167158
-0.157151
-0.147157
-0.136954
-0.127081
-0.117077
-0.107688
-0.0981648
-0.0894464
-0.0805601
-0.0724986
-0.0643423
-0.0567724
-0.0494829
-0.042179
-0.0360285
-0.0287847
-0.0241974
-0.0168659
-0.0143224
-0.00684264
-0.00659621
0.000820678
-0.263129
-0.261811
-0.260253
-0.258433
-0.256323
-0.25389
-0.251093
-0.247895
-0.244245
-0.240104
-0.23542
-0.230163
-0.224288
-0.217794
-0.210654
-0.202919
-0.194576
-0.185754
-0.176433
-0.166843
-0.156904
-0.146977
-0.136845
-0.12703
-0.117092
-0.107746
-0.098279
-0.0895849
-0.0807449
-0.0726902
-0.0645703
-0.056997
-0.0497314
-0.0424243
-0.0362771
-0.0290431
-0.0244215
-0.0171278
-0.0144841
-0.00709104
-0.00662859
0.000616677
-0.262123
-0.260839
-0.259311
-0.257517
-0.255429
-0.253016
-0.250237
-0.247055
-0.243423
-0.239299
-0.234635
-0.229402
-0.223555
-0.217097
-0.209998
-0.202312
-0.194025
-0.185266
-0.176014
-0.166495
-0.156633
-0.146778
-0.136721
-0.12697
-0.1171
-0.1078
-0.0983921
-0.0897234
-0.0809314
-0.072884
-0.0648017
-0.0572251
-0.0499841
-0.0426746
-0.03653
-0.0293076
-0.0246493
-0.0173962
-0.0146475
-0.00734476
-0.00666008
0.000412185
-0.260969
-0.259725
-0.258233
-0.256471
-0.254411
-0.252022
-0.249266
-0.246106
-0.242495
-0.238394
-0.233755
-0.228551
-0.222739
-0.216321
-0.209271
-0.201641
-0.193418
-0.184728
-0.175553
-0.166112
-0.156332
-0.146555
-0.13658
-0.126896
-0.117099
-0.107849
-0.0985021
-0.0898602
-0.0811183
-0.0730787
-0.0650352
-0.0574561
-0.05024
-0.0429292
-0.0367866
-0.0295776
-0.0248802
-0.0176706
-0.0148122
-0.00760314
-0.00669095
0.000208143
-0.259655
-0.258459
-0.257009
-0.255285
-0.253259
-0.250901
-0.248173
-0.24504
-0.241455
-0.237383
-0.232775
-0.227607
-0.221836
-0.215466
-0.208471
-0.200904
-0.192752
-0.18414
-0.175048
-0.165693
-0.156002
-0.146309
-0.136421
-0.126808
-0.11709
-0.10789
-0.0986085
-0.0899949
-0.0813051
-0.0732742
-0.0652706
-0.0576897
-0.0504988
-0.043188
-0.0370465
-0.029853
-0.025114
-0.0179506
-0.0149782
-0.00786563
-0.00672143
5.44756e-06
-0.258172
-0.257031
-0.255632
-0.253952
-0.251967
-0.249645
-0.246952
-0.243851
-0.2403
-0.236262
-0.231692
-0.226565
-0.220842
-0.214528
-0.207596
-0.2001
-0.192027
-0.1835
-0.174499
-0.165236
-0.155642
-0.146039
-0.136243
-0.126707
-0.11707
-0.107925
-0.0987107
-0.0901271
-0.0814911
-0.0734701
-0.0655073
-0.0579257
-0.0507601
-0.0434509
-0.0373093
-0.0301335
-0.0253503
-0.0182359
-0.0151452
-0.00813158
-0.00675182
-0.000194985
-0.256513
-0.255436
-0.254093
-0.252466
-0.250527
-0.24825
-0.245597
-0.242536
-0.239024
-0.235028
-0.230502
-0.225424
-0.219757
-0.213505
-0.206644
-0.199227
-0.191241
-0.182807
-0.173905
-0.164741
-0.155251
-0.145743
-0.136046
-0.12659
-0.117039
-0.107951
-0.0988078
-0.0902561
-0.0816757
-0.0736659
-0.0657447
-0.0581639
-0.0510234
-0.0437176
-0.0375747
-0.0304189
-0.0255887
-0.0185259
-0.015313
-0.0084003
-0.00678243
-0.000392232
-0.254677
-0.25367
-0.252392
-0.250824
-0.248939
-0.246711
-0.244106
-0.241092
-0.237626
-0.233678
-0.229204
-0.224183
-0.218579
-0.212398
-0.205616
-0.198286
-0.190394
-0.182061
-0.173265
-0.164209
-0.154828
-0.145421
-0.135828
-0.126457
-0.116996
-0.107969
-0.0988991
-0.0903813
-0.0818582
-0.0738613
-0.0659823
-0.0584039
-0.0512881
-0.0439878
-0.0378421
-0.0307088
-0.025829
-0.0188202
-0.0154816
-0.00867104
-0.0068136
-0.00058538
-0.252667
-0.251737
-0.250529
-0.249026
-0.247202
-0.245031
-0.24248
-0.239519
-0.236107
-0.232214
-0.227799
-0.222842
-0.217309
-0.211207
-0.204511
-0.197276
-0.189488
-0.181262
-0.172581
-0.163638
-0.154373
-0.145074
-0.13559
-0.126307
-0.116941
-0.107977
-0.0989837
-0.0905022
-0.0820378
-0.0740557
-0.0662194
-0.0586455
-0.0515539
-0.0442612
-0.0381112
-0.0310027
-0.0260707
-0.0191183
-0.0156508
-0.00894302
-0.00684569
-0.000773549
-0.25049
-0.249642
-0.248511
-0.247078
-0.245321
-0.243213
-0.240722
-0.237821
-0.234469
-0.230638
-0.226289
-0.221405
-0.21595
-0.209934
-0.203333
-0.1962
-0.188523
-0.180412
-0.171852
-0.163029
-0.153887
-0.1447
-0.13533
-0.126141
-0.116873
-0.107976
-0.099061
-0.0906182
-0.0822139
-0.0742488
-0.0664555
-0.0588883
-0.0518201
-0.0445375
-0.0383815
-0.0313003
-0.0263135
-0.0194193
-0.0158204
-0.00921541
-0.00687906
-0.000955907
-0.248159
-0.247396
-0.246346
-0.244989
-0.243303
-0.241263
-0.238839
-0.236003
-0.232718
-0.228956
-0.22468
-0.219875
-0.214505
-0.208583
-0.202084
-0.195061
-0.187501
-0.179513
-0.171081
-0.162383
-0.153371
-0.144301
-0.13505
-0.125958
-0.116792
-0.107964
-0.0991303
-0.0907288
-0.0823859
-0.0744402
-0.06669
-0.0591319
-0.0520863
-0.0448163
-0.0386525
-0.031601
-0.0265571
-0.0197228
-0.0159905
-0.00948739
-0.00691408
-0.00113169
-0.245688
-0.245014
-0.244047
-0.242769
-0.241159
-0.239193
-0.23684
-0.234075
-0.230862
-0.227175
-0.222979
-0.218258
-0.212982
-0.207159
-0.200769
-0.193863
-0.186427
-0.178568
-0.170269
-0.161703
-0.152824
-0.143876
-0.134749
-0.125758
-0.116697
-0.107941
-0.099191
-0.0908336
-0.0825531
-0.0746294
-0.0669224
-0.059376
-0.0523521
-0.0450973
-0.0389238
-0.0319043
-0.0268011
-0.0200279
-0.0161609
-0.0097581
-0.00695108
-0.0013002
-0.243094
-0.24251
-0.241629
-0.240434
-0.238902
-0.237013
-0.234736
-0.232046
-0.22891
-0.225304
-0.221193
-0.216563
-0.211385
-0.205669
-0.199394
-0.19261
-0.185305
-0.177579
-0.16942
-0.16099
-0.152249
-0.143428
-0.134427
-0.125541
-0.116587
-0.107908
-0.0992427
-0.0909321
-0.0827149
-0.0748161
-0.067152
-0.0596202
-0.0526168
-0.0453798
-0.039195
-0.0322096
-0.0270452
-0.020334
-0.0163316
-0.0100267
-0.0069904
-0.00146087
-0.240397
-0.239903
-0.239109
-0.237997
-0.236547
-0.234737
-0.232539
-0.229929
-0.226875
-0.223354
-0.219332
-0.214799
-0.209724
-0.204119
-0.197965
-0.191308
-0.184138
-0.176551
-0.168535
-0.160246
-0.151648
-0.142956
-0.134086
-0.125307
-0.116464
-0.107863
-0.0992848
-0.091024
-0.0828708
-0.0749997
-0.0673784
-0.059864
-0.05288
-0.0456636
-0.0394657
-0.0325164
-0.0272892
-0.0206403
-0.0165026
-0.0102924
-0.00703234
-0.0016132
-0.237613
-0.237209
-0.236502
-0.235476
-0.234109
-0.23238
-0.230264
-0.227736
-0.224767
-0.221334
-0.217407
-0.212973
-0.208007
-0.202518
-0.196488
-0.189962
-0.182931
-0.175487
-0.167619
-0.159473
-0.151021
-0.142462
-0.133725
-0.125057
-0.116326
-0.107807
-0.099317
-0.091109
-0.0830204
-0.0751801
-0.067601
-0.0601071
-0.0531413
-0.045948
-0.0397355
-0.032824
-0.0275327
-0.020946
-0.0166737
-0.0105544
-0.00707714
-0.00175683
-0.23476
-0.234446
-0.233826
-0.232885
-0.231601
-0.229956
-0.227923
-0.22548
-0.222598
-0.219257
-0.215427
-0.211097
-0.206242
-0.200872
-0.19497
-0.188579
-0.181691
-0.174392
-0.166675
-0.158675
-0.150371
-0.141947
-0.133346
-0.124791
-0.116175
-0.10774
-0.0993391
-0.0911868
-0.0831631
-0.0753566
-0.0678195
-0.060349
-0.0534003
-0.0462326
-0.040004
-0.0331318
-0.0277756
-0.0212505
-0.0168451
-0.0108119
-0.00712502
-0.00189151
-0.231852
-0.231627
-0.231093
-0.230237
-0.229038
-0.227477
-0.225529
-0.223173
-0.22038
-0.217133
-0.213402
-0.209179
-0.204438
-0.19919
-0.193418
-0.187165
-0.180421
-0.17327
-0.165705
-0.157854
-0.1497
-0.141414
-0.132949
-0.12451
-0.116009
-0.107661
-0.0993508
-0.0912571
-0.0832986
-0.0755291
-0.0680334
-0.0605892
-0.0536565
-0.0465168
-0.0402709
-0.033439
-0.0280175
-0.0215529
-0.0170167
-0.0110644
-0.00717614
-0.00201712
-0.228902
-0.228764
-0.228317
-0.227546
-0.226431
-0.224955
-0.223092
-0.220824
-0.218123
-0.214972
-0.211343
-0.207227
-0.202602
-0.197478
-0.191839
-0.185724
-0.179127
-0.172124
-0.164714
-0.157012
-0.14901
-0.140863
-0.132536
-0.124214
-0.11583
-0.107571
-0.0993519
-0.0913196
-0.0834265
-0.075697
-0.0682422
-0.0608273
-0.0539096
-0.0468001
-0.0405358
-0.0337452
-0.0282583
-0.0218525
-0.0171885
-0.011311
-0.00723058
-0.00213365
-0.225919
-0.225868
-0.225507
-0.224821
-0.223791
-0.2224
-0.220624
-0.218445
-0.215836
-0.212782
-0.209256
-0.20525
-0.200742
-0.195743
-0.190237
-0.184262
-0.177813
-0.17096
-0.163704
-0.156153
-0.148303
-0.140295
-0.132108
-0.123905
-0.115637
-0.10747
-0.0993424
-0.0913743
-0.0835466
-0.0758601
-0.0684457
-0.0610628
-0.0541591
-0.0470818
-0.0407984
-0.0340494
-0.0284977
-0.0221487
-0.0173604
-0.0115514
-0.00728838
-0.00224121
-0.222913
-0.222948
-0.222672
-0.222071
-0.221126
-0.219821
-0.218132
-0.216043
-0.213527
-0.210571
-0.207149
-0.203253
-0.198864
-0.19399
-0.188619
-0.182784
-0.176482
-0.16978
-0.162678
-0.155278
-0.14758
-0.139713
-0.131664
-0.123582
-0.115432
-0.107358
-0.0993222
-0.0914208
-0.0836585
-0.0760178
-0.0686434
-0.0612951
-0.0544048
-0.0473614
-0.0410584
-0.0343512
-0.0287356
-0.0224407
-0.0175324
-0.0117849
-0.00734951
-0.00234001
-0.219889
-0.22001
-0.219819
-0.219303
-0.218443
-0.217223
-0.215623
-0.213624
-0.211202
-0.208345
-0.205027
-0.201243
-0.196973
-0.192225
-0.186988
-0.181294
-0.175139
-0.168586
-0.16164
-0.15439
-0.146844
-0.139118
-0.131208
-0.123246
-0.115214
-0.107236
-0.0992913
-0.0914591
-0.0837622
-0.07617
-0.0688352
-0.0615239
-0.0546463
-0.0476382
-0.0413155
-0.0346499
-0.0289718
-0.022728
-0.0177044
-0.0120113
-0.00741387
-0.00243036
-0.216853
-0.217059
-0.216953
-0.216522
-0.215747
-0.214614
-0.213102
-0.211193
-0.208867
-0.206109
-0.202897
-0.199224
-0.195073
-0.190451
-0.185349
-0.179794
-0.173787
-0.167383
-0.16059
-0.153491
-0.146095
-0.13851
-0.130738
-0.122898
-0.114983
-0.107102
-0.0992497
-0.091489
-0.0838573
-0.0763161
-0.0690206
-0.0617485
-0.0548834
-0.0479118
-0.0415695
-0.0349449
-0.0292061
-0.0230099
-0.0178763
-0.0122302
-0.00748131
-0.00251265
-0.213809
-0.2141
-0.214079
-0.213733
-0.213044
-0.211997
-0.210573
-0.208757
-0.206526
-0.203868
-0.200761
-0.1972
-0.193168
-0.188672
-0.183703
-0.178288
-0.172427
-0.166172
-0.159531
-0.152581
-0.145335
-0.137891
-0.130257
-0.122539
-0.114741
-0.106958
-0.0991976
-0.0915103
-0.0839438
-0.0764559
-0.0691996
-0.0619685
-0.0551157
-0.0481815
-0.0418202
-0.0352355
-0.0294383
-0.023286
-0.018048
-0.0124414
-0.00755162
-0.00258734
-0.210762
-0.211138
-0.211201
-0.21094
-0.210336
-0.209377
-0.208042
-0.206317
-0.204182
-0.201624
-0.198624
-0.195175
-0.191262
-0.186891
-0.182055
-0.176779
-0.171063
-0.164955
-0.158465
-0.151664
-0.144566