/*--------------------------------*- C++ -*----------------------------------*\
  =========                 |
  \\      /  F ield         | OpenFOAM: The Open Source CFD Toolbox
   \\    /   O peration     | Website:  https://openfoam.org
    \\  /    A nd           | Version:  7
     \\/     M anipulation  |
\*---------------------------------------------------------------------------*/
FoamFile
{
    version     2.0;
    format      ascii;
    class       surfaceScalarField;
    location    "35";
    object      phi;
}
// * * * * * * * * * * * * * * * * * * * * * * * * * * * * * * * * * * * * * //

dimensions      [0 3 -1 0 0 0 0];

internalField   nonuniform List<scalar> 
16756
(
-0.000450559
1.7227e-05
-7.86452e-06
-0.000459146
1.83709e-05
-9.78452e-06
-0.000466902
1.9508e-05
-1.17518e-05
-0.000473761
2.0522e-05
-1.36623e-05
-0.00047965
2.12454e-05
-1.53571e-05
-0.000484477
2.15101e-05
-1.66829e-05
-0.00048814
2.11221e-05
-1.74594e-05
-0.000490531
1.98207e-05
-1.74295e-05
-0.000491531
1.73621e-05
-1.63621e-05
-0.000491005
1.35854e-05
-1.41117e-05
-0.000488812
8.36876e-06
-1.05613e-05
-0.000484805
1.59676e-06
-5.60384e-06
-0.000478831
-6.74305e-06
7.69069e-07
-0.000470738
-1.65096e-05
8.41607e-06
-0.000460382
-2.74199e-05
1.70641e-05
-0.000447633
-3.90179e-05
2.62687e-05
-0.000432376
-5.07384e-05
3.54821e-05
-0.000414524
-6.18408e-05
4.39881e-05
-0.00039401
-7.15335e-05
5.102e-05
-0.000370808
-7.89817e-05
5.57796e-05
-0.000344919
-8.34119e-05
5.75224e-05
-0.000316385
-8.41724e-05
5.56389e-05
-0.000285274
-8.0871e-05
4.97599e-05
-0.000251701
-7.33691e-05
3.97962e-05
-0.000215769
-6.19631e-05
2.60303e-05
-0.000177673
-4.72339e-05
9.13788e-06
-0.000137475
-3.03472e-05
-9.8508e-06
-9.55059e-05
-1.24461e-05
-2.95226e-05
-5.16228e-05
4.51675e-06
-4.83998e-05
-6.46384e-06
1.93966e-05
-6.45556e-05
4.06188e-05
2.98247e-05
-7.69074e-05
8.83198e-05
3.55391e-05
-8.32401e-05
0.000138252
3.42111e-05
-8.41436e-05
0.00018789
2.75532e-05
-7.71908e-05
0.000240386
1.306e-05
-6.55559e-05
0.000291362
-3.88654e-06
-4.70891e-05
0.000346064
-2.83308e-05
-2.63718e-05
0.000397785
-4.79395e-05
-3.78126e-06
0.000454162
-7.59526e-05
1.95752e-05
0.000506187
-8.77421e-05
3.57179e-05
0.000563534
-0.000112653
5.53058e-05
0.000616068
-0.000107999
5.54645e-05
0.000673626
-0.000124954
6.73957e-05
-0.00010139
4.54595e-05
-0.000448325
2.65228e-05
-0.000456844
2.68899e-05
-0.000464533
2.71964e-05
-0.000471324
2.73139e-05
-0.000477145
2.70659e-05
-0.000481905
2.62698e-05
-0.000485501
2.47187e-05
-0.000487827
2.21466e-05
-0.000488763
1.8298e-05
-0.000488174
1.29962e-05
-0.000485921
6.11596e-06
-0.000481859
-2.46529e-06
-0.000475834
-1.2768e-05
-0.000467696
-2.46478e-05
-0.000457303
-3.78127e-05
-0.000444526
-5.17943e-05
-0.000429254
-6.60105e-05
-0.000411399
-7.96964e-05
-0.000390897
-9.20354e-05
-0.000367721
-0.000102158
-0.000341872
-0.000109261
-0.000313392
-0.000112652
-0.000282344
-0.000111919
-0.00024884
-0.000106873
-0.000212977
-9.78264e-05
-0.000174944
-8.52665e-05
-0.000134798
-7.04931e-05
-9.28636e-05
-5.43807e-05
-4.89938e-05
-3.93531e-05
-3.82247e-06
-2.57747e-05
4.32935e-05
-1.72912e-05
9.10501e-05
-1.22175e-05
0.00014105
-1.57886e-05
0.000190763
-2.21597e-05
0.000243324
-3.95017e-05
0.000294355
-5.49175e-05
0.000349078
-8.30538e-05
0.000400796
-9.96576e-05
0.000457116
-0.000132273
0.000509061
-0.000139687
0.000566269
-0.000169861
0.000618655
-0.000160385
0.000676022
-0.000182321
-0.000157139
-0.000443919
3.56962e-05
-0.000452315
3.52857e-05
-0.00045988
3.47608e-05
-0.000466547
3.39814e-05
-0.000472243
3.27619e-05
-0.000476879
3.09052e-05
-0.000480352
2.81924e-05
-0.000482556
2.43507e-05
-0.000483372
1.91134e-05
-0.000482665
1.22891e-05
-0.000480297
3.74779e-06
-0.000476127
-6.63473e-06
-0.00047
-1.88952e-05
-0.000461768
-3.28801e-05
-0.000451291
-4.82893e-05
-0.000438443
-6.4642e-05
-0.000423115
-8.13393e-05
-0.000405219
-9.75918e-05
-0.000384696
-0.000112559
-0.000361518
-0.000125335
-0.000335687
-0.000135092
-0.000307242
-0.000141097
-0.000276246
-0.000142915
-0.000242804
-0.000140314
-0.000207011
-0.00013362
-0.000169049
-0.000123229
-0.00012897
-0.000110572
-8.709e-05
-9.62605e-05
-4.32625e-05
-8.31805e-05
1.88708e-06
-7.09243e-05
4.8991e-05
-6.43951e-05
9.67544e-05
-5.99809e-05
0.000146762
-6.57963e-05
0.000196489
-7.18864e-05
0.000249043
-9.20562e-05
0.000300057
-0.000105932
0.000354717
-0.000137713
0.000406352
-0.000151292
0.000462523
-0.000188444
0.000514302
-0.000191466
0.000571277
-0.000226835
0.000623427
-0.000212536
0.000680507
-0.000239401
-0.00021261
-0.00043736
4.46925e-05
-0.000445578
4.35031e-05
-0.000452963
4.21461e-05
-0.000459451
4.04692e-05
-0.000464967
3.82778e-05
-0.000469422
3.53608e-05
-0.000472717
3.14875e-05
-0.000474744
2.63776e-05
-0.000475384
1.97532e-05
-0.000474506
1.14106e-05
-0.000471969
1.21082e-06
-0.000467641
-1.09626e-05
-0.000461361
-2.51752e-05
-0.000452986
-4.12546e-05
-0.00044238
-5.88954e-05
-0.000429418
-7.76037e-05
-0.000413994
-9.67642e-05
-0.000396022
-0.000115563
-0.000375446
-0.000133135
-0.000352238
-0.000148543
-0.000326402
-0.000160928
-0.000297975
-0.000169524
-0.000267019
-0.000173872
-0.000233634
-0.000173699
-0.000197912
-0.000169342
-0.000160028
-0.000161113
-0.000120029
-0.000150571
-7.82257e-05
-0.000138064
-3.447e-05
-0.000126936
1.06186e-05
-0.000116013
5.767e-05
-0.000111446
0.000105391
-0.000107702
0.000155348
-0.000115753
0.000205027
-0.000121566
0.000257502
-0.000144531
0.000308427
-0.000156857
0.000362941
-0.000192227
0.000414414
-0.000202765
0.000470347
-0.000244378
0.000521877
-0.000242996
0.000578526
-0.000283483
0.000630355
-0.000264365
0.000687055
-0.000296101
-0.000267711
-0.000428675
5.34583e-05
-0.000436661
5.14887e-05
-0.000443813
4.92983e-05
-0.000450067
4.67233e-05
-0.000455349
4.35596e-05
-0.00045957
3.95823e-05
-0.000462633
3.45501e-05
-0.000464429
2.81736e-05
-0.00046484
2.01643e-05
-0.000463733
1.03042e-05
-0.000460984
-1.53816e-06
-0.000456444
-1.5503e-05
-0.000449963
-3.16562e-05
-0.0004414
-4.98176e-05
-0.000430621
-6.96749e-05
-0.000417504
-9.07208e-05
-0.000401944
-0.000112323
-0.000383863
-0.000133645
-0.000363202
-0.000153796
-0.000339939
-0.000171806
-0.000314076
-0.000186792
-0.000285651
-0.000197948
-0.000254723
-0.000204799
-0.000221391
-0.000207031
-0.000185741
-0.000204992
-0.000147941
-0.000198913
-0.000108039
-0.000190472
-6.63326e-05
-0.000179771
-2.26782e-05
-0.000170591
2.23162e-05
-0.000161007
6.92684e-05
-0.000158399
0.000116898
-0.000155332
0.000166745
-0.000165599
0.000216315
-0.000171136
0.000268639
-0.000196855
0.000319406
-0.000207624
0.000373692
-0.000246514
0.000424926
-0.000253998
0.000480535
-0.000299987
0.000531735
-0.000294196
0.000587968
-0.000339716
0.000639395
-0.000315792
0.000695625
-0.00035233
-0.000322354
-0.000417899
6.1942e-05
-0.0004256
5.91907e-05
-0.000432468
5.61656e-05
-0.000438436
5.26915e-05
-0.000443432
4.85551e-05
-0.000447367
4.35178e-05
-0.000450145
3.73281e-05
-0.000451659
2.96871e-05
-0.00045179
2.02954e-05
-0.000450408
8.92259e-06
-0.000447393
-4.55283e-06
-0.000442595
-2.0301e-05
-0.000435867
-3.83846e-05
-0.000427072
-5.86129e-05
-0.000416077
-8.06695e-05
-0.000402766
-0.000104032
-0.000387037
-0.000128053
-0.000368812
-0.000151869
-0.000348039
-0.000174569
-0.000324696
-0.00019515
-0.000298786
-0.000212701
-0.000270347
-0.000226387
-0.000239439
-0.000235708
-0.000206153
-0.000240317
-0.000170578
-0.000240567
-0.000132871
-0.000236619
-9.30808e-05
-0.000230263
-5.14929e-05
-0.000221359
-7.96971e-06
-0.000214114
3.68957e-05
-0.000205873
8.37044e-05
-0.000205207
0.000131194
-0.000202822
0.000180873
-0.000215277
0.000230274
-0.000220538
0.000282378
-0.000248959
0.000332916
-0.000258162
0.000386898
-0.000300495
0.000437816
-0.000304917
0.000493018
-0.000355188
0.00054381
-0.000344988
0.000599544
-0.00039545
0.00065049
-0.000366738
0.000706164
-0.000408005
-0.000376455
-0.000405073
7.00942e-05
-0.000412442
6.65595e-05
-0.000418975
6.26984e-05
-0.000424608
5.83244e-05
-0.000429267
5.32147e-05
-0.000432867
4.71177e-05
-0.000435312
3.97723e-05
-0.000436494
3.0869e-05
-0.000436297
2.00984e-05
-0.000434593
7.21902e-06
-0.000431266
-7.88032e-06
-0.000426165
-2.54017e-05
-0.000419146
-4.54032e-05
-0.000410077
-6.76819e-05
-0.000398829
-9.19178e-05
-0.000385287
-0.000117573
-0.000369355
-0.000143985
-0.000350958
-0.000170266
-0.000330046
-0.00019548
-0.0003066
-0.000218596
-0.000280626
-0.000238675
-0.00025216
-0.000254853
-0.000221262
-0.000266606
-0.000188022
-0.000273557
-0.000152523
-0.000276065
-0.000114919
-0.000274224
-7.52552e-05
-0.000269927
-3.38077e-05
-0.000262806
9.55545e-06
-0.000257477
5.42562e-05
-0.000250573
0.000100878
-0.000251829
0.00014818
-0.000250124
0.000197633
-0.000264731
0.000246807
-0.000269712
0.000298622
-0.000300774
0.000348866
-0.000308406
0.000402466
-0.000354096
0.000453
-0.000355451
0.000507714
-0.000409903
0.000558026
-0.0003953
0.000613179
-0.000450602
0.000663571
-0.000417131
0.00071861
-0.000463044
-0.000429934
-0.00039025
7.78681e-05
-0.000397238
7.35484e-05
-0.00040339
6.88498e-05
-0.00040864
6.35748e-05
-0.000412917
5.74916e-05
-0.000416135
5.03353e-05
-0.000418199
4.18362e-05
-0.000419003
3.16734e-05
-0.000418433
1.95285e-05
-0.000416363
5.14844e-06
-0.000412681
-1.15624e-05
-0.000407235
-3.08472e-05
-0.000399887
-5.27515e-05
-0.000390506
-7.70623e-05
-0.000378969
-0.000103455
-0.000365164
-0.000131378
-0.000348998
-0.000160151
-0.000330402
-0.000188863
-0.000309328
-0.000216554
-0.000285759
-0.000242165
-0.000259705
-0.00026473
-0.000231201
-0.000283357
-0.000200308
-0.000297499
-0.00016711
-0.000306755
-0.000131693
-0.000311482
-9.42004e-05
-0.000311717
-5.46802e-05
-0.000309447
-1.33949e-05
-0.000304092
2.97788e-05
-0.000300651
7.42798e-05
-0.000295074
0.000120671
-0.000298221
0.000167739
-0.000297191
0.000216912
-0.000313904
0.000265801
-0.000318601
0.000317262
-0.000352235
0.000367147
-0.000358291
0.000420296
-0.000407244
0.000470376
-0.000405531
0.000524528
-0.000464056
0.000574291
-0.000445062
0.000628788
-0.000505099
0.000678558
-0.000466901
0.000732888
-0.000517374
-0.000482717
-0.000373482
8.52197e-05
-0.000380047
8.01134e-05
-0.000385774
7.4576e-05
-0.000390598
6.83993e-05
-0.000394449
6.13423e-05
-0.000397241
5.31275e-05
-0.000398882
4.3477e-05
-0.000399266
3.20573e-05
-0.000398282
1.85447e-05
-0.000395802
2.66836e-06
-0.000391728
-1.56362e-05
-0.000385899
-3.66759e-05
-0.000378185
-6.04658e-05
-0.000368459
-8.67883e-05
-0.0003566
-0.000115314
-0.000342503
-0.000145476
-0.000326078
-0.000176576
-0.000307258
-0.000207682
-0.000286002
-0.00023781
-0.000262295
-0.000265873
-0.000236148
-0.000290877
-0.000207597
-0.000311907
-0.000176704
-0.000328392
-0.000143549
-0.000339909
-0.00010822
-0.000346812
-7.08491e-05
-0.000349088
-3.14891e-05
-0.000348807
9.6116e-06
-0.000345192
5.25664e-05
-0.000343605
9.68334e-05
-0.000339341
0.000142953
-0.000344341
0.00018974
-0.000343978
0.00023858
-0.000362744
0.000287129
-0.000367151
0.000338175
-0.00040328
0.00038764
-0.000407756
0.000440269
-0.000459873
0.000489832
-0.000455094
0.000543354
-0.000517577
0.000592503
-0.000494212
0.000646276
-0.000558872
0.000695362
-0.000515988
0.000748914
-0.000570926
-0.000534739
-0.000354833
9.21084e-05
-0.000360934
8.62142e-05
-0.000366194
7.98368e-05
-0.000370553
7.27577e-05
-0.000373937
6.47269e-05
-0.000376265
5.54547e-05
-0.000377443
4.46554e-05
-0.000377367
3.19813e-05
-0.000375932
1.71093e-05
-0.000373009
-2.5442e-07
-0.000368506
-2.01384e-05
-0.00036226
-4.29226e-05
-0.000354147
-6.85783e-05
-0.000344046
-9.68901e-05
-0.000331838
-0.000127522
-0.000317423
-0.000159891
-0.000300715
-0.000193284
-0.000281653
-0.000226744
-0.000260198
-0.000259264
-0.000236339
-0.000289733
-0.000210089
-0.000317126
-0.000181485
-0.000340511
-0.000150591
-0.000359286
-0.000117482
-0.000373018
-8.22471e-05
-0.000382046
-4.50106e-05
-0.000386324
-5.82882e-06
-0.000387989
3.50643e-05
-0.000386085
7.77716e-05
-0.000386313
0.000121771
-0.000383341
0.000167579
-0.000390148
0.00021404
-0.000390439
0.000262496
-0.000411199
0.000310653
-0.000415308
0.000361224
-0.000453851
0.000410212
-0.000456744
0.000462258
-0.000511919
0.000511246
-0.000504082
0.000564073
-0.000570404
0.000612552
-0.000542691
0.000665537
-0.000611857
0.000713884
-0.000564335
0.000766596
-0.000623638
-0.000585939
-0.000334366
9.84975e-05
-0.000339966
9.18142e-05
-0.000344725
8.45958e-05
-0.000348581
7.66137e-05
-0.000351463
6.76095e-05
-0.00035329
5.72812e-05
-0.000353971
4.53363e-05
-0.000353401
3.14115e-05
-0.000351469
1.51774e-05
-0.000348094
-3.62967e-06
-0.00034312
-2.51123e-05
-0.000336426
-4.96166e-05
-0.000327888
-7.71167e-05
-0.000317384
-0.000107393
-0.000304804
-0.000140102
-0.00029005
-0.000174645
-0.000273041
-0.000210292
-0.000253721
-0.000246065
-0.000232055
-0.00028093
-0.000208034
-0.000313754
-0.000181675
-0.000343485
-0.000153016
-0.000369171
-0.000122121
-0.000390181
-8.90624e-05
-0.000406076
-5.3931e-05
-0.000417178
-1.6842e-05
-0.000423413
2.21437e-05
-0.000426974
6.28058e-05
-0.000426747
0.000105237
-0.000428744
0.000148935
-0.000427039
0.000194391
-0.000435605
0.000240485
-0.000436533
0.000288508
-0.000459222
0.000336223
-0.000463023
0.000386265
-0.000503893
0.000434722
-0.000505201
0.000486128
-0.000563324
0.000534486
-0.00055244
0.00058656
-0.000622478
0.000634317
-0.000590448
0.000686458
-0.000663998
0.000734017
-0.000611895
0.000785835
-0.000675455
-0.000636264
-0.00031215
0.000104354
-0.000317217
9.68806e-05
-0.000321442
8.88205e-05
-0.000324763
7.99353e-05
-0.000327112
6.99583e-05
-0.000328407
5.85758e-05
-0.000328559
4.54891e-05
-0.000327465
3.03174e-05
-0.000325021
1.27334e-05
-0.000321142
-7.50916e-06
-0.000315681
-3.0573e-05
-0.000308515
-5.67832e-05
-0.000299527
-8.61044e-05
-0.000288601
-0.000118319
-0.000275629
-0.000153074
-0.000260519
-0.000189755
-0.000243196
-0.000227615
-0.000223606
-0.000265655
-0.00020172
-0.000302816
-0.000177531
-0.000337944
-0.000151061
-0.000369954
-0.000122346
-0.000397886
-9.1454e-05
-0.000421073
-5.8453e-05
-0.000439077
-2.34361e-05
-0.000452195
1.34906e-05
-0.00046034
5.22607e-05
-0.000465744
9.26686e-05
-0.000467155
0.000134794
-0.000470869
0.000178159
-0.000470403
0.000223226
-0.000480672
0.000268911
-0.000482218
0.000316456
-0.000506767
0.000363682
-0.00051025
0.000413144
-0.000553354
0.000461021
-0.000553079
0.000511733
-0.000614036
0.000559413
-0.000600121
0.000610682
-0.000673747
0.000657672
-0.000637438
0.00070892
-0.000715246
0.000755648
-0.000658623
0.000806524
-0.00072633
-0.000685669
-0.000288257
0.000109648
-0.000292761
0.000101385
-0.000296424
9.2483e-05
-0.000299183
8.26949e-05
-0.000300971
7.17463e-05
-0.000301707
5.9312e-05
-0.000301306
4.50877e-05
-0.000299663
2.86744e-05
-0.000296683
9.75318e-06
-0.000292277
-1.19153e-05
-0.000286305
-3.65447e-05
-0.000278647
-6.44416e-05
-0.000269191
-9.55598e-05
-0.000257826
-0.000129685
-0.000244448
-0.000166452
-0.000228971
-0.000205232
-0.000211323
-0.000245262
-0.000191456
-0.000285522
-0.000169346
-0.000324926
-0.000144987
-0.000362302
-0.000118407
-0.000396535
-8.96397e-05
-0.000426653
-5.87576e-05
-0.000451955
-2.58235e-05
-0.000472012
9.06589e-06
-0.000487084
4.58139e-05
-0.000497088
8.43484e-05
-0.000504279
0.000124478
-0.000507285
0.000166271
-0.000512662
0.00020927
-0.000513402
0.000253912
-0.000525314
0.000299149
-0.000527456
0.000346173
-0.000553791
0.000392867
-0.000556944
0.000441701
-0.000602189
0.000488953
-0.000600331
0.000538923
-0.000664006
0.000585883
-0.00064708
0.000636301
-0.000724165
0.000682485
-0.000683622
0.000732797
-0.000765558
0.00077866
-0.000704486
0.000828553
-0.000776223
-0.000734116
-0.000262757
0.000114357
-0.000266676
0.000105304
-0.000269753
9.556e-05
-0.000271927
8.48697e-05
-0.000273132
7.29509e-05
-0.000273288
5.94677e-05
-0.000272311
4.41105e-05
-0.000270098
2.6462e-05
-0.000266559
6.21388e-06
-0.000261612
-1.68621e-05
-0.000255112
-4.30448e-05
-0.000246947
-7.26068e-05
-0.00023701
-0.000105496
-0.000225194
-0.000141501
-0.000211401
-0.000180245
-0.000195549
-0.000221085
-0.000177572
-0.000263239
-0.000157426
-0.000305668
-0.000135091
-0.000347261
-0.000110565
-0.000386828
-8.38786e-05
-0.000423221
-5.50663e-05
-0.000455466
-2.42035e-05
-0.000482818
8.65191e-06
-0.000504867
4.33987e-05
-0.000521831
7.99503e-05
-0.00053364
0.000118228
-0.000542557
0.000158056
-0.000547113
0.000199488
-0.000554094
0.00024209
-0.000556005
0.000286272
-0.000569496
0.000331025
-0.000572209
0.000377488
-0.000600254
0.000423609
-0.000603064
0.000471773
-0.000650353
0.000518359
-0.000646916
0.000567546
-0.000713193
0.000613747
-0.000693281
0.000663276
-0.000773694
0.00070862
-0.000728966
0.00075796
-0.000814898
0.000802929
-0.000749455
0.000851807
-0.000825102
-0.000781575
-0.000235723
0.000118461
-0.000239037
0.000108618
-0.00024151
9.80332e-05
-0.000243082
8.64417e-05
-0.000243686
7.3555e-05
-0.000243245
5.90264e-05
-0.000241675
4.25402e-05
-0.00023888
2.36672e-05
-0.000234766
2.09974e-06
-0.000229266
-2.23614e-05
-0.000222225
-5.00859e-05
-0.000213543
-8.12891e-05
-0.000203117
-0.000115923
-0.000190843
-0.000153774
-0.00017663
-0.000194458
-0.0001604
-0.000237315
-0.000142094
-0.000281546
-0.00012167
-0.000326092
-9.91149e-05
-0.000369817
-7.4428e-05
-0.000411515
-4.76445e-05
-0.000450004
-1.87975e-05
-0.000484313
1.20333e-05
-0.000513649
4.47949e-05
-0.000537629
7.93828e-05
-0.000556419
0.000115719
-0.000569976
0.000153718
-0.000580556
0.00019322
-0.000586615
0.000234263
-0.000595137
0.000276439
-0.000598181
0.000320129
-0.000613185
0.000364363
-0.000616443
0.000410228
-0.000646119
0.000455738
-0.000648574
0.000503195
-0.00069781
0.000549078
-0.000692799
0.000597445
-0.00076156
0.000642854
-0.00073869
0.00069146
-0.0008223
0.000735939
-0.000773445
0.000784279
-0.000863238
0.000828331
-0.000793508
0.000876169
-0.00087294
-0.000828023
-0.000207226
0.000121946
-0.000209922
0.000111315
-0.000211778
9.98893e-05
-0.000212735
8.73983e-05
-0.000212726
7.35462e-05
-0.000211676
5.79762e-05
-0.000209502
4.03662e-05
-0.000206106
2.02717e-05
-0.000201427
-2.57989e-06
-0.000195357
-2.84314e-05
-0.000187768
-5.76746e-05
-0.000178564
-9.04934e-05
-0.000167644
-0.000126843
-0.000154912
-0.000166506
-0.000140279
-0.000209091
-0.000123674
-0.000253919
-0.000105043
-0.000300177
-8.43483e-05
-0.000346786
-6.15811e-05
-0.000392584
-3.67435e-05
-0.000436353
-9.87452e-06
-0.000476873
1.89931e-05
-0.00051318
4.97766e-05
-0.000544432
8.24276e-05
-0.00057028
0.000116837
-0.000590829
0.000152937
-0.000606076
0.000190636
-0.000618254
0.000229786
-0.000625765
0.000270414
-0.000635765
0.000312135
-0.000639902
0.000355302
-0.000656352
0.000398984
-0.000660124
0.000444218
-0.000691353
0.000489083
-0.000693439
0.000535798
-0.000744525
0.000580947
-0.000737948
0.000628462
-0.000809076
0.000673053
-0.000783281
0.00072071
-0.000869957
0.000764302
-0.000817037
0.00081162
-0.000910555
0.000854742
-0.000836629
0.000901521
-0.000919719
-0.000873444
-0.000177336
0.000124802
-0.000179406
0.000113384
-0.000180637
0.000101121
-0.000180971
8.77323e-05
-0.000180343
7.29179e-05
-0.000178678
5.63113e-05
-0.000175894
3.75826e-05
-0.000171899
1.62767e-05
-0.000166642
-7.83691e-06
-0.000160002
-3.50715e-05
-0.000151864
-6.58124e-05
-0.000142138
-0.00010022
-0.000130727
-0.000138254
-0.000117539
-0.000179694
-0.000102492
-0.000224137
-8.55197e-05
-0.000270892
-6.65725e-05
-0.000319124
-4.56179e-05
-0.000367741
-2.26514e-05
-0.00041555
2.3247e-06
-0.000461329
2.92607e-05
-0.000503809
5.8132e-05
-0.000542051
8.885e-05
-0.00057515
0.000121371
-0.0006028
0.000155582
-0.00062504
0.000191424
-0.000641917
0.000228798
-0.000655628
0.000267572
-0.000664539
0.000307759
-0.000675953
0.000348997
-0.00068114
0.000391612
-0.000698967
0.000434712
-0.000703224
0.000479284
-0.000735926
0.000523475
-0.00073763
0.000569418
-0.000790468
0.000613805
-0.000782334
0.000660442
-0.000855713
0.000704194
-0.000827032
0.00075088
-0.000916643
0.000793572
-0.00085973
0.000839852
-0.000956835
0.000882034
-0.000878811
0.000927744
-0.00096543
-0.000917831
-0.00014612
-0.000147561
0.000114825
-0.000148166
0.000101725
-0.000147875
8.74419e-05
-0.000146626
7.16691e-05
-0.000144346
5.40311e-05
-0.000140953
3.41895e-05
-0.000136365
1.16884e-05
-0.000130525
-1.36762e-05
-0.000123319
-4.22778e-05
-0.000114637
-7.44947e-05
-0.000104394
-0.000110463
-9.24982e-05
-0.000150149
-7.88634e-05
-0.000193329
-6.34129e-05
-0.000239588
-4.60849e-05
-0.00028822
-2.68355e-05
-0.000338373
-5.63538e-06
-0.000388941
1.75122e-05
-0.000438698
4.26039e-05
-0.000486421
6.95923e-05
-0.000530798
9.84471e-05
-0.000570906
0.000129078
-0.000605782
0.000161447
-0.00063517
0.000195437
-0.00065903
0.000230998
-0.000677478
0.000268024
-0.000692654
0.000306397
-0.000702912
0.000346118
-0.000715674
0.000386846
-0.000721867
0.000428881
-0.000741002
0.000471372
-0.000745715
0.000515256
-0.00077981
0.000558745
-0.000781118
0.000603891
-0.000835615
0.000647492
-0.000825936
0.000693231
-0.000901452
0.000736126
-0.000869927
0.000781826
-0.000962343
0.00082361
-0.000901513
0.000868843
-0.00100207
0.000910083
-0.000920051
0.000954719
-0.00101007
-0.00096118
-0.000114459
0.00011564
-0.00011444
0.000101707
-0.00011353
8.65315e-05
-0.000111665
6.98043e-05
-0.000108774
5.11402e-05
-0.000104776
3.01915e-05
-9.95956e-05
6.50795e-06
-9.31889e-05
-2.00829e-05
-8.54239e-05
-5.00428e-05
-7.62076e-05
-8.37111e-05
-6.54587e-05
-0.000121212
-5.30907e-05
-0.000162517
-3.90228e-05
-0.000207397
-2.31836e-05
-0.000255427
-5.5153e-06
-0.000305888
1.40162e-05
-0.000357905
3.54394e-05
-0.000410364
5.87493e-05
-0.000462008
8.39373e-05
-0.000511609
0.000110953
-0.000557814
0.000139768
-0.000599721
0.000170289
-0.000636303
0.000202483
-0.000667363
0.000236227
-0.000692774
0.000271483
-0.000712733
0.000308136
-0.000729308
0.000346084
-0.00074086
0.000385314
-0.000754903
0.000425506
-0.00076206
0.000466938
-0.000782434
0.000508794
-0.00078757
0.000551965
-0.000822981
0.000594729
-0.000823882
0.000639057
-0.000879943
0.000681854
-0.000868733
0.000726678
-0.000946275
0.000768705
-0.000911954
0.00081341
-0.00100705
0.000854281
-0.000942384
0.000898465
-0.00104625
0.000938765
-0.000960351
0.00098233
-0.00105363
-0.0010035
-8.01656e-05
0.000115839
-7.95341e-05
0.000101075
-7.80139e-05
8.50113e-05
-7.5544e-05
6.73345e-05
-7.20515e-05
4.76476e-05
-6.74678e-05
2.56078e-05
-6.17035e-05
7.43651e-07
-5.47429e-05
-2.70435e-05
-4.64317e-05
-5.83541e-05
-3.66962e-05
-9.34465e-05
-2.54575e-05
-0.00013245
-1.26342e-05
-0.000175341
1.85357e-06
-0.000221885
1.8055e-05
-0.000271628
3.60385e-05
-0.000323872
5.5832e-05
-0.000377698
7.74564e-05
-0.000431989
0.000100903
-0.000485454
0.000126161
-0.000536867
0.000153179
-0.000584831
0.000181928
-0.00062847
0.000212313
-0.000666687
0.000244305
-0.000699355
0.000277779
-0.000726249
0.000312704
-0.000747658
0.000348961
-0.000765564
0.000386459
-0.000778358
0.000425174
-0.000793618
0.000464807
-0.000801694
0.000505613
-0.000823239
0.00054681
-0.000828768
0.000589248
-0.000865419
0.000631267
-0.000865901
0.00067476
-0.000923436
0.000716738
-0.000910712
0.000760635
-0.000990172
0.000801788
-0.000953107
0.000845494
-0.00105075
0.000885454
-0.000982344
0.000928591
-0.00108939
0.000967961
-0.00099972
0.00101046
-0.00109613
-0.00104479
-4.47455e-05
0.000115438
-4.35173e-05
9.98469e-05
-4.14042e-05
8.28982e-05
-3.83463e-05
6.42766e-05
-3.42708e-05
4.35721e-05
-2.90954e-05
2.04324e-05
-2.28124e-05
-5.53931e-06
-1.52904e-05
-3.45655e-05
-6.45315e-06
-6.71914e-05
3.78204e-06
-0.000103682
1.54864e-05
-0.000144155
2.87409e-05
-0.000188595
4.36136e-05
-0.000236757
6.01641e-05
-0.000288179
7.8439e-05
-0.000342147
9.84663e-05
-0.000397726
0.000120263
-0.000453786
0.000143818
-0.000509008
0.000169118
-0.000562168
0.000196108
-0.000611821
0.000224763
-0.000657125
0.000254983
-0.000696908
0.000286747
-0.000731119
0.000319925
-0.000759427
0.000354494
-0.000782227
0.000390329
-0.0008014
0.000427354
-0.000815383
0.000465531
-0.000831795
0.000504583
-0.000840746
0.000544742
-0.000863398
0.000585261
-0.000869288
0.000626948
-0.000907105
0.000668205
-0.000907158
0.000710849
-0.00096608
0.000751999
-0.000951862
0.000794963
-0.00103314
0.000835239
-0.000993383
0.000877946
-0.00109346
0.000917003
-0.0010214
0.000959101
-0.00113149
0.000997553
-0.00103817
0.001039
-0.00113758
-0.00108509
-8.2579e-06
0.00011446
-6.45604e-06
9.8045e-05
-3.77237e-06
8.02145e-05
-1.30903e-07
6.06351e-05
4.48718e-06
3.8954e-05
1.02035e-05
1.47161e-05
1.70244e-05
-1.23602e-05
2.50603e-05
-4.26014e-05
3.43975e-05
-7.65286e-05
4.51036e-05
-0.000114388
5.72514e-05
-0.000156303
7.09106e-05
-0.000202254
8.61452e-05
-0.000251992
0.000103009
-0.000305043
0.000121545
-0.000360682
0.000141774
-0.000417955
0.000163712
-0.000475724
0.000187342
-0.000532638
0.000212652
-0.000587478
0.000239583
-0.000638752
0.000268113
-0.000685655
0.000298139
-0.000726935
0.000329646
-0.000762625
0.0003625
-0.000792281
0.000396687
-0.000816415
0.000432078
-0.00083679
0.000468605
-0.00085191
0.000506224
-0.000869414
0.000544674
-0.000879197
0.000584167
-0.000902891
0.000623992
-0.000909113
0.000664912
-0.000948025
0.000705395
-0.000947641
0.000747182
-0.00100787
0.000787497
-0.000992177
0.000829524
-0.00107516
0.000868926
-0.00103278
0.000910639
-0.00113517
0.000948805
-0.00105957
0.000989877
-0.00117256
0.00102743
-0.00107572
0.00106785
-0.00117801
-0.00112439
2.92398e-05
0.000112934
3.15848e-05
9.57001e-05
3.48074e-05
7.6992e-05
3.89652e-05
5.64773e-05
4.41332e-05
3.37861e-05
5.03626e-05
8.48658e-06
5.76843e-05
-1.96819e-05
6.62122e-05
-5.11292e-05
7.60172e-05
-8.63336e-05
8.71641e-05
-0.000125535
9.97207e-05
-0.000168859
0.000113751
-0.000216285
0.000129314
-0.000267555
0.000146457
-0.000322186
0.000165218
-0.000379443
0.000185614
-0.000438351
0.000207658
-0.000497767
0.000231328
-0.000556308
0.000256613
-0.000612764
0.000283451
-0.00066559
0.000311823
-0.000714026
0.000341624
-0.000756736
0.000372844
-0.000793844
0.000405347
-0.000824784
0.000439126
-0.000850194
0.000474048
-0.000871712
0.000510056
-0.000887918
0.000547097
-0.000906454
0.000584927
-0.000917027
0.000623739
-0.000941702
0.000662854
-0.000948227
0.000702997
-0.000988168
0.000742696
-0.000987341
0.000783619
-0.00104879
0.000823097
-0.00103165
0.00086419
-0.00111626
0.000902724
-0.00107132
0.000943454
-0.0011759
0.000980743
-0.00109686
0.00102081
-0.00121262
0.00105748
-0.0011124
0.0010969
-0.00121742
-0.00116274
6.76956e-05
0.0001109
7.05465e-05
9.28492e-05
7.42717e-05
7.32667e-05
7.89298e-05
5.18192e-05
8.45862e-05
2.81297e-05
9.12995e-05
1.77327e-06
9.90823e-05
-2.74647e-05
0.000108065
-6.01116e-05
0.0001183
-9.65688e-05
0.00012985
-0.000137085
0.000142778
-0.000181787
0.000157141
-0.000230648
0.000172994
-0.000283407
0.000190377
-0.000339569
0.000209324
-0.00039839
0.000229848
-0.000458875
0.000251958
-0.000519877
0.00027563
-0.00057998
0.000300853
-0.000637986
0.000327562
-0.000692299
0.000355741
-0.000742206
0.000385285
-0.00078628
0.000416188
-0.000824747
0.000448312
-0.000856909
0.000481659
-0.000883541
0.000516089
-0.000906142
0.000551557
-0.000923386
0.000588001
-0.000942898
0.000625195
-0.000954221
0.000663312
-0.00097982
0.000701706
-0.000986621
0.000741064
-0.00102753
0.000779973
-0.00102625
0.000820032
-0.00108885
0.000858673
-0.0010703
0.000898838
-0.00115642
0.000936515
-0.00110899
0.000976275
-0.00121566
0.00101271
-0.00113329
0.00105178
-0.0012517
0.00108761
-0.00114822
0.00112605
-0.00125586
-0.00120017
0.000107059
0.000108402
0.000110371
8.95372e-05
0.000114555
6.9083e-05
0.000119668
4.67057e-05
0.000125785
2.20131e-05
0.000132908
-5.35038e-06
0.000141127
-3.56837e-05
0.000150519
-6.95038e-05
0.000161142
-0.000107191
0.000173053
-0.000148995
0.000186308
-0.000195043
0.000200962
-0.000245302
0.00021706
-0.000299505
0.00023464
-0.000357149
0.000253731
-0.00041748
0.000274339
-0.000479484
0.000296474
-0.000542012
0.000320107
-0.000603612
0.000345228
-0.000663107
0.00037177
-0.000718841
0.000399722
-0.000770157
0.000428975
-0.000815534
0.000459531
-0.000855302
0.000491249
-0.000888627
0.000524137
-0.000916429
0.000558054
-0.000940059
0.000592963
-0.000958295
0.000628795
-0.00097873
0.000665338
-0.000990763
0.000702751
-0.00101723
0.000740414
-0.00102428
0.000778983
-0.00106609
0.0008171
-0.00106437
0.000856295
-0.00112804
0.000894106
-0.00110811
0.000933353
-0.00119567
0.000970186
-0.00114583
0.00100899
-0.00125447
0.00104459
-0.00116889
0.00108271
-0.00128982
0.00111771
-0.00118323
0.00115521
-0.00129336
-0.0012367
0.000147281
0.000105494
0.000151002
8.58167e-05
0.000155592
6.44925e-05
0.000161112
4.11856e-05
0.000167623
1.55022e-05
0.000175132
-1.28596e-05
0.000183726
-4.42776e-05
0.00019348
-7.9258e-05
0.000204441
-0.000118152
0.000216664
-0.000161218
0.0002302
-0.000208579
0.000245095
-0.000260198
0.000261392
-0.000315802
0.000279121
-0.000374879
0.000298308
-0.000436667
0.000318955
-0.000500132
0.000341069
-0.000564126
0.00036462
-0.000627163
0.000389597
-0.000688085
0.000415934
-0.000745178
0.000443622
-0.000797845
0.000472552
-0.000844464
0.00050273
-0.00088548
0.000534015
-0.000919912
0.000566422
-0.000948836
0.000599806
-0.000973443
0.000634138
-0.000992628
0.000669344
-0.00101394
0.000705225
-0.00102664
0.000741925
-0.00105393
0.000778853
-0.00106121
0.00081663
-0.00110387
0.000853957
-0.00110169
0.000892295
-0.00116638
0.000929284
-0.0011451
0.000967625
-0.00123401
0.00100363
-0.00118184
0.00104151
-0.00129235
0.0010763
-0.00120368
0.00111349
-0.00132701
0.0011477
-0.00121744
0.00118429
-0.00132995
-0.00127237
0.000188314
0.000102237
0.000192383
8.17481e-05
0.000197322
5.9554e-05
0.000203192
3.53154e-05
0.000210039
8.65554e-06
0.000217873
-2.06941e-05
0.000226791
-5.31957e-05
0.000236851
-8.9318e-05
0.000248097
-0.000129398
0.000260578
-0.000173699
0.00027434
-0.000222341
0.000289425
-0.000275282
0.000305868
-0.000332245
0.000323695
-0.000392706
0.000342927
-0.000455899
0.000363565
-0.00052077
0.000385611
-0.000586172
0.000409034
-0.000650586
0.000433825
-0.000712877
0.000459917
-0.00077127
0.000487304
-0.000825232
0.000515877
-0.000873037
0.000545648
-0.000915251
0.000576475
-0.000950739
0.000608378
-0.000980739
0.000641211
-0.00100628
0.000674951
-0.00102637
0.00070952
-0.00104851
0.000744729
-0.00106185
0.000780713