/*--------------------------------*- C++ -*----------------------------------*\
  =========                 |
  \\      /  F ield         | OpenFOAM: The Open Source CFD Toolbox
   \\    /   O peration     | Website:  https://openfoam.org
    \\  /    A nd           | Version:  7
     \\/     M anipulation  |
\*---------------------------------------------------------------------------*/
FoamFile
{
    version     2.0;
    format      ascii;
    class       surfaceScalarField;
    location    "70";
    object      phi;
}
// * * * * * * * * * * * * * * * * * * * * * * * * * * * * * * * * * * * * * //

dimensions      [0 3 -1 0 0 0 0];

internalField   nonuniform List<scalar> 
67470
(
-9.17715e-07
1.80264e-05
-1.71086e-05
-3.47033e-06
4.79631e-05
-4.54105e-05
-7.53414e-06
7.33818e-05
-6.9318e-05
-1.29819e-05
9.44647e-05
-8.9017e-05
-1.96842e-05
0.000111505
-0.000104803
-2.75126e-05
0.000124898
-0.00011707
-3.63422e-05
0.000135112
-0.000126283
-4.60555e-05
0.000142665
-0.000132952
-5.65456e-05
0.000148088
-0.000137598
-6.77203e-05
0.00015189
-0.000140716
-7.95053e-05
0.000154532
-0.000142747
-9.18486e-05
0.000156397
-0.000144054
-0.000104724
0.000157775
-0.0001449
-0.000118136
0.000158856
-0.000145445
-0.000132121
0.000159729
-0.000145743
-0.000146755
0.000160383
-0.000145749
-0.00016215
0.000160718
-0.000145323
-0.000178457
0.000160543
-0.000144235
-0.00019586
0.000159575
-0.000142173
0.000157397
-0.000138677
-0.000214581
-8.79501e-07
1.89059e-05
-3.33649e-06
5.04201e-05
-7.26118e-06
7.73065e-05
-1.25381e-05
9.97417e-05
-1.90478e-05
0.000118015
-2.66691e-05
0.000132519
-3.52825e-05
0.000143726
-4.47739e-05
0.000152157
-5.50379e-05
0.000158352
-6.59821e-05
0.000162835
-7.75312e-05
0.000166081
-8.96311e-05
0.000168497
-0.000102253
0.000170397
-0.000115398
0.000172001
-0.000129101
0.000173432
-0.000143436
0.000174718
-0.000158517
0.000175799
-0.000174499
0.000176524
-0.000191571
0.000176648
0.000175796
-0.00020997
-8.38149e-07
1.9744e-05
-3.19096e-06
5.27729e-05
-6.96287e-06
8.10784e-05
-1.20506e-05
0.000104829
-1.83442e-05
0.000124308
-2.57301e-05
0.000139905
-3.40938e-05
0.00015209
-4.3324e-05
0.000161387
-5.33161e-05
0.000168344
-6.39766e-05
0.000173495
-7.52278e-05
0.000177333
-8.70114e-05
0.000180281
-9.92942e-05
0.00018268
-0.000112072
0.000184779
-0.000125376
0.000186736
-0.000139275
0.000188617
-0.000153882
0.000190405
-0.000169353
0.000191995
-0.000185883
0.000193178
0.000193631
-0.000203719
-7.93823e-07
2.05378e-05
-3.0342e-06
5.50132e-05
-6.64009e-06
8.46843e-05
-1.15204e-05
0.00010971
-1.75749e-05
0.000130363
-2.46974e-05
0.000147028
-3.2778e-05
0.00016017
-4.17077e-05
0.000170317
-5.13819e-05
0.000178018
-6.17053e-05
0.000183819
-7.25959e-05
0.000188223
-8.39903e-05
0.000191675
-9.58483e-05
0.000194538
-0.000108159
0.00019709
-0.000120945
0.000199522
-0.000134269
0.000201941
-0.000148239
0.000204376
-0.000163011
0.000206767
-0.000178782
0.000208949
0.000210657
-0.000195808
-7.46694e-07
2.12845e-05
-2.86681e-06
5.71334e-05
-6.29395e-06
8.81115e-05
-1.09492e-05
0.000114365
-1.67422e-05
0.000136156
-2.35735e-05
0.000153859
-3.1338e-05
0.000167935
-3.99281e-05
0.000178907
-4.92389e-05
0.000187329
-5.91718e-05
0.000193751
-6.96396e-05
0.000198691
-8.05718e-05
0.000202607
-9.19193e-05
0.000205886
-0.000103661
0.000208832
-0.00011581
0.000211671
-0.00012842
0.000214551
-0.00014159
0.000217546
-0.000155472
0.000220649
-0.000170264
0.000223741
0.000226622
-0.000186229
-6.97003e-07
2.19815e-05
-2.68956e-06
5.91259e-05
-5.92593e-06
9.13478e-05
-1.03394e-05
0.000118778
-1.5849e-05
0.000141666
-2.23623e-05
0.000160372
-2.97781e-05
0.00017535
-3.79904e-05
0.000187119
-4.68927e-05
0.000196231
-5.63823e-05
0.000203241
-6.63657e-05
0.000208674
-7.67633e-05
0.000213005
-8.75155e-05
0.000216638
-9.85887e-05
0.000219905
-0.000109983
0.000223065
-0.000121738
0.000226306
-0.000133943
0.000229751
-0.000146744
0.000233449
-0.000160336
0.000237334
0.000241272
-0.000174986
-6.45018e-07
2.26265e-05
-2.50336e-06
6.09843e-05
-5.53779e-06
9.43823e-05
-9.69355e-06
0.000122934
-1.48991e-05
0.000146871
-2.10685e-05
0.000166542
-2.81042e-05
0.000182386
-3.59011e-05
0.000194916
-4.43506e-05
0.000204681
-5.33453e-05
0.000212236
-6.27837e-05
0.000218113
-7.25758e-05
0.000222797
-8.26491e-05
0.000226711
-9.2955e-05
0.000230211
-0.000103477
0.000233587
-0.00011424
0.000237069
-0.000125317
0.000240829
-0.000136845
0.000244977
-0.000149016
0.000249505
0.000254354
-0.000162098
-5.91055e-07
2.32176e-05
-2.30926e-06
6.27025e-05
-5.13159e-06
9.72046e-05
-9.01497e-06
0.000126817
-1.38969e-05
0.000151753
-1.96976e-05
0.000172342
-2.63229e-05
0.000189012
-3.36682e-05
0.000202261
-4.16221e-05
0.000212635
-5.00713e-05
0.000220685
-5.89057e-05
0.000226947
-6.80231e-05
0.000231914
-7.7336e-05
0.000236024
-8.67782e-05
0.000239653
-9.63139e-05
0.000243122
-0.000105948
0.000246703
-0.000115737
0.000250618
-0.000125801
0.000255041
-0.00013633
0.000260033
0.000265616
-0.000147592
-5.35468e-07
2.37531e-05
-2.10844e-06
6.42754e-05
-4.70967e-06
9.98058e-05
-8.30729e-06
0.000130415
-1.28474e-05
0.000156293
-1.82562e-05
0.000177751
-2.44424e-05
0.000195198
-3.13011e-05
0.00020912
-3.8718e-05
0.000220051
-4.65732e-05
0.00022854
-5.47464e-05
0.00023512
-6.31221e-05
0.00024029
-7.15955e-05
0.000244497
-8.00806e-05
0.000248138
-8.85188e-05
0.000251561
-9.68913e-05
0.000255075
-0.000105233
0.000258959
-0.000113647
0.000263456
-0.000122315
0.000268701
0.000274809
-0.000131507
-4.78647e-07
2.42317e-05
-1.90222e-06
6.5699e-05
-4.2746e-06
0.000102178
-7.5746e-06
0.000133715
-1.17564e-05
0.000160475
-1.67516e-05
0.000182746
-2.24715e-05
0.000200918
-2.88107e-05
0.000215459
-3.5651e-05
0.000226892
-4.28654e-05
0.000235754
-5.03225e-05
0.000242578
-5.78919e-05
0.00024786
-6.54501e-05
0.000252056
-7.28881e-05
0.000255576
-8.01215e-05
0.000258794
-8.71039e-05
0.000262057
-9.38435e-05
0.000265699
-0.000100424
0.000270036
-0.000107016
0.000275293
0.000281686
-0.000113893
-4.21011e-07
2.46527e-05
-1.69201e-06
6.697e-05
-3.82921e-06
0.000104315
-6.82135e-06
0.000136707
-1.06301e-05
0.000164284
-1.5192e-05
0.000187308
-2.04203e-05
0.000206146
-2.62088e-05
0.000221248
-3.24349e-05
0.000233118
-3.89638e-05
0.000242283
-4.56523e-05
0.000249266
-5.2354e-05
0.000254561
-5.89245e-05
0.000258626
-6.52295e-05
0.000261881
-7.11555e-05
0.00026472
-7.66242e-05
0.000267526
-8.16128e-05
0.000270687
-8.618e-05
0.000274603
-9.04864e-05
0.0002796
0.000286006
-9.48063e-05
-3.63002e-07
2.50157e-05
-1.47931e-06
6.80863e-05
-3.37648e-06
0.000106213
-6.05229e-06
0.000139383
-9.47522e-06
0.000167707
-1.35859e-05
0.000191419
-1.82994e-05
0.000210859
-2.3508e-05
0.000226456
-2.90846e-05
0.000238694
-3.48858e-05
0.000248085
-4.07559e-05
0.000255136
-4.65312e-05
0.000260337
-5.20452e-05
0.00026414
-5.71359e-05
0.000266972
-6.16569e-05
0.000269241
-6.54941e-05
0.000271363
-6.85884e-05
0.000273782
-7.0969e-05
0.000276984
-7.27837e-05
0.000281414
0.000287531
-7.4309e-05
-3.05083e-07
2.53208e-05
-1.26571e-06
6.9047e-05
-2.91957e-06
0.000107866
-5.27244e-06
0.000141736
-8.29871e-06
0.000170733
-1.19426e-05
0.000195063
-1.61202e-05
0.000215037
-2.0722e-05
0.000231058
-2.56157e-05
0.000243588
-3.06493e-05
0.000253118
-3.56538e-05
0.000260141
-4.04475e-05
0.00026513
-4.48399e-05
0.000268532
-4.86394e-05
0.000270771
-5.16635e-05
0.000272265
-5.37575e-05
0.000273457
-5.48207e-05
0.000274845
-5.48475e-05
0.000277011
-5.39705e-05
0.000280538
0.000286029
-5.24686e-05
-2.47727e-07
2.55685e-05
-1.05282e-06
6.9852e-05
-2.46171e-06
0.000109275
-4.48699e-06
0.000143761
-7.10792e-06
0.000173354
-1.02715e-05
0.000198226
-1.38943e-05
0.00021866
-1.78645e-05
0.000235028
-2.20444e-05
0.000247768
-2.62728e-05
0.000257346
-3.03671e-05
0.000264235
-3.41267e-05
0.00026889
-3.73362e-05
0.000271742
-3.97721e-05
0.000273207
-4.12129e-05
0.000273706
-4.14584e-05
0.000273703
-4.03607e-05
0.000273747
-3.7873e-05
0.000274523
-3.41122e-05
0.000276777
0.000281273
-2.93563e-05
-1.91415e-07
2.576e-05
-8.42289e-07
7.05029e-05
-2.00622e-06
0.000110439
-3.70124e-06
0.000145456
-5.91032e-06
0.000175563
-8.58236e-06
0.000200898
-1.16337e-05
0.000221711
-1.49497e-05
0.000238345
-1.8387e-05
0.000251205
-2.17747e-05
0.000260734
-2.49165e-05
0.000267377
-2.75922e-05
0.000271565
-2.95608e-05
0.000273711
-3.05649e-05
0.000274211
-3.03411e-05
0.000273482
-2.86393e-05
0.000272001
-2.52574e-05
0.000270365
-2.00987e-05
0.000269364
-1.32648e-05
0.000269943
0.000273147
-5.13885e-06
-1.36631e-07
2.58966e-05
-6.35781e-07
7.10021e-05
-1.55644e-06
0.00011136
-2.92051e-06
0.00014682
-4.71342e-06
0.000177356
-6.88492e-06
0.00020307
-9.3503e-06
0.000224176
-1.19917e-05
0.000240986
-1.46594e-05
0.000253873
-1.71729e-05
0.000263248
-1.93217e-05
0.000269526
-2.0866e-05
0.00027311
-2.15381e-05
0.000274383
-2.10458e-05
0.000273719
-1.90808e-05
0.000271517
-1.53386e-05
0.000268259
-9.55611e-06
0.000264583
-1.57624e-06
0.000261384
8.57776e-06
0.000259789
0.000261353
2.03718e-05
-8.38513e-08
2.59804e-05
-4.34931e-07
7.13531e-05
-1.11567e-06
0.000112041
-2.15009e-06
0.000147855
-3.52465e-06
0.000178731
-5.18877e-06
0.000204734
-7.05584e-06
0.000226044
-9.00404e-06
0.000242934
-1.0877e-05
0.000255746
-1.24843e-05
0.000264855
-1.3601e-05
0.000270642
-1.39676e-05
0.000273476
-1.32895e-05
0.000273705
-1.12383e-05
0.000271667
-7.45907e-06
0.000267738
-1.58806e-06
0.000262388
6.70651e-06
0.000256288
1.76446e-05
0.000250446
3.11963e-05
0.000246237
0.000245585
4.69649e-05
-3.35667e-08
2.6014e-05
-2.41343e-07
7.15609e-05
-6.87108e-07
0.000112486
-1.39513e-06
0.000148563
-2.35123e-06
0.000179687
-3.50324e-06
0.000205886
-4.76158e-06
0.000227302
-5.99971e-06
0.000244172
-7.05414e-06
0.0002568
-7.72408e-06
0.000265525
-7.77032e-06
0.000270689
-6.91341e-06
0.00027262
-4.8316e-06
0.000271623
-1.16008e-06
0.000267996
4.50499e-06
0.000262073
1.25902e-05
0.000254303
2.35038e-05
0.000245374
3.75441e-05
0.000236406
5.4733e-05
0.000229048
0.000225687
7.46304e-05
1.38608e-08
2.60001e-05
-5.6539e-08
7.16313e-05
-2.73848e-07
0.000112704
-6.60551e-07
0.000148949
-1.20006e-06
0.000180226
-1.83714e-06
0.000206523
-2.47809e-06
0.000227943
-2.9907e-06
0.000244685
-3.20372e-06
0.000257013
-2.90566e-06
0.000265227
-1.84268e-06
0.000269626
2.84504e-07
0.000270492
3.82466e-06
0.000268083
9.17938e-06
0.000262641
1.68024e-05
0.00025445
2.71868e-05
0.000243918
4.08253e-05
0.000231736
5.8109e-05
0.000219122
7.9124e-05
0.000208033
0.000201412
0.000103399
5.79848e-08
2.59422e-05
1.18029e-07
7.15713e-05
1.2123e-07
0.000112701
4.91411e-08
0.000149021
-7.75186e-08
0.000180353
-1.98608e-07
0.000206644
-2.14978e-07
0.000227959
1.23141e-08
0.000244458
6.63151e-07
0.000256363
1.96031e-06
0.00026393
4.17253e-06
0.000267413
7.61905e-06
0.000267046
1.26754e-05
0.000263026
1.97799e-05
0.000255537
2.94367e-05
0.000244793
4.2208e-05
0.000231147
5.86778e-05
0.000215266
7.93452e-05
0.000198455
0.00010438
0.000182998
0.000172499
0.000133293
9.83045e-08
2.58439e-05
2.81036e-07
7.13885e-05
4.95462e-07
0.000112486
7.2954e-07
0.000148787
1.01057e-06
0.000180072
1.40509e-06
0.000206249
2.01932e-06
0.000227345
3.00029e-06
0.000243477
4.5376e-06
0.000254825
6.86614e-06
0.000261601
1.02702e-05
0.000264009
1.5089e-05
0.000262227
2.1725e-05
0.00025639
3.06525e-05
0.000246609
4.24261e-05
0.00023302
5.76786e-05
0.000215895
7.70913e-05
0.000195854
0.000101286
0.00017426
0.000130541
0.000153743
0.00013867
0.00016437
1.3458e-07
2.57093e-05
4.31322e-07
7.10918e-05
8.46566e-07
0.000112071
1.37724e-06
0.000148257
2.05929e-06
0.00017939
2.96782e-06
0.000205341
4.21791e-06
0.000226095
5.9662e-06
0.000241728
8.41341e-06
0.000252378
1.18077e-05
0.000258207
1.64499e-05
0.000259367
2.26998e-05
0.000255977
3.09867e-05
0.000248103
4.18206e-05
0.000235775
5.58056e-05
0.000219035
7.36452e-05
0.000198055
9.61225e-05
0.000173376
0.000123997
0.000146386
0.00015768
0.00012006
9.96223e-05
0.000196728
1.66499e-07
2.55428e-05
5.67906e-07
7.06904e-05
1.17261e-06
0.000111466
1.98917e-06
0.00014744
3.06461e-06
0.000178314
4.48481e-06
0.000203921
6.37567e-06
0.000224204
8.90536e-06
0.000239199
1.22875e-05
0.000248996
1.67851e-05
0.000253709
2.27167e-05
0.000253436
3.04642e-05
0.00024823
4.04837e-05
0.000238084
5.3321e-05
0.000222938
6.96283e-05
0.000202727
9.01787e-05
0.000177504
0.000115859
0.000147696
0.000147577
0.000114668
0.00018591
8.17263e-05
5.50287e-05
0.000230504
1.93818e-07
2.5349e-05
6.90023e-07
7.01942e-05
1.47214e-06
0.000110684
2.56315e-06
0.000146349
4.02372e-06
0.000176854
5.95287e-06
0.000201992
8.48962e-06
0.000221667
1.18158e-05
0.000235872
1.61601e-05
0.000244652
2.18027e-05
0.000248067
2.90817e-05
0.000246157
3.84026e-05
0.000238909
5.02499e-05
0.000226236
6.52048e-05
0.000207983
8.39666e-05
0.000183966
0.000107375
0.000154096
0.000136419
0.000118653
0.000172166
7.89211e-05
0.000215384
3.85077e-05
4.53837e-06
0.000265875
2.16368e-07
2.51326e-05
7.97165e-07
6.96134e-05
1.74423e-06
0.000109737
3.09788e-06
0.000144996
4.93513e-06
0.000175017
7.37071e-06
0.000199556
1.05593e-05
0.000218479
1.46989e-05
0.000231733
2.00359e-05
0.000239315
2.687e-05
0.000241232
3.55622e-05
0.000237464
4.65438e-05
0.000227927
6.03297e-05
0.000212451
7.75373e-05
0.000190776
9.89118e-05
0.000162591
0.000125356
0.000127651
0.000157957
8.60523e-05
0.000197942
3.89361e-05
0.000246299
-9.84945e-06
-5.22202e-05
0.000303057
2.34064e-07
2.48985e-05
8.89128e-07
6.89583e-05
1.98862e-06
0.000108637
3.59317e-06
0.000143391
5.79897e-06
0.000172811
8.73921e-06
0.000196616
1.25869e-05
0.000214631
1.75595e-05
0.00022676
2.39237e-05
0.000232951
3.20025e-05
0.000233154
4.21828e-05
0.000227284
5.49252e-05
0.000215185
7.07784e-05
0.000196597
9.03978e-05
0.000171156
0.000114574
0.000138415
0.000144268
9.79568e-05
0.000180655
4.9665e-05
0.000225122
-5.53003e-06
0.00027889
-6.36182e-05
-0.000115632
0.000342302
2.46913e-07
2.46516e-05
9.66051e-07
6.82392e-05
2.20575e-06
0.000107398
4.05002e-06
0.000141547
6.61717e-06
0.000170244
1.00618e-05
0.000193171
1.45783e-05
0.000210114
2.04066e-05
0.000220932
2.78377e-05
0.00022552
3.72215e-05
0.00022377
4.89751e-05
0.000215531
6.35934e-05
0.000200566
8.16624e-05
0.000178528
0.000103879
0.00014894
0.000131079
0.000111215
0.000164278
6.47579e-05
0.000204727
9.21599e-06
0.000253955
-5.47586e-05
0.00031343
-0.000123093
-0.000186081
0.00038388
2.55032e-07
2.43966e-05
1.02846e-06
6.74658e-05
2.3969e-06
0.000106029
4.47084e-06
0.000139473
7.39372e-06
0.000167321
1.13446e-05
0.00018922
1.65428e-05
0.000204916
2.32539e-05
0.000214221
3.17976e-05
0.000216976
4.25553e-05
0.000213012
5.59794e-05
0.000202106
7.26042e-05
0.000183942
9.30588e-05
0.000158074
0.000118086
0.000123913
0.000148567
8.07336e-05
0.000185569
2.77564e-05
0.000230403
-3.56179e-05
0.000284717
-0.000109073
0.000350215
-0.000188591
-0.000263937
0.000428071
2.58654e-07
2.41379e-05
1.07733e-06
6.66471e-05
2.56424e-06
0.000104542
4.85953e-06
0.000137177
8.13487e-06
0.000164045
1.25971e-05
0.000184758
1.84937e-05
0.00019902
2.61205e-05
0.000206594
3.58298e-05
0.000207266
4.80399e-05
0.000200802
6.32443e-05
0.000186902
8.20232e-05
0.000165163
0.000105055
0.000135042
0.000133134
9.58343e-05
0.000167191
4.66763e-05
0.000208337
-1.33892e-05
0.000257927
-8.52084e-05
0.000317693
-0.000168838
0.00038955
-0.000260448
-0.000349525
0.000475138
2.5815e-07
2.38798e-05
1.11408e-06
6.57912e-05
2.71096e-06
0.000102946
5.22169e-06
0.000134667
8.84936e-06
0.000160418
1.38319e-05
0.000179776
2.0449e-05
0.000192403
2.90307e-05
0.000198012
3.99672e-05
0.00019633
5.37192e-05
0.00018705
7.08278e-05
0.000169793
9.1926e-05
0.000144065
0.000117749
0.000109218
0.000149149
6.4435e-05
0.000187109
8.71614e-06
0.00023278
-5.90606e-05
0.000287544
-0.000139972
0.000353165
-0.000234459
0.000431732
-0.000339016
-0.000443096
0.000525303
2.54031e-07
2.36257e-05
1.14066e-06
6.49045e-05
2.84128e-06
0.000101245
5.56468e-06
0.000131943
9.5486e-06
0.000156434
1.50657e-05
0.000174258
2.24316e-05
0.000185037
3.20154e-05
0.000188428
4.42504e-05
0.000184095
5.96458e-05
0.000171655
7.87974e-05
0.000150642
0.000102398
0.000120464
0.000131249
8.03684e-05
0.000166263
2.94205e-05
0.000208483
-3.35037e-05
0.000259095
-0.000109673
0.000319485
-0.000200362
0.000391391
-0.000306365
0.000477025
-0.00042465
-0.000544785
0.000578714
2.46959e-07
2.33788e-05
1.15955e-06
6.39919e-05
2.96055e-06
9.94439e-05
5.89772e-06
0.000129006
1.02468e-05
0.000152085
1.63186e-05
0.000168187
2.44692e-05
0.000176886
3.51115e-05
0.000177786
4.87275e-05
0.000170479
6.58814e-05
0.000154501
8.72306e-05
0.000129292
0.000113536
9.41581e-05
0.000145669
4.82353e-05
0.000184615
-9.52558e-06
0.000231474
-8.03627e-05
0.000287464
-0.000165663
0.000353954
-0.000266852
0.000432585
-0.000384996
0.000525634
-0.000517699
-0.00065456
0.000635409
2.37755e-07
2.3141e-05
1.17375e-06
6.30559e-05
3.07521e-06
9.75425e-05
6.23193e-06
0.000125849
1.09608e-05
0.000147356
1.7615e-05
0.000161533
2.6595e-05
0.000167906
3.83625e-05
0.000166019
5.34545e-05
0.000155387
7.24963e-05
0.000135459
9.6214e-05
0.000105575
0.000125443
6.49287e-05
0.000161134
1.25447e-05
0.000204346
-5.27375e-05
0.000256239
-0.000132255
0.000318053
-0.000227478
0.000391119
-0.000339917
0.0004769
-0.000470777
0.000577679
-0.000618478
-0.000772167
0.000695286
2.27388e-07
2.29136e-05
1.18683e-06
6.20965e-05
3.19285e-06
9.55365e-05
6.58027e-06
0.000122462
1.17106e-05
0.000142225
1.89828e-05
0.00015426
2.88468e-05
0.000158042
4.18183e-05
0.000153047
5.84947e-05
0.00013871
7.95692e-05
0.000114385
0.000105843
7.93009e-05
0.000138233
3.25387e-05
0.000177771
-2.69935e-05
0.000225594
-0.000100561
0.000282918
-0.000189579
0.000350997
-0.000295556
0.000431092
-0.000420013
0.00052441
-0.000564094
0.000633177
-0.000727246
-0.000897066
0.000758076
2.16981e-07
2.26967e-05
1.20281e-06
6.11107e-05
3.32206e-06
9.34172e-05
6.95745e-06
0.000118827
1.25184e-05
0.000136664
2.04538e-05
0.000146325
3.12673e-05
0.000147229
4.55342e-05
0.00013878
6.39179e-05
0.000120327
8.71857e-05
9.11169e-05
0.000116219
5.02672e-05
0.000152021
-3.26296e-06
0.000195708
-7.06802e-05
0.000248491
-0.000153344
0.000311635
-0.000252723
0.00038639
-0.000370311
0.000473923
-0.000507546
0.000575099
-0.000665271
0.000692024
-0.00084417
-0.00102837
0.000823324
2.07784e-07
2.24889e-05
1.22622e-06
6.00922e-05
3.47239e-06
9.1171e-05
7.37973e-06
0.000114919
1.3409e-05
0.000130635
2.20628e-05
0.000137671
3.39034e-05
0.000135388
4.95705e-05
0.000123113
6.97995e-05
0.000100098
9.54365e-05
6.54798e-05
0.000127449
1.82552e-05
0.000166925
-4.27393e-05
0.000215066
-0.000118821
0.000273151
-0.000211429
0.00034248
-0.000322052
0.000424275
-0.000452107
0.000519574
-0.000602845
0.00062885
-0.000774546
0.000753978
-0.000969299
-0.0011648
0.000890409
2.01165e-07
2.22877e-05
1.26193e-06
5.90315e-05
3.65413e-06
8.87788e-05
7.86464e-06
0.000110709
1.44088e-05
0.000124091
2.38471e-05
0.000128233
3.68046e-05
0.00012243
5.39909e-05
0.000105927
7.62179e-05
7.78707e-05
0.000104415
3.72829e-05
0.000139636
-1.69657e-05
0.000183056
-8.61596e-05
0.000235953
-0.000171718
0.000299662
-0.000275138
0.000375497
-0.000397888
0.000464628
-0.000541238
0.000567916
-0.000706133
0.000685427
-0.000892057
0.000818614
-0.00110249
-0.00130485
0.000958667
1.98572e-07
2.20891e-05
1.3151e-06
5.7915e-05
3.87818e-06
8.62157e-05
8.43066e-06
0.000106156
1.55457e-05
0.000116976
2.58456e-05
0.000117933
4.00228e-05
0.000108253
5.88609e-05
8.70888e-05
8.32525e-05
5.34791e-05
0.000114212
6.32308e-06
0.000152881
-5.56343e-05
0.000200515
-0.000133793
0.000258456
-0.000229659
0.000328074
-0.000344756
0.000410674
-0.000480487
0.000507342
-0.000637905
0.000618732
-0.000817523
0.000744536
-0.00101786
0.000885252
-0.0012432
-0.00144727
0.00102768
2.01503e-07
2.18876e-05
1.39105e-06
5.67254e-05
4.15571e-06
8.34511e-05
9.09674e-06
0.000101215
1.68482e-05
0.000109225
2.8098e-05
0.000106683
4.361e-05
9.27412e-05
6.42456e-05
6.64531e-05
9.09809e-05
2.67438e-05
0.000124916
-2.76121e-05
0.000167274
-9.79924e-05
0.000219382
-0.000185901
0.000282627
-0.000292904
0.000358386
-0.000420515
0.000447914
-0.000570016
0.000552192
-0.000742183
0.000671694
-0.000937026
0.000805971
-0.00115214
0.000953399
-0.00139063
-0.00159135
0.00109747
2.1147e-07
2.16762e-05
1.49514e-06
5.54417e-05
4.49796e-06
8.04483e-05
9.88183e-06
9.58314e-05
1.83448e-05
0.000100762
3.06435e-05
9.43844e-05
4.76171e-05
7.57676e-05
7.02076e-05
4.38626e-05
9.94752e-05
-2.52374e-06
0.000136603
-6.47403e-05
0.000182889
-0.000144278
0.000239712
-0.000242724
0.000308478
-0.00036167
0.000390529
-0.000502566
0.000487022
-0.00066651
0.000598784
-0.000853945
0.00072616
-0.0010644
0.000869132
-0.00129511
0.0010245
-0.001546
-0.00173459
0.00116775
2.29818e-07
2.14464e-05
1.63235e-06
5.40392e-05
4.9156e-06
7.7165e-05
1.08041e-05
8.99429e-05
2.00624e-05
9.15033e-05
3.35195e-05
8.09274e-05
5.20919e-05
5.71952e-05
7.68041e-05
1.91505e-05
0.000108799
-3.45188e-05
0.000149338
-0.000105279
0.000199777
-0.000194718
0.000261528
-0.000304475
0.000335975
-0.000436117
0.000424371
-0.000590962
0.000527706
-0.000769844
0.000646565
-0.000972804
0.000781023
-0.00119886
0.000931156
-0.00144524
0.00109633
-0.00171117
-0.00195228
0.00131401
2.582e-07
2.11882e-05
1.80811e-06
5.24893e-05
5.41956e-06
7.35536e-05
1.18815e-05
8.3481e-05
2.20274e-05
8.13573e-05
3.67608e-05
6.6194e-05
5.70778e-05
3.68781e-05
8.40849e-05
-7.85661e-06
0.000119004
-6.94383e-05
0.000163164
-0.000149439
0.000217964
-0.000249517
0.000284811
-0.000371322
0.000365027
-0.000516332
0.000459711
-0.000685647
0.000569597
-0.00087973
0.000694913
-0.00109812
0.000835274
-0.00133922
0.000990358
-0.00160033
0.00115819
-0.001879
-0.00214746
0.00135336
2.97772e-07
2.08904e-05
2.02674e-06
5.07603e-05
6.01907e-06
6.95612e-05
1.31295e-05
7.63707e-05
2.42625e-05
7.02243e-05
4.03977e-05
5.00589e-05
6.26114e-05
1.46644e-05
9.20899e-05
-3.73351e-05
0.000130128
-0.000107476
0.000178106
-0.000197417
0.000237442
-0.000308853
0.000309504
-0.000443384
0.000395493
-0.000602322
0.000496289
-0.000786443
0.00061228
-0.000995721
0.000743225
-0.00122906
0.000888126
-0.00148412
0.00104571
-0.00175791
0.00121268
-0.00204597
-0.00232934
0.00139457
3.49681e-07
2.05407e-05
2.2923e-06
4.88177e-05
6.72251e-06
6.5131e-05
1.45619e-05
6.85313e-05
2.67873e-05
5.79989e-05
4.44553e-05
3.23909e-05
6.87212e-05
-9.60159e-06
0.000100847
-6.94607e-05
0.000142189
-0.000148818
0.000194162
-0.00024939
0.000258171
-0.000372862
0.000335503
-0.000520716
0.000427179
-0.000693999
0.000533787
-0.00089305
0.000655293
-0.00111723
0.000790905
-0.00136468
0.000938954
-0.00163217
0.00109721
-0.00191617
0.00126174
-0.0022105
-0.00250091
0.0014333
4.1491e-07
2.01258e-05
2.6082e-06
4.66244e-05
7.53692e-06
6.02023e-05
1.61902e-05
5.9878e-05
2.96176e-05
4.45714e-05
4.89526e-05
1.30559e-05
7.54268e-05
-3.60758e-05
0.00011037
-0.000104404
0.000155187
-0.000193635
0.000211303
-0.000305506
0.000280075
-0.000441634
0.000362658
-0.000603298
0.000459836
-0.000791177
0.000571834
-0.00100505
0.000698132
-0.00124352
0.000837346
-0.00150389
0.00098715
-0.00178197
0.0011445
-0.00207352
0.0013051
-0.0023711
-0.00266325
0.00146744
4.94219e-07
1.96316e-05
2.97719e-06
4.41414e-05
8.46785e-06
5.47117e-05
1.80229e-05
5.0323e-05
3.27649e-05
2.98294e-05
5.3902e-05
-8.08115e-06
8.27374e-05
-6.49113e-05
0.000120659
-0.000142326
0.000169101
-0.000242077
0.000229473
-0.000365878
0.000303041
-0.000515202
0.000390777
-0.000691034
0.000493165
-0.000893565
0.00061001
-0.00112189
0.00074026
-0.00137377
0.000881932
-0.00164556
0.0010321
-0.00193214
0.00118711
-0.00222852
0.0013425
-0.0025265
-0.00281662
0.00149587
5.88183e-07
1.90434e-05
3.40124e-06
4.13284e-05
9.5192e-06
4.85937e-05
2.0066e-05
3.97761e-05
3.62357e-05
1.36597e-05
5.93084e-05
-3.11538e-05
9.06515e-05
-9.62544e-05
0.000131698
-0.000183372
0.000183889
-0.000294269
0.000248585
-0.000430573
0.000326918
-0.000593536
0.000419622
-0.000783738
0.000526825
-0.00100077
0.00064786
-0.00124293
0.000781124
-0.00150704
0.000924055
-0.0017885
0.00107323
-0.00208132
0.00122458
-0.00237987
0.00137372
-0.00267563
-0.0029609
0.001518
6.9714e-07
1.83462e-05
3.88161e-06
3.81439e-05
1.06933e-05
4.1782e-05
2.23223e-05
2.81472e-05
4.0032e-05
-4.05001e-06
6.51694e-05
-5.62911e-05
9.91566e-05
-0.000130242
0.000143454
-0.00022767
0.000199487
-0.000350302
0.000268526
-0.000499612
0.000351525
-0.000676534
0.000448923
-0.000881136
0.000560441
-0.00111229
0.000684907
-0.00136739
0.000820168
-0.0016423
0.000963143
-0.00193147
0.00111003
-0.00222821
0.00125656
-0.00252641
0.00139858
-0.00281764
-0.00309593
0.00153361
8.21246e-07
1.7525e-05
4.41883e-06
3.45463e-05
1.19909e-05
3.42099e-05
2.47919e-05
1.53462e-05
4.41509e-05
-2.3409e-05
7.14751e-05
-8.36153e-05
0.000108229
-0.000166996
0.000155882
-0.000275322
0.000215811
-0.000410231
0.000289158
-0.000572959
0.000376648
-0.000764024
0.000478376
-0.000982865
0.000593614
-0.00122752
0.000720667
-0.00149445
0.000856861
-0.00177849
0.00099868
-0.00207329
0.00114208
-0.00237161
0.0012828
-0.00266713
0.00141705
-0.00295189
-0.00322161
0.00154272
9.605e-07
1.65645e-05
5.01279e-06
3.0494e-05
1.34113e-05
2.58113e-05
2.74718e-05
1.28571e-06
4.85848e-05
-4.4522e-05
7.82087e-05
-0.000113239
0.000117836
-0.000206623
0.00016892
-0.000326406
0.000232756
-0.000474067
0.000310317
-0.00065052
0.000402049
-0.000855756
0.000507658
-0.00108847
0.000625934
-0.0013458
0.000754667
-0.00162318
0.000890713
-0.00191454
0.00103023
-0.0022128
0.00116907
-0.00251045
0.00130317
-0.00280123
0.00142921
-0.00307793
-0.00333797
0.00154557
1.11473e-06
1.54498e-05
5.66272e-06
2.59461e-05
1.49522e-05
1.65218e-05
3.03568e-05
-1.41189e-05
5.33218e-05
-6.7487e-05
8.53462e-05
-0.000145264
0.000127932
-0.000249209
0.000182491
-0.000380966
0.000250202
-0.000541778
0.000331822
-0.00073214
0.000427472
-0.000951405
0.00053643
-0.00119743
0.000656992
-0.00146636
0.000786459
-0.00175265
0.000921292
-0.00204937
0.00105744
-0.00234895
0.00119082
-0.00264384
0.00131768
-0.00292808
0.00143529
-0.00319554
-0.00344519
0.00154251
1.28364e-06
1.41661e-05
6.36739e-06
2.08623e-05
1.66102e-05
6.27897e-06
3.34389e-05
-3.09476e-05
5.83459e-05
-9.2394e-05
9.28575e-05
-0.000179775
0.000138465
-0.000294817
0.00019651
-0.00043901
0.000268013
-0.000613281
0.000353473
-0.0008176
0.000452644
-0.00105058
0.000564349
-0.00130914
0.000686395
-0.00158841
0.000815638
-0.00188189
0.000948241
-0.00218197
0.00108008
-0.00248079
0.00120726
-0.00277101
0.00132646
-0.00304729
0.00143558
-0.00330466
-0.0035436
0.001534
1.46687e-06
1.26993e-05
7.12505e-06
1.52041e-05
1.83807e-05
-4.97668e-06
3.67081e-05
-4.9275e-05
6.36373e-05
-0.000119323
0.000100707
-0.000216844
0.000149374
-0.000343484
0.000210875
-0.000500511
0.000286038
-0.000688444
0.000375059
-0.000906621
0.000477288
-0.00115281
0.000591081
-0.00142293
0.000713775
-0.0017111
0.000841851
-0.00200997
0.000971282
-0.0023114
0.001098
-0.00260751
0.00121841
-0.00289143
0.00132974
-0.00315862
0.0014305
-0.00340542
-0.00363364
0.00152053
1.66397e-06
1.10353e-05
7.93369e-06
8.9344e-06
2.02582e-05
-1.73011e-05
4.01525e-05
-6.91693e-05
6.91729e-05
-0.000148344
0.000108852
-0.000256524
0.000160588
-0.00039522
0.00022548
-0.000565403
0.000304119
-0.000767083
0.000396361
-0.000998862
0.000501126
-0.00125757
0.000616302
-0.00153811
0.000738799
-0.0018336
0.00086481
-0.00213598
0.000990228
-0.00243682
0.00111116
-0.00272844
0.00122443
-0.0030047
0.00132783
-0.00326201
0.00142047
-0.00349806
-0.00371582
0.00150266
1.87447e-06
9.16083e-06
8.79099e-06
2.01788e-06
2.22363e-05
-3.07464e-05
4.37582e-05
-9.06912e-05
7.49263e-05
-0.000179512
0.000117248
-0.000298845
0.000172033
-0.000450005
0.000240208
-0.000633578
0.000322088
-0.000848964
0.000417155
-0.00109393
0.000523885
-0.0013643
0.000639714
-0.00165393
0.000761184
-0.00195507
0.000884292
-0.00225908
0.00100497
-0.00255751
0.00111963
-0.0028431
0.00122554
-0.00311061
0.0013211
-0.00335757
0.001406
-0.00358295
-0.00379072
0.0014809
2.09786e-06
7.06296e-06
9.69436e-06
-5.57861e-06
2.43079e-05
-4.536e-05
4.75098e-05
-0.000113893
8.08681e-05
-0.00021287
0.000125842
-0.00034382
0.000183626
-0.000507788
0.000254934
-0.000704887
0.000339773
-0.000933802
0.00043722
-0.00119138
0.000545307
-0.00147239
0.000661049
-0.00176968
0.000780696
-0.00207472
0.000900151
-0.00237854
0.0010155
-0.00267286
0.00112352
-0.00295111
0.00122202
-0.00320911
0.00130997
-0.00344552
0.00138755
-0.00366054
-0.00385893
0.00145577
2.3336e-06
4.72936e-06
1.0641e-05
-1.3886e-05
2.64653e-05
-6.11843e-05
5.13904e-05
-0.000138818
8.69663e-05
-0.000248446
0.000134581
-0.000391435
0.000195279
-0.000568486
0.000269531
-0.000779139
0.000356998
-0.00102127
0.000456341
-0.00129072
0.000565151
-0.0015812
0.000680078
-0.0018846
0.000797157
-0.0021918
0.000912309
-0.00249369
0.00102187
-0.00278242
0.00112305
-0.0030523
0.00121422
-0.00330028
0.00129486
-0.00352616
0.00136563
-0.00373131
-0.00392105
0.00142775
2.58108e-06
2.14828e-06
1.16277e-05
-2.29326e-05
2.86997e-05
-7.82564e-05
5.53813e-05
-0.0001655
9.31861e-05
-0.000286251
0.000143405
-0.000441654
0.000206901
-0.000631982
0.000283868
-0.000856105
0.000373593
-0.001111
0.000474312
-0.00139144
0.000583204
-0.00169009
0.000696611
-0.00199801
0.00081045
-0.00230564
0.000920755
-0.002604
0.0010242
-0.00288586
0.00111848
-0.00314658
0.00120248
-0.00338428
0.00127622
-0.0035999
0.00134068
-0.00379577
-0.00397765
0.00139728
2.83968e-06
-6.91392e-07
1.26511e-05
-3.2744e-05
3.10019e-05
-9.66071e-05
5.94625e-05
-0.00019396
9.94903e-05
-0.000326278
0.000152252
-0.000494416
0.000218398
-0.000698128
0.000297811
-0.000935518
0.000389389
-0.00120257
0.000490944
-0.00149299
0.00059928
-0.00179843
0.000710504
-0.00210923
0.000820512
-0.00241564
0.000925541
-0.00270903
0.00102266
-0.00298299
0.00111008
-0.00323399
0.0011872
-0.0034614
0.00125446
-0.00366716
0.00131314
-0.00385445
-0.00402927
0.00136476
3.10869e-06
-3.80008e-06
1.37076e-05
-4.33429e-05
3.33615e-05
-0.000116261
6.36124e-05
-0.000224211
0.00010584
-0.000368506
0.000161058
-0.000549634
0.000229673
-0.000766744
0.000311231
-0.00101708
0.000404227
-0.00129557
0.000506064
-0.00159483
0.000613225
-0.00190559
0.000721661
-0.00221767
0.000827335
-0.00252132
0.000926771
-0.00280846
0.00101749
-0.0030737
0.00109819
-0.0033147
0.00116875
-0.00353197
0.00122999
-0.0037284
0.00128339
-0.00390784
-0.00407641
0.00133053