/*--------------------------------*- C++ -*----------------------------------*\
  =========                 |
  \\      /  F ield         | OpenFOAM: The Open Source CFD Toolbox
   \\    /   O peration     | Website:  https://openfoam.org
    \\  /    A nd           | Version:  7
     \\/     M anipulation  |
\*---------------------------------------------------------------------------*/
FoamFile
{
    version     2.0;
    format      ascii;
    class       volScalarField;
    location    "5";
    object      p;
}
// * * * * * * * * * * * * * * * * * * * * * * * * * * * * * * * * * * * * * //

dimensions      [0 2 -2 0 0 0 0];

internalField   nonuniform List<scalar> 
34000
(
-0.338827
-0.342899
-0.345204
-0.347205
-0.349139
-0.351129
-0.353327
-0.355843
-0.358755
-0.36212
-0.365978
-0.370358
-0.375281
-0.380762
-0.386813
-0.393441
-0.400655
-0.408449
-0.416761
-0.425695
-0.339114
-0.343144
-0.34543
-0.347417
-0.349341
-0.351324
-0.353517
-0.356029
-0.358939
-0.362303
-0.36616
-0.370541
-0.375465
-0.380949
-0.387003
-0.393636
-0.400857
-0.408662
-0.416981
-0.42592
-0.339683
-0.34363
-0.345877
-0.347837
-0.349742
-0.35171
-0.353893
-0.356398
-0.359302
-0.362663
-0.36652
-0.370901
-0.375827
-0.381316
-0.387377
-0.394019
-0.401252
-0.409078
-0.417408
-0.426359
-0.340524
-0.344348
-0.346538
-0.348458
-0.350332
-0.352279
-0.354446
-0.35694
-0.359836
-0.363192
-0.367046
-0.371427
-0.376356
-0.38185
-0.38792
-0.394574
-0.401825
-0.409678
-0.418024
-0.426987
-0.341624
-0.345287
-0.347401
-0.349267
-0.351102
-0.35302
-0.355166
-0.357643
-0.360528
-0.363876
-0.367725
-0.372104
-0.377035
-0.382534
-0.388612
-0.395279
-0.40255
-0.410435
-0.418799
-0.42777
-0.342961
-0.346429
-0.34845
-0.350251
-0.352036
-0.353917
-0.356036
-0.358492
-0.361361
-0.364697
-0.368538
-0.372913
-0.377843
-0.383344
-0.389429
-0.396107
-0.403395
-0.411314
-0.419694
-0.428664
-0.344515
-0.347756
-0.349669
-0.351391
-0.353117
-0.354954
-0.357039
-0.359468
-0.362316
-0.365635
-0.369463
-0.373829
-0.378753
-0.384252
-0.390339
-0.397024
-0.404326
-0.412274
-0.420667
-0.42962
-0.34626
-0.349246
-0.351035
-0.352668
-0.354325
-0.356111
-0.358154
-0.36055
-0.36337
-0.366666
-0.370475
-0.374826
-0.379738
-0.385228
-0.39131
-0.397994
-0.4053
-0.41327
-0.42167
-0.430582
-0.348167
-0.350875
-0.352528
-0.354061
-0.35564
-0.357365
-0.35936
-0.361715
-0.3645
-0.367765
-0.371548
-0.375874
-0.380766
-0.386238
-0.392306
-0.398977
-0.406277
-0.414256
-0.422652
-0.431494
-0.350207
-0.352618
-0.354124
-0.355547
-0.357039
-0.358696
-0.360633
-0.362939
-0.36568
-0.368906
-0.372652
-0.376945
-0.381805
-0.387248
-0.393288
-0.399934
-0.40721
-0.415182
-0.423562
-0.432299
-0.352349
-0.354449
-0.355798
-0.357103
-0.358499
-0.360079
-0.36195
-0.364198
-0.366886
-0.370062
-0.373761
-0.378008
-0.382824
-0.388223
-0.394221
-0.400825
-0.408059
-0.416003
-0.424351
-0.432944
-0.354563
-0.356342
-0.357527
-0.358706
-0.359999
-0.361492
-0.363289
-0.365468
-0.368091
-0.371205
-0.374844
-0.379033
-0.383789
-0.38913
-0.395067
-0.40161
-0.408781
-0.416674
-0.424975
-0.433377
-0.356817
-0.358273
-0.359288
-0.360334
-0.361516
-0.362915
-0.364627
-0.366726
-0.369273
-0.372313
-0.375877
-0.379991
-0.384672
-0.389936
-0.395794
-0.402256
-0.40934
-0.417153
-0.425391
-0.433555
-0.359082
-0.360215
-0.361059
-0.361967
-0.363031
-0.364327
-0.365943
-0.367952
-0.370409
-0.373359
-0.376834
-0.380857
-0.385445
-0.390612
-0.396371
-0.402729
-0.409702
-0.417407
-0.425568
-0.433434
-0.361332
-0.362148
-0.362819
-0.363586
-0.364525
-0.36571
-0.36722
-0.369125
-0.37148
-0.374326
-0.377694
-0.381607
-0.386083
-0.391133
-0.396771
-0.403003
-0.40984
-0.417409
-0.425485
-0.432955
-0.36354
-0.364051
-0.36455
-0.365173
-0.365983
-0.367048
-0.368442
-0.370232
-0.372468
-0.375193
-0.378437
-0.382223
-0.386566
-0.391479
-0.396973
-0.403056
-0.409734
-0.41714
-0.425136
-0.432098
-0.365684
-0.365904
-0.366236
-0.366715
-0.36739
-0.368328
-0.369596
-0.371257
-0.373361
-0.375948
-0.37905
-0.382689
-0.386879
-0.391633
-0.396962
-0.402874
-0.40937
-0.416579
-0.424385
-0.431214
-0.367746
-0.367693
-0.367863
-0.368199
-0.368737
-0.369541
-0.370672
-0.372191
-0.374147
-0.376581
-0.379522
-0.382994
-0.387011
-0.391586
-0.396728
-0.402446
-0.40874
-0.415733
-0.423343
-0.429929
-0.369707
-0.369406
-0.369422
-0.369615
-0.370014
-0.370678
-0.371664
-0.373028
-0.374822
-0.377084
-0.379847
-0.383132
-0.386956
-0.391331
-0.396267
-0.401771
-0.407843
-0.414601
-0.422012
-0.428284
-0.371557
-0.371032
-0.370903
-0.370958
-0.371217
-0.371735
-0.372566
-0.373765
-0.375382
-0.377457
-0.380023
-0.383103
-0.386716
-0.390872
-0.395581
-0.400854
-0.406687
-0.413191
-0.420392
-0.426335
-0.373286
-0.372564
-0.372302
-0.372224
-0.372343
-0.372711
-0.373379
-0.374402
-0.375828
-0.377701
-0.380053
-0.382912
-0.386294
-0.390214
-0.394681
-0.399705
-0.405284
-0.411518
-0.418501
-0.424112
-0.374889
-0.374
-0.373616
-0.373411
-0.373391
-0.373606
-0.374105
-0.374941
-0.376165
-0.377821
-0.379945
-0.382565
-0.385702
-0.38937
-0.39358
-0.398342
-0.403655
-0.409608
-0.416364
-0.421644
-0.376364
-0.375338
-0.374845
-0.374521
-0.374364
-0.374425
-0.374749
-0.37539
-0.3764
-0.377827
-0.379709
-0.382078
-0.384956
-0.388358
-0.392299
-0.396789
-0.401828
-0.40749
-0.414013
-0.41896
-0.377712
-0.37658
-0.375992
-0.375556
-0.375266
-0.375171
-0.375316
-0.375755
-0.376544
-0.377731
-0.379361
-0.381466
-0.384074
-0.387202
-0.390864
-0.395074
-0.399832
-0.405198
-0.411485
-0.416089
-0.378938
-0.37773
-0.377062
-0.376522
-0.376103
-0.375853
-0.375816
-0.376048
-0.376608
-0.377549
-0.378917
-0.380751
-0.38308
-0.385927
-0.389305
-0.393231
-0.397705
-0.402769
-0.408819
-0.413056
-0.380051
-0.378797
-0.378061
-0.377426
-0.376882
-0.376478
-0.376259
-0.376281
-0.376608
-0.377296
-0.378397
-0.379954
-0.382001
-0.384562
-0.387655
-0.391295
-0.395485
-0.400245
-0.406059
-0.409883
-0.38106
-0.379788
-0.378998
-0.378276
-0.377614
-0.377058
-0.376656
-0.376468
-0.376559
-0.376992
-0.377823
-0.379102
-0.380865
-0.383141
-0.38595
-0.389306
-0.393213
-0.397666
-0.403248
-0.406589
-0.38198
-0.380715
-0.379883
-0.379083
-0.378307
-0.377604
-0.377021
-0.376622
-0.376478
-0.376656
-0.377219
-0.378219
-0.379701
-0.381696
-0.384224
-0.387302
-0.390932
-0.395074
-0.400431
-0.403189
-0.382827
-0.381592
-0.380729
-0.379858
-0.378974
-0.378127
-0.377366
-0.37676
-0.376383
-0.376309
-0.376606
-0.377334
-0.378539
-0.380259
-0.382516
-0.385323
-0.388682
-0.392509
-0.397649
-0.399699
-0.383619
-0.382433
-0.381548
-0.380613
-0.379627
-0.37864
-0.377705
-0.376896
-0.376292
-0.375971
-0.376009
-0.376471
-0.377409
-0.378863
-0.380858
-0.383404
-0.3865
-0.390009
-0.394942
-0.396141
-0.384375
-0.383254
-0.382354
-0.381362
-0.380278
-0.379156
-0.378053
-0.377047
-0.376222
-0.375663
-0.37545
-0.375656
-0.376338
-0.377539
-0.379283
-0.38158
-0.384422
-0.387608
-0.392341
-0.392539
-0.385117
-0.384072
-0.383164
-0.382118
-0.380942
-0.37969
-0.378425
-0.377229
-0.376191
-0.375403
-0.374952
-0.374914
-0.375352
-0.376312
-0.37782
-0.379879
-0.382475
-0.385335
-0.38987
-0.38893
-0.385868
-0.384905
-0.383992
-0.382896
-0.381631
-0.380255
-0.378835
-0.377457
-0.376217
-0.375212
-0.374535
-0.374266
-0.374475
-0.37521
-0.376494
-0.378326
-0.380683
-0.383215
-0.38754
-0.385358
-0.38665
-0.385772
-0.384856
-0.383712
-0.382362
-0.380866
-0.379298
-0.377748
-0.376317
-0.375107
-0.374217
-0.373733
-0.373728
-0.374251
-0.375324
-0.376941
-0.379062
-0.381269
-0.385351
-0.38188
-0.387487
-0.386691
-0.385771
-0.384579
-0.383147
-0.381537
-0.379827
-0.378115
-0.376505
-0.375105
-0.374017
-0.373333
-0.373127
-0.373453
-0.374327
-0.375738
-0.377623
-0.379516
-0.383292
-0.378575
-0.388402
-0.387681
-0.386754
-0.385514
-0.384001
-0.382281
-0.380438
-0.378574
-0.376797
-0.37522
-0.373949
-0.373079
-0.372689
-0.372829
-0.373515
-0.374727
-0.376371
-0.377974
-0.381345
-0.375544
-0.389417
-0.38876
-0.387821
-0.386531
-0.384937
-0.383112
-0.381143
-0.379136
-0.377205
-0.375464
-0.374025
-0.372984
-0.372421
-0.372387
-0.372893
-0.373914
-0.37531
-0.376661
-0.379452
-0.372807
-0.390553
-0.389945
-0.388987
-0.387644
-0.38597
-0.384042
-0.381954
-0.379814
-0.37774
-0.375849
-0.374255
-0.373056
-0.372331
-0.372132
-0.372465
-0.373304
-0.374454
-0.375624
-0.377528
-0.370166
-0.39183
-0.391252
-0.390267
-0.388865
-0.38711
-0.385083
-0.382881
-0.380617
-0.378411
-0.376382
-0.374644
-0.373298
-0.372421
-0.372064
-0.372229
-0.372896
-0.373828
-0.374974
-0.375734
-0.368019
-0.393265
-0.392696
-0.391673
-0.390207
-0.388369
-0.386244
-0.383934
-0.381554
-0.379225
-0.377068
-0.375198
-0.373713
-0.37269
-0.372177
-0.372176
-0.372677
-0.373432
-0.374751
-0.374797
-0.370352
-0.394873
-0.39429
-0.393217
-0.39168
-0.389756
-0.387534
-0.38512
-0.38263
-0.380187
-0.377911
-0.375915
-0.374298
-0.373132
-0.372463
-0.372289
-0.372616
-0.373197
-0.374674
-0.374852
-0.383097
-0.396668
-0.396044
-0.39491
-0.393295
-0.39128
-0.388961
-0.386445
-0.38385
-0.381298
-0.378909
-0.376795
-0.375048
-0.373739
-0.372907
-0.372549
-0.372678
-0.373051
-0.374523
-0.374514
-0.384155
-0.39866
-0.39797
-0.396761
-0.395057
-0.392947
-0.390529
-0.387912
-0.385216
-0.38256
-0.380063
-0.377833
-0.375957
-0.374501
-0.373496
-0.372933
-0.372827
-0.372934
-0.374159
-0.373684
-0.382328
-0.400856
-0.400074
-0.398776
-0.396975
-0.394763
-0.392243
-0.389525
-0.386728
-0.383972
-0.381369
-0.379023
-0.377016
-0.375404
-0.37421
-0.373417
-0.373034
-0.372811
-0.373604
-0.372587
-0.379731
-0.403265
-0.402362
-0.400962
-0.399053
-0.396732
-0.394105
-0.391286
-0.388389
-0.385531
-0.382822
-0.380359
-0.378214
-0.376435
-0.375034
-0.373981
-0.373272
-0.372656
-0.372886
-0.371275
-0.376643
-0.405888
-0.40484
-0.403323
-0.401295
-0.398857
-0.396119
-0.393194
-0.390195
-0.387235
-0.384419
-0.381833
-0.379542
-0.37758
-0.375948
-0.374602
-0.37352
-0.372449
-0.372024
-0.369778
-0.373316
-0.40873
-0.407511
-0.405862
-0.403705
-0.401141
-0.398286
-0.395251
-0.392147
-0.389082
-0.386153
-0.383437
-0.380987
-0.378824
-0.376934
-0.375258
-0.373756
-0.372177
-0.371036
-0.368131
-0.369917
-0.41179
-0.410378
-0.408584
-0.406285
-0.403586
-0.400608
-0.397457
-0.394244
-0.391069
-0.38802
-0.385164
-0.38254
-0.380153
-0.377974
-0.37593
-0.373964
-0.37183
-0.369937
-0.366364
-0.36654
-0.415069
-0.413441
-0.411489
-0.409037
-0.406195
-0.403085
-0.399814
-0.396485
-0.393193
-0.390015
-0.387006
-0.384188
-0.381551
-0.37905
-0.3766
-0.374127
-0.3714
-0.36874
-0.3645
-0.363229
-0.418566
-0.416703
-0.414579
-0.411964
-0.408969
-0.40572
-0.40232
-0.39887
-0.395453
-0.392135
-0.388955
-0.385921
-0.383005
-0.380146
-0.377249
-0.374233
-0.370882
-0.367454
-0.362556
-0.360003
-0.422281
-0.420163
-0.417856
-0.415068
-0.411911
-0.408514
-0.40498
-0.401399
-0.397846
-0.394374
-0.391004
-0.387727
-0.384499
-0.381244
-0.377862
-0.374269
-0.370273
-0.366085
-0.360545
-0.356863
-0.426211
-0.423822
-0.421321
-0.41835
-0.415022
-0.411471
-0.407793
-0.404073
-0.400372
-0.396728
-0.393145
-0.389595
-0.386017
-0.382328
-0.378424
-0.374225
-0.369569
-0.364638
-0.358475
-0.353801
-0.430357
-0.42768
-0.424975
-0.421812
-0.418306
-0.414593
-0.410763
-0.406892
-0.403029
-0.399192
-0.395368
-0.391511
-0.387546
-0.383382
-0.378922
-0.374093
-0.368767
-0.363115
-0.356351
-0.350804
-0.434715
-0.431737
-0.428819
-0.425456
-0.421764
-0.417881
-0.413892
-0.409858
-0.405814
-0.401761
-0.397664
-0.393462
-0.389069
-0.384392
-0.379341
-0.373864
-0.367867
-0.361517
-0.354176
-0.347858
-0.439285
-0.435993
-0.432854
-0.429284
-0.425399
-0.421339
-0.417179
-0.412968
-0.408724
-0.404426
-0.400023
-0.395434
-0.39057
-0.385341
-0.379672
-0.373532
-0.366866
-0.359844
-0.351949
-0.344947
-0.444064
-0.440447
-0.437079
-0.433296
-0.429213
-0.424968
-0.420626
-0.416222
-0.411754
-0.40718
-0.40243
-0.397413
-0.392034
-0.386215
-0.379903
-0.373092
-0.365763
-0.358095
-0.349672
-0.342056
-0.44905
-0.445097
-0.441496
-0.437495
-0.433206
-0.428768
-0.424232
-0.419615
-0.414895
-0.41001
-0.404871
-0.39938
-0.393445
-0.387002
-0.380025
-0.372538
-0.364557
-0.35627
-0.34734
-0.33917
-0.45424
-0.44994
-0.446101
-0.441878
-0.43738
-0.43274
-0.427995
-0.423143
-0.41814
-0.412903
-0.407331
-0.401318
-0.394785
-0.387688
-0.38003
-0.371865
-0.363246
-0.354365
-0.344953
-0.336277
-0.459629
-0.454975
-0.450894
-0.446446
-0.441732
-0.43688
-0.43191
-0.426798
-0.421477
-0.415846
-0.409791
-0.403211
-0.396039
-0.388261
-0.37991
-0.371071
-0.361828
-0.352378
-0.342506
-0.333365
-0.465212
-0.460195
-0.455871
-0.451195
-0.446259
-0.441186
-0.435971
-0.43057
-0.424892
-0.418819
-0.412232
-0.405038
-0.397192
-0.388709
-0.379657
-0.370152
-0.360301
-0.350307
-0.339995
-0.330421
-0.470981
-0.465596
-0.461026
-0.456119
-0.450958
-0.445649
-0.440169
-0.434446
-0.428368
-0.421805
-0.414636
-0.406783
-0.398228
-0.389021
-0.379266
-0.369103
-0.358664
-0.348149
-0.337416
-0.327437
-0.476927
-0.471169
-0.466352
-0.461214
-0.455819
-0.450261
-0.44449
-0.438409
-0.431886
-0.424781
-0.41698
-0.408425
-0.399133
-0.389188
-0.378729
-0.367921
-0.356912
-0.345899
-0.334764
-0.324403
-0.48304
-0.476905
-0.471842
-0.46647
-0.460834
-0.45501
-0.44892
-0.442441
-0.435424
-0.427725
-0.419242
-0.409947
-0.399891
-0.3892
-0.378042
-0.366603
-0.355043
-0.343552
-0.332034
-0.32131
-0.489305
-0.482791
-0.477483
-0.471876
-0.46599
-0.459881
-0.45344
-0.446521
-0.438959
-0.430612
-0.4214
-0.411328
-0.40049
-0.389047
-0.377198
-0.365144
-0.353053
-0.341105
-0.32922
-0.318149
-0.495707
-0.488814
-0.483263
-0.477418
-0.471272
-0.464856
-0.45803
-0.450623
-0.442463
-0.433417
-0.423431
-0.412552
-0.400916
-0.388721
-0.376191
-0.363539
-0.350937
-0.338551
-0.326315
-0.314913
-0.502228
-0.494957
-0.489165
-0.48308
-0.476662
-0.469914
-0.462665
-0.454722
-0.44591
-0.436113
-0.425313
-0.4136
-0.401155
-0.388212
-0.375015
-0.361784
-0.34869
-0.335884
-0.323313
-0.311594
-0.508847
-0.501201
-0.495172
-0.488843
-0.482139
-0.475032
-0.467318
-0.458788
-0.44927
-0.438673
-0.427022
-0.414454
-0.401196
-0.387512
-0.373663
-0.359872
-0.346306
-0.333099
-0.320207
-0.308183
-0.51554
-0.507525
-0.501261
-0.494685
-0.487679
-0.480181
-0.471959
-0.462789
-0.452512
-0.44107
-0.428535
-0.415098
-0.401026
-0.386613
-0.372129
-0.357798
-0.343779
-0.330189
-0.316991
-0.304674
-0.522281
-0.513904
-0.507409
-0.500581
-0.493254
-0.485333
-0.476555
-0.466694
-0.455606
-0.443276
-0.429832
-0.415515
-0.400634
-0.385504
-0.370406
-0.355555
-0.341102
-0.327146
-0.313657
-0.301058
-0.52904
-0.52031
-0.51359
-0.506502
-0.498834
-0.490454
-0.481073
-0.470466
-0.458518
-0.445265
-0.43089
-0.415689
-0.400007
-0.384179
-0.368485
-0.353136
-0.338269
-0.323964
-0.310197
-0.297329
-0.535787
-0.526716
-0.519773
-0.512419
-0.504387
-0.495509
-0.485476
-0.474071
-0.461218
-0.447009
-0.431689
-0.415605
-0.399135
-0.382626
-0.36636
-0.350534
-0.335271
-0.320635
-0.306605
-0.293479
-0.542488
-0.533088
-0.525926
-0.518298
-0.509876
-0.50046
-0.489726
-0.477473
-0.463674
-0.448482
-0.432208
-0.415247
-0.398005
-0.380838
-0.364022
-0.34774
-0.332102
-0.317151
-0.302872
-0.289501
-0.549105
-0.539392
-0.532016
-0.524103
-0.515265
-0.505269
-0.493783
-0.480635
-0.465853
-0.449659
-0.432428
-0.4146
-0.396606
-0.378805
-0.361463
-0.344748
-0.328753
-0.313505
-0.298992
-0.285387
-0.555601
-0.545591
-0.538005
-0.529794
-0.520511
-0.509893
-0.497608
-0.483521
-0.467724
-0.450515
-0.432329
-0.413651
-0.394928
-0.376518
-0.358674
-0.341548
-0.325216
-0.309689
-0.294956
-0.281131
-0.561934
-0.551646
-0.543853
-0.535332
-0.525574
-0.514291
-0.50116
-0.486094
-0.469258
-0.451026
-0.431895
-0.412386
-0.392959
-0.373966
-0.355646
-0.338132
-0.321483
-0.305695
-0.290758
-0.276727
-0.568062
-0.557517
-0.549519
-0.540674
-0.53041
-0.518419
-0.504398
-0.488319
-0.470425
-0.451169
-0.431107
-0.410791
-0.390687
-0.371141
-0.352371
-0.334492
-0.317546
-0.301515
-0.286391
-0.272166
-0.573941
-0.563159
-0.55496
-0.545775
-0.534973
-0.522233
-0.507282
-0.49016
-0.471197
-0.450923
-0.429949
-0.408853
-0.388104
-0.368032
-0.348839
-0.330619
-0.313397
-0.297143
-0.281846
-0.267443
-0.579525
-0.568529
-0.56013
-0.55059
-0.539217
-0.525688
-0.509771
-0.491584
-0.471546
-0.450266
-0.428404
-0.406559
-0.385197
-0.364631
-0.345042
-0.326505
-0.309029
-0.29257
-0.277118
-0.262553
-0.584768
-0.573582
-0.564985
-0.555072
-0.543097
-0.528742
-0.511828
-0.492559
-0.471448
-0.44918
-0.426459
-0.403899
-0.381956
-0.360928
-0.340971
-0.322143
-0.304433
-0.287791
-0.2722
-0.257488
-0.589623
-0.578271
-0.569476
-0.559173
-0.546566
-0.531351
-0.513413
-0.493052
-0.470878
-0.447645
-0.424098
-0.400859
-0.378372
-0.356914
-0.336618
-0.317523
-0.299603
-0.282798
-0.267086
-0.252244
-0.594041
-0.582549
-0.573557
-0.562846
-0.549577
-0.533472
-0.514491
-0.493036
-0.469813
-0.445645
-0.421309
-0.397428
-0.374435
-0.352579
-0.331974
-0.312638
-0.294532
-0.277584
-0.261769
-0.246816
-0.597975
-0.586369
-0.57718
-0.566043
-0.552085
-0.535065
-0.515027
-0.492482
-0.468232
-0.443162
-0.418077
-0.393597
-0.370135
-0.347917
-0.327032
-0.307482
-0.289212
-0.272144
-0.256245
-0.241198
-0.601377
-0.589682
-0.580297
-0.568717
-0.554046
-0.536089
-0.514988
-0.491365
-0.466115
-0.440183
-0.414393
-0.389356
-0.365463
-0.342917
-0.321784
-0.302047
-0.283638
-0.266473
-0.250509
-0.235387
-0.604201
-0.592444
-0.582861
-0.570823
-0.555417
-0.536507
-0.514342
-0.48966
-0.463445
-0.436694
-0.410244
-0.384694
-0.360412
-0.337574
-0.316224
-0.296328
-0.277804
-0.260565
-0.244556
-0.229378
-0.6064
-0.594607
-0.584826
-0.572315
-0.556156
-0.536285
-0.513063
-0.487345
-0.460205
-0.432682
-0.405621
-0.379604
-0.354974
-0.33188
-0.310344
-0.290317
-0.271705
-0.254415
-0.238381
-0.223169
-0.607929
-0.596126
-0.586147
-0.573151
-0.556225
-0.535388
-0.511123
-0.484403
-0.456381
-0.428137
-0.400514
-0.374078
-0.349142
-0.325828
-0.30414
-0.284011
-0.265336
-0.24802
-0.231981
-0.216756
-0.608745
-0.596959
-0.586782
-0.573289
-0.555587
-0.533786
-0.508499
-0.480813
-0.45196
-0.423048
-0.394917
-0.36811
-0.342909
-0.319414
-0.297605
-0.277404
-0.258693
-0.241375
-0.225354
-0.210136
-0.608808
-0.597064
-0.586689
-0.572691
-0.554207
-0.531451
-0.50517
-0.476562
-0.446931
-0.417407
-0.388822
-0.361692
-0.33627
-0.312631
-0.290736
-0.270492
-0.251773
-0.234479
-0.218495
-0.203307
-0.608077
-0.5964
-0.585828
-0.57132
-0.552054
-0.528359
-0.501116
-0.471636
-0.441284
-0.411207
-0.382224
-0.35482
-0.329222
-0.305477
-0.283529
-0.263273
-0.244573
-0.227327
-0.211405
-0.196272
-0.606517
-0.594932
-0.584165
-0.569142
-0.5491
-0.524487
-0.496323
-0.466024
-0.435011
-0.404443
-0.375117
-0.34749
-0.321759
-0.297947
-0.275981
-0.255743
-0.23709
-0.219919
-0.204082
-0.189034
-0.604093
-0.592624
-0.581664
-0.566128
-0.545319
-0.519817
-0.490777
-0.459718
-0.428108
-0.39711
-0.367498
-0.339699
-0.31388
-0.29004
-0.26809
-0.247901
-0.229323
-0.21225
-0.196523
-0.18159
-0.600775
-0.589445
-0.578296
-0.56225
-0.54069
-0.514331
-0.484466
-0.45271
-0.420569
-0.389205
-0.359366
-0.331446
-0.305582
-0.281753
-0.259855
-0.239747
-0.22127
-0.204322
-0.188726
-0.173901
-0.596535
-0.585367
-0.574034
-0.557484
-0.535194
-0.508018
-0.477385
-0.444996
-0.412393
-0.380727
-0.350719
-0.322729
-0.296866
-0.273088
-0.251276
-0.23128
-0.212934
-0.196141
-0.180697
-0.165928
-0.591348
-0.580364
-0.568852
-0.55181
-0.528816
-0.500867
-0.469526
-0.436574
-0.403578
-0.371676
-0.341557
-0.313549
-0.287731
-0.264043
-0.242353
-0.222501
-0.204317
-0.187709
-0.172445
-0.157761
-0.585193
-0.574414
-0.562732
-0.545211
-0.521544
-0.492873
-0.460888
-0.427445
-0.394127
-0.362055
-0.331883
-0.303907
-0.27818
-0.254621
-0.233088
-0.213412
-0.195419
-0.179019
-0.163928
-0.149468
-0.578053
-0.5675
-0.555657
-0.537675
-0.51337
-0.48403
-0.451471
-0.417609
-0.384042
-0.351865
-0.3217
-0.293807
-0.268214
-0.244825
-0.223484
-0.204015
-0.186243
-0.170077
-0.155189
-0.140975
-0.569914
-0.559607
-0.547613
-0.529191
-0.504289
-0.47434
-0.441276
-0.407072
-0.373327
-0.341112
-0.311011
-0.283251
-0.257838
-0.234657
-0.213543
-0.194315
-0.176792
-0.160885
-0.14623
-0.132273
-0.560767
-0.550724
-0.538592
-0.519755
-0.494299
-0.463804
-0.430309
-0.39584
-0.36199
-0.329802
-0.299822
-0.272247
-0.247056
-0.224122
-0.203272
-0.184314
-0.167071
-0.151449
-0.137054
-0.123368
-0.550605
-0.540845
-0.528588
-0.509365
-0.483404
-0.452427
-0.418578
-0.38392
-0.350039
-0.317942
-0.288141
-0.260799
-0.235875
-0.213228
-0.192674
-0.174019
-0.157083
-0.141774
-0.127661
-0.114264
-0.539425
-0.529966
-0.5176
-0.498022
-0.471608
-0.440219
-0.406092
-0.371323
-0.337482
-0.305542
-0.275975
-0.248916
-0.224303
-0.201979
-0.181757
-0.163436
-0.146835
-0.131864
-0.118056
-0.104969
-0.52723
-0.518088
-0.505631
-0.485732
-0.45892
-0.427189
-0.392864
-0.358061
-0.324332
-0.292612
-0.263335
-0.236607
-0.212346
-0.190384
-0.170527
-0.152571
-0.136334
-0.121726
-0.108245
-0.0954877
-0.514025
-0.505215
-0.492686
-0.472504
-0.445351
-0.413352
-0.378907
-0.344148
-0.310603
-0.279164
-0.250232
-0.223882
-0.200014
-0.178452
-0.158994
-0.141432
-0.125586
-0.111367
-0.0982342
-0.0858274
-0.499818
-0.491357
-0.478776
-0.45835
-0.430918
-0.398725
-0.364239
-0.329601
-0.296308
-0.265213
-0.236677
-0.210752
-0.187319
-0.166193
-0.147167
-0.130029
-0.114601
-0.100795
-0.0880303
-0.0759952
-0.484622
-0.476525
-0.463913
-0.443285
-0.415636
-0.383325
-0.348878
-0.314436
-0.281463
-0.250771
-0.222685
-0.19723
-0.174272
-0.153618
-0.135055
-0.11837
-0.103387
-0.0900168
-0.0776415
-0.0659985
-0.468455
-0.460735
-0.448115
-0.42733
-0.399528
-0.367174
-0.332845
-0.298674
-0.266088
-0.235857
-0.208271
-0.183329
-0.160886
-0.140738
-0.12267
-0.106467
-0.0919535
-0.0790429
-0.0670766
-0.0558459
-0.451335
-0.444006
-0.431402
-0.410506
-0.382615
-0.350295
-0.316163
-0.282334
-0.2502
-0.220487
-0.193449
-0.169065
-0.147174
-0.127566
-0.110025
-0.0943304
-0.0803121
-0.067883
-0.0563453
-0.0455461
-0.433286
-0.42636
-0.413798
-0.392837
-0.364925
-0.332717
-0.298853
-0.26544
-0.233822
-0.20468
-0.178239
-0.154453
-0.133151
-0.114117
-0.0971309
-0.0819726
-0.0684742
-0.056548
-0.0454577
-0.0351091
-0.414334
-0.407823
-0.395329
-0.374353
-0.346488
-0.314465
-0.280942
-0.248016
-0.216974
-0.188457
-0.162657
-0.13951
-0.118833
-0.100405
-0.0840031
-0.0694068
-0.0564518
-0.0450493
-0.0344251
-0.0245456
-0.394509
-0.388425
-0.376025
-0.355083
-0.327332
-0.295562
-0.262464
-0.230087
-0.199679
-0.171838
-0.146724
-0.124254
-0.104236
-0.0864453
-0.0706556
-0.0566466
-0.0442582
-0.0333995
-0.0232593
-0.0138675
-0.373842
-0.368196
-0.355918
-0.335065
-0.307484
-0.276047
-0.243444
-0.211681
-0.181963
-0.154846
-0.130459
-0.108704
-0.0893785
-0.072254
-0.0571036
-0.0437065
-0.0319071
-0.0216115
-0.0119733
-0.00308798
-0.352369
-0.347173
-0.335046
-0.314338
-0.286973
-0.255953
-0.223911
-0.192825
-0.163851
-0.137504
-0.113885
-0.0928793
-0.0742777
-0.0578483
-0.0433629
-0.0306015
-0.019413
-0.00969901
-0.000580531
0.00777795
-0.330126
-0.325393
-0.313444
-0.292906
-0.265868
-0.235314
-0.203899
-0.173549
-0.14537
-0.119837
-0.0970235
-0.0768006
-0.0589528
-0.0432455
-0.0294499
-0.0173471
-0.0067909
0.00232372
0.0109043
0.0187131
-0.307153
-0.302896
-0.291153
-0.270836
-0.244183
-0.214166
-0.183441
-0.153883
-0.126548
-0.101869
-0.0798974
-0.0604892
-0.0434233
-0.0284637
-0.0153814
-0.0039592
0.00594385
0.0144421
0.0224651
0.0296952
-0.283489
-0.279724
-0.268204
-0.24818
-0.221961
-0.192547
-0.162573
-0.13386
-0.107413
-0.0836278
-0.0625311
-0.0439669
-0.0277094
-0.0135214
-0.00117441
0.00954622
0.0187757
0.0266412
0.0340836
0.0406934
-0.259171
-0.255932
-0.244654
-0.224968
-0.199243
-0.170495
-0.141328
-0.113511
-0.0879951
-0.0651396
-0.044949
-0.0272564
-0.0118318
0.00156232
0.0131539
0.0231531
0.0316892
0.0389065
0.0457422
0.0516757
-0.234246
-0.23157
-0.220553
-0.201247
-0.176073
-0.148051
-0.119745
-0.0928696
-0.0683246
-0.0464324
-0.0271768
-0.0103809
0.00418831
0.0167684
0.0275862
0.0368452
0.0446683
0.0512263
0.0574323
0.0626215
-0.208815
-0.206647
-0.195945
-0.177062
-0.152496
-0.125254
-0.0978613
-0.0719708
-0.0484329
-0.0275347
-0.00924054
0.00663563
0.0203291
0.0320772
0.042105
0.050606
0.0576988
0.0635974
0.069154
0.0734674
-0.182914
-0.181218
-0.170875
-0.152462
-0.128555
-0.102147
-0.0757143
-0.0508491
-0.0283518
-0.00847578
0.00883313
0.0237687
0.0365683
0.047469
0.0566924
0.0644195
0.0707727
0.0760314
0.0808793
0.0839682
-0.156564
-0.155357
-0.145396
-0.127494
-0.104297
-0.0787726
-0.0533433
-0.0295404
-0.00811393
0.0107147
0.0270168
0.0409933
0.0528832
0.062923
0.0713297
0.0782715
0.0838928
0.0885444
0.0925104
0.0937805
-0.12982
-0.129116
-0.119558
-0.102209
-0.0797687
-0.0551737
-0.0307882
-0.00808067
0.0122476
0.0300062
0.0452826
0.0582839
0.0692505
0.0784178
0.0859977
0.0921498
0.0970618
0.101112
0.103923
0.103206
-0.102742
-0.102548
-0.0934146
-0.0766572
-0.0550179
-0.0313944
-0.00808893
0.0134933
0.0326992
0.0493681
0.0636021
0.0756144
0.0856458
0.0939309
0.100676
0.106041
0.110259
0.113636
0.115017
0.114333
-0.0753837
-0.0757067
-0.0670181
-0.0508889
-0.0300919
-0.0074786
0.0147138
0.0351443
0.0532068
0.0687689
0.0819466
0.092958
0.102045
0.109439
0.115344
0.119923
0.123436
0.126093
0.126582
0.126246
-0.0478023
-0.0486461
-0.0404232
-0.0249563
-0.00503929
0.0165288
0.0375792
0.0568349
0.0737361
0.0881771
0.100287
0.110288
0.118422
0.124919
0.12998
0.133772
0.136562
0.138487
0.138286
0.137902
-0.0200556
-0.0214226
-0.0136846
0.00108858
0.0200912
0.040583
0.0604661
0.0785276
0.0942526
0.107561
0.118594
0.127577
0.134751
0.140347
0.144561
0.147564
0.149622
0.150826
0.150019
0.149397
0.00779904
0.00590747
0.0131428
0.0271934
0.0452508
0.064639
0.0833332
0.100184
0.114721
0.126888
0.136837
0.144797
0.151009
0.155699
0.159064
0.161276
0.162595
0.163088
0.161698
0.160727
0.0357037
0.0332875
0.0400037
0.0533058
0.0703907
0.0886518
0.106139
0.121768
0.135108
0.146128
0.154988
0.161921
0.167167
0.170951
0.173466
0.174885
0.175463
0.17525
0.173276
0.171879
0.0636004
0.0606606
0.0668429
0.0793732
0.0954619
0.112576
0.128843
0.143239
0.155377
0.165246
0.173017
0.178922
0.183202
0.186079
0.187744
0.18837
0.188205
0.187289
0.184724
0.182851
0.0914313
0.0879698
0.0936052
0.105344
0.120416
0.136368
0.151403
0.164562
0.175495
0.184213
0.190893
0.195773
0.199088
0.20106
0.201876
0.20171
0.200802
0.199183
0.196021
0.193639
0.119139
0.115158
0.120236
0.131165
0.145205
0.159982
0.17378
0.185698
0.195426
0.202995
0.208589
0.212445
0.214799
0.215869
0.21584
0.214885
0.213234
0.210915
0.207152
0.204236
0.146665
0.142169
0.146679
0.156785
0.169779
0.183375
0.195931
0.20661
0.215137
0.221561
0.226074
0.228913
0.230311
0.230484
0.229615
0.227874
0.225485
0.222468
0.218102
0.214636
0.173953
0.168947
0.172882
0.182153
0.194093
0.206502
0.217818
0.227261
0.234594
0.239881
0.24332
0.245149
0.245599
0.244883
0.24318
0.240658
0.237535
0.233825
0.228857
0.22483
0.200946
0.195436
0.19879
0.207218
0.218099
0.229321
0.2394
0.247616
0.253763
0.257923
0.260298
0.261127
0.260639
0.259041
0.256513
0.253219
0.249368
0.244971
0.239406
0.234812
0.227588
0.221581
0.224351
0.231931
0.241751
0.251788
0.260639
0.267638
0.272612
0.275656
0.276981
0.276821
0.275406
0.272939
0.269596
0.265537
0.260968
0.255891
0.249735
0.244571
0.253825
0.247327
0.249512
0.256243
0.265003
0.273863
0.281496
0.287291
0.291107
0.293052
0.29334
0.292207
0.289878
0.286554
0.282407
0.277596
0.272317
0.266571
0.259832
0.254098
0.279602
0.272623
0.274223
0.280104
0.287811
0.295504
0.301934
0.306542
0.309217
0.31008
0.309349
0.307258
0.30403
0.299864
0.294927
0.289376
0.2834
0.276997
0.269685
0.263383
0.304865
0.297414
0.298432
0.303469
0.31013
0.316671
0.321915
0.325356
0.32691
0.326711
0.32498
0.321951
0.317842
0.312849
0.307138
0.300861
0.294201
0.287153
0.279281
0.272415
0.329563
0.321651
0.322091
0.326291
0.331919
0.337324
0.341404
0.3437
0.344156
0.342919
0.340209
0.336261
0.33129
0.32549
0.319021
0.312034
0.304704
0.297028
0.288607
0.281184
0.353645
0.345283
0.345152
0.348524
0.353136
0.357426
0.360365
0.361542
0.360926
0.358674
0.355009
0.350165
0.344354
0.337765
0.330558
0.322879
0.314896
0.306606
0.297652
0.28968
0.377062
0.368262
0.367568
0.370126
0.373739
0.376939
0.378764
0.37885
0.37719
0.37395
0.369357
0.36364
0.357011
0.349656
0.34173
0.333378
0.32476
0.315875
0.306402
0.297891
0.399766
0.39054
0.389294
0.391054
0.393691
0.395827
0.396568
0.395594
0.39292
0.388722
0.383227
0.376665
0.369243
0.361144
0.352522
0.343517
0.334283
0.324821
0.314847
0.305809
0.421709
0.412073
0.410287
0.411267
0.412954
0.414055
0.413745
0.411744
0.408089
0.402963
0.396597
0.389217
0.381029
0.372211
0.362916
0.35328
0.34345
0.333432
0.322974
0.313421
0.442847
0.432815
0.430504
0.430725
0.431489
0.43159
0.430264
0.427272
0.422671
0.416651
0.409445
0.401277
0.39235
0.38284
0.372896
0.362652
0.352249
0.341695
0.330771
0.32072
0.463138
0.452725
0.449905
0.449391
0.449264
0.4484
0.446095
0.44215
0.43664
0.429762
0.421749
0.412824
0.403188
0.393014
0.382447
0.371619
0.360666
0.349598
0.338228
0.327694
0.482539
0.471762
0.468451
0.467228
0.466243
0.464453
0.461211
0.456352
0.449972
0.442273
0.433488
0.42384
0.413525
0.402715
0.391553
0.380168
0.368689
0.357131
0.345334
0.334335
0.501011
0.489888
0.486104
0.484201
0.482396
0.479719
0.475583
0.469854
0.462644
0.454163
0.444643
0.434306
0.423345
0.41193
0.400202
0.388285
0.376305
0.36428
0.352079
0.340634
0.518517
0.507065
0.50283
0.500279
0.497691
0.494172
0.489185
0.482631
0.474635
0.465411
0.455195
0.444204
0.432632
0.420644
0.408378
0.395958
0.383503
0.371037
0.358452
0.346582
0.535021
0.523258
0.518596
0.515428
0.5121
0.507784
0.501995
0.494661
0.485922
0.476
0.465126
0.45352
0.44137
0.428841
0.416069
0.403175
0.390273
0.377391
0.364444
0.352172
0.55049
0.538436
0.53337
0.529622
0.525595
0.520531
0.513988
0.505922
0.496488
0.485909
0.47442
0.462236
0.449546
0.43651
0.423263
0.409924
0.396603
0.383332
0.370048
0.357396
0.564892
0.552567
0.547122
0.542831
0.538152
0.532389
0.525143
0.516396
0.506313
0.495123
0.483061
0.470339
0.457145
0.443637
0.429949
0.416196
0.402485
0.388852
0.375253
0.362246
0.578198
0.565622
0.559826
0.55503
0.549747
0.543337
0.535439
0.526062
0.51538
0.503626
0.491033
0.477815
0.464156
0.450212
0.436116
0.421981
0.407909
0.393942
0.380052
0.366715
0.590382
0.577576
0.571457