/*--------------------------------*- C++ -*----------------------------------*\
  =========                 |
  \\      /  F ield         | OpenFOAM: The Open Source CFD Toolbox
   \\    /   O peration     | Website:  https://openfoam.org
    \\  /    A nd           | Version:  7
     \\/     M anipulation  |
\*---------------------------------------------------------------------------*/
FoamFile
{
    version     2.0;
    format      ascii;
    class       surfaceScalarField;
    location    "65";
    object      phi;
}
// * * * * * * * * * * * * * * * * * * * * * * * * * * * * * * * * * * * * * //

dimensions      [0 3 -1 0 0 0 0];

internalField   nonuniform List<scalar> 
19595
(
-6.07768e-06
9.10711e-06
-3.02943e-06
-2.16271e-05
2.17673e-05
-6.21787e-06
-4.50823e-05
3.08099e-05
-7.35464e-06
-7.49037e-05
3.66912e-05
-6.86978e-06
-0.000109709
3.99899e-05
-5.18505e-06
-0.000148378
4.12635e-05
-2.59457e-06
-0.000190185
4.09857e-05
8.21861e-07
-0.000234971
3.95562e-05
5.22978e-06
-0.000283331
3.73424e-05
1.10179e-05
3.44096e-05
1.87993e-05
-0.00033654
-6.03014e-06
1.51373e-05
-2.14699e-05
3.72071e-05
-4.47669e-05
5.41068e-05
-7.43852e-05
6.63095e-05
-0.000108935
7.45401e-05
-0.000147281
7.9609e-05
-0.000188668
8.23729e-05
-0.000232902
8.37902e-05
-0.000280559
8.4999e-05
8.67397e-05
-0.000332889
-5.93503e-06
2.10723e-05
-2.1149e-05
5.24211e-05
-4.41095e-05
7.70673e-05
-7.32831e-05
9.5483e-05
-0.000107263
0.00010852
-0.000144871
0.000117217
-0.000185288
0.00012279
-0.000228234
0.000126736
-0.000274219
0.000130984
0.000136923
-0.000324403
-5.79424e-06
2.68665e-05
-2.06696e-05
6.72964e-05
-4.31193e-05
9.9517e-05
-7.16107e-05
0.000123974
-0.000104708
0.000141617
-0.00014117
0.000153679
-0.000180072
0.000161693
-0.000220995
0.000167658
-0.000264336
0.000174326
0.000183672
-0.000311085
-5.61079e-06
3.24773e-05
-2.00404e-05
8.1726e-05
-4.18115e-05
0.000121288
-6.93902e-05
0.000151553
-0.000101301
0.000173528
-0.000136216
0.000188594
-0.000173068
0.000198545
-0.000211237
0.000205827
-0.000250961
0.000214049
0.000225667
-0.000292956
-5.38872e-06
3.7866e-05
-1.92728e-05
9.56101e-05
-4.02066e-05
0.000142222
-6.66514e-05
0.000177998
-9.70815e-05
0.000203958
-0.000130061
0.000221573
-0.000164339
0.000232823
-0.000199033
0.000240521
-0.000234163
0.00024918
0.000261549
-0.000270045
-5.13292e-06
4.2999e-05
-1.83809e-05
0.000108858
-3.83291e-05
0.00016217
-6.34297e-05
0.000203098
-9.20966e-05
0.000232625
-0.000122764
0.00025224
-0.000153959
0.000264018
-0.000184466
0.000271027
-0.000214026
0.00027874
0.000289898
-0.000242375
-4.84892e-06
4.78479e-05
-1.73805e-05
0.00012139
-3.62064e-05
0.000180996
-5.97641e-05
0.000226656
-8.63965e-05
0.000259257
-0.000114389
0.000280233
-0.000142007
0.000291636
-0.000167623
0.000296643
-0.000190629
0.000301747
0.000309219
-0.000209949
-4.5427e-06
5.23906e-05
-1.62883e-05
0.000133135
-3.38675e-05
0.000198575
-5.56944e-05
0.000248483
-8.00307e-05
0.000283593
-0.000104994
0.000305196
-0.000128552
0.000315194
-0.000148579
0.00031667
-0.000164031
0.000317198
0.000317926
-0.000172738
-4.22046e-06
5.6611e-05
-1.51217e-05
0.000144037
-3.13411e-05
0.000214795
-5.12585e-05
0.0002684
-7.30427e-05
0.000305378
-9.46268e-05
0.00032678
-0.000113643
0.000334211
-0.000127382
0.000330409
-0.000134241
0.000324058
0.000314363
-0.000130679
-3.8884e-06
6.04994e-05
-1.38976e-05
0.000154046
-2.86543e-05
0.000229551
-4.64893e-05
0.000286235
-6.54644e-05
0.000324353
-8.3311e-05
0.000344627
-9.72939e-05
0.000348194
-0.000104028
0.000337143
-0.00010118
0.00032121
0.000296907
-8.37243e-05
-3.55252e-06
6.4052e-05
-1.26317e-05
0.000163125
-2.58309e-05
0.00024275
-4.14114e-05
0.000301816
-5.73107e-05
0.000340252
-7.10389e-05
0.000358355
-7.94605e-05
0.000356615
-7.84235e-05
0.000336106
-6.45512e-05
0.000307338
0.00026457
-3.22147e-05
-3.21842e-06
6.72704e-05
-1.13383e-05
0.000171245
-2.28899e-05
0.000254302
-3.60391e-05
0.000314965
-4.85741e-05
0.000352787
-5.77605e-05
0.000367542
-6.00341e-05
0.000358889
-5.03995e-05
0.000326471
-2.33077e-05
0.000280246
0.000215978
2.52841e-05
-2.89115e-06
7.01615e-05
-1.00289e-05
0.000178383
-1.98445e-05
0.000264118
-3.0373e-05
0.000325494
-3.92197e-05
0.000361634
-4.33729e-05
0.000371695
-3.88125e-05
0.000354328
-1.99016e-05
0.00030756
2.18453e-05
0.000238499
0.000146384
9.14394e-05
-2.57504e-06
7.27366e-05
-8.71256e-06
0.00018452
-1.67006e-05
0.000272106
-2.43988e-05
0.000333192
-2.91822e-05
0.000366417
-2.77105e-05
0.000370223
-1.54179e-05
0.000342036
1.38117e-05
0.000278331
7.07195e-05
0.000181591
5.2567e-05
0.000164537
-2.27353e-06
7.50101e-05
-7.39451e-06
0.000189641
-1.34561e-05
0.000278167
-1.80863e-05
0.000337822
-1.83651e-05
0.000366696
-1.05558e-05
0.000362414
1.05767e-05
0.000320903
5.22184e-05
0.000236689
0.000126574
0.000107236
-6.73862e-05
0.000246527
-1.98892e-06
7.6999e-05
-6.07596e-06
0.000193728
-1.00995e-05
0.000282191
-1.13878e-05
0.00033911
-6.6407e-06
0.000361949
8.37258e-06
0.0003474
3.95559e-05
0.00028972
9.521e-05
0.000181035
0.000190367
1.2079e-05
-0.000215859
0.000338839
-1.72215e-06
7.87212e-05
-4.75299e-06
0.000196759
-6.60907e-06
0.000284047
-4.23688e-06
0.000336738
6.14907e-06
0.000351563
2.94222e-05
0.000324127
7.23315e-05
0.000246811
0.00014409
0.000109276
0.000263688
-0.000107519
-0.000394967
0.000442797
-1.47237e-06
8.01935e-05
-3.41551e-06
0.000198702
-2.95014e-06
0.000283582
3.45265e-06
0.000330335
2.01918e-05
0.000334824
5.295e-05
0.000291369
0.000109544
0.000190216
0.000200035
1.87856e-05
0.000348244
-0.000255727
-0.00060607
0.000559346
-1.23648e-06
8.143e-05
-2.04552e-06
0.000199511
9.28185e-07
0.000280608
1.17897e-05
0.000319474
3.57065e-05
0.000310907
7.93697e-05
0.000247706
0.00015191
0.000117676
0.000264254
-9.35592e-05
0.000445518
-0.000436991
-0.000849157
0.000688606
-1.00874e-06
8.24388e-05
-6.10218e-07
0.000199113
5.08613e-06
0.000274911
2.09116e-05
0.000303648
5.29462e-05
0.000278873
0.000109119
0.000191533
0.000200125
2.66696e-05
0.000337942
-0.000231376
0.000556387
-0.000655435
-0.00112227
0.000829497
-7.81487e-07
8.32202e-05
9.06402e-07
0.000197425
9.61609e-06
0.000266202
3.09872e-05
0.000282277
7.22025e-05
0.000237657
0.000142661
0.000121075
0.000254834
-8.55036e-05
0.00042219
-0.000398732
0.000680642
-0.000913888
-0.00142137
0.000979746
-5.42891e-07
8.37631e-05
2.56388e-06
0.000194318
1.46266e-05
0.000254139
4.22203e-05
0.000254684
9.38091e-05
0.000186068
0.000180483
3.44013e-05
0.000316594
-0.000221615
0.000517905
-0.000600043
0.000816594
-0.00121258
-0.00174131
0.00113653
-2.75581e-07
8.40387e-05
4.42909e-06
0.000189613
2.02512e-05
0.000238317
5.48499e-05
0.000220085
0.000118137
0.000122781
0.000223075
-7.0537e-05
0.000385851
-0.000384391
0.000625569
-0.000839761
0.000961481
-0.00154849
-0.00207904
0.00129921
6.7167e-08
8.39716e-05
6.56949e-06
0.000183111
2.66427e-05
0.000218244
6.91442e-05
0.000177584
0.00014558
4.63453e-05
0.000270882
-0.000195839
0.000462798
-0.000576307
0.000743998
-0.00112096
0.00111426
-0.00191875
-0.00243975
0.00147497
4.49775e-07
8.35218e-05
9.05908e-06
0.000174502
3.39691e-05
0.000193334
8.53888e-05
0.000126164
0.000176529
-4.47953e-05
0.000324248
-0.000343557
0.000547256
-0.000799315
0.000868678
-0.00144238
0.00126913
-0.00231919
-0.00305065
0.00188002
9.39301e-07
8.25825e-05
1.19849e-05
0.000163456
4.24059e-05
0.000162913
0.000103869
6.47011e-05
0.000211337
-0.000152264
0.000383354
-0.000515573
0.000638717
-0.00105468
0.000996521
-0.00180019
0.0014297
-0.00275238
-0.00364202
0.00202108
1.55212e-06
8.10304e-05
1.54302e-05
0.000149578
5.21223e-05
0.000126221
0.000124841
-8.0181e-06
0.000250266
-0.000277689
0.000448123
-0.00071343
0.000736052
-0.00134261
0.00112457
-0.00218871
0.00158314
-0.00321095
-0.00420831
0.00214943
2.31139e-06
7.8719e-05
1.94732e-05
0.000132416
6.32696e-05
8.24242e-05
0.00014851
-9.32581e-05
0.000293424
-0.000422603
0.000518108
-0.000938114
0.000837247
-0.00166175
0.00125013
-0.00260159
0.00172129
-0.00368211
-0.00474382
0.0022568
3.2386e-06
7.54804e-05
2.4182e-05
0.000111473
7.5968e-05
3.06383e-05
0.00017499
-0.00019228
0.000340705
-0.000588318
0.0005924
-0.00118981
0.000939531
-0.00200888
0.00136885
-0.00303091
0.00183907
-0.00415233
-0.00524149
0.00233674
4.35194e-06
7.11284e-05
2.961e-05
8.62145e-05
9.02942e-05
-3.00459e-05
0.000204287
-0.000306272
0.000391732
-0.000775763
0.00066957
-0.00146765
0.00103961
-0.00237892
0.00147613
-0.00346743
0.0019333
-0.0046095
-0.0056966
0.00238841
5.66555e-06
6.54629e-05
3.57927e-05
5.60873e-05
0.000106273
-0.000100526
0.000236273
-0.000436272
0.000445829
-0.000985318
0.000747691
-0.00176951
0.001134
-0.00276523
0.00156807
-0.0039015
0.00200253
-0.00504396
-0.00610705
0.00241297
7.18914e-06
5.82737e-05
4.27458e-05
2.05307e-05
0.000123872
-0.000181652
0.000270676
-0.000583077
0.00050201
-0.00121665
0.000824458
-0.00209196
0.00121938
-0.00316016
0.00164199
-0.0043241
0.0020469
-0.00544886
-0.00647306
0.00241291
8.92796e-06
4.93458e-05
5.04636e-05
-2.1005e-05
0.000142993
-0.000274181
0.000307067
-0.000747151
0.000559006
-0.00146859
0.000897389
-0.00243034
0.00129295
-0.00355572
0.0016965
-0.00472765
0.00206774
-0.00582011
-0.00679667
0.00239136
1.08829e-05
3.84629e-05
5.89186e-05
-6.90407e-05
0.000163474
-0.000378737
0.000344861
-0.000928538
0.000615325
-0.00173906
0.000964069
-0.00277909
0.00135267
-0.00394432
0.00173141
-0.00510639
0.00206723
-0.00615593
-0.00708107
0.00235163
1.30504e-05
2.54125e-05
6.80607e-05
-0.000124051
0.000185087
-0.000495764
0.000383328
-0.00112678
0.000669349
-0.00202508
0.00102238
-0.00313212
0.00139737
-0.00431931
0.00174747
-0.00545649
0.00204795
-0.00645641
-0.00733002
0.0022969
1.54226e-05
9.9899e-06
7.78169e-05
-0.000186445
0.000207534
-0.000625481
0.000421614
-0.00134086
0.000719462
-0.00232293
0.0010707
-0.00348336
0.00142671
-0.00467531
0.00174611
-0.00577589
0.00201261
-0.00672292
-0.00754747
0.00223006
1.79872e-05
-7.99728e-06
8.80903e-05
-0.000256548
0.000230452
-0.000767843
0.000458774
-0.00156918
0.000764174
-0.00262833
0.00110794
-0.00382712
0.00144103
-0.00500841
0.00172914
-0.00606399
0.00196386
-0.00695763
-0.00773723
0.00215361
2.07266e-05
-2.87239e-05
9.87603e-05
-0.000334582
0.000253419
-0.000922502
0.000493834
-0.00180959
0.000802239
-0.00293673
0.0011336
-0.00415848
0.00144122
-0.00531603
0.00169854
-0.00632132
0.00190411
-0.0071632
-0.00790278
0.00206966
2.36182e-05
-5.23421e-05
0.000109683
-0.000420647
0.000275966
-0.00108878
0.000525845
-0.00205947
0.000832726
-0.00324361
0.00114769
-0.00447344
0.00142848
-0.00559682
0.00165633
-0.00654916
0.00183551
-0.00734238
-0.00804721
0.00197994
2.66338e-05
-7.89759e-05
0.000120692
-0.000514705
0.00029759
-0.00126568
0.000553952
-0.00231584
0.000855059
-0.00354472
0.00115062
-0.004769
0.00140422
-0.00585043
0.00160439
-0.00674933
0.00175993
-0.00749792
-0.00817312
0.00188585
2.97393e-05
-0.000108715
0.000131601
-0.000616567
0.000317784
-0.00145187
0.00057744
-0.00257549
0.000869
-0.00383628
0.0011431
-0.0050431
0.00136991
-0.00607724
0.00154447
-0.00692389
0.00167891
-0.00763236
-0.0082827
0.00178849
3.28954e-05
-0.000141611
0.000142212
-0.000725883
0.00033606
-0.00164571
0.000595775
-0.00283521
0.000874617
-0.00411512
0.00112604
-0.00529452
0.00132701
-0.00627821
0.00147811
-0.00707499
0.00159373
-0.00774799
-0.00837771
0.00168874
3.6058e-05
-0.000177669
0.000152315
-0.00084214
0.000351971
-0.00184537
0.00060862
-0.00309186
0.000872222
-0.00437872
0.00110047
-0.00552277
0.00127688
-0.00645462
0.00140664
-0.00720475
0.00150544
-0.00784679
-0.00845952
0.00158726
3.91786e-05
-0.000216847
0.000161701
-0.000964662
0.00036514
-0.00204881
0.000615832
-0.00334255
0.000862313
-0.0046252
0.00106743
-0.00572789
0.00122081
-0.00660799
0.00133121
-0.00731515
0.00141488
-0.00793046
-0.00852924
0.00148459
4.22062e-05
-0.000259053
0.000170166
-0.00109262
0.000375274
-0.00225392
0.00061744
-0.00358471
0.00084551
-0.00485327
0.00102798
-0.00591036
0.00115991
-0.00673992
0.00125276
-0.00740801
0.00132271
-0.00800041
-0.00858767
0.00138114
4.50881e-05
-0.000304142
0.000177525
-0.00122506
0.000382173
-0.00245856
0.000613626
-0.00381617
0.000822505
-0.00506215
0.000983091
-0.00607095
0.00109517
-0.006852
0.00117209
-0.00748493
0.00122946
-0.00805778
-0.00863545
0.00127724
4.77718e-05
-0.000351913
0.000183613
-0.0013609
0.000385733
-0.00266068
0.000604681
-0.00403512
0.000794022
-0.00525149
0.000933697
-0.00621062
0.00102747
-0.00694577
0.00108985
-0.00754731
0.00113557
-0.00810349
-0.00867302
0.00117314
5.02062e-05
-0.00040212
0.000188298
-0.00149899
0.00038594
-0.00285832
0.000590984
-0.00424016
0.000760783
-0.00542129
0.00088063
-0.00633047
0.000957526
-0.00702267
0.00100657
-0.00759636
0.00104135
-0.00813827
-0.00870074
0.00106907
5.23438e-05
-0.000454463
0.000191479
-0.00163813
0.000382862
-0.00304971
0.000572966
-0.00443026
0.000723485
-0.00557181
0.000824635
-0.00643162
0.000885967
-0.007084
0.000922672
-0.00763306
0.000947091
-0.00816269
-0.00871885
0.000965203
5.41443e-05
-0.000508608
0.000193098
-0.00177708
0.000376644
-0.00323325
0.000551097
-0.00460472
0.000682797
-0.00570351
0.000766383
-0.0065152
0.000813323
-0.00713094
0.000838522
-0.00765826
0.000853011
-0.00817718
-0.00872755
0.000861705
5.55648e-05
-0.000564172
0.000193114
-0.00191463
0.000367456
-0.0034076
0.000525823
-0.00476308
0.000639304
-0.00581699
0.000706421
-0.00658232
0.000740005
-0.00716453
0.000754378
-0.00767264
0.00075927
-0.00818207
-0.00872696
0.00075868
5.65777e-05
-0.00062075
0.000191539
-0.00204959
0.000355535
-0.00357159
0.000497618
-0.00490517
0.000593569
-0.00591294
0.000645256
-0.00663401
0.000666386
-0.00718566
0.000670485
-0.00767673
0.000666028
-0.00817762
-0.00871718
0.000656254
5.71596e-05
-0.00067791
0.000188409
-0.00218084
0.000341131
-0.00372431
0.000466924
-0.00503096
0.000546087
-0.00599211
0.000583311
-0.00667123
0.000592764
-0.00719511
0.000587032
-0.007671
0.000573414
-0.008164
-0.0086983
0.000554525
5.7295e-05
-0.000735205
0.000183787
-0.00230733
0.000324511
-0.00386504
0.000434161
-0.00514061
0.000497298
-0.00605524
0.000520945
-0.00669488
0.000519385
-0.00719355
0.000504175
-0.00765579
0.000481539
-0.00814136
-0.00867033
0.000453574
5.69762e-05
-0.000792181
0.000177756
-0.00242811
0.000305944
-0.00399323
0.000399715
-0.00523438
0.000447591
-0.00610312
0.000458464
-0.00670575
0.000446454
-0.00718154
0.000422041
-0.00763138
0.000390496
-0.00810982
-0.00863331
0.000353474
5.62028e-05
-0.000848384
0.000170418
-0.00254233
0.000285696
-0.0041085
0.000363943
-0.00531263
0.000397303
-0.00613648
0.000396129
-0.00670458
0.000374146
-0.00715956
0.000340744
-0.00759798
0.000300356
-0.00806943
-0.0085872
0.000254252
5.49814e-05
-0.000903365
0.000161884
-0.00264923
0.000264023
-0.00421064
0.000327165
-0.00537577
0.000346728
-0.00615604
0.000334157
-0.00669201
0.000302617
-0.00712802
0.00026042
-0.00755578
0.000211202
-0.00802021
-0.00853176
0.000155759
5.33251e-05
-0.00095669
0.000152274
-0.00274818
0.000241168
-0.00429954
0.000289669
-0.00542427
0.000296118
-0.00616249
0.000272732
-0.00666862
0.000231995
-0.00708728
0.000181234
-0.00750502
0.000123197
-0.00796217
-0.00846595
5.73825e-05
5.12526e-05
-0.00100794
0.00014171
-0.00283864
0.00021736
-0.00437518
0.000251712
-0.00545862
0.000245691
-0.00615647
0.000212003
-0.00663493
0.000162369
-0.00703765
0.00010326
-0.00744591
3.69269e-05
-0.00789584
-0.00839004
-3.89826e-05
4.87882e-05
-0.00105673
0.000130323
-0.00292017
0.000192809
-0.00443767
0.00021352
-0.00547934
0.000195632
-0.00613858
0.000152101
-0.0065914
9.38203e-05
-0.00697936
2.61707e-05
-0.00737826
-4.84467e-05
-0.00782122
-0.00830697
-0.00013151
4.59605e-05
-0.00110269
0.000118235
-0.00299245
0.000167709
-0.00448714
0.000175292
-0.00548692
0.000146098
-0.00610939
9.31341e-05
-0.00653844
2.6424e-05
-0.00691265
-4.91585e-05
-0.00730268
-0.000132786
-0.0077376
-0.00821608
-0.000223683
4.2801e-05
-0.00114549
0.000105565
-0.00305521
0.000142238
-0.00452382
0.000137202
-0.00548188
9.7219e-05
-0.00606941
3.51804e-05
-0.0064764
-3.96376e-05
-0.00683784
-0.000123177
-0.00721914
-0.000215279
-0.0076455
-0.00811668
-0.000314674
3.93439e-05
-0.00118484
9.24254e-05
-0.00310829
0.000116555
-0.00454795
9.93962e-05
-0.00546472
4.91144e-05
-0.00601912
-2.16738e-05
-0.00640561
-0.000104385
-0.00675512
-0.000195905
-0.00712762
-0.000296203
-0.0075452
-0.0080087
-0.000404187
3.56257e-05
-0.00122046
7.89244e-05
-0.00315159
9.08098e-05
-0.00455983
6.20046e-05
-0.00543592
1.797e-06
-0.00595892
-7.72871e-05
-0.00632653
-0.000167825
-0.00666459
-0.000267168
-0.00702828
-0.000375566
-0.0074368
-0.00789218
-0.000492079
3.1684e-05
-0.00125215
6.51687e-05
-0.00318508
6.51322e-05
-0.0045598
2.51842e-05
-0.00539597
-4.44108e-05
-0.00588932
-0.000131721
-0.00623922
-0.000229887
-0.00656642
-0.000336901
-0.00692126
-0.000453311
-0.00732039
-0.00776725
-0.000578241
2.7555e-05
-0.0012797
5.12681e-05
-0.00320879
3.96464e-05
-0.00454817
-1.09834e-05
-0.00534534
-8.96945e-05
-0.00581061
-0.000184904
-0.00614401
-0.000290526
-0.0064608
-0.000405059
-0.00680673
-0.00052937
-0.00719608
-0.00763403
-0.000662594
2.3274e-05
-0.00130297
3.73217e-05
-0.00322284
1.46462e-05
-0.0045255
-4.65777e-05
-0.00528412
-0.000133942
-0.00572325
-0.000236796
-0.00604115
-0.000349706
-0.00634789
-0.000471605
-0.00668483
-0.000603687
-0.007064
-0.00749265
-0.000745064
1.88917e-05
-0.00132187
2.33953e-05
-0.00322734
-1.01981e-05
-0.00449191
-8.13187e-05
-0.005213
-0.000177089
-0.00562748
-0.000287367
-0.00593087
-0.0004074
-0.00622786
-0.000536511
-0.00655572
-0.000676219
-0.00692429
-0.00734336
-0.000825515
1.44559e-05
-0.00133632
9.78144e-06
-0.00322267
-3.51428e-05
-0.00444698
-0.000115321
-0.00513282
-0.000219094
-0.0055237
-0.000336584
-0.00581338
-0.000463583
-0.00610086
-0.000599761
-0.00641954
-0.00074693
-0.00677712
-0.0071865
-0.000903788
9.93432e-06
-0.00134626
-3.39536e-06
-0.00320934
-5.91618e-05
-0.00439121
-0.000148474
-0.00504351
-0.000259934
-0.00541224
-0.000384423
-0.00568889
-0.000518231
-0.00596705
-0.000661343
-0.00627643
-0.000815819
-0.00662264
-0.00702229
-0.000980033
5.20764e-06
-0.00135146
-1.82301e-05
-0.0031859
-8.27532e-05
-0.00432669
-0.000180698
-0.00494556
-0.000299576
-0.00529337
-0.000430858
-0.00555761
-0.000571326
-0.00582658
-0.000721258
-0.0061265
-0.000882943
-0.00646096
-0.00685055
-0.00105468
3.44749e-08
-0.0013515
-3.20517e-05
-0.00315381
-0.000105765
-0.00425298
-0.000211956
-0.00483937
-0.000337982
-0.00516734
-0.000475864
-0.00541973
-0.000622869
-0.00567958
-0.000779571
-0.00596979
-0.000948203
-0.00629233
-0.00667147
-0.00112728
-4.28677e-06
-0.00134721
-4.54224e-05
-0.00311268
-0.000128137
-0.00417026
-0.000242223
-0.00472528
-0.000375124
-0.00503444
-0.00051941
-0.00527544
-0.000672865
-0.00552612
-0.000836392
-0.00580627
-0.00101123
-0.00611749
-0.00648567
-0.00119702
-8.87652e-06
-0.00133834
-5.84415e-05
-0.00306311
-0.000149829
-0.00407888
-0.000271473
-0.00460364
-0.000410975
-0.00489494
-0.000561464
-0.00512495
-0.000721248
-0.00536634
-0.000891574
-0.00563594
-0.00107385
-0.00593522
-0.00630303
-0.00125649
-1.34443e-05
-0.00132489
-7.11097e-05
-0.00300545
-0.000170802
-0.00397918
-0.000299671
-0.00447477
-0.000445508
-0.0047491
-0.000601997
-0.00496847
-0.000767886
-0.00520045
-0.000943863
-0.00545996
-0.00112655
-0.00575253
-0.00609314
-0.00133644
-1.79482e-05
-0.00130694
-8.34274e-05
-0.00293997
-0.000191053
-0.00387156
-0.000326818
-0.00433901
-0.000478733
-0.00459719
-0.000641011
-0.00480619
-0.000812638
-0.00502882
-0.000993797
-0.0052788
-0.00118405
-0.00556228
-0.00588135
-0.00139583
-2.23587e-05
-0.00128458
-9.53617e-05
-0.00286696
-0.000210552
-0.00375637
-0.00035289
-0.00419667
-0.00051063
-0.00443945
-0.000678483
-0.00463833
-0.000855648
-0.00485166
-0.00104246
-0.00509199
-0.0012401
-0.00536464
-0.00566637
-0.00145508
-2.66594e-05
-0.00125793
-0.000106889
-0.00278673
-0.00022928
-0.00363398
-0.000377875
-0.00404807
-0.000541186
-0.00427614
-0.000714388
-0.00446513
-0.000896879
-0.00466917
-0.00108921
-0.00489966
-0.00129304
-0.00516081
-0.00544735
-0.00151206
-3.08366e-05
-0.00122709
-0.000117989
-0.00269958
-0.000247221
-0.00350475
-0.000401761
-0.00389353
-0.000570394
-0.0041075
-0.00074872
-0.00428681
-0.000936344
-0.00448154
-0.00113402
-0.00470199
-0.00134343
-0.0049514
-0.00522394
-0.00156684
-3.48782e-05
-0.00119221
-0.000128643
-0.00260582
-0.000264363
-0.00336903
-0.000424542
-0.00373335
-0.000598244
-0.0039338
-0.000781472
-0.00410358
-0.000974024
-0.00428899
-0.00117679
-0.00449922
-0.00139138
-0.00473681
-0.00499599
-0.00161933
-3.87732e-05
-0.00115344
-0.000138834
-0.00250576
-0.000280692
-0.00322717
-0.000446209
-0.00356784
-0.000624733
-0.00375528
-0.000812638
-0.00391567
-0.00100991
-0.00409172
-0.00121752
-0.00429161
-0.001437
-0.00451733
-0.00476347
-0.00166952
-4.25114e-05
-0.00111093
-0.000148548
-0.00239972
-0.000296201
-0.00307952
-0.000466758
-0.00339728
-0.000649854
-0.00357218
-0.000842212
-0.00372331
-0.00104397
-0.00388996
-0.0012562
-0.00407939
-0.00148032
-0.0042932
-0.00452643
-0.00171736
-4.60839e-05
-0.00106484
-0.000157772
-0.00228803
-0.000310879
-0.00292641
-0.000486183
-0.00322197
-0.000673603
-0.00338476
-0.000870186
-0.00352673
-0.00107622
-0.00368393
-0.00129281
-0.0038628
-0.00152136
-0.00406465
-0.00428499
-0.00176281
-4.94822e-05
-0.00101536
-0.000166497
-0.00217102
-0.000324719
-0.00276819
-0.000504481
-0.00304221
-0.000695977
-0.00319326
-0.000896555
-0.00332615
-0.00110663
-0.00347385
-0.00132736
-0.00364207
-0.00156011
-0.00383189
-0.00403928
-0.00180583
-5.26989e-05
-0.000962661
-0.000174711
-0.002049
-0.000337716
-0.00260518
-0.000521648
-0.00285828
-0.000716973
-0.00299794
-0.000921313
-0.00312181
-0.0011352
-0.00325996
-0.00135983
-0.00341744
-0.00159657
-0.00359515
-0.00378948
-0.00184637
-5.57274e-05
-0.000906933
-0.000182408
-0.00192232
-0.000349865
-0.00243772
-0.000537682
-0.00267046
-0.000736586
-0.00279904
-0.000944453
-0.00291395
-0.00116192
-0.00304249
-0.00139021
-0.00318915
-0.00163071
-0.00335466
-0.0035358
-0.00188439
-5.85617e-05
-0.000848372
-0.00018958
-0.00179131
-0.00036116
-0.00226614
-0.00055258
-0.00247904
-0.000754814
-0.0025968
-0.000965969
-0.00270279
-0.00118678
-0.00282169
-0.00141849
-0.00295743
-0.00166251
-0.00311064
-0.00327847
-0.00191984
-6.11964e-05
-0.000787175
-0.00019622
-0.00165628
-0.000371598
-0.00209077
-0.000566339
-0.0022843
-0.000771654
-0.00239149
-0.000985857
-0.00248859
-0.00120976
-0.00259778
-0.00144466
-0.00272253
-0.00169196
-0.00286334
-0.00301773
-0.0019527
-6.36268e-05
-0.000723548
-0.000202324
-0.00151758
-0.000381177
-0.00191191
-0.000578959
-0.00208652
-0.000787101
-0.00218334
-0.00100411
-0.00227158
-0.00123087
-0.00237102
-0.0014687
-0.0024847
-0.00171902
-0.00261302
-0.00275383
-0.00198292
-6.58486e-05
-0.0006577
-0.000207886
-0.00137555
-0.000389892
-0.00172991
-0.000590437
-0.00188597
-0.000801155
-0.00197263
-0.00102072
-0.00205202
-0.00125008
-0.00214166
-0.0014906
-0.00224419
-0.00174368
-0.00235994
-0.00248703
-0.00201048
-6.78581e-05
-0.000589842
-0.000212903
-0.0012305
-0.000397742
-0.00154507
-0.000600772
-0.00168294
-0.000813811
-0.00175959
-0.00103569
-0.00183014
-0.0012674
-0.00190994
-0.00151034
-0.00200126
-0.00176593
-0.00210435
-0.00221762
-0.00203534
-6.9652e-05
-0.00052019
-0.00021737
-0.00108278
-0.000404724
-0.00135772
-0.000609961
-0.00147771
-0.000825067
-0.00154448
-0.001049
-0.00160621
-0.00128282
-0.00167612
-0.00152791
-0.00175616
-0.00178574
-0.00184652
-0.00194586
-0.00205749
-7.12276e-05
-0.000448962
-0.000221285
-0.000932726
-0.000410836
-0.00116817
-0.000618004
-0.00127054
-0.000834921
-0.00132756
-0.00106066
-0.00138047
-0.00129632
-0.00144046
-0.00154331
-0.00150917
-0.0018031
-0.00158674
-0.00167205
-0.00207691
-7.25823e-05
-0.00037638
-0.000224646
-0.000780663
-0.000416078
-0.000976733
-0.0006249
-0.00106172
-0.000843371
-0.00110909
-0.00107066
-0.00115317
-0.0013079
-0.00120322
-0.00155653
-0.00126055
-0.001818
-0.00132527
-0.00139648
-0.00209358
-7.37142e-05
-0.000302666
-0.000227449
-0.000626929
-0.000420447
-0.000783734
-0.000630647
-0.000851519
-0.000850414
-0.000889325
-0.001079
-0.000924589
-0.00131756
-0.000964655
-0.00156755
-0.00101056
-0.00183043
-0.00106238
-0.00111943
-0.00210748
-7.46215e-05
-0.000228044
-0.000229693
-0.000471858
-0.000423943
-0.000589483
-0.000635244
-0.000640217
-0.000856049
-0.000668521
-0.00108567
-0.000694966
-0.0013253
-0.000725031
-0.00157637
-0.000759483
-0.00184038
-0.000798376
-0.000841195
-0.00211861
-7.5303e-05
-0.000152741
-0.000231376
-0.000315784
-0.000426565
-0.000394295
-0.000638692
-0.00042809
-0.000860275
-0.000446937
-0.00109068
-0.000464565
-0.0013311
-0.000484612
-0.00158299
-0.000507586
-0.00184785
-0.00053352
-0.000562076
-0.00212697
-7.57576e-05
-7.69836e-05
-0.000232499
-0.000159043
-0.000428312
-0.000198481
-0.000640989
-0.000215413
-0.000863091
-0.000224835
-0.00109401
-0.000233644
-0.00133496
-0.000243662
-0.00158741
-0.000255142
-0.00185283
-0.000268099
-0.000282365
-0.00213254
-7.59847e-05
-9.98945e-07
-0.000233059
-1.96875e-06
-0.000429184
-2.35643e-06
-0.000642135
-2.46195e-06
-0.000864496
-2.47437e-06
-0.00109568
-2.46507e-06
-0.00133689
-2.44804e-06
-0.00158961
-2.42476e-06
-0.00185531
-2.39536e-06
-2.35631e-06
-0.00213532
-7.5984e-05
7.49851e-05
-0.000233057
0.000155104
-0.000429181
0.000193767
-0.000642131
0.000210488
-0.00086449
0.000219885
-0.00109567
0.000228713
-0.00133688
0.000238765
-0.0015896
0.000250291
-0.0018553
0.000263307
0.00027765
-0.00213531
-7.57557e-05
0.000150741
-0.000232493
0.000311842
-0.000428302
0.000389576
-0.000640975
0.000423161
-0.000863073
0.000441983
-0.00109399
0.00045963
-0.00133494
0.000479711
-0.00158738
0.000502732
-0.00185279
0.000528726
0.000557359
-0.0021325
-7.52999e-05
0.000226041
-0.000231367
0.000467909
-0.000426548
0.000584757
-0.000638668
0.000635281
-0.000860245
0.00066356
-0.00109064
0.000690025
-0.00133105
0.000720125
-0.00158295
0.000754624
-0.0018478
0.000793577
0.000836474
-0.00212691
-7.46171e-05
0.000300658
-0.000229679
0.000622971
-0.00042392
0.000778998
-0.000635211
0.000846572
-0.000856006
0.000884355
-0.00108562
0.000919639
-0.00132524
0.000959741
-0.00157631
0.00100569
-0.00184031
0.00105758
0.0011147
-0.00211854
-7.37085e-05
0.000374366
-0.000227431
0.000776694
-0.000420417
0.000971983
-0.000630603
0.00105676
-0.000850359
0.00110411
-0.00107893
0.00114821
-0.00131749
0.0011983
-0.00156746
0.00125567
-0.00183034
0.00132045
0.00139175
-0.00210738
-7.25754e-05
0.000446942
-0.000224624
0.000928742
-0.00041604
0.0011634
-0.000624846
0.00126556
-0.000843303
0.00132257
-0.00107058
0.00137549
-0.00130781
0.00143553
-0.00155642
0.00150428
-0.00181788
0.00158191
0.00166731
-0.00209345
-7.12194e-05
0.000518161
-0.00022126
0.00107878
-0.000410792
0.00135293
-0.000617941
0.00147271
-0.00083484
0.00153947
-0.00106056
0.00160121
-0.00129621
0.00167117
-0.00154319
0.00175126
-0.00180296
0.00184169
0.00194112
-0.00207676
-6.96425e-05
0.000587804
-0.000217341
0.00122648
-0.000404672
0.00154026
-0.000609887
0.00167793
-0.000824973
0.00175455
-0.00104889
0.00182513
-0.00128269
0.00190497
-0.00152777
0.00199634
-0.00178558
0.0020995
0.00221286
-0.00205732
-6.78472e-05
0.000655651
-0.00021287
0.0013715
-0.000397683
0.00172507
-0.000600688
0.00188093
-0.000813704
0.00196757
-0.00103556
0.00204698
-0.00126726
0.00213667
-0.00151017
0.00223926
-0.00176575
0.00235507
0.00248226
-0.00203515
-6.58364e-05
0.000721487
-0.000207849
0.00151352
-0.000389825
0.00190705
-0.000590343
0.00208145
-0.000801034
0.00217826
-0.00102058
0.00226652
-0.00124992
0.00236601
-0.00149041
0.00247975
-0.00174348
0.00260814
0.00274904
-0.00201026
-6.36133e-05
0.000785101
-0.000202282
0.00165219
-0.000381102
0.00208587
-0.000578854
0.0022792
-0.000786967
0.00238637
-0.00100395
0.00248351
-0.00123068
0.00259274
-0.00146849
0.00271756
-0.00171879
0.00285844
0.00301293
-0.00198268
-6.11816e-05
0.000846282
-0.000196174
0.00178718
-0.000371516
0.00226121
-0.000566223
0.00247391
-0.000771505
0.00259166
-0.000985678
0.00269768
-0.00120956
0.00281662
-0.00144443
0.00295243
-0.0016917
0.00310572
0.00327366
-0.00195243
-5.85456e-05
0.000904828
-0.000189529
0.00191816
-0.00036107
0.00243275
-0.000552451
0.00266529
-0.000754651
0.00279386
-0.000965773
0.0029088
-0.00118655
0.0030374
-0.00141824
0.00318412
-0.00166224
0.00334971
0.00353097
-0.00191955
-5.57099e-05
0.000960538
-0.000182353
0.0020448
-0.000349766
0.00260017
-0.000537542
0.00285307
-0.000736408
0.00299272
-0.000944238
0.00311663
-0.00116167
0.00325483
-0.00138994
0.00341238
-0.00163041
0.00359018
0.00378462
-0.00188406
-5.26801e-05
0.00101322
-0.000174652
0.00216678
-0.000337609
0.00276313
-0.000521496
0.00303695
-0.000716779
0.003188
-0.00092108
0.00332093
-0.00113493
0.00346869
-0.00135953
0.00363698
-0.00159624
0.00382689
0.0040344
-0.00184601
-4.9462e-05
0.00106268
-0.000166432
0.00228375
-0.000324604
0.0029213
-0.000504316
0.00321667
-0.000695767
0.00337946
-0.000896303
0.00352147
-0.00110634
0.00367872
-0.00132703
0.00385767
-0.00155976
0.00405962
0.00428008
-0.00180544
-4.60624e-05
0.00110874
-0.000157703
0.00239539
-0.000310754
0.00307435
-0.000486005
0.00339192
-0.000673377
0.00356683
-0.000869914
0.00371801
-0.00107591
0.00388472
-0.00129246
0.00407422
-0.00152097
0.00428814
0.0045215
-0.00176239
-4.24887e-05
0.00115123
-0.000148474
0.00250137
-0.000296067
0.00322194
-0.000466567
0.00356242
-0.00064961
0.00374987
-0.000841919
0.00391032
-0.00104364
0.00408643
-0.00125582
0.0042864
-0.00147991
0.00451223
0.00475851
-0.00171691
-3.87491e-05
0.00118998
-0.000138755
0.00260138
-0.00028055
0.00336373
-0.000446005
0.00372787
-0.000624471
0.00392834
-0.000812325
0.00409817
-0.00100954
0.00428365
-0.00121711
0.00449397
-0.00143655
0.00473167
0.00499099
-0.00166904
-3.4853e-05
0.00122483
-0.00012856
0.00269509
-0.00026421
0.00349939
-0.000424323
0.00388798
-0.000597965
0.00410198
-0.000781137
0.00428134
-0.000973637
0.00447615
-0.00117636
0.00469669
-0.0013909
0.00494621
0.0052189
-0.00161881
-3.08102e-05
0.00125564
-0.000117901
0.00278218
-0.000247059
0.00362854
-0.000401528
0.00404245
-0.000570096
0.00427055
-0.000748362
0.00445961
-0.00093593
0.00466372
-0.00113355
0.00489431
-0.00134292
0.00515558
0.00544227