/*--------------------------------*- C++ -*----------------------------------*\
  =========                 |
  \\      /  F ield         | OpenFOAM: The Open Source CFD Toolbox
   \\    /   O peration     | Website:  https://openfoam.org
    \\  /    A nd           | Version:  7
     \\/     M anipulation  |
\*---------------------------------------------------------------------------*/
FoamFile
{
    version     2.0;
    format      ascii;
    class       volScalarField;
    location    "100";
    object      p;
}
// * * * * * * * * * * * * * * * * * * * * * * * * * * * * * * * * * * * * * //

dimensions      [0 2 -2 0 0 0 0];

internalField   nonuniform List<scalar> 
8500
(
-0.447031
-0.450081
-0.447998
-0.453235
-0.450966
-0.4489
-0.456508
-0.454043
-0.451793
-0.459912
-0.457238
-0.454801
-0.4521
-0.463458
-0.460562
-0.457933
-0.45502
-0.451902
-0.467155
-0.464024
-0.461196
-0.458069
-0.454721
-0.45124
-0.471011
-0.467629
-0.464598
-0.461254
-0.457674
-0.453944
-0.450059
-0.475031
-0.471384
-0.468144
-0.46458
-0.460765
-0.456783
-0.452619
-0.448202
-0.479219
-0.475292
-0.471837
-0.46805
-0.463997
-0.459759
-0.455308
-0.45056
-0.445374
-0.483574
-0.479354
-0.47568
-0.471666
-0.467372
-0.462871
-0.458123
-0.453028
-0.447432
-0.441134
-0.488097
-0.48357
-0.479671
-0.475428
-0.470889
-0.466118
-0.461059
-0.455597
-0.449564
-0.442755
-0.434961
-0.492783
-0.487937
-0.48381
-0.479334
-0.474545
-0.469495
-0.46411
-0.458258
-0.451758
-0.444402
-0.435989
-0.426372
-0.41548
-0.497627
-0.492453
-0.488093
-0.483381
-0.478336
-0.472997
-0.467268
-0.461
-0.454
-0.446059
-0.436993
-0.426679
-0.415089
-0.402292
-0.502622
-0.497109
-0.492515
-0.487564
-0.482255
-0.476614
-0.470521
-0.463808
-0.456273
-0.447709
-0.437952
-0.426915
-0.41461
-0.401148
-0.386721
-0.507757
-0.501899
-0.497067
-0.491873
-0.486294
-0.480336
-0.473855
-0.466666
-0.458557
-0.449332
-0.43885
-0.427063
-0.414029
-0.399902
-0.384902
-0.369285
-0.353284
-0.513021
-0.506811
-0.501741
-0.496301
-0.490442
-0.48415
-0.477255
-0.469554
-0.460832
-0.450905
-0.439665
-0.427107
-0.413334
-0.398543
-0.382981
-0.366915
-0.350582
-0.334236
-0.518397
-0.511833
-0.506524
-0.500834
-0.494685
-0.488039
-0.480701
-0.472451
-0.463075
-0.452408
-0.440379
-0.427029
-0.412513
-0.397062
-0.380949
-0.364449
-0.347795
-0.331222
-0.314694
-0.299102
-0.52387
-0.516951
-0.511402
-0.505458
-0.499007
-0.491986
-0.484173
-0.475334
-0.465261
-0.453816
-0.440969
-0.426814
-0.411551
-0.395449
-0.378799
-0.361879
-0.344917
-0.328126
-0.311478
-0.295776
-0.529421
-0.522146
-0.516359
-0.510156
-0.503391
-0.49597
-0.487647
-0.478178
-0.467366
-0.455106
-0.441417
-0.426445
-0.410437
-0.393694
-0.376522
-0.359197
-0.341939
-0.324938
-0.308174
-0.292363
-0.535027
-0.527399
-0.521376
-0.51491
-0.507813
-0.499966
-0.491096
-0.480954
-0.469362
-0.456253
-0.4417
-0.425905
-0.409157
-0.391786
-0.374108
-0.356394
-0.338852
-0.32165
-0.304773
-0.288855
-0.540665
-0.532689
-0.526431
-0.519695
-0.512252
-0.503949
-0.494493
-0.483635
-0.471221
-0.457232
-0.441799
-0.425177
-0.407699
-0.389715
-0.371548
-0.353461
-0.335648
-0.318253
-0.301266
-0.285243
-0.546308
-0.537991
-0.5315
-0.524489
-0.516679
-0.50789
-0.497807
-0.486189
-0.472915
-0.458019
-0.441693
-0.424246
-0.406049
-0.38747
-0.368833
-0.350389
-0.332317
-0.314737
-0.297646
-0.281519
-0.551928
-0.543278
-0.536558
-0.529263
-0.521067
-0.511758
-0.501006
-0.488584
-0.474414
-0.458589
-0.441362
-0.423096
-0.404195
-0.385041
-0.365953
-0.347168
-0.328849
-0.311095
-0.293902
-0.277676
-0.557493
-0.548522
-0.541575
-0.533988
-0.525383
-0.515519
-0.504056
-0.49079
-0.475691
-0.458917
-0.440786
-0.421711
-0.402125
-0.382416
-0.362897
-0.343789
-0.325236
-0.307315
-0.290028
-0.273705
-0.56297
-0.55369
-0.54652
-0.538632
-0.529594
-0.519138
-0.506922
-0.492772
-0.476715
-0.458979
-0.439947
-0.420077
-0.399825
-0.379584
-0.359654
-0.34024
-0.321466
-0.30339
-0.286014
-0.2696
-0.568325
-0.55875
-0.551359
-0.54316
-0.533663
-0.522578
-0.509568
-0.494497
-0.477459
-0.458753
-0.438825
-0.418177
-0.397283
-0.376534
-0.356215
-0.336513
-0.317532
-0.299311
-0.281853
-0.265352
-0.573519
-0.563666
-0.556057
-0.547534
-0.537553
-0.525802
-0.511958
-0.495933
-0.477893
-0.458214
-0.437403
-0.415999
-0.394488
-0.373255
-0.352569
-0.332596
-0.313422
-0.295067
-0.277535
-0.260954
-0.578514
-0.568401
-0.560576
-0.551717
-0.541223
-0.52877
-0.514053
-0.497046
-0.477991
-0.457341
-0.435663
-0.413527
-0.391426
-0.369735
-0.348705
-0.32848
-0.309128
-0.290651
-0.273054
-0.2564
-0.583268
-0.572915
-0.564877
-0.555668
-0.544634
-0.531441
-0.515818
-0.497803
-0.477725
-0.456114
-0.433589
-0.410748
-0.388086
-0.365964
-0.344613
-0.324156
-0.30464
-0.286055
-0.268402
-0.251683
-0.587741
-0.577167
-0.568918
-0.559345
-0.547742
-0.533775
-0.517214
-0.498174
-0.47707
-0.45451
-0.431164
-0.407648
-0.384456
-0.361932
-0.340283
-0.319612
-0.299949
-0.281269
-0.263571
-0.246797
-0.591888
-0.581115
-0.572658
-0.562706
-0.550506
-0.535732
-0.518206
-0.498127
-0.476002
-0.452512
-0.428372
-0.404215
-0.380524
-0.357626
-0.335705
-0.314841
-0.295047
-0.276286
-0.258554
-0.241735
-0.595665
-0.584717
-0.576052
-0.565706
-0.552882
-0.537271
-0.518758
-0.497633
-0.474496
-0.450101
-0.4252
-0.400435
-0.37628
-0.353037
-0.330868
-0.309833
-0.289926
-0.2711
-0.253345
-0.236493
-0.599029
-0.587929
-0.579057
-0.568301
-0.554828
-0.538353
-0.518835
-0.496663
-0.472531
-0.447258
-0.421633
-0.396298
-0.371712
-0.348155
-0.325764
-0.304579
-0.284577
-0.265702
-0.247938
-0.231064
-0.601935
-0.590706
-0.581628
-0.570448
-0.556301
-0.53894
-0.518405
-0.495191
-0.470085
-0.443969
-0.417657
-0.391791
-0.366811
-0.342971
-0.320384
-0.29907
-0.278993
-0.260086
-0.242326
-0.225445
-0.604337
-0.593004
-0.583721
-0.572101
-0.557258
-0.538992
-0.517436
-0.493192
-0.467139
-0.440217
-0.41326
-0.386904
-0.361566
-0.337474
-0.314719
-0.2933
-0.273167
-0.254246
-0.236505
-0.21963
-0.60619
-0.594779
-0.585291
-0.573218
-0.55766
-0.538476
-0.515898
-0.490642
-0.463675
-0.435989
-0.408431
-0.381627
-0.355968
-0.331657
-0.308761
-0.287261
-0.267093
-0.248176
-0.230469
-0.213616
-0.607452
-0.595988
-0.586295
-0.573756
-0.557468
-0.537355
-0.513764
-0.48752
-0.459677
-0.431271
-0.403159
-0.37595
-0.350009
-0.325512
-0.302503
-0.280947
-0.260764
-0.241872
-0.224215
-0.2074
-0.608079
-0.596587
-0.586691
-0.573675
-0.556642
-0.535599
-0.511007
-0.483805
-0.455129
-0.426052
-0.397435
-0.369864
-0.34368
-0.319031
-0.295938
-0.27435
-0.254176
-0.235328
-0.217738
-0.200977
-0.60803
-0.596535
-0.586436
-0.572934
-0.555149
-0.533178
-0.507604
-0.479481
-0.450018
-0.420322
-0.391248
-0.363363
-0.336975
-0.312208
-0.28906
-0.267467
-0.247324
-0.228541
-0.211035
-0.194346
-0.607265
-0.595793
-0.585492
-0.571495
-0.552955
-0.530064
-0.503534
-0.47453
-0.444332
-0.414071
-0.384592
-0.356438
-0.329887
-0.305036
-0.281864
-0.260292
-0.240204
-0.221506
-0.204104
-0.187504
-0.605746
-0.594322
-0.583821
-0.569325
-0.550028
-0.526231
-0.498778
-0.46894
-0.438062
-0.407291
-0.377461
-0.349084
-0.322411
-0.297511
-0.274346
-0.252821
-0.232812
-0.214223
-0.196941
-0.18045
-0.603438
-0.592085
-0.581387
-0.56639
-0.546341
-0.521659
-0.493319
-0.462699
-0.431198
-0.399975
-0.369847
-0.341296
-0.314542
-0.289629
-0.266501
-0.245051
-0.225145
-0.206687
-0.189548
-0.173187
-0.600307
-0.58905
-0.578157
-0.562659
-0.541868
-0.516327
-0.487144
-0.455797
-0.423734
-0.392119
-0.361748
-0.33307
-0.306276
-0.281386
-0.258327
-0.23698
-0.217202
-0.198899
-0.181925
-0.165715
-0.596322
-0.585185
-0.574101
-0.558106
-0.536588
-0.510218
-0.480241
-0.448227
-0.415665
-0.383719
-0.353159
-0.324403
-0.297611
-0.272781
-0.249822
-0.228606
-0.208981
-0.190856
-0.174067
-0.158018
-0.591456
-0.580461
-0.569192
-0.552707
-0.53048
-0.50332
-0.472601
-0.439982
-0.406987
-0.374772
-0.344079
-0.315293
-0.288545
-0.263811
-0.240985
-0.219927
-0.200482
-0.182558
-0.165964
-0.150056
-0.585684
-0.574853
-0.563406
-0.54644
-0.52353
-0.49562
-0.464217
-0.43106
-0.397698
-0.365278
-0.334508
-0.30574
-0.279078
-0.254476
-0.231816
-0.210946
-0.191706
-0.174006
-0.157613
-0.14182
-0.578985
-0.568338
-0.556721
-0.539288
-0.515723
-0.487112
-0.455087
-0.421459
-0.3878
-0.355236
-0.324445
-0.295745
-0.26921
-0.244777
-0.222315
-0.201663
-0.182655
-0.165203
-0.149036
-0.133507
-0.571339
-0.560899
-0.54912
-0.531238
-0.507051
-0.47779
-0.445207
-0.411181
-0.377292
-0.344648
-0.313892
-0.285308
-0.258943
-0.234717
-0.212485
-0.192079
-0.173331
-0.15615
-0.140231
-0.124993
-0.562733
-0.55252
-0.54059
-0.522278
-0.497507
-0.467652
-0.43458
-0.400227
-0.366179
-0.333519
-0.302854
-0.274433
-0.248281
-0.224297
-0.202328
-0.182198
-0.163736
-0.146852
-0.131206
-0.116264
-0.553154
-0.543188
-0.53112
-0.512401
-0.487089
-0.456699
-0.423209
-0.388602
-0.354466
-0.321853
-0.291334
-0.263124
-0.237225
-0.213521
-0.191848
-0.172024
-0.153875
-0.137311
-0.121962
-0.107326
-0.542597
-0.532895
-0.520702
-0.501604
-0.475797
-0.444935
-0.411099
-0.376314
-0.34216
-0.309657
-0.279338
-0.251387
-0.225783
-0.202395
-0.18105
-0.161561
-0.143751
-0.127532
-0.1125
-0.0981869
-0.531056
-0.521637
-0.509335
-0.489887
-0.463634
-0.432367
-0.39826
-0.363372
-0.329269
-0.296938
-0.266873
-0.239229
-0.21396
-0.190924
-0.16994
-0.150814
-0.13337
-0.11752
-0.102826
-0.0888525
-0.518531
-0.509414
-0.497018
-0.477254
-0.450608
-0.419003
-0.3847
-0.349785
-0.315804
-0.283706
-0.253949
-0.226656
-0.201764
-0.179115
-0.158523
-0.13979
-0.122738
-0.10728
-0.0929434
-0.0793294
-0.505027
-0.496226
-0.483757
-0.463711
-0.436728
-0.404856
-0.370435
-0.335566
-0.301775
-0.269971
-0.240574
-0.213679
-0.189202
-0.166977
-0.146809
-0.128496
-0.111862
-0.0968198
-0.0828594
-0.0696241
-0.490549
-0.482082
-0.469558
-0.44927
-0.422006
-0.389939
-0.355477
-0.32073
-0.287197
-0.255747
-0.226761
-0.200308
-0.176286
-0.154518
-0.134805
-0.116941
-0.10075
-0.0861454
-0.0725807
-0.0597437
-0.475109
-0.46699
-0.454433
-0.433942
-0.40646
-0.37427
-0.339844
-0.305293
-0.272084
-0.241045
-0.212521
-0.186554
-0.163025
-0.141749
-0.122521
-0.105132
-0.0894091
-0.0752652
-0.0621151
-0.0496955
-0.45872
-0.450965
-0.438397
-0.417746
-0.390107
-0.357869
-0.323555
-0.289274
-0.256454
-0.225882
-0.197869
-0.17243
-0.149432
-0.12868
-0.109967
-0.0930812
-0.0778501
-0.0641881
-0.0514711
-0.0394877
-0.441401
-0.434024
-0.421468
-0.400702
-0.372968
-0.340756
-0.306632
-0.272689
-0.240323
-0.210275
-0.182819
-0.157949
-0.135519
-0.115325
-0.0971554
-0.0807981
-0.0660828
-0.0529236
-0.0406579
-0.0291288
-0.423172
-0.416185
-0.403667
-0.382831
-0.355068
-0.322957
-0.289095
-0.255562
-0.223711
-0.194239
-0.167388
-0.143128
-0.1213
-0.101695
-0.0840981
-0.0682948
-0.0541182
-0.0414821
-0.0296854
-0.0186283
-0.404058
-0.397474
-0.385018
-0.36416
-0.336433
-0.304498
-0.270968
-0.237916
-0.206639
-0.177795
-0.151592
-0.127982
-0.106791
-0.0878055
-0.0708083
-0.0555837
-0.0419682
-0.0298747
-0.0185643
-0.00799647
-0.384085
-0.377917
-0.36555
-0.344718
-0.317093
-0.285399
-0.252283
-0.219773
-0.189129
-0.160962
-0.135451
-0.112527
-0.0920062
-0.0736707
-0.0573
-0.0426781
-0.0296454
-0.0181135
-0.00730608
0.00275572
-0.363284
-0.357543
-0.345292
-0.324537
-0.297079
-0.265694
-0.233063
-0.201161
-0.171203
-0.143762
-0.118984
-0.0967821
-0.0769637
-0.0593063
-0.0435879
-0.029592
-0.0171632
-0.00621092
0.00407699
0.013616
-0.341687
-0.336386
-0.324278
-0.30365
-0.276411
-0.245424
-0.213339
-0.182105
-0.152888
-0.126218
-0.102212
-0.0807661
-0.0616805
-0.0447288
-0.0296874
-0.0163399
-0.00453552
0.00581955
0.0155717
0.0245708
-0.319329
-0.31448
-0.302545
-0.282083
-0.25514
-0.224613
-0.19314
-0.162634
-0.134208
-0.108351
-0.0851547
-0.0644985
-0.046175
-0.0299551
-0.0156145
-0.00293718
0.00822283
0.017964
0.0271642
-0.296248
-0.291865
-0.280136
-0.25987
-0.233298
-0.203296
-0.1725
-0.142777
-0.11519
-0.0901879
-0.0678359
-0.0479999
-0.0304661
-0.0150029
-0.00138572
0.0106004
0.0210966
0.0302078
-0.272482
-0.268579
-0.257061
-0.237085
-0.210925
-0.181511
-0.151452
-0.122564
-0.0958612
-0.0717526
-0.0502783
-0.0312917
-0.0145734
0.000109532
0.012982
0.0242569
0.0340702
-0.248066
-0.244673
-0.23339
-0.213744
-0.188058
-0.159294
-0.130029
-0.102027
-0.0762509
-0.0530714
-0.0325058
-0.0143957
0.00148288
0.0153637
0.0274715
0.038016
-0.223037
-0.220201
-0.20917
-0.189891
-0.16474
-0.136685
-0.108268
-0.0811991
-0.0563885
-0.0341715
-0.0145433
0.00266529
0.0176819
0.0307406
0.0420654
0.0518616
-0.197489
-0.195178
-0.184443
-0.165575
-0.141013
-0.113723
-0.086205
-0.0601121
-0.0363041
-0.0150805
0.00358407
0.0198681
0.0340024
0.046221
0.0567462
-0.171482
-0.169637
-0.159252
-0.140839
-0.11692
-0.0904476
-0.0638768
-0.0388007
-0.0160289
0.00417319
0.0218501
0.037189
0.0504228
0.0617851
-0.145024
-0.143657
-0.133647
-0.115733
-0.0925067
-0.0669014
-0.0413217
-0.0172996
0.00440535
0.0235605
0.0402283
0.0546034
0.0669206
0.0774131
-0.118163
-0.117293
-0.107679
-0.0903032
-0.0678176
-0.0431264
-0.0185785
0.00435599
0.0249664
0.0430518
0.0586913
0.0720864
0.0834733
-0.0909589
-0.0905952
-0.0813973
-0.0645999
-0.0428996
-0.0191653
0.00431377
0.02613
0.0456213
0.0626169
0.0772115
0.0896125
0.100057
-0.0634677
-0.0636165
-0.0548559
-0.0386732
-0.0177997
0.00493845
0.0273151
0.0479862
0.0663368
0.0822253
0.0957606
0.107156
-0.0357425
-0.036409
-0.0281064
-0.012573
0.00743499
0.0291411
0.0503855
0.0698876
0.0870791
0.101846
0.11431
-0.00784051
-0.00902802
-0.00120289
0.013649
0.0327564
0.0533984
0.0734843
0.0917972
0.107814
0.121447
0.132831
0.0201815
0.018471
0.0258003
0.0399413
0.0581164
0.077666
0.0965708
0.113678
0.128508
0.140998
0.0482664
0.0460322
0.0528489
0.0662523
0.0834668
0.101899
0.119604
0.135492
0.149125
0.160466
0.0763571
0.0735994
0.0798883
0.09253
0.108759
0.126054
0.142544
0.157202
0.169633
0.17982
0.104396
0.101116
0.106864
0.118723
0.133945
0.150086
0.165349
0.178771
0.189996
0.132326
0.128527
0.133721
0.144779
0.158977
0.17395
0.187979
0.200161
0.21018
0.160091
0.155774
0.160405
0.170647
0.183808
0.197603
0.210394
0.221336
0.187632
0.182803
0.186862
0.196275
0.208388
0.221002
0.232553
0.242259
0.214894
0.209557
0.213039
0.221615
0.232673
0.244102
0.254418
0.241821
0.235983
0.238883
0.246615
0.256615
0.266862
0.275948
0.268357
0.262025
0.264341
0.271226
0.28017
0.289239
0.297106
0.294449
0.287631
0.289362
0.2954
0.303291
0.311193
0.320043
0.312748
0.313896
0.31909
0.325936
0.332683
0.345087
0.337323
0.337893
0.34225
0.348061
0.35367
0.369528
0.361308
0.361304
0.364832
0.369624
0.393318
0.384653
0.384084
0.386795
0.390585
0.416407
0.40731
0.406185
0.408094
0.410904
0.438749
0.429233
0.427564
0.428689
0.430542
0.460298
0.450377
0.448178
0.448538
0.481009
0.470699
0.467985
0.467604
0.500841
0.490157
0.486945
0.485848
0.519753
0.508712
0.505021
0.503237
0.537706
0.526325
0.522177
0.519734
0.554663
0.542962
0.538377
0.570591
0.558587
0.55359
0.585455
0.573169
0.567785
0.599227
0.586678
0.580934
0.611877
0.599086
0.593009
0.62338
0.610369
0.603987
0.633711
0.620501
0.613846
0.64285
0.629463
0.622565
0.650777
0.637237
0.630127
0.657476
0.643804
0.662932
0.649153
0.667134
0.653271
0.670072
0.656148
0.67174
0.65778
0.672134
0.65816
0.671251
0.657288
0.669093
0.655165
0.665663
0.651793
0.660966
0.647179
0.655011
0.64133
0.647809
0.634257
0.639373
0.625974
0.619197
0.629719
0.616495
0.609979
0.618865
0.605838
0.599615
0.606832
0.594024
0.588124
0.593642
0.581075
0.575527
0.579321
0.567015
0.561847
0.563897
0.551873
0.547112
0.547398
0.535676
0.531348
0.529858
0.518457
0.514585
0.51131
0.500249
0.496856
0.495589
0.491791
0.481086
0.478194
0.477652
0.471338
0.461007
0.458634
0.458846
0.449992
0.440051
0.438216
0.439207
0.427794
0.418259
0.416977
0.418772
0.404789
0.395674
0.394959
0.397579
0.40126
0.381022
0.372341
0.372204
0.375667
0.38038
0.356539
0.348305
0.348758
0.353079
0.358845
0.33139
0.323614
0.324665
0.329857
0.336696
0.343384
0.305624
0.298318
0.299972
0.306046
0.313972
0.321856
0.279293
0.272467
0.274729
0.28169
0.290716
0.299813
0.252449
0.246113
0.248984
0.256836
0.266971
0.277295
0.225147
0.219308
0.222789
0.231533
0.242781
0.254342
0.264697
0.19744
0.192106
0.196195
0.205828
0.218191
0.230996
0.242641
0.169386
0.164562
0.169255
0.179771
0.193247
0.207299
0.220242
0.141039
0.136732
0.142022
0.153413
0.167996
0.183294
0.197538
0.20982
0.112457
0.108671
0.114551
0.126805
0.142485
0.159025
0.174571
0.188152
0.0836987
0.0804376
0.0868966
0.0999978
0.116762
0.134535
0.15138
0.16626
0.178799
0.0548214
0.0520873
0.0591136
0.0730442
0.0908753
0.109869
0.128006
0.144184
0.157983
0.0258836
0.0236783
0.0312579
0.0459967
0.0648741
0.0850725
0.104491
0.12196
0.137019
0.149628
-0.00305593
-0.00473195
0.00338541
0.0189082
0.0388074
0.0601903
0.0808755
0.0996273
0.115939
0.129748
-0.0319386
-0.0330858
-0.024448
-0.00816833
0.0127244
0.0352678
0.0572019
0.0772233
0.0947793
0.109783
-0.0607059
-0.0613259
-0.0521864
-0.0351799
-0.0133254
0.0103505
0.0335117
0.0547864
0.0735752
0.0897642
0.103489
-0.0892995
-0.0893952
-0.0797742
-0.0620735
-0.0392927
-0.0145161
0.00984638
0.0323549
0.0523614
0.0697245
0.0845666
0.0971171
-0.117661
-0.117237
-0.107156
-0.0887965
-0.0651283
-0.0392867
-0.0137524
0.0099667
0.0311731
0.0496959
0.0656437
0.0792409
-0.145732
-0.144795
-0.134276
-0.115296
-0.090783
-0.0639161
-0.0372433
-0.0123403
0.0100447
0.0297103
0.0467497
0.061382
0.0738599
-0.173458
-0.172016
-0.161081
-0.141521
-0.116209
-0.0883595
-0.0605852
-0.0345285
-0.0109891
0.00979929
0.0279138
0.0435671
0.0570111
-0.200778
-0.198846
-0.187518
-0.16742
-0.141357
-0.112573
-0.0837376
-0.0565608
-0.0318946
-0.0100059
0.00916459
0.0258228
0.0402192
0.0526031
-0.227637
-0.225232
-0.213533
-0.192942
-0.16618
-0.136511
-0.10666
-0.0784007
-0.0526381
-0.0296746
-0.00946962
0.00817491
0.0235078
0.0367789
-0.254011
-0.251098
-0.239075
-0.218038
-0.190632
-0.160133
-0.129314
-0.100012
-0.0731867
-0.0491766
-0.0279612
-0.0093512
0.00689994
0.0210427
0.0333158
-0.279866
-0.276387
-0.264097
-0.242661
-0.214667
-0.183395
-0.151659
-0.121359
-0.093508
-0.0684824
-0.0462831
-0.0267308
-0.00958179
0.00541455
0.0184984
0.0298909
-0.305102
-0.301089
-0.288553
-0.266762
-0.238239
-0.206255
-0.173659
-0.142407
-0.11357
-0.087563
-0.0644088
-0.0439396
-0.0259154
-0.0100857
0.00379055
0.0159392
0.0265012
-0.329665
-0.325155
-0.312392
-0.290295
-0.261305
-0.228673
-0.195274
-0.163123
-0.133343
-0.10639
-0.0823126
-0.0609541
-0.0420794
-0.0254386
-0.0107904
0.00209447
0.0133628
-0.353519
-0.348529
-0.335562
-0.313224
-0.283821
-0.25061
-0.216471
-0.183473
-0.152796
-0.124937
-0.0999694
-0.0777514
-0.0580527
-0.040625
-0.0252269
-0.011627
0.000327056
0.0107464
-0.376622
-0.371167
-0.358021
-0.335504
-0.305743
-0.272027
-0.237212
-0.203424
-0.171899
-0.143176
-0.117355
-0.0943091
-0.073815
-0.0556262
-0.0395017
-0.0252091
-0.0125903
-0.00154149
0.00887451
-0.398935
-0.393027
-0.37973
-0.357059
-0.327062
-0.292888
-0.257464
-0.222947
-0.190625
-0.161081
-0.134446
-0.110606
-0.0893464
-0.0704238
-0.053598
-0.0386358
-0.0253739
-0.0137134
-0.00275132
0.00740993
-0.420418
-0.41407
-0.400653
-0.377887
-0.347705
-0.313154
-0.277194
-0.24201
-0.208947
-0.178629
-0.151219
-0.126621
-0.104628
-0.0850002
-0.0674991
-0.0518913
-0.0380085
-0.0257549
-0.0142648
-0.00357131
-0.441036
-0.43426
-0.420753
-0.397947
-0.367632
-0.332801
-0.296372
-0.260585
-0.226837
-0.195795
-0.167652
-0.142333
-0.119641
-0.0993381
-0.081189
-0.0649604
-0.0504793
-0.0376523
-0.0256521
-0.0144457
-0.460756
-0.453562
-0.439994
-0.417203
-0.386825
-0.351783
-0.314968
-0.278643
-0.244272
-0.212557
-0.183726
-0.157725
-0.134367
-0.113421
-0.0946523
-0.0778284
-0.0627725
-0.0493922
-0.0369002
-0.0251996
-0.479546
-0.471948
-0.458345
-0.43562
-0.405252
-0.370072
-0.332955
-0.296155
-0.261227
-0.228892
-0.19942
-0.172778
-0.148791
-0.127234
-0.107874
-0.0904816
-0.0748748
-0.0609621
-0.047997
-0.035821
-0.497378
-0.489388
-0.475777
-0.45317
-0.422882
-0.387642
-0.350286
-0.313117
-0.277681
-0.244781
-0.214715
-0.187474
-0.162895
-0.14076
-0.120841
-0.102906
-0.0867735
-0.0723502
-0.0589312
-0.046299
-0.514229
-0.505859
-0.492266
-0.469825
-0.439686
-0.404469
-0.366958
-0.329482
-0.293611
-0.260203
-0.229594
-0.201797
-0.176665
-0.153988
-0.133539
-0.115091
-0.0984571
-0.0835457
-0.0696923
-0.0566236
-0.530075
-0.52134
-0.50779
-0.485562
-0.455641
-0.420526
-0.382946
-0.345232
-0.308996
-0.275141
-0.244039
-0.215732
-0.190087
-0.166902
-0.145956
-0.127023
-0.109915
-0.0945382
-0.0802707
-0.0667857
-0.5449
-0.535813
-0.522329
-0.500361
-0.470723
-0.435791
-0.398224
-0.360351
-0.32382
-0.289578
-0.258037
-0.229265
-0.203148
-0.179492
-0.15808
-0.138692
-0.121136
-0.105318
-0.0906573
-0.0767769
-0.558689
-0.549265
-0.535869
-0.514203
-0.484914
-0.450243
-0.412772
-0.37482
-0.338065
-0.303499
-0.271573
-0.242383
-0.215835
-0.191745
-0.169902
-0.150088
-0.132112
-0.115877
-0.100844
-0.0865894
-0.57143
-0.561686
-0.548398
-0.527074
-0.498197
-0.463864
-0.426572
-0.388622
-0.351717
-0.31689
-0.284633
-0.255075
-0.228138
-0.203652
-0.181412
-0.161203
-0.142833
-0.126208
-0.110823
-0.0962161
-0.583117
-0.573069
-0.559907
-0.538964
-0.510559
-0.47664
-0.43961
-0.401742
-0.36476
-0.329738
-0.297208
-0.267329
-0.240048
-0.215204
-0.1926
-0.172028
-0.153294
-0.136302
-0.120588
-0.10565
-0.593747
-0.583411
-0.570393
-0.549866
-0.521988
-0.488558
-0.451872
-0.414168
-0.377184
-0.342032
-0.309286
-0.279137
-0.251554
-0.226392
-0.20346
-0.182555
-0.163486
-0.146155
-0.130133
-0.114886
-0.603321
-0.592714
-0.579855
-0.559775
-0.532478
-0.499608
-0.463347
-0.425887
-0.388977
-0.353763
-0.320858
-0.290491
-0.262651
-0.237209
-0.213985
-0.19278
-0.173404
-0.15576
-0.139453
-0.123916
-0.611841
-0.600983
-0.588297
-0.568691
-0.542025
-0.509783
-0.474025
-0.436892
-0.40013
-0.364921
-0.331919
-0.301383
-0.273331
-0.24765
-0.224169
-0.202696
-0.183043
-0.165113
-0.148544
-0.132735
-0.619318
-0.608228
-0.595725
-0.576619
-0.550629
-0.519079
-0.483902
-0.447173
-0.410637
-0.375502
-0.34246
-0.311808
-0.28359
-0.257709
-0.234007
-0.212299
-0.192398
-0.174211
-0.157403
-0.141334
-0.625764
-0.61446
-0.602151
-0.583565
-0.558292
-0.527495
-0.492972
-0.456727
-0.420492
-0.385499
-0.352478
-0.321762
-0.293423
-0.267384
-0.243496
-0.221585
-0.201469
-0.183048
-0.166033
-0.149705
-0.631193
-0.619697
-0.60759
-0.589541
-0.56502
-0.535032
-0.501234
-0.46555
-0.429691
-0.394908
-0.361969
-0.331242
-0.302828
-0.27667
-0.252634
-0.230553
-0.210249
-0.191623
-0.174423
-0.157861
-0.635626
-0.623958
-0.612061
-0.594562
-0.570824
-0.541696
-0.50869
-0.473642
-0.438232
-0.403728
-0.370931
-0.340245
-0.311802
-0.285566
-0.261418
-0.239199
-0.218739
-0.199935
-0.182583
-0.165975
-0.639086
-0.627269
-0.615585
-0.598646
-0.575717
-0.547495
-0.515344
-0.481002
-0.446115
-0.411958
-0.379363
-0.348772
-0.320346
-0.294073
-0.269847
-0.247523
-0.226936
-0.207982
-0.190484
-0.173791
-0.6416
-0.629656
-0.61819
-0.601816
-0.579715
-0.552439
-0.521201
-0.487635
-0.453342
-0.419599
-0.387267
-0.356822
-0.328459
-0.302188
-0.277922
-0.255525
-0.23484
-0.215761
-0.198129
-0.181327
-0.643198
-0.631151
-0.619904
-0.604097
-0.582839
-0.556543
-0.526271
-0.493546
-0.459916
-0.426653
-0.394643
-0.364398
-0.336144
-0.309916
-0.285643
-0.263204
-0.242451
-0.223274
-0.205532
-0.188633
-0.643913
-0.631786
-0.620761
-0.605519
-0.585113
-0.559825
-0.530566
-0.498743
-0.465841
-0.433124
-0.401496
-0.371503
-0.343402
-0.317256
-0.293013
-0.270564
-0.24977
-0.230521
-0.212695
-0.195725
-0.643781
-0.631599
-0.620795
-0.606114
-0.586564
-0.562304
-0.5341
-0.503235
-0.471125
-0.439017
-0.407829
-0.378139
-0.350237
-0.324213
-0.300035
-0.277607
-0.256799
-0.237506
-0.219619
-0.202603
-0.642842
-0.630629
-0.620047
-0.605918
-0.587221
-0.564005
-0.53689
-0.507033
-0.475777
-0.444337
-0.413648
-0.384313
-0.356655
-0.330792
-0.306712
-0.284335
-0.263542
-0.244229
-0.226306
-0.209265
-0.641135
-0.628917
-0.618555
-0.604968
-0.587118
-0.564954
-0.538955
-0.510154
-0.479805
-0.449095
-0.418959
-0.390029
-0.36266
-0.336996
-0.313049
-0.290753
-0.270003
-0.250696
-0.232756
-0.215712
-0.638705
-0.626508
-0.616365
-0.603306
-0.586291
-0.56518
-0.540319
-0.512611
-0.483223
-0.453297
-0.42377
-0.395296
-0.368258
-0.342831
-0.31905
-0.296866
-0.276185
-0.256908
-0.238974
-0.221949
-0.635597
-0.623447
-0.613521
-0.600975
-0.584778
-0.564714
-0.541005
-0.514425
-0.486044
-0.456956
-0.428091
-0.40012
-0.373457
-0.348305
-0.324723
-0.302679
-0.282093
-0.262871
-0.244963
-0.227977
-0.631858
-0.619781
-0.61007
-0.59802
-0.582621
-0.563593
-0.541042
-0.515615
-0.488283
-0.460082
-0.431929
-0.404509
-0.378264
-0.353424
-0.330073
-0.308198
-0.287733
-0.26859
-0.250728
-0.233801
-0.627536
-0.615558
-0.60606
-0.594488
-0.579862
-0.561852
-0.540458
-0.516204
-0.489956
-0.462689
-0.435297
-0.408475
-0.382687
-0.358196
-0.335108
-0.31343
-0.29311
-0.274069
-0.256273
-0.239424
-0.622679
-0.610826
-0.601539
-0.590426
-0.576545
-0.559529
-0.539285
-0.516217
-0.491083
-0.464791
-0.438205
-0.412025
-0.386737
-0.362629
-0.339835
-0.318381
-0.298232
-0.279314
-0.261603
-0.244851
-0.617337
-0.605635
-0.596559
-0.585884
-0.572718
-0.556668
-0.537558
-0.515679
-0.491684
-0.466403
-0.440666
-0.41517
-0.390421
-0.366733
-0.344262
-0.323059
-0.303103
-0.284332
-0.266724
-0.250088
-0.61156
-0.600033
-0.591167
-0.58091
-0.568427
-0.553309
-0.535312
-0.51462
-0.49178
-0.467541
-0.442693
-0.417923
-0.393751
-0.370515
-0.348399
-0.327472
-0.307733
-0.289129
-0.271642
-0.255139
-0.605397
-0.59407
-0.585414
-0.575555
-0.56372
-0.549497
-0.532584
-0.513069
-0.491394
-0.468224
-0.444299
-0.420293
-0.396735
-0.373986
-0.352253
-0.331629
-0.312129
-0.293712
-0.276364
-0.260009
-0.598898
-0.587794
-0.579347
-0.569867
-0.558645
-0.545276
-0.529414
-0.511059
-0.49055
-0.468469
-0.445499
-0.422293
-0.399385
-0.377155
-0.355834
-0.335537
-0.316298
-0.298088
-0.280896
-0.264706
-0.592109
-0.581251
-0.573015
-0.563895
-0.55325
-0.540692
-0.525841
-0.508621
-0.489276
-0.468297
-0.446309
-0.423936
-0.401712
-0.380032
-0.359151
-0.339205
-0.320248
-0.302266
-0.285245
-0.269235
-0.585079
-0.574488
-0.566464
-0.557686
-0.547583
-0.53579
-0.521907
-0.505791
-0.487597
-0.467728
-0.446743
-0.425233
-0.403725
-0.382627
-0.362214
-0.342643
-0.323989
-0.306252
-0.289419
-0.273604
-0.577852
-0.567548
-0.559738
-0.551286
-0.54169
-0.530616
-0.517652
-0.502604
-0.485542
-0.466784
-0.446819
-0.426198
-0.405437
-0.384949
-0.36503
-0.345859
-0.327527
-0.310055
-0.293424
-0.277818
-0.570472
-0.560474
-0.552881
-0.544739
-0.535617
-0.525214
-0.51312
-0.499096
-0.483141
-0.465487
-0.446553
-0.426844
-0.406857
-0.387009
-0.367611
-0.348862
-0.330873
-0.313682
-0.29727
-0.281885
-0.562982
-0.553306
-0.545933
-0.538088
-0.529407
-0.519629
-0.508351
-0.495305
-0.480424
-0.463862
-0.445964
-0.427185
-0.407996
-0.388815
-0.369964
-0.35166
-0.334034
-0.317143
-0.300963
-0.285812
-0.555421
-0.546082
-0.538932
-0.531372
-0.523103
-0.513902
-0.503387
-0.491268
-0.477422
-0.461931
-0.445068
-0.427233
-0.408866
-0.390377
-0.372098
-0.354262
-0.337018
-0.320444
-0.304511
-0.289608
-0.547827
-0.538838
-0.531915
-0.524629
-0.516743
-0.508076
-0.498268
-0.487021
-0.474167
-0.459721
-0.443886
-0.427002
-0.409476
-0.391704
-0.374021
-0.356676
-0.339834
-0.323595
-0.307922
-0.293278
-0.540234
-0.531606
-0.524914
-0.517894
-0.510365
-0.502188
-0.493034
-0.482602
-0.470691
-0.457258
-0.442436
-0.426508
-0.409838
-0.392804
-0.37574
-0.358909
-0.342489
-0.326601
-0.311204
-0.296831
-0.532674
-0.524418
-0.517959
-0.511197
-0.504002
-0.496276
-0.487722
-0.478047
-0.467026
-0.454567
-0.440739
-0.425764
-0.409961
-0.393685
-0.377264
-0.360969
-0.34499
-0.329472
-0.314365
-0.300274
-0.525178
-0.5173
-0.511079
-0.504569
-0.497687
-0.490374
-0.482369
-0.473392
-0.463205
-0.451675
-0.438814
-0.424784
-0.409856
-0.394355
-0.378599
-0.362861
-0.347345
-0.332214
-0.317412
-0.303615
-0.517773
-0.510277
-0.504298
-0.498035
-0.491447
-0.484513
-0.477007
-0.46867
-0.45926
-0.44861
-0.436683
-0.423584
-0.409533
-0.394821
-0.379749
-0.364592
-0.349559
-0.334835
-0.320351
-0.306861
-0.510481
-0.503372
-0.497637
-0.491617
-0.485309
-0.478721
-0.471668
-0.463914
-0.45522
-0.445398
-0.434367
-0.422179
-0.409002
-0.395089
-0.380722
-0.366166
-0.351637
-0.337339
-0.323191
-0.310021
-0.503325
-0.496604
-0.491116
-0.485336
-0.479292
-0.473024
-0.466381
-0.459155
-0.451116
-0.442066
-0.431888
-0.420584
-0.408274
-0.395168
-0.38152
-0.367588
-0.353585
-0.339733
-0.496323
-0.48999
-0.484751
-0.479209
-0.473418
-0.467443
-0.46117
-0.454419
-0.446977
-0.43864
-0.429267
-0.418816
-0.407359
-0.395062
-0.382148
-0.368861
-0.355406
-0.48949
-0.483543
-0.478555
-0.473249
-0.467701
-0.461998
-0.456058
-0.449733
-0.442829
-0.435146
-0.426526
-0.416891
-0.406267
-0.394777
-0.38261
-0.48284
-0.477277
-0.472539
-0.467468
-0.462155
-0.456704
-0.451065
-0.44512
-0.438698
-0.431609
-0.423686
-0.414825
-0.40501
-0.394321
-0.476384
-0.471199
-0.466713
-0.461874
-0.456789
-0.451574
-0.446207
-0.440598
-0.434605
-0.428051
-0.420769
-0.412635
-0.470129
-0.465318
-0.461083
-0.456475
-0.45161
-0.446617
-0.441496
-0.436185
-0.43057
-0.424494
-0.417796
-0.464084
-0.459639
-0.455653
-0.451275
-0.446625
-0.441841
-0.436942
-0.431895
-0.426612
-0.420958
-0.458252
-0.454167
-0.450428
-0.446276
-0.441836
-0.437249
-0.432554
-0.427739
-0.422744
-0.452637
-0.448905
-0.445408
-0.441479
-0.437244
-0.432844
-0.428334
-0.423724
-0.447242
-0.443853
-0.440595
-0.436885
-0.432848
-0.428626
-0.424285
-0.442069
-0.439015
-0.435989
-0.432492
-0.428647
-0.424594
-0.43712
-0.43439
-0.43159
-0.4283
-0.424639
-0.432397
-0.429979
-0.427397
-0.424305
-0.4279
-0.425783
-0.42341
-0.423634
-0.421803
-0.4196
-0.418041
-0.415803
-0.218091
-0.223358
-0.228456
-0.233389
-0.238163
-0.24278
-0.247248
-0.25157
-0.255752
-0.2598
-0.263719
-0.267516
-0.271195
-0.274762
-0.278224
-0.281584
-0.208249
-0.213358
-0.218313
-0.223117
-0.227774
-0.232288
-0.236664
-0.240905
-0.245017
-0.249003
-0.252869
-0.256619
-0.260258
-0.263791
-0.267223
-0.270559
-0.198769
-0.20371
-0.208513
-0.213179
-0.217713
-0.222118
-0.226397
-0.230555
-0.234594
-0.238519
-0.242334
-0.246044
-0.249652
-0.253163
-0.256582
-0.259913
-0.189638
-0.194415
-0.199065