/*--------------------------------*- C++ -*----------------------------------*\
  =========                 |
  \\      /  F ield         | OpenFOAM: The Open Source CFD Toolbox
   \\    /   O peration     | Website:  https://openfoam.org
    \\  /    A nd           | Version:  7
     \\/     M anipulation  |
\*---------------------------------------------------------------------------*/
FoamFile
{
    version     2.0;
    format      ascii;
    class       volScalarField;
    location    "95";
    object      p;
}
// * * * * * * * * * * * * * * * * * * * * * * * * * * * * * * * * * * * * * //

dimensions      [0 2 -2 0 0 0 0];

internalField   nonuniform List<scalar> 
8500
(
-0.380627
-0.383469
-0.381982
-0.386412
-0.384709
-0.383059
-0.389464
-0.387539
-0.3857
-0.392635
-0.390483
-0.388449
-0.386134
-0.395935
-0.393548
-0.391315
-0.388789
-0.386022
-0.399373
-0.396741
-0.394306
-0.391565
-0.388576
-0.385404
-0.402956
-0.40007
-0.397428
-0.39447
-0.391256
-0.387856
-0.384261
-0.406691
-0.403541
-0.400687
-0.39751
-0.394069
-0.390438
-0.386605
-0.382516
-0.410584
-0.407158
-0.404089
-0.40069
-0.397021
-0.393156
-0.389078
-0.384726
-0.379992
-0.414639
-0.410925
-0.407637
-0.404014
-0.400114
-0.396012
-0.391681
-0.387053
-0.382009
-0.376397
-0.418856
-0.414843
-0.411333
-0.407484
-0.403352
-0.399007
-0.394415
-0.389495
-0.384119
-0.378126
-0.371345
-0.423236
-0.418914
-0.415177
-0.411101
-0.406733
-0.40214
-0.397276
-0.392047
-0.386313
-0.379907
-0.37266
-0.364436
-0.355161
-0.427776
-0.423136
-0.41917
-0.414864
-0.410257
-0.40541
-0.400261
-0.394701
-0.388581
-0.381728
-0.373977
-0.36521
-0.355378
-0.344515
-0.432473
-0.427504
-0.423307
-0.41877
-0.413921
-0.40881
-0.40336
-0.397447
-0.39091
-0.383573
-0.375281
-0.365937
-0.355522
-0.344103
-0.331825
-0.437319
-0.432015
-0.427585
-0.422815
-0.417719
-0.412334
-0.406565
-0.400273
-0.393284
-0.385425
-0.376555
-0.366602
-0.355579
-0.343592
-0.330811
-0.317452
-0.303725
-0.442306
-0.43666
-0.431996
-0.426992
-0.421642
-0.415971
-0.409863
-0.403161
-0.395686
-0.387266
-0.37778
-0.367187
-0.355537
-0.342971
-0.329687
-0.315914
-0.30187
-0.287796
-0.447422
-0.441429
-0.436531
-0.43129
-0.425681
-0.41971
-0.413239
-0.406096
-0.398094
-0.389074
-0.378936
-0.367675
-0.355383
-0.342231
-0.328446
-0.314266
-0.299912
-0.285609
-0.271342
-0.257904
-0.452654
-0.446312
-0.44118
-0.435701
-0.429823
-0.423536
-0.416675
-0.409055
-0.400488
-0.390826
-0.380003
-0.36805
-0.355101
-0.341363
-0.32708
-0.312502
-0.297845
-0.283319
-0.268919
-0.255355
-0.457987
-0.451293
-0.445928
-0.440208
-0.434053
-0.42743
-0.420151
-0.412017
-0.402843
-0.392501
-0.38096
-0.368295
-0.35468
-0.340355
-0.325583
-0.310615
-0.295665
-0.280922
-0.266389
-0.252702
-0.4634
-0.456357
-0.450761
-0.444797
-0.438354
-0.431373
-0.423644
-0.414957
-0.405133
-0.394073
-0.381785
-0.368391
-0.354106
-0.339198
-0.323945
-0.308598
-0.293363
-0.278411
-0.263748
-0.249938
-0.468875
-0.461485
-0.45566
-0.449449
-0.442704
-0.435342
-0.427129
-0.417847
-0.407333
-0.395519
-0.382458
-0.368323
-0.353366
-0.337882
-0.322159
-0.306445
-0.290934
-0.275779
-0.260989
-0.247059
-0.474388
-0.466655
-0.460604
-0.454142
-0.447081
-0.439311
-0.430578
-0.420659
-0.409413
-0.396812
-0.382958
-0.368072
-0.352446
-0.336397
-0.320216
-0.304146
-0.28837
-0.273019
-0.258106
-0.244057
-0.479913
-0.471845
-0.465571
-0.458852
-0.451459
-0.443253
-0.43396
-0.423363
-0.411346
-0.397927
-0.383263
-0.367623
-0.351335
-0.334731
-0.318107
-0.301695
-0.285664
-0.270125
-0.255092
-0.240926
-0.485422
-0.477028
-0.470535
-0.463554
-0.45581
-0.447138
-0.437246
-0.425928
-0.413103
-0.39884
-0.383353
-0.366959
-0.350018
-0.332875
-0.315822
-0.299082
-0.282807
-0.267087
-0.25194
-0.237661
-0.490886
-0.482176
-0.475467
-0.468217
-0.460103
-0.450931
-0.4404
-0.428321
-0.414654
-0.399525
-0.383208
-0.366065
-0.348484
-0.330817
-0.313354
-0.296299
-0.279791
-0.2639
-0.248644
-0.234255
-0.496271
-0.487259
-0.480338
-0.472811
-0.464305
-0.4546
-0.44339
-0.430509
-0.415969
-0.399959
-0.382809
-0.364926
-0.346719
-0.328549
-0.310691
-0.293338
-0.276608
-0.260556
-0.245197
-0.230703
-0.501544
-0.492244
-0.485114
-0.477302
-0.468381
-0.458108
-0.446178
-0.43246
-0.417021
-0.400116
-0.382136
-0.363525
-0.344713
-0.326058
-0.307825
-0.290189
-0.273251
-0.257046
-0.241592
-0.226999
-0.506668
-0.497096
-0.489762
-0.481654
-0.472293
-0.461417
-0.448729
-0.434139
-0.41778
-0.399975
-0.38117
-0.361849
-0.342452
-0.323334
-0.304746
-0.286844
-0.26971
-0.253365
-0.237823
-0.223136
-0.511605
-0.501779
-0.494243
-0.485829
-0.476003
-0.464489
-0.451006
-0.435515
-0.418219
-0.399512
-0.379895
-0.359883
-0.339925
-0.320368
-0.301445
-0.283293
-0.265977
-0.249503
-0.233883
-0.219111
-0.516315
-0.506254
-0.498521
-0.489787
-0.479471
-0.467284
-0.452971
-0.436554
-0.41831
-0.398706
-0.378294
-0.357614
-0.337121
-0.317148
-0.297911
-0.279528
-0.262045
-0.245454
-0.229765
-0.214916
-0.520757
-0.510482
-0.502554
-0.493489
-0.482656
-0.469762
-0.454589
-0.437225
-0.418028
-0.397536
-0.376349
-0.355029
-0.334027
-0.313665
-0.294136
-0.27554
-0.257906
-0.241212
-0.225464
-0.210548
-0.524889
-0.514421
-0.506301
-0.496892
-0.485515
-0.471883
-0.455822
-0.437496
-0.417347
-0.395983
-0.374046
-0.352114
-0.330634
-0.309908
-0.290111
-0.271321
-0.253551
-0.236768
-0.220973
-0.206001
-0.528668
-0.51803
-0.50972
-0.499953
-0.488007
-0.473608
-0.456636
-0.437339
-0.416245
-0.394027
-0.371369
-0.348857
-0.326929
-0.305868
-0.285826
-0.266863
-0.248974
-0.232118
-0.216287
-0.201271
-0.53205
-0.521267
-0.512769
-0.502629
-0.490089
-0.474897
-0.456996
-0.436725
-0.414698
-0.391653
-0.368306
-0.345248
-0.322903
-0.301535
-0.281273
-0.262157
-0.244168
-0.227254
-0.211401
-0.196353
-0.534992
-0.524087
-0.515402
-0.504876
-0.49172
-0.475711
-0.456869
-0.435627
-0.412685
-0.388842
-0.364841
-0.341273
-0.318547
-0.296901
-0.276444
-0.257197
-0.239125
-0.222171
-0.206309
-0.191243
-0.537449
-0.526447
-0.517577
-0.506652
-0.492858
-0.476015
-0.456225
-0.434019
-0.410187
-0.385581
-0.360964
-0.336925
-0.31385
-0.291957
-0.271331
-0.251975
-0.233841
-0.216863
-0.201007
-0.185938
-0.539379
-0.528305
-0.519251
-0.507913
-0.493464
-0.475772
-0.455032
-0.431879
-0.407186
-0.381854
-0.356663
-0.332191
-0.308804
-0.286695
-0.265926
-0.246485
-0.228309
-0.211326
-0.195492
-0.180434
-0.540738
-0.529617
-0.520381
-0.508619
-0.493499
-0.474949
-0.453265
-0.429185
-0.403665
-0.37765
-0.351928
-0.327064
-0.303402
-0.281108
-0.260224
-0.240721
-0.222523
-0.205555
-0.189758
-0.174728
-0.541485
-0.530343
-0.520925
-0.508729
-0.492925
-0.473513
-0.450896
-0.425918
-0.39961
-0.372956
-0.346748
-0.321535
-0.297635
-0.275188
-0.254218
-0.234677
-0.21648
-0.199546
-0.183803
-0.168819
-0.541579
-0.530442
-0.520844
-0.508205
-0.491709
-0.471436
-0.447902
-0.422058
-0.395006
-0.367762
-0.341117
-0.315598
-0.291497
-0.268931
-0.247903
-0.22835
-0.210175
-0.193296
-0.177625
-0.162704
-0.540982
-0.529874
-0.520098
-0.507009
-0.489816
-0.46869
-0.444263
-0.417591
-0.389843
-0.362059
-0.335025
-0.309244
-0.284983
-0.262331
-0.241273
-0.221733
-0.203605
-0.186802
-0.17122
-0.15638
-0.539657
-0.528602
-0.518651
-0.505108
-0.487218
-0.465251
-0.43996
-0.412503
-0.38411
-0.35584
-0.328467
-0.30247
-0.278086
-0.255383
-0.234325
-0.214825
-0.196766
-0.180061
-0.164587
-0.14985
-0.537568
-0.526592
-0.516468
-0.502468
-0.483886
-0.461096
-0.434976
-0.406783
-0.377799
-0.349098
-0.321437
-0.29527
-0.270804
-0.248084
-0.227057
-0.207623
-0.189657
-0.173071
-0.157726
-0.143115
-0.534684
-0.523811
-0.513517
-0.499061
-0.479795
-0.456206
-0.429298
-0.40042
-0.370904
-0.341828
-0.313932
-0.287641
-0.263133
-0.24043
-0.219464
-0.200124
-0.182276
-0.165831
-0.150637
-0.136174
-0.530975
-0.520227
-0.509768
-0.49486
-0.474923
-0.450565
-0.422914
-0.393407
-0.363419
-0.334027
-0.305949
-0.27958
-0.25507
-0.23242
-0.211547
-0.192327
-0.17462
-0.15834
-0.143315
-0.129
-0.526413
-0.515814
-0.505196
-0.489842
-0.469252
-0.44416
-0.415815
-0.38574
-0.355341
-0.325692
-0.297487
-0.271086
-0.246616
-0.224054
-0.203304
-0.184233
-0.166692
-0.150599
-0.135754
-0.121548
-0.520976
-0.510547
-0.499776
-0.483986
-0.462767
-0.436979
-0.407995
-0.377414
-0.346669
-0.316824
-0.288544
-0.262159
-0.237769
-0.215331
-0.194736
-0.175841
-0.158494
-0.142612
-0.127954
-0.113848
-0.514641
-0.504405
-0.493488
-0.477276
-0.455454
-0.429015
-0.399451
-0.368429
-0.337403
-0.307422
-0.279122
-0.2528
-0.22853
-0.206253
-0.185845
-0.167155
-0.150027
-0.134378
-0.11993
-0.106067
-0.507392
-0.497369
-0.486317
-0.469697
-0.447304
-0.420264
-0.39018
-0.358785
-0.327545
-0.29749
-0.269223
-0.243011
-0.218903
-0.196822
-0.176632
-0.158176
-0.141293
-0.125902
-0.111684
-0.0980981
-0.499215
-0.489425
-0.478247
-0.461239
-0.438312
-0.410723
-0.380185
-0.348486
-0.317098
-0.28703
-0.25885
-0.232796
-0.20889
-0.18704
-0.167101
-0.148908
-0.132297
-0.117187
-0.103225
-0.0899243
-0.490099
-0.480561
-0.46927
-0.451897
-0.428475
-0.400393
-0.369469
-0.337537
-0.306069
-0.276048
-0.24801
-0.222158
-0.198495
-0.176913
-0.157257
-0.139354
-0.123041
-0.108236
-0.094553
-0.0815475
-0.480038
-0.47077
-0.459379
-0.441667
-0.417793
-0.389279
-0.358038
-0.325944
-0.294464
-0.264552
-0.236707
-0.211105
-0.187725
-0.166445
-0.147103
-0.12952
-0.113531
-0.0990548
-0.0856709
-0.0729743
-0.469027
-0.460049
-0.448572
-0.430548
-0.406271
-0.377388
-0.3459
-0.313716
-0.282292
-0.252548
-0.224949
-0.199642
-0.176585
-0.155643
-0.136646
-0.119411
-0.103771
-0.0896474
-0.0765825
-0.0642111
-0.457067
-0.448395
-0.43685
-0.418546
-0.393915
-0.364727
-0.333066
-0.300865
-0.269563
-0.240047
-0.212746
-0.187778
-0.165083
-0.144514
-0.125894
-0.109034
-0.0937691
-0.0800201
-0.0672932
-0.0552644
-0.444163
-0.435814
-0.424217
-0.405667
-0.380735
-0.35131
-0.319549
-0.287402
-0.256289
-0.22706
-0.200107
-0.175523
-0.153229
-0.133067
-0.114853
-0.0983968
-0.0835315
-0.0701798
-0.0578093
-0.0461408
-0.430321
-0.42231
-0.410682
-0.391922
-0.366745
-0.33715
-0.305363
-0.273342
-0.242485
-0.213599
-0.187044
-0.162887
-0.141032
-0.12131
-0.103534
-0.0875077
-0.0730666
-0.0601339
-0.0481381
-0.0368476
-0.415553
-0.407896
-0.396255
-0.377325
-0.351959
-0.322266
-0.290526
-0.258704
-0.228162
-0.199677
-0.173569
-0.149882
-0.128503
-0.109255
-0.0919457
-0.0763761
-0.0623834
-0.0498909
-0.0382877
-0.0273924
-0.399873
-0.392584
-0.380953
-0.361892
-0.336397
-0.306675
-0.275059
-0.243507
-0.213338
-0.18531
-0.159697
-0.136521
-0.115654
-0.0969129
-0.0800992
-0.0650125
-0.0514916
-0.03946
-0.028267
-0.0177834
-0.383299
-0.376392
-0.364792
-0.345644
-0.320079
-0.2904
-0.25898
-0.227761
-0.198037
-0.170514
-0.145442
-0.122817
-0.102499
-0.0842957
-0.0680064
-0.053428
-0.0404019
-0.0288515
-0.0180857
-0.00802988
-0.365853
-0.35934
-0.347796
-0.328603
-0.303031
-0.273468
-0.242308
-0.211494
-0.182273
-0.155308
-0.130822
-0.108786
-0.0890509
-0.0714169
-0.0556797
-0.0416346
-0.029126
-0.0180764
-0.00775439
0.00185816
-0.347558
-0.341452
-0.329988
-0.310796
-0.28528
-0.255908
-0.225065
-0.194727
-0.166066
-0.13971
-0.115852
-0.0944449
-0.0753255
-0.0582906
-0.0431325
-0.0296452
-0.0176762
-0.00714649
0.00271522
0.0118694
-0.328442
-0.322755
-0.311395
-0.29225
-0.266853
-0.237724
-0.207299
-0.177486
-0.14944
-0.12374
-0.100552
-0.0798093
-0.0613385
-0.0449318
-0.0303791
-0.0174733
-0.00606569
0.00392537
0.0133104
0.0219907
-0.308535
-0.303278
-0.292049
-0.273
-0.247776
-0.218966
-0.18902
-0.159796
-0.132418
-0.107421
-0.0849418
-0.0648978
-0.0471065
-0.0313559
-0.017434
-0.00513318
0.00569152
0.0151256
0.0240173
0.0322071
-0.28787
-0.283054
-0.271982
-0.25308
-0.228077
-0.199664
-0.170258
-0.141683
-0.115023
-0.0907726
-0.0690409
-0.049729
-0.0326469
-0.0175793
-0.00431278
0.00736036
0.0175808
0.0264398
0.0348206
-0.266481
-0.26212
-0.25123
-0.232504
-0.207814
-0.179851
-0.151045
-0.123177
-0.0972829
-0.0738198
-0.0528709
-0.0343226
-0.0179778
-0.00361871
0.00896893
0.0199921
0.0295872
0.037853
-0.244405
-0.240511
-0.22983
-0.211328
-0.187006
-0.159558
-0.131413
-0.104304
-0.0792229
-0.0565863
-0.036454
-0.0186988
-0.00311786
0.0105086
0.022395
0.0327468
0.0416952
-0.221681
-0.218271
-0.207814
-0.189598
-0.165695
-0.138824
-0.111396
-0.0850972
-0.0608707
-0.0390974
-0.0198132
-0.00287881
0.0119136
0.0247849
0.0359493
0.0456091
-0.198343
-0.195448
-0.185235
-0.167348
-0.143918
-0.117683
-0.0910269
-0.065586
-0.0422549
-0.0213789
-0.00297212
0.0131158
0.0270968
0.0391923
0.0496156
0.058564
-0.174438
-0.172091
-0.162139
-0.14462
-0.121719
-0.0961753
-0.0703421
-0.0458032
-0.0234048
-0.00345773
0.0140446
0.0292626
0.0424114
0.0537125
0.0633776
-0.150062
-0.148206
-0.138567
-0.121458
-0.0991379
-0.0743395
-0.0493773
-0.0257816
-0.0043506
0.0146386
0.0312119
0.0455386
0.0578367
0.068327
-0.125241
-0.123854
-0.114566
-0.0979101
-0.0762194
-0.0522158
-0.0281696
-0.00555522
0.0148769
0.0328819
0.0485039
0.0619203
0.0733511
0.083017
-0.100002
-0.0991009
-0.0901848
-0.074021
-0.0530075
-0.0298454
-0.00675668
0.0148416
0.0342461
0.0512433
0.0658941
0.0783833
0.0889328
-0.0744004
-0.0739967
-0.0654721
-0.0498391
-0.0295473
-0.00727022
0.0148231
0.0353737
0.0537249
0.0696931
0.0833553
0.0949026
0.104559
-0.0484917
-0.0485925
-0.0404794
-0.0254133
-0.00588479
0.0154674
0.0365306
0.0560053
0.0732806
0.0882015
0.10086
0.111453
-0.0223282
-0.0229389
-0.0152573
-0.000792489
0.0179339
0.0383245
0.0583266
0.0767005
0.0928801
0.106738
0.118379
0.00403441
0.00291033
0.0101414
0.0239729
0.0418616
0.0612577
0.0801713
0.0974226
0.11249
0.125271
0.135886
0.0305405
0.0289009
0.0356635
0.0488324
0.0658511
0.0842234
0.102024
0.118135
0.132076
0.143771
0.0571342
0.0549781
0.0612556
0.073735
0.0898549
0.107178
0.123846
0.138801
0.151605
0.162205
0.0837594
0.0810868
0.0868642
0.0986299
0.113825
0.130076
0.145595
0.159383
0.171042
0.11036
0.107172
0.112435
0.123466
0.137715
0.152876
0.167233
0.179845
0.190354
0.136878
0.133177
0.137915
0.148192
0.161476
0.175533
0.188718
0.200149
0.209506
0.163259
0.159048
0.163251
0.172757
0.185061
0.198003
0.21001
0.220259
0.189446
0.184729
0.188387
0.197111
0.208424
0.220243
0.23107
0.240138
0.215384
0.210166
0.213273
0.221204
0.231517
0.242211
0.251859
0.241016
0.235303
0.237855
0.244986
0.254295
0.263864
0.272338
0.266288
0.260087
0.262081
0.268409
0.276713
0.28516
0.292468
0.291147
0.284465
0.2859
0.291423
0.298726
0.306058
0.315538
0.308384
0.309262
0.313983
0.32029
0.326519
0.339411
0.331794
0.332118
0.336041
0.341361
0.346501
0.362713
0.354645
0.35442
0.357552
0.361899
0.385395
0.376887
0.37612
0.378473
0.381863
0.407409
0.398472
0.397173
0.39876
0.401212
0.428706
0.419355
0.417533
0.418371
0.419907
0.449242
0.439491
0.43716
0.437266
0.468973
0.458835
0.45601
0.455407
0.487855
0.477347
0.474043
0.472756
0.505848
0.494987
0.491223
0.489277
0.522914
0.511716
0.507512
0.504936
0.539015
0.527498
0.522875
0.554116
0.5423
0.537281
0.568185
0.556088
0.550697
0.581191
0.568833
0.563095
0.593105
0.580506
0.574449
0.6039
0.591082
0.584733
0.613552
0.600537
0.593926
0.622041
0.608849
0.602006
0.629345
0.616
0.608955
0.635448
0.621972
0.640336
0.626752
0.643996
0.630327
0.646418
0.632687
0.647595
0.633827
0.647522
0.63374
0.646197
0.632424
0.643621
0.629881
0.639796
0.626112
0.634726
0.621123
0.628421
0.614922
0.620891
0.607518
0.612147
0.598923
0.592267
0.602205
0.589154
0.582758
0.591084
0.578226
0.572121
0.578802
0.56616
0.560376
0.565382
0.552977
0.547543
0.55085
0.538702
0.533645
0.535231
0.523362
0.518707
0.518555
0.506983
0.502757
0.500853
0.489598
0.485824
0.48216
0.471239
0.46794
0.466787
0.462509
0.451941
0.449136
0.448701
0.44194
0.431741
0.42945
0.429761
0.42049
0.410677
0.408917
0.409999
0.398202
0.38879
0.387577
0.389453
0.375119
0.366121
0.365469
0.368161
0.371941
0.351285
0.342716
0.342636
0.346161
0.350961
0.326747
0.31862
0.319122
0.323495
0.329336
0.301553
0.293879
0.294971
0.300205
0.307106
0.313887
0.275751
0.268541
0.27023
0.276334
0.28431
0.292273
0.249393
0.242658
0.244946
0.251927
0.260989
0.270152
0.22253
0.216278
0.21917
0.22703
0.237187
0.247563
0.195216
0.189456
0.192949
0.20169
0.212948
0.224546
0.234971
0.167504
0.162243
0.166337
0.175956
0.188314
0.201142
0.212842
0.13945
0.134694
0.139384
0.149875
0.163332
0.177392
0.190376
0.111108
0.106863
0.112143
0.123497
0.138048
0.153339
0.16761
0.17995
0.0825359
0.0788059
0.0846677
0.096874
0.112509
0.129027
0.144584
0.15821
0.05379
0.0505787
0.0570125
0.0700556
0.0867608
0.104497
0.121339
0.13625
0.148849
0.0249277
0.0222375
0.0292316
0.0430934
0.0608524
0.079795
0.097914
0.114109
0.127956
-0.00399347
-0.00616091
0.00137969
0.0160395
0.0348317
0.0549647
0.0743506
0.0918233
0.106916
0.119585
-0.0329157
-0.0345598
-0.0264881
-0.0110542
0.00874709
0.0300506
0.0506894
0.0694308
0.0857642
0.0996216
-0.0617812
-0.0629025
-0.0543166
-0.0381354
-0.0173528
0.0050975
0.0269715
0.0469692
0.0645347
0.0795749
-0.0905323
-0.0911325
-0.0820509
-0.0651519
-0.0434193
-0.0198497
0.00323789
0.0244761
0.0432623
0.059477
0.0732497
-0.119112
-0.119193
-0.109636
-0.0920515
-0.0694038
-0.0447461
-0.0204702
0.00198927
0.0219817
0.0393596
0.0542397
0.066846
-0.147462
-0.14703
-0.137018
-0.118782
-0.0952577
-0.0695472
-0.0441119
-0.0204538
0.000727268
0.0192548
0.0352311
0.0488754
-0.175525
-0.174586
-0.164141
-0.145292
-0.120933
-0.0942083
-0.0676464
-0.0428158
-0.0204667
-0.000806135
0.016253
0.0309243
0.0434558
-0.203248
-0.20181
-0.190953
-0.171531
-0.146381
-0.118685
-0.0910332
-0.0650597
-0.0415662
-0.0207918
-0.00266571
0.0130194
0.0265103
-0.230571
-0.228648
-0.217402
-0.197448
-0.171556
-0.142935
-0.114232
-0.0871489
-0.0625377
-0.0406714
-0.0214967
-0.00481321
0.00962457
0.0220616
-0.257438
-0.255049
-0.243436
-0.222994
-0.19641
-0.166913
-0.137204
-0.109047
-0.0833484
-0.0604148
-0.0402122
-0.0225479
-0.00717802
0.00614323
-0.283828
-0.280937
-0.269004
-0.24812
-0.220898
-0.190579
-0.15991
-0.130719
-0.103966
-0.0799923
-0.058785
-0.0401598
-0.023875
-0.00968381
0.00264957
-0.309706
-0.306257
-0.294058
-0.272778
-0.244974
-0.213889
-0.182312
-0.152131
-0.124358
-0.0993749
-0.0771885
-0.0576248
-0.0404445
-0.0254004
-0.0122545
-0.000787486
-0.334975
-0.330999
-0.318555
-0.296923
-0.268595
-0.236803
-0.204372
-0.173246
-0.144494
-0.118534
-0.0953969
-0.0749192
-0.0568653
-0.0409878
-0.0270473
-0.0148185
-0.00416511
-0.359582
-0.355113
-0.342445
-0.320509
-0.291716
-0.259282
-0.226054
-0.194034
-0.164343
-0.137442
-0.113385
-0.0920203
-0.0731167
-0.0564275
-0.0417125
-0.0287424
-0.0173743
-0.38349
-0.378548
-0.365676
-0.343499
-0.314296
-0.281286
-0.247322
-0.21446
-0.183877
-0.156073
-0.131128
-0.108906
-0.0891784
-0.0717012
-0.0562339
-0.0425443
-0.0304838
-0.0199377
-0.406659
-0.401257
-0.388207
-0.365849
-0.336292
-0.302778
-0.268142
-0.234494
-0.203065
-0.1744
-0.148603
-0.125553
-0.105031
-0.086791
-0.0705949
-0.0562088
-0.0434787
-0.0322992
-0.0216471
-0.429049
-0.423201
-0.410001
-0.387489
-0.357692
-0.323722
-0.288479
-0.254104
-0.221882
-0.192398
-0.165787
-0.141943
-0.120654
-0.101679
-0.0847793
-0.0697206
-0.0563437
-0.0445501
-0.0333562
-0.0229925
-0.450624
-0.444341
-0.431021
-0.408412
-0.378428
-0.34408
-0.308303
-0.273263
-0.240299
-0.210042
-0.182657
-0.158054
-0.136031
-0.116349
-0.0987711
-0.083064
-0.0690634
-0.0566754
-0.0449587
-0.0340728
-0.471346
-0.464642
-0.451231
-0.428579
-0.398458
-0.363829
-0.327582
-0.29194
-0.258292
-0.22731
-0.199192
-0.173867
-0.151142
-0.130783
-0.112555
-0.0962242
-0.0816231
-0.0686604
-0.056439
-0.0450495
-0.491185
-0.48407
-0.470596
-0.447955
-0.417767
-0.382924
-0.346288
-0.310109
-0.275836
-0.24418
-0.215372
-0.189363
-0.165971
-0.144965
-0.126115
-0.109187
-0.0940084
-0.0804913
-0.0677829
-0.0559067
-0.510109
-0.502596
-0.489085
-0.466506
-0.436323
-0.401337
-0.364393
-0.327742
-0.292908
-0.26063
-0.231178
-0.204525
-0.1805
-0.158881
-0.139437
-0.121937
-0.106206
-0.0921549
-0.0789772
-0.0666309
-0.528092
-0.520192
-0.506672
-0.484204
-0.454094
-0.419043
-0.381858
-0.344827
-0.309486
-0.276639
-0.246591
-0.219336
-0.194716
-0.172515
-0.152507
-0.134463
-0.118203
-0.103639
-0.0900103
-0.0772104
-0.545108
-0.536835
-0.52333
-0.501022
-0.471054
-0.436018
-0.398673
-0.361328
-0.325548
-0.29219
-0.261594
-0.233779
-0.208602
-0.185854
-0.165313
-0.146752
-0.129987
-0.114933
-0.100871
-0.0876352
-0.561137
-0.552504
-0.539039
-0.516937
-0.487177
-0.452235
-0.414813
-0.377225
-0.341075
-0.307265
-0.276171
-0.247841
-0.222145
-0.198885
-0.177842
-0.158792
-0.141549
-0.126025
-0.11155
-0.097896
-0.576161
-0.567182
-0.55378
-0.531929
-0.502443
-0.467674
-0.430256
-0.392501
-0.356049
-0.321846
-0.290308
-0.261507
-0.235333
-0.211596
-0.190083
-0.170572
-0.152877
-0.136908
-0.122038
-0.107985
-0.590165
-0.580855
-0.567539
-0.545981
-0.516833
-0.482312
-0.44498
-0.407138
-0.370455
-0.33592
-0.303989
-0.274764
-0.248153
-0.223976
-0.202025
-0.182084
-0.163962
-0.147571
-0.132326
-0.117893
-0.603139
-0.593514
-0.580303
-0.559079
-0.530329
-0.496135
-0.45897
-0.421119
-0.384276
-0.349473
-0.317204
-0.287602
-0.260595
-0.236015
-0.21366
-0.193317
-0.174797
-0.158008
-0.142409
-0.127615
-0.615077
-0.605152
-0.592064
-0.571211
-0.54292
-0.509126
-0.47221
-0.43443
-0.3975
-0.362491
-0.32994
-0.30001
-0.27265
-0.247704
-0.224979
-0.204265
-0.185373
-0.168211
-0.152278
-0.137144
-0.625973
-0.615767
-0.602819
-0.582371
-0.554594
-0.521273
-0.484687
-0.447058
-0.410114
-0.374966
-0.342188
-0.311979
-0.284308
-0.259035
-0.235974
-0.21492
-0.195684
-0.178175
-0.161928
-0.146474
-0.63583
-0.625358
-0.612566
-0.592555
-0.565344
-0.532567
-0.496389
-0.458991
-0.422108
-0.386886
-0.35394
-0.323501
-0.295564
-0.270002
-0.246639
-0.225276
-0.205726
-0.187894
-0.171356
-0.155599
-0.644651
-0.633932
-0.621309
-0.601763
-0.575167
-0.543
-0.50731
-0.470221
-0.433473
-0.398244
-0.365187
-0.334569
-0.30641
-0.280599
-0.256968
-0.235328
-0.215492
-0.197366
-0.180557
-0.16451
-0.652443
-0.641497
-0.629055
-0.609997
-0.584062
-0.552569
-0.517441
-0.480741
-0.444203
-0.409034
-0.375925
-0.345179
-0.316841
-0.29082
-0.266958
-0.245072
-0.224978
-0.206585
-0.189531
-0.173201
-0.65922
-0.648064
-0.635813
-0.617266
-0.592031
-0.561272
-0.526779
-0.490545
-0.454292
-0.41925
-0.386148
-0.355325
-0.326855
-0.300663
-0.276605
-0.254505
-0.234184
-0.215547
-0.198281
-0.181668
-0.664995
-0.653651
-0.641599
-0.623579
-0.59908
-0.569111
-0.535323
-0.499631
-0.463736
-0.428888
-0.395854
-0.365006
-0.336447
-0.310124
-0.285905
-0.263625
-0.243105
-0.224253
-0.206795
-0.189933
-0.669788
-0.658276
-0.646431
-0.628951
-0.605219
-0.57609
-0.543073
-0.507997
-0.472534
-0.437948
-0.40504
-0.374218
-0.345617
-0.319203
-0.294859
-0.272428
-0.251741
-0.232698
-0.215085
-0.198198
-0.673621
-0.661963
-0.65033
-0.6334
-0.610461
-0.582217
-0.550034
-0.515644
-0.480684
-0.446428
-0.413706
-0.382963
-0.354364
-0.327898
-0.303464
-0.280915
-0.260089
-0.240884
-0.223116
-0.206154
-0.67652
-0.664738
-0.65332
-0.636948
-0.614821
-0.587504
-0.556211
-0.522575
-0.488189
-0.454328
-0.421852
-0.39124
-0.362688
-0.33621
-0.311721
-0.289086
-0.268149
-0.248806
-0.23089
-0.213805
-0.678514
-0.66663
-0.655432
-0.639618
-0.61832
-0.591962
-0.561614
-0.528796
-0.495052
-0.461651
-0.42948
-0.39905
-0.370591
-0.344141
-0.319631
-0.29694
-0.27592
-0.256465
-0.238422
-0.221218
-0.679635
-0.667673
-0.656695
-0.641439
-0.620979
-0.59561
-0.566252
-0.534313
-0.501276
-0.468401
-0.436593
-0.406398
-0.378076
-0.351692
-0.327196
-0.30448
-0.283404
-0.263863
-0.245721
-0.228422
-0.679918
-0.667902
-0.657144
-0.642443
-0.622825
-0.598466
-0.57014
-0.539137
-0.50687
-0.474583
-0.443196
-0.413286
-0.385146
-0.358868
-0.33442
-0.311709
-0.290604
-0.271002
-0.252786
-0.235419
-0.6794
-0.667354
-0.656817
-0.642663
-0.623887
-0.600554
-0.573295
-0.543277
-0.511841
-0.480202
-0.449293
-0.41972
-0.391806
-0.365672
-0.341306
-0.31863
-0.297524
-0.277887
-0.259617
-0.242206
-0.678121
-0.66607
-0.655753
-0.642137
-0.624197
-0.601898
-0.575735
-0.546749
-0.516198
-0.485267
-0.454892
-0.425705
-0.398061
-0.372109
-0.347859
-0.325248
-0.304168
-0.284519
-0.266218
-0.248785
-0.676124
-0.664092
-0.653995
-0.640904
-0.623789
-0.602527
-0.577482
-0.549567
-0.519954
-0.489786
-0.459999
-0.431248
-0.403918
-0.378186
-0.354085
-0.331568
-0.31054
-0.290905
-0.272593
-0.255159
-0.673451
-0.661464
-0.651584
-0.639004
-0.6227
-0.602471
-0.578559
-0.55175
-0.523121
-0.493769
-0.464624
-0.436357
-0.409384
-0.383908
-0.359989
-0.337595
-0.316645
-0.297047
-0.278745
-0.26133
-0.670148
-0.658232
-0.648568
-0.636483
-0.620971
-0.601765
-0.578992
-0.553316
-0.525714
-0.497228
-0.468775
-0.44104
-0.414465
-0.389284
-0.365578
-0.343336
-0.322489
-0.302952
-0.284679
-0.267304
-0.666262
-0.654442
-0.644992
-0.633385
-0.618641
-0.600442
-0.578811
-0.554288
-0.527749
-0.500176
-0.472462
-0.445306
-0.419171
-0.39432
-0.37086
-0.348797
-0.328078
-0.308624
-0.2904
-0.273085
-0.661839
-0.65014
-0.640903
-0.629755
-0.615754
-0.598541
-0.578045
-0.554689
-0.529244
-0.502625
-0.475698
-0.449164
-0.423511
-0.399026
-0.375842
-0.353985
-0.333419
-0.314071
-0.295914
-0.278677
-0.656928
-0.645375
-0.63635
-0.625643
-0.612355
-0.596102
-0.576728
-0.554544
-0.530219
-0.50459
-0.478493
-0.452626
-0.427493
-0.40341
-0.380532
-0.358909
-0.338519
-0.319299
-0.301228
-0.284087
-0.651578
-0.640195
-0.631381
-0.621094
-0.608489
-0.593164
-0.574893
-0.553882
-0.530693
-0.506089
-0.480861
-0.455701
-0.431128
-0.40748
-0.38494
-0.363577
-0.343386
-0.324314
-0.306346
-0.28932
-0.645835
-0.634646
-0.626043
-0.616158
-0.604203
-0.589771
-0.572576
-0.552729
-0.530689
-0.507136
-0.482814
-0.458401
-0.434425
-0.411248
-0.389074
-0.367996
-0.348027
-0.329125
-0.311277
-0.294381
-0.639748
-0.628775
-0.620384
-0.610881
-0.599542
-0.585964
-0.569815
-0.551118
-0.530231
-0.50775
-0.484367
-0.460737
-0.437396
-0.414721
-0.392944
-0.372177
-0.352452
-0.333738
-0.316028
-0.299279
-0.633362
-0.622629
-0.614449
-0.60531
-0.594554
-0.581789
-0.566649
-0.549079
-0.529343
-0.507951
-0.485534
-0.462722
-0.44005
-0.417911
-0.396558
-0.376127
-0.356667
-0.338163
-0.320606
-0.304019
-0.626725
-0.616251
-0.608284
-0.599492
-0.589284
-0.577289
-0.563116
-0.546645
-0.528052
-0.507757
-0.48633
-0.464367
-0.442397
-0.420826
-0.399927
-0.379856
-0.360683
-0.342408
-0.325019
-0.308609
-0.61988
-0.609684
-0.601932
-0.593471
-0.583777
-0.572507
-0.559257
-0.543851
-0.526384
-0.50719
-0.486771
-0.465686
-0.44445
-0.423477
-0.403059
-0.383373
-0.364508
-0.34648
-0.329276
-0.313056
-0.61287
-0.602971
-0.595435
-0.58729
-0.578078
-0.567487
-0.555111
-0.540732
-0.524367
-0.50627
-0.486874
-0.46669
-0.446217
-0.425873
-0.405965
-0.386688
-0.368152
-0.350389
-0.333385
-0.317369
-0.605736
-0.59615
-0.588834
-0.580991
-0.572229
-0.562271
-0.55072
-0.537322
-0.522031
-0.505022
-0.486655
-0.467393
-0.447711
-0.428024
-0.408652
-0.389809
-0.371622
-0.354144
-0.337354
-0.321556
-0.598516
-0.589259
-0.582165
-0.574612
-0.56627
-0.556902
-0.546123
-0.533658
-0.519405
-0.503466
-0.486131
-0.467807
-0.44894
-0.429939
-0.41113
-0.392746
-0.374929
-0.357753
-0.341192
-0.325624
-0.591249
-0.582332
-0.575464
-0.56819
-0.56024
-0.551418
-0.541359
-0.529775
-0.51652
-0.501629
-0.48532
-0.467946
-0.449916
-0.431626
-0.413408
-0.395506
-0.37808
-0.361225
-0.344908
-0.329583
-0.583967
-0.575402
-0.568763
-0.561759
-0.554176
-0.545857
-0.536465
-0.525709
-0.513406
-0.499533
-0.484241
-0.467824
-0.450649
-0.433095
-0.415493
-0.398097
-0.381085
-0.364569
-0.348511
-0.333441
-0.576703
-0.568499
-0.562093
-0.55535
-0.54811
-0.540255
-0.531479
-0.521495
-0.510095
-0.497205
-0.482913
-0.467453
-0.451149
-0.434353
-0.417393
-0.400529
-0.38395
-0.367793
-0.352009
-0.337207
-0.569486
-0.561651
-0.55548
-0.548992
-0.542074
-0.534645
-0.526434
-0.517166
-0.506616
-0.494668
-0.481355
-0.466848
-0.451425
-0.435409
-0.419114
-0.402807
-0.386686
-0.370907
-0.355412
-0.340889
-0.562343
-0.554882
-0.548949
-0.542711
-0.536095
-0.529058
-0.521364
-0.512755
-0.503
-0.49195
-0.479586
-0.466023
-0.451487
-0.436268
-0.420663
-0.404938
-0.389297
-0.373917
-0.358728
-0.344498
-0.555297
-0.548214
-0.542522
-0.536528
-0.530199
-0.523522
-0.516298
-0.508293
-0.499276
-0.489076
-0.477627
-0.464992
-0.451346
-0.436939
-0.422047
-0.406928
-0.391791
-0.376831
-0.361965
-0.348042
-0.548371
-0.541667
-0.536218
-0.530465
-0.524407
-0.518061
-0.511265
-0.50381
-0.495474
-0.48607
-0.475498
-0.463771
-0.451011
-0.437428
-0.423269
-0.408782
-0.394174
-0.379658
-0.541582
-0.535258
-0.530055
-0.524539
-0.518739
-0.512698
-0.50629
-0.499333
-0.49162
-0.482959
-0.47322
-0.462373
-0.450492
-0.43774
-0.424334
-0.410504
-0.396451
-0.534947
-0.529003
-0.524045
-0.518763
-0.51321
-0.507451
-0.501394
-0.494886
-0.487741
-0.479766
-0.470813
-0.460816
-0.4498
-0.437883
-0.425246
-0.528481
-0.522912
-0.5182
-0.513151
-0.507834
-0.502337
-0.496596
-0.490493
-0.48386
-0.476515
-0.468299
-0.459113
-0.448944
-0.437862
-0.522195
-0.516998
-0.512531
-0.507711
-0.502622
-0.497368
-0.491914
-0.486172
-0.479999
-0.473228
-0.465696
-0.457283
-0.516099
-0.511269
-0.507045
-0.50245
-0.497581
-0.492554
-0.487361
-0.481941
-0.476179
-0.469927
-0.463026
-0.510201
-0.505731
-0.501749
-0.497376
-0.492719
-0.487904
-0.482947
-0.477813
-0.472418
-0.466632
-0.504508
-0.50039
-0.496646
-0.492491
-0.488039
-0.483424
-0.478681
-0.473802
-0.468729
-0.499025
-0.495252
-0.49174
-0.487798
-0.483544
-0.479116
-0.474568
-0.469915
-0.493759
-0.490319
-0.487034
-0.4833
-0.479235
-0.474983
-0.470613
-0.488712
-0.485595
-0.48253
-0.478996
-0.475113
-0.471027
-0.483889
-0.481082
-0.478229
-0.474887
-0.471178
-0.479294
-0.476783
-0.474132
-0.470973
-0.47493
-0.472699
-0.47024
-0.470801
-0.468833
-0.466911
-0.465186
-0.463263
-0.186737
-0.191308
-0.195718
-0.19997
-0.204068
-0.208015
-0.211816
-0.215473
-0.218992
-0.222375
-0.225627
-0.228751
-0.231749
-0.234626
-0.237384
-0.240025
-0.172886
-0.177241
-0.18146
-0.185544
-0.189497
-0.19332
-0.197018
-0.200593
-0.204048
-0.207385
-0.210607
-0.213718
-0.21672
-0.219615
-0.222406
-0.225096
-0.160063
-0.1642
-0.16822
-0.172128
-0.175924
-0.179612
-0.183193
-0.18667
-0.190045
-0.193322
-0.196501
-0.199586
-0.202579
-0.205482
-0.208299
-0.211032
-0.148215
-0.152137
-0.155962
-0.159691
-0.163326
-0.166868