/*--------------------------------*- C++ -*----------------------------------*\
  =========                 |
  \\      /  F ield         | OpenFOAM: The Open Source CFD Toolbox
   \\    /   O peration     | Website:  https://openfoam.org
    \\  /    A nd           | Version:  7
     \\/     M anipulation  |
\*---------------------------------------------------------------------------*/
FoamFile
{
    version     2.0;
    format      ascii;
    class       surfaceScalarField;
    location    "90";
    object      phi;
}
// * * * * * * * * * * * * * * * * * * * * * * * * * * * * * * * * * * * * * //

dimensions      [0 3 -1 0 0 0 0];

internalField   nonuniform List<scalar> 
16755
(
0.00035856
0.00191756
-0.00200364
0.000448653
0.00286938
-0.00295947
0.000540459
0.00378622
-0.00387803
0.000628548
0.00459013
-0.00467822
0.000706123
0.00522854
-0.00530612
0.000767688
0.00568873
-0.0057503
0.000809734
0.00599472
-0.00603677
0.000830189
0.00619142
-0.00621187
0.000827803
0.00633231
-0.00632992
0.00080376
0.00646446
-0.00644042
0.000765763
0.0065966
-0.0065586
0.000730894
0.00665485
-0.00661998
0.000721675
0.00646893
-0.00645971
0.000754442
0.0058391
-0.00587186
0.000829846
0.00465821
-0.00473361
0.000935836
0.00297553
-0.00308152
0.00105745
0.00095441
-0.00107602
0.00118177
-0.0011852
0.00106089
0.00129751
-0.00320599
0.00309025
0.00139504
-0.00489965
0.00480212
0.00146837
-0.00615341
0.00608008
0.00151592
-0.00695964
0.00691209
0.00153926
-0.00740895
0.00738561
0.00154265
-0.00761892
0.00761553
0.00153147
-0.00768903
0.00770021
0.00150646
-0.00769039
0.0077154
0.00146278
-0.00776646
0.00781014
0.00139879
-0.00802289
0.00808688
0.00132612
-0.00829894
0.00837161
0.00126683
-0.00810839
0.00816769
0.00124064
-0.00686281
0.006889
0.00125519
-0.00448782
0.00447327
0.00130464
-0.00121382
0.00116437
0.00137335
0.00201718
-0.00208589
0.001441
0.00496371
-0.00503136
0.00149262
0.00681943
-0.00687105
0.00152551
0.00824491
-0.00827781
0.00153659
0.00853442
-0.0085455
0.00152151
0.00904527
-0.00903019
0.00147468
0.00924772
-0.00920088
0.00140183
0.00985557
-0.00978272
0.00132727
0.0098966
-0.00982203
0.00125012
0.00803448
-0.00795734
0.00120382
0.00584433
-0.00579802
-0.000420684
0.000436298
0.000313053
0.00182576
0.000409024
0.0027734
0.00050668
0.00368857
0.000600533
0.00449628
0.000683648
0.00514543
0.000750337
0.00562204
0.00079686
0.0059482
0.000821026
0.00616725
0.000821815
0.00633152
0.000801207
0.00648507
0.000768036
0.00662977
0.000740025
0.00668286
0.000738921
0.00647003
0.000778936
0.00579908
0.000858725
0.00457842
0.000965634
0.00286862
0.0010853
0.000834741
0.00120578
-0.00130569
0.00131665
-0.00331685
0.00140892
-0.00499192
0.00147713
-0.00622162
0.00152015
-0.00700266
0.00153975
-0.00742855
0.00154011
-0.00761929
0.00152654
-0.00767546
0.00149984
-0.00766369
0.00145495
-0.00772157
0.00138972
-0.00795767
0.00131554
-0.00822475
0.00125488
-0.00804773
0.0012282
-0.00683613
0.00124342
-0.00450304
0.00129437
-0.00126477
0.001365
0.00194655
0.00143468
0.00489402
0.00148847
0.00676564
0.00152345
0.00820992
0.00153625
0.00852162
0.00152243
0.00905909
0.00147658
0.00929356
0.00140468
0.00992748
0.00133058
0.0099707
0.00125348
0.00811157
0.0012061
0.00589171
-0.000403965
0.000268421
0.00172838
0.000370135
0.00267169
0.000473486
0.00358521
0.000572946
0.00439682
0.000661455
0.00505692
0.000733156
0.00555034
0.000784102
0.00589725
0.000812019
0.00613934
0.000816172
0.00632737
0.000799364
0.00650188
0.000771477
0.00665765
0.00075067
0.00670367
0.000757711
0.00646299
0.000804672
0.00575212
0.000888384
0.00449471
0.000995775
0.00276123
0.00111317
0.000717346
0.0012296
-0.00142212
0.00133548
-0.00342273
0.00142243
-0.00507887
0.00148551
-0.0062847
0.00152403
-0.00704119
0.00153997
-0.0074445
0.00153739
-0.0076167
0.00152151
-0.00765958
0.0014932
-0.00763538
0.00144723
-0.00767559
0.0013809
-0.00789134
0.0013053
-0.00814916
0.0012433
-0.00798573
0.00121608
-0.00680891
0.00123188
-0.00451884
0.00128424
-0.00131714
0.00135671
0.00187409
0.00142838
0.00482236
0.00148433
0.00670969
0.00152141
0.00817285
0.00153594
0.0085071
0.00152342
0.00907161
0.00147864
0.00933834
0.00140772
0.00999839
0.00133412
0.0100443
0.00125711
0.00818859
0.00120866
0.00594016
-0.000386156
0.000224824
0.00162558
0.000332096
0.00256442
0.000440955
0.00347636
0.000545838
0.00429194
0.000639574
0.00496318
0.000716165
0.00547375
0.000771475
0.00584194
0.000803187
0.00610762
0.000810908
0.00631965
0.000798271
0.00651452
0.000776101
0.00667982
0.00076279
0.00671698
0.000777947
0.00644784
0.000831517
0.00569855
0.000918693
0.00440753
0.00102615
0.00265377
0.00114097
0.000602524
0.00125317
-0.00153432
0.00135395
-0.0035235
0.00143554
-0.00516046
0.0014935
-0.00634266
0.00152758
-0.00707526
0.00153993
-0.00745685
0.00153449
-0.00761126
0.00151639
-0.00764148
0.00148656
-0.00760556
0.00143961
-0.00762864
0.00137232
-0.00782405
0.00129542
-0.00807225
0.0012321
-0.00792241
0.00120428
-0.00678109
0.00122057
-0.00453514
0.00127426
-0.00137083
0.0013485
0.00179985
0.00142211
0.00474874
0.00148021
0.00665159
0.00151938
0.00813368
0.00153566
0.00849082
0.0015245
0.00908277
0.00148084
0.009382
0.00141096
0.0100683
0.0013379
0.0101174
0.001261
0.00826549
0.00121151
0.00598965
-0.000367273
0.0001824
0.00151759
0.00029501
0.00245181
0.000409152
0.00336221
0.00051925
0.00418184
0.00061803
0.0048644
0.000699374
0.00539241
0.000758987
0.00578233
0.00079455
0.00607206
0.000806057
0.00630814
0.000797961
0.00652261
0.000781913
0.00669587
0.00077633
0.00672256
0.000799516
0.00642465
0.000859333
0.00563873
0.000949519
0.00431735
0.00105665
0.00254664
0.00116863
0.000490546
0.00127644
-0.00164213
0.00137204
-0.0036191
0.00144825
-0.00523667
0.00150111
-0.00639553
0.00153078
-0.00710493
0.00153962
-0.00746569
0.00153142
-0.00760306
0.00151118
-0.00762124
0.00147993
-0.00757431
0.00143213
-0.00758084
0.00136401
-0.00775593
0.00128591
-0.00799415
0.00122129
-0.00785779
0.00119281
-0.00675261
0.00120951
-0.00455184
0.00126443
-0.00142575
0.00134036
0.00172392
0.00141588
0.00467323
0.00147611
0.00659136
0.00151737
0.00809241
0.00153542
0.00847278
0.00152565
0.00909254
0.00148318
0.00942446
0.0014144
0.0101371
0.00134192
0.0101898
0.00126516
0.00834225
0.00121466
0.00604015
-0.000347333
0.000141263
0.000258962
0.00233411
0.000378133
0.00324304
0.000493214
0.00406676
0.00059684
0.00476078
0.000682794
0.00530645
0.000746649
0.00571848
0.000786129
0.00603258
0.000801651
0.00629262
0.000798462
0.0065258
0.000788902
0.00670543
0.000791222
0.00672024
0.000822299
0.00639357
0.000887981
0.00557305
0.00098073
0.0042246
0.00108717
0.0024402
0.00119606
0.000381651
0.00129935
-0.00174542
0.00138971
-0.00370946
0.00146053
-0.00530748
0.00150833
-0.00644332
0.00153365
-0.00713025
0.00153906
-0.0074711
0.00152819
-0.00759219
0.0015059
-0.00759895
0.0014733
-0.00754171
0.00142476
-0.00753229
0.00135597
-0.00768714
0.00127677
-0.00791495
0.00121087
-0.00779189
0.00118168
-0.00672341
0.00119869
-0.00456884
0.00125475
-0.00148181
0.00133229
0.00164638
0.00140967
0.00459585
0.00147202
0.00652901
0.00151538
0.00804905
0.0015352
0.00845296
0.00152688
0.00910087
0.00148567
0.00946567
0.00141803
0.0102047
0.00134616
0.0102617
0.00126959
0.00841882
0.00121811
0.00609163
-0.000326357
0.000224024
0.00221159
0.000347938
0.00311913
0.000467753
0.00394694
0.000576015
0.00465251
0.000666429
0.00521604
0.000734469
0.00565044
0.000777944
0.00598911
0.000797722
0.00627284
0.000799794
0.00652373
0.000797049
0.00670818
0.000807388
0.0067099
0.000846168
0.00635479
0.000917314
0.00550191
0.00101219
0.00412972
0.00111759
0.0023348
0.00122319
0.000276047
0.00132186
-0.00184409
0.00140694
-0.00379454
0.00147237
-0.00537291
0.00151514
-0.00648609
0.00153618
-0.00715129
0.00153824
-0.00747316
0.0015248
-0.00757875
0.00150055
-0.00757469
0.00146669
-0.00750785
0.00141752
-0.00748313
0.00134819
-0.00761781
0.00126802
-0.00783479
0.00120087
-0.00772474
0.0011709
-0.00669344
0.00118812
-0.00458606
0.00124522
-0.00153892
0.00132429
0.00156731
0.00140349
0.00451665
0.00146793
0.00646457
0.00151338
0.0080036
0.00153501
0.00843133
0.00152818
0.0091077
0.00148829
0.00950556
0.00142185
0.0102711
0.00135063
0.0103329
0.00127428
0.00849517
0.00122185
0.00614406
-0.000304366
0.000190247
0.00208452
0.000318599
0.00299078
0.00044288
0.00382266
0.00055556
0.00453983
0.000650283
0.00512132
0.000722458
0.00557826
0.000770019
0.00594154
0.000794297
0.00624856
0.000801969
0.00651606
0.000806322
0.00670383
0.000824737
0.00669149
0.00087099
0.00630854
0.000947187
0.00542571
0.00104377
0.00403314
0.00114782
0.00223075
0.00124995
0.000173913
0.00134392
-0.00193805
0.00142369
-0.00387432
0.00148375
-0.00543297
0.00152154
-0.00652388
0.00153837
-0.00716812
0.00153717
-0.00747197
0.00152126
-0.00756284
0.00149513
-0.00754856
0.00146009
-0.00747281
0.00141041
-0.00743344
0.00134068
-0.00754809
0.00125965
-0.00775376
0.00119129
-0.00765638
0.00116048
-0.00666263
0.00117779
-0.00460337
0.00123583
-0.00159696
0.00131636
0.00148678
0.00139733
0.00443569
0.00146385
0.00639805
0.0015114
0.00795605
0.00153484
0.00840789
0.00152954
0.009113
0.00149104
0.00954406
0.00142586
0.0103363
0.00135533
0.0104035
0.00127924
0.00857126
0.0012259
0.0061974
-0.000281382
0.000157668
0.00195298
0.000290136
0.00285831
0.000418603
0.00369419
0.000535478
0.00442296
0.000634359
0.00502243
0.000710627
0.00550199
0.000762378
0.00588979
0.000791405
0.00621953
0.000804995
0.00650247
0.00081668
0.00669214
0.00084317
0.006665
0.000896626
0.00625508
0.000977455
0.00534488
0.00107534
0.00393525
0.00117775
0.00212834
0.00127626
7.53955e-05
0.00136547
-0.00202726
0.00143994
-0.00394879
0.00149465
-0.00548767
0.00152752
-0.00655675
0.00154022
-0.00718082
0.00153585
-0.0074676
0.00151757
-0.00754456
0.00148965
-0.00752064
0.00145351
-0.00743667
0.00140342
-0.00738335
0.00133343
-0.0074781
0.00125167
-0.007672
0.00118213
-0.00758683
0.00115041
-0.00663092
0.00116772
-0.00462069
0.0012266
-0.00165583
0.0013085
0.00140487
0.0013912
0.00435299
0.00145977
0.00632948
0.00150941
0.00790641
0.00153469
0.00838261
0.00153098
0.00911671
0.00149392
0.00958111
0.00143005
0.0104002
0.00136025
0.0104733
0.00128446
0.00864704
0.00123025
0.00625161
-0.000257432
0.00012631
0.00181636
0.000262569
0.00272205
0.000394924
0.00356184
0.000515768
0.00430212
0.000618663
0.00491954
0.000698995
0.00542166
0.000755049
0.00583374
0.000789072
0.00618551
0.000808869
0.00648267
0.000828072
0.00667294
0.000862582
0.00663049
0.000922936
0.00619473
0.00100797
0.00525984
0.00110677
0.00383646
0.00120728
0.00202782
0.00130207
-1.9388e-05
0.00138649
-0.00211168
0.00145566
-0.00401796
0.00150506
-0.00553708
0.00153308
-0.00658477
0.00154173
-0.00718947
0.00153428
-0.00746016
0.00151373
-0.00752401
0.00148411
-0.00749102
0.00144695
-0.00739951
0.00139655
-0.00733295
0.00132645
-0.007408
0.00124408
-0.00758963
0.00117339
-0.00751614
0.00114071
-0.00659824
0.00115791
-0.00463788
0.00121751
-0.00171543
0.0013007
0.00132168
0.00138509
0.0042686
0.0014557
0.00625887
0.00150743
0.00785468
0.00153455
0.00835548
0.00153247
0.0091188
0.00149693
0.00961665
0.00143442
0.0104627
0.00136538
0.0105423
0.00128995
0.00872248
0.00123491
0.00630665
-0.000232542
9.62109e-05
0.00167761
0.000235909
0.00258235
0.000371845
0.0034259
0.000496435
0.00417753
0.000603204
0.00481277
0.000687583
0.00533728
0.000748064
0.00577326
0.000787322
0.00614625
0.000813587
0.0064564
0.000840439
0.00664608
0.00088286
0.00658807
0.000949778
0.00612781
0.0010386
0.00517103
0.00113793
0.00373712
0.00123633
0.00192943
0.00132729
-0.00011035
0.00140692
-0.00219131
0.00147082
-0.00408185
0.00151496
-0.00558122
0.00153821
-0.00660802
0.00154289
-0.00719415
0.00153246
-0.00744973
0.00150975
-0.0075013
0.00147852
-0.00745979
0.00144041
-0.00736139
0.0013898
-0.00728234
0.00131972
-0.00733792
0.00123687
-0.00750678
0.00116508
-0.00744436
0.00113138
-0.00656455
0.00114834
-0.00465484
0.00120856
-0.00177564
0.00129297
0.00123727
0.00137899
0.00418258
0.00145161
0.00618625
0.00150543
0.00780086
0.00153443
0.00832648
0.00153402
0.0091192
0.00150006
0.00965061
0.00143897
0.0105238
0.00137074
0.0106106
0.0012957
0.00879752
0.00123987
0.00636247
-0.00020674
6.7308e-05
0.00153641
0.000210182
0.00243948
0.000349371
0.00328671
0.000477485
0.00404941
0.000587998
0.00470226
0.000676419
0.00524886
0.000741457
0.00570822
0.000786179
0.00610153
0.000819133
0.00642345
0.000853714
0.0066115
0.000903888
0.0065379
0.000977011
0.00605469
0.00106919
0.00507885
0.00116872
0.00363758
0.0012648
0.00183335
0.00135189
-0.000197432
0.00142673
-0.00226616
0.0014854
-0.00414051
0.00152434
-0.00562017
0.00154289
-0.00662657
0.00154371
-0.00719496
0.0015304
-0.00743642
0.00150562
-0.00747652
0.00147288
-0.00742704
0.00143388
-0.0073224
0.00138316
-0.00723162
0.00131324
-0.007268
0.00123003
-0.00742357
0.0011572
-0.00737153
0.00112242
-0.00652977
0.00113903
-0.00467145
0.00119975
-0.00183636
0.00128529
0.00115173
0.00137291
0.00409496
0.00144752
0.00611164
0.00150342
0.00774496
0.0015343
0.0082956
0.00153562
0.00911788
0.0015033
0.00968293
0.00144368
0.0105834
0.0013763
0.0106779
0.0013017
0.00887212
0.00124515
0.00641902
-0.000180058
3.95497e-05
0.00139331
0.000185405
0.00229362
0.000327515
0.0031446
0.000458936
0.00391799
0.000573074
0.00458812
0.000665541
0.00515639
0.000735268
0.00563849
0.000785664
0.00605113
0.000825491
0.00638362
0.000867824
0.00656917
0.000925548
0.00648017
0.00100449
0.00597574
0.00109961
0.00498374
0.00119902
0.00353817
0.00129262
0.00173974
0.00137579
-0.0002806
0.00144589
-0.00233626
0.00149937
-0.00419399
0.00153319
-0.00565399
0.00154713
-0.00664052
0.00154418
-0.007192
0.00152808
-0.00742032
0.00150135
-0.00744979
0.00146718
-0.00739287
0.00142738
-0.0072826
0.00137663
-0.00718087
0.001307
-0.00719837
0.00122357
-0.00734015
0.00114975
-0.0072977
0.00111384
-0.00649385
0.00112998
-0.0046876
0.00119109
-0.00189747
0.00127767
0.00106514
0.00136684
0.00400579
0.00144341
0.00603507
0.00150139
0.00768698
0.00153417
0.00826282
0.00153727
0.00911479
0.00150666
0.00971354
0.00144855
0.0106415
0.00138207
0.0107444
0.00130796
0.00894622
0.00125073
0.00647625
-0.000152527
1.25181e-05
0.00124956
0.000161607
0.00214453
0.000306309
0.0029999
0.00044082
0.00378348
0.000558469
0.00447047
0.000654995
0.00505987
0.00072954
0.00556395
0.000785799
0.00599488
0.000832637
0.00633678
0.000882694
0.00651911
0.00094772
0.00641515
0.00103209
0.00589137
0.00112973
0.00488609
0.00122872
0.00343918
0.00131971
0.00164876
0.00139896
-0.000359849
0.00146436
-0.00240166
0.00151272
-0.00424235
0.00154148
-0.00568275
0.00155092
-0.00664996
0.00154429
-0.00718537
0.00152551
-0.00740154
0.00149692
-0.00742121
0.00146142
-0.00735738
0.00142088
-0.00724206
0.00137019
-0.00713018
0.00130098
-0.00712916
0.00121748
-0.00725664
0.00114273
-0.00722295
0.00110562
-0.00645675
0.00112118
-0.00470315
0.00118256
-0.00195885
0.0012701
0.000977598
0.00136078
0.00391511
0.00143929
0.00595656
0.00149934
0.00762693
0.00153404
0.00822813
0.00153895
0.00910988
0.00151011
0.00974238
0.00145359
0.010698
0.00138804
0.01081
0.00131448
0.00901979
0.00125662
0.00653411
-0.000124183
-1.30989e-05
0.00110593
0.000138877
0.00199256
0.000285812
0.00285297
0.000423188
0.0036461
0.000544239
0.00434942
0.00064484
0.00495927
0.000724322
0.00548447
0.000786603
0.0059326
0.000840544
0.00628284
0.000898243
0.00646141
0.000970284
0.00634311
0.00105967
0.00580199
0.00115944
0.00478632
0.00125774
0.00334089
0.001346
0.00156049
0.00142135
-0.000435193
0.00148211
-0.00246242
0.00152542
-0.00428566
0.00154921
-0.00570655
0.00155424
-0.00665499
0.00154405
-0.00717518
0.00152268
-0.00738017
0.00149235
-0.00739087
0.00145561
-0.00732064
0.0014144
-0.00720084
0.00136385
-0.00707962
0.00129518
-0.0070605
0.00121173
-0.00717319
0.00113612
-0.00714735
0.00109778
-0.00641841
0.00111263
-0.00471799
0.00117416
-0.00202039
0.00126258
0.000889175
0.00135472
0.00382297
0.00143514
0.00587614
0.00149727
0.00756481
0.00153389
0.0081915
0.00154067
0.0091031
0.00151366
0.00976939
0.00145877
0.0107529
0.00139421
0.0108745
0.00132124
0.00909275
0.00126283
0.00659252
-9.50621e-05
-3.46909e-05
0.000960852
0.000117317
0.00184055
0.000266111
0.00270417
0.000406112
0.0035061
0.000530456
0.00422508
0.000635142
0.00485458
0.000719666
0.00539994
0.000788095
0.00586417
0.000849181
0.00622176
0.000914389
0.00639621
0.000993124
0.00626437
0.0010871
0.00570801
0.00118862
0.0046848
0.00128597
0.00324354
0.00137143
0.00147503
0.00144291
-0.00050667
0.00149911
-0.00251862
0.00153745
-0.004324
0.00155636
-0.00572546
0.0015571
-0.00665573
0.00154346
-0.00716155
0.0015196
-0.00735631
0.00148763
-0.0073589
0.00144975
-0.00728276
0.00140792
-0.00715902
0.00135758
-0.00702928
0.00128959
-0.00699251
0.00120633
-0.00708993
0.00112994
-0.00707095
0.00109032
-0.00637879
0.00110433
-0.004732
0.0011659
-0.00208195
0.00125511
0.000799961
0.00134866
0.00372942
0.00143097
0.00579383
0.00149515
0.00750062
0.00153373
0.00815292
0.00154241
0.00909442
0.0015173
0.0097945
0.0014641
0.0108061
0.00140057
0.010938
0.00132825
0.00916507
0.00126934
0.00665144
-6.52019e-05
-5.51789e-05
0.000815882
9.70229e-05
0.00168835
0.000247331
0.00255387
0.000389693
0.00336374
0.000517211
0.00409756
0.000625984
0.00474581
0.000715631
0.0053103
0.000790293
0.0057895
0.000858515
0.00615353
0.000931048
0.00632367
0.00101612
0.0061793
0.00111427
0.00560987
0.00121715
0.00458192
0.00131333
0.00314736
0.00139595
0.00139241
0.00146362
-0.000574336
0.00151534
-0.00257034
0.00154879
-0.00435746
0.00156292
-0.00573958
0.00155947
-0.00665228
0.0015425
-0.00714457
0.00151627
-0.00733008
0.00148275
-0.00732538
0.00144382
-0.00724382
0.00140145
-0.00711665
0.00135138
-0.00697921
0.00128418
-0.00692531
0.00120125
-0.007007
0.00112416
-0.00699386
0.00108323
-0.00633786
0.00109629
-0.00474506
0.00115776
-0.00214343
0.00124768
0.000710042
0.0013426
0.0036345
0.00142676
0.00570967
0.001493
0.00743438
0.00153354
0.00811239
0.00154418
0.00908378
0.00152102
0.00981766
0.00146957
0.0108576
0.00140712
0.0110005
0.00133551
0.00923668
0.00127615
0.0067108
-3.46432e-05
-7.37465e-05
0.000671995
7.81956e-05
0.00153641
0.000229624
0.00240244
0.000374059
0.00321931
0.000504618
0.003967
0.000617459
0.00463297
0.000712278
0.00521548
0.000793215
0.00570857
0.000868509
0.00607824
0.000948137
0.00624405
0.00103917
0.00608826
0.00114105
0.00550799
0.00124494
0.00447803
0.00133977
0.00305253
0.00141951
0.00131266
0.00148344
-0.000638264
0.00153077
-0.00261767
0.00155944
-0.00438612
0.00156888
-0.00574902
0.00156136
-0.00664477
0.00154118
-0.00712439
0.00151267
-0.00730157
0.00147771
-0.00729042
0.00143782
-0.00720394
0.00139497
-0.00707379
0.00134524
-0.00692949
0.00127894
-0.00685901
0.00119649
-0.00692454
0.00111878
-0.00691615
0.00107651
-0.0062956
0.0010885
-0.00475705
0.00114975
-0.00220468
0.00124029
0.000619508
0.00133652
0.00353827
0.00142252
0.00562368
0.0014908
0.00736609
0.00153331
0.00806988
0.00154596
0.00907114
0.00152481
0.00983881
0.00147517
0.0109072
0.00141385
0.0110618
0.001343
0.00930753
0.00128327
0.00677052
-3.42809e-06
-8.99523e-05
0.000530223
6.10767e-05
0.00138538
0.000213178
0.00225034
0.000359371
0.00307311
0.000492811
0.00383356
0.00060967
0.00451611
0.000709675
0.00511547
0.000796877
0.00562137
0.000879128
0.00599599
0.000965575
0.0061576
0.00106217
0.00599166
0.00116735
0.00540281
0.00127191
0.00437346
0.0013652
0.00295924
0.00144207
0.00123579
0.00150235
-0.000698538
0.00154539
-0.00266071
0.00156936
-0.00441009
0.00157422
-0.00575388
0.00156276
-0.00663331
0.00153949
-0.00710111
0.00150881
-0.0072709
0.00147251
-0.00725412
0.00143176
-0.00716319
0.00138848
-0.00703051
0.00133914
-0.00688015
0.00127386
-0.00679373
0.00119202
-0.0068427
0.00111379
-0.00683792
0.00107017
-0.00625198
0.00108096
-0.00476784
0.00114187
-0.00226559
0.00123293
0.000528449
0.00133044
0.00344076
0.00141823
0.00553589
0.00148855
0.00729577
0.00153305
0.00802538
0.00154774
0.00905645
0.00152867
0.00985787
0.00148089
0.010955
0.00142075
0.011122
0.00135072
0.00937756
0.0012907
0.00683054
2.83992e-05
-0.000103373
0.000391659
4.59466e-05
0.00123606
0.000198231
0.00209805
0.000345822
0.00292552
0.000481942
0.00369744
0.000602734
0.00439532
0.000707889
0.00501032
0.000801296
0.00552796
0.000890331
0.00590696
0.00098328
0.00606465
0.00108501
0.00588993
0.00119307
0.00529476
0.00129798
0.00426855
0.00138959
0.00286763
0.00146361
0.00116178
0.00152032
-0.000755257
0.00155918
-0.00269957
0.00157855
-0.00442946
0.00157894
-0.00575427
0.00156366
-0.00661803
0.00153742
-0.00707487
0.00150468
-0.00723816
0.00146714
-0.00721657
0.00142562
-0.00712167
0.00138198
-0.00698687
0.00133308
-0.00683125
0.00126891
-0.00672956
0.00118783
-0.00676162
0.00110918
-0.00675927
0.00106419
-0.00620699
0.00107369
-0.00477734
0.00113412
-0.00232602
0.00122561
0.000436957
0.00132434
0.00334204
0.00141389
0.00544633
0.00148625
0.00722341
0.00153275
0.00797887
0.00154952
0.00903968
0.00153259
0.0098748
0.00148673
0.0110008
0.00142782
0.0111809
0.00135867
0.0094467
0.00129843
0.00689079
6.07926e-05
-0.000113571
0.00025737
3.31307e-05
0.00108936
0.00018506
0.00194612
0.000333635
0.00277695
0.000472187
0.00355889
0.000596774
0.00427073
0.000706994
0.0049001
0.000806485
0.00542847
0.00090208
0.00581136
0.00100118
0.00596555
0.0011076
0.00578351
0.00121812
0.00518424
0.00132307
0.0041636
0.00141288
0.00277782
0.00148408
0.00109058
0.00153735
-0.000808524
0.00157212
-0.00273434
0.00158699
-0.00444433
0.00158303
-0.00575031
0.00156406
-0.00659906
0.00153498
-0.0070458
0.00150029
-0.00720346
0.0014616
-0.00717789
0.00141941
-0.00707948
0.00137546
-0.00694292
0.00132704
-0.00678284
0.00126408
-0.0066666
0.0011839
-0.00668143
0.00110494
-0.00668031
0.00105858
-0.00616063
0.00106667
-0.00478543
0.00112649
-0.00238584
0.00121832
0.000345127
0.00131821
0.00324214
0.0014095
0.00535504
0.00148387
0.00714904
0.00153239
0.00793036
0.00155129
0.00902078
0.00153656
0.00988953
0.00149268
0.0110447
0.00143505
0.0112385
0.00136685
0.0095149
0.00130646
0.00695118
9.37041e-05
-0.00012009
0.000128394
2.3007e-05
0.000946259
0.000173981
0.00179515
0.000323061
0.00262787
0.000463735
0.00341821
0.000591924
0.00414254
0.000707062
0.00478496
0.000812459
0.00532307
0.000914337
0.00570948
0.00101919
0.0058607
0.00112987
0.00567283
0.00124241
0.0050717
0.00134712
0.0040589
0.00143504
0.00268989
0.00150349
0.00102213
0.00155342
-0.000858449
0.0015842
-0.00276513
0.00159467
-0.0044548
0.00158647
-0.00574211
0.00156394
-0.00657653
0.00153216
-0.00701401
0.00149562
-0.00716692
0.00145588
-0.00713815
0.00141311
-0.0070367
0.00136891
-0.00689872
0.00132102
-0.00673494
0.00125935
-0.00660494
0.00118021
-0.00660229
0.00110104
-0.00660115
0.00105333
-0.00611291
0.00105991
-0.00479201
0.00111899
-0.00244492
0.00121106
0.000253059
0.00131207
0.00314113
0.00140505
0.00526206
0.00148143
0.00707266
0.00153197
0.00787982
0.00155304
0.0089997
0.00154056
0.00990201
0.00149872
0.0110866
0.00144243
0.0112948
0.00137524
0.00958209
0.00131478
0.00701164
0.000127084
-0.00012246
1.60324e-05
0.000807767
0.000165331
0.00164585
0.000314367
0.00247883
0.000456786
0.00327579
0.00058832
0.00401101
0.000708165
0.00466511
0.000819228
0.00521201
0.000927063
0.00560165
0.00103725
0.00575051
0.00115172
0.00555837
0.0012659
0.00495752
0.0013701
0.0039547
0.00145605
0.00260394
0.00152182
0.000956366
0.00156851
-0.000905144
0.00159541
-0.00279203
0.00160158
-0.00446097
0.00158926
-0.00572979
0.00156331
-0.00655059
0.00152896
-0.00697966
0.00149067
-0.00712864
0.00144998
-0.00709746
0.00140672
-0.00699344
0.00136233
-0.00685433
0.00131499
-0.0066876
0.0012547
-0.00654466
0.00117673
-0.00652432
0.00109749
-0.0065219
0.00104843
-0.00606386
0.00105341
-0.00479699
0.00111162
-0.00250313
0.00120383
0.000160852
0.00130589
0.00303907
0.00140054
0.00516741
0.00147891
0.00699429
0.00153148
0.00782725
0.00155476
0.00897642
0.0015446
0.00991217
0.00150486
0.0111263
0.00144996
0.0113497
0.00138384
0.00964821
0.00132339
0.00707209
0.00016088
1.27701e-05
0.000674659
0.000159464
0.00149916
0.000307836
0.00233046
0.00045155
0.00313208
0.000586101
0.00387646
0.000710374
0.00454084
0.000826802
0.00509558
0.000940218
0.00548823
0.0010553
0.00563543
0.00117308
0.00544058
0.0012885
0.0048421
0.00139195
0.00385125
0.00147589
0.00252
0.00153906
0.000893199
0.00158263
-0.000948722
0.00160573
-0.00281512
0.0016077
-0.00446294
0.00159138
-0.00571347
0.00156216
-0.00652136
0.00152536
-0.00694287
0.00148545
-0.00708872
0.00144389
-0.00705589
0.00140022
-0.00694978
0.00135571
-0.00680981
0.00130894
-0.00664084
0.00125011
-0.00648583
0.00117346
-0.00644766
0.00109425
-0.0064427
0.00104389
-0.00601349
0.00104718
-0.00480029
0.00110438
-0.00256033
0.00119662
6.86124e-05
0.00129969
0.002936
0.00139596
0.00507114
0.00147631
0.00691394
0.00153092
0.00777264
0.00155645
0.0089509
0.00154865
0.00991996
0.00151108
0.0111639
0.00145763
0.0114032
0.00139265
0.00971319
0.00133229
0.00713244
0.00019504
1.37536e-05
0.00054735
0.00015673
0.00135618
0.000303749
0.00218344
0.000448236
0.00298759
0.000585401
0.00373929
0.000713757
0.00441249
0.000835187
0.00497415
0.000953765
0.00536965
0.00107326
0.00551594
0.0011939
0.00531994
0.00131017
0.00472583
0.00141265
0.00374877
0.00149454
0.0024381
0.00155521
0.000832532
0.00159578
-0.00098929
0.00161516
-0.0028345
0.00161302
-0.0044608
0.00159284
-0.00569329
0.00156047
-0.00648899
0.00152138
-0.00690377
0.00147994
-0.00704729
0.0014376
-0.00701355
0.00139363
-0.0069058
0.00134904
-0.00676522
0.00130287
-0.00659467
0.00124556
-0.00642851
0.00117036
-0.00637246
0.00109132
-0.00636366
0.00103968
-0.00596185
0.00104122
-0.00480183
0.00109729
-0.0026164
0.00118945
-2.35524e-05
0.00129345
0.002832
0.00139131
0.00497329
0.00147361
0.00683163
0.00153028
0.00771597
0.00155809
0.00892309
0.00155272
0.00992533
0.00151737
0.0111992
0.00146542
0.0114551
0.00140165
0.00977696
0.00134148
0.00719261
0.000229508
1.93335e-05
0.000426491
0.000157452
0.00121806
0.000302378
0.00203851
0.000447045
0.00284292
0.000586352
0.00359998
0.000718373
0.00428047
0.000844385
0.00484814
0.000967664
0.00524637
0.00109109
0.00539252
0.00121412
0.0051969
0.00133088
0.00460908
0.00143218
0.00364747
0.00151202
0.00235825
0.00157029
0.000774262
0.00160795
-0.00102695
0.00162369
-0.00285024
0.00161754
-0.00445465
0.00159362
-0.00566938
0.00155826
-0.00645362
0.001517
-0.00686251
0.00147415
-0.00700443
0.00143111
-0.00697052
0.00138692
-0.00686161
0.00134232
-0.00672062
0.00129677
-0.00654912
0.00124102
-0.00637277
0.00116741
-0.00629884
0.00108868
-0.00628493
0.00103581
-0.00590898
0.00103553
-0.00480155
0.00109034
-0.00267121
0.00118231
-0.00011553
0.00128719
0.00272713
0.00138658
0.0048739
0.00147083
0.00674738
0.00152955
0.00765725
0.00155968
0.00889296
0.00155679
0.00992822
0.00152373
0.0112323
0.00147334
0.0115055
0.00141084
0.00983946
0.00135095
0.00725251
0.000264226
2.9556e-05
0.000312693
0.000161912
0.00108571
0.000303967
0.00189646
0.000448166
0.00269873
0.000589072
0.00345908
0.000724275
0.00414526
0.000854395
0.00471802
0.000981878
0.00511889
0.00110872
0.00526567
0.00123369
0.00507193
0.00135057
0.0044922
0.00145052
0.00354752
0.00152833
0.00228045
0.00158432
0.000718273
0.00161915
-0.00106178
0.00163131
-0.0028624
0.00162124
-0.00444459
0.00159372
-0.00564186
0.00155551
-0.00641541
0.00151222
-0.00681923
0.00146806
-0.00696027
0.00142442
-0.00692687
0.00138008
-0.00681727
0.00133553
-0.00667607
0.00129061
-0.0065042
0.00123649
-0.00631864
0.00116458
-0.00622694
0.0010863
-0.00620665
0.00103226
-0.00585494
0.00103011
-0.0047994
0.00108354
-0.00272464
0.00117521
-0.000207205
0.00128088
0.00262146
0.00138177
0.00477302
0.00146794
0.00666121
0.00152872
0.00759647
0.0015612
0.00886048
0.00156084
0.00992858
0.00153014
0.011263
0.00148138
0.0115543
0.00142022
0.00990061
0.00136069
0.00731205
0.000299137
4.4436e-05
0.000206585
0.00017033
0.000959811
0.00030873
0.00175806
0.000451763
0.00255569
0.000593665
0.00331717
0.000731506
0.00400742
0.000865207
0.00458432
0.000996366
0.00498773
0.00112612
0.00513592
0.00125256
0.00494549
0.00136924
0.00437553
0.00146768
0.00344907
0.00154349
0.00220463
0.0015973
0.000664463
0.00162939
-0.00109387
0.00163802
-0.00287103
0.00162412
-0.00443069
0.00159313
-0.00561087
0.00155222
-0.0063745
0.00150704
-0.00677405
0.00146169
-0.00691492
0.00141751
-0.0068827
0.00137312
-0.00677288
0.00132868
-0.00663164
0.0012844
-0.00645992
0.00123193
-0.00626617
0.00116186
-0.00615687
0.00108416
-0.00612895
0.00102902
-0.00579979
0.00102496
-0.00479534
0.00107689
-0.00277658
0.00116815
-0.000298461
0.00127455
0.00251506
0.00137688
0.00467068
0.00146495
0.00657314
0.00152779
0.00753363
0.00156266
0.00882561
0.00156488
0.00992635
0.00153659
0.0112913
0.00148952
0.0116013
0.00142978
0.00996036
0.0013707
0.00737113
0.00033418
6.40004e-05
0.000108489
0.000182872
0.00084094
0.000316834
0.0016241
0.000457973
0.00241455
0.000600214
0.00317493
0.000740095
0.00386754
0.000876809
0.0044476
0.00101109
0.00485345
0.00114323
0.00500378
0.0012707
0.00481802
0.00138685
0.00425938
0.00148367
0.00335225
0.00155755
0.00213076
0.00160928
0.000612724
0.00163868
-0.00112326
0.00164381
-0.00287616
0.00162617
-0.00441305
0.00159185
-0.00557655
0.00154839
-0.00633103
0.00150146
-0.00672713
0.00145502
-0.00686847
0.00141039
-0.00683807
0.00136602
-0.00672852
0.00132176
-0.00658737
0.00127813
-0.00641629
0.00122733
-0.00621537
0.00115922
-0.00608876
0.00108226
-0.00605199
0.00102608
-0.00574362
0.00102008
-0.00478933
0.00107042
-0.00282692
0.00116114
-0.000389179
0.00126817
0.00240802
0.0013719
0.00456696
0.00146184
0.00648319
0.00152675
0.00746872
0.00156403
0.00878834
0.00156889
0.00992149
0.00154307
0.0113171
0.00149775
0.0116466
0.0014395
0.0100186
0.00138097
0.00742966
0.000369293
8.83766e-05
1.68972e-05
0.000199643
0.000729673
0.000328403
0.00149534
0.000466898
0.00227606
0.000608782
0.00303305
0.000750059
0.00372626
0.000889177
0.00430848
0.00102601
0.00471662
0.00116001
0.00486978
0.00128807
0.00468995
0.0014034
0.00414404
0.0014985
0.00325715
0.00157051
0.00205875
0.00162029
0.00056294
0.00164702
-0.00114999
0.00164868
-0.00287782
0.00162738
-0.00439175
0.00158987
-0.00553904
0.00154401
-0.00628517
0.00149548