/*--------------------------------*- C++ -*----------------------------------*\
  =========                 |
  \\      /  F ield         | OpenFOAM: The Open Source CFD Toolbox
   \\    /   O peration     | Website:  https://openfoam.org
    \\  /    A nd           | Version:  7
     \\/     M anipulation  |
\*---------------------------------------------------------------------------*/
FoamFile
{
    version     2.0;
    format      ascii;
    class       surfaceScalarField;
    location    "15";
    object      phi;
}
// * * * * * * * * * * * * * * * * * * * * * * * * * * * * * * * * * * * * * //

dimensions      [0 3 -1 0 0 0 0];

internalField   nonuniform List<scalar> 
16712
(
-9.38476e-07
9.3802e-07
4.56508e-10
-3.52783e-06
2.58797e-06
1.38171e-09
-7.62819e-06
4.09802e-06
2.34317e-09
-1.31039e-05
5.47236e-06
3.32572e-09
-1.98245e-05
6.71632e-06
4.31674e-09
-2.76668e-05
7.83696e-06
5.30635e-09
-3.65162e-05
8.84313e-06
6.28812e-09
-4.62693e-05
9.74587e-06
7.25989e-09
-5.68362e-05
1.05586e-05
8.22451e-09
-6.8143e-05
1.12976e-05
9.18976e-09
-8.0135e-05
1.19818e-05
1.01683e-08
-9.27797e-05
1.26335e-05
1.11769e-08
-0.00010607
1.32781e-05
1.2235e-08
-0.000120027
1.39439e-05
1.33639e-08
-0.000134704
1.46622e-05
1.45865e-08
-0.000150186
1.5466e-05
1.59248e-08
-0.000166592
1.63889e-05
1.74012e-08
-0.000184074
1.74631e-05
1.90364e-08
-0.000202809
1.87138e-05
2.08494e-08
2.01743e-05
2.28593e-08
-0.000223006
-9.35071e-07
1.87309e-06
-3.51542e-06
5.16832e-06
-7.60177e-06
8.18436e-06
-1.30588e-05
1.09294e-05
-1.97561e-05
1.34137e-05
-2.75705e-05
1.56513e-05
-3.63871e-05
1.76597e-05
-4.61019e-05
1.94607e-05
-5.66243e-05
2.1081e-05
-6.78794e-05
2.25527e-05
-7.98113e-05
2.39138e-05
-9.23862e-05
2.52083e-05
-0.000105595
2.6487e-05
-0.000119458
2.78065e-05
-0.000134025
2.92292e-05
-0.00014938
3.08211e-05
-0.000165641
3.26497e-05
-0.000182957
3.47795e-05
-0.000201504
3.72608e-05
4.01595e-05
-0.000221489
-9.28303e-07
2.80139e-06
-3.49076e-06
7.73078e-06
-7.54922e-06
1.22428e-05
-1.2969e-05
1.63492e-05
-1.96201e-05
2.00648e-05
-2.73789e-05
2.34101e-05
-3.61301e-05
2.64109e-05
-4.57686e-05
2.90992e-05
-5.62023e-05
3.15147e-05
-6.73545e-05
3.37049e-05
-7.91668e-05
3.57261e-05
-9.16024e-05
3.76439e-05
-0.000104649
3.95338e-05
-0.000118323
4.14805e-05
-0.000132671
4.35774e-05
-0.000147774
4.59236e-05
-0.000163745
4.86205e-05
-0.000180731
5.17654e-05
-0.000198904
5.54338e-05
5.9723e-05
-0.000218467
-9.18267e-07
3.71966e-06
-3.45416e-06
1.02667e-05
-7.4712e-06
1.62599e-05
-1.28357e-05
2.17137e-05
-1.94179e-05
2.66471e-05
-2.70941e-05
3.10863e-05
-3.57479e-05
3.50647e-05
-4.52728e-05
3.86241e-05
-5.55745e-05
4.18164e-05
-6.65734e-05
4.47038e-05
-7.82075e-05
4.73602e-05
-9.04356e-05
4.98721e-05
-0.000103241
5.2339e-05
-0.000116634
5.48734e-05
-0.000130656
5.75994e-05
-0.000145381
6.06492e-05
-0.00016092
6.41588e-05
-0.000177413
6.82586e-05
-0.000195029
7.30495e-05
7.86591e-05
-0.000213965
-9.05103e-07
4.62476e-06
-3.40609e-06
1.27677e-05
-7.36865e-06
2.02224e-05
-1.26603e-05
2.70053e-05
-1.91519e-05
3.31386e-05
-2.6719e-05
3.86534e-05
-3.52444e-05
4.359e-05
-4.46194e-05
4.79991e-05
-5.47468e-05
5.19439e-05
-6.55433e-05
5.55003e-05
-7.69421e-05
5.8759e-05
-8.88963e-05
6.18263e-05
-0.000101382
6.48251e-05
-0.000114404
6.78948e-05
-0.000127994
7.119e-05
-0.000142222
7.48764e-05
-0.000157188
7.9125e-05
-0.00017303
8.41003e-05
-0.000189909
8.99292e-05
9.67677e-05
-0.000208018
-8.88989e-07
5.51375e-06
-3.34718e-06
1.52258e-05
-7.24282e-06
2.41181e-05
-1.2445e-05
3.22075e-05
-1.88248e-05
3.95185e-05
-2.62577e-05
4.60863e-05
-3.46246e-05
5.19569e-05
-4.38147e-05
5.71892e-05
-5.37271e-05
6.18563e-05
-6.42737e-05
6.60469e-05
-7.5382e-05
6.98673e-05
-8.6998e-05
7.34423e-05
-9.90899e-05
7.6917e-05
-0.000111652
8.0457e-05
-0.000124709
8.42472e-05
-0.00013832
8.8487e-05
-0.000152578
9.33832e-05
-0.000167614
9.9136e-05
-0.000183584
0.000105899
0.000113856
-0.000200673
-8.70145e-07
6.3839e-06
-3.27815e-06
1.76338e-05
-7.0952e-06
2.79351e-05
-1.2192e-05
3.73043e-05
-1.84403e-05
4.57668e-05
-2.57147e-05
5.33607e-05
-3.38947e-05
6.01369e-05
-4.28664e-05
6.61609e-05
-5.25247e-05
7.15147e-05
-6.27762e-05
7.62984e-05
-7.35412e-05
8.06323e-05
-8.47572e-05
8.46583e-05
-9.63828e-05
8.85426e-05
-0.000108402
9.24758e-05
-0.000120827
9.66727e-05
-0.000133707
0.000101367
-0.000147125
0.000106802
-0.000161206
0.000113216
-0.000176099
0.000120793
0.000129741
-0.000191984
-8.4882e-07
7.23272e-06
-3.19986e-06
1.99849e-05
-6.9275e-06
3.16627e-05
-1.19042e-05
4.2281e-05
-1.80023e-05
5.18648e-05
-2.50956e-05
6.0454e-05
-3.30617e-05
6.81029e-05
-4.17833e-05
7.48824e-05
-5.11507e-05
8.08821e-05
-6.10639e-05
8.62117e-05
-7.14354e-05
9.10037e-05
-8.21929e-05
9.54158e-05
-9.32835e-05
9.96332e-05
-0.000104678
0.000103871
-0.000116378
0.000108372
-0.000128417
0.000113406
-0.000140869
0.000119254
-0.00015385
0.000126197
-0.000167506
0.000134449
0.000144246
-0.000182011
-8.25291e-07
8.05801e-06
-3.11326e-06
2.22729e-05
-6.74162e-06
3.52911e-05
-1.15847e-05
4.71241e-05
-1.75153e-05
5.77954e-05
-2.44064e-05
6.73452e-05
-3.21333e-05
7.58298e-05
-4.05751e-05
8.33242e-05
-4.96167e-05
8.99237e-05
-5.91512e-05
9.57462e-05
-6.9082e-05
0.000100934
-7.93257e-05
0.00010566
-8.98167e-05
0.000110124
-0.000100512
0.000114566
-0.000111395
0.000119256
-0.000122489
0.000124499
-0.000133854
0.000130619
-0.000145596
0.000137939
-0.000157861
0.000146713
0.000157206
-0.00017082
-7.99857e-07
8.85787e-06
-3.01936e-06
2.44924e-05
-6.53962e-06
3.88114e-05
-1.12368e-05
5.18213e-05
-1.69841e-05
6.35427e-05
-2.36535e-05
7.40146e-05
-3.11178e-05
8.32941e-05
-3.92521e-05
9.14585e-05
-4.79357e-05
9.86073e-05
-5.70537e-05
0.000104864
-6.64996e-05
0.00011038
-7.6178e-05
0.000115338
-8.60086e-05
0.000119955
-9.59319e-05
0.000124489
-0.000105916
0.00012924
-0.000115964
0.000134548
-0.000126125
0.00014078
-0.000136497
0.000148311
-0.000147222
0.000157438
0.000168462
-0.000158477
-7.72831e-07
9.6307e-06
-2.91922e-06
2.66388e-05
-6.32363e-06
4.22158e-05
-1.0864e-05
5.63617e-05
-1.64137e-05
6.90924e-05
-2.28437e-05
8.04446e-05
-3.00239e-05
9.04743e-05
-3.78252e-05
9.92598e-05
-4.61207e-05
0.000106903
-5.47873e-05
0.000113531
-6.37075e-05
0.000119301
-7.27727e-05
0.000124403
-8.18867e-05
0.000129069
-9.09715e-05
0.000133574
-9.99759e-05
0.000138244
-0.000108885
0.000143456
-0.000117731
0.000149626
-0.000126603
0.000157183
-0.000135646
0.000166481
0.000177862
-0.000145046
-7.44534e-07
1.03752e-05
-2.81394e-06
2.87082e-05
-6.09585e-06
4.54977e-05
-1.04698e-05
6.07356e-05
-1.58092e-05
7.44318e-05
-2.19836e-05
8.6619e-05
-2.88602e-05
9.7351e-05
-3.63052e-05
0.000106705
-4.41851e-05
0.000114783
-5.23679e-05
0.000121714
-6.07249e-05
0.000127658
-6.91328e-05
0.000132811
-7.7478e-05
0.000137414
-8.56626e-05
0.000141758
-9.36133e-05
0.000146195
-0.000101294
0.000151137
-0.000108719
0.000157051
-0.000115968
0.000164433
-0.000123191
0.000173703
0.000185259
-0.000130588
-7.15291e-07
1.10905e-05
-2.70461e-06
3.06975e-05
-5.85847e-06
4.86515e-05
-1.00577e-05
6.49348e-05
-1.51756e-05
7.95497e-05
-2.10801e-05
9.25235e-05
-2.76354e-05
0.000103906
-3.47027e-05
0.000113772
-4.21417e-05
0.000122222
-4.98112e-05
0.000129383
-5.75704e-05
0.000135417
-6.52805e-05
0.000140521
-7.28092e-05
0.000144943
-8.00364e-05
0.000148985
-8.68643e-05
0.000153023
-9.32322e-05
0.000157505
-9.91346e-05
0.000162953
-0.000104641
0.00016994
-0.000109907
0.000178969
0.000190507
-0.000115155
-6.85416e-07
1.17759e-05
-2.59231e-06
3.26044e-05
-5.61364e-06
5.16729e-05
-9.63115e-06
6.89523e-05
-1.45178e-05
8.44364e-05
-2.01397e-05
9.81454e-05
-2.63575e-05
0.000110124
-3.30277e-05
0.000120442
-4.00027e-05
0.000129197
-4.71317e-05
0.000136512
-5.42612e-05
0.000142546
-6.12364e-05
0.000147496
-6.79047e-05
0.000151611
-7.41216e-05
0.000155202
-7.97625e-05
0.000158664
-8.47388e-05
0.000162481
-8.9021e-05
0.000167235
-9.26671e-05
0.000173586
-9.58395e-05
0.000182141
0.000193458
-9.87911e-05
-6.55215e-07
1.24312e-05
-2.47806e-06
3.44272e-05
-5.36339e-06
5.45582e-05
-9.19347e-06
7.27824e-05
-1.38404e-05
8.90833e-05
-1.91683e-05
0.000103473
-2.50342e-05
0.00011599
-3.12893e-05
0.000126697
-3.77789e-05
0.000135686
-4.43422e-05
0.000143075
-5.08126e-05
0.000149017
-5.70184e-05
0.000153702
-6.27855e-05
0.000157378
-6.79435e-05
0.00016036
-7.23374e-05
0.000163058
-7.58469e-05
0.000165991
-7.84144e-05
0.000169803
-8.00828e-05
0.000175255
-8.10246e-05
0.000183083
0.000193959
-8.15256e-05
-6.24974e-07
1.30561e-05
-2.36281e-06
3.61651e-05
-5.10963e-06
5.7305e-05
-8.74764e-06
7.64204e-05
-1.31477e-05
9.34834e-05
-1.81715e-05
0.000108497
-2.36722e-05
0.000121491
-2.94956e-05
0.000132521
-3.54795e-05
0.00014167
-4.14533e-05
0.000149049
-4.72368e-05
0.0001548
-5.26408e-05
0.000159106
-5.74687e-05
0.000162206
-6.15219e-05
0.000164414
-6.46121e-05
0.000166148
-6.65829e-05
0.000167961
-6.73434e-05
0.000170563
-6.6917e-05
0.000174828
-6.54866e-05
0.000181653
0.000191847
-6.33744e-05
-5.94956e-07
1.36511e-05
-2.24746e-06
3.78176e-05
-4.85408e-06
5.99116e-05
-8.29632e-06
7.98626e-05
-1.24433e-05
9.76304e-05
-1.71538e-05
0.000113207
-2.22769e-05
0.000126614
-2.76528e-05
0.000137897
-3.31118e-05
0.000147129
-3.84728e-05
0.00015441
-4.35424e-05
0.00015987
-4.81133e-05
0.000163677
-5.19652e-05
0.000166058
-5.48697e-05
0.000167318
-5.66019e-05
0.00016788
-5.69642e-05
0.000168324
-5.58262e-05
0.000169425
-5.31861e-05
0.000172188
-4.92368e-05
0.000177703
0.000186949
-4.43381e-05
-5.65394e-07
1.42165e-05
-2.13276e-06
3.93849e-05
-4.59821e-06
6.23771e-05
-7.84179e-06
8.31062e-05
-1.17303e-05
0.000101519
-1.61189e-05
0.000117596
-2.08526e-05
0.000131348
-2.57655e-05
0.00014281
-3.06801e-05
0.000152044
-3.54052e-05
0.000159135
-3.97336e-05
0.000164198
-4.34396e-05
0.000167383
-4.62788e-05
0.000168897
-4.79909e-05
0.00016903
-4.83114e-05
0.000168201
-4.69959e-05
0.000167008
-4.38667e-05
0.000166296
-3.88897e-05
0.000167211
-3.22744e-05
0.000171088
0.000179087
-2.4413e-05
-5.36489e-07
1.4753e-05
-2.01937e-06
4.08678e-05
-4.34326e-06
6.4701e-05
-7.38587e-06
8.61488e-05
-1.10109e-05
0.000105144
-1.50696e-05
0.000121655
-1.9402e-05
0.00013568
-2.3836e-05
0.000147244
-2.81862e-05
0.000156394
-3.2251e-05
0.0001632
-3.58093e-05
0.000167756
-3.86171e-05
0.000170191
-4.04049e-05
0.000170685
-4.08794e-05
0.000169505
-3.97328e-05
0.000167054
-3.66683e-05
0.000163944
-3.14511e-05
0.000161079
-2.39983e-05
0.000159758
-1.45478e-05
0.000161637
0.000168458
-3.91858e-06
-5.08406e-07
1.52614e-05
-1.9078e-06
4.22672e-05
-4.09017e-06
6.68834e-05
-6.92989e-06
8.89885e-05
-1.02867e-05
0.000108501
-1.40072e-05
0.000125375
-1.7926e-05
0.000139599
-2.18643e-05
0.000151182
-2.56284e-05
0.000160158
-2.90062e-05
0.000166578
-3.17626e-05
0.000170513
-3.36351e-05
0.000172063
-3.43289e-05
0.000171379
-3.35163e-05
0.000168692
-3.08436e-05
0.000164381
-2.59551e-05
0.000159055
-1.85479e-05
0.000153672
-8.46807e-06
0.000149679
4.18617e-06
0.000148983
0.000154224
1.84197e-05
-4.81271e-07
1.57426e-05
-1.79843e-06
4.35844e-05
-3.83957e-06
6.89245e-05
-6.47462e-06
9.16236e-05
-9.55834e-06
0.000111584
-1.2932e-05
0.000128749
-1.64238e-05
0.000143091
-1.98479e-05
0.000154606
-2.30017e-05
0.000163312
-2.56621e-05
0.000169238
-2.75802e-05
0.000172431
-2.84746e-05
0.000172958
-2.80252e-05
0.000170929
-2.58691e-05
0.000166536
-2.16043e-05
0.000160117
-1.48105e-05
0.000152261
-5.10516e-06
0.000143966
7.73461e-06
0.000136839
2.35568e-05
0.000133161
0.000136115
4.16658e-05
-4.55172e-07
1.61978e-05
-1.6915e-06
4.48207e-05
-3.59179e-06
7.08248e-05
-6.02027e-06
9.40521e-05
-8.82569e-06
0.00011439
-1.18428e-05
0.000131766
-1.48928e-05
0.00014614
-1.77815e-05
0.000157495
-2.02971e-05
0.000165827
-2.22051e-05
0.000171146
-2.3242e-05
0.000173468
-2.31076e-05
0.000172823
-2.14563e-05
0.000169278
-1.78897e-05
0.000162969
-1.1956e-05
0.000154183
-3.16548e-06
0.000143471
8.95458e-06
0.000131846
2.47261e-05
0.000121067
4.40655e-05
0.000113821
0.000113983
6.61978e-05
-4.30154e-07
1.6628e-05
-1.58709e-06
4.59776e-05
-3.3468e-06
7.25845e-05
-5.56649e-06
9.62717e-05
-8.08757e-06
0.000116911
-1.07372e-05
0.000134416
-1.33281e-05
0.000148731
-1.56573e-05
0.000159824
-1.75023e-05
0.000167672
-1.86163e-05
0.00017226
-1.87208e-05
0.000173572
-1.74964e-05
0.000171599
-1.45719e-05
0.000166353
-9.51354e-06
0.000157911
-1.81865e-06
0.000146488
9.0748e-06
0.000132577
2.37403e-05
0.000117181
4.26209e-05
0.000102187
6.57271e-05
9.07152e-05
8.74761e-05
9.22341e-05
-4.06225e-07
1.70342e-05
-1.48511e-06
4.70565e-05
-3.10427e-06
7.42037e-05
-5.11231e-06
9.82798e-05
-7.34194e-06
0.00011914
-9.61119e-06
0.000136685
-1.17233e-05
0.000150843
-1.34645e-05
0.000161565
-1.46008e-05
0.000168809
-1.48717e-05
0.000172531
-1.39826e-05
0.000172683
-1.1594e-05
0.00016921
-7.30906e-06
0.000162069
-6.58887e-07
0.000151261
8.90955e-06
0.000136919
2.20325e-05
0.000119454
3.93915e-05
9.98218e-05
6.15717e-05
8.00066e-05
8.87126e-05
6.35743e-05
5.62045e-05
0.000119984
-3.83352e-07
1.74175e-05
-1.38537e-06
4.80585e-05
-2.86352e-06
7.56818e-05
-4.65623e-06
0.000100073
-6.58584e-06
0.00012107
-8.45971e-06
0.000138559
-1.00697e-05
0.000152454
-1.11901e-05
0.000162686
-1.1573e-05
0.000169192
-1.09426e-05
0.000171901
-8.98654e-06
0.000170727
-5.34419e-06
0.000165568
4.07675e-07
0.000156317
8.77268e-06
0.000142896
2.03529e-05
0.000125339
3.58582e-05
0.000103949
5.60821e-05
7.95979e-05
8.17702e-05
5.43185e-05
0.00011323
3.21142e-05
1.9745e-05
0.00014969
-3.61463e-07
1.7779e-05
-1.28747e-06
4.89845e-05
-2.62355e-06
7.70179e-05
-4.19612e-06
0.000101645
-5.81541e-06
0.000122689
-7.27623e-06
0.00014002
-8.35725e-06
0.000153535
-8.81824e-06
0.000163147
-8.39558e-06
0.000168769
-6.79568e-06
0.000170301
-3.6859e-06
0.000167617
1.31746e-06
0.000160565
8.66515e-06
0.000148969
1.88953e-05
0.000132666
3.2657e-05
0.000111577
5.07304e-05
8.58758e-05
7.40206e-05
5.63078e-05
0.000103447
2.48925e-05
0.000139524
-3.96336e-06
-2.23487e-05
0.000181618
-3.40447e-07
1.81195e-05
-1.19092e-06
4.9835e-05
-2.38304e-06
7.821e-05
-3.72934e-06
0.000102991
-5.02593e-06
0.000123986
-6.05303e-06
0.000141047
-6.57376e-06
0.000154055
-6.33097e-06
0.000162904
-5.04237e-06
0.00016748
-2.3935e-06
0.000167652
1.97156e-06
0.000163252
8.46262e-06
0.000154074
1.756e-05
0.000139872
2.98366e-05
0.000120389
4.5986e-05
9.5428e-05
6.68529e-05
6.50088e-05
9.3448e-05
2.97127e-05
0.000126868
-8.52797e-06
0.000167873
-4.49679e-05
-7.05311e-05
0.000216055
-3.20158e-07
1.84396e-05
-1.09504e-06
5.06099e-05
-2.14035e-06
7.92553e-05
-3.25266e-06
0.000104104
-4.21184e-06
0.000124945
-4.78117e-06
0.000141616
-4.70561e-06
0.00015398
-3.70816e-06
0.000161906
-1.48442e-06
0.000165257
2.30468e-06
0.000163863
8.04239e-06
0.000157515
1.61686e-05
0.000145948
2.71963e-05
0.000128844
4.17344e-05
0.000105851
6.05186e-05
7.66438e-05
8.44504e-05
4.10771e-05
0.000114633
-4.70146e-07
0.000152337
-4.62312e-05
0.000198586
-9.12175e-05
-0.000125246
0.000253301
-3.0041e-07
1.874e-05
-9.99037e-07
5.13085e-05
-1.89352e-06
8.01498e-05
-2.76232e-06
0.000104972
-3.36674e-06
0.00012555
-3.45057e-06
0.0001417
-2.73768e-06
0.000153267
-9.27783e-07
0.000160096
2.30951e-06
0.000162019
7.34239e-06
0.00015883
1.45864e-05
0.000150271
2.45165e-05
0.000136017
3.76829e-05
0.000115677
5.4733e-05
8.88011e-05
7.64425e-05
5.49343e-05
0.00010376
1.37592e-05
0.000137865
-3.45745e-05
0.000180176
-8.85426e-05
0.000231996
-0.000143038
-0.000186902
0.000293652
-2.80979e-07
1.9021e-05
-9.01951e-07
5.19295e-05
-1.64028e-06
8.08881e-05
-2.25402e-06
0.000105586
-2.48345e-06
0.000125779
-2.05005e-06
0.000141267
-6.53391e-07
0.00015187
2.03388e-06
0.000157409
6.37263e-06
0.000157681
1.27653e-05
0.000152437
2.16655e-05
0.00014137
3.35895e-05
0.000124093
4.91304e-05
0.000100137
6.89778e-05
6.89537e-05
9.39469e-05
2.99651e-05
0.000125024
-1.73183e-05
0.000163439
-7.29887e-05
0.000210725
-0.000135829
0.000268448
-0.000200761
-0.000255847
0.000337393
-2.61601e-07
1.92826e-05
-8.02678e-07
5.24706e-05
-1.37803e-06
8.14635e-05
-1.72292e-06
0.000105931
-1.55396e-06
0.00012561
-5.6735e-07
0.00014028
1.56516e-06
0.000149738
5.20213e-06
0.000153772
1.07398e-05
0.000152143
1.86206e-05
0.000144556
2.93428e-05
0.000130648
4.34709e-05
0.000109965
6.16478e-05
8.19596e-05
8.46109e-05
4.59906e-05
0.000113215
1.36055e-06
0.000148476
-5.25792e-05
0.000191645
-0.000116157
0.000244317
-0.000188502
0.000308284
-0.000264727
-0.000332331
0.000384768
-2.41971e-07
1.95246e-05
-6.99957e-07
5.29285e-05
-1.10384e-06
8.18673e-05
-1.16361e-06
0.000105991
-5.69454e-07
0.000125016
1.01087e-06
0.0001387
3.93718e-06
0.000146811
8.6037e-06
0.000149106
1.54473e-05
0.000145299
2.49565e-05
0.000135047
3.76813e-05
0.000117923
5.42422e-05
9.34045e-05
7.53399e-05
6.08619e-05
0.000101766
1.95647e-05
0.000134418
-3.12914e-05
0.000174331
-9.24922e-05
0.000222749
-0.000164575
0.000281263
-0.000247016
0.000351824
-0.000335288
-0.000416476
0.000435969
-2.21736e-07
1.97463e-05
-5.92363e-07
5.32992e-05
-8.14436e-07
8.20894e-05
-5.70111e-07
0.000105747
4.79705e-07
0.000123966
2.69904e-06
0.00013648
6.4832e-06
0.000143027
1.22667e-05
0.000143322
2.05326e-05
0.000137033
3.18219e-05
0.000123758
4.67436e-05
0.000103002
6.59822e-05
7.41659e-05
9.03044e-05
3.65397e-05
0.000120563
-1.06941e-05
0.000157702
-6.84305e-05
0.000202771
-0.000137561
0.000256978
-0.000218782
0.000321827
-0.000311865
0.000399349
-0.00041281
-0.00050823
0.000491103
-2.00498e-07
1.99468e-05
-4.78299e-07
5.3577e-05
-5.06186e-07
8.21173e-05
6.41633e-08
0.000105176
1.604e-06
0.000122426
4.51267e-06
0.000133572
9.22499e-06
0.000138315
1.62206e-05
0.000136327
2.60342e-05
0.00012722
3.9266e-05
0.000110526
5.65909e-05
8.56768e-05
7.87653e-05
5.19915e-05
0.00010663
8.67496e-06
0.000141107
-4.5171e-05
0.00018319
-0.000110514
0.00023394
-0.000188311
0.000294504
-0.000279346
0.000366211
-0.000383572
0.000451079
-0.000497677
-0.000607328
0.000550177
-1.77807e-07
2.01246e-05
-3.55989e-07
5.37552e-05
-1.75094e-07
8.19364e-05
7.46282e-07
0.000104255
2.81476e-06
0.000120358
6.46837e-06
0.000129918
1.21856e-05
0.000132598
2.04962e-05
0.000128016
3.19919e-05
0.000115724
4.73381e-05
9.51798e-05
6.72826e-05
6.57323e-05
9.26607e-05
2.66133e-05
0.000124394
-2.30587e-05
0.000163481
-8.42575e-05
0.00021097
-0.000158003
0.000267929
-0.00024527
0.000335428
-0.000346846
0.000414537
-0.00046268
0.00050716
-0.0005903
-0.000713248
0.000613081
-1.5316e-07
2.02778e-05
-2.23478e-07
5.38255e-05
1.83202e-07
8.15297e-05
1.4841e-06
0.000102954
4.12418e-06
0.000117718
8.58385e-06
0.000125458
1.53895e-05
0.000125792
2.51253e-05
0.00011828
3.84458e-05
0.000102404
5.60872e-05
7.75385e-05
7.88757e-05
4.29438e-05
0.000107731
-2.24237e-06
0.000143662
-5.89897e-05
0.000187746
-0.000128341
0.00024109
-0.000211347
0.000304772
-0.000308952
0.00037977
-0.000421844
0.000466833
-0.000549744
0.000567659
-0.000691126
-0.000825179
0.000679589
-1.25999e-07
2.04038e-05
-7.85889e-08
5.37781e-05
5.73426e-07
8.08777e-05
2.28593e-06
0.000101241
5.54529e-06
0.000114458
1.08778e-05
0.000120126
1.88619e-05
0.000117808
3.0141e-05
0.000107001
4.5437e-05
8.71075e-05
6.55616e-05
5.74139e-05
9.14242e-05
1.70812e-05
0.000124033
-3.48509e-05
0.000164484
-9.94407e-05
0.000213936
-0.000177793
0.000273557
-0.000270968
0.000344435
-0.000379831
0.000427453
-0.000504862
0.000523013
-0.000645304
0.000632503
-0.000800616
-0.000942124
0.000749448
-9.57271e-08
2.04995e-05
8.08854e-08
5.36015e-05
1.00066e-06
7.99579e-05
3.16067e-06
9.90814e-05
7.09185e-06
0.000110527
1.337e-05
0.000113848
2.26295e-05
0.000108548
3.55772e-05
9.40534e-05
5.30065e-05
6.96782e-05
7.58084e-05
3.46119e-05
0.000104978
-1.20881e-05
0.000141611
-7.14839e-05
0.000186891
-0.000144721
0.000242054
-0.000232956
0.000308326
-0.00033724
0.000386814
-0.000458319
0.000478324
-0.000596371
0.000582937
-0.000749917
0.000701386
-0.000919064
-0.00106338
0.000822637
-6.16823e-08
2.05612e-05
2.57455e-07
5.32823e-05
1.47029e-06
7.87451e-05
4.1177e-06
9.6434e-05
8.77829e-06
0.000105867
1.60809e-05
0.000106545
2.67194e-05
9.79099e-05
4.1468e-05
7.93048e-05
6.11949e-05
4.99513e-05
8.68724e-05
8.93449e-06
0.00011958
-4.4796e-05
0.0001605
-0.000112404
0.000210894
-0.000195115
0.000272064
-0.000294126
0.000345287
-0.000410463
0.000431702
-0.000544734
0.000532136
-0.000696805
0.000646619
-0.0008644
0.000774248
-0.00104669
-0.0011886
0.00089947
-2.31642e-08
2.05843e-05
4.53793e-07
5.28054e-05
1.98797e-06
7.72109e-05
5.1668e-06
9.32552e-05
1.06195e-05
0.000100414
1.90313e-05
9.81334e-05
3.1159e-05
8.57822e-05
4.78474e-05
6.26165e-05
7.00413e-05
2.77574e-05
9.87944e-05
-1.98187e-05
0.000135269
-8.12702e-05
0.000180722
-0.000157857
0.000236479
-0.000250872
0.000303888
-0.000361535
0.000384247
-0.000490822
0.000478726
-0.000639213
0.000588304
-0.000806382
0.000713748
-0.000989844
0.000853487
-0.00118643
-0.00131401
0.000978898
2.04852e-08
2.05639e-05
6.7236e-07
5.21535e-05
2.55927e-06
7.5324e-05
6.31771e-06
8.94968e-05
1.26305e-05
9.41011e-05
2.2242e-05
8.85218e-05
3.59755e-05
7.20487e-05
5.47481e-05
4.38439e-05
7.95823e-05
2.92318e-06
0.000111611
-5.18471e-05
0.00015207
-0.00012173
0.00020228
-0.000208067
0.000263606
-0.000312198
0.000337401
-0.00043533
0.000424936
-0.000578357
0.000527338
-0.000741615
0.000645617
-0.000924661
0.000781096
-0.00112532
0.000937072
-0.00134241
-0.00153498
0.00115804
7.01852e-08
2.04937e-05
9.16361e-07
5.13073e-05
3.19068e-06
7.30497e-05
7.58116e-06
8.51063e-05
1.48269e-05
8.68554e-05
2.57345e-05
7.76142e-05
4.11957e-05
5.65875e-05
6.22013e-05
2.28383e-05
8.98505e-05
-2.4726e-05
0.00012535
-8.73463e-05
0.000169999
-0.000166379
0.00022516
-0.000263228
0.000292205
-0.000379243
0.000372442
-0.000515566
0.000467033
-0.000672949
0.000576934
-0.000851515
0.000702917
-0.00105064
0.00084622
-0.00126863
0.00100836
-0.00150455
-0.00173328
0.00120666
1.26637e-07
2.0367e-05
1.18839e-06
5.02456e-05
3.88786e-06
7.03502e-05
8.9669e-06
8.00272e-05
1.72233e-05
7.85989e-05
2.95284e-05
6.53091e-05
4.6844e-05
3.9272e-05
7.02347e-05
-5.52414e-07
0.000100873
-5.53641e-05
0.000140031
-0.000126504
0.000189056
-0.000215404
0.000249327
-0.000323499
0.000322178
-0.000452095
0.000408815
-0.000602203
0.000510204
-0.000774337
0.00062699
-0.000968301
0.00075945
-0.00118311
0.000907956
-0.00141713
0.00107166
-0.00166825
-0.00191949
0.00125786
1.90607e-07
2.01764e-05
1.49122e-06
4.89449e-05
4.65667e-06
6.71848e-05
1.04847e-05
7.41992e-05
1.98341e-05
6.92496e-05
3.36425e-05
5.15006e-05
5.29427e-05
1.99718e-05
7.88714e-05
-2.64812e-05
0.000112669
-8.91616e-05
0.000155662
-0.000169497
0.000209224
-0.000268967
0.000274718
-0.000388992
0.000353396
-0.000530773
0.000446294
-0.0006951
0.000554095
-0.000882138
0.000677026
-0.00109123
0.000814737
-0.00132082
0.000966598
-0.00156899
0.00113041
-0.00183206
-0.00209704
0.00130797
2.62859e-07
1.99136e-05
1.82757e-06
4.73802e-05
5.50272e-06
6.35096e-05
1.21438e-05
6.75582e-05
2.26723e-05
5.87211e-05
3.80935e-05
3.60794e-05
5.95105e-05
-1.44522e-06
8.81292e-05
-5.50998e-05
0.000125249
-0.000126281
0.000172235
-0.000216483
0.000230465
-0.000327197
0.000301244
-0.000459771
0.000385693
-0.000615222
0.000484609
-0.000794017
0.00059832
-0.000995848
0.000726551
-0.00121946
0.000868289
-0.00146255
0.00102196
-0.00172267
0.00118451
-0.00199461
-0.00226737
0.00135484
3.44125e-07
2.20001e-06
4.55244e-05
6.43128e-06
5.92783e-05
1.39526e-05
6.00369e-05
2.57496e-05
4.6924e-05
4.28956e-05
1.89334e-05
6.6562e-05
-2.51117e-05
9.80182e-05
-8.65559e-05
0.000138612
-0.000166875
0.000189728
-0.000267599
0.000252715
-0.000390184
0.000328782
-0.000535838
0.000418862
-0.000705302
0.00052345
-0.000898605
0.000642449
-0.00111485
0.000775038
-0.00135205
0.000919547
-0.00160706
0.00107358
-0.0018767
0.00123353
-0.00215456
-0.0024308
0.00139695
2.61093e-06
7.44715e-06
5.44421e-05
1.59188e-05
5.15652e-05
2.90762e-05
3.37666e-05
4.80597e-05
-5.00948e-08
7.41063e-05
-5.11583e-05
0.000108541
-0.00012099
0.000152744
-0.000211079
0.000208097
-0.000322952
0.000275887
-0.000457973
0.000357177
-0.000617129
0.000452656
-0.00080078
0.000562459
-0.00100841
0.000686013
-0.0012384
0.000821927
-0.00148797
0.000967921
-0.00175306
0.00112093
-0.00202971
0.00127703
-0.00231065
-0.00258704
0.00143327
8.55455e-06
1.80486e-05
4.20712e-05
3.26596e-05
1.91557e-05
5.35932e-05
-2.09837e-05
8.21463e-05
-7.97115e-05
0.000119689
-0.000158532
0.000167617
-0.000259008
0.00022728
-0.000382616
0.000299863
-0.000530556
0.000386237
-0.000703503
0.000486789
-0.000901332
0.000601242
-0.00112286
0.000728513
-0.00136567
0.000866647
-0.0016261
0.00101282
-0.00189923
0.00116349
-0.00218038
0.0013146
-0.00246176
-0.00273562
0.00146317
2.0347e-05
3.14812e-05
3.65051e-05
2.99755e-06
5.9499e-05
-4.39776e-05
9.06782e-05
-0.000110891
0.000131444
-0.000199298
0.000183187
-0.000310751
0.000247192
-0.00044662
0.000324499
-0.000607863
0.000415736
-0.00079474
0.000520937
-0.00100653
0.000639371
-0.0012413
0.000769432
-0.00149573
0.000908631
-0.0017653
0.00105371
-0.00204431
0.0012008
-0.00232747
0.00134592
-0.00260688
-0.00287601
0.00148632
2.28174e-05
4.06152e-05
-1.48002e-05
6.57754e-05
-6.91378e-05
9.96905e-05
-0.000144806
0.000143776
-0.000243384
0.000199393
-0.000366367
0.000267724
-0.000514951
0.000349621
-0.00068976
0.000445419
-0.000890538
0.000554751
-0.00111586
0.000676404
-0.00136295
0.000808256
-0.00162759
0.000947348
-0.00190439
0.00109009
-0.00218705
0.0012325
-0.00246988
0.00137082
-0.0027452
-0.00300783
0.00150263
4.49891e-05
7.24154e-05
-9.65641e-05
0.000109164
-0.000181554
0.000156645
-0.000290865
0.000216158
-0.00042588
0.000288749
-0.000587542
0.000375033
-0.000776044
0.000475003
-0.000990509
0.000587858
-0.00122872
0.000711889
-0.00148698
0.000844494
-0.00176019
0.000982324
-0.00204222
0.00112159
-0.00232632
0.00125836
-0.00260664
0.00138923
-0.00287608
-0.00313084
0.00151224
7.94068e-05
0.00011907
-0.000221217
0.000169995
-0.000341791
0.000233389
-0.000489274
0.000310116
-0.000664269
0.000400512
-0.000866439
0.000504186
-0.00109418
0.000619876
-0.00134441
0.00074539
-0.00161249
0.000877695
-0.0018925
0.00101316
-0.00217768
0.00114793
-0.00246109
0.00127828
-0.00273699
0.00140127
-0.00299907
-0.003245
0.00151543
0.000129372
0.000183761
-0.000396179
0.000250974
-0.000556487
0.000331657
-0.000744952
0.000425818
-0.000960601
0.000532652
-0.00120102
0.000650426
-0.00146218
0.000776493
-0.00173856
0.000907467
-0.00202347
0.00103955
-0.00230976
0.00116895
-0.0025905
0.00129229
-0.00286032
0.00140716
-0.00311394
-0.00335043
0.00151259
0.000197864
0.000268791
-0.000627415
0.000353187
-0.000829349
0.0004507
-0.00105811
0.000560084
-0.0013104
0.000679143
-0.00158124
0.000804826
-0.00186424
0.000933485
-0.00215213
0.00106127
-0.00243755
0.00118462
-0.00271384
0.00130055
-0.00297625
0.00140724
-0.00322064
-0.00344741
0.00150422
0.0002867
0.00037451
-0.000917159
0.000474896
-0.0011585
0.000586166
-0.00142167
0.000705686
-0.00170076
0.000830069
-0.00198863
0.000955508
-0.00227757
0.00107823
-0.00256028
0.00119498
-0.00283059
0.00130329
-0.00308456
0.00140192
-0.00331926
-0.00353634
0.00149085
0.000395418
0.000498146
-0.00126123
0.000610599
-0.00153412
0.000729752
-0.00181992
0.000851962
-0.00211084
0.000973378
-0.00239898
0.00109042
-0.00267732
0.00120022
-0.00294039
0.00130086
-0.0031852
0.00139166
-0.00341007
-0.0036177
0.00147302
0.000520194
0.000633107
-0.00164704
0.000751082
-0.00193789
0.000870315
-0.00223007
0.000987019
-0.00251569
0.0010979
-0.0027882
0.00120056
-0.00304305
0.00129363
-0.00327826
0.00137695
-0.00349339
-0.00369203
0.00145128
0.000653441
0.000769466
0.000885004
-0.00234561
0.000996437
-0.00262712
0.00110084
-0.00289261
0.00119631
-0.00313852
0.00128202
-0.00336397
0.00135829
-0.00356966
-0.0037599
0.00142616
0.000895978
0.00100171
-0.00273285
0.00109946
-0.00299035
0.00118782
-0.00322688
0.00126649
-0.00344264
0.00133617
-0.00363934
-0.00382186
0.00139813
0.00100298
0.00109401
-0.00308139
0.00117546
-0.00330833
0.00124745
-0.00351464
0.00131104
-0.00370293
-0.00387847
0.00136765
0.00108481
0.0011596
0.00122535
-0.00358038
0.00128334
-0.00376092
-0.00393023
0.0013351
0.00120057
0.00125345
-0.00381379
-0.00397762
0.00130083
0.00122172
0.00126515
0.00122172
0.00381379
0.00397762
0.00126515
0.00120058
0.00358038
0.00125345
0.00376092
0.00393023
0.00130084
0.00108481
0.00308138
0.0011596
0.00330832
0.00122535
0.00351463
0.00128334
0.00370293
0.00387847
0.0013351
0.00100298
0.00273285
0.00109401
0.00299035
0.00117546
0.00322688
0.00124746
0.00344264
0.00131104
0.00363934
0.00382186
0.00136765
0.000784752
0.00205391
0.000895978
0.0023456
0.00100171
0.00262712
0.00109946
0.0028926
0.00118782
0.00313851
0.00126649
0.00336397
0.00133617
0.00356965
0.0037599
0.00139814
0.000653441
0.00164703
0.000769466
0.00193788
0.000885005
0.00223006
0.000996438
0.00251568
0.00110084
0.0027882
0.00119631
0.00304304
0.00128203
0.00327826
0.00135829
0.00349339
0.00369203
0.00142616
0.000520193
0.00126122
0.000633106
0.00153412
0.000751081
0.00181991
0.000870315
0.00211083
0.00098702
0.00239898
0.0010979
0.00267731
0.00120056
0.00294039
0.00129363
0.00318519
0.00137695
0.00341006
0.00361769
0.00145129
0.000395417
0.000917153
0.000498145
0.00115849
0.000610598
0.00142166
0.000729752
0.00170076
0.000851962
0.00198862
0.000973378
0.00227756
0.00109042
0.00256027
0.00120022
0.00283059
0.00130086
0.00308455
0.00139166
0.00331926
0.00353633
0.00147302
0.000286699
0.00062741
0.000374509
0.000829343
0.000474896
0.00105811
0.000586165
0.00131039
0.000705686
0.00158123
0.000830068
0.00186424
0.000955508
0.00215212
0.00107824
0.00243754
0.00119499
0.00271384
0.00130329
0.00297625
0.00140192
0.00322063
0.0034474
0.00149085
0.000197863
0.000396175
0.00026879
0.000556483
0.000353187
0.000744947
0.000450699
0.000960595
0.000560083
0.00120101
0.000679142
0.00146218
0.000804825
0.00173855
0.000933485
0.00202346
0.00106127
0.00230975
0.00118462
0.00259049
0.00130055
0.00286032
0.00140724
0.00311393
0.00335042
0.00150422
0.000129372
0.000221214
0.00018376
0.000341787
0.000250974
0.000489269
0.000331656
0.000664264
0.000425817
0.000866433
0.000532651
0.00109418
0.000650425
0.0013444
0.000776492
0.00161249
0.000907466
0.00189249
0.00103955
0.00217768
0.00116896
0.00246108
0.00129229
0.00273698
0.00140716
0.00299906
0.00324499
0.00151259
7.94064e-05
9.65619e-05
0.000119069
0.000181551
0.000169994