/*--------------------------------*- C++ -*----------------------------------*\
  =========                 |
  \\      /  F ield         | OpenFOAM: The Open Source CFD Toolbox
   \\    /   O peration     | Website:  https://openfoam.org
    \\  /    A nd           | Version:  7
     \\/     M anipulation  |
\*---------------------------------------------------------------------------*/
FoamFile
{
    version     2.0;
    format      ascii;
    class       volScalarField;
    location    "45";
    object      p;
}
// * * * * * * * * * * * * * * * * * * * * * * * * * * * * * * * * * * * * * //

dimensions      [0 2 -2 0 0 0 0];

internalField   nonuniform List<scalar> 
8500
(
-0.174408
-0.17444
-0.174437
-0.174394
-0.174309
-0.174176
-0.173992
-0.173751
-0.173449
-0.173081
-0.17264
-0.17212
-0.171514
-0.170814
-0.170011
-0.169095
-0.168056
-0.166881
-0.165556
-0.164068
-0.162398
-0.160529
-0.158439
-0.156108
-0.153512
-0.150626
-0.147421
-0.143872
-0.139946
-0.135622
-0.130858
-0.125648
-0.119939
-0.113747
-0.107013
-0.0997578
-0.0920017
-0.0836144
-0.075013
-0.0652922
-0.0564415
-0.0447756
-0.0371048
-0.0219795
-0.018381
0.00208412
-0.174443
-0.174472
-0.174465
-0.174417
-0.174325
-0.174184
-0.17399
-0.173738
-0.173424
-0.173041
-0.172585
-0.172048
-0.171424
-0.170705
-0.169884
-0.168949
-0.167892
-0.1667
-0.16536
-0.163861
-0.162183
-0.16031
-0.158223
-0.155901
-0.153321
-0.150457
-0.147283
-0.143772
-0.139891
-0.135617
-0.130908
-0.125754
-0.120102
-0.113964
-0.107278
-0.100061
-0.0923314
-0.0839574
-0.0753505
-0.0656095
-0.0567155
-0.0449952
-0.0372542
-0.022045
-0.0183973
0.00221104
-0.17449
-0.174516
-0.174504
-0.17445
-0.174351
-0.174202
-0.173998
-0.173736
-0.173409
-0.173012
-0.172541
-0.171987
-0.171346
-0.170608
-0.169768
-0.168815
-0.167739
-0.16653
-0.165179
-0.163667
-0.161981
-0.160106
-0.158022
-0.155709
-0.153145
-0.150305
-0.147162
-0.143689
-0.139852
-0.135629
-0.130975
-0.125878
-0.120282
-0.114198
-0.107559
-0.10038
-0.0926761
-0.0843157
-0.0757015
-0.0659412
-0.0570019
-0.0452289
-0.0374155
-0.0221219
-0.0184232
0.00237684
-0.174548
-0.17457
-0.174553
-0.174494
-0.174388
-0.174231
-0.174018
-0.173744
-0.173405
-0.172994
-0.172507
-0.171937
-0.171278
-0.170523
-0.169664
-0.168692
-0.167599
-0.166377
-0.165009
-0.163486
-0.161794
-0.159916
-0.157836
-0.155533
-0.152985
-0.150169
-0.147057
-0.143623
-0.139831
-0.135658
-0.131058
-0.126018
-0.120478
-0.114448
-0.107855
-0.100714
-0.0930346
-0.0846895
-0.0760652
-0.066286
-0.0572999
-0.0454757
-0.0375881
-0.0222103
-0.0184586
0.00257827
-0.174617
-0.174635
-0.174613
-0.174548
-0.174435
-0.17427
-0.174047
-0.173763
-0.173411
-0.172987
-0.172485
-0.171899
-0.171223
-0.170449
-0.169572
-0.168583
-0.167474
-0.166233
-0.164853
-0.16332
-0.161621
-0.159741
-0.157664
-0.155371
-0.15284
-0.150048
-0.146968
-0.143572
-0.139825
-0.135703
-0.131158
-0.126174
-0.12069
-0.114713
-0.108167
-0.101061
-0.093406
-0.0850747
-0.0764401
-0.0666427
-0.0576081
-0.0457346
-0.037771
-0.0223104
-0.0185037
0.0028108
-0.174695
-0.174709
-0.174683
-0.174612
-0.174493
-0.174319
-0.174087
-0.173792
-0.173428
-0.172991
-0.172474
-0.171872
-0.171179
-0.170388
-0.169493
-0.168485
-0.167359
-0.166103
-0.16471
-0.163167
-0.161462
-0.159581
-0.157508
-0.155225
-0.152711
-0.149944
-0.146895
-0.143538
-0.139836
-0.135764
-0.131273
-0.126345
-0.120916
-0.114992
-0.108491
-0.101418
-0.0937931
-0.0854714
-0.0768251
-0.06701
-0.0579253
-0.0460046
-0.0379633
-0.0224224
-0.0185584
0.00306822
-0.174783
-0.174794
-0.174763
-0.174686
-0.17456
-0.174378
-0.174137
-0.173831
-0.173455
-0.173004
-0.172473
-0.171855
-0.171145
-0.170337
-0.169425
-0.1684
-0.167257
-0.165987
-0.164581
-0.163028
-0.161317
-0.159435
-0.157366
-0.155094
-0.152597
-0.149854
-0.146837
-0.143519
-0.139862
-0.135841
-0.131403
-0.126531
-0.121156
-0.115284
-0.108828
-0.101783
-0.0941866
-0.0858779
-0.0772184
-0.0673864
-0.0582502
-0.0462846
-0.0381642
-0.0225463
-0.0186224
0.00334365
-0.17488
-0.174886
-0.174851
-0.174769
-0.174635
-0.174446
-0.174196
-0.173879
-0.173492
-0.173028
-0.172482
-0.171849
-0.171123
-0.170298
-0.169368
-0.168327
-0.167168
-0.165883
-0.164465
-0.162903
-0.161186
-0.159304
-0.15724
-0.154978
-0.152499
-0.14978
-0.146795
-0.143515
-0.139903
-0.135931
-0.131546
-0.12673
-0.121408
-0.115587
-0.109172
-0.102207
-0.0945892
-0.0862928
-0.0776188
-0.0677704
-0.0585814
-0.0465732
-0.0383724
-0.0226822
-0.018695
0.00363498
-0.174984
-0.174987
-0.174947
-0.174859
-0.174719
-0.174522
-0.174263
-0.173937
-0.173538
-0.173061
-0.172501
-0.171853
-0.171111
-0.17027
-0.169323
-0.168266
-0.167091
-0.165792
-0.164362
-0.162791
-0.16107
-0.159186
-0.157127
-0.154876
-0.152415
-0.149721
-0.146767
-0.143526
-0.139958
-0.136035
-0.131703
-0.126941
-0.121672
-0.115901
-0.109522
-0.102591
-0.0949989
-0.0867144
-0.0780245
-0.0681606
-0.0589176
-0.0468693
-0.0385869
-0.0228303
-0.0187754
0.00394519
-0.175095
-0.175094
-0.175049
-0.174956
-0.17481
-0.174606
-0.174338
-0.174002
-0.173592
-0.173103
-0.172529
-0.171867
-0.171109
-0.170252
-0.169289
-0.168216
-0.167026
-0.165714
-0.164272
-0.162692
-0.160966
-0.159083
-0.157029
-0.154789
-0.152345
-0.149676
-0.146753
-0.14355
-0.140025
-0.136152
-0.131871
-0.127162
-0.121945
-0.116221
-0.10989
-0.102984
-0.0954138
-0.0871411
-0.0784342
-0.0685554
-0.0592574
-0.0471716
-0.0388065
-0.0229913
-0.0188644
0.00423125
-0.175207
-0.175158
-0.17506
-0.174908
-0.174696
-0.17442
-0.174074
-0.173653
-0.173152
-0.172566
-0.171889
-0.171117
-0.170244
-0.169265
-0.168177
-0.166972
-0.165647
-0.164194
-0.162606
-0.160876
-0.158992
-0.156944
-0.154715
-0.152289
-0.149644
-0.146753
-0.143587
-0.140105
-0.13628
-0.13205
-0.127394
-0.122226
-0.116547
-0.110255
-0.103386
-0.0958326
-0.0875712
-0.0788462
-0.0689533
-0.0595994
-0.0474788
-0.0390297
-0.0231641
-0.0189662
0.00430991
-0.175325
-0.175272
-0.175169
-0.17501
-0.174792
-0.174508
-0.174153
-0.173722
-0.17321
-0.17261
-0.17192
-0.171133
-0.170245
-0.169251
-0.168148
-0.166929
-0.165591
-0.164127
-0.162532
-0.160797
-0.158914
-0.156871
-0.154654
-0.152245
-0.149625
-0.146764
-0.143635
-0.140196
-0.136419
-0.132238
-0.127633
-0.122513
-0.116886
-0.110627
-0.103791
-0.0962536
-0.0880032
-0.079259
-0.0693529
-0.0599423
-0.0477898
-0.0392556
-0.0233394
-0.0190777
0.0041777
-0.175445
-0.175389
-0.175281
-0.175118
-0.174893
-0.174601
-0.174238
-0.173797
-0.173273
-0.172662
-0.171958
-0.171157
-0.170255
-0.169247
-0.168128
-0.166896
-0.165546
-0.164072
-0.162469
-0.160731
-0.158849
-0.156811
-0.154605
-0.152214
-0.149617
-0.146787
-0.143695
-0.140297
-0.136566
-0.132434
-0.12788
-0.122804
-0.117228
-0.111004
-0.104199
-0.0966752
-0.0884354
-0.0796711
-0.0697525
-0.0602847
-0.0481031
-0.0394873
-0.0235058
-0.0191931
0.00400862
-0.175568
-0.175508
-0.175396
-0.175228
-0.174997
-0.174698
-0.174326
-0.173876
-0.173342
-0.172719
-0.172003
-0.171189
-0.170273
-0.16925
-0.168118
-0.166873
-0.165511
-0.164027
-0.162418
-0.160676
-0.158794
-0.156762
-0.154568
-0.152193
-0.14962
-0.14682
-0.143764
-0.140407
-0.136722
-0.132637
-0.12813
-0.123104
-0.11757
-0.111384
-0.104607
-0.0970959
-0.0888664
-0.080081
-0.0701509
-0.0606253
-0.0484157
-0.0397289
-0.0237171
-0.0192726
0.00385275
-0.175692
-0.175628
-0.175513
-0.17534
-0.175103
-0.174798
-0.174419
-0.17396
-0.173416
-0.172782
-0.172054
-0.171227
-0.170297
-0.169261
-0.168116
-0.166858
-0.165485
-0.163992
-0.162376
-0.160631
-0.15875
-0.156724
-0.154541
-0.152183
-0.149634
-0.146863
-0.143842
-0.140525
-0.136884
-0.132845
-0.128383
-0.123413
-0.117915
-0.111762
-0.105014
-0.0975141
-0.0892944
-0.0804873
-0.0705465
-0.0609632
-0.0487247
-0.0399485
-0.0239456
-0.0193703
0.00369572
-0.175815
-0.175749
-0.17563
-0.175452
-0.175211
-0.1749
-0.174513
-0.174046
-0.173493
-0.172849
-0.172109
-0.17127
-0.170328
-0.169279
-0.168122
-0.166852
-0.165468
-0.163966
-0.162344
-0.160596
-0.158716
-0.156696
-0.154523
-0.152183
-0.149656
-0.146914
-0.143927
-0.140649
-0.137051
-0.133056
-0.128641
-0.123714
-0.11826
-0.112139
-0.105419
-0.0979284
-0.0897182
-0.0808888
-0.070938
-0.0612971
-0.0490432
-0.0401632
-0.0241645
-0.0194766
0.00352946
-0.175936
-0.175867
-0.175745
-0.175564
-0.175319
-0.175002
-0.174609
-0.174134
-0.173573
-0.172919
-0.172169
-0.171318
-0.170364
-0.169303
-0.168134
-0.166852
-0.165458
-0.163948
-0.16232
-0.16057
-0.158691
-0.156677
-0.154515
-0.152191
-0.149686
-0.146972
-0.144019
-0.140779
-0.137223
-0.133267
-0.128916
-0.124015
-0.118603
-0.112513
-0.105819
-0.0983373
-0.0901362
-0.0812839
-0.0713241
-0.0616248
-0.0493569
-0.0403827
-0.024383
-0.0195829
0.00335394
-0.176053
-0.175983
-0.175859
-0.175675
-0.175425
-0.175104
-0.174705
-0.174223
-0.173654
-0.172991
-0.172231
-0.17137
-0.170405
-0.169333
-0.168151
-0.166859
-0.165455
-0.163938
-0.162304
-0.160552
-0.158675
-0.156666
-0.154514
-0.152206
-0.149723
-0.147037
-0.144115
-0.140913
-0.137395
-0.133485
-0.129173
-0.124316
-0.118943
-0.112881
-0.106214
-0.0987395
-0.0905472
-0.0816714
-0.0717037
-0.0619464
-0.0496649
-0.0406009
-0.0246043
-0.0196874
0.00317008
-0.176165
-0.176093
-0.175968
-0.175781
-0.175529
-0.175203
-0.1748
-0.174312
-0.173735
-0.173065
-0.172296
-0.171425
-0.170449
-0.169366
-0.168174
-0.166872
-0.165459
-0.163934
-0.162295
-0.16054
-0.158665
-0.156662
-0.15452
-0.152227
-0.149766
-0.147106
-0.144217
-0.141049
-0.137566
-0.133715
-0.12943
-0.124614
-0.119278
-0.113244
-0.106602
-0.0991335
-0.0909496
-0.0820504
-0.0720754
-0.0622612
-0.049968
-0.040815
-0.0248271
-0.0197897
0.0029783
-0.17627
-0.176198
-0.176072
-0.175883
-0.175628
-0.1753
-0.174892
-0.174399
-0.173816
-0.173138
-0.172361
-0.171481
-0.170496
-0.169403
-0.168201
-0.166889
-0.165468
-0.163935
-0.162292
-0.160536
-0.158662
-0.156664
-0.154533
-0.152255
-0.149813
-0.14718
-0.14432
-0.141179
-0.13775
-0.133926
-0.129685
-0.124907
-0.119608
-0.1136
-0.106982
-0.0995182
-0.0913425
-0.0824195
-0.0724382
-0.0625679
-0.0502653
-0.0410244
-0.0250499
-0.0198887
0.00277891
-0.176367
-0.176296
-0.176169
-0.17598
-0.175723
-0.175392
-0.17498
-0.174483
-0.173895
-0.173211
-0.172426
-0.171538
-0.170544
-0.169442
-0.16823
-0.16691
-0.165481
-0.163942
-0.162294
-0.160536
-0.158664
-0.156672
-0.15455
-0.152286
-0.149865
-0.147257
-0.144424
-0.141298
-0.13793
-0.134137
-0.129938
-0.125195
-0.11993
-0.113947
-0.107351
-0.0998924
-0.0917245
-0.0827778
-0.0727909
-0.0628658
-0.050556
-0.0412285
-0.0252718
-0.0199834
0.0025723
-0.176384
-0.176257
-0.176068
-0.17581
-0.175478
-0.175064
-0.174563
-0.173971
-0.173281
-0.17249
-0.171594
-0.170592
-0.169482
-0.168262
-0.166934
-0.165497
-0.163952
-0.162301
-0.160541
-0.158671
-0.156684
-0.154571
-0.152321
-0.14992
-0.147336
-0.144526
-0.141493
-0.1381
-0.134346
-0.130184
-0.125475
-0.120244
-0.114283
-0.10771
-0.100255
-0.0920944
-0.0831245
-0.0731327
-0.063154
-0.050839
-0.0414267
-0.0254919
-0.0200728
0.00235891
-0.176462
-0.176337
-0.176148
-0.17589
-0.175557
-0.175141
-0.174638
-0.174042
-0.173348
-0.172551
-0.171649
-0.17064
-0.169522
-0.168295
-0.166959
-0.165516
-0.163965
-0.162311
-0.16055
-0.158682
-0.156699
-0.154596
-0.152359
-0.149976
-0.147409
-0.144638
-0.141611
-0.138268
-0.134551
-0.130424
-0.125748
-0.120548
-0.114609
-0.108057
-0.100605
-0.0924513
-0.0834586
-0.0734625
-0.063432
-0.0511137
-0.0416183
-0.0257095
-0.0201562
0.00213918
-0.176529
-0.176405
-0.176218
-0.175961
-0.175627
-0.175211
-0.174707
-0.174108
-0.17341
-0.172609
-0.171702
-0.170687
-0.169562
-0.168328
-0.166985
-0.165536
-0.163981
-0.162323
-0.160561
-0.158695
-0.156717
-0.154623
-0.152398
-0.150023
-0.147479
-0.14475
-0.141736
-0.138434
-0.134749
-0.130656
-0.12601
-0.120841
-0.114923
-0.10839
-0.100941
-0.0927941
-0.0837792
-0.0737795
-0.0636991
-0.0513792
-0.0418028
-0.025924
-0.0202326
0.00191356
-0.176582
-0.176461
-0.176276
-0.17602
-0.175688
-0.175272
-0.174767
-0.174167
-0.173466
-0.172662
-0.171751
-0.17073
-0.1696
-0.16836
-0.167011
-0.165557
-0.163997
-0.162337
-0.160574
-0.158711
-0.156737
-0.154651
-0.152431
-0.150059
-0.147581
-0.144847
-0.141865
-0.138594
-0.13494
-0.13088
-0.126263
-0.121122
-0.115223
-0.108709
-0.101262
-0.0931219
-0.0840858
-0.0740829
-0.0639547
-0.0516348
-0.0419796
-0.0261349
-0.0203015
0.00168247
-0.17662
-0.176502
-0.176321
-0.176068
-0.175738
-0.175323
-0.174819
-0.174218
-0.173516
-0.172709
-0.171794
-0.17077
-0.169635
-0.16839
-0.167036
-0.165577
-0.164014
-0.162351
-0.160588
-0.158727
-0.156758
-0.154675
-0.152457
-0.150181
-0.147645
-0.144943
-0.14199
-0.138747
-0.135122
-0.131093
-0.126504
-0.12139
-0.115509
-0.109013
-0.101568
-0.0934338
-0.0843774
-0.074372
-0.0641983
-0.0518799
-0.0421482
-0.0263415
-0.0203621
0.00144633
-0.176642
-0.176528
-0.176351
-0.176102
-0.175775
-0.175363
-0.174859
-0.174259
-0.173557
-0.172749
-0.171832
-0.170804
-0.169666
-0.168417
-0.167059
-0.165596
-0.164029
-0.162365
-0.160601
-0.158744
-0.156776
-0.154695
-0.152552
-0.150214
-0.147711
-0.145036
-0.142108
-0.138892
-0.135296
-0.131295
-0.126732
-0.121643
-0.11578
-0.109301
-0.101857
-0.093729
-0.0846537
-0.0746459
-0.0644295
-0.0521139
-0.0423082
-0.0265435
-0.020414
0.0012055
-0.176646
-0.176538
-0.176365
-0.176121
-0.175798
-0.175389
-0.174889
-0.17429
-0.173589
-0.17278
-0.171862
-0.170833
-0.169692
-0.16844
-0.167078
-0.165612
-0.164043
-0.162377
-0.160613
-0.15876
-0.15679
-0.154753
-0.152575
-0.150254
-0.147779
-0.145124
-0.142219
-0.139029
-0.135459
-0.131486
-0.126946
-0.121882
-0.116035
-0.109571
-0.102129
-0.0940067
-0.0849138
-0.0749042
-0.0646478
-0.0523363
-0.0424593
-0.0267406
-0.0204567
0.000960331
-0.176529
-0.176362
-0.176124
-0.175806
-0.175402
-0.174905
-0.174309
-0.173609
-0.172802
-0.171884
-0.170854
-0.169711
-0.168457
-0.167093
-0.165625
-0.164053
-0.162386
-0.160623
-0.158768
-0.15682
-0.154772
-0.152599
-0.1503
-0.147843
-0.145206
-0.142321
-0.139156
-0.13561
-0.131663
-0.127147
-0.122105
-0.116273
-0.109824
-0.102384
-0.0942664
-0.0851575
-0.0751461
-0.0648529
-0.0525465
-0.0426009
-0.0269324
-0.0204898
0.000711112
-0.1765
-0.17634
-0.176109
-0.175797
-0.175398
-0.174906
-0.174314
-0.173618
-0.172813
-0.171896
-0.170866
-0.169723
-0.168468
-0.167103
-0.165632
-0.164059
-0.162393
-0.160627
-0.158766
-0.156837
-0.154784
-0.152626
-0.150341
-0.147899
-0.145279
-0.142415
-0.139273
-0.13575
-0.131826
-0.127331
-0.122311
-0.116493
-0.110058
-0.10262
-0.0945072
-0.0853841
-0.0753712
-0.0650444
-0.0527442
-0.0427329
-0.0271186
-0.020513
0.000458093
-0.176449
-0.176298
-0.176074
-0.17577
-0.175378
-0.174892
-0.174305
-0.173613
-0.172811
-0.171897
-0.170869
-0.169726
-0.168471
-0.167105
-0.165634
-0.16406
-0.162395
-0.160623
-0.158794
-0.156836
-0.154796
-0.152648
-0.150376
-0.147948
-0.145345
-0.142499
-0.139378
-0.135876
-0.131975
-0.1275
-0.122499
-0.116695
-0.110273
-0.102837
-0.0947287
-0.0855932
-0.075579
-0.065222
-0.0529288
-0.0428549
-0.027299
-0.0205262
0.000201469
-0.176375
-0.176233
-0.176018
-0.175722
-0.175338
-0.17486
-0.174279
-0.173593
-0.172796
-0.171885
-0.17086
-0.169719
-0.168465
-0.1671
-0.165629
-0.164055
-0.162391
-0.160634
-0.158776
-0.156835
-0.154804
-0.152665
-0.150403
-0.147988
-0.1454
-0.142572
-0.13947
-0.135988
-0.132108
-0.127651
-0.122669
-0.116877
-0.110468
-0.103034
-0.0949302
-0.0857846
-0.0757689
-0.0653856
-0.0531001
-0.0429667
-0.0274733
-0.0205292
-5.86114e-05
-0.176277
-0.176145
-0.17594
-0.175654
-0.175279
-0.174808
-0.174236
-0.173556
-0.172765
-0.17186
-0.170838
-0.1697
-0.168449
-0.167085
-0.165615
-0.164042
-0.162375
-0.160631
-0.158763
-0.156831
-0.154806
-0.152674
-0.150422
-0.14802
-0.145446
-0.142634
-0.13955
-0.136085
-0.132224
-0.127785
-0.12282
-0.11704
-0.110642
-0.103212
-0.0951115
-0.0859578
-0.0759407
-0.0655348
-0.0532576
-0.0430681
-0.0276412
-0.0205219
-0.00032206
-0.176152
-0.176031
-0.175837
-0.175562
-0.175198
-0.174737
-0.174173
-0.173502
-0.172718
-0.171819
-0.170802
-0.169669
-0.168421
-0.16706
-0.165592
-0.164021
-0.162354
-0.160603
-0.158749
-0.156821
-0.1548
-0.152675
-0.150433
-0.148042
-0.14548
-0.142682
-0.139615
-0.136167
-0.132324
-0.1279
-0.122951
-0.117183
-0.110795
-0.103369
-0.0952719
-0.0861127
-0.0760941
-0.0656696
-0.0534013
-0.043159
-0.0278027
-0.0205042
-0.000588874
-0.17589
-0.175709
-0.175445
-0.175093
-0.174643
-0.17409
-0.173428
-0.172652
-0.171761
-0.170751
-0.169624
-0.16838
-0.167024
-0.165559
-0.16399
-0.162348
-0.160572
-0.158728
-0.156801
-0.154785
-0.152667
-0.150433
-0.148052
-0.145502
-0.142717
-0.139665
-0.136232
-0.132405
-0.127997
-0.123062
-0.117305
-0.110927
-0.103505
-0.0954111
-0.0862488
-0.0762285
-0.0657896
-0.0535307
-0.043239
-0.0279574
-0.020476
-0.000859151
-0.175721
-0.175553
-0.175303
-0.174963
-0.174525
-0.173984
-0.173333
-0.172567
-0.171685
-0.170683
-0.169563
-0.168325
-0.166974
-0.165513
-0.163938
-0.162293
-0.160535
-0.158696
-0.156772
-0.154761
-0.152648
-0.150422
-0.14805
-0.145511
-0.142738
-0.139699
-0.13628
-0.132468
-0.128072
-0.123151
-0.117404
-0.111036
-0.10362
-0.095528
-0.0863652
-0.076343
-0.0658939
-0.053645
-0.0433076
-0.0281048
-0.0204371
-0.00113289
-0.175523
-0.17537
-0.175134
-0.174808
-0.174384
-0.173855
-0.173216
-0.172462
-0.171589
-0.170597
-0.169485
-0.168254
-0.166909
-0.165454
-0.163865
-0.162234
-0.160487
-0.158652
-0.156732
-0.154725
-0.152617
-0.150398
-0.148034
-0.145505
-0.142742
-0.139715
-0.136309
-0.13251
-0.128127
-0.123218
-0.117482
-0.111122
-0.103712
-0.0956226
-0.0864622
-0.076438
-0.0659835
-0.0537444
-0.043366
-0.0282441
-0.0203893
-0.00140944
-0.175295
-0.175157
-0.174937
-0.174626
-0.174217
-0.173702
-0.173077
-0.172335
-0.171475
-0.170493
-0.169391
-0.168169
-0.166831
-0.165383
-0.163862
-0.162171
-0.160429
-0.158599
-0.156682
-0.154679
-0.152577
-0.150364
-0.148007
-0.145486
-0.142733
-0.139717
-0.136322
-0.132536
-0.128165
-0.123268
-0.117543
-0.111191
-0.103789
-0.0957025
-0.0865477
-0.0765205
-0.066066
-0.0538336
-0.0434215
-0.0283761
-0.0203386
-0.00168819
-0.175007
-0.174889
-0.174688
-0.174397
-0.174006
-0.17351
-0.172903
-0.172178
-0.171333
-0.170366
-0.169277
-0.168067
-0.16674
-0.165297
-0.163763
-0.162101
-0.160366
-0.158541
-0.15663
-0.154631
-0.152534
-0.150327
-0.147977
-0.145464
-0.142719
-0.139714
-0.13633
-0.132556
-0.128197
-0.123312
-0.117597
-0.111254
-0.103862
-0.0957765
-0.0866298
-0.0765979
-0.0661467
-0.0539191
-0.0434747
-0.0285079
-0.0202795
-0.00197544
-0.174645
-0.174553
-0.174377
-0.17411
-0.173742
-0.173268
-0.17268
-0.171975
-0.171147
-0.170197
-0.169123
-0.167927
-0.166612
-0.165179
-0.163645
-0.162002
-0.160275
-0.158458
-0.156552
-0.154561
-0.15247
-0.15027
-0.147927
-0.145421
-0.142685
-0.139687
-0.136312
-0.132545
-0.128194
-0.123314
-0.117607
-0.111265
-0.10388
-0.0957915
-0.0866526
-0.0766196
-0.0661658
-0.0539687
-0.0434642
-0.0286425
-0.0201507
-0.00229132
-0.174182
-0.174024
-0.173772
-0.173419
-0.172957
-0.172381
-0.171685
-0.170866
-0.169923
-0.168857
-0.167668
-0.166365
-0.164956
-0.163417
-0.161768
-0.160042
-0.15823
-0.156333
-0.154349
-0.152268
-0.150079
-0.147748
-0.145252
-0.142526
-0.139535
-0.136168
-0.132401
-0.128056
-0.123168
-0.117466
-0.111108
-0.103732
-0.0956285
-0.0865011
-0.0764832
-0.0660115
-0.0539361
-0.0432717
-0.0288499
-0.0197804
-0.00285272
-0.173095
-0.172965
-0.17274
-0.172412
-0.171974
-0.171421
-0.170748
-0.169952
-0.169031
-0.167985
-0.166817
-0.16553
-0.164126
-0.162616
-0.161006
-0.159305
-0.157515
-0.155637
-0.153671
-0.151606
-0.149429
-0.147108
-0.144618
-0.141895
-0.138905
-0.135536
-0.131764
-0.127417
-0.122522
-0.116828
-0.110467
-0.103121
-0.0950275
-0.0859584
-0.0759859
-0.065576
-0.0536449
-0.0429277
-0.0289159
-0.0193736
-0.0034614
-0.171666
-0.171573
-0.171384
-0.17109
-0.170686
-0.170165
-0.169524
-0.16876
-0.16787
-0.166856
-0.16572
-0.164463
-0.163091
-0.161612
-0.160033
-0.158359
-0.156594
-0.154739
-0.152792
-0.150743
-0.148578
-0.146264
-0.143778
-0.141054
-0.138058
-0.134682
-0.1309
-0.126547
-0.121645
-0.115958
-0.109601
-0.102291
-0.0942215
-0.085226
-0.0753184
-0.0649965
-0.0532257
-0.0425021
-0.0288866
-0.0189868
-0.00396467
-0.16987
-0.16983
-0.169691
-0.169446
-0.169089
-0.168614
-0.168018
-0.167298
-0.166452
-0.16548
-0.164386
-0.163171
-0.161841
-0.160402
-0.158857
-0.157216
-0.155482
-0.153654
-0.151731
-0.149699
-0.147547
-0.145241
-0.142756
-0.140029
-0.137026
-0.13364
-0.129847
-0.125488
-0.120578
-0.114901
-0.108552
-0.101285
-0.0932518
-0.0843405
-0.0745188
-0.0642956
-0.0527145
-0.0419965
-0.0287995
-0.0185945
-0.00438662
-0.167629
-0.167659
-0.167587
-0.167407
-0.167113
-0.166699
-0.166163
-0.165501
-0.164712
-0.163796
-0.162756
-0.161595
-0.160317
-0.158926
-0.157427
-0.155829
-0.154133
-0.152338
-0.150442
-0.148431
-0.146294
-0.143996
-0.141514
-0.138782
-0.135771
-0.132376
-0.128572
-0.124208
-0.119294
-0.113633
-0.1073
-0.100086
-0.0921044
-0.0832903
-0.0735784
-0.0634674
-0.052105
-0.0414118
-0.028646
-0.0181994
-0.00472995
-0.164896
-0.165012
-0.165024
-0.164924
-0.164708
-0.164372
-0.16391
-0.163321
-0.162604
-0.161759
-0.160787
-0.159691
-0.158476
-0.157144
-0.155703
-0.154156
-0.152505
-0.15075
-0.148887
-0.146902
-0.144783
-0.142495
-0.140017
-0.137284
-0.134266
-0.130863
-0.127051
-0.122686
-0.117774
-0.112137
-0.105831
-0.0986833
-0.0907717
-0.0820692
-0.0724934
-0.0625102
-0.0513937
-0.0407509
-0.02842
-0.0178047
-0.00499781
-0.161664
-0.161879
-0.161986
-0.161981
-0.161857
-0.16161
-0.161237
-0.160735
-0.160103
-0.159341
-0.15845
-0.157432
-0.156291
-0.155031
-0.153657
-0.152171
-0.150574
-0.148865
-0.14704
-0.145086
-0.14299
-0.140717
-0.138245
-0.135514
-0.132493
-0.129087
-0.125272
-0.120913
-0.116013
-0.11041
-0.104146
-0.0970766
-0.0892562
-0.0806804
-0.0712673
-0.0614287
-0.0505824
-0.0400189
-0.0281208
-0.0174109
-0.00519603
-0.157962
-0.158282
-0.158493
-0.15859
-0.158568
-0.158421
-0.158147
-0.157742
-0.157206
-0.156537
-0.155738
-0.154808
-0.153753
-0.152573
-0.151273
-0.149856
-0.148323
-0.146667
-0.144888
-0.14297
-0.140902
-0.138649
-0.136189
-0.133465
-0.130447
-0.127044
-0.123233
-0.11889
-0.114012
-0.108455
-0.102249
-0.0952733
-0.0875659
-0.0791323
-0.0699074
-0.0602312
-0.0496756
-0.0392225
-0.0277501
-0.0170175
-0.00533162
-0.153851
-0.154277
-0.154594
-0.154796
-0.154879
-0.154837
-0.154667
-0.154366
-0.153932
-0.153364
-0.152663
-0.151829
-0.150866
-0.149774
-0.148557
-0.147216
-0.145752
-0.144156
-0.142427
-0.140552
-0.138518
-0.136291
-0.13385
-0.131138
-0.12813
-0.124739
-0.120942
-0.116626
-0.111782
-0.106285
-0.100155
-0.0932868
-0.0857139
-0.0774381
-0.0684247
-0.0589292
-0.04868
-0.0383695
-0.0273117
-0.0166237
-0.00541203
-0.149411
-0.149938
-0.150358
-0.150664
-0.15085
-0.150913
-0.150847
-0.150651
-0.150321
-0.149857
-0.149258
-0.148524
-0.147657
-0.146657
-0.145527
-0.144266
-0.142875
-0.141347
-0.139674
-0.137847
-0.135852
-0.133657
-0.13124
-0.12855
-0.125559
-0.12219
-0.118417
-0.114138
-0.109344
-0.10392
-0.0978816
-0.0911365
-0.0837184
-0.0756157
-0.0668331
-0.0575369
-0.0476043
-0.0374685
-0.0268113
-0.0162281
-0.00544464
-0.144726
-0.145349
-0.145865
-0.146268
-0.146554
-0.146717
-0.146753
-0.146659
-0.146432
-0.14607
-0.145572
-0.144937
-0.144167
-0.143261
-0.14222
-0.141041
-0.139727
-0.13827
-0.136656
-0.134881
-0.13293
-0.130772
-0.128387
-0.125725
-0.122761
-0.119422
-0.115685
-0.111455
-0.106723
-0.101385
-0.0954561
-0.0888473
-0.0816013
-0.0736859
-0.0651493
-0.0560701
-0.0464595
-0.0365282
-0.0262561
-0.0158297
-0.00543653
-0.139874
-0.140584
-0.141189
-0.141684
-0.142062
-0.142319
-0.142451
-0.142454
-0.142325
-0.142061
-0.141661
-0.141124
-0.140448
-0.139634
-0.13868
-0.137585
-0.136345
-0.134954
-0.133412
-0.131692
-0.129788
-0.127672
-0.125325
-0.122698
-0.119769
-0.11647
-0.112779
-0.108609
-0.103953
-0.0987128
-0.0929072
-0.086447
-0.0793873
-0.0716717
-0.0633918
-0.0545454
-0.045258
-0.0355573
-0.0256544
-0.0154277
-0.0053942
-0.134916
-0.135707
-0.136395
-0.136973
-0.137437
-0.137782
-0.138004
-0.138097
-0.13806
-0.137889
-0.137582
-0.137137
-0.136553
-0.135827
-0.134959
-0.133944
-0.13278
-0.131462
-0.129983
-0.12832
-0.126468
-0.124398
-0.122094
-0.119509
-0.116623
-0.113372
-0.109737
-0.105638
-0.101068
-0.0959363
-0.0902658
-0.0839645
-0.0771016
-0.0695963
-0.0615792
-0.052979
-0.0440123
-0.0345641
-0.0250148
-0.0150215
-0.00532358
-0.129901
-0.130767
-0.131531
-0.132187
-0.13273
-0.133157
-0.133461
-0.13364
-0.133689
-0.133605
-0.133386
-0.133028
-0.13253
-0.131889
-0.131102
-0.130166
-0.129077
-0.127828
-0.126413
-0.124809
-0.123011
-0.120992
-0.118735
-0.116198
-0.113362
-0.110166
-0.106596
-0.102576
-0.0981023
-0.0930877
-0.0875615
-0.0814274
-0.0747683
-0.0674814
-0.0597296
-0.0513858
-0.0427348
-0.0335559
-0.0243458
-0.0146113
-0.00522998
-0.124862
-0.125798
-0.126633
-0.127362
-0.127979
-0.128482
-0.128864
-0.129122
-0.129251
-0.129249
-0.129112
-0.128836
-0.12842
-0.127859
-0.127151
-0.126291
-0.125274
-0.124092
-0.122738
-0.121198
-0.119457
-0.117491
-0.115286
-0.112802
-0.110021
-0.106888
-0.103391
-0.0994559
-0.0950866
-0.0901963
-0.0848209
-0.0788602
-0.0724088
-0.0653461
-0.0578591
-0.0497789
-0.0414368
-0.0325392
-0.0236551
-0.0141973
-0.00511811
-0.119822
-0.120824
-0.121726
-0.122523
-0.12321
-0.123784
-0.124239
-0.124571
-0.124777
-0.124851
-0.124792
-0.124594
-0.124255
-0.123771
-0.123138
-0.122351
-0.121404
-0.120289
-0.118999
-0.11752
-0.115837
-0.113928
-0.111778
-0.109351
-0.106632
-0.103568
-0.100148
-0.096306
-0.0920469
-0.0872865
-0.0820666
-0.0762836
-0.0700415
-0.0632062
-0.0559814
-0.0481689
-0.0401282
-0.0315192
-0.0229495
-0.0137803
-0.00499213
-0.114798
-0.115862
-0.116827
-0.117688
-0.118441
-0.119082
-0.119606
-0.120009
-0.120286
-0.120433
-0.120447
-0.120324
-0.120059
-0.119648
-0.119088
-0.118371
-0.117493
-0.116445
-0.115219
-0.1138
-0.112178
-0.110327
-0.108237
-0.105872
-0.103219
-0.100228
-0.0968927
-0.0931479
-0.0890037
-0.0843776
-0.0793159
-0.0737136
-0.0676804
-0.0610742
-0.0541074
-0.0465641
-0.0388169
-0.0305004
-0.0222347
-0.0133611
-0.00485565
-0.1098
-0.110922
-0.111947
-0.11287
-0.113685
-0.11439
-0.114979
-0.115449
-0.115794
-0.116011
-0.116095
-0.116042
-0.115848
-0.115508
-0.115018
-0.11437
-0.11356
-0.112577
-0.111415
-0.110059
-0.108498
-0.106709
-0.104682
-0.102382
-0.0997995
-0.0968872
-0.0936405
-0.0899978
-0.0859722
-0.0814839
-0.076582
-0.071162
-0.0653364
-0.0589591
-0.0522455
-0.044971
-0.0375094
-0.029486
-0.0215155
-0.0129407
-0.0047117
-0.104838
-0.106015
-0.107096
-0.108076
-0.108951
-0.109716
-0.110368
-0.110901
-0.111311
-0.111594
-0.111745
-0.11176
-0.111635
-0.111363
-0.11094
-0.11036
-0.109617
-0.1087
-0.107602
-0.106309
-0.104812
-0.103087
-0.101126
-0.0988956
-0.0963875
-0.0935577
-0.0904037
-0.0868671
-0.0829632
-0.0786152
-0.0738741
-0.068637
-0.0630169
-0.0568674
-0.0504017
-0.0433938
-0.0362105
-0.0284787
-0.0207955
-0.01252
-0.00456278
-0.0999192
-0.101148
-0.102282
-0.103316
-0.104246
-0.105069
-0.105779
-0.106372
-0.106845
-0.107191
-0.107406
-0.107487
-0.107427
-0.107222
-0.106866
-0.106352
-0.105674
-0.104822
-0.10379
-0.102562
-0.101129
-0.0994717
-0.097579
-0.0954218
-0.092992
-0.0902486
-0.0871908
-0.0837636
-0.0799839
-0.0757782
-0.0711982
-0.066144
-0.0607269
-0.0548033
-0.0485802
-0.0418358
-0.0349236
-0.0274804
-0.0200777
-0.0121
-0.00441089
-0.0950515
-0.0963276
-0.0975101
-0.0985948
-0.0995776
-0.100454
-0.10122
-0.101871
-0.102402
-0.102808
-0.103086
-0.103229
-0.103233
-0.103092
-0.102801
-0.102352
-0.10174
-0.100953
-0.0999863
-0.0988242
-0.0974587
-0.0958699
-0.0940488
-0.0919676
-0.0896194
-0.0869658
-0.0840075
-0.0806925
-0.077039
-0.0729772
-0.0685583
-0.0636865
-0.0584698
-0.0527694
-0.0467839
-0.0402988
-0.0336513
-0.0264925
-0.0193642
-0.0116815
-0.00425759
-0.0902418
-0.091561
-0.0927884
-0.0939199
-0.0949513
-0.0958784
-0.0966966
-0.0974015
-0.0979885
-0.0984526
-0.0987891
-0.0989928
-0.0990585
-0.0989803
-0.0987525
-0.0983678
-0.0978199
-0.0970989
-0.0961976
-0.0951026
-0.0938056
-0.0922876
-0.0905405
-0.0885381
-0.0862745
-0.0837137
-0.0808576
-0.0776574
-0.0741318
-0.0702149
-0.0659569
-0.0612666
-0.0562477
-0.0507674
-0.0450147
-0.0387845
-0.0323956
-0.0255163
-0.0186569
-0.0112655
-0.00410405
-0.0854972
-0.086855
-0.0881231
-0.0892974
-0.0903737
-0.0913477
-0.092215
-0.0929709
-0.0936107
-0.0941295
-0.0945225
-0.0947842
-0.0949093
-0.0948918
-0.094726
-0.0944042
-0.0939203
-0.0932644
-0.0924294
-0.0914022
-0.0901749
-0.0887297
-0.0870587
-0.0851375
-0.082961
-0.0804958
-0.0777441
-0.0746608
-0.0712644
-0.0674932
-0.0633956
-0.0588855
-0.0540618
-0.0487984
-0.0432739
-0.0372937
-0.0311577
-0.0245527
-0.017957
-0.0108526
-0.00395113
-0.0808244
-0.0822164
-0.0835209
-0.0847339
-0.0858512
-0.0868685
-0.0877812
-0.0885847
-0.0892743
-0.0898449
-0.0902915
-0.0906088
-0.0907912
-0.0908325
-0.090727
-0.0904671
-0.0900463
-0.0894552
-0.0886866
-0.0877279
-0.0865714
-0.0852004
-0.0836074
-0.0817695
-0.0796824
-0.0773148
-0.0746696
-0.0717048
-0.0684385
-0.0648134
-0.0608755
-0.0565443
-0.0519131
-0.0468632
-0.0415623
-0.0358273
-0.0299387
-0.0236026
-0.0172658
-0.0104437
-0.00379947
-0.0762304
-0.0776517
-0.0789882
-0.0802357
-0.08139
-0.0824467
-0.0834013
-0.0842491
-0.0849852
-0.0856045
-0.0861021
-0.0864723
-0.0867097
-0.086808
-0.0867611
-0.0865617
-0.0862033
-0.0856765
-0.0849742
-0.0840844
-0.0829996
-0.0817038
-0.0801903
-0.0784375
-0.0764414
-0.0741733
-0.0716362
-0.0687911
-0.0656557
-0.0621766
-0.0583977
-0.0542436
-0.0498022
-0.0449623
-0.0398808
-0.0343859
-0.0287396
-0.0226668
-0.0165841
-0.0100393
-0.00364953
-0.0717214
-0.0731674
-0.0745314
-0.0758092
-0.0769964
-0.0780887
-0.0790814
-0.0799699
-0.0807493
-0.0814144
-0.08196
-0.0823806
-0.0826706
-0.0828237
-0.0828338
-0.0826936
-0.0823965
-0.0819333
-0.0812971
-0.0804763
-0.0794637
-0.0782442
-0.0768112
-0.0751447
-0.0732411
-0.0710738
-0.0686459
-0.0659214
-0.0629173
-0.0595839
-0.055963
-0.0519842
-0.0477299
-0.0430963
-0.03823
-0.0329701
-0.0275611
-0.021746
-0.0159126
-0.00964007
-0.00350165
-0.0673035
-0.0687696
-0.0701566
-0.0714603
-0.0726763
-0.0738003
-0.0748275
-0.0757532
-0.0765725
-0.0772801
-0.077871
-0.0783393
-0.0786795
-0.0788853
-0.0789506
-0.078868
-0.078631
-0.0782307
-0.0776601
-0.0769082
-0.075968
-0.0748252
-0.0734736
-0.0718944
-0.0700844
-0.0680188
-0.065701
-0.0630976
-0.0602247
-0.0570365