/*--------------------------------*- C++ -*----------------------------------*\
  =========                 |
  \\      /  F ield         | OpenFOAM: The Open Source CFD Toolbox
   \\    /   O peration     | Website:  https://openfoam.org
    \\  /    A nd           | Version:  7
     \\/     M anipulation  |
\*---------------------------------------------------------------------------*/
FoamFile
{
    version     2.0;
    format      ascii;
    class       surfaceScalarField;
    location    "45";
    object      phi;
}
// * * * * * * * * * * * * * * * * * * * * * * * * * * * * * * * * * * * * * //

dimensions      [0 3 -1 0 0 0 0];

internalField   nonuniform List<scalar> 
16753
(
-0.000359427
-3.77358e-06
1.37126e-05
-0.000369205
-5.82987e-06
1.56072e-05
-0.000378815
-8.01279e-06
1.76229e-05
-0.000388253
-1.02996e-05
1.97374e-05
-0.000397513
-1.26586e-05
2.19187e-05
-0.00040659
-1.50474e-05
2.41244e-05
-0.000415478
-1.74119e-05
2.62998e-05
-0.00042417
-1.96843e-05
2.83761e-05
-0.000432657
-2.1783e-05
3.02708e-05
-0.000440931
-2.36111e-05
3.18851e-05
-0.00044898
-2.50565e-05
3.31054e-05
-0.00045679
-2.59915e-05
3.38012e-05
-0.000464344
-2.62765e-05
3.38305e-05
-0.000471622
-2.57601e-05
3.30383e-05
-0.000478601
-2.42841e-05
3.12626e-05
-0.000485251
-2.16892e-05
2.83398e-05
-0.000491541
-1.78195e-05
2.41092e-05
-0.000497431
-1.25381e-05
1.84279e-05
-0.000502876
-5.72513e-06
1.11706e-05
-0.000507827
2.6973e-06
2.25295e-06
-0.000512222
1.27543e-05
-8.35908e-06
-0.000515995
2.44156e-05
-2.06426e-05
-0.000519073
3.75441e-05
-3.44658e-05
-0.000521372
5.195e-05
-4.9651e-05
-0.000522798
6.73053e-05
-6.58794e-05
-0.000523248
8.31773e-05
-8.2727e-05
-0.00052261
9.9e-05
-9.9638e-05
-0.000520764
0.00011409
-0.000115937
-0.000517578
0.000127641
-0.000130827
-0.00051292
0.000138766
-0.000143424
-0.000506642
0.000146494
-0.000152771
-0.00049861
0.000149865
-0.000157897
-0.000488665
0.000147922
-0.000157867
-0.000476696
0.000139902
-0.000151871
-0.000462523
0.000125105
-0.000139277
-0.000446115
0.000103427
-0.000119836
-0.000427232
7.46677e-05
-9.35502e-05
-0.000406033
4.00891e-05
-6.12882e-05
-0.000382062
-6.47261e-08
-2.39067e-05
-0.000355897
-4.18324e-05
1.56676e-05
-0.00032646
-8.52209e-05
5.57833e-05
-0.000295097
-0.000121367
9.00046e-05
-0.000259281
-0.000151391
0.000115575
-0.00022135
-0.000160325
0.000122393
-0.000179083
-0.000143459
0.000101192
-9.79818e-05
5.91976e-05
-0.000358061
6.15268e-06
-0.000367826
3.93465e-06
-0.000377423
1.58425e-06
-0.000386847
-8.7561e-07
-0.000396092
-3.4132e-06
-0.000405153
-5.98646e-06
-0.000414023
-8.54192e-06
-0.000422695
-1.10123e-05
-0.000431161
-1.33174e-05
-0.00043941
-1.53619e-05
-0.000447431
-1.70355e-05
-0.00045521
-1.82127e-05
-0.00046273
-1.87567e-05
-0.00046997
-1.85195e-05
-0.000476908
-1.73465e-05
-0.000483514
-1.50829e-05
-0.000489756
-1.15775e-05
-0.000495595
-6.69957e-06
-0.000500986
-3.33966e-07
-0.000505878
7.58994e-06
-0.000510212
1.70882e-05
-0.00051392
2.81237e-05
-0.000516929
4.05528e-05
-0.000519153
5.41742e-05
-0.000520498
6.86503e-05
-0.000520861
8.35396e-05
-0.000520126
9.82658e-05
-0.000518174
0.000112138
-0.000514872
0.000124339
-0.000510086
0.00013398
-0.000503669
0.000140076
-0.000495486
0.000141682
-0.000485379
0.000137815
-0.000473241
0.000127764
-0.000458897
0.000110761
-0.00044232
8.68494e-05
-0.000423278
5.5626e-05
-0.000401938
1.87495e-05
-0.000377853
-2.41495e-05
-0.000351615
-6.80704e-05
-0.000322147
-0.00011469
-0.000290815
-0.000152699
-0.000255062
-0.000187144
-0.00021727
-0.000198116
-0.000174854
-0.000185876
-0.000137102
-0.000355086
1.60332e-05
-0.000364805
1.36534e-05
-0.000374356
1.11351e-05
-0.000383733
8.50146e-06
-0.00039293
5.78408e-06
-0.000401942
3.02485e-06
-0.00041076
2.7643e-07
-0.000419378
-2.39416e-06
-0.000427787
-4.90844e-06
-0.000435976
-7.17249e-06
-0.000443934
-9.07774e-06
-0.000451646
-1.05005e-05
-0.000459096
-1.13073e-05
-0.000466262
-1.13533e-05
-0.000473121
-1.04873e-05
-0.000479645
-8.55925e-06
-0.000485801
-5.42147e-06
-0.000491548
-9.521e-07
-0.000496847
4.96459e-06
-0.000501641
1.23842e-05
-0.000505873
2.13204e-05
-0.000509475
3.17259e-05
-0.000512373
4.3451e-05
-0.000514482
5.62826e-05
-0.000515705
6.98737e-05
-0.000515939
8.37736e-05
-0.000515069
9.73955e-05
-0.000512972
0.000110042
-0.000509516
0.000120882
-0.000504565
0.000129029
-0.000497973
0.000133485
-0.000489606
0.000133315
-0.000479308
0.000127517
-0.000466974
0.000115429
-0.000452433
9.62206e-05
-0.000435664
7.00807e-05
-0.000416444
3.64059e-05
-0.00039495
-2.74542e-06
-0.000370739
-4.83599e-05
-0.000344421
-9.43881e-05
-0.000314918
-0.000144193
-0.00028363
-0.000183987
-0.000247962
-0.000222811
-0.000210388
-0.000235691
-0.000167811
-0.000228453
-0.000176655
-0.000350512
2.58354e-05
-0.000360152
2.32938e-05
-0.000369625
2.06072e-05
-0.000378922
1.77989e-05
-0.000388038
1.49004e-05
-0.000396967
1.19534e-05
-0.000405701
9.01015e-06
-0.000414231
6.13638e-06
-0.000422549
3.40995e-06
-0.000430645
9.23081e-07
-0.000438505
-1.21792e-06
-0.000446115
-2.89011e-06
-0.000453458
-3.96424e-06
-0.000460514
-4.29773e-06
-0.000467258
-3.74314e-06
-0.000473662
-2.15554e-06
-0.000479693
6.09293e-07
-0.000485314
4.66949e-06
-0.000490478
1.01288e-05
-0.000495135
1.70411e-05
-0.000499226
2.54109e-05
-0.000502682
3.51823e-05
-0.00050543
4.61985e-05
-0.000507382
5.82351e-05
-0.000508444
7.09356e-05
-0.00050851
8.38397e-05
-0.000507465
9.63502e-05
-0.000505185
0.000107762
-0.000501538
0.000117234
-0.000496387
0.000123879
-0.000489587
0.000126685
-0.000481005
0.000124733
-0.000470486
0.000116999
-0.000457929
0.000102872
-0.000443168
8.14596e-05
-0.000426188
5.31005e-05
-0.000406772
1.69897e-05
-0.000385108
-2.4409e-05
-0.00036076
-7.27078e-05
-0.000334357
-0.000120792
-0.000304815
-0.000173735
-0.000273581
-0.000215222
-0.000238017
-0.000258374
-0.000200731
-0.000272977
-0.000157994
-0.000271189
-0.000216721
-0.000344354
3.55273e-05
-0.000353884
3.28239e-05
-0.000363245
2.99685e-05
-0.000372431
2.69846e-05
-0.000381434
2.39037e-05
-0.000390248
2.07671e-05
-0.000398864
1.76265e-05
-0.000407275
1.45468e-05
-0.000415469
1.16047e-05
-0.000423438
8.89117e-06
-0.000431167
6.51118e-06
-0.000438641
4.584e-06
-0.000445843
3.23798e-06
-0.000452753
2.61189e-06
-0.000459345
2.84963e-06
-0.000465594
4.09307e-06
-0.000471464
6.47945e-06
-0.000476919
1.01242e-05
-0.000481912
1.51222e-05
-0.000486393
2.15224e-05
-0.000490304
2.9321e-05
-0.000493575
3.84537e-05
-0.000496133
4.87562e-05
-0.00049789
5.99927e-05
-0.000498752
7.17971e-05
-0.000498612
8.36996e-05
-0.000497354
9.50923e-05
-0.000494855
0.000105263
-0.000490981
0.00011336
-0.000485597
0.000118495
-0.000478557
0.000119645
-0.00046973
0.000115905
-0.000458963
0.000106232
-0.000446159
9.00677e-05
-0.000431156
6.64565e-05
-0.000413945
3.58893e-05
-0.000394317
-2.63814e-06
-0.000372471
-4.62548e-05
-0.000347975
-9.72037e-05
-0.00032148
-0.000147287
-0.000291895
-0.000203319
-0.000260722
-0.000246395
-0.000225277
-0.00029382
-0.000188342
-0.000309912
-0.00014546
-0.000314071
-0.000257355
-0.000336632
4.50774e-05
-0.00034602
4.22123e-05
-0.00035524
3.91878e-05
-0.000364282
3.60275e-05
-0.000373141
3.27627e-05
-0.000381809
2.94345e-05
-0.000390277
2.60942e-05
-0.000398535
2.28055e-05
-0.000406575
1.96442e-05
-0.000414383
1.67e-05
-0.000421948
1.40761e-05
-0.000429254
1.18893e-05
-0.000436282
1.0266e-05
-0.000443012
9.34187e-06
-0.000449419
9.2573e-06
-0.000455477
1.01505e-05
-0.000461151
1.21533e-05
-0.000466403
1.53765e-05
-0.000471189
1.99081e-05
-0.000475457
2.57909e-05
-0.00047915
3.30135e-05
-0.000482199
4.15027e-05
-0.000484529
5.10863e-05
-0.000486054
6.15177e-05
-0.000486678
7.24209e-05
-0.000486295
8.33164e-05
-0.000484788
9.3586e-05
-0.000482035
0.00010251
-0.000477901
0.000109226
-0.000472252
0.000112846
-0.000464942
0.000112335
-0.000455842
0.000106805
-0.000444802
9.51921e-05
-0.000431728
7.69931e-05
-0.000416463
5.11917e-05
-0.000399002
1.84287e-05
-0.00037915
-2.24904e-05
-0.00035711
-6.82952e-05
-0.000332456
-0.000121857
-0.000305863
-0.00017388
-0.000276231
-0.000232951
-0.000245125
-0.000277501
-0.000209807
-0.000329138
-0.000173272
-0.000346446
-0.000130275
-0.000357068
-0.000298581
-0.000327371
5.44552e-05
-0.000336587
5.14286e-05
-0.000345634
4.82348e-05
-0.000354504
4.48973e-05
-0.000363189
4.14474e-05
-0.00037168
3.79257e-05
-0.000379969
3.4383e-05
-0.000388045
3.08821e-05
-0.000395899
2.74979e-05
-0.000403518
2.43186e-05
-0.000410887
2.14458e-05
-0.000417992
1.89943e-05
-0.000424814
1.7088e-05
-0.000431332
1.58599e-05
-0.000437522
1.54469e-05
-0.000443355
1.59834e-05
-0.000448798
1.75966e-05
-0.000453814
2.03922e-05
-0.000458357
2.44516e-05
-0.000462378
2.98115e-05
-0.000465817
3.64526e-05
-0.000468608
4.42931e-05
-0.000470674
5.3153e-05
-0.000471931
6.27744e-05
-0.000472282
7.27716e-05
-0.000471621
8.26554e-05
-0.000469832
9.17971e-05
-0.000466792
9.94702e-05
-0.000462366
0.0001048
-0.000456422
0.000106902
-0.000448814
0.000104728
-0.000439416
9.74065e-05
-0.000428079
8.38558e-05
-0.000414714
6.36276e-05
-0.00039917
3.56474e-05
-0.000381445
7.04257e-07
-0.000361354
-4.25811e-05
-0.00033911
-9.054e-05
-0.000314289
-0.000146677
-0.000287594
-0.000200576
-0.000257909
-0.000262636
-0.000226873
-0.000308536
-0.000191684
-0.000364327
-0.000155587
-0.000382544
-0.000112522
-0.000400133
-0.000340388
-0.000316599
6.36311e-05
-0.000325614
6.04436e-05
-0.00033446
5.70804e-05
-0.000343128
5.35651e-05
-0.000351609
4.99288e-05
-0.000359895
4.62118e-05
-0.000367976
4.24642e-05
-0.000375842
3.87479e-05
-0.000383481
3.51369e-05
-0.000390881
3.17181e-05
-0.000398026
2.85912e-05
-0.000404901
2.58693e-05
-0.000411487
2.36739e-05
-0.000417762
2.21355e-05
-0.000423703
2.13875e-05
-0.00042928
2.15606e-05
-0.000434461
2.27774e-05
-0.000439208
2.51389e-05
-0.000443476
2.87197e-05
-0.000447215
3.35508e-05
-0.000450367
3.96046e-05
-0.000452865
4.67914e-05
-0.000454635
5.49223e-05
-0.000455589
6.37291e-05
-0.000455634
7.28159e-05
-0.000454662
8.16838e-05
-0.000452559
8.96938e-05
-0.000449201
9.61123e-05
-0.000444454
0.000100054
-0.000438187
0.000100635
-0.000430257
9.67975e-05
-0.000420537
8.76862e-05
-0.000408883
7.22019e-05
-0.000395209
4.99537e-05
-0.000379361
1.97998e-05
-0.000361373
-1.72841e-05
-0.000341026
-6.29277e-05
-0.000318568
-0.000112998
-0.000293574
-0.000171672
-0.000266771
-0.00022738
-0.000237027
-0.00029238
-0.000206062
-0.000339501
-0.000171002
-0.000399388
-0.000135362
-0.000418184
-9.22901e-05
-0.000443204
-0.000382728
-0.00030435
7.25769e-05
-0.000313135
6.92292e-05
-0.000321751
6.56967e-05
-0.00033019
6.20033e-05
-0.00033844
5.81795e-05
-0.000346494
5.42654e-05
-0.00035434
5.03105e-05
-0.000361968
4.63757e-05
-0.000369365
4.2534e-05
-0.000376518
3.8871e-05
-0.000383412
3.54848e-05
-0.000390029
3.24866e-05
-0.000396351
2.99958e-05
-0.000402356
2.81402e-05
-0.000408019
2.70502e-05
-0.000413311
2.68528e-05
-0.000418199
2.76661e-05
-0.000422647
2.95863e-05
-0.000426609
3.26819e-05
-0.000430036
3.69777e-05
-0.00043287
4.24384e-05
-0.000435044
4.89658e-05
-0.000436485
5.63627e-05
-0.000437106
6.43503e-05
-0.000436813
7.25227e-05
-0.0004355
8.03712e-05
-0.000433053
8.72466e-05
-0.000429349
9.24082e-05
-0.000424255
9.49595e-05
-0.00041764
9.40205e-05
-0.000409363
8.85207e-05
-0.0003993
7.76232e-05
-0.00038731
6.02113e-05
-0.000373312
3.59558e-05
-0.000357154
3.64161e-06
-0.000338879
-3.5559e-05
-0.000318273
-8.35338e-05
-0.000295594
-0.000135676
-0.00027042
-0.000196846
-0.000243505
-0.000254294
-0.000213697
-0.000322188
-0.000182802
-0.000370396
-0.000147862
-0.000434327
-0.00011268
-0.000453366
-6.96743e-05
-0.00048621
-0.00042551
-0.000290656
-0.000299185
7.77585e-05
-0.000307546
7.40574e-05
-0.000315728
7.01857e-05
-0.000323723
6.61738e-05
-0.000331518
6.20612e-05
-0.000339105
5.78967e-05
-0.000346469
5.37404e-05
-0.000353599
4.9664e-05
-0.000360481
4.57522e-05
-0.000367097
4.21013e-05
-0.000373431
3.88208e-05
-0.000379463
3.6028e-05
-0.000385171
3.38482e-05
-0.00039053
3.24088e-05
-0.00039551
3.18333e-05
-0.00040008
3.22355e-05
-0.0004042
3.3707e-05
-0.000407829
3.63102e-05
-0.000410915
4.0064e-05
-0.000413402
4.49251e-05
-0.000415223
5.07876e-05
-0.000416306
5.74454e-05
-0.000416565
6.46094e-05
-0.000415906
7.18637e-05
-0.000414225
7.86898e-05
-0.000411407
8.44286e-05
-0.000407331
8.83324e-05
-0.000401865
8.94934e-05
-0.00039488
8.70356e-05
-0.000386236
7.98771e-05
-0.000375812
6.71988e-05
-0.00036347
4.78689e-05
-0.000349126
2.16124e-05
-0.00033266
-1.28248e-05
-0.000314082
-5.41368e-05
-0.000293209
-0.000104407
-0.000270305
-0.00015858
-0.000244945
-0.000222207
-0.000217915
-0.000281323
-0.000188038
-0.000352066
-0.000157209
-0.000401225
-0.000122381
-0.000469156
-8.76372e-05
-0.000488109
-4.47544e-05
-0.000529093
-0.000468567
-0.000283802
8.60064e-05
-0.000291883
8.21376e-05
-0.000299785
7.80881e-05
-0.000307499
7.38877e-05
-0.000315013
6.95754e-05
-0.000322316
6.51993e-05
-0.000329394
6.08186e-05
-0.000336234
5.6504e-05
-0.00034282
5.23387e-05
-0.000349137
4.84179e-05
-0.000355165
4.48488e-05
-0.000360884
4.17472e-05
-0.000366272
3.92359e-05
-0.000371302
3.74394e-05
-0.000375947
3.6478e-05
-0.000380173
3.6461e-05
-0.000383942
3.74759e-05
-0.000387211
3.95791e-05
-0.000389931
4.27838e-05
-0.000392044
4.70389e-05
-0.000393487
5.22306e-05
-0.000394186
5.81442e-05
-0.000394057
6.44804e-05
-0.000393007
7.08132e-05
-0.000390932
7.66147e-05
-0.000387719
8.12158e-05
-0.000383248
8.38617e-05
-0.000377389
8.36339e-05
-0.000370013
7.96606e-05
-0.000360985
7.08486e-05
-0.000350183
5.63969e-05
-0.000337475
3.51613e-05
-0.000322782
6.91891e-06
-0.000305986
-2.96212e-05
-0.000287104
-7.30179e-05
-0.000265958
-0.000125554
-0.000242824
-0.000181714
-0.000217275
-0.000247756
-0.000190129
-0.000308469
-0.000160177
-0.000382018
-0.000129411
-0.00043199
-9.46801e-05
-0.000503887
-6.03468e-05
-0.000522443
-1.74988e-05
-0.000571941
-0.000511533
-0.000267025
9.39491e-05
-0.000274802
8.99142e-05
-0.000282401
8.56878e-05
-0.000289813
8.12989e-05
-0.000297024
7.67863e-05
-0.000304021
7.21971e-05
-0.000310792
6.75895e-05
-0.000317321
6.30332e-05
-0.000323593
5.86101e-05
-0.000329589
5.44139e-05
-0.00033529
5.05503e-05
-0.000340676
4.71331e-05
-0.000345723
4.42828e-05
-0.000350405
4.21213e-05
-0.000354693
4.07656e-05
-0.000358553
4.03213e-05
-0.000361948
4.08714e-05
-0.000364836
4.24666e-05
-0.000367167
4.51148e-05
-0.000368885
4.87569e-05
-0.000369926
5.32718e-05
-0.000370218
5.84361e-05
-0.000369678
6.39404e-05
-0.000368213
6.93487e-05
-0.000365722
7.41237e-05
-0.000362093
7.75869e-05
-0.000357208
7.89761e-05
-0.000350936
7.73621e-05
-0.000343154
7.18781e-05
-0.000333725
6.14198e-05
-0.000322532
4.52045e-05
-0.000309445
2.20735e-05
-0.000294399
-8.12637e-06
-0.000277262
-4.67583e-05
-0.000258072
-9.22082e-05
-0.000236649
-0.000146977
-0.000213283
-0.000205079
-0.000187543
-0.000273496
-0.000160279
-0.000335733
-0.000130247
-0.000412051
-9.95402e-05
-0.000462697
-6.4893e-05
-0.000538534
-3.09574e-05
-0.000556378
1.17289e-05
-0.000614627
-0.000554278
-0.000248893
0.000101565
-0.000256344
9.7366e-05
-0.000263621
9.29641e-05
-0.000270709
8.83875e-05
-0.000277597
8.36744e-05
-0.000284271
7.8871e-05
-0.000290716
7.40345e-05
-0.000296916
6.92333e-05
-0.000302855
6.45483e-05
-0.000308512
6.00717e-05
-0.00031387
5.59075e-05
-0.000318905
5.21679e-05
-0.000323593
4.89711e-05
-0.000327908
4.64365e-05
-0.000331821
4.46783e-05
-0.000335297
4.3798e-05
-0.000338301
4.38747e-05
-0.000340788
4.49537e-05
-0.00034271
4.70375e-05
-0.000344013
5.00595e-05
-0.000344633
5.38914e-05
-0.000344498
5.83011e-05
-0.000343527
6.29695e-05
-0.000341629
6.74506e-05
-0.000338703
7.11979e-05
-0.00033464
7.35236e-05
-0.000329322
7.36583e-05
-0.000322622
7.06619e-05
-0.000314417
6.36738e-05
-0.000304575
5.15776e-05
-0.000292982
3.36113e-05
-0.000279508
8.59947e-06
-0.000264099
-2.35357e-05
-0.000246619
-6.42376e-05
-0.000227116
-0.000111712
-0.000205415
-0.000168678
-0.000181816
-0.000228678
-0.000155883
-0.000299429
-0.000128502
-0.000363114
-9.83864e-05
-0.000442166
-6.7733e-05
-0.00049335
-3.31494e-05
-0.000573117
-3.83245e-07
-0.000589144
4.24124e-05
-0.000657423
-0.000597125
-0.000229442
0.000108834
-0.00023655
0.000104474
-0.000243485
9.98986e-05
-0.000250233
9.51357e-05
-0.000256781
9.02225e-05
-0.000263114
8.52044e-05
-0.000269217
8.01373e-05
-0.000275073
7.50888e-05
-0.000280663
7.01381e-05
-0.000285967
6.53764e-05
-0.000290965
6.09058e-05
-0.000295635
5.6837e-05
-0.00029995
5.32863e-05
-0.000303884
5.03705e-05
-0.000307407
4.82011e-05
-0.000310485
4.6876e-05
-0.00031308
4.64705e-05
-0.000315151
4.70246e-05
-0.00031665
4.8536e-05
-0.000317521
5.09306e-05
-0.000317703
5.4073e-05
-0.000317124
5.77229e-05
-0.000315706
6.15513e-05
-0.000313358
6.51027e-05
-0.000309982
6.78213e-05
-0.000305469
6.90108e-05
-0.000299705
6.7894e-05
-0.000292563
6.35204e-05
-0.000283925
5.50357e-05
-0.00027366
4.13123e-05
-0.000261655
2.16062e-05
-0.000247794
-5.26099e-06
-0.000232012
-3.93178e-05
-0.000214188
-8.20619e-05
-0.00019437
-0.000131529
-0.00017239
-0.000190658
-0.00014856
-0.000252508
-0.000122435
-0.000325554
-9.49366e-05
-0.000390613
-6.47358e-05
-0.000472367
-3.41326e-05
-0.000523954
8.23161e-07
-0.000608073
3.37385e-05
-0.00062206
7.51341e-05
-0.000698819
-0.000639725
-0.00020871
0.000115738
-0.000215457
0.000111221
-0.000222034
0.000106475
-0.000228426
0.000101528
-0.000234619
9.64159e-05
-0.000240598
9.11832e-05
-0.000246346
8.58847e-05
-0.000251843
8.05867e-05
-0.000257072
7.53671e-05
-0.000262012
7.03158e-05
-0.00026664
6.55334e-05
-0.000270932
6.1129e-05
-0.000274862
5.7217e-05
-0.000278404
5.39119e-05
-0.000281525
5.13227e-05
-0.000284193
4.95438e-05
-0.00028637
4.8647e-05
-0.000288012
4.86674e-05
-0.000289074
4.95981e-05
-0.000289501
5.13575e-05
-0.000289232
5.38038e-05
-0.000288197
5.66883e-05
-0.000286319
5.96728e-05
-0.000283508
6.22921e-05
-0.000279668
6.39814e-05
-0.000274694
6.40365e-05
-0.000268472
6.16719e-05
-0.000260879
5.59272e-05
-0.000251798
4.59546e-05
-0.000241102
3.06166e-05
-0.000228679
9.18361e-06
-0.000214428
-1.9512e-05
-0.000198271
-5.54747e-05
-0.000180101
-0.000100233
-0.00015997
-0.000151661
-0.000137713
-0.000212914
-0.000113653
-0.000276568
-8.73379e-05
-0.00035187
-5.97234e-05
-0.000418227
-2.94343e-05
-0.000502656
9.42931e-07
-0.000554331
3.55833e-05
-0.000642714
6.87316e-05
-0.000655208
0.000109546
-0.000739633
-0.000681971
-0.00018673
0.000122263
-0.000193101
0.000117592
-0.000199306
0.00011268
-0.000205329
0.000107551
-0.000211156
0.000102242
-0.000216769
9.67961e-05
-0.00022215
9.1266e-05
-0.00022728
8.5717e-05
-0.000232139
8.0226e-05
-0.000236705
7.48812e-05
-0.000240953
6.97819e-05
-0.00024486
6.50357e-05
-0.000248398
6.07551e-05
-0.000251539
5.70529e-05
-0.000254251
5.40352e-05
-0.000256501
5.17935e-05
-0.00025825
5.03962e-05
-0.000259456
4.98736e-05
-0.000260073
5.0215e-05
-0.000260047
5.13312e-05
-0.000259318
5.30743e-05
-0.000257817
5.51879e-05
-0.000255469
5.73243e-05
-0.000252186
5.90092e-05
-0.000247873
5.96687e-05
-0.000242428
5.85918e-05
-0.00023574
5.49839e-05
-0.000227688
4.78747e-05
-0.000218158
3.64242e-05
-0.000207025
1.94839e-05
-0.000194188
-3.65325e-06
-0.000179538
-3.41618e-05
-0.000163007
-7.20056e-05
-0.000144491
-0.000118748
-0.000124049
-0.000172103
-0.000101519
-0.000235445
-7.72325e-05
-0.000300854
-5.07298e-05
-0.000378372
-2.30027e-05
-0.000445954
7.39002e-06
-0.000533049
3.78944e-05
-0.000584835
7.22842e-05
-0.000677103
0.000105243
-0.000688167
0.000145491
-0.000779881
-0.000723794
-0.000163529
0.000128395
-0.000169513
0.000123576
-0.000175335
0.000118502
-0.00018098
0.000113196
-0.00018643
0.000107693
-0.000191669
0.000102035
-0.000196677
9.62735e-05
-0.000201432
9.04729e-05
-0.000205915
8.47083e-05
-0.0002101
7.90667e-05
-0.000213964
7.3646e-05
-0.000217481
6.85522e-05
-0.000220622
6.38963e-05
-0.000223358
5.9789e-05
-0.000225657
5.63343e-05
-0.000227485
5.36208e-05
-0.000228802
5.17135e-05
-0.000229567
5.06386e-05
-0.000229734
5.03818e-05
-0.000229249
5.08465e-05
-0.000228054
5.18792e-05
-0.000226082
5.3216e-05
-0.000223258
5.45e-05
-0.000219497
5.52481e-05
-0.000214705
5.48774e-05
-0.000208785
5.2671e-05
-0.000201626
4.78248e-05
-0.000193109
3.93583e-05
-0.000183126
2.64413e-05
-0.000171552
7.90954e-06
-0.000158305
-1.69003e-05
-0.000143254
-4.9213e-05
-0.00012635
-8.89095e-05
-0.000107492
-0.000137606
-8.67421e-05
-0.000192853
-6.39422e-05
-0.000258244
-3.94343e-05
-0.000325362
-1.2747e-05
-0.00040506
1.50882e-05
-0.00047379
4.55463e-05
-0.000563507
7.60397e-05
-0.000615329
0.000110372
-0.000711436
0.000143147
-0.000720942
0.000182832
-0.000819565
-0.000765148
-0.000139133
0.000134125
-0.000144721
0.000129164
-0.000150152
0.000123934
-0.000155411
0.000118455
-0.000160479
0.000112761
-0.000165339
0.000106894
-0.000169968
0.000100903
-0.000174345
9.48506e-05
-0.000178448
8.88111e-05
-0.000182252
8.28701e-05
-0.00018573
7.71239e-05
-0.000188855
7.16772e-05
-0.000191598
6.66395e-05
-0.000193928
6.21196e-05
-0.000195814
5.82195e-05
-0.000197218
5.50251e-05
-0.000198103
5.25985e-05
-0.000198426
5.09617e-05
-0.000198142
5.00975e-05
-0.000197197
4.99022e-05
-0.000195535
5.02168e-05
-0.000193089
5.07705e-05
-0.000189787
5.11976e-05
-0.000185545
5.10063e-05
-0.000180273
4.96048e-05
-0.000173874
4.6272e-05
-0.000166241
4.01922e-05
-0.000157259
3.03764e-05
-0.00014682
1.60024e-05
-0.000134814
-4.09626e-06
-0.000121147
-3.05673e-05
-0.000105701
-6.46597e-05
-8.84271e-05
-0.000106183
-6.92318e-05
-0.000156802
-4.81796e-05
-0.000213905
-2.5116e-05
-0.000281308
-3.84798e-07
-0.000350093
2.64717e-05
-0.000431916
5.44149e-05
-0.000501733
8.49521e-05
-0.000594044
0.000115416
-0.000645792
0.0001497
-0.000745721
0.000182308
-0.000753549
0.000221436
-0.000858693
-0.000806004
-0.000113559
0.000139447
-0.000118746
0.000134351
-0.000123782
0.00012897
-0.000128651
0.000123324
-0.000133335
0.000117445
-0.000137812
0.000111371
-0.000142062
0.000105153
-0.000146061
9.88497e-05
-0.000149785
9.25349e-05
-0.000153207
8.62924e-05
-0.000156301
8.02173e-05
-0.000159037
7.4413e-05
-0.000161384
6.89874e-05
-0.000163313
6.40477e-05
-0.000164787
5.96941e-05
-0.000165772
5.60098e-05
-0.000166228
5.30544e-05
-0.000166112
5.08459e-05
-0.000165379
4.9365e-05
-0.000163978
4.85007e-05
-0.00016185
4.80891e-05
-0.000158933
4.78533e-05
-0.000155154
4.74186e-05
-0.000150433
4.62849e-05
-0.00014468
4.38518e-05
-0.000137803
3.93954e-05
-0.000129697
3.20863e-05
-0.000120252
2.0931e-05
-0.000109357
5.10803e-06
-9.69275e-05
-1.65262e-05
-8.28406e-05
-4.46542e-05
-6.70022e-05
-8.04981e-05
-4.93644e-05
-0.000123821
-2.98377e-05
-0.000176328
-8.48902e-06
-0.000235254
1.48304e-05
-0.000304627
3.97629e-05
-0.000375026
6.67979e-05
-0.000458951
9.48427e-05
-0.000529777
0.000125458
-0.000624659
0.000155891
-0.000676226
0.00019013
-0.00077996
0.000222589
-0.000786008
0.000261174
-0.000897278
-0.000846341
-8.68205e-05
0.000144357
-9.16036e-05
0.000139134
-9.6244e-05
0.00013361
-0.000100724
0.000127804
-0.000105023
0.000121744
-0.00010912
0.000115469
-0.000112993
0.000109026
-0.000116617
0.000102474
-0.000119966
9.58835e-05
-0.000123012
8.93383e-05
-0.000125726
8.29317e-05
-0.000128079
7.67655e-05
-0.000130038
7.09464e-05
-0.00013157
6.55802e-05
-0.000132641
6.07651e-05
-0.000133214
5.65822e-05
-0.000133248
5.30883e-05
-0.0001327
5.02984e-05
-0.000131526
4.81911e-05
-0.000129674
4.66485e-05
-0.000127087
4.55023e-05
-0.000123704
4.447e-05
-0.000119453
4.3168e-05
-0.000114257
4.10886e-05
-0.000108028
3.76227e-05
-0.000100677
3.20452e-05
-9.21027e-05
2.35116e-05
-8.21901e-05
1.10184e-05
-7.08626e-05
-6.21945e-06
-5.79995e-05
-2.93892e-05
-4.35025e-05
-5.91513e-05
-2.72784e-05
-9.67222e-05
-9.28253e-06
-0.000141817
1.05672e-05
-0.000196178
3.22026e-05
-0.000256889
5.57709e-05
-0.000328196
8.09049e-05
-0.00040016
0.000108104
-0.00048615
0.000136244
-0.000557918
0.000166934
-0.000655348
0.000197337
-0.00070663
0.00023153
-0.000814152
0.000263858
-0.000818336
0.000301919
-0.000935338
-0.000886149
-5.89206e-05
-6.3303e-05
0.000143516
-6.75506e-05
0.000137858
-7.16448e-05
0.000131898
-7.55647e-05
0.000125664
-7.9288e-05
0.000119192
-8.27905e-05
0.000112528
-8.60462e-05
0.000105729
-8.90277e-05
9.8865e-05
-9.17058e-05
9.20164e-05
-9.40502e-05
8.5276e-05
-9.60291e-05
7.87444e-05
-9.76095e-05
7.25268e-05
-9.87569e-05
6.67276e-05
-9.94352e-05
6.14434e-05
-9.96062e-05
5.67532e-05
-9.92294e-05
5.27115e-05
-9.8261e-05
4.933e-05
-9.66565e-05
4.65865e-05
-9.43641e-05
4.43561e-05
-9.1328e-05
4.24662e-05
-8.7488e-05
4.063e-05
-8.27748e-05
3.84548e-05
-7.71121e-05
3.54259e-05
-7.04144e-05
3.0925e-05
-6.25963e-05
2.42271e-05
-5.35636e-05
1.44788e-05
-4.31924e-05
6.47152e-07
-3.14367e-05
-1.79752e-05
-1.81469e-05
-4.2679e-05
-3.24436e-06
-7.40538e-05
1.33547e-05
-0.000113321
3.16983e-05
-0.00016016
5.1863e-05
-0.000216343
7.37773e-05
-0.000278803
9.75849e-05
-0.000352003
0.000122911
-0.000425486
0.000150267
-0.000513506
0.000178496
-0.000586147
0.000209254
-0.000686106
0.00023963
-0.000737005
0.000273772
-0.000848295
0.000305986
-0.00085055
0.000343547
-0.000972899
-0.000925426
-3.3845e-05
0.000147505
-3.77081e-05
0.000141721
-4.14254e-05
0.000135615
-4.49753e-05
0.000129214
-4.83343e-05
0.000122551
-5.14768e-05
0.000115671
-5.43756e-05
0.000108628
-5.70016e-05
0.000101491
-5.93244e-05
9.43392e-05
-6.13119e-05
8.72635e-05
-6.29309e-05
8.03634e-05
-6.41468e-05
7.37427e-05
-6.49237e-05
6.75045e-05
-6.52243e-05
6.17439e-05
-6.50091e-05
5.6538e-05
-6.42366e-05
5.19391e-05
-6.28624e-05
4.79557e-05
-6.08419e-05
4.4566e-05
-5.81237e-05
4.16379e-05
-5.46522e-05
3.89948e-05
-5.03688e-05
3.63465e-05
-4.52056e-05
3.32916e-05
-3.90884e-05
2.93088e-05
-3.19328e-05
2.37694e-05
-2.36589e-05
1.59531e-05
-1.41575e-05
4.97751e-06
-3.38222e-06
-1.01281e-05
8.81997e-06
-3.01774e-05
2.25231e-05
-5.63821e-05
3.7817e-05
-8.93478e-05
5.47847e-05
-0.000130289
7.34671e-05
-0.000178843
9.39361e-05
-0.000236812
0.000116119
-0.000300986
0.000140155
-0.00037604
0.000165665
-0.000450996
0.000193167
-0.000541008
0.00022148
-0.00061446
0.0002523
-0.000716926
0.000282648
-0.000767353
0.000316735
-0.000882382
0.00034885
-0.000882665
0.000385939
-0.00100999
-0.000964173
-3.22274e-06
0.000151118
-6.715e-06
0.000145213
-1.00694e-05
0.000138969
-1.32635e-05
0.000132408
-1.62728e-05
0.00012556
-1.90706e-05
0.000118469
-2.16281e-05
0.000111186
-2.39149e-05
0.000103778
-2.58989e-05
9.63233e-05
-2.75468e-05
8.89114e-05
-2.88235e-05
8.16401e-05
-2.9693e-05
7.46123e-05
-3.0118e-05
6.79295e-05
-3.00596e-05
6.16855e-05
-2.94772e-05
5.59556e-05
-2.83281e-05
5.079e-05
-2.65669e-05
4.61945e-05
-2.41492e-05
4.21482e-05
-2.10233e-05
3.85121e-05
-1.71342e-05
3.51056e-05
-1.24244e-05
3.16367e-05
-6.82767e-06
2.76949e-05
-2.71862e-07
2.2753e-05
7.32881e-06
1.61688e-05
1.60501e-05
7.23188e-06
2.59736e-05
-4.94604e-06
3.71838e-05
-2.13383e-05
4.98007e-05
-4.27943e-05
6.39072e-05
-7.04887e-05
7.95825e-05
-0.000105023
9.69052e-05
-0.000147612
0.000115914
-0.000197852
0.000136676
-0.000257573
0.000159115
-0.000323425
0.00018337
-0.000400294
0.000209052
-0.000476678
0.000236692
-0.000568649
0.000265081
-0.000642849
0.000295956
-0.000747801
0.000326278
-0.000797675
0.000360304
-0.000916408
0.000392332
-0.000914692
0.000428981
-0.00104664
-0.0010024
2.85753e-05
0.000154365
2.54358e-05
0.000148353
2.24253e-05
0.00014198
1.95675e-05
0.000135266
1.6888e-05
0.00012824
1.44151e-05
0.000120941
1.21785e-05
0.000113422
1.02102e-05
0.000105746
8.54375e-06
9.79898e-05
7.21413e-06
9.0241e-05
6.25779e-06
8.25965e-05
5.71241e-06
7.51576e-05
5.61688e-06
6.8025e-05
6.01146e-06
6.1291e-05
6.93809e-06
5.5029e-05
8.4408e-06
4.92873e-05
1.05662e-05
4.40691e-05
1.33588e-05
3.93556e-05
1.68701e-05
3.50007e-05
2.11555e-05
3.08202e-05
2.62709e-05
2.65213e-05
3.22818e-05
2.1684e-05
3.92611e-05
1.57737e-05
4.72863e-05
8.14359e-06
5.64319e-05
-1.91371e-06
6.67593e-05
-1.52734e-05
7.83919e-05
-3.29709e-05
9.14128e-05
-5.58151e-05
0.000105907
-8.49825e-05
0.000121949
-0.000121066
0.000139613
-0.000165276
0.000158936
-0.000217175
0.000179976
-0.000278614
0.00020266
-0.000346109
0.00022712
-0.000424754
0.000252965
-0.000502523
0.000280732
-0.000596416
0.000309191
-0.000671308
0.000340112
-0.000778721
0.00037041
-0.000827974
0.000404368
-0.000950366
0.000436319
-0.000946644
0.000472561
-0.00108288
-0.00104012
6.15737e-05
0.000157277
5.87604e-05
0.000151166
5.60677e-05
0.000144672
5.35205e-05
0.000137813
5.11454e-05
0.000130615
4.89716e-05
0.000123115
4.70305e-05
0.000115363
4.53551e-05
0.000107421
4.39805e-05
9.93644e-05
4.29432e-05
9.12783e-05
4.22811e-05
8.32585e-05
4.20335e-05
7.54052e-05
4.22409e-05
6.78177e-05
4.29449e-05
6.05869e-05
4.41889e-05
5.3785e-05
4.60185e-05
4.74578e-05
4.84815e-05
4.16061e-05
5.16226e-05
3.62145e-05
5.54935e-05
3.11298e-05
6.015e-05
2.61638e-05
6.5647e-05
2.10243e-05
7.20507e-05
1.52802e-05
7.9426e-05
8.39838e-06
8.78668e-05
-2.9721e-07
9.73845e-05
-1.14314e-05
0.000108126
-2.60151e-05
0.000120155
-4.49995e-05
0.000133562
-6.92226e-05
0.000148426
-9.9846e-05
0.000164819
-0.000137459
0.000182809
-0.000183265
0.00020243
-0.000236796
0.000223736
-0.000299919
0.000246651
-0.000369024
0.000271303
-0.000449407
0.000297299
-0.000528518
0.000325182
-0.0006243
0.000353705
-0.00069983
0.000384663
-0.000809679
0.00041494
-0.000858251
0.000448821
-0.000984247
0.000480705
-0.000978527
0.000516574
-0.00111875
-0.00107734
9.58004e-05
0.000159888
9.32797e-05
0.000153687
9.08722e-05
0.00014708
8.86032e-05
0.000140082
8.65006e-05
0.000132718
8.45948e-05
0.000125021
8.2918e-05
0.00011704
8.15048e-05
0.000108835
8.03914e-05
0.000100478
7.96158e-05
9.2054e-05
7.92173e-05
8.3657e-05
7.92368e-05
7.53857e-05
7.97163e-05
6.73382e-05
8.0699e-05
5.96042e-05
8.22297e-05
5.22543e-05
8.43554e-05
4.53321e-05
8.71258e-05
3.88357e-05
9.05854e-05
3.27548e-05
9.47866e-05
2.69286e-05
9.97856e-05
2.11647e-05
0.000105638
1.51721e-05
0.000112405
8.51328e-06
0.000120173
6.3064e-07
0.000128942
-9.06686e-06
0.000138862
-2.13511e-05
0.000149981
-3.71345e-05
0.000162386
-5.74045e-05
0.00017616
-8.29958e-05
0.000191374
-0.00011506
0.000208101
-0.000154186
0.000226399
-0.000201563
0.000246303
-0.0002567
0.000267857
-0.000321474
0.000290988
-0.000392155
0.00031582
-0.000474238
0.000341955
-0.000554653