/*--------------------------------*- C++ -*----------------------------------*\
  =========                 |
  \\      /  F ield         | OpenFOAM: The Open Source CFD Toolbox
   \\    /   O peration     | Website:  https://openfoam.org
    \\  /    A nd           | Version:  7
     \\/     M anipulation  |
\*---------------------------------------------------------------------------*/
FoamFile
{
    version     2.0;
    format      ascii;
    class       volVectorField;
    location    "45";
    object      U;
}
// * * * * * * * * * * * * * * * * * * * * * * * * * * * * * * * * * * * * * //

dimensions      [0 1 -1 0 0 0 0];

internalField   nonuniform List<vector> 
8500
(
(-0.182961 -0.00160254 -1.58669e-21)
(-0.188251 -0.00192511 3.51953e-22)
(-0.193473 -0.00225393 9.22579e-22)
(-0.198624 -0.00258407 1.45673e-23)
(-0.203702 -0.00290947 -1.71866e-21)
(-0.208704 -0.00322281 1.96583e-21)
(-0.213629 -0.00351553 -8.81757e-22)
(-0.218471 -0.00377766 4.36662e-22)
(-0.22323 -0.00399807 -8.64256e-22)
(-0.227899 -0.0041644 7.63183e-22)
(-0.232474 -0.00426327 -1.46481e-22)
(-0.236949 -0.00428035 -2.8175e-22)
(-0.241317 -0.00420126 -7.06406e-22)
(-0.245566 -0.00401148 8.82679e-22)
(-0.249687 -0.00369722 9.06298e-22)
(-0.253666 -0.00324613 -8.47595e-22)
(-0.257487 -0.00264781 -5.25837e-22)
(-0.26113 -0.00189571 4.28958e-23)
(-0.264574 -0.00098612 -1.69064e-22)
(-0.267792 7.80865e-05 5.36084e-22)
(-0.270755 0.00128843 -4.01853e-22)
(-0.273428 0.00262975 3.84653e-22)
(-0.275772 0.00407616 -6.70147e-22)
(-0.277746 0.00559801 -2.38296e-22)
(-0.279298 0.00715318 7.73121e-23)
(-0.280374 0.00869223 -3.34175e-23)
(-0.280913 0.0101566 -1.16297e-22)
(-0.280852 0.0114814 -7.80956e-22)
(-0.280113 0.0125961 8.01091e-22)
(-0.27863 0.0134291 5.64479e-22)
(-0.276309 0.0139087 -2.28415e-22)
(-0.273084 0.0139707 6.38839e-23)
(-0.268846 0.0135596 -2.22482e-22)
(-0.263539 0.0126403 -3.68644e-22)
(-0.257058 0.0111924 -6.57097e-22)
(-0.249315 0.00923931 -4.49401e-22)
(-0.240344 0.00681059 4.08833e-22)
(-0.229769 0.00402599 -5.13959e-22)
(-0.218303 0.000956481 4.10106e-22)
(-0.204266 -0.00211621 -1.2942e-22)
(-0.19085 -0.00512574 2.03675e-22)
(-0.17194 -0.007526 2.07197e-22)
(-0.158111 -0.00929492 5.6907e-23)
(-0.130899 -0.00962121 -2.15049e-22)
(-0.119331 -0.00812665 -6.0767e-25)
(-0.0798744 -0.00509539 4.34257e-24)
(-0.182343 0.000331517 -1.917e-21)
(-0.187619 -6.20292e-05 1.53038e-21)
(-0.192827 -0.000460476 1.24024e-21)
(-0.197964 -0.00085886 -5.45772e-23)
(-0.203028 -0.00125113 -4.80176e-21)
(-0.208016 -0.00163003 5.10542e-21)
(-0.212925 -0.00198708 -3.46e-21)
(-0.217752 -0.00231244 -1.31964e-21)
(-0.222495 -0.00259518 2.78428e-22)
(-0.227148 -0.00282314 2.03845e-22)
(-0.231707 -0.00298322 -4.07398e-21)
(-0.236165 -0.00306125 5.71959e-21)
(-0.240514 -0.0030433 -3.12087e-22)
(-0.244746 -0.00291521 -5.23774e-21)
(-0.248849 -0.00266358 1.35427e-21)
(-0.252809 -0.00227651 1.18819e-21)
(-0.256611 -0.00174383 -1.77349e-21)
(-0.260235 -0.00105955 1.05423e-21)
(-0.263659 -0.000220318 2.27609e-21)
(-0.266857 0.000768968 -2.06436e-21)
(-0.269799 0.00190104 1.55627e-21)
(-0.272449 0.0031598 -1.08556e-21)
(-0.274769 0.00451889 5.28393e-22)
(-0.276714 0.00594784 7.34818e-22)
(-0.278233 0.00740405 1.49786e-22)
(-0.279272 0.00883769 -5.4303e-23)
(-0.279766 0.0101898 -5.31782e-22)
(-0.279652 0.0113953 -1.51506e-23)
(-0.278852 0.0123832 1.08798e-21)
(-0.277297 0.0130824 -9.66247e-22)
(-0.274894 0.0134208 -2.56495e-21)
(-0.271576 0.0133357 1.83735e-22)
(-0.267234 0.0127704 4.35229e-22)
(-0.261815 0.0116946 -2.04298e-22)
(-0.255215 0.0100825 2.62682e-22)
(-0.247352 0.00797055 -6.06607e-22)
(-0.238262 0.00537154 -3.58158e-22)
(-0.227577 0.0024377 1.09679e-21)
(-0.216013 -0.000808838 -1.04499e-21)
(-0.201903 -0.00400633 1.03574e-22)
(-0.188436 -0.00721311 -6.81717e-22)
(-0.169513 -0.00970521 -6.5968e-22)
(-0.155712 -0.0117369 1.19437e-22)
(-0.12853 -0.0121573 6.17139e-22)
(-0.117097 -0.0109034 1.49747e-22)
(-0.0773007 -0.0075996 2.05916e-23)
(-0.181029 0.00225802 9.64723e-21)
(-0.186272 0.00179361 -6.90394e-21)
(-0.191446 0.00132559 -3.29998e-23)
(-0.196549 0.00085895 3.52861e-21)
(-0.201578 0.000399731 -7.42326e-22)
(-0.20653 -4.48373e-05 -1.12074e-21)
(-0.211404 -0.000466284 6.30953e-21)
(-0.216195 -0.000855201 -1.87646e-21)
(-0.2209 -0.00120054 3.00119e-21)
(-0.225516 -0.00149043 2.84218e-22)
(-0.230036 -0.00171188 -2.13359e-21)
(-0.234454 -0.00185136 -4.66742e-22)
(-0.238763 -0.00189495 6.35166e-21)
(-0.242954 -0.00182891 -1.05603e-21)
(-0.247015 -0.00164017 -2.63004e-21)
(-0.250933 -0.00131723 5.46121e-22)
(-0.254692 -0.000850625 6.69542e-22)
(-0.258271 -0.000233184 -3.24275e-21)
(-0.26165 0.000533118 4.17172e-21)
(-0.264802 0.00144775 -3.51496e-21)
(-0.267695 0.00250136 -2.88721e-21)
(-0.270295 0.00367719 1.79641e-21)
(-0.272562 0.00494854 3.98462e-21)
(-0.27445 0.00628414 -1.95338e-21)
(-0.275908 0.00764088 3.4152e-22)
(-0.276881 0.00896854 -2.20759e-21)
(-0.277302 0.0102076 1.32322e-21)
(-0.277107 0.0112931 -9.13401e-22)
(-0.276217 0.0121534 -3.18797e-21)
(-0.274562 0.0127181 1.33173e-21)
(-0.272049 0.0129144 2.88185e-22)
(-0.268611 0.0126817 2.23282e-21)
(-0.264141 0.0119617 3.28773e-22)
(-0.258586 0.0107291 2.67145e-21)
(-0.251844 0.00895325 -1.30589e-21)
(-0.24384 0.00668311 2.31712e-21)
(-0.23461 0.00391538 -9.95677e-22)
(-0.223799 0.000834642 -1.25272e-21)
(-0.212121 -0.00258682 9.00187e-22)
(-0.197926 -0.00590533 -8.97798e-22)
(-0.1844 -0.00930569 -5.30932e-23)
(-0.165457 -0.0118843 1.27993e-21)
(-0.15169 -0.014176 -4.49589e-22)
(-0.124547 -0.0146833 -5.86671e-22)
(-0.11332 -0.0136926 -1.53004e-22)
(-0.0730821 -0.0101317 -4.7469e-23)
(-0.179022 0.00416931 2.77365e-21)
(-0.184211 0.00363429 1.76162e-21)
(-0.189331 0.00309686 6.92782e-21)
(-0.194379 0.00256205 -1.31218e-21)
(-0.199354 0.00203591 -6.71611e-21)
(-0.204251 0.00152561 6.98581e-21)
(-0.209068 0.00103954 -9.08425e-22)
(-0.213802 0.000587 -5.94711e-21)
(-0.218449 0.000178894 -1.91418e-21)
(-0.223006 -0.000172968 2.57112e-21)
(-0.227465 -0.000455795 -1.56019e-21)
(-0.231822 -0.000657364 6.84415e-21)
(-0.236069 -0.000762867 -9.75261e-21)
(-0.240196 -0.000759168 3.1525e-21)
(-0.244192 -0.000633519 -3.56045e-21)
(-0.248043 -0.000374489 2.24961e-21)
(-0.251733 2.52376e-05 2.72465e-21)
(-0.255244 0.000573311 -2.26316e-21)
(-0.258553 0.00126737 -4.25345e-21)
(-0.261631 0.00210786 2.69786e-21)
(-0.26445 0.0030828 -2.32533e-22)
(-0.266973 0.00417542 -3.42014e-21)
(-0.269159 0.00535872 -1.57887e-21)
(-0.270964 0.00660062 -3.16539e-22)
(-0.272333 0.00785749 -2.11113e-21)
(-0.273211 0.00907869 3.69206e-21)
(-0.27353 0.0102043 5.30413e-22)
(-0.273226 0.0111691 1.62898e-21)
(-0.272219 0.0119012 1.74876e-21)
(-0.270437 0.0123308 -1.36324e-22)
(-0.267788 0.0123845 1.85487e-22)
(-0.264205 0.0120038 -4.76602e-21)
(-0.259581 0.0111289 7.47239e-22)
(-0.253867 0.0097398 4.32613e-22)
(-0.246961 0.00780068 2.66119e-21)
(-0.238796 0.0053734 1.69532e-22)
(-0.229408 0.00243929 -6.99569e-22)
(-0.218456 -0.000786994 9.39432e-22)
(-0.206648 -0.00437991 -1.07174e-21)
(-0.192358 -0.00781536 1.43413e-21)
(-0.178761 -0.0114054 9.47558e-22)
(-0.159793 -0.0140642 -3.68587e-22)
(-0.146065 -0.0166122 1.91384e-21)
(-0.118968 -0.0171957 5.42688e-22)
(-0.108014 -0.0164962 6.45738e-22)
(-0.0672518 -0.0126989 4.17924e-23)
(-0.176322 0.00605788 -1.26333e-20)
(-0.181438 0.00545261 1.09562e-20)
(-0.186485 0.00484606 -2.95623e-21)
(-0.191459 0.00424329 1.13706e-21)
(-0.196359 0.00365033 -1.0323e-20)
(-0.20118 0.00307433 2.11368e-21)
(-0.205921 0.0025235 4.61758e-21)
(-0.210578 0.00200731 2.53812e-21)
(-0.215147 0.00153625 -1.44588e-21)
(-0.219623 0.00112201 2.58436e-21)
(-0.224001 0.000777149 -6.42218e-21)
(-0.228275 0.000513681 6.38894e-22)
(-0.232437 0.000346106 8.03359e-21)
(-0.236478 0.000287184 9.89639e-22)
(-0.240386 0.000349208 1.59651e-21)
(-0.244148 0.000543169 -8.86364e-21)
(-0.247747 0.000875892 -1.33174e-22)
(-0.251164 0.00135333 5.98562e-21)
(-0.254377 0.0019773 -1.79168e-21)
(-0.257358 0.00274289 -1.65555e-21)
(-0.260076 0.00363895 5.06297e-21)
(-0.262495 0.00464817 -5.72206e-21)
(-0.264575 0.00574319 -2.6086e-21)
(-0.266268 0.00689113 2.97528e-21)
(-0.267521 0.00804785 1.28334e-21)
(-0.268276 0.00916229 7.73397e-22)
(-0.268468 0.010174 -5.19734e-21)
(-0.268028 0.0110178 4.64769e-21)
(-0.266876 0.0116213 -1.2858e-21)
(-0.264941 0.0119154 1.32129e-21)
(-0.262129 0.0118263 -9.1319e-22)
(-0.258377 0.0112974 9.9818e-22)
(-0.253575 0.0102679 -1.9696e-21)
(-0.24768 0.00872267 -7.54041e-22)
(-0.240591 0.00662115 -3.80447e-21)
(-0.232246 0.00403797 -2.47153e-21)
(-0.222682 0.000940538 4.33855e-21)
(-0.211574 -0.00242991 3.86821e-21)
(-0.199623 -0.00619059 -1.42977e-21)
(-0.185227 -0.00973842 2.60916e-21)
(-0.171552 -0.0135141 -2.30729e-21)
(-0.152553 -0.0162455 1.01667e-21)
(-0.138867 -0.0190459 -1.1935e-21)
(-0.111821 -0.019691 1.40346e-22)
(-0.101197 -0.0193146 -9.60623e-23)
(-0.0598551 -0.0153068 4.23877e-23)
(-0.172933 0.00791637 -1.21313e-20)
(-0.177957 0.00724137 -5.30979e-21)
(-0.18291 0.0065661 2.21586e-20)
(-0.187791 0.00589569 -8.52811e-21)
(-0.192597 0.00523616 -4.08739e-21)
(-0.197324 0.0045946 2.14445e-20)
(-0.201969 0.00397915 -9.81547e-22)
(-0.206528 0.00339918 -1.41048e-20)
(-0.210998 0.002865 2.03904e-20)
(-0.215374 0.00238798 -1.96466e-20)
(-0.219651 0.00198044 8.00489e-22)
(-0.223821 0.00165519 -2.86137e-21)
(-0.227878 0.00142524 4.90435e-21)
(-0.23181 0.00130329 -2.64949e-21)
(-0.235608 0.00130118 -1.04216e-21)
(-0.239258 0.00142917 4.46641e-21)
(-0.242742 0.00169529 7.28159e-21)
(-0.246042 0.00210398 -4.87037e-22)
(-0.249135 0.0026563 -4.61824e-21)
(-0.251994 0.00334669 -6.41612e-21)
(-0.254587 0.0041637 -1.57927e-21)
(-0.256877 0.0050894 2.86911e-21)
(-0.258824 0.00609598 9.97705e-21)
(-0.26038 0.0071498 2.77027e-21)
(-0.26149 0.00820622 -1.01632e-20)
(-0.262098 0.00921371 1.10191e-20)
(-0.262134 0.0101114 6.41024e-23)
(-0.261532 0.010834 -3.89597e-21)
(-0.26021 0.0113087 -5.71346e-22)
(-0.258097 0.0114672 -3.01232e-22)
(-0.255099 0.0112353 -3.66833e-21)
(-0.251154 0.0105584 7.31414e-21)
(-0.246153 0.00937454 2.82599e-21)
(-0.240057 0.00767408 -2.70849e-21)
(-0.232763 0.00541101 4.07665e-21)
(-0.224223 0.00267628 -2.33346e-21)
(-0.214467 -0.000586194 -2.36604e-21)
(-0.203191 -0.00409572 -5.69365e-21)
(-0.191082 -0.00802112 1.70302e-21)
(-0.176572 -0.0116764 -3.48464e-22)
(-0.162808 -0.0156334 2.21221e-21)
(-0.143774 -0.0184293 -5.4049e-22)
(-0.13013 -0.0214775 -1.41957e-21)
(-0.103137 -0.0221667 -7.31652e-22)
(-0.0928922 -0.0221476 -2.05164e-22)
(-0.0509476 -0.0179596 -9.00038e-23)
(-0.168858 0.00973764 1.02909e-20)
(-0.17377 0.00899357 1.50413e-20)
(-0.178612 0.00825015 4.63561e-21)
(-0.183381 0.00751255 -1.08811e-20)
(-0.188074 0.00678678 3.09145e-21)
(-0.192687 0.00607992 2.18642e-21)
(-0.197217 0.00540002 -1.10831e-20)
(-0.20166 0.00475631 2.9813e-22)
(-0.206012 0.004159 2.12471e-20)
(-0.210269 0.00361927 -1.81317e-20)
(-0.214424 0.00314914 -7.64075e-23)
(-0.21847 0.00276148 1.8603e-20)
(-0.2224 0.00246874 -1.97759e-20)
(-0.226204 0.00228341 2.0747e-21)
(-0.229871 0.00221706 5.60064e-22)
(-0.233386 0.00227952 1.53454e-20)
(-0.236734 0.00247867 -2.35409e-20)
(-0.239894 0.00281819 1.43811e-20)
(-0.242845 0.00329833 -1.6583e-21)
(-0.245557 0.00391338 4.98407e-21)
(-0.248001 0.00465123 -6.46953e-21)
(-0.250138 0.00549334 -1.26405e-20)
(-0.251927 0.00641141 1.81121e-21)
(-0.253321 0.00737108 -3.51106e-21)
(-0.254264 0.00832715 -1.44322e-21)
(-0.254698 0.00922767 1.15283e-22)
(-0.254554 0.0100113 -4.49781e-21)
(-0.253765 0.0106127 3.99749e-21)
(-0.252248 0.0109587 8.86715e-22)
(-0.249935 0.0109818 2.86715e-21)
(-0.246728 0.0106072 -7.03525e-22)
(-0.242568 0.0097828 -9.57071e-21)
(-0.237347 0.00844539 -5.32244e-21)
(-0.231031 0.00659066 -7.70752e-22)
(-0.223516 0.00416754 -3.50441e-21)
(-0.214764 0.00129319 -2.17198e-22)
(-0.204802 -0.00214301 1.74953e-21)
(-0.193345 -0.0057868 5.96625e-22)
(-0.181068 -0.00987343 1.96111e-21)
(-0.166436 -0.0136308 -4.83885e-21)
(-0.152575 -0.0177649 1.83738e-21)
(-0.133501 -0.0206161 7.71685e-23)
(-0.119899 -0.0239075 5.91335e-22)
(-0.0929589 -0.0246208 1.89158e-22)
(-0.083128 -0.0249934 -2.89939e-22)
(-0.0405942 -0.0206602 -8.80311e-24)
(-0.164099 0.0115148 -2.12009e-20)
(-0.168881 0.0107025 -5.71898e-21)
(-0.173594 0.00989163 1.90317e-20)
(-0.178232 0.00908743 -1.93842e-20)
(-0.182794 0.0082959 1.67079e-20)
(-0.187275 0.00752409 -1.02386e-20)
(-0.191672 0.00677998 -1.24566e-20)
(-0.195981 0.0060727 -1.16171e-21)
(-0.200197 0.00541232 1.21613e-20)
(-0.204315 0.00480989 -1.53289e-20)
(-0.208329 0.00427724 1.13249e-20)
(-0.212232 0.0038269 -5.84385e-21)
(-0.216017 0.00347118 1.05979e-20)
(-0.219672 0.00322232 -1.22981e-20)
(-0.223187 0.00309155 3.9651e-21)
(-0.226548 0.00308836 1.44116e-20)
(-0.229738 0.00322005 -1.33442e-20)
(-0.232738 0.00349001 -1.362e-20)
(-0.235523 0.00389785 7.46491e-21)
(-0.238068 0.00443747 7.70141e-21)
(-0.240339 0.00509611 7.77963e-21)
(-0.2423 0.00585462 -3.91354e-21)
(-0.243908 0.00668421 6.33588e-22)
(-0.245116 0.00754978 3.5146e-21)
(-0.245868 0.0084056 3.30853e-21)
(-0.246104 0.00919927 -1.77997e-21)
(-0.245757 0.00986903 2.98826e-21)
(-0.244758 0.0103494 2.14624e-22)
(-0.243024 0.0105669 -1.18969e-21)
(-0.240487 0.010455 1.71792e-21)
(-0.23705 0.00993838 7.76703e-21)
(-0.232657 0.00896714 -7.12252e-22)
(-0.227197 0.0074772 9.85398e-21)
(-0.220644 0.00546936 -1.08419e-21)
(-0.21289 0.00289149 5.9452e-21)
(-0.203914 -0.00013512 -2.61641e-21)
(-0.193734 -0.00372975 -3.23128e-21)
(-0.182087 -0.00750507 1.02729e-21)
(-0.169631 -0.0117492 9.93476e-22)
(-0.15487 -0.015603 -3.0713e-22)
(-0.140906 -0.0199098 -2.42649e-21)
(-0.121786 -0.022807 -2.33041e-22)
(-0.108225 -0.0263369 3.23868e-21)
(-0.0813343 -0.0270519 -4.95924e-22)
(-0.0719366 -0.027849 -2.48096e-24)
(-0.0288668 -0.0234032 -4.49538e-23)
(-0.158659 0.0132414 -5.52317e-21)
(-0.163295 0.0123618 -1.53679e-20)
(-0.16786 0.0114843 2.75049e-21)
(-0.172351 0.0106142 1.37826e-20)
(-0.176764 0.00975756 -6.18612e-21)
(-0.181096 0.00892128 7.16217e-22)
(-0.185342 0.00811333 -1.02044e-20)
(-0.189498 0.00734272 7.91042e-21)
(-0.19356 0.00661941 9.04689e-21)
(-0.197522 0.00595432 6.64452e-21)
(-0.201378 0.00535908 -1.9681e-20)
(-0.20512 0.00484598 2.63005e-20)
(-0.208741 0.00442717 -1.29881e-20)
(-0.212229 0.00411459 1.231e-20)
(-0.215574 0.00391917 -7.99859e-21)
(-0.218761 0.00385006 1.41576e-20)
(-0.221773 0.00391408 2.00896e-21)
(-0.224591 0.00411431 6.65318e-21)
(-0.227192 0.00444978 -1.00653e-20)
(-0.229547 0.00491391 -1.40576e-20)
(-0.231624 0.00549333 3.57642e-21)
(-0.233387 0.00616831 7.00966e-21)
(-0.234793 0.00690951 8.29421e-21)
(-0.235793 0.00768114 -5.85356e-21)
(-0.236331 0.00843694 -5.03043e-21)
(-0.236348 0.00912403 -1.41269e-20)
(-0.235776 0.00968024 8.98973e-21)
(-0.234545 0.0100401 -2.21021e-21)
(-0.232573 0.0101296 -4.5722e-21)
(-0.229792 0.00988322 1.05633e-21)
(-0.226106 0.00922539 -1.12875e-20)
(-0.221461 0.00810838 -3.98652e-21)
(-0.215746 0.00646715 -3.21333e-21)
(-0.20894 0.00430821 4.71824e-21)
(-0.200935 0.00158677 -5.2664e-21)
(-0.191724 -0.00161046 1.76483e-21)
(-0.181313 -0.00534877 6.21051e-22)
(-0.169467 -0.00925197 -3.8442e-22)
(-0.156825 -0.0136496 2.44903e-21)
(-0.14193 -0.0175942 -8.71764e-22)
(-0.127855 -0.0220694 -1.92282e-21)
(-0.108687 -0.0250025 -2.77527e-21)
(-0.0951638 -0.0287665 -4.50456e-21)
(-0.0683181 -0.0294603 -8.80529e-22)
(-0.0593538 -0.0307096 -1.2745e-21)
(-0.0158439 -0.0261637 1.02932e-22)
(-0.152542 0.0149111 -2.33536e-21)
(-0.157013 0.0139654 -5.97568e-21)
(-0.161414 0.0130223 4.13082e-21)
(-0.16574 0.0120873 -6.38372e-22)
(-0.169988 0.0111662 4.99507e-21)
(-0.174154 0.0102661 -5.24439e-21)
(-0.178233 0.00939476 6.13776e-21)
(-0.182221 0.00856117 -3.01813e-21)
(-0.186112 0.00777517 7.67548e-22)
(-0.189902 0.00704753 -4.87157e-21)
(-0.193582 0.00638972 9.08926e-21)
(-0.197147 0.00581383 2.6475e-21)
(-0.200586 0.00533181 -4.17556e-21)
(-0.20389 0.00495535 -2.28557e-20)
(-0.207047 0.00469509 5.37879e-21)
(-0.210042 0.00455987 -3.81086e-21)
(-0.212858 0.0045561 8.29339e-21)
(-0.215477 0.00468647 -1.40564e-20)
(-0.217873 0.00494948 1.76838e-20)
(-0.220019 0.0053381 -1.32712e-21)
(-0.221883 0.00583835 -2.15141e-21)
(-0.223428 0.00642993 -5.17121e-21)
(-0.22461 0.00708294 -5.96206e-22)
(-0.225382 0.00776091 -6.01545e-21)
(-0.225686 0.00841702 1.14573e-20)
(-0.225464 0.00899796 6.11644e-21)
(-0.224645 0.00944115 7.33848e-21)
(-0.223164 0.00968103 -1.47646e-20)
(-0.220935 0.0096433 2.91546e-21)
(-0.217892 0.0092634 1.18435e-21)
(-0.213939 0.0084654 2.29011e-21)
(-0.209025 0.00720394 4.49474e-21)
(-0.20304 0.00541288 2.19599e-21)
(-0.195968 0.00310716 4.52054e-21)
(-0.187701 0.000230189 5.08802e-21)
(-0.178246 -0.00311312 -6.09996e-21)
(-0.167594 -0.00700158 8.96091e-21)
(-0.155544 -0.0110285 9.08371e-22)
(-0.142708 -0.0155758 -8.12788e-21)
(-0.127676 -0.019605 5.49391e-21)
(-0.113487 -0.0242445 5.90811e-22)
(-0.0942658 -0.0272032 4.07901e-21)
(-0.0807777 -0.0311972 9.22807e-22)
(-0.0539716 -0.0318477 6.96995e-22)
(-0.0454166 -0.0335713 6.25457e-22)
(-0.00161011 -0.0289343 -2.44995e-22)
(-0.150039 0.0155076 2.97135e-20)
(-0.15426 0.0145002 -3.90857e-20)
(-0.158405 0.0135012 -1.62818e-20)
(-0.162473 0.0125167 4.43719e-20)
(-0.166457 0.0115535 3.45599e-22)
(-0.170353 0.0106194 -1.8096e-20)
(-0.174157 0.00972333 1.39298e-20)
(-0.177862 0.00887498 -5.39216e-21)
(-0.181464 0.008085 -1.15759e-20)
(-0.184954 0.00736473 5.06021e-21)
(-0.188324 0.00672607 -1.8764e-20)
(-0.191567 0.00618079 2.8525e-20)
(-0.19467 0.00574035 -9.714e-21)
(-0.197623 0.00541512 -1.08126e-21)
(-0.20041 0.00521364 8.49315e-21)
(-0.203014 0.00514194 -4.20887e-21)
(-0.205415 0.00520236 -1.34587e-22)
(-0.207589 0.00539287 -6.41328e-21)
(-0.209509 0.005706 5.42702e-21)
(-0.211142 0.00612718 1.08019e-20)
(-0.21245 0.00663555 -8.5974e-21)
(-0.213391 0.00720065 1.22986e-20)
(-0.213915 0.00778533 -3.20053e-21)
(-0.213967 0.00834222 -1.63862e-20)
(-0.213487 0.0088176 1.31443e-20)
(-0.212405 0.00914845 -1.21831e-21)
(-0.210654 0.0092692 2.84426e-21)
(-0.208151 0.00910516 -8.93178e-21)
(-0.20483 0.00859287 1.2639e-20)
(-0.200595 0.00765606 -6.12561e-21)
(-0.195399 0.00625167 -8.73161e-22)
(-0.189131 0.00431294 -7.7824e-21)
(-0.181782 0.00186706 -7.52327e-21)
(-0.173243 -0.00118014 -9.71781e-22)
(-0.163535 -0.00465182 1.89782e-21)
(-0.152636 -0.00868901 -1.16274e-20)
(-0.140378 -0.0128354 -3.63554e-21)
(-0.127344 -0.0175281 5.07038e-21)
(-0.112173 -0.0216357 -1.32628e-21)
(-0.0978654 -0.0264354 2.69766e-21)
(-0.0785905 -0.0294094 -4.06934e-21)
(-0.0651336 -0.0336296 -1.91737e-21)
(-0.0383621 -0.0342173 1.33225e-21)
(-0.0301667 -0.0364364 9.5489e-22)
(0.0137483 -0.031898 1.82067e-22)
(-0.142374 0.0169832 -8.80887e-21)
(-0.146398 0.0159129 -5.03222e-21)
(-0.150349 0.0148512 -7.25016e-21)
(-0.15422 0.0138043 1.94074e-20)
(-0.158008 0.0127789 1.85165e-20)
(-0.161708 0.0117829 -2.98361e-20)
(-0.165313 0.010825 4.51496e-20)
(-0.168819 0.00991472 -1.54822e-20)
(-0.172218 0.00906274 -1.57309e-20)
(-0.175503 0.00828021 8.07203e-21)
(-0.178666 0.00757887 3.70572e-21)
(-0.181698 0.00697034 -3.38935e-21)
(-0.184586 0.00646587 -1.23709e-20)
(-0.18732 0.00607558 6.28688e-21)
(-0.189884 0.00580773 9.31854e-21)
(-0.19226 0.00566802 6.80476e-21)
(-0.194429 0.00565841 -3.40009e-21)
(-0.196366 0.0057764 -2.36266e-21)
(-0.198044 0.00601412 -8.2851e-22)
(-0.199429 0.00635637 -5.50895e-21)
(-0.200485 0.00678179 2.59363e-21)
(-0.201167 0.00725933 -1.45175e-20)
(-0.201428 0.00775119 2.13399e-20)
(-0.20121 0.00820947 -2.13091e-21)
(-0.200456 0.00857999 -6.22603e-21)
(-0.199093 0.00879939 -1.19134e-20)
(-0.197058 0.00880201 1.47713e-21)
(-0.194266 0.00851283 -2.28422e-21)
(-0.190653 0.00786954 1.1435e-21)
(-0.186123 0.00679554 6.27521e-21)
(-0.180633 0.00524996 -4.95625e-21)
(-0.17407 0.00316743 8.38366e-21)
(-0.166438 0.000577123 1.74927e-21)
(-0.157619 -0.00262341 -6.39345e-22)
(-0.147651 -0.00622954 5.03736e-21)
(-0.1365 -0.0104114 1.60464e-20)
(-0.124032 -0.0146728 2.26108e-21)
(-0.110797 -0.0195068 6.04976e-21)
(-0.0954874 -0.0236865 2.52212e-21)
(-0.0810599 -0.0286425 -4.47128e-21)
(-0.0617308 -0.0316214 1.35461e-21)
(-0.048302 -0.0360637 4.59555e-21)
(-0.0215625 -0.0365637 -2.15241e-21)
(-0.0136692 -0.0393065 -4.88035e-22)
(0.0301638 -0.0346708 2.63534e-23)
(-0.134016 0.0183875 3.38278e-21)
(-0.137831 0.0172558 3.0327e-20)
(-0.141572 0.0161329 -1.68214e-20)
(-0.145235 0.0150249 -5.68221e-21)
(-0.148813 0.0139385 -1.11111e-21)
(-0.152303 0.0128814 -9.43513e-21)
(-0.155697 0.0118624 4.34294e-20)
(-0.158989 0.0108908 -2.84185e-20)
(-0.162174 0.00997728 6.93707e-21)
(-0.165241 0.0091328 -2.47176e-20)
(-0.168184 0.00836897 4.84717e-21)
(-0.170992 0.00769727 1.60637e-20)
(-0.173653 0.00712878 -6.88076e-21)
(-0.176155 0.00667339 -4.57252e-21)
(-0.178483 0.00633913 8.30828e-21)
(-0.180619 0.00613133 -7.68458e-21)
(-0.182542 0.00605167 -7.06775e-22)
(-0.184228 0.00609717 9.33102e-21)
(-0.185649 0.00625958 -7.4678e-21)
(-0.186773 0.0065231 1.69722e-20)
(-0.187562 0.00686587 -6.31514e-22)
(-0.187972 0.00725628 -1.90166e-21)
(-0.187954 0.0076559 -9.22768e-21)
(-0.187453 0.00801626 -9.62502e-21)
(-0.186409 0.00828279 3.42623e-21)
(-0.184753 0.00839176 5.81878e-21)
(-0.18242 0.00827746 6.71894e-21)
(-0.179326 0.00786451 6.10317e-21)
(-0.175408 0.00709185 -1.66215e-21)
(-0.170573 0.00588248 -4.28123e-21)
(-0.16478 0.00419796 3.57454e-21)
(-0.157913 0.00197787 1.61446e-21)
(-0.149991 -0.000766542 6.86405e-22)
(-0.140886 -0.00410559 -1.64753e-21)
(-0.130655 -0.00784612 1.39913e-21)
(-0.11925 -0.0121688 -2.90745e-21)
(-0.106572 -0.0165405 -1.79094e-21)
(-0.093134 -0.0215117 -5.32045e-21)
(-0.0776884 -0.0257569 -2.92119e-21)
(-0.0631408 -0.0308656 3.26782e-21)
(-0.043759 -0.0338393 3.98926e-21)
(-0.030355 -0.0385035 -4.05782e-21)
(-0.00364994 -0.0388641 1.10555e-21)
(0.00398776 -0.0421801 1.14836e-21)
(0.0475874 -0.0374726 -1.31695e-22)
(-0.124964 0.0197162 -3.28428e-21)
(-0.128556 0.0185249 -2.72265e-21)
(-0.132075 0.0173425 -2.80588e-20)
(-0.135516 0.0161748 4.03548e-20)
(-0.138873 0.0150286 -3.05931e-20)
(-0.142141 0.0139117 5.79135e-20)
(-0.145312 0.0128324 -3.40541e-20)
(-0.148381 0.0118003 2.82551e-20)
(-0.151339 0.0108258 -1.35546e-20)
(-0.154178 0.00991974 -6.80768e-21)
(-0.15689 0.0090937 -1.33378e-20)
(-0.159463 0.00835901 3.35788e-20)
(-0.161886 0.00772658 -2.29236e-21)
(-0.164146 0.00720612 -9.84689e-21)
(-0.166226 0.00680542 8.19689e-21)
(-0.16811 0.00652953 -3.48478e-22)
(-0.169776 0.00637981 -1.85297e-20)
(-0.1712 0.00635287 -6.03314e-21)
(-0.172353 0.00644013 1.40047e-21)
(-0.173203 0.00662515 -1.65711e-21)
(-0.173713 0.00688565 -5.75522e-21)
(-0.173838 0.00718942 9.52507e-21)
(-0.17353 0.00749745 -1.2163e-22)
(-0.172733 0.0077607 -7.01717e-21)
(-0.171388 0.00792421 -3.15493e-21)
(-0.169427 0.00792396 -2.07328e-21)
(-0.166784 0.0076941 -2.72893e-21)
(-0.163377 0.00715896 -2.098e-21)
(-0.159146 0.00625879 3.38906e-21)
(-0.153996 0.00491603 4.27862e-21)
(-0.147891 0.00309627 -3.99984e-21)
(-0.140717 0.000738777 -5.48875e-21)
(-0.132501 -0.0021535 8.95998e-21)
(-0.123105 -0.00563012 -5.13868e-21)
(-0.112611 -0.00950115 -9.04756e-21)
(-0.10095 -0.0139606 -2.92048e-21)
(-0.0880641 -0.0184378 -3.54549e-21)
(-0.0744242 -0.0235419 -4.86415e-21)
(-0.0588461 -0.0278462 -3.40566e-21)
(-0.0441803 -0.033104 -4.51927e-22)
(-0.0247493 -0.0360612 -5.68743e-21)
(-0.0113643 -0.0409619 3.73939e-21)
(0.0152973 -0.0411386 -6.11909e-24)
(0.0227107 -0.0450157 -2.53434e-23)
(0.0659672 -0.0402984 3.63503e-22)
(-0.115212 0.0209656 2.26191e-20)
(-0.11857 0.0197168 2.16219e-20)
(-0.121856 0.0184767 -6.17571e-21)
(-0.125064 0.017251 -3.12195e-20)
(-0.128189 0.0160465 5.21341e-21)
(-0.131224 0.0148709 -2.10119e-20)
(-0.134162 0.0137325 3.97042e-20)
(-0.136997 0.0126407 -3.11451e-20)
(-0.139719 0.0116059 1.36456e-20)
(-0.142321 0.0106389 1.55034e-20)
(-0.144792 0.00975103 -1.81428e-20)
(-0.147122 0.00895362 1.33188e-21)
(-0.149297 0.00825741 -3.29799e-20)
(-0.151306 0.00767195 2.70513e-20)
(-0.15313 0.00720486 2.82952e-20)
(-0.154753 0.0068609 -2.78165e-20)
(-0.156153 0.00664118 -1.18419e-20)
(-0.157305 0.0065419 4.38528e-20)
(-0.158181 0.00655417 -2.43369e-20)
(-0.158748 0.00666097 -2.04732e-20)
(-0.158968 0.0068396 -5.348e-21)
(-0.158798 0.0070573 3.69582e-21)
(-0.15819 0.00727445 -2.84599e-21)
(-0.157087 0.00744151 -6.14821e-21)
(-0.155432 0.00750309 -4.72242e-22)
(-0.153156 0.00739495 7.83126e-21)
(-0.150195 0.00705108 -6.59147e-21)
(-0.146467 0.00639553 2.82279e-21)
(-0.141915 0.00536986 -1.19496e-20)
(-0.136444 0.00389613 2.48619e-21)
(-0.130022 0.00194774 3.17442e-21)
(-0.122537 -0.000557454 1.96662e-21)
(-0.114024 -0.00358232 -1.44698e-21)
(-0.104336 -0.0071965 4.6474e-21)
(-0.0935799 -0.0111938 -6.46252e-21)
(-0.0816645 -0.0157858 6.06849e-21)
(-0.0685745 -0.0203638 5.85226e-21)
(-0.054736 -0.0255965 6.59804e-21)
(-0.0390313 -0.0299532 9.05922e-22)
(-0.0242503 -0.0353569 -3.40311e-21)
(-0.00477758 -0.0382811 2.11567e-21)
(0.00859336 -0.0434282 4.27181e-22)
(0.0352068 -0.043431 9.09205e-22)
(0.042417 -0.0477904 -2.34531e-21)
(0.0852411 -0.0431107 -5.66433e-23)
(-0.104751 0.0221325 1.17676e-21)
(-0.107864 0.0208284 -1.95282e-20)
(-0.110907 0.0195327 -1.06969e-20)
(-0.113873 0.0182509 -1.07555e-20)
(-0.116756 0.0169898 -5.03217e-21)
(-0.11955 0.015757 -1.1346e-20)
(-0.122248 0.0145607 4.03639e-22)
(-0.12484 0.0134104 3.6476e-21)
(-0.12732 0.0123161 -1.28749e-20)
(-0.129676 0.0112888 2.48894e-20)
(-0.1319 0.0103396 -1.91202e-20)
(-0.133978 0.0094798 2.79656e-21)
(-0.1359 0.00872006 1.70474e-20)
(-0.13765 0.00806977 -3.12767e-20)
(-0.139211 0.00753638 2.66716e-20)
(-0.140566 0.00712443 -1.6885e-20)
(-0.141693 0.00683478 3.01822e-20)
(-0.142566 0.00666327 -3.72291e-21)
(-0.143157 0.00660078 -9.75965e-21)
(-0.143434 0.00662967 -4.79113e-21)
(-0.143358 0.00672687 4.35274e-20)
(-0.142886 0.00685912 -2.3756e-20)
(-0.14197 0.00698618 1.11559e-20)
(-0.140554 0.00705803 -2.02451e-21)
(-0.138581 0.00701888 -2.45827e-22)
(-0.135982 0.00680432 3.77801e-21)
(-0.132697 0.00634813 -4.68216e-21)
(-0.128642 0.00557418 1.00605e-20)
(-0.123764 0.00442498 1.26572e-20)
(-0.117967 0.00282447 -3.20679e-21)
(-0.111227 0.00075095 -1.70765e-20)
(-0.10343 -0.00190329 1.22322e-20)
(-0.0946176 -0.00505482 -5.96867e-21)
(-0.0846395 -0.00880334 -1.66351e-20)
(-0.0736246 -0.0129229 1.15184e-20)
(-0.0614581 -0.0176432 -9.24815e-21)
(-0.0481701 -0.0223169 -6.70456e-21)
(-0.0341376 -0.027674 -4.51921e-21)
(-0.0183141 -0.0320765 -4.67292e-21)
(-0.00342232 -0.0376236 4.40936e-21)
(0.0160828 -0.0405038 1.37923e-21)
(0.0294384 -0.0458807 -4.17657e-21)
(0.0559991 -0.0457335 -1.47748e-21)
(0.0630277 -0.0505261 1.57337e-21)
(0.105345 -0.0458969 -2.02737e-22)
(-0.0935704 0.0232145 -5.19411e-20)
(-0.0964298 0.0218576 4.90624e-20)
(-0.0992206 0.0205085 -3.74909e-20)
(-0.101937 0.0191727 -1.49975e-20)
(-0.104571 0.0178569 3.14701e-20)
(-0.107117 0.0165685 3.51896e-20)
(-0.109567 0.0153159 -4.81845e-20)
(-0.111911 0.0141081 3.67042e-20)
(-0.114141 0.0129554 -3.12931e-20)
(-0.116247 0.0118685 5.36476e-21)
(-0.118218 0.0108587 2.69143e-20)
(-0.120041 0.00993697 2.06372e-21)
(-0.121703 0.00911402 -3.99647e-21)
(-0.12319 0.00839913 2.12639e-21)
(-0.124484 0.0077996 2.57643e-21)
(-0.125566 0.00731979 -1.20586e-22)
(-0.126415 0.00696032 4.87084e-21)
(-0.127004 0.00671674 -9.1056e-21)
(-0.127307 0.00657971 -3.80331e-21)
(-0.127288 0.00653104 -9.6708e-21)
(-0.12691 0.00654729 1.97822e-21)
(-0.126131 0.00659473 -3.43678e-21)
(-0.124902 0.00663255 -3.71951e-21)
(-0.123169 0.00661024 1.1511e-21)
(-0.120873 0.00647163 1.6321e-20)
(-0.117948 0.00615222 -4.8371e-21)
(-0.114335 0.00558558 -2.38456e-21)
(-0.109949 0.00469527 5.97072e-21)
(-0.104742 0.00342503 -2.11099e-21)
(-0.0986166 0.00170503 -3.40331e-21)
(-0.0915597 -0.00050684 -9.83209e-21)
(-0.0834498 -0.0032913 1.12829e-20)
(-0.0743408 -0.00657033 -3.35984e-21)
(-0.0640753 -0.0104491 1.11358e-20)
(-0.0528069 -0.0146868 -2.39024e-22)
(-0.0403944 -0.0195309 8.44277e-21)
(-0.0269164 -0.0242954 7.93566e-21)
(-0.0126967 -0.0297726 -4.40989e-21)
(0.00323586 -0.0342141 3.96943e-21)
(0.018232 -0.0399015 1.4428e-21)
(0.03776 -0.0427348 2.34813e-21)
(0.0510967 -0.0483239 2.205e-21)
(0.0775945 -0.0480271 -4.83183e-22)
(0.0844641 -0.0532279 1.84237e-21)
(0.126213 -0.0486536 4.5922e-23)
(-0.0816524 0.0242096 7.02394e-21)
(-0.0842512 0.0228026 8.25225e-21)
(-0.0867838 0.0214027 -1.32261e-20)
(-0.0892438 0.0200152 4.33833e-20)
(-0.0916241 0.0186468 -4.5502e-20)
(-0.0939169 0.0173047 2.62713e-20)
(-0.0961139 0.0159972 -3.05454e-20)
(-0.0982059 0.0147335 1.55291e-20)
(-0.100183 0.0135235 2.83806e-21)
(-0.102035 0.012378 -1.39572e-20)
(-0.103749 0.0113082 3.11229e-21)
(-0.105313 0.0103252 7.11049e-21)
(-0.106714 0.00943947 2.30791e-21)
(-0.107935 0.00866029 -1.3011e-21)
(-0.108959 0.00799485 -1.40435e-20)
(-0.109767 0.00744734 -1.56296e-20)
(-0.110336 0.00701822 1.83386e-20)
(-0.11064 0.00670275 -1.97639e-20)
(-0.11065 0.00649145 -4.64721e-21)
(-0.110334 0.00636556 2.40328e-20)
(-0.109653 0.00630135 1.97091e-20)
(-0.108564 0.00626467 -2.24457e-20)
(-0.107021 0.00621412 1.89312e-20)
(-0.104967 0.00609876 -1.16243e-21)
(-0.102346 0.00586202 -3.76863e-21)
(-0.0990927 0.00543949 7.70788e-21)
(-0.0951493 0.0047643 -3.06537e-21)
(-0.0904328 0.00375901 -9.39046e-21)
(-0.0848952 0.0023735 1.22079e-20)
(-0.0784442 0.000535805 4.94982e-22)
(-0.0710716 -0.00181908 2.24813e-20)
(-0.0626501 -0.00472274 -5.98636e-21)
(-0.0532496 -0.00812692 -9.88562e-22)
(-0.0427018 -0.0121318 -6.22959e-21)
(-0.0311871 -0.0164833 -7.44048e-21)
(-0.018536 -0.0214468 -4.17729e-21)
(-0.00487775 -0.0262973 -2.30645e-21)
(0.00952055 -0.0318897 7.0946e-21)
(0.0255507 -0.0363641 7.05513e-21)
(0.0406426 -0.0421879 -5.86671e-21)
(0.0601822 -0.0449679 4.57977e-22)
(0.0734958 -0.0507645 -1.56565e-21)
(0.0999155 -0.050308 1.79164e-21)
(0.106649 -0.0558929 -3.29708e-21)
(0.147779 -0.0513771 4.27368e-23)
(-0.0689759 0.0251167 9.01757e-21)
(-0.0713091 0.0236626 -3.92306e-21)
(-0.073579 0.0222147 1.31812e-20)
(-0.0757791 0.020778 -2.21439e-21)
(-0.0779016 0.0193592 -2.2425e-20)
(-0.0799383 0.0179655 2.77492e-20)
(-0.0818803 0.016605 -1.07892e-20)
(-0.0837178 0.0152867 5.25708e-21)
(-0.0854402 0.0140208 -3.40763e-20)