/*--------------------------------*- C++ -*----------------------------------*\
  =========                 |
  \\      /  F ield         | OpenFOAM: The Open Source CFD Toolbox
   \\    /   O peration     | Website:  https://openfoam.org
    \\  /    A nd           | Version:  7
     \\/     M anipulation  |
\*---------------------------------------------------------------------------*/
FoamFile
{
    version     2.0;
    format      ascii;
    class       volScalarField;
    location    "40";
    object      p;
}
// * * * * * * * * * * * * * * * * * * * * * * * * * * * * * * * * * * * * * //

dimensions      [0 2 -2 0 0 0 0];

internalField   nonuniform List<scalar> 
3275
(
-0.517046
-0.49722
-0.524817
-0.504202
-0.488436
-0.53214
-0.510777
-0.494518
-0.479294
-0.464192
-0.538941
-0.516874
-0.500159
-0.484538
-0.469033
-0.453845
-0.438863
-0.545138
-0.52242
-0.505289
-0.489304
-0.473419
-0.457816
-0.44236
-0.426901
-0.411324
-0.550648
-0.527336
-0.509833
-0.493517
-0.477277
-0.46127
-0.445337
-0.429311
-0.413061
-0.396478
-0.379475
-0.555383
-0.531539
-0.51371
-0.4971
-0.480529
-0.46413
-0.44772
-0.431113
-0.414175
-0.396795
-0.378899
-0.360423
-0.3412
-0.55925
-0.534944
-0.516839
-0.499973
-0.483096
-0.466317
-0.449428
-0.432232
-0.414591
-0.396402
-0.377609
-0.358176
-0.338
-0.31767
-0.298299
-0.562155
-0.537464
-0.519136
-0.502052
-0.484895
-0.467749
-0.450383
-0.43259
-0.414235
-0.39523
-0.375541
-0.355169
-0.334074
-0.31282
-0.292306
-0.564004
-0.539009
-0.520514
-0.503253
-0.485844
-0.468343
-0.450501
-0.432107
-0.413032
-0.39321
-0.372636
-0.351349
-0.329376
-0.307256
-0.285709
-0.564699
-0.539489
-0.520885
-0.503489
-0.485857
-0.468015
-0.449703
-0.430706
-0.41091
-0.390275
-0.368832
-0.346663
-0.323861
-0.300937
-0.278464
-0.564147
-0.538815
-0.520163
-0.502676
-0.484848
-0.466683
-0.447907
-0.42831
-0.407798
-0.386362
-0.364074
-0.341062
-0.317485
-0.293827
-0.270535
-0.562252
-0.536897
-0.518261
-0.500727
-0.482735
-0.464264
-0.445033
-0.424843
-0.403626
-0.38141
-0.358309
-0.334503
-0.310212
-0.285891
-0.261888
-0.558924
-0.53365
-0.515095
-0.497558
-0.479435
-0.460678
-0.441006
-0.420235
-0.398331
-0.375361
-0.351489
-0.326945
-0.302008
-0.277102
-0.252494
-0.554077
-0.528989
-0.510581
-0.49309
-0.474868
-0.455848
-0.435752
-0.414419
-0.391852
-0.368165
-0.343572
-0.318353
-0.292845
-0.267436
-0.242329
-0.547629
-0.522838
-0.504645
-0.487246
-0.46896
-0.449702
-0.429204
-0.407334
-0.384136
-0.359776
-0.334519
-0.308698
-0.2827
-0.256874
-0.231374
-0.5395
-0.515119
-0.497209
-0.479951
-0.461638
-0.442171
-0.421298
-0.398922
-0.375134
-0.350155
-0.324302
-0.297956
-0.271556
-0.245404
-0.219616
-0.529623
-0.505764
-0.488207
-0.47114
-0.452838
-0.433195
-0.411979
-0.389135
-0.364806
-0.339269
-0.312894
-0.286111
-0.259402
-0.233018
-0.207047
-0.517937
-0.494715
-0.477579
-0.460752
-0.442502
-0.422719
-0.401198
-0.377932
-0.353119
-0.327095
-0.300282
-0.273154
-0.246234
-0.219715
-0.193664
-0.504389
-0.481919
-0.465272
-0.448735
-0.430581
-0.410698
-0.388917
-0.365281
-0.34005
-0.313616
-0.286454
-0.25908
-0.232051
-0.205498
-0.17947
-0.488939
-0.467332
-0.451242
-0.435046
-0.417032
-0.397094
-0.375103
-0.351158
-0.325581
-0.298824
-0.27141
-0.243894
-0.216862
-0.190377
-0.164471
-0.471554
-0.45092
-0.435454
-0.41965
-0.401825
-0.38188
-0.359734
-0.335549
-0.309706
-0.282719
-0.255155
-0.227605
-0.200678
-0.174365
-0.14868
-0.452214
-0.432662
-0.417884
-0.402524
-0.384936
-0.365039
-0.342801
-0.318449
-0.292429
-0.26531
-0.237704
-0.21023
-0.183518
-0.157483
-0.132115
-0.430913
-0.412546
-0.398519
-0.383653
-0.366356
-0.346564
-0.324302
-0.299864
-0.27376
-0.246614
-0.219077
-0.191792
-0.165405
-0.139757
-0.114793
-0.407654
-0.390572
-0.377357
-0.363037
-0.346085
-0.326459
-0.304247
-0.27981
-0.253721
-0.226658
-0.199303
-0.17232
-0.146367
-0.121203
-0.096687
-0.382456
-0.366752
-0.354408
-0.340686
-0.324134
-0.304741
-0.282657
-0.258313
-0.232344
-0.205475
-0.178418
-0.151853
-0.126447
-0.101866
-0.0777411
-0.355349
-0.341112
-0.329693
-0.316621
-0.300529
-0.281438
-0.259565
-0.23541
-0.209669
-0.183109
-0.156468
-0.130436
-0.10569
-0.0818456
-0.0583087
-0.326376
-0.313689
-0.303249
-0.290877
-0.275305
-0.256588
-0.235014
-0.211149
-0.185747
-0.159611
-0.133502
-0.108117
-0.0841215
-0.0609742
-0.038412
-0.295595
-0.284534
-0.275123
-0.2635
-0.248509
-0.230243
-0.209057
-0.185587
-0.160635
-0.135041
-0.109579
-0.0849503
-0.0618085
-0.0394875
-0.0178566
-0.263075
-0.253708
-0.245373
-0.23455
-0.220203
-0.202464
-0.18176
-0.158789
-0.134402
-0.109466
-0.0847638
-0.0609975
-0.0388065
-0.0174153
0.00327088
-0.2289
-0.221288
-0.214072
-0.204097
-0.190457
-0.173326
-0.153198
-0.130834
-0.107124
-0.0829609
-0.0591294
-0.0363264
-0.0151771
0.00520012
0.024899
-0.193164
-0.187361
-0.181303
-0.172224
-0.159354
-0.142911
-0.123455
-0.101804
-0.0788858
-0.0556081
-0.0327543
-0.0110117
0.00901095
0.0282988
0.046967
-0.155972
-0.152025
-0.147161
-0.139024
-0.126988
-0.111312
-0.0926249
-0.0717942
-0.049779
-0.0274964
-0.00572384
0.0148657
0.0336829
0.0518121
0.0694077
-0.117443
-0.115389
-0.111752
-0.104601
-0.0934612
-0.0786341
-0.0608104
-0.0409052
-0.0199017
0.00127864
0.0218703
0.0412187
0.0587574
0.0756617
0.0921411
-0.0776967
-0.0775789
-0.075193
-0.0690697
-0.0588867
-0.0449874
-0.0281208
-0.00924394
0.0106419
0.0306166
0.0499311
0.0679533
0.0841447
0.099757
0.115073
-0.036877
-0.0387211
-0.0376084
-0.0325529
-0.0233859
-0.010491
0.00532754
0.0230767
0.0417428
0.0604128
0.078357
0.0949696
0.109749
0.123999
0.00486087
0.00105377
0.000866284
0.00481746
0.0129126
0.0247293
0.0394128
0.0559395
0.0732892
0.0905602
0.107044
0.122165
0.135481
0.0473723
0.0415922
0.0400885
0.0429025
0.0498732
0.060542
0.0740085
0.089224
0.105167
0.120951
0.135885
0.149437
0.0904966
0.0827402
0.0799092
0.0815566
0.0873543
0.0968107
0.108984
0.122807
0.137262
0.151476
0.164776
0.17668
0.134065
0.124337
0.120172
0.120628
0.125209
0.133395
0.144207
0.156566
0.16946
0.182036
0.193626
0.177902
0.166217
0.160716
0.15996
0.163286
0.170149
0.179542
0.190375
0.201652
0.212538
0.221837
0.208214
0.201379
0.199394
0.201434
0.206929
0.21485
0.224107
0.233723
0.242893
0.265688
0.250153
0.241991
0.238767
0.239493
0.243585
0.249992
0.257632
0.265552
0.309273
0.291859
0.282383
0.277913
0.277308
0.279965
0.284827
0.290818
0.352409
0.333157
0.322382
0.316667
0.314717
0.315921
0.319213
0.323533
0.394913
0.373869
0.361818
0.354864
0.351565
0.351303
0.35301
0.436604
0.41382
0.400521
0.39234
0.387694
0.385963
0.386081
0.477304
0.452839
0.438322
0.428932
0.422949
0.419756
0.516837
0.490754
0.475057
0.464482
0.457181
0.45254
0.555032
0.527401
0.510564
0.498834
0.490241
0.484178
0.591724
0.562618
0.544687
0.53184
0.521989
0.626754
0.59625
0.577276
0.563353
0.552287
0.659967
0.628148
0.608186
0.593236
0.581004
0.69122
0.658173
0.63728
0.621358
0.720376
0.686189
0.664429
0.647594
0.747307
0.712073
0.689513
0.67183
0.771895
0.73571
0.712419
0.693958
0.794031
0.756995
0.733045
0.713881
0.813619
0.775832
0.7513
0.830573
0.792137
0.767101
0.844816
0.805838
0.780378
0.856287
0.816873
0.791072
0.864935
0.825192
0.799135
0.870722
0.83076
0.80453
0.873621
0.833549
0.807233
0.873621
0.833549
0.807233
0.870722
0.83076
0.80453
0.864935
0.825192
0.799135
0.856287
0.816873
0.791072
0.844816
0.805838
0.780378
0.830573
0.792137
0.767101
0.813619
0.775832
0.7513
0.794031
0.756995
0.733045
0.713881
0.771895
0.73571
0.712419
0.693958
0.747307
0.712073
0.689513
0.67183
0.720376
0.686189
0.664429
0.647594
0.69122
0.658173
0.63728
0.621358
0.659967
0.628148
0.608186
0.593236
0.581004
0.626754
0.59625
0.577276
0.563353
0.552287
0.591724
0.562618
0.544687
0.53184
0.521989
0.555032
0.527401
0.510564
0.498834
0.490241
0.484178
0.516837
0.490754
0.475057
0.464482
0.457181
0.45254
0.477304
0.452839
0.438322
0.428932
0.422949
0.419756
0.436604
0.41382
0.400521
0.39234
0.387694
0.385963
0.386081
0.394913
0.373869
0.361818
0.354864
0.351565
0.351303
0.35301
0.352409
0.333157
0.322382
0.316667
0.314717
0.315921
0.319213
0.323533
0.309273
0.291859
0.282383
0.277913
0.277308
0.279965
0.284827
0.290818
0.265688
0.250153
0.241991
0.238767
0.239493
0.243585
0.249992
0.257632
0.265552
0.221837
0.208214
0.201379
0.199394
0.201434
0.206929
0.21485
0.224107
0.233723
0.242893
0.177902
0.166217
0.160716
0.15996
0.163286
0.170149
0.179542
0.190375
0.201652
0.212538
0.134065
0.124337
0.120172
0.120628
0.125209
0.133395
0.144207
0.156566
0.16946
0.182036
0.193626
0.0904966
0.0827402
0.0799092
0.0815566
0.0873543
0.0968107
0.108984
0.122807
0.137262
0.151476
0.164776
0.17668
0.0473723
0.0415922
0.0400885
0.0429025
0.0498732
0.060542
0.0740085
0.089224
0.105167
0.120951
0.135885
0.149437
0.00486086
0.00105376
0.000866278
0.00481746
0.0129126
0.0247293
0.0394128
0.0559395
0.0732892
0.0905602
0.107044
0.122165
0.135481
-0.036877
-0.0387211
-0.0376085
-0.032553
-0.0233859
-0.010491
0.00532753
0.0230767
0.0417428
0.0604128
0.078357
0.0949696
0.109749
0.123999
-0.0776967
-0.0775789
-0.075193
-0.0690697
-0.0588867
-0.0449874
-0.0281208
-0.00924394
0.0106418
0.0306166
0.0499311
0.0679533
0.0841447
0.099757
0.115073
-0.117443
-0.115389
-0.111752
-0.104601
-0.0934612
-0.0786341
-0.0608104
-0.0409052
-0.0199017
0.00127864
0.0218703
0.0412187
0.0587574
0.0756616
0.0921411
-0.155972
-0.152025
-0.147161
-0.139024
-0.126988
-0.111312
-0.0926249
-0.0717942
-0.049779
-0.0274965
-0.00572384
0.0148657
0.0336829
0.0518121
0.0694077
-0.193164
-0.187361
-0.181303
-0.172224
-0.159354
-0.142911
-0.123455
-0.101804
-0.0788858
-0.0556081
-0.0327543
-0.0110118
0.00901095
0.0282988
0.046967
-0.2289
-0.221288
-0.214072
-0.204097
-0.190457
-0.173326
-0.153198
-0.130834
-0.107124
-0.0829609
-0.0591294
-0.0363265
-0.0151771
0.00520012
0.024899
-0.263075
-0.253708
-0.245373
-0.23455
-0.220203
-0.202464
-0.18176
-0.158789
-0.134402
-0.109466
-0.0847638
-0.0609975
-0.0388065
-0.0174153
0.00327087
-0.295595
-0.284534
-0.275123
-0.2635
-0.248509
-0.230243
-0.209057
-0.185587
-0.160635
-0.135041
-0.109579
-0.0849503
-0.0618085
-0.0394875
-0.0178566
-0.326376
-0.313689
-0.303249
-0.290877
-0.275305
-0.256588
-0.235014
-0.211149
-0.185747
-0.159611
-0.133502
-0.108117
-0.0841215
-0.0609742
-0.038412
-0.355349
-0.341112
-0.329693
-0.316621
-0.300529
-0.281438
-0.259565
-0.23541
-0.209669
-0.183109
-0.156468
-0.130436
-0.10569
-0.0818457
-0.0583087
-0.382456
-0.366752
-0.354408
-0.340686
-0.324135
-0.304741
-0.282657
-0.258313
-0.232344
-0.205475
-0.178418
-0.151853
-0.126447
-0.101866
-0.0777411
-0.407655
-0.390572
-0.377357
-0.363037
-0.346085
-0.326459
-0.304247
-0.27981
-0.253721
-0.226658
-0.199303
-0.17232
-0.146367
-0.121203
-0.096687
-0.430913
-0.412546
-0.398519
-0.383653
-0.366356
-0.346564
-0.324302
-0.299864
-0.27376
-0.246614
-0.219077
-0.191792
-0.165405
-0.139757
-0.114793
-0.452214
-0.432662
-0.417884
-0.402524
-0.384936
-0.365039
-0.342801
-0.318449
-0.292429
-0.26531
-0.237704
-0.21023
-0.183518
-0.157483
-0.132115
-0.471554
-0.45092
-0.435454
-0.41965
-0.401825
-0.38188
-0.359734
-0.335549
-0.309706
-0.282719
-0.255155
-0.227605
-0.200678
-0.174365
-0.14868
-0.488939
-0.467332
-0.451242
-0.435046
-0.417032
-0.397094
-0.375103
-0.351158
-0.325581
-0.298824
-0.27141
-0.243894
-0.216862
-0.190377
-0.164471
-0.504389
-0.481919
-0.465272
-0.448735
-0.430581
-0.410698
-0.388917
-0.365281
-0.34005
-0.313616
-0.286454
-0.25908
-0.232051
-0.205498
-0.17947
-0.517937
-0.494715
-0.477579
-0.460752
-0.442502
-0.422719
-0.401198
-0.377932
-0.353119
-0.327095
-0.300282
-0.273154
-0.246234
-0.219715
-0.193664
-0.529623
-0.505764
-0.488207
-0.47114
-0.452838
-0.433195
-0.411979
-0.389135
-0.364806
-0.339269
-0.312894
-0.286111
-0.259403
-0.233018
-0.207047
-0.5395
-0.515119
-0.497209
-0.479951
-0.461638
-0.442171
-0.421298
-0.398922
-0.375134
-0.350155
-0.324302
-0.297956
-0.271556
-0.245404
-0.219616
-0.547629
-0.522838
-0.504645
-0.487246
-0.46896
-0.449702
-0.429204
-0.407334
-0.384136
-0.359776
-0.334519
-0.308698
-0.2827
-0.256874
-0.231374
-0.554077
-0.528989
-0.510581
-0.49309
-0.474868
-0.455848
-0.435752
-0.414419
-0.391852
-0.368165
-0.343572
-0.318353
-0.292845
-0.267436
-0.242329
-0.558924
-0.53365
-0.515095
-0.497558
-0.479435
-0.460678
-0.441006
-0.420235
-0.398331
-0.375361
-0.351489
-0.326945
-0.302008
-0.277102
-0.252494
-0.562252
-0.536897
-0.518261
-0.500727
-0.482735
-0.464264
-0.445033
-0.424843
-0.403626
-0.38141
-0.358309
-0.334503
-0.310212
-0.285891
-0.261888
-0.564147
-0.538815
-0.520163
-0.502676
-0.484848
-0.466683
-0.447907
-0.42831
-0.407798
-0.386362
-0.364074
-0.341062
-0.317485
-0.293827
-0.270535
-0.564699
-0.539489
-0.520885
-0.503489
-0.485857
-0.468015
-0.449703
-0.430706
-0.41091
-0.390275
-0.368832
-0.346663
-0.323861
-0.300937
-0.278464
-0.564004
-0.539009
-0.520514
-0.503253
-0.485844
-0.468343
-0.450501
-0.432107
-0.413032
-0.39321
-0.372636
-0.351349
-0.329376
-0.307256
-0.285709
-0.562155
-0.537464
-0.519136
-0.502052
-0.484895
-0.467749
-0.450383
-0.43259
-0.414235
-0.39523
-0.375541
-0.355169
-0.334074
-0.31282
-0.292306
-0.55925
-0.534944
-0.516839
-0.499973
-0.483096
-0.466317
-0.449428
-0.432232
-0.414591
-0.396402
-0.377609
-0.358176
-0.338
-0.31767
-0.298299
-0.555383
-0.531539
-0.51371
-0.4971
-0.480529
-0.46413
-0.44772
-0.431113
-0.414175
-0.396795
-0.378899
-0.360423
-0.3412
-0.550648
-0.527336
-0.509833
-0.493517
-0.477277
-0.46127
-0.445337
-0.429311
-0.413061
-0.396478
-0.545138
-0.52242
-0.505289
-0.489304
-0.473419
-0.457816
-0.44236
-0.426902
-0.538941
-0.516874
-0.500159
-0.484538
-0.469033
-0.453845
-0.438863
-0.53214
-0.510777
-0.494518
-0.479294
-0.464192
-0.524817
-0.504202
-0.488436
-0.517046
-0.49722
-0.219697
-0.228742
-0.237037
-0.244596
-0.25144
-0.257593
-0.263087
-0.267962
-0.200699
-0.209662
-0.218012
-0.225766
-0.232943
-0.23957
-0.245677
-0.251303
-0.182857
-0.191694
-0.200043
-0.207919
-0.215338
-0.222317
-0.228881
-0.235055
-0.16603
-0.174604
-0.182784
-0.190582
-0.198008
-0.205078
-0.211809
-0.21822
-0.150251
-0.158521
-0.166476
-0.174123
-0.181473
-0.188538
-0.195332
-0.201871
-0.135512
-0.143453
-0.151142
-0.158587
-0.165797
-0.172781
-0.179551
-0.18612
-0.121761
-0.129352
-0.136742
-0.143939
-0.150949
-0.157781
-0.164444
-0.17095
-0.10894
-0.116169
-0.123238
-0.130153
-0.13692
-0.143546
-0.15004
-0.15641
-0.0969871
-0.103849
-0.110583
-0.117195
-0.123689
-0.130071
-0.136349
-0.142529
-0.0858395
-0.0923352
-0.0987285
-0.105023
-0.111224
-0.117336
-0.123364
-0.129315
-0.0754381
-0.081572
-0.0876232
-0.093595
-0.0994907
-0.105314
-0.11107
-0.116764
-0.0657288
-0.0715083
-0.0772206
-0.082868
-0.0884534
-0.0939796
-0.0994502
-0.104869
-0.0566632
-0.0620982
-0.0674779
-0.0728041
-0.0780789
-0.0833044
-0.0884832
-0.093618
-0.0481961
-0.0532988
-0.0583556
-0.0633675
-0.0683361
-0.0732627
-0.0781492
-0.0829975
-0.0402917
-0.0450754
-0.0498204
-0.0545274
-0.0591972
-0.0638308
-0.0684291
-0.0729935
-0.0329127
-0.0373929
-0.0418399
-0.0462541
-0.0506357
-0.0549854
-0.0593035
-0.0635908
-0.026033
-0.030225
-0.0343883
-0.0385228
-0.0426286
-0.0467057
-0.0507542
-0.0547744
-0.0196223
-0.0235431
-0.0274386
-0.0313086
-0.0351526
-0.0389706
-0.0427623
-0.0465276
-0.0136582
-0.0173247
-0.0209686
-0.0245896
-0.028187
-0.0317605
-0.0353095
-0.0388337
-0.00811801
-0.0115474
-0.0149565
-0.0183447
-0.0217112
-0.0250554
-0.0283768
-0.0316747
-0.00298266
-0.00619196
-0.00938281
-0.0125544
-0.0157058
-0.0188365
-0.0219456
-0.0250324
0.00176626
-0.00123974
-0.00422875
-0.00719986
-0.0101522
-0.0130849
-0.0159972
-0.0188883
0.00614431
0.00332541
0.000522283
-0.00226412
-0.00503287
-0.00778305
-0.0105138
-0.0132243
0.010167
0.00751934
0.00488648
0.00226937
-0.000331028
-0.00291377
-0.00547797
-0.00802274
0.0138467
0.0113552
0.00887764
0.00641497
0.0039682
0.00153829
-0.000873847
-0.00326732
0.0171953
0.0148452
0.0125084
0.0101859
0.00787848
0.00558726
0.00331311
0.00105693
0.0202214
0.0179988
0.0157889
0.0135926
0.0114109
0.00924476
0.00709503
0.00496264
0.022933
0.0208244
0.0187278
0.0166444
0.0145751
0.0125207
0.0104822
0.00846044
0.0253336
0.0233258
0.0213297
0.0193463
0.0173765
0.0154212
0.0134811
0.0115573
0.0274263
0.0255065
0.0235982
0.021702
0.019819
0.01795
0.0160959
0.0142573
0.0292065
0.0273625
0.0255296
0.0237085
0.0219002
0.0201054
0.0183249
0.0165595
0.0306724
0.0288913
0.0271209
0.0253621
0.0236156
0.0218822
0.0201626
0.0184575
0.0318054
0.0300756
0.0283563
0.0266483
0.0249522
0.0232687
0.0215985
0.0199422
0.0325983
0.0309045
0.0292209
0.0275482
0.0258871
0.0242382
0.0226022
0.0209796
0.0193711
0.0330088
0.0313431
0.0296873
0.0280421
0.0264079
0.0247852
0.0231747
0.0215767
0.0199918
0.0844206
0.0634176
0.0427765
0.0225413
0.00275445
-0.0165494
-0.0353445
-0.0536025
-0.0711965
-0.0881856
-0.104545
-0.120226
-0.135221
-0.149515
-0.163086
-0.175918
-0.188002
-0.199329
-0.209894
0.0823931
0.0629562
0.0439052
0.0252597
0.00704872
-0.0107032
-0.0279759
-0.0447687
-0.0610761
-0.0766098
-0.0918193
-0.106392
-0.120344
-0.133698
-0.14644
-0.158557
-0.170043
-0.180895
-0.191113
0.0767783
0.0592443
0.0420784
0.0252793
0.00886537
-0.00714605
-0.0227383
-0.0378973
-0.0525639
-0.0664908
-0.0806557
-0.094089
-0.106932
-0.119284
-0.131144
-0.142501
-0.15335
-0.163691
-0.173525
0.0725581
0.056663
0.0411099
0.0258887
0.0110098
-0.00351709
-0.0176843
-0.0314908
-0.0449933
-0.0582943
-0.0705961
-0.0827808
-0.0946263
-0.106057
-0.117077
-0.127688
-0.137889
-0.147677
-0.157057
0.0691974
0.0547932
0.040698
0.0268981
0.0133994
0.000208177
-0.0126707
-0.0252304
-0.0374724
-0.0494068
-0.0608936
-0.0721922
-0.0831404
-0.0937302
-0.103984
-0.113904
-0.123489
-0.132739
-0.141659
0.0664041
0.0533569
0.0405842
0.0280711
0.0158201
0.0038356
-0.00787931
-0.019321
-0.0304836
-0.0413316
-0.051764
-0.0623548
-0.0725103
-0.082321
-0.0918575
-0.101126
-0.110124
-0.118852
-0.127313
0.0641633
0.0523426
0.0407601
0.0294014
0.0182663
0.00735618
-0.00332921
-0.0137906
-0.0240327
-0.0340956
-0.0440505
-0.0533807
-0.062661
-0.0717678
-0.0806466
-0.0893015
-0.0977381
-0.105958
-0.113965
0.0623953
0.0516803
0.0411687
0.0308473
0.020715
0.0107725
0.00101935
-0.00854467
-0.0179182
-0.0271038
-0.0361105
-0.0448766
-0.0535138
-0.0619778
-0.0702509
-0.0783394
-0.0862495
-0.0939842
-0.101546
0.0610283
0.0513076
0.0417581
0.0323683
0.0231366
0.0140634
0.00514786
-0.00361082
-0.0122132
-0.0206597
-0.0289479
-0.0370632
-0.0450829
-0.0529386
-0.0606368
-0.0681883
-0.0755968
-0.0828644
-0.0899934
0.0600002
0.0511722
0.0424866
0.0339332
0.0255104
0.0172182
0.00905562
0.0010215
-0.00688531
-0.0146663
-0.0223238
-0.0298567
-0.0372593
-0.0445486
-0.0517188
-0.0587703
-0.0657058
-0.0725276
-0.079238
0.0674088
0.0592568
0.05123
0.0433198
0.0355177
0.0278223
0.0202331
0.0127495
0.0053702
-0.00190581
-0.00907971
-0.0161559
-0.0231403
-0.0299889
-0.0367601
-0.043441
-0.0500251
-0.0565144
-0.0629116
-0.0692188
0.0661624
0.0587525
0.0514444
0.0442306
0.0371041
0.0300634
0.0231086
0.0162388
0.00945327
0.00275117
-0.00386817
-0.0104062
-0.0168644
-0.0232326
-0.029532
-0.0357547
-0.0418989
-0.0479666
-0.0539597
-0.0598799
0.0651935
0.0584487
0.0517855
0.0451975
0.0386787
0.0322283
0.0258462
0.0195319
0.0132848
0.00710436
0.000989827
-0.00505965
-0.0110436
-0.0169572
-0.0228205
-0.0286149
-0.0343443
-0.0400129
-0.0456218
-0.0511716
0.064462
0.0583134
0.0522292
0.046204
0.0402328
0.0343152
0.0284513
0.022641
0.0168841
0.0111804
0.00552972
-6.79444e-05
-0.00560742
-0.0110775
-0.0165587
-0.0219646
-0.0273085
-0.0326027
-0.0378488
-0.0430464
0.0639334
0.0583193
0.0527551
0.0472359
0.041758
0.0363211
0.0309254
0.025571
0.0202576
0.0149849
0.00975281
0.00456073
-0.000597588
-0.00573137
-0.0107603
-0.015775
-0.02076
-0.0257038
-0.0306064
-0.0354688
0.0635789
0.0584442
0.0533473
0.048284
0.0432514
0.0382495
0.0332788
0.0283397
0.0234323
0.0185568
0.0137135
0.00890304
0.00412506
-0.000621474
-0.00532775
-0.0100074
-0.0146565
-0.0192715
-0.0238522
-0.0283992
0.0633735
0.058669
0.0539921
0.0493394
0.0447087
0.0401002
0.0355147
0.0309526
0.0264144
0.0219003
0.017411
0.0129468
0.00850805
0.00409521
-0.000289171
-0.0046487
-0.00898147
-0.0132865
-0.0175635
-0.0218124
0.0632956
0.058977
0.0546777
0.050395
0.0461271
0.0418745
0.0376383
0.0334189
0.029217
0.0250331
0.020868
0.0167222
0.0125962
0.0084909
0.00440796
0.000344822
-0.00369564
-0.00771291
-0.0117068
-0.0156767
0.0633261
0.0593536
0.0553938
0.0514442
0.0475038
0.0435732
0.0396534
0.0357453
0.0318496
0.0279669
0.0240982
0.0202442
0.0164056
0.0125836
0.00878014
0.00498966
0.00121959
-0.00253028
-0.00626029
-0.00996985
0.0634478
0.0597856
0.0561307
0.0524811
0.048836
0.0451964
0.0415634
0.0379378
0.0343205
0.0307123
0.0271143
0.0235272
0.019952
0.0163899
0.0128425
0.00930623
0.00578664
0.00228402
-0.00120147
-0.0046691
0.063645
0.0602608
0.0568795
0.0534995
0.0501206
0.0467437
0.04337
0.0400003
0.0366357
0.0332771
0.0299255
0.0265819
0.0232472
0.0199218
0.0166057
0.0133091
0.0100222
0.00674755
0.00348788
0.000244233
0.0639036
0.0607679
0.0576318
0.0544942
0.0513548
0.0482148
0.0450753
0.0419374
0.0388021
0.0356705
0.0325436
0.0294225
0.0263082
0.0232018
0.0201041
0.0170177
0.0139415
0.0108769
0.00782552
0.00478833
0.06421
0.0612962
0.0583795
0.0554589
0.0525346
0.0496077
0.0466793
0.0437506
0.0408226
0.0378965
0.0349733
0.0320541
0.02914
0.0262321
0.0233316
0.02044
0.0175576
0.0146857
0.0118254
0.00897799
0.0645517
0.0618355
0.0591145
0.0563879
0.0536563
0.0509205
0.0481819
0.0454416
0.0427006
0.0399601
0.0372212
0.0344849
0.0317526
0.0290252
0.0263039
0.02359
0.0208843
0.0181881
0.0155024
0.0128283
0.0649167
0.0623758
0.0598287
0.0572751
0.0547153
0.0521505
0.0495819
0.0470106
0.0444376
0.0418641
0.0392912
0.0367201
0.034152
0.0315878
0.0290288
0.0264763
0.023931
0.0213944
0.0188674
0.0163511
0.0652937
0.0629077
0.0605146
0.0581143
0.0557073
0.0532947
0.0508776
0.0484572
0.0460345
0.0436107
0.0411868
0.0387641
0.0363436
0.0339265
0.0315139
0.029107
0.0267067
0.0243142
0.0219308
0.0195575
0.0656716
0.0634216
0.061164
0.0588989
0.0566268
0.0543489
0.0520662
0.0497798
0.0474908
0.0452002
0.0429093
0.040619
0.0383306
0.0360451
0.0337636
0.0314874
0.0292172
0.0269544
0.0247002
0.0224555
0.0660404
0.0639089
0.0617696
0.0596228
0.057469
0.0553094
0.0531449
0.0509767
0.0488058
0.0466332
0.04446
0.0422874
0.0401163
0.0379479
0.0357835
0.0336246
0.031469
0.0293215
0.0271826
0.0250528
0.0663891
0.0643597
0.0623225
0.0602779
0.0582267
0.0561698
0.0541083
0.0520431
0.0499752
0.0479057
0.0458357
0.043766
0.0416979
0.0396323
0.0375701
0.035512
0.0334619
0.0314175
0.0293804
0.0273521
0.0667094
0.0647664
0.0628161
0.0608588
0.0588952
0.0569264
0.0549533
0.0529768
0.0509979
0.0490176
0.0470369
0.0450567
0.0430782
0.0411022
0.0391297
0.0371618
0.0351999
0.0332443
0.0312961
0.0293564
0.0669886
0.065117
0.0632385
0.0613537
0.0594633
0.0575682
0.0556693
0.0537675
0.0518637
0.0499588
0.0480538
0.0461497
0.0442474
0.0423478
0.0404518
0.0385605
0.0366749
0.0347957
0.032924
0.0310606
0.0672227
0.065408
0.0635871
0.0617607
0.0599294
0.0580941
0.0562557
0.0544149
0.0525726
0.0507297
0.0488872
0.0470458
0.0452064
0.04337
0.0415375
0.0397097
0.0378875
0.0360718
0.0342635
0.0324634
0.0673886
0.0656154
0.063837
0.0620541
0.0602673
0.0584774
0.0566852
0.0548914
0.053097
0.0513027
0.0495093
0.0477177
0.0459285
0.0441428
0.0423613
0.0405847
0.0388141
0.03705
0.0352933
0.0335449
0.067504
0.0657586
0.0640091
0.0622559
0.0604999
0.0587416
0.0569818
0.0552212
0.0534605
0.0517005
0.0499419
0.0481855
0.0464319
0.044682
0.0429366
0.0411963
0.0394619
0.0377342
0.0360139
0.0343017
0.0674956
0.0657577
0.0640175
0.0622755
0.0605324
0.0587888
0.0570454
0.0553028
0.0535615
0.0518224
0.050086
0.0483529
0.0466238
0.0448993
0.0431801
0.0414667
0.0397598
0.03806
0.0363678
0.0346839
0.0674956
0.0657577
0.0640175
0.0622755
0.0605324
0.0587888
0.0570454
0.0553028
0.0535615
0.0518224
0.050086
0.0483529
0.0466238
0.0448993
0.0431801
0.0414667
0.0397598
0.03806
0.0363678
0.0346839
0.067504
0.0657586
0.064009
0.0622559
0.0604999
0.0587416
0.0569818
0.0552212
0.0534605
0.0517005
0.0499419
0.0481855
0.0464319
0.044682
0.0429366
0.0411963
0.0394619
0.0377342
0.0360139
0.0343017
0.0673886
0.0656154
0.063837
0.0620541
0.0602673
0.0584774
0.0566852
0.0548914
0.053097
0.0513027
0.0495093
0.0477177
0.0459285
0.0441428
0.0423613
0.0405847
0.0388141
0.03705
0.0352933
0.0335448
0.0672227
0.065408
0.0635871
0.0617607
0.0599294
0.0580941
0.0562557
0.0544149
0.0525726
0.0507297
0.0488872
0.0470458
0.0452064
0.04337
0.0415375
0.0397097
0.0378875
0.0360718
0.0342635
0.0324634
0.0669886
0.065117
0.0632385
0.0613537
0.0594633
0.0575682
0.0556693
0.0537675
0.0518637
0.0499588
0.0480538
0.0461497
0.0442474
0.0423478
0.0404518
0.0385605
0.0366749
0.0347957
0.032924
0.0310606
0.0667094
0.0647664
0.0628161
0.0608588
0.0588952
0.0569264
0.0549533
0.0529768
0.0509979
0.0490176
0.0470369
0.0450567
0.0430782
0.0411022
0.0391297
0.0371617
0.0351999
0.0332443
0.0312961
0.0293564
0.0663891
0.0643597
0.0623225
0.0602779
0.0582267
0.0561698
0.0541083
0.0520431
0.0499752
0.0479057
0.0458357
0.043766
0.0416979
0.0396323
0.0375701
0.035512
0.0334619
0.0314175
0.0293804
0.0273521
0.0660404
0.0639089
0.0617696
0.0596228
0.057469
0.0553094
0.0531449
0.0509767
0.0488058
0.0466332
0.04446
0.0422874
0.0401163
0.0379479
0.0357835
0.0336246
0.031469
0.0293215
0.0271826
0.0250528
0.0656716
0.0634216
0.061164
0.0588989
0.0566268
0.0543489
0.0520662
0.0497798
0.0474908
0.0452002
0.0429093
0.040619
0.0383306
0.0360451
0.0337636
0.0314874
0.0292172
0.0269544
0.0247002
0.0224555
0.0652937
0.0629077
0.0605146
0.0581143
0.0557073
0.0532947
0.0508776
0.0484572
0.0460345
0.0436107
0.0411868
0.0387641
0.0363436
0.0339265
0.0315139
0.029107
0.0267066
0.0243142
0.0219308
0.0195575
0.0649167
0.0623758
0.0598287
0.0572751
0.0547153
0.0521505
0.0495819
0.0470105
0.0444376
0.0418641
0.0392912
0.0367201
0.0341519
0.0315878
0.0290288
0.0264763
0.023931
0.0213944
0.0188674
0.0163511
0.0645517
0.0618355
0.0591145
0.0563879
0.0536563
0.0509205
0.0481819
0.0454416
0.0427006
0.0399601
0.0372212
0.0344849
0.0317526
0.0290252
0.0263039
0.02359
0.0208843
0.0181881
0.0155024
0.0128283
0.06421
0.0612962
0.0583795
0.0554589
0.0525346
0.0496077
0.0466793
0.0437506
0.0408226
0.0378965
0.0349733
0.032054
0.02914
0.0262321
0.0233316
0.0204399
0.0175575
0.0146856
0.0118254
0.00897798
0.0639036
0.0607679
0.0576318
0.0544942
0.0513548
0.0482148
0.0450753
0.0419374
0.0388021
0.0356705
0.0325436
0.0294225
0.0263082
0.0232018
0.0201041
0.0170177
0.0139415
0.0108769
0.00782552
0.00478832
0.063645
0.0602608
0.0568794
0.0534995
0.0501206
0.0467437
0.0433699
0.0400003
0.0366357
0.0332771
0.0299255
0.0265819
0.0232472
0.0199218
0.0166057
0.0133091
0.0100222
0.00674754
0.00348788
0.000244225
0.0634477
0.0597856
0.0561307
0.0524811
0.048836
0.0451964
0.0415634
0.0379378
0.0343205
0.0307123
0.0271143
0.0235272
0.019952
0.0163899
0.0128424
0.00930622
0.00578663
0.00228401
-0.00120148
-0.00466911
0.0633261
0.0593536
0.0553938
0.0514442
0.0475038
0.0435732
0.0396534
0.0357453
0.0318496
0.0279669
0.0240982
0.0202442
0.0164055
0.0125836
0.00878013
0.00498965
0.00121959
-0.00253028
-0.00626029
-0.00996986
0.0632956
0.058977
0.0546777
0.050395
0.0461271
0.0418745
0.0376383
0.0334189
0.029217
0.0250331
0.020868
0.0167222
0.0125962
0.00849089
0.00440795
0.000344815
-0.00369564
-0.00771292
-0.0117068
-0.0156768
0.0633735
0.058669
0.0539921
0.0493394
0.0447087
0.0401002
0.0355147
0.0309526
0.0264144
0.0219003
0.017411
0.0129468
0.00850804
0.00409521
-0.000289179
-0.00464871
-0.00898148
-0.0132865
-0.0175635
-0.0218124
0.0635789
0.0584442
0.0533473
0.048284
0.0432514
0.0382495
0.0332788
0.0283397
0.0234323
0.0185568
0.0137135
0.00890304
0.00412505
-0.000621481
-0.00532776
-0.0100074
-0.0146565
-0.0192715
-0.0238522
-0.0283992
0.0639334
0.0583193
0.0527551
0.0472359
0.041758
0.0363211
0.0309254
0.025571
0.0202576
0.0149848
0.0097528
0.00456072
-0.000597595
-0.00573138
-0.0107603
-0.0157751
-0.02076
-0.0257038
-0.0306064
-0.0354688
0.064462
0.0583134
0.0522292
0.046204
0.0402328
0.0343152
0.0284513
0.022641
0.0168841
0.0111804
0.00552971
-6.79516e-05
-0.00560742
-0.0110775
-0.0165587
-0.0219646
-0.0273085
-0.0326027
-0.0378488
-0.0430464
0.0651935
0.0584487
0.0517855
0.0451975
0.0386787
0.0322283
0.0258462
0.0195319
0.0132848
0.00710436
0.00098982
-0.00505966
-0.0110436
-0.0169573
-0.0228205
-0.0286149
-0.0343443
-0.0400129
-0.0456218
-0.0511716
0.0661624
0.0587525
0.0514444
0.0442306
0.0371041
0.0300634
0.0231086
0.0162388
0.00945327
0.00275116
-0.00386818
-0.0104062
-0.0168644
-0.0232326
-0.0295321
-0.0357547
-0.0418989
-0.0479666
-0.0539597
-0.0598799
0.0674088
0.0592568
0.05123
0.0433198
0.0355177
0.0278222
0.0202331
0.0127495
0.00537019
-0.00190581
-0.00907972
-0.0161559
-0.0231403
-0.0299889
-0.0367601
-0.043441
-0.0500251
-0.0565144
-0.0629116
-0.0692188
0.0689801
0.0600002
0.0511722
0.0424866
0.0339332
0.0255104
0.0172182
0.00905562
0.00102149
-0.00688531
-0.0146663
-0.0223238
-0.0298567
-0.0372593
-0.0445486
-0.0517188
-0.0587703
-0.0657058
-0.0725277
-0.079238
0.0709314
0.0610283
0.0513075
0.0417581
0.0323683
0.0231366
0.0140634
0.00514786
-0.00361082
-0.0122132
-0.0206597
-0.0289479
-0.0370632
-0.0450829
-0.0529386
-0.0606368
-0.0681883
-0.0755968
-0.0828644
-0.0899934
0.0733266
0.0623953
0.0516803
0.0411687
0.0308473
0.020715
0.0107725
0.00101935
-0.00854468
-0.0179182
-0.0271038
-0.0361105
-0.0448766
-0.0535138
-0.0619778
-0.070251
-0.0783394
-0.0862495
-0.0939842
-0.101546
0.0762376
0.0641633
0.0523425
0.0407601
0.0294014
0.0182662
0.00735617
-0.00332922
-0.0137906
-0.0240327
-0.0340956
-0.0440505
-0.0533807
-0.0626611
-0.0717679
-0.0806466
-0.0893015
-0.0977381
-0.105958
-0.113965
0.0797439
0.0664041
0.0533569
0.0405842
0.0280711
0.0158201
0.0038356
-0.00787932
-0.019321
-0.0304836
-0.0413316
-0.051764
-0.0623548
-0.0725103
-0.082321
-0.0918575
-0.101126
-0.110124
-0.118852
-0.127313
0.0691974
0.0547932
0.040698
0.0268981
0.0133994
0.000208171
-0.0126707
-0.0252304
-0.0374725
-0.0494068
-0.0608936
-0.0721922
-0.0831404
-0.0937302
-0.103984
-0.113904
-0.123489
-0.132739
-0.141659
0.0725581
0.056663
0.0411099
0.0258887
0.0110098
-0.00351709
-0.0176843
-0.0314908