/*--------------------------------*- C++ -*----------------------------------*\
  =========                 |
  \\      /  F ield         | OpenFOAM: The Open Source CFD Toolbox
   \\    /   O peration     | Website:  https://openfoam.org
    \\  /    A nd           | Version:  7
     \\/     M anipulation  |
\*---------------------------------------------------------------------------*/
FoamFile
{
    version     2.0;
    format      ascii;
    class       volVectorField;
    location    "65";
    object      U;
}
// * * * * * * * * * * * * * * * * * * * * * * * * * * * * * * * * * * * * * //

dimensions      [0 1 -1 0 0 0 0];

internalField   nonuniform List<vector> 
34000
(
(-0.000221653 -0.000442888 -3.05103e-22)
(-0.00152904 -0.000871845 -1.65297e-21)
(-0.00425834 -0.000930155 2.03568e-22)
(-0.00791911 -0.00067866 -3.54301e-22)
(-0.0123274 -0.000178331 5.45567e-22)
(-0.0173132 0.000514732 -4.02635e-21)
(-0.0227164 0.00135097 6.9283e-22)
(-0.0284015 0.00228887 -2.74156e-21)
(-0.0342541 0.00329614 -5.91687e-21)
(-0.0401801 0.00435023 5.07313e-21)
(-0.0461054 0.00543829 1.51253e-21)
(-0.0519748 0.00655663 -1.8209e-21)
(-0.057751 0.00770965 2.24303e-21)
(-0.0634135 0.0089085 3.08069e-21)
(-0.0689572 0.0101696 -1.95141e-21)
(-0.0743904 0.0115133 -2.6414e-21)
(-0.0797329 0.0129623 -6.35416e-21)
(-0.085014 0.0145412 -4.93905e-22)
(-0.0902656 0.0162736 -1.08565e-21)
(-0.0955161 0.0181889 -2.12271e-21)
(-0.000224693 1.62263e-05 -1.48982e-21)
(-0.00153557 0.000338195 1.25188e-21)
(-0.00426024 0.000887202 -1.48439e-21)
(-0.00791092 0.00162202 -3.34353e-21)
(-0.0123036 0.00249522 2.74386e-21)
(-0.0172683 0.00346405 1.67558e-20)
(-0.0226446 0.00449209 -1.03543e-20)
(-0.0282969 0.00555045 1.77468e-21)
(-0.0341104 0.00661901 8.50944e-21)
(-0.0399909 0.00768689 -9.34991e-24)
(-0.0458639 0.00875237 5.07311e-21)
(-0.051674 0.00982225 -6.74212e-21)
(-0.0573835 0.0109108 7.08676e-21)
(-0.0629714 0.0120381 -6.12942e-21)
(-0.0684321 0.0132286 -2.38188e-21)
(-0.0737734 0.0145097 1.20603e-20)
(-0.0790142 0.0159098 -3.77427e-21)
(-0.084184 0.0174571 5.8976e-22)
(-0.0893121 0.0191768 -7.15329e-21)
(-0.0944198 0.0211005 -7.57212e-22)
(-0.000244972 0.000470408 -1.15295e-20)
(-0.00158541 0.0015354 1.50352e-21)
(-0.00432284 0.00268545 2.33404e-21)
(-0.00797394 0.00389846 1.02648e-20)
(-0.0123555 0.0051403 -1.19951e-20)
(-0.0172979 0.00638136 -1.87635e-20)
(-0.0226414 0.00759817 1.71414e-20)
(-0.0282505 0.00877434 -4.70067e-21)
(-0.0340106 0.00990176 -2.38571e-21)
(-0.0398277 0.0109811 -1.20312e-20)
(-0.0456271 0.0120216 3.28133e-21)
(-0.0513533 0.0130405 1.18955e-20)
(-0.0569685 0.0140618 -2.46615e-21)
(-0.0624515 0.0151144 9.80796e-21)
(-0.0677963 0.016231 -8.1061e-21)
(-0.0730103 0.0174457 -2.49773e-21)
(-0.0781121 0.0187925 1.9405e-20)
(-0.0831315 0.0203035 -1.21064e-21)
(-0.0880958 0.0220057 3.0528e-20)
(-0.0930162 0.0239326 -7.16814e-21)
(-0.000282163 0.000917962 1.88497e-20)
(-0.00167789 0.00271556 -8.47881e-21)
(-0.00444541 0.00445844 -5.94508e-21)
(-0.00810756 0.00614299 -4.54969e-21)
(-0.0124826 0.00774805 8.434e-21)
(-0.017402 0.0092569 -1.56956e-21)
(-0.0227072 0.0106588 -2.86097e-20)
(-0.0282632 0.0119495 -3.035e-21)
(-0.0339562 0.0131329 -6.33393e-21)
(-0.0396923 0.014221 -9.83688e-22)
(-0.0453973 0.0152339 -1.11445e-20)
(-0.0510156 0.016199 1.26267e-20)
(-0.0565095 0.0171499 -1.87729e-20)
(-0.0618578 0.0181246 -5.74036e-22)
(-0.0670542 0.0191636 5.15744e-21)
(-0.0721062 0.0203079 -3.99873e-20)
(-0.0770322 0.0215972 -3.22958e-20)
(-0.0818629 0.0230677 1.75403e-20)
(-0.0866237 0.0247479 -2.36404e-20)
(-0.0913136 0.026674 6.34802e-22)
(-0.000335856 0.00135724 -2.53631e-21)
(-0.0018121 0.00387446 3.3517e-20)
(-0.00462692 0.00619998 1.57901e-20)
(-0.00831085 0.00834793 -1.03497e-21)
(-0.0126842 0.0103097 4.28282e-21)
(-0.0175804 0.012081 6.76359e-22)
(-0.0228421 0.0136635 1.4638e-20)
(-0.0283356 0.0150651 1.73664e-20)
(-0.0339481 0.0163012 7.39424e-21)
(-0.0395862 0.0173949 2.6287e-20)
(-0.0451764 0.0183771 -3.03184e-20)
(-0.0506634 0.0192853 -6.43166e-21)
(-0.0560095 0.0201625 1.35508e-20)
(-0.0611937 0.0210556 -2.35893e-20)
(-0.0662099 0.0220131 1.07932e-20)
(-0.0710656 0.023083 2.51308e-20)
(-0.0757795 0.0243109 6.12298e-21)
(-0.0803839 0.0257368 8.61302e-21)
(-0.0849025 0.0273912 -1.38577e-20)
(-0.0893197 0.0293134 1.5514e-21)
(-0.00040555 0.00178676 -1.2292e-20)
(-0.00198694 0.0050083 7.89876e-21)
(-0.0048661 0.00790448 -1.29115e-20)
(-0.00858258 0.0105062 3.76782e-21)
(-0.0129594 0.012817 1.05744e-20)
(-0.0178322 0.0148445 4.8534e-21)
(-0.0230458 0.0166026 9.16424e-21)
(-0.028468 0.0181107 -6.46763e-21)
(-0.033987 0.0193957 -3.99998e-20)
(-0.0395108 0.0204916 -3.58586e-20)
(-0.0449664 0.0214396 -2.33348e-20)
(-0.0502989 0.0222874 8.87748e-21)
(-0.0554713 0.0230872 -5.0847e-21)
(-0.0604625 0.0238948 3.88095e-20)
(-0.065267 0.0247668 -1.40007e-20)
(-0.0698926 0.0257583 1.14254e-20)
(-0.0743586 0.0269207 1.67074e-20)
(-0.0786996 0.0282984 -9.43921e-21)
(-0.0829379 0.0299239 8.19284e-20)
(-0.0870412 0.0318404 -3.04132e-20)
(-0.000490676 0.00220515 1.49057e-20)
(-0.00220115 0.00611353 -1.89129e-20)
(-0.00516143 0.00956665 -2.9098e-20)
(-0.00892127 0.0126113 -7.7188e-21)
(-0.0133069 0.0152622 3.40504e-21)
(-0.0181567 0.0175388 5.27598e-21)
(-0.0233179 0.0194666 1.76967e-20)
(-0.0286602 0.0210763 3.92398e-21)
(-0.0340735 0.0224059 1.35305e-21)
(-0.039467 0.0235 6.43769e-20)
(-0.0447686 0.0244101 4.85043e-20)
(-0.0499242 0.0251935 -2.91006e-20)
(-0.0548972 0.025912 -4.30497e-21)
(-0.0596671 0.02663 -1.16493e-20)
(-0.0642287 0.0274121 1.15189e-20)
(-0.0685907 0.028321 -6.1006e-20)
(-0.0727734 0.0294142 -1.27371e-20)
(-0.0768142 0.0307403 -1.92191e-20)
(-0.0807347 0.0323347 -4.65403e-20)
(-0.0844838 0.0342448 2.51703e-20)
(-0.000590602 0.0026112 2.47848e-21)
(-0.0024533 0.00718694 -9.20832e-21)
(-0.00551118 0.0111817 2.62659e-20)
(-0.00932517 0.0146568 -1.62177e-20)
(-0.0137251 0.017638 -9.08988e-21)
(-0.0185525 0.0201557 1.45635e-20)
(-0.0236574 0.0222466 -2.47615e-20)
(-0.0289118 0.0239524 -3.40914e-21)
(-0.0342076 0.0253218 4.72355e-20)
(-0.0394553 0.0264097 -3.02944e-20)
(-0.044584 0.0272777 -1.25042e-20)
(-0.0495407 0.0279925 1.48268e-20)
(-0.0542891 0.0286252 -3.91381e-21)
(-0.0588096 0.0292489 -2.04692e-21)
(-0.0630976 0.0299367 1.67771e-20)
(-0.0671627 0.0307586 -4.45581e-20)
(-0.0710267 0.0317788 1.56811e-20)
(-0.0747308 0.0330507 -1.18555e-20)
(-0.0782965 0.0346123 -2.66586e-20)
(-0.0816518 0.036517 9.57328e-21)
(-0.000704647 0.00300384 -6.97523e-21)
(-0.00274185 0.0082257 5.06623e-20)
(-0.00591345 0.0127451 -1.12798e-20)
(-0.0097923 0.0166372 6.95648e-21)
(-0.0142122 0.0199377 5.05885e-20)
(-0.0190181 0.0226876 -3.44028e-20)
(-0.0240632 0.0249342 -1.69719e-20)
(-0.0292221 0.02673 -2.96498e-20)
(-0.0343889 0.0281338 -3.25773e-20)
(-0.0394757 0.0292107 -2.15449e-20)
(-0.0444132 0.0300318 -2.92176e-20)
(-0.0491492 0.0306734 5.33371e-20)
(-0.0536484 0.0312154 -5.95263e-21)
(-0.0578916 0.03174 -1.24706e-20)
(-0.0618754 0.0323285 -6.53696e-20)
(-0.0656105 0.0330589 3.68119e-20)
(-0.0691205 0.0340025 9.22345e-21)
(-0.0724513 0.0352177 2.30166e-20)
(-0.0756252 0.0367461 1.56062e-20)
(-0.0785477 0.0386478 -4.13877e-20)
(-0.000832096 0.00338218 -2.17086e-20)
(-0.00306512 0.00922731 2.95404e-20)
(-0.00636614 0.0142532 1.67399e-20)
(-0.0103205 0.0185474 7.65223e-21)
(-0.0147661 0.0221551 6.44181e-21)
(-0.0195515 0.0251273 -2.30558e-20)
(-0.0245336 0.0275216 5.01218e-20)
(-0.0295898 0.0294006 2.83947e-21)
(-0.0346165 0.0308329 4.67384e-20)
(-0.0395279 0.0318934 -2.73307e-20)
(-0.0442561 0.0326625 4.41947e-20)
(-0.0487501 0.0332257 -4.38515e-20)
(-0.0529755 0.0336718 -3.96314e-20)
(-0.0569138 0.0340919 3.39042e-20)
(-0.0605628 0.0345758 1.20513e-19)
(-0.0639345 0.03521 -6.66121e-20)
(-0.067055 0.0360733 5.49349e-20)
(-0.0699758 0.03723 1.26462e-20)
(-0.0727208 0.0387255 -4.76639e-20)
(-0.0751715 0.0406288 3.96089e-20)
(-0.00097221 0.00374549 3.94391e-20)
(-0.00342141 0.0101897 -2.26734e-20)
(-0.00686707 0.0157026 7.78046e-21)
(-0.0109072 0.0203829 2.9386e-20)
(-0.0153842 0.0242848 -2.72317e-20)
(-0.0201506 0.0274686 5.36697e-20)
(-0.0250666 0.0300017 -9.78462e-21)
(-0.0300131 0.0319563 1.24604e-21)
(-0.0348889 0.0334107 -6.45516e-20)
(-0.0396106 0.0344488 4.09879e-20)
(-0.0441118 0.0351604 9.46752e-21)
(-0.0483427 0.0356395 -1.24656e-20)
(-0.0522698 0.0359841 1.57507e-20)
(-0.0558758 0.0362938 -6.24591e-20)
(-0.0591591 0.0366675 -3.49518e-20)
(-0.062134 0.0372004 7.37063e-20)
(-0.064829 0.0379797 -4.12723e-20)
(-0.0673022 0.0390763 -5.90682e-20)
(-0.069581 0.0405405 1.09848e-19)
(-0.0715207 0.042452 -2.45305e-22)
(-0.00112424 0.00409317 3.30739e-20)
(-0.00380893 0.011111 -4.18031e-20)
(-0.00741389 0.0170903 -4.39487e-20)
(-0.01155 0.0221397 -2.10852e-20)
(-0.016064 0.0263217 -3.06899e-20)
(-0.0208125 0.0297055 -1.74375e-20)
(-0.0256596 0.0323677 -7.4072e-20)
(-0.0304896 0.0343899 9.1473e-21)
(-0.0352041 0.0358592 -3.1714e-20)
(-0.0397218 0.0368688 1.11492e-19)
(-0.0439784 0.0375167 -6.5031e-20)
(-0.0479252 0.0379058 4.01106e-20)
(-0.0515298 0.0381425 -1.23119e-20)
(-0.0547756 0.0383355 6.7874e-20)
(-0.0576624 0.0385927 5.57965e-21)
(-0.0602062 0.0390188 -5.84986e-20)
(-0.062439 0.0397104 -1.04687e-20)
(-0.0644262 0.0407457 2.6501e-21)
(-0.0662005 0.0421813 -4.65312e-21)
(-0.0675889 0.0441102 7.33067e-20)
(-0.00128746 0.00442482 -4.11555e-20)
(-0.00422588 0.0119901 -3.99775e-20)
(-0.00800418 0.0184139 1.67109e-20)
(-0.0122461 0.0238144 4.19831e-20)
(-0.0168025 0.0282615 -3.05198e-21)
(-0.0215343 0.0318329 -2.92025e-20)
(-0.0263097 0.0346138 6.52284e-20)
(-0.0310163 0.0366947 -7.36714e-21)
(-0.0355589 0.0381715 7.99325e-20)
(-0.0398587 0.0391455 -8.92496e-20)
(-0.0438529 0.0397232 2.36243e-20)
(-0.0474947 0.0400158 2.80446e-20)
(-0.0507522 0.0401381 -8.54214e-22)
(-0.0536099 0.0402074 -4.68939e-22)
(-0.0560686 0.0403415 -5.37874e-20)
(-0.0581464 0.0406548 7.37336e-21)
(-0.0598788 0.0412546 7.22894e-20)
(-0.0613403 0.0422278 9.30705e-20)
(-0.0625704 0.0436388 -1.10681e-19)
(-0.0633655 0.0455969 -7.05596e-20)
(-0.00146111 0.00474016 1.7269e-20)
(-0.00467044 0.0128257 2.66756e-20)
(-0.00863546 0.0196716 3.27114e-20)
(-0.0129924 0.0254042 -5.55187e-20)
(-0.0175964 0.0301005 5.86011e-20)
(-0.0223125 0.0338461 5.60683e-20)
(-0.0270131 0.0367347 -2.19915e-20)
(-0.0315895 0.0388649 9.66255e-20)
(-0.0359495 0.0403409 -9.82165e-20)
(-0.040017 0.0412721 4.36924e-20)
(-0.0437312 0.0417728 4.46127e-20)
(-0.0470466 0.0419619 -3.50226e-21)
(-0.0499322 0.0419626 5.52306e-22)
(-0.0523731 0.0419009 5.90519e-21)
(-0.0543713 0.0419044 -4.20242e-20)
(-0.0559469 0.0420985 4.16784e-20)
(-0.0571395 0.042602 -2.15556e-20)
(-0.0580334 0.0435126 -4.84154e-20)
(-0.0586776 0.0449039 6.25814e-20)
(-0.0588347 0.0469063 1.30096e-20)
(-0.00164452 0.00503907 -9.95457e-21)
(-0.0051408 0.0136173 1.25363e-20)
(-0.00930514 0.020862 -2.73553e-20)
(-0.0137858 0.0269068 -4.10391e-20)
(-0.0184421 0.0318355 -4.24654e-20)
(-0.0231431 0.0357412 -3.84473e-20)
(-0.0277655 0.0387256 6.2854e-20)
(-0.0322043 0.0408951 -3.19475e-20)
(-0.0363707 0.0423617 2.55836e-20)
(-0.0401913 0.0432424 2.81729e-21)
(-0.0436074 0.0436588 -6.99728e-21)
(-0.0465745 0.0437373 1.74771e-20)
(-0.0490626 0.0436088 -3.41666e-20)
(-0.0510573 0.0434083 1.79749e-20)
(-0.0525614 0.0432732 5.78681e-20)
(-0.0535972 0.0433408 -8.46158e-20)
(-0.0542081 0.043743 -5.41559e-20)
(-0.0544898 0.0445905 7.12156e-20)
(-0.0545038 0.0459686 -4.18737e-20)
(-0.0539742 0.0480335 -6.39568e-20)
(-0.00183698 0.00532154 3.68191e-20)
(-0.00563518 0.0143644 -3.79211e-20)
(-0.0100106 0.0219838 3.08044e-20)
(-0.014623 0.0283203 4.9718e-20)
(-0.0193356 0.0334639 -9.20757e-21)
(-0.0240216 0.0375149 -3.30178e-20)
(-0.0285617 0.0405825 -6.17865e-20)
(-0.0328552 0.0427808 -4.71435e-20)
(-0.0368164 0.044229 -9.51497e-20)
(-0.0403748 0.0450512 9.69384e-21)
(-0.0434736 0.0453757 -8.49497e-21)
(-0.0460698 0.0453361 -6.78976e-20)
(-0.048134 0.0450708 5.88139e-20)
(-0.0496517 0.0447231 7.22064e-20)
(-0.0506266 0.0444409 -3.62929e-21)
(-0.0510826 0.0443739 4.42809e-20)
(-0.0510674 0.0446693 -2.24119e-20)
(-0.0506891 0.0454529 3.52587e-21)
(-0.0500252 0.046825 6.28097e-20)
(-0.0487543 0.0489743 1.49508e-19)
(-0.00203788 0.0055877 -1.59499e-20)
(-0.00615182 0.015067 -1.13277e-20)
(-0.0107492 0.0230366 3.17757e-20)
(-0.0155005 0.0296433 -4.45536e-20)
(-0.0202726 0.0349835 -1.16447e-20)
(-0.0249426 0.0391643 6.93167e-20)
(-0.0293958 0.042302 -1.64409e-20)
(-0.0335351 0.0445181 -4.76411e-20)
(-0.0372786 0.0459386 7.74674e-20)
(-0.0405584 0.0466939 -2.0849e-20)
(-0.04332 0.0469191 1.52119e-20)
(-0.0455214 0.0467539 8.26935e-20)
(-0.0471336 0.0463436 -1.14975e-19)
(-0.0481421 0.0458402 -3.14737e-20)
(-0.0485504 0.0454017 -6.18122e-20)
(-0.0483842 0.0451914 1.25506e-19)
(-0.0476949 0.0453736 3.91723e-21)
(-0.0466044 0.0460924 6.89523e-20)
(-0.0452109 0.0474661 -2.52637e-20)
(-0.0431362 0.0497248 -1.41241e-19)
(-0.00224662 0.00583775 -3.71984e-20)
(-0.00668898 0.0157251 5.40956e-20)
(-0.0115181 0.0240198 7.22854e-22)
(-0.0164144 0.030875 -5.54607e-22)
(-0.0212482 0.0363928 5.6971e-20)
(-0.0259005 0.0406871 4.11218e-20)
(-0.0302608 0.0438814 -1.57368e-21)
(-0.034236 0.0461038 1.23477e-19)
(-0.0377479 0.0474869 4.73663e-20)
(-0.0407315 0.0481672 -8.71051e-20)
(-0.0431343 0.0482854 4.1026e-21)
(-0.0449152 0.0479871 -3.03999e-21)
(-0.0460455 0.0474241 1.21575e-19)
(-0.04651 0.0467561 -1.35975e-19)
(-0.046312 0.0461519 3.75432e-20)
(-0.0454776 0.0457889 1.26945e-21)
(-0.0440622 0.0458504 -9.56703e-20)
(-0.0422023 0.0465028 -9.91954e-20)
(-0.0400228 0.0478858 -1.21172e-20)
(-0.0370706 0.0502819 1.42866e-19)
(-0.00246262 0.00607199 1.21274e-20)
(-0.00724498 0.016339 -3.84959e-20)
(-0.0123145 0.0249336 3.74097e-20)
(-0.0173608 0.0320147 -5.60972e-20)
(-0.0222572 0.0376905 6.98624e-20)
(-0.0268885 0.0420816 -1.17146e-19)
(-0.0311485 0.0453183 -2.89826e-20)
(-0.0349482 0.0475353 -6.45392e-20)
(-0.0382129 0.0488713 -3.04453e-20)
(-0.0408807 0.0494683 5.43426e-20)
(-0.042901 0.0494723 1.10821e-19)
(-0.0442337 0.0490338 -1.24106e-19)
(-0.0448496 0.0483105 -4.63312e-20)
(-0.0447327 0.0474696 1.68113e-19)
(-0.0438848 0.04669 -6.08113e-20)
(-0.0423324 0.0461641 -8.74941e-20)
(-0.0401336 0.0460969 1.1074e-19)
(-0.0374407 0.0466805 2.33453e-20)
(-0.0344149 0.0480817 2.2049e-20)
(-0.0305009 0.0506548 -9.19347e-20)
(-0.00268539 0.00629075 4.77406e-21)
(-0.00781812 0.0169092 -2.01168e-20)
(-0.0131354 0.025778 6.57344e-20)
(-0.0183353 0.033062 -8.51992e-20)
(-0.0232937 0.0388757 -7.03832e-20)
(-0.0278992 0.0433463 4.45235e-20)
(-0.0320497 0.046611 1.2385e-19)
(-0.0356604 0.0488107 -7.8236e-20)
(-0.0386602 0.0500899 1.88996e-20)
(-0.0409903 0.0505957 -3.76209e-20)
(-0.0426017 0.0504786 -1.51597e-19)
(-0.0434553 0.0498936 9.17453e-20)
(-0.0435211 0.0490033 7.38666e-20)
(-0.0427815 0.0479813 -1.30813e-19)
(-0.0412362 0.0470169 3.06849e-20)
(-0.0389107 0.0463177 1.21721e-19)
(-0.035865 0.0461126 4.74697e-20)
(-0.0322671 0.0466242 1.67199e-20)
(-0.0283255 0.0480549 -9.78674e-20)
(-0.0233762 0.050882 -4.75238e-20)
(-0.00291444 0.00649442 -3.27797e-20)
(-0.00840672 0.0174362 -6.05735e-20)
(-0.0139778 0.0265533 -3.48916e-20)
(-0.0193331 0.0340169 4.62721e-20)
(-0.0243512 0.0399479 -2.71217e-21)
(-0.028924 0.0444804 1.04098e-19)
(-0.0329537 0.0477582 -9.75308e-21)
(-0.0363594 0.0499286 1.16101e-20)
(-0.039074 0.0511416 7.46894e-20)
(-0.0410413 0.0515488 9.44221e-20)
(-0.0422143 0.0513045 -4.42354e-21)
(-0.0425541 0.0505676 -2.08619e-20)
(-0.0420301 0.0495045 -1.21947e-19)
(-0.0406219 0.0482948 9.12635e-20)
(-0.0383263 0.0471367 -8.12484e-21)
(-0.0351665 0.0462539 -5.43906e-20)
(-0.0312029 0.0459006 -2.71122e-19)
(-0.026617 0.0463344 9.57059e-20)
(-0.0216573 0.0477996 5.16463e-21)
(-0.0156192 0.0509423 -5.83975e-20)
(-0.00314931 0.00668339 3.03753e-20)
(-0.0090091 0.0179207 7.92275e-20)
(-0.0148383 0.0272601 -6.04759e-20)
(-0.0203494 0.0348795 -2.93711e-20)
(-0.0254226 0.0409067 2.44934e-20)
(-0.0299535 0.0454831 -5.92257e-20)
(-0.0338483 0.0487591 -1.10091e-19)
(-0.0370303 0.0508884 6.5169e-20)
(-0.0394359 0.0520259 -7.41488e-21)
(-0.0410117 0.0523277 -1.49345e-19)
(-0.0417124 0.0519514 2.86067e-20)
(-0.0414995 0.0510585 1.61003e-20)
(-0.0403405 0.0498187 -2.78836e-20)
(-0.0382122 0.048416 7.35911e-20)
(-0.0351071 0.0470571 1.42846e-19)
(-0.0310445 0.0459807 -9.26378e-20)
(-0.0260842 0.0454683 7.52753e-20)
(-0.020423 0.0458161 1.8133e-20)
(-0.0143324 0.0473238 1.04315e-19)
(-0.00707597 0.0508073 4.61403e-20)
(-0.00338957 0.00685805 -3.33261e-20)
(-0.00962351 0.0183631 -3.73168e-21)
(-0.0157137 0.0278986 8.57819e-20)
(-0.0213784 0.0356498 8.53051e-20)
(-0.0264999 0.041752 -1.75378e-20)
(-0.030977 0.046354 -1.10522e-20)
(-0.0347198 0.0496133 1.10919e-19)
(-0.0376557 0.0516896 -8.60777e-20)
(-0.0397246 0.0527431 2.62694e-20)
(-0.0408758 0.0529337 1.08544e-19)
(-0.0410656 0.0524217 1.03824e-19)
(-0.040255 0.0513708 4.03694e-20)
(-0.0384099 0.0499525 1.76305e-19)
(-0.035503 0.0483543 -2.42175e-20)
(-0.0315213 0.0467896 -1.85608e-19)
(-0.0264789 0.0455115 9.10813e-20)
(-0.0204323 0.0448296 -4.82667e-20)
(-0.0135939 0.0450848 -1.12438e-19)
(-0.00626568 0.0466478 -7.94168e-20)
(0.0023706 0.0505058 -7.85621e-20)
(-0.0036348 0.00701876 2.14142e-20)
(-0.0102481 0.0187641 4.51437e-20)
(-0.0166001 0.0284693 -3.13002e-20)
(-0.0224142 0.0363281 -3.89679e-20)
(-0.0275744 0.0424837 -4.06921e-20)
(-0.0319825 0.0470928 -1.09178e-20)
(-0.0355526 0.0503204 -1.14647e-19)
(-0.038216 0.0523324 5.88353e-20)
(-0.039916 0.053294 -5.40122e-20)
(-0.0406042 0.0533687 -9.11916e-20)
(-0.0402382 0.0527193 3.23963e-21)
(-0.0387786 0.0515105 -2.30399e-19)
(-0.0361885 0.049915 -1.78199e-19)
(-0.032436 0.048122 5.61832e-20)
(-0.0275017 0.04635 2.82973e-20)
(-0.0213921 0.0448648 -6.05006e-20)
(-0.0141579 0.0440042 2.33572e-19)
(-0.00602533 0.044158 -3.64931e-20)
(0.00266256 0.0457787 9.89824e-20)
(0.0128496 0.0500757 8.76512e-20)
(-0.00388457 0.00716583 -2.93962e-20)
(-0.0108811 0.0191241 -9.79761e-20)
(-0.0174935 0.0289727 3.13316e-20)
(-0.0234501 0.0369145 1.78527e-21)
(-0.0286363 0.0431017 1.32953e-19)
(-0.0329567 0.0476995 -7.941e-20)
(-0.0363294 0.0508805 4.33746e-20)
(-0.0386892 0.0528173 6.20412e-20)
(-0.0399825 0.05368 -4.89765e-21)
(-0.0401634 0.0536356 3.80509e-20)
(-0.0391899 0.0528489 1.15752e-19)
(-0.0370216 0.0514854 2.41339e-19)
(-0.0336188 0.0497176 1.92914e-20)
(-0.028944 0.0477348 -1.06188e-19)
(-0.0229699 0.0457587 1.93235e-20)
(-0.015694 0.0440653 1.86217e-19)
(-0.00715802 0.0430196 -1.2578e-19)
(0.00240096 0.0430625 4.55718e-22)
(0.0125886 0.0447374 9.57778e-20)
(0.0245194 0.0495463 -5.83922e-20)
(-0.00413843 0.00729952 -2.83407e-20)
(-0.0115203 0.0194433 1.16307e-19)
(-0.0183896 0.0294088 -8.88145e-20)
(-0.0244789 0.037409 -1.81456e-20)
(-0.0296749 0.0436059 -3.06824e-20)
(-0.033885 0.0481739 -7.98856e-20)
(-0.0370307 0.0512939 7.94208e-20)
(-0.0390505 0.053145 -2.60514e-20)
(-0.0398935 0.0539028 -4.66525e-20)
(-0.0395153 0.0537377 7.63809e-20)
(-0.0378745 0.0528164 -8.79696e-20)
(-0.034929 0.0513046 -2.82102e-20)
(-0.0306353 0.0493736 -3.12201e-21)
(-0.0249497 0.0472116 7.45026e-20)
(-0.017836 0.0450407 -6.71273e-20)
(-0.00928111 0.0431444 -1.26097e-19)
(0.000685505 0.0419117 -3.81618e-20)
(0.0118192 0.0418356 -5.52209e-20)
(0.0236644 0.0435575 -1.67973e-19)
(0.0375604 0.0489532 -4.9586e-20)
(-0.00439589 0.00742 4.03753e-20)
(-0.0121636 0.0197221 -5.10256e-20)
(-0.0192836 0.0297778 -6.44747e-20)
(-0.0254926 0.0378115 -6.08397e-20)
(-0.0306784 0.0439961 2.02441e-20)
(-0.0347509 0.048516 1.11823e-20)
(-0.0376351 0.0515606 2.85115e-20)
(-0.0392725 0.0533165 -7.35979e-20)
(-0.0396144 0.0539646 5.70514e-20)
(-0.0386178 0.0536791 -1.69894e-19)
(-0.0362406 0.0526284 -8.49373e-20)
(-0.0324385 0.0509783 1.53824e-21)
(-0.0271638 0.0488984 7.48673e-20)
(-0.0203655 0.0465741 -4.87621e-20)
(-0.0119979 0.0442258 1.23763e-19)
(-0.00203571 0.04214 -3.01857e-20)
(0.00950651 0.0407258 3.92166e-20)
(0.0223808 0.0405266 1.46305e-19)
(0.0360586 0.0422847 1.94239e-20)
(0.0521716 0.0483434 9.15919e-20)
(-0.00465642 0.00752736 -8.54226e-20)
(-0.0128085 0.0199603 6.9287e-20)
(-0.0201703 0.0300795 7.75969e-20)
(-0.0264824 0.0381219 -4.53946e-20)
(-0.0316337 0.0442722 7.74742e-20)
(-0.0355366 0.0487256 7.44784e-20)
(-0.0381189 0.0516812 -1.34608e-20)
(-0.0393248 0.053333 -2.55016e-20)
(-0.0391074 0.053868 -6.90634e-20)
(-0.0374239 0.0534643 3.21503e-20)
(-0.0342309 0.0522924 3.11501e-21)
(-0.0294813 0.050518 -8.3984e-20)
(-0.0231217 0.0483089 6.22289e-20)
(-0.0150938 0.0458467 -4.86006e-20)
(-0.00534126 0.0433474 -8.77957e-20)
(0.00617391 0.0410964 -1.1388e-19)
(0.0194545 0.0395171 2.78642e-20)
(0.0342537 0.0391974 3.82965e-20)
(0.049956 0.0409781 -3.63382e-20)
(0.068568 0.0477776 1.50012e-19)
(-0.00491941 0.00762159 -6.79188e-20)
(-0.0134522 0.0201578 -6.3883e-20)
(-0.0210438 0.0303135 5.06159e-20)
(-0.0274387 0.0383394 2.93984e-20)
(-0.0325267 0.0444335 1.22429e-20)
(-0.0362223 0.0488027 -2.21627e-20)
(-0.0384562 0.051656 -1.53602e-20)
(-0.0391743 0.0531959 3.53832e-20)
(-0.0383307 0.0536156 -3.32047e-20)
(-0.0358821 0.053098 2.65786e-19)
(-0.0317828 0.0518161 1.93322e-20)
(-0.0259813 0.049936 -2.94075e-20)
(-0.0184182 0.0476234 -1.93559e-19)
(-0.00902676 0.0450558 3.70899e-20)
(0.00226002 0.0424427 -9.47358e-20)
(0.0154931 0.040064 6.23398e-20)
(0.0306938 0.0383496 5.67032e-20)
(0.0476213 0.0379236 -2.13915e-19)
(0.0655559 0.0397127 -6.58012e-20)
(0.0869765 0.0473325 -2.23001e-19)
(-0.00518415 0.00770257 3.27743e-20)
(-0.0140918 0.020314 6.63915e-20)
(-0.0218979 0.0304791 -1.19853e-19)
(-0.028351 0.0384636 -9.18621e-20)
(-0.0333416 0.0444797 4.67807e-20)
(-0.0367866 0.0487471 4.35052e-20)
(-0.0386185 0.0514856 -9.04795e-20)
(-0.0387847 0.0529067 -8.1656e-21)
(-0.0372391 0.0532107 4.74033e-21)
(-0.0339366 0.0525857 -7.99733e-20)
(-0.0288279 0.051208 1.16317e-19)
(-0.021856 0.0492449 5.4309e-22)
(-0.0129544 0.0468608 1.45484e-19)
(-0.00204729 0.0442288 9.8276e-20)
(0.010943 0.041551 1.66091e-20)
(0.0260797 0.0390974 2.03995e-19)
(0.0434024 0.0372959 -1.83863e-19)
(0.0626801 0.0367944 8.49441e-20)
(0.0830685 0.0385803 6.60679e-20)
(0.107629 0.0471034 5.51522e-20)
(-0.00544985 0.00777007 1.59437e-19)
(-0.0147238 0.0204283 -1.12858e-19)
(-0.0227254 0.0305755 2.70869e-20)
(-0.0292075 0.0384935 8.93179e-20)
(-0.0340616 0.04441 -9.61324e-20)
(-0.0372062 0.0485585 4.67295e-21)
(-0.0385754 0.0511705 7.32587e-20)
(-0.0381169 0.0524671 1.33992e-19)
(-0.0357836 0.0526566 1.80921e-19)
(-0.031527 0.051933 -1.72755e-19)
(-0.0252927 0.0504769 -1.02184e-19)
(-0.0170168 0.0484579 4.83662e-20)
(-0.00662433 0.0460403 -1.3831e-19)
(0.00596996 0.0433939 9.52925e-21)
(0.0208542 0.0407128 5.35099e-20)
(0.0381018 0.0382538 4.08945e-20)
(0.0577689 0.0364347 1.2368e-19)
(0.0796362 0.0359111 2.54714e-20)
(0.102712 0.0376908 -9.15059e-20)
(0.130754 0.0472074 9.79512e-20)
(-0.00571557 0.00782378 -1.51538e-19)
(-0.0153445 0.0204999 1.12675e-19)
(-0.0235185 0.0306015 2.71913e-20)
(-0.0299957 0.0384279 -8.90263e-20)
(-0.0346681 0.0442237 3.76601e-20)
(-0.0374557 0.0482368 -1.8331e-20)
(-0.0382936 0.0507115 -1.34733e-20)
(-0.0371288 0.0518793 -1.13497e-19)
(-0.0339116 0.0519571 -1.78063e-19)
(-0.0285887 0.0511459 1.66058e-19)
(-0.0210989 0.0496319 -5.95819e-20)
(-0.0113696 0.0475885 1.79984e-21)
(0.000683991 0.0451815 3.34935e-20)
(0.0151571 0.0425789 7.04203e-20)
(0.0321472 0.0399682 -8.54949e-21)
(0.0517355 0.0375913 -1.9702e-20)
(0.0739895 0.0358479 -9.94513e-20)
(0.0987007 0.0353841 -6.59565e-20)
(0.124705 0.0371712 -6.16782e-20)
(0.156563 0.0477854 9.55548e-20)
(-0.00598023 0.00786326 1.22451e-19)
(-0.0159495 0.0205276 -3.19483e-20)
(-0.0242688 0.0305559 1.08986e-19)
(-0.0307017 0.0382657 2.63844e-20)
(-0.0351411 0.0439198 -5.8344e-20)
(-0.0375079 0.047782 9.30982e-21)
(-0.0377375 0.0501096 -1.23518e-19)
(-0.0357752 0.0511457 5.58495e-20)
(-0.031567 0.0511166 3.02726e-20)
(-0.0250533 0.0502315 -1.1207e-20)
(-0.0161638 0.0486831 -1.2752e-20)
(-0.00481555 0.0466505 1.48656e-20)
(0.00908743 0.0443034 -6.68758e-20)
(0.0256508 0.0418108 -1.54525e-19)
(0.0449803 0.0393557 7.80217e-20)
(0.0671604 0.0371657 -3.81367e-20)
(0.0922631 0.0356173 -8.84307e-21)
(0.120083 0.0353294 1.59748e-19)
(0.149267 0.0371648 1.64882e-19)
(0.185236 0.0490057 -2.46261e-19)
(-0.0062426 0.00788798 -3.09347e-20)
(-0.0165341 0.0205101 -3.48015e-20)
(-0.0249668 0.0304369 -6.83766e-20)
(-0.0313104 0.0380054 5.05312e-20)
(-0.0354588 0.0434977 9.0912e-20)
(-0.0373334 0.0471942 -1.17671e-19)
(-0.0368691 0.0493665 1.87399e-19)
(-0.0340081 0.0502696 -3.6573e-20)
(-0.0286906 0.0501405 5.58644e-21)
(-0.0208486 0.0491973 -1.25763e-19)
(-0.0104009 0.0476412 -9.59812e-21)
(0.00274778 0.0456586 -1.02105e-19)
(0.018706 0.0434256 1.36301e-19)
(0.0375902 0.0411155 8.90008e-20)
(0.0595125 0.0389109 -1.72714e-19)
(0.0845557 0.0370281 -1.45697e-19)
(0.112786 0.0358197 3.33141e-20)
(0.143986 0.0358616 1.91002e-19)
(0.176608 0.0378286 8.69891e-20)
(0.216898 0.0510653 4.85358e-20)
(-0.00650126 0.00789733 1.02615e-20)
(-0.017093 0.020446 3.36376e-20)
(-0.0256021 0.0302431 4.09552e-20)
(-0.0318055 0.0376458 -3.37466e-20)
(-0.0355978 0.0429568 8.50728e-20)
(-0.0369008 0.046474 1.1364e-19)
(-0.0356477 0.0484842 1.98131e-21)
(-0.0317765 0.0492551 -1.45785e-19)
(-0.0252199 0.0490351 -1.15889e-19)
(-0.0158992 0.0480525 1.20612e-19)
(-0.00372069 0.0465183 -1.60955e-19)
(0.0114254 0.0446282 -1.79584e-19)
(0.0296612 0.0425676 -1.79041e-20)
(0.051114 0.0405176 -9.60414e-21)
(0.0759003 0.0386659 6.07006e-20)
(0.104095 0.037223 3.95086e-20)
(0.135747 0.0365226 5.06334e-20)
(0.170596 0.0370854 -2.36123e-19)
(0.206933 0.0393283 -6.34131e-20)
(0.251601 0.0541833 1.63558e-19)
(-0.00675458 0.00789061 -5.85981e-20)
(-0.0176204 0.0203337 5.81145e-20)
(-0.0261634 0.0299726 -4.24467e-20)
(-0.0321692 0.0371854 -2.12652e-20)
(-0.035533 0.0422965 -5.74436e-20)
(-0.0361764 0.0456225 -4.34783e-20)
(-0.0340303 0.0474656 -7.74413e-20)
(-0.0290267 0.0481074 1.27569e-19)
(-0.0210892 0.0478083 5.0185e-20)
(-0.0101269 0.046808 -1.23796e-19)
(0.0039689 0.0453285 1.91984e-19)
(0.0213236 0.0435768 9.77248e-20)
(0.042074 0.0417499 -7.36087e-20)
(0.0663576 0.0400413 -1.01939e-19)
(0.0942925 0.0386487 -1.27645e-20)
(0.125939 0.0377858 1.03362e-19)
(0.161318 0.0377794 -6.75307e-20)
(0.200078 0.0390851 2.59008e-20)
(0.240443 0.0418296 5.68019e-20)
(0.289303 0.0585831 1.34016e-19)
(-0.00700072 0.00786704 -5.74973e-21)
(-0.0181096 0.0201713 -1.43838e-19)
(-0.0266384 0.0296236 3.53509e-20)
(-0.0323822 0.0366231 7.75667e-20)
(-0.0352372 0.0415171 -1.43703e-20)
(-0.0351245 0.0446414 -9.37776e-20)
(-0.0319712 0.0463148 1.0311e-19)
(-0.0257023 0.0468332 1.17301e-19)
(-0.0162306 0.0464699 4.46596e-20)
(-0.00345099 0.0454769 2.20409e-19)
(0.0127613 0.0440883 -1.01732e-19)
(0.0325485 0.0425241 4.82035e-20)
(0.0560623 0.0409952 -4.99279e-20)
(0.0834493 0.0397104 1.18251e-19)
(0.114826 0.0388839 -1.04251e-20)
(0.150232 0.0387423 -2.64633e-20)
(0.189646 0.0396259 -4.20481e-20)
(0.23256 0.0419136 6.51469e-20)
(0.277324 0.0455098 -1.61691e-19)
(0.329813 0.064519 -2.08253e-19)
(-0.00723761 0.00782581 -3.44818e-20)
(-0.0185533 0.0199573 -1.33851e-20)
(-0.0270134 0.0291943 -1.16798e-19)
(-0.0324238 0.0359579 7.14179e-20)
(-0.0346817 0.0406188 -7.28794e-20)
(-0.0337069 0.0435333 -7.37647e-20)
(-0.0294223 0.045037 -6.51598e-21)
(-0.0217443 0.0454409 -1.18563e-19)
(-0.0105733 0.0450319 -1.87552e-19)
(0.00421102 0.0440751 5.12073e-20)
(0.0227507 0.0428176 5.6706e-20)
(0.0452049 0.0414933 6.78299e-20)
(0.071739 0.0403287 1.71575e-19)
(0.102507 0.0395502 -1.67898e-20)
(0.13762 0.0393928 -3.62676e-20)
(0.17709 0.040107 -4.66549e-21)
(0.220848 0.0420733 8.97657e-20)
(0.26814 0.0455823 1.56791e-19)
(0.317718 0.0506336 -4.32009e-20)
(0.372582 0.0724223 1.4699e-19)
(-0.00746291 0.00776603 1.09809e-19)
(-0.0189437 0.0196896 -1.84129e-20)
(-0.0272739 0.0286832 1.03986e-19)
(-0.0322717 0.0351891 -1.06296e-19)
(-0.0338355 0.039603 1.56531e-19)
(-0.0318835 0.0423019 1.30306e-19)
(-0.0263331 0.0436391 -1.0679e-19)
(-0.0170911 0.0439412 -1.97319e-19)
(-0.00404469 0.0435092 3.25112e-19)
(0.0129429 0.0426219 7.98865e-20)
(0.0340308 0.04154 -6.14672e-20)
(0.0593939 0.040512 -6.03835e-20)
(0.089209 0.0397799 -2.96911e-20)
(0.123633 0.0395884 -4.6372e-20)
(0.162768 0.0401948 -1.51622e-19)
(0.206598 0.0418806 -4.05149e-20)
(0.25501 0.0450908 3.47149e-21)
(0.306947 0.0500343 -1.07273e-19)
(0.361877 0.0575767 5.24503e-20)
(0.416688 0.0826405 -1.08177e-19)
(-0.007674 0.00768679 -1.76251e-19)
(-0.019272 0.0193666 1.18268e-19)
(-0.0274038 0.0280888 -1.76606e-19)
(-0.031902 0.0343167 -9.62591e-20)
(-0.0326659 0.0384716 3.5937e-20)
(-0.0296116 0.0409521 -1.41692e-19)
(-0.0226507 0.0421297 2.2088e-19)
(-0.0116793 0.0423469 3.23717e-21)
(0.00342958 0.0419195 -1.20779e-19)
(0.0228288 0.0411402 -1.05208e-19)
(0.0466935 0.0402838 -1.86628e-19)
(0.0752116 0.0396127 -2.49322e-21)
(0.108566 0.0393837 6.84147e-21)
(0.146911 0.0398572 -4.16188e-20)
(0.190331 0.0413096 1.83524e-19)
(0.238781 0.0440486 1.11864e-19)
(0.292142 0.048588 2.74994e-20)
(0.349146 0.055083 -1.18161e-19)
(0.410592 0.066335 -7.06997e-21)
(0.462964 0.0930721 -1.8561e-19)
(-0.00786803 0.00758721 6.26171e-20)
(-0.0195285 0.0189866 -1.19934e-19)
(-0.0273862 0.0274099 1.53432e-19)
(-0.0312891 0.033341 2.15083e-19)
(-0.031138 0.0372276 -6.99046e-20)
(-0.0268468 0.0394905 8.53541e-21)
(-0.0183202 0.0405195 -1.8737e-19)
(-0.00544338 0.0406737 -4.70049e-20)
(0.0119249 0.040284 -1.43066e-19)
(0.0339526 0.0396574 1.85256e-19)
(0.0608281 0.0390821 1.70017e-19)
(0.0927471 0.0388338 -3.02153e-20)
(0.129891 0.0391815 -2.22149e-20)
(0.172397 0.0403962 -1.7736e-21)
(0.220325 0.0427636 3.33904e-20)
(0.273588 0.0465969 -5.89353e-20)
(0.332079 0.0524448 -6.74403e-20)
(0.394512 0.0603692 1.41589e-19)
(0.464106 0.0754708 -4.58565e-20)
(0.518307 0.096812 -4.1457e-21)
(-0.00804177 0.00746636 1.66729e-20)
(-0.019703 0.018548 2.36106e-20)
(-0.0272024 0.0266457 -8.08364e-20)
(-0.0304057 0.0322632 -2.23255e-19)
(-0.0292153 0.0358752 3.57506e-20)
(-0.0235424 0.0379249 1.08455e-19)
(-0.0132848 0.0388213 4.90375e-20)
(0.00168355 0.0389401 2.09617e-19)
(0.0215171 0.0386276 -1.31304e-19)
(0.0463967 0.0382049 -1.68796e-19)
(0.0765192 0.0379734 -3.06253e-20)