/*--------------------------------*- C++ -*----------------------------------*\
  =========                 |
  \\      /  F ield         | OpenFOAM: The Open Source CFD Toolbox
   \\    /   O peration     | Website:  https://openfoam.org
    \\  /    A nd           | Version:  7
     \\/     M anipulation  |
\*---------------------------------------------------------------------------*/
FoamFile
{
    version     2.0;
    format      ascii;
    class       volScalarField;
    location    "95";
    object      p;
}
// * * * * * * * * * * * * * * * * * * * * * * * * * * * * * * * * * * * * * //

dimensions      [0 2 -2 0 0 0 0];

internalField   nonuniform List<scalar> 
8500
(
-0.452757
-0.43102
-0.406502
-0.380357
-0.354083
-0.328978
-0.306249
-0.28692
-0.271877
-0.261876
-0.257427
-0.258647
-0.265051
-0.275395
-0.287719
-0.299581
-0.308385
-0.31172
-0.307652
-0.295124
-0.274445
-0.247485
-0.217277
-0.187123
-0.159715
-0.136756
-0.118939
-0.106342
-0.0986332
-0.095537
-0.0966485
-0.102221
-0.112393
-0.128068
-0.147017
-0.166975
-0.179972
-0.18458
-0.173777
-0.15585
-0.127076
-0.101173
-0.0711059
-0.0497284
-0.024635
-0.0121166
-0.439488
-0.418921
-0.39581
-0.371271
-0.346675
-0.323278
-0.30225
-0.284622
-0.271264
-0.262946
-0.260148
-0.262925
-0.270698
-0.282135
-0.29522
-0.307505
-0.316425
-0.31961
-0.315154
-0.302013
-0.280526
-0.25263
-0.221445
-0.190352
-0.162086
-0.138359
-0.119854
-0.106627
-0.0983252
-0.0946496
-0.0951759
-0.100122
-0.1096
-0.124515
-0.142746
-0.162146
-0.174921
-0.179682
-0.169416
-0.15225
-0.124346
-0.0992026
-0.0698381
-0.0489292
-0.0243128
-0.0119969
-0.425745
-0.406347
-0.384643
-0.361699
-0.338783
-0.317104
-0.297798
-0.2819
-0.270259
-0.263651
-0.262518
-0.266842
-0.275953
-0.288437
-0.302236
-0.314906
-0.323926
-0.326968
-0.322151
-0.30844
-0.286197
-0.257421
-0.225315
-0.193334
-0.164252
-0.139792
-0.120625
-0.106789
-0.0979084
-0.0936646
-0.0936138
-0.0979399
-0.106728
-0.120884
-0.138396
-0.157233
-0.169783
-0.174692
-0.164966
-0.148561
-0.121537
-0.0971594
-0.0685149
-0.0480883
-0.0239661
-0.0118682
-0.41158
-0.393344
-0.373038
-0.351675
-0.330435
-0.31048
-0.292912
-0.278771
-0.268873
-0.263998
-0.264533
-0.270387
-0.280797
-0.294279
-0.308744
-0.321765
-0.330871
-0.33378
-0.328631
-0.314396
-0.291451
-0.261853
-0.228884
-0.196067
-0.166215
-0.141057
-0.121255
-0.106831
-0.0973887
-0.0925886
-0.0919696
-0.0956828
-0.103786
-0.117186
-0.133978
-0.152249
-0.164569
-0.169622
-0.160435
-0.14479
-0.118651
-0.0950465
-0.0671377
-0.0472063
-0.0235949
-0.0117305
-0.397055
-0.379963
-0.361037
-0.341236
-0.321665
-0.303435
-0.287618
-0.275259
-0.267122
-0.263992
-0.266191
-0.273549
-0.285216
-0.299644
-0.314726
-0.328066
-0.337245
-0.340033
-0.334587
-0.319874
-0.296284
-0.265923
-0.23215
-0.198553
-0.167977
-0.142159
-0.121751
-0.106761
-0.096772
-0.0914281
-0.0902505
-0.0933589
-0.100784
-0.113431
-0.129502
-0.147203
-0.159289
-0.16448
-0.15583
-0.140942
-0.115695
-0.0928667
-0.0657078
-0.0462837
-0.023199
-0.0115834
-0.382237
-0.366264
-0.348694
-0.330431
-0.312517
-0.296009
-0.28195
-0.271393
-0.265026
-0.263645
-0.267494
-0.276322
-0.289196
-0.304517
-0.32017
-0.333797
-0.343042
-0.345723
-0.340013
-0.324871
-0.300691
-0.26963
-0.235115
-0.200793
-0.169542
-0.143101
-0.122117
-0.106582
-0.0960646
-0.09019
-0.0884638
-0.0909763
-0.0977313
-0.109629
-0.12498
-0.142108
-0.153956
-0.159278
-0.15116
-0.137024
-0.112672
-0.0906228
-0.0642269
-0.0453212
-0.0227784
-0.0114269
-0.367198
-0.352312
-0.336066
-0.319315
-0.303041
-0.288247
-0.275946
-0.267204
-0.262609
-0.262971
-0.268447
-0.278703
-0.292732
-0.30889
-0.325068
-0.338954
-0.348259
-0.350849
-0.34491
-0.329385
-0.304674
-0.272975
-0.23778
-0.202791
-0.170913
-0.143889
-0.122359
-0.106302
-0.0952728
-0.088881
-0.0866171
-0.088543
-0.094636
-0.10579
-0.120423
-0.136974
-0.148578
-0.154023
-0.146433
-0.133043
-0.109587
-0.0883177
-0.0626967
-0.0443193
-0.0223332
-0.0112608
-0.352018
-0.338181
-0.323221
-0.307949
-0.293295
-0.280201
-0.269702
-0.262683
-0.259898
-0.261986
-0.269055
-0.28069
-0.295817
-0.312758
-0.329416
-0.343535
-0.352896
-0.355412
-0.349278
-0.33342
-0.308234
-0.275959
-0.240148
-0.204551
-0.172095
-0.144528
-0.122481
-0.105926
-0.0944029
-0.0875079
-0.0847175
-0.086067
-0.091507
-0.101924
-0.11584
-0.131813
-0.143168
-0.148727
-0.141658
-0.129004
-0.106444
-0.0859546
-0.0611188
-0.0432789
-0.0218633
-0.011085
-0.336783
-0.323948
-0.310231
-0.296402
-0.283342
-0.271922
-0.263211
-0.257922
-0.256922
-0.260707
-0.269327
-0.282288
-0.298452
-0.316119
-0.333216
-0.347545
-0.356959
-0.35942
-0.353125
-0.336977
-0.311373
-0.278586
-0.242222
-0.206076
-0.173093
-0.145024
-0.122491
-0.105461
-0.0934615
-0.0860775
-0.0827723
-0.083556
-0.0883532
-0.0980411
-0.111244
-0.126635
-0.137736
-0.143399
-0.136842
-0.124916
-0.103249
-0.0835364
-0.059495
-0.0422007
-0.0213687
-0.0108992
-0.321579
-0.309697
-0.297173
-0.284744
-0.273251
-0.263468
-0.256524
-0.252962
-0.25371
-0.259153
-0.269273
-0.283499
-0.300639
-0.318979
-0.336474
-0.350991
-0.360458
-0.362881
-0.356456
-0.340066
-0.314097
-0.28086
-0.244008
-0.207373
-0.173914
-0.145381
-0.122395
-0.104912
-0.092455
-0.0845966
-0.0807886
-0.0810177
-0.0851828
-0.0941495
-0.106643
-0.12145
-0.132291
-0.138047
-0.131994
-0.120782
-0.100005
-0.0810665
-0.0578272
-0.0410856
-0.0208497
-0.0107034
-0.295513
-0.284129
-0.273051
-0.263091
-0.254909
-0.249695
-0.247836
-0.25029
-0.257343
-0.268905
-0.28433
-0.302383
-0.321341
-0.339197
-0.353884
-0.363405
-0.365806
-0.359284
-0.342692
-0.316414
-0.282788
-0.245513
-0.208448
-0.174563
-0.145608
-0.122198
-0.104286
-0.0913898
-0.0830718
-0.0787735
-0.0784595
-0.0820038
-0.0902586
-0.102047
-0.11627
-0.126844
-0.132682
-0.127121
-0.116612
-0.0967176
-0.0785481
-0.0561172
-0.0399345
-0.0203063
-0.0104973
-0.281482
-0.271178
-0.261395
-0.252934
-0.246384
-0.242705
-0.242581
-0.246692
-0.255297
-0.268234
-0.28479
-0.303692
-0.323217
-0.341397
-0.356238
-0.365816
-0.368212
-0.36162
-0.344867
-0.318331
-0.284377
-0.246742
-0.209306
-0.175046
-0.145709
-0.121907
-0.10359
-0.0902723
-0.0815097
-0.0767337
-0.0758887
-0.0788242
-0.086377
-0.0974652
-0.111103
-0.121404
-0.127312
-0.122231
-0.112409
-0.0933912
-0.0759845
-0.054367
-0.0387483
-0.0197388
-0.0102808
-0.26769
-0.258402
-0.249848
-0.242844
-0.237855
-0.235703
-0.237237
-0.242942
-0.253033
-0.267273
-0.284889
-0.304576
-0.324616
-0.343088
-0.358069
-0.367709
-0.370113
-0.363478
-0.346602
-0.319857
-0.285636
-0.247703
-0.209957
-0.175371
-0.145692
-0.121528
-0.10283
-0.0891089
-0.0799166
-0.0746759
-0.073312
-0.0756513
-0.0825131
-0.0929073
-0.105958
-0.115981
-0.121946
-0.117332
-0.108182
-0.0900306
-0.0733791
-0.0525787
-0.0375283
-0.0191473
-0.0100538
-0.254219
-0.245879
-0.23847
-0.232906
-0.229377
-0.228731
-0.231839
-0.239069
-0.250571
-0.266037
-0.284638
-0.305046
-0.325554
-0.344288
-0.359395
-0.3691
-0.371528
-0.364874
-0.34791
-0.321004
-0.286574
-0.248406
-0.210406
-0.175545
-0.145564
-0.121068
-0.102012
-0.0879057
-0.0782988
-0.0726065
-0.0707363
-0.0724923
-0.0786745
-0.0883816
-0.100846
-0.110583
-0.116593
-0.112432
-0.103935
-0.0866403
-0.0707355
-0.0507542
-0.0362754
-0.0185321
-0.00981621
-0.241145
-0.233681
-0.227295
-0.223307
-0.220932
-0.221816
-0.226419
-0.235098
-0.247929
-0.264538
-0.28405
-0.305115
-0.326046
-0.345014
-0.360236
-0.369987
-0.372474
-0.365823
-0.348803
-0.321783
-0.2872
-0.248859
-0.210664
-0.175576
-0.145331
-0.120533
-0.101142
-0.0866688
-0.0766622
-0.0705316
-0.0681679
-0.0693541
-0.0748689
-0.0838959
-0.0957741
-0.10522
-0.11126
-0.107537
-0.099676
-0.0832249
-0.0680569
-0.0488956
-0.0349909
-0.0178934
-0.00956779
-0.228538
-0.221866
-0.216343
-0.214018
-0.212692
-0.214996
-0.22101
-0.23105
-0.245123
-0.262791
-0.283137
-0.3048
-0.326108
-0.345286
-0.360615
-0.370429
-0.372971
-0.366343
-0.349296
-0.322206
-0.287527
-0.249072
-0.210737
-0.17547
-0.144999
-0.11993
-0.100226
-0.0854041
-0.0750128
-0.0684571
-0.065613
-0.0662429
-0.0711031
-0.0794582
-0.0907507
-0.0998989
-0.105956
-0.102654
-0.0954096
-0.079789
-0.0653471
-0.0470051
-0.033676
-0.0172318
-0.00930847
-0.216452
-0.210475
-0.206358
-0.204471
-0.204675
-0.208302
-0.215637
-0.226948
-0.24217
-0.26081
-0.281915
-0.304114
-0.32576
-0.345124
-0.360555
-0.370439
-0.373041
-0.36645
-0.349405
-0.322286
-0.287565
-0.249055
-0.210635
-0.175236
-0.144577
-0.119266
-0.0992711
-0.0841173
-0.0733561
-0.0663888
-0.0630772
-0.063165
-0.0673838
-0.0750754
-0.0857834
-0.0946282
-0.100687
-0.0977901
-0.0911418
-0.076337
-0.0626094
-0.0450848
-0.0323321
-0.0165474
-0.00903814
-0.204918
-0.199503
-0.196726
-0.195419
-0.196917
-0.201763
-0.210327
-0.22281
-0.239085
-0.258609
-0.280397
-0.303075
-0.325019
-0.34455
-0.360077
-0.370034
-0.372703
-0.366164
-0.349145
-0.322037
-0.287326
-0.248818
-0.210368
-0.174882
-0.144071
-0.118545
-0.0982819
-0.0828139
-0.0716975
-0.0643319
-0.0605661
-0.0601259
-0.0637171
-0.0707543
-0.0808795
-0.089415
-0.0954614
-0.0929517
-0.0868784
-0.0728734
-0.0598475
-0.0431369
-0.0309605
-0.0158407
-0.00875667
-0.193952
-0.189504
-0.187075
-0.186842
-0.189441
-0.195407
-0.205098
-0.218652
-0.235883
-0.256202
-0.278599
-0.3017
-0.323907
-0.343586
-0.359206
-0.369236
-0.371978
-0.365502
-0.348531
-0.321472
-0.286823
-0.248373
-0.209944
-0.174415
-0.143488
-0.117774
-0.0972643
-0.0814992
-0.0700421
-0.0622916
-0.0580847
-0.0571309
-0.0601087
-0.0665012
-0.0760456
-0.0842662
-0.0902854
-0.0881449
-0.0826248
-0.0694025
-0.0570648
-0.0411635
-0.0295626
-0.0151123
-0.00846399
-0.18357
-0.180028
-0.178018
-0.178697
-0.182267
-0.189254
-0.199969
-0.214489
-0.232577
-0.253604
-0.276538
-0.300007
-0.322443
-0.342254
-0.357962
-0.368067
-0.370885
-0.364481
-0.347579
-0.320607
-0.286069
-0.24773
-0.209372
-0.173843
-0.142834
-0.11696
-0.0962237
-0.0801782
-0.0683946
-0.0602724
-0.0556379
-0.0541849
-0.0565639
-0.0623219
-0.0712879
-0.0791883
-0.0851653
-0.0833756
-0.0783862
-0.0659285
-0.054265
-0.0391668
-0.0281401
-0.0143625
-0.00816
-0.174142
-0.170798
-0.169553
-0.170979
-0.175416
-0.183322
-0.194953
-0.210335
-0.229182
-0.250829
-0.274229
-0.298016
-0.320648
-0.340576
-0.356367
-0.36655
-0.369446
-0.363119
-0.346305
-0.319455
-0.285077
-0.246901
-0.208663
-0.173175
-0.142115
-0.116107
-0.0951653
-0.0788558
-0.0667597
-0.058279
-0.0532301
-0.0512925
-0.0530875
-0.0582215
-0.0666121
-0.0741872
-0.0801073
-0.0786492
-0.0741678
-0.0624555
-0.0514516
-0.0371491
-0.0266944
-0.0135919
-0.00784462
-0.162274
-0.161625
-0.163699
-0.168905
-0.177623
-0.190062
-0.206201
-0.225709
-0.247892
-0.271689
-0.295744
-0.318543
-0.338575
-0.354447
-0.364704
-0.367678
-0.361433
-0.344725
-0.318032
-0.28386
-0.245898
-0.207825
-0.172417
-0.141339
-0.115222
-0.0940939
-0.0775363
-0.0651415
-0.0563153
-0.0508653
-0.0484577
-0.0496838
-0.054205
-0.0620234
-0.0692685
-0.0751169
-0.0739711
-0.0699743
-0.0589877
-0.048628
-0.0351126
-0.0252273
-0.012801
-0.00751779
-0.154422
-0.154221
-0.156866
-0.162739
-0.172164
-0.185305
-0.202097
-0.222171
-0.244807
-0.268936
-0.293212
-0.316149
-0.336273
-0.35223
-0.362553
-0.3656
-0.359441
-0.342856
-0.316353
-0.282431
-0.244731
-0.206868
-0.171577
-0.140512
-0.114309
-0.0930142
-0.0762242
-0.0635442
-0.0543852
-0.0485474
-0.0456842
-0.0463568
-0.0502765
-0.0575266
-0.0644373
-0.0701992
-0.0693462
-0.0658106
-0.0555289
-0.0457979
-0.0330594
-0.0237403
-0.0119906
-0.00717946
-0.147175
-0.147347
-0.150481
-0.156922
-0.166949
-0.180689
-0.198033
-0.21858
-0.241589
-0.265987
-0.29044
-0.313488
-0.333691
-0.349747
-0.360118
-0.363231
-0.357158
-0.340712
-0.314432
-0.280805
-0.243412
-0.205801
-0.170662
-0.139639
-0.113374
-0.0919307
-0.0749234
-0.0619713
-0.0524922
-0.0462796
-0.0429755
-0.04311
-0.0464401
-0.053126
-0.0596982
-0.0653592
-0.0647792
-0.061681
-0.0520829
-0.0429647
-0.0309918
-0.0222352
-0.0111612
-0.00682957
-0.140513
-0.140997
-0.144537
-0.151451
-0.161983
-0.176219
-0.194018
-0.214949
-0.238255
-0.262861
-0.287448
-0.310581
-0.330848
-0.347022
-0.357417
-0.360586
-0.354601
-0.33831
-0.312285
-0.278995
-0.241952
-0.204633
-0.169681
-0.138726
-0.11242
-0.0908473
-0.0736375
-0.0604262
-0.0506395
-0.0440651
-0.0403346
-0.0399465
-0.0426992
-0.0488254
-0.0550553
-0.0606013
-0.0602746
-0.0575899
-0.0486534
-0.0401318
-0.0289119
-0.0207139
-0.0103134
-0.00646809
-0.134423
-0.135158
-0.139026
-0.146324
-0.157263
-0.171899
-0.190058
-0.211288
-0.234819
-0.259576
-0.284257
-0.307449
-0.327766
-0.34407
-0.354465
-0.357681
-0.351785
-0.335664
-0.309927
-0.277014
-0.240363
-0.203373
-0.168639
-0.137779
-0.111454
-0.089768
-0.0723701
-0.0589122
-0.0488298
-0.0419067
-0.037764
-0.036869
-0.0390567
-0.0446282
-0.0505126
-0.0559296
-0.0558358
-0.0535414
-0.0452441
-0.0373026
-0.0268221
-0.0191783
-0.00944811
-0.006095
-0.128887
-0.129814
-0.133936
-0.141533
-0.152789
-0.167732
-0.186163
-0.207611
-0.231297
-0.256152
-0.280888
-0.304112
-0.324462
-0.340908
-0.351272
-0.354531
-0.348724
-0.332791
-0.307373
-0.274876
-0.238656
-0.20203
-0.167543
-0.136803
-0.110479
-0.0886963
-0.0711242
-0.057432
-0.0470659
-0.0398066
-0.0352661
-0.0338798
-0.0355152
-0.0405373
-0.0460733
-0.051348
-0.0514671
-0.0495393
-0.0418583
-0.0344806
-0.0247244
-0.0176301
-0.00856596
-0.00571028
-0.123883
-0.124946
-0.129254
-0.137071
-0.148558
-0.163721
-0.18234
-0.203929
-0.227705
-0.252606
-0.27736
-0.300592
-0.32095
-0.337459
-0.347849
-0.35115
-0.345433
-0.329706
-0.304638
-0.272595
-0.236841
-0.200612
-0.166401
-0.135803
-0.109499
-0.0876356
-0.0699029
-0.0559881
-0.0453498
-0.0377671
-0.0328428
-0.0309809
-0.032077
-0.0365552
-0.0417403
-0.0468598
-0.0471851
-0.0455873
-0.0384993
-0.0316689
-0.022621
-0.0160714
-0.00766775
-0.00531392
-0.120534
-0.124965
-0.132927
-0.144567
-0.159868
-0.178596
-0.200255
-0.22406
-0.248958
-0.273695
-0.296908
-0.317246
-0.333312
-0.344205
-0.347548
-0.341927
-0.326425
-0.301736
-0.270182
-0.23493
-0.199126
-0.165217
-0.134784
-0.108518
-0.0865889
-0.0687086
-0.054583
-0.0436836
-0.0357898
-0.0304959
-0.0281739
-0.0287439
-0.032684
-0.0375162
-0.042468
-0.0429671
-0.0416888
-0.0351704
-0.0288708
-0.0205141
-0.0145041
-0.0067543
-0.00490593
-0.11656
-0.121053
-0.129093
-0.140811
-0.156174
-0.174939
-0.1966
-0.220376
-0.245226
-0.26991
-0.293081
-0.313397
-0.329509
-0.340362
-0.343739
-0.33822
-0.322961
-0.298684
-0.267651
-0.232932
-0.197582
-0.163998
-0.133749
-0.107539
-0.0855589
-0.0675435
-0.0532184
-0.042069
-0.0338762
-0.0282265
-0.02546
-0.0255172
-0.0289254
-0.0334032
-0.0381753
-0.0388297
-0.0378473
-0.0318745
-0.0260895
-0.0184057
-0.0129303
-0.00582645
-0.00448631
-0.113006
-0.117505
-0.12556
-0.137286
-0.152643
-0.171375
-0.192976
-0.21667
-0.241427
-0.266025
-0.289129
-0.30941
-0.325541
-0.336331
-0.339737
-0.334324
-0.319331
-0.295495
-0.265015
-0.230856
-0.195986
-0.162749
-0.132704
-0.106565
-0.084548
-0.0664098
-0.0518962
-0.0405074
-0.0320274
-0.0260358
-0.0228402
-0.0223982
-0.0252808
-0.029403
-0.0339842
-0.0347764
-0.0340659
-0.0286147
-0.0233281
-0.0162979
-0.0113521
-0.0048851
-0.00405509
-0.109853
-0.114307
-0.122317
-0.133989
-0.149274
-0.16791
-0.189393
-0.212955
-0.237577
-0.262056
-0.285068
-0.305288
-0.321395
-0.332129
-0.335554
-0.330256
-0.315549
-0.292183
-0.262286
-0.228714
-0.194346
-0.161477
-0.131652
-0.105599
-0.0835589
-0.0653097
-0.0506181
-0.0390002
-0.0302446
-0.0239246
-0.0203152
-0.0193876
-0.0217513
-0.0255171
-0.029897
-0.0308093
-0.0303476
-0.0253938
-0.0205896
-0.0141928
-0.00977155
-0.00393114
-0.00361229
-0.107087
-0.111447
-0.119357
-0.130917
-0.146069
-0.164552
-0.185863
-0.209244
-0.233691
-0.258016
-0.280907
-0.301041
-0.317102
-0.327765
-0.3312
-0.326026
-0.311631
-0.288764
-0.259477
-0.226516
-0.192671
-0.160187
-0.1306
-0.104647
-0.0825951
-0.0642458
-0.0493863
-0.0375489
-0.0285289
-0.0218938
-0.0178856
-0.0164861
-0.0183376
-0.0217466
-0.0259157
-0.0269312
-0.0266955
-0.0222147
-0.017877
-0.0120925
-0.00819075
-0.0029655
-0.00315793
-0.104696
-0.108915
-0.116673
-0.128065
-0.143029
-0.161304
-0.182393
-0.205547
-0.22978
-0.253917
-0.276656
-0.296679
-0.312667
-0.323246
-0.326685
-0.32165
-0.307592
-0.285253
-0.2566
-0.224271
-0.190967
-0.158885
-0.129549
-0.10371
-0.0816572
-0.0632183
-0.0482009
-0.0361535
-0.0268799
-0.019943
-0.0155511
-0.0136935
-0.0150397
-0.0180919
-0.0220416
-0.0231445
-0.0231124
-0.01908
-0.0151933
-0.0099989
-0.00661186
-0.00198916
-0.00269204
-0.106702
-0.114259
-0.125432
-0.140156
-0.158172
-0.178991
-0.201875
-0.225855
-0.249769
-0.272325
-0.292212
-0.308102
-0.318584
-0.322027
-0.317146
-0.303447
-0.281658
-0.253657
-0.221974
-0.189225
-0.157558
-0.128488
-0.102776
-0.0807364
-0.0622204
-0.0470563
-0.0348096
-0.025294
-0.0180692
-0.0133092
-0.0110083
-0.0118564
-0.014552
-0.0182744
-0.0194499
-0.0196004
-0.0159923
-0.0125411
-0.00791402
-0.00503704
-0.0010031
-0.00221466
-0.104805
-0.112115
-0.123021
-0.137458
-0.155169
-0.175674
-0.198248
-0.221937
-0.245596
-0.267935
-0.287656
-0.303429
-0.313804
-0.317249
-0.312533
-0.29921
-0.277981
-0.25064
-0.219612
-0.187429
-0.156193
-0.127404
-0.101836
-0.0798247
-0.0612458
-0.0459482
-0.033514
-0.0237688
-0.0162707
-0.011159
-0.00843012
-0.00878821
-0.0111272
-0.0146144
-0.0158481
-0.0161605
-0.0129534
-0.00992261
-0.0058396
-0.00346831
-8.27836e-06
-0.0017258
-0.103212
-0.110232
-0.120825
-0.134929
-0.15229
-0.172438
-0.194661
-0.218023
-0.241389
-0.263476
-0.283022
-0.298632
-0.308885
-0.312336
-0.307806
-0.294886
-0.274247
-0.247593
-0.217244
-0.185648
-0.154858
-0.126364
-0.100947
-0.0789713
-0.0603349
-0.0449093
-0.0322931
-0.0223256
-0.0145645
-0.00911351
-0.00596903
-0.00584444
-0.00782793
-0.011074
-0.0123494
-0.0128013
-0.00996824
-0.00734166
-0.00377787
-0.00190797
0.000994287
-0.0012255
-0.101921
-0.108576
-0.118784
-0.132484
-0.149428
-0.169155
-0.190967
-0.213943
-0.236965
-0.258748
-0.278159
-0.293526
-0.303658
-0.307167
-0.302912
-0.290504
-0.270565
-0.244691
-0.215087
-0.184112
-0.153776
-0.125565
-0.100278
-0.0783135
-0.0595977
-0.0440261
-0.0312135
-0.0210163
-0.0129904
-0.00720123
-0.0036423
-0.00303737
-0.00466938
-0.00767913
-0.00898334
-0.00955138
-0.00705525
-0.00481113
-0.00173512
-0.000360377
0.00200233
-0.000714081
-0.101009
-0.10721
-0.116941
-0.130142
-0.146574
-0.165787
-0.187101
-0.209616
-0.232228
-0.25365
-0.272927
-0.288067
-0.298137
-0.301789
-0.297921
-0.28614
-0.266992
-0.241959
-0.213124
-0.182772
-0.152873
-0.124923
-0.0997447
-0.0777714
-0.0589608
-0.0432316
-0.0302145
-0.0197833
-0.0114959
-0.00537426
-0.00140566
-0.0003185
-0.00159895
-0.00437875
-0.00572072
-0.00640033
-0.00421755
-0.00233831
0.000282602
0.00117034
0.00301247
-0.000191631
-0.100625
-0.106578
-0.116012
-0.128871
-0.14492
-0.163722
-0.184611
-0.206709
-0.22893
-0.249991
-0.268854
-0.283866
-0.293716
-0.297228
-0.293366
-0.281759
-0.262942
-0.238352
-0.210019
-0.180164
-0.15071
-0.123113
-0.0981879
-0.0763623
-0.0576104
-0.0418585
-0.0287552
-0.01818
-0.00971527
-0.00334695
0.000945178
0.00248798
0.00159099
-0.000880958
-0.00226504
-0.00306732
-0.0012807
0.000195306
0.00232898
0.00271213
0.00404033
0.000348032
-0.105651
-0.11541
-0.128542
-0.144784
-0.163668
-0.184509
-0.206415
-0.228304
-0.248951
-0.267182
-0.281133
-0.289932
-0.292323
-0.287378
-0.274889
-0.255529
-0.230811
-0.202752
-0.17347
-0.144751
-0.117904
-0.093651
-0.0723498
-0.0539719
-0.0384301
-0.0254063
-0.0147574
-0.00614459
0.000465692
0.00510565
0.00733947
0.00720063
0.00554038
0.00424141
0.00334657
0.00423961
0.00490751
0.00600518
0.0054097
0.00587106
0.00128274
-0.108167
-0.117646
-0.130238
-0.145664
-0.163449
-0.182915
-0.203182
-0.223191
-0.24183
-0.257724
-0.269953
-0.276961
-0.277814
-0.271852
-0.259048
-0.240147
-0.216586
-0.190177
-0.162764
-0.135877
-0.110634
-0.0876704
-0.0673151
-0.0495768
-0.034396
-0.021519
-0.0108326
-0.00205103
0.00491586
0.0100672
0.013034
0.0135543
0.0125057
0.011191
0.0102598
0.0104408
0.0104798
0.0105501
0.00889304
0.00832347
0.00247443
-0.111657
-0.120704
-0.132554
-0.146915
-0.163318
-0.181111
-0.19946
-0.217396
-0.233907
-0.247703
-0.257773
-0.262951
-0.262438
-0.255749
-0.242966
-0.224826
-0.202626
-0.177951
-0.152389
-0.127258
-0.103535
-0.0817935
-0.0623489
-0.045239
-0.0304345
-0.0177311
-0.00704205
0.0018718
0.00912593
0.0147016
0.0183024
0.0194414
0.0189689
0.0176798
0.0167099
0.0162531
0.0157397
0.0149183
0.0122714
0.0107804
0.00363208
-0.1151
-0.123572
-0.134544
-0.147718
-0.162637
-0.17868
-0.195066
-0.210908
-0.225219
-0.236869
-0.244913
-0.248419
-0.246716
-0.239474
-0.22686
-0.209585
-0.188802
-0.165874
-0.142149
-0.11875
-0.0965278
-0.0759975
-0.0574633
-0.0409898
-0.0265811
-0.014075
-0.00341242
0.00560057
0.0130847
0.0190184
0.0231862
0.0249349
0.0250651
0.0238859
0.0229171
0.0219
0.0208439
0.0192001
0.0155996
0.0132255
0.00480224
-0.118159
-0.125896
-0.135836
-0.147685
-0.161006
-0.175212
-0.189579
-0.203276
-0.215403
-0.224996
-0.231201
-0.233243
-0.230593
-0.223046
-0.210821
-0.194569
-0.175281
-0.154108
-0.132182
-0.110462
-0.0896881
-0.0703326
-0.0526932
-0.0368566
-0.0228593
-0.0105754
2.85732e-05
0.00910484
0.0167664
0.0229946
0.0276549
0.0299754
0.0307002
0.0296833
0.0287584
0.0272781
0.0257149
0.0233422
0.0188482
0.0156186
0.00598546
-0.120509
-0.127389
-0.136184
-0.14661
-0.158255
-0.170578
-0.182926
-0.194532
-0.204594
-0.212293
-0.216881
-0.217719
-0.2144
-0.206802
-0.195154
-0.180022
-0.162243
-0.142774
-0.12257
-0.102446
-0.083056
-0.0648315
-0.0480656
-0.0328628
-0.0192889
-0.00725013
0.00326399
0.012369
0.0201601
0.026621
0.0316962
0.0345356
0.0358333
0.0350178
0.0341647
0.0323095
0.0302823
0.027288
0.0219743
0.0179255
0.00716642
-0.12192
-0.127877
-0.135473
-0.144445
-0.154412
-0.164893
-0.175291
-0.184941
-0.193121
-0.19914
-0.20236
-0.20226
-0.198519
-0.191064
-0.180105
-0.166121
-0.149807
-0.131957
-0.113372
-0.0947497
-0.0766681
-0.059524
-0.0436051
-0.0290291
-0.0158874
-0.0041144
0.00627996
0.0153803
0.0232574
0.0298928
0.035307
0.0386043
0.0404485
0.0398692
0.0391143
0.0369675
0.0345146
0.0310049
0.0249479
0.0201197
0.00833105
-0.122334
-0.127354
-0.13376
-0.141312
-0.149671
-0.158413
-0.167004
-0.174862
-0.181373
-0.185946
-0.188043
-0.187233
-0.18326
-0.176072
-0.165849
-0.152988
-0.138058
-0.121715
-0.104632
-0.0874063
-0.0705522
-0.0544338
-0.0393319
-0.0253732
-0.0126697
-0.00118091
0.00906518
0.0181282
0.0260519
0.0328081
0.0384882
0.0421763
0.0445327
0.0442189
0.0435931
0.0412372
0.0383921
0.0344709
0.0277471
0.022176
0.00946733
-0.121819
-0.125936
-0.131209
-0.137429
-0.144301
-0.151436
-0.158396
-0.164665
-0.169727
-0.173077
-0.17426
-0.17292
-0.168843
-0.161987
-0.152497
-0.140694
-0.127041
-0.112079
-0.0963735
-0.0804377
-0.0647285
-0.0495795
-0.0352625
-0.0219095
-0.00964815
0.00154008
0.0116111
0.020605
0.0285391
0.0353676
0.0412446
0.0452522
0.0480765
0.0480493
0.0475882
0.0451028
0.0418975
0.0376666
0.0303527
0.0240685
0.0105631
-0.120505
-0.123785
-0.12802
-0.133029
-0.138562
-0.144264
-0.149776
-0.154661
-0.158479
-0.160799
-0.16124
-0.159502
-0.155401
-0.148896
-0.140099
-0.129266
-0.116771
-0.10306
-0.0886082
-0.0738566
-0.0592108
-0.0449748
-0.0314099
-0.0186495
-0.00683256
0.0040408
0.0139118
0.0228056
0.0307168
0.0375743
0.0435845
0.047839
0.0510763
0.0513468
0.0510892
0.0485487
0.0450186
0.0405759
0.0327479
0.0257718
0.0116059
-0.11853
-0.121062
-0.124373
-0.128306
-0.132635
-0.137105
-0.141364
-0.145059
-0.147816
-0.149274
-0.149108
-0.147063
-0.142981
-0.136817
-0.128655
-0.118695
-0.107239
-0.0946524
-0.081336
-0.0676678
-0.0540071
-0.0406294
-0.0277834
-0.0156017
-0.00423018
0.00631587
0.0159641
0.024728
0.0325849
0.0394333
0.0455191
0.0499496
0.053536
0.0541026
0.0540894
0.0515603
0.0477507
0.0431874
0.034919
0.027264
0.0125845
-0.116024
-0.117904
-0.120411
-0.123413
-0.126721
-0.130108
-0.133293
-0.135972
-0.137831
-0.138565
-0.137899
-0.135615
-0.131572
-0.125726
-0.118133
-0.10895
-0.0984191
-0.0868396
-0.0745488
-0.0618699
-0.0491207
-0.0365491
-0.0243897
-0.012772
-0.0018457
0.00836226
0.0177674
0.0263729
0.0341455
0.0409515
0.0470626
0.0516024
0.0554675
0.0563139
0.0565837
0.0541228
0.0500965
0.0454937
0.0368556
0.0285284
0.0134903
-0.113092
-0.114415
-0.116237
-0.118444
-0.12088
-0.123349
-0.125622
-0.127441
-0.128544
-0.128672
-0.127593
-0.125119
-0.121127
-0.115568
-0.108481
-0.0999854
-0.0902766
-0.0795979
-0.0682329
-0.0564573
-0.0445511
-0.0327362
-0.0212322
-0.0101637
0.000318656
0.0101792
0.0193231
0.0277441
0.0354033
0.0421374
0.0482309
0.0528202
0.0568904
0.0579859
0.0585676
0.0562202
0.0520637
0.0474881
0.0385503
0.029555
0.0143182
-0.10982
-0.110675
-0.11192
-0.113458
-0.115158
-0.116858
-0.118363
-0.119461
-0.119931
-0.119555
-0.118136
-0.115512
-0.111574
-0.106275
-0.0996368
-0.0917503
-0.0827718
-0.0728994
-0.0623709
-0.0514206
-0.0402948
-0.0291905
-0.0183121
-0.0077777
0.00226298
0.0117683
0.0206352
0.0288476
0.0363656
0.043001
0.0490411
0.0536284
0.0578314
0.0591338
0.0600378
0.0578363
0.0536606
0.0491609
0.039996
0.0303419
0.0150662
-0.106273
-0.106743
-0.107509
-0.10849
-0.109578
-0.110636
-0.111502
-0.112001
-0.111945
-0.111152
-0.109456
-0.106717
-0.102838
-0.0977739
-0.0915355
-0.0841902
-0.0758627
-0.066714
-0.0569429
-0.0467482
-0.0363455
-0.0259092
-0.0156278
-0.00561263
0.00398953
0.013133
0.0217092
0.029692
0.0370423
0.0435538
0.0495106
0.0540542
0.0583226
0.0597828
0.0609941
0.0589572
0.0548907
0.0504943
0.0411835
0.0308937
0.0157338
-0.102509
-0.102665
-0.103038
-0.103562
-0.104145
-0.104673
-0.105013
-0.105017
-0.10453
-0.103398
-0.10148
-0.098656
-0.0948424
-0.0899936
-0.0841138
-0.0772523
-0.0695079
-0.061011
-0.0519279
-0.0424265
-0.032695
-0.0228872
-0.013176
-0.00366518
0.00550253
0.0142791
0.0225526
0.0302875
0.0374459
0.0438097
0.0496574
0.054125
0.058399
0.0599664
0.0614439
0.0595766
0.0557471
0.0514594
0.042097
0.0312203
0.0163183
-0.098573
-0.0984778
-0.0985343
-0.0986864
-0.0988582
-0.098955
-0.0988659
-0.0984678
-0.0976311
-0.0962269
-0.094136
-0.0912565
-0.087514
-0.0828663
-0.0773117
-0.0708858
-0.0636668
-0.0557598
-0.047304
-0.0384404
-0.0293334
-0.0201177
-0.0109513
-0.00193021
0.00680799
0.0152139
0.0231747
0.030646
0.0375908
0.0437845
0.0494995
0.0538674
0.058097
0.0597246
0.0614053
0.0596998
0.0562106
0.0520169
0.0427109
0.0313327
0.0168078
-0.0945067
-0.0942144
-0.0940191
-0.0938737
-0.0937153
-0.0934651
-0.0930311
-0.0923108
-0.0911962
-0.0895795
-0.0873601
-0.084451
-0.0807873
-0.0763301
-0.0710737
-0.0650434
-0.0583008
-0.0509307
-0.0430489
-0.0347742
-0.0262494
-0.0175922
-0.00894679
-0.000400939
0.00791348
0.0159466
0.0235861
0.030781
0.0374932
0.0434967
0.0490562
0.0533075
0.0574518
0.0591002
0.0609091
0.0593479
0.0562552
0.052124
0.0429905
0.0312384
0.0171728
-0.0903467
-0.0899034
-0.0895121
-0.0891331
-0.088714
-0.0881895
-0.0874831
-0.0865098
-0.0851797
-0.0834026
-0.0810938
-0.0781793
-0.0746028
-0.0703287
-0.0653491
-0.0596812
-0.0533737
-0.0464946
-0.0391406
-0.0314111
-0.0234305
-0.0153012
-0.00715396
0.000930864
0.00882793
0.0164875
0.023799
0.0307068
0.0371702
0.0429662
0.0483478
0.05247
0.0564956
0.0581361
0.0599973
0.0585566
0.0558603
0.0517471
0.0428985
0.0309361
0.0173613
-0.0861259
-0.0855713
-0.0850313
-0.0844731
-0.0838527
-0.0831161
-0.0821997
-0.0810331
-0.0795415
-0.0776495
-0.075286
-0.0723882
-0.0689073
-0.0648115
-0.0600915
-0.0547587
-0.0488513
-0.0424238
-0.035557
-0.0283343
-0.0208634
-0.0132336
-0.00556323
0.00207465
0.00956147
0.0168484
0.0238267
0.0304389
0.03664
0.0422144
0.0473967
0.0513795
0.0552549
0.0568729
0.0587186
0.0573729
0.0550239
0.050877
0.0424119
0.0304129
0.0173051
-0.0818744
-0.0812417
-0.0805935
-0.079902
-0.079131
-0.0782352
-0.0771622
-0.0758535
-0.0742468
-0.0722795
-0.0698917
-0.0670304
-0.0636537
-0.0597331
-0.055259
-0.0502384
-0.0447013
-0.0386917
-0.0322767
-0.0255264
-0.0185343
-0.0113778
-0.00416399
0.00304089
0.0101252
0.0170415
0.0236836
0.0299937
0.0359213
0.0412631
0.0462267
0.0500625
0.0537675
0.0553479
0.0571226
0.0558483
0.0537701
0.0495409
0.0415375
0.0296465
0.0169436
-0.0776192
-0.0769363
-0.0762136
-0.075428
-0.074549
-0.0735391
-0.0723548
-0.0709475
-0.0692657
-0.0672571
-0.0648717
-0.0620646
-0.0588
-0.0550528
-0.0508134
-0.0460859
-0.040894
-0.0352728
-0.0292786
-0.0229702
-0.0164286
-0.00972136
-0.00294484
0.00384089
0.0105311
0.0170803
0.0233846
0.0293881
0.0350335
0.0401343
0.0448628
0.0485444
0.0520555
0.0535944
0.055255
0.0540339
0.0521465
0.0478025
0.040316
0.0286187
0.0162598
-0.0733845
-0.0726745
-0.0719057
-0.0710586
-0.0701075
-0.0690213
-0.067764
-0.0662952
-0.0645723
-0.0625516
-0.0601914
-0.057454
-0.0543088
-0.0507339
-0.0467202
-0.0422697
-0.0374012
-0.032143
-0.0265423
-0.0206484
-0.0145319
-0.00825139
-0.00189378
0.00448656
0.0107918
0.0169783
0.0229452
0.0286395
0.0339962
0.0388499
0.0433302
0.046851
0.0501477
0.0516424
0.0531564
0.051977
0.0502132
0.0457509
0.0388076
0.0273364
0.0153048
-0.0691916
-0.0684736
-0.0676822
-0.0668006
-0.0658074
-0.0646767
-0.0633785
-0.0618794
-0.060144
-0.0581359
-0.0558206
-0.0531661
-0.0501468
-0.0467435
-0.0429479
-0.0387608
-0.034197
-0.0292795
-0.024048
-0.0185441
-0.0128294
-0.00695467
-0.000998397
0.00499027
0.01092
0.0167498
0.0223812
0.0277655
0.0328296
0.0374314
0.0416549
0.0450077
0.048075
0.0495207
0.0508649
0.0497206
0.0480317
0.04348
0.0370713
0.0258455
0.0141847
-0.0650594
-0.064349
-0.063554
-0.0626603
-0.0616498
-0.0605009
-0.0591886
-0.0576852
-0.0559612
-0.0539866
-0.0517326
-0.0491724
-0.0462843
-0.0430521
-0.0394682
-0.0355324
-0.031257
-0.0266605
-0.0217768
-0.0166408
-0.0113063
-0.00581786
-0.000246018
0.00536464
0.0109292
0.0164089
0.0217085
0.0267836
0.0315537
0.0358999
0.0398621
0.0430392
0.0458698
0.0472571
0.0484186
0.0473048
0.0456587
0.0410707
0.0351554
0.0242229
0.0130152
-0.0610041
-0.0603136
-0.0595307
-0.0586431
-0.0576356
-0.0564901
-0.0551857
-0.0536994
-0.0520068
-0.050083
-0.0479039
-0.0454473
-0.042695
-0.039633
-0.036255
-0.0325602
-0.0285587
-0.0242659
-0.0197104
-0.0149221
-0.00994821
-0.0048276
0.000376113
0.00562241
0.0108325
0.0159699
0.020943
0.025711
0.0301882
0.0342764
0.037977
0.0409687
0.0435644
0.0448799
0.0458571
0.0447679
0.0431451
0.0385841
0.0331015
0.0225498
0.0118766
-0.0570398
-0.0563789
-0.0556204
-0.0547536
-0.0537656
-0.052641
-0.0513624