/*--------------------------------*- C++ -*----------------------------------*\
  =========                 |
  \\      /  F ield         | OpenFOAM: The Open Source CFD Toolbox
   \\    /   O peration     | Website:  https://openfoam.org
    \\  /    A nd           | Version:  7
     \\/     M anipulation  |
\*---------------------------------------------------------------------------*/
FoamFile
{
    version     2.0;
    format      ascii;
    class       surfaceScalarField;
    location    "95";
    object      phi;
}
// * * * * * * * * * * * * * * * * * * * * * * * * * * * * * * * * * * * * * //

dimensions      [0 3 -1 0 0 0 0];

internalField   nonuniform List<scalar> 
16753
(
-0.000192811
0.00216398
-0.00219709
-0.000156869
0.00255839
-0.00259433
-0.000119903
0.00293808
-0.00297504
-8.41422e-05
0.00329231
-0.00332807
-5.18046e-05
0.00361367
-0.00364601
-2.42489e-05
0.00389843
-0.00392599
-1.33802e-06
0.00414427
-0.00416719
1.90338e-05
0.0043468
-0.00436717
4.10978e-05
0.00449545
-0.00451752
7.05504e-05
0.00457105
-0.0046005
0.000113256
0.00454624
-0.00458894
0.000173398
0.00439074
-0.00445089
0.00025194
0.00408024
-0.00415878
0.000346319
0.00360411
-0.00369849
0.00045158
0.00296768
-0.00307295
0.00056199
0.00218811
-0.00229852
0.000672401
0.00128704
-0.00139745
0.000779356
0.000286463
-0.000393418
0.000881402
-0.000789216
0.000687169
0.000978016
-0.00190155
0.00180493
0.00106783
-0.0029892
0.00289939
0.00114798
-0.00397642
0.00389626
0.0012151
-0.00479776
0.00473064
0.0012668
-0.00541971
0.00536802
0.00130237
-0.00584576
0.00581019
0.00132254
-0.00610662
0.00608645
0.00132884
-0.00624718
0.00624088
0.00132318
-0.00631173
0.00631739
0.00130683
-0.00633714
0.00635349
0.00127883
-0.00636068
0.00638868
0.00123679
-0.00643725
0.00647928
0.00118179
-0.00659476
0.00664975
0.00112284
-0.0067539
0.00681285
0.00107497
-0.00668176
0.00672963
0.00105175
-0.0060905
0.00611372
0.00105828
-0.00482646
0.00481993
0.00109203
-0.0029212
0.00288745
0.00114491
-0.000685815
0.000632934
0.00120707
0.0016648
-0.00172696
0.00126791
0.00358342
-0.00364426
0.00131608
0.00528249
-0.00533067
0.00134909
0.00604383
-0.00607684
0.00135922
0.0069631
-0.00697323
0.00136023
0.00671553
-0.00671654
0.00133607
0.00707148
-0.00704732
0.00668604
-0.00664028
-0.000223338
0.00212837
-0.000184818
0.00251987
-0.000145179
0.00289844
-0.000106544
0.00325367
-7.08902e-05
0.00357802
-3.92895e-05
0.00386683
-1.13007e-05
0.00411629
1.54049e-05
0.00432009
4.50854e-05
0.00446577
8.31062e-05
0.00453303
0.000134629
0.00449472
0.00020289
0.00432248
0.000287973
0.00399516
0.000386808
0.00350528
0.000494342
0.00286015
0.000604983
0.00207747
0.000713847
0.00117817
0.00081788
0.000182431
0.000916109
-0.000887445
0.00100841
-0.00199385
0.00109364
-0.00307443
0.00116907
-0.00405184
0.00123149
-0.00486018
0.00127871
-0.00546694
0.00131023
-0.00587728
0.00132692
-0.00612331
0.00133031
-0.00625058
0.00132227
-0.00630368
0.00130406
-0.00631892
0.00127471
-0.00633134
0.00123162
-0.00639415
0.00117537
-0.00653851
0.00111462
-0.00669315
0.00106457
-0.00663171
0.00103941
-0.00606533
0.00104478
-0.00483183
0.00107824
-0.00295466
0.00113157
-0.000739144
0.00119466
0.0016017
0.00125679
0.0035213
0.0013063
0.00523298
0.00134067
0.00600946
0.00135211
0.00695167
0.0013541
0.00671353
0.00133031
0.00709527
0.00673187
-0.000250776
0.00209038
-0.000209758
0.00247885
-0.000167456
0.00285614
-0.000125861
0.00321207
-8.67114e-05
0.00353887
-5.08036e-05
0.00383092
-1.74312e-05
0.00408291
1.58737e-05
0.00428679
5.33005e-05
0.00442835
9.97842e-05
0.00448654
0.000159743
0.00443476
0.000235512
0.00424671
0.000326419
0.00390425
0.000429016
0.00340268
0.000538221
0.00275095
0.000648595
0.00196709
0.00075553
0.00107124
0.000856381
8.15798e-05
0.00095065
-0.000981714
0.00103858
-0.00208178
0.0011192
-0.00315506
0.00118989
-0.00412253
0.0012476
-0.00491788
0.00129036
-0.0055097
0.00131787
-0.00590479
0.00133112
-0.00613656
0.00133168
-0.00625114
0.00132133
-0.00629333
0.00130132
-0.00629891
0.00127071
-0.00630073
0.00122667
-0.00635011
0.0011693
-0.00648114
0.00110686
-0.00663071
0.00105469
-0.00657954
0.00102757
-0.00603821
0.00103172
-0.00483598
0.00106484
-0.00298777
0.00111857
-0.000792874
0.00118256
0.00153771
0.00124592
0.00345794
0.00129673
0.00518216
0.00133246
0.00597374
0.00134518
0.00693894
0.00134815
0.00671056
0.00132474
0.00711869
0.00677777
-0.000274861
0.00205016
-0.000231424
0.00243541
-0.000186462
0.00281118
-0.000141819
0.00316743
-9.90011e-05
0.00349605
-5.85509e-05
0.00379047
-1.95482e-05
0.00404391
2.05324e-05
0.00424671
6.57178e-05
0.00438316
0.000120439
0.00443182
0.000188356
0.00436684
0.000270969
0.0041641
0.000366975
0.00380824
0.000472656
0.003297
0.00058295
0.00264065
0.000692588
0.00185746
0.000797248
0.000966578
0.0008947
-1.58726e-05
0.000984907
-0.00107192
0.00106843
-0.0021653
0.00114444
-0.00323106
0.00121038
-0.00418848
0.00126339
-0.00497089
0.00130172
-0.00554802
0.00132526
-0.00592834
0.00133515
-0.00614645
0.00133294
-0.00624893
0.00132036
-0.00628075
0.00129862
-0.00627717
0.00126682
-0.00626893
0.00122194
-0.00630523
0.00116359
-0.00642278
0.00109958
-0.00656671
0.00104535
-0.00652531
0.00101625
-0.00600912
0.00101913
-0.00483886
0.00105184
-0.00302048
0.00110592
-0.000846953
0.00117076
0.00147288
0.00123531
0.00339338
0.00128738
0.00513009
0.00132444
0.00593667
0.00133845
0.00692494
0.00134239
0.00670662
0.00131935
0.00714172
0.00682373
-0.000295318
0.00200786
-0.000249542
0.00238964
-0.000201922
0.00276356
-0.000154149
0.00311966
-0.00010751
0.00344941
-6.2325e-05
0.00374529
-1.75196e-05
0.00399911
2.94156e-05
0.00419977
8.22569e-05
0.00433032
0.00014488
0.0043692
0.000220196
0.00429152
0.000308954
0.00407534
0.000409334
0.00370786
0.00051744
0.0031889
0.000628268
0.00252982
0.000736732
0.00174899
0.000838805
0.000864504
0.000932686
-0.000109753
0.00101877
-0.001158
0.00109788
-0.00224442
0.00116929
-0.00330247
0.00123052
-0.00424971
0.00127885
-0.00501922
0.00131278
-0.00558195
0.00133241
-0.00594797
0.00133899
-0.00615303
0.0013341
-0.00624404
0.00131936
-0.00626601
0.00129596
-0.00625378
0.00126305
-0.00623602
0.00121744
-0.00625961
0.00115823
-0.00636358
0.00109279
-0.00650127
0.00103656
-0.00646907
0.00100547
-0.00597803
0.00100702
-0.00484041
0.00103926
-0.00305271
0.00109364
-0.000901329
0.00115927
0.00140725
0.00122497
0.00332768
0.00127825
0.00507681
0.00131664
0.00589828
0.0013319
0.00690968
0.00133681
0.00670171
0.00131417
0.00716436
0.00686973
-0.000311868
0.00196361
-0.000263838
0.00234161
-0.000213569
0.00271329
-0.000162599
0.00306869
-0.000112018
0.00339883
-6.19628e-05
0.00369523
-1.12768e-05
0.00394842
4.25006e-05
0.004146
0.000102785
0.00427004
0.000172877
0.00429911
0.000254969
0.00420943
0.000349149
0.00398116
0.000453188
0.00360382
0.000563082
0.003079
0.000673917
0.00241899
0.000780801
0.00164211
0.00088002
0.000765286
0.000970196
-0.000199929
0.00105213
-0.00123994
0.00112687
-0.00231916
0.00119372
-0.00336932
0.00125026
-0.00430624
0.00129394
-0.00506291
0.00132352
-0.00561152
0.0013393
-0.00596375
0.00134265
-0.00615638
0.00133514
-0.00623653
0.00131833
-0.00624919
0.00129335
-0.0062288
0.0012594
-0.00620206
0.00121316
-0.00621337
0.00115325
-0.00630367
0.0010865
-0.00643452
0.00102833
-0.0064109
0.000995245
-0.00594495
0.000995406
-0.00484057
0.0010271
-0.00308441
0.00108172
-0.000955944
0.00114809
0.00134087
0.0012149
0.00326087
0.00126936
0.00502235
0.00130905
0.00585859
0.00132556
0.00689317
0.00133142
0.00669585
0.00130918
0.0071866
0.00691575
-0.000324242
0.00191757
-0.000274046
0.00229141
-0.000221149
0.00266039
-0.000166942
0.00301448
-0.000112342
0.00334423
-5.73502e-05
0.00364024
-1.04861e-06
0.00389212
5.97102e-05
0.00408524
0.00012712
0.00420263
0.000204165
0.00422206
0.000292365
0.00412123
0.000391235
0.00388229
0.000498233
0.00349683
0.000609303
0.00296793
0.000719649
0.00230864
0.000824583
0.00153717
0.000920718
0.00066915
0.0010071
-0.000286311
0.0010849
-0.00131774
0.00115532
-0.00238958
0.00121767
-0.00343167
0.00126956
-0.00435814
0.00130864
-0.00510199
0.00133392
-0.0056368
0.00134592
-0.00597575
0.00134611
-0.00615657
0.00133608
-0.0062265
0.00131727
-0.00623039
0.00129079
-0.00620232
0.00125587
-0.00616714
0.0012091
-0.0061666
0.00114862
-0.00624319
0.0010807
-0.0063666
0.00102067
-0.00635087
0.000985582
-0.00590986
0.000984292
-0.00483928
0.00101539
-0.0031155
0.00107018
-0.00101074
0.00113724
0.00127381
0.00120511
0.00319301
0.0012607
0.00496676
0.00130168
0.0058176
0.00131942
0.00687543
0.00132623
0.00668904
0.00130441
0.00720842
0.0069618
-0.000332184
0.00186988
-0.000279922
0.00223915
-0.000224437
0.0026049
-0.000166987
0.00295703
-0.000108347
0.00328559
-4.84114e-05
0.00358031
1.3927e-05
0.00382978
8.09316e-05
0.00401823
0.000155041
0.00412852
0.000238456
0.00413865
0.000332063
0.00402762
0.000434893
0.00377946
0.00054417
0.00338755
0.000655837
0.00285626
0.000765227
0.00219925
0.000867879
0.00143452
0.000960743
0.000576286
0.00104328
-0.00036885
0.00111699
-0.00139145
0.00118317
-0.00245576
0.00124109
-0.00348958
0.00128839
-0.00440544
0.00132292
-0.00513652
0.00134396
-0.00565784
0.00135226
-0.00598404
0.00134937
-0.00615368
0.0013369
-0.00621403
0.00131619
-0.00620968
0.00128828
-0.00617441
0.00125246
-0.00613133
0.00120526
-0.0061194
0.00114435
-0.00618227
0.0010754
-0.00629765
0.00101359
-0.00628906
0.000976495
-0.00587277
0.000973694
-0.00483648
0.00100411
-0.00314592
0.00105902
-0.00106565
0.00112671
0.00120612
0.00119559
0.00312413
0.00125227
0.00491008
0.00129454
0.00577534
0.00131349
0.00685647
0.00132124
0.00668129
0.00129986
0.00722981
0.00700784
-0.000335471
0.00182072
-0.000281255
0.00218493
-0.00022325
0.0025469
-0.000162592
0.00289637
-9.99529e-05
0.00322295
-3.51902e-05
0.00351554
3.2828e-05
0.00376176
0.000105961
0.0039451
0.00018629
0.00404819
0.000275439
0.0040495
0.000373736
0.00392933
0.000479808
0.00367339
0.000590712
0.00327665
0.000702425
0.00274455
0.00081043
0.00209125
0.000910506
0.00133445
0.000999951
0.000486841
0.00107863
-0.000447532
0.00114833
-0.00146114
0.00121037
-0.0025178
0.00126393
-0.00354315
0.0013067
-0.00444821
0.00133675
-0.00516657
0.00135363
-0.00567472
0.0013583
-0.00598871
0.00135243
-0.00614781
0.00133761
-0.00619921
0.00131508
-0.00618715
0.00128581
-0.00614514
0.00124917
-0.00609469
0.00120164
-0.00607187
0.00114043
-0.00612107
0.00107059
-0.0062278
0.00100709
-0.00622557
0.000967995
-0.00583367
0.000963621
-0.00483211
0.000993283
-0.00317558
0.00104825
-0.00112062
0.00111651
0.00113786
0.00118635
0.00305429
0.00124409
0.00485234
0.00128761
0.00573181
0.00130777
0.00683632
0.00131646
0.0066726
0.00129552
0.00725075
0.00705387
-0.000333925
-0.000277882
0.00212889
-0.000217453
0.00248647
-0.000153672
0.00283259
-8.7144e-05
0.00315642
-1.78738e-05
0.00344627
5.5705e-05
0.00368818
0.000134576
0.00386623
0.000220577
0.00396219
0.000314792
0.00395528
0.000417057
0.00382706
0.000525673
0.00356478
0.000637583
0.00316474
0.000748827
0.00263331
0.000855054
0.00198502
0.000952297
0.0012372
0.00103822
0.000400922
0.00111307
-0.000522382
0.00117884
-0.00152692
0.00123686
-0.00257581
0.00128616
-0.00359245
0.00132448
-0.00448653
0.00135011
-0.00519221
0.00136291
-0.00568752
0.00136405
-0.00598985
0.00135528
-0.00613905
0.0013382
-0.00618212
0.00131394
-0.0061629
0.0012834
-0.00611459
0.001246
-0.00605729
0.00119823
-0.00602409
0.00113686
-0.0060597
0.00106627
-0.00615722
0.00100119
-0.00616048
0.000960088
-0.00579257
0.000954082
-0.0048261
0.000982912
-0.00320441
0.00103786
-0.00117556
0.00110664
0.00106908
0.00117739
0.00298354
0.00123614
0.00479359
0.00128092
0.00568703
0.00130226
0.00681497
0.00131189
0.00666297
0.00129142
0.00727123
0.00709986
-0.000269696
0.00207116
-0.000206975
0.00242375
-0.000140201
0.00276582
-6.99664e-05
0.00308619
3.59564e-06
0.00337271
8.23855e-05
0.00360939
0.000166519
0.00378209
0.000257592
0.00387111
0.000356184
0.00385669
0.000461705
0.00372154
0.000572192
0.00345429
0.000684521
0.00305241
0.000794818
0.00252301
0.00089891
0.00188093
0.000993104
0.00114301
0.00107543
0.0003186
0.0011465
-0.000593455
0.00120849
-0.00158891
0.0012626
-0.00262992
0.00130773
-0.00363759
0.00134168
-0.00452047
0.00136297
-0.00521351
0.00137178
-0.00569633
0.00136948
-0.00598754
0.00135791
-0.00612748
0.00133866
-0.00616287
0.00131277
-0.00613701
0.00128102
-0.00608285
0.00124294
-0.00601921
0.00119501
-0.00597616
0.00113362
-0.0059983
0.00106244
-0.00608604
0.000995865
-0.00609391
0.000952781
-0.00574949
0.000945082
-0.0048184
0.000973002
-0.00323233
0.00102786
-0.00123042
0.00109709
0.000999848
0.00116871
0.00291192
0.00122844
0.00473386
0.00127445
0.00564102
0.00129697
0.00679246
0.00130753
0.00665241
0.00128754
0.00729121
0.00714581
-0.000256659
0.00201192
-0.000191807
0.0023589
-0.000122223
0.00269624
-4.85609e-05
0.00301252
2.95568e-05
0.00329459
0.000112642
0.00352631
0.000201499
0.00369324
0.000297007
0.00377561
0.000399281
0.00375442
0.000507363
0.00361346
0.000619081
0.00334257
0.000731281
0.00294021
0.000840189
0.0024141
0.00094183
0.00177929
0.0010328
0.00105204
0.00111149
0.00023991
0.00117887
-0.000660837
0.00123721
-0.00164725
0.00128755
-0.00268026
0.00132862
-0.00367867
0.00135827
-0.00455012
0.00137531
-0.00523055
0.00138023
-0.00570124
0.00137458
-0.0059819
0.00136032
-0.00611322
0.00133899
-0.00614155
0.00131156
-0.00610957
0.00127869
-0.00604999
0.00123999
-0.0059805
0.00119199
-0.00592816
0.00113069
-0.00593701
0.00105908
-0.00601443
0.000991128
-0.00602595
0.000946078
-0.00570444
0.000936628
-0.00480895
0.000963557
-0.00325926
0.00101825
-0.00128512
0.00108787
0.000930229
0.00116031
0.00283949
0.00122098
0.00467319
0.00126822
0.00559379
0.00129189
0.00676878
0.00130338
0.00664092
0.00128391
0.00731068
0.00719168
-0.000238806
0.00195133
-0.000172018
0.00229211
-9.98553e-05
0.00262407
-2.3388e-05
0.00293606
5.89808e-05
0.00321222
0.000146172
0.00343912
0.000239196
0.00360021
0.000338484
0.00367632
0.000443753
0.00364915
0.000553727
0.00350349
0.000666072
0.00323022
0.000777633
0.00282865
0.000884753
0.00230698
0.000983665
0.00168038
0.00107126
0.000964445
0.00114632
0.000164849
0.00121012
-0.000724637
0.00126497
-0.00170209
0.00131168
-0.00272697
0.00134879
-0.00371578
0.00137423
-0.00457555
0.00138711
-0.00524343
0.00138822
-0.00570236
0.00137935
-0.00597302
0.00136249
-0.00609635
0.00133919
-0.00611825
0.0013103
-0.00608069
0.0012764
-0.00601609
0.00123713
-0.00594123
0.00118914
-0.00588017
0.00112808
-0.00587595
0.00105618
-0.00594253
0.000986969
-0.00595674
0.00093998
-0.00565745
0.000928724
-0.0047977
0.000954577
-0.00328511
0.00100904
-0.00133958
0.00107898
0.000860286
0.00115219
0.00276628
0.00121376
0.00461161
0.00126221
0.00554534
0.00128703
0.00674396
0.00129945
0.0066285
0.00128052
0.00732962
0.00723746
-0.000216251
0.00188958
-0.000147752
0.00222361
-7.32879e-05
0.00254961
6.09445e-06
0.00285667
9.1867e-05
0.00312645
0.000182672
0.00334831
0.000279269
0.00350362
0.000381681
0.00357391
0.000489273
0.00354156
0.000600502
0.00339226
0.000712912
0.00311781
0.000823366
0.00271819
0.000928339
0.00220201
0.00102428
0.00158443
0.00110841
0.000880321
0.00117987
9.33825e-05
0.00124023
-0.00078499
0.00129174
-0.00175361
0.00133496
-0.00277018
0.00136821
-0.00374904
0.00138953
-0.00459687
0.00139834
-0.00525225
0.00139577
-0.00569978
0.00138377
-0.00596103
0.00136442
-0.006077
0.00133924
-0.00609307
0.001309
-0.00605044
0.00127414
-0.00598123
0.00123438
-0.00590147
0.00118646
-0.00583226
0.00112575
-0.00581524
0.00105373
-0.00587051
0.000983383
-0.0058864
0.000934489
-0.00560856
0.000921375
-0.00478458
0.000946066
-0.0033098
0.00100021
-0.00139372
0.00107041
0.000790084
0.00114434
0.00269235
0.00120679
0.00454916
0.00125644
0.00549569
0.00128239
0.006718
0.00129574
0.00661515
0.00127737
0.00734799
0.00728313
-0.000189191
0.00182687
-0.000119233
0.00215365
-4.2921e-05
0.0024733
3.96005e-05
0.00277415
0.000127921
0.00303813
0.000221809
0.00325442
0.000321367
0.00340406
0.000426255
0.00346902
0.000535525
0.00343229
0.00064741
0.00328037
0.000759363
0.00300586
0.000868286
0.00260927
0.000970795
0.0020995
0.00106357
0.00149165
0.00114415
0.00079974
0.00121209
2.54454e-05
0.00126915
-0.000842044
0.0013175
-0.00180196
0.00135736
-0.00281004
0.00138686
-0.00377854
0.00140414
-0.00461415
0.00140899
-0.0052571
0.00140283
-0.00569362
0.00138783
-0.00594603
0.0013661
-0.00605527
0.00133915
-0.00606611
0.00130764
-0.00601893
0.00127191
-0.0059455
0.00123171
-0.00586127
0.00118394
-0.00578449
0.0011237
-0.00575499
0.00105171
-0.00579852
0.000980359
-0.00581504
0.000929603
-0.0055578
0.000914581
-0.00476956
0.000938024
-0.00333325
0.000991765
-0.00144746
0.00106216
0.000719691
0.00113676
0.00261774
0.00120005
0.00448588
0.00125089
0.00544485
0.00127797
0.00669092
0.00129225
0.00660087
0.00127448
0.00736576
0.00732866
-0.000157898
0.00176338
-8.67858e-05
0.00208254
-1.06153e-05
0.00239713
7.6019e-05
0.00268752
0.000166781
0.00294737
0.000263223
0.00315798
0.00036513
0.00330215
0.000471864
0.00336228
0.000582199
0.00332195
0.000694183
0.00316839
0.000805204
0.00289484
0.000912216
0.00250226
0.00101199
0.00199973
0.00110144
0.0014022
0.00117845
0.000722732
0.00124294
-3.90487e-05
0.00129687
-0.000895972
0.00134224
-0.00184733
0.00137886
-0.00284666
0.00140469
-0.00380437
0.00141803
-0.00462749
0.00141902
-0.00525808
0.00140941
-0.00568401
0.00139153
-0.00592815
0.00136753
-0.00603127
0.0013389
-0.00603748
0.00130622
-0.00598625
0.0012697
-0.00590898
0.00122912
-0.0058207
0.00118157
-0.00573693
0.00112191
-0.00569533
0.0010501
-0.00572671
0.000977885
-0.00574282
0.000925318
-0.00550523
0.000908344
-0.00475259
0.000930451
-0.00335536
0.000983707
-0.00150071
0.00105422
0.000649173
0.00112946
0.0025425
0.00119355
0.00442178
0.00124557
0.00539283
0.00127376
0.00666273
0.00128899
0.00658565
0.00127184
0.00738291
0.00737403
-0.000122738
0.00169933
-5.07462e-05
0.00201055
2.90718e-05
0.00231731
0.000115454
0.00260114
0.000208088
0.00285473
0.000306532
0.00305954
0.000410196
0.00319849
0.000518174
0.0032543
0.000629001
0.00321113
0.00074057
0.00305682
0.00085023
0.00278518
0.000954996
0.00239749
0.00105179
0.00190293
0.0011378
0.0013162
0.00121123
0.000649298
0.0012724
-0.000100216
0.00132338
-0.000946953
0.00136593
-0.00188989
0.00139945
-0.00288018
0.0014217
-0.00382662
0.00143119
-0.00463697
0.00142843
-0.00525532
0.00141548
-0.00567106
0.00139484
-0.00590751
0.00136869
-0.00600512
0.00133848
-0.00600727
0.00130472
-0.00595249
0.0012675
-0.00587176
0.00122661
-0.00577981
0.00117932
-0.00568965
0.00112035
-0.00563636
0.00104889
-0.00565525
0.000975947
-0.00566988
0.00092163
-0.00545092
0.000902664
-0.00473362
0.000923347
-0.00337604
0.00097603
-0.0015534
0.0010466
0.000578601
0.00112242
0.00246669
0.00118729
0.00435691
0.00124048
0.00533964
0.00126978
0.00663344
0.00128594
0.00656948
0.00126945
0.0073994
0.0074192
-8.41886e-05
0.00163494
-1.30471e-05
0.00193941
6.96516e-05
0.00223461
0.000157348
0.00251344
0.000251456
0.00276063
0.00035135
0.00295964
0.000456202
0.00309364
0.000564858
0.00314565
0.000675644
0.00310034
0.000786333
0.00294613
0.000894249
0.00267726
0.000996478
0.00229526
0.00109011
0.0018093
0.00117259
0.00123372
0.00124248
0.000579402
0.00130046
-0.000158198
0.00134869
-0.000995176
0.00138859
-0.00192979
0.00141911
-0.0029107
0.00143786
-0.00384537
0.00144359
-0.0046427
0.00143719
-0.00524892
0.00142103
-0.0056549
0.00139777
-0.00588425
0.00136958
-0.00597694
0.0013379
-0.00597559
0.00130315
-0.00591775
0.0012653
-0.0058339
0.00122416
-0.00573867
0.00117719
-0.00564268
0.001119
-0.00557817
0.00104804
-0.0055843
0.000974529
-0.00559637
0.00091853
-0.00539492
0.00089754
-0.00471263
0.000916709
-0.00339521
0.00096873
-0.00160542
0.00103929
0.000508046
0.00111564
0.00239033
0.00118126
0.00429129
0.00123561
0.00528529
0.00126601
0.00660304
0.00128312
0.00655237
0.00126733
0.00741519
0.00746415
-4.28766e-05
0.00157056
3.12071e-05
0.00186532
0.000112757
0.00215306
0.00020132
0.00242488
0.000296454
0.00266549
0.000397286
0.00285881
0.00050279
0.00298813
0.000611597
0.00303684
0.000721858
0.00299008
0.000831249
0.00283674
0.000937085
0.00257143
0.00103653
0.00219582
0.00112685
0.00171898
0.00120575
0.00115482
0.00127218
0.000512973
0.00132714
-0.000213157
0.0013728
-0.00104084
0.0014102
-0.00196718
0.00143781
-0.00293832
0.00145314
-0.00386071
0.00145521
-0.00464477
0.00144529
-0.00523901
0.00142606
-0.00563567
0.00140029
-0.00585848
0.00137019
-0.00594684
0.00133714
-0.00594253
0.00130149
-0.00588211
0.0012631
-0.00579551
0.00122176
-0.00569733
0.00117516
-0.00559608
0.00111785
-0.00552086
0.00104755
-0.00551399
0.000973613
-0.00552243
0.00091601
-0.00533731
0.00089297
-0.00468959
0.000910538
-0.00341278
0.000961803
-0.00165668
0.00103227
0.000437577
0.00110912
0.00231349
0.00117546
0.00422495
0.00123096
0.00522979
0.00126245
0.00657156
0.00128052
0.0065343
0.00126547
0.00743024
0.00750885
8.79592e-07
0.00150614
7.59055e-05
0.0017903
0.000157803
0.00207116
0.00024694
0.00233574
0.000342653
0.00256978
0.000443944
0.00275752
0.000549606
0.00288247
0.000658082
0.00292837
0.000767383
0.00288078
0.000875106
0.00272902
0.000978572
0.00246796
0.00107503
0.00209935
0.00116193
0.00163209
0.00123725
0.00107949
0.00130031
0.000449912
0.00135244
-0.000265278
0.00139573
-0.00108413
0.00143076
-0.00200222
0.00145555
-0.00296311
0.00146753
-0.00387268
0.00146602
-0.00464326
0.00145271
-0.0052257
0.00143054
-0.00561351
0.00140241
-0.00583035
0.00137051
-0.00591494
0.00133619
-0.0059082
0.00129974
-0.00584566
0.00126088
-0.00575665
0.00121941
-0.00565586
0.00117322
-0.0055499
0.00111687
-0.00546451
0.00104737
-0.00544449
0.000973178
-0.00544824
0.000914059
-0.00527819
0.000888949
-0.00466448
0.000904831
-0.00342866
0.000955246
-0.0017071
0.00102555
0.00036727
0.00110284
0.0022362
0.00116988
0.00415791
0.00122653
0.00517313
0.0012591
0.00653899
0.00127814
0.00651526
0.00126387
0.00744451
0.00755325
4.80837e-05
0.0001223
0.00171608
0.000204341
0.00198912
0.000293723
0.00224636
0.000389619
0.00247388
0.000490932
0.00265621
0.000596301
0.0027771
0.000704016
0.00282065
0.00081197
0.00277282
0.000917706
0.00262328
0.00101856
0.00236711
0.00111188
0.00200603
0.00119529
0.00154868
0.00126707
0.00100771
0.0013269
0.000390082
0.00137638
-0.00031476
0.00141749
-0.00112524
0.00145028
-0.00203501
0.00147231
-0.00298513
0.001481
-0.00388137
0.00147601
-0.00463827
0.00145944
-0.00520913
0.00143448
-0.00558854
0.00140411
-0.00579998
0.00137054
-0.00588137
0.00133504
-0.00587271
0.00129788
-0.0058085
0.00125864
-0.00571742
0.00121709
-0.0056143
0.00117136
-0.00550416
0.00111604
-0.00540919
0.00104749
-0.00537594
0.000973203
-0.00537396
0.000912665
-0.00521766
0.000885475
-0.00463729
0.000899585
-0.00344277
0.000949054
-0.00175657
0.00101913
0.000297198
0.00109682
0.00215851
0.00116452
0.00409021
0.00122232
0.00511534
0.00125597
0.00650534
0.00127598
0.00649524
0.00126254
0.00745796
0.00759733
0.000169835
0.00164197
0.000251863
0.00190709
0.000341187
0.00215703
0.000436915
0.00237816
0.000537861
0.00255526
0.000642537
0.00267242
0.00074911
0.00271408
0.000855383
0.00266655
0.000958861
0.0025198
0.00105691
0.00226906
0.00114697
0.00191597
0.00122687
0.00146879
0.00129518
0.000939403
0.00135194
0.000333316
0.001399
-0.000361819
0.00143811
-0.00116435
0.00146877
-0.00206566
0.00148808
-0.00300445
0.00149353
-0.00388682
0.00148516
-0.00462991
0.00146546
-0.00518943
0.00143784
-0.00556093
0.00140539
-0.00576753
0.00137026
-0.00584624
0.0013337
-0.00583614
0.00129591
-0.00577071
0.00125637
-0.00567788
0.0012148
-0.00557273
0.00116955
-0.00545891
0.00111534
-0.00535498
0.00104787
-0.00530847
0.000973662
-0.00529975
0.000911812
-0.00515581
0.000882542
-0.00460802
0.000894799
-0.00345503
0.000943222
-0.00180499
0.00101298
0.000227438
0.00109103
0.00208046
0.00115938
0.00402185
0.00121831
0.00505641
0.00125304
0.00647061
0.00127404
0.00647423
0.00126147
0.00747053
0.00764104
0.000217989
0.00156795
0.000299832
0.00182525
0.000388849
0.00206802
0.000484107
0.0022829
0.000584347
0.00245502
0.000687985
0.00256879
0.00079309
0.00260897
0.000897399
0.00256224
0.000998398
0.0024188
0.00109349
0.00217397
0.00118023
0.00182923
0.00125663
0.00139239
0.00132159
0.000874449
0.00137547
0.000279428
0.00142034
-0.000406688
0.00145763
-0.00120163
0.00148621
-0.00209425
0.00150284
-0.00302108
0.0015051
-0.00388908
0.00149346
-0.00461827
0.00147076
-0.00516673
0.00144064
-0.00553081
0.00140623
-0.00573312
0.00136967
-0.00580968
0.00133214
-0.00579861
0.00129381
-0.00573237
0.00125405
-0.00563813
0.00121252
-0.00553119
0.00116779
-0.00541418
0.00111474
-0.00530193
0.0010485
-0.00524223
0.000974532
-0.00522578
0.000911485
-0.00509276
0.000880142
-0.00457668
0.00089047
-0.00346535
0.000937747
-0.00185227
0.00100712
0.000158067
0.00108547
0.00200211
0.00115445
0.00395288
0.0012145
0.00499635
0.00125031
0.00643481
0.00127232
0.00645222
0.00126067
0.00748218
0.00768434
0.000266189
0.00149405
0.000347717
0.00174372
0.000436232
0.0019795
0.000530769
0.00218836
0.000630019
0.00235577
0.000732326
0.00246648
0.000835692
0.00250561
0.000937808
0.00246013
0.00103616
0.00232045
0.00112819
0.00208194
0.00121159
0.00174583
0.00128455
0.00131942
0.00134632
0.000812688
0.00139754
0.000228199
0.00144045
-0.000449597
0.00147605
-0.00123723
0.00150262
-0.00212082
0.00151657
-0.00303503
0.00151569
-0.0038882
0.00150088
-0.00460345
0.00147534
-0.00514119
0.00144286
-0.00549833
0.00140664
-0.00569689
0.00136877
-0.0057718
0.00133037
-0.00576021
0.00129157
-0.00569358
0.00125168
-0.00559824
0.00121024
-0.00548976
0.00116606
-0.00537
0.00111422
-0.00525009
0.00104933
-0.00517735
0.000975786
-0.00515223
0.000911666
-0.00502864
0.000878268
-0.00454328
0.000886595
-0.00347368
0.000932624
-0.0018983
0.00100153
8.91658e-05
0.00108014
0.00192349
0.00114972
0.0038833
0.0012109
0.00493518
0.00124778
0.00639792
0.00127081
0.0064292
0.00126013
0.00749286
0.00772719
0.000313888
0.00142029
0.000395012
0.0016626
0.000482872
0.00189164
0.000576488
0.00209475
0.000674518
0.00225774
0.00077526
0.00236574
0.00087667
0.0024042
0.000976415
0.00236038
0.00107199
0.00222488
0.00116091
0.00199301
0.00124099
0.00166576
0.00131063
0.00124978
0.00136937
0.000753947
0.00141823
0.000179341
0.00145938
-0.000490747
0.00149342
-0.00127127
0.00151799
-0.00214539
0.00152927
-0.00304631
0.00152529
-0.00388422
0.00150742
-0.00458558
0.00147917
-0.00511295
0.0014445
-0.00546366
0.0014066
-0.00565899
0.00136754
-0.00573274
0.00132837
-0.00572104
0.0012892
-0.00565441
0.00124924
-0.00555828
0.00120796
-0.00544847
0.00116435
-0.00532639
0.00111376
-0.0051995
0.00105035
-0.00511394
0.000977395
-0.00507928
0.000912336
-0.00496358
0.000876911
-0.00450786
0.00088317
-0.00347994
0.000927852
-0.00194298
0.000996202
2.08165e-05
0.00107503
0.00184466
0.00114519
0.00381314
0.00120749
0.00487288
0.00124545
0.00635996
0.00126951
0.00640514
0.00125986
0.00750252
0.00776954
0.00036059
0.00134671
0.000441242
0.00158195
0.000528333
0.00180455
0.000620875
0.0020022
0.00071751
0.00216111
0.000816507
0.00226674
0.000915798
0.00230491
0.00101305
0.00226313
0.00110578
0.00213215
0.00119158
0.00190721
0.0012684
0.00158894
0.00133487
0.00118331
0.00139083
0.000697983
0.00143757
0.000132607
0.00147718
-0.000530362
0.00150974
-0.00130383
0.00153231
-0.00216795
0.0015409
-0.0030549
0.00153388
-0.00387721
0.00151306
-0.00456475
0.00148226
-0.00508215
0.00144555
-0.00542695
0.00140611
-0.00561956
0.00136598
-0.0056926
0.00132614
-0.0056812
0.00128667
-0.00561494
0.00124672
-0.00551832
0.00120565
-0.00540741
0.00116264
-0.00528338
0.00111334
-0.0051502
0.00105151
-0.00505211
0.00097933
-0.00500709
0.000913473
-0.00489772
0.000876059
-0.00447044
0.000880193
-0.00348407
0.000923427
-0.00198621
0.000991141
-4.68969e-05
0.00107014
0.00176566
0.00114086
0.00374242
0.00120426
0.00480948
0.00124331
0.00632091
0.00126842
0.00638003
0.00125985
0.00751109
0.00781134
0.000405873
0.00127334
0.000485992
0.00150183
0.000572225
0.00171832
0.000663581
0.00191085
0.000758691
0.002066
0.000855814
0.00216962
0.000952875
0.00220785
0.00104755
0.00216846
0.00113741
0.00204229
0.00122014
0.00182448
0.00129382
0.00151525
0.00135731
0.00111982
0.00141076
0.000644532
0.00145564
8.7728e-05
0.00149391
-0.000568636
0.00152506
-0.00133497
0.00154558
-0.00218847
0.00155145
-0.00306077
0.00154144
-0.00386719
0.00151779
-0.00454111
0.0014846
-0.00504896
0.001446
-0.00538834
0.00140517
-0.00557873
0.00136408
-0.00565152
0.00132367
-0.00564079
0.00128398
-0.00557526
0.00124411
-0.00547845
0.00120332
-0.00536661
0.00116093
-0.00524098
0.00111293
-0.00510221
0.0010528
-0.00499198
0.000981561
-0.00493585
0.000915056
-0.00483122
0.000875703
-0.00443109
0.00087766
-0.00348603
0.000919348
-0.0020279
0.000986339
-0.000113888
0.00106546
0.00168654
0.00113671
0.00367117
0.00120122
0.00474497
0.00124136
0.00628077
0.00126753
0.00635386
0.0012601
0.00751851
0.00785253
0.000449416
0.000528926
0.00142232
0.000614225
0.00163302
0.000704309
0.00182076
0.000797804
0.0019725
0.000892969
0.00207445
0.000987737
0.00211308
0.00107981
0.00207638
0.00116683
0.00195527
0.00124657
0.00174475
0.00131727
0.00144455
0.00137801
0.00105908
0.00142923
0.000593318
0.00147255
4.44048e-05
0.00150963
-0.000605716
0.00153937
-0.00136471
0.00155778
-0.00220688
0.0015609
-0.00306389
0.00154795
-0.00385425
0.00152161
-0.00451477
0.00148619
-0.00501354
0.00144586
-0.00534801
0.00140377
-0.00553664
0.00136184
-0.00560959
0.00132095
-0.0055999
0.00128113
-0.00553543
0.00124141
-0.00543874
0.00120095
-0.00532615
0.0011592
-0.00519923
0.00111253
-0.00505554
0.00105418
-0.00493363
0.000984057
-0.00486574
0.000917062
-0.00476422
0.000875827
-0.00438985
0.000875566
-0.00348577
0.000915614
-0.00206795
0.000981793
-0.000180067
0.00106098
0.00160736
0.00113274
0.0035994
0.00119835
0.00467937
0.00123958
0.00623953
0.00126684
0.0063266
0.00126062
0.00752474
0.00789307
0.000569819
0.00134353
0.000654096
0.00154874
0.000742835
0.00173202
0.000834653
0.00188068
0.000927811
0.00198129
0.00102026
0.00202063
0.00110976
0.00198688
0.001194
0.00187103
0.00127088
0.00166787
0.00133881
0.00137662
0.00139707
0.00100081
0.00144629
0.000544098
0.00148843
2.26737e-06
0.00152439
-0.000641672
0.00155269