/*--------------------------------*- C++ -*----------------------------------*\
  =========                 |
  \\      /  F ield         | OpenFOAM: The Open Source CFD Toolbox
   \\    /   O peration     | Website:  https://openfoam.org
    \\  /    A nd           | Version:  7
     \\/     M anipulation  |
\*---------------------------------------------------------------------------*/
FoamFile
{
    version     2.0;
    format      ascii;
    class       volVectorField;
    location    "95";
    object      U;
}
// * * * * * * * * * * * * * * * * * * * * * * * * * * * * * * * * * * * * * //

dimensions      [0 1 -1 0 0 0 0];

internalField   nonuniform List<vector> 
8500
(
(-0.111971 0.408682 -4.09656e-21)
(-0.0945162 0.471628 9.3207e-22)
(-0.0758984 0.52864 2.12918e-21)
(-0.0571951 0.578117 -4.53901e-23)
(-0.0396421 0.61923 -3.45004e-21)
(-0.0242589 0.651927 3.71285e-21)
(-0.011446 0.676467 -1.60372e-21)
(-0.00067494 0.692807 7.21801e-22)
(0.00973421 0.699992 -1.33884e-21)
(0.0225079 0.695811 1.16926e-21)
(0.0409166 0.67698 -2.2073e-22)
(0.0678898 0.640003 -4.2821e-22)
(0.104967 0.5825 -1.11381e-21)
(0.151708 0.504254 1.43027e-21)
(0.205925 0.407366 1.57542e-21)
(0.264616 0.295473 -1.48831e-21)
(0.324736 0.172596 -9.91356e-22)
(0.383873 0.042555 8.68035e-23)
(0.440764 -0.0908354 -3.0745e-22)
(0.49508 -0.222467 9.75314e-22)
(0.54646 -0.345117 -7.06439e-22)
(0.593632 -0.450614 5.9168e-22)
(0.634685 -0.53267 -8.7203e-22)
(0.667893 -0.589028 -2.31846e-22)
(0.692451 -0.621624 9.50907e-23)
(0.70843 -0.635141 -2.86544e-23)
(0.716573 -0.635379 -9.33222e-23)
(0.717734 -0.627617 -5.74727e-22)
(0.713101 -0.616013 5.66482e-22)
(0.70275 -0.604476 3.99026e-22)
(0.685607 -0.598168 -1.6959e-22)
(0.659945 -0.599109 3.65299e-23)
(0.628708 -0.599436 -2.13213e-22)
(0.59823 -0.578815 -3.86058e-22)
(0.579029 -0.51449 -8.741e-22)
(0.574746 -0.397234 -7.58268e-22)
(0.588884 -0.233683 7.8127e-22)
(0.613688 -0.051907 -1.11244e-21)
(0.650778 0.13001 9.38445e-22)
(0.684511 0.270731 -3.04299e-22)
(0.722966 0.388354 4.51676e-22)
(0.740676 0.433228 4.61192e-22)
(0.765741 0.486568 1.05354e-22)
(0.755048 0.458061 -4.82373e-22)
(0.774142 0.470289 -9.52194e-25)
(0.730143 0.433574 -2.88571e-23)
(-0.135551 0.40215 -4.82727e-21)
(-0.117759 0.464699 3.60425e-21)
(-0.0986453 0.521665 2.51642e-21)
(-0.0792359 0.571488 -5.528e-22)
(-0.060662 0.613301 -9.66858e-21)
(-0.0438025 0.646876 9.38765e-21)
(-0.0288986 0.672214 -6.27509e-21)
(-0.0152649 0.688968 -2.19546e-21)
(-0.00111926 0.695891 4.05873e-22)
(0.0162343 0.690619 2.82181e-22)
(0.0398344 0.66993 -6.17096e-21)
(0.0721814 0.630644 8.79681e-21)
(0.114295 0.570865 -3.25451e-22)
(0.165314 0.490839 -8.6163e-21)
(0.222854 0.392926 2.33795e-21)
(0.283875 0.280799 2.23053e-21)
(0.345372 0.158346 -3.32818e-21)
(0.405045 0.0291205 2.05699e-21)
(0.461828 -0.103338 4.30628e-21)
(0.51558 -0.234035 -3.8119e-21)
(0.566009 -0.355636 2.7475e-21)
(0.611819 -0.459799 -1.67691e-21)
(0.651104 -0.540201 6.31274e-22)
(0.682247 -0.594719 7.88256e-22)
(0.704614 -0.625485 1.43954e-22)
(0.718447 -0.637336 -6.02292e-23)
(0.724615 -0.636137 -4.55558e-22)
(0.724013 -0.62719 -2.07029e-23)
(0.717845 -0.614578 7.67743e-22)
(0.70625 -0.601989 -6.68092e-22)
(0.688172 -0.594444 -1.87088e-21)
(0.661675 -0.594279 1.23632e-22)
(0.629335 -0.594331 3.9409e-22)
(0.597275 -0.574759 -2.10865e-22)
(0.576137 -0.512617 3.95628e-22)
(0.569992 -0.397901 -9.43582e-22)
(0.582611 -0.236589 -7.15077e-22)
(0.606434 -0.0563133 2.34428e-21)
(0.64306 0.124935 -2.33977e-21)
(0.676923 0.265826 2.41674e-22)
(0.715875 0.384456 -1.49007e-21)
(0.734408 0.430489 -1.44851e-21)
(0.760345 0.485473 2.13557e-22)
(0.750727 0.457626 1.36824e-21)
(0.770387 0.471547 1.99649e-22)
(0.726842 0.436237 -1.21578e-22)
(-0.157341 0.395158 2.34948e-20)
(-0.139249 0.457301 -1.60702e-20)
(-0.119656 0.514204 3.35805e-22)
(-0.099526 0.564338 7.62785e-21)
(-0.0798757 0.606774 -1.28072e-21)
(-0.061439 0.64111 -1.88547e-21)
(-0.0442999 0.667085 1.079e-20)
(-0.0276399 0.684072 -3.10466e-21)
(-0.0096173 0.690562 4.68382e-21)
(0.0123805 0.684097 4.03331e-22)
(0.0411119 0.661562 -3.26801e-21)
(0.0786351 0.620113 -8.06199e-22)
(0.125486 0.558317 1.02885e-20)
(0.18045 0.476817 -1.63366e-21)
(0.240994 0.378184 -4.69341e-21)
(0.30406 0.266098 1.0329e-21)
(0.366687 0.144296 1.3489e-21)
(0.426703 0.0160552 -6.31892e-21)
(0.483251 -0.115369 8.12471e-21)
(0.536368 -0.245079 -6.71207e-21)
(0.585801 -0.365604 -5.02915e-21)
(0.630205 -0.468422 3.05011e-21)
(0.667677 -0.547178 5.63678e-21)
(0.696714 -0.599888 -2.50933e-21)
(0.716861 -0.628879 3.59447e-22)
(0.728534 -0.63913 -2.09701e-21)
(0.732727 -0.636561 1.08547e-21)
(0.730375 -0.626487 -6.5759e-22)
(0.722684 -0.612922 -2.21111e-21)
(0.709857 -0.599336 9.3442e-22)
(0.690866 -0.590584 2.1318e-22)
(0.663579 -0.589298 1.73101e-21)
(0.630201 -0.589029 2.50713e-22)
(0.59662 -0.570474 2.82983e-21)
(0.573576 -0.510539 -1.64934e-21)
(0.565573 -0.398436 3.59653e-21)
(0.57666 -0.239444 -1.73623e-21)
(0.599486 -0.0607406 -2.57385e-21)
(0.635621 0.119789 1.94917e-21)
(0.669582 0.260815 -1.98624e-21)
(0.708987 0.380441 -8.93828e-23)
(0.728308 0.427628 2.74457e-21)
(0.755096 0.484257 -8.11583e-22)
(0.74653 0.457093 -1.26615e-21)
(0.766743 0.472749 -1.89595e-22)
(0.723651 0.438875 2.26086e-22)
(-0.177195 0.387728 6.86777e-21)
(-0.158839 0.449444 4.27786e-21)
(-0.13878 0.506258 1.45093e-20)
(-0.117907 0.556651 -3.1649e-21)
(-0.0971188 0.59962 -1.2585e-20)
(-0.0770027 0.634584 1.27656e-20)
(-0.0574953 0.661034 -1.64534e-21)
(-0.0376744 0.67808 -9.55071e-21)
(-0.0156812 0.683992 -2.84518e-21)
(0.0109661 0.676269 3.98255e-21)
(0.0447083 0.651938 -2.42972e-21)
(0.0871633 0.608503 1.09369e-20)
(0.138428 0.544956 -1.58944e-20)
(0.196995 0.462286 5.50655e-21)
(0.260226 0.363224 -6.38392e-21)
(0.325053 0.251435 4.2629e-21)
(0.388571 0.130497 5.48604e-21)
(0.448752 0.0033914 -4.49686e-21)
(0.504957 -0.12691 -8.46091e-21)
(0.557386 -0.255589 4.93591e-21)
(0.605791 -0.375016 -7.2459e-22)
(0.648755 -0.476479 -5.64852e-21)
(0.684375 -0.553598 -2.13337e-21)
(0.711271 -0.604535 -2.88236e-22)
(0.729175 -0.631808 -2.17187e-21)
(0.738679 -0.640527 3.58968e-21)
(0.740901 -0.636656 4.2573e-22)
(0.736813 -0.625514 1.20827e-21)
(0.727617 -0.611053 1.24852e-21)
(0.713571 -0.596523 -6.53077e-23)
(0.693687 -0.5866 1.64034e-22)
(0.665656 -0.58418 -3.59498e-21)
(0.631306 -0.58354 5.40216e-22)
(0.596265 -0.565966 3.13644e-22)
(0.571349 -0.508254 3.25503e-21)
(0.561492 -0.398834 1.74471e-22)
(0.571035 -0.242243 -1.2088e-21)
(0.592847 -0.0651833 1.86188e-21)
(0.628463 0.114577 -2.25941e-21)
(0.662489 0.255704 3.15646e-21)
(0.702305 0.376314 1.93906e-21)
(0.722379 0.424646 -8.00686e-22)
(0.749998 0.482921 3.40114e-21)
(0.742459 0.456465 1.14873e-21)
(0.763214 0.473894 8.14445e-22)
(0.720574 0.441487 -1.64736e-22)
(-0.194957 0.379886 -2.84618e-20)
(-0.176373 0.441144 2.43233e-20)
(-0.155857 0.497825 -6.15718e-21)
(-0.134215 0.548409 2.02525e-21)
(-0.112226 0.591808 -1.88654e-20)
(-0.0903346 0.627262 4.13997e-21)
(-0.0683451 0.654023 7.81267e-21)
(-0.0452648 0.670973 4.0695e-21)
(-0.0192586 0.67619 -2.24951e-21)
(0.0119843 0.667178 3.9417e-21)
(0.0505615 0.641136 -9.98823e-21)
(0.0976649 0.595914 7.73232e-22)
(0.153001 0.530889 1.31498e-20)
(0.214827 0.44734 1.6158e-21)
(0.280427 0.348122 2.86649e-21)
(0.346736 0.236873 -1.74659e-20)
(0.410915 0.116993 -5.77281e-22)
(0.4711 -0.00884288 1.21466e-20)
(0.526873 -0.137948 -3.75622e-21)
(0.578577 -0.265561 -3.1211e-21)
(0.625935 -0.38387 9.30289e-21)
(0.667433 -0.483967 -9.29915e-21)
(0.701168 -0.55946 -3.19841e-21)
(0.725894 -0.608662 4.21025e-21)
(0.741539 -0.634275 1.76056e-21)
(0.748871 -0.641534 1.03675e-21)
(0.74913 -0.63643 -4.08138e-21)
(0.743323 -0.62428 3.59599e-21)
(0.732641 -0.608975 -8.86976e-22)
(0.71739 -0.593558 9.16355e-22)
(0.696634 -0.5825 -6.06674e-22)
(0.667903 -0.578937 7.91134e-22)
(0.632648 -0.577877 -1.60669e-21)
(0.596212 -0.561241 -6.26196e-22)
(0.569461 -0.505763 -4.40091e-21)
(0.557756 -0.399089 -3.71633e-21)
(0.56574 -0.24498 7.20185e-21)
(0.586522 -0.0696361 7.29693e-21)
(0.62159 0.109306 -2.80505e-21)
(0.655649 0.250497 5.42434e-21)
(0.695833 0.372078 -4.5877e-21)
(0.716625 0.421546 1.99383e-21)
(0.745056 0.481468 -2.12827e-21)
(0.738517 0.455744 2.5421e-22)
(0.759804 0.474983 -1.34222e-22)
(0.717615 0.444073 -1.62477e-22)
(-0.210466 0.371657 -2.60447e-20)
(-0.191688 0.432413 -9.86599e-21)
(-0.170722 0.488905 4.48216e-20)
(-0.148285 0.5396 -1.60971e-20)
(-0.125035 0.583314 -6.62309e-21)
(-0.101287 0.619115 3.64547e-20)
(-0.076728 0.646032 -2.20131e-21)
(-0.0503316 0.662742 -2.21208e-20)
(-0.0203242 0.667178 3.12328e-20)
(0.0154035 0.656883 -3.0035e-20)
(0.0585908 0.629246 1.01125e-21)
(0.110028 0.582449 -4.8715e-21)
(0.169081 0.516217 8.29593e-21)
(0.233819 0.43207 -4.55094e-21)
(0.301475 0.332957 -2.03591e-21)
(0.368992 0.222471 8.70059e-21)
(0.433615 0.103826 1.49478e-20)
(0.493658 -0.0206247 -1.02393e-21)
(0.548931 -0.148474 -9.58129e-21)
(0.59989 -0.274994 -1.25821e-20)
(0.646192 -0.392166 -2.55465e-21)
(0.686205 -0.490888 5.51376e-21)
(0.718028 -0.564766 1.49452e-20)
(0.740561 -0.61227 3.15429e-21)
(0.753936 -0.636285 -1.11689e-20)
(0.759098 -0.642154 1.05329e-20)
(0.757404 -0.635889 -2.10359e-22)
(0.7499 -0.62279 -2.85215e-21)
(0.737753 -0.606696 -3.8424e-22)
(0.721312 -0.590448 -2.1571e-22)
(0.699706 -0.578295 -2.49597e-21)
(0.670318 -0.573583 5.1834e-21)
(0.634224 -0.572051 2.30259e-21)
(0.59646 -0.556304 -2.56946e-21)
(0.567915 -0.503063 4.67169e-21)
(0.554368 -0.399197 -3.24308e-21)
(0.560779 -0.24765 -4.00653e-21)
(0.580513 -0.0740931 -1.07448e-20)
(0.615005 0.103981 3.3901e-21)
(0.649064 0.245201 -9.0064e-22)
(0.689573 0.36774 4.34182e-21)
(0.711049 0.418332 -1.16413e-21)
(0.740273 0.479901 -2.40779e-21)
(0.734707 0.454931 -1.48207e-21)
(0.756517 0.476016 -2.50251e-22)
(0.714779 0.446632 3.15856e-22)
(-0.223561 0.363067 2.26335e-20)
(-0.204623 0.423265 3.04626e-20)
(-0.183212 0.479499 8.35975e-21)
(-0.159956 0.53021 -2.0184e-20)
(-0.135397 0.574119 5.55316e-21)
(-0.109729 0.610125 3.36571e-21)
(-0.0825465 0.637074 -1.74921e-20)
(-0.0528232 0.653382 7.8161e-22)
(-0.018879 0.656998 3.22701e-20)
(0.0211691 0.645456 -2.76264e-20)
(0.0686996 0.616363 -5.84512e-22)
(0.124131 0.568217 2.99883e-20)
(0.186539 0.501045 -3.4312e-20)
(0.253846 0.416565 2.55924e-21)
(0.323246 0.317798 1.04077e-22)
(0.391708 0.208284 3.07249e-20)
(0.456571 0.0910304 -4.87784e-20)
(0.516346 -0.0319369 3.02657e-20)
(0.571068 -0.158484 -3.55634e-21)
(0.621277 -0.283889 9.68218e-21)
(0.666523 -0.399906 -1.26447e-20)
(0.705038 -0.497242 -2.14938e-20)
(0.734927 -0.569517 2.76932e-21)
(0.755249 -0.615363 -4.85221e-21)
(0.76635 -0.637843 -1.71252e-21)
(0.769347 -0.642397 2.28591e-23)
(0.765717 -0.63504 -3.95605e-21)
(0.756537 -0.621052 2.79953e-21)
(0.742951 -0.604222 5.08058e-22)
(0.725336 -0.587199 1.87358e-21)
(0.702898 -0.573994 -3.86024e-22)
(0.672896 -0.56813 -6.76289e-21)
(0.636031 -0.566076 -4.25376e-21)
(0.597009 -0.551163 -6.7641e-22)
(0.566711 -0.500156 -3.90176e-21)
(0.55133 -0.399153 -3.94484e-22)
(0.556155 -0.250245 2.50547e-21)
(0.574824 -0.0785483 1.08117e-21)
(0.60871 0.0986074 3.74681e-21)
(0.642736 0.239819 -9.4984e-21)
(0.683527 0.363303 3.38657e-21)
(0.705654 0.415006 8.66232e-23)
(0.73565 0.478222 1.00482e-21)
(0.731032 0.454027 3.59059e-22)
(0.753355 0.476993 -3.60098e-22)
(0.71207 0.449164 1.71193e-23)
(-0.234085 0.354143 -4.29081e-20)
(-0.215017 0.413715 -1.04267e-20)
(-0.193169 0.469609 3.55277e-20)
(-0.169079 0.520235 -3.3961e-20)
(-0.143175 0.564214 2.83179e-20)
(-0.115545 0.600285 -1.6717e-20)
(-0.0857362 0.627142 -1.91197e-20)
(-0.0527229 0.642932 -1.38395e-21)
(-0.0149455 0.64571 1.82848e-20)
(0.0292059 0.632983 -2.34446e-20)
(0.0807781 0.602593 1.74282e-20)
(0.139849 0.553326 -9.7083e-21)
(0.205247 0.485471 1.82394e-20)
(0.274779 0.400911 -2.26384e-20)
(0.345622 0.302716 7.6545e-21)
(0.414775 0.19436 2.98597e-20)
(0.479688 0.0786366 -2.79313e-20)
(0.539089 -0.0427676 -2.90999e-20)
(0.593227 -0.167979 1.60208e-20)
(0.642694 -0.292252 1.60793e-20)
(0.686892 -0.407096 1.47376e-20)
(0.723901 -0.503034 -6.75045e-21)
(0.751838 -0.573716 1.46704e-21)
(0.769937 -0.617947 4.7938e-21)
(0.778763 -0.638955 3.64119e-21)
(0.779607 -0.642267 -1.49132e-21)
(0.774059 -0.633892 2.77143e-21)
(0.763229 -0.619075 1.61512e-22)
(0.748229 -0.601561 -8.27334e-22)
(0.72946 -0.583818 1.07712e-21)
(0.70621 -0.569608 5.00452e-21)
(0.675633 -0.562591 -4.40436e-22)
(0.638064 -0.559963 7.40746e-21)
(0.597855 -0.545826 -1.07465e-21)
(0.56585 -0.49704 6.30897e-21)
(0.548645 -0.39895 -3.07659e-21)
(0.55187 -0.25276 -4.83096e-21)
(0.569456 -0.0829957 1.78231e-21)
(0.602707 0.0931915 1.72778e-21)
(0.636665 0.234359 -4.22072e-22)
(0.677697 0.358773 -4.46328e-21)
(0.700443 0.411571 -5.03854e-22)
(0.731192 0.476433 5.06919e-21)
(0.727494 0.453036 -9.28673e-22)
(0.750323 0.477913 -5.56918e-24)
(0.709491 0.451668 1.20863e-22)
(-0.241892 0.34491 -1.12696e-20)
(-0.222724 0.403781 -2.86454e-20)
(-0.200452 0.459246 5.07133e-21)
(-0.17552 0.509677 2.3092e-20)
(-0.148258 0.5536 -1.06391e-20)
(-0.118656 0.589604 1.04839e-21)
(-0.08625 0.616228 -1.5345e-20)
(-0.0500313 0.631464 1.19363e-20)
(-0.00857934 0.633386 1.35103e-20)
(0.0394199 0.619559 1.03724e-20)
(0.0947057 0.588042 -3.09215e-20)
(0.157049 0.537882 4.33946e-20)
(0.225073 0.469593 -2.19352e-20)
(0.296496 0.385189 2.31452e-20)
(0.368487 0.287773 -1.59139e-20)
(0.438087 0.180745 2.90063e-20)
(0.50288 0.0666698 4.59717e-21)
(0.561817 -0.0531095 1.44221e-20)
(0.615358 -0.176963 -2.17465e-20)
(0.664103 -0.30009 -2.88696e-20)
(0.707266 -0.413741 7.1456e-21)
(0.742762 -0.508266 1.19277e-20)
(0.768734 -0.577367 1.20381e-20)
(0.784603 -0.620027 -8.15733e-21)
(0.791159 -0.639629 -5.78753e-21)
(0.789867 -0.641774 -1.34833e-20)
(0.782423 -0.632452 7.78018e-21)
(0.769971 -0.616866 -1.58925e-21)
(0.753586 -0.598719 -2.94595e-21)
(0.733682 -0.580312 6.84338e-22)
(0.709638 -0.565144 -7.06933e-21)
(0.678526 -0.55698 -2.54255e-21)
(0.64032 -0.553727 -2.31377e-21)
(0.598997 -0.540301 4.19305e-21)
(0.565334 -0.493717 -5.25774e-21)
(0.546316 -0.398586 2.03389e-21)
(0.547927 -0.255187 9.24784e-22)
(0.56441 -0.0874288 -6.60343e-22)
(0.596996 0.0877394 4.18479e-21)
(0.630854 0.228825 -1.39328e-21)
(0.672085 0.354155 -3.28117e-21)
(0.695418 0.40803 -4.88493e-21)
(0.7269 0.474537 -6.94569e-21)
(0.724095 0.451957 -1.55671e-21)
(0.747422 0.478778 -1.43817e-21)
(0.707047 0.454144 -2.76869e-22)
(-0.246853 0.335398 -3.9876e-21)
(-0.227617 0.393483 -1.02503e-20)
(-0.204937 0.448421 7.51043e-21)
(-0.179171 0.498544 -5.4181e-22)
(-0.150558 0.542288 8.02114e-21)
(-0.11901 0.578118 -7.88685e-21)
(-0.0840722 0.604367 8.96036e-21)
(-0.0447768 0.619029 -4.41127e-21)
(0.000142198 0.620108 1.24236e-21)
(0.051702 0.605284 -7.33468e-21)
(0.110354 0.572819 1.44096e-20)
(0.175598 0.521992 5.40436e-21)
(0.245888 0.453505 -5.9161e-21)
(0.318875 0.369476 -4.23932e-20)
(0.391729 0.273029 1.05808e-20)
(0.46155 0.167478 -7.87433e-21)
(0.526066 0.0551495 1.77673e-20)
(0.584471 -0.0629602 -3.06066e-20)
(0.637416 -0.185443 3.81203e-20)
(0.685468 -0.307413 -3.13148e-21)
(0.727614 -0.419849 -4.34523e-21)
(0.761593 -0.512945 -9.28261e-21)
(0.78559 -0.580477 -1.09179e-21)
(0.799226 -0.621609 -8.36907e-21)
(0.803523 -0.639871 1.26872e-20)
(0.800115 -0.640925 5.66335e-21)
(0.7908 -0.63073 5.71335e-21)
(0.776755 -0.614434 -1.11018e-20)
(0.759016 -0.595704 2.01127e-21)
(0.737998 -0.576687 7.31638e-22)
(0.713178 -0.560612 1.44398e-21)
(0.681569 -0.551309 2.93475e-21)
(0.642791 -0.547381 1.33632e-21)
(0.60043 -0.534598 3.40955e-21)
(0.565161 -0.490188 4.98319e-21)
(0.544342 -0.398053 -7.11928e-21)
(0.544327 -0.257521 1.23267e-20)
(0.559688 -0.0918413 1.49656e-21)
(0.591577 0.0822573 -1.35523e-20)
(0.625301 0.223222 9.67325e-21)
(0.666692 0.349452 1.11927e-21)
(0.69058 0.404385 6.99996e-21)
(0.722776 0.472536 1.39948e-21)
(0.720837 0.450793 1.31245e-21)
(0.744657 0.479586 7.03044e-22)
(0.704741 0.456591 5.95595e-22)
(-0.22959 0.382846 4.87491e-20)
(-0.206529 0.437155 -6.42338e-20)
(-0.179951 0.486856 -2.4548e-20)
(-0.150015 0.530304 6.70013e-20)
(-0.11659 0.565877 -1.14272e-23)
(-0.0792259 0.5916 -2.59789e-20)
(-0.0370137 0.60569 2.0017e-20)
(0.0111237 0.605966 -7.63848e-21)
(0.0659305 0.590266 -1.71993e-20)
(0.127589 0.557036 8.095e-21)
(0.195362 0.505759 -3.13296e-20)
(0.267564 0.437294 5.02836e-20)
(0.341798 0.353844 -1.79877e-20)
(0.415244 0.258539 -2.64624e-21)
(0.485072 0.154595 1.78419e-20)
(0.549175 0.0440905 -8.79245e-21)
(0.606997 -0.0723214 -2.59745e-22)
(0.659363 -0.193432 -1.41247e-20)
(0.706759 -0.314233 1.10347e-20)
(0.747906 -0.425428 2.01583e-20)
(0.780366 -0.517077 -1.5856e-20)
(0.802379 -0.583051 1.87078e-20)
(0.813784 -0.622701 -5.62978e-21)
(0.815838 -0.639693 -1.87832e-20)
(0.810339 -0.63973 1.30614e-20)
(0.799183 -0.628733 -1.29683e-21)
(0.783577 -0.611788 1.93619e-21)
(0.764515 -0.592522 -5.73394e-21)
(0.742407 -0.57295 7.85592e-21)
(0.716827 -0.556021 -3.61084e-21)
(0.684757 -0.545591 -5.20729e-22)
(0.645473 -0.54094 -5.09094e-21)
(0.60215 -0.528725 -5.86002e-21)
(0.565329 -0.486455 -1.11028e-21)
(0.542725 -0.397349 2.22696e-21)
(0.541069 -0.259754 -1.54796e-20)
(0.55529 -0.0962264 -5.56875e-21)
(0.586451 0.0767515 8.34862e-21)
(0.620008 0.217556 -2.42471e-21)
(0.661517 0.344671 4.38125e-21)
(0.685931 0.400639 -6.6773e-21)
(0.718822 0.470434 -2.71624e-21)
(0.717723 0.449546 2.26911e-21)
(0.742028 0.480337 1.00704e-21)
(0.702577 0.459008 -4.56364e-22)
(-0.228572 0.371896 -1.37815e-20)
(-0.205162 0.425473 -7.0001e-21)
(-0.177811 0.474639 -9.81014e-21)
(-0.146599 0.517691 2.86047e-20)
(-0.111412 0.552878 2.60167e-20)
(-0.071764 0.578028 -4.16348e-20)
(-0.0268192 0.591531 6.33712e-20)
(0.0242527 0.59106 -2.09528e-20)
(0.0819734 0.574611 -2.23583e-20)
(0.146271 0.540798 1.32562e-20)
(0.216206 0.489281 7.19143e-21)
(0.289978 0.421047 -5.16588e-21)
(0.365153 0.338361 -2.3649e-20)
(0.438935 0.244351 1.22875e-20)
(0.508572 0.142126 1.98411e-20)
(0.572144 0.0335026 1.49555e-20)
(0.629352 -0.0811989 -7.56247e-21)
(0.681169 -0.200941 -5.26331e-21)
(0.727951 -0.320563 -1.85155e-21)
(0.768117 -0.430487 -1.10516e-20)
(0.799053 -0.520669 4.04827e-21)
(0.819078 -0.585098 -2.2897e-20)
(0.828258 -0.623312 2.84099e-20)
(0.82809 -0.639101 -3.49528e-21)
(0.820529 -0.638198 -6.0466e-21)
(0.807564 -0.626471 -9.37812e-21)
(0.79043 -0.608936 1.26733e-21)
(0.770079 -0.589183 -1.48977e-21)
(0.746904 -0.569106 6.72652e-22)
(0.720582 -0.551377 3.68235e-21)
(0.688083 -0.539837 -2.98019e-21)
(0.648358 -0.534417 5.38082e-21)
(0.60415 -0.522693 1.45586e-21)
(0.565836 -0.482519 -5.47484e-22)
(0.541464 -0.396468 5.27588e-21)
(0.538155 -0.261878 2.02423e-20)
(0.551214 -0.100577 3.4812e-21)
(0.581616 0.0712284 9.13969e-21)
(0.614972 0.211834 3.86067e-21)
(0.656562 0.339814 -6.88932e-21)
(0.681471 0.396795 2.35296e-21)
(0.715039 0.468232 6.41026e-21)
(0.714752 0.448217 -3.54255e-21)
(0.73954 0.48103 -5.18866e-22)
(0.700559 0.461396 -6.42216e-23)
(-0.224528 0.360665 6.19925e-21)
(-0.200809 0.413407 4.48173e-20)
(-0.172735 0.461929 -2.43001e-20)
(-0.140332 0.504526 -7.63423e-21)
(-0.103509 0.539122 -1.24904e-21)
(-0.0617494 0.563754 -1.27927e-20)
(-0.0143053 0.576642 5.96871e-20)
(0.0394016 0.575494 -3.92022e-20)
(0.0996914 0.558429 1.01035e-20)
(0.166262 0.524211 -3.90511e-20)
(0.237999 0.472651 6.60475e-21)
(0.313009 0.404841 2.89714e-20)
(0.388835 0.323089 -1.1914e-20)
(0.46271 0.23051 -9.12882e-21)
(0.531978 0.130094 1.80399e-20)
(0.59492 0.0233907 -1.64606e-20)
(0.6515 -0.0896019 -1.55947e-21)
(0.702808 -0.207987 2.05976e-20)
(0.74902 -0.326417 -1.56401e-20)
(0.788221 -0.435037 3.32387e-20)
(0.817629 -0.523728 -1.8545e-21)
(0.835662 -0.586624 -3.17706e-21)
(0.842628 -0.623452 -1.22212e-20)
(0.840262 -0.638107 -9.61192e-21)
(0.830674 -0.636338 3.93756e-21)
(0.815934 -0.623953 4.97996e-21)
(0.797308 -0.605886 5.33925e-21)
(0.775704 -0.585692 3.98969e-21)
(0.751487 -0.565163 -9.11171e-22)
(0.724438 -0.546689 -2.35173e-21)
(0.691542 -0.534061 2.10269e-21)
(0.651438 -0.527827 1.05409e-21)
(0.606424 -0.516513 7.5099e-22)
(0.566679 -0.478384 -1.43961e-21)
(0.540558 -0.395405 1.03421e-21)
(0.535584 -0.263888 -3.84225e-21)
(0.547459 -0.104887 -2.35175e-21)
(0.57707 0.0656946 -8.05711e-21)
(0.610194 0.206059 -4.76916e-21)
(0.651825 0.334888 4.96829e-21)
(0.677203 0.392856 6.0828e-21)
(0.711428 0.465933 -5.38063e-21)
(0.711927 0.446807 1.85684e-21)
(0.737193 0.481665 1.14177e-21)
(0.69869 0.463752 3.26547e-22)
(-0.21746 0.349185 -5.15662e-21)
(-0.193481 0.400994 -4.01518e-21)
(-0.164739 0.448774 -3.75753e-20)
(-0.131275 0.490862 5.38734e-20)
(-0.0929659 0.524693 -4.00184e-20)
(-0.0492701 0.548838 7.61145e-20)
(0.000401985 0.561119 -4.51581e-20)
(0.0564308 0.559374 3.94846e-20)
(0.118939 0.541826 -1.85133e-20)
(0.18742 0.507375 -1.04827e-20)
(0.26061 0.45596 -2.37538e-20)
(0.336542 0.38875 5.86716e-20)
(0.412743 0.308085 -3.83069e-21)
(0.486486 0.217053 -1.95575e-20)
(0.555224 0.11852 1.82264e-20)
(0.617456 0.0137565 1.34509e-22)
(0.673411 -0.0975426 -4.12892e-20)
(0.724262 -0.214586 -1.36009e-20)
(0.769948 -0.331808 2.37428e-21)
(0.808197 -0.439086 -3.64498e-21)
(0.836069 -0.526263 -9.95023e-21)
(0.852108 -0.587639 1.51938e-20)
(0.856876 -0.62313 -3.11506e-22)
(0.852341 -0.636722 -7.6057e-21)
(0.840764 -0.634162 -1.99838e-21)
(0.824287 -0.621189 -1.3508e-21)
(0.804204 -0.602649 -1.95427e-21)
(0.781384 -0.582059 -1.0101e-21)
(0.756152 -0.561125 2.05828e-21)
(0.728392 -0.541964 2.40056e-21)
(0.695128 -0.528273 -2.2186e-21)
(0.654705 -0.521184 -3.41467e-21)
(0.608966 -0.510196 5.86063e-21)
(0.567853 -0.474054 -3.90628e-21)
(0.540007 -0.394158 -8.71102e-21)
(0.533354 -0.265776 -3.32188e-21)
(0.544025 -0.109148 -4.35603e-21)
(0.572811 0.0601565 -6.72516e-21)
(0.605671 0.200238 -5.05488e-21)
(0.647306 0.329895 -7.18532e-22)
(0.673125 0.388824 -8.23796e-21)
(0.707989 0.46354 4.86085e-21)
(0.709249 0.445318 2.86656e-23)
(0.734989 0.482241 -7.6624e-23)
(0.696973 0.466075 -9.55193e-22)
(-0.207417 0.337492 3.14237e-20)
(-0.183229 0.388276 2.82506e-20)
(-0.15388 0.435253 -8.29443e-21)
(-0.119505 0.476665 -3.99518e-20)
(-0.0798895 0.509745 6.61449e-21)
(-0.0344461 0.533359 -2.72448e-20)
(0.017163 0.545059 5.14023e-20)
(0.0751916 0.542803 -4.27237e-20)
(0.139568 0.524907 1.82946e-20)
(0.209605 0.490387 2.42376e-20)
(0.283914 0.439288 -2.88286e-20)
(0.360466 0.37284 3.40929e-21)
(0.436784 0.293399 -6.37198e-20)
(0.510188 0.204016 5.37014e-20)
(0.578252 0.107419 6.12888e-20)
(0.639715 0.004603 -6.08466e-20)
(0.695065 -0.105036 -2.64355e-20)
(0.745516 -0.220756 9.72113e-20)
(0.790719 -0.33675 -5.29565e-20)
(0.828021 -0.442645 -4.07201e-20)
(0.854349 -0.528281 -8.94388e-21)
(0.868393 -0.588152 6.69714e-21)
(0.870981 -0.622358 -4.02686e-21)
(0.864313 -0.634957 -6.92641e-21)
(0.850787 -0.63168 5.02944e-22)
(0.832615 -0.618188 6.75503e-21)
(0.811113 -0.599232 -4.27629e-21)
(0.787114 -0.57829 1.94119e-21)
(0.760895 -0.556999 -6.69548e-21)
(0.732441 -0.537208 1.35792e-21)
(0.698833 -0.522485 1.68491e-21)
(0.658152 -0.514502 1.37317e-21)
(0.611766 -0.503755 -9.11683e-22)
(0.569353 -0.469531 3.5182e-21)
(0.539807 -0.392721 -5.72732e-21)
(0.531465 -0.267535 6.56614e-21)
(0.540908 -0.113353 7.52436e-21)
(0.568838 0.0546209 8.91492e-21)
(0.601401 0.194375 1.46116e-21)
(0.643005 0.324842 -4.59475e-21)
(0.669239 0.384702 3.08769e-21)
(0.704724 0.461055 4.27078e-22)
(0.706718 0.443751 1.30801e-21)
(0.732931 0.482758 -2.16769e-21)
(0.695412 0.468366 1.38201e-22)
(-0.194486 0.32562 1.0479e-22)
(-0.170136 0.375309 -2.56015e-20)
(-0.140279 0.421567 -1.31452e-20)
(-0.105133 0.461828 -1.32923e-20)
(-0.0643879 0.494381 -5.96349e-21)
(-0.0174328 0.517408 -1.40008e-20)
(0.0358243 0.528565 1.4305e-22)
(0.0955277 0.525886 4.83814e-21)
(0.161427 0.50777 -1.81951e-20)
(0.232678 0.473336 3.89301e-20)
(0.307786 0.422712 -3.05574e-20)
(0.384675 0.357174 4.45748e-21)
(0.46087 0.279076 3.34661e-20)
(0.533747 0.191426 -6.38442e-20)
(0.601016 0.0968008 5.66092e-20)
(0.661668 -0.00407789 -3.739e-20)
(0.716447 -0.112099 6.76208e-20)
(0.766563 -0.226516 -8.99781e-21)
(0.81132 -0.341256 -2.13644e-20)
(0.847675 -0.445722 -7.75377e-21)
(0.872445 -0.529793 7.87245e-20)
(0.884497 -0.588174 -3.92977e-20)
(0.884928 -0.621146 1.47122e-20)
(0.876165 -0.632824 -3.03074e-21)
(0.860735 -0.628903 -5.22516e-22)
(0.84091 -0.61496 2.91167e-21)
(0.818029 -0.595646 -3.27496e-21)
(0.792889 -0.574394 6.06088e-21)
(0.765714 -0.55279 6.94834e-21)
(0.736578 -0.532427 -1.55786e-21)
(0.702652 -0.516706 -8.72289e-21)
(0.661769 -0.507797 6.59487e-21)
(0.614817 -0.497201 -3.40352e-21)
(0.571174 -0.464822 -1.1787e-20)
(0.539956 -0.391093 9.8396e-21)
(0.529914 -0.269157 -9.21689e-21)
(0.538107 -0.117494 -7.7355e-21)
(0.565147 0.0490945 -5.84215e-21)
(0.597382 0.188478 -6.10745e-21)
(0.638919 0.319731 5.77339e-21)
(0.665543 0.380493 1.87762e-21)
(0.701631 0.45848 -4.8795e-21)
(0.704335 0.442108 -2.04267e-21)
(0.731019 0.483214 1.42137e-21)
(0.694009 0.470623 5.17175e-22)
(-0.178798 0.313608 -6.4252e-20)
(-0.154285 0.362173 5.8545e-20)
(-0.124119 0.407564 -4.40352e-20)
(-0.0883539 0.446614 -1.74464e-20)
(-0.0465648 0.47866 3.67898e-20)
(0.00160722 0.501075 4.27385e-20)
(0.0562214 0.511737 -5.94066e-20)
(0.117277 0.508723 4.79441e-20)
(0.184363 0.49051 -4.39268e-20)
(0.256502 0.456306 6.03506e-21)
(0.332109 0.406303 4.33405e-20)
(0.409068 0.341805 4.45138e-21)
(0.484919 0.265156 -7.30676e-21)
(0.5571 0.179304 4.60554e-21)
(0.623472 0.0866695 5.78209e-21)
(0.683294 -0.0123032 -4.13245e-22)
(0.737551 -0.118752 1.07601e-20)
(0.787398 -0.231883 -2.00799e-20)
(0.831739 -0.345341 -7.61402e-21)
(0.867137 -0.448326 -1.80749e-20)
(0.890333 -0.530805 3.68665e-21)
(0.900397 -0.587716 -6.16737e-21)
(0.898699 -0.619508 -4.44007e-21)
(0.887883 -0.630335 1.533e-21)
(0.870598 -0.625842 1.53704e-20)
(0.849165 -0.611515 -4.18693e-21)
(0.824945 -0.591898 -1.21703e-21)
(0.798704 -0.570378 3.85368e-21)
(0.770602 -0.548504 -1.23009e-21)
(0.740802 -0.527627 -1.62688e-21)
(0.706578 -0.510948 -4.64039e-21)
(0.665546 -0.501083 5.71717e-21)
(0.618109 -0.490549 -1.87785e-21)
(0.573309 -0.459932 7.5925e-21)
(0.540452 -0.38927 -3.9218e-22)
(0.528699 -0.270635 7.87607e-21)
(0.535618 -0.121565 8.86857e-21)
(0.561734 0.043584 -5.07615e-21)
(0.593611 0.18255 5.27419e-21)
(0.635047 0.314568 1.63144e-21)
(0.662037 0.376199 2.91541e-21)
(0.69871 0.455818 2.48137e-21)
(0.702101 0.440389 -6.09667e-22)
(0.729255 0.483608 1.48426e-21)
(0.692768 0.472844 -1.55152e-22)
(-0.160518 0.301512 8.06466e-21)
(-0.1359 0.349018 9.00117e-21)
(-0.105528 0.392982 -1.47623e-20)
(-0.0692797 0.431313 4.8487e-20)
(-0.0266381 0.46265 -5.13054e-20)
(0.0224966 0.484455 3.01504e-20)
(0.078181 0.49467 -3.756e-20)
(0.140274 0.491408 1.85411e-20)
(0.208226 0.473216 3.08099e-21)
(0.280944 0.439373 -2.27466e-20)
(0.356765 0.390123 3.11091e-21)
(0.43355 0.326781 1.20428e-20)
(0.508855 0.251671 5.14321e-21)
(0.580192 0.16767 -2.18253e-21)
(0.645588 0.077026 -3.06005e-20)
(0.70458 -0.0200855 -3.51896e-20)
(0.758378 -0.125014 4.09733e-20)
(0.80802 -0.236877 -4.37322e-20)
(0.851966 -0.349014 -8.02523e-21)
(0.88639 -0.450464 4.94603e-20)
(0.907992 -0.531328 3.50111e-20)
(0.916073 -0.586789 -3.51117e-20)
(0.912279 -0.617457 2.61084e-20)
(0.899457 -0.627503 -2.15793e-21)
(0.880368 -0.622509 -3.8002e-21)
(0.857375 -0.607863 5.85264e-21)
(0.831856 -0.587998 -2.65102e-21)
(0.804553 -0.56625 -5.69197e-21)
(0.775558 -0.544147 6.2011e-21)
(0.745107 -0.522812 2.53461e-22)
(0.710603 -0.505218 1.05633e-20)
(0.669475 -0.494373 -2.88215e-21)
(0.621631 -0.483811 -4.20556e-22)
(0.575749 -0.454868 -3.80101e-21)
(0.541288 -0.387249 -5.7021e-21)
(0.527819 -0.271963 -3.6614e-21)
(0.533438 -0.125557 -2.44152e-21)
(0.558596 0.0380963 8.26195e-21)
(0.590085 0.176597 8.36623e-21)
(0.631387 0.309355 -6.93225e-21)
(0.658721 0.371822 3.92626e-22)
(0.695961 0.453071 -1.68609e-21)
(0.700015 0.438597 2.30061e-21)
(0.727639 0.483939 -2.66926e-21)
(0.69169 0.475028 -1.58625e-22)
(-0.139815 0.289401 1.04286e-20)
(-0.115242 0.335669 -4.21699e-21)
(-0.0847402 0.378187 1.39565e-20)
(-0.0480484 0.415865 -2.12742e-21)
(-0.0048119 0.446425 -2.42232e-20)
(0.0450473 0.467641 3.13139e-20)
(0.101522 0.477458 -1.17289e-20)
(0.164351 0.47403 7.62811e-21)
(0.232864 0.455967 -4.69628e-20)
(0.305869 0.422607 3.09314e-20)
(0.381644 0.374228 -3.28751e-20)
(0.45803 0.312146 2.55433e-20)
(0.532607 0.238649 5.54415e-22)
(0.602972 0.156535 1.68867e-20)
(0.667335 0.067869 5.2286e-21)
(0.72552 -0.0274396 3.2853e-20)
(0.778932 -0.130908 6.10838e-21)
(0.828433 -0.241514 -1.72549e-20)
(0.871992 -0.352286 1.97387e-20)
(0.905413 -0.452146 -1.24961e-20)
(0.925401 -0.53137 -1.45709e-20)
(0.931507 -0.585405 3.18892e-20)
(0.925651 -0.615006 -1.13676e-20)
(0.910874 -0.624342 -2.38592e-20)
(0.890034 -0.618916 -1.00539e-20)
(0.865531 -0.604014 -3.68081e-21)
(0.838757 -0.583955 4.18104e-21)
(0.810432 -0.562018 1.66765e-21)
(0.780575 -0.539723 -8.36087e-21)
(0.74949 -0.517988 4.72207e-21)
(0.714721 -0.499526 -8.83934e-21)
(0.673545 -0.487681 2.69525e-21)
(0.625375 -0.477 -5.7136e-21)
(0.578487 -0.449636 3.48488e-21)
(0.542463 -0.385029 -8.05162e-22)
(0.527269 -0.273132 9.44048e-21)
(0.531563 -0.129461 -2.52662e-21)
(0.555729 0.0326382 -3.35982e-21)
(0.5868 0.170624 -7.73021e-21)
(0.627937 0.304098 9.9531e-22)
(0.655592 0.367366 -1.68576e-22)
(0.693383 0.450242 2.61138e-21)
(0.698078 0.436731 4.18126e-21)
(0.726172 0.484207 -6.52116e-22)
(0.690778 0.477175 -1.24242e-22)
(-0.11699 0.277273 1.86624e-20)
(-0.0925072 0.321956 2.37994e-20)
(-0.061919 0.363487 -4.76882e-21)
(-0.0249209 0.400283 -1.34154e-20)
(0.0187073 0.430067 -4.46668e-21)
(0.0690609 0.450717 4.25212e-21)
(0.126059 0.460186 2.06126e-20)
(0.189339 0.456673 -5.06456e-20)
(0.258127 0.43884 -1.25157e-20)
(0.33115 0.406072 2.07321e-20)
(0.406637 0.358668 4.12678e-20)
(0.482418 0.297935 -1.00677e-20)
(0.556109 0.226112 1.02204e-20)
(0.625399 0.145905 -4.99301e-20)
(0.688694 0.0591908 -3.38332e-20)
(0.746115 -0.0343847 3.2914e-20)
(0.799226 -0.136454 -2.39059e-20)
(0.848642 -0.245809 4.32451e-20)
(0.891808 -0.355165 5.7756e-20)
(0.924188 -0.453377 -4.93386e-20)
(0.942536 -0.530942 1.05861e-20)
(0.946679 -0.583577 -1.09313e-20)
(0.938802 -0.61217 4.77776e-20)