/*--------------------------------*- C++ -*----------------------------------*\
  =========                 |
  \\      /  F ield         | OpenFOAM: The Open Source CFD Toolbox
   \\    /   O peration     | Website:  https://openfoam.org
    \\  /    A nd           | Version:  7
     \\/     M anipulation  |
\*---------------------------------------------------------------------------*/
FoamFile
{
    version     2.0;
    format      ascii;
    class       volScalarField;
    location    "15";
    object      p;
}
// * * * * * * * * * * * * * * * * * * * * * * * * * * * * * * * * * * * * * //

dimensions      [0 2 -2 0 0 0 0];

internalField   nonuniform List<scalar> 
8500
(
0.036631
0.0400153
0.0467653
0.0438078
0.0507049
0.0569386
0.0483455
0.0550804
0.0614501
0.067113
0.0602844
0.0664251
0.0722334
0.0772551
0.0655741
0.0723007
0.0778321
0.0830483
0.0873402
0.0709388
0.0783292
0.0843827
0.0892998
0.0938889
0.0972749
0.084472
0.0911566
0.0965271
0.100842
0.104714
0.106781
0.0907119
0.0980764
0.104046
0.108744
0.112489
0.115455
0.115574
0.105119
0.111734
0.116987
0.121044
0.124244
0.126112
0.124208
0.112247
0.119566
0.125424
0.129965
0.133401
0.136011
0.136647
0.135217
0.11941
0.127521
0.134031
0.139126
0.142955
0.145757
0.14773
0.147633
0.14679
0.135554
0.142797
0.14849
0.152816
0.155932
0.158082
0.1594
0.158727
0.157922
0.143605
0.151683
0.15805
0.162919
0.166473
0.16887
0.170355
0.171026
0.16983
0.168818
0.160628
0.16777
0.173256
0.177296
0.180073
0.181747
0.182559
0.182585
0.180868
0.179526
0.169566
0.177587
0.183788
0.188388
0.191596
0.193592
0.19454
0.194673
0.194055
0.191803
0.190055
0.187433
0.194454
0.19971
0.203422
0.205796
0.20701
0.207228
0.206678
0.205413
0.202614
0.200413
0.205181
0.211199
0.21551
0.218333
0.219872
0.220304
0.219791
0.218555
0.216641
0.213286
0.210601
0.215898
0.222777
0.227794
0.231161
0.233096
0.233802
0.233453
0.232209
0.230287
0.227723
0.223804
0.220617
0.234368
0.240193
0.244211
0.246637
0.247687
0.247563
0.246435
0.244462
0.241855
0.238643
0.234159
0.230454
0.245926
0.252622
0.257396
0.26042
0.26191
0.262082
0.261132
0.25923
0.256533
0.253243
0.249385
0.244336
0.240106
0.265025
0.270627
0.274356
0.276394
0.276956
0.276256
0.274488
0.271819
0.268402
0.264435
0.259935
0.254325
0.249565
0.283833
0.288348
0.291044
0.292106
0.291749
0.290186
0.287609
0.28418
0.280051
0.275413
0.270279
0.264114
0.25882
0.297023
0.302315
0.305756
0.30743
0.307527
0.306264
0.30385
0.300473
0.296295
0.291463
0.286163
0.280402
0.273689
0.267862
0.316244
0.320436
0.322817
0.323484
0.322632
0.320476
0.317223
0.31306
0.308144
0.302621
0.296668
0.290291
0.28304
0.276681
0.335054
0.338164
0.339502
0.339179
0.337394
0.334361
0.330285
0.325349
0.319708
0.313506
0.306913
0.299932
0.292153
0.285266
0.349717
0.353418
0.355464
0.355779
0.354486
0.351786
0.347894
0.343012
0.33732
0.33097
0.324103
0.316882
0.309311
0.301016
0.293607
0.368658
0.371301
0.372305
0.37162
0.369378
0.365785
0.361054
0.355385
0.348954
0.341912
0.334395
0.326561
0.318414
0.309616
0.301693
0.387061
0.388669
0.388655
0.386994
0.383829
0.379366
0.373817
0.367381
0.360231
0.352515
0.344366
0.335935
0.327228
0.317942
0.309514
0.40489
0.405489
0.404485
0.401876
0.397813
0.392504
0.386162
0.378982
0.371133
0.362762
0.354
0.344991
0.335741
0.325982
0.317058
0.421192
0.42211
0.421729
0.419765
0.416237
0.411304
0.405177
0.398067
0.390166
0.381643
0.372638
0.363282
0.353713
0.343939
0.333723
0.324316
0.4387
0.438687
0.437358
0.434466
0.43005
0.424278
0.417362
0.409512
0.400916
0.391741
0.382126
0.372198
0.362089
0.35181
0.341154
0.331278
0.455501
0.454589
0.452346
0.448562
0.443292
0.436713
0.429039
0.420476
0.411213
0.401412
0.391211
0.380733
0.370105
0.359342
0.348265
0.337935
0.471561
0.469786
0.466665
0.462025
0.455938
0.448587
0.440186
0.430941
0.421039
0.41064
0.399878
0.388873
0.37775
0.366524
0.355044
0.344276
0.486849
0.484247
0.480289
0.474832
0.467964
0.459877
0.450783
0.44089
0.430379
0.419409
0.408112
0.396607
0.38501
0.373344
0.361481
0.350293
0.503882
0.501334
0.497945
0.49319
0.486957
0.47935
0.470563
0.460813
0.450303
0.439215
0.427704
0.4159
0.40392
0.391875
0.379792
0.367566
0.355977
0.518226
0.514987
0.510854
0.505346
0.498379
0.490073
0.480627
0.470257
0.459166
0.447533
0.435511
0.423229
0.410801
0.398334
0.385857
0.373289
0.361321
0.531672
0.527782
0.522947
0.516731
0.509077
0.500114
0.490049
0.479098
0.467462
0.455318
0.442818
0.430088
0.417239
0.404376
0.391531
0.378643
0.366317
0.544191
0.539692
0.534202
0.527326
0.51903
0.509456
0.498814
0.487321
0.475177
0.462557
0.449611
0.436464
0.423224
0.409991
0.396804
0.383618
0.370956
0.555758
0.550694
0.544598
0.53711
0.52822
0.518081
0.506905
0.494912
0.482298
0.469238
0.45588
0.442346
0.428745
0.415172
0.401668
0.388207
0.375234
0.56635
0.560767
0.554113
0.546064
0.536629
0.525972
0.514308
0.501856
0.488812
0.475349
0.461613
0.447726
0.433794
0.419908
0.406115
0.392402
0.379142
0.575945
0.56989
0.56273
0.554172
0.544243
0.533116
0.52101
0.508141
0.494708
0.48088
0.466802
0.452595
0.438362
0.424193
0.410138
0.396197
0.382677
0.584524
0.578045
0.570432
0.561418
0.551048
0.5395
0.526997
0.513757
0.499975
0.48582
0.471436
0.456943
0.442441
0.42802
0.41373
0.399585
0.385831
0.592069
0.585217
0.577204
0.567789
0.557029
0.545112
0.53226
0.518693
0.504604
0.490162
0.475509
0.460764
0.446026
0.431382
0.416886
0.402563
0.388602
0.604975
0.598565
0.59139
0.583033
0.573272
0.562177
0.549941
0.536789
0.52294
0.508587
0.493898
0.479013
0.464051
0.44911
0.434274
0.419601
0.405123
0.390985
0.610635
0.603998
0.596553
0.587908
0.577857
0.566482
0.553979
0.540576
0.526491
0.511917
0.497021
0.481942
0.466798
0.451687
0.436691
0.42187
0.407263
0.392975
0.615177
0.608358
0.600696
0.591819
0.581536
0.569935
0.557218
0.543614
0.529339
0.514588
0.499526
0.484291
0.469002
0.453755
0.43863
0.42369
0.40898
0.394572
0.618591
0.611636
0.603811
0.594759
0.584301
0.572531
0.559653
0.545897
0.53148
0.516596
0.501408
0.486057
0.470658
0.455308
0.440087
0.425057
0.410269
0.395771
0.620872
0.613825
0.60589
0.596722
0.586147
0.574264
0.561279
0.547421
0.532909
0.517936
0.502665
0.487236
0.471764
0.456345
0.441059
0.42597
0.41113
0.396571
0.622013
0.61492
0.606931
0.597705
0.587071
0.575131
0.562092
0.548184
0.533625
0.518607
0.503294
0.487825
0.472317
0.456864
0.441546
0.426427
0.411561
0.396972
0.622013
0.61492
0.606931
0.597704
0.587071
0.575131
0.562092
0.548184
0.533625
0.518607
0.503294
0.487825
0.472317
0.456864
0.441546
0.426427
0.411561
0.396972
0.620872
0.613824
0.60589
0.596722
0.586147
0.574264
0.561279
0.547421
0.532909
0.517936
0.502665
0.487236
0.471764
0.456345
0.441059
0.42597
0.41113
0.396571
0.618591
0.611636
0.603811
0.594759
0.5843
0.572531
0.559653
0.545897
0.53148
0.516595
0.501408
0.486057
0.470658
0.455308
0.440087
0.425057
0.410269
0.395771
0.615176
0.608358
0.600696
0.591819
0.581535
0.569935
0.557218
0.543614
0.529339
0.514588
0.499526
0.484291
0.469002
0.453754
0.43863
0.42369
0.40898
0.394572
0.610634
0.603998
0.596553
0.587908
0.577857
0.566482
0.553979
0.540576
0.526491
0.511917
0.497021
0.481942
0.466798
0.451687
0.436691
0.42187
0.407263
0.392975
0.604975
0.598564
0.59139
0.583033
0.573272
0.562177
0.549941
0.536789
0.52294
0.508587
0.493898
0.479013
0.46405
0.449109
0.434274
0.419601
0.405123
0.390985
0.592069
0.585216
0.577204
0.567789
0.557029
0.545112
0.53226
0.518693
0.504604
0.490162
0.475509
0.460763
0.446026
0.431382
0.416886
0.402562
0.388602
0.584524
0.578045
0.570432
0.561418
0.551047
0.5395
0.526997
0.513757
0.499975
0.48582
0.471436
0.456943
0.442441
0.42802
0.41373
0.399585
0.385831
0.575945
0.56989
0.56273
0.554172
0.544243
0.533116
0.521009
0.508141
0.494708
0.48088
0.466802
0.452594
0.438361
0.424193
0.410138
0.396197
0.382676
0.56635
0.560767
0.554113
0.546064
0.536629
0.525972
0.514308
0.501855
0.488812
0.475349
0.461613
0.447726
0.433793
0.419908
0.406115
0.392402
0.379142
0.555758
0.550694
0.544597
0.537109
0.528219
0.51808
0.506905
0.494911
0.482298
0.469238
0.45588
0.442346
0.428744
0.415171
0.401668
0.388207
0.375233
0.54419
0.539692
0.534202
0.527326
0.519029
0.509456
0.498814
0.487321
0.475177
0.462557
0.449611
0.436463
0.423223
0.409991
0.396804
0.383618
0.370956
0.531671
0.527781
0.522947
0.516731
0.509076
0.500114
0.490049
0.479098
0.467462
0.455318
0.442817
0.430087
0.417239
0.404376
0.391531
0.378643
0.366316
0.518226
0.514987
0.510853
0.505345
0.498379
0.490072
0.480626
0.470256
0.459165
0.447532
0.435511
0.423229
0.4108
0.398334
0.385857
0.373289
0.361321
0.503881
0.501333
0.497945
0.49319
0.486956
0.479349
0.470562
0.460812
0.450303
0.439214
0.427703
0.4159
0.403919
0.391875
0.379791
0.367565
0.355977
0.486848
0.484246
0.480288
0.474831
0.467964
0.459876
0.450783
0.440889
0.430378
0.419408
0.408111
0.396606
0.38501
0.373343
0.36148
0.350293
0.47156
0.469785
0.466665
0.462025
0.455937
0.448586
0.440185
0.430941
0.421039
0.410639
0.399877
0.388873
0.377749
0.366523
0.355043
0.344275
0.4555
0.454588
0.452345
0.448561
0.443292
0.436713
0.429038
0.420476
0.411212
0.401412
0.391211
0.380732
0.370105
0.359342
0.348264
0.337934
0.438699
0.438686
0.437357
0.434466
0.43005
0.424278
0.417362
0.409511
0.400915
0.391741
0.382126
0.372197
0.362088
0.351809
0.341154
0.331278
0.421191
0.422109
0.421728
0.419764
0.416236
0.411303
0.405176
0.398066
0.390166
0.381642
0.372638
0.363282
0.353713
0.343938
0.333722
0.324316
0.404889
0.405488
0.404485
0.401875
0.397812
0.392503
0.386161
0.378981
0.371133
0.362762
0.353999
0.34499
0.33574
0.325981
0.317058
0.38706
0.388668
0.388655
0.386994
0.383828
0.379365
0.373817
0.367381
0.360231
0.352514
0.344365
0.335935
0.327228
0.317942
0.309513
0.368657
0.3713
0.372304
0.371619
0.369378
0.365785
0.361054
0.355384
0.348953
0.341911
0.334394
0.326561
0.318413
0.309616
0.301693
0.353417
0.355463
0.355778
0.354486
0.351786
0.347894
0.343012
0.33732
0.33097
0.324102
0.316881
0.30931
0.301015
0.293607
0.335053
0.338163
0.339501
0.339178
0.337393
0.33436
0.330284
0.325348
0.319708
0.313506
0.306912
0.299932
0.292152
0.285266
0.316243
0.320435
0.322816
0.323484
0.322631
0.320475
0.317223
0.313059
0.308143
0.30262
0.296667
0.290291
0.283039
0.276681
0.297022
0.302314
0.305755
0.307429
0.307526
0.306263
0.303849
0.300472
0.296294
0.291463
0.286162
0.280402
0.273689
0.267862
0.283832
0.288348
0.291043
0.292105
0.291749
0.290186
0.287608
0.284179
0.280051
0.275413
0.270278
0.264113
0.258819
0.265024
0.270626
0.274356
0.276393
0.276956
0.276255
0.274487
0.271818
0.268401
0.264434
0.259934
0.254325
0.249564
0.245925
0.252621
0.257395
0.260419
0.261909
0.262081
0.261131
0.25923
0.256532
0.253243
0.249384
0.244336
0.240106
0.234367
0.240192
0.24421
0.246636
0.247687
0.247562
0.246434
0.244462
0.241854
0.238642
0.234158
0.230454
0.215897
0.222776
0.227793
0.23116
0.233096
0.233801
0.233452
0.232208
0.230286
0.227723
0.223804
0.220616
0.20518
0.211198
0.215509
0.218332
0.219871
0.220304
0.21979
0.218554
0.216641
0.213285
0.2106
0.187432
0.194453
0.199709
0.203421
0.205795
0.20701
0.207227
0.206677
0.205412
0.202614
0.200412
0.177586
0.183787
0.188387
0.191595
0.193592
0.194539
0.194672
0.194054
0.191802
0.190054
0.160627
0.167769
0.173255
0.177295
0.180072
0.181746
0.182558
0.182585
0.180867
0.179525
0.143604
0.151682
0.15805
0.162919
0.166472
0.16887
0.170355
0.171026
0.16983
0.168818
0.135553
0.142796
0.148489
0.152816
0.155931
0.158081
0.159399
0.158726
0.157921
0.12752
0.13403
0.139125
0.142955
0.145757
0.147729
0.147632
0.146789
0.112246
0.119565
0.125423
0.129964
0.133401
0.136011
0.136646
0.135216
0.105118
0.111733
0.116986
0.121043
0.124243
0.126111
0.124207
0.0907111
0.0980756
0.104045
0.108744
0.112488
0.115454
0.115573
0.0844712
0.0911558
0.0965264
0.100841
0.104713
0.106781
0.070938
0.0783285
0.084382
0.0892991
0.0938882
0.0972743
0.0655734
0.0723
0.0778314
0.0830476
0.0873396
0.0602836
0.0664244
0.0722328
0.0772544
0.0550797
0.0614494
0.0671123
0.0438071
0.0507042
0.056938
0.0400146
0.0467646
0.0366303
0.118262
0.1093
0.100008
0.0909638
0.0816078
0.0720367
0.0624666
0.0529329
0.0434318
0.0339888
0.024631
0.109969
0.100894
0.0906867
0.0816626
0.0728406
0.0638041
0.0547856
0.0459009
0.0371195
0.0284268
0.019837
0.10026
0.0913522
0.0812244
0.0725904
0.0644933
0.0562218
0.0479157
0.0397494
0.03171
0.0237595
0.0158994
0.0902879
0.0818804
0.0723745
0.0643579
0.0569649
0.0494227
0.0418003
0.0342909
0.0269104
0.0196185
0.0124078
0.0809691
0.0731934
0.0644247
0.057025
0.0502385
0.0433282
0.0363242
0.0294125
0.022626
0.0159288
0.00930781
0.0724915
0.0653084
0.0572524
0.0504265
0.0441736
0.0378238
0.0313854
0.0250259
0.0187838
0.0126286
0.00654456
0.0647674
0.0581165
0.0507311
0.044448
0.0386845
0.0328445
0.0269263
0.0210767
0.0153339
0.00967218
0.00407582
0.0577226
0.0515637
0.0448039
0.0390307
0.0337194
0.0283445
0.0229016
0.0175189
0.0122316
0.0070181
0.00186366
0.051309
0.0456094
0.0394259
0.0341235
0.0292271
0.0242755
0.019265
0.0143076
0.00943484
0.00462813
-0.000125781
0.0454769
0.0402038
0.0345464
0.0296744
0.0251571
0.0205908
0.0159733
0.0114028
0.00690691
0.0024696
-0.00192102
0.0401733
0.035294
0.0301152
0.0256353
0.0214639
0.0172484
0.0129883
0.00876953
0.00461633
0.000514581
-0.00354622
0.0353474
0.030831
0.0260863
0.0219634
0.0181076
0.0142115
0.0102764
0.00637756
0.00253594
-0.00126075
-0.00502184
0.0309527
0.0267704
0.0224192
0.0186207
0.0150528
0.0114477
0.00780829
0.00420042
0.000642332
-0.0028768
-0.00636517
0.0269473
0.023072
0.0190773
0.0155736
0.0122683
0.00892835
0.00555809
0.00221515
-0.00108471
-0.00435099
-0.00759087
0.0232932
0.0196999
0.016028
0.0127922
0.0097266
0.00662842
0.00350335
0.000401847
-0.00266254
-0.00569815
-0.00871127
0.0199563
0.016622
0.0132424
0.0102502
0.00740337
0.00452595
0.0016245
-0.00125671
-0.00410609
-0.00693095
-0.00973677
0.0169061
0.0138096
0.0106949
0.00792413
0.00527741
0.00260175
-9.54711e-05
-0.00277543
-0.00542818
-0.00806016
-0.0106762
0.0141154
0.0112372
0.0083627
0.00579368
0.00333007
0.000839051
-0.00167139
-0.00416719
-0.00663985
-0.00909503
-0.0115369
0.0115599
0.00888236
0.00622592
0.00384081
0.00154499
-0.000776799
-0.00311617
-0.0054432
-0.00775063
-0.0100435
-0.0123253
0.00921819
0.00672509
0.00426687
0.00204967
-9.21753e-05
-0.00225864
-0.00444108
-0.00661318
-0.00876877
-0.0109123
-0.0130468
0.00707112
0.00474772
0.00246996
0.000406291
-0.00159406
-0.00361774
-0.00565598
-0.00768563
-0.00970144
-0.0117073
-0.0137059
0.00510173
0.00293463
0.000821393
-0.00110168
-0.0029718
-0.00486401
-0.00676954
-0.00866799
-0.0105549
-0.0124338
-0.0143069
0.00329493
0.00127195
-0.000691068
-0.00248517
-0.00423525
-0.00600625
-0.00778944
-0.00956687
-0.0113348
-0.0130962
-0.0148532
0.0016373
-0.000252675
-0.0020783
-0.00375392
-0.00539319
-0.00705224
-0.00872248
-0.0103881
-0.0120459
-0.0136986
-0.015348
0.000116824
-0.00165023
-0.00335001
-0.0049166
-0.00645343
-0.00800894
-0.00957476
-0.0111369
-0.0126927
-0.0142446
-0.0157941
-0.00127724
-0.00293057
-0.0045149
-0.00598102
-0.00742301
-0.00888263
-0.0103517
-0.011818
-0.0132792
-0.0147375
-0.0161941
-0.00255457
-0.00410255
-0.00558082
-0.00695421
-0.00830828
-0.00967897
-0.0110584
-0.0124357
-0.0138091
-0.0151803
-0.0165505
-0.00372391
-0.00517418
-0.00655488
-0.00784257
-0.00911504
-0.0104031
-0.0116993
-0.012994
-0.0142856
-0.0155758
-0.0168655
-0.00479318
-0.00615274
-0.00744354
-0.00865194
-0.00984857
-0.0110599
-0.0122787
-0.0134965
-0.0147119
-0.0159266
-0.0171413
-0.00576962
-0.00704486
-0.00825275
-0.00938767
-0.0105138
-0.0116536
-0.0128004
-0.0139466
-0.0150911
-0.0162353
-0.0173799
-0.00665987
-0.00785665
-0.00898797
-0.0100547
-0.0111151
-0.0121884
-0.0132681
-0.0143475
-0.0154259
-0.0165043
-0.0175834
-0.00747002
-0.00859374
-0.00965427
-0.0106578
-0.0116569
-0.0126681
-0.0136852
-0.0147024
-0.0157189
-0.0167359
-0.0177537
-0.00820573
-0.00926135
-0.0102564
-0.0112011
-0.0121431
-0.0130963
-0.0140551
-0.0150141
-0.0159729
-0.0169323
-0.0178928
-0.00887225
-0.00986435
-0.0107987
-0.0116887
-0.0125774
-0.0134765
-0.0143807
-0.0152855
-0.0161902
-0.0170958
-0.00947451
-0.0104073
-0.0112854
-0.0121245
-0.0129633
-0.0138119
-0.0146652
-0.0155191
-0.0163733
-0.0172286
-0.0100171
-0.0108945
-0.0117205
-0.0125121
-0.0133044
-0.0141057
-0.0149114
-0.0157178
-0.0165247
-0.0173327
-0.0105043
-0.0113301
-0.0121075
-0.012855
-0.0136038
-0.0143609
-0.015122
-0.015884
-0.0166466
-0.0174104
-0.0109403
-0.0117177
-0.0124502
-0.0131565
-0.0138646
-0.0145803
-0.0152998
-0.0160201
-0.0167413
-0.0174637
-0.011329
-0.0120612
-0.0127519
-0.0134197
-0.0140897
-0.0147668
-0.0154473
-0.0161288
-0.0168111
-0.0174946
-0.0116739
-0.0123639
-0.0130158
-0.0136478
-0.0142822
-0.0149231
-0.0155671
-0.0162122
-0.0168581
-0.0175053
-0.0119785
-0.0126292
-0.013245
-0.0138436
-0.0144447
-0.0150518
-0.0156617
-0.0162727
-0.0168846
-0.0174978
-0.0122463
-0.0128602
-0.0134425
-0.0140099
-0.01458
-0.0151554
-0.0157335
-0.0163127
-0.0168928
-0.0174741
-0.0124803
-0.0130599
-0.0136111
-0.0141495
-0.0146906
-0.0152365
-0.0157848
-0.0163342
-0.0168846
-0.0174362
-0.0126835
-0.0132312
-0.0137535
-0.0142649
-0.0147789
-0.0152973
-0.0158179
-0.0163396
-0.0168622
-0.017386
-0.0128587
-0.0133768
-0.0138723
-0.0143587
-0.0148475
-0.0153402
-0.015835
-0.0163308
-0.0168276
-0.0173254
-0.0130088
-0.0134993
-0.0139701
-0.0144332
-0.0148985
-0.0153674
-0.0158382
-0.01631
-0.0167827
-0.0172564
-0.0131361
-0.0136012
-0.0140491
-0.0144907
-0.0149343
-0.0153812
-0.0158297
-0.0162792
-0.0167295
-0.0171809
-0.0132433
-0.0136849
-0.0141118
-0.0145334
-0.014957
-0.0153834
-0.0158114
-0.0162403
-0.01667
-0.0171007
-0.0133325
-0.0137525
-0.0141601
-0.0145635
-0.0149686
-0.0153763
-0.0157853
-0.0161952
-0.0166059
-0.0170175
-0.0134058
-0.0138062
-0.0141962
-0.0145829
-0.0149712
-0.0153616
-0.0157533
-0.0161458
-0.0165391
-0.0169332
-0.0134655
-0.0138479
-0.0142221
-0.0145935
-0.0149665
-0.0153413
-0.0157172
-0.0160939
-0.0164713
-0.0168495
-0.0135132
-0.0138797
-0.0142395
-0.0145973
-0.0149564
-0.0153171
-0.0156788
-0.0160413
-0.0164044
-0.0167682
-0.0135508
-0.013903
-0.0142501
-0.0145958
-0.0149426
-0.0152907
-0.0156398
-0.0159895
-0.0163398
-0.0166908
-0.01358
-0.0139198
-0.0142558
-0.0145909
-0.0149269
-0.015264
-0.015602
-0.0159405
-0.0162796
-0.0166192
-0.0136019
-0.0139311
-0.0142577
-0.0145836
-0.0149104
-0.0152381
-0.0155665
-0.0158954
-0.0162248
-0.0165547
-0.0136184
-0.013939
-0.0142578
-0.0145762
-0.0148953
-0.0152152
-0.0155357
-0.0158566
-0.0161779
-0.0164997
-0.0136298
-0.0139434
-0.0142561
-0.0145687
-0.0148817
-0.0151954
-0.0155095
-0.015824
-0.0161389
-0.016454
-0.0136386
-0.0139476
-0.0142561
-0.0145645
-0.0148733
-0.0151826
-0.0154922
-0.0158021
-0.0161123
-0.0164227
-0.0136425
-0.0139485
-0.0142544
-0.0145603
-0.0148665
-0.0151729
-0.0154796
-0.0157865
-0.0160936
-0.0164008
-0.0136472
-0.013953
-0.0142589
-0.0145648
-0.0148707
-0.0151768
-0.0154831
-0.0157894
-0.0160958
-0.0164021
0.112878
0.113589
0.114995
0.116996
0.119542
0.12258
0.126069
0.129968
0.134236
0.138831
0.143706
0.148809
0.15408
0.159447
0.164827
0.170119
0.175213
0.179969
0.184241
0.187842
0.19059
0.192241
0.192591
0.191314
0.188244
0.182888
0.175307
0.164425
0.151162
0.131513
0.112166
0.112856
0.114217
0.116154
0.118614
0.121544
0.1249
0.128637
0.132713
0.137081
0.14169
0.146483
0.151395
0.156348
0.161255
0.166011
0.170499
0.174577
0.178098
0.180878
0.182738
0.183444
0.182808
0.180529
0.176467
0.170185
0.161752
0.150315
0.136745
0.119716
0.111404
0.112072
0.113385
0.115254
0.11762
0.120433
0.123644
0.127208
0.131078
0.135204
0.139532
0.144001
0.14854
0.153069
0.157496
0.161713
0.165603
0.169024
0.171832
0.173848
0.174906
0.174788
0.173332
0.170266
0.165493
0.158638
0.149834
0.138462
0.125439
0.109965
0.110591
0.111235
0.112497
0.114292
0.11656
0.119248
0.122308
0.12569
0.129345
0.13322
0.137257
0.141391
0.145549
0.149645
0.153586
0.157262
0.160556
0.163328
0.165438
0.166716
0.16701
0.16612
0.163909
0.160141
0.154755
0.147452
0.138395
0.127163
0.114486
0.0997516
0.109726
0.110343
0.111552
0.11327
0.115435
0.117994
0.120897
0.124091
0.127525
0.131143
0.134883
0.138677
0.142448
0.14611
0.149568
0.152709
0.155419
0.157561
0.159002
0.159582
0.159164
0.157569
0.154682
0.150307
0.144409
0.136767
0.127539
0.116438
0.104036
0.0899345
0.108805
0.109396
0.110549
0.112187
0.114246
0.116671
0.119411
0.122412
0.125619
0.128973
0.132412
0.135862
0.139247
0.142477
0.145455
0.148073
0.150217
0.151756
0.152566
0.152498
0.151431
0.149208
0.145736
0.140859
0.134562
0.12669
0.117391
0.106472
0.094426
0.0809958
0.10783
0.108392
0.109488
0.111042
0.11299
0.115278
0.11785
0.120652
0.123627
0.126714
0.129847
0.132952
0.13595
0.138751
0.14126
0.143368
0.144968
0.145934
0.146152
0.145488
0.143835
0.141061
0.137093
0.131813
0.125221
0.117216
0.107938
0.0972699
0.0856406
0.0728784
0.106797
0.107331
0.108367
0.109834
0.111669
0.113813
0.116213
0.118812
0.121551
0.124367
0.127192
0.129952
0.132565
0.134944
0.136993
0.138609
0.139688
0.140114
0.139782
0.138575
0.136399
0.133148
0.128766
0.123169
0.116371
0.108314
0.0991323
0.0887625
0.0775757
0.0654588
0.105707
0.10621
0.107185
0.108563
0.11028
0.112278
0.114503
0.116895
0.119394
0.121936
0.124453
0.126868
0.129102
0.131066
0.132669
0.133812
0.134396
0.134317
0.133479
0.131781
0.129145
0.125486
0.120766
0.114929
0.108003
0.0999608
0.0909325
0.0808929
0.0701606
0.0586706
0.104558
0.105029
0.105941
0.107227
0.108824
0.110673
0.112718
0.1149
0.117158
0.119426
0.121635
0.123709
0.125569
0.127129
0.128302
0.128993
0.129112
0.128564
0.127264
0.125127
0.12209
0.118089
0.113101
0.107094
0.100105
0.0921345
0.083304
0.0736174
0.0633478
0.0524681
0.103349
0.103788
0.104635
0.105828
0.107301
0.108998
0.110862
0.112832
0.114847
0.11684
0.118743
0.120481
0.121976
0.123146
0.123906
0.12417
0.123854
0.122873
0.121156
0.118632
0.115251
0.110969
0.105775
0.0996593
0.092665
0.0848115
0.0762136
0.0668959
0.0570919
0.0468033
0.10208
0.102486
0.103267
0.104363
0.105712
0.107255
0.108935
0.110692
0.112464
0.114185
0.115786
0.117194
0.118335
0.119128
0.119495
0.119356
0.118637
0.117262
0.115172
0.11231
0.108639
0.104132
0.0987904
0.0926185
0.0856663
0.0779673
0.0696283
0.0606891
0.0513478
0.041628
0.10075
0.101122
0.101836
0.102835
0.104057
0.105444
0.106939
0.108483
0.110013
0.111464
0.112769
0.113856
0.114653
0.115087
0.115082
0.114568
0.113477
0.111747
0.109326
0.106174
0.102264
0.0975835
0.0921436
0.0859619
0.0790916
0.0715767
0.0635154
0.0549587
0.0460725
0.0368972
0.099359
0.0996971
0.100343
0.101243
0.102337
0.103567
0.104877
0.106208
0.107499
0.108684
0.109699
0.110475
0.110943
0.111034
0.110681
0.109819
0.108389
0.10634
0.103632
0.100233
0.0961316
0.091324
0.0858304
0.0796782
0.0729225
0.0656144
0.0578436
0.0496683
0.0412262
0.03257
0.0979072
0.0982104
0.0987876
0.099588
0.100553
0.101626
0.102752
0.103872
0.104926
0.105852
0.106585
0.107061
0.107215
0.106983
0.106304
0.105121
0.103386
0.101055
0.0980983
0.0944965
0.0902454
0.0853525
0.0798439
0.0737545
0.0671398
0.0600553
0.0525826
0.0447839
0.0367723
0.0286091
0.0963946
0.0966627
0.0971708
0.097871
0.0987071
0.0996239
0.100567
0.101478
0.1023
0.102972
0.103433
0.103622
0.103478
0.102943
0.101963
0.100488
0.0984789
0.0959014
0.0927348
0.0889687
0.0846072
0.0796659
0.0741757
0.0681767
0.0617239
0.054875
0.0477035
0.0402738
0.0326771
0.0249806
0.0948218
0.0950545
0.0954934
0.0960935
0.096801
0.0975624
0.0983243
0.0990314
0.099627
0.100053
0.100252
0.100167
0.0997419
0.0989247
0.097668
0.0959304
0.0936786
0.0908887
0.0875475
0.0836531
0.0792164
0.0742592
0.0688159
0.06293
0.0566551
0.0500496
0.043179
0.0361084
0.0289098
0.021654
0.0931896
0.0933868
0.0937566
0.0942571
0.094837
0.0954448
0.0960288
0.0965358
0.0969114
0.0971008
0.0970497
0.0967052
0.0960172
0.0949393
0.0934307
0.0914574
0.0889938
0.0860237
0.0825412
0.0785515
0.0740708
0.0691261
0.0637537
0.0579993
0.0519141
0.0455562
0.0389835
0.0322604
0.0254423
0.018602
0.0914988
0.0916607
0.0919619
0.0923636
0.0928175
0.0932741
0.0936841
0.0939964
0.0941595
0.0941219
0.0938332
0.0932451
0.0923127
0.0909957
0.0892599
0.0870782
0.084432
0.0813121
0.077719
0.0736638
0.069167
0.064259
0.0589776
0.0533691
0.047482
0.041373
0.035093
0.0287047
0.0222492
0.0157997
0.089751
0.0898779
0.0901112
0.0904154
0.0907453
0.091054
0.0912944
0.0914184
0.0913775
0.0911236
0.0906106
0.089795
0.0886372
0.0871029
0.0851641
0.0828003
0.0799993
0.0767581
0.0730826
0.0689887
0.0645
0.0596497
0.0544757
0.049024
0.0433404
0.0374793
0.031485
0.0254181
0.0193073
0.0132254
0.0879478
0.08804
0.0882065
0.0884149
0.0886235
0.0887881
0.0888644
0.0888072
0.0885713
0.0881127
0.0873894
0.0863629
0.0849989
0.0832689
0.0811509
0.0786303
0.0757007
0.0723645
0.0686323
0.0645235
0.0600643
0.0552891
0.0502356
0.044949
0.0394717
0.0338556
0.0281389
0.0223797
0.0165958
0.0108591
0.086091
0.0861492
0.0862502
0.0863651
0.0864555
0.0864806
0.0863987
0.0861682
0.0857473
0.0850961
0.084177
0.0829565
0.0814056
0.0795012
0.0772268
0.0745736
0.07154
0.0681332
0.0643673
0.0602647
0.0558531
0.0511678
0.0462452
0.0411293
0.035859
0.0304835
0.0250355
0.0195699
0.0140958
0.00868323
0.084183
0.0842079
0.0842451
0.084269
0.0842451
0.0841356
0.0839024
0.083507
0.0829117
0.0820805
0.0809806
0.0795832
0.0778643
0.0758063
0.0733977
0.0706346
0.0675199
0.0640646
0.0602857
0.0562079
0.0518596
0.0472759
0.0424923
0.0375505
0.0324864
0.027346
0.022157
0.0169713
0.0117904
0.00668205
0.0822263
0.0822189
0.0821942
0.0821302
0.0819961
0.0817578
0.0813804
0.0808293
0.0800706
0.0790726
0.0778069
0.0762496
0.0743816
0.0721901
0.0696683
0.0668167
0.0636421
0.0601584
0.0563851
0.0523479
0.048076
0.0436036
0.0389648
0.0341989
0.0293387
0.024427
0.0194871
0.0145678
0.00966404
0.00484137
0.0802239
0.0801852
0.0801007
0.0799523
0.0797127
0.0793518
0.0788381
0.0781409
0.0772302
0.0760787
0.0746625
0.0729622
0.0709634
0.0686577
0.0660427
0.0631226
0.0599073
0.0564134
0.0526619
0.0486794
0.0444946
0.0401411
0.035651
0.0310613
0.0264017
0.0217118
0.0170109
0.0123447
0.00770292
0.00314847
0.0781789
0.0781102
0.0779685
0.0777393
0.0773994
0.0769224
0.0762808
0.0754474
0.0743965
0.0731051
0.0715535
0.0697268
0.067615
0.0652136
0.0625242
0.059554
0.0563157
0.0528278
0.0491123
0.0451961
0.0411074
0.0368786
0.0325396
0.0281251
0.0236619
0.0191864
0.0147144
0.0102886
0.00589439
0.00159191
0.076095
0.0759975
0.0758013
0.0754954
0.0750608
0.0744748
0.0737137
0.0727545
0.0715755
0.0701577
0.0684858
0.0665489
0.064341
0.0618615
0.0591151
0.0561118
0.0528665
0.0493989
0.0457318
0.0418918
0.0379064
0.0338064
0.0296197
0.0253786
0.0211069
0.0168381
0.0125851
0.00838737
0.00422704
0.000161345
0.0739758
0.0738511
0.0736033
0.0732252
0.0727016
0.0720139
0.0711425
0.070068
0.0687728
0.0672421
0.0654646
0.0634331
0.0611455
0.0586044
0.0558173
0.0527965
0.0495585
0.0461238
0.0425156
0.0387601
0.0348836
0.0309152
0.0268808
0.0228102
0.0187248
0.014655
0.0106111
0.00662981
0.00269045
-0.00115258
0.0718257
0.0716753
0.071379
0.0709332
0.0703268
0.0695452
0.0685725
0.0673933
0.0659941
0.0643638
0.0624949
0.060384
0.0580321
0.0554448
0.0526319
0.0496077
0.0463897
0.0429991
0.0394588
0.0357944
0.0320309
0.0281958
0.0243129
0.0204095
0.0165046
0.0126261
0.00878181
0.00500569
0.00127514
-0.00235839
0.0696489
0.0694744
0.0691331
0.0686244
0.0679415
0.0670737
0.0660091
0.064736
0.0632446
0.0615278
0.0595814
0.0574054
0.0550038
0.0523846
0.0495597
0.0465446
0.0433579
0.0400209
0.036556
0.0329881
0.0293407
0.0256395
0.0219063
0.0181663
0.0144361
0.0107411
0.00708718
0.00350563
-2.75541e-05
-0.00346386
0.0674502
0.0672534
0.0668703
0.0663039
0.065551
0.064605
0.0634577
0.0621013
0.0605296
0.0587387
0.0567282
0.0545008
0.052063
0.0494252
0.0466006
0.0436061
0.0404605
0.0371852
0.033802
0.0303346
0.0268053
0.0232378
0.0196521
0.0160711
0.0125096
0.00899057
0.00551807
0.00212098
-0.00122561
-0.00447611
0.0652344
0.0650172
0.0645959
0.0639768
0.0631605
0.0621443
0.0609237
0.0594944
0.0578537
0.0560012
0.0539391
0.051673
0.0492118
0.0465674
0.0437544
0.0407905
0.0376946
0.0344879
0.0311914
0.0278275
0.0244173
0.0209826
0.0175416
0.0141152
0.0107163
0.00736568
0.00406601
0.000843799
-0.00232635
-0.00540171
0.0630068
0.062771
0.062315
0.0616484
0.0607755
0.059697
0.0584123
0.0569204
0.0552218
0.0533192
0.0512175
0.0489248
0.0464517
0.0438117
0.0410205
0.0380959
0.0350571
0.0319245
0.0287186
0.0254605
0.0221696
0.0188662
0.0155668
0.0122902
0.00904775
0.00585824
0.00272314
-0.000333292
-0.00333654
-0.00624673
0.0607726
0.0605201
0.0600331
0.0593243
0.0584012
0.0572685
0.0559286
0.054384
0.0526382
0.0506966
0.0485666
0.0462583
0.043784
0.0411583
0.0383976
0.0355201
0.0325446
0.0294909
0.0263785
0.0232273
0.0200553
0.0168812
0.0137198
0.0105881
0.00749612
0.00446062
0.00148216
-0.00141711
-0.00426247
-0.0070168
0.0585375
0.0582701
0.0577558
0.0570098
0.0560433
0.0548639
0.0534777
0.05189
0.0501071
0.0481369
0.045989
0.0436754
0.0412095
0.038607
0.0358847
0.0330608
0.0301536
0.0271825
0.0241657
0.021122
0.0180679
0.0150206
0.0119934
0.0090017
0.00605411
0.00316573
0.000336305
-0.002414
-0.00510995
-0.00771716
0.0563072
0.0560268
0.0554887
0.0547107
0.053707
0.0524886
0.0510644
0.0494427
0.0476323
0.0456433
0.0434873
0.0411775
0.0387288
0.0361574
0.0334802
0.0307154
0.0278809
0.024995
0.0220752
0.0191388
0.0162011
0.0132777
0.0103808
0.00752403
0.00471491
0.00196695
-0.000720749
-0.00332986
-0.00588444
-0.00835273
0.0540874
0.0537958
0.0532375
0.0524325
0.0513979
0.0501478
0.0486937
0.0470466
0.0452176
0.0432188
0.0410635
0.0387661
0.0363423
0.0338087
0.0311825
0.0284814
0.0257228
0.0229241
0.0201019
0.017272
0.0144488
0.0116463
0.00887551
0.00614862
0.00347212
0.000858077
-0.00169488
-0.00417019
-0.006591
-0.00892811
0.0518841
0.0515833
0.0510081
0.0501809
0.0491214
0.0478464
0.0463701
0.0447057
0.0428665
0.0408662
0.0387196
0.0364421
0.03405
0.0315602
0.0289898
0.026356
0.0236758
0.0209657
0.0182409
0.0155165
0.0128055
0.0101205
0.0074715
0.0048694
0.00231978
-0.000166647
-0.0025916
-0.00494015
-0.00723441
-0.00944763
0.0497035
0.049395
0.0488063
0.0479616
0.0468829
0.0455895
0.0440981
0.042424
0.0405822
0.0385881
0.0364573
0.0342063
0.0318518
0.0294108
0.0269002
0.0243368
0.0217367
0.0191155
0.0164878
0.0138672
0.0112656
0.00869462