/*--------------------------------*- C++ -*----------------------------------*\
  =========                 |
  \\      /  F ield         | OpenFOAM: The Open Source CFD Toolbox
   \\    /   O peration     | Website:  https://openfoam.org
    \\  /    A nd           | Version:  7
     \\/     M anipulation  |
\*---------------------------------------------------------------------------*/
FoamFile
{
    version     2.0;
    format      ascii;
    class       surfaceScalarField;
    location    "85";
    object      phi;
}
// * * * * * * * * * * * * * * * * * * * * * * * * * * * * * * * * * * * * * //

dimensions      [0 3 -1 0 0 0 0];

internalField   nonuniform List<scalar> 
42261
(
6.98886e-06
1.06537e-06
5.92349e-06
4.23807e-06
1.17697e-06
4.74652e-06
5.34748e-06
6.75576e-08
-1.88196e-05
1.29512e-06
3.4514e-06
5.8174e-06
-4.45472e-06
1.42985e-05
-2.73007e-05
-6.57116e-05
1.41929e-06
2.03211e-06
6.30923e-06
-9.34466e-06
1.54077e-05
-3.63992e-05
2.94651e-05
-7.9769e-05
-0.000140148
1.54896e-06
4.83151e-07
6.82086e-06
-1.46166e-05
1.65569e-05
-4.61352e-05
3.1508e-05
-9.47202e-05
5.24114e-05
-0.000161051
-0.000245734
1.68366e-06
-1.20051e-06
7.35022e-06
-2.02831e-05
1.77411e-05
-5.65261e-05
3.36036e-05
-0.000110583
5.56611e-05
-0.000183109
8.45692e-05
-0.000274642
-0.000385491
1.82298e-06
-3.02349e-06
7.89533e-06
-2.63555e-05
1.89555e-05
-6.75863e-05
3.57422e-05
-0.000127369
5.89588e-05
-0.000206325
8.92228e-05
-0.000304906
0.000127002
-0.00042327
0.000172542
-0.000561123
-0.000717555
1.9665e-06
-4.98999e-06
8.45427e-06
-3.28432e-05
2.01951e-05
-7.93271e-05
3.79142e-05
-0.000145088
6.2288e-05
-0.000230699
9.38874e-05
-0.000336505
0.000133108
-0.000462491
0.000180091
-0.000608107
0.000234652
-0.000772116
-0.000952474
2.11381e-06
-7.1038e-06
9.02509e-06
-3.97545e-05
2.1455e-05
-9.1757e-05
4.01097e-05
-0.000163743
6.56318e-05
-0.000256221
9.85368e-05
-0.00036941
0.000139137
-0.000503091
0.000187464
-0.000656433
0.00024319
-0.000827843
0.000305583
-0.00101487
-0.00121419
2.26451e-06
-9.3683e-06
9.60583e-06
-4.70959e-05
2.27301e-05
-0.000104881
4.23188e-05
-0.000183332
6.89734e-05
-0.000282876
0.000103145
-0.000403582
0.000145053
-0.000545
0.000194609
-0.000705988
0.000251339
-0.000884573
0.000314352
-0.00107788
0.00038234
-0.00128218
0.000453637
-0.00149305
-0.00170569
2.41816e-06
-1.17865e-05
1.01945e-05
-5.48721e-05
2.40153e-05
-0.000118702
4.45315e-05
-0.000203848
7.22955e-05
-0.00031064
0.000107685
-0.000438971
0.000150819
-0.000588134
0.000201478
-0.000756647
0.00025904
-0.000942136
0.000322457
-0.0011413
0.000390276
-0.00135
0.000460724
-0.0015635
0.000531848
-0.00177681
0.000601691
-0.00198514
-0.00218429
2.57433e-06
-1.43608e-05
1.07889e-05
-6.30867e-05
2.53054e-05
-0.000133219
4.67375e-05
-0.00022528
7.55809e-05
-0.000339483
0.000112131
-0.000475521
0.000156398
-0.0006324
0.000208025
-0.000808274
0.000266239
-0.00100035
0.000329839
-0.0012049
0.000397241
-0.0014174
0.000466583
-0.00163284
0.000535888
-0.00184611
0.000603242
-0.00205249
0.000666977
-0.00224802
-0.00242987
2.73254e-06
-1.70933e-05
1.13869e-05
-7.1741e-05
2.65948e-05
-0.000148426
4.89261e-05
-0.000247611
7.8812e-05
-0.000369369
0.000116457
-0.000513167
0.000161754
-0.000677697
0.000214205
-0.000860725
0.000272885
-0.00105903
0.000336447
-0.00126846
0.00040319
-0.00148414
0.000471187
-0.00170083
0.000538459
-0.00191339
0.000603162
-0.00211719
0.000663758
-0.00230862
0.000719135
-0.00248525
0.000768668
-0.00264602
-0.0027911
2.89226e-06
-1.99856e-05
1.19862e-05
-8.08349e-05
2.78778e-05
-0.000164318
5.10866e-05
-0.00027082
8.19711e-05
-0.000400254
0.000120638
-0.000551833
0.000166853
-0.000723912
0.000219976
-0.000913849
0.000278932
-0.00111799
0.000342237
-0.00133176
0.00040809
-0.00154999
0.00047452
-0.00176727
0.000539573
-0.00197844
0.000601495
-0.00217912
0.000658892
-0.00236601
0.00071083
-0.00253719
0.000756868
-0.00269205
0.000797018
-0.00283125
0.00083167
-0.00295635
-0.00306958
3.05296e-06
-2.30385e-05
1.25843e-05
-9.03663e-05
2.91487e-05
-0.000180883
5.3208e-05
-0.00029488
8.50407e-05
-0.000432086
0.000124647
-0.000591439
0.000171662
-0.000770927
0.0002253
-0.000967487
0.00028434
-0.00117703
0.000347173
-0.0013946
0.000411916
-0.00161474
0.000476579
-0.00183193
0.000539253
-0.00204111
0.000598295
-0.00223816
0.000652466
-0.00242019
0.000701011
-0.00258573
0.000743662
-0.0027347
0.00078058
-0.00286817
0.000812265
-0.00298804
0.000839427
-0.00309674
0.000862877
-0.00319686
-0.0032909
3.21403e-06
-2.62526e-05
1.31787e-05
-0.000100331
3.04014e-05
-0.000198105
5.52794e-05
-0.000319758
8.80032e-05
-0.00046481
0.00012846
-0.000631896
0.00017615
-0.000818618
0.000230142
-0.00102148
0.000289074
-0.00123596
0.000351227
-0.00145675
0.000414656
-0.00167817
0.000477373
-0.00189464
0.000537536
-0.00210128
0.000593629
-0.00229425
0.000644575
-0.00247113
0.000689794
-0.00263095
0.000729181
-0.00277409
0.000763031
-0.00290202
0.000791931
-0.00301694
0.00081664
-0.00312145
0.000837971
-0.00321819
0.00085671
-0.00330964
0.000873545
-0.00339787
-0.00348448
3.37485e-06
-2.96274e-05
1.37669e-05
-0.000110723
3.16298e-05
-0.000215968
5.72895e-05
-0.000345417
9.08414e-05
-0.000498362
0.000132053
-0.000673108
0.000180288
-0.000866852
0.000234469
-0.00107566
0.000293104
-0.00129459
0.000354379
-0.00151802
0.000416306
-0.00174009
0.00047692
-0.00195526
0.000534468
-0.00215883
0.000587569
-0.00234735
0.000635315
-0.00251888
0.000677294
-0.00267293
0.000713552
-0.00281035
0.000744499
-0.00293296
0.000770793
-0.00304323
0.000793221
-0.00314388
0.000812591
-0.00323756
0.000829654
-0.0033267
0.000845048
-0.00341326
0.000859288
-0.00349872
-0.00358403
0.000872733
3.53474e-06
-3.31622e-05
1.4346e-05
-0.000121534
3.28276e-05
-0.00023445
5.92273e-05
-0.000371817
9.35387e-05
-0.000532673
0.000135405
-0.000714974
0.000184049
-0.000915497
0.000238255
-0.00112987
0.000296409
-0.00135275
0.000356617
-0.00157823
0.000416871
-0.00180035
0.000475249
-0.00201364
0.000530101
-0.00221368
0.000580195
-0.00239745
0.000624787
-0.00256347
0.000663627
-0.00271177
0.000696897
-0.00284362
0.000725105
-0.00296117
0.000748963
-0.00306709
0.000769272
-0.00316418
0.000786822
-0.00325511
0.000802323
-0.0033422
0.000816365
-0.00342731
0.000829408
-0.00351176
-0.00359639
0.00084177
3.69301e-06
-3.68552e-05
1.49132e-05
-0.000132754
3.39887e-05
-0.000253525
6.10819e-05
-0.00039891
9.60787e-05
-0.00056767
0.000138494
-0.000757389
0.00018741
-0.000964413
0.000241476
-0.00118393
0.000298971
-0.00141024
0.000357937
-0.0016372
0.000416365
-0.00185878
0.000472397
-0.00206967
0.000524499
-0.00226578
0.00057159
-0.00244454
0.000613092
-0.00260497
0.000648906
-0.00274759
0.000679333
-0.00287405
0.000704962
-0.0029868
0.000726544
-0.00308867
0.000744882
-0.00318252
0.000760737
-0.00327097
0.000774778
-0.00335624
0.000787543
-0.00344007
0.000799441
-0.00352366
-0.0036077
0.000810751
3.84895e-06
-4.07041e-05
1.54658e-05
-0.000144371
3.51067e-05
-0.000273166
6.28426e-05
-0.000426646
9.84462e-05
-0.000603274
0.0001413
-0.000800243
0.000190349
-0.00101346
0.000244114
-0.0012377
0.000300779
-0.00146691
0.000358342
-0.00169476
0.000414812
-0.00191525
0.000468408
-0.00212326
0.000517727
-0.0023151
0.000561842
-0.00248865
0.000600332
-0.00264346
0.000633238
-0.00278049
0.000660968
-0.00290178
0.000684173
-0.00301
0.000703629
-0.00310813
0.000720128
-0.00319902
0.000734401
-0.00328524
0.000747068
-0.00336891
0.000758618
-0.00345162
0.000769413
-0.00353445
-0.00361799
0.000779696
4.00179e-06
-4.47059e-05
1.60009e-05
-0.00015637
3.61755e-05
-0.000293341
6.44993e-05
-0.00045497
0.000100627
-0.000639401
0.000143807
-0.000843423
0.000192849
-0.0010625
0.000246156
-0.001291
0.000301829
-0.00152258
0.000357842
-0.00175077
0.000412238
-0.00196964
0.000463332
-0.00217436
0.000509855
-0.00236162
0.000551036
-0.00252983
0.000586604
-0.00267903
0.000616728
-0.00281062
0.000641903
-0.00292695
0.000662831
-0.00303093
0.000680299
-0.0031256
0.000695081
-0.0032138
0.000707869
-0.00329803
0.000719237
-0.00338027
0.000729624
-0.00346201
0.00073935
-0.00354418
-0.00362726
0.000748624
4.1508e-06
-4.88567e-05
1.65157e-05
-0.000168735
3.71891e-05
-0.000314014
6.60421e-05
-0.000483823
0.000102607
-0.000675966
0.000145999
-0.000886815
0.000194896
-0.0011114
0.000247592
-0.0013437
0.000302123
-0.00157711
0.000356453
-0.0018051
0.000408681
-0.00202187
0.000457225
-0.0022229
0.000500957
-0.00240535
0.00053926
-0.00256814
0.000572005
-0.00271178
0.000599472
-0.00283808
0.000622232
-0.00294971
0.000641022
-0.00304972
0.000656628
-0.0031412
0.000669801
-0.00322697
0.00068119
-0.00330942
0.000691321
-0.00339041
0.000700589
-0.00347128
0.000709272
-0.00355286
-0.00363554
0.00071755
4.29522e-06
-5.31519e-05
1.70074e-05
-0.000181448
3.81418e-05
-0.000335149
6.74618e-05
-0.000513143
0.000104375
-0.000712879
0.000147862
-0.000930303
0.000196478
-0.00116002
0.000248417
-0.00139564
0.000301666
-0.00163036
0.000354198
-0.00185763
0.000404179
-0.00207185
0.000450143
-0.00226887
0.000491107
-0.00244632
0.0005266
-0.00260363
0.000556626
-0.0027418
0.000581562
-0.00286302
0.000602041
-0.00297019
0.000618822
-0.0030665
0.000632683
-0.00315506
0.000644341
-0.00323863
0.000654404
-0.00331948
0.000663352
-0.00339935
0.000671535
-0.00347946
0.000679196
-0.00356053
-0.00364283
0.000686488
4.4343e-06
-5.75862e-05
1.74733e-05
-0.000194487
3.90281e-05
-0.000356703
6.875e-05
-0.000542865
0.000105919
-0.000750048
0.000149387
-0.000973771
0.000197587
-0.00120822
0.000248631
-0.00144668
0.000300471
-0.0016822
0.000351104
-0.00190827
0.000398777
-0.00211952
0.000442148
-0.00231224
0.000480379
-0.00248455
0.00051314
-0.00263639
0.000540553
-0.00276921
0.000563083
-0.00288555
0.000581409
-0.00298851
0.000596301
-0.0030814
0.00060852
-0.00316728
0.000618748
-0.00324886
0.000627549
-0.00332828
0.000635358
-0.00340716
0.000642484
-0.00348659
0.000649139
-0.00356718
-0.00364914
0.00065545
4.5673e-06
-6.21535e-05
1.79107e-05
-0.00020783
3.98427e-05
-0.000378635
6.98989e-05
-0.000572921
0.000107231
-0.000787381
0.000150563
-0.0010171
0.000198219
-0.00125587
0.000248238
-0.0014967
0.000298553
-0.00173251
0.000347201
-0.00195692
0.000392522
-0.00216484
0.000433303
-0.00235302
0.000468847
-0.00252009
0.00049896
-0.0026665
0.00052387
-0.00279412
0.000544115
-0.00290579
0.000560408
-0.00300481
0.00057352
-0.00309451
0.00058419
-0.00317795
0.000593062
-0.00325773
0.000600654
-0.00333588
0.000607361
-0.00341387
0.000613453
-0.00349268
0.000619112
-0.00357284
-0.00365448
0.000624447
4.69349e-06
-6.6847e-05
1.83173e-05
-0.000221454
4.05809e-05
-0.000400899
7.09015e-05
-0.000603241
0.000108303
-0.000824783
0.000151386
-0.00106019
0.000198373
-0.00130286
0.000247246
-0.00154557
0.000295932
-0.0017812
0.000342525
-0.00200351
0.000385464
-0.00220778
0.00042367
-0.00239123
0.000456585
-0.00255301
0.000484137
-0.00269405
0.000506653
-0.00281664
0.000524729
-0.00292387
0.000539101
-0.00301918
0.000550534
-0.00310594
0.000559738
-0.00318716
0.000567317
-0.00326531
0.000573747
-0.00334231
0.000579381
-0.0034195
0.000584456
-0.00349775
0.000589129
-0.00357751
-0.00365884
0.00059349
4.81217e-06
-7.16592e-05
1.86906e-05
-0.000235332
4.12382e-05
-0.000423447
7.17518e-05
-0.000633755
0.000109129
-0.00086216
0.000151851
-0.00110291
0.000198051
-0.00134906
0.000245665
-0.00159319
0.000292633
-0.00182817
0.000337113
-0.00204799
0.000377655
-0.00224833
0.000413313
-0.00242688
0.000443661
-0.00258335
0.000468745
-0.00271914
0.000488974
-0.00283687
0.000504992
-0.00293989
0.000517548
-0.00303174
0.000527392
-0.00311579
0.000535204
-0.00319497
0.000541544
-0.00327165
0.000546851
-0.00334761
0.000551436
-0.00342409
0.000555508
-0.00350183
0.0005592
-0.0035812
-0.00366222
0.000562586
4.9227e-06
-7.65819e-05
1.90285e-05
-0.000249438
4.18107e-05
-0.000446229
7.24447e-05
-0.000664389
0.000109703
-0.000899419
0.000151956
-0.00114516
0.000197257
-0.00139436
0.000243511
-0.00163944
0.000288682
-0.00187334
0.000331005
-0.00209031
0.000369148
-0.00228647
0.000402294
-0.00246003
0.000430145
-0.00261121
0.000452854
-0.00274185
0.0004709
-0.00285492
0.000484964
-0.00295395
0.000495799
-0.00304257
0.000504137
-0.00312412
0.00051062
-0.00320145
0.00051577
-0.0032768
0.000519985
-0.00335183
0.000523541
-0.00342764
0.000526621
-0.00350491
0.000529335
-0.00358392
-0.00366463
0.000531746
5.02442e-06
-8.16063e-05
1.93289e-05
-0.000263742
4.22951e-05
-0.000469195
7.29762e-05
-0.00069507
0.000110024
-0.000936466
0.000151703
-0.00118684
0.000196
-0.00143866
0.000240801
-0.00168424
0.000284109
-0.00191665
0.000324245
-0.00213045
0.000359994
-0.00232222
0.000390673
-0.00249071
0.000416102
-0.00263664
0.000436527
-0.00276227
0.000452491
-0.00287088
0.000464699
-0.00296616
0.000473903
-0.00305177
0.000480806
-0.00313103
0.000486017
-0.00320666
0.000490018
-0.0032808
0.000493166
-0.00335498
0.00049571
-0.00343019
0.000497804
-0.003507
0.000499543
-0.00358566
-0.00366607
0.000500976
5.11675e-06
-8.67231e-05
1.95902e-05
-0.000278216
4.26883e-05
-0.000492293
7.33429e-05
-0.000725725
0.000110088
-0.000973211
0.000151093
-0.00122784
0.000194288
-0.00148185
0.000237554
-0.00172751
0.000278944
-0.00195804
0.000316873
-0.00216838
0.000350247
-0.00235559
0.000378509
-0.00251897
0.000401592
-0.00265972
0.000419826
-0.00278051
0.000433804
-0.00288486
0.000444248
-0.0029766
0.000451899
-0.00305943
0.000457434
-0.00313656
0.000461422
-0.00321065
0.000464307
-0.00328369
0.000466411
-0.00335708
0.000467954
-0.00343173
0.000469068
-0.00350811
0.000469832
-0.00358642
-0.00366652
0.000470286
5.19915e-06
-9.19222e-05
1.98107e-05
-0.000292827
4.29879e-05
-0.00051547
7.35427e-05
-0.000756279
0.000109897
-0.00100957
0.000150132
-0.00126808
0.000192135
-0.00152386
0.000233794
-0.00176917
0.000273221
-0.00199747
0.000308933
-0.00220409
0.000339958
-0.00238662
0.000365859
-0.00254487
0.000386674
-0.00268053
0.000402807
-0.00279664
0.00041489
-0.00289694
0.000423655
-0.00298537
0.000429826
-0.0030656
0.000434049
-0.00314079
0.000436857
-0.00321346
0.000438655
-0.00328549
0.000439733
-0.00335816
0.000440284
-0.00343228
0.000440422
-0.00350825
0.000440211
-0.00358621
-0.00366599
0.000439683
5.27113e-06
-9.71934e-05
1.9989e-05
-0.000307545
4.31921e-05
-0.000538673
7.35744e-05
-0.000786662
0.000109451
-0.00104544
0.000148827
-0.00130746
0.000189554
-0.00156458
0.000229543
-0.00180916
0.000266974
-0.0020349
0.000300469
-0.00223758
0.000329177
-0.00241533
0.000352777
-0.00256847
0.000371403
-0.00269916
0.000385522
-0.00281076
0.000395796
-0.00290722
0.00040296
-0.00299253
0.000407716
-0.00307035
0.000410679
-0.00314375
0.000412342
-0.00321512
0.000413077
-0.00328622
0.000413144
-0.00335823
0.00041271
-0.00343185
0.000411873
-0.00350742
0.000410688
-0.00358502
-0.00366448
0.000409175
5.33309e-06
-0.000102526
2.01258e-05
-0.000322338
4.33021e-05
-0.00056185
7.3441e-05
-0.000816801
0.000108758
-0.00108076
0.00014719
-0.00134589
0.000186568
-0.00160396
0.000224833
-0.00184742
0.000260244
-0.00207031
0.000291531
-0.00226887
0.00031796
-0.00244176
0.000339323
-0.00258983
0.000355837
-0.00271567
0.000368025
-0.00282295
0.000376572
-0.00291576
0.000382205
-0.00299816
0.000385605
-0.00307375
0.000387351
-0.0031455
0.000387902
-0.00321567
0.000387594
-0.00328591
0.00038666
-0.00335729
0.000385247
-0.00343043
0.000383437
-0.00350561
0.000381274
-0.00358286
-0.00366198
0.000378774
5.38308e-06
-0.00010791
2.02169e-05
-0.000337172
4.33121e-05
-0.000584945
7.31367e-05
-0.000846625
0.000107813
-0.00111543
0.000145221
-0.0013833
0.000183182
-0.00164192
0.000219679
-0.00188392
0.000253054
-0.00210368
0.000282146
-0.00229796
0.000306341
-0.00246595
0.00032553
-0.00260902
0.000340009
-0.00273015
0.000350346
-0.00283328
0.00035724
-0.00292266
0.000361408
-0.00300233
0.000363505
-0.00307585
0.000364074
-0.00314606
0.000363539
-0.00321514
0.000362205
-0.00328458
0.000360279
-0.00335537
0.00035789
-0.00342804
0.000355108
-0.00350282
0.000351967
-0.00357972
-0.00365849
0.000348477
5.4216e-06
-0.000113331
2.02633e-05
-0.000352013
4.32242e-05
-0.000607906
7.2666e-05
-0.000876067
0.000106626
-0.00114939
0.000142937
-0.00141961
0.000179422
-0.00167841
0.000214113
-0.00191861
0.000245444
-0.00213501
0.000272364
-0.00232488
0.000294371
-0.00248796
0.000311451
-0.0026261
0.000323971
-0.00274267
0.000332532
-0.00284184
0.000337843
-0.00292797
0.000340606
-0.00300509
0.000341445
-0.00307669
0.000340871
-0.00314549
0.000339273
-0.00321354
0.000336927
-0.00328223
0.000334016
-0.00335246
0.000330654
-0.00342468
0.000326899
-0.00349907
0.000322777
-0.0035756
-0.00365401
0.000318295
5.44837e-06
-0.000118779
2.02645e-05
-0.00036683
4.30387e-05
-0.00063068
7.20311e-05
-0.000905059
0.000105202
-0.00118257
0.000140349
-0.00145475
0.000175305
-0.00171336
0.000208163
-0.00195147
0.000237449
-0.0021643
0.000262224
-0.00234966
0.000282093
-0.00250783
0.00029713
-0.00264114
0.000307762
-0.0027533
0.00031462
-0.0028487
0.000318412
-0.00293176
0.000319823
-0.00300651
0.000319446
-0.00307631
0.000317759
-0.0031438
0.000315117
-0.0032109
0.000311769
-0.00327889
0.00030788
-0.00334857
0.000303545
-0.00342035
0.000298817
-0.00349434
0.000293713
-0.0035705
-0.00364853
0.000288237
5.46318e-06
-0.000124243
2.02204e-05
-0.000381587
4.27561e-05
-0.000653216
7.12353e-05
-0.000933539
0.00010355
-0.00121488
0.000137471
-0.00148867
0.000170853
-0.00174675
0.000201857
-0.00198247
0.000229104
-0.00219155
0.000251765
-0.00237232
0.000269547
-0.00252561
0.000282607
-0.0026542
0.00029142
-0.00276212
0.000296642
-0.00285392
0.000298975
-0.00293409
0.000299082
-0.00300661
0.000297527
-0.00307476
0.000294751
-0.00314103
0.000291081
-0.00320723
0.000286742
-0.00327455
0.000281877
-0.0033437
0.000276571
-0.00341504
0.000270868
-0.00348864
0.000264781
-0.00356441
-0.00364206
0.000258309
5.46589e-06
-0.000129709
2.01309e-05
-0.000396252
4.23777e-05
-0.000675463
7.0282e-05
-0.000961443
0.000101677
-0.00124628
0.000134316
-0.00152131
0.000166087
-0.00177852
0.000195221
-0.0020116
0.000220441
-0.00221677
0.000241024
-0.0023929
0.000256773
-0.00254136
0.000267918
-0.00266534
0.00027498
-0.00276918
0.000278628
-0.00285757
0.000279556
-0.00293502
0.000278404
-0.00300546
0.000275702
-0.00307205
0.000271861
-0.00313719
0.000267177
-0.00320254
0.000261852
-0.00326922
0.000256014
-0.00333786
0.000249739
-0.00340877
0.00024306
-0.00348196
0.000235987
-0.00355734
-0.00363459
0.000228518
5.45641e-06
-0.000135165
1.99964e-05
-0.000410792
4.19049e-05
-0.000697371
6.91757e-05
-0.000988714
9.95917e-05
-0.00127669
0.0001309
-0.00155262
0.000161028
-0.00180865
0.000188284
-0.00203886
0.000211492
-0.00223997
0.000230035
-0.00241144
0.000243805
-0.00255513
0.000253099
-0.00267464
0.000258473
-0.00277455
0.000260605
-0.0028597
0.000260179
-0.0029346
0.000257806
-0.00300309
0.000253986
-0.00306823
0.000249098
-0.0031323
0.000243411
-0.00319686
0.000237107
-0.00326292
0.0002303
-0.00333106
0.000223053
-0.00340152
0.000215397
-0.0034743
0.000207338
-0.00354928
-0.00362612
0.00019887
5.43473e-06
-0.0001406
1.98171e-05
-0.000425174
4.13397e-05
-0.000718894
6.79213e-05
-0.0010153
9.73037e-05
-0.00130607
0.000127237
-0.00158255
0.000155696
-0.00183711
0.000181072
-0.00206424
0.00020229
-0.00226119
0.000218832
-0.00242799
0.000230678
-0.00256697
0.00023818
-0.00268214
0.000241927
-0.0027783
0.000242598
-0.00286037
0.000240863
-0.00293286
0.000237305
-0.00299953
0.000232392
-0.00306332
0.000226474
-0.00312638
0.000219794
-0.00319018
0.000212516
-0.00325564
0.000204739
-0.00332328
0.000196521
-0.0033933
0.000187887
-0.00346567
0.00017884
-0.00354023
-0.00361665
0.000169373
5.40086e-06
-0.000146001
1.95938e-05
-0.000439367
4.06843e-05
-0.000739984
6.6524e-05
-0.00104114
9.48227e-05
-0.00133437
0.000123342
-0.00161107
0.000150113
-0.00186388
0.000173611
-0.00208774
0.000192863
-0.00228044
0.000207448
-0.00244257
0.000217422
-0.00257695
0.000223192
-0.00268791
0.000225368
-0.00278048
0.000224629
-0.00285964
0.000221626
-0.00292986
0.000216914
-0.00299482
0.000210931
-0.00305734
0.000203997
-0.00311945
0.000196332
-0.00318251
0.000188083
-0.00324739
0.000179339
-0.00331454
0.000170149
-0.00338411
0.000160535
-0.00345605
0.000150498
-0.00353019
-0.00360619
0.000140031
5.3549e-06
-0.000151355
1.93273e-05
-0.00045334
3.99415e-05
-0.000760598
6.49898e-05
-0.00106618
9.21591e-05
-0.00136154
0.000119232
-0.00163815
0.000144299
-0.00188894
0.000165927
-0.00210936
0.000183241
-0.00229776
0.000195911
-0.00245524
0.000204067
-0.0025851
0.000208161
-0.002692
0.000208819
-0.00278113
0.000206717
-0.00285753
0.000202484
-0.00292562
0.000196647
-0.00298898
0.000189613
-0.0030503
0.000181675
-0.00311151
0.000173033
-0.00317387
0.000163816
-0.00323817
0.000154105
-0.00330482
0.000143942
-0.00337395
0.000133347
-0.00344546
0.000122318
-0.00351916
-0.00359472
0.000110851
5.29698e-06
-0.000156652
1.90185e-05
-0.000467061
3.9114e-05
-0.000780694
6.33247e-05
-0.00109039
8.93234e-05
-0.00138754
0.000114921
-0.00166374
0.000138276
-0.0019123
0.000158045
-0.00212913
0.00017345
-0.00231316
0.00018425
-0.00246604
0.000190641
-0.00259149
0.000193111
-0.00269447
0.000192303
-0.00278033
0.000188881
-0.00285411
0.000183453
-0.0029202
0.000176515
-0.00298204
0.000168448
-0.00304224
0.000159517
-0.00310258
0.000149903
-0.00316426
0.000139721
-0.00322799
0.000129042
-0.00329415
0.000117906
-0.00336281
0.000106327
-0.00343388
9.43056e-05
-0.00350714
-0.00358225
8.18345e-05
5.22728e-06
-0.00016188
1.86686e-05
-0.000480502
3.82051e-05
-0.00080023
6.15351e-05
-0.00111372
8.63262e-05
-0.00141233
0.000110426
-0.00168784
0.000132063
-0.00193394
0.000149988
-0.00214706
0.000163516
-0.00232669
0.000172491
-0.00247502
0.000177166
-0.00259617
0.000178066
-0.00269537
0.000175837
-0.0027781
0.000171136
-0.00284941
0.000164543
-0.0029136
0.000156529
-0.00297403
0.000147443
-0.00303315
0.000137529
-0.00309266
0.000126948
-0.00315367
0.000115803
-0.00321684
0.000104158
-0.0032825
9.2046e-05
-0.0033507
7.94815e-05
-0.00342132
6.64645e-05
-0.00349413
-0.00356877
5.29846e-05
5.14602e-06
-0.000167026
1.82787e-05
-0.000493635
3.72181e-05
-0.00081917
5.96277e-05
-0.00113613
8.31785e-05
-0.00143588
0.000105761
-0.00171043
0.000125681
-0.00195385
0.000141778
-0.00216315
0.000153464
-0.00233838
0.000160657
-0.00248221
0.000163667
-0.00259918
0.000163045
-0.00269475
0.000159441
-0.00277449
0.000153496
-0.00284347
0.000145768
-0.00290587
0.000136697
-0.00296496
0.000126606
-0.00302306
0.000115718
-0.00308178
0.000104175
-0.00314213
9.2069e-05
-0.00320474
7.94574e-05
-0.00326989
6.63711e-05
-0.00333761
5.2821e-05
-0.00340777
3.87986e-05
-0.0034801
-0.00355427
2.42965e-05
5.05346e-06
-0.000172079
1.78503e-05
-0.000506432
3.61565e-05
-0.000837476
5.76093e-05
-0.00115759
7.98911e-05
-0.00145816
0.000100942
-0.00173148
0.000119147
-0.00197206
0.000133438
-0.00217745
0.000143315
-0.00234826
0.000148772
-0.00248767
0.000150165
-0.00260057
0.000148067
-0.00269265
0.000143129
-0.00276956
0.000135975
-0.00283631
0.000127136
-0.00289704
0.000117028
-0.00295485
0.000105945
-0.00301198
9.40891e-05
-0.00306992
8.15882e-05
-0.00312963
6.85238e-05
-0.00319167
5.49469e-05
-0.00325631
4.08878e-05
-0.00332356
2.63643e-05
-0.00339324
1.13316e-05
-0.00346507
-0.00353849
-4.44434e-06
4.94992e-06
-0.000177029
1.73848e-05
-0.000518867
3.50241e-05
-0.000855115
5.54868e-05
-0.00117805
7.64747e-05
-0.00147915
9.5984e-05
-0.00175099
0.000112479
-0.00198855
0.000124987
-0.00218995
0.000133093
-0.00235636
0.000136857
-0.00249143
0.000136679
-0.00260039
0.000133149
-0.00268912
0.000126915
-0.00276332
0.000118583
-0.00282798
0.000108659
-0.00288711
9.75287e-05
-0.00294372
8.54653e-05
-0.00299991
7.2649e-05
-0.0030571
5.91942e-05
-0.00311618
4.51731e-05
-0.00317765
3.06323e-05
-0.00324177
1.55982e-05
-0.00330852
6.93744e-08
-0.00337771
-1.59103e-05
-0.00344909
-0.00352202
-3.2377e-05
4.83571e-06
-0.000181865
1.68837e-05
-0.000530915
3.38246e-05
-0.000872056
5.32672e-05
-0.00119749
7.29402e-05
-0.00149883
9.09005e-05
-0.00176895
0.000105697
-0.00200335
0.000116446
-0.0022007
0.000122816
-0.00236273
0.00012493
-0.00249354
0.000123226
-0.00259869
0.000118307
-0.0026842
0.000110813
-0.00275583
0.000101332
-0.0028185
9.0343e-05
-0.00287612
7.82069e-05
-0.00293158
6.51728e-05
-0.00298688
5.14026e-05
-0.00304333
3.69975e-05
-0.00310177
2.20219e-05
-0.00316268
6.51808e-06
-0.00322627
-9.48515e-06
-0.00329252
-2.59672e-05
-0.00336123
-4.29593e-05
-0.0034321
-0.00350457
-6.04158e-05
4.7112e-06
-0.000186576
1.63488e-05
-0.000542552
3.25619e-05
-0.000888269
5.09575e-05
-0.00121589
6.92979e-05
-0.00151717
8.57058e-05
-0.00178536
9.8815e-05
-0.00201646
0.000107832
-0.00220972
0.000112503
-0.0023674
0.00011301
-0.00249405
0.000109822
-0.0025955
0.000103553
-0.00267794
9.48337e-05
-0.00274711
8.42299e-05
-0.00280789
7.21965e-05
-0.00286409
5.90684e-05
-0.00291845
4.5073e-05
-0.00297288
3.03549e-05
-0.00302861
1.50032e-05
-0.00308642
-9.25734e-07
-0.00314675
-1.7391e-05
-0.0032098
-3.43646e-05
-0.00327554
-5.18301e-05
-0.00334377
-6.97977e-05
-0.00341413
-0.0034861
-8.82642e-05
4.57679e-06
-0.000191153
1.57816e-05
-0.000553757
3.12399e-05
-0.000903727
4.85646e-05
-0.00123321
6.55583e-05
-0.00153416
8.04135e-05
-0.00180021
9.18504e-05
-0.0020279
9.9163e-05
-0.00221703
0.000102173
-0.00237041
0.000101113
-0.00249299
9.6483e-05
-0.00259087
8.89009e-05
-0.00267035
7.89871e-05
-0.0027372
6.72855e-05
-0.00279619
5.42259e-05
-0.00285103
4.01188e-05
-0.00290435
2.51708e-05
-0.00295794
9.51059e-06
-0.00301295
-6.78407e-06
-0.00307012
-2.3663e-05
-0.00312987
-4.10898e-05
-0.00319237
-5.90347e-05
-0.0032576
-7.74804e-05
-0.00332532
-9.64299e-05
-0.00339518
-0.00346663
-0.000115899
4.43288e-06
-0.000195586
1.51839e-05
-0.000564508
2.98627e-05
-0.000918406
4.60955e-05
-0.00124944
6.17314e-05
-0.0015498
7.50364e-05
-0.00181352
8.48178e-05
-0.00203768
9.04548e-05
-0.00222267
9.18396e-05
-0.0023718
8.92541e-05
-0.0024904
8.32212e-05
-0.00258484
7.43617e-05
-0.00266149
6.32827e-05
-0.00272612
5.05062e-05
-0.00278342
3.64373e-05
-0.00283696
2.13632e-05
-0.00288927
5.47094e-06
-0.00294204
-1.11257e-05
-0.00299636
-2.83594e-05
-0.00305289
-4.61868e-05
-0.00311204
-6.45735e-05
-0.00317399
-8.34893e-05
-0.00323868
-0.000102914
-0.0033059
-0.000122848
-0.00337525
-0.00344617
-0.000143313
4.27989e-06
-0.000199866
1.45576e-05
-0.000574786
2.84342e-05
-0.000932283
4.35568e-05
-0.00126457
5.7827e-05
-0.00156407
6.95871e-05
-0.00182528
7.77315e-05
-0.00204582
8.17226e-05
-0.00222666
8.15192e-05
-0.00237159
7.7447e-05
-0.00248633
7.00489e-05
-0.00257744
5.99454e-05
-0.00265139
4.77287e-05
-0.0027139
3.38987e-05
-0.00276959
1.88363e-05
-0.0028219
2.80628e-06
-0.00287324
-1.40221e-05
-0.00292522
-3.15495e-05
-0.00297883
-4.97185e-05
-0.00303472
-6.84916e-05
-0.00309327
-8.78367e-05
-0.00315464
-0.000107723
-0.0032188
-0.000128126
-0.00328549
-0.000149043
-0.00335433
-0.00342471
-0.000170501
4.11827e-06
-0.000203984
1.39043e-05
-0.000584572
2.69583e-05
-0.000945337
4.09553e-05
-0.00127856
5.38545e-05
-0.00157696
6.40773e-05
-0.0018355
7.06051e-05
-0.00205235
7.29806e-05
-0.00222904
7.12252e-05
-0.00236984
6.57044e-05
-0.00248081
5.69772e-05
-0.00256871
4.56611e-05
-0.00264007
3.23325e-05
-0.00270057
1.74688e-05
-0.00275472
1.42741e-06
-0.00280586
-1.55473e-05
-0.00285627
-3.33042e-05
-0.00290746
-5.17567e-05
-0.00296038
-7.08566e-05
-0.00301562
-9.05725e-05
-0.00307355
-0.000110874
-0.00313434
-0.000131729
-0.00319794
-0.00015311
-0.00326411
-0.00017501
-0.00333243
-0.00340226
-0.000197456
3.94848e-06
-0.000207932
1.32258e-05
-0.000593849
2.5439e-05
-0.00095755
3.82975e-05
-0.00129142
4.9823e-05
-0.00158849
5.85184e-05
-0.00184419
6.34512e-05
-0.00205728
6.42418e-05
-0.00222983
6.09703e-05
-0.00236657
5.40378e-05
-0.00247388
4.40159e-05
-0.00255869
3.1517e-05
-0.00262758
1.71007e-05
-0.00268615
1.22189e-06
-0.00273884
-1.57841e-05
-0.00278885
-3.36938e-05
-0.00283836
-5.23716e-05
-0.00288878
-7.17432e-05
-0.00294101
-9.17695e-05
-0.0029956
-0.000112424
-0.0030529
-0.000133681
-0.00311309
-0.000155504
-0.00317612
-0.000177861
-0.00324175
-0.000200742
-0.00330955
-0.00337883
-0.000224172
3.77097e-06
-0.000211703
1.2524e-05
-0.000602602
2.388e-05
-0.000968906
3.55896e-05
-0.00130313
4.57413e-05
-0.00159864
5.29211e-05
-0.00185137
5.62818e-05
-0.00206064
5.55185e-05
-0.00222906
5.07662e-05
-0.00236181
4.24575e-05
-0.00246557
3.11739e-05
-0.00254741
1.75206e-05
-0.00261392
2.03928e-06
-0.00267067
-1.48368e-05
-0.00272197
-3.27948e-05
-0.00277089
-5.16295e-05
-0.00281952
-7.12205e-05
-0.00286919
-9.1505e-05
-0.00292072
-0.000112452
-0.00297465
-0.000134043
-0.00303131
-0.00015625
-0.00309088
-0.00017904
-0.00315333
-0.000202373
-0.00321842
-0.000226234
-0.00328569
-0.00335442
-0.000250644
3.58621e-06
-0.00021529
1.18007e-05
-0.000610817
2.22853e-05
-0.000979391
3.28379e-05
-0.00131369
4.16179e-05
-0.00160742
4.72955e-05
-0.00185705
4.91079e-05
-0.00206246
4.68219e-05
-0.00222678
4.06234e-05
-0.00235562
3.09732e-05
-0.00245592
1.84594e-05
-0.00253489
3.67834e-06
-0.00259914
-1.28464e-05
-0.00265415
-3.07035e-05
-0.00270411
-4.96008e-05
-0.002752
-6.93509e-05
-0.00279977
-8.98475e-05
-0.00284869
-0.000111038
-0.00289953
-0.000132901
-0.00295279
-0.000155422
-0.00300879
-0.000178578
-0.00306772
-0.000202332
-0.00312958
-0.00022664
-0.00319411
-0.000251478
-0.00326085
-0.00332904
-0.000276865
3.39468e-06
-0.000218684
1.10576e-05
-0.00061848
2.06586e-05
-0.000988992
3.00482e-05
-0.00132307
3.74606e-05
-0.00161483
4.16512e-05
-0.00186124
4.19401e-05
-0.00206274
3.81625e-05
-0.002223
3.05519e-05
-0.00234801
1.95934e-05
-0.00244496
5.87958e-06
-0.00252118
-1.00038e-05
-0.00258326
-2.75517e-05
-0.0026366
-4.63741e-05
-0.00268529
-6.61987e-05
-0.00273217
-8.68549e-05
-0.00277912
-0.000108249
-0.0028273
-0.00013034
-0.00287744
-0.000153112
-0.00293001
-0.000176558
-0.00298534
-0.000200658
-0.00304362
-0.000225374
-0.00310486
-0.000250655
-0.00316883
-0.00027647
-0.00323503
-0.00330268
-0.00030283
3.19685e-06
-0.000221881
1.02965e-05
-0.000625579
1.90033e-05
-0.000997699
2.72263e-05
-0.0013313
3.32772e-05
-0.00162089
3.59974e-05
-0.00186396
3.47881e-05
-0.00206154
2.955e-05
-0.00221776
2.05606e-05
-0.00233902
8.32609e-06
-0.00243273
-6.55905e-06
-0.0025063
-2.35206e-05
-0.0025663
-4.20723e-05
-0.00261805
-6.1845e-05
-0.00266552
-8.25854e-05