/*--------------------------------*- C++ -*----------------------------------*\
  =========                 |
  \\      /  F ield         | OpenFOAM: The Open Source CFD Toolbox
   \\    /   O peration     | Website:  https://openfoam.org
    \\  /    A nd           | Version:  7
     \\/     M anipulation  |
\*---------------------------------------------------------------------------*/
FoamFile
{
    version     2.0;
    format      ascii;
    class       surfaceScalarField;
    location    "50";
    object      phi;
}
// * * * * * * * * * * * * * * * * * * * * * * * * * * * * * * * * * * * * * //

dimensions      [0 3 -1 0 0 0 0];

internalField   nonuniform List<scalar> 
16712
(
-8.89975e-07
8.75529e-07
1.44452e-08
-3.35012e-06
2.35455e-06
1.056e-07
-7.24773e-06
3.64347e-06
2.54147e-07
-1.24511e-05
4.75133e-06
4.52056e-07
-1.88311e-05
5.68862e-06
6.91338e-07
-2.62629e-05
6.46721e-06
9.64591e-07
-3.46282e-05
7.09986e-06
1.26546e-06
-4.38173e-05
7.59996e-06
1.58914e-06
-5.37314e-05
7.98136e-06
1.93275e-06
-6.42852e-05
8.25825e-06
2.2956e-06
-7.54098e-05
8.44525e-06
2.67926e-06
-8.70548e-05
8.55758e-06
3.08747e-06
-9.9192e-05
8.6112e-06
3.52602e-06
-0.000111817
8.62281e-06
4.00247e-06
-0.000124953
8.60956e-06
4.52596e-06
-0.000138648
8.58813e-06
5.10698e-06
-0.000152979
8.57338e-06
5.7573e-06
-0.000168045
8.57608e-06
6.4899e-06
-0.000183961
8.59774e-06
7.31866e-06
8.63981e-06
8.25984e-06
-0.000200861
-8.88145e-07
1.76367e-06
-3.34342e-06
4.80982e-06
-7.2334e-06
7.53345e-06
-1.24265e-05
9.94446e-06
-1.87936e-05
1.20557e-05
-2.62098e-05
1.38834e-05
-3.45566e-05
1.54466e-05
-4.37237e-05
1.67672e-05
-5.36121e-05
1.78697e-05
-6.41358e-05
1.87819e-05
-7.52249e-05
1.95344e-05
-8.68286e-05
2.01612e-05
-9.89174e-05
2.07001e-05
-0.000111487
2.1192e-05
-0.000124558
2.16805e-05
-0.000138179
2.22098e-05
-0.000152427
2.28216e-05
-0.000167402
2.35511e-05
-0.00018322
2.44155e-05
2.54339e-05
-0.000200014
-8.83681e-07
2.64736e-06
-3.32704e-06
7.25318e-06
-7.19832e-06
1.14047e-05
-1.23664e-05
1.51125e-05
-1.87021e-05
1.83914e-05
-2.60804e-05
2.12618e-05
-3.43825e-05
2.37486e-05
-4.34973e-05
2.5882e-05
-5.33247e-05
2.76972e-05
-6.37775e-05
2.92347e-05
-7.47842e-05
3.05411e-05
-8.62921e-05
3.16691e-05
-9.82697e-05
3.26778e-05
-0.00011071
3.36325e-05
-0.000123633
3.46036e-05
-0.000137087
3.56631e-05
-0.000151146
3.68806e-05
-0.000165911
3.83161e-05
-0.000181499
4.00034e-05
4.19798e-05
-0.000198045
-8.76634e-07
3.52399e-06
-3.30113e-06
9.67768e-06
-7.14283e-06
1.52464e-05
-1.22711e-05
2.02408e-05
-1.85572e-05
2.46775e-05
-2.58757e-05
2.85803e-05
-3.41072e-05
3.198e-05
-4.31396e-05
3.49144e-05
-5.28711e-05
3.74287e-05
-6.32126e-05
3.95762e-05
-7.40902e-05
4.14187e-05
-8.54482e-05
4.3027e-05
-9.72522e-05
4.44817e-05
-0.000109492
4.58723e-05
-0.000122184
4.7296e-05
-0.000135375
4.88535e-05
-0.000149137
5.06432e-05
-0.000163573
5.27517e-05
-0.0001788
5.52303e-05
5.81345e-05
-0.000194954
-8.6708e-07
4.39107e-06
-3.26598e-06
1.20766e-05
-7.06743e-06
1.90479e-05
-1.21417e-05
2.53151e-05
-1.83602e-05
3.08959e-05
-2.55973e-05
3.58175e-05
-3.37327e-05
4.01154e-05
-4.26529e-05
4.38347e-05
-5.22542e-05
4.703e-05
-6.24447e-05
4.97667e-05
-7.3147e-05
5.21211e-05
-8.43017e-05
5.41817e-05
-9.587e-05
5.60499e-05
-0.000107837
5.78395e-05
-0.000120216
5.96748e-05
-0.000133049
6.16861e-05
-0.000146408
6.40022e-05
-0.000160394
6.67379e-05
-0.000175128
6.9964e-05
7.3755e-05
-0.000190748
-8.55127e-07
5.2462e-06
-3.22192e-06
1.44434e-05
-6.97286e-06
2.27988e-05
-1.19792e-05
3.03214e-05
-1.81126e-05
3.70294e-05
-2.52473e-05
4.29522e-05
-3.32617e-05
4.81298e-05
-4.20408e-05
5.26137e-05
-5.14781e-05
5.64673e-05
-6.14784e-05
5.9767e-05
-7.19602e-05
6.26029e-05
-8.28589e-05
6.50805e-05
-9.41303e-05
6.73213e-05
-0.000105754
6.94631e-05
-0.000117737
7.16579e-05
-0.000130117
7.40665e-05
-0.000142965
7.68501e-05
-0.000156382
8.01544e-05
-0.00017049
8.4072e-05
8.86976e-05
-0.000185432
-8.40905e-07
6.0871e-06
-3.16941e-06
1.67719e-05
-6.85998e-06
2.64894e-05
-1.1785e-05
3.52465e-05
-1.78166e-05
4.30609e-05
-2.48284e-05
4.9964e-05
-3.26977e-05
5.59991e-05
-4.13073e-05
6.12233e-05
-5.05477e-05
6.57077e-05
-6.03197e-05
6.95389e-05
-7.05366e-05
7.28198e-05
-8.11278e-05
7.56717e-05
-9.20421e-05
7.82356e-05
-0.000103252
8.06729e-05
-0.000114758
8.31635e-05
-0.000126591
8.59004e-05
-0.000138821
8.90792e-05
-0.000151546
9.288e-05
-0.000164895
9.74206e-05
0.000102818
-0.000179015
-8.24567e-07
6.91167e-06
-3.10896e-06
1.90563e-05
-6.72983e-06
3.01103e-05
-1.15608e-05
4.00775e-05
-1.74744e-05
4.89745e-05
-2.43437e-05
5.68333e-05
-3.20445e-05
6.36999e-05
-4.04572e-05
6.9636e-05
-4.94688e-05
7.47194e-05
-5.89753e-05
7.90454e-05
-6.88842e-05
8.27286e-05
-7.91174e-05
8.59049e-05
-8.96157e-05
8.87339e-05
-0.000100343
9.13998e-05
-0.00011129
9.4111e-05
-0.000122484
9.70938e-05
-0.000133986
0.000100581
-0.000145898
0.000104792
-0.000158352
0.000109875
0.000115971
-0.000171505
-8.06288e-07
7.71796e-06
-3.04115e-06
2.12911e-05
-6.58357e-06
3.36527e-05
-1.13085e-05
4.48024e-05
-1.70887e-05
5.47547e-05
-2.37966e-05
6.35412e-05
-3.13065e-05
7.12098e-05
-3.9496e-05
7.78254e-05
-4.82479e-05
8.34714e-05
-5.74531e-05
8.82505e-05
-6.70119e-05
9.22874e-05
-7.68382e-05
9.57312e-05
-8.68629e-05
9.87586e-05
-9.70391e-05
0.000101576
-0.000107349
0.00010442
-0.000117808
0.000107553
-0.000128474
0.000111248
-0.00013945
0.000115768
-0.000150873
0.000121297
0.000128009
-0.000162911
-7.86256e-07
8.50421e-06
-2.96662e-06
2.34715e-05
-6.42245e-06
3.71085e-05
-1.103e-05
4.941e-05
-1.66622e-05
6.0387e-05
-2.3191e-05
7.007e-05
-3.04885e-05
7.85073e-05
-3.84293e-05
8.57662e-05
-4.68919e-05
9.1934e-05
-5.57609e-05
9.71196e-05
-6.49292e-05
0.000101456
-7.4301e-05
0.000105103
-8.3796e-05
0.000108254
-9.33552e-05
0.000111135
-0.000102948
0.000114013
-0.00011258
0.000117185
-0.000122302
0.00012097
-0.000132215
0.000125681
-0.000142466
0.000131548
0.000138781
-0.000153239
-7.64673e-07
9.26889e-06
-2.88604e-06
2.55929e-05
-6.24781e-06
4.04703e-05
-1.07275e-05
5.38896e-05
-1.61981e-05
6.58576e-05
-2.25307e-05
7.64025e-05
-2.95953e-05
8.55719e-05
-3.72631e-05
9.3434e-05
-4.54079e-05
0.000100079
-5.39074e-05
0.000105619
-6.26461e-05
0.000110194
-7.15173e-05
0.000113974
-8.04282e-05
0.000117164
-8.93054e-05
0.000120012
-9.81034e-05
0.000122811
-0.000106815
0.000125896
-0.000115482
0.000129637
-0.000124206
0.000134405
-0.000133142
0.000140484
0.000148134
-0.000142494
-7.41747e-07
1.00106e-05
-2.80011e-06
2.76512e-05
-6.06104e-06
4.37312e-05
-1.04031e-05
5.82316e-05
-1.56994e-05
7.11539e-05
-2.18197e-05
8.25228e-05
-2.86319e-05
9.23841e-05
-3.60035e-05
0.000100806
-4.38029e-05
0.000107878
-5.19008e-05
0.000113717
-6.01721e-05
0.000118466
-6.84984e-05
0.000122301
-7.67723e-05
0.000125438
-8.49042e-05
0.000128144
-9.28313e-05
0.000130738
-0.00010053
0.000133595
-0.000108032
0.000137139
-0.000115435
0.000141808
-0.000122908
0.000147957
0.000155905
-0.000130679
-7.17691e-07
1.07283e-05
-2.70954e-06
2.96431e-05
-5.86352e-06
4.68852e-05
-1.0059e-05
6.24271e-05
-1.51691e-05
7.6264e-05
-2.1062e-05
8.84158e-05
-2.76033e-05
9.89254e-05
-3.46564e-05
0.000107859
-4.2084e-05
0.000115306
-4.97492e-05
0.000121382
-5.75166e-05
0.000126233
-6.52549e-05
0.000130039
-7.28406e-05
0.000133024
-8.01655e-05
0.000135469
-8.71465e-05
0.000137719
-9.37409e-05
0.00014019
-9.99647e-05
0.000143362
-0.000105913
0.000147757
-0.000111768
0.000153812
0.000161926
-0.000117789
-6.92718e-07
1.1421e-05
-2.61504e-06
3.15654e-05
-5.65664e-06
4.99268e-05
-9.69752e-06
6.6468e-05
-1.46102e-05
8.11766e-05
-2.02615e-05
9.40671e-05
-2.6514e-05
0.000105178
-3.3227e-05
0.000114572
-4.02574e-05
0.000122336
-4.74597e-05
0.000128585
-5.46879e-05
0.000133461
-6.17963e-05
0.000137147
-6.8644e-05
0.000139872
-7.51016e-05
0.000141927
-8.10625e-05
0.00014368
-8.64607e-05
0.000145588
-9.12934e-05
0.000148195
-9.56498e-05
0.000152113
-9.97253e-05
0.000157887
0.000166017
-0.000103816
-6.67034e-07
1.20881e-05
-2.51729e-06
3.34156e-05
-5.44172e-06
5.28512e-05
-9.32057e-06
7.03469e-05
-1.40255e-05
8.58816e-05
-1.94216e-05
9.94632e-05
-2.53683e-05
0.000111125
-3.17204e-05
0.000120924
-3.83284e-05
0.000128944
-4.50384e-05
0.000135295
-5.16926e-05
0.000140115
-5.81302e-05
0.000143585
-6.41911e-05
0.000145933
-6.97223e-05
0.000147458
-7.45902e-05
0.000148548
-7.87008e-05
0.000149698
-8.20276e-05
0.000151522
-8.46493e-05
0.000154735
-8.67756e-05
0.000160013
0.000167984
-8.87427e-05
-6.40841e-07
1.27289e-05
-2.41694e-06
3.51917e-05
-5.22003e-06
5.56543e-05
-8.93011e-06
7.40569e-05
-1.34177e-05
9.03692e-05
-1.85455e-05
0.000104591
-2.41698e-05
0.000116749
-3.01405e-05
0.000126895
-3.63015e-05
0.000135105
-4.24898e-05
0.000141483
-4.85354e-05
0.000146161
-5.42616e-05
0.000149311
-5.94875e-05
0.000151159
-6.40339e-05
0.000152004
-6.77365e-05
0.000152251
-7.04682e-05
0.00015243
-7.21724e-05
0.000153226
-7.2912e-05
0.000155475
-7.29102e-05
0.000160011
0.000167618
-7.25445e-05
-6.14324e-07
1.33432e-05
-2.3146e-06
3.6892e-05
-4.99272e-06
5.83324e-05
-8.52786e-06
7.75921e-05
-1.27889e-05
9.46302e-05
-1.76359e-05
0.000109438
-2.29213e-05
0.000122034
-2.84901e-05
0.000132463
-3.41792e-05
0.000140794
-3.98161e-05
0.00014712
-4.52183e-05
0.000151563
-5.01922e-05
0.000154285
-5.45345e-05
0.000155501
-5.80376e-05
0.000155508
-6.05028e-05
0.000154716
-6.17637e-05
0.000153691
-6.17268e-05
0.000153189
-6.04318e-05
0.00015418
-5.81124e-05
0.000157692
0.000164694
-5.51887e-05
-5.87656e-07
1.39309e-05
-2.21083e-06
3.85152e-05
-4.7608e-06
6.08824e-05
-8.11531e-06
8.09466e-05
-1.21409e-05
9.86558e-05
-1.66947e-05
0.000113992
-2.16249e-05
0.000126965
-2.6771e-05
0.00013761
-3.19625e-05
0.000145986
-3.70174e-05
0.000152175
-4.17401e-05
0.000156286
-4.59192e-05
0.000158464
-4.93281e-05
0.00015891
-5.17286e-05
0.000157908
-5.28831e-05
0.00015587
-5.25803e-05
0.000153388
-5.06811e-05
0.00015129
-4.71936e-05
0.000150692
-4.23588e-05
0.000152857
0.000158973
-3.66377e-05
-5.60994e-07
1.44919e-05
-2.1061e-06
4.00603e-05
-4.52516e-06
6.33015e-05
-7.69368e-06
8.41151e-05
-1.14753e-05
0.000102437
-1.57234e-05
0.00011824
-2.02814e-05
0.000131523
-2.49831e-05
0.000142311
-2.96502e-05
0.000150653
-3.40908e-05
0.000156615
-3.80955e-05
0.000160291
-4.1435e-05
0.000161804
-4.38582e-05
0.000161333
-4.50939e-05
0.000159144
-4.48623e-05
0.000155639
-4.29005e-05
0.000151426
-3.9014e-05
0.000147404
-3.31669e-05
0.000144845
-2.56157e-05
0.000145306
0.000150244
-1.68863e-05
-5.34472e-07
1.50264e-05
-2.00082e-06
4.15267e-05
-4.28649e-06
6.55871e-05
-7.26388e-06
8.70925e-05
-1.07929e-05
0.000105966
-1.47224e-05
0.000122169
-1.88907e-05
0.000135691
-2.3125e-05
0.000146545
-2.72389e-05
0.000154767
-3.10299e-05
0.000160406
-3.42749e-05
0.000163536
-3.67261e-05
0.000164255
-3.81067e-05
0.000162714
-3.81114e-05
0.000159148
-3.64142e-05
0.000153942
-3.26939e-05
0.000147706
-2.66895e-05
0.000141399
-1.82984e-05
0.000136454
-7.74185e-06
0.00013475
0.000138659
3.84333e-06
-5.08204e-07
1.55346e-05
-1.89533e-06
4.29138e-05
-4.04532e-06
6.77371e-05
-6.82646e-06
8.98736e-05
-1.0094e-05
0.000109234
-1.36915e-05
0.000125767
-1.74513e-05
0.000139451
-2.11932e-05
0.000150287
-2.47223e-05
0.000158296
-2.7825e-05
0.000163509
-3.0264e-05
0.000165975
-3.17723e-05
0.000165763
-3.20473e-05
0.000162989
-3.07479e-05
0.000157849
-2.74992e-05
0.000150693
-2.1915e-05
0.000142122
-1.36557e-05
0.00013314
-2.54522e-06
0.000125343
1.12624e-05
0.000120942
0.000122998
2.69227e-05
-4.82283e-07
1.60169e-05
-1.78987e-06
4.42214e-05
-3.80197e-06
6.97492e-05
-6.38164e-06
9.24533e-05
-9.37839e-06
0.000112231
-1.26296e-05
0.000129018
-1.59604e-05
0.000142782
-1.91826e-05
0.00015351
-2.20918e-05
0.000161205
-2.44626e-05
0.00016588
-2.6043e-05
0.000167555
-2.65464e-05
0.000166266
-2.56439e-05
0.000162086
-2.2958e-05
0.000155163
-1.80626e-05
0.000145797
-1.05012e-05
0.000134561
1.57436e-07
0.000122481
1.41878e-05
0.000111313
3.14601e-05
0.00010367
0.000103278
5.11801e-05
-4.56777e-07
1.64736e-05
-1.68458e-06
4.54492e-05
-3.55657e-06
7.16212e-05
-5.92928e-06
9.4826e-05
-8.64527e-06
0.000114947
-1.15344e-05
0.000131907
-1.44138e-05
0.000145661
-1.70859e-05
0.000156182
-1.93357e-05
0.000163455
-2.09253e-05
0.000167469
-2.15867e-05
0.000168216
-2.10136e-05
0.000165693
-1.88506e-05
0.000159923
-1.4683e-05
0.000150996
-8.03253e-06
0.000139147
1.63161e-06
0.000124897
1.48421e-05
0.000109271
3.19932e-05
9.4162e-05
5.30471e-05
8.26158e-05
7.91591e-05
7.71664e-05
-4.31732e-07
1.69054e-05
-1.57953e-06
4.6597e-05
-3.30902e-06
7.33507e-05
-5.46883e-06
9.69858e-05
-7.89317e-06
0.000117371
-1.04031e-05
0.000134417
-1.28061e-05
0.000148064
-1.48941e-05
0.00015827
-1.64399e-05
0.000165001
-1.71916e-05
0.000168221
-1.68647e-05
0.00016789
-1.51318e-05
0.00016396
-1.16105e-05
0.000156402
-5.84972e-06
0.000145235
2.68123e-06
0.000130616
1.45894e-05
0.000112988
3.05177e-05
9.33424e-05
5.10018e-05
7.36779e-05
7.61298e-05
5.74878e-05
5.0231e-05
0.000105058
-4.07169e-07
1.73125e-05
-1.47467e-06
4.76645e-05
-3.05903e-06
7.49351e-05
-4.99936e-06
9.89262e-05
-7.12002e-06
0.000119492
-9.23159e-06
0.000136529
-1.11303e-05
0.000149963
-1.25959e-05
0.000159735
-1.33873e-05
0.000165792
-1.32366e-05
0.00016807
-1.18409e-05
0.000166494
-8.851e-06
0.000160971
-3.85685e-06
0.000151408
3.62897e-06
0.000137749
1.41882e-05
0.000120057
2.85041e-05
9.86725e-05
4.73336e-05
7.45129e-05
7.13734e-05
4.96381e-05
0.000100876
2.79852e-05
1.60604e-05
0.000135047
-3.83086e-07
1.76956e-05
-1.36987e-06
4.86513e-05
-2.80606e-06
7.63712e-05
-4.51956e-06
0.00010064
-6.32311e-06
0.000121295
-8.01505e-06
0.000138221
-9.37848e-06
0.000151326
-1.01786e-05
0.000160535
-1.01583e-05
0.000165772
-9.03156e-06
0.000166944
-6.47481e-06
0.000163937
-2.11477e-06
0.00015661
4.48701e-06
0.000144806
1.38539e-05
0.000128382
2.66168e-05
0.000107294
4.35315e-05
8.17578e-05
6.54697e-05
5.25747e-05
9.33023e-05
2.18055e-05
0.000127486
-6.1987e-06
-2.38036e-05
0.00016735
-3.59451e-07
1.80551e-05
-1.2649e-06
4.95567e-05
-2.54935e-06
7.76557e-05
-4.02769e-06
0.000102118
-5.4991e-06
0.000122767
-6.74764e-06
0.000139469
-7.54101e-06
0.000152119
-7.62748e-06
0.000160622
-6.73108e-06
0.000164875
-4.54476e-06
0.000164757
-7.21191e-07
0.000160114
5.13951e-06
0.00015075
1.35061e-05
0.000136439
2.49379e-05
0.00011695
4.0112e-05
9.21198e-05
5.98515e-05
6.20183e-05
8.51365e-05
2.72897e-05
0.000117018
-1.00764e-05
0.000156194
-4.5374e-05
-6.98139e-05
0.000202204
-3.36209e-07
1.83913e-05
-1.15939e-06
5.03799e-05
-2.28791e-06
7.87842e-05
-3.5216e-06
0.000103352
-4.64401e-06
0.000123889
-5.42264e-06
0.000140248
-5.60724e-06
0.000152304
-4.92628e-06
0.000159941
-3.08168e-06
0.000163031
2.58325e-07
0.000161417
5.46856e-06
0.000154903
1.29792e-05
0.000143239
2.32921e-05
0.000126126
3.70032e-05
0.000103239
5.4833e-05
7.429e-05
7.76637e-05
3.91876e-05
0.000106572
-1.61849e-06
0.000142784
-4.62884e-05
0.000187262
-8.98524e-05
-0.000122407
0.000239856
-3.13272e-07
1.87045e-05
-1.05289e-06
5.11195e-05
-2.02048e-06
7.97518e-05
-2.99868e-06
0.00010433
-3.75317e-06
0.000124644
-4.03237e-06
0.000140527
-3.56524e-06
0.000151837
-2.05715e-06
0.000158433
8.15848e-07
0.000160158
5.41452e-06
0.000156819
1.21458e-05
0.000148172
2.1475e-05
0.00013391
3.39408e-05
0.000113661
5.0178e-05
8.7002e-05
7.09478e-05
5.35202e-05
9.71818e-05
1.29536e-05
0.000130035
-3.44712e-05
0.000170888
-8.7142e-05
0.000220982
-0.000139947
-0.000181982
0.000280557
-2.90519e-07
1.89951e-05
-9.44793e-07
5.17738e-05
-1.74551e-06
8.05525e-05
-2.45587e-06
0.00010504
-2.82121e-06
0.000125009
-2.56819e-06
0.000140274
-1.40183e-06
0.000150671
9.99236e-07
0.000156032
4.98911e-06
0.000156168
1.09625e-05
0.000150845
1.9364e-05
0.00013977
3.06995e-05
0.000122575
4.55502e-05
9.88098e-05
6.45926e-05
6.79596e-05
8.86275e-05
2.94853e-05
0.000118625
-1.70442e-05
0.000155795
-7.16404e-05
0.000201638
-0.000132985
0.000257662
-0.00019597
-0.000248873
0.000324552
-2.67789e-07
1.92629e-05
-8.34358e-07
5.23403e-05
-1.46115e-06
8.11793e-05
-1.88956e-06
0.000105469
-1.842e-06
0.000124961
-1.02044e-06
0.000139452
8.97417e-07
0.000148753
4.26368e-06
0.000152665
9.46732e-06
0.000150964
1.69424e-05
0.00014337
2.71774e-05
0.000129535
4.07256e-05
0.000109026
5.82172e-05
8.13182e-05
8.0375e-05
4.58017e-05
0.000108039
1.82082e-06
0.00014221
-5.12147e-05
0.00018412
-0.000113551
0.000235343
-0.000184208
0.000297615
-0.000258242
-0.000323318
0.00037206
-2.44881e-07
1.95077e-05
-7.20683e-07
5.28161e-05
-1.16522e-06
8.16238e-05
-1.2956e-06
0.000105599
-8.08584e-07
0.000124474
6.21623e-07
0.000138022
3.34826e-06
0.000146026
7.75847e-06
0.000148255
1.42812e-05
0.000144441
2.33957e-05
0.000134256
3.56411e-05
0.00011729
5.16255e-05
9.3042e-05
7.20354e-05
6.09084e-05
9.76463e-05
2.01908e-05
0.00012934
-2.98727e-05
0.000168136
-9.00104e-05
0.000215264
-0.000160679
0.000272297
-0.000241241
0.000341145
-0.00032709
-0.000405427
0.000423254
-2.21539e-07
1.97293e-05
-6.02683e-07
5.31973e-05
-8.55145e-07
8.18763e-05
-6.69222e-07
0.000105413
2.86889e-07
0.000123518
2.36991e-06
0.000135939
5.96789e-06
0.000142428
1.15075e-05
0.000142716
1.94628e-05
0.000136486
3.03647e-05
0.000123354
4.481e-05
0.000102845
6.34691e-05
7.43828e-05
8.70929e-05
3.72846e-05
0.000116517
-9.23321e-06
0.000152667
-6.6023e-05
0.000196577
-0.00013392
0.000249443
-0.000213545
0.00031276
-0.000304558
0.000388528
-0.000402858
-0.000495141
0.000478243
-1.97458e-07
1.99267e-05
-4.79087e-07
5.34789e-05
-5.27959e-07
8.19252e-05
-4.67777e-09
0.00010489
1.45322e-06
0.00012206
4.23761e-06
0.000133155
8.77501e-06
0.000137891
1.55362e-05
0.000135954
2.5046e-05
0.000126976
3.7893e-05
0.000110507
5.47385e-05
8.59992e-05
7.63234e-05
5.27979e-05
0.000103471
1.01374e-05
0.000137083
-4.28456e-05
0.000178136
-0.000107076
0.000227672
-0.000183457
0.00028683
-0.000272703
0.000356939
-0.000374667
0.000439992
-0.000485912
-0.000592198
0.00053705
-1.72268e-07
2.0099e-05
-3.48404e-07
5.36551e-05
-1.80325e-07
8.17571e-05
7.03339e-07
0.000104006
2.70018e-06
0.000120063
6.23922e-06
0.000129616
1.17899e-05
0.00013234
1.9872e-05
0.000127872
3.10662e-05
0.000115782
4.60248e-05
9.55482e-05
6.54805e-05
6.65435e-05
9.02515e-05
2.8027e-05
0.00012124
-2.08514e-05
0.000159423
-8.10288e-05
0.000205831
-0.000153483
0.000261514
-0.00023914
0.000327534
-0.000338723
0.000404969
-0.000452102
0.000495707
-0.00057665
-0.000696086
0.000599595
-1.45535e-07
2.02445e-05
-2.08922e-07
5.37184e-05
1.91672e-07
8.13565e-05
1.46257e-06
0.000102735
4.03873e-06
0.000117487
8.39068e-06
0.000125264
1.50346e-05
0.000125696
2.45437e-05
0.000118363
3.756e-05
0.000102766
5.48051e-05
7.83031e-05
7.70888e-05
4.42598e-05
0.000105312
-1.96444e-07
0.000140463
-5.6002e-05
0.000183597
-0.000124163
0.000235802
-0.000205688
0.00029814
-0.000301479
0.000371585
-0.000412168
0.000456901
-0.000537418
0.000555774
-0.000675523
-0.00080601
0.000665697
-1.16753e-07
2.03613e-05
-5.86344e-08
5.36603e-05
5.92336e-07
8.07055e-05
2.28035e-06
0.000101047
5.48083e-06
0.000114287
1.07093e-05
0.000120035
1.85327e-05
0.000117873
2.95822e-05
0.000107314
4.45659e-05
8.77822e-05
6.42794e-05
5.85896e-05
8.96142e-05
1.8925e-05
0.000121558
-3.21405e-05
0.000161187
-9.56306e-05
0.000209637
-0.000172613
0.000268059
-0.00026411
0.000337528
-0.000370948
0.000418925
-0.000493565
0.000512678
-0.000631171
0.000620164
-0.000783008
-0.000921002
0.000735156
-8.53661e-08
2.04467e-05
1.04452e-07
5.34705e-05
1.02644e-06
7.97836e-05
3.16508e-06
9.89086e-05
7.03948e-06
0.000110412
1.32136e-05
0.000113861
2.23093e-05
0.000108777
3.50197e-05
9.46032e-05
5.21231e-05
7.06789e-05
7.44931e-05
3.62196e-05
0.000103105
-9.68712e-06
0.000139035
-6.80705e-05
0.000183445
-0.000140041
0.000237551
-0.000226719
0.000302565
-0.000329123
0.000379585
-0.000447968
0.000469422
-0.000583402
0.000572191
-0.000733941
0.000688626
-0.000899443
-0.00104038
0.000808008
-5.07254e-08
2.04974e-05
2.82875e-07
5.31369e-05
1.49919e-06
7.85672e-05
4.12582e-06
9.6282e-05
8.72864e-06
0.00010581
1.59235e-05
0.000106666
2.63908e-05
9.83097e-05
4.08896e-05
8.01044e-05
6.02715e-05
5.1297e-05
8.54903e-05
1.10008e-05
0.000117606
-4.18028e-05
0.000157779
-0.000108244
0.000207252
-0.000189513
0.00026731
-0.000286777
0.000339219
-0.000401032
0.000424119
-0.000532868
0.000522852
-0.000682136
0.000635487
-0.000846575
0.000761155
-0.00102511
-0.00116386
0.000884627
-1.21442e-08
2.05095e-05
4.79209e-07
5.26455e-05
2.01618e-06
7.70303e-05
5.17224e-06
9.31259e-05
1.0563e-05
0.000100419
1.88597e-05
9.83696e-05
3.08045e-05
8.63649e-05
4.72256e-05
6.36833e-05
6.90504e-05
2.94722e-05
9.73131e-05
-1.72619e-05
0.000133155
-7.76449e-05
0.000177814
-0.000152903
0.000232598
-0.000244297
0.000298841
-0.00035302
0.00037784
-0.000480031
0.000470774
-0.000625801
0.000578654
-0.000790016
0.000702294
-0.000970215
0.000840211
-0.00116303
-0.00128765
0.000964003
3.10522e-08
2.04785e-05
6.95966e-07
5.19806e-05
2.58302e-06
7.51432e-05
6.31416e-06
8.93948e-05
1.25577e-05
9.41752e-05
2.20432e-05
8.88841e-05
3.55779e-05
7.28303e-05
5.40614e-05
4.51997e-05
7.84977e-05
5.03589e-06
0.000109999
-4.87636e-05
0.000149783
-0.000117429
0.00019915
-0.00020227
0.000259452
-0.000304599
0.000332033
-0.000425602
0.000418172
-0.00056617
0.00051902
-0.000726649
0.000635638
-0.000906634
0.000769421
-0.001104
0.000923894
-0.0013175
-0.00150724
0.00114349
7.98224e-08
2.03987e-05
9.36434e-07
5.1124e-05
3.20637e-06
7.28733e-05
7.56256e-06
8.50386e-05
1.47288e-05
8.7009e-05
2.5496e-05
7.8117e-05
4.07386e-05
5.75876e-05
6.14295e-05
2.45089e-05
8.86481e-05
-2.21827e-05
0.000123581
-8.36966e-05
0.000167509
-0.000161357
0.000221779
-0.00025654
0.000287751
-0.000370571
0.000366735
-0.000504586
0.000459911
-0.000659345
0.00056827
-0.000835008
0.000692655
-0.00103102
0.000834394
-0.00124574
0.000995223
-0.00147833
-0.00170444
0.00119242
1.34891e-07
2.02638e-05
1.20333e-06
5.00556e-05
3.89215e-06
7.01845e-05
8.9276e-06
8.00031e-05
1.70916e-05
7.8845e-05
2.92387e-05
6.59699e-05
4.63127e-05
4.05136e-05
6.93593e-05
1.46218e-06
9.95313e-05
-5.23546e-05
0.000138081
-0.000122247
0.00018634
-0.000209616
0.000245672
-0.000315871
0.00031741
-0.000442309
0.000402767
-0.000589943
0.000502737
-0.000759316
0.000618019
-0.00095029
0.000748969
-0.00116197
0.000896063
-0.00139283
0.00105863
-0.0016409
-0.00188977
0.00124397
1.97083e-07
2.00667e-05
1.49961e-06
4.87531e-05
4.64653e-06
6.70375e-05
1.04196e-05
7.42301e-05
1.96611e-05
6.96035e-05
3.32912e-05
5.23398e-05
5.23239e-05
2.14808e-05
7.78768e-05
-2.40907e-05
0.00011117
-8.56482e-05
0.000153513
-0.000164589
0.000206264
-0.000262367
0.000270777
-0.000380384
0.00034831
-0.000519841
0.000439915
-0.000681547
0.000546317
-0.000865718
0.000667806
-0.00107178
0.000804123
-0.00129829
0.00095475
-0.00154346
0.00111763
-0.00180378
-0.0020667
0.00129456
2.67217e-07
1.97995e-05
1.82816e-06
4.71921e-05
5.47553e-06
6.33902e-05
1.20485e-05
6.76571e-05
2.24515e-05
5.92005e-05
3.76717e-05
3.71195e-05
5.87933e-05
3.59289e-07
8.70023e-05
-5.22998e-05
0.00012358
-0.000122226
0.000169874
-0.000210883
0.000227251
-0.000319744
0.000297015
-0.000450148
0.000380297
-0.000603124
0.000477926
-0.000779176
0.000590279
-0.000978071
0.000717158
-0.00119866
0.000857647
-0.00143877
0.00101029
-0.0016961
0.00117213
-0.00196563
-0.00223665
0.00134209
3.4609e-07
2.19178e-06
4.53464e-05
6.38484e-06
5.91971e-05
1.38234e-05
6.02186e-05
2.54756e-05
4.75483e-05
4.23961e-05
2.0199e-05
6.57374e-05
-2.2982e-05
9.67493e-05
-8.33117e-05
0.000136762
-0.000162238
0.000187147
-0.000261268
0.000249245
-0.000381843
0.000324272
-0.000525174
0.000413178
-0.000692031
0.000516503
-0.000882501
0.00063421
-0.00109578
0.000765564
-0.00133001
0.000908996
-0.00158221
0.00106222
-0.00184932
0.00122171
-0.00212511
-0.00239996
0.00138501
2.59306e-06
7.37969e-06
5.44105e-05
1.57526e-05
5.18456e-05
2.87445e-05
3.45565e-05
4.74769e-05
1.4666e-06
7.31677e-05
-4.86728e-05
0.000107123
-0.000117267
0.000150709
-0.000205824
0.000205295
-0.000315854
0.000272166
-0.000448714
0.000352401
-0.000605409
0.000446716
-0.000786346
0.000555301
-0.000991086
0.000677654
-0.00121813
0.000812476
-0.00146483
0.000957583
-0.00172731
0.00111002
-0.00200175
0.0012659
-0.002281
-0.00255634
0.00142228
8.46475e-06
1.78433e-05
4.24671e-05
3.22671e-05
2.01327e-05
5.29232e-05
-1.91894e-05
8.10896e-05
-7.68392e-05
0.000118119
-0.000154296
0.000165395
-0.0002531
0.00022426
-0.000374719
0.000295904
-0.000520358
0.000381221
-0.000690725
0.000480636
-0.000885761
0.000593936
-0.00110439
0.000720119
-0.00134431
0.000857324
-0.00160204
0.00100282
-0.00187281
0.00115315
-0.00215208
0.00130429
-0.00243214
-0.00270527
0.00145322
2.01011e-05
3.20099e-05
3.60499e-05
4.18391e-06
5.87395e-05
-4.1879e-05
8.95016e-05
-0.000107601
0.000129722
-0.000194517
0.000180782
-0.00030416
0.000243964
-0.000437901
0.000320321
-0.000596716
0.000410513
-0.000780917
0.000514623
-0.00098987
0.00063199
-0.00122175
0.000761096
-0.00147342
0.000899546
-0.00174049
0.00104416
-0.00201743
0.00119114
-0.00229906
0.00133652
-0.00257751
-0.00284622
0.00147747
2.253e-05
4.00961e-05
-1.33822e-05
6.49256e-05
-6.67085e-05
9.83943e-05
-0.00014107
0.000141905
-0.000238028
0.000196812
-0.000359067
0.000264303
-0.000505393
0.000345251
-0.000677664
0.00044003
-0.000875696
0.000548332
-0.00109817
0.000669023
-0.00134244
0.000800072
-0.00160447
0.000938606
-0.00187902
0.0010811
-0.00215992
0.00122361
-0.00244157
0.00136238
-0.00271628
-0.00297876
0.00149491
4.44062e-05
7.1476e-05
-9.37783e-05
0.00010775
-0.000177344
0.00015463
-0.000284907
0.000213412
-0.000417849
0.000285155
-0.000577135
0.000370501
-0.00076301
0.000469494
-0.000974688
0.000581398
-0.00121008
0.00070459
-0.00146564
0.000836555
-0.00173643
0.000974019
-0.00201649
0.00111325
-0.00229915
0.00125031
-0.00257863
0.0013818
-0.00284776
-0.00310261
0.00150564
7.83798e-05
0.000117543
-0.000216508
0.000167845
-0.000335208
0.000230493
-0.000480497
0.000306372
-0.000653014
0.000395854
-0.000852493
0.000498607
-0.00107744
0.000613442
-0.00132491
0.000738252
-0.00159045
0.000870087
-0.00186827
0.00100538
-0.00215178
0.0011403
-0.00243408
0.00127112
-0.00270945
0.00139485
-0.00297149
-0.00321769
0.00150993
0.000127739
0.000181485
-0.000388955
0.000247946
-0.000546958
0.000327791
-0.000732859
0.000421075
-0.000945777
0.000527058
-0.00118342
0.000644084
-0.00144194
0.000769592
-0.00171595
0.000900267
-0.00199894
0.00103235
-0.00228386
0.00116209
-0.00256381
0.00128604
-0.0028334
0.00140174
-0.00308719
-0.00332408
0.00150814
0.000195475
0.000265649
-0.000617132
0.000349229
-0.000816439
0.000445913
-0.00104246
0.000554528
-0.00129204
0.000672959
-0.00156037
0.000798233
-0.00184123
0.000926762
-0.00212747
0.00105473
-0.00241183
0.00117854
-0.00268763
0.00129519
-0.00295005
0.00140278
-0.00319478
-0.00342205
0.00150075
0.000283468
0.000370491
-0.000903462
0.00047011
-0.00114208
0.000580704
-0.00140263
0.000699723
-0.00167939
0.000823847
-0.00196535
0.000949316
-0.00225294
0.00107237
-0.00253488
0.00118971
-0.00280497
0.00129882
-0.00305915
0.00139838
-0.00329434
-0.00351195
0.00148828
0.000391373
0.000493404
-0.00124411
0.000605285
-0.00151451
0.000724067
-0.00179817
0.000846165
-0.00208745
0.000967757
-0.00237453
0.00108525
-0.00265238
0.00119574
-0.00291546
0.00129723
-0.00316064
0.00138897
-0.00338607
-0.00359426
0.00147128
0.000515541
0.00062799
-0.00162696
0.000745725
-0.00191591
0.000864985
-0.00220671
0.000981997
-0.00249155
0.00109344
-0.00276382
0.00119686
-0.00301888
0.0012908
-0.00325459
0.00137505
-0.00347032
-0.0036695
0.00145029
0.000648568
0.00076448
0.000880175
-0.00232241
0.000992028
-0.0026034
0.00109708
-0.00286887
0.00119335
-0.00311515
0.00127995
-0.00334119
0.00135711
-0.00354749
-0.00373823
0.00142584
0.000891669
0.000997916
-0.00270965
0.00109637
-0.00296732
0.00118556
-0.00320434
0.0012651
-0.00342073
0.00133564
-0.00361803
-0.003801
0.0013984
0.000999789
0.00109157
-0.0030591
0.00117384
-0.00328661
0.00124669
-0.00349357
0.00131109
-0.00368243
-0.00385835
0.00136844
0.00108298
0.00115859
0.00122515
-0.00356013
0.0012839
-0.00374118
-0.00391081
0.00133635
0.00120088
0.00125446
-0.00379477
-0.00395883
0.00130249
0.00122313
0.00126716
0.00122406
0.00379341
0.00395762
0.00126819
0.00120167
0.00355849
0.00125539
0.0037397
0.00390947
0.00130353
0.00108345
0.00305698
0.00115921
0.00328466
0.00122592
0.00349178
0.00128481
0.0036808
0.00385688
0.0013374
0.00100005
0.00270724
0.00109199
0.00296505
0.00117442
0.00320222
0.00124743
0.00341877
0.00131199
0.00361625
0.00379938
0.00136949
0.000780102
0.00202921
0.000891718
0.0023198
0.000998109
0.00260085
0.00109672
0.00286643
0.00118609
0.00311286
0.0012658
0.00333906
0.00133651
0.00354554
0.00373645
0.00139944
0.000648356
0.00162438
0.000764345
0.00191322
0.000880152
0.00220399
0.000992148
0.00248885
0.00109736
0.00276122
0.00119382
0.0030164
0.0012806
0.00325228
0.00135795
0.00346819
0.00366754
0.00142686
0.00051524
0.00124169
0.000627721
0.0015119
0.000745523
0.00179542
0.000864887
0.00208463
0.000982036
0.0023717
0.00109365
0.0026496
0.00119725
0.0029128
0.00129139
0.00315813
0.00137584
0.00338374
0.0035921
0.00145128
0.000391039
0.000901311
0.000493061
0.00113967
0.000604961
0.0014
0.000723797
0.00167658
0.000845987
0.00196243
0.00096771
0.00224998
0.00108537
0.00253194
0.00119605
0.00280212
0.00129775
0.00305643
0.0013897
0.00329179
0.00350958
0.00147223
0.000283142
0.000615304
0.000370126
0.000814327
0.000469724
0.00104007
0.000580325
0.0012894
0.000699385
0.00155753
0.000823588
0.00183823
0.000949178
0.00212439
0.00107239
0.00240873
0.00118993
0.00268458
0.00129925
0.00294711
0.00139904
0.003192
0.00341944
0.00148918
0.000195183
0.000387465
0.000265301
0.000545186
0.000348833
0.000730795
0.000445487
0.000943422
0.000554095
0.00118079
0.000672553
0.00143907
0.000797892
0.00171289
0.00092653
0.00199575
0.00105465
0.00228061
0.00117866
0.00256057
0.00129553
0.00283024
0.00140336
0.00308417
0.00332122
0.00150158
0.000127493
0.000215343
0.000181176
0.000333781
0.000247575
0.000478786
0.000327365
0.000651004
0.000420609
0.000850178
0.000526572
0.00107483
0.00064361
0.00132203
0.000769169
0.00158733
0.000899939
0.00186498
0.00103217
0.00214838
0.00116209
0.00243065
0.00128626
0.00270607
0.00140221
0.00296822
0.00321455
0.00150888
7.81829e-05
9.29072e-05
0.000117284
0.000176242
0.000167518
0.000283547