/*--------------------------------*- C++ -*----------------------------------*\
  =========                 |
  \\      /  F ield         | OpenFOAM: The Open Source CFD Toolbox
   \\    /   O peration     | Website:  https://openfoam.org
    \\  /    A nd           | Version:  7
     \\/     M anipulation  |
\*---------------------------------------------------------------------------*/
FoamFile
{
    version     2.0;
    format      ascii;
    class       volScalarField;
    location    "65";
    object      p;
}
// * * * * * * * * * * * * * * * * * * * * * * * * * * * * * * * * * * * * * //

dimensions      [0 2 -2 0 0 0 0];

internalField   nonuniform List<scalar> 
42700
(
-0.192308
-0.19318
-0.193753
-0.194242
-0.194679
-0.19506
-0.195395
-0.195693
-0.195961
-0.196206
-0.196431
-0.19664
-0.196837
-0.197022
-0.197197
-0.197363
-0.197521
-0.197673
-0.197818
-0.19796
-0.198099
-0.19824
-0.198386
-0.198538
-0.198702
-0.192226
-0.193078
-0.19364
-0.194118
-0.194545
-0.194916
-0.195242
-0.195532
-0.195791
-0.196026
-0.196242
-0.196443
-0.19663
-0.196806
-0.196972
-0.19713
-0.19728
-0.197423
-0.197563
-0.197699
-0.197836
-0.197976
-0.198124
-0.198279
-0.198449
-0.192181
-0.193012
-0.19356
-0.194027
-0.194443
-0.194804
-0.19512
-0.195399
-0.195649
-0.195874
-0.19608
-0.19627
-0.196447
-0.196613
-0.196769
-0.196916
-0.197057
-0.197192
-0.197324
-0.197454
-0.197586
-0.197724
-0.197873
-0.198031
-0.198204
-0.192171
-0.19298
-0.193513
-0.193967
-0.194371
-0.194721
-0.195026
-0.195295
-0.195534
-0.195748
-0.195943
-0.196122
-0.196287
-0.196441
-0.196586
-0.196723
-0.196853
-0.196978
-0.197101
-0.197224
-0.19735
-0.197484
-0.197632
-0.19779
-0.197965
-0.192197
-0.192981
-0.193499
-0.193939
-0.19433
-0.194668
-0.194961
-0.195218
-0.195445
-0.195647
-0.19583
-0.195996
-0.196149
-0.196291
-0.196423
-0.196548
-0.196666
-0.19678
-0.196892
-0.197005
-0.197124
-0.197253
-0.197399
-0.197556
-0.197729
-0.192255
-0.193015
-0.193516
-0.193941
-0.194319
-0.194643
-0.194924
-0.195168
-0.195382
-0.195571
-0.19574
-0.195893
-0.196033
-0.19616
-0.196279
-0.19639
-0.196495
-0.196596
-0.196696
-0.196798
-0.196908
-0.197029
-0.197173
-0.197326
-0.197494
-0.192345
-0.193078
-0.193562
-0.193973
-0.194335
-0.194646
-0.194913
-0.195143
-0.195343
-0.195518
-0.195673
-0.195811
-0.195936
-0.196049
-0.196152
-0.196247
-0.196337
-0.196424
-0.196511
-0.196601
-0.196699
-0.196812
-0.19695
-0.197098
-0.197259
-0.192465
-0.193172
-0.193637
-0.194032
-0.194379
-0.194675
-0.194927
-0.195143
-0.195328
-0.195488
-0.195628
-0.19575
-0.195858
-0.195954
-0.196041
-0.19612
-0.196193
-0.196264
-0.196335
-0.19641
-0.196495
-0.196598
-0.196729
-0.196869
-0.19702
-0.192614
-0.193293
-0.19374
-0.194118
-0.194449
-0.19473
-0.194966
-0.195167
-0.195336
-0.19548
-0.195602
-0.195707
-0.195798
-0.195876
-0.195944
-0.196005
-0.19606
-0.196113
-0.196167
-0.196226
-0.196296
-0.196385
-0.196507
-0.196638
-0.196775
-0.19279
-0.193441
-0.193869
-0.19423
-0.194545
-0.194809
-0.195029
-0.195213
-0.195365
-0.195492
-0.195596
-0.195682
-0.195754
-0.195813
-0.195862
-0.195902
-0.195938
-0.19597
-0.196005
-0.196045
-0.196098
-0.196172
-0.196283
-0.196403
-0.196523
-0.192992
-0.193615
-0.194024
-0.194367
-0.194664
-0.194911
-0.195115
-0.195281
-0.195415
-0.195523
-0.195608
-0.195675
-0.195726
-0.195764
-0.195791
-0.19581
-0.195823
-0.195834
-0.195847
-0.195867
-0.1959
-0.195957
-0.196055
-0.19616
-0.196259
-0.193219
-0.193813
-0.194203
-0.194528
-0.194808
-0.195037
-0.195222
-0.19537
-0.195485
-0.195573
-0.195638
-0.195683
-0.195712
-0.195727
-0.195731
-0.195727
-0.195716
-0.195703
-0.195692
-0.195689
-0.1957
-0.195737
-0.195819
-0.195907
-0.195983
-0.193468
-0.194035
-0.194405
-0.194712
-0.194973
-0.195184
-0.195351
-0.195479
-0.195574
-0.195641
-0.195684
-0.195706
-0.195712
-0.195703
-0.195682
-0.195652
-0.195615
-0.195576
-0.195539
-0.19551
-0.195496
-0.19551
-0.195574
-0.195644
-0.195691
-0.19374
-0.194279
-0.194629
-0.194918
-0.195161
-0.195353
-0.1955
-0.195608
-0.195681
-0.195726
-0.195745
-0.195744
-0.195724
-0.195689
-0.195641
-0.195583
-0.195518
-0.195451
-0.195385
-0.195328
-0.195287
-0.195275
-0.195319
-0.195367
-0.195381
-0.194032
-0.194544
-0.194876
-0.195146
-0.195369
-0.195542
-0.195668
-0.195755
-0.195806
-0.195827
-0.195822
-0.195794
-0.195748
-0.195685
-0.195608
-0.195521
-0.195426
-0.195327
-0.19523
-0.195141
-0.195071
-0.195031
-0.19505
-0.195076
-0.19505
-0.194344
-0.19483
-0.195143
-0.195394
-0.195598
-0.19575
-0.195856
-0.19592
-0.195948
-0.195944
-0.195913
-0.195858
-0.195783
-0.19569
-0.195583
-0.195464
-0.195336
-0.195203
-0.195072
-0.19495
-0.194846
-0.194774
-0.194768
-0.194769
-0.194695
-0.194675
-0.195137
-0.19543
-0.195663
-0.195847
-0.195978
-0.196062
-0.196103
-0.196106
-0.196076
-0.196017
-0.195933
-0.195828
-0.195704
-0.195564
-0.195411
-0.195248
-0.19508
-0.194912
-0.194753
-0.194612
-0.194505
-0.194469
-0.194444
-0.1943
-0.195025
-0.195462
-0.195737
-0.195951
-0.196115
-0.196226
-0.196287
-0.196303
-0.196281
-0.196223
-0.196135
-0.196021
-0.195884
-0.195726
-0.195552
-0.195363
-0.195162
-0.194955
-0.194747
-0.194548
-0.194367
-0.194222
-0.194154
-0.1941
-0.193853
-0.195393
-0.195807
-0.196064
-0.196259
-0.196403
-0.196492
-0.196529
-0.196521
-0.196471
-0.196384
-0.196266
-0.19612
-0.195949
-0.195757
-0.195545
-0.195318
-0.195078
-0.19483
-0.194579
-0.194336
-0.194112
-0.193924
-0.19382
-0.193739
-0.193461
-0.195779
-0.196171
-0.196411
-0.196587
-0.19671
-0.196776
-0.19679
-0.196755
-0.196677
-0.19656
-0.19641
-0.19623
-0.196024
-0.195795
-0.195545
-0.195278
-0.194996
-0.194703
-0.194407
-0.194117
-0.193846
-0.193612
-0.193467
-0.193338
-0.193043
-0.196182
-0.196555
-0.196777
-0.196934
-0.197037
-0.19708
-0.197068
-0.197006
-0.196898
-0.19675
-0.196567
-0.196352
-0.196109
-0.195842
-0.195552
-0.195242
-0.194915
-0.194576
-0.194232
-0.193892
-0.193569
-0.193285
-0.193094
-0.192917
-0.192577
-0.196604
-0.196957
-0.197163
-0.197302
-0.197383
-0.197403
-0.197365
-0.197274
-0.197136
-0.196955
-0.196737
-0.196486
-0.196205
-0.195897
-0.195565
-0.195211
-0.194838
-0.19445
-0.194054
-0.19366
-0.193281
-0.192942
-0.192703
-0.192476
-0.192072
-0.197044
-0.19738
-0.197569
-0.197689
-0.197749
-0.197744
-0.197679
-0.197559
-0.19739
-0.197175
-0.196921
-0.196632
-0.196311
-0.195962
-0.195586
-0.195186
-0.194764
-0.194325
-0.193875
-0.193423
-0.192985
-0.192585
-0.192293
-0.192011
-0.19153
-0.197503
-0.197823
-0.197996
-0.198098
-0.198135
-0.198106
-0.198013
-0.197863
-0.19766
-0.19741
-0.197119
-0.19679
-0.196428
-0.196036
-0.195615
-0.195168
-0.194696
-0.194203
-0.193696
-0.193183
-0.192681
-0.192216
-0.191863
-0.191522
-0.19095
-0.197982
-0.198287
-0.198445
-0.198528
-0.198543
-0.198488
-0.198367
-0.198184
-0.197947
-0.197661
-0.197331
-0.196962
-0.196558
-0.196121
-0.195654
-0.195158
-0.194634
-0.194086
-0.193519
-0.192943
-0.192372
-0.191835
-0.191416
-0.191009
-0.190328
-0.198483
-0.198774
-0.198917
-0.198981
-0.198973
-0.198891
-0.19874
-0.198525
-0.198253
-0.197929
-0.197559
-0.197148
-0.1967
-0.196218
-0.195703
-0.195157
-0.194581
-0.193976
-0.193347
-0.192703
-0.192059
-0.191445
-0.190954
-0.190473
-0.189662
-0.199006
-0.199285
-0.199413
-0.199457
-0.199426
-0.199317
-0.199135
-0.198886
-0.198577
-0.198214
-0.197803
-0.197349
-0.196857
-0.196328
-0.195765
-0.195168
-0.194538
-0.193875
-0.193182
-0.192469
-0.191748
-0.191049
-0.190477
-0.189914
-0.188948
-0.199554
-0.199822
-0.199934
-0.199959
-0.199903
-0.199766
-0.199552
-0.199268
-0.19892
-0.198517
-0.198064
-0.197566
-0.197028
-0.196453
-0.195841
-0.195193
-0.194508
-0.193786
-0.193028
-0.192243
-0.19144
-0.190651
-0.189991
-0.189336
-0.188183
-0.200129
-0.200385
-0.200483
-0.200487
-0.200406
-0.200239
-0.199992
-0.199671
-0.199285
-0.19884
-0.198343
-0.1978
-0.197216
-0.196593
-0.195931
-0.195232
-0.194492
-0.193711
-0.192888
-0.192028
-0.191141
-0.190255
-0.189497
-0.188741
-0.187364
-0.200733
-0.200978
-0.20106
-0.201043
-0.200937
-0.200739
-0.200457
-0.200098
-0.199671
-0.199183
-0.198642
-0.198053
-0.197421
-0.19675
-0.196039
-0.195287
-0.194493
-0.193652
-0.192764
-0.191829
-0.190855
-0.189866
-0.189001
-0.188132
-0.186487
-0.201368
-0.201603
-0.201669
-0.20163
-0.201496
-0.201266
-0.200948
-0.20055
-0.20008
-0.199548
-0.198961
-0.198325
-0.197646
-0.196925
-0.196164
-0.195362
-0.194513
-0.193614
-0.192659
-0.191649
-0.190585
-0.189489
-0.188507
-0.187516
-0.18555
-0.202036
-0.202261
-0.20231
-0.202249
-0.202086
-0.201823
-0.201467
-0.201028
-0.200515
-0.199937
-0.199302
-0.198618
-0.19789
-0.197121
-0.19631
-0.195456
-0.194553
-0.193596
-0.192577
-0.191492
-0.190338
-0.189129
-0.188021
-0.186897
-0.184549
-0.202743
-0.202956
-0.202988
-0.202902
-0.202709
-0.202411
-0.202016
-0.201534
-0.200975
-0.20035
-0.199667
-0.198934
-0.198156
-0.197337
-0.196476
-0.195571
-0.194616
-0.193602
-0.19252
-0.19136
-0.190116
-0.188792
-0.187549
-0.186284
-0.183486
-0.203489
-0.20369
-0.203704
-0.203592
-0.203368
-0.203032
-0.202596
-0.202069
-0.201463
-0.200789
-0.200056
-0.199273
-0.198445
-0.197576
-0.196665
-0.195709
-0.194703
-0.193634
-0.192489
-0.191257
-0.189924
-0.188482
-0.187095
-0.185683
-0.18236
-0.204279
-0.204467
-0.20446
-0.204322
-0.204063
-0.203689
-0.203209
-0.202636
-0.201981
-0.201256
-0.200472
-0.199637
-0.198758
-0.197838
-0.196877
-0.195872
-0.194814
-0.193691
-0.192487
-0.191185
-0.189763
-0.188203
-0.186666
-0.185104
-0.181175
-0.205116
-0.20529
-0.205261
-0.205093
-0.204799
-0.204383
-0.203858
-0.203236
-0.20253
-0.201753
-0.200916
-0.200028
-0.199097
-0.198126
-0.197114
-0.196059
-0.19495
-0.193775
-0.192514
-0.191144
-0.189638
-0.18796
-0.186265
-0.184552
-0.179938
-0.206004
-0.206161
-0.206109
-0.205909
-0.205577
-0.205118
-0.204545
-0.203872
-0.203113
-0.202281
-0.20139
-0.200448
-0.199463
-0.19844
-0.197377
-0.196272
-0.195114
-0.193887
-0.19257
-0.191135
-0.189547
-0.187755
-0.185898
-0.184036
-0.178656
-0.206948
-0.207085
-0.207007
-0.206773
-0.2064
-0.205895
-0.205272
-0.204545
-0.203731
-0.202844
-0.201896
-0.200898
-0.199858
-0.198782
-0.197668
-0.196512
-0.195304
-0.194028
-0.192657
-0.19116
-0.189494
-0.187591
-0.185568
-0.183557
-0.177341
-0.20795
-0.208065
-0.207958
-0.207688
-0.207272
-0.206718
-0.206041
-0.205259
-0.204387
-0.203441
-0.202435
-0.20138
-0.200284
-0.199153
-0.197986
-0.19678
-0.195523
-0.194197
-0.192774
-0.191218
-0.18948
-0.187472
-0.185282
-0.183119
-0.176012
-0.209016
-0.209106
-0.208967
-0.208657
-0.208194
-0.207588
-0.206856
-0.206015
-0.205083
-0.204077
-0.20301
-0.201896
-0.200742
-0.199556
-0.198336
-0.197078
-0.195771
-0.194397
-0.192924
-0.191313
-0.189508
-0.187401
-0.185051
-0.182725
-0.174702
-0.21015
-0.21021
-0.210036
-0.209684
-0.209171
-0.20851
-0.207719
-0.206817
-0.205822
-0.204753
-0.203624
-0.202448
-0.201236
-0.199991
-0.198717
-0.197407
-0.196051
-0.194628
-0.193108
-0.191447
-0.189582
-0.187388
-0.184893
-0.182384
-0.173478
-0.211355
-0.211381
-0.21117
-0.210771
-0.210204
-0.209485
-0.208632
-0.207666
-0.206606
-0.205471
-0.204278
-0.203039
-0.201766
-0.200463
-0.199133
-0.19777
-0.196364
-0.194894
-0.193329
-0.191624
-0.18971
-0.187444
-0.184831
-0.182077
-0.172371
-0.212638
-0.212625
-0.212371
-0.211922
-0.211299
-0.210517
-0.209599
-0.208566
-0.207438
-0.206236
-0.204976
-0.203672
-0.202335
-0.200973
-0.199585
-0.198168
-0.196712
-0.195196
-0.193591
-0.191851
-0.189907
-0.1876
-0.184919
-0.181716
-0.171208
-0.214001
-0.213944
-0.213644
-0.213141
-0.212457
-0.21161
-0.210623
-0.20952
-0.208321
-0.207048
-0.205719
-0.204348
-0.202947
-0.201523
-0.200077
-0.198605
-0.197098
-0.195538
-0.193897
-0.192135
-0.19019
-0.187914
-0.185306
-0.181446
-0.170308
-0.215451
-0.215344
-0.214992
-0.214431
-0.213682
-0.212766
-0.211707
-0.21053
-0.209258
-0.207912
-0.206512
-0.205072
-0.203605
-0.202117
-0.200611
-0.199083
-0.197525
-0.195921
-0.194249
-0.192478
-0.190568
-0.188428
-0.186182
-0.182325
-0.173945
-0.21699
-0.216827
-0.216421
-0.215796
-0.214978
-0.213989
-0.212854
-0.2116
-0.210252
-0.208831
-0.207357
-0.205846
-0.204311
-0.202758
-0.20119
-0.199605
-0.197994
-0.196347
-0.194644
-0.192872
-0.191018
-0.189063
-0.187348
-0.184987
-0.190257
-0.218625
-0.218399
-0.217932
-0.21724
-0.216348
-0.215281
-0.214068
-0.212734
-0.211306
-0.209807
-0.208257
-0.206674
-0.205068
-0.203448
-0.201817
-0.200172
-0.198508
-0.196813
-0.195079
-0.193301
-0.191496
-0.189698
-0.188405
-0.186605
-0.194256
-0.220359
-0.220063
-0.21953
-0.218766
-0.217796
-0.216647
-0.215351
-0.213934
-0.212423
-0.210844
-0.209216
-0.207558
-0.20588
-0.204191
-0.202494
-0.200788
-0.199066
-0.197321
-0.195548
-0.193753
-0.191972
-0.190257
-0.189169
-0.187394
-0.194901
-0.222197
-0.221824
-0.22122
-0.220378
-0.219325
-0.218091
-0.216707
-0.215203
-0.213608
-0.211945
-0.210238
-0.208502
-0.20675
-0.204991
-0.203225
-0.201453
-0.199669
-0.197867
-0.196046
-0.194217
-0.192424
-0.19072
-0.189668
-0.187771
-0.194579
-0.224143
-0.223685
-0.223005
-0.22208
-0.220939
-0.219615
-0.21814
-0.216546
-0.214863
-0.213115
-0.211325
-0.20951
-0.207682
-0.205849
-0.204012
-0.20217
-0.200318
-0.198451
-0.196567
-0.194681
-0.19284
-0.19108
-0.189935
-0.18782
-0.193582
-0.226202
-0.225651
-0.224888
-0.223876
-0.222642
-0.221223
-0.219653
-0.217966
-0.216192
-0.214356
-0.212482
-0.210585
-0.208678
-0.206768
-0.204856
-0.20294
-0.201012
-0.199068
-0.197106
-0.195139
-0.19321
-0.191335
-0.189996
-0.187595
-0.192154
-0.228378
-0.227726
-0.226875
-0.225769
-0.224437
-0.222919
-0.221251
-0.219467
-0.217599
-0.215673
-0.213711
-0.211731
-0.209743
-0.207753
-0.20576
-0.203762
-0.201749
-0.199715
-0.197657
-0.195583
-0.193527
-0.191485
-0.18988
-0.187159
-0.190487
-0.230676
-0.229913
-0.228967
-0.227763
-0.226328
-0.224706
-0.222936
-0.221053
-0.219088
-0.217069
-0.215018
-0.212951
-0.210878
-0.208803
-0.206725
-0.204636
-0.202528
-0.200389
-0.198215
-0.196006
-0.193787
-0.191537
-0.189615
-0.186562
-0.188699
-0.233098
-0.232217
-0.23117
-0.229862
-0.228319
-0.22659
-0.224714
-0.222727
-0.220663
-0.218548
-0.216405
-0.214248
-0.212086
-0.209922
-0.20775
-0.205562
-0.203345
-0.201086
-0.198774
-0.196403
-0.19399
-0.191496
-0.189225
-0.185841
-0.186862
-0.235649
-0.234641
-0.233487
-0.232069
-0.230413
-0.228572
-0.226587
-0.224494
-0.222327
-0.220114
-0.217876
-0.215626
-0.21337
-0.21111
-0.208837
-0.206539
-0.204199
-0.2018
-0.199328
-0.19677
-0.194133
-0.191369
-0.18873
-0.185022
-0.18502
-0.238333
-0.237189
-0.235922
-0.234388
-0.232615
-0.230658
-0.228559
-0.226357
-0.224085
-0.221771
-0.219434
-0.217087
-0.214732
-0.212368
-0.209984
-0.207563
-0.205084
-0.202527
-0.199872
-0.197102
-0.194216
-0.191162
-0.188147
-0.184126
-0.183197
-0.241153
-0.239864
-0.238477
-0.236823
-0.234927
-0.23285
-0.230635
-0.228321
-0.225941
-0.223523
-0.221083
-0.218633
-0.216174
-0.213698
-0.21119
-0.208631
-0.205997
-0.20326
-0.2004
-0.197395
-0.194238
-0.190878
-0.187486
-0.183164
-0.181407
-0.244113
-0.242669
-0.241157
-0.239377
-0.237354
-0.235153
-0.232818
-0.230388
-0.227898
-0.225372
-0.222826
-0.220268
-0.217695
-0.215097
-0.212453
-0.209741
-0.206931
-0.203994
-0.200906
-0.197644
-0.194197
-0.19052
-0.186756
-0.182145
-0.179653
-0.247215
-0.245607
-0.243964
-0.242053
-0.239899
-0.23757
-0.235112
-0.232564
-0.22996
-0.227322
-0.224665
-0.221992
-0.219296
-0.216564
-0.21377
-0.210886
-0.20788
-0.204722
-0.201384
-0.197845
-0.194093
-0.190092
-0.185963
-0.181073
-0.177932
-0.250462
-0.248682
-0.246901
-0.244854
-0.242565
-0.240105
-0.23752
-0.234851
-0.232129
-0.229376
-0.226601
-0.223805
-0.220977
-0.218097
-0.215136
-0.212061
-0.208838
-0.205436
-0.201827
-0.197992
-0.193924
-0.189594
-0.18511
-0.17995
-0.176237
-0.253856
-0.251894
-0.24997
-0.247784
-0.245355
-0.24276
-0.240047
-0.237254
-0.23441
-0.231535
-0.228637
-0.225709
-0.222736
-0.219692
-0.216545
-0.213259
-0.209797
-0.206129
-0.202229
-0.198082
-0.193687
-0.189026
-0.184197
-0.178776
-0.174561
-0.2574
-0.255247
-0.253175
-0.250844
-0.248272
-0.24554
-0.242695
-0.239773
-0.236804
-0.233803
-0.230772
-0.227701
-0.224568
-0.221344
-0.217992
-0.214472
-0.210749
-0.206792
-0.202582
-0.198109
-0.193379
-0.188387
-0.183224
-0.17755
-0.172891
-0.261094
-0.258742
-0.256516
-0.254036
-0.251318
-0.248446
-0.245466
-0.242413
-0.239314
-0.236179
-0.233006
-0.229779
-0.226472
-0.223049
-0.219469
-0.215693
-0.211685
-0.207419
-0.202881
-0.19807
-0.192999
-0.187676
-0.182191
-0.17627
-0.171216
-0.264939
-0.26238
-0.259995
-0.257363
-0.254496
-0.251481
-0.248362
-0.245174
-0.241939
-0.238662
-0.235337
-0.23194
-0.22844
-0.224797
-0.220967
-0.216911
-0.212595
-0.207999
-0.203117
-0.197958
-0.192543
-0.186892
-0.181094
-0.174933
-0.169527
-0.268936
-0.266161
-0.263613
-0.260826
-0.257806
-0.254645
-0.251386
-0.248058
-0.244681
-0.241253
-0.237762
-0.23418
-0.230467
-0.226581
-0.222477
-0.218116
-0.21347
-0.208525
-0.203286
-0.197769
-0.192008
-0.186032
-0.179931
-0.173535
-0.167811
-0.273083
-0.270085
-0.26737
-0.264424
-0.26125
-0.257941
-0.254537
-0.251065
-0.247537
-0.243948
-0.240278
-0.236491
-0.232544
-0.228391
-0.223988
-0.219298
-0.214299
-0.208989
-0.203379
-0.197499
-0.191391
-0.185095
-0.1787
-0.172073
-0.16606
-0.277379
-0.274151
-0.271265
-0.268158
-0.264828
-0.261368
-0.257815
-0.254193
-0.250506
-0.246744
-0.242877
-0.238866
-0.234662
-0.230217
-0.225488
-0.220445
-0.215074
-0.209381
-0.203391
-0.197143
-0.190688
-0.184078
-0.177397
-0.170544
-0.164264
-0.281822
-0.278356
-0.275297
-0.272027
-0.268538
-0.264924
-0.261219
-0.25744
-0.253585
-0.249634
-0.245554
-0.241296
-0.23681
-0.232047
-0.226967
-0.221547
-0.215783
-0.209694
-0.203315
-0.196696
-0.189898
-0.182977
-0.176019
-0.168945
-0.162417
-0.286408
-0.282698
-0.279463
-0.276029
-0.272379
-0.268609
-0.264747
-0.260802
-0.256767
-0.252613
-0.248298
-0.24377
-0.238975
-0.233867
-0.22841
-0.222591
-0.216417
-0.20992
-0.203145
-0.196155
-0.189016
-0.181791
-0.174563
-0.167271
-0.160509
-0.291132
-0.287174
-0.28376
-0.28016
-0.276347
-0.272419
-0.268394
-0.264276
-0.260047
-0.255671
-0.2511
-0.246276
-0.241145
-0.235664
-0.229805
-0.223565
-0.216966
-0.21005
-0.202876
-0.195515
-0.188039
-0.180516
-0.173025
-0.16552
-0.158536
-0.295989
-0.291777
-0.288183
-0.284416
-0.28044
-0.276349
-0.272155
-0.267853
-0.263415
-0.258799
-0.253947
-0.248801
-0.243306
-0.237424
-0.231138
-0.224459
-0.21742
-0.210078
-0.202502
-0.194772
-0.186964
-0.179149
-0.171402
-0.163688
-0.156491
-0.300972
-0.296502
-0.292727
-0.288793
-0.284652
-0.280394
-0.276024
-0.271526
-0.266863
-0.261984
-0.256826
-0.251328
-0.24544
-0.239131
-0.232397
-0.22526
-0.21777
-0.209995
-0.202018
-0.193922
-0.185788
-0.177686
-0.16969
-0.161771
-0.154369
-0.306072
-0.301341
-0.297385
-0.293284
-0.288975
-0.284546
-0.279992
-0.275284
-0.270378
-0.265213
-0.259721
-0.253844
-0.247534
-0.240772
-0.233566
-0.225956
-0.218005
-0.209796
-0.201417
-0.19296
-0.184506
-0.176125
-0.167886
-0.159766
-0.152165
-0.311279
-0.306285
-0.302148
-0.297879
-0.293402
-0.288797
-0.284048
-0.279117
-0.273946
-0.26847
-0.262617
-0.256329
-0.249569
-0.242329
-0.234633
-0.226537
-0.218119
-0.209472
-0.200695
-0.191882
-0.183115
-0.174462
-0.165986
-0.157669
-0.149874
-0.316581
-0.311324
-0.307007
-0.302571
-0.297923
-0.293136
-0.288182
-0.28301
-0.277553
-0.271738
-0.265494
-0.258767
-0.251529
-0.243787
-0.235584
-0.226991
-0.218101
-0.209018
-0.199847
-0.190684
-0.18161
-0.172693
-0.163986
-0.155477
-0.147493
-0.321967
-0.316446
-0.311951
-0.307348
-0.302526
-0.297551
-0.292379
-0.286948
-0.281181
-0.275
-0.268334
-0.261137
-0.253395
-0.245131
-0.236405
-0.227307
-0.217943
-0.208426
-0.198866
-0.189361
-0.179989
-0.170813
-0.161881
-0.153185
-0.145017
-0.327421
-0.321638
-0.316966
-0.312197
-0.307199
-0.302027
-0.296624
-0.290913
-0.284811
-0.278235
-0.271118
-0.263422
-0.25515
-0.246345
-0.237084
-0.227475
-0.217636
-0.20769
-0.197749
-0.187908
-0.178246
-0.168819
-0.159669
-0.15079
-0.142442
-0.332927
-0.326884
-0.322039
-0.317104
-0.311926
-0.306549
-0.300899
-0.294888
-0.288424
-0.281422
-0.273823
-0.265601
-0.256777
-0.247413
-0.237608
-0.227485
-0.217174
-0.206804
-0.196488
-0.186321
-0.176376
-0.166705
-0.157344
-0.148287
-0.139764
-0.338468
-0.332168
-0.327153
-0.322053
-0.316692
-0.311099
-0.305186
-0.298852
-0.291997
-0.28454
-0.276428
-0.267654
-0.258256
-0.24832
-0.237964
-0.227326
-0.216547
-0.20576
-0.195079
-0.184595
-0.174376
-0.164469
-0.154902
-0.145672
-0.136979
-0.344025
-0.337473
-0.33229
-0.327027
-0.321477
-0.315658
-0.309464
-0.302781
-0.295508
-0.287565
-0.278912
-0.26956
-0.259571
-0.249052
-0.238141
-0.22699
-0.215748
-0.204553
-0.193515
-0.182724
-0.17224
-0.162104
-0.152339
-0.142942
-0.134083
-0.349575
-0.342778
-0.337433
-0.332005
-0.326262
-0.320204
-0.313709
-0.306654
-0.298933
-0.290474
-0.281252
-0.2713
-0.260704
-0.249594
-0.238126
-0.226466
-0.21477
-0.203175
-0.191792
-0.180702
-0.169962
-0.159607
-0.14965
-0.140093
-0.131072
-0.355098
-0.348063
-0.342559
-0.336968
-0.331025
-0.324715
-0.317899
-0.310444
-0.302245
-0.293241
-0.283425
-0.272854
-0.261638
-0.249931
-0.237908
-0.225745
-0.213604
-0.201621
-0.189903
-0.178526
-0.167539
-0.156972
-0.146831
-0.137119
-0.127943
-0.36057
-0.353304
-0.347647
-0.341891
-0.335742
-0.329165
-0.322007
-0.314126
-0.305421
-0.295844
-0.28541
-0.274201
-0.262356
-0.250051
-0.237477
-0.224819
-0.212243
-0.199884
-0.187843
-0.176189
-0.164965
-0.154194
-0.143878
-0.134016
-0.124691
-0.365964
-0.358478
-0.352672
-0.346753
-0.340389
-0.333531
-0.326007
-0.317672
-0.308432
-0.298256
-0.287182
-0.275323
-0.262843
-0.24994
-0.23682
-0.223678
-0.21068
-0.197957
-0.185605
-0.173685
-0.162235
-0.151268
-0.140784
-0.130781
-0.121313
-0.371254
-0.363559
-0.35761
-0.351525
-0.34494
-0.337783
-0.32987
-0.321056
-0.311253
-0.300453
-0.288721
-0.2762
-0.263082
-0.249585
-0.235929
-0.222315
-0.208907
-0.195834
-0.183183
-0.171009
-0.159342
-0.14819
-0.137547
-0.12741
-0.117805
-0.376414
-0.36852
-0.362434
-0.356183
-0.349366
-0.341893
-0.333569
-0.324248
-0.313857
-0.30241
-0.290005
-0.276815
-0.263058
-0.248974
-0.234793
-0.22072
-0.206918
-0.193508
-0.180571
-0.168156
-0.156283
-0.144955
-0.134161
-0.123897
-0.114163
-0.381412
-0.373333
-0.367115
-0.360697
-0.353639
-0.345833
-0.337074
-0.327219
-0.316216
-0.304103
-0.291013
-0.277149
-0.262757
-0.248095
-0.233402
-0.218885
-0.204704
-0.190972
-0.177764
-0.165119
-0.153051
-0.141557
-0.130622
-0.120239
-0.110384
-0.38622
-0.37797
-0.371626
-0.365037
-0.357728
-0.349571
-0.340354
-0.329942
-0.318303
-0.305508
-0.291724
-0.277186
-0.262166
-0.246937
-0.231748
-0.216803
-0.202259
-0.188221
-0.174756
-0.161893
-0.149642
-0.137993
-0.126925
-0.116433
-0.106464
-0.390807
-0.3824
-0.375936
-0.369175
-0.361603
-0.353077
-0.34338
-0.332387
-0.320092
-0.306602
-0.292119
-0.27691
-0.26127
-0.245489
-0.22982
-0.214465
-0.199575
-0.185248
-0.17154
-0.158473
-0.146051
-0.134256
-0.123067
-0.112474
-0.1024
-0.395142
-0.386593
-0.380014
-0.373078
-0.365233
-0.35632
-0.34612
-0.334525
-0.321558
-0.307363
-0.292178
-0.276304
-0.260058
-0.243741
-0.22761
-0.211865
-0.196647
-0.182047
-0.16811
-0.154854
-0.142272
-0.130344
-0.119044
-0.108358
-0.0981893
-0.399192
-0.390517
-0.383829
-0.376716
-0.368586
-0.359268
-0.348544
-0.336328
-0.322675
-0.307768
-0.291884
-0.275354
-0.258517
-0.241684
-0.225111
-0.208994
-0.193468
-0.178611
-0.164462
-0.151029
-0.138301
-0.126251
-0.114851
-0.104083
-0.0938279
-0.402924
-0.39414
-0.387349
-0.380055
-0.37163
-0.361889
-0.350623
-0.337769
-0.323419
-0.307798
-0.29122
-0.274047
-0.256637
-0.239306
-0.222314
-0.205847
-0.19003
-0.174935
-0.16059
-0.146995
-0.134133
-0.121973
-0.110485
-0.0996444
-0.0893136
-0.406306
-0.397431
-0.390542
-0.383063
-0.374331
-0.364151
-0.352326
-0.33882
-0.323766
-0.307431
-0.290169
-0.272369
-0.254406
-0.236601
-0.219211
-0.202415
-0.186329
-0.171013
-0.156488
-0.142747
-0.129765
-0.117508
-0.105943
-0.0950397
-0.0846435
-0.409306
-0.400356
-0.393376
-0.385709
-0.376658
-0.366025
-0.353625
-0.339456
-0.323694
-0.306651
-0.288717
-0.270309
-0.251814
-0.23356
-0.215795
-0.198694
-0.182359
-0.166841
-0.152152
-0.138279
-0.125191
-0.11285
-0.10122
-0.090266
-0.0798153
-0.411892
-0.402885
-0.395818
-0.387959
-0.37858
-0.36748
-0.354492
-0.339652
-0.323182
-0.305438
-0.286849
-0.267854
-0.248853
-0.230174
-0.212061
-0.194676
-0.178113
-0.162412
-0.147578
-0.133588
-0.120409
-0.107996
-0.0963155
-0.0853206
-0.0748268
-0.41403
-0.404985
-0.397836
-0.389782
-0.380066
-0.368485
-0.354899
-0.339385
-0.32221
-0.303778
-0.284553
-0.264995
-0.245514
-0.226437
-0.208001
-0.190356
-0.173587
-0.157723
-0.14276
-0.128671
-0.115414
-0.102944
-0.0912251
-0.0802012
-0.0696761
-0.415691
-0.406625
-0.3994
-0.391147
-0.381084
-0.369013
-0.354822
-0.338631
-0.32076
-0.301656
-0.281816
-0.261722
-0.24179
-0.222343
-0.203609
-0.18573
-0.168776
-0.152769
-0.137695
-0.123522
-0.110205
-0.0976914
-0.0859468
-0.0749058
-0.0643616
-0.416842
-0.407774
-0.400478
-0.392024
-0.381606
-0.369037
-0.354236
-0.337371
-0.318814
-0.299057
-0.278628
-0.258026
-0.237672
-0.217885
-0.198881
-0.180792
-0.163676
-0.147546
-0.13238
-0.11814
-0.104776
-0.0922348
-0.0804787
-0.0694326
-0.0588819
-0.417455
-0.408403
-0.40104
-0.392382
-0.381604
-0.36853
-0.353117
-0.335585
-0.316358
-0.295969
-0.274979
-0.253901
-0.233156
-0.213058
-0.193812
-0.175538
-0.158283
-0.14205
-0.126811
-0.112522
-0.0991278
-0.0865724
-0.0748188
-0.0637802
-0.0532359
-0.4175
-0.408482
-0.401059
-0.392194
-0.38105
-0.367468
-0.351445
-0.333256
-0.313376
-0.292382
-0.270861
-0.249338
-0.228235
-0.207857
-0.188398
-0.169964
-0.152593
-0.136279
-0.120986
-0.106664
-0.0932564
-0.0807025
-0.0689657
-0.0579473
-0.0474226
-0.416951
-0.407985
-0.400506
-0.391434
-0.37992
-0.365828
-0.349201
-0.330367
-0.309856
-0.288285
-0.266266
-0.244333
-0.222906
-0.202279
-0.182635
-0.164068
-0.146605
-0.13023
-0.114902
-0.100566
-0.0871607
-0.0746237
-0.0629183
-0.0519331
-0.0414411
-0.415782
-0.406885
-0.399354
-0.390074
-0.37819
-0.363589
-0.346366
-0.326905
-0.305788
-0.283671
-0.261188
-0.238881
-0.217163
-0.19632
-0.176521
-0.157847
-0.140315
-0.123901
-0.108558
-0.0942254
-0.0808394
-0.0683351
-0.0566757
-0.0457374
-0.0352925
-0.413967
-0.405157
-0.397581
-0.388093
-0.375837
-0.360732
-0.342924
-0.322856
-0.301161
-0.278533
-0.255623
-0.232978
-0.211005
-0.189978
-0.170053
-0.151298
-0.133722
-0.117291
-0.101952
-0.0876415
-0.0742916
-0.0618356
-0.0502369
-0.0393604
-0.0289807
-0.411485
-0.402779
-0.395162
-0.385467
-0.372843
-0.357241
-0.338862
-0.31821
-0.295969
-0.272864
-0.249566
-0.22662
-0.204429
-0.18325
-0.163229
-0.144422
-0.126824
-0.110398
-0.0950835
-0.0808138
-0.067517
-0.0551246
-0.0436003
-0.0328008
-0.0225038
-0.408315
-0.399729
-0.392077
-0.382177
-0.369188
-0.353099
-0.334168
-0.312959
-0.290204
-0.266662
-0.243014
-0.219807
-0.197433
-0.176137
-0.15605
-0.137215
-0.119622
-0.103222
-0.0879528
-0.0737423
-0.0605159
-0.0482024
-0.0367666
-0.0260553
-0.0158342
-0.404437
-0.395988
-0.388307
-0.378206
-0.364858
-0.348293
-0.328831
-0.307095
-0.283863
-0.259923
-0.235966
-0.212538
-0.190017
-0.168637
-0.148514
-0.12968
-0.112115
-0.0957642
-0.0805601
-0.0664277
-0.053289
-0.0410711
-0.0297416
-0.0191289
-0.00893432
-0.399836
-0.391539
-0.383835
-0.373537
-0.359838
-0.342813
-0.322844
-0.300613
-0.276942
-0.252645
-0.228422
-0.204812
-0.182182
-0.160751
-0.140622
-0.121816
-0.104303
-0.0880246
-0.0729065
-0.0588711
-0.0458377
-0.033733
-0.0225294
-0.0120361
-0.00187121
-0.394497
-0.386367
-0.378645
-0.368156
-0.354116
-0.33665
-0.316201
-0.293509
-0.26944
-0.244829
-0.220382
-0.19663
-0.173929
-0.152481
-0.132376
-0.113625
-0.0961898
-0.0800049
-0.0649933
-0.051074
-0.0381638
-0.0261895
-0.0151232
-0.00473115
0.00525673
-0.388407
-0.380459
-0.372726
-0.362053
-0.347685
-0.329797
-0.308897
-0.285782
-0.261357
-0.236477
-0.211849
-0.187996
-0.16526
-0.143828
-0.123778
-0.105109
-0.0877758
-0.0717073
-0.0568228
-0.0430387
-0.0302697
-0.0184427
-0.00752738
0.00273826
0.0125449
-0.381556
-0.373803
-0.366067
-0.355218
-0.340536
-0.322249
-0.300931
-0.277432
-0.252695
-0.227589
-0.202824
-0.178911
-0.156177
-0.134796
-0.114831
-0.096271
-0.079064
-0.0631342
-0.0483976
-0.034768
-0.0221579
-0.0104946
0.00025418
0.0103721
0.0199989
-0.373936
-0.366393
-0.358661
-0.347644
-0.332665
-0.314006
-0.292302
-0.268461
-0.243456
-0.218171
-0.193313
-0.169381
-0.146687
-0.125389
-0.105538
-0.0871139
-0.0700578
-0.0542891
-0.0397212
-0.0262649
-0.0138316
-0.0023485
0.00821778
0.0181715
0.0276141
-0.365542
-0.358221
-0.3505
-0.339328
-0.324071
-0.305065
-0.283014
-0.258872
-0.233645
-0.208228
-0.18332
-0.15941
-0.136792
-0.11561
-0.0959032
-0.0776423
-0.0607613
-0.0451763
-0.0307971
-0.0175333
-0.00529429
0.00599211
0.0163601
0.0261356
0.0353852
-0.356371
-0.349285
-0.341584
-0.330268
-0.314751
-0.29543
-0.273068
-0.248671
-0.223269
-0.197765
-0.172852
-0.149004
-0.126499
-0.105466
-0.0859326
-0.0678611
-0.0511796
-0.0358
-0.02163
-0.0085774
0.00344983
0.0145232
0.0246776
0.0342617
0.0433072
-0.346423
-0.339583
-0.331909
-0.320463
-0.30471
-0.285104
-0.262473
-0.237865
-0.212335
-0.186791
-0.161917
-0.13817
-0.115814
-0.0949628
-0.0756319
-0.057776
-0.0413177
-0.0261655
-0.0122248
0.00059792
0.0123961
0.0232404
0.0331662
0.0425459
0.0513754
-0.335699
-0.329116
-0.321479
-0.309917
-0.293951
-0.274094
-0.251234
-0.226461
-0.200852
-0.175314
-0.150522
-0.126917
-0.104745
-0.0841074
-0.0650077
-0.0473934
-0.0311819
-0.0162788
-0.00258727
0.00998727
0.0215394
0.0321386
0.0418213
0.0509838
0.059585
-0.324202
-0.317888
-0.310297
-0.298635
-0.282481
-0.262408
-0.239361
-0.214471
-0.18883
-0.163345
-0.138677
-0.115253
-0.093301
-0.0729078
-0.0540676
-0.0367203
-0.020779
-0.00614619
0.00727643
0.0195847
0.0308741
0.0412126
0.0506378
0.0595706
0.0679312
-0.311941
-0.305904
-0.298369
-0.286624
-0.270308
-0.250055
-0.226865
-0.201905
-0.17628
-0.150894
-0.126394
-0.103189
-0.0814904
-0.0613727
-0.0428196
-0.0257646
-0.0101163
0.00422508
0.0173595
0.0293837
0.0403938
0.0504563
0.0596101
0.0683009
0.0764085
-0.298923
-0.293174
-0.285705
-0.273893
-0.257444
-0.237048
-0.21376
-0.188777
-0.163216
-0.137974
-0.113683
-0.0907341
-0.0693235
-0.0495115
-0.0312728
-0.0145347
0.00079794
0.0148273
0.0276545
0.0393771
0.0500919
0.0598634