/*--------------------------------*- C++ -*----------------------------------*\
  =========                 |
  \\      /  F ield         | OpenFOAM: The Open Source CFD Toolbox
   \\    /   O peration     | Website:  https://openfoam.org
    \\  /    A nd           | Version:  7
     \\/     M anipulation  |
\*---------------------------------------------------------------------------*/
FoamFile
{
    version     2.0;
    format      ascii;
    class       volScalarField;
    location    "55";
    object      p;
}
// * * * * * * * * * * * * * * * * * * * * * * * * * * * * * * * * * * * * * //

dimensions      [0 2 -2 0 0 0 0];

internalField   nonuniform List<scalar> 
8500
(
-0.293949
-0.296568
-0.29536
-0.299338
-0.297959
-0.29639
-0.302266
-0.300701
-0.298978
-0.305357
-0.303594
-0.301708
-0.299447
-0.308617
-0.306641
-0.304584
-0.302148
-0.299427
-0.312053
-0.309848
-0.307612
-0.304994
-0.302094
-0.299025
-0.315667
-0.31322
-0.310796
-0.307991
-0.304905
-0.301659
-0.298325
-0.319464
-0.31676
-0.314141
-0.311143
-0.307867
-0.30444
-0.300929
-0.297384
-0.323446
-0.320472
-0.317651
-0.314453
-0.310984
-0.30737
-0.303679
-0.299949
-0.296192
-0.327616
-0.324357
-0.321326
-0.317925
-0.314258
-0.310455
-0.306575
-0.302652
-0.298684
-0.294636
-0.331973
-0.328416
-0.325171
-0.321561
-0.317693
-0.313694
-0.30962
-0.305491
-0.301295
-0.296983
-0.292481
-0.336517
-0.332651
-0.329184
-0.325363
-0.321288
-0.31709
-0.312812
-0.308464
-0.304019
-0.299415
-0.29457
-0.289394
-0.283812
-0.341246
-0.337058
-0.333366
-0.32933
-0.325046
-0.320642
-0.316149
-0.311564
-0.306846
-0.30192
-0.296694
-0.291081
-0.285014
-0.278465
-0.346156
-0.341636
-0.337715
-0.333461
-0.328964
-0.324346
-0.319626
-0.314786
-0.309767
-0.304484
-0.298839
-0.292748
-0.28616
-0.279068
-0.271514
-0.351242
-0.346381
-0.342228
-0.337753
-0.333038
-0.328199
-0.323238
-0.318119
-0.312769
-0.30709
-0.300985
-0.294377
-0.287234
-0.279575
-0.271466
-0.263016
-0.254332
-0.356496
-0.351287
-0.346899
-0.342202
-0.337265
-0.332194
-0.326975
-0.321551
-0.315835
-0.309721
-0.303112
-0.295949
-0.28822
-0.279971
-0.271299
-0.26233
-0.25319
-0.244055
-0.36191
-0.356346
-0.351722
-0.3468
-0.341636
-0.336323
-0.330824
-0.325066
-0.318947
-0.312355
-0.305201
-0.297443
-0.289099
-0.280244
-0.271001
-0.261516
-0.251928
-0.242407
-0.232896
-0.224096
-0.367472
-0.361548
-0.356689
-0.351541
-0.346142
-0.340573
-0.334772
-0.328648
-0.322085
-0.31497
-0.307229
-0.298841
-0.289856
-0.280381
-0.270564
-0.260568
-0.250539
-0.240642
-0.230836
-0.221753
-0.373169
-0.366882
-0.361788
-0.356412
-0.350772
-0.34493
-0.338802
-0.332275
-0.325225
-0.317543
-0.309172
-0.300122
-0.290475
-0.28037
-0.269979
-0.259477
-0.249018
-0.238755
-0.228661
-0.219304
-0.378985
-0.372334
-0.367006
-0.361401
-0.355511
-0.349378
-0.342893
-0.335925
-0.328343
-0.320049
-0.311008
-0.301265
-0.290938
-0.280198
-0.269236
-0.258238
-0.247357
-0.236739
-0.226364
-0.216742
-0.384902
-0.377888
-0.372328
-0.366491
-0.360341
-0.353897
-0.347023
-0.339572
-0.331412
-0.32246
-0.312713
-0.302252
-0.291232
-0.279854
-0.268327
-0.256841
-0.245552
-0.234589
-0.22394
-0.214058
-0.390899
-0.383526
-0.377736
-0.371665
-0.365243
-0.358463
-0.351165
-0.343188
-0.334403
-0.324751
-0.314263
-0.303062
-0.291341
-0.279327
-0.267242
-0.255281
-0.243594
-0.232296
-0.221383
-0.211248
-0.396954
-0.389225
-0.38321
-0.376901
-0.370193
-0.363053
-0.355292
-0.346743
-0.337287
-0.326894
-0.315634
-0.303677
-0.29125
-0.278604
-0.265973
-0.25355
-0.241477
-0.229856
-0.218685
-0.208305
-0.403041
-0.394963
-0.388726
-0.382176
-0.375167
-0.367636
-0.359374
-0.350206
-0.340034
-0.32886
-0.316805
-0.304078
-0.290945
-0.277676
-0.264511
-0.251639
-0.239193
-0.227261
-0.215842
-0.205223
-0.409131
-0.400714
-0.394259
-0.387463
-0.380134
-0.372182
-0.363376
-0.353544
-0.342611
-0.330624
-0.31775
-0.304248
-0.290413
-0.276531
-0.262847
-0.249541
-0.236736
-0.224503
-0.212846
-0.201995
-0.415195
-0.40645
-0.39978
-0.392732
-0.385065
-0.376659
-0.367266
-0.356723
-0.344988
-0.332157
-0.31845
-0.304169
-0.289639
-0.27516
-0.260971
-0.247247
-0.234098
-0.221577
-0.209691
-0.198617
-0.421199
-0.412138
-0.40526
-0.397952
-0.389925
-0.381029
-0.371005
-0.359707
-0.347133
-0.333433
-0.318882
-0.303825
-0.288612
-0.27355
-0.258876
-0.24475
-0.23127
-0.218475
-0.206371
-0.195081
-0.427109
-0.417747
-0.410664
-0.403088
-0.394677
-0.385256
-0.374558
-0.362461
-0.349014
-0.334425
-0.319026
-0.3032
-0.287319
-0.271692
-0.256551
-0.242041
-0.228247
-0.21519
-0.202878
-0.191382
-0.432887
-0.42324
-0.415957
-0.408104
-0.399285
-0.389299
-0.377884
-0.36495
-0.350601
-0.335109
-0.318861
-0.302278
-0.285746
-0.269577
-0.253988
-0.239113
-0.225019
-0.211715
-0.199208
-0.187516
-0.438493
-0.428581
-0.421102
-0.41296
-0.403706
-0.39312
-0.380946
-0.367138
-0.351863
-0.335461
-0.31837
-0.301044
-0.283883
-0.267192
-0.251177
-0.235956
-0.221579
-0.208043
-0.195353
-0.183475
-0.443887
-0.43373
-0.426058
-0.417616
-0.407901
-0.396675
-0.383704
-0.368991
-0.352772
-0.335456
-0.317533
-0.299485
-0.281717
-0.264529
-0.248111
-0.232563
-0.217921
-0.204168
-0.191308
-0.179256
-0.449027
-0.438645
-0.430784
-0.42203
-0.411825
-0.399924
-0.386118
-0.370473
-0.353299
-0.335073
-0.316333
-0.297586
-0.279238
-0.261578
-0.24478
-0.228925
-0.214036
-0.200083
-0.187066
-0.174854
-0.453869
-0.443285
-0.435238
-0.426157
-0.415435
-0.402823
-0.388151
-0.371553
-0.353418
-0.334291
-0.314755
-0.295334
-0.276435
-0.25833
-0.241175
-0.225036
-0.209917
-0.195781
-0.182623
-0.170262
-0.458368
-0.447606
-0.439376
-0.429954
-0.418687
-0.405332
-0.389765
-0.372198
-0.353102
-0.33309
-0.312783
-0.292718
-0.273296
-0.254774
-0.237288
-0.220887
-0.205559
-0.191257
-0.177972
-0.165478
-0.462479
-0.451563
-0.443152
-0.433375
-0.421535
-0.407407
-0.390922
-0.372377
-0.352328
-0.33145
-0.310401
-0.289725
-0.269813
-0.250903
-0.233112
-0.216471
-0.200954
-0.186505
-0.17311
-0.160497
-0.466156
-0.455111
-0.446521
-0.436374
-0.423937
-0.409008
-0.391588
-0.372063
-0.351073
-0.329356
-0.307597
-0.286344
-0.265975
-0.246708
-0.228639
-0.211781
-0.196096
-0.181521
-0.16803
-0.155315
-0.469354
-0.458206
-0.449438
-0.438907
-0.425849
-0.410097
-0.391729
-0.371227
-0.349317
-0.32679
-0.304358
-0.282566
-0.261774
-0.242181
-0.223861
-0.206812
-0.19098
-0.176297
-0.16273
-0.149929
-0.472027
-0.460802
-0.451858
-0.440928
-0.427228
-0.410635
-0.391314
-0.369845
-0.347039
-0.323739
-0.300672
-0.278379
-0.257201
-0.237314
-0.218772
-0.201556
-0.185601
-0.170832
-0.157206
-0.144336
-0.47413
-0.462855
-0.453736
-0.442394
-0.428033
-0.410586
-0.390312
-0.367893
-0.344223
-0.320188
-0.296529
-0.273776
-0.252249
-0.232101
-0.213366
-0.196009
-0.179954
-0.16512
-0.151453
-0.138533
-0.47562
-0.464321
-0.455028
-0.443262
-0.428226
-0.409916
-0.388696
-0.365351
-0.340852
-0.316125
-0.291919
-0.268749
-0.246911
-0.226535
-0.207637
-0.190166
-0.174034
-0.159158
-0.145469
-0.132519
-0.476454
-0.465158
-0.455691
-0.443492
-0.427769
-0.408594
-0.386441
-0.3622
-0.336913
-0.311541
-0.286834
-0.263289
-0.24118
-0.220612
-0.20158
-0.184022
-0.167839
-0.152943
-0.139253
-0.12629
-0.476592
-0.465324
-0.455686
-0.443044
-0.426627
-0.406591
-0.383524
-0.358421
-0.332392
-0.306425
-0.281266
-0.257393
-0.235052
-0.214325
-0.195192
-0.177575
-0.161364
-0.146472
-0.132801
-0.119847
-0.475994
-0.464781
-0.454973
-0.441882
-0.424768
-0.40388
-0.379926
-0.354002
-0.32728
-0.30077
-0.27521
-0.251053
-0.228521
-0.207672
-0.188469
-0.170821
-0.154609
-0.139744
-0.126112
-0.113187
-0.474625
-0.463491
-0.453516
-0.439973
-0.422162
-0.400438
-0.375628
-0.348929
-0.321568
-0.29457
-0.268659
-0.244266
-0.221583
-0.200649
-0.181408
-0.163757
-0.147571
-0.132758
-0.119189
-0.106316
-0.472449
-0.461419
-0.45128
-0.437283
-0.418783
-0.396244
-0.370617
-0.343192
-0.315248
-0.287819
-0.261611
-0.237028
-0.214238
-0.193254
-0.174007
-0.156383
-0.140248
-0.125513
-0.112034
-0.0992368
-0.469435
-0.458535
-0.448235
-0.433786
-0.414608
-0.39128
-0.364878
-0.336784
-0.308316
-0.280514
-0.254063
-0.229339
-0.206481
-0.185486
-0.166266
-0.148698
-0.132641
-0.118007
-0.104642
-0.0919348
-0.465555
-0.454807
-0.444352
-0.429456
-0.409615
-0.385532
-0.358404
-0.329698
-0.300769
-0.272653
-0.246014
-0.221196
-0.198314
-0.177343
-0.158184
-0.140702
-0.124749
-0.110242
-0.0969959
-0.0843474
-0.460784
-0.450211
-0.439606
-0.424272
-0.403789
-0.378988
-0.351187
-0.321931
-0.292605
-0.264236
-0.237463
-0.2126
-0.189737
-0.168828
-0.149762
-0.132396
-0.116576
-0.10222
-0.0890918
-0.0764365
-0.455098
-0.444723
-0.433976
-0.418215
-0.397116
-0.371639
-0.343223
-0.313482
-0.283824
-0.255264
-0.228412
-0.203553
-0.180751
-0.159942
-0.141003
-0.123783
-0.108124
-0.0939444
-0.0809723
-0.0685311
-0.448481
-0.438325
-0.427444
-0.41127
-0.389586
-0.363481
-0.33451
-0.304351
-0.274429
-0.24574
-0.218865
-0.194057
-0.171358
-0.150687
-0.13191
-0.114866
-0.0993949
-0.0854191
-0.0726224
-0.0604235
-0.440917
-0.431
-0.419995
-0.403427
-0.381192
-0.354512
-0.32505
-0.294543
-0.264423
-0.235667
-0.208824
-0.184117
-0.161563
-0.141068
-0.122485
-0.105649
-0.0903958
-0.0766455
-0.0640553
-0.0520958
-0.432394
-0.422736
-0.411618
-0.394679
-0.371932
-0.344731
-0.314845
-0.284061
-0.253813
-0.225052
-0.198296
-0.173737
-0.151371
-0.131088
-0.112734
-0.0961355
-0.0811285
-0.0676303
-0.0552709
-0.0435571
-0.422905
-0.413526
-0.402308
-0.38502
-0.361804
-0.334143
-0.303904
-0.272914
-0.242605
-0.213902
-0.187286
-0.162924
-0.140788
-0.120755
-0.102662
-0.086332
-0.0715982
-0.0583784
-0.0462717
-0.0348177
-0.412446
-0.403363
-0.39206
-0.374452
-0.350814
-0.322754
-0.292233
-0.26111
-0.23081
-0.202225
-0.175804
-0.151685
-0.129821
-0.110075
-0.0922765
-0.0762445
-0.0618111
-0.0488951
-0.037062
-0.0258859
-0.401017
-0.392248
-0.380876
-0.362979
-0.338967
-0.310575
-0.279843
-0.248662
-0.218437
-0.190032
-0.163859
-0.14003
-0.118477
-0.0990547
-0.0815845
-0.0658801
-0.0517743
-0.0391867
-0.0276479
-0.0167694
-0.388621
-0.380184
-0.368759
-0.350606
-0.326274
-0.297616
-0.266749
-0.235581
-0.2055
-0.177334
-0.151462
-0.127968
-0.106768
-0.0877047
-0.0705945
-0.055247
-0.0414955
-0.0292604
-0.0180363
-0.00747559
-0.375267
-0.367177
-0.355718
-0.337346
-0.312748
-0.283894
-0.252965
-0.221883
-0.192012
-0.164144
-0.138624
-0.11551
-0.0947031
-0.0760344
-0.0593161
-0.0443542
-0.0309832
-0.0191241
-0.00823494
0.00198777
-0.360966
-0.353237
-0.341765
-0.323211
-0.298406
-0.269425
-0.23851
-0.207586
-0.17799
-0.150478
-0.12536
-0.10267
-0.0822941
-0.064055
-0.0477597
-0.0332117
-0.0202468
-0.00878667
0.00174766
0.0116124
-0.345731
-0.338379
-0.326914
-0.308219
-0.283266
-0.254229
-0.223402
-0.192708
-0.163451
-0.13635
-0.111683
-0.0894606
-0.0695538
-0.0517782
-0.0359366
-0.02183
-0.00929656
0.00174222
0.0119022
0.0213894
-0.329582
-0.32262
-0.311185
-0.292391
-0.26735
-0.238329
-0.207664
-0.177268
-0.148413
-0.121779
-0.0976102
-0.0758965
-0.056496
-0.0392171
-0.0238591
-0.010221
0.00185655
0.0124522
0.0222188
0.0313092
-0.31254
-0.305981
-0.294599
-0.27575
-0.250683
-0.221751
-0.191317
-0.161289
-0.132898
-0.106782
-0.0831579
-0.0619935
-0.0431353
-0.0263854
-0.0115402
0.00160316
0.0132007
0.023332
0.0326865
0.0413611
-0.29463
-0.288486
-0.277182
-0.258323
-0.233293
-0.204522
-0.174385
-0.144794
-0.116925
-0.0913794
-0.0683445
-0.0477686
-0.0294873
-0.0132978
0.00100638
0.0136292
0.0247232
0.0343697
0.0432937
0.0515336
-0.275881
-0.270163
-0.258961
-0.240139
-0.215209
-0.18666
-0.156906
-0.12781
-0.100518
-0.0755924
-0.0531892
-0.0332392
-0.0155686
3.02361e-05
0.013766
0.0258432
0.0364108
0.0455527
0.0540279
0.0618137
-0.256323
-0.251042
-0.239968
-0.221231
-0.196459
-0.168205
-0.138898
-0.110361
-0.0837024
-0.0594428
-0.0377121
-0.0184243
-0.00139643
0.0135827
0.0267235
0.0382309
0.0482494
0.0568675
0.0648759
-0.235989
-0.231157
-0.220238
-0.201634
-0.177074
-0.149191
-0.120395
-0.0924764
-0.0665021
-0.0429538
-0.0219346
-0.00334313
0.0130112
0.0273427
0.0398632
0.0507771
0.0602246
0.0683003
-0.214916
-0.210545
-0.199806
-0.181372
-0.157101
-0.12965
-0.101426
-0.0741843
-0.0489439
-0.0261494
-0.00587874
0.0119838
0.0276354
0.0412929
0.0531689
0.0634665
0.0723214
-0.193142
-0.189244
-0.178714
-0.160489
-0.136572
-0.109615
-0.0820263
-0.055515
-0.0310553
-0.00905473
0.0104326
0.0275355
0.042457
0.0554155
0.0666241
0.0762837
-0.170705
-0.167295
-0.156986
-0.139042
-0.115526
-0.0891257
-0.062229
-0.0364996
-0.0128647
0.00830413
0.0269755
0.0432901
0.0574558
0.0696922
0.0802121
0.0892129
-0.147641
-0.144751
-0.134683
-0.117061
-0.0940024
-0.0682185
-0.0420693
-0.0171703
0.00559849
0.0259004
0.0437254
0.0592252
0.0726113
0.0841042
0.0939161
-0.123996
-0.121662
-0.111852
-0.0945892
-0.0720447
-0.0469333
-0.0215836
0.0024397
0.024304
0.0437065
0.0606572
0.0753175
0.0879023
0.0986326
-0.0998689
-0.0980353
-0.0885338
-0.0716737
-0.0496955
-0.0253103
-0.000809007
0.0222966
0.043221
0.061694
0.0777447
0.0915433
0.103307
0.113258
-0.0752898
-0.0739295
-0.0647765
-0.0483609
-0.0269992
-0.0033906
0.0202167
0.0423657
0.0623176
0.0798339
0.0949614
0.107878
0.118804
-0.0502851
-0.0494134
-0.0406298
-0.0246988
-0.00400109
0.0187837
0.0414548
0.0626117
0.0815616
0.0980966
0.11228
0.124297
0.13437
-0.0249101
-0.0245393
-0.0161444
-0.000736161
0.0192527
0.0411697
0.0628662
0.0829987
0.10092
0.116452
0.129673
0.140774
0.000780505
0.000643207
0.00862904
0.0234778
0.0427156
0.0637244
0.0844111
0.10349
0.12036
0.134869
0.147111
0.0267305
0.0260804
0.0336374
0.0478923
0.0663402
0.0864039
0.106049
0.124049
0.139847
0.153317
0.164567
0.0528839
0.0517179
0.0588273
0.0724565
0.0900787
0.109164
0.12774
0.144639
0.159347
0.171765
0.0791842
0.0775008
0.0841449
0.0971189
0.113883
0.131961
0.149443
0.165223
0.178827
0.19018
0.105575
0.103374
0.109536
0.121828
0.137705
0.154749
0.171117
0.185762
0.198251
0.208532
0.131999
0.129281
0.134946
0.146532
0.161497
0.177484
0.192722
0.20622
0.217585
0.158399
0.155165
0.160321
0.171179
0.185209
0.200123
0.214217
0.226559
0.236796
0.184719
0.180972
0.185606
0.195718
0.208795
0.22262
0.23556
0.246742
0.2109
0.206645
0.210747
0.220098
0.232207
0.244932
0.256713
0.266732
0.236887
0.232127
0.23569
0.244266
0.255396
0.267015
0.277634
0.262624
0.257365
0.260382
0.268174
0.278317
0.288826
0.298284
0.288055
0.282303
0.28477
0.291772
0.300924
0.310323
0.318625
0.313124
0.306888
0.308802
0.315009
0.32317
0.331463
0.337778
0.331066
0.332427
0.337839
0.345011
0.352207
0.361964
0.354784
0.355595
0.360214
0.366403
0.372512
0.38563
0.377993
0.378256
0.382087
0.387304
0.408724
0.400642
0.400362
0.403414
0.407672
0.431198
0.422681
0.421867
0.42415
0.427465
0.453002
0.444065
0.442725
0.444254
0.446645
0.474091
0.464747
0.462893
0.463683
0.494419
0.484682
0.482328
0.482399
0.513943
0.503829
0.500988
0.500362
0.532621
0.522146
0.518836
0.517537
0.550413
0.539595
0.535834
0.533888
0.567282
0.556137
0.551945
0.583192
0.571739
0.567138
0.598108
0.586367
0.581379
0.612
0.59999
0.594639
0.624838
0.61258
0.606892
0.636595
0.624109
0.61811
0.647246
0.634553
0.628272
0.656768
0.64389
0.637356
0.665141
0.652101
0.645343
0.672348
0.659168
0.678373
0.665076
0.683204
0.669813
0.686831
0.673369
0.689245
0.675736
0.690442
0.676909
0.690419
0.676886
0.689176
0.675667
0.686716
0.673253
0.683043
0.669652
0.678165
0.664868
0.672094
0.658914
0.66484
0.6518
0.645048
0.65642
0.643543
0.637015
0.646851
0.634158
0.627885
0.636153
0.623667
0.617677
0.624349
0.612091
0.606412
0.611463
0.599454
0.594113
0.597523
0.585783
0.580805
0.582557
0.571106
0.566516
0.566599
0.555455
0.551276
0.549681
0.538863
0.535116
0.533193
0.531839
0.521365
0.51807
0.516795
0.51311
0.502998
0.500173
0.499573
0.493536
0.483801
0.481463
0.481562
0.473157
0.463815
0.461979
0.462798
0.452017
0.443082
0.441761
0.44332
0.445748
0.43016
0.421646
0.420851
0.423167
0.42652
0.407635
0.399554
0.399295
0.40238
0.406679
0.384487
0.376853
0.377137
0.381003
0.386263
0.391345
0.360768
0.353591
0.354423
0.359079
0.365314
0.37147
0.336528
0.329818
0.331203
0.336653
0.343872
0.351117
0.31182
0.305586
0.307525
0.313772
0.321981
0.330327
0.286695
0.280947
0.283439
0.290482
0.299685
0.309138
0.317494
0.261209
0.255953
0.258996
0.266832
0.277028
0.287593
0.297107
0.235416
0.230659
0.234249
0.242871
0.254056
0.265733
0.27641
0.209373
0.20512
0.209251
0.218648
0.230815
0.243601
0.255442
0.265518
0.183134
0.179391
0.184054
0.194215
0.207351
0.22124
0.234242
0.245483
0.156757
0.153527
0.158712
0.169621
0.183713
0.198693
0.212851
0.225255
0.235549
0.130299
0.127584
0.133281
0.144919
0.159947
0.176004
0.191309
0.20487
0.216295
0.103817
0.101619
0.107813
0.120159
0.136102
0.153217
0.169656
0.184367
0.196917
0.207255
0.0773674
0.0756878
0.0823645
0.0953938
0.112227
0.130377
0.147933
0.163781
0.177448
0.188861
0.051008
0.0498459
0.0569889
0.070675
0.0883679
0.107529
0.12618
0.143151
0.157924
0.170403
0.0247953
0.0241492
0.0317406
0.046054
0.0645748
0.084717
0.10444
0.122514
0.138379
0.151913
0.163221
-0.00121438
-0.00134742
0.00667354
0.0215824
0.0408953
0.0619851
0.0827519
0.101907
0.118847
0.133422
0.145724
0.155952
-0.0269649
-0.0265896
-0.0181589
-0.00268899
0.0173771
0.0393775
0.0611569
0.081368
0.0993625
0.114962
0.128245
0.139404
-0.0523998
-0.0515236
-0.0427034
-0.0267093
-0.00593224
0.0169384
0.039695
0.0609331
0.0799585
0.0965631
0.110811
0.122887
0.133014
-0.0774648
-0.0760996
-0.0669094
-0.0504293
-0.0289862
-0.0052892
0.0184062
0.0406389
0.0606687
0.0782569
0.0934506
0.106429
0.117411
-0.102104
-0.100265
-0.0907261
-0.0738001
-0.0517385
-0.0272624
-0.0026705
0.0205215
0.0415262
0.0600733
0.0761924
0.0900541
0.101877
0.111882
-0.126291
-0.123952
-0.114103
-0.0967739
-0.0741438
-0.0489392
-0.0234963
0.000615988
0.0225631
0.042042
0.0590631
0.0737885
0.0864336
0.0972199
-0.149996
-0.147102
-0.136994
-0.119304
-0.0961578
-0.0702784
-0.0440333
-0.0190428
0.00381132
0.0241919
0.0420895
0.0576562
0.0711044
0.082655
0.0925208
-0.17312
-0.169705
-0.159356
-0.141344
-0.117737
-0.0912395
-0.0642443
-0.0384209
-0.0146983
0.00655155
0.0252975
0.0416811
0.0559106
0.0682065
0.0787819
0.0878346
-0.195617
-0.191713
-0.181143
-0.162849
-0.13884
-0.111783
-0.0840932
-0.0574852
-0.0329353
-0.0108515
0.00871253
0.0258864
0.0408735
0.0538932
0.0651588
0.0748719
0.083163
-0.217451
-0.213073
-0.202295
-0.183789
-0.159425
-0.131871
-0.103545
-0.0762036
-0.0508705
-0.0279904
-0.00764094
0.0102945
0.0260136
0.0397338
0.0516684
0.0620211
0.0709276
-0.238583
-0.233745
-0.222785
-0.20411
-0.179453
-0.151467
-0.122565
-0.0945447
-0.0684753
-0.0448391
-0.023739
-0.00507275
0.0113508
0.0257468
0.0383275
0.0492979
0.0587985
0.066924
-0.258975
-0.253688
-0.242573
-0.223763
-0.198895
-0.170535
-0.14112
-0.112478
-0.0857223
-0.0613725
-0.0395588
-0.0201942
-0.00309526
0.01195
0.0251526
0.0367179
0.0467909
0.0554601
0.0635198
-0.278591
-0.272866
-0.261624
-0.242728
-0.217701
-0.189044
-0.159178
-0.129976
-0.102585
-0.0775664
-0.055078
-0.0350495
-0.017306
-0.00163936
0.0121597
0.0242964
0.0349198
0.0441141
0.0526419
0.0604786
-0.297398
-0.291246
-0.279901
-0.260968
-0.23584
-0.20696
-0.176708
-0.147009
-0.119038
-0.0933977
-0.0702756
-0.0496191
-0.0312632
-0.0150043
-0.000635287
0.0120484
0.0231996
0.0328999
0.0418775
0.0501696
-0.315364
-0.308797
-0.297375
-0.278451
-0.253285
-0.224241
-0.193692
-0.163553
-0.135057
-0.108844
-0.0851311
-0.0638844
-0.0449497
-0.0281289
-0.0132172
-1.16338e-05
0.0116444
0.0218309
0.0312401
0.039968
-0.332461
-0.325491
-0.314016
-0.295147
-0.270006
-0.240871
-0.21009
-0.17958
-0.150619
-0.123885
-0.0996254
-0.0778275
-0.0583489
-0.0409974
-0.0255716
-0.0118698
0.000267625
0.0109196
0.020742
0.0298868
-0.348665
-0.341304
-0.329799
-0.311029
-0.285975
-0.256823
-0.225878
-0.195068
-0.165702
-0.1385
-0.11374
-0.0914317
-0.0714452
-0.0535954
-0.0376846
-0.0235129
-0.0109182
0.000178115
0.010395
0.0199378
-0.363952
-0.356216
-0.344703
-0.326074
-0.301168
-0.272071
-0.241035
-0.209994
-0.180287
-0.152672
-0.127459
-0.104681
-0.0842238
-0.065909
-0.0495431
-0.0349287
-0.0219013
-0.0103824
0.000209881
0.0101313
-0.378306
-0.370207
-0.358708
-0.340261
-0.315562
-0.286591
-0.25554
-0.224339
-0.194355
-0.166381
-0.140765
-0.117561
-0.0966711
-0.0779253
-0.0611349
-0.0461054
-0.0326706
-0.0207514
-0.00980334
0.000477038
-0.39171
-0.383264
-0.3718
-0.353573
-0.329139
-0.300363
-0.269373
-0.238083
-0.207887
-0.179614
-0.153644
-0.130058
-0.108774
-0.0896323
-0.0724487
-0.0570323
-0.0432158
-0.0309194
-0.0196354
-0.00901602
-0.404155
-0.395377
-0.383966
-0.365995
-0.341882
-0.313371
-0.282515
-0.25121
-0.220869
-0.192355
-0.166082
-0.14216
-0.120522
-0.101019
-0.083474
-0.0676995
-0.0535276
-0.0408775
-0.0292777
-0.0183396
-0.415631
-0.406539
-0.395198
-0.377517
-0.353777
-0.325599
-0.294951
-0.263705
-0.233285
-0.20459
-0.178068
-0.153854
-0.131902
-0.112075
-0.0942014
-0.078098
-0.0635973
-0.0506177
-0.0387225
-0.027486
-0.426136
-0.416747
-0.405491
-0.388131
-0.364815
-0.337035
-0.306669
-0.275553
-0.245124
-0.216309
-0.18959
-0.165132
-0.142907
-0.122792
-0.104622
-0.0882196
-0.0734173
-0.0601329
-0.0479629
-0.0364475
-0.435668
-0.426001
-0.414845
-0.397835
-0.374988
-0.347669
-0.317656
-0.286745
-0.256375
-0.227501
-0.200639
-0.175984
-0.153528
-0.133162
-0.114729
-0.0980571
-0.0829807
-0.0694169
-0.0569926
-0.0452164
-0.444233
-0.434305
-0.423263
-0.406627
-0.384293
-0.357494
-0.327904
-0.29727
-0.267027
-0.238157
-0.211207
-0.186402
-0.163757
-0.143177
-0.124515
-0.107604
-0.0922811
-0.0784645
-0.0658074
-0.0537837
-0.451837
-0.441669
-0.430752
-0.414511
-0.39273
-0.366507
-0.337408
-0.307121
-0.277075
-0.24827
-0.221287
-0.19638
-0.173589
-0.152832
-0.133975
-0.116856
-0.101313
-0.0872713
-0.0744048
-0.062137
-0.458492
-0.448104
-0.437322
-0.421495
-0.4003
-0.374707
-0.346163
-0.316293
-0.28651
-0.257833
-0.230873
-0.205913
-0.183018
-0.162123
-0.143103
-0.125807
-0.110076
-0.0958294
-0.0827864
-0.0702633
-0.464212
-0.453626
-0.442987
-0.427589
-0.407012
-0.382095
-0.354167
-0.324782
-0.295331
-0.266844
-0.239961
-0.214997
-0.19204
-0.171044
-0.151897
-0.134454
-0.118562
-0.104138
-0.0909427
-0.078174
-0.469016
-0.458254
-0.447766
-0.432808
-0.412875
-0.388677
-0.361424
-0.332588
-0.303534
-0.275299
-0.248549
-0.223629
-0.200653
-0.179595
-0.160353
-0.142794
-0.126768
-0.112194
-0.0988879
-0.0861534
-0.472925
-0.462011
-0.451679
-0.43717
-0.417902
-0.394462
-0.367936
-0.339712
-0.311119
-0.283197
-0.256635
-0.231808
-0.208856
-0.187771
-0.168469
-0.150824
-0.134693
-0.119992
-0.106567
-0.093787
-0.475967
-0.464922
-0.454752
-0.440696
-0.422109
-0.39946
-0.37371
-0.346158
-0.318088
-0.290538
-0.264219
-0.239533
-0.216647
-0.195574
-0.176244
-0.158543
-0.142335
-0.127529
-0.113988
-0.101121
-0.478167
-0.467018
-0.457013
-0.443413
-0.425518
-0.403687
-0.378756
-0.35193
-0.324443
-0.297325
-0.271303
-0.246805
-0.224027
-0.203003
-0.183679
-0.16595
-0.14969
-0.134807
-0.121173
-0.108231
-0.479559
-0.468329
-0.458492
-0.445347
-0.428151
-0.407159
-0.383086
-0.357036
-0.330189
-0.30356
-0.277887
-0.253626
-0.230998
-0.21006
-0.190773
-0.173047
-0.156762
-0.141826
-0.128128
-0.115134
-0.480176
-0.46889
-0.459224
-0.44653
-0.430035
-0.409898
-0.386715
-0.361488
-0.335334
-0.309248
-0.283977
-0.26
-0.237562
-0.216747
-0.19753
-0.179834
-0.16355
-0.148587
-0.134849
-0.121826
-0.480054
-0.46874
-0.459246
-0.446997
-0.431199
-0.411927
-0.389659
-0.365296
-0.339887
-0.314396
-0.289578
-0.265929
-0.243724
-0.223066
-0.203951
-0.186315
-0.170057
-0.15509
-0.141333
-0.128303
-0.479234
-0.467915
-0.458596
-0.446783
-0.431675
-0.413271
-0.39194
-0.368477
-0.343856
-0.319012
-0.294694
-0.27142
-0.249487
-0.229022
-0.21004
-0.192491
-0.176285
-0.161339
-0.147583
-0.134565
-0.477754
-0.466459
-0.457314
-0.445928
-0.431499
-0.413961
-0.39358
-0.371046
-0.347256
-0.323104
-0.299335
-0.276479
-0.254856
-0.234619
-0.215801
-0.198367
-0.182238
-0.167334
-0.1536
-0.140613
-0.475659
-0.464413
-0.455444
-0.444472
-0.430707
-0.414028
-0.394604
-0.373022
-0.350099
-0.326684
-0.303507
-0.281112
-0.259839
-0.239864
-0.221239
-0.203946
-0.187918
-0.173079
-0.159386
-0.14645
-0.472991
-0.461821
-0.45303
-0.442458
-0.429339
-0.413505
-0.395038
-0.374426
-0.352402
-0.329762
-0.307222
-0.285328
-0.264442
-0.244761
-0.22636
-0.209234
-0.193331
-0.178579
-0.164945
-0.152078
-0.469796
-0.458728
-0.450114
-0.43993
-0.427435
-0.412428
-0.394914
-0.375282
-0.354182
-0.332354
-0.310488
-0.289135
-0.268673
-0.249319
-0.231169
-0.214236
-0.19848
-0.183835
-0.17028
-0.157499
-0.466118
-0.455178
-0.446745
-0.436932
-0.425038
-0.410836
-0.394262
-0.375615
-0.355458
-0.334472
-0.313318
-0.292543
-0.272539
-0.253544
-0.235674
-0.218958
-0.20337
-0.188854
-0.175394
-0.162717
-0.462004
-0.451217
-0.442965
-0.43351
-0.422191
-0.408768
-0.393116
-0.375451
-0.356252
-0.336134
-0.315725
-0.295563
-0.27605
-0.257444
-0.23988
-0.223405
-0.208008
-0.19364
-0.180291
-0.167734
-0.457499
-0.44689
-0.438821
-0.429709
-0.418939
-0.406264
-0.391511
-0.37482
-0.356585
-0.337356
-0.317721
-0.298205
-0.279216
-0.261029
-0.243797
-0.227586
-0.2124
-0.198198
-0.184978
-0.172555
-0.452649
-0.442241
-0.434359
-0.425575
-0.415326
-0.403365
-0.389484
-0.373752
-0.356482
-0.338158
-0.319321
-0.30048
-0.282046
-0.264305
-0.247432
-0.231507
-0.216551
-0.202535
-0.189457
-0.177184
-0.447499
-0.437315
-0.429622
-0.421152
-0.411396
-0.400115
-0.387073
-0.372278
-0.355968
-0.338558
-0.320541
-0.302403
-0.284551
-0.267284
-0.250792
-0.235176
-0.220469
-0.206655
-0.193735
-0.181625
-0.442092
-0.432153
-0.424653
-0.416484
-0.407193
-0.396555
-0.384317
-0.370431
-0.355071
-0.338578
-0.321397
-0.303984
-0.286741
-0.269973
-0.253888
-0.2386
-0.224161
-0.210565
-0.197817
-0.185883
-0.436471
-0.426797
-0.419493
-0.411614
-0.40276
-0.392728
-0.381253
-0.368247
-0.353817
-0.33824
-0.321906
-0.305238
-0.288627
-0.272384
-0.256727
-0.241788
-0.227634
-0.214273
-0.20171
-0.189963
-0.430676
-0.421286
-0.414183
-0.406583
-0.39814
-0.388675
-0.377922
-0.365759
-0.352236
-0.337567
-0.322086
-0.30618
-0.290222
-0.274525
-0.259318
-0.244747
-0.230895
-0.217783
-0.205419
-0.193871
-0.424748
-0.415659
-0.40876
-0.401429
-0.393372
-0.384437
-0.374363
-0.363004
-0.350359
-0.336584
-0.321956
-0.306823
-0.291537
-0.276407
-0.26167
-0.247486
-0.233952
-0.221104
-0.20895
-0.197611
-0.418724
-0.40995
-0.403261
-0.39619
-0.388495
-0.380053
-0.370614
-0.360016
-0.348216
-0.335315
-0.321536
-0.307183
-0.292584
-0.27804
-0.263792
-0.250013
-0.236812
-0.224243
-0.212309
-0.201189
-0.412638
-0.404193
-0.397717
-0.3909
-0.383545
-0.375561
-0.366713
-0.356831
-0.345839
-0.333787
-0.320846
-0.307276
-0.293377
-0.279435
-0.265694
-0.252336
-0.239484
-0.227206
-0.215504
-0.204611
-0.406525
-0.398419
-0.392161
-0.385591
-0.378557
-0.370997
-0.362697
-0.353484
-0.343258
-0.332026
-0.319908
-0.307119
-0.293926
-0.280601
-0.267384
-0.254464
-0.241975
-0.23
-0.218541
-0.207883
-0.400414
-0.392656
-0.386621
-0.380293
-0.373562
-0.366394
-0.3586
-0.35001
-0.340507
-0.33006
-0.318744
-0.306729
-0.294247
-0.28155
-0.268871
-0.256404
-0.244291
-0.232633
-0.221426
-0.211011
-0.394333
-0.386932
-0.381123
-0.375032
-0.368588
-0.361784
-0.354455
-0.346442
-0.337615
-0.327915
-0.317376
-0.306123
-0.294353
-0.282291
-0.270164
-0.258165
-0.246442
-0.235111
-0.224165
-0.214001
-0.38831
-0.381269
-0.375689
-0.369833
-0.363662
-0.357195
-0.350294
-0.342811
-0.334614
-0.32562
-0.315827
-0.30532
-0.294257
-0.282837
-0.271272
-0.259753
-0.248433
-0.237442
-0.226766
-0.216858
-0.382366
-0.375688
-0.370341
-0.364717
-0.358807
-0.352653
-0.346144
-0.339147
-0.331533
-0.323202
-0.314122
-0.304339
-0.293974
-0.283198
-0.272204
-0.261177
-0.250272
-0.239631
-0.229233
-0.21959
-0.376522
-0.370209
-0.365096
-0.359702
-0.354043
-0.348181
-0.342031
-0.335479
-0.3284
-0.320687
-0.312283
-0.303198
-0.293519
-0.283385
-0.272968
-0.262444
-0.251965
-0.241685
-0.231575
-0.222203
-0.370798
-0.364848
-0.35997
-0.354804
-0.349387
-0.343798
-0.337978
-0.331832
-0.325244
-0.318103
-0.310334
-0.301919
-0.292908
-0.28341
-0.273573
-0.263561
-0.253519
-0.243612
-0.233796
-0.224704
-0.365207
-0.359618
-0.354977
-0.350036
-0.344854
-0.339523
-0.334006
-0.328229
-0.322088
-0.315474
-0.308299
-0.300519
-0.292156
-0.283285
-0.274029
-0.264535
-0.25494
-0.245416
-0.235902
-0.227099
-0.359765
-0.354532
-0.350126
-0.345411
-0.340456
-0.335368
-0.330131
-0.32469
-0.318957
-0.312825
-0.3062
-0.299021
-0.291279
-0.283021
-0.274343
-0.265373
-0.256235
-0.247104
-0.354483
-0.349599
-0.345428
-0.340935
-0.336203
-0.331347
-0.32637
-0.321235
-0.31587
-0.310177
-0.30406
-0.297443
-0.290295
-0.282633
-0.274527
-0.266083
-0.257408
-0.349369
-0.344827
-0.340889
-0.336617
-0.332102
-0.327468
-0.322732
-0.317877
-0.312846
-0.307552
-0.3019
-0.295806
-0.289219
-0.282133
-0.274588
-0.344431
-0.340222
-0.336514
-0.332459
-0.328158
-0.323737
-0.319228
-0.31463
-0.309902
-0.304968
-0.29974
-0.294128
-0.288069
-0.281534
-0.339675
-0.335789
-0.332306
-0.328467
-0.324375
-0.320159
-0.315865
-0.311504
-0.30705
-0.302442
-0.297597
-0.292429
-0.335104
-0.331529
-0.328267
-0.32464
-0.320753
-0.316738
-0.312647
-0.308506
-0.304301
-0.299987
-0.295489
-0.330721
-0.327445
-0.324399
-0.32098
-0.317294
-0.313473
-0.309577
-0.305641
-0.301665
-0.297616
-0.326526
-0.323536
-0.3207
-0.317484
-0.313996
-0.310364
-0.306655
-0.302912
-0.299147
-0.32252
-0.319802
-0.317168
-0.314151
-0.310856
-0.307409
-0.30388
-0.300321
-0.318701
-0.316241
-0.313802
-0.310978
-0.307872
-0.304605
-0.301252
-0.315066
-0.31285
-0.310598
-0.307962
-0.305039
-0.301949
-0.311612
-0.309625
-0.307552
-0.305097
-0.302354
-0.308335
-0.306561
-0.30466
-0.302378
-0.30523
-0.303655
-0.301916
-0.302291
-0.300901
-0.299512
-0.298293
-0.296887
-0.16086
-0.165429
-0.169828
-0.174061
-0.178132
-0.182045
-0.185805
-0.189415
-0.192879
-0.196202
-0.199388
-0.20244
-0.205363
-0.20816
-0.210833
-0.213386
-0.153803
-0.158314
-0.162672
-0.166879
-0.170939
-0.174856
-0.178632
-0.182272
-0.185779
-0.189156
-0.192407
-0.195535
-0.198544
-0.201437
-0.204217
-0.206887
-0.147065
-0.151503
-0.155804
-0.159971
-0.164006
-0.167912
-0.171692
-0.175349
-0.178887
-0.182308
-0.185617
-0.188815
-0.191907
-0.194896
-0.197784
-0.200576
-0.140634
-0.144998
-0.149238
-0.153359