/*--------------------------------*- C++ -*----------------------------------*\
  =========                 |
  \\      /  F ield         | OpenFOAM: The Open Source CFD Toolbox
   \\    /   O peration     | Website:  https://openfoam.org
    \\  /    A nd           | Version:  7
     \\/     M anipulation  |
\*---------------------------------------------------------------------------*/
FoamFile
{
    version     2.0;
    format      ascii;
    class       surfaceScalarField;
    location    "75";
    object      phi;
}
// * * * * * * * * * * * * * * * * * * * * * * * * * * * * * * * * * * * * * //

dimensions      [0 3 -1 0 0 0 0];

internalField   nonuniform List<scalar> 
16753
(
-0.00045021
-0.00180852
0.00180662
-0.000443927
-0.00199532
0.00198903
-0.000432802
-0.00217052
0.00215939
-0.000416329
-0.00232525
0.00230878
-0.000393964
-0.00244937
0.00242701
-0.000365147
-0.00253159
0.00250278
-0.000329384
-0.00255989
0.00252413
-0.000286379
-0.00252213
0.00247913
-0.000236176
-0.00240702
0.00235681
-0.000179254
-0.00220521
0.00214829
-0.0001165
-0.00191041
0.00184765
-4.90258e-05
-0.00151994
0.00145246
2.21282e-05
-0.0010349
0.000963748
9.62671e-05
-0.000460095
0.000385956
0.000173133
0.000195146
-0.000272012
0.000252583
0.000915661
-0.000995112
0.000334136
0.00167698
-0.00175853
0.000416235
0.00244629
-0.00252839
0.000496171
0.00318508
-0.00326502
0.00057022
0.00385934
-0.00393339
0.000634591
0.00444451
-0.00450888
0.000685892
0.00493093
-0.00498223
0.000721352
0.0053228
-0.00535826
0.000738632
0.00563676
-0.00565404
0.000735957
0.00589945
-0.00589677
0.000713602
0.00613956
-0.0061172
0.000676975
0.00636673
-0.0063301
0.000639022
0.00653591
-0.00649796
0.000617679
0.00652974
-0.0065084
0.00062729
0.00619068
-0.00620029
0.00067076
0.0054146
-0.00545807
0.000741397
0.00419409
-0.00426472
0.000829839
0.0026182
-0.00270664
0.000927269
0.000802188
-0.000899617
0.00102555
-0.00108506
0.000986774
0.00111643
-0.00289115
0.00280027
0.00119342
-0.00444347
0.00436648
0.00125069
-0.0056457
0.00558843
0.00128532
-0.00647837
0.00644374
0.00129671
-0.00694794
0.00693656
0.00129057
-0.00720781
0.00721395
0.00126299
-0.00707564
0.00710321
0.00120992
-0.00723064
0.00728371
0.00113245
-0.00680845
0.00688593
0.00104714
-0.00762798
0.00771329
-0.00515527
0.00520457
-0.000474585
-0.00180791
-0.000470948
-0.00199895
-0.000462594
-0.00217887
-0.000448993
-0.00233885
-0.000429548
-0.00246882
-0.000403608
-0.00255753
-0.000370545
-0.00259295
-0.000329889
-0.00256279
-0.000281489
-0.00245542
-0.000225645
-0.00226105
-0.000163126
-0.00197292
-9.50139e-05
-0.00158805
-2.24246e-05
-0.00110749
5.38822e-05
-0.000536402
0.000133423
0.000115606
0.000215868
0.000833216
0.000300567
0.00159228
0.000385847
0.00236101
0.00046896
0.00310197
0.000546132
0.00378217
0.000613508
0.00437713
0.000667595
0.00487684
0.000705509
0.00528489
0.000724868
0.0056174
0.000724088
0.00590023
0.000704033
0.00615961
0.000670971
0.00639979
0.000638403
0.00656848
0.000623783
0.00654436
0.000639919
0.00617455
0.00068828
0.00536624
0.000761787
0.00412058
0.000851351
0.00252863
0.000948527
0.000705012
0.00104552
-0.00118205
0.00113438
-0.00298001
0.00120892
-0.00451801
0.00126368
-0.00570046
0.00129603
-0.00651072
0.00130528
-0.00695719
0.00129753
-0.00720006
0.00126915
-0.00704726
0.00121627
-0.00717776
0.00113875
-0.00673093
0.00105328
-0.00754251
-0.00510618
-0.000494738
-0.00180483
-0.000493727
-0.00199996
-0.000488157
-0.00218444
-0.000477484
-0.00234953
-0.000461066
-0.00248523
-0.00043817
-0.00258043
-0.000408037
-0.00262309
-0.00037002
-0.00260081
-0.000323758
-0.00250168
-0.000269351
-0.00231546
-0.000207416
-0.00203486
-0.000138976
-0.00165649
-6.51845e-05
-0.00118128
1.29806e-05
-0.000614567
9.50525e-05
3.35338e-05
0.000180323
0.000747945
0.000268002
0.0015046
0.000356302
0.00227271
0.000442439
0.00301583
0.000522591
0.00370202
0.000592848
0.00430687
0.000649623
0.00482007
0.000689937
0.00524457
0.000711395
0.00559594
0.00071265
0.00589897
0.000695181
0.00617708
0.00066606
0.00642891
0.000639192
0.00659535
0.000631386
0.00655217
0.000653896
0.00615204
0.000706903
0.00531324
0.000783055
0.00404443
0.000873553
0.00243814
0.000970311
0.000608253
0.00106588
-0.00127762
0.00115263
-0.00306676
0.00122464
-0.00459002
0.00127684
-0.00575266
0.00130688
-0.00654075
0.00131401
-0.00696432
0.00130464
-0.0071907
0.00127545
-0.00701807
0.0012228
-0.00712511
0.00114531
-0.00665344
0.00105969
-0.00745689
-0.00505728
-0.000510418
-0.00179935
-0.000511999
-0.00199838
-0.000509213
-0.00218723
-0.000501508
-0.00235723
-0.00048821
-0.00249853
-0.000468511
-0.00260013
-0.000441532
-0.00265007
-0.000406446
-0.00263589
-0.000362674
-0.00254545
-0.000310089
-0.00236805
-0.000249126
-0.00209582
-0.000180717
-0.0017249
-0.000106044
-0.00125596
-2.6254e-05
-0.000694358
5.80943e-05
-5.08145e-05
0.000146003
0.000660037
0.000236482
0.00141412
0.00032763
0.00218156
0.000416631
0.00292683
0.000499616
0.00361903
0.000572627
0.00423386
0.000631994
0.0047607
0.000674659
0.00520191
0.000698249
0.00557235
0.000701699
0.00589552
0.000687114
0.00619167
0.000662299
0.00645373
0.000641409
0.00661624
0.000640464
0.00655312
0.000669172
0.00612333
0.000726577
0.00525583
0.000805158
0.00396585
0.000896401
0.00234689
0.000992584
0.000512071
0.00108661
-0.00137165
0.00117114
-0.00315129
0.00124055
-0.00465942
0.00129014
-0.00580226
0.00131785
-0.00656846
0.00132287
-0.00696934
0.00131189
-0.00717972
0.0012819
-0.00698807
0.00122951
-0.00707272
0.00115212
-0.00657605
0.00106637
-0.00737115
-0.00500857
-0.000521397
-0.00179153
-0.000525524
-0.00199426
-0.000525507
-0.00218725
-0.000520796
-0.00236194
-0.000510694
-0.00250863
-0.000494333
-0.00261649
-0.000470718
-0.00267368
-0.000438851
-0.00266776
-0.000397927
-0.00258637
-0.000347574
-0.0024184
-0.000288009
-0.00215539
-0.000220039
-0.00179287
-0.000144846
-0.00133115
-6.36332e-05
-0.00077557
2.25357e-05
-0.000136983
0.000112952
0.000569621
0.00020604
0.00132104
0.000299856
0.00208775
0.000391551
0.00283513
0.000477219
0.00353336
0.000552857
0.00415822
0.000614721
0.00469884
0.000659698
0.00515693
0.000685471
0.00554658
0.000691296
0.0058897
0.000679901
0.00620306
0.00065974
0.00647389
0.000645065
0.00663091
0.000650983
0.0065472
0.000685694
0.00608862
0.000747251
0.00519427
0.000828044
0.00388505
0.000919852
0.00225508
0.0010153
0.000416619
0.00110765
-0.001464
0.00118989
-0.00323353
0.00125664
-0.00472617
0.00130357
-0.00584919
0.00132893
-0.00659382
0.00133185
-0.00697226
0.00131927
-0.00716714
0.00128848
-0.00695728
0.00123637
-0.00702061
0.00115916
-0.00649883
0.00107331
-0.00728531
-0.00496
-0.000527481
-0.00178146
-0.000534091
-0.00198765
-0.000536813
-0.00218453
-0.000535106
-0.00236365
-0.00052826
-0.00251548
-0.000515358
-0.00262939
-0.000495302
-0.00269374
-0.000466931
-0.00269613
-0.000429216
-0.00262409
-0.00038152
-0.0024661
-0.000323813
-0.00221309
-0.000256735
-0.00185994
-0.000181431
-0.00140645
-9.92209e-05
-0.00085778
-1.16767e-05
-0.000224528
8.12043e-05
0.00047674
0.000176706
0.00122553
0.000272993
0.00199146
0.000367211
0.00274091
0.00045541
0.00344516
0.000533547
0.00408009
0.000597819
0.00463457
0.000645081
0.00510967
0.000673107
0.00551855
0.000681503
0.0058813
0.000673607
0.00621096
0.000658427
0.00648907
0.000650162
0.00663918
0.000662904
0.00653446
0.000703405
0.00604812
0.000768869
0.00512881
0.000851663
0.00380226
0.000943855
0.00216289
0.00103843
0.000322047
0.00112899
-0.00155456
0.00120885
-0.00331339
0.00127287
-0.0047902
0.0013171
-0.00589341
0.00134011
-0.00661683
0.00134094
-0.00697309
0.00132677
-0.00715297
0.00129518
-0.00692569
0.00124339
-0.00696882
0.00116643
-0.00642187
0.00108049
-0.00719937
-0.00491157
-0.000528505
-0.00176925
-0.000537522
-0.00197863
-0.000542936
-0.00217911
-0.000544224
-0.00236236
-0.000540675
-0.00251903
-0.000531333
-0.00263873
-0.000515013
-0.00271006
-0.000490401
-0.00272075
-0.000456245
-0.00265824
-0.000411639
-0.0025107
-0.000356275
-0.00226846
-0.000290586
-0.00192563
-0.000215638
-0.0014814
-0.000132828
-0.000940591
-4.36565e-05
-0.000313699
5.0796e-05
0.000382287
0.0001485
0.00112783
0.000247055
0.00189291
0.000343617
0.00264435
0.000434195
0.00335459
0.000514705
0.00399958
0.000581306
0.00456797
0.000630838
0.00506014
0.000661204
0.00548819
0.000672384
0.00587012
0.000668294
0.00621505
0.000658395
0.00649897
0.000656689
0.00664088
0.000676181
0.00651496
0.000722246
0.00600205
0.000791372
0.00505968
0.000875958
0.00371767
0.000968359
0.00207049
0.00106191
0.000228495
0.00115058
-0.00164323
0.00122798
-0.00339079
0.00128924
-0.00485145
0.00133072
-0.0059349
0.00135136
-0.00663747
0.00135013
-0.00697186
0.00133437
-0.00713721
0.00130199
-0.00689331
0.00125054
-0.00691737
0.0011739
-0.00634524
0.00108791
-0.00711338
-0.00486326
-0.000524343
-0.00175499
-0.000535675
-0.0019673
-0.000543717
-0.00217107
-0.000547973
-0.00235811
-0.000547739
-0.00251926
-0.000542037
-0.00264444
-0.000529606
-0.00272249
-0.000508991
-0.00274136
-0.000478733
-0.0026885
-0.000437647
-0.00255179
-0.000385131
-0.00232097
-0.000321362
-0.0019894
-0.000247283
-0.00155548
-0.000164336
-0.00102354
-7.4156e-05
-0.00040388
2.16705e-05
0.000286461
0.00012144
0.00102806
0.000222054
0.00179229
0.000320775
0.00254563
0.000413579
0.00326178
0.000496344
0.00391681
0.0005652
0.00449911
0.000617004
0.00500833
0.000649815
0.00545538
0.000664001
0.00585593
0.000664018
0.00621503
0.00065967
0.00650331
0.000664631
0.00663592
0.000690761
0.00648883
0.000742152
0.00595066
0.000814698
0.00498714
0.000900871
0.0036315
0.000993311
0.00197805
0.00108571
0.000136099
0.00117238
-0.00172991
0.00124726
-0.00346567
0.0013057
-0.00490989
0.00134441
-0.0059736
0.00136267
-0.00665574
0.0013594
-0.00696859
0.00134207
-0.00711988
0.0013089
-0.00686014
0.00125781
-0.00686627
0.00118157
-0.006269
0.00109554
-0.00702735
-0.00481504
-0.000514908
-0.00173884
-0.000528446
-0.00195376
-0.000539034
-0.00216048
-0.00054621
-0.00235093
-0.00054929
-0.00251618
-0.000547281
-0.00264644
-0.000538864
-0.0027309
-0.000522462
-0.00275776
-0.000496415
-0.00271455
-0.000459269
-0.00258893
-0.000410107
-0.00237014
-0.00034882
-0.00205069
-0.000276169
-0.00162813
-0.000193595
-0.00110611
-0.000102874
-0.000494601
-6.71227e-06
0.0001903
9.55469e-05
0.000925802
0.000198007
0.00168983
0.000298694
0.00244494
0.000393572
0.00316691
0.000478476
0.00383191
0.000549528
0.00442806
0.00060362
0.00495424
0.000638998
0.00542
0.000656421
0.00583851
0.000660832
0.00621062
0.000662271
0.00650188
0.00067396
0.00662423
0.000706586
0.00645621
0.000763057
0.00589419
0.000838783
0.00491141
0.000926341
0.00354394
0.00101865
0.00188574
0.00110977
4.49841e-05
0.00119436
-0.0018145
0.00126665
-0.00353796
0.00132224
-0.00496548
0.00135814
-0.0060095
0.00137403
-0.00667162
0.00136874
-0.00696331
0.00134986
-0.007101
0.00131591
-0.00682618
0.00126519
-0.00681556
0.00118943
-0.00619324
0.00110339
-0.00694131
-0.0047669
-0.000500159
-0.000515777
-0.00193814
-0.000528809
-0.00214745
-0.000538836
-0.0023409
-0.000545201
-0.00250982
-0.000546913
-0.00264473
-0.000542607
-0.00273521
-0.0005306
-0.00276977
-0.000509048
-0.0027361
-0.00047624
-0.00262174
-0.000430935
-0.00241544
-0.000372705
-0.00210892
-0.000302079
-0.00169876
-0.00022044
-0.00118775
-0.000129642
-0.000585399
-3.19719e-05
9.26297e-05
7.08783e-05
0.000822951
0.000174935
0.00158578
0.000277386
0.00234249
0.000374187
0.0030701
0.000461123
0.00374497
0.00053432
0.00435486
0.000590733
0.00489783
0.000628814
0.00538192
0.000649706
0.00581762
0.000658784
0.00620154
0.000666208
0.00649445
0.000684642
0.0066058
0.000723594
0.00641725
0.000784891
0.00583289
0.000863559
0.00483274
0.000952302
0.0034552
0.00104433
0.00179371
0.00113405
-4.4733e-05
0.00121647
-0.00189692
0.00128612
-0.00360761
0.00133882
-0.00501818
0.0013719
-0.00604258
0.00138541
-0.00668513
0.00137813
-0.00695603
0.00135773
-0.00708059
0.00132299
-0.00679145
0.00127267
-0.00676524
0.00119745
-0.00611802
0.00111144
-0.00685529
-0.00471883
-0.000497657
-0.00192059
-0.000513011
-0.0021321
-0.000525795
-0.00232812
-0.000535392
-0.00250022
-0.000540823
-0.0026393
-0.000540692
-0.00273534
-0.000533226
-0.00277724
-0.00051642
-0.00275291
-0.000488314
-0.00264985
-0.00044735
-0.0024564
-0.000392755
-0.00216351
-0.000324777
-0.00176673
-0.000244674
-0.00126785
-0.000154358
-0.000675715
-5.62035e-05
-5.52496e-06
4.74284e-05
0.000719319
0.000152879
0.00148032
0.000256876
0.0022385
0.000355449
0.00297153
0.000444314
0.00365611
0.000519618
0.00427956
0.000578398
0.00483905
0.000619327
0.00534099
0.000643921
0.00579303
0.000657914
0.00618755
0.00067148
0.00648089
0.000696635
0.00658064
0.000741717
0.00637217
0.000807583
0.00576703
0.000888956
0.00475137
0.000978688
0.00336547
0.00107028
0.00170212
0.00115849
-0.000132945
0.00123867
-0.0019771
0.00130564
-0.00367458
0.00135543
-0.00506797
0.00138566
-0.00607282
0.0013968
-0.00669627
0.00138756
-0.0069468
0.00136565
-0.00705868
0.00133015
-0.00675594
0.00128023
-0.00671532
0.00120563
-0.00604342
0.00111967
-0.00676933
-0.00467081
-0.000474126
-0.00190125
-0.00049166
-0.00211456
-0.000507084
-0.00231269
-0.000519831
-0.00248748
-0.000528945
-0.00263019
-0.000533018
-0.00273127
-0.000530202
-0.00278005
-0.000518348
-0.00276476
-0.00049527
-0.00267293
-0.0004591
-0.00249257
-0.000408706
-0.00221391
-0.000344012
-0.00183143
-0.00026608
-0.00134578
-0.000176853
-0.000764941
-7.87672e-05
-0.000103611
2.51947e-05
0.000615358
0.000131882
0.00137364
0.000237203
0.00213317
0.000337392
0.00287134
0.000428087
0.00356541
0.000505471
0.00420217
0.000566676
0.00477784
0.000610607
0.00529706
0.000639125
0.00576451
0.000658255
0.00616842
0.00067808
0.00646106
0.000709892
0.00654883
0.000760885
0.00632118
0.000831058
0.00569686
0.000914902
0.00466753
0.00100543
0.00327494
0.00109645
0.0016111
0.00118306
-0.000219557
0.00126093
-0.00205497
0.00132516
-0.00373881
0.00137202
-0.00511483
0.00139941
-0.0061002
0.00140817
-0.00670503
0.00139701
-0.00693564
0.00137363
-0.0070353
0.00133736
-0.00671967
0.00128787
-0.00666583
0.00121396
-0.00596951
0.00112809
-0.00668346
-0.00462282
-0.000445282
-0.00188032
-0.000464832
-0.00209501
-0.000482754
-0.00229477
-0.000498538
-0.00247169
-0.000511266
-0.00261746
-0.000519531
-0.002723
-0.000521431
-0.00277815
-0.000514691
-0.0027715
-0.000496921
-0.0026907
-0.000465955
-0.00252354
-0.0004203
-0.00225956
-0.000359522
-0.00189221
-0.000284427
-0.00142088
-0.000196852
-0.000852517
-9.95328e-05
-0.00020093
3.66093e-06
0.000512164
0.00011201
0.00126529
0.000218424
0.00202676
0.000320066
0.0027697
0.000412496
0.00347298
0.000491939
0.00412273
0.000555637
0.00471415
0.000602725
0.00524997
0.000635378
0.00573186
0.000659835
0.00614396
0.000685992
0.0064349
0.000724356
0.00651047
0.000781025
0.00626451
0.00085524
0.00562264
0.000941323
0.00458144
0.00103246
0.0031838
0.00112277
0.0015208
0.00120769
-0.000304481
0.0012832
-0.00213048
0.00134466
-0.00380028
0.00138858
-0.00515875
0.00141311
-0.00612473
0.00141951
-0.00671143
0.00140647
-0.0069226
0.00138164
-0.00701047
0.00134462
-0.00668264
0.00129556
-0.00661678
0.00122241
-0.00589635
0.00113667
-0.00659772
-0.00457487
-0.000411278
-0.00185798
-0.000432663
-0.00207363
-0.000452915
-0.00227452
-0.000471592
-0.00245301
-0.000487827
-0.00260122
-0.000500232
-0.0027106
-0.000506866
-0.00277152
-0.000505351
-0.00277302
-0.000493113
-0.00270294
-0.000467711
-0.00254894
-0.000427293
-0.00229998
-0.000371047
-0.00194845
-0.000299463
-0.00149246
-0.000214251
-0.000937729
-0.000118162
-0.000297018
-1.51149e-05
0.000409116
9.33918e-05
0.00115678
0.00020062
0.00191953
0.00030354
0.00266678
0.00039761
0.00337891
0.000479097
0.00404124
0.000545357
0.00464789
0.000595754
0.00519957
0.000632733
0.00569488
0.000662674
0.00611402
0.000695191
0.00640239
0.000739968
0.00646569
0.00080206
0.00620242
0.00088005
0.00554465
0.000968143
0.00449335
0.00105971
0.00309223
0.00114918
0.00143133
0.00123234
-0.000387642
0.00130543
-0.00220357
0.00136411
-0.00385895
0.00140508
-0.00519972
0.00142675
-0.00614641
0.00143081
-0.00671548
0.00141591
-0.00690771
0.00138969
-0.00698424
0.00135192
-0.00664487
0.0013033
-0.00656817
0.00123098
-0.00582403
0.00114541
-0.00651216
-0.00452694
-0.000372324
-0.00183443
-0.000395346
-0.0020506
-0.000417737
-0.00225213
-0.000439133
-0.00243162
-0.000458729
-0.00258163
-0.000475175
-0.00269415
-0.000486511
-0.00276018
-0.000490277
-0.00276925
-0.000483739
-0.00270947
-0.0004642
-0.00256848
-0.000429465
-0.00233472
-0.00037833
-0.00199959
-0.000310927
-0.00155987
-0.00022877
-0.00101989
-0.000134511
-0.000391277
-3.19009e-05
0.000306506
7.61211e-05
0.00104876
0.000183895
0.00181176
0.000287902
0.00256277
0.000383511
0.0032833
0.000467026
0.00395773
0.000535921
0.00457899
0.000589767
0.00514572
0.000631241
0.0056534
0.000666783
0.00607848
0.000705646
0.00636352
0.000756662
0.00641468
0.000823911
0.00613517
0.00090541
0.00546315
0.000995285
0.00440348
0.00108711
0.0030004
0.00117562
0.00134282
0.00125696
-0.000468976
0.0013276
-0.00227422
0.00138346
-0.00391481
0.00142148
-0.00523774
0.00144031
-0.00616524
0.00144203
-0.0067172
0.00142533
-0.00689101
0.00139774
-0.00695665
0.00135924
-0.00660637
0.00131107
-0.00652
0.00123965
-0.0057526
0.00115429
-0.0064268
-0.00447903
-0.000328685
-0.00180988
-0.000353136
-0.00202615
-0.000377456
-0.00222781
-0.000401367
-0.00240771
-0.000424138
-0.00255886
-0.00044448
-0.00267381
-0.000460432
-0.00274423
-0.000469474
-0.00276021
-0.00046874
-0.00271021
-0.000455298
-0.00258192
-0.000426628
-0.00236339
-0.000381132
-0.00204508
-0.000318553
-0.00162244
-0.000240126
-0.00109831
-0.000148374
-0.000483029
-4.70314e-05
0.000205164
6.0336e-05
0.000941392
0.000168377
0.00170372
0.000273261
0.00245789
0.0003703
0.00318626
0.000455825
0.0038722
0.000527417
0.0045074
0.00058484
0.0050883
0.000630948
0.00560729
0.000672166
0.00603726
0.000717317
0.00631837
0.00077437
0.00635762
0.000846499
0.00606304
0.000931239
0.00537841
0.00102267
0.00431204
0.00111458
0.00290849
0.00120204
0.00125537
0.00128149
-0.000548429
0.00134966
-0.00234239
0.00140268
-0.00396783
0.00143776
-0.00527282
0.00145376
-0.00618124
0.00145317
-0.00671661
0.00143471
-0.00687255
0.0014058
-0.00692774
0.00136658
-0.00656715
0.00131887
-0.00647229
0.00124841
-0.00568214
0.00116331
-0.00634171
-0.00443113
-0.00028068
-0.00178452
-0.000306343
-0.00200049
-0.000332367
-0.00220179
-0.000358564
-0.00238151
-0.000384288
-0.00253313
-0.000408332
-0.00264977
-0.000428755
-0.00272381
-0.000443004
-0.00274596
-0.000448111
-0.0027051
-0.000440929
-0.00258911
-0.000418632
-0.00238568
-0.000379241
-0.00208448
-0.000322084
-0.0016796
-0.000248054
-0.00117234
-0.000159492
-0.000571591
-6.00775e-05
0.000105749
4.62138e-05
0.000835101
0.000154215
0.00159572
0.000259746
0.00235236
0.000358094
0.00308791
0.000445597
0.0037847
0.000519939
0.00443306
0.000581044
0.0050272
0.000631893
0.00555644
0.00067882
0.00599034
0.000730158
0.00626703
0.000793019
0.00629476
0.000869742
0.00598632
0.000957455
0.0052907
0.00105023
0.00421927
0.00114207
0.00281665
0.00122837
0.00116906
0.0013059
-0.000625958
0.00137157
-0.00240805
0.00142174
-0.004018
0.00145388
-0.00530496
0.00146707
-0.00619443
0.0014642
-0.00671374
0.00144403
-0.00685238
0.00141384
-0.00689755
0.00137393
-0.00652724
0.00132667
-0.00642503
0.00125724
-0.0056127
0.00117246
-0.00625693
-0.00438325
-0.000228674
-0.00175858
-0.000255332
-0.00197383
-0.000282826
-0.00217429
-0.00031106
-0.00235328
-0.000339479
-0.00250471
-0.000366984
-0.00262226
-0.000391673
-0.00269912
-0.000410995
-0.00272664
-0.000421904
-0.00269419
-0.000421068
-0.00258994
-0.000405378
-0.00240137
-0.000372483
-0.00211737
-0.000321287
-0.0017308
-0.000252292
-0.00124134
-0.000167591
-0.000656292
-7.07464e-05
8.90403e-06
3.39479e-05
0.000730406
0.00014158
0.00148808
0.000247508
0.00224643
0.000347022
0.0029884
0.000436459
0.00369526
0.000513584
0.00435593
0.00057845
0.00496233
0.000634107
0.00550079
0.000686733
0.00593771
0.00074412
0.00620965
0.000812533
0.00622635
0.000893556
0.00590529
0.000983978
0.00520028
0.00107787
0.00412537
0.00116949
0.00272504
0.00125456
0.00108399
0.00133013
-0.000701528
0.00139328
-0.0024712
0.00144061
-0.00406533
0.00146983
-0.00533418
0.00148024
-0.00620484
0.00147511
-0.00670861
0.00145328
-0.00683055
0.00142187
-0.00686614
0.00138127
-0.00648664
0.00133447
-0.00637823
0.00126614
-0.00554437
0.00118172
-0.00617251
-0.00433538
-0.000173068
-0.00173224
-0.00020051
-0.00194639
-0.000229239
-0.00214556
-0.000259251
-0.00232327
-0.000290078
-0.00247389
-0.000320761
-0.00259158
-0.000349454
-0.00267042
-0.000373639
-0.00270245
-0.000390237
-0.00267759
-0.000395751
-0.00258443
-0.000386815
-0.00241031
-0.000360726
-0.00214346
-0.00031596
-0.00177556
-0.000252591
-0.00130471
-0.000172394
-0.000736489
-7.87755e-05
-8.47142e-05
2.37444e-05
0.000627887
0.000130669
0.00138116
0.000236713
0.00214039
0.00033723
0.00288788
0.000428533
0.00360396
0.00050845
0.00427602
0.000577124
0.00489366
0.000637617
0.00544029
0.000695886
0.00587944
0.000759144
0.00614639
0.000832836
0.00615266
0.000917861
0.00582027
0.00101072
0.00510741
0.00110553
0.00403056
0.00119679
0.00263379
0.00128056
0.00100021
0.00135415
-0.000775116
0.00141477
-0.00253183
0.00145925
-0.00410981
0.00148557
-0.0053605
0.00149323
-0.00621249
0.00148588
-0.00670126
0.00146243
-0.0068071
0.00142986
-0.00683357
0.00138861
-0.00644539
0.00134226
-0.00633188
0.00127508
-0.00547719
0.00119108
-0.0060885
-0.00428754
-0.00011429
-0.00170567
-0.000142326
-0.00191836
-0.000172062
-0.00211583
-0.000203587
-0.00229174
-0.000236516
-0.00244096
-0.000270056
-0.00255804
-0.000302434
-0.00263805
-0.000331202
-0.00267368
-0.000353295
-0.0026555
-0.000365078
-0.00257265
-0.000362956
-0.00241243
-0.000343894
-0.00216252
-0.000305944
-0.00181351
-0.00024873
-0.00136192
-0.000173614
-0.000811605
-8.39227e-05
-0.000174405
1.58304e-05
0.000528134
0.000121693
0.0012753
0.000227546
0.00203453
0.000328871
0.00278656
0.000421945
0.00351089
0.000504634
0.00419333
0.000577126
0.00482116
0.00064244
0.00537498
0.000706253
0.00581563
0.00077517
0.00607747
0.000853847
0.00607398
0.000942572
0.00573154
0.00103762
0.00501237
0.00113314
0.00393504
0.00122389
0.00254303
0.00130631
0.000917801
0.0013779
-0.000846706
0.001436
-0.00258993
0.00147763
-0.00415144
0.00150107
-0.00538395
0.00150602
-0.00621744
0.00149649
-0.00669173
0.00147148
-0.0067821
0.0014378
-0.00679988
0.00139592
-0.00640351
0.00135002
-0.00628599
0.00128407
-0.00541124
0.00120053
-0.00600497
-0.00423973
-5.27984e-05
-8.12498e-05
-0.0018899
-0.000111783
-0.00208529
-0.000144567
-0.00225896
-0.000179279
-0.00240625
-0.00021533
-0.00252199
-0.000251021
-0.00260235
-0.000284022
-0.00264068
-0.000311333
-0.00262819
-0.000329213
-0.00255477
-0.000333871
-0.00240777
-0.000321965
-0.00217443
-0.000291129
-0.00184435
-0.000240525
-0.00141253
-0.000171086
-0.000881044
-8.58688e-05
-0.000259623
1.04843e-05
0.000431781
0.000114877
0.0011709
0.000220197
0.00192921
0.000322105
0.00268465
0.000416826
0.00341617
0.00050223
0.00410792
0.000578511
0.00474488
0.000648587
0.0053049
0.000717802
0.00574641
0.000792133
0.00600314
0.000875488
0.00599063
0.000967607
0.00563942
0.00106457
0.00491541
0.00116061
0.00383901
0.00125075
0.00245289
0.00133176
0.000836795
0.00140134
-0.000916289
0.00145692
-0.00264551
0.00149572
-0.00419023
0.00151631
-0.00540455
0.00151859
-0.00621971
0.00150692
-0.00668006
0.00148041
-0.00675559
0.00144568
-0.00676515
0.0014032
-0.00636103
0.00135775
-0.00624054
0.00129307
-0.00534656
0.00121007
-0.00592197
-0.00419196
-1.77834e-05
-0.00186118
-4.89189e-05
-0.00205416
-8.27326e-05
-0.00222514
-0.000118904
-0.00237007
-0.000157103
-0.00248379
-0.000195695
-0.00256376
-0.000232509
-0.00260387
-0.000264681
-0.00259602
-0.000288391
-0.00253106
-0.000299698
-0.00239647
-0.00029498
-0.00217915
-0.000271462
-0.00186787
-0.000227843
-0.00145615
-0.000164589
-0.000944298
-8.44011e-05
-0.00033981
8.09312e-06
0.000339286
0.000110448
0.00106855
0.000214863
0.0018248
0.000317093
0.00258242
0.0004133
0.00331996
0.000501327
0.0040199
0.000581325
0.00466488
0.000656058
0.00523017
0.000730491
0.00567198
0.000809964
0.00592367
0.000897677
0.00590291
0.000992885
0.00554422
0.00109151
0.00481678
0.00118788
0.00374265
0.0012773
0.00236346
0.00135687
0.000757232
0.00142444
-0.000983864
0.00147751
-0.00269858
0.00151348
-0.0042262
0.00153127
-0.00542233
0.00153092
-0.00621937
0.00151716
-0.0066663
0.00148921
-0.00672763
0.00145349
-0.00672943
0.00141043
-0.00631797
0.00136543
-0.00619553
0.00130209
-0.00528322
0.00121968
-0.00583957
-0.00414425
4.75655e-05
-0.00183228
1.57193e-05
-0.00202231
-1.86944e-05
-0.00219073
-5.59559e-05
-0.00233281
-9.59664e-05
-0.00244378
-0.000137001
-0.00252273
-0.000177149
-0.00256372
-0.000213742
-0.00255942
-0.000242922
-0.00250187
-0.000260644
-0.00237875
-0.000263045
-0.00217674
-0.000246949
-0.00188396
-0.000210597
-0.0014925
-0.000153958
-0.00100094
-7.93118e-05
-0.000414456
9.06564e-06
0.000250909
0.00010863
0.000968985
0.000211736
0.00172169
0.000313995
0.00248016
0.000411492
0.00322246
0.000502007
0.00392938
0.000585605
0.00458129
0.000664846
0.00515093
0.000744275
0.00559255
0.000828592
0.00583935
0.000920334
0.00581117
0.00101833
0.00544622
0.00111837
0.00471674
0.00121488
0.00364614
0.00130349
0.00227484
0.00138159
0.000679137
0.00144716
-0.00104943
0.00149772
-0.00274914
0.00153089
-0.00425936
0.0015459
-0.00543735
0.00154299
-0.00621646
0.00152719
-0.00665051
0.00149786
-0.0066983
0.00146122
-0.00669279
0.00141762
-0.00627438
0.00137305
-0.00615096
0.0013111
-0.00522127
0.00122935
-0.00575782
-0.00409661
0.000114408
-0.00180337
8.24846e-05
-0.00199039
4.71003e-05
-0.00215535
7.66384e-06
-0.00229338
-3.25849e-05
-0.00240353
-7.55454e-05
-0.00247977
-0.000118496
-0.00252077
-0.000159002
-0.00251892
-0.00019319
-0.00246769
-0.000216989
-0.00235495
-0.000226333
-0.0021674
-0.000217658
-0.00189264
-0.000188762
-0.00152139
-0.000139079
-0.00105062
-7.04493e-05
-0.000483086
1.35513e-05
0.000166908
0.000109626
0.00087291
0.000210999
0.00162032
0.000312961
0.0023782
0.000411513
0.00312391
0.000504341
0.00383656
0.00059138
0.00449425
0.000674936
0.00506737
0.000759103
0.00550838
0.000847944
0.00575051
0.000943378
0.00571574
0.00104385
0.00534576
0.00114506
0.00461553
0.00124154
0.00354965
0.00132928
0.00218711
0.00140589
0.000602525
0.00146946
-0.00111301
0.00151753
-0.00279721
0.00154791
-0.00428974
0.00156019
-0.00544963
0.00155478
-0.00621105
0.001537
-0.00663273
0.00150634
-0.00666764
0.00146885
-0.0066553
0.00142476
-0.00623028
0.00138061
-0.00610682
0.0013201
-0.00516076
0.00123908
-0.00567679
-0.00404906
0.000182136
-0.00177448
0.00015
-0.00195825
0.000114334
-0.00211968
7.53172e-05
-0.00225436
3.24302e-05
-0.00236064
-1.2208e-05
-0.00243513
-5.71619e-05
-0.00247582
-0.000101037
-0.00247504
-0.000139664
-0.00242906
-0.000169089
-0.00232552
-0.000185089
-0.0021514
-0.000183727
-0.001894
-0.000162373
-0.00154275
-0.000119899
-0.00109309
-5.77199e-05
-0.000545265
2.15257e-05
8.76626e-05
0.000113608
0.000780828
0.000212814
0.00152111
0.00031413
0.00227688
0.000413466
0.00302457
0.00050839
0.00374163
0.000598665
0.00440397
0.000686303
0.00497974
0.000774917
0.00541977
0.000867945
0.00565748
0.000966731
0.00561695
0.00106938
0.00524311
0.00117151
0.00451339
0.00126782
0.00345334
0.0013546
0.00210033
0.00142973
0.000527402
0.00149131
-0.00117459
0.00153691
-0.00284281
0.00156452
-0.00431736
0.00157412
-0.00545923
0.00156627
-0.0062032
0.00154657
-0.00661303
0.00151465
-0.00663572
0.00147638
-0.00661703
0.00143183
-0.00618573
0.0013881
-0.00606309
0.00132908
-0.00510174
0.00124885
-0.00559656
-0.00400163
0.000250304
-0.00174563
0.000218007
-0.00192596
0.000182058
-0.00208373
0.000142548
-0.00221485
9.93554e-05
-0.00231745
5.32203e-05
-0.00238899
4.30619e-06
-0.0024269
-4.05311e-05
-0.0024302
-8.28995e-05
-0.00238669
-0.000117384
-0.00229104
-0.000139639
-0.00212915
-0.00014536
-0.00188828
-0.00013153
-0.00155658
-9.64371e-05
-0.00112819
-4.1112e-05
-0.000600591
3.30215e-05
1.35292e-05
0.000120718
0.000693131
0.000217323
0.00142451
0.00031762
0.00217659
0.000417437
0.00292476
0.0005142
0.00364487
0.000607466
0.00431071
0.000698914
0.00488829
0.000791657
0.00532703
0.000888519
0.00556062
0.000990313
0.00551516
0.00109484
0.00513859
0.00119766
0.00441057
0.00129366
0.00335734
0.00137944
0.00201455
0.00145307
0.000453769
0.00151267
-0.00123419
0.00155581
-0.00288594
0.00158069
-0.00434224
0.00158766
-0.0054662
0.00157744
-0.00619298
0.00155588
-0.00659147
0.00152277
-0.0066026
0.00148379
-0.00657805
0.00143882
-0.00614077
0.0013955
-0.00601977
0.00133802
-0.00504425
0.00125864
-0.00551718
-0.00395434
0.000318462
-0.00171679
0.000286015
-0.00189351
0.000249838
-0.00204755
0.000209988
-0.002175
0.000166423
-0.00227388
0.000119769
-0.00234234
7.1277e-05
-0.00237841
2.1523e-05
-0.00238045
-2.37017e-05
-0.00234147
-6.24129e-05
-0.00225232
-9.03995e-05
-0.00210116
-0.000102851
-0.00187582
-9.6408e-05
-0.00156302
-6.87866e-05
-0.00115581
-2.08794e-05
-0.000648498
4.80576e-05
-5.54079e-05
0.000131056
0.000610133
0.000224636
0.00133093
0.000323529
0.00207769
0.000423494
0.00282479
0.000521804
0.00354656
0.000617776
0.00421473
0.000712728
0.00479334
0.000809257
0.0052305
0.00090959
0.00546029
0.00101405
0.0054107
0.00112016
0.00503248
0.00122345
0.00430727
0.001319
0.0032618
0.00140374
0.00192981
0.00147589
0.000381618
0.00153352
-0.00129183
0.00157421
-0.00292663
0.00159639
-0.00436442
0.00160078
-0.00547059
0.00158827
-0.00618047
0.00156493
-0.00656813
0.00153069
-0.00656836
0.00149107
-0.00653843
0.00144574
-0.00609543
0.00140282
-0.00597685
0.00134691
-0.00498835
0.00126847
-0.00543874
-0.00390723
0.000386168
0.000353558
-0.0018609
0.000317186
-0.00201118
0.00027712
-0.00213493
0.000233376
-0.00223014
0.000186399
-0.00229536
0.000137178
-0.00232919
8.68536e-05
-0.00233013
3.79859e-05
-0.0022926
-5.61332e-06
-0.00220873
-3.79607e-05
-0.00206881
-5.66099e-05
-0.00185718
-5.73063e-05
-0.00156232
-3.72262e-05
-0.00117589
2.99108e-06
-0.000688715
6.65822e-05
-0.000118999
0.000144701
0.000532014
0.000234836
0.00124079
0.00033193
0.0019806
0.000431687
0.00272504
0.000531216
0.00344703
0.000629577