/*--------------------------------*- C++ -*----------------------------------*\
  =========                 |
  \\      /  F ield         | OpenFOAM: The Open Source CFD Toolbox
   \\    /   O peration     | Website:  https://openfoam.org
    \\  /    A nd           | Version:  7
     \\/     M anipulation  |
\*---------------------------------------------------------------------------*/
FoamFile
{
    version     2.0;
    format      ascii;
    class       volScalarField;
    location    "30";
    object      p;
}
// * * * * * * * * * * * * * * * * * * * * * * * * * * * * * * * * * * * * * //

dimensions      [0 2 -2 0 0 0 0];

internalField   nonuniform List<scalar> 
3025
(
-0.292079
-0.296386
-0.298595
-0.299793
-0.300243
-0.299949
-0.298983
-0.297414
-0.295303
-0.292706
-0.289682
-0.286289
-0.282537
-0.278511
-0.292613
-0.296857
-0.299021
-0.300178
-0.30059
-0.30026
-0.29926
-0.297659
-0.295517
-0.292892
-0.289842
-0.286428
-0.282648
-0.278578
-0.293678
-0.297797
-0.299872
-0.300948
-0.301282
-0.30088
-0.299812
-0.298146
-0.295944
-0.293261
-0.290158
-0.286703
-0.282867
-0.278709
-0.295269
-0.299202
-0.301142
-0.302097
-0.302316
-0.301805
-0.300635
-0.298873
-0.296579
-0.293809
-0.290627
-0.287109
-0.283187
-0.278895
-0.297379
-0.301064
-0.302827
-0.303622
-0.303687
-0.303031
-0.301724
-0.299833
-0.297415
-0.294529
-0.291239
-0.287636
-0.283603
-0.27912
-0.299997
-0.303378
-0.30492
-0.305514
-0.305387
-0.304551
-0.303073
-0.301019
-0.298447
-0.295413
-0.291986
-0.288275
-0.284098
-0.279333
-0.303112
-0.306132
-0.307411
-0.307766
-0.30741
-0.306357
-0.304674
-0.302424
-0.299665
-0.296451
-0.292857
-0.289013
-0.284656
-0.279467
-0.306712
-0.309317
-0.310292
-0.31037
-0.309746
-0.308441
-0.306518
-0.304038
-0.301059
-0.297634
-0.293841
-0.289833
-0.285275
-0.279835
-0.310783
-0.31292
-0.313551
-0.313314
-0.312387
-0.310794
-0.308597
-0.305854
-0.302622
-0.298951
-0.294926
-0.290723
-0.285903
-0.280138
-0.315312
-0.31693
-0.317178
-0.31659
-0.315322
-0.313407
-0.310901
-0.307863
-0.304343
-0.300393
-0.2961
-0.29167
-0.286548
-0.280352
-0.320284
-0.321335
-0.321162
-0.320185
-0.318543
-0.31627
-0.313424
-0.310056
-0.306216
-0.301951
-0.297354
-0.292662
-0.287194
-0.280473
-0.325686
-0.326121
-0.32549
-0.32409
-0.322038
-0.319376
-0.316157
-0.312428
-0.308235
-0.30362
-0.298678
-0.293685
-0.287821
-0.280482
-0.331504
-0.331277
-0.330151
-0.328295
-0.3258
-0.322717
-0.319093
-0.314973
-0.310397
-0.305396
-0.300071
-0.294731
-0.288413
-0.280339
-0.337724
-0.336788
-0.335133
-0.332787
-0.329818
-0.326285
-0.32223
-0.31769
-0.3127
-0.307281
-0.301531
-0.295799
-0.288957
-0.28002
-0.344334
-0.342644
-0.340425
-0.337558
-0.334086
-0.330074
-0.325561
-0.320578
-0.315149
-0.309281
-0.303065
-0.29689
-0.289447
-0.279487
-0.351318
-0.348829
-0.346013
-0.342597
-0.338593
-0.334079
-0.329087
-0.323639
-0.317749
-0.311406
-0.304688
-0.298016
-0.28988
-0.278701
-0.358663
-0.35533
-0.351886
-0.347892
-0.343333
-0.338294
-0.332805
-0.326876
-0.32051
-0.313673
-0.30642
-0.299199
-0.290266
-0.277624
-0.366352
-0.362132
-0.358029
-0.353433
-0.348296
-0.342716
-0.336715
-0.330296
-0.323446
-0.316105
-0.308294
-0.300473
-0.290626
-0.276218
-0.374367
-0.369218
-0.364429
-0.359207
-0.353474
-0.347339
-0.340818
-0.333906
-0.326573
-0.318732
-0.310356
-0.301897
-0.291014
-0.274469
-0.382687
-0.376569
-0.371069
-0.365202
-0.358858
-0.352157
-0.345113
-0.337713
-0.329911
-0.321588
-0.312667
-0.303562
-0.291551
-0.272443
-0.391286
-0.384164
-0.377931
-0.371404
-0.364437
-0.357165
-0.3496
-0.341722
-0.333477
-0.324715
-0.315299
-0.305583
-0.29238
-0.270201
-0.400138
-0.39198
-0.384997
-0.377796
-0.370198
-0.362352
-0.354273
-0.345938
-0.337289
-0.328156
-0.318349
-0.308088
-0.293451
-0.267249
-0.40921
-0.399992
-0.392243
-0.38436
-0.376126
-0.367708
-0.359124
-0.350358
-0.34136
-0.331969
-0.32199
-0.311393
-0.29505
-0.26347
-0.418468
-0.40817
-0.399647
-0.391077
-0.382204
-0.373217
-0.36414
-0.354969
-0.345684
-0.336195
-0.326423
-0.316249
-0.300669
-0.269787
-0.427874
-0.416485
-0.407183
-0.397923
-0.388413
-0.37886
-0.369296
-0.359738
-0.350206
-0.340728
-0.331451
-0.322618
-0.314492
-0.317696
-0.437389
-0.424903
-0.414821
-0.404873
-0.394729
-0.384613
-0.374564
-0.364616
-0.354824
-0.345307
-0.336354
-0.328262
-0.323065
-0.332529
-0.446969
-0.433389
-0.422532
-0.411902
-0.401128
-0.390451
-0.379915
-0.369561
-0.359465
-0.34979
-0.340857
-0.332802
-0.327737
-0.336471
-0.456571
-0.441905
-0.430282
-0.41898
-0.407583
-0.396349
-0.38532
-0.37454
-0.364091
-0.354143
-0.345
-0.336645
-0.331001
-0.338007
-0.466151
-0.450412
-0.438037
-0.426075
-0.414066
-0.402279
-0.390752
-0.379523
-0.368671
-0.358352
-0.348824
-0.339949
-0.333418
-0.338118
-0.47566
-0.458866
-0.445757
-0.433152
-0.420544
-0.40821
-0.396179
-0.384478
-0.373173
-0.362393
-0.352335
-0.342758
-0.335116
-0.337289
-0.485047
-0.467223
-0.4534
-0.440171
-0.42698
-0.414105
-0.401564
-0.389369
-0.377562
-0.36624
-0.355532
-0.345113
-0.336228
-0.335867
-0.494259
-0.47543
-0.460919
-0.44709
-0.433332
-0.419924
-0.406867
-0.394153
-0.381799
-0.369861
-0.358404
-0.347043
-0.336851
-0.334014
-0.483434
-0.468263
-0.453859
-0.439553
-0.42562
-0.412041
-0.398783
-0.385836
-0.373217
-0.360932
-0.348559
-0.337032
-0.331804
-0.475376
-0.460423
-0.445589
-0.43114
-0.417031
-0.403205
-0.389623
-0.376264
-0.363087
-0.349651
-0.336784
-0.329266
-0.451383
-0.436425
-0.421779
-0.407361
-0.393103
-0.378952
-0.36483
-0.350299
-0.336104
-0.326402
-0.44141
-0.426219
-0.411185
-0.396215
-0.381226
-0.366118
-0.350472
-0.334969
-0.323198
-0.414608
-0.39889
-0.383026
-0.3669
-0.350129
-0.333349
-0.319628
-0.401058
-0.384286
-0.367121
-0.349226
-0.331203
-0.315654
-0.366719
-0.347709
-0.328484
-0.311232
-0.325145
-0.306315
-0.325145
-0.306315
-0.366719
-0.347709
-0.328484
-0.311232
-0.401058
-0.384286
-0.36712
-0.349226
-0.331203
-0.315654
-0.414608
-0.39889
-0.383026
-0.3669
-0.350129
-0.333349
-0.319628
-0.44141
-0.426219
-0.411185
-0.396214
-0.381226
-0.366118
-0.350472
-0.334969
-0.323198
-0.466724
-0.451383
-0.436425
-0.421779
-0.407361
-0.393103
-0.378952
-0.36483
-0.350299
-0.336104
-0.326402
-0.475376
-0.460423
-0.445589
-0.43114
-0.417031
-0.403205
-0.389623
-0.376264
-0.363087
-0.349651
-0.336784
-0.329266
-0.483434
-0.468263
-0.453859
-0.439553
-0.42562
-0.412041
-0.398783
-0.385836
-0.373216
-0.360932
-0.348559
-0.337032
-0.331804
-0.494259
-0.47543
-0.460919
-0.44709
-0.433332
-0.419924
-0.406867
-0.394153
-0.381799
-0.369861
-0.358404
-0.347043
-0.336851
-0.334014
-0.485047
-0.467222
-0.4534
-0.440171
-0.42698
-0.414105
-0.401564
-0.389369
-0.377562
-0.36624
-0.355532
-0.345113
-0.336228
-0.335866
-0.47566
-0.458866
-0.445757
-0.433152
-0.420544
-0.40821
-0.396179
-0.384478
-0.373173
-0.362393
-0.352335
-0.342758
-0.335116
-0.337289
-0.466151
-0.450412
-0.438037
-0.426075
-0.414066
-0.402279
-0.390752
-0.379523
-0.368671
-0.358352
-0.348824
-0.339949
-0.333418
-0.338118
-0.456571
-0.441905
-0.430282
-0.41898
-0.407583
-0.396349
-0.38532
-0.37454
-0.364091
-0.354143
-0.345
-0.336645
-0.331001
-0.338007
-0.446969
-0.433389
-0.422532
-0.411902
-0.401128
-0.390451
-0.379915
-0.369561
-0.359465
-0.34979
-0.340857
-0.332802
-0.327737
-0.336471
-0.437389
-0.424903
-0.414821
-0.404873
-0.394729
-0.384613
-0.374564
-0.364616
-0.354823
-0.345307
-0.336354
-0.328262
-0.323065
-0.332529
-0.427874
-0.416485
-0.407183
-0.397923
-0.388413
-0.37886
-0.369296
-0.359738
-0.350205
-0.340728
-0.331451
-0.322618
-0.314492
-0.317696
-0.418468
-0.40817
-0.399647
-0.391077
-0.382204
-0.373217
-0.36414
-0.354969
-0.345684
-0.336195
-0.326423
-0.316249
-0.300669
-0.269787
-0.40921
-0.399992
-0.392243
-0.38436
-0.376126
-0.367708
-0.359124
-0.350358
-0.34136
-0.331969
-0.32199
-0.311393
-0.29505
-0.26347
-0.400138
-0.39198
-0.384997
-0.377796
-0.370198
-0.362352
-0.354272
-0.345938
-0.337289
-0.328156
-0.318349
-0.308088
-0.293451
-0.267249
-0.391286
-0.384164
-0.377931
-0.371404
-0.364437
-0.357165
-0.3496
-0.341722
-0.333477
-0.324715
-0.315299
-0.305583
-0.29238
-0.270201
-0.382687
-0.376569
-0.371069
-0.365202
-0.358858
-0.352157
-0.345113
-0.337713
-0.329911
-0.321588
-0.312667
-0.303562
-0.291551
-0.272443
-0.374367
-0.369218
-0.364429
-0.359207
-0.353474
-0.347339
-0.340818
-0.333906
-0.326573
-0.318732
-0.310356
-0.301897
-0.291014
-0.274469
-0.366352
-0.362132
-0.358029
-0.353433
-0.348296
-0.342716
-0.336715
-0.330296
-0.323446
-0.316105
-0.308294
-0.300473
-0.290626
-0.276218
-0.358663
-0.35533
-0.351886
-0.347892
-0.343333
-0.338294
-0.332805
-0.326876
-0.32051
-0.313673
-0.30642
-0.299199
-0.290266
-0.277624
-0.351318
-0.348829
-0.346013
-0.342596
-0.338593
-0.334079
-0.329087
-0.323639
-0.317749
-0.311406
-0.304688
-0.298016
-0.28988
-0.278701
-0.344334
-0.342644
-0.340425
-0.337558
-0.334086
-0.330074
-0.325561
-0.320578
-0.315149
-0.309281
-0.303065
-0.29689
-0.289447
-0.279487
-0.337724
-0.336788
-0.335133
-0.332787
-0.329818
-0.326285
-0.32223
-0.31769
-0.3127
-0.307281
-0.301531
-0.295799
-0.288957
-0.28002
-0.331504
-0.331277
-0.330151
-0.328295
-0.3258
-0.322717
-0.319093
-0.314973
-0.310397
-0.305396
-0.30007
-0.294731
-0.288413
-0.280339
-0.325686
-0.326121
-0.32549
-0.32409
-0.322038
-0.319376
-0.316156
-0.312428
-0.308235
-0.30362
-0.298678
-0.293685
-0.287821
-0.280482
-0.320284
-0.321335
-0.321162
-0.320185
-0.318543
-0.31627
-0.313424
-0.310056
-0.306216
-0.301951
-0.297354
-0.292662
-0.287194
-0.280473
-0.315312
-0.31693
-0.317178
-0.31659
-0.315322
-0.313407
-0.310901
-0.307863
-0.304343
-0.300393
-0.2961
-0.29167
-0.286548
-0.280352
-0.310783
-0.31292
-0.313551
-0.313314
-0.312387
-0.310794
-0.308597
-0.305854
-0.302622
-0.298951
-0.294926
-0.290723
-0.285903
-0.280138
-0.306712
-0.309317
-0.310292
-0.31037
-0.309746
-0.308441
-0.306518
-0.304038
-0.301059
-0.297634
-0.293841
-0.289833
-0.285275
-0.279835
-0.303112
-0.306132
-0.307411
-0.307766
-0.30741
-0.306357
-0.304674
-0.302424
-0.299665
-0.296451
-0.292857
-0.289013
-0.284656
-0.279467
-0.299997
-0.303378
-0.30492
-0.305514
-0.305387
-0.304551
-0.303073
-0.301019
-0.298447
-0.295413
-0.291986
-0.288275
-0.284098
-0.279333
-0.297379
-0.301064
-0.302827
-0.303622
-0.303687
-0.303031
-0.301724
-0.299833
-0.297415
-0.294529
-0.291239
-0.287636
-0.283603
-0.27912
-0.295269
-0.299202
-0.301142
-0.302097
-0.302316
-0.301805
-0.300635
-0.298873
-0.296579
-0.293809
-0.290627
-0.287109
-0.283187
-0.278895
-0.293678
-0.297797
-0.299872
-0.300948
-0.301282
-0.30088
-0.299812
-0.298146
-0.295944
-0.293261
-0.290158
-0.286703
-0.282867
-0.278709
-0.292613
-0.296857
-0.299021
-0.300178
-0.30059
-0.30026
-0.29926
-0.297659
-0.295517
-0.292892
-0.289842
-0.286428
-0.282648
-0.278578
-0.292079
-0.296386
-0.298595
-0.299793
-0.300243
-0.299949
-0.298983
-0.297414
-0.295303
-0.292706
-0.289682
-0.286289
-0.282537
-0.278511
-0.274081
-0.266825
-0.259354
-0.250793
-0.241492
-0.231482
-0.274418
-0.267009
-0.259539
-0.250958
-0.24164
-0.231617
-0.275092
-0.267415
-0.259911
-0.251285
-0.241934
-0.231884
-0.276095
-0.267988
-0.260462
-0.251769
-0.242368
-0.232279
-0.277422
-0.268723
-0.261186
-0.252403
-0.242937
-0.232796
-0.279121
-0.269596
-0.262076
-0.253178
-0.243632
-0.233428
-0.281265
-0.270504
-0.263122
-0.254084
-0.244441
-0.234166
-0.283279
-0.271865
-0.264266
-0.255108
-0.245354
-0.234998
-0.285643
-0.273266
-0.265537
-0.256235
-0.246356
-0.235912
-0.2883
-0.274748
-0.266914
-0.25745
-0.247434
-0.236895
-0.29119
-0.27633
-0.268378
-0.258735
-0.248573
-0.237935
-0.294297
-0.278
-0.269905
-0.260073
-0.249756
-0.239018
-0.297502
-0.279739
-0.271474
-0.261444
-0.250968
-0.24013
-0.228861
-0.300888
-0.28154
-0.273063
-0.262831
-0.252194
-0.241257
-0.229922
-0.304354
-0.283388
-0.274648
-0.264212
-0.253418
-0.242386
-0.230992
-0.307836
-0.285276
-0.276206
-0.265567
-0.254624
-0.243505
-0.232062
-0.311246
-0.287193
-0.277715
-0.266875
-0.255798
-0.244604
-0.233122
-0.314454
-0.289129
-0.279155
-0.268114
-0.256927
-0.245672
-0.234163
-0.317261
-0.291052
-0.280501
-0.269259
-0.257995
-0.246698
-0.235178
-0.319353
-0.29289
-0.281732
-0.270283
-0.258985
-0.247672
-0.236157
-0.224427
-0.320292
-0.294601
-0.282873
-0.271192
-0.259898
-0.248596
-0.237102
-0.225402
-0.319699
-0.29623
-0.283992
-0.27202
-0.260762
-0.249504
-0.23805
-0.226394
-0.316303
-0.296993
-0.284827
-0.272635
-0.261478
-0.250328
-0.238953
-0.227368
-0.303601
-0.294287
-0.28464
-0.272551
-0.26164
-0.250687
-0.239432
-0.227939
-0.269169
-0.287365
-0.284348
-0.272699
-0.262033
-0.251246
-0.240027
-0.22851
-0.216711
-0.257418
-0.278846
-0.279028
-0.268151
-0.258185
-0.248046
-0.237296
-0.226161
-0.214701
-0.252771
-0.271237
-0.272462
-0.262354
-0.253047
-0.243581
-0.233381
-0.222716
-0.211686
-0.249339
-0.263777
-0.265637
-0.256408
-0.247652
-0.2388
-0.229157
-0.21898
-0.2084
-0.245772
-0.256247
-0.258326
-0.250022
-0.241796
-0.233539
-0.224483
-0.214835
-0.204747
-0.24148
-0.248471
-0.250344
-0.242967
-0.235306
-0.227649
-0.219219
-0.210153
-0.200609
-0.236045
-0.240217
-0.241617
-0.235163
-0.228135
-0.221097
-0.21333
-0.204895
-0.195949
-0.229187
-0.231294
-0.232113
-0.226571
-0.220258
-0.213873
-0.206803
-0.199048
-0.190748
-0.220793
-0.221572
-0.221832
-0.217185
-0.211666
-0.205976
-0.199635
-0.192604
-0.184998
-0.210888
-0.210996
-0.210814
-0.207042
-0.202382
-0.19743
-0.191846
-0.185574
-0.178703
-0.199619
-0.199588
-0.199144
-0.196224
-0.192463
-0.188288
-0.183482
-0.177993
-0.171887
-0.187233
-0.187451
-0.186951
-0.184851
-0.182
-0.178627
-0.17461
-0.169917
-0.164595
-0.174043
-0.174756
-0.174393
-0.173078
-0.171117
-0.16855
-0.165322
-0.161424
-0.15689
-0.160393
-0.161716
-0.161648
-0.161073
-0.159955
-0.158178
-0.155722
-0.152604
-0.148849
-0.146617
-0.148565
-0.148901
-0.149008
-0.148665
-0.14764
-0.145926
-0.14356
-0.140562
-0.133009
-0.135527
-0.136323
-0.137047
-0.137396
-0.137067
-0.136052
-0.134398
-0.132122
-0.119806
-0.122803
-0.124064
-0.125332
-0.126285
-0.126584
-0.126213
-0.125221
-0.123625
-0.107181
-0.110549
-0.112249
-0.113983
-0.11545
-0.116302
-0.116513
-0.116128
-0.11516
-0.0952472
-0.0988817
-0.100969
-0.103094
-0.104988
-0.106318
-0.107044
-0.107204
-0.10681
-0.0840687
-0.0878774
-0.0902899
-0.0927327
-0.094976
-0.0967086
-0.0978828
-0.0985276
-0.0986483
-0.0736738
-0.0775805
-0.0802552
-0.0829493
-0.0854704
-0.0875367
-0.0890942
-0.0901618
-0.09074
-0.0640666
-0.0680113
-0.0708891
-0.073776
-0.0765131
-0.0788502
-0.0807298
-0.0821615
-0.0831406
-0.0552367
-0.0591745
-0.0622035
-0.065233
-0.0681333
-0.0706856
-0.0728315
-0.074572
-0.0758981
-0.0471665
-0.0510651
-0.0542015
-0.0573321
-0.0603512
-0.0630706
-0.0654327
-0.0674315
-0.0690541
-0.039836
-0.0436731
-0.0468818
-0.0500797
-0.0531813
-0.0560269
-0.0585612
-0.0607729
-0.0626453
-0.0332261
-0.0369874
-0.0402407
-0.0434791
-0.046634
-0.0495717
-0.0522405
-0.0546247
-0.056705
-0.0273199
-0.0309977
-0.0342745
-0.037533
-0.0407183
-0.0437205
-0.0464919
-0.0490136
-0.0512643
-0.0221048
-0.0256968
-0.0289816
-0.0322453
-0.0354439
-0.0384885
-0.041336
-0.0439653
-0.0463533
-0.0175741
-0.0210822
-0.0243643
-0.0276229
-0.0308225
-0.0338927
-0.036795
-0.0395065
-0.0420032
-0.013727
-0.0171572
-0.0204301
-0.0236775
-0.0268702
-0.0299538
-0.032894
-0.035667
-0.0382478
-0.0105742
-0.0139355
-0.0171957
-0.0204289
-0.0236107
-0.0266993
-0.0296645
-0.0324817
-0.0351256
-0.00813187
-0.0114376
-0.0146855
-0.0179052
-0.0210755
-0.0241647
-0.0271455
-0.0299932
-0.0326822
-0.00644518
-0.00970874
-0.0129454
-0.0161535
-0.0193137
-0.0224009
-0.0253903
-0.0282569
-0.030975
-0.0055486
-0.00879407
-0.0120263
-0.0152297
-0.0183854
-0.0214719
-0.0244657
-0.0273421
-0.030075
-0.273392
-0.277161
-0.280453
-0.283344
-0.285915
-0.288251
-0.29044
-0.292573
-0.294739
-0.29703
-0.299564
-0.302478
-0.30575
-0.309962
-0.320767
-0.338518
-0.257369
-0.262244
-0.26678
-0.271042
-0.275105
-0.279049
-0.282956
-0.286919
-0.291034
-0.295413
-0.300204
-0.305555
-0.311345
-0.318117
-0.330802
-0.343581
-0.241553
-0.247191
-0.25254
-0.257648
-0.262569
-0.267357
-0.272077
-0.276794
-0.281583
-0.286527
-0.29174
-0.297314
-0.303076
-0.309533
-0.321075
-0.331789
-0.224705
-0.230728
-0.236509
-0.242087
-0.247504
-0.252806
-0.258047
-0.263284
-0.26858
-0.27401
-0.279674
-0.28565
-0.291787
-0.298591
-0.309901
-0.319981
-0.208202
-0.214489
-0.220589
-0.226532
-0.232354
-0.238094
-0.243798
-0.249513
-0.255292
-0.261196
-0.267306
-0.273674
-0.280156
-0.287196
-0.298046
-0.307448
-0.19219
-0.198614
-0.204894
-0.211056
-0.217128
-0.223143
-0.229136
-0.235147
-0.241218
-0.247397
-0.253749
-0.26031
-0.266955
-0.274079
-0.284434
-0.293415
-0.176655
-0.18309
-0.189415
-0.195651
-0.201823
-0.207956
-0.214081
-0.220228
-0.226434
-0.23274
-0.239197
-0.245834
-0.252549
-0.25969
-0.269545
-0.278171
-0.161678
-0.168027
-0.174292
-0.180492
-0.186646
-0.192776
-0.198906
-0.205064
-0.211279
-0.217585
-0.224025
-0.230621
-0.237294
-0.244345
-0.253636
-0.26186
-0.147316
-0.153504
-0.159628
-0.165703
-0.171745
-0.177772
-0.183803
-0.189862
-0.195973
-0.202164
-0.208472
-0.214914
-0.221432
-0.228281
-0.236942
-0.244697
-0.133596
-0.139568
-0.14549
-0.151373
-0.15723
-0.163075
-0.168926
-0.174801
-0.180719
-0.186705
-0.192787
-0.198982
-0.205248
-0.211799
-0.219774
-0.226989
-0.120534
-0.126251
-0.131927
-0.13757
-0.143191
-0.1488
-0.154412
-0.160041
-0.165703
-0.171416
-0.177206
-0.183084
-0.189024
-0.195199
-0.202454
-0.209082
-0.108134
-0.113572
-0.118974
-0.124347
-0.129697
-0.135035
-0.14037
-0.145713
-0.151076
-0.156476
-0.161929
-0.167447
-0.173012
-0.178761
-0.185296
-0.191319
-0.0963979
-0.101543
-0.106655
-0.111739
-0.116801
-0.121846
-0.126882
-0.131917
-0.136961
-0.142025
-0.147122
-0.152259
-0.157428
-0.162731
-0.168575
-0.174012
-0.0853197
-0.0901673
-0.0949837
-0.0997722
-0.104537
-0.109281
-0.114011
-0.118732
-0.12345
-0.128174
-0.132912
-0.137669
-0.142443
-0.147304
-0.152514
-0.157408
-0.074892
-0.0794444
-0.0839666
-0.0884606
-0.0929289
-0.0973744
-0.1018
-0.10621
-0.110608
-0.114999
-0.11939
-0.123783
-0.128177
-0.132622
-0.137268
-0.141679
-0.0651048
-0.0693694
-0.0736044
-0.0778111
-0.0819907
-0.0861451
-0.0902759
-0.0943855
-0.0984762
-0.102551
-0.106614
-0.110666
-0.114708
-0.11877
-0.122931
-0.126925
-0.0559455
-0.0599335
-0.0638925
-0.0678231
-0.0717259
-0.0756017
-0.0794513
-0.083276
-0.087077
-0.0908558
-0.0946142
-0.0983533
-0.102074
-0.105793
-0.109541
-0.11318
-0.0473991
-0.0511243
-0.0548213
-0.0584899
-0.0621304
-0.065743
-0.0693279
-0.0728855
-0.0764162
-0.0799208
-0.0834
-0.0868542
-0.0902847
-0.093698
-0.0970998
-0.100435
-0.0394489
-0.0429268
-0.0463772
-0.0497998
-0.0531942
-0.0565603
-0.059898
-0.0632072
-0.066488
-0.0697403
-0.0729643
-0.0761603
-0.0793292
-0.0824718
-0.0855797
-0.0886536
-0.0320761
-0.0353232
-0.0385436
-0.0417366
-0.0449019
-0.048039
-0.0511475
-0.0542271
-0.0572776
-0.0602986
-0.06329
-0.0662519
-0.0691851
-0.0720868
-0.0749426
-0.0777875
-0.0252614
-0.0282944
-0.0313014
-0.0342818
-0.037235
-0.0401604
-0.0430575
-0.0459258
-0.048765
-0.0515744
-0.0543539
-0.0571034
-0.0598236
-0.0625096
-0.0651459
-0.0677867
-0.0189845
-0.02182
-0.0246304
-0.0274149
-0.0301729
-0.0329037
-0.0356067
-0.0382813
-0.040927
-0.0435433
-0.0461298
-0.0486865
-0.0512137
-0.0537059
-0.0561483
-0.0586047
-0.0132258
-0.0158802
-0.0185103
-0.0211153
-0.0236945
-0.0262472
-0.0287727
-0.0312704
-0.0337397
-0.0361802
-0.0385913
-0.040973
-0.0433255
-0.0456429
-0.0479125
-0.050201
-0.00796621
-0.0104555
-0.0129212
-0.0153627
-0.017779
-0.0201695
-0.0225336
-0.0248705
-0.0271797
-0.0294607
-0.0317129
-0.0339363
-0.0361309
-0.038291
-0.0404059
-0.0425413
-0.00318843
-0.00552797
-0.00784478
-0.010138
-0.012407
-0.0146508
-0.0168689
-0.0190605
-0.0212252
-0.0233623
-0.0254713
-0.0275523
-0.0296048
-0.0316238
-0.0336006
-0.0355967
0.00112281
-0.00108197
-0.00326477
-0.00542476
-0.00756115
-0.00967322
-0.0117603
-0.0138217
-0.0158568
-0.0178651
-0.0198461
-0.0217997
-0.0237255
-0.0256188
-0.0274731
-0.0293434
0.00498025
0.0028957
0.00083242
-0.00120879
-0.00322716
-0.00522196
-0.00719251
-0.00913818
-0.0110584
-0.0129525
-0.0148202
-0.0166612
-0.018475
-0.0202577
-0.0220042
-0.0237623
0.00839299
0.00641461
0.00445677
0.00252026
0.000605833
-0.00128581
-0.00315401
-0.00499813
-0.00681759
-0.00861187
-0.0103805
-0.0121232
-0.0138396
-0.0155262
-0.0171796
-0.0188388
0.0113665
0.00948044
0.00761415
0.00576844
0.00394403
0.0021416
0.000361805
-0.00139477
-0.00312754
-0.004836
-0.00651969
-0.00817834
-0.00981146
-0.0114164
-0.0129907
-0.0145647
0.0120941
0.0103058
0.00853739
0.00678942
0.00506258
0.00335748
0.00167471
1.4798e-05
-0.00162175
-0.0032345
-0.00482313
-0.00638718
-0.00792466
-0.00943403
-0.0109371
0.0142483
0.012524
0.0108188
0.00913323
0.00746793
0.00582349
0.00420046
0.00259935
0.00102065
-0.000535217
-0.00206791
-0.003577
-0.00506108
-0.00651928
-0.00796555
0.0159357
0.0142624
0.0126071
0.0109705
0.00935313
0.00775558
0.00617834
0.0046219
0.0030867
0.00157316
8.16424e-05
-0.00138744
-0.0028332
-0.00425519
-0.00566099
0.0171147
0.0154761
0.013855
0.0122517
0.0106668
0.00910096
0.00755451
0.00602795
0.0045217
0.00303615
0.00157165
0.000128578
-0.00129257
-0.00269166
-0.00407148
0.0178008
0.016185
0.0145851
0.0130016
0.0114349
0.00988561
0.008354
0.00684056
0.00534569
0.00386978
0.00241321
0.000976379
-0.000440326
-0.00183684
-0.00321377
0.019432
0.0178008
0.016185
0.0145851
0.0130016
0.011435
0.00988564
0.00835403
0.00684059
0.00534572
0.00386981
0.00241324
0.000976408
-0.000440298
-0.00183682
-0.00321374
0.01877
0.0171147
0.0154762
0.013855
0.0122517
0.0106669
0.00910099
0.00755454
0.00602798
0.00452173
0.00303618
0.00157168
0.000128607
-0.00129255
-0.00269163
-0.00407145
0.0176266
0.0159358
0.0142624
0.0126071
0.0109705
0.00935317
0.00775562
0.00617838
0.00462193
0.00308673
0.00157319
8.16719e-05
-0.00138741
-0.00283317
-0.00425517
-0.00566096
0.0159909
0.0142483
0.0125241
0.0108188
0.00913326
0.00746796
0.00582352
0.00420049
0.00259938
0.00102068
-0.000535187
-0.00206788
-0.00357697
-0.00506106
-0.00651925
-0.00796552
0.0139014
0.0120941
0.0103059
0.00853742
0.00678945
0.00506261
0.00335751
0.00167474
1.48286e-05
-0.00162172
-0.00323447
-0.0048231
-0.00638716
-0.00792464
-0.009434
-0.010937
0.0113666
0.00948047
0.00761418
0.00576847
0.00394406
0.00214164
0.000361836
-0.00139473
-0.00312751
-0.00483597
-0.00651966
-0.00817831
-0.00981143
-0.0114164
-0.0129907
-0.0145647
0.00839302
0.00641464
0.00445681
0.0025203
0.000605865
-0.00128578
-0.00315397
-0.0049981
-0.00681756
-0.00861184
-0.0103805
-0.0121232
-0.0138395
-0.0155262
-0.0171795
-0.0188387
0.00498028
0.00289573
0.000832451
-0.00120876
-0.00322713
-0.00522193
-0.00719248
-0.00913815
-0.0110583
-0.0129525
-0.0148202
-0.0166611
-0.018475
-0.0202576
-0.0220042
-0.0237622
0.00112285
-0.00108194
-0.00326474
-0.00542473
-0.00756112
-0.00967319
-0.0117602
-0.0138216
-0.0158568
-0.0178651
-0.0198461
-0.0217997
-0.0237255
-0.0256188
-0.027473
-0.0293434
-0.00318839
-0.00552794
-0.00784475
-0.010138
-0.0124069
-0.0146508
-0.0168688
-0.0190605
-0.0212252
-0.0233623
-0.0254713
-0.0275522
-0.0296048
-0.0316237
-0.0336006
-0.0355967
-0.00796618
-0.0104554
-0.0129212
-0.0153626
-0.017779
-0.0201695
-0.0225336
-0.0248705
-0.0271797
-0.0294606
-0.0317128
-0.0339363
-0.0361309
-0.0382909
-0.0404059
-0.0425413
-0.0132257
-0.0158801
-0.0185103
-0.0211153
-0.0236945
-0.0262472
-0.0287726
-0.0312703
-0.0337397
-0.0361801
-0.0385912
-0.040973
-0.0433255
-0.0456429
-0.0479125
-0.050201
-0.0189845
-0.02182
-0.0246304
-0.0274149
-0.0301729
-0.0329037
-0.0356066
-0.0382812
-0.040927
-0.0435433
-0.0461298
-0.0486865
-0.0512137
-0.0537059
-0.0561483
-0.0586047
-0.0252613
-0.0282943
-0.0313013
-0.0342817
-0.0372349
-0.0401604
-0.0430575
-0.0459258
-0.0487649
-0.0515744
-0.0543538
-0.0571034
-0.0598235
-0.0625096
-0.0651459
-0.0677867
-0.0320761
-0.0353232
-0.0385435
-0.0417366
-0.0449018
-0.0480389
-0.0511475
-0.0542271
-0.0572776
-0.0602986
-0.06329
-0.0662519
-0.0691851
-0.0720868
-0.0749426
-0.0777875
-0.0394488
-0.0429268
-0.0463772
-0.0497997
-0.0531942
-0.0565603
-0.059898
-0.0632072
-0.066488
-0.0697403
-0.0729643
-0.0761603
-0.0793292
-0.0824718
-0.0855797
-0.0886536
-0.0473991
-0.0511243
-0.0548212
-0.0584899
-0.0621304
-0.065743
-0.0693278
-0.0728854
-0.0764162
-0.0799208
-0.0833999
-0.0868542
-0.0902846
-0.093698
-0.0970997
-0.100435
-0.0559455
-0.0599334
-0.0638924
-0.067823
-0.0717259
-0.0756016
-0.0794513
-0.083276
-0.0870769
-0.0908557
-0.0946142
-0.0983533
-0.102074
-0.105793
-0.109541
-0.11318
-0.0651048
-0.0693694
-0.0736044
-0.077811
-0.0819907
-0.0861451
-0.0902759
-0.0943855
-0.0984762
-0.102551
-0.106614
-0.110666
-0.114708
-0.11877
-0.122931
-0.126925
-0.074892
-0.0794444
-0.0839665
-0.0884606
-0.0929289
-0.0973744
-0.1018
-0.10621
-0.110608
-0.114999
-0.11939
-0.123783
-0.128177
-0.132622
-0.137268
-0.141679
-0.0853196
-0.0901673
-0.0949837
-0.0997721
-0.104536
-0.109281
-0.114011
-0.118732
-0.12345
-0.128174
-0.132912
-0.137669
-0.142443
-0.147304
-0.152514
-0.157408
-0.0963979
-0.101543
-0.106655
-0.111739
-0.1168
-0.121846
-0.126882
-0.131917
-0.136961
-0.142025
-0.147122
-0.152259
-0.157428
-0.162731
-0.168575
-0.174012
-0.108134
-0.113572
-0.118974
-0.124346
-0.129697
-0.135035
-0.14037
-0.145712
-0.151076
-0.156476
-0.161929
-0.167447
-0.173012
-0.178761
-0.185296
-0.191319
-0.120534
-0.126251
-0.131927
-0.13757
-0.14319
-0.1488
-0.154412
-0.160041
-0.165703
-0.171416
-0.177206
-0.183084
-0.189024
-0.195198
-0.202454
-0.209082
-0.133596
-0.139568
-0.14549
-0.151373
-0.15723
-0.163075
-0.168926
-0.174801
-0.180719
-0.186704
-0.192787
-0.198982
-0.205248
-0.211799
-0.219774
-0.226989
-0.147316
-0.153504
-0.159628
-0.165703
-0.171745
-0.177772
-0.183803
-0.189862
-0.195973
-0.202164
-0.208472
-0.214913
-0.221432
-0.228281
-0.236942
-0.244697
-0.161678
-0.168026
-0.174292
-0.180492
-0.186646
-0.192776
-0.198906
-0.205064
-0.211279
-0.217584
-0.224025
-0.230621
-0.237294
-0.244345
-0.253636
-0.26186
-0.176655
-0.183089
-0.189415
-0.195651
-0.201823
-0.207956
-0.214081
-0.220228
-0.226434
-0.23274
-0.239197
-0.245834
-0.252549
-0.25969
-0.269545
-0.278171
-0.19219
-0.198614
-0.204894
-0.211056
-0.217128
-0.223143
-0.229136
-0.235147
-0.241218
-0.247397
-0.253749
-0.26031
-0.266954
-0.274079
-0.284434
-0.293415
-0.208202
-0.214489
-0.220589
-0.226531
-0.232353
-0.238094
-0.243798
-0.249513
-0.255292
-0.261196
-0.267306
-0.273674
-0.280156
-0.287196
-0.298046
-0.307448
-0.224705
-0.230728
-0.236509
-0.242087
-0.247504
-0.252806
-0.258047
-0.263284
-0.26858
-0.27401
-0.279674
-0.28565
-0.291787
-0.298591
-0.309901
-0.319981
-0.241553
-0.247191
-0.25254
-0.257648
-0.262569
-0.267357
-0.272077
-0.276794
-0.281583
-0.286527
-0.29174
-0.297314
-0.303076
-0.309533
-0.321075
-0.331789
-0.257369
-0.262244
-0.266779
-0.271042
-0.275105
-0.279049
-0.282956
-0.286919
-0.291034
-0.295413
-0.300204
-0.305555
-0.311345
-0.318117
-0.330802
-0.343581
-0.273392
-0.277161
-0.280453
-0.283344
-0.285915
-0.288251
-0.29044
-0.292573
-0.294739
-0.29703
-0.299564
-0.302478
-0.30575
-0.309962
-0.320767
-0.338518
-0.00554857
-0.00879404
-0.0120263
-0.0152296
-0.0183853
-0.0214719
-0.0244657
-0.0273421
-0.00644515
-0.00970872
-0.0129453
-0.0161535
-0.0193137
-0.0224009
-0.0253902
-0.0282569
-0.00813185
-0.0114376
-0.0146854
-0.0179052
-0.0210755
-0.0241647
-0.0271455
-0.0299932
-0.0105742
-0.0139354
-0.0171957
-0.0204289
-0.0236107
-0.0266993
-0.0296645
-0.0324817
-0.013727
-0.0171572
-0.0204301
-0.0236775
-0.0268702
-0.0299538
-0.032894
-0.0356669
-0.017574
-0.0210822
-0.0243643
-0.0276229
-0.0308225
-0.0338927
-0.0367949
-0.0395065
-0.0221048
-0.0256968
-0.0289816
-0.0322453
-0.0354439
-0.0384885
-0.041336
-0.0439653
-0.0273198
-0.0309977
-0.0342745
-0.037533
-0.0407183
-0.0437205
-0.0464919
-0.0490136
-0.033226
-0.0369874
-0.0402407
-0.0434791
-0.0466339
-0.0495717
-0.0522405
-0.0546247
-0.039836
-0.0436731
-0.0468818
-0.0500796
-0.0531813
-0.0560268
-0.0585612
-0.0607728
-0.0471664
-0.0510651
-0.0542015
-0.0573321
-0.0603512
-0.0630706
-0.0654327
-0.0674315
-0.0552366
-0.0591745
-0.0622034
-0.065233
-0.0681332
-0.0706856
-0.0728314
-0.0745719
-0.0640665
-0.0680113
-0.0708891
-0.073776
-0.0765131
-0.0788502
-0.0807298
-0.0821614
-0.0736738
-0.0775805
-0.0802552
-0.0829493
-0.0854704
-0.0875367
-0.0890942
-0.0901618
-0.0840686
-0.0878774
-0.0902899
-0.0927327
-0.094976
-0.0967086
-0.0978828
-0.0985275
-0.0952472
-0.0988817
-0.100969
-0.103094
-0.104988
-0.106318
-0.107044
-0.107204
-0.10681
-0.107181
-0.110549
-0.112249
-0.113983
-0.11545
-0.116302
-0.116513
-0.116128
-0.11516
-0.119806
-0.122803
-0.124064
-0.125332
-0.126285
-0.126584
-0.126213
-0.125221
-0.123625
-0.133009
-0.135527
-0.136323
-0.137047
-0.137396
-0.137067
-0.136052
-0.134398
-0.132122
-0.146617
-0.148565
-0.148901
-0.149008
-0.148665
-0.14764
-0.145926
-0.14356
-0.140562
-0.160393
-0.161716
-0.161648
-0.161073
-0.159955
-0.158178
-0.155722
-0.152604
-0.148849
-0.174043
-0.174756
-0.174392
-0.173078
-0.171117
-0.16855
-0.165322
-0.161424
-0.15689
-0.187233
-0.187451
-0.186951
-0.184851
-0.182
-0.178627
-0.17461
-0.169917
-0.164595
-0.199619
-0.199588
-0.199144
-0.196223
-0.192462
-0.188288
-0.183482
-0.177993
-0.171887
-0.210888
-0.210996
-0.210814
-0.207042
-0.202382
-0.19743
-0.191846
-0.185574
-0.178703
-0.220793
-0.221572
-0.221832
-0.217185
-0.211666
-0.205976
-0.199635
-0.192604
-0.184998
-0.229187
-0.231294
-0.232113
-0.226571
-0.220258
-0.213873
-0.206803
-0.199048
-0.190748
-0.236045
-0.240217
-0.241617
-0.235163
-0.228135
-0.221097
-0.21333
-0.204895
-0.195948
-0.24148
-0.248471
-0.250344
-0.242967
-0.235306
-0.227649
-0.219219
-0.210153
-0.200609
-0.245772
-0.256247
-0.258326
-0.250022
-0.241796
-0.233539
-0.224483
-0.214835
-0.204747
-0.249339
-0.263777
-0.265637
-0.256407
-0.247652
-0.2388
-0.229157
-0.21898
-0.2084
-0.252771
-0.271237
-0.272462
-0.262354
-0.253047
-0.243581
-0.233381
-0.222716
-0.211686
-0.257418
-0.278846
-0.279028
-0.268151
-0.258185
-0.248046
-0.237296
-0.226161
-0.214701
-0.269169
-0.287365
-0.284348
-0.272699
-0.262033
-0.251246
-0.240027
-0.22851
-0.216711
-0.3036
-0.294287
-0.284639
-0.272551
-0.26164
-0.250687
-0.239432
-0.227939