/*--------------------------------*- C++ -*----------------------------------*\
  =========                 |
  \\      /  F ield         | OpenFOAM: The Open Source CFD Toolbox
   \\    /   O peration     | Website:  https://openfoam.org
    \\  /    A nd           | Version:  7
     \\/     M anipulation  |
\*---------------------------------------------------------------------------*/
FoamFile
{
    version     2.0;
    format      ascii;
    class       volVectorField;
    location    "30";
    object      U;
}
// * * * * * * * * * * * * * * * * * * * * * * * * * * * * * * * * * * * * * //

dimensions      [0 1 -1 0 0 0 0];

internalField   nonuniform List<vector> 
3025
(
(-0.000370168 0.000361292 1.10478e-21)
(-0.00204218 0.000863658 4.48341e-22)
(-0.00522404 0.00119054 -4.99355e-21)
(-0.00915061 0.00137653 2.80725e-21)
(-0.0134367 0.00144778 -3.27013e-21)
(-0.017797 0.00142788 -5.56189e-21)
(-0.0219889 0.00133878 -1.75544e-21)
(-0.0258321 0.00120083 7.55205e-22)
(-0.0292051 0.00103314 6.02081e-21)
(-0.0320418 0.000853758 -5.3613e-21)
(-0.03433 0.000679598 -1.52544e-21)
(-0.03611 0.000525598 -6.87809e-21)
(-0.0374485 0.000402384 -6.1511e-21)
(-0.0384522 0.000323943 3.11756e-21)
(-0.000413624 0.00107833 -5.2873e-21)
(-0.00213089 0.0025768 -2.18844e-20)
(-0.00531159 0.00355106 3.44316e-22)
(-0.00920021 0.00410433 9.79018e-21)
(-0.0134161 0.00431475 8.64313e-21)
(-0.0176773 0.00425283 -1.19116e-20)
(-0.0217444 0.0039842 -1.31245e-20)
(-0.0254396 0.00356974 9.16203e-21)
(-0.0286436 0.00306669 5.80434e-21)
(-0.0312922 0.00252912 -4.30493e-21)
(-0.0333753 0.00200788 -8.23253e-22)
(-0.034937 0.00154792 2.40597e-20)
(-0.0360431 0.0011816 3.13784e-20)
(-0.0367901 0.000951792 1.08091e-20)
(-0.000499319 0.0017788 -1.66209e-21)
(-0.00230519 0.00424764 2.95863e-20)
(-0.00548221 0.00585024 -1.92945e-20)
(-0.00929393 0.00675675 1.06443e-20)
(-0.0133686 0.00709637 1.42097e-21)
(-0.0174312 0.00698581 -5.03023e-22)
(-0.0212484 0.00653371 -5.40307e-21)
(-0.0246475 0.00584098 -3.50538e-20)
(-0.0275135 0.00500258 -5.80233e-22)
(-0.029786 0.00410858 3.07321e-20)
(-0.0314591 0.00324395 -1.76921e-20)
(-0.0325846 0.00248412 5.74396e-20)
(-0.0332263 0.00188456 -4.65955e-20)
(-0.0334599 0.00151969 -6.075e-20)
(-0.000624842 0.00245201 1.05697e-20)
(-0.00255893 0.00584874 -1.1185e-20)
(-0.005727 0.00804823 2.43566e-20)
(-0.00942082 0.0092848 -3.10873e-20)
(-0.0132819 0.00973722 -4.04548e-20)
(-0.0170454 0.00956716 6.5777e-20)
(-0.020487 0.00892518 1.96078e-20)
(-0.0234416 0.0079513 2.60297e-21)
(-0.0258007 0.00677767 2.91575e-20)
(-0.0275094 0.00553013 -3.73295e-20)
(-0.0285682 0.00432816 -5.84016e-20)
(-0.0290398 0.00327841 3.15205e-20)
(-0.0289864 0.00246162 -1.60815e-20)
(-0.02845 0.00198818 4.74109e-20)
(-0.000786629 0.00308768 -5.10482e-20)
(-0.00288296 0.00735373 3.54918e-20)
(-0.00603271 0.0101068 -1.61467e-20)
(-0.00956454 0.0116414 5.88369e-20)
(-0.0131374 0.0121841 -4.49121e-20)
(-0.0164997 0.0119397 -8.2505e-20)
(-0.0194392 0.0110991 -1.94566e-20)
(-0.0218007 0.00984031 2.09178e-20)
(-0.023484 0.00833169 -7.28983e-20)
(-0.0244416 0.00673464 3.87922e-21)
(-0.0246821 0.00520365 1.05778e-20)
(-0.0242833 0.00387758 -8.14507e-20)
(-0.0233058 0.00286515 2.58001e-20)
(-0.0217416 0.00231909 4.75967e-20)
(-0.000980019 0.00367617 2.04421e-20)
(-0.00326524 0.00873778 -2.53655e-21)
(-0.00638182 0.0119897 7.11574e-22)
(-0.00970343 0.0137822 -8.92011e-21)
(-0.0129103 0.0143869 7.81663e-20)
(-0.0157673 0.0140496 8.03208e-20)
(-0.018077 0.0129998 1.73386e-20)
(-0.0196961 0.0114516 -2.10584e-20)
(-0.0205348 0.00960851 4.15389e-20)
(-0.0205545 0.00766715 5.31929e-20)
(-0.0197735 0.00581757 -2.18026e-20)
(-0.0182888 0.00423218 2.59208e-20)
(-0.0161616 0.00305226 -1.53922e-20)
(-0.0133089 0.00248336 -1.04308e-19)
(-0.00119933 0.00420861 1.88312e-20)
(-0.00369103 0.00997786 -4.50644e-20)
(-0.00675272 0.0136634 3.91781e-20)
(-0.00981062 0.0156661 -7.20555e-20)
(-0.0125699 0.0162991 1.21014e-20)
(-0.0148147 0.0158474 -1.25417e-19)
(-0.016365 0.0145762 8.91283e-20)
(-0.0170919 0.0127338 -3.44171e-21)
(-0.0169171 0.0105574 1.03371e-19)
(-0.0158124 0.00827802 -1.83108e-20)
(-0.0138074 0.00612217 1.39267e-19)
(-0.0110217 0.00429755 3.87378e-22)
(-0.00752104 0.00298738 6.71843e-21)
(-0.00313137 0.00248012 3.04152e-20)
(-0.00143793 0.00467697 -5.77477e-20)
(-0.00414297 0.011053 4.00417e-20)
(-0.00711984 0.0150975 -6.65244e-20)
(-0.00985412 0.0172556 -2.15272e-21)
(-0.0120794 0.0178792 -2.4273e-20)
(-0.0136017 0.0172889 1.50514e-19)
(-0.014261 0.0157832 -1.38072e-19)
(-0.0139445 0.0136419 7.78333e-20)
(-0.0125872 0.0111341 5.45221e-20)
(-0.0101722 0.00852433 -9.18521e-20)
(-0.00674155 0.00607592 -3.29369e-20)
(-0.0024384 0.00403417 -7.48407e-20)
(0.0026729 0.00263305 -5.2217e-20)
(0.00881093 0.00225967 9.8588e-20)
(-0.00168834 0.00507413 4.07448e-20)
(-0.00460129 0.0119447 -4.17199e-20)
(-0.00745381 0.016265 2.53047e-20)
(-0.00979702 0.0185178 -1.52626e-20)
(-0.011396 0.0190904 7.56216e-20)
(-0.0120814 0.0183358 -5.32369e-20)
(-0.0117152 0.0165822 1.38221e-20)
(-0.0102028 0.0141385 -2.01437e-20)
(-0.0074937 0.0113026 -6.00315e-20)
(-0.00358309 0.00837138 1.91498e-20)
(0.00147351 0.00564528 5.50892e-20)
(0.00750675 0.00340932 3.57906e-20)
(0.014457 0.00195502 1.47397e-19)
(0.0225946 0.00177763 1.09332e-20)
(-0.00194226 0.00539397 -2.86832e-20)
(-0.00504396 0.0126368 3.00299e-21)
(-0.00772166 0.0171424 -7.36714e-21)
(-0.00959761 0.0194247 -9.96665e-21)
(-0.0104713 0.0199021 -1.63406e-19)
(-0.0102002 0.0189565 5.16939e-20)
(-0.00867077 0.0169426 -5.25086e-20)
(-0.00580805 0.0141944 2.06899e-20)
(-0.00157742 0.0110361 4.14233e-20)
(0.00401336 0.00779444 -3.77029e-20)
(0.010895 0.00480691 -2.31297e-19)
(0.0188695 0.00240083 9.15263e-20)
(0.0278806 0.000936571 -1.8076e-19)
(0.0382711 0.00104197 4.65732e-20)
(-0.0021907 0.00563133 -2.59465e-20)
(-0.00544683 0.0131158 7.26806e-20)
(-0.00788701 0.0177105 -3.23679e-20)
(-0.00920957 0.0199533 8.70886e-20)
(-0.00925105 0.0202898 1.10189e-19)
(-0.00789806 0.019127 1.48244e-20)
(-0.00506352 0.0168421 -1.31551e-19)
(-0.000693795 0.0137905 -2.69033e-20)
(0.00522884 0.0103186 -5.80842e-20)
(0.0126836 0.00678041 1.32795e-19)
(0.0215877 0.00354927 1.2278e-19)
(0.0317129 0.000996809 -3.63241e-19)
(0.0430054 -0.000434882 2.758e-19)
(0.0558973 5.20417e-05 -1.69541e-19)
(-0.00242401 0.00578202 1.56791e-20)
(-0.0057838 0.0133707 2.16765e-20)
(-0.00791024 0.0179538 -1.22015e-19)
(-0.00858226 0.020086 1.11784e-19)
(-0.00767579 0.0202355 -1.59501e-19)
(-0.00510867 0.0188309 6.34155e-20)
(-0.000822254 0.0162677 7.5313e-20)
(0.00521412 0.0129179 2.01755e-20)
(0.0130002 0.00914613 -1.23814e-19)
(0.0225018 0.00532942 -2.4853e-19)
(0.0336235 0.0018747 1.49378e-19)
(0.0461064 -0.000801314 8.34802e-20)
(0.0598994 -0.00216115 -2.03948e-20)
(0.0755398 -0.00119229 1.19147e-20)
(-0.00263191 0.00584278 -1.31009e-21)
(-0.00602694 0.0133932 6.45689e-20)
(-0.00774878 0.0178614 1.92756e-19)
(-0.00766092 0.0198106 -8.86938e-20)
(-0.0056809 0.0197283 -1.24311e-19)
(-0.00175971 0.0180603 -1.30842e-20)
(0.00413102 0.0152158 1.17691e-19)
(0.0119972 0.0115792 -6.14779e-20)
(0.0218195 0.0075279 2.75111e-19)
(0.03355 0.0034566 1.79581e-19)
(0.0470817 -0.000198193 -2.88309e-20)
(0.0621256 -0.00297596 1.09531e-19)
(0.0786348 -0.00423005 -2.54584e-19)
(0.0972681 -0.0026798 7.88574e-20)
(-0.00280353 0.00581123 -3.64136e-20)
(-0.00614667 0.0131777 -1.22399e-19)
(-0.00735731 0.0174261 -8.77097e-20)
(-0.00638714 0.0191209 -1.86503e-20)
(-0.00319721 0.0187643 6.03024e-20)
(0.00222662 0.0168155 7.46736e-20)
(0.00988057 0.0136932 1.30895e-20)
(0.0197441 0.00978888 1.72614e-19)
(0.0317772 0.00548705 -1.61701e-19)
(0.0459176 0.00119351 2.54559e-19)
(0.0620479 -0.00263232 -1.33833e-19)
(0.0798513 -0.00549058 6.63625e-20)
(0.0992897 -0.00661283 1.70585e-19)
(0.121166 -0.00438596 1.46666e-19)
(-0.00292743 0.00568596 3.54949e-20)
(-0.00611185 0.0127212 -4.92916e-20)
(-0.00668817 0.0166452 2.35181e-19)
(-0.00469933 0.0180161 -4.76293e-21)
(-0.000151581 0.0173465 -9.74685e-20)
(0.00693282 0.0151052 -1.09085e-19)
(0.0165162 0.011716 2.75743e-20)
(0.0285497 0.00757291 -3.32551e-19)
(0.0429705 0.00306102 2.54182e-20)
(0.059701 -0.00141081 -3.282e-19)
(0.0786141 -0.00536983 9.72195e-20)
(0.0993686 -0.00828634 8.51743e-20)
(0.121943 -0.00926191 -5.03983e-20)
(0.147313 -0.00628008 -2.74668e-19)
(-0.00299178 0.00546636 6.48266e-20)
(-0.00589011 0.0120232 3.94663e-20)
(-0.00569172 0.0155203 -2.03516e-19)
(-0.00253336 0.0165012 2.16834e-20)
(0.00353222 0.0154848 1.1097e-19)
(0.0124451 0.0129462 1.23555e-19)
(0.0241321 0.00931009 9.75945e-20)
(0.0385139 0.0049686 2.51824e-19)
(0.0555026 0.000301187 -1.43593e-20)
(0.0750028 -0.00428948 -1.74787e-20)
(0.0968781 -0.00833025 -8.12595e-20)
(0.120766 -0.011278 -4.83598e-20)
(0.146672 -0.0121046 -1.05016e-19)
(0.175789 -0.00831353 9.28493e-20)
(-0.00298419 0.00515269 -9.70121e-20)
(-0.00544803 0.0110859 -4.32049e-20)
(-0.00431692 0.0140571 1.46099e-19)
(0.000176582 0.0145868 -4.69867e-20)
(0.00793236 0.013196 -2.50111e-20)
(0.0188519 0.0103628 -7.78964e-20)
(0.0328252 0.00650984 5.43186e-20)
(0.0497404 0.00202325 -1.72892e-19)
(0.0694814 -0.00272859 -1.07981e-19)
(0.0919314 -0.00735868 2.88297e-19)
(0.116943 -0.0114095 -7.94608e-20)
(0.144135 -0.0143498 -2.01962e-19)
(0.173556 -0.0150361 3.05111e-20)
(0.206668 -0.010417 8.74048e-20)
(-0.00289194 0.00474617 -9.52773e-20)
(-0.00475147 0.00991439 1.23115e-19)
(-0.00251198 0.0122658 1.80406e-19)
(0.00349697 0.0122888 -1.70133e-19)
(0.0131275 0.010503 4.92562e-20)
(0.0262422 0.00738639 -1.67482e-19)
(0.0426933 0.0033569 -1.24302e-19)
(0.0623342 -0.00120787 -7.90787e-20)
(0.0850172 -0.00595461 1.1276e-19)
(0.110599 -0.0105204 3.81688e-21)
(0.138916 -0.0144811 -9.31694e-20)
(0.16957 -0.0173519 1.28504e-19)
(0.202668 -0.0179098 7.45322e-20)
(0.240019 -0.0124921 1.14495e-19)
(-0.00270206 0.00424904 3.00037e-20)
(-0.00376603 0.00851663 1.22642e-19)
(-0.000225173 0.0101611 -2.80664e-19)
(0.00749367 0.00962922 1.48576e-19)
(0.0191952 0.00743526 -2.05532e-19)
(0.0347031 0.0040546 -4.75533e-20)
(0.0538316 -0.000101252 2.75434e-20)
(0.0763981 -0.00466425 9.22109e-20)
(0.10222 -0.00929768 -2.68319e-20)
(0.13112 -0.0136678 5.57707e-20)
(0.162911 -0.0174004 1.25746e-19)
(0.197174 -0.0200988 9.22809e-20)
(0.234084 -0.0205264 -1.27228e-19)
(0.2759 -0.0143982 1.64555e-19)
(-0.00240151 0.00366469 -1.70167e-20)
(-0.0024576 0.00690376 -8.58698e-20)
(0.00259418 0.00776207 2.38883e-19)
(0.0122305 0.00663528 3.38273e-20)
(0.0262094 0.00402793 1.00674e-19)
(0.044317 0.000410541 1.75643e-19)
(0.0663296 -0.00381299 -2.17168e-19)
(0.0920285 -0.00828349 -5.98713e-20)
(0.121193 -0.0126789 2.10658e-19)
(0.153607 -0.0166943 -1.88488e-19)
(0.189047 -0.0200148 3.56062e-21)
(0.227061 -0.022376 4.50679e-20)
(0.267897 -0.0226276 5.73813e-20)
(0.31437 -0.0159391 1.46983e-20)
(-0.0019774 0.00299777 -2.83759e-20)
(-0.000792928 0.00509036 1.60081e-19)
(0.00599468 0.00509313 -1.0023e-19)
(0.0177676 0.00334031 1.2094e-19)
(0.0342389 0.000322394 8.01257e-20)
(0.0551585 -0.00349749 1.40246e-19)
(0.0802667 -0.00772387 -3.97845e-20)
(0.10931 -0.0120046 2.41006e-20)
(0.142028 -0.0160268 -6.65199e-20)
(0.178163 -0.0195054 8.70335e-20)
(0.217441 -0.0221813 6.72733e-20)
(0.259361 -0.0239538 1.33243e-19)
(0.304222 -0.0238826 -1.48977e-19)
(0.355508 -0.016805 -1.48334e-19)
(-0.00141724 0.0022544 1.77249e-19)
(0.00125966 0.00309469 -2.43825e-19)
(0.0100218 0.0021838 9.17863e-20)
(0.0241599 -0.00021616 -2.47516e-19)
(0.0433444 -0.00363361 1.63864e-19)
(0.0672909 -0.00761589 -1.63328e-19)
(0.0957068 -0.0117773 3.41097e-20)
(0.128306 -0.0157707 -1.47728e-19)
(0.164795 -0.0192842 -2.9201e-20)
(0.204872 -0.0220349 1.47938e-19)
(0.248204 -0.023794 -6.83307e-20)
(0.294215 -0.0246088 -1.22692e-19)
(0.343178 -0.0238096 -6.21665e-20)
(0.399296 -0.0163065 -2.21617e-19)
(-0.000709195 0.00144221 -6.40594e-20)
(0.00372958 0.000938902 1.67089e-19)
(0.0147165 -0.000930797 -3.69373e-19)
(0.0314555 -0.00398788 -2.31063e-20)
(0.0535763 -0.00778529 -4.97435e-20)
(0.0807631 -0.0118849 -9.02459e-21)
(0.112693 -0.0159138 -1.64996e-19)
(0.149055 -0.0195296 1.00478e-19)
(0.189529 -0.0224146 9.85192e-20)
(0.233785 -0.0242663 -3.26646e-19)
(0.281443 -0.0248362 2.3609e-19)
(0.331848 -0.0241929 -2.89445e-19)
(0.385023 -0.0217276 2.27367e-19)
(0.445428 -0.0130513 6.37798e-20)
(0.000157591 0.00057048 -1.17156e-19)
(0.00664337 -0.00135072 2.18636e-20)
(0.020115 -0.00420959 1.81745e-19)
(0.0396945 -0.00792134 9.40921e-20)
(0.0649733 -0.0120698 -6.91004e-20)
(0.0956063 -0.016237 -2.27675e-19)
(0.131244 -0.0200683 2.56718e-19)
(0.171555 -0.0232308 -3.14138e-20)
(0.21621 -0.0254021 -2.07687e-19)
(0.264881 -0.0262517 9.00879e-20)
(0.317217 -0.0254632 -9.65459e-20)
(0.372687 -0.0228845 4.70426e-19)
(0.431041 -0.0174772 1.71721e-19)
(0.49527 -0.00657454 -3.52783e-20)
(0.00119281 -0.000349909 -5.1182e-20)
(0.0100241 -0.00374382 2.00483e-19)
(0.0262472 -0.00760546 5.10223e-20)
(0.0489077 -0.0119553 4.70208e-20)
(0.0775608 -0.0164151 1.0636e-19)
(0.111833 -0.0205942 2.44744e-19)
(0.151349 -0.0241646 -1.72165e-19)
(0.19576 -0.0268146 5.09285e-19)
(0.244738 -0.0282333 1.70374e-19)
(0.297991 -0.0280889 -9.19814e-20)
(0.355302 -0.0260224 -3.15573e-20)
(0.416706 -0.0215604 -1.86464e-19)
(0.483155 -0.0132372 -2.9235e-19)
(0.55931 -0.00215654 -3.5205e-19)
(0.0024048 -0.0013065 -1.0759e-19)
(0.0138912 -0.00620601 -9.33011e-20)
(0.0331368 -0.0110653 4.57313e-21)
(0.059117 -0.0160205 7.01938e-20)
(0.0913511 -0.0207389 6.072e-20)
(0.129436 -0.0248653 -8.62435e-21)
(0.172969 -0.0281093 -1.16053e-19)
(0.221579 -0.0301959 -2.33997e-19)
(0.274935 -0.0308541 1.04198e-19)
(0.332766 -0.0298076 -1.23026e-19)
(0.394953 -0.0267876 -1.26668e-19)
(0.461865 -0.0214377 6.24832e-20)
(0.534806 -0.0133342 5.00828e-20)
(0.615507 -0.00772135 5.08159e-19)
(0.00380041 -0.00228542 5.40449e-20)
(0.0182597 -0.00869923 2.07662e-19)
(0.0408009 -0.0145301 -2.48915e-19)
(0.0703346 -0.0200399 4.0342e-20)
(0.106344 -0.0249488 1.4072e-20)
(0.148394 -0.0289455 -5.87433e-20)
(0.196046 -0.0317877 -1.55641e-19)
(0.248899 -0.0332529 6.34318e-20)
(0.306592 -0.0331348 -1.14714e-19)
(0.368832 -0.0312551 1.90327e-19)
(0.435481 -0.0275097 -2.4166e-19)
(0.506874 -0.0218135 3.36919e-20)
(0.583925 -0.0145864 3.03141e-19)
(0.665461 -0.0123857 -6.95789e-19)
(0.00538503 -0.00327162 -2.54827e-19)
(0.0231408 -0.0111823 6.46923e-20)
(0.0492499 -0.0179361 -9.15575e-20)
(0.0825639 -0.0239298 -5.81445e-20)
(0.122529 -0.0289436 -8.34495e-20)
(0.168671 -0.0327173 7.8467e-20)
(0.220511 -0.0350667 1.18534e-19)
(0.277597 -0.0358332 -7.77757e-20)
(0.339512 -0.03489 -2.35912e-19)
(0.405893 -0.0321707 8.33797e-20)
(0.476479 -0.027737 -8.9689e-20)
(0.551363 -0.021725 6.73095e-20)
(0.630842 -0.0149451 6.15587e-20)
(0.712056 -0.0139953 4.546e-19)
(0.00716256 -0.00424915 1.77095e-19)
(0.0285414 -0.0136113 -2.19537e-19)
(0.0584878 -0.0212156 2.0723e-19)
(0.0957995 -0.0276012 -1.60391e-20)
(0.139883 -0.032615 1.09546e-19)
(0.190222 -0.0360551 -2.53202e-19)
(0.246283 -0.0378021 9.06814e-21)
(0.307551 -0.0377691 -4.07961e-20)
(0.373528 -0.0359149 1.1392e-19)
(0.443736 -0.0322819 -5.90441e-20)
(0.517741 -0.0270697 3.68884e-19)
(0.595326 -0.0205618 -2.54096e-19)
(0.676229 -0.0137118 3.3772e-19)
(0.75684 -0.0127864 -3.41075e-19)
(0.0091355 -0.00520135 -9.99e-20)
(0.0344644 -0.0159408 3.41719e-19)
(0.0685121 -0.0242979 9.98896e-21)
(0.110028 -0.0309616 -1.4494e-19)
(0.158377 -0.0358512 1.02886e-19)
(0.212992 -0.0388289 1.46289e-19)
(0.273279 -0.0398459 -5.6314e-19)
(0.338643 -0.0388917 3.31655e-19)
(0.408486 -0.0360108 -6.22375e-20)
(0.482193 -0.0313455 1.72029e-19)
(0.559137 -0.0252035 -3.18883e-19)
(0.638796 -0.0179598 -1.10711e-19)
(0.720476 -0.010596 -2.0302e-19)
(0.80031 -0.00894423 -2.0892e-19)
(0.0113049 -0.00611115 1.85412e-19)
(0.0409085 -0.018124 -3.56406e-21)
(0.0793135 -0.0271108 -1.42279e-19)
(0.125226 -0.0339168 3.74957e-20)
(0.177967 -0.0385392 1.0337e-19)
(0.236914 -0.0409093 2.11323e-19)
(0.301403 -0.0410536 2.32669e-19)
(0.37075 -0.0390403 -3.80722e-20)
(0.444239 -0.0349988 -9.75699e-20)
(0.521113 -0.0291614 -2.6611e-19)
(0.600549 -0.0219203 2.36189e-19)
(0.681757 -0.0137081 -2.37261e-19)
(0.763723 -0.00548663 -4.63191e-20)
(0.84258 -0.00264564 5.29376e-19)
(0.0136706 -0.00696125 -4.58027e-20)
(0.0478679 -0.0201134 -1.34334e-19)
(0.0908758 -0.0295818 -1.97539e-20)
(0.141362 -0.0363732 -5.31452e-20)
(0.198602 -0.0405678 -1.13394e-19)
(0.261913 -0.042171 -2.33773e-19)
(0.330553 -0.0412886 2.8235e-19)
(0.40374 -0.0380698 -1.21296e-19)
(0.480638 -0.0327273 6.10101e-20)
(0.560341 -0.0255762 5.65557e-20)
(0.641845 -0.0170782 1.99812e-20)
(0.724135 -0.00770648 6.31758e-20)
(0.805963 0.0016069 4.03799e-20)
(0.883599 0.00589404 3.60327e-20)
(0.0553328 -0.0218618 -2.43387e-19)
(0.103176 -0.0316387 3.29327e-19)
(0.158395 -0.0382387 -8.87482e-20)
(0.220218 -0.04183 1.2045e-19)
(0.287899 -0.0424963 1.61438e-19)
(0.360611 -0.0404269 -2.11593e-19)
(0.437471 -0.0358542 2.06797e-19)
(0.517521 -0.0290745 9.28725e-20)
(0.599709 -0.0204811 1.59853e-19)
(0.68287 -0.0105973 -3.3907e-19)
(0.765802 6.72524e-05 3.24359e-19)
(0.847094 0.0106052 -1.72445e-19)
(0.923225 0.0164479 -5.63046e-19)
(0.116183 -0.0332114 -4.18118e-20)
(0.176275 -0.0394251 -7.55506e-20)
(0.242741 -0.0422245 1.38805e-20)
(0.31477 -0.041777 1.56882e-19)
(0.391448 -0.0383588 -1.05787e-19)
(0.471789 -0.0322892 1.14935e-19)
(0.554713 -0.0239485 -4.39394e-20)
(0.639032 -0.0138073 2.59862e-19)
(0.723441 -0.0024478 1.16174e-19)
(0.80659 0.00958229 -2.04013e-19)
(0.886959 0.0213899 4.20261e-21)
(0.961273 0.0287884 4.39821e-19)
(0.266083 -0.0416581 -1.58572e-19)
(0.34241 -0.0399164 -2.70236e-19)
(0.422921 -0.0349914 8.67158e-20)
(0.506525 -0.0272923 -6.82353e-20)
(0.592024 -0.0172861 -1.19677e-19)
(0.678108 -0.0055212 1.93406e-19)
(0.763357 0.00736089 -1.39059e-19)
(0.846307 0.0207707 3.09244e-20)
(0.925372 0.0338198 4.56174e-20)
(0.997548 0.0426907 -9.44144e-20)
(0.370693 -0.0368306 -2.1262e-20)
(0.454873 -0.0302485 1.09181e-19)
(0.541494 -0.0208033 -1.80343e-19)
(0.629251 -0.00905115 -7.87956e-20)
(0.716726 0.00437997 -1.26963e-19)
(0.802402 0.018788 -3.01175e-19)
(0.884743 0.0335379 -1.43193e-19)
(0.962137 0.0477397 8.85144e-20)
(1.03186 0.0579346 4.39676e-20)
(0.576503 -0.0127836 6.89909e-20)
(0.666181 0.000767604 1.31194e-19)
(0.754661 0.0158724 4.3776e-20)
(0.840357 0.0317673 1.00218e-19)
(0.921689 0.04777 1.43609e-19)
(0.99706 0.0629866 -6.4424e-20)
(1.06403 0.0743073 1.07075e-19)
(0.702596 0.0121582 2.60546e-20)
(0.791689 0.0289089 1.27692e-19)
(0.877001 0.0462119 1.10619e-19)
(0.956941 0.0633386 -1.87304e-19)
(1.02996 0.0793929 2.47443e-19)
(1.09391 0.091605 -8.95426e-20)
(0.91212 0.0620181 1.57502e-19)
(0.990306 0.080105 4.82193e-20)
(1.06068 0.0967904 6.14752e-20)
(1.12138 0.109635 7.44176e-20)
(1.08908 0.115012 -2.43673e-22)
(1.14635 0.128214 5.58664e-20)
(1.08908 -0.115012 -2.90066e-19)
(1.14635 -0.128214 -6.2087e-20)
(0.91212 -0.0620181 -1.911e-19)
(0.990306 -0.080105 9.96597e-20)
(1.06068 -0.0967904 1.19556e-19)
(1.12138 -0.109635 1.06343e-19)
(0.702596 -0.0121582 -6.6257e-20)
(0.791689 -0.0289089 -3.50735e-21)
(0.877001 -0.0462119 6.96212e-20)
(0.956941 -0.0633386 3.36023e-20)
(1.02996 -0.0793929 3.76198e-20)
(1.09391 -0.091605 -5.07142e-20)
(0.576503 0.0127836 -9.81474e-20)
(0.666181 -0.000767605 1.58646e-19)
(0.754661 -0.0158724 -5.10026e-20)
(0.840357 -0.0317673 1.48995e-19)
(0.921689 -0.04777 9.97354e-20)
(0.99706 -0.0629866 2.41281e-20)
(1.06403 -0.0743073 -1.08291e-20)
(0.370693 0.0368306 9.8272e-20)
(0.454873 0.0302485 -1.97205e-19)
(0.541494 0.0208033 9.7471e-21)
(0.629251 0.00905115 -8.6993e-20)
(0.716726 -0.00437997 -2.23492e-19)
(0.802402 -0.018788 -7.70022e-20)
(0.884743 -0.0335379 -1.34203e-19)
(0.962137 -0.0477397 2.31574e-20)
(1.03186 -0.0579346 -8.68807e-20)
(0.194939 0.0398484 2.33e-19)
(0.266083 0.0416581 -7.36879e-20)
(0.34241 0.0399164 -1.54489e-20)
(0.422921 0.0349914 -1.76377e-20)
(0.506525 0.0272923 -7.70548e-20)
(0.592024 0.0172861 -1.87982e-19)
(0.678108 0.0055212 5.09555e-20)
(0.763357 -0.00736089 1.6185e-19)
(0.846307 -0.0207707 1.91055e-20)
(0.925372 -0.0338198 -1.99819e-20)
(0.997548 -0.0426907 -1.69817e-19)
(0.116183 0.0332114 -1.28441e-19)
(0.176275 0.0394251 9.86911e-20)
(0.242741 0.0422245 -1.35056e-19)
(0.31477 0.041777 1.43713e-19)
(0.391448 0.0383588 4.10142e-20)
(0.471789 0.0322892 -4.10214e-21)
(0.554713 0.0239485 1.641e-19)
(0.639032 0.0138073 -7.91247e-20)
(0.723441 0.0024478 2.13513e-19)
(0.80659 -0.00958229 -9.95629e-20)
(0.886959 -0.0213899 5.90023e-20)
(0.961273 -0.0287884 4.03739e-19)
(0.0553328 0.0218618 3.14102e-20)
(0.103176 0.0316387 3.75198e-19)
(0.158395 0.0382387 -1.23709e-19)
(0.220218 0.04183 2.91981e-19)
(0.287899 0.0424963 -7.77327e-20)
(0.360611 0.0404269 -1.18846e-19)
(0.437471 0.0358542 2.48207e-19)
(0.517521 0.0290745 1.44389e-19)
(0.599709 0.0204811 -1.00483e-19)
(0.68287 0.0105973 -1.2127e-19)
(0.765802 -6.72533e-05 1.57747e-19)
(0.847094 -0.0106052 -2.38724e-19)
(0.923225 -0.0164479 -3.60261e-19)
(0.0136706 0.00696125 2.23842e-20)
(0.0478679 0.0201134 1.64031e-19)
(0.0908758 0.0295818 -9.83976e-20)
(0.141362 0.0363732 -3.11401e-20)
(0.198602 0.0405678 -1.40051e-19)
(0.261913 0.042171 -2.23364e-19)
(0.330553 0.0412886 2.35222e-19)
(0.40374 0.0380698 -2.03073e-19)
(0.480638 0.0327273 1.29396e-19)
(0.560341 0.0255762 1.28335e-20)
(0.641845 0.0170782 9.3295e-20)
(0.724135 0.00770648 -6.19018e-20)
(0.805963 -0.0016069 1.48996e-19)
(0.883599 -0.00589404 -9.71175e-20)
(0.0113049 0.00611115 -2.29823e-20)
(0.0409085 0.018124 1.52592e-19)
(0.0793135 0.0271108 -2.28157e-19)
(0.125226 0.0339168 3.01277e-19)
(0.177967 0.0385392 -1.44444e-19)
(0.236914 0.0409093 2.8197e-19)
(0.301403 0.0410536 1.49729e-19)
(0.37075 0.0390403 1.62634e-19)
(0.444239 0.0349988 -1.34027e-19)
(0.521113 0.0291614 -2.36972e-19)
(0.600549 0.0219203 4.95725e-22)
(0.681757 0.0137081 4.90636e-20)
(0.763723 0.00548663 -1.78099e-19)
(0.84258 0.00264564 5.39343e-19)
(0.0091355 0.00520135 -1.37018e-19)
(0.0344644 0.0159408 4.86793e-20)
(0.0685121 0.0242979 5.96822e-20)
(0.110028 0.0309616 -2.55885e-21)
(0.158377 0.0358512 -6.92863e-21)
(0.212992 0.0388289 1.28902e-19)
(0.273279 0.0398459 -2.51957e-19)
(0.338643 0.0388917 2.56994e-20)
(0.408486 0.0360108 2.99447e-20)
(0.482193 0.0313455 5.48911e-20)
(0.559137 0.0252035 -3.52232e-19)
(0.638796 0.0179598 9.08808e-20)
(0.720476 0.010596 -3.05649e-19)
(0.80031 0.00894423 -1.98871e-19)
(0.00716256 0.00424915 2.05783e-20)
(0.0285414 0.0136113 -9.84597e-20)
(0.0584878 0.0212156 -1.70231e-21)
(0.0957995 0.0276012 4.90606e-20)
(0.139883 0.032615 1.27308e-19)
(0.190222 0.0360551 -2.0483e-19)
(0.246283 0.0378021 1.75171e-19)
(0.307551 0.0377691 -2.00668e-19)
(0.373528 0.0359149 1.079e-20)
(0.443736 0.0322819 -1.67556e-20)
(0.517741 0.0270697 2.06412e-19)
(0.595326 0.0205618 4.62159e-20)
(0.676229 0.0137118 1.15077e-19)
(0.75684 0.0127864 -2.72312e-19)
(0.00538503 0.00327162 2.98907e-20)
(0.0231408 0.0111823 8.6592e-21)
(0.0492499 0.0179361 -1.62593e-19)
(0.0825639 0.0239298 -1.34954e-19)
(0.122529 0.0289436 -9.13038e-20)
(0.168671 0.0327173 1.48347e-19)
(0.220511 0.0350667 1.82095e-19)
(0.277597 0.0358332 -1.59491e-19)
(0.339512 0.03489 -1.69073e-19)
(0.405893 0.0321707 -9.45852e-20)
(0.476479 0.027737 1.33639e-19)
(0.551363 0.021725 -5.05097e-20)
(0.630842 0.0149451 7.84049e-20)
(0.712056 0.0139953 5.16304e-19)
(0.00380041 0.00228542 2.59865e-19)
(0.0182597 0.00869923 -1.74205e-20)
(0.0408009 0.0145301 -6.27158e-21)
(0.0703346 0.0200399 1.00093e-19)
(0.106344 0.0249488 -9.87067e-20)
(0.148394 0.0289455 -1.96183e-19)
(0.196046 0.0317877 -1.75548e-19)
(0.248899 0.0332529 2.88863e-19)
(0.306592 0.0331348 -8.80459e-20)
(0.368832 0.0312551 -4.73159e-20)
(0.435481 0.0275097 -3.08725e-20)
(0.506874 0.0218135 3.87892e-20)
(0.583925 0.0145864 6.46656e-20)
(0.665461 0.0123857 -4.15954e-19)
(0.0024048 0.0013065 6.68157e-20)
(0.0138912 0.00620601 -2.71317e-19)
(0.0331368 0.0110653 2.15342e-19)
(0.059117 0.0160205 -6.05262e-20)
(0.0913511 0.0207389 5.39773e-20)
(0.129436 0.0248653 8.43266e-20)
(0.172969 0.0281093 -1.03164e-19)
(0.221579 0.0301959 -2.3402e-19)
(0.274935 0.0308541 1.33858e-19)
(0.332766 0.0298076 9.91201e-21)
(0.394953 0.0267876 -1.43381e-19)
(0.461865 0.0214377 -7.36595e-20)
(0.534806 0.0133342 6.74903e-21)
(0.615507 0.00772135 5.81344e-19)
(0.00119281 0.000349909 -6.13361e-20)
(0.0100241 0.00374382 6.88331e-20)
(0.0262472 0.00760546 -1.17281e-20)
(0.0489077 0.0119553 6.66327e-20)
(0.0775608 0.0164151 6.78736e-20)
(0.111833 0.0205942 2.27575e-19)
(0.151349 0.0241646 1.19604e-20)
(0.19576 0.0268146 1.57906e-19)
(0.244738 0.0282333 2.13455e-19)
(0.297991 0.0280889 1.91754e-20)
(0.355302 0.0260224 1.02476e-19)
(0.416706 0.0215604 -1.07861e-19)
(0.483155 0.0132372 -5.92263e-19)
(0.55931 0.00215654 -2.20848e-19)
(0.000157591 -0.00057048 -1.24894e-19)
(0.00664337 0.00135072 7.55362e-20)
(0.020115 0.00420959 1.20163e-19)
(0.0396945 0.00792134 1.13343e-19)
(0.0649733 0.0120698 -1.07001e-19)
(0.0956063 0.016237 -2.44641e-19)
(0.131244 0.0200683 4.38289e-19)
(0.171555 0.0232308 -1.32652e-19)
(0.21621 0.0254021 -1.71436e-19)
(0.264881 0.0262517 -1.69436e-20)
(0.317217 0.0254632 3.53429e-20)
(0.372687 0.0228845 5.45539e-19)
(0.431041 0.0174772 4.51111e-20)
(0.49527 0.00657454 -2.0624e-19)
(-0.000709195 -0.00144222 1.42038e-20)
(0.00372958 -0.000938902 -8.9881e-20)
(0.0147165 0.000930797 -1.70165e-19)
(0.0314555 0.00398788 9.80301e-21)
(0.0535763 0.00778529 -5.96183e-20)
(0.0807631 0.0118849 -6.22758e-20)
(0.112693 0.0159138 -1.5251e-19)
(0.149055 0.0195296 -1.41806e-19)
(0.189529 0.0224146 1.33199e-19)
(0.233785 0.0242663 1.48159e-20)
(0.281443 0.0248362 2.77893e-20)
(0.331848 0.0241929 -4.12439e-19)
(0.385023 0.0217276 3.50952e-19)
(0.445428 0.0130513 1.29394e-19)
(-0.00141724 -0.0022544 1.15775e-19)
(0.00125966 -0.00309469 -1.88637e-19)
(0.0100218 -0.0021838 1.46612e-19)
(0.0241599 0.000216159 -1.92037e-19)
(0.0433444 0.00363361 -1.25354e-20)
(0.0672909 0.00761589 -2.21067e-19)
(0.0957068 0.0117773 1.43348e-19)
(0.128306 0.0157707 -5.94608e-20)
(0.164795 0.0192842 -2.26471e-19)
(0.204872 0.0220349 1.36766e-19)
(0.248204 0.023794 -6.05884e-20)
(0.294215 0.0246088 5.90253e-20)
(0.343178 0.0238096 -2.70124e-19)
(0.399296 0.0163065 2.78106e-20)
(-0.0019774 -0.00299777 -1.0375e-19)
(-0.000792929 -0.00509037 2.00194e-19)
(0.00599468 -0.00509313 -8.04158e-20)
(0.0177676 -0.00334031 5.29863e-20)
(0.0342389 -0.000322395 7.29066e-20)
(0.0551585 0.00349749 2.03231e-19)
(0.0802667 0.00772387 -2.35009e-19)
(0.10931 0.0120046 1.92035e-19)
(0.142028 0.0160268 -5.22404e-21)
(0.178163 0.0195054 -7.59952e-20)
(0.217441 0.0221813 2.71197e-19)
(0.259361 0.0239538 -5.95604e-20)
(0.304222 0.0238826 -5.43852e-20)
(0.355508 0.016805 -8.92395e-20)
(-0.00240151 -0.00366469 -1.45367e-19)
(-0.0024576 -0.00690376 1.62771e-20)
(0.00259418 -0.00776207 1.40993e-19)
(0.0122305 -0.00663528 1.33065e-20)
(0.0262094 -0.00402793 -2.52156e-20)
(0.044317 -0.000410541 2.20908e-19)
(0.0663296 0.00381298 5.82311e-20)
(0.0920285 0.00828349 -2.01272e-19)
(0.121193 0.0126789 1.18431e-19)
(0.153607 0.0166943 -1.50588e-19)
(0.189047 0.0200148 -4.88768e-20)
(0.227061 0.022376 1.39401e-19)
(0.267897 0.0226276 2.05235e-20)
(0.31437 0.0159391 4.56789e-23)
(-0.00270206 -0.00424904 7.89034e-20)
(-0.00376604 -0.00851663 -3.17211e-20)
(-0.000225173 -0.0101611 -2.42574e-19)
(0.00749367 -0.00962922 4.47335e-20)
(0.0191952 -0.00743526 -1.56169e-19)
(0.0347031 -0.0040546 -1.28713e-19)
(0.0538316 0.000101252 1.1172e-19)
(0.0763981 0.00466425 6.35937e-20)
(0.10222 0.00929768 5.36514e-20)
(0.13112 0.0136678 1.52737e-19)
(0.162911 0.0174004 9.12226e-20)
(0.197174 0.0200988 9.95408e-21)
(0.234084 0.0205264 -1.36328e-19)
(0.2759 0.0143982 1.71894e-19)
(-0.00289194 -0.00474617 -6.69027e-20)
(-0.00475147 -0.00991439 8.10567e-20)
(-0.00251198 -0.0122658 1.1152e-19)
(0.00349697 -0.0122888 -1.03037e-19)
(0.0131275 -0.010503 -1.31186e-20)
(0.0262422 -0.00738639 1.99685e-20)
(0.0426933 -0.0033569 -1.96854e-19)
(0.0623342 0.00120787 -2.58336e-20)
(0.0850172 0.00595462 8.20514e-20)
(0.110599 0.0105204 2.92811e-20)
(0.138916 0.0144811 -1.14071e-19)
(0.16957 0.0173519 3.46082e-20)
(0.202668 0.0179098 1.19618e-19)
(0.240019 0.0124921 1.23321e-19)
(-0.00298419 -0.00515269 -4.15092e-20)
(-0.00544803 -0.0110859 2.03993e-20)
(-0.00431692 -0.0140571 1.20233e-20)
(0.000176582 -0.0145868 4.25029e-20)
(0.00793236 -0.013196 -4.59724e-20)
(0.0188519 -0.0103628 -6.94818e-20)
(0.0328252 -0.00650984 1.55956e-20)
(0.0497404 -0.00202325 -1.47087e-20)
(0.0694814 0.00272859 -5.57562e-20)
(0.0919314 0.00735868 4.90652e-20)
(0.116943 0.0114095 -1.70827e-20)
(0.144135 0.0143498 -1.41528e-19)
(0.173556 0.0150361 1.18675e-19)
(0.206668 0.010417 -3.66427e-20)
(-0.00299178 -0.00546636 1.37495e-19)
(-0.00589012 -0.0120232 -3.46976e-20)
(-0.00569172 -0.0155203 -3.16804e-19)
(-0.00253336 -0.0165012 1.37377e-19)
(0.00353222 -0.0154848 1.1038e-19)
(0.0124451 -0.0129462 6.48634e-20)
(0.0241321 -0.00931009 1.71114e-19)
(0.0385139 -0.0049686 2.85763e-19)
(0.0555026 -0.000301186 -1.81403e-19)
(0.0750028 0.00428948 -3.49868e-20)
(0.0968781 0.00833025 1.0218e-19)
(0.120766 0.011278 -2.29631e-20)
(0.146672 0.0121046 -1.65865e-19)
(0.175789 0.00831353 1.26467e-19)
(-0.00292744 -0.00568596 -2.80615e-21)
(-0.00611185 -0.0127212 -9.9806e-20)
(-0.00668817 -0.0166452 2.2724e-19)
(-0.00469933 -0.0180161 -1.54842e-20)
(-0.000151581 -0.0173465 -7.52687e-20)
(0.00693282 -0.0151052 -1.2009e-19)
(0.0165162 -0.011716 2.39138e-20)
(0.0285497 -0.0075729 -2.02328e-19)
(0.0429705 -0.00306102 -1.20388e-19)
(0.059701 0.00141081 -2.13654e-19)
(0.0786141 0.00536983 -7.85617e-21)
(0.0993686 0.00828635 1.73593e-19)
(0.121943 0.00926191 -3.53365e-21)
(0.147313 0.00628009 -4.49798e-19)
(-0.00280353 -0.00581123 -6.22684e-20)
(-0.00614667 -0.0131777 -6.65299e-20)
(-0.00735731 -0.0174261 -2.61793e-19)
(-0.00638714 -0.0191209 3.33133e-20)
(-0.00319721 -0.0187643 1.69067e-19)
(0.00222662 -0.0168155 1.40181e-19)
(0.00988057 -0.0136932 -6.50435e-20)
(0.0197441 -0.00978888 1.66337e-19)
(0.0317772 -0.00548704 -8.8499e-21)
(0.0459176 -0.0011935 -5.97376e-20)
(0.0620479 0.00263232 1.14759e-19)