/*--------------------------------*- C++ -*----------------------------------*\
  =========                 |
  \\      /  F ield         | OpenFOAM: The Open Source CFD Toolbox
   \\    /   O peration     | Website:  https://openfoam.org
    \\  /    A nd           | Version:  7
     \\/     M anipulation  |
\*---------------------------------------------------------------------------*/
FoamFile
{
    version     2.0;
    format      ascii;
    class       surfaceScalarField;
    location    "20";
    object      phi;
}
// * * * * * * * * * * * * * * * * * * * * * * * * * * * * * * * * * * * * * //

dimensions      [0 3 -1 0 0 0 0];

internalField   nonuniform List<scalar> 
42261
(
9.92674e-06
6.49615e-07
9.27713e-06
1.77364e-05
7.33316e-07
8.54381e-06
3.45229e-06
1.50174e-05
1.11396e-05
8.22699e-07
7.72111e-06
3.82212e-06
1.2018e-05
9.59307e-06
5.36869e-06
-1.27128e-05
9.17777e-07
6.80334e-06
4.21309e-06
8.72271e-06
1.04987e-05
-9.16912e-07
2.04097e-05
-2.26238e-05
-5.69685e-05
1.01852e-06
5.78481e-06
4.62491e-06
5.11633e-06
1.14482e-05
-7.74025e-06
2.21392e-05
-3.33147e-05
3.73657e-05
-7.2195e-05
-0.000124985
1.12488e-06
4.65993e-06
5.05711e-06
1.18411e-06
1.24402e-05
-1.51234e-05
2.3938e-05
-4.48125e-05
4.02271e-05
-8.84841e-05
6.19797e-05
-0.000146738
-0.000220132
1.23676e-06
3.42317e-06
5.50908e-06
-3.08821e-06
1.34728e-05
-2.30871e-05
2.58019e-05
-5.71416e-05
4.31776e-05
-0.00010586
6.62669e-05
-0.000169827
9.56904e-05
-0.000249556
0.000131979
-0.000345397
-0.000457436
1.35403e-06
2.06913e-06
5.98005e-06
-7.71422e-06
1.45437e-05
-3.16508e-05
2.77259e-05
-7.03238e-05
4.62079e-05
-0.000124342
7.06451e-05
-0.000194264
0.000101629
-0.00028054
0.00013964
-0.000383408
0.000184987
-0.000502783
-0.000638144
1.47652e-06
5.92611e-07
6.46907e-06
-1.27068e-05
1.56503e-05
-4.0832e-05
2.97042e-05
-8.43778e-05
4.93073e-05
-0.000143945
7.50963e-05
-0.000220054
0.000107626
-0.00031307
0.000147313
-0.000423095
0.000194378
-0.000549847
0.000248776
-0.000692542
-0.000849799
1.60403e-06
-1.01142e-06
6.97504e-06
-1.80778e-05
1.67894e-05
-5.06464e-05
3.17304e-05
-9.93188e-05
5.24638e-05
-0.000164678
7.96008e-05
-0.000247191
0.000113649
-0.000347118
0.000154955
-0.0004644
0.000203634
-0.000598527
0.000259516
-0.000748424
0.000322088
-0.000912371
0.000390473
-0.00108797
-0.00127223
1.73629e-06
-2.74771e-06
7.49667e-06
-2.38382e-05
1.79578e-05
-6.11075e-05
3.37973e-05
-0.000115158
5.56646e-05
-0.000186545
8.41374e-05
-0.000275663
0.000119668
-0.000382648
0.000162518
-0.00050725
0.000212694
-0.000648703
0.000269887
-0.000805617
0.000333429
-0.000975913
0.000402287
-0.00115683
0.000475094
-0.00134503
0.000550227
-0.00153678
-0.0017282
1.87303e-06
-4.62074e-06
8.0325e-06
-2.99976e-05
1.91514e-05
-7.22264e-05
3.5897e-05
-0.000131904
5.88956e-05
-0.000209544
8.86833e-05
-0.000305451
0.000125647
-0.000419612
0.000169955
-0.000551559
0.000221494
-0.000700243
0.000279811
-0.000863934
0.000344082
-0.00104018
0.000413124
-0.00122587
0.000485443
-0.00141735
0.000559336
-0.00161067
0.000633029
-0.00180189
-0.0019874
2.01388e-06
-6.63462e-06
8.58088e-06
-3.65646e-05
2.03661e-05
-8.40116e-05
3.8021e-05
-0.000149559
6.21418e-05
-0.000233665
9.32149e-05
-0.000336524
0.000131552
-0.000457949
0.000177219
-0.000597226
0.000229973
-0.000752997
0.000289214
-0.000923174
0.000353965
-0.00110494
0.000422901
-0.00129481
0.000494421
-0.00148887
0.000566768
-0.00168302
0.000638177
-0.0018733
0.000707031
-0.00205626
0.000771999
-0.00222922
-0.00239044
2.15847e-06
-8.79309e-06
9.14e-06
-4.35462e-05
2.15972e-05
-9.64688e-05
4.01599e-05
-0.000168121
6.53873e-05
-0.000258892
9.77071e-05
-0.000368844
0.000137346
-0.000497588
0.00018426
-0.00064414
0.000238071
-0.000806807
0.000298026
-0.00098313
0.000363003
-0.00116991
0.000431547
-0.00136335
0.000501971
-0.0015593
0.000572491
-0.00175354
0.00064138
-0.00194219
0.000707123
-0.002122
0.000768541
-0.00229064
0.000824866
-0.00244677
0.000875763
-0.00259011
-0.00272129
2.30636e-06
-1.10994e-05
9.70784e-06
-5.09476e-05
2.28397e-05
-0.000109601
4.2304e-05
-0.000187586
6.86154e-05
-0.000285204
0.000102134
-0.000402363
0.000142995
-0.000538448
0.000191032
-0.000692177
0.000245727
-0.000861503
0.000306181
-0.00104358
0.000371128
-0.00123486
0.000439002
-0.00143123
0.000508054
-0.00162835
0.000576496
-0.00182198
0.000642667
-0.00200836
0.000705175
-0.00218451
0.000763004
-0.00234847
0.000815571
-0.00249933
0.000862716
-0.00263726
0.000904654
-0.00276323
0.000941885
-0.00287889
-0.00298623
2.45706e-06
-1.35565e-05
1.02823e-05
-5.87728e-05
2.40882e-05
-0.000123407
4.4443e-05
-0.000207941
7.18088e-05
-0.000312569
0.00010647
-0.000437025
0.00014846
-0.000580437
0.000197486
-0.000741203
0.000252887
-0.000916904
0.000313618
-0.00110431
0.000378282
-0.00129952
0.000445221
-0.00149817
0.000512644
-0.00169577
0.00057879
-0.00188813
0.000642084
-0.00207165
0.000701273
-0.0022437
0.000755516
-0.00240271
0.000804404
-0.00254822
0.000847945
-0.0026808
0.000886484
-0.00280177
0.00092061
-0.00291301
0.000951053
-0.00301667
0.000978584
-0.0031149
-0.00320966
2.61004e-06
-1.61665e-05
1.08609e-05
-6.70237e-05
2.53372e-05
-0.000137883
4.6566e-05
-0.000229169
7.49497e-05
-0.000340953
0.000110689
-0.000472764
0.000153706
-0.000623454
0.000203577
-0.000791075
0.000259499
-0.000972825
0.000320283
-0.0011651
0.000384418
-0.00136366
0.000450171
-0.00156392
0.000515735
-0.00176134
0.000579397
-0.00195179
0.000639693
-0.00213195
0.00069552
-0.00229953
0.00074621
-0.0024534
0.000791528
-0.00259354
0.000831628
-0.0027209
0.000866967
-0.00283711
0.000898203
-0.00294425
0.000926091
-0.00304456
0.000951389
-0.0031402
0.000974796
-0.00323306
-0.00332473
0.000996875
2.76472e-06
-1.89313e-05
1.14413e-05
-7.57003e-05
2.65805e-05
-0.000153022
4.8662e-05
-0.000251251
7.80202e-05
-0.000370311
0.000114764
-0.000509507
0.000158697
-0.000667388
0.000209264
-0.000841641
0.000265515
-0.00102908
0.000326131
-0.00122572
0.000389499
-0.00142703
0.000453831
-0.00162825
0.000517332
-0.00182484
0.000578358
-0.00201281
0.00063557
-0.00218916
0.000688025
-0.00235198
0.000735227
-0.0025006
0.000777101
-0.00263542
0.000813933
-0.00275773
0.000846272
-0.00286945
0.000874823
-0.0029728
0.00090035
-0.00307009
0.000923589
-0.00316344
0.000945191
-0.00325467
-0.00334521
0.000965672
2.92048e-06
-2.18517e-05
1.20208e-05
-8.48006e-05
2.78121e-05
-0.000168813
5.07195e-05
-0.000274158
8.10019e-05
-0.000400594
0.000118668
-0.000547173
0.000163401
-0.000712121
0.000214505
-0.000892746
0.000270893
-0.00108546
0.000331123
-0.00128595
0.000393497
-0.0014894
0.000456196
-0.00169095
0.000517457
-0.0018861
0.000575726
-0.00207108
0.000629801
-0.00224323
0.000678906
-0.00240109
0.000722707
-0.0025444
0.000761279
-0.00267399
0.000795021
-0.00279147
0.000824554
-0.00289898
0.000850614
-0.00299886
0.000873958
-0.00309343
0.000895289
-0.00318477
0.00091521
-0.00327459
-0.00336418
0.000934185
3.07667e-06
-2.49284e-05
1.25968e-05
-9.43207e-05
2.90257e-05
-0.000185242
5.2727e-05
-0.00029786
8.38768e-05
-0.000431743
0.000122377
-0.000585674
0.000167785
-0.000757528
0.000219265
-0.000944226
0.000275596
-0.0011418
0.000335229
-0.00134558
0.000396396
-0.00155057
0.000457271
-0.00175183
0.000516142
-0.00194497
0.000571565
-0.00212651
0.000622483
-0.00229415
0.000668283
-0.00244689
0.000708791
-0.00258491
0.000744213
-0.00270941
0.000775043
-0.0028223
0.000801957
-0.00292589
0.000825704
-0.00302261
0.000847024
-0.00311475
0.000866581
-0.00320433
0.000884927
-0.00329293
-0.00338173
0.000902475
3.23258e-06
-2.8161e-05
1.31663e-05
-0.000104254
3.02146e-05
-0.000202291
5.46729e-05
-0.000322318
8.6627e-05
-0.000463698
0.000125867
-0.000624914
0.000171818
-0.000803479
0.000223509
-0.000995917
0.000279594
-0.00119788
0.000338426
-0.00140441
0.00039819
-0.00161033
0.000457073
-0.00181071
0.000513433
-0.00200133
0.000565948
-0.00217902
0.000613714
-0.00234192
0.000656279
-0.00248945
0.000693614
-0.00262224
0.000726043
-0.00274184
0.000754137
-0.0028504
0.000778608
-0.00295037
0.000800207
-0.00304421
0.000819646
-0.00313419
0.000837545
-0.00322223
0.000854404
-0.00330979
-0.00339792
0.000870588
3.38749e-06
-3.15485e-05
1.37265e-05
-0.000114593
3.13724e-05
-0.000219937
5.65456e-05
-0.000347491
8.92352e-05
-0.000496387
0.000129113
-0.000664792
0.000175473
-0.000849839
0.000227211
-0.00104766
0.000282862
-0.00125353
0.0003407
-0.00146225
0.000398883
-0.00166851
0.000455627
-0.00186746
0.000509382
-0.00205508
0.000558956
-0.0022286
0.0006036
-0.00238656
0.000643016
-0.00252887
0.000677309
-0.00265654
0.000706903
-0.00277143
0.000732431
-0.00287592
0.000754624
-0.00297256
0.000774223
-0.00306381
0.000791907
-0.00315187
0.000808247
-0.00323857
0.000823694
-0.00332524
-0.00341279
0.000838567
3.54066e-06
-3.50891e-05
1.42744e-05
-0.000125327
3.24926e-05
-0.000238155
5.83338e-05
-0.000373332
9.16846e-05
-0.000529738
0.000132095
-0.000705203
0.000178727
-0.00089647
0.000230346
-0.00109927
0.000285383
-0.00130857
0.000342047
-0.00151891
0.000398487
-0.00172495
0.000452971
-0.00192194
0.000504051
-0.00210616
0.000550675
-0.00227522
0.000592246
-0.00242813
0.000628613
-0.00256523
0.000660001
-0.00268792
0.000686918
-0.00279835
0.000710039
-0.00289904
0.000730107
-0.00299263
0.00074784
-0.00308154
0.000763878
-0.00316791
0.000778745
-0.00325343
0.000792843
-0.00333934
-0.00342639
0.000806447
3.6913e-06
-3.87804e-05
1.48071e-05
-0.000136443
3.35685e-05
-0.000256916
6.00265e-05
-0.00039979
9.39595e-05
-0.000563671
0.000134793
-0.000746036
0.000181556
-0.000943233
0.000232894
-0.00115061
0.000287143
-0.00136282
0.000342467
-0.00157424
0.000397023
-0.00177951
0.000449148
-0.00197407
0.000497507
-0.00215452
0.000541193
-0.00231891
0.000579758
-0.0024667
0.000613186
-0.00259866
0.000641808
-0.00271655
0.0006662
-0.00282274
0.000687067
-0.00291991
0.000705148
-0.00301071
0.000721134
-0.00309753
0.000735623
-0.0031824
0.000749089
-0.0032669
0.000761887
-0.00335214
-0.00343876
0.000774256
3.83865e-06
-4.26191e-05
1.53215e-05
-0.000147926
3.4594e-05
-0.000276189
6.16132e-05
-0.000426809
9.60449e-05
-0.000598103
0.000137188
-0.000787179
0.000183943
-0.000989988
0.000234841
-0.00120151
0.000288139
-0.00141612
0.00034197
-0.00162807
0.000394521
-0.00183206
0.000444209
-0.00202375
0.000489823
-0.00220013
0.000530601
-0.00235968
0.00056624
-0.00250234
0.000596845
-0.00262927
0.000622841
-0.00274254
0.000644854
-0.00284475
0.000663609
-0.00293867
0.000679829
-0.00302693
0.000694173
-0.00311187
0.000707194
-0.00319542
0.000719319
-0.00327902
0.000730861
-0.00336368
-0.00344992
0.000742021
3.98191e-06
-4.6601e-05
1.58148e-05
-0.000159759
3.55627e-05
-0.000295936
6.30837e-05
-0.00045433
9.79273e-05
-0.000632946
0.000139265
-0.000828516
0.000185872
-0.0010366
0.000236177
-0.00125182
0.000288371
-0.00146831
0.000340572
-0.00168027
0.000391014
-0.0018825
0.000438208
-0.00207095
0.000481073
-0.002243
0.00051899
-0.0023976
0.000551792
-0.00253514
0.000579696
-0.00265717
0.000603201
-0.00276605
0.000622976
-0.00286453
0.000639747
-0.00295544
0.000654219
-0.0030414
0.000667013
-0.00312467
0.000678637
-0.00320704
0.000689472
-0.00328986
0.000699791
-0.003374
-0.00345989
0.000709763
4.12031e-06
-5.07213e-05
1.62841e-05
-0.000171923
3.64688e-05
-0.000316121
6.44288e-05
-0.000482291
9.95944e-05
-0.000668112
0.00014101
-0.000869932
0.000187333
-0.00108292
0.000236897
-0.00130138
0.000287844
-0.00151926
0.000338295
-0.00173072
0.000386543
-0.00193075
0.000431205
-0.00211561
0.000471334
-0.00228313
0.00050645
-0.00243272
0.000536512
-0.0025652
0.000561836
-0.0026825
0.000582984
-0.0027872
0.00060065
-0.00288219
0.000615557
-0.00297034
0.000628382
-0.00305422
0.000639706
-0.00313599
0.000649991
-0.00321733
0.000659578
-0.00329945
0.000668701
-0.00338312
-0.0034687
0.000677503
4.25306e-06
-5.49744e-05
1.67267e-05
-0.000184396
3.73066e-05
-0.000336701
6.56398e-05
-0.000510624
0.000101035
-0.000703507
0.000142413
-0.00091131
0.000188318
-0.00112882
0.000237001
-0.00135006
0.00028657
-0.00156883
0.000335166
-0.00177932
0.000381154
-0.00197674
0.000423264
-0.00215772
0.000460683
-0.00232055
0.000493068
-0.0024651
0.000520492
-0.00259263
0.000543358
-0.00270536
0.000562276
-0.00280611
0.000577954
-0.00289787
0.000591104
-0.00298349
0.00060237
-0.00306549
0.000612293
-0.00314591
0.000621291
-0.00322633
0.000629664
-0.00330782
0.000637614
-0.00339107
-0.00347634
0.000645257
4.3794e-06
-5.93538e-05
1.71397e-05
-0.000197156
3.80709e-05
-0.000357632
6.67088e-05
-0.000539262
0.00010224
-0.000739039
0.000143465
-0.000952534
0.000188821
-0.00117418
0.000236493
-0.00139773
0.000284566
-0.0016169
0.000331217
-0.00182597
0.000374894
-0.00202041
0.000414448
-0.00219727
0.000449198
-0.0023553
0.000478929
-0.00249483
0.000503821
-0.00261752
0.000524346
-0.00272589
0.000541154
-0.00282292
0.000554956
-0.00291168
0.000566446
-0.00299498
0.000576232
-0.00307528
0.000584812
-0.00315449
0.000592565
-0.00323408
0.000599753
-0.00331501
0.000606546
-0.00339786
-0.00348284
0.000613042
4.4986e-06
-6.38524e-05
1.75208e-05
-0.000210179
3.87568e-05
-0.000378868
6.76289e-05
-0.000568134
0.000103202
-0.000774612
0.000144159
-0.000993491
0.000188843
-0.00121886
0.00023538
-0.00144427
0.000281852
-0.00166337
0.000326484
-0.0018706
0.000367816
-0.00206174
0.000404822
-0.00223428
0.000436954
-0.00238743
0.000464115
-0.00252199
0.000486579
-0.00263998
0.000504879
-0.00274419
0.000519689
-0.00283773
0.000531719
-0.00292371
0.000541634
-0.0030049
0.000550008
-0.00308365
0.000557297
-0.00316178
0.000563839
-0.00324062
0.000569864
-0.00332103
0.000575516
-0.00340351
-0.00348819
0.00058087
4.60994e-06
-6.84623e-05
1.78676e-05
-0.000223436
3.936e-05
-0.000400361
6.83942e-05
-0.000597168
0.000103915
-0.000810133
0.000144492
-0.00103407
0.000188384
-0.00126276
0.000233675
-0.00148956
0.000278453
-0.00170815
0.000321004
-0.00191315
0.000359971
-0.00210071
0.000394452
-0.00226876
0.000424025
-0.002417
0.000448703
-0.00254667
0.000468844
-0.00266012
0.000485029
-0.00276037
0.000497946
-0.00285065
0.000508296
-0.00293405
0.000516713
-0.00301332
0.000523734
-0.00309067
0.000529774
-0.00316782
0.000535136
-0.00324598
0.000540016
-0.00332591
0.000544537
-0.00340803
-0.00349241
0.000548756
4.71275e-06
-7.31751e-05
1.81778e-05
-0.000236901
3.98766e-05
-0.000422059
6.89995e-05
-0.000626291
0.000104373
-0.000845507
0.000144462
-0.00107416
0.000187451
-0.00130574
0.000231392
-0.0015335
0.000274396
-0.00175115
0.000314821
-0.00195357
0.000351415
-0.00213731
0.000383402
-0.00230075
0.000410481
-0.00244408
0.000432766
-0.00256896
0.000450687
-0.00267804
0.00046486
-0.00277454
0.000475982
-0.00286177
0.000484735
-0.00294281
0.000491723
-0.0030203
0.000497441
-0.00309639
0.000502269
-0.00317265
0.000506473
-0.00325019
0.000510225
-0.00332967
0.000513623
-0.00341143
-0.0034955
0.000516712
4.80704e-06
-7.79821e-05
1.84509e-05
-0.000250545
4.03051e-05
-0.000443914
6.94437e-05
-0.000655429
0.000104578
-0.000880641
0.000144076
-0.00111365
0.000186056
-0.00134772
0.000228555
-0.001576
0.000269717
-0.00179232
0.000307981
-0.00199184
0.000342208
-0.00217153
0.000371742
-0.00233028
0.000396397
-0.00246874
0.00041638
-0.00258894
0.000432179
-0.00269384
0.000444439
-0.0027868
0.000453855
-0.00287119
0.000461086
-0.00295004
0.000466703
-0.00302592
0.000471164
-0.00310085
0.00047481
-0.0031763
0.000477876
-0.00325325
0.00048051
-0.0033323
0.000482792
-0.00341371
-0.00349746
0.000484755
4.89103e-06
-8.28731e-05
1.86826e-05
-0.000264337
4.06389e-05
-0.00046587
6.97185e-05
-0.000684509
0.000104522
-0.000915445
0.000143327
-0.00115246
0.0001842
-0.0013886
0.000225173
-0.00161698
0.000264438
-0.00183158
0.000300519
-0.00202792
0.000332391
-0.0022034
0.000359519
-0.00235741
0.000381824
-0.00249104
0.000399595
-0.00260671
0.000413367
-0.00270761
0.000423806
-0.00279724
0.000431597
-0.00287898
0.000437374
-0.00295582
0.000441673
-0.00303022
0.000444913
-0.00310409
0.000447402
-0.00317879
0.000449347
-0.0032552
0.000450873
-0.00333383
0.000452045
-0.00341488
-0.0034983
0.000452884
4.9648e-06
-8.78379e-05
1.88725e-05
-0.000278245
4.08775e-05
-0.000487875
6.98244e-05
-0.000713456
0.000104208
-0.000949829
0.000142225
-0.00119048
0.000181901
-0.00142827
0.000221276
-0.00165635
0.000258597
-0.0018689
0.000292483
-0.00206181
0.000322024
-0.00223295
0.0003468
-0.00238219
0.000366831
-0.00251107
0.000382476
-0.00262236
0.000394313
-0.00271945
0.000403015
-0.00280595
0.000409256
-0.00288522
0.000413638
-0.0029602
0.000416663
-0.00303325
0.000418715
-0.00310614
0.000420068
-0.00318014
0.000420905
-0.00325603
0.000421331
-0.00333425
0.000421397
-0.00341495
-0.00349802
0.000421115
5.02787e-06
-9.28658e-05
1.90194e-05
-0.000292236
4.10193e-05
-0.000509875
6.97606e-05
-0.000742197
0.000103639
-0.000983707
0.000140778
-0.00122762
0.000179175
-0.00146667
0.000216888
-0.00169406
0.00025223
-0.00190424
0.000283919
-0.00209349
0.000311159
-0.00226019
0.00033364
-0.00240467
0.000351473
-0.00252891
0.000365079
-0.00263596
0.000375066
-0.00272944
0.000382111
-0.00281299
0.000386867
-0.00288997
0.000389908
-0.00296324
0.000391699
-0.00303504
0.000392589
-0.00310703
0.000392825
-0.00318038
0.000392564
-0.00325577
0.000391896
-0.00333358
0.00039086
-0.00341391
-0.00349662
0.00038946
5.07981e-06
-9.79456e-05
1.91223e-05
-0.000306279
4.1063e-05
-0.000531816
6.9527e-05
-0.000770661
0.000102816
-0.001017
0.000138994
-0.00126379
0.000176036
-0.00150371
0.000212034
-0.00173006
0.000245372
-0.00193758
0.000274871
-0.00212299
0.000299847
-0.00228516
0.000320094
-0.00242491
0.000335805
-0.00254462
0.000347455
-0.00264761
0.000355673
-0.00273766
0.000361131
-0.00281845
0.000364463
-0.00289331
0.00036621
-0.00296499
0.0003668
-0.00303563
0.000366552
-0.00310678
0.000365684
-0.00317951
0.000364335
-0.00325442
0.000362578
-0.00333183
0.000360443
-0.00341178
-0.0034941
0.000357926
5.12026e-06
-0.000103066
1.91802e-05
-0.000320339
4.1008e-05
-0.000553643
6.91244e-05
-0.000798777
0.000101746
-0.00104962
0.000136882
-0.00129893
0.000172505
-0.00153934
0.000206742
-0.0017643
0.000238061
-0.0019689
0.000265384
-0.00215032
0.000288137
-0.00230791
0.000306212
-0.00244299
0.000319877
-0.00255828
0.000329649
-0.00265738
0.000336172
-0.00274418
0.000340111
-0.00282239
0.000342073
-0.00289527
0.000342566
-0.00296548
0.000341985
-0.00303505
0.000340618
-0.00310542
0.000338659
-0.00317755
0.000336228
-0.00325199
0.000333386
-0.00332898
0.000330155
-0.00340855
-0.00349047
0.000326525
5.14892e-06
-0.000108215
1.91927e-05
-0.000334382
4.08542e-05
-0.000575305
6.85549e-05
-0.000826478
0.000100433
-0.0010815
0.000134457
-0.00133295
0.0001686
-0.00157348
0.000201041
-0.00179674
0.000230331
-0.00199819
0.000255498
-0.00217548
0.000276074
-0.00232849
0.000292042
-0.00245896
0.000303734
-0.00256997
0.000311703
-0.00266535
0.000316602
-0.00274908
0.000319082
-0.00282487
0.000319722
-0.00289591
0.000318997
-0.00296475
0.00031727
-0.00303332
0.000314801
-0.00310295
0.000311761
-0.00317451
0.000308253
-0.00324849
0.000304331
-0.00332506
0.000300006
-0.00340422
-0.00348573
0.000295264
5.16556e-06
-0.00011338
1.91594e-05
-0.000348376
4.0602e-05
-0.000596748
6.78209e-05
-0.000853697
9.88844e-05
-0.00111256
0.000131729
-0.0013658
0.000164342
-0.00160609
0.000194958
-0.00182736
0.000222218
-0.00202545
0.000245256
-0.00219852
0.000263703
-0.00234694
0.000277628
-0.00247288
0.000287418
-0.00257976
0.000293656
-0.00267159
0.000296996
-0.00275242
0.000298071
-0.00282594
0.000297432
-0.00289527
0.000295521
-0.00296284
0.00029267
-0.00303047
0.000289112
-0.00309939
0.000284999
-0.0031704
0.00028042
-0.00324391
0.000275419
-0.00332006
0.000270003
-0.00339881
-0.00347988
0.000264153
5.17e-06
-0.00011855
1.90802e-05
-0.000362286
4.02523e-05
-0.00061792
6.69258e-05
-0.000880371
9.71078e-05
-0.00114274
0.000128713
-0.0013974
0.000159751
-0.00163713
0.000188522
-0.00185613
0.000213758
-0.00205069
0.000234697
-0.00221946
0.000251066
-0.00236331
0.000263011
-0.00248483
0.00027097
-0.00258772
0.000275543
-0.00267616
0.000277384
-0.00275426
0.000277103
-0.00282566
0.000275223
-0.00289339
0.000272154
-0.00295977
0.000268197
-0.00302651
0.000263562
-0.00309475
0.000258383
-0.00316522
0.000252738
-0.00323826
0.000246661
-0.00331398
0.000240155
-0.0033923
-0.00347292
0.0002332
5.16214e-06
-0.000123712
1.89554e-05
-0.00037608
3.98065e-05
-0.000638771
6.58739e-05
-0.000906438
9.5112e-05
-0.00117198
0.000125423
-0.00142771
0.00015485
-0.00166656
0.000181761
-0.00188304
0.000204985
-0.00207391
0.000223859
-0.00223833
0.000238203
-0.00237765
0.000248232
-0.00249486
0.000254424
-0.00259391
0.000257396
-0.00267914
0.000257792
-0.00275465
0.000256201
-0.00282407
0.000253114
-0.0028903
0.00024891
-0.00295557
0.000243864
-0.00302147
0.000238162
-0.00308905
0.000231923
-0.00315898
0.000225214
-0.00323155
0.000218063
-0.00330683
0.000210471
-0.00338471
-0.00346487
0.000202414
5.14193e-06
-0.000128854
1.87851e-05
-0.000389723
3.92664e-05
-0.000659252
6.46697e-05
-0.000931841
9.29061e-05
-0.00120022
0.000121875
-0.00145668
0.000149659
-0.00169434
0.000174704
-0.00190808
0.000195932
-0.00209514
0.000212778
-0.00225518
0.000225151
-0.00239003
0.000233324
-0.00250303
0.000237813
-0.0025984
0.000239242
-0.00268057
0.000238244
-0.00275366
0.000235383
-0.00282121
0.00023112
-0.00288604
0.000225803
-0.00295025
0.000219681
-0.00301534
0.000212921
-0.00308229
0.000205626
-0.00315168
0.000197856
-0.00322378
0.000189634
-0.00329861
0.000180957
-0.00337603
-0.00345571
0.000171802
5.10937e-06
-0.000133964
1.857e-05
-0.000403183
3.86341e-05
-0.000679316
6.33187e-05
-0.000956526
9.05e-05
-0.0012274
0.000118084
-0.00148427
0.000144202
-0.00172046
0.000167378
-0.00193126
0.00018663
-0.00211439
0.00020149
-0.00227004
0.000211944
-0.00240048
0.000218322
-0.00250941
0.000221167
-0.00260125
0.000221109
-0.00268051
0.000218763
-0.00275131
0.000214668
-0.00281711
0.000209255
-0.00288063
0.000202844
-0.00294384
0.000195658
-0.00300816
0.000187846
-0.00307448
0.000179501
-0.00314334
0.000170672
-0.00321496
0.000161381
-0.00328932
0.000151621
-0.00336627
-0.00344546
0.00014137
5.06454e-06
-0.000139028
1.83109e-05
-0.00041643
3.79123e-05
-0.000698917
6.18265e-05
-0.00098044
8.79041e-05
-0.00125348
0.000114067
-0.00151043
0.000138499
-0.00174489
0.000159809
-0.00195257
0.00017711
-0.00213169
0.000190025
-0.00228296
0.000198614
-0.00240907
0.000203255
-0.00251405
0.000204514
-0.00260251
0.000203018
-0.00267901
0.000199366
-0.00274766
0.000194071
-0.00281182
0.000187532
-0.00287409
0.000180043
-0.00293635
0.000171805
-0.00299992
0.000162948
-0.00306562
0.000153555
-0.00313394
0.00014367
-0.00320507
0.000133311
-0.00327896
0.00012247
-0.00335543
-0.00343412
0.000111125
5.00755e-06
-0.000144036
1.80087e-05
-0.000429431
3.71038e-05
-0.000718013
6.01993e-05
-0.00100354
8.51292e-05
-0.0012784
0.000109839
-0.00153514
0.000132573
-0.00176763
0.000152025
-0.00197202
0.000167403
-0.00214707
0.000178416
-0.00229397
0.000185191
-0.00241584
0.000188151
-0.00251701
0.000187877
-0.00260223
0.000184991
-0.00267613
0.000180072
-0.00274274
0.000173606
-0.00280535
0.000165963
-0.00286644
0.000157411
-0.0029278
0.000148129
-0.00299064
0.000138233
-0.00305573
0.000127796
-0.00312351
0.000116857
-0.00319413
0.00010543
-0.00326753
9.35074e-05
-0.00334351
-0.00342168
8.10691e-05
4.93859e-06
-0.000148974
1.76645e-05
-0.000442157
3.62118e-05
-0.00073656
5.84437e-05
-0.00102577
8.21863e-05
-0.00130215
0.000105416
-0.00155837
0.000126444
-0.00178866
0.00014405
-0.00198963
0.000157534
-0.00216055
0.000166689
-0.00230312
0.000171704
-0.00242086
0.000173036
-0.00251834
0.000171279
-0.00260047
0.000167046
-0.00267189
0.000160896
-0.00273659
0.000153286
-0.00279774
0.000144558
-0.00285772
0.000134956
-0.0029182
0.000124639
-0.00298032
0.00011371
-0.0030448
0.000102232
-0.00311203
9.02401e-05
-0.00318214
7.77454e-05
-0.00325504
6.47396e-05
-0.0033305
-0.00340814
5.12033e-05
4.85787e-06
-0.000153832
1.72795e-05
-0.000454578
3.52396e-05
-0.00075452
5.65664e-05
-0.00104709
7.90864e-05
-0.00132467
0.000100815
-0.0015801
0.000120133
-0.00180797
0.000135908
-0.0020054
0.000147531
-0.00217217
0.000154872
-0.00231046
0.000158177
-0.00242416
0.000157933
-0.0025181
0.00015474
-0.00259728
0.000149201
-0.00266636
0.000141852
-0.00272924
0.000133122
-0.00278901
0.000123327
-0.00284792
0.000112686
-0.00290756
0.000101342
-0.00296898
8.93843e-05
-0.00303284
7.68697e-05
-0.00309951
6.38292e-05
-0.0031691
5.02729e-05
-0.00324148
3.61818e-05
-0.00331641
-0.00339347
2.15066e-05
4.76565e-06
-0.000158598
1.68551e-05
-0.000466668
3.41908e-05
-0.000771856
5.45744e-05
-0.00106748
7.58409e-05
-0.00134593
9.60507e-05
-0.0016003
0.000113659
-0.00182558
0.000127622
-0.00201937
0.000137418
-0.00218197
0.00014299
-0.00231604
0.000144634
-0.00242581
0.000142862
-0.00251632
0.000138278
-0.0025927
0.000131471
-0.00265955
0.000122952
-0.00272072
0.000113124
-0.00277918
0.000102278
-0.00283708
9.06093e-05
-0.00289589
7.82452e-05
-0.00295661
6.52644e-05
-0.00301986
5.17167e-05
-0.00308597
3.76324e-05
-0.00315502
2.30271e-05
-0.00322688
7.88437e-06
-0.00330127
-0.00337755
-8.03436e-06
4.66224e-06
-0.00016326
1.63929e-05
-0.000478399
3.30694e-05
-0.000788532
5.24749e-05
-0.00108688
7.2461e-05
-0.00136592
9.11394e-05
-0.00161898
0.000107043
-0.00184149
0.000119215
-0.00203154
0.000127219
-0.00218998
0.000131066
-0.00231988
0.000131096
-0.00242584
0.000127843
-0.00251307
0.00012191
-0.00258676
0.000113869
-0.00265151
0.000104208
-0.00271106
9.33018e-05
-0.00276828
8.14183e-05
-0.00282519
6.87325e-05
-0.0028832
5.53555e-05
-0.00294324
4.13561e-05
-0.00300586
2.67791e-05
-0.00307139
1.16542e-05
-0.00313989
-4.00469e-06
-0.00321122
-2.02171e-05
-0.00328506
-0.00336079
-3.69776e-05
4.54797e-06
-0.000167808
1.58943e-05
-0.000489745
3.18791e-05
-0.000804517
5.02749e-05
-0.00110528
6.89578e-05
-0.0013846
8.60961e-05
-0.00163612
0.000100302
-0.00185569
0.000110707
-0.00204194
0.000116955
-0.00219622
0.000119121
-0.00232205
0.000117584
-0.0024243
0.000112894
-0.00250838
0.00010565
-0.00257952
9.6407e-05
-0.00264227
8.56282e-05
-0.00270028
7.36634e-05
-0.00275631
6.0756e-05
-0.00281228
4.70622e-05
-0.00286951
3.26789e-05
-0.00292885
1.76657e-05
-0.00299085
2.06296e-06
-0.00305579
-1.40999e-05
-0.00312373
-3.08077e-05
-0.00319451
-4.80718e-05
-0.00326779
-0.00334297
-6.58855e-05
4.42322e-06
-0.000172231
1.53611e-05
-0.000500683
3.06239e-05
-0.00081978
4.7982e-05
-0.00112264
6.53423e-05
-0.00140196
8.09353e-05
-0.00165171
9.34542e-05
-0.00186821
0.000102118
-0.00205061
0.000106647
-0.00220075
0.000107174
-0.00232258
0.000104115
-0.00242124
9.803e-05
-0.0025023
8.95115e-05
-0.002571
7.90964e-05
-0.00263185
6.72229e-05
-0.00268841
5.42163e-05
-0.0027433
4.02975e-05
-0.00279837
2.56046e-05
-0.00285482
1.02215e-05
-0.00291347
-5.80066e-06
-0.00297482
-2.24255e-05
-0.00303916
-3.96238e-05
-0.00310653
-5.73774e-05
-0.00317676
-7.56888e-05
-0.00324948
-0.00332409
-9.45721e-05
4.2884e-06
-0.00017652
1.4795e-05
-0.000511189
2.9308e-05
-0.000834293
4.56031e-05
-0.00113893
6.16254e-05
-0.00141799
7.56713e-05
-0.00166576
8.65169e-05
-0.00187906
9.34657e-05
-0.00205755
9.63126e-05
-0.0022036
9.5244e-05
-0.00232151
9.0705e-05
-0.0024167
8.32651e-05
-0.00249486
7.35064e-05
-0.00256124
6.19467e-05
-0.00262029
4.89997e-05
-0.00267546
3.49669e-05
-0.00272927
2.00497e-05
-0.00278345
4.36498e-06
-0.00283913
-1.20111e-05
-0.00289709
-2.9037e-05
-0.0029578
-4.66804e-05
-0.00302152
-6.49115e-05
-0.0030883
-8.37079e-05
-0.00315796
-0.000103068
-0.00323012
-0.00330414
-0.000123015
4.14391e-06
-0.000180664
1.41978e-05
-0.000521243
2.79355e-05
-0.000848031
4.31457e-05
-0.00115414
5.78177e-05
-0.00143266
7.03178e-05
-0.00167826
7.95059e-05
-0.00188824
8.47686e-05
-0.00206282
8.59706e-05
-0.0022048
8.33474e-05
-0.00231888
7.737e-05
-0.00241072
6.86124e-05
-0.0024861
5.76455e-05
-0.00255027
4.49668e-05
-0.00260761
3.09662e-05
-0.00266146
1.59207e-05
-0.00271423
5.83995e-09
-0.00276753
-1.66517e-05
-0.00282248
-3.40129e-05
-0.00287973
-5.20376e-05
-0.00293977
-7.06956e-05
-0.00300286
-8.99565e-05
-0.00306904
-0.000109794
-0.00313812
-0.0001302
-0.00320971
-0.00328314
-0.000151204
3.99021e-06
-0.000184654
1.35714e-05
-0.000530824
2.65105e-05
-0.00086097
4.06166e-05
-0.00116825
5.39292e-05
-0.00144597
6.4888e-05
-0.00168922
7.24366e-05
-0.00189579
7.60426e-05
-0.00206642
7.56368e-05
-0.0022044
7.14995e-05
-0.00231475
6.4123e-05
-0.00240335
5.40832e-05
-0.00247606
4.19382e-05
-0.00253813
2.81645e-05
-0.00259384
1.31287e-05
-0.00264643
-2.9132e-06
-0.00269818
-1.97965e-05
-0.00275065
-3.74368e-05
-0.00280484
-5.57785e-05
-0.00286139
-7.47965e-05
-0.00292076
-9.4465e-05
-0.00298319
-0.000114753
-0.00304875
-0.000135628
-0.00311725
-0.000157079
-0.00318826
-0.00326109
-0.000179133
3.82776e-06
-0.000188482
1.29176e-05
-0.000539914
2.50371e-05
-0.000873089
3.8023e-05
-0.00118123
4.99702e-05
-0.00145792
5.93943e-05
-0.00169864
6.53233e-05
-0.00190172
6.73029e-05
-0.0020684
6.53264e-05
-0.00220242
5.97141e-05
-0.00230913
5.09765e-05
-0.00239461
3.96882e-05
-0.00246477
2.63932e-05
-0.00252483
1.15468e-05
-0.00257899
-4.5069e-06
-0.00263037
-2.15325e-05
-0.00268116
-3.9385e-05
-0.0027328
-5.79886e-05
-0.00278623
-7.73029e-05
-0.00284208
-9.7308e-05
-0.00290075
-0.000117982
-0.00296252
-0.000139293
-0.00302744
-0.000161204
-0.00309534
-0.000183697
-0.00316577
-0.00323799
-0.000206794
3.65703e-06
-0.000192139
1.22382e-05
-0.000548495
2.35195e-05
-0.000884371
3.53716e-05
-0.00119309
4.59501e-05
-0.0014685
5.38489e-05
-0.00170654
5.81796e-05
-0.00190605
5.85637e-05
-0.00206879
5.50529e-05
-0.00219891
4.80039e-05
-0.00230209
3.79413e-05
-0.00238455
2.54365e-05
-0.00245227
1.1018e-05
-0.00251042
-4.87998e-06
-0.00256309
-2.19353e-05
-0.00261332
-3.99324e-05
-0.00266316
-5.87429e-05
-0.00271399
-7.8302e-05
-0.00276667
-9.85809e-05
-0.0028218
-0.000119567
-0.00287977
-0.000141241
-0.00294084
-0.000163572
-0.00300511
-0.000186516
-0.00307239
-0.000210046
-0.00314224
-0.00321385
-0.000234181
3.47851e-06
-0.000195617
1.15353e-05
-0.000556552
2.19616e-05
-0.000894797
3.26691e-05
-0.00120379
4.18782e-05
-0.0014777
4.82631e-05
-0.00171293
5.10182e-05
-0.00190881
4.98382e-05
-0.00206761
4.48293e-05
-0.0021939
3.63805e-05
-0.00229364
2.50277e-05
-0.00237319
1.13366e-05
-0.00243858
-4.18046e-06
-0.0024949
-2.11102e-05