/*--------------------------------*- C++ -*----------------------------------*\
  =========                 |
  \\      /  F ield         | OpenFOAM: The Open Source CFD Toolbox
   \\    /   O peration     | Website:  https://openfoam.org
    \\  /    A nd           | Version:  7
     \\/     M anipulation  |
\*---------------------------------------------------------------------------*/
FoamFile
{
    version     2.0;
    format      ascii;
    class       volScalarField;
    location    "25";
    object      p;
}
// * * * * * * * * * * * * * * * * * * * * * * * * * * * * * * * * * * * * * //

dimensions      [0 2 -2 0 0 0 0];

internalField   nonuniform List<scalar> 
8500
(
-0.336124
-0.338746
-0.337534
-0.34152
-0.340138
-0.338562
-0.344454
-0.342887
-0.341157
-0.347552
-0.345786
-0.343894
-0.341624
-0.350821
-0.348842
-0.346779
-0.344334
-0.341603
-0.354266
-0.352059
-0.349816
-0.34719
-0.34428
-0.341203
-0.357891
-0.355441
-0.353011
-0.350198
-0.347104
-0.343849
-0.340508
-0.3617
-0.358992
-0.356367
-0.353361
-0.350078
-0.346642
-0.343126
-0.339578
-0.365695
-0.362716
-0.359888
-0.356684
-0.353207
-0.349586
-0.345889
-0.342158
-0.338403
-0.369878
-0.366613
-0.363577
-0.360168
-0.356494
-0.352684
-0.3488
-0.344876
-0.340912
-0.336873
-0.374249
-0.370686
-0.367434
-0.363818
-0.359942
-0.355938
-0.35186
-0.347731
-0.343539
-0.339236
-0.334751
-0.378807
-0.374934
-0.371461
-0.367633
-0.363553
-0.359349
-0.355067
-0.350719
-0.346278
-0.341684
-0.336855
-0.331701
-0.326149
-0.383551
-0.379356
-0.375658
-0.371615
-0.367325
-0.362915
-0.35842
-0.353836
-0.349122
-0.344205
-0.338994
-0.333402
-0.327363
-0.320848
-0.388476
-0.383949
-0.380021
-0.37576
-0.371257
-0.366635
-0.361913
-0.357073
-0.352059
-0.346784
-0.341153
-0.335082
-0.32852
-0.321458
-0.313939
-0.393578
-0.388709
-0.384549
-0.380067
-0.375347
-0.370504
-0.36554
-0.360422
-0.355076
-0.349406
-0.343313
-0.336724
-0.329603
-0.321972
-0.313895
-0.305479
-0.296834
-0.398848
-0.39363
-0.389235
-0.384531
-0.379589
-0.374514
-0.369293
-0.36387
-0.358158
-0.352051
-0.345455
-0.338307
-0.330598
-0.322374
-0.313729
-0.304792
-0.295687
-0.286588
-0.404278
-0.398704
-0.394074
-0.389146
-0.383976
-0.378659
-0.373158
-0.367401
-0.361285
-0.354699
-0.347556
-0.339812
-0.331485
-0.322652
-0.313434
-0.303977
-0.294419
-0.28493
-0.275452
-0.266684
-0.409856
-0.403922
-0.399056
-0.393902
-0.388498
-0.382924
-0.377122
-0.370998
-0.364437
-0.357329
-0.349595
-0.341219
-0.332249
-0.322793
-0.312998
-0.303026
-0.293024
-0.283155
-0.273378
-0.264324
-0.415569
-0.409273
-0.404171
-0.398789
-0.393144
-0.387298
-0.381168
-0.374641
-0.367592
-0.359914
-0.35155
-0.342509
-0.332874
-0.322785
-0.312413
-0.301932
-0.291496
-0.281258
-0.271189
-0.261858
-0.421401
-0.414741
-0.409405
-0.403793
-0.397898
-0.391762
-0.385274
-0.378305
-0.370724
-0.362432
-0.353396
-0.34366
-0.333343
-0.322616
-0.31167
-0.300689
-0.289829
-0.279232
-0.268879
-0.259279
-0.427335
-0.420311
-0.414743
-0.4089
-0.402744
-0.396296
-0.389419
-0.381966
-0.373806
-0.364855
-0.35511
-0.344653
-0.333642
-0.322274
-0.310759
-0.299289
-0.288017
-0.277072
-0.266442
-0.25658
-0.433349
-0.425964
-0.420167
-0.41409
-0.407662
-0.400878
-0.393576
-0.385596
-0.376809
-0.367156
-0.356668
-0.34547
-0.333754
-0.321747
-0.309673
-0.297725
-0.286052
-0.27477
-0.263872
-0.253754
-0.43942
-0.43168
-0.425657
-0.419342
-0.412628
-0.405483
-0.397718
-0.389164
-0.379705
-0.369308
-0.358047
-0.34609
-0.333666
-0.321025
-0.308402
-0.295989
-0.283927
-0.272319
-0.261162
-0.250796
-0.445522
-0.437434
-0.431189
-0.424632
-0.417617
-0.410081
-0.401813
-0.39264
-0.382462
-0.371284
-0.359224
-0.346496
-0.333363
-0.320097
-0.306937
-0.294073
-0.281637
-0.269714
-0.258306
-0.247699
-0.451628
-0.4432
-0.436737
-0.429934
-0.4226
-0.414642
-0.405829
-0.39599
-0.385049
-0.373055
-0.360176
-0.34667
-0.332833
-0.318952
-0.30527
-0.291969
-0.279172
-0.266947
-0.255298
-0.244457
-0.457708
-0.448951
-0.442274
-0.435219
-0.427545
-0.419132
-0.409731
-0.399179
-0.387435
-0.374595
-0.360881
-0.346594
-0.33206
-0.317579
-0.303391
-0.28967
-0.276526
-0.264011
-0.252131
-0.241064
-0.463727
-0.454654
-0.447769
-0.440454
-0.432419
-0.423515
-0.413483
-0.402174
-0.389588
-0.375877
-0.361317
-0.346252
-0.331033
-0.315967
-0.301292
-0.287168
-0.27369
-0.260899
-0.248799
-0.237514
-0.469651
-0.460278
-0.453187
-0.445604
-0.437186
-0.427755
-0.417046
-0.404938
-0.391477
-0.376875
-0.361464
-0.345628
-0.329739
-0.314108
-0.298963
-0.284453
-0.270659
-0.257604
-0.245295
-0.233802
-0.475442
-0.465785
-0.458495
-0.450634
-0.441806
-0.431811
-0.420383
-0.407435
-0.39307
-0.377564
-0.361302
-0.344707
-0.328165
-0.311989
-0.296395
-0.281518
-0.267423
-0.254119
-0.241613
-0.229922
-0.481062
-0.471139
-0.463653
-0.455503
-0.44624
-0.435642
-0.423454
-0.409631
-0.394338
-0.377919
-0.360812
-0.343473
-0.326301
-0.309601
-0.29358
-0.278355
-0.263975
-0.250437
-0.237746
-0.225869
-0.486469
-0.476301
-0.468622
-0.460172
-0.450446
-0.439208
-0.426221
-0.411489
-0.395252
-0.377917
-0.359976
-0.341913
-0.324133
-0.306935
-0.290509
-0.274955
-0.260308
-0.246552
-0.23369
-0.221637
-0.491621
-0.481228
-0.47336
-0.464597
-0.454381
-0.442466
-0.428643
-0.412978
-0.395783
-0.377536
-0.358777
-0.340013
-0.321651
-0.30398
-0.287172
-0.27131
-0.256415
-0.242457
-0.229437
-0.217222
-0.496475
-0.48588
-0.477826
-0.468736
-0.458001
-0.445374
-0.430682
-0.414062
-0.395904
-0.376755
-0.357199
-0.33776
-0.318844
-0.300727
-0.283561
-0.267414
-0.252288
-0.238146
-0.224983
-0.212618
-0.500985
-0.490212
-0.481974
-0.472543
-0.461262
-0.44789
-0.432302
-0.414711
-0.395591
-0.375554
-0.355225
-0.335141
-0.315702
-0.297166
-0.279669
-0.263257
-0.247921
-0.233612
-0.220322
-0.207822
-0.505105
-0.494179
-0.48576
-0.475973
-0.464119
-0.449971
-0.433464
-0.414893
-0.394818
-0.373915
-0.352842
-0.332145
-0.312215
-0.29329
-0.275486
-0.258834
-0.243308
-0.228851
-0.215448
-0.202829
-0.508791
-0.497736
-0.489138
-0.47898
-0.466528
-0.451578
-0.434133
-0.41458
-0.393564
-0.371819
-0.350035
-0.328761
-0.308373
-0.289089
-0.271006
-0.254137
-0.238441
-0.223856
-0.210358
-0.197635
-0.511997
-0.500839
-0.492063
-0.48152
-0.468445
-0.452671
-0.434277
-0.413746
-0.391806
-0.369252
-0.346793
-0.324978
-0.304167
-0.284556
-0.266221
-0.249159
-0.233317
-0.218624
-0.205048
-0.192238
-0.514676
-0.503442
-0.49449
-0.483547
-0.469829
-0.453212
-0.433863
-0.412364
-0.389528
-0.366198
-0.343104
-0.320787
-0.299589
-0.279683
-0.261125
-0.243896
-0.227928
-0.213148
-0.199512
-0.186633
-0.516785
-0.505501
-0.496374
-0.485019
-0.470639
-0.453166
-0.432862
-0.410412
-0.386709
-0.362644
-0.338957
-0.316179
-0.294631
-0.274463
-0.255712
-0.23834
-0.222272
-0.207427
-0.193749
-0.180819
-0.51828
-0.506973
-0.497671
-0.485891
-0.470834
-0.452497
-0.431246
-0.407868
-0.383335
-0.358577
-0.334343
-0.311146
-0.289287
-0.268891
-0.249975
-0.232489
-0.216343
-0.201455
-0.187756
-0.174794
-0.519118
-0.507813
-0.498338
-0.486124
-0.470379
-0.451176
-0.42899
-0.404714
-0.379392
-0.353989
-0.329252
-0.305682
-0.283549
-0.26296
-0.243911
-0.226337
-0.210139
-0.19523
-0.181529
-0.168554
-0.519259
-0.507983
-0.498336
-0.485678
-0.469237
-0.449172
-0.426071
-0.400932
-0.374868
-0.348868
-0.323679
-0.299778
-0.277414
-0.256666
-0.237515
-0.219881
-0.203655
-0.18875
-0.175066
-0.1621
-0.518663
-0.507441
-0.497624
-0.484517
-0.467378
-0.446459
-0.422469
-0.396509
-0.369751
-0.343207
-0.317616
-0.293432
-0.270875
-0.250005
-0.230783
-0.213118
-0.196891
-0.182012
-0.168368
-0.15543
-0.517293
-0.506152
-0.496167
-0.482607
-0.46477
-0.443014
-0.418168
-0.391431
-0.364033
-0.337
-0.311059
-0.286638
-0.263931
-0.242974
-0.223713
-0.206045
-0.189843
-0.175016
-0.161435
-0.148548
-0.515117
-0.504081
-0.493931
-0.479916
-0.461389
-0.438816
-0.413151
-0.385688
-0.357707
-0.330243
-0.304004
-0.279393
-0.256577
-0.235571
-0.216304
-0.198662
-0.182511
-0.167761
-0.154271
-0.141459
-0.512101
-0.501194
-0.490884
-0.476416
-0.45721
-0.433847
-0.407407
-0.379273
-0.350768
-0.322931
-0.296448
-0.271695
-0.248813
-0.227794
-0.208554
-0.190968
-0.174894
-0.160246
-0.14687
-0.134147
-0.508219
-0.497465
-0.486998
-0.472083
-0.452213
-0.428094
-0.400927
-0.37218
-0.343214
-0.315062
-0.288391
-0.263544
-0.240637
-0.219643
-0.200463
-0.182962
-0.166992
-0.15247
-0.139214
-0.126542
-0.503444
-0.492865
-0.482248
-0.466894
-0.446382
-0.421543
-0.393702
-0.364406
-0.335042
-0.306637
-0.279832
-0.25494
-0.232051
-0.211119
-0.192032
-0.174647
-0.158809
-0.144438
-0.131295
-0.118603
-0.497754
-0.487373
-0.476614
-0.460831
-0.439702
-0.414188
-0.38573
-0.355949
-0.326252
-0.297657
-0.270773
-0.245884
-0.223055
-0.202223
-0.183263
-0.166024
-0.150347
-0.136153
-0.123163
-0.110699
-0.491131
-0.480969
-0.470075
-0.45388
-0.432164
-0.406022
-0.377009
-0.34681
-0.316848
-0.288123
-0.261216
-0.236379
-0.213654
-0.192959
-0.17416
-0.157097
-0.141607
-0.127618
-0.114803
-0.102587
-0.483559
-0.473637
-0.46262
-0.44603
-0.423762
-0.397043
-0.36754
-0.336992
-0.306833
-0.278041
-0.251165
-0.226429
-0.203849
-0.18333
-0.164725
-0.14787
-0.132599
-0.118833
-0.106226
-0.0942516
-0.475029
-0.465366
-0.454236
-0.437272
-0.414493
-0.387253
-0.357326
-0.3265
-0.296213
-0.267416
-0.240627
-0.216039
-0.193647
-0.173341
-0.154965
-0.138347
-0.123322
-0.109808
-0.0974323
-0.0857037
-0.465531
-0.456147
-0.444916
-0.427605
-0.404355
-0.376655
-0.346373
-0.315343
-0.284995
-0.256256
-0.229608
-0.205216
-0.183054
-0.162997
-0.144883
-0.128533
-0.113781
-0.100545
-0.0884231
-0.0769544
-0.455063
-0.445975
-0.434659
-0.417027
-0.393354
-0.365255
-0.334691
-0.303528
-0.273188
-0.244568
-0.218116
-0.193967
-0.172076
-0.152307
-0.134487
-0.118435
-0.103984
-0.091052
-0.0792035
-0.0680127
-0.443623
-0.43485
-0.423464
-0.405542
-0.381496
-0.353064
-0.322291
-0.291068
-0.260805
-0.232364
-0.20616
-0.182301
-0.160723
-0.141276
-0.123785
-0.108061
-0.0939373
-0.0813335
-0.0697793
-0.0588861
-0.431217
-0.422775
-0.411336
-0.393158
-0.368792
-0.340094
-0.309185
-0.277976
-0.247856
-0.219655
-0.193751
-0.170228
-0.149003
-0.129916
-0.112784
-0.0974174
-0.0836482
-0.071397
-0.0601576
-0.0495822
-0.417851
-0.409756
-0.398283
-0.379885
-0.355253
-0.326359
-0.295388
-0.264266
-0.234357
-0.206454
-0.180902
-0.15776
-0.136927
-0.118235
-0.101495
-0.0865142
-0.0731256
-0.0612505
-0.0503461
-0.0401087
-0.403537
-0.395804
-0.384317
-0.365738
-0.340898
-0.311876
-0.28092
-0.249956
-0.220323
-0.192776
-0.167626
-0.144908
-0.124507
-0.106245
-0.0899283
-0.0753611
-0.0623788
-0.0509028
-0.0403533
-0.0304739
-0.388289
-0.380933
-0.369453
-0.350733
-0.325744
-0.296667
-0.265799
-0.235065
-0.205771
-0.178636
-0.153938
-0.131688
-0.111755
-0.0939569
-0.0780945
-0.0639689
-0.0514181
-0.0403636
-0.0301885
-0.0206868
-0.372126
-0.36516
-0.35371
-0.334891
-0.309814
-0.280753
-0.250048
-0.219612
-0.190721
-0.164052
-0.139853
-0.118112
-0.0986863
-0.0813847
-0.0660061
-0.0523491
-0.0402545
-0.0296433
-0.0198617
-0.0107569
-0.35507
-0.348506
-0.33711
-0.318235
-0.293133
-0.264161
-0.233687
-0.20362
-0.175192
-0.149043
-0.125389
-0.104197
-0.0853141
-0.0685418
-0.0536761
-0.0405142
-0.0288998
-0.0187531
-0.00938369
-0.000694794
-0.337145
-0.330997
-0.319678
-0.300793
-0.275728
-0.246918
-0.216741
-0.187111
-0.159206
-0.133628
-0.110563
-0.0899602
-0.0716545
-0.0554429
-0.0411185
-0.0284774
-0.0173666
-0.00770491
0.00123381
0.00948786
-0.31838
-0.312658
-0.301442
-0.282593
-0.257628
-0.229041
-0.199246
-0.170113
-0.142786
-0.117828
-0.0953952
-0.0754188
-0.0577241
-0.0421034
-0.0283477
-0.0162524
-0.00566836
0.0034885
0.0119784
0.0197781
-0.298806
-0.293521
-0.282433
-0.263669
-0.238863
-0.21057
-0.181225
-0.15265
-0.125956
-0.101665
-0.0799055
-0.0605915
-0.04354
-0.0285394
-0.015379
-0.00385378
0.00618104
0.0148138
0.0228366
-0.278456
-0.27362
-0.262686
-0.244056
-0.219461
-0.191541
-0.162706
-0.134751
-0.108742
-0.0851627
-0.0641152
-0.045498
-0.0291204
-0.0147677
-0.00222797
0.00870349
0.018167
0.0262572
-0.257365
-0.252991
-0.242237
-0.223777
-0.199472
-0.171983
-0.143722
-0.116444
-0.09117
-0.0683448
-0.0480464
-0.0301586
-0.0144841
-0.000805763
0.0110891
0.0214041
0.0302746
-0.235574
-0.231672
-0.221128
-0.202877
-0.178927
-0.151933
-0.124307
-0.0977599
-0.0732672
-0.0512366
-0.031722
-0.0145943
0.00034966
0.0133287
0.0245558
0.0342324
-0.213119
-0.209706
-0.199383
-0.181413
-0.157863
-0.131427
-0.104494
-0.0787295
-0.0550623
-0.033864
-0.0151659
0.00117305
0.0153608
0.0276172
0.0381554
0.0471728
-0.190037
-0.187144
-0.177062
-0.159414
-0.136323
-0.110503
-0.0843183
-0.0593852
-0.0365847
-0.0162539
0.00159736
0.0171209
0.0305286
0.0420412
0.051871
-0.166374
-0.164037
-0.154212
-0.136925
-0.114348
-0.0892015
-0.0638167
-0.0397599
-0.0178646
0.00156609
0.0185425
0.0332261
0.0458322
0.0565817
-0.142229
-0.140392
-0.130876
-0.113991
-0.0919814
-0.0675617
-0.043026
-0.0198877
0.00106698
0.0195676
0.0356435
0.0494649
0.0612498
0.0712193
-0.117631
-0.116268
-0.1071
-0.0906602
-0.0692675
-0.0456251
-0.0219841
0.000196892
0.0201784
0.0377217
0.0528738
0.0658128
0.0767591
-0.0926072
-0.0917326
-0.0829349
-0.0669797
-0.0462516
-0.0234338
-0.000729692
0.0204584
0.0394372
0.0559986
0.070206
0.0822449
0.0923373
-0.0672132
-0.0668395
-0.0584306
-0.0429987
-0.0229801
-0.00103064
0.020698
0.040861
0.0588107
0.0743682
0.0876125
0.0987354
-0.0415034
-0.0416378
-0.0336382
-0.0187662
0.000500814
0.0215413
0.0422593
0.0613682
0.0782653
0.0927997
0.105065
-0.015534
-0.0161813
-0.00861069
0.00566702
0.0241434
0.0442381
0.063914
0.0819433
0.0977674
0.111262
0.122535
0.0106389
0.00947568
0.0165984
0.0302499
0.0479001
0.0670156
0.0856214
0.102549
0.117283
0.129724
0.0369588
0.0352782
0.0419353
0.0549312
0.0717226
0.0898294
0.107341
0.123148
0.136777
0.148154
0.0633691
0.0611706
0.0673458
0.0796592
0.0955629
0.112635
0.129032
0.143703
0.156217
0.166521
0.0898129
0.0870972
0.0927754
0.104382
0.119373
0.135388
0.150653
0.164177
0.175567
0.116233
0.113002
0.11817
0.129048
0.143104
0.158044
0.172165
0.184532
0.194792
0.142572
0.138828
0.143474
0.153606
0.166708
0.180559
0.193525
0.204731
0.168774
0.164521
0.168635
0.178005
0.190138
0.202888
0.214694
0.224737
0.194781
0.190024
0.193598
0.202193
0.213346
0.224989
0.235632
0.220538
0.215281
0.218309
0.22612
0.236285
0.246818
0.256299
0.245988
0.24024
0.242717
0.249736
0.25891
0.268332
0.276657
0.271078
0.264844
0.266769
0.272993
0.281174
0.28949
0.295752
0.289042
0.290413
0.295842
0.303034
0.310251
0.319958
0.312781
0.313601
0.318236
0.324445
0.330574
0.343644
0.336009
0.336281
0.340128
0.345364
0.366758
0.358678
0.358408
0.361474
0.36575
0.389252
0.380738
0.379932
0.38223
0.385562
0.411076
0.402142
0.400811
0.402353
0.404761
0.432185
0.422843
0.420998
0.421802
0.452534
0.442799
0.440453
0.440536
0.472078
0.461966
0.459133
0.458519
0.490776
0.480304
0.477001
0.475713
0.508589
0.497773
0.494019
0.492084
0.525479
0.514336
0.510151
0.541409
0.529959
0.525363
0.556346
0.544607
0.539625
0.570259
0.558251
0.552906
0.583118
0.570861
0.565178
0.594896
0.582411
0.576418
0.605568
0.592877
0.5866
0.615111
0.602235
0.595705
0.623506
0.610468
0.603713
0.630735
0.617556
0.636782
0.623486
0.641635
0.628245
0.645284
0.631823
0.647721
0.634213
0.64894
0.635409
0.64894
0.635409
0.647721
0.634213
0.645284
0.631824
0.641635
0.628246
0.636782
0.623487
0.630735
0.617557
0.623507
0.610468
0.603714
0.615112
0.602236
0.595706
0.605568
0.592877
0.586601
0.594897
0.582412
0.576418
0.583119
0.570862
0.565179
0.57026
0.558252
0.552906
0.556347
0.544608
0.539626
0.54141
0.52996
0.525364
0.52548
0.514337
0.510152
0.50859
0.497774
0.49402
0.492085
0.490777
0.480305
0.477002
0.475715
0.472079
0.461968
0.459135
0.458521
0.452535
0.442801
0.440454
0.440538
0.432187
0.422845
0.421
0.421803
0.411078
0.402143
0.400812
0.402354
0.404762
0.389253
0.380739
0.379934
0.382231
0.385563
0.36676
0.35868
0.358409
0.361476
0.365751
0.343645
0.336011
0.336283
0.34013
0.345365
0.350422
0.31996
0.312782
0.313602
0.318237
0.324446
0.330576
0.295754
0.289044
0.290415
0.295844
0.303035
0.310253
0.271079
0.264846
0.26677
0.272995
0.281176
0.289492
0.24599
0.240241
0.242719
0.249738
0.258911
0.268334
0.276659
0.22054
0.215283
0.218311
0.226122
0.236287
0.246819
0.256301
0.194783
0.190026
0.1936
0.202195
0.213347
0.224991
0.235634
0.168776
0.164523
0.168637
0.178007
0.190139
0.20289
0.214696
0.224738
0.142574
0.13883
0.143476
0.153608
0.16671
0.180561
0.193527
0.204733
0.116235
0.113004
0.118172
0.12905
0.143106
0.158046
0.172166
0.184534
0.194794
0.0898151
0.0870994
0.0927775
0.104384
0.119375
0.13539
0.150655
0.164179
0.175568
0.0633714
0.0611729
0.0673479
0.0796612
0.0955649
0.112637
0.129034
0.143705
0.156218
0.166522
0.0369611
0.0352804
0.0419375
0.0549333
0.0717246
0.0898313
0.107343
0.12315
0.136779
0.148156
0.0106412
0.00947798
0.0166007
0.0302521
0.0479021
0.0670175
0.0856232
0.102551
0.117284
0.129726
-0.0155316
-0.0161789
-0.00860841
0.00566921
0.0241455
0.04424
0.0639158
0.081945
0.097769
0.111264
0.122536
-0.041501
-0.0416354
-0.0336359
-0.018764
0.000502916
0.0215433
0.0422612
0.0613699
0.0782669
0.0928013
0.105066
0.11526
-0.0672108
-0.0668371
-0.0584283
-0.0429964
-0.0229779
-0.00102864
0.0206999
0.0408627
0.0588123
0.0743697
0.087614
0.0987368
-0.0926048
-0.0917302
-0.0829325
-0.0669775
-0.0462495
-0.0234318
-0.000727801
0.0204602
0.0394389
0.0560001
0.0702075
0.0822462
0.0923386
-0.117628
-0.116265
-0.107098
-0.0906579
-0.0692653
-0.0456231
-0.0219822
0.000198677
0.02018
0.0377232
0.0528752
0.0658142
0.0767604
-0.142226
-0.14039
-0.130874
-0.113989
-0.0919792
-0.0675597
-0.0430241
-0.0198859
0.00106866
0.0195692
0.035645
0.0494663
0.0612511
0.0712205
-0.166372
-0.164035
-0.15421
-0.136922
-0.114346
-0.0891995
-0.0638148
-0.0397581
-0.0178629
0.00156769
0.018544
0.0332275
0.0458335
0.056583
-0.190035
-0.187142
-0.177059
-0.159412
-0.136321
-0.110501
-0.0843164
-0.0593833
-0.036583
-0.0162523
0.00159887
0.0171223
0.03053
0.0420425
0.0518722
-0.213116
-0.209704
-0.19938
-0.181411
-0.157861
-0.131425
-0.104492
-0.0787277
-0.0550606
-0.0338624
-0.0151644
0.00117449
0.0153621
0.0276185
0.0381567
0.047174
-0.235571
-0.23167
-0.221125
-0.202875
-0.178924
-0.151931
-0.124305
-0.097758
-0.0732655
-0.051235
-0.0317205
-0.0145928
0.000351045
0.01333
0.0245571
0.0342336
0.04249
-0.257363
-0.252988
-0.242235
-0.223775
-0.19947
-0.171981
-0.14372
-0.116442
-0.0911682
-0.0683432
-0.0480448
-0.0301571
-0.0144827
-0.000804431
0.0110904
0.0214053
0.0302758
-0.278453
-0.273617
-0.262683
-0.244054
-0.219459
-0.191539
-0.162704
-0.134749
-0.10874
-0.085161
-0.0641137
-0.0454966
-0.029119
-0.0147664
-0.00222668
0.00870474
0.0181682
0.0262584
-0.298803
-0.293519
-0.28243
-0.263667
-0.238861
-0.210568
-0.181223
-0.152648
-0.125955
-0.101663
-0.079904
-0.0605901
-0.0435386
-0.028538
-0.0153777
-0.00385252
0.00618226
0.014815
0.0228378
-0.318377
-0.312656
-0.301439
-0.282591
-0.257626
-0.229039
-0.199244
-0.170111
-0.142784
-0.117826
-0.0953937
-0.0754173
-0.0577227
-0.042102
-0.0283464
-0.0162511
-0.00566713
0.0034897
0.0119795
0.0197792
-0.337142
-0.330994
-0.319675
-0.30079
-0.275725
-0.246916
-0.216739
-0.187109
-0.159204
-0.133626
-0.110561
-0.0899587
-0.0716531
-0.0554415
-0.0411172
-0.0284761
-0.0173654
-0.0077037
0.001235
0.00948904
-0.355067
-0.348504
-0.337108
-0.318233
-0.29313
-0.264159
-0.233685
-0.203618
-0.17519
-0.149041
-0.125387
-0.104196
-0.0853127
-0.0685404
-0.0536748
-0.0405129
-0.0288985
-0.0187518
-0.00938249
-0.000693603
-0.372124
-0.365157
-0.353708
-0.334888
-0.309812
-0.280751
-0.250046
-0.21961
-0.190719
-0.164051
-0.139852
-0.11811
-0.0986849
-0.0813833
-0.0660047
-0.0523478
-0.0402532
-0.0296421
-0.0198605
-0.0107557
-0.388287
-0.38093
-0.369451
-0.35073
-0.325742
-0.296665
-0.265797
-0.235063
-0.205769
-0.178634
-0.153937
-0.131686
-0.111754
-0.0939555
-0.0780931
-0.0639676
-0.0514168
-0.0403624
-0.0301872
-0.0206855
-0.403534
-0.395801
-0.384315
-0.365735
-0.340896
-0.311874
-0.280918
-0.249954
-0.220321
-0.192774
-0.167625
-0.144907
-0.124505
-0.106243
-0.089927
-0.0753598
-0.0623775
-0.0509016
-0.0403521
-0.0304727
-0.417849
-0.409754
-0.398281
-0.379883
-0.355251
-0.326357
-0.295386
-0.264264
-0.234355
-0.206452
-0.180901
-0.157758
-0.136926
-0.118234
-0.101494
-0.0865129
-0.0731243
-0.0612492
-0.0503448
-0.0401075
-0.431215
-0.422773
-0.411334
-0.393156
-0.368789
-0.340092
-0.309183
-0.277974
-0.247854
-0.219653
-0.19375
-0.170227
-0.149001
-0.129915
-0.112783
-0.0974161
-0.0836469
-0.0713957
-0.0601564
-0.0495809
-0.443621
-0.434848
-0.423462
-0.40554
-0.381494
-0.353062
-0.322289
-0.291066
-0.260803
-0.232362
-0.206158
-0.1823
-0.160721
-0.141275
-0.123783
-0.10806
-0.093936
-0.0813322
-0.0697781
-0.0588849
-0.45506
-0.445973
-0.434657
-0.417025
-0.393352
-0.365253
-0.33469
-0.303526
-0.273187
-0.244567
-0.218114
-0.193966
-0.172075
-0.152305
-0.134486
-0.118434
-0.103983
-0.0910507
-0.0792022
-0.0680114
-0.465529
-0.456145
-0.444914
-0.427603
-0.404353
-0.376653
-0.346372
-0.315341
-0.284993
-0.256254
-0.229606
-0.205215
-0.183053
-0.162996
-0.144882
-0.128532
-0.11378
-0.100544
-0.0884218
-0.0769532
-0.475027
-0.465364
-0.454234
-0.43727
-0.414491
-0.387251
-0.357324
-0.326499
-0.296211
-0.267415
-0.240626
-0.216038
-0.193646
-0.173339
-0.154963
-0.138345
-0.12332
-0.109806
-0.097431
-0.0857024
-0.483557
-0.473635
-0.462618
-0.446028
-0.423761
-0.397041
-0.367538
-0.33699
-0.306831
-0.27804
-0.251164
-0.226428
-0.203848
-0.183329
-0.164724
-0.147868
-0.132597
-0.118832
-0.106225
-0.0942503
-0.491129
-0.480967
-0.470073
-0.453878
-0.432163
-0.40602
-0.377007
-0.346808
-0.316847
-0.288122
-0.261214
-0.236378
-0.213652
-0.192958
-0.174159
-0.157096
-0.141606
-0.127616
-0.114802
-0.102586
-0.497752
-0.487371
-0.476612
-0.460829
-0.4397
-0.414186
-0.385729
-0.355947
-0.326251
-0.297655
-0.270771
-0.245883
-0.223054
-0.202222
-0.183262
-0.166023
-0.150346
-0.136151
-0.123162
-0.110698
-0.503442
-0.492863
-0.482247
-0.466892
-0.44638
-0.421541
-0.393701
-0.364405
-0.33504
-0.306636
-0.279831
-0.254939
-0.23205
-0.211118
-0.192031
-0.174646
-0.158808
-0.144437
-0.131294
-0.118601
-0.508217
-0.497463
-0.486996
-0.472081
-0.452211
-0.428092
-0.400925
-0.372179
-0.343212
-0.315061
-0.28839
-0.263543
-0.240636
-0.219642
-0.200461
-0.182961
-0.166991
-0.152469
-0.139213
-0.126541
-0.5121
-0.501193
-0.490882
-0.476415
-0.457208
-0.433846
-0.407406
-0.379272
-0.350767
-0.322929
-0.296447
-0.271694
-0.248811
-0.227793
-0.208552
-0.190966
-0.174893
-0.160244
-0.146869
-0.134146
-0.515115
-0.504079
-0.493929
-0.479914
-0.461387
-0.438815
-0.41315
-0.385687
-0.357706
-0.330241
-0.304003
-0.279392
-0.256576
-0.23557
-0.216303
-0.198661
-0.18251
-0.16776
-0.154269
-0.141458
-0.517292
-0.506151
-0.496166
-0.482605
-0.464769
-0.443013
-0.418167
-0.391429
-0.364031
-0.336999
-0.311058
-0.286636
-0.26393
-0.242973
-0.223712
-0.206044
-0.189842
-0.175015
-0.161434
-0.148546
-0.518661
-0.50744
-0.497623
-0.484516
-0.467376
-0.446458
-0.422468
-0.396507
-0.369749
-0.343206
-0.317615
-0.293431
-0.270874
-0.250004
-0.230782
-0.213116
-0.19689
-0.182011
-0.168367
-0.155428
-0.519257
-0.507982
-0.498334
-0.485677
-0.469236
-0.449171
-0.42607
-0.400931
-0.374866
-0.348867
-0.323678
-0.299777
-0.277413
-0.256665
-0.237513
-0.21988
-0.203654
-0.188748
-0.175065
-0.162098
-0.519117
-0.507812
-0.498337
-0.486123
-0.470377
-0.451175
-0.428988
-0.404713
-0.379391
-0.353987
-0.329251
-0.305681
-0.283548
-0.262959
-0.24391
-0.226336
-0.210138
-0.195229
-0.181527
-0.168553
-0.518279
-0.506972
-0.49767
-0.48589
-0.470833
-0.452497
-0.431245
-0.407867
-0.383334
-0.358576
-0.334342
-0.311146
-0.289285
-0.26889
-0.249974
-0.232488
-0.216342
-0.201453
-0.187754
-0.174792
-0.516784
-0.5055
-0.496373
-0.485018
-0.470638
-0.453165
-0.432861
-0.410411
-0.386708
-0.362643
-0.338956
-0.316178
-0.29463
-0.274462
-0.255711
-0.238339
-0.222271
-0.207425
-0.193748
-0.180818
-0.514675
-0.503441
-0.494489
-0.483547
-0.469828
-0.453212
-0.433862
-0.412363
-0.389527
-0.366197
-0.343103
-0.320786
-0.299588
-0.279682
-0.261124
-0.243894
-0.227927
-0.213147
-0.199511
-0.186632
-0.511996
-0.500838
-0.492063
-0.481519
-0.468445
-0.45267
-0.434276
-0.413745
-0.391806
-0.369251
-0.346793
-0.324977
-0.304166
-0.284555
-0.26622
-0.249158
-0.233315
-0.218622
-0.205046
-0.192236
-0.508791
-0.497735
-0.489138
-0.47898
-0.466527
-0.451578
-0.434133
-0.41458
-0.393563
-0.371818
-0.350035
-0.32876
-0.308372
-0.289088
-0.271005
-0.254136
-0.23844
-0.223855
-0.210357
-0.197634
-0.505105
-0.494178
-0.48576
-0.475972
-0.464118
-0.449971
-0.433463
-0.414893
-0.394817
-0.373914
-0.352841
-0.332144
-0.312214
-0.293289
-0.275485
-0.258833
-0.243306
-0.22885
-0.215447
-0.202827
-0.500984
-0.490211
-0.481974
-0.472543
-0.461262
-0.447889
-0.432301
-0.41471
-0.39559
-0.375554
-0.355224
-0.33514
-0.315702
-0.297165
-0.279668
-0.263256
-0.24792
-0.233611
-0.22032
-0.20782
-0.496474
-0.48588
-0.477825
-0.468736
-0.458001
-0.445374
-0.430682
-0.414062
-0.395904
-0.376755
-0.357198
-0.337759
-0.318844
-0.300726
-0.28356
-0.267413
-0.252287
-0.238145
-0.224982
-0.212617
-0.491621
-0.481228
-0.47336
-0.464597
-0.454381
-0.442466
-0.428643
-0.412977
-0.395783
-0.377536
-0.358777
-0.340012
-0.32165
-0.303979
-0.287171
-0.271309
-0.256414
-0.242456
-0.229436
-0.21722
-0.486469
-0.476301
-0.468622
-0.460172
-0.450446
-0.439208
-0.426221
-0.411489
-0.395252
-0.377917
-0.359976
-0.341913
-0.324132
-0.306934
-0.290508
-0.274954
-0.260307
-0.246551
-0.233689
-0.221635
-0.481062
-0.47114
-0.463653
-0.455503
-0.44624
-0.435642
-0.423454
-0.40963
-0.394338
-0.377919
-0.360812
-0.343473
-0.3263
-0.309601
-0.29358
-0.278354
-0.263974
-0.250436
-0.237745
-0.225867
-0.475443
-0.465785
-0.458495
-0.450634
-0.441806
-0.431811
-0.420383
-0.407435
-0.39307
-0.377564
-0.361302
-0.344706
-0.328165
-0.311988
-0.296395
-0.281517
-0.267422
-0.254118
-0.241611
-0.22992
-0.469651
-0.460278
-0.453188
-0.445605
-0.437186
-0.427755
-0.417046
-0.404938
-0.391477
-0.376875
-0.361464
-0.345628
-0.329739
-0.314107
-0.298962
-0.284452
-0.270658
-0.257603
-0.245293
-0.2338
-0.463727
-0.454655
-0.447769
-0.440454
-0.43242
-0.423516
-0.413483
-0.402174
-0.389589
-0.375877
-0.361317
-0.346252
-0.331033
-0.315967
-0.301291
-0.287167
-0.273689
-0.260898
-0.248798
-0.237513
-0.457708
-0.448951
-0.442275
-0.435219
-0.427546
-0.419132
-0.409731
-0.39918
-0.387436
-0.374596
-0.360881
-0.346594
-0.33206
-0.317578
-0.303391
-0.28967
-0.276525
-0.26401
-0.25213
-0.241062
-0.451629
-0.443201
-0.436738
-0.429935
-0.4226
-0.414642
-0.40583
-0.39599
-0.38505
-0.373056
-0.360176
-0.34667
-0.332832
-0.318952
-0.30527
-0.291969
-0.279171
-0.266946
-0.255297
-0.244455
-0.445523
-0.437434
-0.431189
-0.424633
-0.417618
-0.410082
-0.401814
-0.392641
-0.382463
-0.371284
-0.359225
-0.346496
-0.333363
-0.320097
-0.306937
-0.294072
-0.281636
-0.269713
-0.258305
-0.247697
-0.43942
-0.43168
-0.425658
-0.419343
-0.412629
-0.405483
-0.397719
-0.389165
-0.379706
-0.369309
-0.358048
-0.34609
-0.333666
-0.321025
-0.308402
-0.295988
-0.283927
-0.272318
-0.261161
-0.250795
-0.433349
-0.425965
-0.420168
-0.414091
-0.407663
-0.400879
-0.393577
-0.385597
-0.37681
-0.367157
-0.356669
-0.34547
-0.333754
-0.321747
-0.309673
-0.297724
-0.286051
-0.274769
-0.263871
-0.253753
-0.427336
-0.420312
-0.414744
-0.408901
-0.402746
-0.396297
-0.38942
-0.381967
-0.373806
-0.364856
-0.35511
-0.344654
-0.333642
-0.322274
-0.310759
-0.299289
-0.288016
-0.277071
-0.266441
-0.256578
-0.421403
-0.414742
-0.409406
-0.403795
-0.397899
-0.391763
-0.385275
-0.378306
-0.370725
-0.362433
-0.353396
-0.343661
-0.333344
-0.322616
-0.31167
-0.300689
-0.289829
-0.279232
-0.268878
-0.259278
-0.41557
-0.409274
-0.404172
-0.39879
-0.393145
-0.387299
-0.381169
-0.374642
-0.367593
-0.359915
-0.35155
-0.342509
-0.332875
-0.322785
-0.312413
-0.301932
-0.291495
-0.281257
-0.271188
-0.261857
-0.409857
-0.403924
-0.399058
-0.393903
-0.388499
-0.382926
-0.377124
-0.371
-0.364439
-0.35733
-0.349596
-0.34122
-0.33225
-0.322794
-0.312998
-0.303026
-0.293023
-0.283154
-0.273377
-0.264323
-0.404279
-0.398706
-0.394076
-0.389147
-0.383977
-0.37866
-0.37316
-0.367403
-0.361286
-0.354701
-0.347557
-0.339813
-0.331486
-0.322652
-0.313434
-0.303977
-0.294418
-0.284929
-0.275451
-0.266682
-0.398849
-0.393631
-0.389237
-0.384533
-0.37959
-0.374516
-0.369294
-0.363871
-0.358159
-0.352052
-0.345456
-0.338308
-0.330598
-0.322374
-0.31373
-0.304792
-0.295686
-0.286587
-0.393579
-0.388711
-0.38455
-0.380069
-0.375348
-0.370505
-0.365542
-0.360424
-0.355078
-0.349407
-0.343315
-0.336725
-0.329605
-0.321972
-0.313895
-0.30548
-0.296834
-0.388478
-0.383951
-0.380023
-0.375762
-0.371259
-0.366637
-0.361915
-0.357075
-0.352061
-0.346786
-0.341155
-0.335084
-0.328521
-0.321459
-0.313939
-0.383553
-0.379358
-0.375659
-0.371616
-0.367326
-0.362917
-0.358421
-0.353837
-0.349124
-0.344207
-0.338996
-0.333404
-0.327364
-0.320849
-0.378809
-0.374936
-0.371463
-0.367635
-0.363554
-0.359351
-0.355069
-0.350721
-0.34628
-0.341686
-0.336856
-0.331703
-0.374251
-0.370688
-0.367436
-0.36382
-0.359944
-0.35594
-0.351862
-0.347733
-0.343541
-0.339238
-0.334753
-0.36988
-0.366615
-0.363579
-0.36017
-0.356496
-0.352686
-0.348802
-0.344878
-0.340914
-0.336875
-0.365697
-0.362718
-0.35989
-0.356686
-0.353209
-0.349588
-0.345891
-0.34216
-0.338405
-0.361702
-0.358994
-0.356369
-0.353363
-0.35008
-0.346644
-0.343128
-0.33958
-0.357894
-0.355443
-0.353013
-0.3502
-0.347106
-0.343851
-0.34051
-0.354269
-0.352061
-0.349818
-0.347193
-0.344283
-0.341205
-0.350824
-0.348844
-0.346781
-0.344336
-0.341606
-0.347555
-0.345788
-0.343896
-0.341626
-0.344456
-0.342889
-0.341159
-0.341523
-0.34014
-0.338748
-0.337536
-0.336126
-0.203212
-0.207794
-0.212206
-0.216453
-0.220539
-0.224466
-0.22824
-0.231866
-0.235346
-0.238685
-0.241888
-0.244958
-0.247899
-0.250714
-0.253406
-0.255979
-0.196152
-0.200677
-0.205049
-0.20927
-0.213345
-0.217277
-0.221069
-0.224725
-0.228248
-0.231642
-0.234911
-0.238058
-0.241086
-0.243999
-0.2468
-0.249491
-0.189412
-0.193864
-0.19818
-0.202361
-0.20641
-0.210332
-0.214128
-0.217802
-0.221357
-0.224796
-0.228123
-0.231341
-0.234452
-0.237461
-0.240372
-0.243186
-0.182979
-0.187356