/*--------------------------------*- C++ -*----------------------------------*\
  =========                 |
  \\      /  F ield         | OpenFOAM: The Open Source CFD Toolbox
   \\    /   O peration     | Website:  https://openfoam.org
    \\  /    A nd           | Version:  7
     \\/     M anipulation  |
\*---------------------------------------------------------------------------*/
FoamFile
{
    version     2.0;
    format      ascii;
    class       volScalarField;
    location    "75";
    object      p;
}
// * * * * * * * * * * * * * * * * * * * * * * * * * * * * * * * * * * * * * //

dimensions      [0 2 -2 0 0 0 0];

internalField   nonuniform List<scalar> 
8500
(
-0.444963
-0.4481
-0.446234
-0.451433
-0.449383
-0.447193
-0.454967
-0.452713
-0.450361
-0.458705
-0.456228
-0.453705
-0.450754
-0.462652
-0.459932
-0.457227
-0.454097
-0.450668
-0.466808
-0.463828
-0.460931
-0.457614
-0.454002
-0.450244
-0.471173
-0.467916
-0.464818
-0.461308
-0.457507
-0.453562
-0.449554
-0.475748
-0.472197
-0.46889
-0.465179
-0.461183
-0.457045
-0.452833
-0.448578
-0.480529
-0.47667
-0.473147
-0.469229
-0.465031
-0.460691
-0.456264
-0.451761
-0.447148
-0.485514
-0.481333
-0.477586
-0.473457
-0.46905
-0.4645
-0.459843
-0.455072
-0.45013
-0.444914
-0.490698
-0.486182
-0.482207
-0.47786
-0.473239
-0.468468
-0.463566
-0.458503
-0.4532
-0.447536
-0.441369
-0.496075
-0.491214
-0.487005
-0.482436
-0.477593
-0.472591
-0.467424
-0.462042
-0.456342
-0.450189
-0.443436
-0.435957
-0.427673
-0.501637
-0.496422
-0.491976
-0.487181
-0.482109
-0.476861
-0.47141
-0.465677
-0.459541
-0.452853
-0.445469
-0.437279
-0.428235
-0.418361
-0.507375
-0.501799
-0.497112
-0.492087
-0.486778
-0.481271
-0.47551
-0.469392
-0.462777
-0.455507
-0.447446
-0.438507
-0.42868
-0.418027
-0.406674
-0.513278
-0.507335
-0.502406
-0.497147
-0.491593
-0.485808
-0.47971
-0.473171
-0.466032
-0.458131
-0.449347
-0.439625
-0.428992
-0.417556
-0.405476
-0.392942
-0.380123
-0.519333
-0.513019
-0.507847
-0.502351
-0.496541
-0.49046
-0.483995
-0.476993
-0.469281
-0.4607
-0.45115
-0.440613
-0.429159
-0.416938
-0.404142
-0.390981
-0.377633
-0.364304
-0.525526
-0.518837
-0.513422
-0.507686
-0.501609
-0.49521
-0.488345
-0.480836
-0.472501
-0.463191
-0.452834
-0.441453
-0.429167
-0.416164
-0.402667
-0.388898
-0.375042
-0.361291
-0.347562
-0.334698
-0.531837
-0.524775
-0.519118
-0.513137
-0.50678
-0.500039
-0.492737
-0.484674
-0.475665
-0.465579
-0.454377
-0.44213
-0.429004
-0.415226
-0.401043
-0.386688
-0.372345
-0.358191
-0.344156
-0.331003
-0.538249
-0.530813
-0.524916
-0.518686
-0.512036
-0.504925
-0.497146
-0.488481
-0.478747
-0.467837
-0.455756
-0.442625
-0.428657
-0.414114
-0.399264
-0.384343
-0.369535
-0.354995
-0.340669
-0.32724
-0.544737
-0.536933
-0.530798
-0.524314
-0.517353
-0.509843
-0.501544
-0.492227
-0.481717
-0.46994
-0.45695
-0.442921
-0.428113
-0.412819
-0.397322
-0.381858
-0.366603
-0.351697
-0.337093
-0.323398
-0.551279
-0.543112
-0.536741
-0.529997
-0.522708
-0.514766
-0.505903
-0.495881
-0.484545
-0.471861
-0.457937
-0.443003
-0.427361
-0.411333
-0.395209
-0.379224
-0.363544
-0.348288
-0.333418
-0.319468
-0.557847
-0.549323
-0.54272
-0.53571
-0.528071
-0.519663
-0.510189
-0.499412
-0.487202
-0.473575
-0.458698
-0.442855
-0.42639
-0.409645
-0.392917
-0.376433
-0.360347
-0.344759
-0.329637
-0.315442
-0.564411
-0.555541
-0.548707
-0.541424
-0.533414
-0.524501
-0.514368
-0.502784
-0.489656
-0.475055
-0.45921
-0.442461
-0.425187
-0.407747
-0.390439
-0.373478
-0.357005
-0.341101
-0.32574
-0.311311
-0.570938
-0.561733
-0.554674
-0.547107
-0.538701
-0.529244
-0.518404
-0.505965
-0.491877
-0.476276
-0.459455
-0.441806
-0.42374
-0.405629
-0.387764
-0.370348
-0.353509
-0.337306
-0.321718
-0.307066
-0.577395
-0.567868
-0.560586
-0.552726
-0.543897
-0.533857
-0.52226
-0.508918
-0.493834
-0.477212
-0.459413
-0.440876
-0.422039
-0.403281
-0.384883
-0.367037
-0.34985
-0.333364
-0.317563
-0.302699
-0.583744
-0.573911
-0.566409
-0.558244
-0.548965
-0.538298
-0.525898
-0.511608
-0.495497
-0.47784
-0.459065
-0.439656
-0.420072
-0.400692
-0.381789
-0.363534
-0.346018
-0.329267
-0.313267
-0.298202
-0.589947
-0.579824
-0.572105
-0.563623
-0.553864
-0.542528
-0.529277
-0.514
-0.496835
-0.478136
-0.458394
-0.438132
-0.417828
-0.397855
-0.378471
-0.35983
-0.342005
-0.325006
-0.308821
-0.293567
-0.595962
-0.585569
-0.577635
-0.568821
-0.558551
-0.546505
-0.532359
-0.516059
-0.497821
-0.478078
-0.457381
-0.436292
-0.415295
-0.394757
-0.374919
-0.355916
-0.337802
-0.320572
-0.304216
-0.288786
-0.601748
-0.591103
-0.582957
-0.573796
-0.562984
-0.550186
-0.535104
-0.51775
-0.498425
-0.477642
-0.456011
-0.434121
-0.412462
-0.391389
-0.371124
-0.351782
-0.3334
-0.315958
-0.299444
-0.283852
-0.607259
-0.596384
-0.588028
-0.578505
-0.567118
-0.553527
-0.537473
-0.519041
-0.498622
-0.47681
-0.454267
-0.431606
-0.409318
-0.387741
-0.367077
-0.34742
-0.32879
-0.311153
-0.294499
-0.278758
-0.612451
-0.601369
-0.592804
-0.5829
-0.570908
-0.556487
-0.539427
-0.519898
-0.498385
-0.47556
-0.452133
-0.428736
-0.405852
-0.383803
-0.362768
-0.34282
-0.323964
-0.306152
-0.289372
-0.273497
-0.617277
-0.606011
-0.597238
-0.586937
-0.574308
-0.559022
-0.540928
-0.52029
-0.497689
-0.473874
-0.449596
-0.425498
-0.402054
-0.379565
-0.358188
-0.337974
-0.318913
-0.300945
-0.284056
-0.268063
-0.621691
-0.610265
-0.601285
-0.590569
-0.577273
-0.56109
-0.54194
-0.520187
-0.496513
-0.471734
-0.44664
-0.421881
-0.397914
-0.375019
-0.353327
-0.332874
-0.313629
-0.295526
-0.278545
-0.26245
-0.625646
-0.614085
-0.604897
-0.593748
-0.579758
-0.562649
-0.542427
-0.519562
-0.494833
-0.469123
-0.443254
-0.417873
-0.393421
-0.370153
-0.348178
-0.32751
-0.308105
-0.289889
-0.272833
-0.256652
-0.629094
-0.617423
-0.608026
-0.596429
-0.581717
-0.563661
-0.542357
-0.518388
-0.49263
-0.466027
-0.439424
-0.413464
-0.388567
-0.364961
-0.342732
-0.321876
-0.302334
-0.284025
-0.266913
-0.250664
-0.631987
-0.620232
-0.610627
-0.598563
-0.583109
-0.564086
-0.541698
-0.51664
-0.489884
-0.46243
-0.43514
-0.408644
-0.383341
-0.359433
-0.336981
-0.315965
-0.29631
-0.27793
-0.26078
-0.244482
-0.63428
-0.622467
-0.612653
-0.600108
-0.58389
-0.563889
-0.540419
-0.514296
-0.48658
-0.458321
-0.430389
-0.403404
-0.377737
-0.353561
-0.330918
-0.309769
-0.290026
-0.271599
-0.254429
-0.238102
-0.635928
-0.624083
-0.614059
-0.601019
-0.584022
-0.563036
-0.538495
-0.511335
-0.482701
-0.453685
-0.425164
-0.397736
-0.371745
-0.347339
-0.324537
-0.303282
-0.283477
-0.265025
-0.247856
-0.231519
-0.636887
-0.625035
-0.614802
-0.601255
-0.583466
-0.561494
-0.5359
-0.507738
-0.478233
-0.448514
-0.419455
-0.391632
-0.36536
-0.340761
-0.317831
-0.2965
-0.276658
-0.258205
-0.241058
-0.224731
-0.637115
-0.625282
-0.614838
-0.600774
-0.582187
-0.559235
-0.532612
-0.503488
-0.473165
-0.442798
-0.413254
-0.385084
-0.358574
-0.333819
-0.310796
-0.289417
-0.269564
-0.251135
-0.23403
-0.217734
-0.636571
-0.624782
-0.614129
-0.599541
-0.580152
-0.556232
-0.52861
-0.498571
-0.467485
-0.436528
-0.406554
-0.378087
-0.351383
-0.32651
-0.303425
-0.28203
-0.262193
-0.243812
-0.22677
-0.210527
-0.635217
-0.623497
-0.612636
-0.597519
-0.577331
-0.552461
-0.523877
-0.492975
-0.461185
-0.429698
-0.39935
-0.370637
-0.343782
-0.318829
-0.295717
-0.274334
-0.254541
-0.236234
-0.219277
-0.203111
-0.633018
-0.621391
-0.610324
-0.594676
-0.573697
-0.547901
-0.518398
-0.486689
-0.454259
-0.422303
-0.391638
-0.362728
-0.335766
-0.310772
-0.287667
-0.266328
-0.246605
-0.228397
-0.21155
-0.195488
-0.629941
-0.618431
-0.607161
-0.590984
-0.569225
-0.542534
-0.51216
-0.479706
-0.446699
-0.414338
-0.383415
-0.354359
-0.327335
-0.302338
-0.279275
-0.258009
-0.238385
-0.220299
-0.203585
-0.187653
-0.625956
-0.614586
-0.603117
-0.586416
-0.563896
-0.536346
-0.505155
-0.472019
-0.438503
-0.405801
-0.374677
-0.345527
-0.318485
-0.293525
-0.270537
-0.249376
-0.229878
-0.211941
-0.195377
-0.179562
-0.621037
-0.609829
-0.598166
-0.58095
-0.557691
-0.529325
-0.497375
-0.463624
-0.429669
-0.396692
-0.365425
-0.336232
-0.309216
-0.284332
-0.261456
-0.240431
-0.221087
-0.203328
-0.186932
-0.171184
-0.615159
-0.604135
-0.592286
-0.574566
-0.550597
-0.521461
-0.488815
-0.454521
-0.420197
-0.38701
-0.35566
-0.326474
-0.29953
-0.274761
-0.25203
-0.231173
-0.212014
-0.194461
-0.178266
-0.162654
-0.608304
-0.597485
-0.585457
-0.56725
-0.542603
-0.512749
-0.479473
-0.444708
-0.410088
-0.376757
-0.345382
-0.316255
-0.289427
-0.264812
-0.242263
-0.221604
-0.20266
-0.185337
-0.169336
-0.153977
-0.600455
-0.589861
-0.577664
-0.558988
-0.533702
-0.503187
-0.469351
-0.43419
-0.399345
-0.365937
-0.334595
-0.305577
-0.27891
-0.254489
-0.232155
-0.211726
-0.193028
-0.175959
-0.160183
-0.145092
-0.591598
-0.58125
-0.568896
-0.549774
-0.52389
-0.492774
-0.458451
-0.42297
-0.387975
-0.354555
-0.323304
-0.294446
-0.267983
-0.243794
-0.221711
-0.201546
-0.183118
-0.166331
-0.150809
-0.135995
-0.581726
-0.571641
-0.559143
-0.539602
-0.513167
-0.481514
-0.446779
-0.411056
-0.375982
-0.342617
-0.311514
-0.282866
-0.256651
-0.232734
-0.210937
-0.191065
-0.172937
-0.156458
-0.141216
-0.126692
-0.570834
-0.56103
-0.548403
-0.528472
-0.501535
-0.469413
-0.434343
-0.398456
-0.363376
-0.33013
-0.299232
-0.270844
-0.244921
-0.221313
-0.199836
-0.18029
-0.162489
-0.146344
-0.131404
-0.117188
-0.558918
-0.549414
-0.536674
-0.516386
-0.489001
-0.45648
-0.421153
-0.385179
-0.350168
-0.317105
-0.286468
-0.258388
-0.232799
-0.209539
-0.188416
-0.169225
-0.151782
-0.135995
-0.12138
-0.107492
-0.545983
-0.536795
-0.523959
-0.50335
-0.475574
-0.442727
-0.407222
-0.37124
-0.336368
-0.303552
-0.273231
-0.245507
-0.220294
-0.19742
-0.176684
-0.157879
-0.14082
-0.125417
-0.111147
-0.0976081
-0.532034
-0.523178
-0.510267
-0.489375
-0.461267
-0.428168
-0.392565
-0.356653
-0.32199
-0.289483
-0.259532
-0.232211
-0.207416
-0.184964
-0.164649
-0.146259
-0.129612
-0.114618
-0.100714
-0.0875441
-0.517081
-0.508573
-0.495607
-0.474473
-0.446096
-0.412819
-0.377199
-0.341433
-0.307049
-0.274911
-0.245384
-0.218512
-0.194175
-0.172181
-0.15232
-0.134375
-0.118166
-0.103604
-0.0900865
-0.0773068
-0.501138
-0.492992
-0.479994
-0.458662
-0.430077
-0.3967
-0.361142
-0.325598
-0.291561
-0.259853
-0.2308
-0.204422
-0.180583
-0.159083
-0.139707
-0.122236
-0.106491
-0.0923844
-0.0792737
-0.0669041
-0.484222
-0.476452
-0.463445
-0.44196
-0.413234
-0.379832
-0.344416
-0.309168
-0.275545
-0.244324
-0.215795
-0.189956
-0.166654
-0.145682
-0.126821
-0.109852
-0.0945967
-0.0809687
-0.0682842
-0.0563445
-0.466353
-0.458972
-0.445982
-0.42439
-0.395589
-0.362241
-0.327045
-0.292163
-0.25902
-0.228342
-0.200387
-0.175127
-0.1524
-0.13199
-0.113676
-0.0972354
-0.0824948
-0.0693668
-0.0571277
-0.045637
-0.447555
-0.440576
-0.427628
-0.405978
-0.377169
-0.343952
-0.309049
-0.274609
-0.242006
-0.211926
-0.184591
-0.159953
-0.137837
-0.118022
-0.100284
-0.0843984
-0.0701964
-0.0575898
-0.0458147
-0.0347917
-0.427855
-0.42129
-0.408411
-0.386753
-0.358005
-0.324991
-0.290456
-0.256529
-0.224527
-0.195096
-0.168426
-0.14445
-0.122981
-0.103792
-0.086658
-0.0713539
-0.0577141
-0.0456493
-0.0343564
-0.0238193
-0.407283
-0.401144
-0.38836
-0.366745
-0.338128
-0.305385
-0.271299
-0.237947
-0.206604
-0.177873
-0.151913
-0.128636
-0.107847
-0.0893162
-0.0728138
-0.058116
-0.0450611
-0.0335579
-0.022765
-0.0127321
-0.385871
-0.38017
-0.36751
-0.345994
-0.317555
-0.285174
-0.251603
-0.218891
-0.188264
-0.160281
-0.135071
-0.112531
-0.0924549
-0.0746103
-0.0587664
-0.044699
-0.0322513
-0.0213286
-0.0110534
-0.00154355
-0.363655
-0.358404
-0.345898
-0.324543
-0.296321
-0.264385
-0.231399
-0.19939
-0.169531
-0.142342
-0.117922
-0.0961529
-0.0768213
-0.0596914
-0.0445316
-0.0311181
-0.0192992
-0.00897536
0.000764574
-0.340672
-0.335884
-0.323559
-0.302377
-0.274511
-0.243056
-0.210721
-0.179472
-0.150433
-0.12408
-0.100489
-0.0795234
-0.0609657
-0.0445773
-0.0301258
-0.0173889
-0.00621988
0.0034875
-0.316962
-0.31265
-0.300532
-0.279585
-0.252123
-0.221224
-0.189602
-0.15917
-0.130997
-0.105522
-0.0827937
-0.0626637
-0.0449077
-0.0292859
-0.0155659
-0.00352726
0.00697112
-0.292563
-0.288746
-0.276855
-0.256209
-0.2292
-0.198925
-0.168077
-0.138514
-0.111253
-0.086694
-0.0648615
-0.0455958
-0.0286675
-0.0138358
-0.000868841
0.0104507
-0.267514
-0.264227
-0.252582
-0.232283
-0.205787
-0.176198
-0.146181
-0.117536
-0.0912299
-0.0676224
-0.0467168
-0.0283424
-0.0122658
0.00175398
0.013948
0.024529
-0.241867
-0.239139
-0.227762
-0.207853
-0.181926
-0.153084
-0.123952
-0.0962718
-0.0709583
-0.0483354
-0.0283851
-0.0109267
0.00427608
0.0174643
0.0288674
-0.215721
-0.213492
-0.202438
-0.182965
-0.157663
-0.129623
-0.101426
-0.0747541
-0.0504695
-0.0288616
-0.0098925
0.00662721
0.0209364
0.0332754
-0.189103
-0.187349
-0.176659
-0.157667
-0.133043
-0.105858
-0.0786426
-0.0530182
-0.0297956
-0.00923035
0.00873409
0.0242949
0.0376928
0.0491674
-0.162042
-0.160777
-0.150476
-0.132008
-0.108111
-0.08183
-0.0556403
-0.0310999
-0.00896929
0.0105286
0.0274674
0.0420514
0.0545224
-0.134593
-0.133832
-0.123939
-0.106037
-0.0829141
-0.0575834
-0.032459
-0.00903545
0.0119764
0.0303848
0.0462795
0.0598709
0.0714017
-0.106815
-0.106565
-0.0971024
-0.0798044
-0.0575005
-0.0331618
-0.00913883
0.0131384
0.0330078
0.0503075
0.0651421
0.077727
-0.0787622
-0.0790292
-0.0700185
-0.0533617
-0.0319177
-0.00860937
0.0142796
0.0353845
0.0540909
0.0702653
0.084026
-0.0504921
-0.0512802
-0.042742
-0.0267606
-0.0062142
0.0160291
0.0377554
0.0576655
0.0751913
0.0902265
0.102902
-0.0220623
-0.0233741
-0.0153277
-5.31309e-05
0.0195614
0.0407087
0.0612474
0.0799435
0.0962744
0.110159
0.00646963
0.00463284
0.0121694
0.0267083
0.0453602
0.0653844
0.0847144
0.102181
0.117306
0.130032
0.0350458
0.0326839
0.0396941
0.0534713
0.0711334
0.0900114
0.108115
0.12434
0.13825
0.149812
0.0636082
0.0607222
0.0671912
0.0801834
0.0968323
0.114545
0.131408
0.146383
0.159073
0.092099
0.0886907
0.0946054
0.106792
0.122408
0.138939
0.154553
0.168272
0.17974
0.12046
0.116533
0.121882
0.133246
0.147813
0.163151
0.177509
0.18997
0.148635
0.144192
0.148966
0.159494
0.172998
0.187136
0.200235
0.211439
0.176566
0.171612
0.175803
0.185483
0.197917
0.210851
0.222692
0.204196
0.198737
0.20234
0.211164
0.222522
0.234252
0.244839
0.23147
0.225512
0.228524
0.236488
0.246768
0.257296
0.266638
0.258332
0.251885
0.254303
0.261404
0.270609
0.279944
0.28473
0.2778
0.279626
0.285865
0.294001
0.302152
0.310609
0.303206
0.304443
0.309825
0.3169
0.323882
0.335918
0.328053
0.328704
0.333236
0.339263
0.360606
0.352291
0.352363
0.356055
0.36105
0.384624
0.37587
0.375372
0.378237
0.38222
0.407924
0.398745
0.397687
0.399742
0.402734
0.43046
0.42087
0.419265
0.420527
0.452188
0.4422
0.440063
0.440554
0.473063
0.462695
0.460041
0.459785
0.493046
0.482314
0.479161
0.478184
0.512097
0.501018
0.497385
0.495717
0.530179
0.51877
0.51468
0.547256
0.535537
0.531011
0.563296
0.551286
0.546349
0.578268
0.565986
0.560663
0.592142
0.57961
0.573928
0.604892
0.59213
0.586118
0.616495
0.603525
0.59721
0.626928
0.613771
0.607185
0.636171
0.622851
0.616025
0.644208
0.630747
0.651024
0.637446
0.656608
0.642934
0.660948
0.647204
0.664039
0.650247
0.665875
0.65206
0.666455
0.65264
0.665779
0.651988
0.66385
0.650107
0.660674
0.647003
0.656259
0.642682
0.650615
0.637157
0.643755
0.630439
0.623503
0.635696
0.622543
0.615831
0.626454
0.613488
0.607031
0.616051
0.603294
0.59712
0.60451
0.591982
0.586121
0.591854
0.579577
0.574057
0.578113
0.566107
0.560954
0.563315
0.5516
0.546839
0.547492
0.536087
0.531742
0.530678
0.519602
0.515696
0.513582
0.512909
0.50218
0.498733
0.497278
0.494224
0.483859
0.48089
0.480122
0.474661
0.464676
0.462204
0.462149
0.454264
0.444675
0.442713
0.443394
0.433075
0.423896
0.42246
0.423898
0.426162
0.411139
0.402385
0.401487
0.403698
0.406909
0.388504
0.380187
0.379836
0.382838
0.387017
0.365218
0.35735
0.357555
0.361358
0.366524
0.371466
0.34133
0.333923
0.33469
0.339304
0.345471
0.351515
0.316892
0.309955
0.311289
0.316721
0.3239
0.331062
0.291955
0.285499
0.287402
0.293655
0.301853
0.310147
0.266574
0.260607
0.263078
0.270152
0.279375
0.28881
0.2971
0.240802
0.235331
0.23837
0.246263
0.256511
0.267092
0.276574
0.214694
0.209726
0.213329
0.222035
0.233306
0.245035
0.255716
0.188307
0.183848
0.188008
0.197518
0.209806
0.222682
0.234564
0.244636
0.161697
0.157751
0.162461
0.172764
0.186059
0.200076
0.213159
0.224433
0.13492
0.131491
0.136742
0.147824
0.162112
0.177261
0.191541
0.204016
0.214343
0.108035
0.105126
0.110906
0.122748
0.138012
0.15428
0.169749
0.183423
0.194918
0.081098
0.0787109
0.085007
0.0975888
0.113808
0.131179
0.147825
0.16269
0.17535
0.185766
0.0541675
0.0523029
0.0591005
0.0723987
0.089549
0.108002
0.125809
0.141855
0.155674
0.167202
0.0273007
0.0259584
0.0332411
0.0472294
0.0652827
0.0847926
0.103743
0.120956
0.135923
0.148557
0.000554805
-0.000266481
0.00748369
0.0221331
0.041058
0.061597
0.0816679
0.100031
0.116134
0.129864
0.141339
-0.0260131
-0.0263161
-0.0181175
-0.0028384
0.0169233
0.0384594
0.0596244
0.0791171
0.0963397
0.111153
0.123662
0.134075
-0.0523464
-0.0521354
-0.0435082
-0.0276335
-0.00707324
0.0154244
0.0376534
0.0582516
0.0765751
0.0924565
0.105987
0.117369
-0.0783881
-0.0776695
-0.0686347
-0.052201
-0.0308835
-0.00746378
0.0157955
0.0374717
0.056874
0.0738057
0.0883427
0.100681
0.11105
-0.104085
-0.102867
-0.0934453
-0.0764909
-0.0544605
-0.0301615
-0.00590926
0.0168141
0.0372702
0.0552316
0.0707578
0.0840377
0.0953
-0.129377
-0.127678
-0.117888
-0.100453
-0.0777575
-0.0526254
-0.0274212
-0.00368478
0.017797
0.0367646
0.0532603
0.0674653
0.0796063
0.0899114
-0.154218
-0.152043
-0.141913
-0.12404
-0.100728
-0.074813
-0.0487011
-0.0239893
-0.00151308
0.0184348
0.0358778
0.0509888
0.0639921
0.0751157
-0.1786
-0.175886
-0.16547
-0.147203
-0.123328
-0.0966822
-0.0697106
-0.0440643
-0.0206278
0.000271569
0.0186373
0.034633
0.04848
0.0604061
0.0706297
-0.202444
-0.199183
-0.188515
-0.169897
-0.145513
-0.118192
-0.090412
-0.0638754
-0.0395159
-0.0176964
0.00156512
0.018422
0.0330918
0.0458021
0.0567719
0.0662038
-0.225674
-0.221906
-0.211003
-0.192074
-0.16724
-0.139302
-0.110769
-0.0833889
-0.0581466
-0.0354411
-0.0153131
0.00237927
0.0178491
0.031323
0.0430205
0.0531479
0.0618376
-0.248253
-0.244002
-0.232884
-0.213694
-0.188467
-0.159974
-0.130744
-0.102572
-0.07649
-0.0529352
-0.0319723
-0.0134723
0.00277275
0.0169879
0.0293926
0.0401955
0.0495344
-0.270143
-0.265423
-0.254108
-0.234721
-0.209155
-0.180168
-0.150305
-0.121394
-0.0945171
-0.0701522
-0.0483883
-0.0291104
-0.0121169
0.00281538
0.0159051
0.0273625
0.0373301
0.0459074
-0.291305
-0.286128
-0.274644
-0.255097
-0.229274
-0.199845
-0.169416
-0.139822
-0.1122
-0.0870666
-0.0645378
-0.0445137
-0.0268
-0.0111764
0.0025749
0.0146647
0.0252401
0.0343944
0.0429483
-0.311701
-0.30608
-0.294454
-0.274793
-0.248789
-0.218965
-0.188047
-0.157828
-0.129511
-0.103654
-0.080398
-0.0596613
-0.0412575
-0.0249697
-0.0105815
0.00211774
0.0132797
0.0229931
0.0320474
0.0403845
-0.331295
-0.325242
-0.313501
-0.293771
-0.267602
-0.237549
-0.206168
-0.175383
-0.146426
-0.11989
-0.0959473
-0.0745333
-0.0554709
-0.0385473
-0.0235482
-0.0102631
0.0014635
0.0117177
0.0212548
0.0300792
-0.350057
-0.343581
-0.331752
-0.312006
-0.285751
-0.2555
-0.223744
-0.192459
-0.162918
-0.135752
-0.111165
-0.0891106
-0.0694225
-0.0518928
-0.0363095
-0.022463
-0.0101941
0.000581561
0.0105837
0.0198768
-0.367955
-0.36107
-0.349177
-0.329464
-0.303194
-0.272798
-0.240749
-0.209031
-0.178964
-0.151219
-0.126031
-0.103375
-0.0830953
-0.0649903
-0.0488506
-0.0344679
-0.0216795
-0.0104023
4.70546e-05
0.00979036
-0.384962
-0.37768
-0.365749
-0.346114
-0.319893
-0.289427
-0.257153
-0.225076
-0.194543
-0.16627
-0.140527
-0.117309
-0.0964733
-0.0778248
-0.0611573
-0.0462642
-0.0329799
-0.0212218
-0.0103435
-0.000168392
-0.401055
-0.393388
-0.381443
-0.36193
-0.335822
-0.30536
-0.272938
-0.240569
-0.209632
-0.180886
-0.154635
-0.130896
-0.109541
-0.0903821
-0.0732162
-0.0578393
-0.0440832
-0.0318654
-0.0205769
-0.00998876
-0.416213
-0.408176
-0.396238
-0.37689
-0.350957
-0.320574
-0.288079
-0.255488
-0.224212
-0.19505
-0.168339
-0.144122
-0.122285
-0.102649
-0.0850148
-0.0691813
-0.0549781
-0.0423225
-0.030643
-0.019661
-0.430418
-0.422025
-0.410117
-0.390975
-0.365277
-0.335046
-0.302555
-0.269815
-0.238265
-0.208743
-0.181623
-0.156972
-0.134692
-0.114613
-0.0965413
-0.080279
-0.0656541
-0.0525833
-0.0405323
-0.0291761
-0.443658
-0.434925
-0.423065
-0.404169
-0.378765
-0.348757
-0.316346
-0.283531
-0.251774
-0.221953
-0.194474
-0.169432
-0.146749
-0.126262
-0.107785
-0.0911223
-0.0761015
-0.0626387
-0.0502362
-0.0385257
-0.455921
-0.446864
-0.435072
-0.416457
-0.391404
-0.36169
-0.329436
-0.296621
-0.264725
-0.234663
-0.206878
-0.181492
-0.158445
-0.137587
-0.118736
-0.101702
-0.0863115
-0.0724804
-0.0597467
-0.0477022
-0.467202
-0.457837
-0.446131
-0.427831
-0.403182
-0.37383
-0.34181
-0.309069
-0.277104
-0.246862
-0.218824
-0.193141
-0.169771
-0.148577
-0.129385
-0.112009
-0.096276
-0.0821009
-0.0690567
-0.0566982
-0.477498
-0.467844
-0.456238
-0.438285
-0.41409
-0.385168
-0.353455
-0.320863
-0.288898
-0.25854
-0.230302
-0.204368
-0.180717
-0.159225
-0.139725
-0.122036
-0.105988
-0.0914935
-0.07816
-0.0655071
-0.48681
-0.476885
-0.465395
-0.447816
-0.424123
-0.395693
-0.364361
-0.331993
-0.300098
-0.269685
-0.241304
-0.215167
-0.191276
-0.169522
-0.149748
-0.131777
-0.115441
-0.100652
-0.0870516
-0.0741219
-0.495144
-0.484966
-0.473604
-0.456424
-0.433276
-0.405401
-0.37452
-0.34245
-0.310696
-0.280291
-0.251821
-0.22553
-0.201442
-0.179464
-0.159448
-0.141225
-0.124629
-0.109572
-0.0957279
-0.0825358
-0.502508
-0.492098
-0.480875
-0.464116
-0.441552
-0.414287
-0.383927
-0.352227
-0.320683
-0.29035
-0.261848
-0.23545
-0.211208
-0.189044
-0.168821
-0.150377
-0.133547
-0.118248
-0.104187
-0.0907432
-0.508915
-0.498293
-0.487219
-0.470898
-0.448954
-0.422353
-0.392579
-0.36132
-0.330056
-0.299858
-0.271379
-0.244925
-0.220571
-0.198258
-0.177862
-0.159227
-0.142193
-0.126674
-0.112428
-0.0987458
-0.51438
-0.503569
-0.492652
-0.476783
-0.45549
-0.4296
-0.400476
-0.369727
-0.33881
-0.308812
-0.280412
-0.25395
-0.229527
-0.207104
-0.186567
-0.167772
-0.150563
-0.134847
-0.120414
-0.106593
-0.518925
-0.507946
-0.497192
-0.481788
-0.46117
-0.436036
-0.407619
-0.377447
-0.346945
-0.317208
-0.288944
-0.262523
-0.238075
-0.215579
-0.194936
-0.176011
-0.158654
-0.14277
-0.12818
-0.114296
-0.522572
-0.511447
-0.500863
-0.48593
-0.466009
-0.441669
-0.414013
-0.384482
-0.35446
-0.325047
-0.296975
-0.270644
-0.246213
-0.223682
-0.202966
-0.183942
-0.166465
-0.150441
-0.135709
-0.121716
-0.525347
-0.514101
-0.503691
-0.489234
-0.470025
-0.446512
-0.419667
-0.390835
-0.361359
-0.33233
-0.304504
-0.278313
-0.253942
-0.231413
-0.210658
-0.191563
-0.173993
-0.157853
-0.142997
-0.128883
-0.52728
-0.515937
-0.505704
-0.491724
-0.473239
-0.45058
-0.42459
-0.396515
-0.367643
-0.339059
-0.311535
-0.285532
-0.261263
-0.238773
-0.218012
-0.198876
-0.181239
-0.165006
-0.150047
-0.135836
-0.528404
-0.516988
-0.506935
-0.493431
-0.475674
-0.453891
-0.428796
-0.401528
-0.37332
-0.345239
-0.31807
-0.292303
-0.268177
-0.245764
-0.225028
-0.20588
-0.188202
-0.171901
-0.156864
-0.142581
-0.528753
-0.517291
-0.507419
-0.494386
-0.47736
-0.456467
-0.432298
-0.405887
-0.378396
-0.350874
-0.324114
-0.298629
-0.27469
-0.252389
-0.231711
-0.212579
-0.194886
-0.17854
-0.163446
-0.149116
-0.528367
-0.516883
-0.507194
-0.494625
-0.478325
-0.458332
-0.435117
-0.409602
-0.382881
-0.355972
-0.329672
-0.304517
-0.280803
-0.258651
-0.238062
-0.218975
-0.201293
-0.184926
-0.169794
-0.155436
-0.527283
-0.515804
-0.506299
-0.494185
-0.478603
-0.459514
-0.437272
-0.412691
-0.386786
-0.36054
-0.33475
-0.309971
-0.286524
-0.264555
-0.244086
-0.225072
-0.207424
-0.191059
-0.17591
-0.161545
-0.525545
-0.514097
-0.504777
-0.493106
-0.47823
-0.460041
-0.438787
-0.415169
-0.390124
-0.364589
-0.339358
-0.314997
-0.291857
-0.270106
-0.249788
-0.230872
-0.213284
-0.196943
-0.181796
-0.167442
-0.523196
-0.511805
-0.50267
-0.49143
-0.477243
-0.459947
-0.439686
-0.417057
-0.392908
-0.36813
-0.343502
-0.319605
-0.29681
-0.27531
-0.255172
-0.236382
-0.218877
-0.202582
-0.187455
-0.173131
-0.52028
-0.508972
-0.500023
-0.489199
-0.475683
-0.459265
-0.439999
-0.418376
-0.395156
-0.371175
-0.347194
-0.323802
-0.301389
-0.280174
-0.260245
-0.241606
-0.224207
-0.207978
-0.19289
-0.178614
-0.516842
-0.505644
-0.496881
-0.486459
-0.473592
-0.458032
-0.439756
-0.41915
-0.396884
-0.373738
-0.350445
-0.327597
-0.305603
-0.284706
-0.265014
-0.24655
-0.229279
-0.213137
-0.198104
-0.183894
-0.512929
-0.501866
-0.493291
-0.483256
-0.471011
-0.456288
-0.438988
-0.419403
-0.398114
-0.375833
-0.353266
-0.331001
-0.309461
-0.288913
-0.269486
-0.251221
-0.234098
-0.218064
-0.203103
-0.188974
-0.508587
-0.497684
-0.489298
-0.479633
-0.467986
-0.454071
-0.437729
-0.419164
-0.398865
-0.377478
-0.35567
-0.334023
-0.312973
-0.292803
-0.273667
-0.255625
-0.238672
-0.222763
-0.207889
-0.193857
-0.503862
-0.493145
-0.48495
-0.47564
-0.464561
-0.451423
-0.436016
-0.418461
-0.39916
-0.378688
-0.357671
-0.336676
-0.316147
-0.296386
-0.277567
-0.25977
-0.243005
-0.22724
-0.212469
-0.198548
-0.498801
-0.488292
-0.48029
-0.47132
-0.460781
-0.448385
-0.433884
-0.417325
-0.399024
-0.379484
-0.359284
-0.338972
-0.318994
-0.29967
-0.281193
-0.263662
-0.247106
-0.231501
-0.216847
-0.203051
-0.493449
-0.483171
-0.475364
-0.466719
-0.456692
-0.445002
-0.431373
-0.415788
-0.398482
-0.379885
-0.360524
-0.340922
-0.321526
-0.302665
-0.284555
-0.267311
-0.25098
-0.235552
-0.221029
-0.20737
-0.487849
-0.477823
-0.470215
-0.461882
-0.452336
-0.441315
-0.428521
-0.413883
-0.397562
-0.379912
-0.361407
-0.342541
-0.323752
-0.305381
-0.28766
-0.270724
-0.254636
-0.2394
-0.225021
-0.211511
-0.482045
-0.472291
-0.464885
-0.456851
-0.447758
-0.437366
-0.425368
-0.411645
-0.39629
-0.379587
-0.361951
-0.34384
-0.325684
-0.307828
-0.290518
-0.273909
-0.25808
-0.243052
-0.228828
-0.215477
-0.476077
-0.466613
-0.459414
-0.451667
-0.443001
-0.433198
-0.421953
-0.409109
-0.394697
-0.378933
-0.362173
-0.344836
-0.327334
-0.310015
-0.293138
-0.276874
-0.261321
-0.246513
-0.232456
-0.219275
-0.469986
-0.460829
-0.45384
-0.44637
-0.438104
-0.428852
-0.418315
-0.406309
-0.392812
-0.377975
-0.362092
-0.345542
-0.328714
-0.311953
-0.295529
-0.279629
-0.264366
-0.249792
-0.235913
-0.22291
-0.463809
-0.454973
-0.448198
-0.440997
-0.433106
-0.424368
-0.414494
-0.403282
-0.390666
-0.376737
-0.361728
-0.345973
-0.329835
-0.313652
-0.2977
-0.28218
-0.267222
-0.252894
-0.239203
-0.226387
-0.457581
-0.449079
-0.442523
-0.435583
-0.428045
-0.419783
-0.410527
-0.400064
-0.388291
-0.375244
-0.361101
-0.346145
-0.33071
-0.315122
-0.29966
-0.284537
-0.269897
-0.255828
-0.242333
-0.229712
-0.451335
-0.443178
-0.436845
-0.430159
-0.422953
-0.415134
-0.40645
-0.396689
-0.385717
-0.373524
-0.360232
-0.346074
-0.331352
-0.316373
-0.301418
-0.286706
-0.272398
-0.258599
-0.24531
-0.23289
-0.445103
-0.437299
-0.431193
-0.424756
-0.417864
-0.410454
-0.4023
-0.393192
-0.382977
-0.371603
-0.359142
-0.345777
-0.331772
-0.317416
-0.302981
-0.288697
-0.274733
-0.261215
-0.24814
-0.235926
-0.438911
-0.431468
-0.425592
-0.4194
-0.412805
-0.405774
-0.398109
-0.389606
-0.380101
-0.369509
-0.357853
-0.345271
-0.331985
-0.318259
-0.30436
-0.290516
-0.276909
-0.263682
-0.250828
-0.238827
-0.432786
-0.425708
-0.420066
-0.414115
-0.407803
-0.401124
-0.393907
-0.385963
-0.377121
-0.367268
-0.356388
-0.344572
-0.332002
-0.318915
-0.305561
-0.292171
-0.278932
-0.266006
-0.25338
-0.241597
-0.42675
-0.42004
-0.414635
-0.408922
-0.402881
-0.39653
-0.389725
-0.382294
-0.374065
-0.364907
-0.35477
-0.3437
-0.331839
-0.319392
-0.306592
-0.293668
-0.280809
-0.268193
-0.255802
-0.244243
-0.420824
-0.414483
-0.409316
-0.40384
-0.398059
-0.392013
-0.385587
-0.378625
-0.370962
-0.362454
-0.353021
-0.342672
-0.331508
-0.319701
-0.307463
-0.295014
-0.282545
-0.270249
-0.2581
-0.246769
-0.415027
-0.409052
-0.404126
-0.398884
-0.393354
-0.387595
-0.381516
-0.374984
-0.367839
-0.359934
-0.351165
-0.341508
-0.331024
-0.319851
-0.308179
-0.296214
-0.284146
-0.272179
-0.260277
-0.249182
-0.409372
-0.403761
-0.399076
-0.394067
-0.388781
-0.383293
-0.377534
-0.371392
-0.364722
-0.357372
-0.349224
-0.340225
-0.330401
-0.319855
-0.308748
-0.297275
-0.285616
-0.273989
-0.403873
-0.398622
-0.394178
-0.389401
-0.384352
-0.37912
-0.373657
-0.367872
-0.361632
-0.354791
-0.347221
-0.338844
-0.329654
-0.319721
-0.309178
-0.298201
-0.28696
-0.398541
-0.393642
-0.389439
-0.384892
-0.380076
-0.375088
-0.3699
-0.36444
-0.358591
-0.352214
-0.345176
-0.337382
-0.328797
-0.319461
-0.309476
-0.393384
-0.38883
-0.384865
-0.380548
-0.37596
-0.371206
-0.366275
-0.361112
-0.355618
-0.349661
-0.343111
-0.335858
-0.327846
-0.319085
-0.388407
-0.384191
-0.380462
-0.376372
-0.372009
-0.36748
-0.36279
-0.3579
-0.352726
-0.34715
-0.341043
-0.33429
-0.383615
-0.379726
-0.376231
-0.372367
-0.368224
-0.363914
-0.359452
-0.354814
-0.349931
-0.344697
-0.338991
-0.379011
-0.375439
-0.372174
-0.368532
-0.364607
-0.36051
-0.356265
-0.351861
-0.347241
-0.342315
-0.374594
-0.371329
-0.368289
-0.364867
-0.361157
-0.357267
-0.35323
-0.349043
-0.344665
-0.370365
-0.367395
-0.364575
-0.36137
-0.357871
-0.354185
-0.350347
-0.346365
-0.366321
-0.363634
-0.36103
-0.358037
-0.354747
-0.351259
-0.347614
-0.362459
-0.360045
-0.357649
-0.354865
-0.351778
-0.348485
-0.358775
-0.356622
-0.354429
-0.351848
-0.348961
-0.355265
-0.353362
-0.351365
-0.348982
-0.351924
-0.35026
-0.348452
-0.348748
-0.347312
-0.34573
-0.344513
-0.342868
-0.250097
-0.25561
-0.260965
-0.266167
-0.271221
-0.276134
-0.280911
-0.285559
-0.290084
-0.294493
-0.298794
-0.302992
-0.307096
-0.311112
-0.315047
-0.318908
-0.240753
-0.246149
-0.251403
-0.256521
-0.261506
-0.266365
-0.271102
-0.275724
-0.280235
-0.284642
-0.288952
-0.29317
-0.297304
-0.301358
-0.305342
-0.30926
-0.231761
-0.237026
-0.242165
-0.247184
-0.252086
-0.256877
-0.26156
-0.266142
-0.270627
-0.27502
-0.279328
-0.283555
-0.287709
-0.291795
-0.295819
-0.299788
-0.223109
-0.228241
-0.233262
-0.238177
-0.24299
-0.247704
-0.252325