/*--------------------------------*- C++ -*----------------------------------*\
  =========                 |
  \\      /  F ield         | OpenFOAM: The Open Source CFD Toolbox
   \\    /   O peration     | Website:  https://openfoam.org
    \\  /    A nd           | Version:  7
     \\/     M anipulation  |
\*---------------------------------------------------------------------------*/
FoamFile
{
    version     2.0;
    format      ascii;
    class       surfaceScalarField;
    location    "75";
    object      phi;
}
// * * * * * * * * * * * * * * * * * * * * * * * * * * * * * * * * * * * * * //

dimensions      [0 3 -1 0 0 0 0];

internalField   nonuniform List<scalar> 
16607
(
1.81404e-05
9.07723e-07
1.72327e-05
3.36301e-05
1.03085e-06
1.62018e-05
5.3209e-06
2.93401e-05
2.36289e-05
1.17165e-06
1.50302e-05
5.92141e-06
2.45903e-05
1.39803e-05
1.32973e-06
1.37005e-05
6.58509e-06
1.9335e-05
1.71413e-05
3.42402e-06
-3.54939e-05
1.50452e-06
1.2196e-05
7.30981e-06
1.35297e-05
1.88408e-05
-8.10702e-06
3.75815e-05
-5.42345e-05
-0.000126587
1.69535e-06
1.05006e-05
8.09272e-06
7.1323e-06
2.06618e-05
-2.06761e-05
4.09301e-05
-7.45029e-05
7.04608e-05
-0.000156117
-0.000267319
1.90141e-06
8.59919e-06
8.93064e-06
1.03075e-07
2.25961e-05
-3.43415e-05
4.44604e-05
-9.63672e-05
7.61027e-05
-0.00018776
0.000119033
-0.00031025
-0.000465233
2.12189e-06
6.47731e-06
9.81998e-06
-7.59502e-06
2.46348e-05
-4.91564e-05
4.81542e-05
-0.000119887
8.19574e-05
-0.000221563
0.000127509
-0.000355802
0.000185996
-0.00052372
-0.000725467
2.3559e-06
4.12141e-06
1.07569e-05
-1.59961e-05
2.67684e-05
-6.51678e-05
5.19915e-05
-0.00014511
8.79892e-05
-0.00025756
0.000136155
-0.000403967
0.000197526
-0.000585092
0.000272553
-0.000800493
-0.001048
2.60255e-06
1.51886e-06
1.17375e-05
-2.5131e-05
2.89862e-05
-8.24166e-05
5.59512e-05
-0.000172075
9.41595e-05
-0.000295769
0.000144908
-0.000454715
0.000209052
-0.000649236
0.000286758
-0.000878199
0.000377268
-0.00113851
-0.0014248
2.86096e-06
-1.3421e-06
1.27573e-05
-3.50273e-05
3.12775e-05
-0.000100937
6.00107e-05
-0.000200808
0.000100428
-0.000336186
0.000153702
-0.000507989
0.000220473
-0.000716007
0.000300597
-0.000958323
0.000392918
-0.00123083
0.000495171
-0.00152706
-0.0018384
3.13019e-06
-4.47229e-06
1.38121e-05
-4.57092e-05
3.36306e-05
-0.000120755
6.41464e-05
-0.000231324
0.000106753
-0.000378792
0.000162469
-0.000563705
0.000231691
-0.000785229
0.000313933
-0.00104056
0.000407635
-0.00132453
0.000510123
-0.00162954
0.000617785
-0.00194606
0.000726482
-0.00226363
-0.00257221
3.4093e-06
-7.88158e-06
1.48971e-05
-5.7197e-05
3.60334e-05
-0.000141892
6.83336e-05
-0.000263624
0.00011309
-0.000423548
0.00017114
-0.000621756
0.000242605
-0.000856694
0.000326637
-0.0011246
0.000421268
-0.00141917
0.000523445
-0.00173172
0.000629295
-0.00205191
0.000734616
-0.00236895
0.000835458
-0.00267305
-0.00295674
3.69729e-06
-1.15789e-05
1.60077e-05
-6.95074e-05
3.84733e-05
-0.000164357
7.25465e-05
-0.000297697
0.000119394
-0.000470396
0.000179645
-0.000682007
0.000253117
-0.000930167
0.000338586
-0.00121007
0.000433682
-0.00151426
0.000535012
-0.00183305
0.000638512
-0.00215541
0.00074
-0.00247044
0.000835766
-0.00276882
0.00092306
-0.00304403
-0.00329292
3.99313e-06
-1.5572e-05
1.71385e-05
-8.26528e-05
4.0937e-05
-0.000188156
7.67583e-05
-0.000333519
0.00012562
-0.000519257
0.000187914
-0.000744301
0.000263132
-0.00100539
0.000349664
-0.0012966
0.000444758
-0.00160936
0.000544726
-0.00193302
0.000645389
-0.00225607
0.000742662
-0.00256771
0.000833141
-0.0028593
0.000914509
-0.0031254
0.000985708
-0.00336412
0.00104684
-0.0035767
-0.00376673
4.29568e-06
-1.98677e-05
1.82843e-05
-9.66414e-05
4.34105e-05
-0.000213282
8.09416e-05
-0.00037105
0.00013172
-0.000570036
0.000195877
-0.000808457
0.000272558
-0.00108207
0.000359767
-0.00138381
0.000454395
-0.00170399
0.000552518
-0.00203114
0.000649912
-0.00235347
0.000742667
-0.00266046
0.000827729
-0.00294436
0.000903234
-0.00320091
0.000968573
-0.00342945
0.00102422
-0.00363235
0.00107143
-0.00381394
-0.0039796
4.60372e-06
-2.44714e-05
1.94393e-05
-0.000111477
4.58793e-05
-0.000239722
8.50681e-05
-0.000410238
0.000137649
-0.000622617
0.000203467
-0.000874274
0.00028131
-0.00115991
0.000368802
-0.0014713
0.000462513
-0.0017977
0.000558344
-0.00212697
0.0006521
-0.00244722
0.000740107
-0.00274847
0.000819701
-0.00302395
0.000889466
-0.00327067
0.00094921
-0.0034892
0.000999727
-0.00368286
0.00104245
-0.00385666
0.00107907
-0.00401622
0.00111127
-0.00416662
-0.00431309
4.91591e-06
-2.93873e-05
2.05975e-05
-0.000127159
4.83284e-05
-0.000267453
8.9109e-05
-0.000451019
0.00014336
-0.000676868
0.000210618
-0.000941533
0.000289309
-0.0012386
0.000376689
-0.00155868
0.000469052
-0.00189006
0.000562188
-0.00222011
0.000651999
-0.00253704
0.000735101
-0.00283157
0.000809239
-0.00309809
0.000873436
-0.00333487
0.000927878
-0.00354364
0.000973619
-0.00372861
0.00101222
-0.00389526
0.00104539
-0.00404938
0.00107472
-0.00419596
-0.0043398
0.00110144
5.23081e-06
-3.46181e-05
2.17523e-05
-0.00014368
5.07423e-05
-0.000296443
9.30352e-05
-0.000493312
0.000148807
-0.000732639
0.00021727
-0.00101
0.000296484
-0.00131782
0.000383364
-0.00164556
0.000473974
-0.00198067
0.000564057
-0.00231019
0.000649679
-0.00262266
0.000727784
-0.00290968
0.000796539
-0.00316684
0.000855378
-0.00339371
0.00090482
-0.00359308
0.000946132
-0.00376992
0.000980953
-0.00393008
0.00101096
-0.00407939
0.00103766
-0.00422266
-0.00436429
0.00106215
5.54688e-06
-4.0165e-05
2.28972e-05
-0.00016103
5.3105e-05
-0.00032665
9.68178e-05
-0.000537025
0.000153945
-0.000789766
0.000223365
-0.00107942
0.000302774
-0.00139722
0.000388776
-0.00173156
0.000477258
-0.00206915
0.000563983
-0.00239692
0.000645231
-0.0027039
0.000718309
-0.00298276
0.000781797
-0.00323033
0.000835515
-0.00344742
0.000880267
-0.00363784
0.000917479
-0.00380713
0.000948829
-0.00396143
0.00097594
-0.0041065
0.00100021
-0.00424693
-0.00438668
0.0010226
5.86246e-06
-4.60275e-05
2.40253e-05
-0.000179193
5.54004e-05
-0.000358026
0.000100428
-0.000582053
0.000158734
-0.000848072
0.000228852
-0.00114953
0.000308127
-0.0014765
0.000392889
-0.00181632
0.000478905
-0.00215517
0.000562016
-0.00248003
0.000638763
-0.00278065
0.000706833
-0.00305083
0.00076521
-0.00328871
0.00081406
-0.00349627
0.000854428
-0.0036782
0.000887851
-0.00384055
0.000916009
-0.00398959
0.000940448
-0.00413094
0.000962448
-0.00426893
-0.0044071
0.000982862
6.17579e-06
-5.22033e-05
2.51294e-05
-0.000198147
5.76124e-05
-0.000390509
0.000103839
-0.000628279
0.000163133
-0.000907366
0.000233683
-0.00122008
0.000312502
-0.00155532
0.000395684
-0.0018995
0.000478933
-0.00223842
0.000558224
-0.00255932
0.000630396
-0.00285282
0.000693522
-0.00311395
0.00074697
-0.00334216
0.000791216
-0.00354052
0.000827494
-0.00371448
0.000857415
-0.00387047
0.00088263
-0.0040148
0.000904593
-0.0041529
0.000924462
-0.0042888
-0.00442562
0.000942985
6.48507e-06
-5.86883e-05
2.62023e-05
-0.000217864
5.97251e-05
-0.000424031
0.000107022
-0.000675576
0.000167106
-0.000967451
0.00023782
-0.0012908
0.000315868
-0.00163337
0.000397155
-0.00198079
0.000477376
-0.00231864
0.000552688
-0.00263463
0.000620258
-0.00292039
0.000678541
-0.00317224
0.000727264
-0.00339088
0.000767169
-0.00358043
0.00079964
-0.00374695
0.00082632
-0.00389715
0.000848811
-0.00403729
0.000868463
-0.00417255
0.000886316
-0.00430665
-0.00444232
0.000903016
6.7884e-06
-6.54767e-05
2.72367e-05
-0.000238312
6.17229e-05
-0.000458518
0.000109954
-0.000723807
0.000170622
-0.00102812
0.000241231
-0.00136141
0.000318206
-0.00171034
0.00039731
-0.00205989
0.000474282
-0.00239561
0.000545503
-0.00270585
0.000608483
-0.00298337
0.000662053
-0.00322581
0.000706266
-0.00343509
0.000742091
-0.00361625
0.000771019
-0.00377588
0.000794696
-0.00392083
0.000814652
-0.00405725
0.000832133
-0.00419003
0.000848062
-0.00432258
-0.00445725
0.000862993
7.08387e-06
-7.25606e-05
2.82254e-05
-0.000259454
6.35906e-05
-0.000493883
0.000112611
-0.000772827
0.000173651
-0.00108916
0.00024389
-0.00143165
0.000319507
-0.00178596
0.00039617
-0.00213656
0.000469711
-0.00246915
0.00053677
-0.00277291
0.000595209
-0.00304181
0.000644218
-0.00327481
0.000684144
-0.00347502
0.00071614
-0.00364825
0.000741768
-0.00380151
0.000762654
-0.00394172
0.000780241
-0.00407484
0.000795668
-0.00420546
0.000809747
-0.00433666
-0.00447046
0.000822949
7.36954e-06
-7.99301e-05
2.91615e-05
-0.000281246
6.53142e-05
-0.000530036
0.000114971
-0.000822483
0.000176169
-0.00115036
0.000245781
-0.00150126
0.000319772
-0.00185995
0.000393766
-0.00221055
0.000463733
-0.00253912
0.000526596
-0.00283577
0.000580572
-0.00309579
0.000625188
-0.00331943
0.00066105
-0.00351088
0.000689457
-0.00367665
0.00071201
-0.00382406
0.000730291
-0.00396
0.000745651
-0.0040902
0.000759119
-0.00421893
0.000771407
-0.00434895
-0.00448196
0.000782911
7.6435e-06
-8.75736e-05
3.00381e-05
-0.00030364
6.68803e-05
-0.000566878
0.000117016
-0.000872619
0.000178158
-0.0012115
0.000246892
-0.00156999
0.000319011
-0.00193207
0.00039014
-0.00228168
0.000456424
-0.0026054
0.000515092
-0.00289444
0.000564706
-0.0031454
0.000605109
-0.00335983
0.000637126
-0.0035429
0.000662169
-0.0037017
0.000681851
-0.00384374
0.00069769
-0.00397584
0.000710943
-0.00410345
0.000722532
-0.00423052
0.000733075
-0.00435949
-0.00449179
0.000742902
7.90385e-06
-9.54775e-05
3.08487e-05
-0.000326585
6.82766e-05
-0.000604306
0.000118729
-0.000923072
0.000179604
-0.00127237
0.000247221
-0.00163761
0.000317245
-0.00200209
0.000385342
-0.00234978
0.000447869
-0.00266793
0.000502369
-0.00294894
0.000547742
-0.00319078
0.000584115
-0.00339621
0.000612502
-0.00357128
0.000634391
-0.00372359
0.000651383
-0.00386073
0.000664924
-0.00398938
0.00067617
-0.0041147
0.000685943
-0.00424029
0.000694779
-0.00436833
-0.00449995
0.000702944
8.14875e-06
-0.000103626
3.15872e-05
-0.000350024
6.94923e-05
-0.000642211
0.000120099
-0.000973678
0.000180496
-0.00133277
0.000246772
-0.00170389
0.000314499
-0.00206982
0.000379428
-0.0024147
0.000438154
-0.00272666
0.000488539
-0.00299933
0.000529806
-0.00323204
0.000562335
-0.00342874
0.000587294
-0.00359624
0.000606223
-0.00374252
0.000620688
-0.0038752
0.000632054
-0.00400074
0.000641378
-0.00412402
0.000649387
-0.0042483
0.00065654
-0.00437548
-0.00450647
0.000663055
8.37646e-06
-0.000112003
3.22481e-05
-0.000373895
7.05179e-05
-0.000680481
0.000121113
-0.00102427
0.00018083
-0.00139249
0.000245554
-0.00176861
0.000310807
-0.00213507
0.000372462
-0.00247636
0.000427369
-0.00278156
0.000473712
-0.00304567
0.000511015
-0.00326934
0.000539885
-0.00345761
0.00056161
-0.00361797
0.000577754
-0.00375866
0.000589835
-0.00388728
0.000599132
-0.00401004
0.000606603
-0.00413149
0.00061289
-0.00425459
0.000618382
-0.00438097
-0.00451134
0.000623252
8.58529e-06
-0.000120588
3.28262e-05
-0.000398136
7.13454e-05
-0.000719
0.000121764
-0.00107469
0.000180607
-0.00145133
0.000243585
-0.00183159
0.00030621
-0.0021977
0.000364508
-0.00253466
0.000415604
-0.00283266
0.000457994
-0.00308806
0.000491483
-0.00330283
0.000516872
-0.003483
0.000535543
-0.00363664
0.000549062
-0.00377218
0.000558886
-0.00389711
0.000566204
-0.00401736
0.000571879
-0.00413717
0.000576475
-0.00425918
0.000580322
-0.00438482
-0.00451457
0.000583552
8.77371e-06
-0.000129362
3.33171e-05
-0.00042268
7.19681e-05
-0.000757651
0.000122049
-0.00112477
0.000179829
-0.00150911
0.000240885
-0.00189264
0.000300751
-0.00225756
0.000355636
-0.00258954
0.000402947
-0.00287997
0.000441485
-0.0031266
0.000471312
-0.00333266
0.000493394
-0.00350508
0.00050918
-0.00365242
0.000520216
-0.00378321
0.000527893
-0.00390478
0.000533307
-0.00402277
0.000537235
-0.00414109
0.000540165
-0.00426211
0.000542376
-0.00438703
-0.00451616
0.000543968
8.94029e-06
-0.000138302
3.37169e-05
-0.000447456
7.23812e-05
-0.000796315
0.000121965
-0.00117436
0.000178507
-0.00156565
0.00023748
-0.00195162
0.000294479
-0.00231456
0.000345916
-0.00264098
0.000389486
-0.00292354
0.000424284
-0.0031614
0.0004506
-0.00335898
0.000469541
-0.00352402
0.000482594
-0.00366548
0.000491277
-0.0037919
0.000496902
-0.00391041
0.000500476
-0.00402635
0.000502693
-0.00414331
0.000503978
-0.0042634
0.000504561
-0.00438761
-0.00451611
0.000504515
9.08484e-06
-0.000147387
3.40246e-05
-0.000472396
7.25846e-05
-0.000834875
0.000121518
-0.00122329
0.000176657
-0.00162079
0.000233406
-0.00200837
0.00028745
-0.00236861
0.000335425
-0.00268895
0.000375316
-0.00296343
0.000406489
-0.00319257
0.000429445
-0.00338193
0.000445399
-0.00353997
0.000455862
-0.00367594
0.000462305
-0.00379834
0.00046596
-0.00391406
0.000467747
-0.00402813
0.000468284
-0.00414385
0.000467937
-0.00426305
0.000466897
-0.00438658
-0.00451443
0.000465214
9.20422e-06
-0.000156591
3.42336e-05
-0.000497425
7.25702e-05
-0.000873212
0.000120703
-0.00127142
0.000174285
-0.00167437
0.000228683
-0.00206276
0.000279704
-0.00241963
0.00032422
-0.00273347
0.000360501
-0.00299971
0.000388171
-0.00322024
0.000407912
-0.00340167
0.000421026
-0.00355309
0.000429026
-0.00368394
0.000433329
-0.00380264
0.000435085
-0.00391582
0.00043513
-0.00402818
0.000434011
-0.00414273
0.000432043
-0.00426108
0.000429385
-0.00438392
-0.00451111
0.000426063
9.29851e-06
-0.00016589
3.43439e-05
-0.000522471
7.23408e-05
-0.000911209
0.00011953
-0.00131861
0.000171414
-0.00172626
0.000223354
-0.0021147
0.000271301
-0.00246757
0.000312377
-0.00277455
0.000345128
-0.00303246
0.000369417
-0.00324453
0.000386083
-0.00341834
0.000396492
-0.0035635
0.000402146
-0.0036896
0.000404398
-0.00380489
0.000404315
-0.00391574
0.000402655
-0.00402652
0.000399899
-0.00413997
0.000396319
-0.0042575
0.000392043
-0.00437964
-0.00450615
0.000387082
9.3669e-06
-0.000175256
3.43545e-05
-0.000547458
7.18976e-05
-0.000948752
0.000118008
-0.00136472
0.000168064
-0.00177631
0.000217454
-0.00216409
0.000262295
-0.00251241
0.000299963
-0.00281222
0.00032927
-0.00306177
0.000350301
-0.00326556
0.000364026
-0.00343206
0.000371857
-0.00357133
0.000375269
-0.00369301
0.000375546
-0.00380517
0.000373676
-0.00391387
0.00037034
-0.00402318
0.000365962
-0.00413559
0.000360776
-0.00425232
0.000354884
-0.00437375
-0.00449955
0.000348284
9.40877e-06
-0.000184665
3.42649e-05
-0.000572314
7.12431e-05
-0.00098573
0.000116146
-0.00140962
0.000164259
-0.00182443
0.000211023
-0.00221086
0.00025274
-0.00255413
0.000287042
-0.00284652
0.000312999
-0.00308773
0.000330891
-0.00328345
0.000341802
-0.00344297
0.000347171
-0.0035767
0.000348434
-0.00369427
0.000346804
-0.00380354
0.00034319
-0.00391025
0.000338203
-0.0040182
0.000332216
-0.00412961
0.000325427
-0.00424553
0.00031792
-0.00436624
-0.00449131
0.00030968
9.42368e-06
-0.000194089
3.4075e-05
-0.000596966
7.0381e-05
-0.00102204
0.000113958
-0.0014532
0.000160024
-0.00187049
0.0002041
-0.00225493
0.000242688
-0.00259272
0.000273677
-0.00287751
0.000296378
-0.00311043
0.00031125
-0.00329832
0.000319467
-0.00345119
0.000322479
-0.00357971
0.000321676
-0.00369347
0.000318199
-0.00380007
0.000312878
-0.00390493
0.00030626
-0.00401158
0.000298672
-0.00412202
0.000290284
-0.00423714
0.000281161
-0.00435712
-0.00448143
0.000271282
9.41135e-06
-0.0002035
3.37858e-05
-0.00062134
6.93165e-05
-0.00105757
0.000111455
-0.00149534
0.000155383
-0.00191442
0.000196725
-0.00229627
0.000232192
-0.00262819
0.000259926
-0.00290524
0.000279468
-0.00312997
0.000291434
-0.00331029
0.00029707
-0.00345683
0.000297822
-0.00358046
0.000295028
-0.00369067
0.000289754
-0.00379479
0.000282757
-0.00389793
0.000274525
-0.00400335
0.000265343
-0.00411284
0.000255358
-0.00422716
0.00024462
-0.00434638
-0.00446991
0.000233103
9.37167e-06
-0.000212872
3.33985e-05
-0.000645367
6.80554e-05
-0.00109222
0.000108655
-0.00153594
0.000150365
-0.00195613
0.000188937
-0.00233485
0.0002213
-0.00266055
0.000245847
-0.00292979
0.000262327
-0.00314645
0.000271496
-0.00331946
0.000274655
-0.00345999
0.000273235
-0.00357904
0.000268516
-0.00368595
0.00026149
-0.00378777
0.000252843
-0.00388929
0.00024301
-0.00399351
0.00023224
-0.00410207
0.000220659
-0.00421557
0.000208305
-0.00433403
-0.00445676
0.000195152
9.30471e-06
-0.000222177
3.29149e-05
-0.000668977
6.66048e-05
-0.00112591
0.000105571
-0.00157491
0.000144997
-0.00199556
0.000180775
-0.00237062
0.000210062
-0.00268984
0.00023149
-0.00295122
0.000245005
-0.00315996
0.000251483
-0.00332594
0.000252262
-0.00346077
0.00024875
-0.00357553
0.000242165
-0.00367937
0.000233425
-0.00377903
0.000223151
-0.00387901
0.000211728
-0.00398209
0.000199374
-0.00408971
0.000186197
-0.0042024
0.000172228
-0.00432006
-0.00444197
0.000157439
9.21066e-06
-0.000231387
3.23375e-05
-0.000692104
6.49723e-05
-0.00115855
0.000102221
-0.00161215
0.000139305
-0.00203264
0.000172277
-0.0024036
0.000198523
-0.00271608
0.000216905
-0.0029696
0.00022755
-0.00317061
0.000231436
-0.00332982
0.000229927
-0.00345926
0.000224395
-0.00357
0.000215995
-0.00367097
0.000205575
-0.0037686
0.000193693
-0.00386713
0.000180689
-0.00396909
0.000166755
-0.00407578
0.000151982
-0.00418763
0.0001364
-0.00430447
-0.00442554
0.000119975
9.08989e-06
-0.000240477
3.1669e-05
-0.000714683
6.31664e-05
-0.00119005
9.86212e-05
-0.00164761
0.000133318
-0.00206734
0.000163481
-0.00243376
0.000186727
-0.00273933
0.000202138
-0.00298501
0.000210006
-0.00317848
0.000211395
-0.00333121
0.00020768
-0.00345554
0.000200194
-0.00356251
0.000190026
-0.0036608
0.000177954
-0.00375653
0.000164481
-0.00385366
0.000149905
-0.00395451
0.000134392
-0.00406026
0.000118022
-0.00417126
0.000100826
-0.00428728
-0.00440749
8.27734e-05
8.94288e-06
-0.00024942
3.09126e-05
-0.000736653
6.1196e-05
-0.00122033
9.47902e-05
-0.0016812
0.000127063
-0.00209961
0.000154422
-0.00246112
0.000174714
-0.00275962
0.000187231
-0.00299752
0.000192413
-0.00318366
0.000191394
-0.00333019
0.00018555
-0.0034497
0.00017617
-0.00355313
0.000164274
-0.0036489
0.000150577
-0.00374284
0.000135528
-0.00383861
0.000119387
-0.00393837
0.000102297
-0.00404318
8.43305e-05
-0.00415329
6.55093e-05
-0.00426846
-0.0043878
4.58238e-05
8.77024e-06
-0.00025819
3.00717e-05
-0.000757954
5.90705e-05
-0.00124933
9.07452e-05
-0.00171288
0.000120566
-0.00212943
0.000145135
-0.00248569
0.000162524
-0.00277701
0.000172223
-0.00300722
0.000174807
-0.00318625
0.000171464
-0.00332685
0.000163562
-0.0034418
0.00015234
-0.00354191
0.000138754
-0.00363532
0.000123455
-0.00372754
0.000106842
-0.003822
8.91431e-05
-0.00392067
7.04842e-05
-0.00402452
5.09323e-05
-0.00413374
3.04648e-05
-0.00424799
-0.0043662
8.85838e-06
8.57268e-06
-0.000266763
2.91503e-05
-0.000778532
5.67996e-05
-0.00127698
8.65041e-05
-0.00174258
0.000113854
-0.00215678
0.000135653
-0.00250749
0.000150192
-0.00279155
0.00015715
-0.00301418
0.00015722
-0.00318631
0.000151631
-0.00332126
0.000141737
-0.0034319
0.000128722
-0.00352889
0.000113479
-0.00362008
9.65986e-05
-0.00371066
7.84338e-05
-0.00380383
5.9183e-05
-0.00390142
3.89583e-05
-0.00400429
1.78352e-05
-0.00411261
-4.12498e-06
-0.00422603
-0.00434308
-2.72386e-05
8.35104e-06
-0.000275114
2.81522e-05
-0.000798333
5.43933e-05
-0.00130322
8.20844e-05
-0.00177027
0.000106952
-0.00218165
0.000126006
-0.00252654
0.000137753
-0.0028033
0.000142046
-0.00301848
0.000139682
-0.00318395
0.000131922
-0.0033135
0.000120095
-0.00342007
0.000105332
-0.00351413
8.84611e-05
-0.00360321
7.00174e-05
-0.00369221
5.03117e-05
-0.00378413
2.95158e-05
-0.00388062
7.72641e-06
-0.0039825
-1.49894e-05
-0.0040899
-3.86534e-05
-0.00420237
-0.00431854
-6.3197e-05
8.10622e-06
-0.00028322
2.70819e-05
-0.000817309
5.18615e-05
-0.001328
7.75035e-05
-0.00179591
9.98847e-05
-0.00220403
0.000116223
-0.00254288
0.000125238
-0.00281231
0.000126941
-0.00302018
0.000122219
-0.00317923
0.000112358
-0.00330364
9.86535e-05
-0.00340637
8.2182e-05
-0.00349766
6.37106e-05
-0.00358473
4.3721e-05
-0.00367222
2.24841e-05
-0.00376289
1.43186e-07
-0.00385828
-2.32005e-05
-0.00395916
-4.75006e-05
-0.0040656
-7.27452e-05
-0.00417712
-0.00429237
-9.89116e-05
7.83919e-06
-0.000291059
2.59436e-05
-0.000835413
4.92144e-05
-0.00135127
7.27784e-05
-0.00181948
9.2675e-05
-0.00222393
0.000106334
-0.00255654
0.000112675
-0.00281865
0.000111861
-0.00301937
0.000104857
-0.00317222
9.29578e-05
-0.00329174
7.74275e-05
-0.00339084
5.92845e-05
-0.00347952
3.92372e-05
-0.00356469
1.77175e-05
-0.0036507
-5.03934e-06
-0.00374013
-2.89072e-05
-0.00383441
-5.38135e-05
-0.00393425
-7.96938e-05
-0.00403972
-0.000106523
-0.00415029
-0.00426458
-0.000134313
7.55101e-06
-0.00029861
2.47418e-05
-0.000852604
4.64619e-05
-0.00137299
6.79255e-05
-0.00184094
8.53456e-05
-0.00224135
9.63633e-05
-0.00256756
0.000100092
-0.00282238
9.6833e-05
-0.00301611
8.76155e-05
-0.00316301
7.37398e-05
-0.00327787
5.64305e-05
-0.00337353
3.66497e-05
-0.00345974
1.50493e-05
-0.00354309
-7.98509e-06
-0.00362767
-3.22514e-05
-0.00371587
-5.76468e-05
-0.00380902
-8.41048e-05
-0.00390779
-0.000111561
-0.00401226
-0.000139979
-0.00412187
-0.00423518
-0.000169381
7.24278e-06
-0.000305853
2.3481e-05
-0.000868842
4.36141e-05
-0.00139312
6.2961e-05
-0.00186029
7.79175e-05
-0.0022563
8.63353e-05
-0.00257597
8.75136e-05
-0.00282356
8.18784e-05
-0.00301047
7.05149e-05
-0.00315164
5.47191e-05
-0.00326207
3.56745e-05
-0.00335449
1.42871e-05
-0.00343835
-8.84491e-06
-0.00351995
-3.33792e-05
-0.00360313
-5.91452e-05
-0.0036901
-8.60601e-05
-0.0037821
-0.000114065
-0.00387979
-0.000143094
-0.00398323
-0.0001731
-0.00409187
-0.00420418
-0.000204105
6.91562e-06
-0.000312769
2.21659e-05
-0.000884093
4.06806e-05
-0.00141164
5.79003e-05
-0.00187751
7.04109e-05
-0.00226882
7.62728e-05
-0.00258184
7.49618e-05
-0.00282225
6.7018e-05
-0.00300253
5.3572e-05
-0.0031382
3.59094e-05
-0.00324441
1.517e-05
-0.00333375
-7.79494e-06
-0.00341538
-3.24382e-05
-0.00349531
-5.84583e-05
-0.00357711
-8.57132e-05
-0.00366284
-0.000114139
-0.00375368
-0.000143686
-0.00385024
-0.000174284
-0.00395263
-0.000205876
-0.00406028
-0.00417158
-0.000238475
6.57071e-06
-0.00031934
2.0801e-05
-0.000898323
3.7671e-05
-0.00142851
5.27581e-05
-0.0018926
6.28447e-05
-0.0022789
6.61966e-05
-0.00258519
6.24575e-05
-0.00281851
5.22705e-05
-0.00299234
3.68023e-05
-0.00312273
1.73228e-05
-0.00322493
-5.07356e-06
-0.00331135
-2.95888e-05
-0.00339087
-5.57244e-05
-0.00346918
-8.32158e-05
-0.00354962
-0.000111948
-0.00363411
-0.000141876
-0.00372375
-0.000172958
-0.00381916
-0.000205122
-0.00392047
-0.000238297
-0.0040271
-0.00413739
-0.000272481
6.20926e-06
-0.000325549
1.93908e-05
-0.000911504
3.45946e-05
-0.00144371
4.75485e-05
-0.00190555
5.52365e-05
-0.00228659
5.61261e-05
-0.00258608
5.00194e-05
-0.0028124
3.76525e-05
-0.00297997
2.02195e-05
-0.0031053
-1.03015e-06
-0.00320368
-2.50478e-05
-0.00328733
-5.10881e-05
-0.00336483
-7.86973e-05
-0.00344157
-0.000107646
-0.00352067
-0.000137843
-0.00360391
-0.000169262
-0.00369233
-0.000201872
-0.00378655
-0.000235597
-0.00388674
-0.000270352
-0.00399235
-0.00410163
-0.000306115
5.83244e-06
-0.000331381
1.79398e-05
-0.000923612
3.14604e-05
-0.00145723
4.22852e-05
-0.00191637
4.76031e-05
-0.00229191
4.60792e-05
-0.00258455
3.76649e-05
-0.00280399
2.31789e-05
-0.00296549
3.83582e-06
-0.00308595
-1.91397e-05
-0.0031807
-4.47457e-05
-0.00326173
-7.22866e-05
-0.00333729
-0.000101351
-0.0034125
-0.000131742
-0.00349028
-0.000163392
-0.00357226
-0.000196291
-0.00365943
-0.000230418
-0.00375242
-0.0002657
-0.00385146
-0.000302031
-0.00395602
-0.0040643
-0.000339366
5.44151e-06
-0.000336823
1.64524e-05
-0.000934623
2.82771e-05
-0.00146906
3.69807e-05
-0.00192508
3.99601e-05
-0.00229489
3.60724e-05
-0.00258067
2.54093e-05
-0.00279332
8.86335e-06
-0.00294894
-1.23381e-05
-0.00306475
-3.69978e-05
-0.00315604
-6.41606e-05
-0.00323456
-9.31791e-05
-0.00330827
-0.000123682
-0.003382
-0.000155499
-0.00345847
-0.000188587
-0.00353918
-0.000222953
-0.00362507
-0.000258589
-0.00371679
-0.00029542
-0.00381463
-0.000333325
-0.00391811
-0.0040254
-0.000372226
5.0377e-06
-0.00034186
1.49329e-05
-0.000944518
2.5053e-05
-0.00147918
3.16472e-05
-0.00193167
3.23219e-05
-0.00229556
2.6121e-05
-0.00257446
1.32666e-05
-0.00278047
-5.2821e-06
-0.00293039
-2.82926e-05
-0.00304174
-5.4597e-05
-0.00312974
-8.32869e-05
-0.00320587
-0.000113761
-0.00327779
-0.000145684
-0.00335008
-0.000178913
-0.00342524
-0.000213424
-0.00350467
-0.000249242
-0.00358925
-0.000286373
-0.00367966
-0.000324747
-0.00377626
-0.000364223
-0.00387863
-0.00398494
-0.000404684
4.62225e-06
-0.000346483
1.33857e-05
-0.000953281
2.17961e-05
-0.00148759
2.6296e-05
-0.00193617
2.47021e-05
-0.00229397
1.6239e-05
-0.002566
1.25532e-06
-0.00276549
-1.92468e-05
-0.00290989
-4.40192e-05
-0.00301697
-7.19308e-05
-0.00310183
-0.000102119
-0.00317568
-0.000134027
-0.00324589
-0.000167353
-0.00331675
-0.000201978
-0.00339061
-0.000237897
-0.00346875
-0.00027515
-0.003552
-0.000313762
-0.00364104
-0.00035367
-0.00373635
-0.000394714
-0.00383759
-0.00394292
-0.000436731
4.19646e-06
-0.000350679
1.18147e-05
-0.000960899
1.85142e-05
-0.00149429
2.09378e-05
-0.0019386
1.71132e-05
-0.00229014
6.43871e-06
-0.00255533
-1.0629e-05
-0.00274842
-3.30222e-05
-0.0028875
-5.95106e-05
-0.00299048
-8.89936e-05
-0.00307235
-0.000120654
-0.00314402
-0.000153974
-0.00321257
-0.000188686
-0.00328204
-0.000224691
-0.00335461
-0.000262
-0.00343144
-0.00030067
-0.00351333
-0.000340747
-0.00360097
-0.000382178
-0.00369492
-0.000424787
-0.00379498
-0.00389935
-0.000468358
3.76173e-06
-0.000354441
1.02241e-05
-0.000967362
1.52143e-05
-0.00149928
1.55832e-05
-0.00193896
9.56642e-06
-0.00228413
-3.26669e-06
-0.00254249
-2.23598e-05
-0.00272932
-4.65986e-05
-0.00286326
-7.476e-05
-0.00296232
-0.00010578
-0.00304133
-0.000138886
-0.00311092
-0.000173599
-0.00317785
-0.000209679
-0.00324596
-0.000247048
-0.00331724
-0.000285728
-0.00339276
-0.000325797
-0.00347326
-0.000367318
-0.00355945
-0.000410258
-0.00365198
-0.000454431
-0.00375081
-0.00385422
-0.000499555
3.31933e-06
-0.00035776
8.61776e-06
-0.00097266
1.19036e-05
-0.00150256
1.02413e-05
-0.0019373
2.07996e-06
-0.00227597
-1.28728e-05
-0.00252754
-3.39342e-05
-0.00270826
-5.99685e-05
-0.00283722
-8.97616e-05
-0.00293252
-0.000122286
-0.0030088
-0.000156812
-0.00307639
-0.000192898
-0.00314177
-0.000230329
-0.00320853
-0.000269045
-0.00327852
-0.000309079
-0.00335272
-0.000350523
-0.00343181
-0.000393466
-0.0035165
-0.000437899
-0.00360754
-0.000483633
-0.00370507
-0.00380755
-0.000530312
2.87025e-06
-0.00036063
6.99959e-06
-0.00097679
8.58984e-06
-0.00150415
4.91766e-06
-0.00193363
-5.35659e-06
-0.00226569
-2.23635e-05
-0.00251053
-4.53432e-05
-0.00268528
-7.31254e-05
-0.00280944
-0.00010451
-0.00290114
-0.000138508
-0.0029748
-0.000174429
-0.00304047
-0.000211868
-0.00310433
-0.000250634
-0.00316976
-0.000290679
-0.00323848
-0.000332048
-0.00331135
-0.000374845
-0.00338902
-0.000419184
-0.00347216
-0.000465089
-0.00356164
-0.00051238
-0.00365778
2.41567e-06
-0.000363046
5.37244e-06
-0.000979746
5.28102e-06
-0.00150406
-3.30485e-07
-0.00192802
-1.27123e-05
-0.00225331
-3.17326e-05
-0.00249151
-5.65794e-05
-0.00266044
-8.60633e-05
-0.00277996
-0.000119001
-0.0028682
-0.000154441
-0.00293936
-0.000191734
-0.00300318
-0.000230507
-0.00306555
-0.000270591
-0.00312968
-0.000311949
-0.00319712
-0.000354634
-0.00326867
-0.00039876
-0.00334489
-0.000444465
-0.00342646
-0.000491815
-0.00351429
1.95663e-06
-0.000365003
3.73984e-06
-0.00098153
1.97373e-06
-0.00150229
-5.6297e-06
-0.00192042
-1.99957e-05
-0.00223894
-4.09719e-05
-0.00247054
-6.76362e-05
-0.00263377
-9.87769e-05
-0.00274882
-0.000133231
-0.00283375
-0.000170084
-0.00290251
-0.000208725
-0.00296454
-0.000248812
-0.00302547
-0.000290197
-0.00308829
-0.000332852
-0.00315446
-0.000376834
-0.00322469
-0.000422264
-0.00329946
-0.000469303
-0.00337942
1.49398e-06
-0.000366497
2.10461e-06
-0.00098214
-1.3183e-06
-0.00149887
-1.08375e-05
-0.0019109
-2.71892e-05
-0.00222259
-5.00742e-05
-0.00244765
-7.85072e-05
-0.00260534
-0.000111261
-0.00271606
-0.000147195
-0.00279781
-0.000185432
-0.00286427
-0.000225398
-0.00292457
-0.000266781
-0.00298408
-0.00030945
-0.00304562
-0.000353385
-0.00311053
-0.000398647
-0.00317943
-0.000445358
-0.00325275
1.02759e-06
-0.000367524
4.68454e-07
-0.000981581
-4.60104e-06
-0.0014938
-1.59969e-05
-0.0018995
-3.42871e-05
-0.0022043
-5.90329e-05
-0.00242291
-8.91868e-05
-0.00257519
-0.000123512
-0.00268174
-0.000160891
-0.00276043
-0.000200484
-0.00282468
-0.000241752
-0.0028833
-0.000284412
-0.00294142
-0.000328348
-0.00300169
-0.000373549
-0.00306533
-0.000420073
-0.0031329
-0.00320478
5.50194e-07
-0.000368075
-1.16638e-06
-0.000979864
-7.8554e-06
-0.00148711
-2.11002e-05
-0.00188626
-4.12835e-05
-0.00218412
-6.78419e-05
-0.00239635
-9.96703e-05
-0.00254336
-0.000135526
-0.00264588
-0.000174316
-0.00272164
-0.000215236
-0.00278376
-0.000257785
-0.00284075
-0.000301702
-0.00289751
-0.000346888
-0.0029565
-0.000393339
-0.00301888
-0.000441112
-0.00308513
4.59365e-08
-0.00036812
-2.79839e-06
-0.00097702
-1.10821e-05
-0.00147883
-2.6141e-05
-0.0018712
-4.81728e-05
-0.00216209
-7.6496e-05
-0.00236803
-0.000109953
-0.0025099
-0.000147299
-0.00260854
-0.000187466
-0.00268148
-0.000229687
-0.00274154
-0.000273493
-0.00279695
-0.000318648
-0.00285235
-0.000365068
-0.00291008
-0.000412754
-0.00297119
-4.12378e-07
-0.000367708
-4.41653e-06
-0.000973016
-1.42767e-05
-0.00146897
-3.1114e-05
-0.00185436
-5.49495e-05
-0.00213825
-8.49902e-05
-0.00233798
-0.000120031
-0.00247486
-0.000158828
-0.00256974
-0.00020034
-0.00263997
-0.000243834
-0.00269805
-0.000288874
-0.00275191
-0.000335248
-0.00280598
-0.000382884
-0.00286245
-0.00292228
-8.65219e-07
-0.000366843
-6.02103e-06
-0.00096786
-1.74353e-05
-0.00145755
-3.60142e-05
-0.00183578
-6.16086e-05
-0.00211266
-9.33201e-05
-0.00230627
-0.000129902
-0.00243828
-0.000170111
-0.00252953
-0.000212935
-0.00259714
-0.000257676
-0.0026533
-0.000303928
-0.00270566
-0.000351498
-0.00275841
-0.000400333
-0.00281361
-1.33169e-06
-0.000365511
-7.61299e-06
-0.000961579
-2.05542e-05
-0.00144461
-4.08372e-05
-0.0018155
-6.81458e-05
-0.00208535
-0.000101482
-0.00227294
-0.00013956
-0.0024002
-0.000181144
-0.00248795
-0.000225249
-0.00255304
-0.00027121
-0.00260734
-0.000318649
-0.00265822
-0.000367397
-0.00270966
-0.0027636
-1.79859e-06
-0.000363713
-9.18963e-06