/*--------------------------------*- C++ -*----------------------------------*\
  =========                 |
  \\      /  F ield         | OpenFOAM: The Open Source CFD Toolbox
   \\    /   O peration     | Website:  https://openfoam.org
    \\  /    A nd           | Version:  7
     \\/     M anipulation  |
\*---------------------------------------------------------------------------*/
FoamFile
{
    version     2.0;
    format      ascii;
    class       volVectorField;
    location    "90";
    object      U;
}
// * * * * * * * * * * * * * * * * * * * * * * * * * * * * * * * * * * * * * //

dimensions      [0 1 -1 0 0 0 0];

internalField   nonuniform List<vector> 
8500
(
(-0.0101378 0.00771048 1.13295e-19)
(-0.010112 0.00743563 9.54567e-20)
(-0.0204754 0.0163913 -1.25966e-19)
(-0.00999275 0.00710606 6.02861e-19)
(-0.019337 0.0153934 -3.57935e-19)
(-0.0182954 0.0199736 -1.87198e-21)
(-0.00977219 0.00672353 -3.13682e-19)
(-0.0178907 0.0142803 2.83616e-21)
(-0.0147963 0.0183258 2.5934e-19)
(-0.00944292 0.00629074 -1.10412e-19)
(-0.0161162 0.0130588 6.57154e-20)
(-0.0107402 0.0165578 9.59658e-20)
(0.00650552 0.0176454 -2.83252e-19)
(-0.00899797 0.00581118 5.66702e-19)
(-0.0139938 0.0117383 -1.43064e-19)
(-0.00609784 0.0146844 -2.07447e-19)
(0.0144312 0.0154507 1.06809e-19)
(0.0476419 0.0150823 5.05584e-19)
(-0.00843054 0.00528907 -2.55249e-19)
(-0.0115047 0.0103304 3.8812e-20)
(-0.000842047 0.0127244 -2.89172e-19)
(0.0232183 0.0132081 -4.08313e-19)
(0.0606635 0.0128366 -1.75655e-19)
(0.111458 0.0125175 -9.83718e-20)
(-0.00773396 0.00472919 -2.49592e-19)
(-0.00863043 0.00884904 5.50649e-19)
(0.00505397 0.0107001 3.43727e-19)
(0.0328955 0.0109485 1.53895e-19)
(0.0748113 0.0106545 -5.56687e-20)
(0.130655 0.0107277 -3.65223e-19)
(0.200094 0.0119086 5.102e-20)
(-0.00690161 0.00413683 4.44428e-20)
(-0.00535341 0.00730964 -8.29903e-20)
(0.0116147 0.0086372 6.12283e-20)
(0.0434901 0.00870698 -1.4792e-19)
(0.0901046 0.00858032 3.13871e-19)
(0.151183 0.00916119 5.689e-19)
(0.226194 0.011172 1.76431e-19)
(0.31417 0.0151637 1.10844e-19)
(-0.00592683 0.00351765 -1.50041e-19)
(-0.00165655 0.00572929 -3.49705e-19)
(0.0188634 0.00656396 -2.65294e-19)
(0.0550245 0.00652256 8.28305e-20)
(0.106559 0.00666192 -4.48157e-19)
(0.173036 0.00787324 -5.58817e-19)
(0.253693 0.010849 -7.49539e-20)
(0.347241 0.0160898 -1.74451e-19)
(0.451664 0.0238561 -1.74331e-20)
(-0.00480297 0.00287769 -1.15961e-19)
(0.00247648 0.00412641 -9.06979e-20)
(0.026821 0.00451098 4.0819e-19)
(0.0675178 0.00443704 -2.52924e-19)
(0.124181 0.00495058 6.53982e-19)
(0.196196 0.00692101 2.76002e-19)
(0.282535 0.0109985 -1.81802e-19)
(0.381547 0.0176159 -3.11773e-19)
(0.490773 0.0269345 -4.98011e-19)
(0.606852 0.0388017 5.29185e-19)
(-0.00352337 0.00222333 2.28103e-19)
(0.00706109 0.00252058 3.71798e-19)
(0.0355059 0.00251072 1.51856e-20)
(0.0809836 0.00249446 2.3205e-19)
(0.142969 0.00349948 -5.61834e-19)
(0.220637 0.00636286 1.36147e-19)
(0.312651 0.0116777 -8.9258e-20)
(0.416964 0.0197913 -1.76619e-20)
(0.530642 0.0307449 -1.70281e-19)
(0.649838 0.0442368 -3.74392e-19)
(0.769963 0.059624 1.85392e-19)
(-0.00208143 0.00156132 -4.10072e-20)
(0.0121116 0.00093249 -5.61653e-19)
(0.0449334 0.000597191 -4.33266e-19)
(0.0954305 0.000740459 -2.77333e-20)
(0.162915 0.00236279 9.85094e-20)
(0.246316 0.00625674 -1.90877e-19)
(0.343955 0.0129419 -1.25899e-21)
(0.453349 0.02266 6.36409e-20)
(0.571071 0.0353122 9.4093e-20)
(0.692796 0.050431 5.33464e-19)
(0.813571 0.0672054 2.21425e-19)
(0.928318 0.0845745 1.3557e-19)
(1.03246 0.10138 -1.81113e-19)
(-0.000470709 0.000898777 7.31067e-20)
(0.0176408 -0.000616204 2.98018e-19)
(0.0551156 -0.00119435 1.863e-19)
(0.11086 -0.000778292 -3.42896e-19)
(0.183999 0.00159489 7.36979e-20)
(0.27318 0.00665912 4.49629e-19)
(0.376346 0.0148423 2.4643e-19)
(0.490545 0.0262596 3.26104e-20)
(0.611847 0.0406523 3.02234e-19)
(0.735474 0.057374 -6.16121e-19)
(0.856176 0.0754449 -1.73597e-19)
(0.968826 0.0936785 -7.4196e-20)
(1.06908 0.110862 4.39427e-19)
(1.15394 0.125942 -2.90997e-19)
(0.00131495 0.00024321 -6.81748e-20)
(0.0236599 -0.00210289 -4.23166e-20)
(0.0660606 -0.00282762 -1.09528e-19)
(0.127269 -0.00201458 3.59691e-19)
(0.206191 0.0012495 2.41761e-19)
(0.301163 0.00762397 -7.72088e-20)
(0.409707 0.0174251 -1.3544e-20)
(0.528381 0.0306203 3.05543e-19)
(0.652752 0.0467723 -4.66336e-19)
(0.777628 0.0650467 2.85497e-19)
(0.897544 0.0842997 2.92876e-19)
(1.00743 0.103239 7.82679e-20)
(1.10327 0.120625 -1.56122e-19)
(1.18263 0.13546 2.27427e-19)
(1.24475 0.147109 1.8737e-19)
(0.0032813 -0.000397431 -1.06254e-19)
(0.030178 -0.00350409 4.68635e-20)
(0.0777718 -0.0042656 3.0878e-19)
(0.144643 -0.00292113 5.03504e-21)
(0.229453 0.00137905 -5.23243e-19)
(0.330184 0.00920194 -3.60189e-19)
(0.443909 0.020731 -3.08201e-19)
(0.566676 0.0357644 -1.62172e-19)
(0.693564 0.0536703 6.1786e-19)
(0.819022 0.073422 -2.75e-20)
(0.93746 0.0937221 8.38397e-20)
(1.04397 0.113197 1.37195e-19)
(1.13498 0.130611 -4.58043e-19)
(1.20863 0.14505 -3.66642e-19)
(1.26482 0.156009 9.81199e-20)
(1.30491 0.163393 -1.88022e-20)
(1.33128 0.167469 -3.8844e-19)
(0.00543353 -0.00101476 1.35058e-19)
(0.0372018 -0.00479549 1.72711e-19)
(0.0902483 -0.00547071 -3.19512e-19)
(0.162963 -0.00345105 -1.74943e-20)
(0.253732 0.00203402 6.15636e-19)
(0.36015 0.0114396 3.85619e-19)
(0.478811 0.0247941 -1.55557e-19)
(0.605243 0.041706 2.295e-19)
(0.734065 0.0613361 -2.45257e-19)
(0.859435 0.082466 -2.48398e-19)
(0.97574 0.103661 2.53861e-19)
(1.07834 0.123494 -5.13124e-19)
(1.16417 0.140767 6.47246e-20)
(1.23202 0.154671 2.47531e-19)
(1.28239 0.164848 -1.35454e-19)
(1.31717 0.171349 1.93944e-19)
(1.33902 0.174559 -2.34399e-19)
(1.35088 0.174932 3.83817e-20)
(0.00777613 -0.00159993 1.58556e-19)
(0.0447355 -0.00595206 -5.25338e-19)
(0.103484 -0.0064051 8.42865e-20)
(0.182203 -0.00355823 -8.83513e-20)
(0.278969 0.00326234 -2.16786e-19)
(0.390958 0.0143787 -1.74368e-19)
(0.51426 0.0296418 1.56601e-19)
(0.643887 0.0484512 -7.19795e-19)
(0.774039 0.0697515 -1.68982e-19)
(0.898665 0.0921393 1.08926e-19)
(1.01223 0.114065 -1.38268e-19)
(1.11046 0.134077 3.97949e-19)
(1.19087 0.151046 2.79569e-19)
(1.25289 0.164292 9.73331e-20)
(1.29764 0.17361 5.37901e-19)
(1.32741 0.179197 -5.31134e-19)
(1.34514 0.181546 3.26986e-19)
(1.35383 0.181191 4.62128e-19)
(1.35623 0.179106 -3.29329e-19)
(1.35432 0.174411 9.21569e-20)
(0.0103127 -0.00214366 1.26997e-20)
(0.0527801 -0.00694813 -5.65594e-21)
(0.117466 -0.00703085 3.84853e-19)
(0.202324 -0.00319778 -5.56316e-20)
(0.305092 0.0051089 -2.39642e-20)
(0.422492 0.0180559 4.14236e-19)
(0.550097 0.0352942 4.77453e-19)
(0.682417 0.055998 1.30787e-19)
(0.813284 0.0788916 2.81962e-19)
(0.936529 0.102398 -1.85919e-19)
(1.0468 0.12488 -1.57812e-19)
(1.14028 0.144894 -2.99219e-21)
(1.21511 0.161407 -1.93631e-19)
(1.27137 0.173885 -7.04805e-21)
(1.31072 0.182284 -3.78624e-19)
(1.33583 0.186941 1.4937e-19)
(1.34982 0.18844 3.50388e-19)
(1.3557 0.187385 -1.76365e-19)
(1.35611 0.18472 2.03076e-19)
(1.35287 0.179676 3.64878e-19)
(0.0130459 -0.00263626 4.89965e-20)
(0.0613333 -0.0077575 -1.35341e-19)
(0.132177 -0.00731025 -7.93712e-21)
(0.223284 -0.00232643 3.66275e-21)
(0.33202 0.00761502 -2.72556e-19)
(0.45463 0.0225022 -3.86176e-20)
(0.586157 0.0417644 -4.92702e-19)
(0.720639 0.064337 5.13478e-19)
(0.851608 0.0887252 2.65433e-19)
(0.972871 0.113197 2.34698e-20)
(1.07936 0.136054 -2.61789e-21)
(1.1678 0.155897 -1.39178e-19)
(1.23697 0.171814 8.24691e-20)
(1.28758 0.183431 2.25713e-19)
(1.3218 0.190867 -3.92492e-19)
(1.34262 0.194586 2.99062e-19)
(1.35324 0.195256 -3.60523e-19)
(1.35666 0.19353 -1.62385e-20)
(1.35535 0.190316 1.54642e-21)
(1.35099 0.184948 1.64506e-19)
(0.0159773 -0.00306764 -1.07085e-19)
(0.0703894 -0.00835366 -1.22689e-19)
(0.147594 -0.00720612 1.75552e-19)
(0.24503 -0.000902908 -7.83565e-20)
(0.359663 0.0108181 -2.47758e-20)
(0.487238 0.0277426 -2.41949e-19)
(0.622274 0.0490582 2.71355e-19)
(0.758369 0.073452 -4.87759e-19)
(0.888835 0.0992163 4.50595e-20)
(1.00756 0.124486 7.54733e-20)
(1.10984 0.147537 -4.15099e-20)
(1.19301 0.167044 2.98089e-20)
(1.25652 0.182238 -3.4521e-19)
(1.30167 0.192918 -2.6374e-19)
(1.33106 0.199357 2.21691e-19)
(1.34793 0.202142 -7.14911e-20)
(1.35555 0.202005 -4.2935e-19)
(1.35681 0.199641 -8.19861e-20)
(1.35404 0.195907 -3.59694e-19)
(1.34874 0.190234 -4.45396e-19)
(0.019107 -0.00342741 -2.54373e-20)
(0.0799391 -0.00870991 1.81003e-19)
(0.163686 -0.00668209 1.31934e-19)
(0.267502 0.0011116 3.86861e-19)
(0.387923 0.014751 -1.38585e-20)
(0.520181 0.0337961 2.0718e-19)
(0.658278 0.0571746 -4.40693e-19)
(0.795429 0.0833202 1.55332e-19)
(0.924808 0.110325 -1.30689e-19)
(1.04048 0.136218 1.90067e-19)
(1.13821 0.159282 4.68918e-20)
(1.21597 0.178298 1.11564e-19)
(1.27386 0.192657 3.2075e-19)
(1.31377 0.202336 3.995e-20)
(1.33866 0.207759 -2.00394e-19)
(1.35194 0.209619 3.31964e-19)
(1.35688 0.208703 1.17035e-19)
(1.35627 0.205729 -5.57562e-20)
(1.35226 0.201503 3.38202e-19)
(1.34618 0.195543 2.24305e-19)
(0.0224341 -0.00370492 8.33813e-20)
(0.0899689 -0.00879965 9.4098e-20)
(0.180419 -0.00570296 -2.33266e-19)
(0.290632 0.0037531 -5.34589e-20)
(0.416696 0.0194422 6.93117e-20)
(0.553315 0.0406753 -4.09053e-20)
(0.694004 0.0661058 2.49933e-19)
(0.831652 0.0939137 -7.96583e-20)
(0.959387 0.122008 -9.80925e-20)
(1.07155 0.148344 -3.35844e-19)
(1.16445 0.171245 -2.15392e-19)
(1.23671 0.189624 -1.99331e-19)
(1.28912 0.203052 -1.63053e-19)
(1.32403 0.211681 6.26595e-20)
(1.34475 0.216078 -1.2247e-19)
(1.35478 0.21703 1.49438e-20)
(1.35736 0.215362 2.33881e-19)
(1.35513 0.211806 2.48745e-19)
(1.35006 0.207111 1.80784e-20)
(1.34334 0.200879 1.56933e-19)
(0.025956 -0.00388936 4.30309e-20)
(0.100462 -0.00859654 1.60773e-19)
(0.197749 -0.00423505 1.27515e-19)
(0.314347 0.00705435 -2.12532e-19)
(0.445869 0.0249147 1.97612e-19)
(0.586498 0.0483868 -6.43538e-20)
(0.729291 0.0758378 -1.37644e-19)
(0.866883 0.1052 3.31434e-19)
(0.992453 0.134221 -8.37066e-20)
(1.10071 0.160817 -3.23494e-21)
(1.18856 0.183385 2.31006e-19)
(1.25533 0.200996 -2.08707e-19)
(1.3024 0.213408 9.16453e-20)
(1.3326 0.22095 -2.32417e-19)
(1.34947 0.224321 3.92848e-19)
(1.35658 0.224384 -2.98646e-19)
(1.35708 0.221993 -1.80466e-19)
(1.35347 0.217882 -1.83422e-21)
(1.34751 0.212737 -2.6677e-19)
(1.34025 0.206247 -3.16997e-21)
(0.0296688 -0.00396987 -1.93644e-19)
(0.111397 -0.00807486 -7.13326e-20)
(0.215631 -0.00224658 -2.37583e-19)
(0.338564 0.0110445 -1.31909e-19)
(0.475327 0.0311866 -6.79631e-20)
(0.619585 0.0569307 -3.29145e-20)
(0.763982 0.0863508 1.51894e-19)
(0.90098 0.117141 -8.33762e-20)
(1.02391 0.146918 -4.09596e-20)
(1.12792 0.173591 1.03818e-19)
(1.21058 0.195665 -1.41635e-19)
(1.27189 0.212389 1.81242e-19)
(1.31383 0.223717 1.7517e-19)
(1.33961 0.230147 3.91424e-20)
(1.35296 0.232496 -1.11763e-19)
(1.35746 0.231693 -2.67302e-20)
(1.35614 0.228607 -1.55149e-19)
(1.35135 0.223964 -6.61513e-20)
(1.34464 0.218387 1.09352e-19)
(1.33693 0.211646 -1.88132e-19)
(0.033567 -0.00393559 6.41976e-20)
(0.122748 -0.00720968 -1.09353e-19)
(0.234011 0.000291991 1.86464e-19)
(0.363199 0.0157488 8.73914e-20)
(0.50495 0.0382705 -1.26664e-19)
(0.652432 0.0663013 1.57143e-19)
(0.79793 0.0976198 3.93146e-20)
(0.933819 0.129699 -7.15064e-20)
(1.05367 0.160054 1.93516e-19)
(1.15316 0.186623 5.78843e-20)
(1.23055 0.208052 1.10862e-19)
(1.2865 0.223784 -1.15101e-19)
(1.32352 0.23397 -7.68518e-20)
(1.34519 0.239272 1.63874e-19)
(1.35533 0.240612 -4.71382e-20)
(1.35751 0.238967 2.71255e-19)
(1.35462 0.235213 1.44173e-19)
(1.34881 0.230057 -2.40506e-20)
(1.34148 0.224063 8.00184e-20)
(1.33341 0.217079 3.06886e-19)
(0.0376435 -0.00377587 -3.18009e-20)
(0.134487 -0.00597725 1.79092e-20)
(0.25283 0.00340758 -1.7062e-19)
(0.388159 0.0211881 1.10117e-19)
(0.534616 0.0461734 1.03399e-19)
(0.684899 0.076487 -1.48378e-19)
(0.830998 0.109615 6.91459e-20)
(0.965288 0.142831 -1.3558e-19)
(1.08167 0.173581 -1.94305e-19)
(1.17643 0.199872 7.08054e-20)
(1.24851 0.220516 1.32026e-20)
(1.29923 0.235163 1.1145e-19)
(1.33161 0.244165 7.58914e-20)
(1.34946 0.24833 -5.16821e-20)
(1.35671 0.248676 -1.0851e-20)
(1.35683 0.246215 -4.13208e-20)
(1.35257 0.241816 -2.16755e-19)
(1.34591 0.236166 1.81386e-20)
(1.33806 0.229766 -1.44847e-19)
(1.32969 0.222542 1.49286e-21)
(0.0418898 -0.00348027 -3.58647e-20)
(0.146582 -0.00435519 -4.60941e-20)
(0.272027 0.00712415 1.80508e-19)
(0.413349 0.0273788 -2.24717e-20)
(0.564202 0.0548967 8.49416e-22)
(0.716849 0.0874709 -1.01117e-19)
(0.863057 0.122303 -1.78809e-20)
(0.995293 0.156492 7.27355e-20)
(1.10788 0.187455 2.51181e-19)
(1.19774 0.213301 -8.11326e-20)
(1.26454 0.233031 1.41056e-20)
(1.31021 0.246515 4.46855e-20)
(1.33819 0.254297 -8.78758e-20)
(1.35253 0.257326 -5.70496e-20)
(1.35717 0.256697 1.54023e-20)
(1.35549 0.253443 5.41788e-20)
(1.35006 0.248422 1.38594e-19)
(1.34267 0.242293 -3.71468e-21)
(1.3344 0.235495 5.34216e-20)
(1.32578 0.228033 3.71137e-20)
(0.0462959 -0.00303879 6.25066e-20)
(0.158995 -0.00232283 1.29029e-19)
(0.291534 0.0114624 8.96061e-20)
(0.438672 0.0343326 -4.92596e-20)
(0.593587 0.0644363 1.84175e-19)
(0.748153 0.0992305 1.09826e-19)
(0.893991 0.135646 -1.65981e-19)
(1.02375 0.170638 -5.84399e-20)
(1.13226 0.201632 1.11707e-21)
(1.21712 0.226873 -4.94047e-20)
(1.2787 0.245574 -1.43767e-19)
(1.31952 0.257827 2.40844e-20)
(1.34339 0.264365 2.87122e-22)
(1.35451 0.266264 -1.53665e-19)
(1.35681 0.264679 7.08956e-20)
(1.35355 0.260657 -3.83997e-20)
(1.34711 0.255034 -1.70742e-19)
(1.33912 0.248438 8.32726e-20)
(1.3305 0.241248 -1.77572e-19)
(1.32168 0.233549 -1.08002e-19)
(0.05085 -0.00244191 -2.19177e-20)
(0.171687 0.000138576 -5.53732e-20)
(0.311279 0.0164394 -9.31433e-20)
(0.464027 0.0420563 -4.52332e-21)
(0.622649 0.0747826 -8.43767e-21)
(0.778687 0.111739 -1.04076e-19)
(0.923696 0.149604 2.39117e-20)
(1.05061 0.185224 2.27492e-20)
(1.1548 0.216069 -4.77219e-20)
(1.2346 0.240556 3.96242e-21)
(1.29107 0.258123 7.58309e-20)
(1.32726 0.269091 -1.01122e-20)
(1.34729 0.27437 5.86292e-20)
(1.35549 0.275148 2.62668e-20)
(1.35571 0.27263 -1.4621e-19)
(1.35107 0.267861 1.13148e-20)
(1.34378 0.261654 9.06449e-20)
(1.33529 0.2546 -2.17288e-20)
(1.32639 0.247023 4.1285e-21)
(1.31741 0.239085 -1.52037e-20)
(0.0555392 -0.00168072 -2.01347e-20)
(0.184616 0.00304554 -1.97764e-20)
(0.331191 0.0220686 -3.53236e-20)
(0.489312 0.0505515 -2.34613e-20)
(0.651271 0.0859207 -6.14341e-20)
(0.808334 0.124965 7.20094e-20)
(0.952079 0.164133 1.43925e-19)
(1.0758 0.200202 5.06575e-20)
(1.1755 0.230726 2.61374e-20)
(1.25024 0.254318 -6.28481e-20)
(1.30173 0.270661 -6.11194e-22)
(1.33353 0.280299 4.13015e-20)
(1.35001 0.28431 -5.34841e-20)
(1.35555 0.283982 2.0551e-20)
(1.35393 0.280551 6.95508e-20)
(1.34809 0.275058 -2.42838e-20)
(1.34008 0.268282 -4.33456e-20)
(1.33118 0.260776 -4.04216e-20)
(1.32206 0.252816 1.45078e-19)
(1.31295 0.244635 5.16199e-20)
(0.0603491 -0.000747085 -3.61187e-20)
(0.197736 0.00641218 4.38671e-20)
(0.351192 0.0283593 -1.00899e-20)
(0.514425 0.0598148 3.18501e-20)
(0.679337 0.0978307 -2.87515e-20)
(0.836986 0.138872 -1.77639e-20)
(0.979062 0.17919 -7.01228e-20)
(1.09929 0.215527 8.3835e-21)
(1.19437 0.245563 2.02341e-20)
(1.26407 0.268132 4.55468e-20)
(1.31076 0.283171 -1.78577e-20)
(1.33841 0.291444 -1.42119e-20)
(1.35162 0.294186 1.30643e-20)
(1.35476 0.292767 -2.32198e-20)
(1.35152 0.288447 5.32807e-20)
(1.34465 0.282247 3.55813e-20)
(1.33604 0.274915 -6.17697e-21)
(1.32681 0.266963 -4.05377e-21)
(1.31752 0.25862 -3.91323e-20)
(1.30832 0.250192 -4.97007e-20)
(0.065264 0.000366325 7.79204e-21)
(0.210999 0.01025 -1.37355e-20)
(0.371204 0.0353166 9.42415e-21)
(0.539266 0.0698381 -1.30641e-20)
(0.706739 0.110488 -5.05402e-20)
(0.864546 0.153423 2.35807e-20)
(1.00457 0.194728 1.15008e-20)
(1.12107 0.231155 -5.53955e-20)
(1.21143 0.260542 -3.51451e-20)
(1.27617 0.281972 -3.38359e-21)
(1.31824 0.295638 -4.96955e-20)
(1.34201 0.302521 5.1701e-20)
(1.35221 0.303998 -1.25501e-22)
(1.3532 0.301505 -7.00892e-21)
(1.34853 0.296317 -1.34691e-20)
(1.34079 0.289429 6.64599e-21)
(1.33168 0.28155 4.66826e-21)
(1.32219 0.273155 -1.85466e-21)
(1.31277 0.26443 -1.4349e-20)
(1.3035 0.255751 1.77746e-20)
(0.0702672 0.00166589 2.61456e-21)
(0.224356 0.0145676 9.06578e-21)
(0.391149 0.0429414 5.08799e-21)
(0.563736 0.0806078 -2.38736e-21)
(0.733371 0.123862 3.3398e-20)
(0.890923 0.168575 -7.50489e-21)
(1.02856 0.210699 1.20082e-20)
(1.14111 0.247039 2.68207e-20)
(1.22671 0.275627 -4.87376e-21)
(1.28659 0.295812 1.2277e-21)
(1.32425 0.308049 1.36746e-20)
(1.34439 0.313524 -7.3321e-21)
(1.35184 0.313743 9.59635e-21)
(1.35092 0.310197 1.74273e-21)
(1.34501 0.304161 -1.83877e-20)
(1.33653 0.296599 9.02876e-22)
(1.32701 0.288183 2.41905e-20)
(1.31732 0.279347 -5.08085e-21)
(1.30781 0.270239 7.58377e-21)
(1.2985 0.261303 -8.63269e-21)
(0.0753409 0.00315698 1.0799e-21)
(0.237755 0.0193708 1.3429e-20)
(0.410946 0.0512305 7.291e-21)
(0.587736 0.0921059 -1.49512e-21)
(0.759136 0.137921 3.0993e-20)
(0.916039 0.184283 -8.82737e-21)
(1.05098 0.227056 1.66307e-20)
(1.15941 0.263136 2.24808e-20)
(1.24024 0.290785 -4.67239e-21)
(1.29538 0.30963 1.05708e-21)
(1.32886 0.32039 1.55676e-20)
(1.34563 0.324447 -6.33571e-21)
(1.35059 0.323419 6.27235e-21)
(1.34796 0.318841 -1.54489e-21)
(1.34098 0.311975 -1.50359e-20)
(1.33188 0.303754 -4.3502e-22)
(1.32204 0.294808 2.40429e-20)
(1.3122 0.285531 -4.74121e-21)
(1.30264 0.27604 8.95326e-21)
(1.29331 0.266841 -9.73502e-21)
(0.0804665 0.00484389 9.41448e-21)
(0.251145 0.0246624 -1.7285e-20)
(0.430517 0.0601761 8.87364e-21)
(0.611174 0.10431 -7.19056e-21)
(0.783943 0.152626 -4.91373e-20)
(0.939822 0.200501 2.00917e-20)
(1.07178 0.243749 9.35279e-21)
(1.17598 0.279404 -6.35882e-20)
(1.25206 0.305981 -2.68821e-20)
(1.30263 0.323403 -2.3755e-23)
(1.33215 0.332649 -4.2035e-20)
(1.3458 0.335284 3.53032e-20)
(1.34851 0.333025 -7.954e-21)
(1.34438 0.327434 5.07378e-21)
(1.33648 0.319758 -1.98178e-20)
(1.32687 0.310889 1.5103e-20)
(1.31678 0.301418 9.71061e-21)
(1.30685 0.291699 -1.72153e-21)
(1.29727 0.281824 -1.92848e-20)
(1.28793 0.272356 1.78599e-20)
(0.0856242 0.00672971 -2.03881e-20)
(0.26447 0.0304419 -9.32958e-21)
(0.449783 0.0697661 -1.36413e-20)
(0.633957 0.117192 4.72187e-20)
(0.807706 0.167937 1.34918e-22)
(0.962212 0.217179 -2.53601e-20)
(1.09096 0.26073 -1.03902e-19)
(1.19083 0.295799 1.01102e-20)
(1.26223 0.321184 1.18432e-20)
(1.30839 0.337111 5.31339e-20)
(1.33418 0.344814 7.88767e-21)
(1.34497 0.346028 -4.5147e-20)
(1.34565 0.342555 4.2779e-20)
(1.34021 0.335972 -1.73322e-20)
(1.33153 0.327502 6.56695e-20)
(1.32151 0.317996 -5.98713e-21)
(1.31124 0.308005 3.48436e-21)
(1.30124 0.297844 2.96642e-21)
(1.29168 0.287582 -5.13682e-20)
(1.28237 0.277839 -3.13513e-20)
(0.0907936 0.00881631 -7.78546e-21)
(0.277678 0.0367057 -4.4956e-20)
(0.468666 0.0799843 3.56422e-20)
(0.656001 0.130721 -4.54707e-20)
(0.830349 0.183809 -8.24756e-20)
(0.983157 0.234267 7.22261e-20)
(1.10849 0.277949 1.19443e-19)
(1.20397 0.31228 4.291e-20)
(1.27077 0.336364 2.99512e-20)
(1.31271 0.350735 -8.61412e-20)
(1.33503 0.356873 6.62411e-20)
(1.34319 0.356672 7.73842e-21)
(1.34207 0.352004 -8.44448e-20)
(1.33549 0.34445 3.31165e-20)
(1.32616 0.335202 1.18181e-19)
(1.3158 0.325068 -8.13214e-20)
(1.30541 0.314559 -2.32865e-20)
(1.2954 0.303954 -2.25969e-20)
(1.28588 0.293304 1.04643e-19)
(1.27661 0.283281 6.06671e-20)
(0.0959542 0.0111043 5.34351e-20)
(0.290715 0.043447 -9.15936e-20)
(0.487092 0.0908102 -1.33813e-19)
(0.677225 0.144861 6.04215e-21)
(0.851802 0.200195 -2.46659e-20)
(1.00261 0.251713 -9.93243e-20)
(1.12436 0.295359 -1.6598e-20)
(1.21544 0.328807 5.15229e-20)
(1.27775 0.35149 -8.3102e-20)
(1.31567 0.364253 6.82317e-20)
(1.33474 0.368815 7.95508e-20)
(1.34052 0.367209 -5.01965e-20)
(1.33779 0.361365 2.05916e-20)
(1.33023 0.35286 1.0468e-19)
(1.32036 0.342849 -1.40068e-19)
(1.30977 0.332095 2.45455e-20)
(1.2993 0.321072 6.70467e-20)
(1.28932 0.310021 -2.04407e-20)
(1.27987 0.298982 -2.1677e-20)
(1.27066 0.288672 -3.71265e-21)
(0.101085 0.0135928 7.91489e-20)
(0.303527 0.0506558 1.4748e-19)
(0.504987 0.10222 7.84549e-20)
(0.697551 0.159573 -9.41337e-20)
(0.872002 0.217046 2.46559e-19)
(1.02055 0.269465 3.81667e-20)
(1.13857 0.312909 -1.05694e-19)
(1.22526 0.345342 -7.64759e-20)
(1.28322 0.366535 -6.16056e-20)
(1.31733 0.377648 2.06096e-20)
(1.33339 0.380625 -6.97397e-20)
(1.33701 0.37763 2.256e-21)
(1.33287 0.370632 -4.762e-20)
(1.32447 0.361195 -6.51468e-20)
(1.31417 0.350434 -1.11834e-20)
(1.3034 0.339068 -6.91583e-21)
(1.29291 0.327531 -1.24181e-19)
(1.28299 0.316034 9.39995e-20)
(1.27364 0.304604 -1.43177e-19)
(1.26451 0.294003 -8.47021e-20)
(0.106165 0.0162801 -9.61477e-20)
(0.316063 0.058319 -3.96715e-20)
(0.522283 0.114184 1.77501e-19)
(0.71691 0.174815 4.51364e-20)
(0.890897 0.23431 -1.55418e-19)
(1.03693 0.287469 -9.05967e-20)
(1.15113 0.330554 -3.03591e-20)
(1.23346 0.361844 1.96762e-19)
(1.28722 0.381471 1.41088e-19)
(1.31773 0.3909 -4.85626e-20)
(1.33102 0.392293 -2.83235e-20)
(1.3327 0.387924 7.16623e-20)
(1.32732 0.379794 -7.81988e-20)
(1.31822 0.369445 3.62573e-20)
(1.30759 0.357948 1.57941e-20)
(1.29671 0.345975 -1.99706e-20)
(1.28625 0.333927 1.51355e-19)
(1.27642 0.321981 -6.39162e-20)
(1.26719 0.31016 1.29134e-19)
(1.25816 0.299264 -4.62607e-20)
(0.111173 0.0191626 -5.42744e-20)
(0.328269 0.0664205 -1.00439e-19)
(0.538912 0.126672 -1.59648e-19)
(0.735237 0.190541 9.69294e-20)
(0.908438 0.251934 5.36264e-20)
(1.05175 0.305672 -7.6744e-20)
(1.16204 0.348244 1.27686e-19)
(1.24008 0.378277 -1.97675e-19)
(1.2898 0.396269 -2.1091e-19)
(1.31694 0.403991 1.27726e-19)
(1.32769 0.403804 4.77853e-20)
(1.32763 0.398082 -5.31527e-20)
(1.32119 0.388843 8.11148e-20)
(1.31151 0.3776 6.39336e-20)
(1.30063 0.365378 -4.6856e-20)
(1.2897 0.352805 -1.60231e-20)
(1.2793 0.340248 -1.15702e-19)
(1.2696 0.327851 2.36786e-20)
(1.26053 0.315638 -9.90459e-20)
(1.25162 0.304444 -1.6482e-20)
(0.116087 0.0222357 4.5089e-20)
(0.340098 0.0749413 -7.91496e-20)
(0.554812 0.139649 1.44849e-19)
(0.752474 0.206703 2.46208e-19)
(0.924586 0.269862 -3.54967e-19)
(1.06499 0.324019 3.13642e-19)
(1.17134 0.365933 8.45833e-20)
(1.24517 0.394604 -1.2325e-19)
(1.29102 0.410904 1.45967e-19)
(1.31501 0.416901 8.65231e-20)
(1.32344 0.415144 1.0751e-19)
(1.32184 0.408091 -1.86597e-19)
(1.31448 0.397766 -3.86749e-20)
(1.30435 0.385648 9.28261e-20)
(1.2933 0.372713 3.54242e-20)
(1.28238 0.359545 1.63576e-19)
(1.27208 0.34648 2.05471e-19)
(1.26254 0.333633 -5.07134e-20)
(1.25364 0.321028 8.81551e-20)
(1.24488 0.309532 1.00506e-19)
(0.120888 0.0254935 -1.32334e-20)
(0.351501 0.0838596 -1.84224e-19)
(0.569925 0.153076 -2.53405e-19)
(0.768568 0.22325 -3.31949e-19)
(0.939308 0.288039 -3.282e-20)
(1.07665 0.342457 1.23186e-19)
(1.17903 0.383575 -2.33578e-20)
(1.24875 0.410789 4.13536e-20)
(1.29093 0.425349 -6.4576e-20)
(1.31198 0.429612 1.08716e-19)
(1.31831 0.4263 -1.65666e-19)
(1.31535 0.417939 2.16814e-19)
(1.30724 0.406552 1.24558e-19)
(1.29675 0.393577 5.70488e-20)
(1.2856 0.37994 -8.51839e-20)
(1.27474 0.366183 -9.06595e-20)
(1.26459 0.352612 -8.64897e-20)
(1.25523 0.339314 6.29479e-21)
(1.24653 0.326316 1.14685e-19)
(1.23794 0.314518 -1.22448e-19)
(0.125554 0.0289287 -2.35197e-20)
(0.362433 0.0931507 1.43172e-19)
(0.584196 0.166913 1.81201e-19)
(0.783473 0.240131 -2.86204e-20)
(0.95258 0.306408 8.5123e-20)
(1.08672 0.360933 2.32414e-20)
(1.18514 0.401125 -1.25439e-19)
(1.25088 0.426797 9.98162e-20)
(1.28957 0.439578 9.39432e-20)
(1.30791 0.442104 -1.63282e-19)
(1.31234 0.437255 2.64211e-19)
(1.30821 0.427613 -2.19934e-19)
(1.29946 0.415188 1.27498e-19)
(1.28872 0.401374 -1.85432e-19)
(1.27754 0.387045 2.73546e-19)
(1.26679 0.372706 -1.72864e-19)
(1.25681 0.35863 -5.06951e-20)
(1.24767 0.344881 -6.81774e-20)
(1.2392 0.331489 -1.43666e-19)
(1.23081 0.319387 2.24265e-21)
(0.130067 0.0325331 1.68275e-19)
(0.372849 0.102788 1.79707e-19)
(0.597577 0.181116 -2.60821e-19)
(0.797149 0.25729 -1.59775e-19)
(0.964383 0.324912 2.37335e-19)
(1.09521 0.379392 -9.48577e-20)
(1.1897 0.418537 1.39767e-19)
(1.25159 0.442593 6.03709e-20)
(1.287 0.453565 -1.40563e-19)
(1.30284 0.454358 -3.4929e-19)
(1.30558 0.447995 -6.20904e-20)
(1.30044 0.437099 -1.31424e-19)
(1.29119 0.423659 -1.94803e-19)
(1.28027 0.409024 1.57615e-20)
(1.26913 0.394016 -1.99951e-20)
(1.25853 0.379099 -1.9685e-20)
(1.24876 0.364522 1.58239e-19)
(1.23986 0.350322 1.14097e-19)
(1.23165 0.336532 1.25768e-20)
(1.22347 0.32413 6.72706e-20)
(0.134406 0.0362969 -4.06411e-20)
(0.382711 0.112741 3.19755e-19)
(0.610021 0.195639 1.24445e-19)
(0.809563 0.274672 2.54621e-19)
(0.974702 0.343492 8.34663e-20)
(1.10214 0.397783 3.2119e-20)
(1.19275 0.435769 -2.03464e-19)
(1.25094 0.458142 -6.56804e-20)
(1.28326 0.467286 3.24626e-20)
(1.29682 0.466355 2.59642e-19)
(1.29805 0.458502 -8.51727e-20)
(1.29206 0.44638 1.05592e-19)
(1.28242 0.431952 2.24152e-19)
(1.27142 0.416512 5.11587e-20)
(1.26038 0.400836 -4.45473e-20)
(1.24996 0.385349 6.00251e-20)
(1.24044 0.370276 1.14317e-19)
(1.2318 0.355624 5.20778e-20)
(1.22386 0.341437 1.32769e-19)
(1.21589 0.328744 1.0229e-19)
(0.138555 0.0402095 -1.06408e-19)
(0.391979 0.12298 -1.63676e-19)
(0.62149 0.210435 1.04737e-19)
(0.820685 0.29222 3.55342e-20)
(0.983533 0.362091 7.09328e-20)
(1.10752 0.416052 -2.89917e-19)
(1.19431 0.452776 1.05639e-19)
(1.24896 0.473413 -2.28829e-19)
(1.27839 0.480713 -1.27727e-19)
(1.28988 0.478074 1.48838e-19)
(1.2898 0.46876 -1.59183e-20)
(1.28309 0.455443 9.55629e-21)
(1.27318 0.44005 -2.72882e-19)
(1.26217 0.423825 -1.10423e-19)
(1.25128 0.407492 9.09981e-20)
(1.24109 0.391443 -1.59016e-19)
(1.23184 0.375877 -8.53082e-20)
(1.2235 0.360779 -8.59349e-20)
(1.21584 0.34621 -1.49609e-19)
(1.20802 0.333228 -3.47326e-19)
(0.142495 0.0442591 6.19005e-20)
(0.40062 0.133471 -7.72601e-20)
(0.631947 0.225455 -4.24971e-19)
(0.830495 0.309877 2.30713e-19)
(0.990875 0.380652 -2.88165e-19)
(1.11137 0.434148 -4.13214e-20)
(1.19443 0.469517 -3.99285e-19)
(1.2457 0.488371 4.26078e-19)
(1.27245 0.493824 2.43747e-19)
(1.28206 0.489496 -1.42919e-20)
(1.28084 0.478751 8.75738e-20)
(1.27356 0.46427 -1.11041e-19)
(1.26348 0.447939 -9.1435e-21)
(1.25254 0.430946 5.15666e-20)
(1.24184 0.413969 -5.33132e-20)
(1.23192 0.397365 1.00336e-19)
(1.22297 0.381312 -1.33831e-19)
(1.21495 0.365778 -1.19123e-19)
(1.2076 0.350864 6.73961e-20)
(1.20001 0.337552 9.23229e-20)
(0.14621 0.0484331 1.41947e-19)
(0.408601 0.144179 1.43471e-19)
(0.641363 0.240648 1.11345e-19)
(0.838977 0.327585 -2.63529e-21)
(0.99673 0.399116 -7.51902e-20)
(1.11372 0.452021 5.09567e-19)
(1.19314 0.485951 2.89901e-19)
(1.2412 0.502986 1.97862e-19)
(1.26548 0.506591 2.81378e-19)
(1.27341 0.5006 3.49047e-20)
(1.27121 0.488458 -2.35408e-19)
(1.2635 0.472844 -2.56513e-20)
(1.25333 0.4556 -5.15874e-20)
(1.24252 0.437859 -1.67435e-19)
(1.23208 0.42025 -6.28039e-20)
(1.22246 0.4031 -8.79202e-20)
(1.21383 0.386567 2.74842e-19)
(1.20616 0.370603 -3.74191e-21)
(1.19915 0.355347 7.66855e-20)
(1.19188 0.34173 6.21471e-20)
(0.149685 0.0527178 -4.76366e-20)
(0.415895 0.155067 -8.3573e-20)
(0.649713 0.255961 -1.82803e-19)
(0.846119 0.345284 -3.08629e-20)
(1.00111 0.417428 -3.08114e-19)
(1.11459 0.469621 -2.21537e-19)
(1.19048 0.502037 7.41678e-20)
(1.23551 0.517225 -5.39947e-19)
(1.25752 0.518992 -2.93291e-19)
(1.26395 0.511365 7.19416e-20)
(1.26094 0.497862 -3.74378e-20)
(1.25291 0.481149 2.14321e-19)
(1.24275 0.463018 2.92429e-19)
(1.23214 0.444547 7.38232e-20)
(1.22198 0.426321 2.00888e-19)
(1.2127 0.408634 -1.05408e-19)
(1.20443 0.391628 1.44466e-19)
(1.19714 0.37524 8.05525e-20)
(1.19048 0.359643 6.97035e-20)
(1.18356 0.345728 -1.34483e-19)
(0.152907 0.0570989 7.19389e-20)
(0.422476 0.166098 -9.01816e-21)
(0.656975 0.271344 -2.84203e-19)
(0.851916 0.362918 -2.16319e-22)
(1.00403 0.435531 6.93394e-19)
(1.11402 0.4869 1.40016e-19)
(1.1865 0.517736 1.06331e-19)
(1.22868 0.531057 3.13126e-19)
(1.2486 0.531001 -2.54733e-19)
(1.25373 0.521772 -2.74107e-19)
(1.25004 0.506945 -3.13359e-21)
(1.24182 0.489166 -1.95379e-19)
(1.23175 0.470176 -1.08583e-19)
(1.2214 0.450996 2.93775e-19)
(1.21157 0.432165 -7.71595e-20)
(1.20265 0.413952 5.39726e-21)
(1.19477 0.396481 -1.04789e-19)
(1.18787 0.379676 -1.5922e-19)
(1.18161 0.363744 9.67587e-21)
(1.17505 0.349538 1.52513e-19)
(0.155862 0.0615613 -3.46375e-19)
(0.428323 0.177233 2.17524e-19)
(0.663135 0.286742 4.89109e-19)
(0.856368 0.380428 1.549e-19)
(1.0055 0.453371 -8.1894e-19)
(1.11203 0.503809 -3.40321e-19)
(1.18124 0.53301 -2.68345e-19)
(1.22075 0.544454 -9.84375e-20)
(1.23878 0.542594 3.34806e-19)
(1.24277 0.531799 3.6156e-20)
(1.23856 0.515687 -7.09539e-20)
(1.23024 0.496878 1.29968e-19)
(1.22034 0.477056 1.90466e-20)
(1.2103 0.457186 -3.513e-19)
(1.20085 0.437767 1.05616e-19)
(1.19233 0.419039 1.40479e-19)
(1.18485 0.401112 6.7261e-20)
(1.17838 0.383898 9.12341e-20)
(1.17253 0.367637 -1.6018e-19)
(1.16636 0.353149 -7.91251e-20)
(0.158539 0.0660891 -2.38906e-20)
(0.433418 0.188433 1.10085e-19)
(0.668181 0.302102 5.58533e-20)
(0.85948 0.397756 1.66164e-19)
(1.00555 0.470892 4.57728e-19)
(1.10867 0.520304 -3.00911e-19)
(1.17474 0.547822 -1.87441e-20)
(1.21176 0.557384 2.92949e-19)
(1.22809 0.553747 -3.57065e-19)
(1.23111 0.541425 1.17177e-19)
(1.22651 0.52407 3.02838e-19)
(1.2182 0.504267 6.9187e-20)
(1.20855 0.483641 -1.50715e-19)
(1.19887 0.463103 2.53373e-19)
(1.18982 0.443111 -2.95587e-19)
(1.18173 0.423881 9.20332e-21)
(1.17467 0.405507 -6.89641e-20)
(1.16865 0.387894 1.20439e-19)
(1.16325 0.371313 1.06451e-19)
(1.15747 0.356553 9.60654e-20)
(0.160928 0.0706662 4.50134e-20)
(0.437747 0.199656 1.76859e-19)
(0.672107 0.317371 1.76576e-19)
(0.861261 0.414846 -1.12001e-19)
(1.00421 0.488043 9.96798e-21)
(1.10398 0.536339 2.79753e-19)
(1.16705 0.562135 4.99425e-19)
(1.20176 0.56982 -5.106e-20)
(1.21657 0.564436 4.8658e-20)
(1.21878 0.550631 -1.46269e-19)
(1.21392 0.532075 -3.10671e-19)
(1.20571 0.511314 5.02067e-20)
(1.19637 0.489913 1.76663e-19)
(1.1871 0.46873 -3.59052e-20)
(1.1785 0.448182 -2.91998e-20)
(1.17086 0.428463 -1.17264e-19)
(1.16426 0.409653 -2.0108e-20)
(1.1587 0.39165 -4.62879e-20)
(1.15376 0.37476 -3.7707e-20)
(1.14841 0.359739 -8.90701e-20)
(0.16302 0.0752758 -1.56328e-19)
(0.441298 0.210863 -4.05513e-19)