/*--------------------------------*- C++ -*----------------------------------*\
  =========                 |
  \\      /  F ield         | OpenFOAM: The Open Source CFD Toolbox
   \\    /   O peration     | Website:  https://openfoam.org
    \\  /    A nd           | Version:  7
     \\/     M anipulation  |
\*---------------------------------------------------------------------------*/
FoamFile
{
    version     2.0;
    format      ascii;
    class       volScalarField;
    location    "100";
    object      p;
}
// * * * * * * * * * * * * * * * * * * * * * * * * * * * * * * * * * * * * * //

dimensions      [0 2 -2 0 0 0 0];

internalField   nonuniform List<scalar> 
8500
(
-0.426929
-0.429926
-0.42806
-0.433021
-0.430953
-0.429049
-0.436226
-0.433949
-0.431855
-0.439554
-0.437058
-0.43477
-0.432217
-0.443015
-0.44029
-0.437804
-0.435035
-0.432049
-0.44662
-0.443655
-0.440965
-0.437977
-0.434759
-0.431385
-0.450377
-0.447158
-0.444261
-0.441052
-0.4376
-0.43398
-0.430179
-0.454292
-0.450807
-0.447697
-0.444265
-0.440576
-0.436707
-0.432639
-0.428299
-0.45837
-0.454605
-0.451278
-0.44762
-0.443693
-0.439572
-0.435227
-0.430579
-0.425491
-0.462614
-0.458556
-0.455007
-0.45112
-0.446952
-0.442574
-0.437944
-0.432971
-0.427507
-0.421366
-0.467022
-0.462659
-0.458884
-0.454767
-0.450355
-0.445712
-0.440787
-0.435471
-0.429606
-0.422998
-0.415451
-0.471594
-0.466914
-0.46291
-0.458559
-0.453899
-0.448985
-0.44375
-0.43807
-0.431776
-0.424668
-0.416557
-0.407299
-0.396825
-0.476325
-0.471319
-0.467081
-0.462494
-0.457581
-0.452388
-0.446827
-0.440759
-0.434003
-0.426359
-0.417648
-0.407751
-0.396634
-0.38436
-0.48121
-0.475867
-0.471394
-0.466568
-0.461397
-0.455912
-0.450006
-0.443524
-0.436272
-0.428054
-0.418707
-0.40814
-0.396359
-0.383466
-0.369641
-0.486238
-0.480551
-0.475841
-0.470774
-0.465338
-0.459549
-0.453277
-0.44635
-0.438566
-0.429735
-0.419715
-0.40845
-0.395988
-0.38247
-0.368105
-0.353142
-0.337812
-0.4914
-0.485363
-0.480414
-0.475103
-0.469394
-0.463286
-0.456624
-0.449219
-0.440864
-0.43138
-0.420652
-0.408664
-0.395507
-0.38136
-0.366462
-0.351071
-0.335423
-0.319771
-0.496681
-0.490291
-0.485103
-0.479545
-0.473554
-0.467109
-0.46003
-0.45211
-0.443145
-0.432968
-0.421499
-0.408765
-0.394903
-0.380128
-0.364704
-0.348896
-0.332939
-0.317067
-0.301252
-0.286357
-0.502066
-0.49532
-0.489893
-0.484085
-0.477803
-0.471
-0.463473
-0.455002
-0.445383
-0.434475
-0.422234
-0.408736
-0.394162
-0.378764
-0.362823
-0.34661
-0.330354
-0.314268
-0.298335
-0.283328
-0.507537
-0.500435
-0.494771
-0.488708
-0.482122
-0.47494
-0.466932
-0.457869
-0.447555
-0.435877
-0.422837
-0.408561
-0.393272
-0.377257
-0.360811
-0.344205
-0.32766
-0.311368
-0.295317
-0.280201
-0.513073
-0.505617
-0.499717
-0.493396
-0.486492
-0.478905
-0.470382
-0.460685
-0.449634
-0.43715
-0.423287
-0.408221
-0.39222
-0.375596
-0.358658
-0.341673
-0.324849
-0.308358
-0.292193
-0.276968
-0.518651
-0.510846
-0.504711
-0.498127
-0.49089
-0.482871
-0.473795
-0.46342
-0.451591
-0.438269
-0.423563
-0.4077
-0.390991
-0.373772
-0.356357
-0.339005
-0.321914
-0.305231
-0.288954
-0.273621
-0.524246
-0.516097
-0.509731
-0.502878
-0.495291
-0.48681
-0.47714
-0.466046
-0.453398
-0.439209
-0.423643
-0.406982
-0.389574
-0.371774
-0.353897
-0.336193
-0.318845
-0.301978
-0.285593
-0.270154
-0.52983
-0.521346
-0.514751
-0.507623
-0.499666
-0.490691
-0.480388
-0.46853
-0.455026
-0.439944
-0.423507
-0.406051
-0.387956
-0.369591
-0.351269
-0.333229
-0.315635
-0.298591
-0.282101
-0.266559
-0.535372
-0.526563
-0.519743
-0.512332
-0.503984
-0.494482
-0.483503
-0.47084
-0.456446
-0.440449
-0.423136
-0.404891
-0.386123
-0.367211
-0.348463
-0.330101
-0.312273
-0.295062
-0.278472
-0.26283
-0.540841
-0.531719
-0.524677
-0.516974
-0.508213
-0.498149
-0.486453
-0.472944
-0.457628
-0.440701
-0.42251
-0.403485
-0.384063
-0.364625
-0.345469
-0.326801
-0.308751
-0.291381
-0.274698
-0.258959
-0.546202
-0.536781
-0.529521
-0.521516
-0.512317
-0.501654
-0.4892
-0.474808
-0.458544
-0.440675
-0.421609
-0.40182
-0.381763
-0.361821
-0.342277
-0.32332
-0.30506
-0.287542
-0.270772
-0.254941
-0.551418
-0.541714
-0.534238
-0.525922
-0.516259
-0.504961
-0.491708
-0.476398
-0.459165
-0.440347
-0.420415
-0.39988
-0.379212
-0.358788
-0.338877
-0.319647
-0.301191
-0.283535
-0.266685
-0.250768
-0.55645
-0.546482
-0.538793
-0.530153
-0.52
-0.508029
-0.493939
-0.477681
-0.459462
-0.439695
-0.418911
-0.397652
-0.376397
-0.355515
-0.335258
-0.315774
-0.297135
-0.279352
-0.26243
-0.246435
-0.561259
-0.551045
-0.543146
-0.534169
-0.523499
-0.51082
-0.495857
-0.478624
-0.459408
-0.438698
-0.417078
-0.395119
-0.373305
-0.351991
-0.33141
-0.31169
-0.292883
-0.274986
-0.258001
-0.241935
-0.565804
-0.555363
-0.547257
-0.53793
-0.526715
-0.513293
-0.497424
-0.479195
-0.458978
-0.437334
-0.414901
-0.392271
-0.369925
-0.348206
-0.327324
-0.307386
-0.288427
-0.270428
-0.25339
-0.237263
-0.57004
-0.559395
-0.551084
-0.541392
-0.529605
-0.515406
-0.498604
-0.479363
-0.458145
-0.435584
-0.412363
-0.389092
-0.366247
-0.34415
-0.32299
-0.302854
-0.283758
-0.265671
-0.248592
-0.232413
-0.573926
-0.563099
-0.554584
-0.544513
-0.532126
-0.51712
-0.49936
-0.479098
-0.456885
-0.433429
-0.40945
-0.385571
-0.362257
-0.339811
-0.318398
-0.298083
-0.278868
-0.260709
-0.2436
-0.227379
-0.577415
-0.56643
-0.557714
-0.547249
-0.534236
-0.518395
-0.499658
-0.478371
-0.455176
-0.43085
-0.406148
-0.381696
-0.357947
-0.33518
-0.313538
-0.293067
-0.27375
-0.255534
-0.238407
-0.222158
-0.580465
-0.569345
-0.560429
-0.549555
-0.535892
-0.519192
-0.499464
-0.477154
-0.452997
-0.427831
-0.402442
-0.377454
-0.353304
-0.330248
-0.308403
-0.287797
-0.268396
-0.25014
-0.233009
-0.216744
-0.58303
-0.5718
-0.562684
-0.551386
-0.537051
-0.519471
-0.498745
-0.475421
-0.450326
-0.424357
-0.398319
-0.372836
-0.348321
-0.325005
-0.302984
-0.282264
-0.2628
-0.244521
-0.2274
-0.211134
-0.585064
-0.57375
-0.564435
-0.5527
-0.537673
-0.519198
-0.497471
-0.473149
-0.447146
-0.420412
-0.393769
-0.36783
-0.342986
-0.319443
-0.297273
-0.276464
-0.256955
-0.238672
-0.221576
-0.205323
-0.586525
-0.575152
-0.565639
-0.553454
-0.537717
-0.518338
-0.495614
-0.470315
-0.443439
-0.415983
-0.38878
-0.362428
-0.337293
-0.313554
-0.291262
-0.270388
-0.250856
-0.232588
-0.215533
-0.199309
-0.587369
-0.575963
-0.566252
-0.553606
-0.537146
-0.516857
-0.493147
-0.466899
-0.439191
-0.411059
-0.383342
-0.35662
-0.331232
-0.307331
-0.284946
-0.26403
-0.244498
-0.226265
-0.209267
-0.193088
-0.587555
-0.576141
-0.566234
-0.553116
-0.535924
-0.514724
-0.490046
-0.462881
-0.434386
-0.405629
-0.377447
-0.350399
-0.324797
-0.300768
-0.278318
-0.257387
-0.237876
-0.219698
-0.202774
-0.186659
-0.587042
-0.575646
-0.565543
-0.551946
-0.534016
-0.511913
-0.486289
-0.458247
-0.429013
-0.399682
-0.371085
-0.343757
-0.317981
-0.293857
-0.271373
-0.250452
-0.230986
-0.212884
-0.196052
-0.180018
-0.585793
-0.574439
-0.564143
-0.550061
-0.531391
-0.508396
-0.481857
-0.452981
-0.42306
-0.393211
-0.364251
-0.336689
-0.310778
-0.286595
-0.264106
-0.243222
-0.223825
-0.205821
-0.1891
-0.173165
-0.58377
-0.572483
-0.561996
-0.547426
-0.52802
-0.504151
-0.476731
-0.447071
-0.41652
-0.386208
-0.356938
-0.329189
-0.303185
-0.278977
-0.256514
-0.235694
-0.21639
-0.198506
-0.181916
-0.166101
-0.58094
-0.569745
-0.55907
-0.544012
-0.523876
-0.499158
-0.470897
-0.440506
-0.409385
-0.378669
-0.349142
-0.321253
-0.295197
-0.271
-0.248594
-0.227866
-0.208679
-0.190938
-0.1745
-0.158829
-0.577272
-0.566191
-0.555332
-0.539789
-0.518937
-0.493398
-0.464343
-0.433279
-0.401648
-0.370589
-0.340859
-0.312879
-0.286811
-0.262661
-0.240344
-0.219735
-0.20069
-0.183115
-0.166851
-0.151341
-0.572736
-0.561794
-0.550756
-0.534732
-0.513183
-0.486858
-0.45706
-0.425384
-0.393308
-0.361965
-0.332088
-0.304063
-0.278026
-0.253959
-0.231763
-0.211302
-0.192424
-0.175037
-0.15896
-0.143596
-0.567308
-0.556526
-0.545316
-0.528821
-0.506596
-0.479525
-0.44904
-0.416816
-0.38436
-0.352796
-0.322827
-0.294807
-0.268842
-0.244894
-0.222851
-0.202566
-0.183882
-0.166709
-0.150827
-0.135567
-0.560965
-0.550366
-0.53899
-0.522037
-0.499164
-0.471392
-0.440278
-0.407573
-0.374805
-0.343083
-0.313077
-0.285109
-0.259258
-0.235466
-0.213608
-0.193529
-0.175066
-0.158131
-0.142474
-0.127435
-0.553688
-0.543292
-0.53176
-0.514365
-0.490874
-0.462452
-0.430773
-0.397656
-0.364645
-0.332826
-0.30284
-0.274971
-0.249276
-0.225677
-0.204037
-0.184192
-0.165977
-0.149304
-0.133881
-0.11912
-0.545461
-0.53529
-0.523612
-0.505793
-0.481722
-0.452702
-0.420525
-0.387068
-0.353881
-0.32203
-0.292117
-0.264397
-0.2389
-0.21553
-0.19414
-0.174559
-0.156618
-0.14023
-0.125069
-0.110595
-0.536273
-0.526346
-0.514533
-0.496313
-0.471702
-0.442143
-0.409537
-0.375812
-0.34252
-0.310698
-0.280915
-0.253391
-0.228132
-0.205028
-0.183921
-0.164633
-0.146993
-0.130914
-0.116037
-0.101862
-0.526115
-0.516451
-0.504517
-0.485921
-0.460814
-0.430777
-0.397814
-0.363895
-0.330567
-0.298837
-0.269237
-0.241957
-0.216978
-0.194176
-0.173384
-0.154418
-0.137107
-0.12136
-0.10679
-0.0929271
-0.514982
-0.505599
-0.493559
-0.474616
-0.449062
-0.418611
-0.385364
-0.351325
-0.318031
-0.286455
-0.257093
-0.230102
-0.205444
-0.18298
-0.162535
-0.143921
-0.126963
-0.111574
-0.0973304
-0.0837976
-0.502873
-0.493789
-0.481659
-0.462401
-0.436451
-0.405653
-0.372196
-0.338112
-0.304921
-0.273561
-0.244489
-0.217834
-0.193537
-0.171447
-0.151381
-0.133147
-0.116568
-0.10156
-0.0876634
-0.0744797
-0.489791
-0.481023
-0.46882
-0.449282
-0.42299
-0.391914
-0.358324
-0.324269
-0.291249
-0.260165
-0.231435
-0.205162
-0.181265
-0.159584
-0.139929
-0.122103
-0.10593
-0.0913258
-0.0777952
-0.0649801
-0.475742
-0.467306
-0.455051
-0.435269
-0.408691
-0.377409
-0.343761
-0.30981
-0.277029
-0.246279
-0.217943
-0.192096
-0.168639
-0.147401
-0.128188
-0.110797
-0.0950555
-0.080878
-0.0677328
-0.0553055
-0.460736
-0.452648
-0.44036
-0.420374
-0.39357
-0.362153
-0.328524
-0.29475
-0.262275
-0.231916
-0.204025
-0.178647
-0.155668
-0.134908
-0.116167
-0.0992391
-0.0839533
-0.0702246
-0.0574838
-0.0454636
-0.444786
-0.437061
-0.424762
-0.404613
-0.377644
-0.346165
-0.312632
-0.279107
-0.247001
-0.217093
-0.189695
-0.164828
-0.142365
-0.122116
-0.103876
-0.0874384
-0.0726328
-0.0593744
-0.0470566
-0.0354622
-0.42791
-0.420561
-0.408274
-0.388006
-0.360934
-0.329467
-0.296105
-0.2629
-0.231228
-0.201824
-0.174966
-0.150654
-0.128743
-0.109037
-0.0913275
-0.0754059
-0.061104
-0.048337
-0.0364604
-0.0253102
-0.410126
-0.403167
-0.390917
-0.370574
-0.343463
-0.312083
-0.278967
-0.246149
-0.214972
-0.186127
-0.159856
-0.136137
-0.114814
-0.0956833
-0.0785331
-0.063153
-0.0493779
-0.0371227
-0.0257051
-0.0150167
-0.39146
-0.384904
-0.372715
-0.352343
-0.325257
-0.294039
-0.261238
-0.228878
-0.198256
-0.17002
-0.144382
-0.121295
-0.100594
-0.0820694
-0.065506
-0.0506922
-0.0374664
-0.0257426
-0.0148013
-0.00459209
-0.371937
-0.365796
-0.353694
-0.333342
-0.306353
-0.275349
-0.242947
-0.211111
-0.181101
-0.153525
-0.128561
-0.106145
-0.0860994
-0.0682101
-0.0522601
-0.0380367
-0.025382
-0.0142085
-0.00376035
0.00595274
-0.351588
-0.345873
-0.333885
-0.313606
-0.286792
-0.256034
-0.224116
-0.192872
-0.16353
-0.136661
-0.112413
-0.0907033
-0.0713456
-0.0541207
-0.03881
-0.0252003
-0.0131379
-0.00253309
0.00740541
0.0166056
-0.330443
-0.325167
-0.313319
-0.293159
-0.266536
-0.23619
-0.204782
-0.174188
-0.145568
-0.119451
-0.095958
-0.0749898
-0.0563505
-0.0398176
-0.0251711
-0.0121978
-0.00074809
0.00927045
0.0186829
0.027353
-0.308537
-0.303712
-0.292034
-0.272038
-0.245683
-0.215795
-0.184974
-0.155087
-0.127239
-0.101918
-0.0792181
-0.0590239
-0.0411322
-0.0253177
-0.0113593
0.000955876
0.0117727
0.0211881
0.0300583
-0.285908
-0.281547
-0.270066
-0.250271
-0.224266
-0.194889
-0.164722
-0.135598
-0.108571
-0.0840869
-0.0622151
-0.042826
-0.0257097
-0.0106386
0.00260895
0.0142449
0.0244092
0.0332055
-0.262593
-0.258711
-0.247444
-0.227917
-0.202316
-0.17351
-0.14406
-0.115753
-0.0895902
-0.0659822
-0.044972
-0.0264172
-0.0101025
0.00420152
0.0167168
0.0276532
0.0371461
-0.23863
-0.235251
-0.22422
-0.205009
-0.17987
-0.151697
-0.123022
-0.0955805
-0.0703261
-0.0476301
-0.0275127
-0.00981962
0.00566923
0.0191842
0.030947
0.0411648
-0.214055
-0.211221
-0.200443
-0.181589
-0.15697
-0.129489
-0.101642
-0.0751143
-0.0508078
-0.0290575
-0.00986174
0.00694437
0.0215848
0.0342905
0.0452824
0.0547633
-0.188946
-0.186647
-0.176155
-0.157702
-0.133658
-0.106924
-0.0799574
-0.0543872
-0.0310655
-0.0102919
0.00795558
0.0238516
0.0376231
0.0495012
0.0597055
-0.163378
-0.161552
-0.151402
-0.133394
-0.109977
-0.0840433
-0.058005
-0.033433
-0.01113
0.00863835
0.0259133
0.0408782
0.0537624
0.0647966
-0.13736
-0.136013
-0.126233
-0.108711
-0.0859726
-0.0608885
-0.0358227
-0.0122865
0.00896683
0.0277043
0.0439849
0.0579998
0.0699805
0.080157
-0.110937
-0.110086
-0.100696
-0.0837025
-0.0616892
-0.0375015
-0.0134491
0.00901722
0.0291929
0.0468763
0.0621432
0.0751917
0.0862546
-0.0841669
-0.0838216
-0.0748426
-0.0584165
-0.0371733
-0.0139251
0.00907653
0.0304422
0.0495153
0.0661243
0.0803606
0.0924283
0.102562
-0.0571064
-0.0572732
-0.0487258
-0.0329033
-0.0124718
0.00979749
0.0317145
0.0519522
0.0699009
0.0854178
0.0986089
0.109684
-0.0298086
-0.0304924
-0.0223972
-0.00721297
0.0123682
0.0336225
0.0544247
0.0735105
0.0903159
0.104726
0.116859
-0.00233002
-0.00353431
0.0040892
0.0186032
0.0372987
0.0575059
0.0771668
0.0950799
0.110726
0.124017
0.135083
0.0252724
0.0235457
0.0306794
0.0444938
0.0622718
0.0814033
0.0999
0.116623
0.131098
0.143259
0.0529417
0.0506918
0.0573191
0.070407
0.0872392
0.10527
0.122584
0.138103
0.151396
0.162422
0.0806209
0.0778482
0.0839537
0.0962912
0.112153
0.129062
0.145177
0.159482
0.171587
0.181473
0.108253
0.104958
0.110529
0.122094
0.136964
0.152735
0.167639
0.180723
0.191636
0.13578
0.131966
0.136989
0.147765
0.161625
0.176244
0.189929
0.201789
0.211509
0.163145
0.158815
0.163281
0.173252
0.186088
0.199545
0.212007
0.222642
0.190292
0.18545
0.189351
0.198504
0.210306
0.222596
0.233834
0.243246
0.217163
0.211815
0.215144
0.223471
0.234232
0.245352
0.255369
0.243704
0.237855
0.240609
0.248103
0.257819
0.267771
0.276573
0.269859
0.263517
0.265692
0.27235
0.281023
0.289812
0.297407
0.295573
0.288745
0.290343
0.296164
0.303797
0.311432
0.320793
0.313489
0.31451
0.319498
0.326098
0.332593
0.345467
0.337696
0.338144
0.342304
0.347884
0.353252
0.369543
0.361316
0.361197
0.364539
0.369111
0.392971
0.3843
0.383622
0.386157
0.389739
0.415703
0.4066
0.405372
0.407115
0.409728
0.437691
0.42817
0.426404
0.427372
0.42904
0.45889
0.448965
0.446674
0.446887
0.479254
0.46894
0.466141
0.465622
0.498743
0.488056
0.484765
0.483539
0.517315
0.506272
0.502507
0.500603
0.534931
0.52355
0.519333
0.516779
0.551555
0.539853
0.535206
0.567152
0.555149
0.550095
0.581689
0.569404
0.563968
0.595136
0.582589
0.576798
0.607463
0.594676
0.588557
0.618646
0.605639
0.599221
0.62866
0.615455
0.608768
0.637484
0.624102
0.617177
0.645097
0.631563
0.624432
0.651485
0.63782
0.656632
0.64286
0.660526
0.646671
0.663158
0.649243
0.664521
0.65057
0.664611
0.650647
0.663426
0.649474
0.660966
0.647049
0.657235
0.643378
0.652238
0.638464
0.645984
0.632316
0.638483
0.624945
0.629748
0.616364
0.609628
0.619796
0.606587
0.600117
0.608644
0.595633
0.58946
0.596312
0.583521
0.577675
0.582824
0.570274
0.564785
0.568204
0.555917
0.550812
0.55248
0.540476
0.535783
0.535682
0.52398
0.519724
0.517842
0.506461
0.502666
0.498993
0.487952
0.484641
0.4835
0.479172
0.468488
0.465682
0.465274
0.458416
0.448107
0.445825
0.446178
0.436766
0.426848
0.425107
0.426248
0.414263
0.404751
0.403568
0.40552
0.390951
0.38186
0.381249
0.384033
0.387908
0.366876
0.35822
0.358192
0.361826
0.366742
0.342084
0.333875
0.334441
0.338942
0.34492
0.316625
0.308874
0.310043
0.315422
0.322482
0.329402
0.290547
0.283267
0.285043
0.29131
0.299467
0.307593
0.263902
0.257102
0.259491
0.266653
0.27592
0.285269
0.236742
0.230433
0.233436
0.241497
0.251881
0.262467
0.209122
0.203311
0.206928
0.215889
0.227396
0.23923
0.249852
0.181097
0.17579
0.18002
0.189877
0.202509
0.215597
0.22752
0.152721
0.147926
0.152764
0.163512
0.177267
0.191612
0.204843
0.124051
0.119773
0.125213
0.136844
0.151715
0.167317
0.18186
0.194426
0.0951443
0.0913877
0.0974214
0.109923
0.125902
0.142756
0.158612
0.172487
0.0660588
0.0628272
0.0694446
0.0828015
0.0998743
0.117973
0.135139
0.150324
0.163147
0.0368526
0.0341484
0.0413373
0.0555315
0.0736815
0.0930123
0.111481
0.127974
0.142069
0.00758394
0.00540884
0.0131554
0.0281656
0.0473721
0.0679188
0.0876799
0.105475
0.120839
0.133733
-0.0216884
-0.0233339
-0.0150455
0.000756551
0.0209951
0.0427377
0.0637774
0.0828663
0.0994935
0.113597
-0.0509058
-0.0520223
-0.0432092
-0.0266426
-0.00540019
0.0175145
0.0398149
0.0601846
0.0780668
0.0933746
-0.0800097
-0.0805988
-0.07128
-0.0539788
-0.0317643
-0.00770536
0.015834
0.0374685
0.0565943
0.0730976
0.0871158
-0.108942
-0.109006
-0.0992021
-0.0811991
-0.0580478
-0.0328764
-0.00812369
0.0147563
0.0351108
0.0527984
0.0679434
0.0807773
-0.137644
-0.137188
-0.12692
-0.108251
-0.0842016
-0.0579533
-0.0320165
-0.00791403
0.0136515
0.0325093
0.0487696
0.0626593
-0.166056
-0.165088
-0.154378
-0.135081
-0.110176
-0.0828908
-0.055803
-0.0305046
-0.00774905
0.012262
0.0296239
0.0445579
0.0573191
-0.194126
-0.192652
-0.181523
-0.161638
-0.135924
-0.107644
-0.0794423
-0.0529779
-0.0290564
-0.00791162
0.0105353
0.0264998
0.0402359
-0.221791
-0.219827
-0.208301
-0.187871
-0.161396
-0.132169
-0.102894
-0.0752966
-0.0502364
-0.0279805
-0.00846722
0.00851167
0.023209
0.0358765
-0.248997
-0.246558
-0.234659
-0.213729
-0.186545
-0.156421
-0.126117
-0.0974242
-0.0712557
-0.0479137
-0.0273556
-0.00938067
0.0062623
0.0198255
-0.275716
-0.272774
-0.260546
-0.239163
-0.211324
-0.180357
-0.149072
-0.119325
-0.0920812
-0.0676813
-0.0461021
-0.0271518
-0.0105813
0.00386227
0.0164197
-0.301917
-0.298412
-0.285912
-0.264124
-0.235687
-0.203935
-0.171721
-0.140962
-0.112681
-0.0872535
-0.0646797
-0.044777
-0.0272991
-0.0119931
0.00138353
0.0130536
-0.327503
-0.323462
-0.310714
-0.288564
-0.25959
-0.227114
-0.194025
-0.162302
-0.133022
-0.106601
-0.0830617
-0.0622319
-0.0438692
-0.0277208
-0.0135432
-0.00110875
0.00972406
-0.352418
-0.347876
-0.334901
-0.312438
-0.282988
-0.249851
-0.215946
-0.18331
-0.153075
-0.125697
-0.101222
-0.079493
-0.06027
-0.0433013
-0.0283431
-0.0151641
-0.00361686
-0.376622
-0.3716
-0.358419
-0.335706
-0.305839
-0.272108
-0.23745
-0.203954
-0.172808
-0.144512
-0.119137
-0.0965372
-0.0764805
-0.0587156
-0.0429986
-0.0290962
-0.0168551
-0.00616316
-0.400076
-0.394588
-0.381226
-0.358325
-0.328099
-0.293846
-0.258499
-0.2242
-0.192193
-0.16302
-0.13678
-0.113342
-0.0924802
-0.0739447
-0.0574926
-0.0428889
-0.0299749
-0.0186457
-0.00794686
-0.422739
-0.416798
-0.403285
-0.38023
-0.349747
-0.315026
-0.27906
-0.244018
-0.211202
-0.181196
-0.154129
-0.129887
-0.108249
-0.0889705
-0.071808
-0.0565262
-0.0429608
-0.0310122
-0.0197604
-0.00931801
-0.444572
-0.43819
-0.424556
-0.401403
-0.370728
-0.335612
-0.2991
-0.263379
-0.229807
-0.199015
-0.171161
-0.146149
-0.123768
-0.103775
-0.0859282
-0.0699922
-0.0557977
-0.0432482
-0.0314615
-0.0204797
-0.465538
-0.458729
-0.445004
-0.421806
-0.390985
-0.355588
-0.318588
-0.282251
-0.247981
-0.216452
-0.187854
-0.16211
-0.139019
-0.118341
-0.0998372
-0.0832717
-0.0684707
-0.0553398
-0.0430361
-0.0315343
-0.485605
-0.478379
-0.464591
-0.441404
-0.410512
-0.374896
-0.337493
-0.300609
-0.2657
-0.233484
-0.204187
-0.177751
-0.153984
-0.132652
-0.11352
-0.0963502
-0.0809659
-0.0672737
-0.0544713
-0.0424682
-0.50474
-0.49711
-0.483287
-0.460164
-0.429275
-0.39351
-0.355786
-0.318424
-0.282939
-0.250091
-0.220141
-0.193051
-0.168645
-0.146693
-0.12696
-0.109213
-0.0932699
-0.0790374
-0.0657548
-0.0532692
-0.522917
-0.514893
-0.501063
-0.478056
-0.447239
-0.411405
-0.373436
-0.335676
-0.299677
-0.266251
-0.235695
-0.207996
-0.182987
-0.160448
-0.140146
-0.121848
-0.10537
-0.0906191
-0.0768754
-0.0639263
-0.540108
-0.531705
-0.517894
-0.495051
-0.464378
-0.428556
-0.390422
-0.352337
-0.31589
-0.281945
-0.250833
-0.222567
-0.196995
-0.173903
-0.153062
-0.134242
-0.117255
-0.102008
-0.0878225
-0.0744297
-0.556293
-0.547524
-0.533756
-0.511125
-0.480665
-0.444936
-0.40672
-0.368385
-0.331561
-0.297155
-0.265539
-0.236751
-0.210655
-0.187045
-0.165697
-0.146384
-0.128913
-0.113193
-0.0985864
-0.08477
-0.571452
-0.562332
-0.548631
-0.526259
-0.496078
-0.460523
-0.422309
-0.383802
-0.346669
-0.311863
-0.279796
-0.250532
-0.223953
-0.199862
-0.17804
-0.158262
-0.140335
-0.124165
-0.109158
-0.0949388
-0.585572
-0.576115
-0.562504
-0.540434
-0.510598
-0.475296
-0.437166
-0.398568
-0.361198
-0.326055
-0.29359
-0.263897
-0.236877
-0.212342
-0.19008
-0.169867
-0.151511
-0.134916
-0.119529
-0.104928
-0.59864
-0.588862
-0.575361
-0.553635
-0.524207
-0.489237
-0.451276
-0.412667
-0.375133
-0.339716
-0.306909
-0.276836
-0.249417
-0.224476
-0.201806
-0.18119
-0.162433
-0.145438
-0.129693
-0.114732
-0.610648
-0.600566
-0.587194
-0.56585
-0.536892
-0.50233
-0.464621
-0.426082
-0.388459
-0.352834
-0.319741
-0.289337
-0.261562
-0.236254
-0.213211
-0.192223
-0.173092
-0.155724
-0.139642
-0.124342
-0.621594
-0.611223
-0.597998
-0.577072
-0.548642
-0.514563
-0.477189
-0.438802
-0.401164
-0.365397
-0.332076
-0.301391
-0.273304
-0.247667
-0.224287
-0.202957
-0.183483
-0.165766
-0.14937
-0.133753
-0.631477
-0.620836
-0.607773
-0.587297
-0.559448
-0.525925
-0.488967
-0.450814
-0.413237
-0.377396
-0.343905
-0.312989
-0.284635
-0.258709
-0.235027
-0.213388
-0.193599
-0.175561
-0.158873
-0.14296
-0.640301
-0.629407
-0.61652
-0.596524
-0.569307
-0.536408
-0.499947
-0.462109
-0.42467
-0.388822
-0.35522
-0.324125
-0.295549
-0.269374
-0.245426
-0.22351
-0.203436
-0.185103
-0.168147
-0.151956
-0.648074
-0.636946
-0.624247
-0.604756
-0.578217
-0.546009
-0.510122
-0.47268
-0.435454
-0.399668
-0.366016
-0.334794
-0.306041
-0.279657
-0.255479
-0.233318
-0.212989
-0.194389
-0.177189
-0.160736
-0.654807
-0.643465
-0.630965
-0.611999
-0.586181
-0.554726
-0.519488
-0.48252
-0.445585
-0.409929
-0.376286
-0.34499
-0.316106
-0.289553
-0.265181
-0.24281
-0.222254
-0.203413
-0.185999
-0.169298
-0.660516
-0.64898
-0.636687
-0.618265
-0.593205
-0.562559
-0.528042
-0.491627
-0.455057
-0.419601
-0.386029
-0.35471
-0.325742
-0.299061
-0.274531
-0.251981
-0.23123
-0.212176
-0.194567
-0.177655
-0.66522
-0.653511
-0.641431
-0.623568
-0.599297
-0.569513
-0.535786
-0.5
-0.46387
-0.428682
-0.395241
-0.363953
-0.334946
-0.308178
-0.283526
-0.26083
-0.239915
-0.220674
-0.202893
-0.185889
-0.668941
-0.657081
-0.64522
-0.627925
-0.60447
-0.575596
-0.542723
-0.507638
-0.472022
-0.43717
-0.403922
-0.372718
-0.343718
-0.316903
-0.292166
-0.269356
-0.248306
-0.228907
-0.210972
-0.19387
-0.671706
-0.659717
-0.648079
-0.631358
-0.608741
-0.580819
-0.548858
-0.514545
-0.479515
-0.445068
-0.412072
-0.381005
-0.352058
-0.325238
-0.300451
-0.277559
-0.256403
-0.236874
-0.218803
-0.201582
-0.673544
-0.661449
-0.650037
-0.633893
-0.612129
-0.585194
-0.554201
-0.520725
-0.486351
-0.452376
-0.419693
-0.388816
-0.359969
-0.333182
-0.308381
-0.28544
-0.264207
-0.244572
-0.226387
-0.20906
-0.674488
-0.662311
-0.651126
-0.635558
-0.614658
-0.588739
-0.558763
-0.526187
-0.492536
-0.459098
-0.426788
-0.396154
-0.367451
-0.340738
-0.315959
-0.293
-0.271718
-0.252005
-0.233729
-0.216321
-0.674573
-0.662338
-0.651381
-0.636385
-0.616353
-0.591473
-0.562557
-0.530939
-0.498076
-0.465239
-0.433361
-0.403022
-0.37451
-0.347911
-0.323188
-0.300242
-0.27894
-0.259173
-0.24083
-0.223367
-0.673839
-0.66157
-0.65084
-0.636409
-0.617244
-0.59342
-0.5656
-0.534993
-0.502979
-0.470806
-0.439418
-0.409425
-0.381148
-0.354702
-0.33007
-0.307169
-0.285874
-0.26608
-0.247693
-0.230198
-0.672325
-0.660049
-0.649544
-0.635667
-0.617365
-0.594606
-0.567911
-0.538362
-0.507255
-0.475805
-0.444964
-0.415369
-0.387373
-0.361118
-0.336612
-0.313784
-0.292525
-0.27273
-0.25432
-0.236815
-0.670075
-0.657817
-0.647537
-0.6342
-0.616749
-0.595058
-0.569513
-0.541062
-0.510916
-0.480246
-0.450008
-0.420861
-0.393189
-0.367165
-0.342817
-0.320094
-0.298897
-0.279125
-0.260714
-0.243221
-0.667134
-0.654919
-0.644862
-0.632051
-0.615435
-0.594809
-0.570428
-0.543112
-0.513974
-0.48414
-0.454558
-0.425908
-0.398604
-0.372848
-0.348693
-0.326104
-0.304995
-0.285271
-0.266879
-0.249418
-0.663549
-0.651403
-0.641566
-0.629265
-0.613464
-0.593892
-0.570684
-0.544531
-0.516445
-0.487497
-0.458623
-0.430519
-0.403626
-0.378176
-0.354245
-0.331818
-0.310824
-0.291172
-0.27282
-0.255411
-0.659367
-0.647316
-0.637698
-0.625888
-0.610878
-0.592343
-0.570309
-0.545341
-0.518344
-0.49033
-0.462214
-0.434702
-0.408263
-0.383154
-0.359481
-0.337245
-0.31639
-0.296834
-0.278541
-0.261205
-0.654636
-0.642707
-0.633305
-0.621966
-0.607722
-0.590202
-0.569336
-0.545566
-0.519691
-0.492654
-0.465342
-0.438468
-0.412523
-0.387793
-0.364408
-0.342391
-0.3217
-0.302262
-0.284047
-0.266803
-0.649408
-0.637625
-0.628438
-0.617551
-0.60404
-0.587509
-0.567797
-0.545232
-0.520505
-0.494483
-0.46802
-0.441828
-0.416417
-0.392101
-0.369035
-0.347263
-0.326761
-0.307463
-0.289346
-0.272211
-0.64373
-0.632119
-0.623147
-0.61269
-0.599881
-0.584305
-0.565728
-0.544367
-0.520807
-0.495833
-0.470259
-0.444791
-0.419954
-0.396087
-0.37337
-0.35187
-0.33158
-0.312443
-0.294442
-0.277434
-0.637654
-0.626239
-0.61748
-0.607433
-0.595292
-0.580634
-0.563165
-0.543001
-0.520619
-0.496721
-0.472074
-0.447369
-0.423144
-0.39976
-0.377423
-0.356221
-0.336165
-0.317211
-0.299342
-0.282478
-0.631227
-0.620031
-0.611486
-0.60183
-0.590321
-0.576542
-0.560148
-0.541165
-0.519966
-0.497167
-0.473479
-0.449575
-0.425998
-0.40313
-0.381202
-0.360323
-0.340524
-0.321772
-0.304054
-0.28735
-0.624498
-0.613544
-0.605213
-0.595928
-0.585016
-0.572072
-0.556715
-0.538891
-0.518873
-0.497188
-0.474488
-0.45142
-0.428527
-0.406208
-0.384717
-0.364186
-0.344665
-0.326136
-0.308584
-0.292056
-0.617515
-0.606824
-0.598708
-0.589776
-0.579424
-0.56727
-0.552908
-0.536213
-0.517366
-0.496806
-0.475118
-0.452916
-0.43074
-0.409002
-0.387976
-0.367819
-0.348598
-0.33031
-0.312941
-0.296603
-0.610322
-0.599916
-0.592016
-0.58342
-0.573593
-0.562182
-0.548767
-0.533166
-0.515475
-0.496041
-0.475384
-0.454077
-0.432649
-0.411523
-0.390991
-0.37123
-0.352329
-0.334303
-0.317132
-0.300999
-0.602965
-0.592861
-0.585181
-0.576904
-0.567569
-0.556852
-0.544335
-0.529787
-0.513226
-0.494916
-0.475302
-0.454915
-0.434266
-0.41378
-0.393769
-0.37443
-0.35587
-0.338122
-0.321165
-0.30525
-0.595486
-0.585702
-0.578243
-0.570272
-0.561394
-0.551326
-0.539653
-0.526112
-0.510652
-0.493454
-0.474891
-0.455444
-0.435599
-0.415783
-0.39632
-0.377425
-0.359227
-0.341777
-0.325049
-0.309365
-0.587926
-0.578475
-0.571242
-0.563563
-0.555112
-0.545645
-0.534763
-0.522178
-0.507781
-0.491678
-0.474169
-0.455676
-0.436661
-0.417541
-0.398652
-0.380227
-0.36241
-0.345276
-0.328791
-0.313352
-0.580321
-0.571219
-0.564213
-0.556816
-0.548763
-0.53985
-0.529704
-0.518021
-0.504646
-0.489614
-0.473152
-0.455626
-0.437461
-0.419064
-0.400774
-0.382842
-0.365427
-0.348627
-0.3324
-0.317217
-0.572708
-0.563965
-0.557191
-0.550066
-0.542383
-0.533983
-0.524517
-0.51368
-0.501278
-0.487286
-0.471861
-0.455307
-0.43801
-0.420359
-0.402695
-0.385278
-0.368287
-0.351838
-0.335884
-0.320971
-0.565119
-0.556746
-0.550207
-0.543346
-0.536009
-0.528078
-0.519239
-0.50919
-0.49771
-0.484721
-0.470314
-0.454734
-0.438318
-0.421435
-0.40442
-0.387543
-0.370996
-0.354917
-0.339252
-0.32462
-0.557585
-0.549589
-0.543289
-0.536685
-0.529672
-0.522172
-0.513907
-0.504586
-0.493973
-0.481944
-0.468532
-0.453919
-0.438395
-0.422299
-0.405957
-0.389644
-0.373563
-0.357873
-0.342511
-0.328173
-0.550133
-0.54252
-0.536462
-0.530109
-0.523401
-0.516296
-0.508554
-0.499903
-0.490099
-0.478983
-0.466535
-0.452878
-0.438251
-0.422959
-0.407312
-0.391587
-0.375993
-0.360713
-0.34567
-0.331638
-0.542788
-0.535562
-0.529749
-0.523643
-0.517222
-0.51048
-0.503213
-0.495174
-0.486118
-0.475864
-0.464344
-0.451626
-0.437896
-0.423421
-0.408491
-0.393377
-0.378294
-0.363443
-0.348736
-0.335024
-0.535572
-0.528734
-0.523169
-0.517306
-0.511158
-0.504748
-0.497912
-0.490428
-0.482061
-0.472613
-0.46198
-0.450177
-0.43734
-0.423692
-0.409498
-0.395019
-0.380469
-0.366069
-0.528504
-0.522055
-0.51674
-0.511117
-0.505228
-0.499125
-0.492677
-0.485694
-0.477956
-0.469257
-0.459464
-0.448547
-0.436592
-0.423777
-0.410336
-0.396516
-0.382524
-0.521601
-0.51554
-0.510475
-0.50509
-0.49945
-0.493629
-0.487531
-0.480999
-0.473829
-0.46582
-0.456817
-0.446752
-0.435663
-0.423683
-0.41101
-0.514876
-0.5092
-0.504387
-0.499238
-0.493836
-0.488277
-0.482496
-0.476365
-0.469707
-0.462328
-0.454061
-0.444809
-0.434564
-0.423416
-0.50834
-0.503046
-0.498485
-0.49357
-0.488398
-0.483082
-0.477586
-0.471814
-0.465613
-0.458804
-0.451217
-0.442733
-0.502005
-0.497086
-0.492776
-0.488093
-0.483145
-0.478056
-0.472817
-0.467362
-0.461566
-0.455269
-0.448306
-0.495876
-0.491328
-0.487267
-0.482812
-0.478081
-0.473205
-0.4682
-0.463024
-0.457585
-0.451744
-0.48996
-0.485775
-0.48196
-0.477731
-0.47321
-0.468535
-0.463741
-0.458813
-0.453685
-0.484262
-0.480432
-0.47686
-0.472853
-0.468535
-0.464049
-0.459447
-0.454736
-0.478785
-0.475301
-0.471967
-0.468176
-0.464056
-0.459748
-0.45532
-0.473533
-0.470385
-0.467282
-0.463703
-0.459772
-0.455632
-0.468507
-0.465686
-0.462807
-0.459431
-0.455681
-0.463712
-0.461204
-0.458541
-0.45536
-0.45915
-0.456942
-0.454484
-0.454824
-0.452901
-0.450739
-0.449083
-0.446898
-0.209679
-0.214752
-0.219655
-0.22439
-0.228962
-0.233376
-0.237635
-0.241745
-0.24571
-0.249535
-0.253225
-0.256784
-0.260218
-0.263531
-0.266727
-0.269811
-0.20022
-0.205146
-0.209916
-0.214533
-0.219001
-0.223322
-0.227501
-0.231542
-0.235447
-0.239223
-0.242871
-0.246397
-0.249805
-0.253097
-0.256279
-0.259353
-0.191118
-0.195887
-0.200516
-0.205007
-0.209362
-0.213585
-0.217679
-0.221648
-0.225493
-0.22922
-0.232831
-0.236331
-0.239721
-0.243007
-0.246192
-0.249279
-0.18236
-0.186976
-0.191464
-0.195827
-0.200068
-0.204189
-0.208193
-0.212083