/*--------------------------------*- C++ -*----------------------------------*\
  =========                 |
  \\      /  F ield         | OpenFOAM: The Open Source CFD Toolbox
   \\    /   O peration     | Website:  https://openfoam.org
    \\  /    A nd           | Version:  7
     \\/     M anipulation  |
\*---------------------------------------------------------------------------*/
FoamFile
{
    version     2.0;
    format      ascii;
    class       surfaceScalarField;
    location    "100";
    object      phi;
}
// * * * * * * * * * * * * * * * * * * * * * * * * * * * * * * * * * * * * * //

dimensions      [0 3 -1 0 0 0 0];

internalField   nonuniform List<scalar> 
16607
(
1.37014e-05
1.1382e-06
1.25632e-05
2.05295e-05
1.25615e-06
1.13071e-05
5.76866e-06
1.60169e-05
2.72262e-06
1.38125e-06
9.92583e-06
6.34195e-06
1.10563e-05
-6.82563e-06
1.5155e-06
8.41033e-06
6.94781e-06
5.62394e-06
1.73744e-05
-1.72523e-05
-6.176e-05
1.66063e-06
6.74971e-06
7.59149e-06
-3.06927e-07
1.89368e-05
-2.85976e-05
3.69394e-05
-7.97625e-05
-0.000155526
1.81803e-06
4.93167e-06
8.27727e-06
-6.76617e-06
2.05843e-05
-4.09046e-05
4.00347e-05
-9.9213e-05
6.79913e-05
-0.000183482
-0.000295439
1.98875e-06
2.94292e-06
9.00805e-06
-1.37855e-05
2.23212e-05
-5.42178e-05
4.327e-05
-0.000120162
7.324e-05
-0.000213452
0.000113582
-0.000335781
-0.000488454
2.1734e-06
7.69522e-07
9.7854e-06
-2.13975e-05
2.41494e-05
-6.85817e-05
4.6644e-05
-0.000142656
7.86655e-05
-0.000245474
0.000121529
-0.000378645
0.000176321
-0.000543246
-0.000739408
2.37225e-06
-1.60273e-06
1.06096e-05
-2.96348e-05
2.60674e-05
-8.40395e-05
5.01512e-05
-0.00016674
8.4252e-05
-0.000279575
0.000129628
-0.000424021
0.000187235
-0.000600852
0.000257511
-0.000809684
-0.00104851
2.58523e-06
-4.18796e-06
1.14798e-05
-3.85294e-05
2.80717e-05
-0.000100631
5.37813e-05
-0.00019245
8.99774e-05
-0.000315771
0.000137837
-0.000471881
0.000198156
-0.000661171
0.000271119
-0.000882646
0.000356083
-0.00113347
-0.0014087
2.81198e-06
-6.99994e-06
1.23939e-05
-4.81113e-05
3.01561e-05
-0.000118394
5.752e-05
-0.000219814
9.58132e-05
-0.000354064
0.000146107
-0.000522175
0.000209005
-0.000724069
0.000284411
-0.000958052
0.00037132
-0.00122038
0.000467718
-0.0015051
-0.00180424
3.05185e-06
-1.00518e-05
1.33489e-05
-5.84083e-05
3.23124e-05
-0.000137357
6.13494e-05
-0.000248851
0.000101726
-0.00039444
0.00015438
-0.000574829
0.000219697
-0.000789386
0.000297268
-0.00103562
0.000385716
-0.00130883
0.000482642
-0.00160202
0.000584775
-0.00190637
0.00068832
-0.00221207
-0.0025096
3.30397e-06
-1.33558e-05
1.43409e-05
-6.94452e-05
3.45303e-05
-0.000157547
6.52485e-05
-0.000279569
0.000107677
-0.000436869
0.000162596
-0.000629748
0.000230141
-0.00085693
0.000309572
-0.00111505
0.000399132
-0.00139839
0.00049606
-0.00169895
0.000596822
-0.00200713
0.000697535
-0.00231278
0.000794499
-0.00260657
-0.00288117
3.56728e-06
-1.6923e-05
1.53652e-05
-8.12431e-05
3.67981e-05
-0.00017898
6.91937e-05
-0.000311965
0.000113627
-0.000481302
0.00017069
-0.000686812
0.000240245
-0.000926484
0.000321204
-0.00119601
0.000411435
-0.00148862
0.000507846
-0.00179536
0.000606701
-0.00210598
0.000704103
-0.00241018
0.000796544
-0.00269901
0.000881363
-0.00296599
-0.00320773
3.84054e-06
-2.07636e-05
1.64166e-05
-9.38192e-05
3.91028e-05
-0.000201666
7.31593e-05
-0.000346021
0.00011953
-0.000527673
0.000178595
-0.000745876
0.000249917
-0.000997807
0.000332053
-0.00127815
0.000422506
-0.00157907
0.000517897
-0.00189075
0.000614352
-0.00220244
0.000708036
-0.00250387
0.000795694
-0.00278667
0.000875052
-0.00304535
0.000945004
-0.00327768
0.00100556
-0.00348449
-0.00366888
4.12239e-06
-2.4886e-05
1.74892e-05
-0.000107186
4.14301e-05
-0.000225607
7.71177e-05
-0.000381709
0.000125341
-0.000575896
0.000186242
-0.000806777
0.000259068
-0.00107063
0.000342014
-0.0013611
0.000432243
-0.0016693
0.000526134
-0.00198465
0.000619748
-0.00229605
0.000709378
-0.0025935
0.000792075
-0.00286936
0.000865973
-0.00311924
0.000930386
-0.0033421
0.000985681
-0.00353979
0.001033
-0.0037162
-0.00387633
4.41137e-06
-2.92973e-05
1.85768e-05
-0.000121351
4.3765e-05
-0.000250795
8.10404e-05
-0.000418984
0.000131013
-0.000625869
0.000193565
-0.000869329
0.000267613
-0.00114468
0.000350993
-0.00144448
0.000440559
-0.00175887
0.000532505
-0.00207659
0.00062289
-0.00238644
0.000708203
-0.00267881
0.000785836
-0.002947
0.000854338
-0.00318775
0.000913422
-0.00340118
0.000963766
-0.00359013
0.0010067
-0.00375913
0.00104387
-0.0039135
0.00107693
-0.00405815
-0.00419821
4.70589e-06
-3.40032e-05
1.96728e-05
-0.000136318
4.60916e-05
-0.000277214
8.48982e-05
-0.000457791
0.000136501
-0.000677472
0.000200499
-0.000933328
0.000275471
-0.00121965
0.000358907
-0.00152791
0.000447387
-0.00184735
0.00053698
-0.00216619
0.000623808
-0.00247327
0.000704609
-0.00275961
0.000777144
-0.00301953
0.00084037
-0.00325097
0.000894364
-0.00345518
0.000940071
-0.00363584
0.000978963
-0.00379803
0.0010127
-0.00394723
0.00104289
-0.00408834
-0.0042261
0.00107077
5.00431e-06
-3.90075e-05
2.07703e-05
-0.000152084
4.8394e-05
-0.000304837
8.86614e-05
-0.000498058
0.000141757
-0.000730567
0.000206982
-0.000998553
0.00028257
-0.00129524
0.000365687
-0.00161103
0.000452681
-0.00193434
0.000539556
-0.00225306
0.000622559
-0.00255627
0.000698717
-0.00283577
0.000766177
-0.00308699
0.000824288
-0.00330908
0.000873455
-0.00350434
0.000914836
-0.00367722
0.000949999
-0.00383319
0.000980592
-0.00397783
0.00100813
-0.00411588
-0.00425171
0.00103375
5.30491e-06
-4.43124e-05
2.18622e-05
-0.000168642
5.06555e-05
-0.000333631
9.23004e-05
-0.000539703
0.000146737
-0.000785003
0.000212954
-0.00106477
0.000288846
-0.00137113
0.000371278
-0.00169346
0.000456413
-0.00201948
0.00054025
-0.0023369
0.000619216
-0.00263523
0.000690662
-0.00290722
0.000753121
-0.00314945
0.000806312
-0.00336227
0.000850923
-0.00354895
0.000888282
-0.00371458
0.000920008
-0.00386491
0.000947707
-0.00400553
0.000972796
-0.00414097
-0.00427521
0.000996292
5.60591e-06
-4.99184e-05
2.29413e-05
-0.000185977
5.28597e-05
-0.000363549
9.57863e-05
-0.00058263
0.000151398
-0.000840615
0.000218364
-0.00113174
0.000294245
-0.00144701
0.000375636
-0.00177485
0.000458572
-0.00210241
0.000539099
-0.00241742
0.000613874
-0.00271001
0.00068059
-0.00297393
0.000738163
-0.00320702
0.000786649
-0.00341076
0.000826979
-0.00358928
0.000860605
-0.0037482
0.00088916
-0.00389347
0.000914187
-0.00403055
0.000936991
-0.00416377
-0.0042967
0.000958476
5.9055e-06
-5.58238e-05
2.40003e-05
-0.000204072
5.49902e-05
-0.000394539
9.90907e-05
-0.00062673
0.0001557
-0.000897224
0.000223162
-0.0011992
0.00029872
-0.00152257
0.000378737
-0.00185487
0.000459167
-0.00218284
0.000536161
-0.00249442
0.000606639
-0.00278049
0.000668654
-0.00303595
0.000721488
-0.00325986
0.000765501
-0.00345477
0.00080182
-0.0036256
0.000831982
-0.00377836
0.000857606
-0.00391909
0.000880152
-0.0040531
0.000900809
-0.00418443
-0.00431626
0.000920373
6.20178e-06
-6.20256e-05
2.50318e-05
-0.000222902
5.70308e-05
-0.000426538
0.000102187
-0.000671886
0.000159606
-0.000954644
0.000227308
-0.0012669
0.000302238
-0.0015975
0.000380567
-0.0019332
0.000458221
-0.0022605
0.000531504
-0.0025677
0.00059763
-0.00284661
0.000655012
-0.00309333
0.000703278
-0.00330812
0.000743053
-0.00349455
0.000775623
-0.00365817
0.000802571
-0.00380531
0.000825476
-0.003942
0.000845705
-0.00407333
0.000864329
-0.00420305
-0.00433397
0.000882042
6.49288e-06
-6.85185e-05
2.60286e-05
-0.000242438
5.89658e-05
-0.000459475
0.000105049
-0.000717969
0.000163083
-0.00101268
0.000230767
-0.00133458
0.000304775
-0.00167151
0.000381128
-0.00200955
0.000455774
-0.00233514
0.000525212
-0.00263714
0.000586972
-0.00290837
0.00063982
-0.00314618
0.000683704
-0.00335201
0.000719479
-0.00353032
0.000748548
-0.00368724
0.00077251
-0.00382927
0.000792882
-0.00396237
0.000810931
-0.00409138
0.000827616
-0.00421974
-0.00434989
0.000843532
6.77688e-06
-7.52954e-05
2.69833e-05
-0.000262644
6.07801e-05
-0.000493272
0.000107653
-0.000764842
0.000166101
-0.00107113
0.000233512
-0.00140199
0.000306317
-0.00174431
0.000380432
-0.00208367
0.000451875
-0.00240659
0.000517377
-0.00270264
0.000574791
-0.00296579
0.000623231
-0.00319462
0.000662932
-0.00339171
0.000694939
-0.00356233
0.000720739
-0.00371304
0.000741918
-0.00385045
0.000759921
-0.00398037
0.000775906
-0.00410736
0.000790725
-0.00423455
-0.00436405
0.000804888
7.05188e-06
-8.23473e-05
2.78891e-05
-0.000283481
6.24594e-05
-0.000527842
0.000109978
-0.000812361
0.000168635
-0.00112978
0.000235522
-0.00146888
0.000306859
-0.00181565
0.000378504
-0.00215531
0.000446588
-0.00247467
0.000508098
-0.00276415
0.00056122
-0.00301891
0.000605395
-0.00323879
0.000641114
-0.00342743
0.000669578
-0.0035908
0.000692323
-0.00373579
0.000710902
-0.00386903
0.000726674
-0.00399614
0.000740692
-0.00412138
0.000753706
-0.00424757
-0.00437649
0.000766144
7.31597e-06
-8.96633e-05
2.87392e-05
-0.000304905
6.39904e-05
-0.000563093
0.000112005
-0.000860376
0.000170665
-0.00118844
0.000236783
-0.001535
0.000306408
-0.00188528
0.000375379
-0.00222428
0.00043998
-0.00253927
0.000497477
-0.00282165
0.000546387
-0.00306782
0.000586453
-0.00327886
0.000618393
-0.00345937
0.000643527
-0.00361593
0.000663413
-0.00375567
0.000679553
-0.00388517
0.000693212
-0.0040098
0.000705343
-0.00413351
0.000716597
-0.00425882
-0.00438723
0.000727334
7.56731e-06
-9.72306e-05
2.95271e-05
-0.000326864
6.53606e-05
-0.000598927
0.000113717
-0.000908732
0.000172174
-0.0012469
0.000237291
-0.00160012
0.000304978
-0.00195296
0.000371101
-0.00229041
0.00043213
-0.0026003
0.000485622
-0.00287514
0.000530418
-0.00311261
0.000566541
-0.00331498
0.000594901
-0.00348773
0.000616905
-0.00363793
0.000634109
-0.00377288
0.000647949
-0.00389901
0.000659597
-0.00402145
0.000669903
-0.00414382
0.000679434
-0.00426835
-0.00439628
0.000688486
7.80408e-06
-0.000105035
3.02467e-05
-0.000349307
6.65592e-05
-0.000635239
0.000115099
-0.000957272
0.000173151
-0.00130495
0.000237045
-0.00166401
0.000302591
-0.00201851
0.00036572
-0.00235354
0.000423117
-0.0026577
0.000472639
-0.00292466
0.000513436
-0.00315341
0.000545786
-0.00334733
0.000570756
-0.0035127
0.000589816
-0.00365699
0.000604496
-0.00378756
0.000616159
-0.00391067
0.000625879
-0.00403117
0.000634413
-0.00415235
0.000642248
-0.00427619
-0.00440366
0.000649625
8.02456e-06
-0.000113059
3.08925e-05
-0.000372175
6.75763e-05
-0.000671923
0.000116141
-0.00100584
0.000173591
-0.0013624
0.000236052
-0.00172647
0.000299275
-0.00208173
0.000359293
-0.00241355
0.000413025
-0.00271143
0.000458632
-0.00297027
0.000495557
-0.00319034
0.000524304
-0.00337608
0.000546069
-0.00353446
0.000562354
-0.00367328
0.000574651
-0.00379985
0.000584242
-0.00392027
0.000592104
-0.00403903
0.000598906
-0.00415916
0.000605065
-0.00428235
-0.00440937
0.000610774
8.22711e-06
-0.000121286
3.14593e-05
-0.000395407
6.84037e-05
-0.000708867
0.000116834
-0.00105427
0.00017349
-0.00141906
0.000234326
-0.00178731
0.000295068
-0.00214247
0.000351882
-0.00247037
0.000401941
-0.00276149
0.000443705
-0.00301204
0.000476893
-0.00322352
0.000502204
-0.00340139
0.000520936
-0.00355319
0.000534602
-0.00368694
0.000544641
-0.00380989
0.000552248
-0.00392787
0.000558309
-0.00404509
0.000563412
-0.00416426
0.00056791
-0.00428684
-0.00441341
0.000571955
8.41017e-06
-0.000129696
3.19427e-05
-0.00041894
6.90344e-05
-0.000745959
0.000117174
-0.00110241
0.000172852
-0.00147474
0.000231884
-0.00184634
0.000290007
-0.0022006
0.00034355
-0.00252391
0.000389949
-0.00280789
0.000427958
-0.00305004
0.000457547
-0.00325311
0.000479586
-0.00342343
0.000495446
-0.00356905
0.000506633
-0.00369813
0.000514522
-0.00381778
0.000520221
-0.00393357
0.000524528
-0.0040494
0.000527957
-0.00416769
0.000530805
-0.00428969
-0.00441579
0.000533187
8.57235e-06
-0.000138269
3.23386e-05
-0.000442706
6.94631e-05
-0.000783084
0.000117156
-0.0011501
0.000171682
-0.00152926
0.000228749
-0.00190341
0.000284138
-0.00225598
0.000334364
-0.00257414
0.000377135
-0.00285066
0.000411485
-0.00308439
0.000437616
-0.00327924
0.00045654
-0.00344235
0.000469678
-0.00358219
0.000478511
-0.00370696
0.000484345
-0.00382362
0.0004882
-0.00393743
0.000490791
-0.00405199
0.000492564
-0.00416946
0.000493768
-0.0042909
-0.00441651
0.000494489
8.71343e-06
-0.000146982
3.2646e-05
-0.000466638
6.96892e-05
-0.000820127
0.000116785
-0.00119719
0.000169997
-0.00158247
0.000224954
-0.00195836
0.000277514
-0.00230855
0.000324399
-0.00262102
0.000363588
-0.00288985
0.000394386
-0.00311519
0.000417198
-0.00330206
0.000433156
-0.00345831
0.000443709
-0.00359275
0.000450301
-0.00371356
0.000454161
-0.00382748
0.000456225
-0.00393949
0.000457129
-0.0040529
0.000457261
-0.00416959
0.000456827
-0.00429046
-0.00441557
0.000455885
8.83029e-06
-0.000155813
3.28579e-05
-0.000490666
6.97043e-05
-0.000856973
0.000116056
-0.00124355
0.000167798
-0.00163422
0.000220517
-0.00201108
0.000270173
-0.0023582
0.000313708
-0.00266456
0.000349375
-0.00292551
0.000376729
-0.00314255
0.00039636
-0.00332169
0.000409493
-0.00347144
0.000417587
-0.00360084
0.000422036
-0.00371801
0.000423993
-0.00382944
0.00042431
-0.00393981
0.000423552
-0.00405214
0.000422054
-0.00416809
0.000419984
-0.00428839
-0.00441297
0.000417379
8.92295e-06
-0.000164736
3.29745e-05
-0.000514718
6.95105e-05
-0.000893509
0.000114977
-0.00128901
0.000165109
-0.00168435
0.000215476
-0.00206145
0.00026217
-0.0024049
0.000302365
-0.00270475
0.000334579
-0.00295773
0.000358603
-0.00316657
0.000375186
-0.00333827
0.000385625
-0.00348188
0.000391373
-0.00360659
0.000393767
-0.0037204
0.000393881
-0.00382955
0.000392488
-0.00393841
0.000390087
-0.00404974
0.000386966
-0.00416497
0.000383262
-0.00428469
-0.0044087
0.000378994
8.99061e-06
-0.000173726
3.29944e-05
-0.000538721
6.91085e-05
-0.000929623
0.000113557
-0.00133346
0.000161948
-0.00173274
0.000209868
-0.00210937
0.000253559
-0.00244859
0.000290435
-0.00274163
0.000319273
-0.00298657
0.000340081
-0.00318738
0.000353745
-0.00335193
0.000361612
-0.00348975
0.000365117
-0.00361009
0.000365534
-0.00372082
0.000363856
-0.00382787
0.000360781
-0.00393534
0.000356752
-0.00404571
0.000352014
-0.00416023
0.000346676
-0.00427935
-0.00440277
0.000340744
9.0326e-06
-0.000182759
3.29168e-05
-0.000562606
6.85002e-05
-0.000965207
0.000111803
-0.00137676
0.000158335
-0.00177927
0.000203727
-0.00215476
0.00024439
-0.00248925
0.000277982
-0.00277522
0.000303528
-0.00301211
0.000321233
-0.00320508
0.0003321
-0.0033628
0.000337509
-0.00349516
0.000338862
-0.00361145
0.000337368
-0.00371932
0.000333941
-0.00382444
0.000329211
-0.00393061
0.000323564
-0.00404006
0.000317213
-0.00415388
0.000310243
-0.00427238
-0.00439517
0.000302646
9.04843e-06
-0.000191807
3.27417e-05
-0.000586299
6.76888e-05
-0.00100015
0.000109726
-0.0014188
0.000154295
-0.00182384
0.000197093
-0.00219756
0.000234715
-0.00252687
0.000265066
-0.00280557
0.000287407
-0.00303445
0.000302121
-0.0032198
0.000310307
-0.00337099
0.000313361
-0.00349821
0.000312646
-0.00361073
0.000309299
-0.00371597
0.000304161
-0.00381931
0.000297794
-0.00392424
0.00029054
-0.00403281
0.000282577
-0.00414592
0.000273974
-0.00426378
-0.00438591
0.000264714
9.03779e-06
-0.000200845
3.24696e-05
-0.000609731
6.66787e-05
-0.00103436
0.00010734
-0.00145946
0.000149852
-0.00186635
0.000190002
-0.00223771
0.000224585
-0.00256146
0.000251746
-0.00283273
0.000270972
-0.00305368
0.000282804
-0.00323163
0.000288418
-0.0033766
0.000289212
-0.00349901
0.000286503
-0.00360802
0.000281355
-0.00371083
0.000274535
-0.00381249
0.000266549
-0.00391625
0.000257692
-0.00402395
0.00024812
-0.00413635
0.000237885
-0.00425354
-0.00437499
0.000226962
9.00053e-06
-0.000209845
3.21015e-05
-0.000632832
6.54753e-05
-0.00106774
0.000104659
-0.00149865
0.000145031
-0.00190672
0.000182493
-0.00227517
0.000214047
-0.00259301
0.000238077
-0.00285676
0.00025428
-0.00306988
0.000263335
-0.00324068
0.000266479
-0.00337975
0.0002651
-0.00349763
0.000260462
-0.00360338
0.000253556
-0.00370392
0.000245082
-0.00380401
0.000235489
-0.00390666
0.000225036
-0.0040135
0.000213855
-0.00412517
0.000201987
-0.00424167
-0.0043624
0.000189404
8.93663e-06
-0.000218782
3.1639e-05
-0.000655534
6.40851e-05
-0.00110018
0.000101696
-0.00153626
0.000139858
-0.00194489
0.000174604
-0.00230992
0.00020315
-0.00262156
0.000224112
-0.00287772
0.000237382
-0.00308315
0.000243762
-0.00324706
0.000244531
-0.00338051
0.000241058
-0.00349416
0.000234549
-0.00359687
0.000225924
-0.0036953
0.000215818
-0.00379391
0.000204628
-0.00389547
0.000192583
-0.00400145
0.000179794
-0.00411238
0.000166294
-0.00422817
-0.00434816
0.000152051
8.84627e-06
-0.000227628
3.10844e-05
-0.000677772
6.25152e-05
-0.00113161
9.84675e-05
-0.00157221
0.000134359
-0.00198078
0.000166371
-0.00234193
0.000191938
-0.00264712
0.0002099
-0.00289569
0.000220327
-0.00309358
0.000224128
-0.00325086
0.000222611
-0.003379
0.000217116
-0.00348866
0.000208788
-0.00358855
0.000198478
-0.00368499
0.000186758
-0.00378219
0.000173981
-0.00388269
0.000160345
-0.00398782
0.000145949
-0.00409798
0.000130818
-0.00421304
-0.00433226
0.000114916
8.72973e-06
-0.000236358
3.04401e-05
-0.000699483
6.07734e-05
-0.00116195
9.49904e-05
-0.00160643
0.000128563
-0.00201435
0.000157833
-0.0023712
0.000180455
-0.00266974
0.000195486
-0.00291072
0.00020316
-0.00310125
0.000204474
-0.00325218
0.000200752
-0.00337528
0.0001933
-0.00348121
0.000183199
-0.00357844
0.000171233
-0.00367302
0.000157916
-0.00376887
0.000143559
-0.00386834
0.000128335
-0.00397259
0.000112329
-0.00408197
9.55689e-05
-0.00419628
-0.0043147
7.80118e-05
8.58745e-06
-0.000244946
2.9709e-05
-0.000720604
5.88684e-05
-0.00119111
9.12812e-05
-0.00163884
0.000122494
-0.00204556
0.000149022
-0.00239773
0.000168741
-0.00268946
0.000180914
-0.00292289
0.000185921
-0.00310626
0.000184835
-0.00325109
0.000178984
-0.00336942
0.000169634
-0.00347186
0.000157801
-0.00356661
0.000144204
-0.00365942
0.000129305
-0.00375397
0.000113375
-0.00385241
9.65652e-05
-0.00395578
7.89491e-05
-0.00406436
6.05482e-05
-0.00417788
-0.0042955
4.13456e-05
8.41998e-06
-0.000253366
2.88946e-05
-0.000741079
5.6809e-05
-0.00121902
8.73569e-05
-0.00166939
0.000116179
-0.00207439
0.000139974
-0.00242152
0.000156836
-0.00270632
0.000166222
-0.00293228
0.000168647
-0.00310869
0.000165243
-0.00324769
0.000157334
-0.00336152
0.000146138
-0.00346066
0.00013261
-0.00355308
0.000117405
-0.00364422
0.000100936
-0.0037375
8.344e-05
-0.00383491
6.50498e-05
-0.00393739
4.58337e-05
-0.00404514
2.57649e-05
-0.00415781
-0.00427429
4.5524e-06
8.22798e-06
-0.000261594
2.80002e-05
-0.000760851
5.46044e-05
-0.00124562
8.32349e-05
-0.00169802
0.000109644
-0.00210079
0.000130721
-0.0024426
0.000144775
-0.00272038
0.000151448
-0.00293895
0.000151372
-0.00310861
0.000145727
-0.00324204
0.000135824
-0.00335161
0.000122832
-0.00344767
0.000107641
-0.00353789
9.0849e-05
-0.00362743
7.28209e-05
-0.00371947
5.37646e-05
-0.00381585
3.37979e-05
-0.00391743
1.2989e-05
-0.00402433
-8.63531e-06
-0.00413619
-0.0042517
-3.12167e-05
8.01222e-06
-0.000269606
2.70299e-05
-0.000779869
5.22643e-05
-0.00127086
7.89321e-05
-0.00172468
0.000102913
-0.00212478
0.000121294
-0.00246098
0.000132593
-0.00273168
0.000136624
-0.00294298
0.000134127
-0.00310611
0.000126313
-0.00323423
0.000114475
-0.00333978
9.97304e-05
-0.00343293
8.29065e-05
-0.00352107
6.4546e-05
-0.00360907
4.49699e-05
-0.0036999
2.43587e-05
-0.00379524
2.81657e-06
-0.00389588
-1.95925e-05
-0.00400192
-4.28771e-05
-0.00411291
-0.00422757
-6.70111e-05
7.77356e-06
-0.000277379
2.59877e-05
-0.000798083
4.97984e-05
-0.00129467
7.44656e-05
-0.00174935
9.60106e-05
-0.00214632
0.000111722
-0.00247669
0.000120322
-0.00274028
0.000121783
-0.00294444
0.000116938
-0.00310127
0.000107023
-0.00322431
9.33064e-05
-0.00332606
7.68491e-05
-0.00341647
5.84194e-05
-0.00350264
3.85068e-05
-0.00358915
1.73927e-05
-0.00367878
-4.76743e-06
-0.00377308
-2.78798e-05
-0.00387277
-5.18863e-05
-0.00397792
-7.67756e-05
-0.00408802
-0.00420179
-0.000102556
7.51293e-06
-0.000284892
2.48777e-05
-0.000815447
4.72164e-05
-0.00131701
6.98519e-05
-0.00177199
8.896e-05
-0.00216543
0.000102033
-0.00248977
0.000107989
-0.00274623
0.000106951
-0.0029434
9.98309e-05
-0.00309415
8.78801e-05
-0.00321236
7.23342e-05
-0.00331051
5.4201e-05
-0.00339834
3.41901e-05
-0.00348263
1.2741e-05
-0.00356771
-9.90125e-06
-0.00365614
-3.3604e-05
-0.00374938
-5.82851e-05
-0.00384809
-8.38844e-05
-0.00395232
-0.00011038
-0.00406152
-0.00417437
-0.000137801
7.23132e-06
-0.000292124
2.37042e-05
-0.00083192
4.45281e-05
-0.00133783
6.51074e-05
-0.00179257
8.17833e-05
-0.0021821
9.22525e-05
-0.00250024
9.56233e-05
-0.0027496
9.21553e-05
-0.00293994
8.28283e-05
-0.00308482
6.8901e-05
-0.00319843
5.15732e-05
-0.00329318
3.17977e-05
-0.00337856
1.02283e-05
-0.00346106
-1.27421e-05
-0.00354473
-3.69026e-05
-0.00363198
-6.21423e-05
-0.00372414
-8.83879e-05
-0.00382185
-0.000115577
-0.00392513
-0.000143679
-0.00403342
-0.00414532
-0.000172731
6.9298e-06
-0.000299053
2.24718e-05
-0.000847462
4.17432e-05
-0.0013571
6.02477e-05
-0.00181107
7.45015e-05
-0.00219636
8.24052e-05
-0.00250814
8.32491e-05
-0.00275045
7.74184e-05
-0.00293411
6.59503e-05
-0.00307335
5.01026e-05
-0.00318259
3.10362e-05
-0.00327412
9.64967e-06
-0.00335717
-1.34568e-05
-0.00343795
-3.79341e-05
-0.00352026
-6.36031e-05
-0.00360631
-9.03727e-05
-0.00369737
-0.000118178
-0.00379404
-0.000146954
-0.00389635
-0.000176662
-0.00400371
-0.00411465
-0.000207333
6.60945e-06
-0.000305663
2.11847e-05
-0.000862038
3.88713e-05
-0.00137479
5.52883e-05
-0.00182749
6.71346e-05
-0.0022082
7.25138e-05
-0.00251352
7.08897e-05
-0.00274882
6.27618e-05
-0.00292598
4.92149e-05
-0.00305981
3.14995e-05
-0.00316487
1.07351e-05
-0.00325335
-1.22336e-05
-0.00333421
-3.6857e-05
-0.00341333
-6.28271e-05
-0.00349429
-8.99941e-05
-0.00357915
-0.000118286
-0.00366908
-0.000147646
-0.00376468
-0.000178006
-0.00386599
-0.000209315
-0.0039724
-0.00408236
-0.000241598
6.27141e-06
-0.000311934
1.98475e-05
-0.000875614
3.59218e-05
-0.00139086
5.02436e-05
-0.00184181
5.97015e-05
-0.00221766
6.25994e-05
-0.00251642
5.8566e-05
-0.00274479
4.82047e-05
-0.00291562
3.26385e-05
-0.00304424
1.31048e-05
-0.00314534
-9.32e-06
-0.00323093
-3.38436e-05
-0.00330968
-5.99649e-05
-0.00338721
-8.74137e-05
-0.00346684
-0.000116068
-0.00355049
-0.000145873
-0.00363927
-0.000176782
-0.00373377
-0.000208722
-0.00383405
-0.00024163
-0.00393949
-0.00404848
-0.000275515
5.91684e-06
-0.000317851
1.84647e-05
-0.000888162
3.29037e-05
-0.0014053
4.51279e-05
-0.00185403
5.22201e-05
-0.00222475
5.26817e-05
-0.00251688
4.62975e-05
-0.00273841
3.37644e-05
-0.00290308
1.62354e-05
-0.00302671
-5.06997e-06
-0.00312403
-2.91197e-05
-0.00320688
-5.51728e-05
-0.00328363
-8.27735e-05
-0.0033596
-0.000111687
-0.00343793
-0.000141815
-0.00352036
-0.000173124
-0.00360796
-0.000205575
-0.00370132
-0.000239091
-0.00380054
-0.000273593
-0.00390499
-0.004013
-0.000309073
5.54692e-06
-0.000323398
1.70405e-05
-0.000899655
2.98261e-05
-0.00141809
3.99544e-05
-0.00186416
4.4707e-05
-0.00222951
4.27788e-05
-0.00251495
3.41018e-05
-0.00272973
1.94567e-05
-0.00288844
1.98933e-08
-0.00300727
-2.30143e-05
-0.003101
-4.86561e-05
-0.00318124
-7.62145e-05
-0.00325607
-0.000105276
-0.00333054
-0.000135639
-0.00340756
-0.00016723
-0.00348877
-0.000200032
-0.00357516
-0.000234015
-0.00366734
-0.000269102
-0.00376545
-0.000305195
-0.0038689
-0.00397593
-0.000342263
5.16285e-06
-0.000328561
1.55794e-05
-0.000910072
2.66974e-05
-0.00142921
3.4736e-05
-0.0018722
3.71779e-05
-0.00223195
3.29076e-05
-0.00251068
2.1995e-05
-0.00271882
5.29566e-06
-0.00287174
-1.6e-05
-0.00298598
-4.07196e-05
-0.00307628
-6.79218e-05
-0.00315404
-9.69622e-05
-0.00322703
-0.000127468
-0.00330004
-0.000159265
-0.00337577
-0.000192305
-0.00345573
-0.000226586
-0.00354088
-0.000262092
-0.00363183
-0.000298745
-0.0037288
-0.000336426
-0.00383122
-0.00393728
-0.000375074
4.76585e-06
-0.000333327
1.40857e-05
-0.000919392
2.35261e-05
-0.00143865
2.94848e-05
-0.00187816
2.96475e-05
-0.00223211
2.30836e-05
-0.00250412
9.99148e-06
-0.00270572
-8.70645e-06
-0.00285304
-3.18105e-05
-0.00296287
-5.81773e-05
-0.00304991
-8.69102e-05
-0.0031253
-0.000117411
-0.00319653
-0.000149342
-0.00326811
-0.000182559
-0.00334255
-0.000217032
-0.00342126
-0.000252779
-0.00350514
-0.000289796
-0.00359481
-0.000328007
-0.00369059
-0.000367273
-0.00379195
-0.00389706
-0.000407497
4.35715e-06
-0.000337684
1.25634e-05
-0.000927598
2.03201e-05
-0.0014464
2.4212e-05
-0.00188205
2.21296e-05
-0.00223003
1.33209e-05
-0.00249531
-1.89197e-06
-0.00269051
-2.25376e-05
-0.00283239
-4.74038e-05
-0.00293801
-7.53804e-05
-0.00302194
-0.000105616
-0.00309507
-0.000137554
-0.00316459
-0.000170895
-0.00323477
-0.000205515
-0.00330793
-0.000241405
-0.00338537
-0.000278601
-0.00346794
-0.000317116
-0.0035563
-0.000356878
-0.00365082
-0.000397727
-0.0037511
-0.00385526
-0.00043952
3.93806e-06
-0.000341622
1.10169e-05
-0.000934677
1.70873e-05
-0.00145248
1.89285e-05
-0.00188389
1.46363e-05
-0.00222574
3.63396e-06
-0.0024843
-1.36531e-05
-0.00267322
-3.61886e-05
-0.00280986
-6.27717e-05
-0.00291142
-9.23225e-05
-0.00299238
-0.000124033
-0.00306336
-0.000157389
-0.00313123
-0.000192121
-0.00320003
-0.000228128
-0.00327192
-0.000265419
-0.00334808
-0.000304046
-0.00342931
-0.000344042
-0.0035163
-0.000385344
-0.00360952
-0.000427774
-0.00370867
-0.0038119
-0.000471135
3.50995e-06
-0.000345132
9.45007e-06
-0.000940617
1.38351e-05
-0.00145686
1.36467e-05
-0.0018837
7.17507e-06
-0.00221927
-5.96845e-06
-0.00247116
-2.52709e-05
-0.00265392
-4.96496e-05
-0.00278548
-7.7907e-05
-0.00288317
-0.000108998
-0.00296129
-0.000142158
-0.0030302
-0.000176911
-0.00309648
-0.000213016
-0.00316393
-0.000250394
-0.00323454
-0.000289067
-0.00330941
-0.000329106
-0.00338927
-0.000370564
-0.00347484
-0.000413394
-0.00356669
-0.000457403
-0.00366466
-0.00376698
-0.00050233
3.07394e-06
-0.000348206
7.86634e-06
-0.000945409
1.05693e-05
-0.00145956
8.37892e-06
-0.00188151
-1.67836e-07
-0.00221072
-1.54674e-05
-0.00245586
-3.67407e-05
-0.00263265
-6.29132e-05
-0.00275931
-9.28035e-05
-0.00285328
-0.000125402
-0.0029287
-0.000159986
-0.00299561
-0.000196116
-0.00306035
-0.000233578
-0.00312647
-0.000272309
-0.00319581
-0.000312346
-0.00326937
-0.000353774
-0.00334785
-0.000396672
-0.00343195
-0.000441014
-0.00352235
-0.000486601
-0.00361908
-0.00372048
-0.000533095
2.63101e-06
-0.000350837
6.26932e-06
-0.000949048
7.29681e-06
-0.00146059
3.11869e-06
-0.00187734
-7.58493e-06
-0.00220001
-2.48724e-05
-0.00243857
-4.80529e-05
-0.00260947
-7.5972e-05
-0.00273139
-0.000107455
-0.00282179
-0.00014153
-0.00289462
-0.000177513
-0.00295963
-0.000215
-0.00302286
-0.000253802
-0.00308767
-0.00029387
-0.00315574
-0.00033525
-0.00322799
-0.000378044
-0.00330505
-0.000422356
-0.00338763
-0.000468192
-0.00347651
-0.000515354
-0.00357192
2.18256e-06
-0.000353019
4.66302e-06
-0.000951528
4.02355e-06
-0.00145995
-2.11128e-06
-0.0018712
-1.48632e-05
-0.00218726
-3.41579e-05
-0.00241928
-5.91994e-05
-0.00258443
-8.88192e-05
-0.00270177
-0.000121858
-0.00278875
-0.000157377
-0.0028591
-0.000194736
-0.00292227
-0.000233562
-0.00298404
-0.000273686
-0.00304754
-0.000315073
-0.00311436
-0.000357777
-0.00318529
-0.000401912
-0.00326092
-0.000447609
-0.00334194
-0.000494913
-0.00342921
1.72956e-06
-0.000354749
3.05124e-06
-0.00095285
7.64309e-07
-0.00145766
-7.31522e-06
-0.00186312
-2.20701e-05
-0.00217251
-4.33178e-05
-0.00239803
-7.01728e-05
-0.00255757
-0.000101449
-0.00267049
-0.000136006
-0.0027542
-0.000172941
-0.00282217
-0.000211652
-0.00288356
-0.000251796
-0.00294389
-0.000293226
-0.00300611
-0.000335916
-0.00307167
-0.000379924
-0.00314128
-0.000425375
-0.00321547
-0.000472424
-0.00329489
1.27262e-06
-0.000356022
1.43447e-06
-0.000953012
-2.50109e-06
-0.00145373
-1.24735e-05
-0.00185315
-2.91949e-05
-0.00215579
-5.23459e-05
-0.00237488
-8.09665e-05
-0.00252895
-0.000113856
-0.0026376
-0.000149895
-0.00271816
-0.000188218
-0.00278384
-0.000228258
-0.00284352
-0.000269702
-0.00290245
-0.00031242
-0.00296339
-0.000356396
-0.00302769
-0.000401691
-0.00309598
-0.000448433
-0.00316872
8.10746e-07
-0.000356832
-1.83573e-07
-0.000952017
-5.74436e-06
-0.00144817
-1.75839e-05
-0.00184131
-3.62299e-05
-0.00213714
-6.12355e-05
-0.00234988
-9.15749e-05
-0.00249861
-0.000126037
-0.00260314
-0.000163523
-0.00268067
-0.000203205
-0.00274416
-0.000244551
-0.00280218
-0.000287276
-0.00285972
-0.000331266
-0.0029194
-0.000376512
-0.00298244
-0.000423076
-0.00304942
-0.00312072
3.24528e-07
-0.000357157
-1.80243e-06
-0.00094989
-8.96541e-06
-0.001441
-2.26404e-05
-0.00182763
-4.31681e-05
-0.00211661
-6.99806e-05
-0.00232306
-0.000101993
-0.0024666
-0.000137986
-0.00256715
-0.000176885
-0.00264177
-0.000217899
-0.00270315
-0.000260528
-0.00275955
-0.000304515
-0.00281574
-0.00034976
-0.00287416
-0.000396261
-0.00293594
-0.000444078
-0.0030016
-1.60775e-07
-0.000356996
-3.4159e-06
-0.000946635
-1.21606e-05
-0.00143226
-2.7637e-05
-0.00181216
-5.00033e-05
-0.00209425
-7.85755e-05
-0.00229449
-0.000112215
-0.00243296
-0.0001497
-0.00252966
-0.00018998
-0.00260149
-0.000232297
-0.00266083
-0.000276188
-0.00271566
-0.000321417
-0.00277051
-0.0003679
-0.00282768
-0.000415641
-0.0028882
-6.01062e-07
-0.000356395
-5.01569e-06
-0.00094222
-1.53254e-05
-0.00142195
-3.25684e-05
-0.00179492
-5.67298e-05
-0.00207009
-8.70152e-05
-0.00226421
-0.000122238
-0.00239774
-0.000161175
-0.00249073
-0.000202803
-0.00255986
-0.000246398
-0.00261724
-0.000291527
-0.00267053
-0.000337978
-0.00272406
-0.000385682
-0.00277997
-0.00283924
-1.05979e-06
-0.000355335
-6.60542e-06
-0.000936675
-1.8456e-05
-0.0014101
-3.74298e-05
-0.00177594
-6.33424e-05
-0.00204417
-9.5295e-05
-0.00223225
-0.000132058
-0.00236097
-0.000172409
-0.00245038
-0.000215353
-0.00251692
-0.000260198
-0.00257239
-0.000306542
-0.00262418
-0.000354196
-0.0026764
-0.000403102
-0.00273107
-1.52364e-06
-0.000353812
-8.18318e-06
-0.000930015
-2.15487e-05
-0.00139673
-4.22165e-05
-0.00175527
-6.98365e-05
-0.00201655
-0.000103411
-0.00219868
-0.000141671
-0.00232271
-0.0001834
-0.00240865
-0.000227627
-0.00247269
-0.000273696
-0.00252632
-0.000321232
-0.00257665