/*--------------------------------*- C++ -*----------------------------------*\
  =========                 |
  \\      /  F ield         | OpenFOAM: The Open Source CFD Toolbox
   \\    /   O peration     | Website:  https://openfoam.org
    \\  /    A nd           | Version:  7
     \\/     M anipulation  |
\*---------------------------------------------------------------------------*/
FoamFile
{
    version     2.0;
    format      ascii;
    class       volVectorField;
    location    "95";
    object      U;
}
// * * * * * * * * * * * * * * * * * * * * * * * * * * * * * * * * * * * * * //

dimensions      [0 1 -1 0 0 0 0];

internalField   nonuniform List<vector> 
8500
(
(0.184903 0.469115 -1.4939e-21)
(0.228596 0.556975 2.29461e-21)
(0.270518 0.622861 7.03441e-22)
(0.307099 0.665757 -4.41897e-22)
(0.335405 0.689004 -9.68713e-22)
(0.353455 0.698475 -4.23186e-23)
(0.360038 0.700532 7.65875e-22)
(0.355094 0.699937 -1.23183e-21)
(0.341328 0.696842 6.79078e-22)
(0.325999 0.683758 -1.33433e-22)
(0.320453 0.645971 -6.11985e-22)
(0.335398 0.568448 -1.40226e-22)
(0.374112 0.44576 1.60637e-21)
(0.431272 0.285515 -1.64347e-21)
(0.498537 0.103137 5.21749e-22)
(0.569094 -0.0833142 -6.05709e-22)
(0.637709 -0.255152 -5.41195e-23)
(0.699401 -0.39593 -7.24847e-22)
(0.749787 -0.496574 5.31267e-22)
(0.7866 -0.557062 -6.77002e-22)
(0.809882 -0.585044 6.89471e-22)
(0.821027 -0.591123 4.06281e-22)
(0.82222 -0.585057 -2.38344e-22)
(0.81669 -0.572458 4.02513e-22)
(0.804389 -0.561535 -5.73475e-23)
(0.782615 -0.56068 -5.86631e-23)
(0.749012 -0.569187 -2.61773e-22)
(0.710876 -0.562269 8.72112e-23)
(0.679586 -0.504866 8.05984e-23)
(0.66834 -0.375443 -3.72549e-23)
(0.678889 -0.185118 2.73015e-22)
(0.710291 0.024212 5.47884e-23)
(0.751921 0.215466 -4.04288e-22)
(0.794443 0.350793 -5.57701e-22)
(0.826785 0.443922 2.54184e-22)
(0.849107 0.475851 1.99118e-22)
(0.858527 0.496912 -1.122e-22)
(0.860865 0.481709 6.75309e-23)
(0.838283 0.510959 9.61891e-23)
(0.812941 0.506802 -1.0332e-22)
(0.761804 0.505401 -2.32719e-23)
(0.735116 0.412267 5.82766e-23)
(0.695485 0.251958 -3.46269e-24)
(0.68227 0.0800701 -1.7608e-22)
(0.690649 -0.168172 -6.07267e-23)
(0.157119 0.457489 2.20916e-21)
(0.202273 0.545697 -4.64557e-21)
(0.245982 0.612754 4.34356e-21)
(0.284613 0.657576 -7.55093e-21)
(0.315063 0.68324 4.96595e-21)
(0.335171 0.69537 -1.02719e-21)
(0.343684 0.700069 -1.28317e-21)
(0.340817 0.701653 6.57543e-22)
(0.32988 0.699539 2.69722e-21)
(0.318753 0.685493 -7.77498e-22)
(0.318871 0.644685 6.24563e-21)
(0.340077 0.563066 -3.75938e-21)
(0.384285 0.436762 -7.24926e-22)
(0.445322 0.274331 1.92135e-21)
(0.514768 0.0911652 7.65888e-22)
(0.58612 -0.0950624 -1.28695e-21)
(0.654434 -0.265878 -7.80929e-22)
(0.714913 -0.404931 2.53061e-21)
(0.763389 -0.503394 -8.08813e-22)
(0.797894 -0.561624 2.15954e-21)
(0.81883 -0.587555 3.77366e-22)
(0.827832 -0.591943 -2.99654e-22)
(0.82712 -0.58465 9.64722e-23)
(0.819941 -0.571119 -6.495e-22)
(0.806391 -0.559106 4.68256e-22)
(0.783727 -0.556872 -1.04734e-22)
(0.749264 -0.564379 -4.16587e-22)
(0.709902 -0.557743 4.88154e-22)
(0.676972 -0.502167 -1.57195e-22)
(0.664081 -0.375429 -5.1986e-22)
(0.673309 -0.187697 8.74425e-22)
(0.704022 0.0198405 -1.28437e-21)
(0.74551 0.210564 5.98423e-22)
(0.78855 0.346503 1.17606e-21)
(0.821765 0.440884 -1.52966e-21)
(0.845442 0.47405 -4.61519e-22)
(0.856095 0.496278 -3.22078e-23)
(0.859568 0.4826 -2.48332e-22)
(0.837784 0.513273 6.48982e-23)
(0.813389 0.51029 2.90703e-22)
(0.763032 0.508992 7.97955e-23)
(0.737125 0.415186 -3.31198e-22)
(0.697718 0.254323 2.97307e-22)
(0.684654 0.080291 2.51327e-22)
(0.692063 -0.16846 -1.36213e-22)
(0.130252 0.445149 2.2885e-21)
(0.176782 0.533739 6.31345e-21)
(0.222159 0.602 -3.47765e-21)
(0.262705 0.648801 2.865e-21)
(0.295167 0.67695 -6.96286e-21)
(0.317246 0.691804 2.39168e-21)
(0.32769 0.699159 -2.36076e-22)
(0.32703 0.702837 -5.88667e-22)
(0.319172 0.701519 6.74044e-22)
(0.312534 0.686311 -1.41042e-21)
(0.318497 0.642418 -1.13657e-21)
(0.345936 0.556876 3.41029e-21)
(0.395449 0.427307 5.01883e-22)
(0.460122 0.263062 -1.39364e-21)
(0.531535 0.0793961 -2.01235e-21)
(0.603524 -0.10643 3.86358e-21)
(0.671425 -0.276129 -3.75752e-21)
(0.730601 -0.413426 1.34982e-21)
(0.7771 -0.509723 -1.73314e-21)
(0.809253 -0.565746 -1.454e-21)
(0.82782 -0.589701 2.28589e-22)
(0.83468 -0.592471 1.48732e-21)
(0.832084 -0.584009 -1.74821e-21)
(0.823276 -0.569602 9.47258e-22)
(0.808495 -0.556548 -8.91523e-22)
(0.784976 -0.552952 -5.86415e-22)
(0.749706 -0.559441 2.44319e-22)
(0.709175 -0.553073 5.17189e-22)
(0.674637 -0.499361 9.01914e-22)
(0.660105 -0.375391 -1.59677e-21)
(0.667997 -0.190336 -1.05777e-21)
(0.697992 0.0153501 1.21406e-21)
(0.739295 0.205517 4.15462e-22)
(0.78281 0.342058 -8.43113e-22)
(0.816868 0.437687 8.65074e-22)
(0.841881 0.472099 1.03641e-21)
(0.853751 0.495523 9.34715e-22)
(0.858363 0.48339 -2.88848e-22)
(0.837387 0.515497 -8.78201e-23)
(0.813969 0.513695 -3.16283e-22)
(0.764402 0.512521 -5.59976e-23)
(0.73929 0.418084 2.37869e-22)
(0.700117 0.256694 -7.54887e-22)
(0.687226 0.0805612 7.70477e-22)
(0.693657 -0.1687 3.14656e-22)
(0.104364 0.43212 -4.68795e-21)
(0.152168 0.521125 3.30935e-21)
(0.199081 0.590624 4.37666e-21)
(0.241398 0.639452 -7.34923e-21)
(0.275742 0.670141 4.17291e-21)
(0.29971 0.687766 2.88724e-21)
(0.3121 0.697771 -1.23247e-21)
(0.31379 0.703439 3.05075e-21)
(0.309263 0.702729 -3.22659e-21)
(0.30738 0.68618 1.40331e-21)
(0.319326 0.63918 2.52153e-21)
(0.352932 0.549925 1.9522e-22)
(0.40754 0.417452 -3.95655e-21)
(0.475605 0.251759 -9.2967e-22)
(0.548778 0.0678654 4.26526e-21)
(0.621258 -0.117394 8.36275e-21)
(0.688646 -0.285895 3.87038e-21)
(0.746439 -0.421409 -2.11666e-21)
(0.790899 -0.515558 -1.0555e-21)
(0.820662 -0.569432 -1.43153e-21)
(0.836843 -0.591488 6.59145e-22)
(0.841568 -0.592713 1.15994e-21)
(0.837111 -0.58314 1.66388e-21)
(0.826694 -0.567911 -1.44852e-21)
(0.810703 -0.553868 2.62576e-22)
(0.786361 -0.54893 -1.04205e-21)
(0.750339 -0.554384 -1.21572e-22)
(0.708698 -0.548267 -2.65851e-21)
(0.672588 -0.496448 -5.78689e-22)
(0.656416 -0.375323 1.949e-21)
(0.662958 -0.193029 5.37977e-22)
(0.692205 0.0107481 9.89835e-22)
(0.73328 0.200332 -8.22895e-22)
(0.777225 0.337462 -1.02016e-21)
(0.812094 0.434335 2.2186e-21)
(0.838422 0.469999 -1.47771e-21)
(0.851495 0.494644 -2.94087e-22)
(0.857248 0.484077 -3.03405e-22)
(0.837094 0.517625 3.06085e-22)
(0.814681 0.517015 2.03555e-22)
(0.765915 0.515987 -5.10981e-23)
(0.741612 0.420959 -2.96895e-22)
(0.702683 0.25907 -1.44827e-22)
(0.689987 0.08088 -1.07334e-21)
(0.695433 -0.168892 -2.22833e-22)
(0.0795118 0.418429 -9.86091e-21)
(0.12847 0.507885 -1.75585e-21)
(0.176776 0.57865 6.54802e-21)
(0.220717 0.629547 -5.42477e-21)
(0.25681 0.662821 4.79793e-22)
(0.282596 0.683247 5.28514e-21)
(0.296961 0.695872 -2.07999e-21)
(0.301158 0.70341 -2.35485e-21)
(0.300211 0.703121 5.33503e-21)
(0.30332 0.68508 -7.4897e-21)
(0.321345 0.63499 -2.62767e-21)
(0.361015 0.542259 5.46432e-21)
(0.420493 0.407253 -6.62392e-21)
(0.491702 0.240469 2.56828e-21)
(0.566436 0.0566054 -7.0206e-21)
(0.639276 -0.127937 -1.03738e-20)
(0.706061 -0.295164 3.53512e-21)
(0.762401 -0.428875 1.04038e-22)
(0.804769 -0.5209 1.87813e-21)
(0.83211 -0.572682 -6.03178e-22)
(0.845894 -0.592921 -3.26989e-21)
(0.848491 -0.592677 -9.57679e-22)
(0.842197 -0.58205 -1.4994e-21)
(0.830197 -0.566053 4.02477e-21)
(0.813014 -0.551074 -1.12248e-22)
(0.787882 -0.544817 8.15794e-22)
(0.751161 -0.549218 1.30277e-21)
(0.708472 -0.543327 1.76531e-22)
(0.670827 -0.493424 1.08727e-21)
(0.65302 -0.375219 9.23664e-22)
(0.658195 -0.195768 4.27942e-21)
(0.686664 0.00604203 4.54524e-21)
(0.727465 0.195014 3.56963e-22)
(0.771798 0.332717 2.04671e-21)
(0.807445 0.430829 -3.10427e-21)
(0.835068 0.46775 5.27125e-22)
(0.849327 0.493643 -6.73188e-22)
(0.856224 0.48466 9.13556e-22)
(0.836904 0.519656 -2.17398e-23)
(0.815524 0.520246 2.07352e-23)
(0.767569 0.519389 -2.45888e-22)
(0.744089 0.423809 1.07284e-22)
(0.705416 0.261448 1.04999e-21)
(0.692939 0.081247 1.61865e-22)
(0.697391 -0.169034 -7.21537e-22)
(0.0557429 0.404109 -3.65167e-20)
(0.105719 0.494051 2.74037e-20)
(0.155269 0.566105 -1.82613e-20)
(0.200682 0.619104 -7.29425e-21)
(0.238399 0.654995 2.42316e-20)
(0.26594 0.678232 -7.59943e-21)
(0.282326 0.693427 -3.96683e-21)
(0.289195 0.702703 1.07244e-20)
(0.292068 0.702654 -1.4718e-20)
(0.300377 0.682997 4.4436e-21)
(0.324532 0.629873 -4.85531e-21)
(0.370132 0.533931 -7.41147e-21)
(0.43424 0.396764 8.8195e-21)
(0.508346 0.229234 -3.87483e-21)
(0.584449 0.0456437 1.14602e-20)
(0.657531 -0.138042 -1.23962e-20)
(0.723636 -0.303929 3.7126e-21)
(0.778461 -0.43582 -1.70622e-21)
(0.818689 -0.525748 -3.3809e-22)
(0.843584 -0.575501 4.4267e-21)
(0.854964 -0.594005 -1.21418e-21)
(0.855446 -0.592368 5.06242e-21)
(0.847342 -0.580745 -7.46459e-22)
(0.833783 -0.564035 -4.36494e-21)
(0.815429 -0.548173 9.06384e-23)
(0.789538 -0.540623 -7.61375e-22)
(0.752173 -0.543952 9.59274e-22)
(0.708498 -0.538261 2.1211e-23)
(0.669359 -0.490289 1.75344e-21)
(0.649921 -0.375072 -3.48651e-21)
(0.653712 -0.198545 -3.19164e-21)
(0.681369 0.00123966 -3.36591e-21)
(0.721852 0.189571 -1.40627e-21)
(0.766528 0.327829 -7.51007e-24)
(0.802921 0.427171 1.36181e-21)
(0.831817 0.465354 1.43192e-21)
(0.847248 0.492518 1.39513e-21)
(0.855291 0.485137 -6.25151e-22)
(0.836815 0.521585 -6.65411e-22)
(0.816497 0.523387 -1.66499e-22)
(0.769363 0.522724 -8.24198e-22)
(0.746721 0.426633 -1.60534e-21)
(0.708316 0.263829 -2.63046e-21)
(0.696083 0.0816614 1.11692e-21)
(0.699536 -0.169126 1.03017e-21)
(0.0839451 0.479657 1.04309e-20)
(0.13458 0.553016 -1.49652e-20)
(0.181316 0.608142 -1.29078e-20)
(0.220534 0.646667 6.25972e-22)
(0.249783 0.672706 3.9523e-21)
(0.268251 0.690402 4.34769e-21)
(0.277966 0.701273 1.44656e-20)
(0.284886 0.701294 -1.49947e-21)
(0.298566 0.679927 -3.13118e-22)
(0.328862 0.62386 9.26419e-21)
(0.380226 0.524994 -1.76253e-20)
(0.44871 0.386039 5.34819e-21)
(0.525465 0.218097 -8.12431e-21)
(0.602759 0.0350053 7.01258e-21)
(0.675978 -0.147697 9.63469e-21)
(0.741338 -0.312182 -3.88484e-23)
(0.794593 -0.442242 -1.15867e-21)
(0.83264 -0.530105 2.70862e-21)
(0.855071 -0.577893 -4.02884e-21)
(0.864045 -0.594746 -4.70581e-21)
(0.862426 -0.591795 2.17056e-21)
(0.852544 -0.579233 -2.09658e-21)
(0.837453 -0.561862 1.5326e-21)
(0.817946 -0.545173 1.69213e-21)
(0.791328 -0.536357 -5.30113e-22)
(0.753371 -0.538597 -2.60581e-22)
(0.708775 -0.533073 2.45148e-21)
(0.668185 -0.487041 -4.7566e-21)
(0.647121 -0.374874 2.76746e-21)
(0.64951 -0.201352 -3.35063e-21)
(0.676323 -0.00365087 4.44239e-21)
(0.716442 0.184007 -1.34663e-21)
(0.761417 0.3228 1.57069e-21)
(0.798524 0.423363 -1.44093e-21)
(0.828671 0.462812 2.98986e-22)
(0.845255 0.491269 2.41908e-22)
(0.854448 0.485504 1.05775e-21)
(0.836829 0.523411 -8.54131e-22)
(0.817599 0.526435 -5.11375e-22)
(0.771296 0.525992 6.13631e-22)
(0.749507 0.429431 1.83695e-21)
(0.711381 0.266209 2.61072e-21)
(0.69942 0.0821225 8.76254e-22)
(0.701868 -0.16917 5.0193e-22)
(0.0631723 0.46474 -7.98145e-21)
(0.114728 0.539409 -1.67268e-20)
(0.162641 0.596679 2.01097e-20)
(0.203249 0.637839 2.82967e-21)
(0.234174 0.666652 -1.12785e-20)
(0.254798 0.686761 9.9014e-21)
(0.267532 0.699079 4.11568e-21)
(0.278708 0.699012 -9.73224e-21)
(0.297896 0.675874 -2.34545e-21)
(0.334299 0.61699 4.06974e-21)
(0.391234 0.515502 1.11575e-20)
(0.46383 0.37513 -1.07651e-20)
(0.542991 0.207095 8.37545e-21)
(0.621309 0.0247126 8.45928e-21)
(0.694575 -0.156892 -6.2958e-21)
(0.759134 -0.319921 -8.9939e-21)
(0.810773 -0.448141 1.59508e-20)
(0.846605 -0.533972 2.45405e-23)
(0.866557 -0.579863 8.11634e-21)
(0.87313 -0.59515 -7.98799e-22)
(0.869428 -0.590965 -2.25505e-21)
(0.857798 -0.577521 1.24747e-22)
(0.841205 -0.55954 4.22501e-22)
(0.820565 -0.542081 1.88616e-22)
(0.793249 -0.532031 -8.35321e-22)
(0.754755 -0.533165 -1.58862e-22)
(0.709303 -0.527771 7.3603e-22)
(0.667306 -0.483679 2.45945e-21)
(0.644623 -0.37462 -4.88362e-23)
(0.645591 -0.204179 1.72457e-21)
(0.671525 -0.00862091 -1.21953e-21)
(0.711234 0.17833 -2.58465e-22)
(0.756466 0.317636 -1.18016e-21)
(0.794253 0.419407 -3.25036e-21)
(0.825628 0.460125 -5.48427e-22)
(0.84335 0.489895 -3.00153e-23)
(0.853695 0.485762 7.20141e-22)
(0.836944 0.525129 5.22204e-22)
(0.81883 0.529386 8.13291e-22)
(0.773368 0.529191 2.10441e-21)
(0.752447 0.4322 -4.5953e-22)
(0.714611 0.268587 1.23892e-21)
(0.702951 0.0826294 6.1954e-23)
(0.704388 -0.169163 -5.15508e-22)
(0.0434259 0.449337 1.74178e-21)
(0.0957349 0.525314 2.00741e-20)
(0.144685 0.58473 -1.21991e-20)
(0.186581 0.62851 5.31252e-21)
(0.219165 0.66005 -1.87353e-20)
(0.242032 0.682471 1.3689e-21)
(0.257958 0.696084 1.13651e-20)
(0.273577 0.695789 -6.25304e-21)
(0.298368 0.670851 -2.12761e-20)
(0.340806 0.609305 1.71041e-20)
(0.403092 0.505512 7.56188e-21)
(0.479529 0.364089 -3.06654e-21)
(0.560855 0.196264 -2.42666e-20)
(0.640045 0.0147834 1.40093e-20)
(0.71328 -0.16562 -4.48897e-21)
(0.776994 -0.327143 -5.36135e-21)
(0.826976 -0.453517 6.80321e-21)
(0.860564 -0.537355 -8.6817e-21)
(0.878031 -0.581417 -8.04903e-21)
(0.882211 -0.595224 -8.86137e-21)
(0.876447 -0.589885 5.75758e-21)
(0.863103 -0.575617 3.79741e-21)
(0.845038 -0.557077 -1.42209e-21)
(0.823286 -0.538904 -3.30753e-21)
(0.7953 -0.527653 1.14046e-22)
(0.75632 -0.527666 -3.32907e-21)
(0.710079 -0.522361 -4.75347e-21)
(0.666724 -0.480201 7.59166e-22)
(0.642428 -0.374302 -2.28823e-21)
(0.641956 -0.207018 1.55444e-21)
(0.666976 -0.013663 -2.79788e-21)
(0.706229 0.172546 -1.34315e-21)
(0.751675 0.312341 -4.4566e-21)
(0.790109 0.415306 2.31465e-21)
(0.822688 0.457295 -2.70706e-22)
(0.841531 0.488396 -9.96371e-22)
(0.853031 0.485906 -1.95662e-21)
(0.837158 0.526737 1.67716e-21)
(0.820187 0.53224 6.71104e-22)
(0.775576 0.532319 -1.38581e-21)
(0.755539 0.434938 -9.41348e-22)
(0.718006 0.270962 -4.1256e-21)
(0.706675 0.083181 -1.81942e-21)
(0.707099 -0.169108 -3.34677e-22)
(0.0247408 0.433486 3.77833e-21)
(0.0776244 0.510755 -1.92503e-20)
(0.127479 0.572309 9.99323e-21)
(0.170577 0.618679 -3.52403e-22)
(0.204818 0.65288 7.3295e-21)
(0.230022 0.677498 -2.08271e-20)
(0.249306 0.692258 9.3264e-21)
(0.269528 0.691614 2.30506e-21)
(0.299976 0.664876 5.73905e-21)
(0.348337 0.600852 9.12022e-21)
(0.415736 0.49508 -9.5044e-21)
(0.495733 0.352962 -1.94028e-20)
(0.578992 0.185633 1.76558e-20)
(0.658914 0.00523205 -1.5459e-20)
(0.732055 -0.173877 4.80859e-21)
(0.794886 -0.333848 -1.0181e-20)
(0.843178 -0.458373 3.22533e-21)
(0.874499 -0.540256 -1.37577e-21)
(0.88948 -0.582561 -3.78518e-21)
(0.891281 -0.594976 5.75268e-21)
(0.883479 -0.588564 2.41494e-21)
(0.868456 -0.573528 2.97554e-21)
(0.848952 -0.554477 5.95828e-22)
(0.826105 -0.535649 -3.34278e-21)
(0.797478 -0.523234 4.18532e-21)
(0.758063 -0.522111 1.76312e-22)
(0.7111 -0.51685 -3.31109e-22)
(0.666438 -0.476607 2.96831e-21)
(0.640537 -0.373912 1.11314e-21)
(0.638604 -0.209859 -8.33298e-21)
(0.662675 -0.0187684 -8.24648e-22)
(0.701426 0.166662 1.74812e-21)
(0.747043 0.306918 5.4868e-21)
(0.786093 0.411062 2.45878e-21)
(0.819852 0.454322 -2.55813e-22)
(0.839798 0.486772 8.97651e-22)
(0.852455 0.485937 -1.13519e-22)
(0.837472 0.528233 -1.59765e-21)
(0.821669 0.534992 1.00344e-22)
(0.777918 0.535375 1.77624e-21)
(0.758783 0.437646 2.22655e-21)
(0.721564 0.273331 3.39056e-21)
(0.710592 0.0837764 -2.37439e-21)
(0.71 -0.169002 -4.4441e-22)
(0.00716879 0.417229 8.51944e-21)
(0.0604295 0.495761 5.06984e-21)
(0.111067 0.559428 -1.89717e-20)
(0.155292 0.60834 1.70095e-20)
(0.191199 0.645122 9.54902e-23)
(0.218842 0.671812 -1.55639e-21)
(0.241637 0.687576 2.57853e-21)
(0.266592 0.686484 -1.3308e-20)
(0.302711 0.657979 4.99507e-21)
(0.356847 0.591683 -2.16677e-20)
(0.429096 0.484263 2.20312e-20)
(0.51237 0.341797 -4.3605e-21)
(0.597338 0.175231 -4.01819e-21)
(0.677867 -0.0039304 -8.39504e-21)
(0.750864 -0.18166 1.44162e-20)
(0.812783 -0.340038 -8.53216e-21)
(0.859357 -0.462712 1.11272e-20)
(0.888393 -0.542683 -5.0617e-21)
(0.900892 -0.583302 1.49557e-20)
(0.900333 -0.594412 -8.76251e-21)
(0.890518 -0.587009 -5.8156e-21)
(0.873853 -0.571263 5.91308e-21)
(0.852943 -0.551748 -3.59771e-21)
(0.829023 -0.532321 -3.46447e-22)
(0.79978 -0.518783 5.32356e-22)
(0.759981 -0.51651 2.41889e-21)
(0.712363 -0.511246 -1.72684e-21)
(0.666447 -0.472896 3.77992e-21)
(0.638951 -0.373445 -1.21821e-21)
(0.635536 -0.212694 -2.12754e-21)
(0.65862 -0.0239279 -4.62087e-21)
(0.696824 0.160684 6.18621e-21)
(0.742571 0.301372 -2.20526e-21)
(0.782203 0.406677 -1.79972e-21)
(0.817117 0.451208 2.00136e-21)
(0.83815 0.485021 -1.57255e-22)
(0.851966 0.485851 -3.92549e-22)
(0.837883 0.529612 2.09725e-22)
(0.823274 0.537641 -2.38055e-21)
(0.780394 0.538357 -2.19701e-21)
(0.762177 0.440321 -1.84565e-22)
(0.725285 0.275693 -1.76858e-21)
(0.714703 0.0844143 6.99776e-22)
(0.713094 -0.168848 4.59988e-22)
(-0.0092563 0.400604 -9.68988e-21)
(0.0441923 0.480359 2.3295e-20)
(0.0954987 0.546099 1.04443e-20)
(0.140789 0.597489 -2.931e-21)
(0.178385 0.636756 -2.33186e-20)
(0.208566 0.665388 1.99863e-20)
(0.235011 0.682019 1.95006e-20)
(0.264794 0.680403 -9.73792e-21)
(0.306554 0.650193 9.15357e-21)
(0.366284 0.581851 4.94472e-21)
(0.443107 0.473116 -4.62461e-21)
(0.529371 0.330636 -6.90603e-21)
(0.615832 0.165083 -9.14282e-21)
(0.696859 -0.012696 2.18636e-20)
(0.769674 -0.18897 -2.26371e-21)
(0.830658 -0.345715 -1.88852e-20)
(0.87549 -0.466538 1.67504e-20)
(0.902228 -0.54464 -6.08674e-21)
(0.912254 -0.583648 -1.74083e-20)
(0.909358 -0.593541 3.89504e-21)
(0.897559 -0.585228 -2.63895e-21)
(0.879291 -0.568827 -5.40982e-22)
(0.857011 -0.548894 2.30754e-21)
(0.832038 -0.528927 -1.45152e-21)
(0.802203 -0.514309 7.18024e-23)
(0.762067 -0.510877 1.44709e-22)
(0.713863 -0.505557 -5.84288e-21)
(0.666749 -0.469069 7.98714e-21)
(0.637669 -0.372892 -3.72288e-21)
(0.63275 -0.215512 3.75537e-21)
(0.65481 -0.0291327 3.59125e-21)
(0.692423 0.154619 -2.75972e-21)
(0.738257 0.295708 -1.21427e-21)
(0.778439 0.402155 2.59961e-21)
(0.814483 0.447956 -7.22268e-22)
(0.836585 0.483145 -3.32969e-21)
(0.851562 0.485647 1.48546e-22)
(0.83839 0.530872 9.31328e-22)
(0.825001 0.540184 8.95095e-22)
(0.783001 0.541264 2.82013e-21)
(0.765719 0.442961 -3.69339e-21)
(0.729166 0.278045 4.81334e-21)
(0.719008 0.0850934 4.55263e-21)
(0.71638 -0.168643 1.11406e-22)
(-0.0244853 0.383638 2.83365e-20)
(0.02897 0.464577 2.19732e-20)
(0.0808394 0.532331 -7.35397e-22)
(0.127143 0.58612 -2.27998e-21)
(0.166458 0.627763 4.1452e-22)
(0.199273 0.658203 1.58949e-21)
(0.229483 0.675576 -2.7203e-20)
(0.264155 0.673385 2.63531e-21)
(0.311485 0.641559 -1.87002e-20)
(0.376596 0.571415 1.19082e-21)
(0.4577 0.461695 3.82608e-20)
(0.546668 0.31952 -2.88842e-20)
(0.634418 0.155208 1.91796e-20)
(0.71585 -0.0210601 -2.18856e-20)
(0.788452 -0.195811 -1.09887e-20)
(0.848485 -0.350885 1.60402e-20)
(0.891556 -0.469856 -4.21704e-21)
(0.915988 -0.546135 4.72918e-21)
(0.923555 -0.583607 -1.09518e-23)
(0.91835 -0.59237 5.46172e-21)
(0.904599 -0.58323 -3.44363e-21)
(0.884766 -0.566231 -1.5363e-21)
(0.861154 -0.545923 1.57099e-22)
(0.835146 -0.525473 -1.9648e-21)
(0.804742 -0.50982 4.0214e-21)
(0.764318 -0.50522 -2.51186e-21)
(0.715594 -0.49979 4.52743e-21)
(0.667341 -0.465126 -4.59728e-21)
(0.636691 -0.372246 5.48073e-21)
(0.630245 -0.218304 -9.14255e-22)
(0.651243 -0.0343738 2.32635e-21)
(0.688221 0.148475 5.91694e-21)
(0.734101 0.28993 7.63858e-22)
(0.774801 0.397498 -3.03733e-21)
(0.81195 0.444565 4.2936e-21)
(0.835102 0.481143 2.42403e-21)
(0.851242 0.485324 1.89221e-21)
(0.838991 0.532012 -2.69078e-22)
(0.826846 0.54262 6.83313e-22)
(0.785737 0.544095 -1.45802e-21)
(0.769408 0.445565 2.60589e-21)
(0.733207 0.280386 -4.94327e-21)
(0.723504 0.0858124 -3.98155e-21)
(0.719859 -0.16839 -1.22486e-21)
(-0.0384432 0.366333 -4.10093e-21)
(0.0148375 0.448442 -3.84633e-20)
(0.0671675 0.518132 2.29927e-20)
(0.114443 0.574228 -8.87182e-21)
(0.155506 0.618127 9.45511e-22)
(0.191041 0.650242 -1.34174e-20)
(0.225108 0.668245 1.09175e-20)
(0.264689 0.665451 7.13868e-21)
(0.317478 0.632123 -7.32586e-21)
(0.387729 0.56043 -9.12202e-21)
(0.472809 0.450053 3.22502e-20)
(0.564197 0.308486 -3.86807e-20)
(0.653044 0.145623 1.34554e-20)
(0.7348 -0.0290207 2.95826e-20)
(0.807173 -0.202185 7.39103e-21)
(0.86624 -0.355552 -1.11809e-20)
(0.907533 -0.472673 1.75137e-21)
(0.929656 -0.547175 6.84142e-21)
(0.934783 -0.583188 1.42683e-21)
(0.927302 -0.590909 5.71169e-21)
(0.911632 -0.581022 4.43063e-22)
(0.890275 -0.56348 2.36962e-22)
(0.865368 -0.542839 1.4162e-21)
(0.838347 -0.521964 3.66434e-21)
(0.807394 -0.505326 -3.3721e-21)
(0.766727 -0.499551 -2.87369e-22)
(0.717551 -0.493954 7.8178e-22)
(0.668219 -0.461067 9.36748e-22)
(0.636016 -0.371502 -8.04272e-21)
(0.62802 -0.22106 8.20928e-22)
(0.647917 -0.039642 3.66425e-21)
(0.684215 0.142257 -1.91854e-21)
(0.730102 0.284042 6.51424e-22)
(0.771288 0.392708 -3.22678e-21)
(0.809515 0.441039 -3.22681e-21)
(0.833699 0.479014 -4.61215e-22)
(0.851004 0.484881 -1.77655e-21)
(0.839684 0.533027 -6.35479e-22)
(0.828807 0.544946 -9.28752e-22)
(0.788601 0.546847 9.1629e-22)
(0.773242 0.448131 -3.97923e-21)
(0.737405 0.282713 5.25042e-21)
(0.728192 0.0865698 1.59446e-21)
(0.72353 -0.168088 2.01371e-21)
(-0.0510397 0.348589 -1.12519e-20)
(0.00189589 0.431981 -4.06821e-21)
(0.054577 0.503513 6.1802e-21)
(0.102786 0.56181 -1.16111e-20)
(0.145625 0.607836 -4.67399e-21)
(0.183951 0.641493 2.02596e-20)
(0.221936 0.660029 -1.73012e-20)
(0.266405 0.65663 4.99691e-21)
(0.324503 0.621935 1.43269e-20)
(0.399627 0.548958 -6.03227e-21)
(0.488369 0.438244 5.85692e-21)
(0.581896 0.297568 -7.75386e-21)
(0.671662 0.136343 2.11935e-20)
(0.753678 -0.0365784 -2.38187e-21)
(0.82581 -0.208099 -1.13824e-20)
(0.883901 -0.359722 -5.73013e-21)
(0.923402 -0.474995 -3.39878e-20)
(0.943216 -0.547769 2.10479e-20)
(0.945926 -0.5824 -9.07108e-21)
(0.936206 -0.589165 5.65364e-22)
(0.918653 -0.578613 7.01211e-22)
(0.895813 -0.560584 3.6e-21)
(0.869652 -0.53965 -2.17984e-21)
(0.841637 -0.518404 -3.79182e-21)
(0.810154 -0.500834 3.28714e-21)
(0.769288 -0.493882 -1.433e-21)
(0.719727 -0.488059 4.74067e-21)
(0.66938 -0.456895 -2.15151e-22)
(0.635642 -0.370651 1.67214e-22)
(0.626073 -0.223769 4.07042e-21)
(0.644828 -0.0449285 -2.26918e-21)
(0.680405 0.135972 -2.58336e-21)
(0.726258 0.27805 -3.8861e-21)
(0.767898 0.38779 -1.43224e-21)
(0.807178 0.437379 2.46427e-21)
(0.832376 0.476759 2.44223e-22)
(0.850846 0.484314 2.32028e-22)
(0.840468 0.533917 2.48958e-21)
(0.830881 0.547159 1.40526e-21)
(0.791588 0.549518 -4.36346e-21)
(0.777218 0.450658 6.44354e-21)
(0.741759 0.285024 -6.24698e-21)
(0.733069 0.087364 -1.50581e-21)
(0.727395 -0.167736 -3.51933e-22)
(-0.0621982 0.330549 2.35508e-20)
(-0.009707 0.415236 -4.13029e-21)
(0.0431785 0.488485 6.27583e-21)
(0.0922806 0.548864 1.1323e-20)
(0.136915 0.596883 -1.03842e-20)
(0.178082 0.631955 -8.47314e-21)
(0.220011 0.650942 1.482e-20)
(0.269308 0.646957 -9.92704e-21)
(0.332527 0.61105 -1.48712e-20)
(0.412235 0.537058 2.26615e-22)
(0.504319 0.426317 -1.59891e-20)
(0.599708 0.286797 1.77982e-20)
(0.690229 0.127377 -2.40056e-20)
(0.772454 -0.0437365 2.8001e-20)
(0.84434 -0.213561 -2.69526e-20)
(0.901445 -0.363403 3.63741e-20)
(0.939143 -0.476829 2.49813e-20)
(0.956651 -0.547926 -3.37533e-20)
(0.956974 -0.581253 -6.56384e-21)
(0.945056 -0.587148 2.01218e-20)
(0.925659 -0.576011 -5.96393e-23)
(0.901376 -0.55755 -5.44125e-21)
(0.874002 -0.53636 -1.76923e-21)
(0.845015 -0.514799 6.24158e-21)
(0.813019 -0.49635 -3.37157e-21)
(0.771995 -0.488222 -1.57347e-21)
(0.722115 -0.482113 -1.08026e-22)
(0.670817 -0.452611 2.9357e-21)
(0.635567 -0.369688 -3.00733e-23)
(0.624402 -0.226422 -1.51939e-21)
(0.641975 -0.0502241 -5.84226e-21)
(0.676788 0.129629 2.82332e-23)
(0.722569 0.271957 1.5639e-21)
(0.764631 0.382745 4.28293e-21)
(0.804936 0.433588 -2.14502e-21)
(0.831129 0.474377 -2.71871e-22)
(0.850767 0.483625 6.52054e-22)
(0.841339 0.534678 -4.06259e-21)
(0.833067 0.549257 -1.96025e-21)
(0.794698 0.552108 6.35749e-21)
(0.781336 0.453145 9.43379e-22)
(0.746266 0.287318 8.91768e-23)
(0.738135 0.0881935 -2.07743e-21)
(0.731451 -0.167337 1.64125e-21)
(-0.0717639 0.312483 -3.94095e-20)
(-0.0198546 0.398239 3.83177e-20)
(0.0330965 0.473066 2.45515e-22)
(0.083045 0.535394 -1.06678e-20)
(0.129478 0.585266 1.72127e-20)
(0.173511 0.62163 -2.20657e-20)
(0.219374 0.641005 1.83058e-20)
(0.273397 0.636474 -6.30531e-21)
(0.341515 0.599527 1.9854e-20)
(0.425499 0.52479 8.16524e-21)
(0.520598 0.41432 2.07809e-20)
(0.617582 0.276202 -1.93747e-20)
(0.708709 0.118733 -8.69102e-21)
(0.791105 -0.0505 -2.18787e-20)
(0.862744 -0.218578 2.38187e-20)
(0.918853 -0.366602 7.22026e-21)
(0.954737 -0.478184 7.75216e-22)
(0.969949 -0.547655 2.8812e-21)
(0.967915 -0.579756 7.12587e-21)
(0.953845 -0.584866 -1.92346e-20)
(0.932644 -0.573224 4.10085e-21)
(0.90696 -0.554386 -4.20108e-22)
(0.878415 -0.532976 -1.50339e-21)
(0.848478 -0.511153 -1.18399e-21)
(0.815983 -0.491884 8.77827e-22)
(0.774841 -0.482582 1.5886e-22)
(0.724707 -0.476127 4.15804e-22)
(0.672525 -0.448218 -2.54966e-21)
(0.635788 -0.368606 7.65115e-21)
(0.623005 -0.229007 -1.79443e-21)
(0.639355 -0.055518 6.40565e-21)
(0.673361 0.123232 -2.16759e-21)
(0.719032 0.265769 -3.24181e-22)
(0.761485 0.377578 -2.29454e-21)
(0.802788 0.429666 1.2026e-21)
(0.829958 0.47187 -2.07689e-21)
(0.850764 0.48281 -1.62258e-21)
(0.842295 0.535308 2.2051e-21)
(0.835359 0.55124 -9.19388e-23)
(0.797927 0.554615 -2.34999e-21)
(0.785592 0.455589 -2.89536e-21)
(0.750924 0.289591 7.89351e-21)
(0.743387 0.0890565 3.26644e-21)
(0.735699 -0.166889 -1.11589e-21)
(-0.0795561 0.29443 2.75637e-20)
(-0.0284105 0.38102 -3.49128e-20)
(0.0244695 0.457275 3.46691e-20)
(0.0752051 0.52141 -1.99262e-20)
(0.12342 0.57299 1.17114e-21)
(0.170313 0.610532 -1.6674e-20)
(0.22006 0.630247 2.27146e-20)
(0.278665 0.625231 1.06882e-21)
(0.351429 0.587425 -1.39984e-20)
(0.439365 0.512214 5.10017e-21)
(0.53715 0.4023 -1.51289e-20)
(0.635471 0.265807 6.85957e-21)
(0.72707 0.110414 -3.123e-20)
(0.809609 -0.0568761 2.39299e-20)
(0.881005 -0.223158 2.67279e-20)
(0.936105 -0.369328 -1.26103e-20)
(0.970165 -0.479069 9.46925e-22)
(0.983092 -0.546966 -1.20062e-20)
(0.97874 -0.577921 5.67064e-21)
(0.962565 -0.58233 1.66878e-20)
(0.939605 -0.57026 -6.77591e-21)
(0.912562 -0.551099 8.89514e-21)
(0.882889 -0.529503 -1.88487e-21)
(0.852023 -0.507469 -3.36344e-21)
(0.819041 -0.487439 -4.67859e-22)
(0.77782 -0.476973 -9.87691e-22)
(0.727496 -0.470109 1.91448e-21)
(0.674497 -0.443719 9.67481e-22)
(0.636303 -0.3674 -6.19109e-21)
(0.62188 -0.231515 3.7409e-21)
(0.636965 -0.0608011 1.34414e-21)
(0.670123 0.116791 -5.82417e-22)
(0.715645 0.259491 -4.66558e-21)
(0.758459 0.372291 1.70285e-21)
(0.800733 0.425617 -4.22502e-21)
(0.82886 0.469237 2.05648e-21)
(0.850834 0.48187 -1.09607e-21)
(0.843333 0.535805 7.93689e-22)
(0.837757 0.553103 1.14555e-21)
(0.801272 0.557036 -3.48893e-21)
(0.789983 0.457989 -2.78614e-22)
(0.755731 0.291843 -1.97937e-21)
(0.748823 0.0899513 -5.14566e-21)
(0.740138 -0.166394 7.11013e-22)
(-0.085386 0.276413 1.46991e-20)
(-0.0352157 0.363616 -1.1513e-20)
(0.0174479 0.441143 1.4381e-20)
(0.0688914 0.506926 -3.33733e-22)
(0.118844 0.560069 2.75344e-21)
(0.168557 0.598682 2.94914e-21)
(0.2221 0.618703 1.17297e-20)
(0.285104 0.61328 -7.63291e-21)
(0.362231 0.574808 -7.97589e-21)
(0.453782 0.499389 -1.805e-20)
(0.553924 0.3903 1.39317e-20)
(0.653331 0.255633 1.3124e-21)
(0.745284 0.102423 6.72133e-21)
(0.827952 -0.0628731 -3.43939e-20)
(0.899107 -0.227313 1.55682e-20)
(0.953184 -0.371589 -5.29241e-22)
(0.98541 -0.479492 -1.11727e-20)
(0.996069 -0.545869 -1.06208e-20)
(0.989438 -0.575758 9.01727e-21)
(0.971212 -0.579548 -1.60269e-20)
(0.946536 -0.567126 9.06756e-21)
(0.918176 -0.547697 -1.90973e-20)
(0.88742 -0.525949 9.87242e-22)
(0.855648 -0.503752 3.5325e-21)
(0.82219 -0.483023 -3.25658e-21)
(0.780923 -0.471404 1.49179e-21)
(0.730473 -0.46407 1.39239e-21)
(0.676725 -0.439118 -4.79383e-22)
(0.637107 -0.366065 4.10356e-22)
(0.621026 -0.233936 1.8321e-21)
(0.634801 -0.0660637 -3.11486e-21)
(0.667072 0.110311 -2.49247e-22)
(0.712408 0.253128 2.1548e-21)
(0.755551 0.366887 -1.28153e-22)
(0.798768 0.421443 3.27657e-21)
(0.827833 0.466478 2.95322e-21)
(0.850975 0.480802 3.81817e-21)
(0.844451 0.536168 -2.98571e-21)
(0.840254 0.554846 -7.47071e-22)
(0.804731 0.559371 8.03251e-22)
(0.794508 0.460343 -6.73873e-21)
(0.760683 0.29407 1.40234e-21)
(0.754441 0.0908762 7.4404e-21)
(0.744765 -0.165851 -2.77297e-21)
(-0.089056 0.258478 -2.85094e-20)
(-0.0400967 0.346075 1.08355e-20)
(0.0121894 0.424702 8.49226e-21)
(0.0642368 0.491965 -1.63082e-20)
(0.115855 0.546525 7.86389e-21)
(0.168309 0.586109 -7.32916e-22)
(0.225515 0.606419 -9.80765e-21)
(0.292697 0.60068 -1.66024e-20)
(0.373881 0.56174 1.64159e-20)
(0.468698 0.486371 3.45856e-20)
(0.570871 0.37836 -2.18998e-20)
(0.671127 0.245699 3.35577e-20)
(0.763332 0.0947593 -1.72482e-20)
(0.846122 -0.0685004 -4.05114e-20)
(0.917037 -0.23105 1.11931e-20)
(0.970072 -0.373394 4.58629e-20)
(1.00045 -0.479463 -2.19191e-20)
(1.00886 -0.544375 5.8646e-21)
(1 -0.573279 1.68295e-23)
(0.979778 -0.576529 -4.04485e-22)
(0.953435 -0.563831 1.75904e-20)
(0.923799 -0.544189 6.46258e-21)
(0.892003 -0.522317 -1.02902e-20)
(0.859349 -0.500004 6.46408e-22)
(0.825424 -0.478641 1.23352e-21)
(0.784142 -0.465885 -1.54106e-21)
(0.733629 -0.458019 -2.30289e-21)
(0.679203 -0.434418 2.90962e-21)
(0.638197 -0.364596 -9.9921e-22)
(0.620441 -0.236259 4.53331e-22)
(0.632863 -0.0712961 1.54117e-21)
(0.664204 0.1038 -2.35776e-21)
(0.709317 0.246683 6.80733e-21)
(0.75276 0.361371 -1.03368e-21)
(0.796891 0.417146 -2.80557e-21)
(0.826874 0.463595 -1.74152e-21)
(0.851185 0.479607 5.68747e-22)
(0.845645 0.536394 3.54999e-21)
(0.842849 0.556467 2.28164e-21)
(0.8083 0.561617 3.15786e-21)
(0.799163 0.46265 7.38807e-21)
(0.76578 0.29627 -6.95358e-21)
(0.760239 0.0918293 4.22287e-22)
(0.749581 -0.165261 -1.20484e-21)
(-0.0903653 0.240692 -1.80165e-21)
(-0.0428723 0.328457 1.13422e-20)
(0.0088545 0.407995 -1.71044e-21)
(0.0613729 0.476559 -1.9567e-20)
(0.114548 0.532387 4.30854e-21)
(0.169626 0.57285 2.05767e-20)
(0.230323 0.593443 -2.27449e-20)
(0.301426 0.587492 2.11692e-20)
(0.386337 0.548284 -4.02151e-21)
(0.484066 0.473217 -3.85142e-20)
(0.587947 0.366518 3.22885e-20)