/*--------------------------------*- C++ -*----------------------------------*\
  =========                 |
  \\      /  F ield         | OpenFOAM: The Open Source CFD Toolbox
   \\    /   O peration     | Website:  https://openfoam.org
    \\  /    A nd           | Version:  7
     \\/     M anipulation  |
\*---------------------------------------------------------------------------*/
FoamFile
{
    version     2.0;
    format      ascii;
    class       surfaceScalarField;
    location    "35";
    object      phi;
}
// * * * * * * * * * * * * * * * * * * * * * * * * * * * * * * * * * * * * * //

dimensions      [0 3 -1 0 0 0 0];

internalField   nonuniform List<scalar> 
16608
(
1.85688e-05
4.69386e-07
1.80994e-05
4.05806e-05
5.70662e-07
1.75287e-05
3.16406e-06
3.79872e-05
4.46721e-05
6.82468e-07
1.68463e-05
3.65308e-06
3.50166e-05
3.84175e-05
8.0526e-07
1.6041e-05
4.18436e-06
3.16375e-05
1.1186e-05
3.14158e-05
1.43826e-05
9.39416e-07
1.51016e-05
4.75896e-06
2.7818e-05
1.25594e-05
2.36154e-05
2.55066e-05
1.43535e-06
-3.99312e-05
1.08523e-06
1.40164e-05
5.37761e-06
2.35256e-05
1.40283e-05
1.49647e-05
2.82554e-05
-1.27917e-05
4.93476e-05
-6.10234e-05
-0.000131133
1.24292e-06
1.27734e-05
6.04063e-06
1.87279e-05
1.55927e-05
5.41272e-06
3.11656e-05
-2.83647e-05
5.40906e-05
-8.39483e-05
8.5736e-05
-0.000162779
-0.000266299
1.4126e-06
1.13608e-05
6.74799e-06
1.33925e-05
1.72511e-05
-5.09043e-06
3.42328e-05
-4.53464e-05
5.90586e-05
-0.000108774
9.311e-05
-0.00019683
0.000137711
-0.0003109
-0.000452068
1.59431e-06
9.76652e-06
7.49923e-06
7.48757e-06
1.90015e-05
-1.65927e-05
3.74504e-05
-6.37953e-05
6.4237e-05
-0.000135561
0.000100741
-0.000233333
0.000148238
-0.000358397
0.000207767
-0.000511598
-0.000693013
1.788e-06
7.97852e-06
8.2935e-06
9.82076e-07
2.08405e-05
-2.91397e-05
4.081e-05
-8.37647e-05
6.96073e-05
-0.000164358
0.000108593
-0.000272319
0.000158972
-0.000408776
0.000221641
-0.000574266
0.000296997
-0.000768369
-0.000989346
1.99352e-06
5.985e-06
9.1295e-06
-6.15391e-06
2.27638e-05
-4.2774e-05
4.43008e-05
-0.000105302
7.51477e-05
-0.000195205
0.000116627
-0.000313799
0.000169847
-0.000461996
0.000235528
-0.000639947
0.000313803
-0.000846645
0.000404036
-0.00107958
-0.00133453
2.21061e-06
3.77439e-06
1.00055e-05
-1.39488e-05
2.47659e-05
-5.75344e-05
4.79101e-05
-0.000128446
8.08327e-05
-0.000228128
0.000124798
-0.000357764
0.000180789
-0.000517987
0.000249318
-0.000708476
0.000330224
-0.000927551
0.000422503
-0.00117186
0.000524228
-0.00143625
0.000632615
-0.001714
-0.00199732
2.43893e-06
1.33546e-06
1.09193e-05
-2.24292e-05
2.68403e-05
-7.34553e-05
5.16232e-05
-0.000153229
8.66337e-05
-0.000263138
0.000133055
-0.000404185
0.000191717
-0.000576649
0.000262894
-0.000779652
0.000346103
-0.00101076
0.000439961
-0.00126572
0.000542158
-0.00153845
0.000649598
-0.00182144
0.000758715
-0.00210644
-0.00238548
2.67801e-06
-1.34255e-06
1.18683e-05
-3.16196e-05
2.89794e-05
-9.05663e-05
5.54232e-05
-0.000179673
9.25188e-05
-0.000300234
0.000141344
-0.000453011
0.000202548
-0.000637853
0.000276137
-0.000853241
0.000361285
-0.00109591
0.000456227
-0.00136066
0.000558298
-0.00164052
0.000664149
-0.00192729
0.00077013
-0.00221242
0.000872757
-0.0024881
-0.00274819
2.92727e-06
-4.26982e-06
1.28494e-05
-4.15417e-05
3.11743e-05
-0.000108891
5.92912e-05
-0.00020779
9.8453e-05
-0.000339395
0.000149608
-0.000504166
0.000213195
-0.00070144
0.000288926
-0.000928972
0.000375619
-0.0011826
0.000471136
-0.00145618
0.000572492
-0.00174188
0.000676152
-0.00203095
0.000778464
-0.00231473
0.000876144
-0.00258578
0.00096668
-0.00283873
0.00104857
-0.00307077
-0.00328166
3.18602e-06
-7.45584e-06
1.38589e-05
-5.22146e-05
3.34154e-05
-0.000128448
6.32065e-05
-0.000237581
0.000104399
-0.000380588
0.000157786
-0.000557553
0.000223568
-0.000767222
0.000301142
-0.00100655
0.000388964
-0.00127042
0.000484538
-0.00155175
0.000584611
-0.00184195
0.000685531
-0.00213187
0.000783726
-0.00241293
0.000876178
-0.00267824
0.000960771
-0.00292332
0.00103645
-0.00314645
0.0011032
-0.0033484
-0.00353195
3.45344e-06
-1.09093e-05
1.48928e-05
-6.36539e-05
3.56916e-05
-0.000149247
6.71466e-05
-0.000269036
0.000110316
-0.000423757
0.000165813
-0.00061305
0.000233576
-0.000834985
0.00031267
-0.00108564
0.000401187
-0.00135894
0.000496307
-0.00164687
0.000594559
-0.0019402
0.000692252
-0.00222956
0.000785968
-0.00250665
0.000873007
-0.00276528
0.000951672
-0.00300199
0.00102134
-0.00321612
0.00108236
-0.00340942
0.00113578
-0.00358538
0.0011831
-0.00374814
-0.00390291
3.72858e-06
-1.46379e-05
1.59464e-05
-7.58717e-05
3.7991e-05
-0.000171291
7.10873e-05
-0.000302132
0.000116164
-0.000468834
0.000173627
-0.000670513
0.000243131
-0.000904489
0.0003234
-0.00116591
0.000412171
-0.00144771
0.000506337
-0.00174103
0.000602274
-0.00203614
0.000696322
-0.00232361
0.000785282
-0.00259561
0.000866813
-0.00284681
0.000939641
-0.00307481
0.00100355
-0.00328003
0.0010592
-0.00346508
0.00110785
-0.00363402
0.00115105
-0.00379134
-0.00394212
0.00119026
4.01037e-06
-1.86482e-05
1.70148e-05
-8.88762e-05
4.03009e-05
-0.000194577
7.50034e-05
-0.000336834
0.000121898
-0.000515729
0.000181162
-0.000729778
0.000252148
-0.000975474
0.000333229
-0.00124699
0.000421814
-0.0015363
0.00051455
-0.00183377
0.000607725
-0.00212931
0.00069778
-0.00241366
0.00078179
-0.00267962
0.000857797
-0.00292281
0.000924943
-0.00314196
0.000983376
-0.00333847
0.00103403
-0.00351573
0.00107829
-0.00367828
0.00111774
-0.00383079
-0.00397817
0.00115379
4.2976e-06
-2.29458e-05
1.80926e-05
-0.000102671
4.26076e-05
-0.000219092
7.88682e-05
-0.000373095
0.000127475
-0.000564336
0.000188355
-0.000790658
0.000260542
-0.00104766
0.000342067
-0.00132852
0.000430032
-0.00162426
0.000520891
-0.00192463
0.000610912
-0.00221933
0.000696699
-0.00249945
0.000775641
-0.00275856
0.000846177
-0.00299335
0.000907842
-0.00320362
0.000961109
-0.00339173
0.00100712
-0.00356174
0.00104736
-0.00371852
0.00108339
-0.00386681
-0.00401132
0.00111654
4.58894e-06
-2.75348e-05
1.91737e-05
-0.000117256
4.48965e-05
-0.000244815
8.26545e-05
-0.000410853
0.000132852
-0.000614533
0.000195144
-0.000852949
0.000268238
-0.00112076
0.000349834
-0.00141011
0.00043676
-0.00171119
0.000525334
-0.0020132
0.000611865
-0.00230587
0.000693177
-0.00258076
0.000767002
-0.00283238
0.000832177
-0.00305852
0.000888598
-0.00326005
0.000937018
-0.00344015
0.000978738
-0.00360346
0.00101529
-0.00375507
0.00104818
-0.00389971
-0.0040418
0.00107866
4.88295e-06
-3.24177e-05
2.0252e-05
-0.000132625
4.7153e-05
-0.000271716
8.63346e-05
-0.000450035
0.000137983
-0.000666182
0.000201468
-0.000916434
0.000275167
-0.00119445
0.000356461
-0.00149141
0.00044195
-0.00179668
0.000527872
-0.00209913
0.000610638
-0.00238863
0.000687333
-0.00265746
0.000756056
-0.0029011
0.000816022
-0.00311849
0.000867462
-0.00331149
0.000911355
-0.00348405
0.000949115
-0.00364122
0.00098228
-0.00378824
0.00101229
-0.00392972
-0.00406979
0.00104028
5.17807e-06
-3.75958e-05
2.13211e-05
-0.000148768
4.93614e-05
-0.000299756
8.98805e-05
-0.000490554
0.000142828
-0.000719129
0.000207273
-0.000980879
0.000281266
-0.00126845
0.000361896
-0.00157204
0.000445577
-0.00188036
0.000528524
-0.00218207
0.000607305
-0.00246741
0.000679304
-0.00272946
0.000742988
-0.00296479
0.000797937
-0.00317344
0.000844668
-0.00335822
0.000884346
-0.00352372
0.000918453
-0.00367532
0.000948503
-0.00381829
0.00097585
-0.00395707
-0.00409545
0.00100151
5.47267e-06
-4.30685e-05
2.2374e-05
-0.000165669
5.15064e-05
-0.000328889
9.32647e-05
-0.000532312
0.000147344
-0.000773209
0.000212507
-0.00104604
0.000286483
-0.00134242
0.000366099
-0.00165165
0.000447631
-0.00196189
0.000527329
-0.00226177
0.000601962
-0.00254205
0.000669239
-0.00279673
0.000727991
-0.00302354
0.000778135
-0.00322358
0.000820437
-0.00340052
0.000856197
-0.00355948
0.000886932
-0.00370606
0.000914104
-0.00384546
0.000938967
-0.00398193
-0.00411891
0.000962427
5.76501e-06
-4.88335e-05
2.34038e-05
-0.000183308
5.35722e-05
-0.000359057
9.64603e-05
-0.0005752
0.000151495
-0.000828244
0.000217125
-0.00111167
0.000290776
-0.00141608
0.000369045
-0.00172992
0.000448122
-0.00204096
0.000524342
-0.00233799
0.000594717
-0.00261242
0.000657292
-0.00285931
0.000711254
-0.0030775
0.000756822
-0.00326915
0.000794969
-0.00343867
0.000827092
-0.00359161
0.000854707
-0.00373367
0.000879208
-0.00386996
0.000901741
-0.00400447
-0.00414027
0.000923103
6.05328e-06
-5.48868e-05
2.44036e-05
-0.000201658
5.55435e-05
-0.000390197
9.94415e-05
-0.000619098
0.000155244
-0.000884046
0.000221088
-0.00117751
0.000294112
-0.0014891
0.000370724
-0.00180653
0.000447074
-0.00211731
0.000519635
-0.00241055
0.000585689
-0.00267848
0.000643622
-0.00291724
0.000692961
-0.00312684
0.00073419
-0.00331038
0.000768448
-0.00347292
0.000797194
-0.00362035
0.000821915
-0.00375839
0.000843921
-0.00389197
0.000864252
-0.0040248
-0.00415962
0.000883598
6.33566e-06
-6.12224e-05
2.53663e-05
-0.000220689
5.7405e-05
-0.000422236
0.000102184
-0.000663877
0.00015856
-0.000940422
0.000224363
-0.00124332
0.000296469
-0.00156121
0.000371136
-0.0018812
0.000444529
-0.00219071
0.000513292
-0.00247931
0.000575003
-0.00274019
0.000628389
-0.00297063
0.000673289
-0.00317174
0.000710417
-0.00334751
0.000741041
-0.00350355
0.000766646
-0.00364596
0.000788671
-0.00378042
0.000808334
-0.00391163
0.000826567
-0.00404303
-0.00417701
0.000843962
6.61028e-06
-6.78327e-05
2.62848e-05
-0.000240364
5.91424e-05
-0.000455093
0.000104665
-0.000709399
0.000161414
-0.000997172
0.000226923
-0.00130883
0.000297834
-0.00163212
0.000370298
-0.00195366
0.000440536
-0.00226094
0.000505405
-0.00254418
0.00056279
-0.00279757
0.000611749
-0.00301959
0.000652405
-0.0032124
0.000685668
-0.00338077
0.000712895
-0.00353078
0.000735572
-0.00366863
0.000755074
-0.00379992
0.000772522
-0.00392908
0.000788742
-0.00405925
-0.00419251
0.000804237
6.87525e-06
-7.47079e-05
2.71525e-05
-0.000260641
6.07417e-05
-0.000488683
0.000106864
-0.000755521
0.000163784
-0.00105409
0.000228751
-0.00137379
0.000298206
-0.00170157
0.000368234
-0.00202369
0.000435159
-0.00232787
0.000496075
-0.0026051
0.000549183
-0.00285068
0.000593854
-0.00306426
0.000630467
-0.00324901
0.00066009
-0.0034104
0.000684141
-0.00355483
0.000704082
-0.00368857
0.00072121
-0.00381705
0.000736548
-0.00394442
0.000750825
-0.00407353
-0.00420614
0.00076446
7.12872e-06
-8.18367e-05
2.79627e-05
-0.000281475
6.21902e-05
-0.00052291
0.000108762
-0.000802093
0.000165649
-0.00111098
0.000229835
-0.00143798
0.00029759
-0.00176933
0.000364981
-0.00209108
0.000428469
-0.00239136
0.000485407
-0.00266204
0.000534311
-0.00289958
0.000574848
-0.0031048
0.00060762
-0.00328178
0.00063382
-0.0034366
0.000654897
-0.0035759
0.000672269
-0.00370595
0.000687151
-0.00383193
0.000700468
-0.00395773
0.000712856
-0.00408592
-0.00421794
0.000724661
7.36885e-06
-8.92055e-05
2.87092e-05
-0.000302815
6.34761e-05
-0.000557677
0.000110344
-0.000848961
0.000166995
-0.00116763
0.000230169
-0.00150115
0.000296004
-0.00183516
0.000360584
-0.00215566
0.000420542
-0.00245131
0.000473507
-0.002715
0.000518303
-0.00294438
0.000554869
-0.00314136
0.000583998
-0.00331091
0.000606979
-0.00345958
0.000625263
-0.00359419
0.000640214
-0.0037209
0.000652959
-0.00384467
0.000664327
-0.0039691
0.00067487
-0.00409646
-0.00422794
0.000684868
7.59389e-06
-9.67994e-05
2.93861e-05
-0.000324607
6.45887e-05
-0.00059288
0.000111597
-0.000895969
0.000167812
-0.00122385
0.000229756
-0.0015631
0.000293469
-0.00189887
0.000355094
-0.00221729
0.00041146
-0.00250768
0.000460483
-0.00276403
0.000501282
-0.00298518
0.000534045
-0.00317413
0.000559724
-0.00333659
0.000579673
-0.00347953
0.000595329
-0.00360984
0.000607989
-0.00373356
0.000618687
-0.00385537
0.000628165
-0.00397858
0.000636897
-0.00410519
-0.00423615
0.000645105
7.80214e-06
-0.000104602
2.9988e-05
-0.000346793
6.5519e-05
-0.00062841
0.00011251
-0.000942959
0.000168095
-0.00127943
0.000228604
-0.00162361
0.000290016
-0.00196029
0.000348568
-0.00227584
0.000401309
-0.00256042
0.000446442
-0.00280916
0.000483368
-0.0030221
0.000512496
-0.00320325
0.000534909
-0.003359
0.000552
-0.00349662
0.000565174
-0.00362302
0.000575652
-0.00374404
0.000584381
-0.0038641
0.000592017
-0.00398621
0.000598964
-0.00411214
-0.00424258
0.000605395
7.99285e-06
-0.000112594
3.05119e-05
-0.000369312
6.62617e-05
-0.00066416
0.000113079
-0.000989777
0.000167847
-0.0013342
0.000226732
-0.00168249
0.000285687
-0.00201924
0.000341075
-0.00233123
0.000390182
-0.00260953
0.000431494
-0.00285047
0.000464678
-0.00305529
0.000490339
-0.00322891
0.00050966
-0.00337832
0.000524051
-0.00351101
0.000534871
-0.00363384
0.000543264
-0.00375243
0.000550086
-0.00387092
0.000555917
-0.00399205
0.0005611
-0.00411732
-0.00424725
0.000565764
8.16296e-06
-0.000120757
3.095e-05
-0.000392099
6.68053e-05
-0.000700016
0.000113293
-0.00103626
0.000167064
-0.00138797
0.000224148
-0.00173958
0.000280512
-0.0020756
0.000332667
-0.00238338
0.00037815
-0.00265501
0.000415725
-0.00288805
0.000445305
-0.00308487
0.00046766
-0.00325127
0.000484051
-0.00339471
0.000495886
-0.00352284
0.000504467
-0.00364242
0.000510854
-0.00375881
0.000515822
-0.00387589
0.000519878
-0.0039961
0.000523313
-0.00412076
-0.00425015
0.000526218
8.31192e-06
-0.000129069
3.13004e-05
-0.000415088
6.71477e-05
-0.000735863
0.000113154
-0.00108227
0.000165755
-0.00144057
0.000220882
-0.0017947
0.00027454
-0.00212926
0.000323417
-0.00243226
0.000365305
-0.0026969
0.00039924
-0.00292198
0.000425353
-0.00311098
0.000444559
-0.00327047
0.000458171
-0.00340833
0.000467578
-0.00353225
0.000474018
-0.00364886
0.000478469
-0.00376327
0.000481626
-0.00387905
0.000483931
-0.00399841
0.000485629
-0.00412245
-0.0042513
0.000486781
8.43851e-06
-0.000137508
3.15599e-05
-0.000438209
6.72855e-05
-0.000771588
0.000112661
-0.00112765
0.000163933
-0.00149184
0.00021696
-0.00184773
0.00026782
-0.00218012
0.000313393
-0.00247783
0.000351732
-0.00273524
0.000382128
-0.00295238
0.000404914
-0.00313377
0.000421119
-0.00328668
0.000432091
-0.0034193
0.000439186
-0.00353934
0.00044357
-0.00365324
0.000446142
-0.00376584
0.000447522
-0.00388043
0.000448096
-0.00399898
0.000448066
-0.00412242
-0.00425071
0.000447469
8.54166e-06
-0.000146049
3.17262e-05
-0.000461394
6.72168e-05
-0.000807079
0.000111819
-0.00117225
0.000161612
-0.00154164
0.000212414
-0.00189853
0.000260401
-0.00222811
0.000302664
-0.00252009
0.000337511
-0.00277009
0.000364475
-0.00297934
0.000384069
-0.00315336
0.000397415
-0.00330003
0.000405874
-0.00342776
0.000410758
-0.00354423
0.000413162
-0.00365565
0.000413903
-0.00376658
0.000413535
-0.00388006
0.000412392
-0.00399784
0.000410641
-0.00412067
-0.00424836
0.000408299
8.62045e-06
-0.00015467
3.17974e-05
-0.000484571
6.69414e-05
-0.000842223
0.000110632
-0.00121594
0.000158808
-0.00158981
0.000207276
-0.001947
0.000252335
-0.00227317
0.000291294
-0.00255905
0.000322717
-0.00280151
0.000346362
-0.00300298
0.000362897
-0.0031699
0.000373515
-0.00331064
0.000379576
-0.00343382
0.00038234
-0.00354699
0.000382827
-0.00365613
0.000381778
-0.00376553
0.000379684
-0.00387797
0.000376835
-0.00399499
0.000373369
-0.00411721
-0.00424428
0.000369285
8.67416e-06
-0.000163344
3.17724e-05
-0.000507669
6.64604e-05
-0.000876911
0.000109109
-0.00125859
0.000155542
-0.00163625
0.000201583
-0.00199304
0.000243674
-0.00231526
0.000279352
-0.00259473
0.000307426
-0.00282958
0.000327864
-0.00302342
0.000341466
-0.0031835
0.000349479
-0.00331866
0.000353247
-0.00343759
0.000353971
-0.00354772
0.000352595
-0.00365476
0.00034979
-0.00376272
0.000345988
-0.00387417
0.000341441
-0.00399044
0.000336264
-0.00411203
-0.00423846
0.000330442
8.7022e-06
-0.000172046
3.16509e-05
-0.000530618
6.57761e-05
-0.000911036
0.000107259
-0.00130007
0.000151835
-0.00168082
0.00019537
-0.00203658
0.000234469
-0.00235436
0.000266898
-0.00262716
0.000291706
-0.00285439
0.000309048
-0.00304076
0.00031984
-0.00319429
0.000325362
-0.00332418
0.000326931
-0.00343916
0.000325685
-0.00354647
0.000322493
-0.00365157
0.000317958
-0.00375819
0.000312464
-0.00386867
0.000306226
-0.00398421
0.00029934
-0.00410514
-0.0042309
0.000291784
8.70417e-06
-0.00018075
3.14329e-05
-0.000553346
6.48922e-05
-0.000944496
0.000105094
-0.00134027
0.000147711
-0.00172344
0.000188676
-0.00207754
0.000224771
-0.00239045
0.000253995
-0.00265638
0.000275623
-0.00287602
0.00028998
-0.00305512
0.000298076
-0.00320239
0.000301212
-0.00332732
0.000300666
-0.00343861
0.000297511
-0.00354331
0.000292543
-0.0036466
0.000286303
-0.00375195
0.000279127
-0.0038615
0.000271204
-0.00397628
0.000262612
-0.00409655
-0.00422161
0.000253324
8.67982e-06
-0.00018943
3.11192e-05
-0.000575786
6.38134e-05
-0.00097719
0.000102626
-0.00137908
0.000143194
-0.00176401
0.000181539
-0.00211589
0.000214631
-0.00242355
0.000240701
-0.00268246
0.000259237
-0.00289456
0.000270717
-0.0030666
0.000276226
-0.0032079
0.000277071
-0.00332816
0.000274486
-0.00343602
0.000269476
-0.0035383
0.000262767
-0.00363989
0.000254841
-0.00374402
0.000245993
-0.00385265
0.000236387
-0.00396668
0.00022609
-0.00408625
-0.0042106
0.000215075
8.62908e-06
-0.000198059
3.07112e-05
-0.000597868
6.25456e-05
-0.00100902
9.98704e-05
-0.00141641
0.00013831
-0.00180245
0.000173997
-0.00215157
0.000204098
-0.00245365
0.000227071
-0.00270543
0.000242604
-0.00291009
0.000251311
-0.00307531
0.000254337
-0.00321092
0.000252978
-0.0033268
0.000248422
-0.00343147
0.000241604
-0.00353148
0.000233183
-0.00363147
0.000223587
-0.00373443
0.000213074
-0.00384213
0.000201789
-0.00395539
0.000189789
-0.00407425
-0.00419786
0.000177049
8.55201e-06
-0.000206611
3.02105e-05
-0.000619526
6.10955e-05
-0.00103991
9.68416e-05
-0.00145216
0.000133086
-0.00183869
0.000166087
-0.00218458
0.000193218
-0.00248078
0.000213158
-0.00272537
0.000225778
-0.00292271
0.000231812
-0.00308134
0.000232448
-0.00321156
0.000228967
-0.00332332
0.0002225
-0.003425
0.000213915
-0.0035229
0.000203808
-0.00362136
0.000192556
-0.00372318
0.000180385
-0.00382996
0.000167421
-0.00394243
0.000153718
-0.00406055
-0.0041834
0.000139255
8.44886e-06
-0.00021506
2.96197e-05
-0.000640697
5.94704e-05
-0.00106976
9.35556e-05
-0.00148624
0.000127547
-0.00187268
0.000157848
-0.00221488
0.000182037
-0.00250497
0.000199008
-0.00274234
0.000208806
-0.00293251
0.000212263
-0.0030848
0.000210599
-0.00320989
0.000205068
-0.00331779
0.000196744
-0.00341668
0.000186429
-0.00351258
0.000174658
-0.00360959
0.000161762
-0.00371028
0.000147937
-0.00381614
0.000133295
-0.00392779
0.000117889
-0.00404514
-0.00416721
0.000101701
8.31997e-06
-0.00022338
2.89413e-05
-0.000661318
5.76786e-05
-0.0010985
9.00291e-05
-0.00151859
0.000121721
-0.00190437
0.000149314
-0.00224247
0.000170597
-0.00252625
0.00018467
-0.00275641
0.000191732
-0.00293957
0.000192704
-0.00308577
0.000188822
-0.00320601
0.000181307
-0.00331028
0.000171175
-0.00340655
0.000159163
-0.00350057
0.000145748
-0.00359618
0.000131219
-0.00369575
0.000115745
-0.00380066
9.9426e-05
-0.00391147
8.23141e-05
-0.00402803
-0.00414928
6.43833e-05
8.16584e-06
-0.000231546
2.81784e-05
-0.000681331
5.57287e-05
-0.00112605
8.62789e-05
-0.00154914
0.000115634
-0.00193373
0.000140521
-0.00226736
0.000158939
-0.00254467
0.000170184
-0.00276766
0.000174597
-0.00294398
0.000173171
-0.00308435
0.000167146
-0.00319999
0.000157709
-0.00330084
0.000145812
-0.00339465
0.000132131
-0.00348689
0.00011709
-0.00358113
0.000100939
-0.0036796
8.38249e-05
-0.00378355
6.58366e-05
-0.00389348
4.70074e-05
-0.0040092
-0.00412952
2.7247e-05
7.98708e-06
-0.000239533
2.73346e-05
-0.000700679
5.36297e-05
-0.00115234
8.23223e-05
-0.00157783
0.000109312
-0.00196072
0.000131503
-0.00228955
0.000147102
-0.00256027
0.00015559
-0.00277615
0.000157438
-0.00294583
0.000153694
-0.0030806
0.000145599
-0.00319189
0.000134293
-0.00328953
0.000120672
-0.00338103
0.000105347
-0.00347157
8.86972e-05
-0.00356448
7.09352e-05
-0.00366184
5.2188e-05
-0.0037648
3.25507e-05
-0.00387384
1.20397e-05
-0.00398869
-0.00410777
-9.70971e-06
7.78442e-06
-0.000247317
2.64136e-05
-0.000719308
5.13912e-05
-0.00117732
7.81764e-05
-0.00160462
0.00010278
-0.00198532
0.000122291
-0.00230906
0.000135121
-0.0025731
0.000140925
-0.00278195
0.000140288
-0.00294519
0.000134304
-0.00307462
0.000124203
-0.00318179
0.000111079
-0.00327641
9.5768e-05
-0.00336572
7.88252e-05
-0.00345462
6.05811e-05
-0.00354624
4.1218e-05
-0.00364248
2.08425e-05
-0.00374443
-4.75863e-07
-0.00385252
-2.26408e-05
-0.00396653
-0.00408472
-4.56859e-05
7.55865e-06
-0.000254876
2.54192e-05
-0.000737168
4.90227e-05
-0.00120092
7.38582e-05
-0.00162946
9.60637e-05
-0.00200753
0.000112917
-0.00232591
0.000123029
-0.00258321
0.000126221
-0.00278514
0.000123177
-0.00294215
0.000115026
-0.00306647
0.000102979
-0.00316974
8.80836e-05
-0.00326151
7.1115e-05
-0.00334875
5.25754e-05
-0.00343608
3.27522e-05
-0.00352642
1.17979e-05
-0.00362152
-1.01949e-05
-0.00372243
-3.31381e-05
-0.00382958
-5.70025e-05
-0.00394266
-0.00406003
-8.16947e-05
7.3107e-06
-0.000262187
2.43556e-05
-0.000754213
4.6534e-05
-0.0012231
6.93848e-05
-0.00165231
8.9186e-05
-0.00202733
0.000103409
-0.00234013
0.000110859
-0.00259066
0.000111509
-0.00278579
0.000106132
-0.00293677
9.58827e-05
-0.00305622
8.19468e-05
-0.00315581
6.53209e-05
-0.00324489
4.67245e-05
-0.00333015
2.66086e-05
-0.00341597
5.22012e-06
-0.00350503
-1.73149e-05
-0.00359899
-4.09195e-05
-0.00369883
-6.55143e-05
-0.00380498
-9.10355e-05
-0.00391714
-0.00403364
-0.000117422
7.04153e-06
-0.000269228
2.3227e-05
-0.000770399
4.39349e-05
-0.00124381
6.47725e-05
-0.00167314
8.21701e-05
-0.00204473
9.37942e-05
-0.00235176
9.86386e-05
-0.0025955
9.68173e-05
-0.00278397
8.91795e-05
-0.00292913
7.6895e-05
-0.00304393
6.11215e-05
-0.00314003
4.28041e-05
-0.00322657
2.26072e-05
-0.00330995
9.32861e-07
-0.00339429
-2.2005e-05
-0.00348209
-4.61106e-05
-0.00357488
-7.13209e-05
-0.00367362
-9.75602e-05
-0.00377875
-0.000124745
-0.00388996
-0.00400557
-0.000152823
6.75216e-06
-0.000275981
2.2038e-05
-0.000785684
4.12351e-05
-0.00126301
6.00375e-05
-0.00169195
7.50379e-05
-0.00205973
8.40986e-05
-0.00236082
8.63948e-05
-0.0025978
8.21704e-05
-0.00277975
7.23402e-05
-0.0029193
5.80813e-05
-0.00302968
4.05182e-05
-0.00312247
2.05448e-05
-0.0032066
-1.22792e-06
-0.00328818
-2.44388e-05
-0.00337108
-4.89144e-05
-0.00345762
-7.45793e-05
-0.00354922
-0.000101387
-0.00364681
-0.000129265
-0.00375087
-0.000158115
-0.00386111
-0.0039758
-0.000187879
6.44369e-06
-0.000282424
2.07928e-05
-0.000800034
3.84444e-05
-0.00128066
5.51955e-05
-0.0017087
6.781e-05
-0.00207234
7.43462e-05
-0.00236736
7.41523e-05
-0.00259761
6.75918e-05
-0.00277319
5.56345e-05
-0.00290734
3.94573e-05
-0.0030135
2.01504e-05
-0.00310316
-1.44745e-06
-0.003185
-2.47698e-05
-0.00326486
-4.95022e-05
-0.00334635
-7.54996e-05
-0.00343162
-0.000102711
-0.003522
-0.000131108
-0.00361841
-0.000160618
-0.00372136
-0.000191134
-0.00383059
-0.00394436
-0.000222573
6.11723e-06
-0.000288541
1.9496e-05
-0.000813412
3.55722e-05
-0.00129673
5.02615e-05
-0.00172339
6.05064e-05
-0.00208259
6.45592e-05
-0.00237141
6.19339e-05
-0.00259498
5.31024e-05
-0.00276435
3.90803e-05
-0.00289332
2.10372e-05
-0.00299546
1.91666e-08
-0.00308215
-2.31627e-05
-0.00316182
-4.80128e-05
-0.00324001
-7.42483e-05
-0.00332011
-0.000101752
-0.00340411
-0.000130498
-0.00349326
-0.00016047
-0.00358844
-0.000191607
-0.00369022
-0.000223784
-0.00379842
-0.00391125
-0.000256894
5.77394e-06
-0.000294315
1.8152e-05
-0.00082579
3.26279e-05
-0.00131121
4.525e-05
-0.00173601
5.31455e-05
-0.00209048
5.47585e-05
-0.00237302
4.97601e-05
-0.00258998
3.87211e-05
-0.00275332
2.26936e-05
-0.00287729
2.83634e-06
-0.0029756
-1.9838e-05
-0.00305947
-4.45914e-05
-0.00313706
-7.09492e-05
-0.00321365
-9.86701e-05
-0.00329239
-0.000127665
-0.00337512
-0.000157928
-0.003463
-0.000189465
-0.00355691
-0.000222218
-0.00365747
-0.000256054
-0.00376458
-0.00387648
-0.000290828
5.415e-06
-0.00029973
1.67653e-05
-0.000837141
2.96205e-05
-0.00132407
4.01749e-05
-0.00174656
4.57448e-05
-0.00209605
4.49633e-05
-0.00237224
3.76502e-05
-0.00258267
2.44649e-05
-0.00274013
6.48866e-06
-0.00285932
-1.51362e-05
-0.00295397
-3.94399e-05
-0.00303517
-6.57283e-05
-0.00311077
-9.35724e-05
-0.00318581
-0.000122762
-0.0032632
-0.000153231
-0.00334465
-0.000184995
-0.00343123
-0.000218079
-0.00352382
-0.000252438
-0.00362311
-0.000287927
-0.00372909
-0.00384004
-0.000324361
5.0416e-06
-0.000304772
1.53403e-05
-0.000847439
2.65588e-05
-0.00133528
3.50493e-05
-0.00175505
3.8321e-05
-0.00209932
3.51916e-05
-0.00236911
2.56213e-05
-0.0025731
1.03493e-05
-0.00272486
-9.52182e-06
-0.00283945
-3.287e-05
-0.00293063
-5.87681e-05
-0.00300927
-8.65665e-05
-0.00308298
-0.000115877
-0.0031565
-0.000146517
-0.00323256
-0.000178443
-0.00331272
-0.00021169
-0.00339798
-0.000246304
-0.00348921
-0.000282254
-0.00358716
-0.00031939
-0.00369195
-0.00380196
-0.000357478
4.65495e-06
-0.000309427
1.38812e-05
-0.000856666
2.34514e-05
-0.00134485
2.98858e-05
-0.00176149
3.08893e-05
-0.00210033
2.54597e-05
-0.00236368
1.36891e-05
-0.00256133
-3.61168e-06
-0.00270756
-2.53265e-05
-0.00281773
-5.03561e-05
-0.0029056
-7.7816e-05
-0.00298181
-0.0001071
-0.00305369
-0.000137857
-0.00312574
-0.000169931
-0.00320049
-0.000203296
-0.00327936
-0.000238006
-0.00336327
-0.000274128
-0.00345309
-0.000311653
-0.00354963
-0.000350428
-0.00365318
-0.00376222
-0.000390165
4.25629e-06
-0.000313683
1.23924e-05
-0.000864802
2.03064e-05
-0.00135277
2.46963e-05
-0.00176588
2.34641e-05
-0.0020991
1.57831e-05
-0.002356
1.87071e-06
-0.00254741
-1.74063e-05
-0.00268828
-4.09153e-05
-0.00279422
-6.75864e-05
-0.00287892
-9.65774e-05
-0.00295282
-0.000127324
-0.00302295
-0.000159509
-0.00309356
-0.000192999
-0.003167
-0.000227786
-0.00324457
-0.000263937
-0.00332712
-0.000301543
-0.00341548
-0.00034062
-0.00351055
-0.000381023
-0.00361278
-0.00372084
-0.000422405
3.84687e-06
-0.00031753
1.0878e-05
-0.000871833
1.71318e-05
-0.00135902
1.94921e-05
-0.00176824
1.6059e-05
-0.00209566
6.17569e-06
-0.00234612
-9.82823e-06
-0.00253141
-3.1023e-05
-0.00266709
-5.62791e-05
-0.00276897
-8.45538e-05
-0.00285065
-0.000115047
-0.00292233
-0.000147234
-0.00299076
-0.000180829
-0.00305996
-0.000215719
-0.00313211
-0.000251907
-0.00320838
-0.000289477
-0.00328955
-0.00032854
-0.00337642
-0.000369146
-0.00346995
-0.000411162
-0.00357076
-0.00367782
-0.000454181
3.42802e-06
-0.000320958
9.34202e-06
-0.000877747
1.39351e-05
-0.00136362
1.42842e-05
-0.00176859
8.68603e-06
-0.00209006
-3.34899e-06
-0.00233408
-2.13886e-05
-0.00251337
-4.44515e-05
-0.00264402
-7.14099e-05
-0.00274201
-0.000101252
-0.00282081
-0.000133219
-0.00289036
-0.000166825
-0.00295715
-0.000201813
-0.00302497
-0.000238085
-0.00309584
-0.000275658
-0.00317081
-0.000314624
-0.00325059
-0.000355115
-0.00333593
-0.000397217
-0.00342785
-0.000440828
-0.00352715
3.00117e-06
-0.000323959
7.7885e-06
-0.000882534
1.07233e-05
-0.00136655
9.08263e-06
-0.00176695
1.36557e-06
-0.00208235
-1.2783e-05
-0.00231993
-3.28027e-05
-0.00249335
-5.7683e-05
-0.00261914
-8.63004e-05
-0.00271339
-0.000117675
-0.00278943
-0.00015109
-0.00285695
-0.000186094
-0.00292215
-0.000222457
-0.00298861
-0.000260097
-0.0030582
-0.000299037
-0.00313187
-0.000339375
-0.00321025
-0.000381263
-0.00329404
-0.000424826
-0.00338428
2.56743e-06
-0.000326527
6.22121e-06
-0.000886188
7.50373e-06
-0.00136783
3.89568e-06
-0.00176334
-5.91666e-06
-0.00207254
-2.21123e-05
-0.00230374
-4.40602e-05
-0.0024714
-7.07092e-05
-0.00259249
-0.000100944
-0.00268316
-0.000133819
-0.00275656
-0.000168654
-0.00282211
-0.000205037
-0.00288576
-0.000242759
-0.00295089
-0.000281752
-0.00301921
-0.000322042
-0.00309158
-0.000363732
-0.00316856
-0.000406984
-0.00325079
2.12786e-06
-0.000328655
4.64379e-06
-0.000888704
4.28273e-06
-0.00136747
-1.26053e-06
-0.0017578
-1.31261e-05
-0.00206067
-3.13274e-05
-0.00228554
-5.51526e-05
-0.00244758
-8.35228e-05
-0.00256412
-0.000115335
-0.00265134
-0.000149677
-0.00272222
-0.000185909
-0.00278588
-0.00022365
-0.00284802
-0.000262715
-0.00291182
-0.000303047
-0.00297887
-0.000344674
-0.00304995
-0.000387696
-0.00312554
1.68358e-06
-0.000330338
3.05991e-06
-0.00089008
1.06916e-06
-0.00136548
-6.40079e-06
-0.00175033
-2.02632e-05
-0.00204681
-4.04193e-05
-0.00226538
-6.60716e-05
-0.00242193
-9.61172e-05
-0.00253408
-0.000129468
-0.00261799
-0.000165246
-0.00268644
-0.000202851
-0.00274827
-0.000241931
-0.00280894
-0.000282322
-0.00287143
-0.00032398
-0.00293722
-0.000366932
-0.003007
-0.0030812
1.23538e-06
-0.000331574
1.47155e-06
-0.000890316
-2.1422e-06
-0.00136187
-1.14932e-05
-0.00174097
-2.73178e-05
-0.00203098
-4.938e-05
-0.00224332
-7.68101e-05
-0.0023945
-0.000108486
-0.0025024
-0.000143338
-0.00258314
-0.000180522
-0.00264925
-0.000219474
-0.00270932
-0.000259874
-0.00276854
-0.000301577
-0.00282973
-0.000344548
-0.00289425
-0.000388816
-0.00296273
7.8265e-07
-0.000332356
-1.18715e-07
-0.000889415
-5.33687e-06
-0.00135665
-1.6539e-05
-0.00172977
-3.42824e-05
-0.00201324
-5.8202e-05
-0.0022194
-8.73614e-05
-0.00236534
-0.000120625
-0.00246914
-0.000156941
-0.00254682
-0.000195501
-0.00261069
-0.000235777
-0.00266905
-0.000277477
-0.00272684
-0.000320476
-0.00278673
-0.000364748
-0.00284997
3.0854e-07
-0.000332665
-1.70911e-06
-0.000887397
-8.50952e-06
-0.00134985
-2.15313e-05
-0.00171675
-4.11499e-05
-0.00199362
-6.68782e-05
-0.00219367
-9.77195e-05
-0.0023345
-0.000132527
-0.00243433
-0.000170272
-0.00250908
-0.000210179
-0.00257079
-0.000251754
-0.00262747
-0.000294734
-0.00268386
-0.000339012
-0.00274245
-0.00280441
-1.69008e-07
-0.000332496
-3.29484e-06
-0.000884272
-1.16564e-05
-0.00134149
-2.64637e-05
-0.00170194
-4.79134e-05
-0.00197217
-7.54025e-05
-0.00216618
-0.000107879
-0.00230202
-0.000144189
-0.00239802
-0.000183327
-0.00246994
-0.000224552
-0.00252956
-0.000267403
-0.00258462
-0.000311642
-0.00263963
-0.000357181
-0.00269691
-5.99943e-07
-0.000331896
-4.86681e-06
-0.000880005
-1.47727e-05
-0.00133158
-3.13303e-05
-0.00168539
-5.4567e-05
-0.00194893
-8.3769e-05
-0.00213698
-0.000117835
-0.00226795
-0.000155607
-0.00236025
-0.000196103
-0.00242945
-0.000238617
-0.00248705
-0.000282718
-0.00254052
-0.000328194
-0.00259415
-0.00265013
-1.0519e-06
-0.000330844