/*--------------------------------*- C++ -*----------------------------------*\
  =========                 |
  \\      /  F ield         | OpenFOAM: The Open Source CFD Toolbox
   \\    /   O peration     | Website:  https://openfoam.org
    \\  /    A nd           | Version:  7
     \\/     M anipulation  |
\*---------------------------------------------------------------------------*/
FoamFile
{
    version     2.0;
    format      ascii;
    class       volScalarField;
    location    "30";
    object      p;
}
// * * * * * * * * * * * * * * * * * * * * * * * * * * * * * * * * * * * * * //

dimensions      [0 2 -2 0 0 0 0];

internalField   nonuniform List<scalar> 
3025
(
-0.503238
-0.511918
-0.491176
-0.520231
-0.49859
-0.482196
-0.466724
-0.528102
-0.505606
-0.488655
-0.472696
-0.456869
-0.535448
-0.512148
-0.494682
-0.478269
-0.461978
-0.446025
-0.430281
-0.542182
-0.518135
-0.500197
-0.483365
-0.466633
-0.450195
-0.43389
-0.417555
-0.54821
-0.52348
-0.505119
-0.487905
-0.470755
-0.453838
-0.436964
-0.419947
-0.402644
-0.384938
-0.553436
-0.528093
-0.50936
-0.491801
-0.474259
-0.456871
-0.43942
-0.421703
-0.40357
-0.384911
-0.365634
-0.345525
-0.557755
-0.531879
-0.512829
-0.494966
-0.477055
-0.459205
-0.441172
-0.422738
-0.403758
-0.384133
-0.363801
-0.342618
-0.321135
-0.300851
-0.561064
-0.53474
-0.515431
-0.497306
-0.479053
-0.460749
-0.442128
-0.422967
-0.403125
-0.38253
-0.361155
-0.338931
-0.316401
-0.294791
-0.563254
-0.536577
-0.517071
-0.498727
-0.480157
-0.46141
-0.4422
-0.422302
-0.401593
-0.38003
-0.357633
-0.334409
-0.310896
-0.288083
-0.564218
-0.537287
-0.517649
-0.499131
-0.480273
-0.461094
-0.441295
-0.420658
-0.399082
-0.376564
-0.353173
-0.328999
-0.304572
-0.280681
-0.563847
-0.536771
-0.517069
-0.498422
-0.479305
-0.459708
-0.439325
-0.41795
-0.395515
-0.372062
-0.347719
-0.322652
-0.297385
-0.272541
-0.562036
-0.534928
-0.515231
-0.496504
-0.477158
-0.45716
-0.436201
-0.414097
-0.39082
-0.366463
-0.341215
-0.315323
-0.289299
-0.263624
-0.558682
-0.53166
-0.51204
-0.493282
-0.47374
-0.45336
-0.431839
-0.409022
-0.384928
-0.359708
-0.333615
-0.306974
-0.280278
-0.253897
-0.553685
-0.526873
-0.507405
-0.488665
-0.468962
-0.448223
-0.42616
-0.402652
-0.377776
-0.351746
-0.324877
-0.297569
-0.270297
-0.243332
-0.546956
-0.520479
-0.501238
-0.482568
-0.46274
-0.441669
-0.419088
-0.394924
-0.369311
-0.34253
-0.314964
-0.287084
-0.259334
-0.231908
-0.538403
-0.512392
-0.493453
-0.474905
-0.454992
-0.433622
-0.410557
-0.385777
-0.359483
-0.332024
-0.30385
-0.275496
-0.247374
-0.219609
-0.527951
-0.502537
-0.483977
-0.465605
-0.445649
-0.424016
-0.400507
-0.375162
-0.348252
-0.320198
-0.291513
-0.262794
-0.234408
-0.206428
-0.515532
-0.490846
-0.472741
-0.454599
-0.434646
-0.412794
-0.388889
-0.363038
-0.335589
-0.307032
-0.277942
-0.248971
-0.220437
-0.192361
-0.501088
-0.477262
-0.459688
-0.441832
-0.42193
-0.399906
-0.375661
-0.349375
-0.321473
-0.292514
-0.263133
-0.23403
-0.205463
-0.177411
-0.484576
-0.461737
-0.444768
-0.427255
-0.407457
-0.385316
-0.360795
-0.334153
-0.305892
-0.276641
-0.247089
-0.217977
-0.189498
-0.161588
-0.465961
-0.444237
-0.427947
-0.410833
-0.391194
-0.368996
-0.344273
-0.317362
-0.288846
-0.259421
-0.229823
-0.200829
-0.172562
-0.144907
-0.445225
-0.424737
-0.409198
-0.392543
-0.373122
-0.350934
-0.326087
-0.299004
-0.270346
-0.240868
-0.211354
-0.182608
-0.154678
-0.127394
-0.422363
-0.40323
-0.388512
-0.372373
-0.353233
-0.331128
-0.306245
-0.279093
-0.25041
-0.22101
-0.191709
-0.163343
-0.135877
-0.109052
-0.397386
-0.37972
-0.365889
-0.350327
-0.331534
-0.309589
-0.284764
-0.257655
-0.229072
-0.199879
-0.170927
-0.143069
-0.116176
-0.0898036
-0.37032
-0.354225
-0.341347
-0.326421
-0.308045
-0.286344
-0.261677
-0.234726
-0.206371
-0.177522
-0.149052
-0.121831
-0.0956043
-0.0696169
-0.341204
-0.32678
-0.314916
-0.300687
-0.282799
-0.26143
-0.237026
-0.210355
-0.18236
-0.15399
-0.126139
-0.0996746
-0.0742451
-0.0492674
-0.310095
-0.297433
-0.286643
-0.27317
-0.255845
-0.234899
-0.21087
-0.184604
-0.157102
-0.129347
-0.102246
-0.0766578
-0.0521083
-0.0281683
-0.277066
-0.266248
-0.256586
-0.243931
-0.227244
-0.206818
-0.183276
-0.157541
-0.130668
-0.103663
-0.0774394
-0.0528468
-0.0292903
-0.0063925
-0.242202
-0.233303
-0.224822
-0.213042
-0.197073
-0.177263
-0.154324
-0.129251
-0.103139
-0.0770161
-0.0517944
-0.0283095
-0.00585016
0.0159596
-0.205605
-0.19869
-0.191437
-0.180592
-0.16542
-0.146326
-0.124108
-0.0998235
-0.0746074
-0.0494945
-0.025393
-0.00312043
0.018149
0.0388153
-0.167392
-0.162516
-0.156535
-0.146682
-0.132387
-0.114106
-0.0927279
-0.0693614
-0.0451705
-0.0211929
0.00167517
0.0226382
0.0426329
0.0620995
-0.127688
-0.124898
-0.12023
-0.111425
-0.0980828
-0.0807223
-0.0602974
-0.0379742
-0.0149356
0.00778607
0.0293127
0.0488764
0.0675163
0.0857236
-0.0866316
-0.0859722
-0.0826512
-0.0749474
-0.0626359
-0.0462921
-0.0269363
-0.00577957
0.0159839
0.0373333
0.0574149
0.0754956
0.0927017
0.109585
-0.044367
-0.0458904
-0.0439348
-0.0373842
-0.0261794
-0.0109477
0.00722705
0.0270987
0.0474689
0.0673343
0.0858704
0.10239
0.118083
-0.00108695
-0.00478197
-0.00423192
0.00111785
0.0111442
0.0251712
0.0420583
0.0605318
0.0793968
0.0976706
0.114564
0.129461
0.0430549
0.0371757
0.0362982
0.0404039
0.0491842
0.061919
0.077418
0.0943878
0.111642
0.128221
0.143379
0.0878788
0.0798096
0.0774889
0.0803114
0.087783
0.0991447
0.113163
0.128533
0.14408
0.158863
0.172197
0.133194
0.12294
0.119166
0.120671
0.126777
0.136693
0.149148
0.162833
0.176589
0.189491
0.178804
0.166381
0.161147
0.161307
0.165999
0.174404
0.185225
0.197155
0.209057
0.224516
0.209944
0.203251
0.202041
0.205277
0.212116
0.221244
0.231363
0.24137
0.270123
0.253433
0.245287
0.242692
0.244438
0.249666
0.257052
0.265316
0.315419
0.296651
0.287064
0.283074
0.283304
0.286886
0.292493
0.3602
0.3394
0.328389
0.323002
0.321699
0.323612
0.327413
0.404258
0.381481
0.36907
0.36229
0.359449
0.359678
0.361661
0.44739
0.422698
0.408917
0.400757
0.39638
0.394923
0.489395
0.462856
0.447741
0.438223
0.432322
0.429189
0.530076
0.501767
0.485359
0.47451
0.467109
0.569244
0.539244
0.521592
0.509448
0.500579
0.606713
0.57511
0.556267
0.542872
0.532579
0.642306
0.609192
0.589217
0.574624
0.675856
0.641327
0.620285
0.604552
0.707203
0.671361
0.649321
0.632515
0.736198
0.699149
0.676185
0.65838
0.762703
0.724556
0.700747
0.786592
0.747461
0.722889
0.807751
0.767752
0.742504
0.82608
0.78533
0.759497
0.841489
0.800111
0.773786
0.853907
0.812023
0.785301
0.863272
0.821008
0.793986
0.869541
0.827023
0.7998
0.872683
0.830037
0.802714
0.872683
0.830037
0.802714
0.869541
0.827023
0.7998
0.863272
0.821008
0.793986
0.853907
0.812023
0.785301
0.841489
0.800111
0.773786
0.82608
0.78533
0.759497
0.807751
0.767752
0.742504
0.786592
0.747461
0.722889
0.762703
0.724556
0.700747
0.736198
0.699149
0.676185
0.65838
0.707203
0.671361
0.649321
0.632515
0.675856
0.641327
0.620285
0.604552
0.642306
0.609192
0.589217
0.574624
0.606713
0.57511
0.556267
0.542872
0.532579
0.569244
0.539244
0.521592
0.509448
0.500579
0.530076
0.501767
0.485359
0.47451
0.467109
0.489395
0.462856
0.447741
0.438223
0.432322
0.429189
0.44739
0.422698
0.408917
0.400758
0.39638
0.394923
0.404258
0.381481
0.36907
0.36229
0.359449
0.359678
0.361661
0.3602
0.3394
0.328389
0.323002
0.321699
0.323612
0.327413
0.31542
0.296651
0.287064
0.283074
0.283304
0.286886
0.292493
0.29887
0.270123
0.253433
0.245287
0.242692
0.244438
0.249666
0.257052
0.265316
0.224516
0.209944
0.203251
0.202041
0.205277
0.212116
0.221244
0.231363
0.24137
0.178805
0.166381
0.161147
0.161307
0.165999
0.174404
0.185225
0.197155
0.209057
0.133194
0.12294
0.119166
0.120671
0.126777
0.136693
0.149148
0.162833
0.176589
0.189491
0.0878789
0.0798096
0.0774889
0.0803114
0.087783
0.0991447
0.113163
0.128533
0.14408
0.158863
0.172197
0.0430549
0.0371758
0.0362982
0.0404039
0.0491842
0.0619191
0.0774181
0.0943878
0.111642
0.128221
0.143379
-0.00108691
-0.00478193
-0.00423188
0.00111789
0.0111442
0.0251713
0.0420583
0.0605319
0.0793968
0.0976707
0.114564
0.129461
-0.0443669
-0.0458903
-0.0439348
-0.0373841
-0.0261794
-0.0109477
0.00722708
0.0270987
0.0474689
0.0673343
0.0858704
0.10239
0.118083
-0.0866315
-0.0859722
-0.0826512
-0.0749474
-0.0626359
-0.046292
-0.0269363
-0.00577953
0.0159839
0.0373334
0.057415
0.0754956
0.0927017
0.109585
-0.127688
-0.124898
-0.12023
-0.111425
-0.0980828
-0.0807223
-0.0602974
-0.0379742
-0.0149355
0.00778611
0.0293128
0.0488764
0.0675164
0.0857237
-0.167391
-0.162516
-0.156535
-0.146682
-0.132387
-0.114106
-0.0927279
-0.0693613
-0.0451705
-0.0211929
0.00167521
0.0226382
0.0426329
0.0620995
-0.205605
-0.19869
-0.191437
-0.180592
-0.16542
-0.146326
-0.124108
-0.0998235
-0.0746074
-0.0494945
-0.0253929
-0.00312039
0.018149
0.0388154
-0.242202
-0.233303
-0.224821
-0.213042
-0.197073
-0.177263
-0.154324
-0.129251
-0.103139
-0.0770161
-0.0517944
-0.0283095
-0.00585012
0.0159597
-0.277066
-0.266248
-0.256586
-0.243931
-0.227244
-0.206818
-0.183276
-0.157541
-0.130668
-0.103663
-0.0774394
-0.0528468
-0.0292903
-0.00639246
-0.310095
-0.297433
-0.286643
-0.27317
-0.255845
-0.234899
-0.21087
-0.184603
-0.157102
-0.129347
-0.102246
-0.0766577
-0.0521083
-0.0281683
-0.341204
-0.32678
-0.314916
-0.300687
-0.282799
-0.26143
-0.237026
-0.210355
-0.18236
-0.15399
-0.126139
-0.0996745
-0.0742451
-0.0492674
-0.37032
-0.354225
-0.341347
-0.326421
-0.308045
-0.286344
-0.261677
-0.234726
-0.206371
-0.177522
-0.149052
-0.121831
-0.0956042
-0.0696169
-0.397386
-0.37972
-0.365889
-0.350327
-0.331534
-0.309589
-0.284764
-0.257655
-0.229071
-0.199879
-0.170927
-0.143069
-0.116176
-0.0898036
-0.422363
-0.40323
-0.388512
-0.372373
-0.353233
-0.331128
-0.306245
-0.279093
-0.25041
-0.22101
-0.191709
-0.163343
-0.135877
-0.109052
-0.445225
-0.424737
-0.409198
-0.392543
-0.373122
-0.350934
-0.326087
-0.299004
-0.270346
-0.240868
-0.211353
-0.182608
-0.154678
-0.127394
-0.465961
-0.444237
-0.427947
-0.410833
-0.391194
-0.368996
-0.344273
-0.317362
-0.288846
-0.259421
-0.229823
-0.200829
-0.172562
-0.144907
-0.484576
-0.461737
-0.444768
-0.427255
-0.407457
-0.385316
-0.360795
-0.334153
-0.305892
-0.276641
-0.247089
-0.217977
-0.189498
-0.161588
-0.501088
-0.477262
-0.459688
-0.441832
-0.42193
-0.399906
-0.375661
-0.349375
-0.321473
-0.292514
-0.263133
-0.23403
-0.205463
-0.177411
-0.515532
-0.490846
-0.472741
-0.454599
-0.434646
-0.412794
-0.388889
-0.363038
-0.335589
-0.307032
-0.277942
-0.248971
-0.220437
-0.192361
-0.527951
-0.502537
-0.483977
-0.465605
-0.445649
-0.424016
-0.400507
-0.375162
-0.348252
-0.320198
-0.291513
-0.262794
-0.234408
-0.206427
-0.538403
-0.512392
-0.493453
-0.474905
-0.454992
-0.433622
-0.410557
-0.385777
-0.359483
-0.332024
-0.30385
-0.275496
-0.247374
-0.219609
-0.546956
-0.520479
-0.501238
-0.482568
-0.46274
-0.441669
-0.419088
-0.394924
-0.369311
-0.34253
-0.314964
-0.287084
-0.259334
-0.231907
-0.553685
-0.526873
-0.507405
-0.488665
-0.468962
-0.448223
-0.42616
-0.402652
-0.377776
-0.351745
-0.324877
-0.297569
-0.270297
-0.243332
-0.558682
-0.53166
-0.51204
-0.493282
-0.47374
-0.45336
-0.431839
-0.409021
-0.384927
-0.359708
-0.333615
-0.306974
-0.280278
-0.253897
-0.562036
-0.534928
-0.515231
-0.496504
-0.477158
-0.45716
-0.436201
-0.414097
-0.39082
-0.366463
-0.341215
-0.315323
-0.289299
-0.263624
-0.563847
-0.536771
-0.517068
-0.498422
-0.479305
-0.459708
-0.439325
-0.41795
-0.395515
-0.372062
-0.347719
-0.322652
-0.297385
-0.272541
-0.564218
-0.537287
-0.517649
-0.499131
-0.480273
-0.461094
-0.441295
-0.420657
-0.399082
-0.376564
-0.353173
-0.328999
-0.304572
-0.280681
-0.563254
-0.536577
-0.517071
-0.498727
-0.480157
-0.46141
-0.4422
-0.422302
-0.401593
-0.38003
-0.357633
-0.334409
-0.310896
-0.288083
-0.561064
-0.53474
-0.515431
-0.497306
-0.479053
-0.460749
-0.442128
-0.422967
-0.403125
-0.38253
-0.361155
-0.338931
-0.316401
-0.294791
-0.557755
-0.531879
-0.512829
-0.494966
-0.477055
-0.459205
-0.441171
-0.422738
-0.403758
-0.384133
-0.363801
-0.342618
-0.321135
-0.300851
-0.553436
-0.528093
-0.50936
-0.491801
-0.474259
-0.456871
-0.43942
-0.421703
-0.40357
-0.384911
-0.365634
-0.345525
-0.54821
-0.52348
-0.505119
-0.487905
-0.470755
-0.453838
-0.436964
-0.419947
-0.402644
-0.384938
-0.542182
-0.518135
-0.500197
-0.483365
-0.466633
-0.450195
-0.43389
-0.417555
-0.535448
-0.512148
-0.494682
-0.478269
-0.461978
-0.446025
-0.430281
-0.528102
-0.505606
-0.488655
-0.472696
-0.456869
-0.520231
-0.49859
-0.482196
-0.511918
-0.491176
-0.503238
-0.219508
-0.228903
-0.237489
-0.245282
-0.252303
-0.258584
-0.264161
-0.269079
-0.199997
-0.209295
-0.217934
-0.225932
-0.233314
-0.240109
-0.246354
-0.252091
-0.181716
-0.190877
-0.199518
-0.207655
-0.215306
-0.222492
-0.229241
-0.235583
-0.164506
-0.173385
-0.181848
-0.189906
-0.197573
-0.204865
-0.211801
-0.218406
-0.148399
-0.156952
-0.165172
-0.17307
-0.180657
-0.187946
-0.194954
-0.201699
-0.133385
-0.141584
-0.14952
-0.157201
-0.164637
-0.171839
-0.178822
-0.1856
-0.119407
-0.127229
-0.134844
-0.142258
-0.14948
-0.156518
-0.163385
-0.170092
-0.106397
-0.113833
-0.121103
-0.128215
-0.135175
-0.141991
-0.148673
-0.155232
-0.0942918
-0.101335
-0.108247
-0.115034
-0.1217
-0.128254
-0.134702
-0.141053
-0.0830198
-0.0896731
-0.0962216
-0.10267
-0.109022
-0.115285
-0.121463
-0.127564
-0.0725233
-0.0787914
-0.0849754
-0.0910787
-0.097105
-0.103059
-0.108944
-0.114767
-0.062741
-0.0686335
-0.0744576
-0.080216
-0.0859115
-0.0915472
-0.0971268
-0.102654
-0.0536243
-0.0591524
-0.0646245
-0.0700424
-0.075408
-0.0807236
-0.0859917
-0.0912154
-0.0451261
-0.050304
-0.0554353
-0.0605211
-0.0655626
-0.0705613
-0.0755191
-0.0804378
-0.0372087
-0.0420517
-0.0468553
-0.05162
-0.0563467
-0.0610362
-0.0656894
-0.0703076
-0.0298355
-0.0343605
-0.0388518
-0.0433094
-0.0477336
-0.0521248
-0.0564833
-0.0608098
-0.0229758
-0.0272008
-0.0313963
-0.0355623
-0.0396985
-0.0438049
-0.0478815
-0.0519283
-0.0166014
-0.0205449
-0.0244625
-0.0283536
-0.0322179
-0.0360549
-0.0398642
-0.0436457
-0.0106881
-0.0143689
-0.0180266
-0.0216604
-0.0252696
-0.0288536
-0.0324118
-0.0359437
-0.00521276
-0.00864992
-0.0120661
-0.0154604
-0.0188319
-0.02218
-0.0255039
-0.0288028
-0.000156143
-0.00336802
-0.0065607
-0.00973321
-0.0128846
-0.016014
-0.0191204
-0.0222032
0.00450128
0.00149644
-0.00149068
-0.00445902
-0.00740755
-0.0103353
-0.0132413
-0.0161247
0.00877568
0.0059603
0.00316143
0.000380169
-0.00238241
-0.00512527
-0.00784741
-0.0105479
0.012682
0.0100391
0.00741174
0.00480099
0.00220797
-0.000366264
-0.00292069
-0.00545432
0.0162333
0.0137466
0.0112746
0.00881837
0.00637905
0.00395769
0.00155534
-0.000827018
0.0194402
0.0170941
0.0147619
0.0124448
0.0101439
0.00786022
0.00559484
0.00334872
0.0223114
0.0200907
0.0178834
0.0156906
0.0135133
0.0113527
0.00920966
0.0070852
0.0248519
0.0227422
0.0206454
0.0185625
0.0164947
0.0144428
0.012408
0.0103911
0.0270652
0.0250523
0.0230519
0.021065
0.0190925
0.0171355
0.0151949
0.0132717
0.0289481
0.0270184
0.0251007
0.0231961
0.0213056
0.0194299
0.0175701
0.015727
0.0139014
0.0304982
0.0286375
0.0267885
0.0249522
0.0231294
0.0213211
0.019528
0.017751
0.0159908
0.0316969
0.0298923
0.0280992
0.0263185
0.0245508
0.022797
0.0210579
0.0193342
0.0176266
0.0325362
0.0307711
0.0290171
0.0272751
0.0255458
0.02383
0.0221283
0.0204413
0.0187699
0.032971
0.0312364
0.0295127
0.0278004
0.0261002
0.0244127
0.0227385
0.021078
0.019432
0.0786979
0.0569701
0.0356473
0.0147769
-0.0055959
-0.0254394
-0.0447736
-0.0636433
-0.0812423
-0.0985547
-0.115104
-0.130892
-0.145942
-0.160224
-0.173712
-0.186391
-0.198253
-0.209292
0.0769028
0.0568645
0.0372513
0.018086
-0.000597098
-0.0187654
-0.0363875
-0.0533554
-0.0692626
-0.0858229
-0.101302
-0.115961
-0.129975
-0.14334
-0.156034
-0.168048
-0.17938
-0.190028
0.0717
0.0536762
0.0360516
0.0188252
0.002015
-0.014362
-0.0303006
-0.0458955
-0.0613414
-0.0752292
-0.0891026
-0.102562
-0.11548
-0.127866
-0.139718
-0.15103
-0.161799
-0.172026
0.0678827
0.0515908
0.035667
0.0201015
0.00490561
-0.00990864
-0.0243267
-0.0383445
-0.0519774
-0.0650095
-0.0778309
-0.0902258
-0.102154
-0.113639
-0.124686
-0.135295
-0.145466
-0.155202
0.0649138
0.0501905
0.0357978
0.021722
0.00796986
-0.00545071
-0.0185326
-0.0312673
-0.0436409
-0.055603
-0.0673919
-0.0787882
-0.0897977
-0.100447
-0.110741
-0.120682
-0.13027
-0.139507
0.0625002
0.0491985
0.0361879
0.023453
0.0109961
-0.00117919
-0.0130712
-0.0246806
-0.036025
-0.0471329
-0.0577607
-0.0682023
-0.0783763
-0.0882556
-0.0978459
-0.107151
-0.116174
-0.124917
0.0606218
0.0486002
0.0368296
0.0252952
0.0139968
0.00293653
-0.00788517
-0.0184683
-0.0288163
-0.0389311
-0.0487582
-0.0584259
-0.0678359
-0.076998
-0.0859304
-0.0946359
-0.103115
-0.11137
0.0591958
0.0483241
0.0376653
0.0272059
0.0169451
0.00688412
-0.00297635
-0.0126362
-0.0220935
-0.0313191
-0.0402355
-0.049329
-0.0580864
-0.0665925
-0.0749126
-0.0830532
-0.0910124
-0.0987924
0.0581475
0.0483056
0.038641
0.029142
0.0198063
0.0106337
0.00162233
-0.00722993
-0.0159287
-0.0245089
-0.0330293
-0.0410534
-0.0490674
-0.0569767
-0.0647322
-0.0723366
-0.0797961
-0.0871135
0.0574148
0.0484946
0.0397205
0.0310823
0.0225779
0.0142073
0.00596929
-0.00213682
-0.0101106
-0.0179546
-0.0256769
-0.0332319
-0.0407
-0.0480581
-0.0552889
-0.0623957
-0.0693842
-0.076258
0.0569442
0.0488488
0.0408722
0.0330055
0.0252473
0.0175973
0.0100546
0.00261824
-0.00471279
-0.0119395
-0.0190625
-0.026074
-0.0330036
-0.0398309
-0.0465571
-0.0531871
-0.0597235
-0.0661682
0.056691
0.0493337
0.0420716
0.0348973
0.0278097
0.0208087
0.0138938
0.00706418
0.000319194
-0.00634178
-0.0129144
-0.0193864
-0.0258381
-0.032188
-0.038449
-0.0446331
-0.0507425
-0.056778
0.0633954
0.0566176
0.0499209
0.0432991
0.0367462
0.0302614
0.0238447
0.0174955
0.0112131
0.00499692
-0.00115424
-0.00724566
-0.0132842
-0.0192103
-0.0250942
-0.0309231
-0.0366895
-0.042394
-0.0480386
0.0628617
0.0566935
0.0505884
0.0445412
0.0385472
0.0326057
0.0267172
0.0208814
0.015098
0.00936702
0.00368827
-0.00193966
-0.00751913
-0.0130316
-0.0185035
-0.0239287
-0.0293029
-0.0346263
-0.0399004
0.0625163
0.0568932
0.0513183
0.0457871
0.0402959
0.0348445
0.0294335
0.0240629
0.0187329
0.0134435
0.00819479
0.00298667
-0.00218105
-0.00730351
-0.0123892
-0.0174349
-0.0224394
-0.027403
-0.0323259
0.0623308
0.0571955
0.0520959
0.0470283
0.0419899
0.0369808
0.0320018
0.0270533
0.0221355
0.0172488
0.0123936
0.00757012
0.00277886
-0.00197768
-0.00670481
-0.0113984
-0.0160581
-0.0206842
-0.0252767
0.062281
0.0575822
0.0529089
0.048258
0.0436274
0.0390177
0.0344297
0.029864
0.0253213
0.020802
0.0163069
0.0118363
0.00739164
0.00297536
-0.00142211
-0.00578968
-0.0101283
-0.0144391
-0.0187218
0.062346
0.0580376
0.0537466
0.0494702
0.045207
0.0409578
0.0367236
0.0325053
0.0283035
0.0241192
0.019953
0.0158058
0.0116788
0.00757404
0.00348495
-0.000580096
-0.00462122
-0.00863886
-0.0126325
0.0625068
0.0585477
0.0545992
0.0506592
0.0467267
0.0428028
0.0388884
0.0349846
0.0310923
0.0272124
0.0233459
0.0194936
0.0156554
0.0118306
0.00803518
0.00425244
0.000486285
-0.0032598
-0.00698478
0.0627468
0.0590999
0.0554583
0.0518203
0.0481854
0.0445548
0.0409297
0.037311
0.0337
0.0300977
0.0265051
0.0229235
0.0193536
0.0157963
0.0122553
0.00872783
0.00521574
0.00172094
-0.00175551
0.0630507
0.0596824
0.0563152
0.0529479
0.0495804
0.0462138
0.0428495
0.0394885
0.036132
0.0327813
0.0294374
0.0261016
0.0227749
0.0194585
0.0161545
0.0128626
0.00958437
0.00632109
0.00307391
0.063404
0.0602839
0.0571618
0.0540368
0.050909
0.0477796
0.04465
0.0415214
0.038395
0.0352721
0.0321538
0.0290414
0.0259361
0.0228392
0.0197522
0.0166757
0.0136111
0.0105597
0.00752275
0.0637934
0.0608939
0.05799
0.0550812
0.0521678
0.049251
0.0463321
0.0434125
0.0404934
0.037576
0.0346616
0.0317515
0.0288469
0.0259491
0.0230597
0.0201792
0.0173094
0.0144514
0.0116064
0.064206
0.0615019
0.0587918
0.0560753
0.0533529
0.0506259
0.0478956
0.0451633
0.0424303
0.0396977
0.0369669
0.0342393
0.0315159
0.0287983
0.0260878
0.023385
0.0206918
0.0180095
0.0153392
0.0646298
0.0620981
0.0595592
0.0570131
0.0544603
0.0519021
0.0493398
0.0467746
0.0442079
0.0416409
0.0390748
0.036511
0.0339507
0.0313954
0.0288468
0.0263034
0.0237695
0.021246
0.0187335
0.0650531
0.0626725
0.0602841
0.057888
0.0554848
0.0530758
0.0506622
0.0482453
0.0458264
0.0434065
0.0409871
0.0385694
0.0361547
0.033744
0.0313386
0.028941
0.0265509
0.0241698
0.0217992
0.0654648
0.0632159
0.0609587
0.0586937
0.0564215
0.0541435
0.0518607
0.0495744
0.0472859
0.0449962
0.0427067
0.0404186
0.0381331
0.0358513
0.0335743
0.031305
0.0290426
0.0267885
0.0245444
0.0658539
0.0637181
0.0615742
0.0594225
0.0572639
0.0550996
0.0529307
0.0507584
0.0485838
0.046408
0.0442324
0.0420581
0.0398862
0.0377179
0.0355545
0.0333974
0.0312473
0.0291056
0.0269734
0.0662107
0.0641708
0.062123
0.060068
0.0580064
0.0559395
0.0538683
0.0517939
0.0497175
0.0476401
0.045563
0.0434871
0.0414138
0.039344
0.037279
0.03522
0.033168
0.0311241
0.0290895
0.0665223
0.0645615
0.0625934
0.0606187
0.0586382
0.0566528
0.0546637
0.0526719
0.0506784
0.0486843
0.0466908
0.0446987
0.0427093
0.0407237
0.0387428
0.0367679
0.0347999
0.0328399
0.030889
0.0667834
0.0648858
0.0629816
0.0610716
0.0591566
0.0572375
0.0553153
0.0533909
0.0514655
0.0495399
0.0476151
0.0456923
0.0437723
0.0418562
0.0399451
0.0380399
0.0361416
0.0342513
0.0323698
0.0669704
0.0651191
0.0632623
0.0614007
0.0595351
0.0576665
0.0557957
0.0539236
0.0520512
0.0501793
0.048309
0.0464411
0.0445766
0.0427163
0.0408613
0.0390125
0.0371707
0.0353369
0.033512
0.0671
0.0652798
0.0634552
0.0616269
0.0597956
0.0579622
0.0561275
0.0542922
0.0524572
0.0506234
0.0487916
0.0469627
0.0451375
0.0433168
0.0415016
0.0396926
0.0378907
0.0360968
0.0343117
0.0670965
0.0652854
0.063472
0.0616569
0.0598407
0.0580243
0.0562084
0.0543936
0.0525808
0.0507706
0.0489638
0.0471611
0.0453632
0.0435708
0.0417846
0.0400054
0.0382337
0.0364704
0.0347159
0.0670965
0.0652855
0.063472
0.0616569
0.0598408
0.0580244
0.0562084
0.0543937
0.0525808
0.0507707
0.0489639
0.0471612
0.0453632
0.0435709
0.0417847
0.0400054
0.0382338
0.0364704
0.0347159
0.0671
0.0652798
0.0634552
0.0616269
0.0597957
0.0579623
0.0561275
0.0542922
0.0524573
0.0506235
0.0487917
0.0469627
0.0451375
0.0433168
0.0415016
0.0396926
0.0378908
0.0360969
0.0343118
0.0669705
0.0651191
0.0632623
0.0614007
0.0595352
0.0576665
0.0557957
0.0539237
0.0520512
0.0501794
0.048309
0.0464411
0.0445766
0.0427164
0.0408614
0.0390125
0.0371708
0.035337
0.0335121
0.0667834
0.0648858
0.0629817
0.0610716
0.0591566
0.0572375
0.0553153
0.053391
0.0514655
0.0495399
0.0476152
0.0456923
0.0437723
0.0418563
0.0399451
0.0380399
0.0361417
0.0342513
0.0323699
0.0665223
0.0645615
0.0625935
0.0606187
0.0586382
0.0566528
0.0546637
0.0526719
0.0506785
0.0486844
0.0466908
0.0446988
0.0427094
0.0407237
0.0387428
0.0367679
0.0347999
0.0328399
0.030889
0.0662108
0.0641708
0.0621231
0.060068
0.0580065
0.0559395
0.0538683
0.051794
0.0497176
0.0476402
0.045563
0.0434872
0.0414138
0.0393441
0.0372791
0.0352201
0.0331681
0.0311242
0.0290895
0.065854
0.0637182
0.0615742
0.0594225
0.057264
0.0550997
0.0529308
0.0507584
0.0485838
0.0464081
0.0442324
0.0420581
0.0398862
0.037718
0.0355545
0.0333974
0.0312474
0.0291056
0.0269734
0.0654649
0.0632159
0.0609587
0.0586937
0.0564216
0.0541435
0.0518607
0.0495745
0.0472859
0.0449963
0.0427068
0.0404187
0.0381331
0.0358514
0.0335743
0.031305
0.0290426
0.0267885
0.0245444
0.0650531
0.0626726
0.0602842
0.057888
0.0554848
0.0530758
0.0506622
0.0482454
0.0458264
0.0434066
0.0409872
0.0385695
0.0361547
0.033744
0.0313386
0.028941
0.026551
0.0241699
0.0217992
0.0646298
0.0620982
0.0595593
0.0570131
0.0544603
0.0519021
0.0493398
0.0467747
0.044208
0.0416409
0.0390749
0.036511
0.0339508
0.0313955
0.0288469
0.0263034
0.0237695
0.021246
0.0187336
0.064206
0.061502
0.0587918
0.0560753
0.053353
0.0506259
0.0478957
0.0451634
0.0424303
0.0396977
0.036967
0.0342393
0.031516
0.0287983
0.0260878
0.023385
0.0206919
0.0180096
0.0153392
0.0637934
0.0608939
0.0579901
0.0550813
0.0521678
0.049251
0.0463322
0.0434126
0.0404934
0.037576
0.0346616
0.0317515
0.0288469
0.0259492
0.0230597
0.0201793
0.0173094
0.0144514
0.0116065
0.0634041
0.060284
0.0571619
0.0540368
0.050909
0.0477797
0.0446501
0.0415215
0.0383951
0.0352721
0.0321538
0.0290414
0.0259361
0.0228392
0.0197522
0.0166757
0.0136111
0.0105598
0.00752279
0.0630507
0.0596824
0.0563152
0.052948
0.0495805
0.0462139
0.0428495
0.0394885
0.0361321
0.0327813
0.0294374
0.0261016
0.0227749
0.0194586
0.0161545
0.0128627
0.0095844
0.00632113
0.00307395
0.0627469
0.0591
0.0554583
0.0518203
0.0481855
0.0445549
0.0409297
0.0373111
0.0337001
0.0300977
0.0265052
0.0229235
0.0193537
0.0157964
0.0122554
0.00872786
0.00521578
0.00172098
-0.00175547
0.0625068
0.0585477
0.0545992
0.0506592
0.0467268
0.0428028
0.0388884
0.0349847
0.0310924
0.0272125
0.0233459
0.0194936
0.0156554
0.0118307
0.00803521
0.00425247
0.000486321
-0.00325977
-0.00698474
0.062346
0.0580377
0.0537466
0.0494702
0.045207
0.0409578
0.0367237
0.0325053
0.0283036
0.0241192
0.0199531
0.0158058
0.0116788
0.00757408
0.00348498
-0.000580061
-0.00462118
-0.00863883
-0.0126325
0.0622811
0.0575822
0.0529089
0.048258
0.0436274
0.0390177
0.0344297
0.0298641
0.0253213
0.0208021
0.0163069
0.0118364
0.00739168
0.00297539
-0.00142208
-0.00578964
-0.0101283
-0.0144391
-0.0187218
0.0623308
0.0571955
0.052096
0.0470284
0.0419899
0.0369809
0.0320018
0.0270533
0.0221355
0.0172489
0.0123937
0.00757016
0.00277889
-0.00197765
-0.00670478
-0.0113983
-0.016058
-0.0206842
-0.0252767
0.0625163
0.0568932
0.0513184
0.0457872
0.0402959
0.0348446
0.0294335
0.024063
0.0187329
0.0134435
0.00819482
0.0029867
-0.00218102
-0.00730347
-0.0123891
-0.0174349
-0.0224394
-0.0274029
-0.0323259
0.0628618
0.0566935
0.0505885
0.0445413
0.0385472
0.0326058
0.0267172
0.0208814
0.0150981
0.00936705
0.0036883
-0.00193963
-0.0075191
-0.0130315
-0.0185034
-0.0239287
-0.0293029
-0.0346263
-0.0399004
0.0633954
0.0566176
0.0499209
0.0432991
0.0367463
0.0302615
0.0238447
0.0174955
0.0112131
0.00499696
-0.0011542
-0.00724562
-0.0132841
-0.0192103
-0.0250942
-0.0309231
-0.0366894
-0.042394
-0.0480385
0.0641505
0.056691
0.0493338
0.0420716
0.0348973
0.0278097
0.0208087
0.0138938
0.00706421
0.000319229
-0.00634174
-0.0129144
-0.0193864
-0.0258381
-0.032188
-0.038449
-0.044633
-0.0507425
-0.056778
0.0651666
0.0569442
0.0488489
0.0408722
0.0330056
0.0252473
0.0175973
0.0100547
0.00261827
-0.00471276
-0.0119395
-0.0190625
-0.026074
-0.0330035
-0.0398309
-0.0465571
-0.053187
-0.0597235
-0.0661682
0.0664907
0.0574148
0.0484947
0.0397206
0.0310823
0.022578
0.0142073
0.00596933
-0.00213679
-0.0101105
-0.0179545
-0.0256769
-0.0332319
-0.0407
-0.0480581
-0.0552889
-0.0623957
-0.0693842
-0.0762579
0.0681781
0.0581476
0.0483056
0.0386411
0.029142
0.0198064
0.0106337
0.00162236
-0.00722989
-0.0159286
-0.0245089
-0.0330293
-0.0410534
-0.0490674
-0.0569767
-0.0647321
-0.0723366
-0.079796
-0.0871134
0.0702932
0.0591959
0.0483241
0.0376653
0.0272059
0.0169451
0.00688416
-0.00297631
-0.0126361
-0.0220935
-0.0313191
-0.0402355
-0.049329
-0.0580863
-0.0665924
-0.0749125
-0.0830532
-0.0910123
-0.0987923
0.0729097
0.0606219
0.0486002
0.0368296
0.0252952
0.0139968
0.00293656
-0.00788513
-0.0184682
-0.0288162
-0.0389311
-0.0487581
-0.0584258
-0.0678359
-0.076998
-0.0859304
-0.0946359
-0.103115
-0.11137
0.0625002
0.0491985
0.0361879
0.0234531
0.0109961
-0.00117916
-0.0130711
-0.0246806
-0.0360249
-0.0471329
-0.0577606
-0.0682023
-0.0783763
-0.0882555
-0.0978459
-0.107151
-0.116174
-0.124917
0.0649138
0.0501906
0.0357978
0.021722
0.00796989
-0.00545067
-0.0185326
-0.0312673
-0.0436409
-0.055603
-0.0673919
-0.0787882
-0.0897977
-0.100447
-0.110741
-0.120682
-0.13027
-0.139507
0.0678827
0.0515909
0.0356671
0.0201016
0.00490565
-0.0099086
-0.0243267
-0.0383444
-0.0519774
-0.0650094
-0.0778309
-0.0902257
-0.102154
-0.113639
-0.124686
-0.135295
-0.145466
-0.155201
0.0717
0.0536762
0.0360516
0.0188252
0.00201504
-0.014362
-0.0303006
-0.0458955
-0.0613414
-0.0752291
-0.0891026
-0.102562
-0.11548
-0.127866
-0.139718
-0.15103
-0.161799
-0.172026
0.0769029
0.0568646
0.0372513
0.0180861
-0.000597059
-0.0187654
-0.0363874
-0.0533553
-0.0692626
-0.0858228
-0.101302
-0.115961
-0.129975
-0.14334
-0.156034
-0.168048
-0.17938
-0.190028
0.0786979
0.0569702
0.0356473
0.0147769
-0.00559586
-0.0254394
-0.0447736
-0.0636433
-0.0812423
-0.0985547
-0.115104
-0.130892
-0.145942
-0.160224
-0.173712
-0.186391
-0.198253
-0.209292
0.0329711
0.0312364
0.0295127
0.0278004
0.0261002
0.0244127
0.0227385
0.0210781
0.0325363
0.0307711
0.0290172
0.0272752
0.0255459
0.02383
0.0221283
0.0204414
0.0316969
0.0298924
0.0280993
0.0263185
0.0245508
0.0227971
0.0210579
0.0193342
0.0304983
0.0286375
0.0267886
0.0249522
0.0231295
0.0213211
0.0195281
0.017751
0.0289481
0.0270184
0.0251008
0.0231962
0.0213056
0.01943
0.0175702
0.015727
0.0270652
0.0250524
0.0230519
0.021065
0.0190926
0.0171356
0.015195
0.0132717
0.0248519
0.0227422
0.0206454
0.0185626
0.0164947
0.0144429
0.012408
0.0103911
0.0223114
0.0200908
0.0178835
0.0156906
0.0135134
0.0113527
0.00920969
0.00708523
0.0194402
0.0170941
0.0147619
0.0124448
0.0101439
0.00786025
0.00559487
0.00334875
0.0162334
0.0137467
0.0112746
0.00881841
0.00637908
0.00395773
0.00155537
-0.000826986
0.012682
0.0100391
0.00741177
0.00480103
0.00220801
-0.00036623
-0.00292066
-0.00545429
0.00877572
0.00596033
0.00316146
0.000380203
-0.00238237
-0.00512523
-0.00784738
-0.0105478
0.00450131
0.00149647
-0.00149064
-0.00445898
-0.00740752
-0.0103353
-0.0132413
-0.0161246
-0.000156108
-0.00336798
-0.00656067
-0.00973318
-0.0128846
-0.0160139
-0.0191204
-0.0222031
-0.00521272
-0.00864988
-0.012066
-0.0154603
-0.0188319
-0.02218
-0.0255039
-0.0288028
-0.010688
-0.0143689
-0.0180266
-0.0216604
-0.0252696
-0.0288536
-0.0324118
-0.0359437
-0.0166014
-0.0205449
-0.0244625
-0.0283536
-0.0322178
-0.0360548
-0.0398642
-0.0436457
-0.0229758
-0.0272007
-0.0313963
-0.0355622
-0.0396985
-0.0438049
-0.0478814
-0.0519282
-0.0298355
-0.0343605
-0.0388517
-0.0433093
-0.0477336
-0.0521247
-0.0564833
-0.0608097
-0.0372087
-0.0420517
-0.0468552
-0.05162
-0.0563467
-0.0610361
-0.0656894
-0.0703075
-0.045126