/*--------------------------------*- C++ -*----------------------------------*\
  =========                 |
  \\      /  F ield         | OpenFOAM: The Open Source CFD Toolbox
   \\    /   O peration     | Website:  https://openfoam.org
    \\  /    A nd           | Version:  7
     \\/     M anipulation  |
\*---------------------------------------------------------------------------*/
FoamFile
{
    version     2.0;
    format      ascii;
    class       surfaceScalarField;
    location    "30";
    object      phi;
}
// * * * * * * * * * * * * * * * * * * * * * * * * * * * * * * * * * * * * * //

dimensions      [0 3 -1 0 0 0 0];

internalField   nonuniform List<scalar> 
5826
(
-4.77095e-05
7.04579e-06
-5.47552e-05
-0.00018509
7.38955e-06
-6.21448e-05
2.95282e-05
-0.000207229
6.73035e-05
-0.000381666
-0.000587164
7.72206e-06
-6.98669e-05
3.07431e-05
-0.00023025
6.98601e-05
-0.000420783
0.000125848
-0.000643152
-0.000898854
8.04117e-06
-7.7908e-05
3.18926e-05
-0.000254101
7.2247e-05
-0.000461137
0.000129749
-0.000700654
0.000204909
-0.000974014
0.000298007
-0.00128208
-0.00162511
8.3444e-06
-8.62524e-05
3.29671e-05
-0.000278724
7.4443e-05
-0.000502613
0.000133272
-0.000759483
0.000209786
-0.00105053
0.000304045
-0.00137634
0.00041573
-0.0017368
-0.0021309
8.62891e-06
-9.48813e-05
3.39561e-05
-0.000304051
7.64252e-05
-0.000545082
0.000136378
-0.000819436
0.000213954
-0.0011281
0.000308984
-0.00147137
0.000420887
-0.0018487
0.000548571
-0.00225858
0.000690366
-0.00269846
-0.00316467
8.8916e-06
-0.000103773
3.48481e-05
-0.000330008
7.81695e-05
-0.000588404
0.000139027
-0.000880294
0.000217355
-0.00120643
0.000312747
-0.00156676
0.000424354
-0.00196031
0.000550805
-0.00238503
0.000690152
-0.0028378
0.000839875
-0.0033144
0.000996936
-0.00380958
-0.00431726
9.12923e-06
-0.000112902
3.56315e-05
-0.00035651
7.96513e-05
-0.000632423
0.000141177
-0.000941819
0.000219928
-0.00128518
0.000315255
-0.00166209
0.000426041
-0.00207109
0.00055064
-0.00250963
0.000686849
-0.00297401
0.000831935
-0.00345948
0.000982734
-0.00396038
0.0011358
-0.00447032
0.00128759
-0.00498262
-0.00549006
0.00143464
9.33842e-06
-0.000122241
3.62944e-05
-0.000383466
8.08459e-05
-0.000676975
0.000142788
-0.00100376
0.000221619
-0.00136401
0.000316438
-0.00175691
0.000425867
-0.00218052
0.000547996
-0.00263176
0.000680386
-0.0031064
0.000820128
-0.00359923
0.000963966
-0.00410422
0.00110848
-0.00461483
0.0012503
-0.00512443
-0.00562603
0.00138626
9.51583e-06
-0.000131756
3.68249e-05
-0.000410775
8.17296e-05
-0.00072188
0.000143823
-0.00106585
0.000222375
-0.00144256
0.000316235
-0.00185077
0.000423766
-0.00228805
0.000542811
-0.0027508
0.000670722
-0.00323431
0.000804446
-0.00373295
0.000940679
-0.00424045
0.00107607
-0.00475022
0.00120744
-0.0052558
-0.00575056
0.00133196
9.65815e-06
-0.000141415
3.7212e-05
-0.000438329
8.228e-05
-0.000766948
0.000144247
-0.00112782
0.00022215
-0.00152047
0.000314591
-0.00194321
0.000419685
-0.00239315
0.000535046
-0.00286617
0.000657845
-0.00335711
0.000784922
-0.00386003
0.000912963
-0.00436849
0.00103873
-0.00487599
0.00115925
-0.00537633
-0.00586338
0.00127208
9.76224e-06
-0.000151177
3.74449e-05
-0.000466012
8.24765e-05
-0.000811979
0.000144029
-0.00118937
0.000220906
-0.00159734
0.000311467
-0.00203377
0.000413591
-0.00249527
0.000524687
-0.00297726
0.000641774
-0.0034742
0.000761623
-0.00397988
0.000880954
-0.00448782
0.000996664
-0.0049917
0.00110605
-0.00548571
-0.00596432
0.00120699
9.82516e-06
-0.000161002
3.7514e-05
-0.0004937
8.23011e-05
-0.000856766
0.000143143
-0.00125022
0.000218612
-0.00167281
0.000306834
-0.002122
0.000405468
-0.0025939
0.000511741
-0.00308353
0.000622557
-0.00358501
0.000734655
-0.00409197
0.000844824
-0.00459799
0.000950136
-0.00509701
0.00104816
-0.00558374
-0.00605329
0.00113713
9.84422e-06
-0.000170846
3.74108e-05
-0.000521267
8.17384e-05
-0.000901094
0.000141568
-0.00131005
0.000215247
-0.00174649
0.000300677
-0.00220743
0.000395317
-0.00268854
0.000496243
-0.00318446
0.000600273
-0.00368904
0.000704154
-0.00419586
0.00080478
-0.00469862
0.000899426
-0.00519165
0.000985946
-0.00567026
-0.00613025
0.00106291
9.81706e-06
-0.000180663
3.71283e-05
-0.000548578
8.07762e-05
-0.000944742
0.00013929
-0.00136856
0.000210798
-0.001818
0.000292994
-0.00228962
0.00038316
-0.00277871
0.000478247
-0.00327955
0.000575026
-0.00378582
0.000670285
-0.00429111
0.000761056
-0.00478939
0.000844841
-0.00527544
0.000919788
-0.00574521
-0.00619527
0.000984802
9.74317e-06
-0.000190406
3.66635e-05
-0.000575499
7.94098e-05
-0.000987488
0.000136305
-0.00142545
0.000205269
-0.00188696
0.000283806
-0.00236816
0.000369044
-0.00286395
0.000457841
-0.00336835
0.000546954
-0.00387494
0.000633248
-0.00437741
0.000713921
-0.00487006
0.00078672
-0.00534824
0.000850089
-0.00580857
-0.00624843
0.000903253
9.61816e-06
-0.000200025
3.60067e-05
-0.000601887
7.76257e-05
-0.00102911
0.000132599
-0.00148043
0.000198654
-0.00195302
0.000273123
-0.00244263
0.000353008
-0.00294383
0.000435105
-0.00345044
0.000516189
-0.00395602
0.000593233
-0.00445445
0.000663629
-0.00494046
0.000725379
-0.00540999
0.000777223
-0.00586042
-0.0062899
0.000818687
9.4423e-06
-0.000209467
3.51582e-05
-0.000627603
7.5426e-05
-0.00106937
0.000128183
-0.00153318
0.000190977
-0.00201581
0.000260993
-0.00251264
0.000335133
-0.00301797
0.000410162
-0.00352547
0.000482908
-0.00402877
0.000550478
-0.00452202
0.000610475
-0.00500046
0.00066117
-0.00546068
0.000701592
-0.00590084
-0.00631985
0.000731547
9.21479e-06
-0.000218682
3.4117e-05
-0.000652505
7.28129e-05
-0.00110807
0.000123065
-0.00158344
0.000182263
-0.00207501
0.000247466
-0.00257785
0.000315504
-0.00308601
0.000383145
-0.00359311
0.000447295
-0.00409292
0.000505222
-0.00457995
0.000554757
-0.00504999
0.000594439
-0.00550037
0.000623581
-0.00592998
-0.00633852
0.000642247
8.93535e-06
-0.000227617
3.2884e-05
-0.000676454
6.97917e-05
-0.00114498
0.000117263
-0.00163091
0.000172547
-0.0021303
0.000232604
-0.0026379
0.000294223
-0.00314763
0.0003542
-0.00365309
0.000409547
-0.00414826
0.000457714
-0.00462812
0.000496771
-0.00508905
0.000525526
-0.00552912
0.000543564
-0.00594802
-0.00634614
0.000551184
8.60412e-06
-0.000236221
3.14616e-05
-0.000699311
6.63716e-05
-0.00117989
0.000110797
-0.00167533
0.000161872
-0.00218137
0.000216481
-0.00269251
0.0002714
-0.00320255
0.000323482
-0.00370517
0.00036987
-0.00419465
0.00040821
-0.00466646
0.000436816
-0.00511765
0.000454765
-0.00554707
0.000461898
-0.00595515
-0.00634297
0.000458732
8.22173e-06
-0.000244443
2.9854e-05
-0.000720944
6.25651e-05
-0.0012126
0.000103696
-0.00171646
0.000150288
-0.00222796
0.000199179
-0.0027414
0.000247158
-0.00325053
0.00029116
-0.00374917
0.000328478
-0.00423197
0.000356967
-0.00469494
0.000375189
-0.00513588
0.000382481
-0.00555436
0.000378925
-0.0059516
-0.00632929
0.000365241
7.78925e-06
-0.000252232
2.8067e-05
-0.000741221
5.83881e-05
-0.00124292
9.5993e-05
-0.00175407
0.000137854
-0.00226982
0.000180788
-0.00278434
0.000221625
-0.00329137
0.000257406
-0.00378495
0.000285589
-0.00426015
0.000304245
-0.0047136
0.000312181
-0.00514381
0.000308985
-0.00555117
0.000294969
-0.00593758
-0.00630535
0.00027103
7.30819e-06
-0.00025954
2.61079e-05
-0.000760021
5.38592e-05
-0.00127067
8.77244e-05
-0.00178793
0.000124632
-0.00230673
0.000161406
-0.00282111
0.00019494
-0.0033249
0.0002224
-0.00381241
0.000241424
-0.00427918
0.000250301
-0.00472248
0.000248078
-0.00514159
0.000234579
-0.00553767
0.000210331
-0.00591333
-0.00627142
0.000176401
6.78048e-06
-0.000266321
2.39853e-05
-0.000777226
4.9e-05
-0.00129569
7.8932e-05
-0.00181787
0.000110692
-0.00233849
0.000141135
-0.00285156
0.000167243
-0.00335101
0.000186324
-0.00383149
0.000196206
-0.00428906
0.000195393
-0.00472166
0.00018316
-0.00512936
0.000159556
-0.00551406
0.000125291
-0.00587907
-0.00622776
8.16356e-05
6.20845e-06
-0.000272529
2.17091e-05
-0.000792727
4.38344e-05
-0.00131781
6.96607e-05
-0.00184369
9.61057e-05
-0.00236493
0.000120082
-0.00287553
0.00013868
-0.00336961
0.000149365
-0.00384218
0.000150156
-0.00428985
0.000139772
-0.00471128
0.000117705
-0.00510729
8.4217e-05
-0.00548058
4.01506e-05
-0.005835
-0.00617391
-1.37031e-05
5.59476e-06
-0.000278124
1.92906e-05
-0.000806422
3.83884e-05
-0.00133691
5.99583e-05
-0.00186526
8.09503e-05
-0.00238593
9.83575e-05
-0.00289294
0.000109399
-0.00338065
0.000111706
-0.00384449
0.000103495
-0.00428164
8.36868e-05
-0.00469147
5.19776e-05
-0.00507558
8.81937e-06
-0.00543742
-4.47012e-05
-0.00578148
-0.00611154
-0.000107067
4.94239e-06
-0.000283066
1.67416e-05
-0.000818222
3.26897e-05
-0.00135286
4.98745e-05
-0.00188245
6.53036e-05
-0.00240136
7.60724e-05
-0.00290371
7.95448e-05
-0.00338412
7.35307e-05
-0.00383847
5.64372e-05
-0.00426455
2.73786e-05
-0.00466241
-1.37693e-05
-0.00503443
-6.63861e-05
-0.0053848
-0.000129233
-0.00571863
-0.00604014
-0.00020064
4.25457e-06
-0.000287321
1.4075e-05
-0.000828042
2.67671e-05
-0.00136555
3.94607e-05
-0.00189514
4.92447e-05
-0.00241114
5.33381e-05
-0.0029078
4.9265e-05
-0.00338005
3.50187e-05
-0.00382423
9.19527e-06
-0.00423872
-2.89165e-05
-0.0046243
-7.92851e-05
-0.00498406
-0.000141147
-0.00532294
-0.000213108
-0.00564667
-0.00595987
-0.000293375
3.53478e-06
-0.000290856
1.13041e-05
-0.000835811
2.06503e-05
-0.0013749
2.87688e-05
-0.00190326
3.28529e-05
-0.00241522
3.02645e-05
-0.00290521
1.87016e-05
-0.00336848
-3.65396e-06
-0.00380187
-3.80263e-05
-0.00420435
-8.49677e-05
-0.00457736
-0.000144323
-0.00492471
-0.000215217
-0.00525205
-0.000296122
-0.00556577
-0.00587092
-0.000385076
2.78664e-06
-0.000293642
8.44277e-06
-0.000841467
1.43694e-05
-0.00138082
1.7851e-05
-0.00190674
1.62061e-05
-0.00241358
6.95931e-06
-0.00289597
-1.20078e-05
-0.00334952
-4.23215e-05
-0.00377156
-8.50292e-05
-0.00416164
-0.00014055
-0.00452184
-0.000208638
-0.00485662
-0.000288349
-0.00517233
-0.000378046
-0.00547607
-0.00577341
-0.000475553
2.01399e-06
-0.000295656
5.50494e-06
-0.000844958
7.95459e-06
-0.00138327
6.75849e-06
-0.00190554
-6.16641e-07
-0.0024062
-1.64751e-05
-0.00288011
-4.27326e-05
-0.00332326
-8.08222e-05
-0.00373347
-0.000131625
-0.00411084
-0.000195446
-0.00445802
-0.000271987
-0.00478008
-0.00036029
-0.00508403
-0.00045865
-0.00537771
-0.00566744
-0.000564623
1.22125e-06
-0.000296878
2.50455e-06
-0.000846242
1.43542e-06
-0.0013822
-4.45939e-06
-0.00189965
-1.75498e-05
-0.00239311
-3.99413e-05
-0.00285772
-7.33497e-05
-0.00328985
-0.000119009
-0.00368781
-0.000177639
-0.00405221
-0.000249448
-0.00438621
-0.000334129
-0.0046954
-0.000430777
-0.00498738
-0.000537692
-0.00527079
-0.00555302
-0.000652108
4.11537e-07
-0.000297289
-5.45727e-07
-0.000845284
-5.159e-06
-0.00137759
-1.57538e-05
-0.00188906
-3.45164e-05
-0.00237435
-6.33473e-05
-0.00282889
-0.000103747
-0.00324945
-0.000156748
-0.00363481
-0.000222911
-0.00398605
-0.000302363
-0.00430676
-0.000394825
-0.00460294
-0.000499528
-0.00488268
-0.000614906
-0.00515542
-4.20037e-07
-0.000296869
-3.62989e-06
-0.000842075
-1.17999e-05
-0.00136942
-2.70784e-05
-0.00187378
-5.14537e-05
-0.00234997
-8.66093e-05
-0.00279373
-0.000133823
-0.00320224
-0.000193923
-0.00357471
-0.000267306
-0.00391266
-0.000354022
-0.00422004
-0.000453846
-0.00450311
-0.000566243
-0.00477028
-1.24983e-06
-0.000295619
-6.73605e-06
-0.000836588
-1.84603e-05
-0.0013577
-3.83892e-05
-0.00185385
-6.83005e-05
-0.00232006
-0.000109651
-0.00275238
-0.00016349
-0.0031484
-0.000230434
-0.00350776
-0.000310713
-0.00383238
-0.000404286
-0.00412647
-0.000510987
-0.00439641
-2.08979e-06
-0.00029353
-9.85132e-06
-0.000828827
-2.51137e-05
-0.00134243
-4.96445e-05
-0.00182932
-8.49997e-05
-0.00228471
-0.000132403
-0.00270498
-0.000192671
-0.00308813
-0.000266205
-0.00343423
-0.000353056
-0.00374553
-0.000453065
-0.00402646
-0.00428339
-2.93257e-06
-0.000290597
-1.29629e-05
-0.000818796
-3.17345e-05
-0.00132366
-6.08041e-05
-0.00180025
-0.000101498
-0.00224401
-0.000154801
-0.00265167
-0.000221298
-0.00302163
-0.000301175
-0.00335435
-0.00039429
-0.00365242
-0.000500327
-0.00392042
-3.7743e-06
-0.000286823
-1.60581e-05
-0.000806513
-3.82978e-05
-0.00130142
-7.18296e-05
-0.00176672
-0.000117744
-0.0021981
-0.000176787
-0.00259263
-0.000249314
-0.00294911
-0.000335299
-0.00326836
-0.000434407
-0.00355331
-4.60926e-06
-0.000282213
-1.91207e-05
-0.000792001
-4.47738e-05
-0.00127577
-8.26769e-05
-0.00172881
-0.000133681
-0.0021471
-0.000198294
-0.00252802
-0.000276651
-0.00287075
-0.000368526
-0.00317649
-0.00344843
-5.43798e-06
-0.000276775
-2.21465e-05
-0.000775293
-5.115e-05
-0.00124677
-9.33229e-05
-0.00168664
-0.000149275
-0.00209114
-0.000219282
-0.00245801
-0.000303264
-0.00278677
-0.000400815
-0.00307894
-6.25483e-06
-0.000270521
-2.51197e-05
-0.000756428
-5.73976e-05
-0.00121449
-0.000103726
-0.00164031
-0.000164472
-0.0020304
-0.000239685
-0.0023828
-0.000329078
-0.00269737
-7.05648e-06
-0.000263464
-2.8029e-05
-0.000735455
-6.34946e-05
-0.00117902
-0.000113851
-0.00158996
-0.000179227
-0.00196502
-0.000259444
-0.00230258
-0.0026028
-7.83972e-06
-0.000255624
-3.08636e-05
-0.000712432
-6.94202e-05
-0.00114047
-0.000123667
-0.00153571
-0.000193495
-0.00189519
-0.000278508
-0.00221757
-0.00250327
-8.60149e-06
-0.000247023
-3.36133e-05
-0.00068742
-7.51545e-05
-0.00109892
-0.000133144
-0.00147772
-0.000207239
-0.0018211
-0.000296829
-0.00212798
-9.33888e-06
-0.000237684
-3.62686e-05
-0.00066049
-8.06796e-05
-0.00105451
-0.000142254
-0.00141615
-0.000220423
-0.00174293
-0.00203403
-1.00492e-05
-0.000227635
-3.88206e-05
-0.000631719
-8.59787e-05
-0.00100736
-0.000150974
-0.00135115
-0.000233015
-0.00166089
-1.073e-05
-0.000216905
-4.12612e-05
-0.000601187
-9.10368e-05
-0.00095758
-0.000159282
-0.0012829
-0.00157518
-1.13789e-05
-0.000205526
-4.35831e-05
-0.000568983
-9.584e-05
-0.000905323
-0.000167156
-0.00121159
-0.00148602
-1.19939e-05
-0.000193532
-4.57794e-05
-0.000535198
-0.000100376
-0.000850726
-0.000174581
-0.00113738
-1.25729e-05
-0.000180959
-4.7844e-05
-0.000499926
-0.000104633
-0.000793937
-0.00106048
-1.31143e-05
-0.000167845
-4.97712e-05
-0.000463269
-0.000108602
-0.000735106
-0.000981065
-1.36163e-05
-0.000154229
-5.1556e-05
-0.00042533
-0.000112272
-0.00067439
-0.000899338
-1.40776e-05
-0.000140151
-5.31935e-05
-0.000386214
-0.000115636
-0.000611947
-1.44967e-05
-0.000125654
-5.46796e-05
-0.000346031
-0.00054794
-1.48723e-05
-0.000110782
-5.60104e-05
-0.000304893
-0.000482536
-1.52035e-05
-9.55784e-05
-5.71825e-05
-0.000262914
-0.000415903
-1.54893e-05
-8.00892e-05
-5.81929e-05
-0.00022021
-0.000348212
-1.57287e-05
-6.43605e-05
-5.90389e-05
-0.0001769
-0.000279636
-1.59211e-05
-4.84395e-05
-5.97183e-05
-0.000133103
-0.00021035
-1.60658e-05
-3.23736e-05
-6.02295e-05
-8.89391e-05
-0.000140531
-1.61626e-05
-1.6211e-05
-6.05709e-05
-4.45308e-05
-7.03545e-05
-1.6211e-05
-1.25125e-12
-6.07418e-05
-3.44694e-12
-5.69682e-12
-1.6211e-05
1.6211e-05
-6.07418e-05
4.45308e-05
7.03545e-05
-1.61626e-05
3.23736e-05
-6.05709e-05
8.89391e-05
0.000140531
-1.60658e-05
4.84395e-05
-6.02295e-05
0.000133103
0.00021035
-1.59211e-05
6.43605e-05
-5.97183e-05
0.0001769
0.000279636
-1.57287e-05
8.00892e-05
-5.90389e-05
0.00022021
0.000348212
-1.54893e-05
9.55784e-05
-5.81929e-05
0.000262914
0.000415903
-1.52035e-05
0.000110782
-5.71825e-05
0.000304893
0.000482536
-1.48723e-05
0.000125654
-5.60104e-05
0.000346031
0.00054794
-1.44967e-05
0.000140151
-5.46796e-05
0.000386214
0.000611947
-1.40776e-05
0.000154229
-5.31935e-05
0.00042533
-0.000115636
0.00067439
0.000899338
-1.36163e-05
0.000167845
-5.1556e-05
0.000463269
-0.000112272
0.000735106
0.000981065
-1.31143e-05
0.000180959
-4.97713e-05
0.000499926
-0.000108602
0.000793937
0.00106048
-1.25729e-05
0.000193532
-4.7844e-05
0.000535198
-0.000104633
0.000850726
0.00113738
-1.19939e-05
0.000205526
-4.57794e-05
0.000568983
-0.000100376
0.000905323
-0.000174581
0.00121159
0.00148602
-1.13789e-05
0.000216905
-4.35831e-05
0.000601187
-9.584e-05
0.00095758
-0.000167156
0.0012829
0.00157518
-1.073e-05
0.000227635
-4.12612e-05
0.000631719
-9.10368e-05
0.00100736
-0.000159282
0.00135115
0.00166089
-1.00492e-05
0.000237684
-3.88206e-05
0.00066049
-8.59787e-05
0.00105451
-0.000150974
0.00141615
-0.000233015
0.00174293
0.00203403
-9.33888e-06
0.000247023
-3.62686e-05
0.00068742
-8.06796e-05
0.00109892
-0.000142254
0.00147772
-0.000220423
0.0018211
0.00212798
-8.60149e-06
0.000255624
-3.36133e-05
0.000712432
-7.51545e-05
0.00114047
-0.000133144
0.00153571
-0.000207239
0.00189519
-0.000296829
0.00221757
0.00250327
-7.83972e-06
0.000263464
-3.08636e-05
0.000735455
-6.94202e-05
0.00117902
-0.000123667
0.00158996
-0.000193495
0.00196502
-0.000278508
0.00230258
0.0026028
-7.05648e-06
0.000270521
-2.8029e-05
0.000756428
-6.34946e-05
0.00121449
-0.000113851
0.00164031
-0.000179227
0.0020304
-0.000259444
0.0023828
-0.000354023
0.00269737
0.00297594
-6.25483e-06
0.000276775
-2.51197e-05
0.000775293
-5.73976e-05
0.00124677
-0.000103726
0.00168664
-0.000164472
0.00209114
-0.000239685
0.00245801
-0.000329078
0.00278677
0.00307894
-5.43798e-06
0.000282213
-2.21465e-05
0.000792001
-5.115e-05
0.00127577
-9.33229e-05
0.00172881
-0.000149275
0.0021471
-0.000219282
0.00252802
-0.000303264
0.00287075
-0.000400815
0.00317649
0.00344843
-4.60926e-06
0.000286823
-1.91207e-05
0.000806513
-4.47738e-05
0.00130142
-8.26769e-05
0.00176672
-0.000133681
0.0021981
-0.000198294
0.00259263
-0.000276651
0.00294911
-0.000368526
0.00326836
0.00355331
-3.7743e-06
0.000290597
-1.60581e-05
0.000818796
-3.82978e-05
0.00132366
-7.18296e-05
0.00180025
-0.000117744
0.00224401
-0.000176787
0.00265167
-0.000249314
0.00302163
-0.000335299
0.00335435
-0.000434407
0.00365242
0.00392042
-2.93257e-06
0.00029353
-1.29629e-05
0.000828827
-3.17345e-05
0.00134243
-6.08041e-05
0.00182932
-0.000101498
0.00228471
-0.000154801
0.00270498
-0.000221298
0.00308813
-0.000301175
0.00343423
-0.00039429
0.00374553
-0.000500327
0.00402646
0.00428339
-2.08979e-06
0.000295619
-9.85132e-06
0.000836588
-2.51137e-05
0.0013577
-4.96445e-05
0.00185385
-8.49997e-05
0.00232006
-0.000132403
0.00275238
-0.000192671
0.0031484
-0.000266205
0.00350776
-0.000353056
0.00383238
-0.000453065
0.00412647
0.00439641
-1.24983e-06
0.000296869
-6.73605e-06
0.000842075
-1.84603e-05
0.00136942
-3.83892e-05
0.00187378
-6.83005e-05
0.00234997
-0.000109651
0.00279373
-0.00016349
0.00320224
-0.000230434
0.00357471
-0.000310713
0.00391266
-0.000404286
0.00422004
-0.000510987
0.00450311
0.00477028
-4.20037e-07
0.000297289
-3.62989e-06
0.000845284
-1.17999e-05
0.00137759
-2.70784e-05
0.00188906
-5.14537e-05
0.00237435
-8.66093e-05
0.00282889
-0.000133823
0.00324945
-0.000193923
0.00363481
-0.000267306
0.00398605
-0.000354022
0.00430676
-0.000453846
0.00460294
-0.000566243
0.00488268
0.00515542
4.11537e-07
0.000296878
-5.45727e-07
0.000846242
-5.159e-06
0.0013822
-1.57538e-05
0.00189965
-3.45164e-05
0.00239311
-6.33473e-05
0.00285772
-0.000103747
0.00328985
-0.000156748
0.00368781
-0.000222911
0.00405221
-0.000302363
0.00438621
-0.000394825
0.0046954
-0.000499528
0.00498738
-0.000614906
0.00527079
0.00555302
1.22125e-06
0.000295656
2.50455e-06
0.000844958
1.43542e-06
0.00138327
-4.45939e-06
0.00190554
-1.75498e-05
0.0024062
-3.99413e-05
0.00288011
-7.33497e-05
0.00332326
-0.000119009
0.00373347
-0.000177639
0.00411084
-0.000249448
0.00445802
-0.000334129
0.00478008
-0.000430777
0.00508403
-0.000537692
0.00537771
0.00566744
-0.000652108
2.01399e-06
0.000293642
5.50494e-06
0.000841467
7.95459e-06
0.00138082
6.75849e-06
0.00190674
-6.16643e-07
0.00241358
-1.64751e-05
0.00289597
-4.27326e-05
0.00334952
-8.08222e-05
0.00377156
-0.000131625
0.00416164
-0.000195446
0.00452184
-0.000271987
0.00485662
-0.00036029
0.00517233
-0.00045865
0.00547607
0.00577341
-0.000564623
2.78664e-06
0.000290856
8.44277e-06
0.000835811
1.43694e-05
0.0013749
1.7851e-05
0.00190326
1.62061e-05
0.00241522
6.95931e-06
0.00290521
-1.20078e-05
0.00336848
-4.23215e-05
0.00380187
-8.50292e-05
0.00420435
-0.00014055
0.00457736
-0.000208638
0.00492471
-0.000288349
0.00525205
-0.000378046
0.00556577
0.00587092
-0.000475553
3.53478e-06
0.000287321
1.13041e-05
0.000828042
2.06503e-05
0.00136555
2.87688e-05
0.00189514
3.28529e-05
0.00241114
3.02645e-05
0.0029078
1.87016e-05
0.00338005
-3.65397e-06
0.00382423
-3.80263e-05
0.00423872
-8.49677e-05
0.0046243
-0.000144323
0.00498406
-0.000215217
0.00532294
-0.000296122
0.00564667
0.00595987
-0.000385076
4.25457e-06
0.000283066
1.4075e-05
0.000818222
2.67671e-05
0.00135286
3.94607e-05
0.00188245
4.92447e-05
0.00240136
5.33381e-05
0.00290371
4.9265e-05
0.00338412
3.50187e-05
0.00383847
9.19527e-06
0.00426455
-2.89165e-05
0.00466241
-7.92851e-05
0.00503443
-0.000141147
0.0053848
-0.000213108
0.00571863
0.00604014
-0.000293375
4.94239e-06
0.000278124
1.67416e-05
0.000806422
3.26897e-05
0.00133691
4.98745e-05
0.00186526
6.53036e-05
0.00238593
7.60724e-05
0.00289294
7.95448e-05
0.00338065
7.35306e-05
0.00384449
5.64372e-05
0.00428164
2.73786e-05
0.00469147
-1.37693e-05
0.00507558
-6.63861e-05
0.00543742
-0.000129233
0.00578148
0.00611154
-0.00020064
5.59476e-06
0.000272529
1.92906e-05
0.000792727
3.83884e-05
0.00131781
5.99583e-05
0.00184369
8.09503e-05
0.00236493
9.83575e-05
0.00287553
0.000109399
0.00336961
0.000111706
0.00384218
0.000103495
0.00428985
8.36868e-05
0.00471128
5.19776e-05
0.00510729
8.81936e-06
0.00548058
-4.47012e-05
0.005835
0.00617391
-0.000107067
6.20845e-06
0.000266321
2.17091e-05
0.000777226
4.38344e-05
0.00129569
6.96607e-05
0.00181787
9.61057e-05
0.00233849
0.000120082
0.00285156
0.00013868
0.00335101
0.000149365
0.00383149
0.000150156
0.00428906
0.000139772
0.00472166
0.000117705
0.00512936
8.4217e-05
0.00551406
4.01506e-05
0.00587907
0.00622776
-1.37031e-05
6.78048e-06
0.00025954
2.39853e-05
0.000760021
4.9e-05
0.00127067
7.8932e-05
0.00178793
0.000110692
0.00230673
0.000141135
0.00282111
0.000167243
0.0033249
0.000186324
0.00381241
0.000196206
0.00427918
0.000195393
0.00472248
0.00018316
0.00514159
0.000159556
0.00553767
0.000125291
0.00591333
0.00627142
8.16355e-05
7.30819e-06
0.000252232
2.61079e-05
0.000741221
5.38592e-05
0.00124292
8.77244e-05
0.00175407
0.000124632
0.00226982
0.000161406
0.00278434
0.00019494
0.00329137
0.0002224
0.00378495
0.000241424
0.00426015
0.000250301
0.0047136
0.000248078
0.00514381
0.000234579
0.00555117
0.000210331
0.00593758
0.00630535
0.000176401
7.78925e-06
0.000244443
2.8067e-05
0.000720944
5.83881e-05
0.0012126
9.5993e-05
0.00171646
0.000137854
0.00222796
0.000180788
0.0027414
0.000221625
0.00325053
0.000257406
0.00374917
0.000285589
0.00423197
0.000304245
0.00469494
0.000312181
0.00513588
0.000308985
0.00555436
0.000294969
0.0059516
0.00632929
0.00027103
8.22173e-06
0.000236221
2.9854e-05
0.000699311
6.25651e-05
0.00117989
0.000103696
0.00167533
0.000150288
0.00218137
0.000199179
0.00269251
0.000247158
0.00320255
0.00029116
0.00370517
0.000328478
0.00419465
0.000356967
0.00466646
0.000375189
0.00511765
0.000382481
0.00554707
0.000378925
0.00595515
0.00634297
0.000365241
8.60412e-06
0.000227617
3.14616e-05
0.000676454
6.63716e-05
0.00114498
0.000110797
0.00163091
0.000161872
0.0021303
0.000216481
0.0026379
0.0002714
0.00314763
0.000323482
0.00365309
0.00036987
0.00414826
0.00040821
0.00462812
0.000436816
0.00508905
0.000454765
0.00552912
0.000461898
0.00594802
0.00634614
0.000458732
8.93535e-06
0.000218682
3.2884e-05
0.000652505
6.97917e-05
0.00110807
0.000117263
0.00158344
0.000172547
0.00207501
0.000232604
0.00257785
0.000294223
0.00308601
0.0003542
0.00359311
0.000409547
0.00409292
0.000457714
0.00457995
0.000496771
0.00504999
0.000525526
0.00550037
0.000543564
0.00592998
0.00633852
0.000551184
9.21479e-06
0.000209467
3.4117e-05
0.000627603
7.28129e-05
0.00106937
0.000123065
0.00153318
0.000182263
0.00201581
0.000247466
0.00251264
0.000315504
0.00301797
0.000383145
0.00352547
0.000447295
0.00402877
0.000505222
0.00452202
0.000554757
0.00500046
0.000594439
0.00546068
0.000623581
0.00590084
0.00631985
0.000642247
9.4423e-06
0.000200025
3.51582e-05
0.000601887
7.5426e-05
0.00102911
0.000128183
0.00148043
0.000190977
0.00195302
0.000260993
0.00244263
0.000335133
0.00294383
0.000410162
0.00345044
0.000482908
0.00395602
0.000550478
0.00445445
0.000610475
0.00494046
0.00066117
0.00540999
0.000701592
0.00586042
0.0062899
0.000731546
9.61816e-06
0.000190406
3.60067e-05
0.000575499
7.76257e-05
0.000987488
0.000132599
0.00142545
0.000198654
0.00188696
0.000273123
0.00236816
0.000353008
0.00286395
0.000435105
0.00336835
0.000516189
0.00387494
0.000593233
0.00437741
0.000663629
0.00487006
0.000725379
0.00534824
0.000777223
0.00580857
0.00624843
0.000818687
9.74317e-06
0.000180663
3.66635e-05
0.000548578
7.94098e-05
0.000944742
0.000136305
0.00136856
0.000205269
0.001818
0.000283806
0.00228962
0.000369044
0.00277871
0.000457841
0.00327955
0.000546954
0.00378582
0.000633248
0.00429111
0.000713921
0.00478939
0.00078672
0.00527544
0.000850089
0.00574521
0.00619527
0.000903253
9.81706e-06
0.000170846
3.71283e-05
0.000521267
8.07762e-05
0.000901094
0.00013929
0.00131005
0.000210798
0.00174649
0.000292994
0.00220743
0.00038316
0.00268854
0.000478247
0.00318446
0.000575026
0.00368904
0.000670285
0.00419586
0.000761056
0.00469862
0.000844841
0.00519165
0.000919788
0.00567026
0.00613025
0.000984802
9.84422e-06
0.000161002
3.74108e-05
0.0004937
8.17384e-05
0.000856766
0.000141568
0.00125022
0.000215247
0.00167281
0.000300677
0.002122
0.000395317
0.0025939
0.000496243
0.00308353
0.000600273
0.00358501
0.000704154
0.00409197
0.00080478
0.00459799
0.000899426
0.00509701
0.000985946
0.00558374
0.00605329
0.00106291
9.82516e-06
0.000151177
3.7514e-05
0.000466012
8.23011e-05
0.000811979
0.000143143
0.00118937
0.000218612
0.00159734
0.000306834
0.00203377
0.000405468
0.00249527
0.000511741
0.00297726
0.000622557
0.0034742
0.000734655
0.00397988
0.000844824
0.00448782
0.000950136
0.0049917
0.00104816
0.00548571
0.00596432
0.00113713
9.76224e-06
0.000141415
3.74449e-05
0.000438329
8.24765e-05
0.000766948
0.000144029
0.00112782
0.000220906
0.00152047
0.000311467
0.00194321
0.000413591
0.00239315
0.000524687
0.00286617
0.000641774
0.00335711
0.000761623
0.00386003
0.000880954
0.00436849
0.000996664
0.00487599
0.00110605
0.00537633
0.00586338
0.00120699
9.65815e-06
0.000131756
3.7212e-05
0.000410775
8.228e-05
0.00072188
0.000144247
0.00106585
0.00022215
0.00144256
0.000314591
0.00185077
0.000419685
0.00228805
0.000535046
0.0027508
0.000657845
0.00323431
0.000784922
0.00373295
0.000912963
0.00424045
0.00103873
0.00475022
0.00115925
0.0052558
0.00575056
0.00127208
9.51583e-06
0.000122241
3.68249e-05
0.000383466
8.17296e-05
0.000676975
0.000143823
0.00100376
0.000222375
0.00136401
0.000316235
0.00175691
0.000423766
0.00218052
0.000542811
0.00263176
0.000670722
0.0031064
0.000804446
0.00359923
0.000940679
0.00410422
0.00107607
0.00461483
0.00120744
0.00512443
0.00562603
0.00133196
9.33842e-06
0.000112902
3.62944e-05
0.00035651
8.08459e-05
0.000632423
0.000142788
0.000941819
0.000221619
0.00128518
0.000316438
0.00166209
0.000425867
0.00207109
0.000547996
0.00250963
0.000680386
0.00297401
0.000820128
0.00345948
0.000963966
0.00396038
0.00110848
0.00447032
0.0012503
0.00498262
0.00549006
0.00138626
9.12923e-06
0.000103773
3.56315e-05
0.000330008
7.96513e-05
0.000588404
0.000141177
0.000880294
0.000219928
0.00120643
0.000315255
0.00156676
0.000426041
0.00196031
0.00055064
0.00238503
0.000686849
0.0028378
0.000831935
0.0033144
0.000982734
0.00380958
0.0011358
0.00431726
0.00128759
0.00143464
8.8916e-06
9.48813e-05
3.48481e-05
0.000304051
7.81695e-05
0.000545082
0.000139027
0.000819436
0.000217355
0.0011281
0.000312747
0.00147137
0.000424354
0.0018487
0.000550805
0.00225858
0.000690152
0.00269846
0.000839875
0.00316467
0.000996936
8.62891e-06
8.62524e-05
3.39561e-05
0.000278724
7.64252e-05
0.000502613
0.000136378
0.000759483
0.000213954
0.00105053
0.000308984
0.00137634
0.000420887
0.0017368
0.000548571
0.0021309
0.000690366
8.3444e-06
7.7908e-05
3.29671e-05
0.000254101
7.4443e-05
0.000461137
0.000133272
0.000700654
0.000209786
0.000974014
0.000304045
0.00128208
0.00041573
0.00162511
8.04117e-06
6.98669e-05
3.18926e-05
0.00023025
7.2247e-05
0.000420783
0.000129749
0.000643152
0.000204909
0.000898854
0.000298007
7.72206e-06
6.21448e-05
3.07431e-05
0.000207229
6.98601e-05
0.000381666
0.000125848
7.38955e-06
5.47552e-05
2.95282e-05
0.00018509
7.04579e-06
4.77095e-05
0.00515074
0.0009873
-0.00515324
0.00514164
0.00107201
0.00512549
0.00115328
0.00510181
0.00123067
0.00507018
0.00130371
0.00503019
0.00137195
0.00498148
0.00143497
0.00149237
0.00541548
0.000981595
-0.00540978
0.00541547
0.00107202
0.00540926
0.0011595
0.00539635
0.00124358
0.00537627
0.00132379
0.00534854
0.00139968
0.00531273
0.00147078
0.00153666
0.00567408
0.000968138
-0.00566062
0.00568282
0.00106328
0.00568634
0.00115597
0.00568415
0.00124577
0.00567572
0.00133222
0.00566054
0.00141486
0.0056381
0.00149322
0.00156685
0.00592737
0.000947836
-0.00590706
0.00594401
0.00104664
0.0059565
0.00114348
0.00596434
0.00123793
0.005967
0.00132957
0.00596392
0.00141794
0.00595455
0.00150259
0.00158305
0.00617727
0.000921844
-0.00615128
0.00620068
0.00102323
0.00622105
0.00112311
0.00623788
0.00122109
0.00625067
0.00131678
0.00625885
0.00140976
0.00626186
0.00149958
0.00158579
0.00642617
0.000891414
-0.00639574
0.00645505
0.000994351
0.00648198
0.00109618
0.00650651
0.00119656
0.00652815
0.00129514
0.00654637
0.00139153
0.00656063
0.00148532
0.00157609
0.00667654
0.00085777
-0.00664289
0.00670958
0.000961304
0.00674169
0.00106407
0.00677247
0.00116579
0.00680149
0.00126613
0.00682827
0.00136475
0.0068523
0.00146129
0.00155537
0.00693073
0.000821997
-0.00689496
0.00696673
0.000925301
0.00700269
0.00102812
0.00703829
0.00113019
0.00707317
0.00123125
0.00710691
0.001331
0.00713907
0.00142913
0.0015253
0.00719083
0.000784981
-0.00715382
0.00722876
0.000887369
0.00726741
0.00098947
0.00730653
0.00109107
0.00734583
0.00119195
0.00738498
0.00129185
0.00742361
0.0013905
0.00148761
0.00745858
0.000747413
-0.00742101
0.00749762
0.000848329
0.00753799
0.000949099
0.00757952
0.00104955
0.00762199
0.00114948
0.00766515
0.00124868
0.00770871
0.00134694
0.001444
0.00773533
0.000709785
-0.0076977