/*--------------------------------*- C++ -*----------------------------------*\
  =========                 |
  \\      /  F ield         | OpenFOAM: The Open Source CFD Toolbox
   \\    /   O peration     | Website:  https://openfoam.org
    \\  /    A nd           | Version:  7
     \\/     M anipulation  |
\*---------------------------------------------------------------------------*/
FoamFile
{
    version     2.0;
    format      ascii;
    class       volScalarField;
    location    "70";
    object      p;
}
// * * * * * * * * * * * * * * * * * * * * * * * * * * * * * * * * * * * * * //

dimensions      [0 2 -2 0 0 0 0];

internalField   nonuniform List<scalar> 
8500
(
-0.351286
-0.361759
-0.368959
-0.369638
-0.361212
-0.342624
-0.315336
-0.282472
-0.248317
-0.216374
-0.18946
-0.169169
-0.156774
-0.15367
-0.160848
-0.17651
-0.194943
-0.20798
-0.208993
-0.19608
-0.172809
-0.145519
-0.119886
-0.0996851
-0.086303
-0.0803519
-0.0800168
-0.0883815
-0.103674
-0.12371
-0.135513
-0.134199
-0.119383
-0.0968287
-0.0744846
-0.058927
-0.0473194
-0.0444335
-0.0432101
-0.0576946
-0.0609148
-0.0596281
-0.0411485
-0.0137459
-0.343273
-0.352207
-0.35835
-0.358576
-0.35038
-0.332681
-0.306812
-0.275671
-0.243324
-0.213114
-0.187791
-0.168955
-0.157975
-0.156363
-0.165077
-0.182093
-0.201389
-0.214572
-0.215048
-0.201083
-0.176531
-0.147984
-0.121281
-0.100158
-0.085964
-0.0792808
-0.0782678
-0.0858387
-0.100333
-0.119793
-0.131483
-0.130686
-0.116604
-0.094941
-0.0733603
-0.0586463
-0.0475694
-0.0454067
-0.044734
-0.0599001
-0.0634818
-0.0619897
-0.0428878
-0.0143216
-0.33503
-0.342376
-0.347427
-0.347183
-0.33922
-0.322415
-0.297972
-0.268563
-0.238036
-0.209572
-0.185856
-0.168496
-0.158961
-0.158879
-0.169157
-0.187537
-0.207684
-0.221005
-0.220941
-0.205934
-0.180119
-0.150336
-0.122581
-0.100559
-0.0855702
-0.0781658
-0.0764865
-0.0832733
-0.0969784
-0.115866
-0.127435
-0.127142
-0.113779
-0.0930047
-0.0721933
-0.0583291
-0.0477907
-0.0463604
-0.0462514
-0.0621033
-0.0660501
-0.0643572
-0.0446272
-0.0148955
-0.326599
-0.332306
-0.33623
-0.335498
-0.327751
-0.311844
-0.288823
-0.261151
-0.232447
-0.205738
-0.183641
-0.167776
-0.15972
-0.161205
-0.173072
-0.192821
-0.21381
-0.227263
-0.226661
-0.210625
-0.183568
-0.152572
-0.123789
-0.100888
-0.085125
-0.0770114
-0.0746777
-0.0806906
-0.0936142
-0.111932
-0.123373
-0.123568
-0.11091
-0.0910214
-0.0709843
-0.057975
-0.0479826
-0.047293
-0.0477603
-0.0643017
-0.068617
-0.0667284
-0.0463651
-0.0154669
-0.318019
-0.322042
-0.324797
-0.32355
-0.316001
-0.300986
-0.279375
-0.253436
-0.226552
-0.201601
-0.181133
-0.166783
-0.160238
-0.163326
-0.176804
-0.197928
-0.219749
-0.233328
-0.232195
-0.215146
-0.186875
-0.154692
-0.124905
-0.10115
-0.0846321
-0.0758219
-0.0728462
-0.078096
-0.0902461
-0.107996
-0.119302
-0.119969
-0.108
-0.0889927
-0.069734
-0.0575837
-0.048144
-0.048203
-0.0492588
-0.0664928
-0.0711799
-0.0691007
-0.0480998
-0.0160354
-0.309334
-0.311626
-0.313171
-0.311374
-0.303993
-0.289862
-0.269638
-0.24542
-0.220347
-0.197155
-0.178321
-0.165507
-0.160506
-0.165229
-0.18034
-0.202838
-0.225482
-0.239186
-0.237531
-0.219492
-0.190036
-0.156697
-0.125931
-0.101347
-0.084095
-0.0746017
-0.0709966
-0.0754949
-0.0868792
-0.104064
-0.115224
-0.116347
-0.105051
-0.0869205
-0.068443
-0.0571546
-0.0482741
-0.0490886
-0.0507449
-0.0686741
-0.0737362
-0.0714717
-0.0498299
-0.0166006
-0.300585
-0.301103
-0.301394
-0.299008
-0.291778
-0.278464
-0.259622
-0.237107
-0.21383
-0.192391
-0.175198
-0.163938
-0.160512
-0.166904
-0.183665
-0.207536
-0.230993
-0.244823
-0.242657
-0.223653
-0.193047
-0.158586
-0.126869
-0.101481
-0.0835175
-0.0733549
-0.0691334
-0.0728921
-0.0835184
-0.10014
-0.111144
-0.112705
-0.102066
-0.0848065
-0.0671123
-0.0566875
-0.0483721
-0.0499481
-0.0522168
-0.0708433
-0.0762834
-0.073839
-0.0515538
-0.0171619
-0.291814
-0.290518
-0.28951
-0.286489
-0.279371
-0.266834
-0.24934
-0.228504
-0.207001
-0.187307
-0.171757
-0.16207
-0.160252
-0.168339
-0.186765
-0.212004
-0.236264
-0.250223
-0.247563
-0.227625
-0.195907
-0.160359
-0.127722
-0.101556
-0.0829029
-0.0720858
-0.0672611
-0.0702927
-0.0801685
-0.096228
-0.107066
-0.109046
-0.0990478
-0.0826527
-0.0657427
-0.0561821
-0.0484372
-0.0507801
-0.0536724
-0.072998
-0.078819
-0.0762003
-0.0532698
-0.017719
-0.283062
-0.279918
-0.277565
-0.273857
-0.266849
-0.255002
-0.238806
-0.219617
-0.199862
-0.1819
-0.167996
-0.159899
-0.159718
-0.169528
-0.189628
-0.216225
-0.241281
-0.255373
-0.252239
-0.2314
-0.198612
-0.162018
-0.128491
-0.101573
-0.0822548
-0.0707984
-0.0653838
-0.0677014
-0.0768344
-0.0923326
-0.102993
-0.105374
-0.0959985
-0.080461
-0.0643353
-0.0556384
-0.0484687
-0.0515828
-0.05511
-0.0751359
-0.0813405
-0.078553
-0.0549765
-0.0182713
-0.274371
-0.269348
-0.265603
-0.261154
-0.254143
-0.242986
-0.228037
-0.210457
-0.192416
-0.176173
-0.163912
-0.157424
-0.158907
-0.170463
-0.192242
-0.220187
-0.246029
-0.260262
-0.256677
-0.234974
-0.201161
-0.163562
-0.129179
-0.101538
-0.0815766
-0.0694969
-0.0635057
-0.0651229
-0.0735204
-0.088458
-0.0989296
-0.101691
-0.0929211
-0.0782336
-0.062891
-0.0550561
-0.0484659
-0.0523548
-0.0565275
-0.0772546
-0.0838455
-0.0808948
-0.0566722
-0.0188183
-0.26578
-0.258853
-0.253673
-0.248422
-0.241331
-0.230803
-0.217055
-0.201037
-0.184672
-0.170128
-0.15951
-0.154645
-0.15782
-0.171138
-0.194597
-0.223874
-0.250495
-0.264878
-0.260867
-0.238342
-0.203553
-0.164993
-0.129789
-0.101451
-0.0808717
-0.0681849
-0.0616306
-0.0625614
-0.0702309
-0.0846081
-0.0948788
-0.0980008
-0.0898187
-0.0759725
-0.0614112
-0.0544352
-0.0484281
-0.0530944
-0.0579232
-0.0793521
-0.0863318
-0.0832233
-0.0583555
-0.0193597
-0.257327
-0.248479
-0.241821
-0.235709
-0.228467
-0.218521
-0.205844
-0.191372
-0.17664
-0.163773
-0.154794
-0.151568
-0.156455
-0.171549
-0.196683
-0.227276
-0.254667
-0.26921
-0.264804
-0.2415
-0.205785
-0.166313
-0.130322
-0.101317
-0.0801432
-0.0668664
-0.0597625
-0.0600213
-0.0669703
-0.0807869
-0.0908444
-0.0943063
-0.086694
-0.0736801
-0.0598969
-0.0537758
-0.0483548
-0.0538002
-0.0592952
-0.0814261
-0.0887971
-0.0855362
-0.0600246
-0.0198949
-0.249048
-0.238268
-0.230095
-0.22306
-0.215593
-0.20617
-0.194442
-0.181482
-0.168333
-0.157118
-0.149773
-0.148197
-0.154816
-0.171694
-0.198492
-0.23038
-0.258533
-0.27325
-0.26848
-0.244445
-0.207858
-0.167522
-0.130783
-0.101138
-0.0793945
-0.0655449
-0.0579047
-0.0575066
-0.0637426
-0.0769983
-0.0868302
-0.0906108
-0.0835501
-0.0713587
-0.0583494
-0.0530779
-0.0482455
-0.0544706
-0.0606418
-0.0834747
-0.0912392
-0.0878311
-0.0616782
-0.0204235
-0.240979
-0.228263
-0.218542
-0.210524
-0.202754
-0.193753
-0.182921
-0.171388
-0.15977
-0.150178
-0.144458
-0.144544
-0.152908
-0.171571
-0.200017
-0.233179
-0.262084
-0.276989
-0.271891
-0.247175
-0.209771
-0.168622
-0.131174
-0.100918
-0.0786285
-0.064224
-0.0560609
-0.055021
-0.0605518
-0.073246
-0.0828398
-0.0869178
-0.0803903
-0.0690107
-0.0567703
-0.0523418
-0.0480996
-0.0551041
-0.0619612
-0.0854958
-0.093656
-0.0901057
-0.0633147
-0.020945
-0.233152
-0.218504
-0.207208
-0.198149
-0.189994
-0.181312
-0.171308
-0.161116
-0.150971
-0.142971
-0.138866
-0.140619
-0.150737
-0.171182
-0.201254
-0.235663
-0.265313
-0.28042
-0.275032
-0.249686
-0.211524
-0.169616
-0.131497
-0.100659
-0.0778482
-0.0629069
-0.0542342
-0.0525682
-0.0574017
-0.0695336
-0.0788769
-0.0832305
-0.0772176
-0.0666385
-0.0551608
-0.0515676
-0.0479169
-0.0556995
-0.0632516
-0.0874875
-0.0960456
-0.092358
-0.0649326
-0.0214591
-0.225596
-0.209032
-0.196139
-0.185982
-0.177359
-0.1689
-0.15963
-0.150693
-0.141964
-0.135518
-0.133014
-0.136437
-0.148312
-0.170528
-0.202199
-0.237827
-0.268212
-0.283537
-0.277899
-0.251979
-0.213119
-0.170504
-0.131756
-0.100366
-0.0770566
-0.0615969
-0.0524278
-0.0501516
-0.0542958
-0.0658647
-0.0749454
-0.0795528
-0.0740355
-0.0642449
-0.0535225
-0.0507557
-0.0476969
-0.0562552
-0.0645115
-0.0894481
-0.0984061
-0.0945857
-0.0665303
-0.0219652
-0.21834
-0.199881
-0.185378
-0.174071
-0.164898
-0.156562
-0.147921
-0.140155
-0.132777
-0.127844
-0.126924
-0.132014
-0.145644
-0.169611
-0.20285
-0.239666
-0.270775
-0.286337
-0.280489
-0.254053
-0.214555
-0.17129
-0.131953
-0.10004
-0.0762564
-0.0602969
-0.0506445
-0.0477744
-0.0512377
-0.0622428
-0.0710488
-0.0758907
-0.0708472
-0.0618322
-0.0518571
-0.0499064
-0.0474393
-0.05677
-0.0657393
-0.0913756
-0.100736
-0.0967866
-0.0681065
-0.022463
-0.211409
-0.191085
-0.174968
-0.162464
-0.152657
-0.144337
-0.136226
-0.129536
-0.123442
-0.119977
-0.12062
-0.127369
-0.142743
-0.168438
-0.203205
-0.241177
-0.273
-0.288816
-0.282802
-0.255907
-0.215834
-0.171975
-0.132092
-0.0996841
-0.0754501
-0.0590099
-0.0488871
-0.0454394
-0.0482305
-0.0586711
-0.0671911
-0.0722429
-0.0676564
-0.0594034
-0.0501662
-0.0490203
-0.0471439
-0.0572425
-0.0669332
-0.0932686
-0.103032
-0.098958
-0.0696596
-0.022952
-0.182677
-0.164947
-0.151206
-0.140684
-0.13234
-0.124596
-0.118875
-0.113997
-0.111949
-0.114127
-0.122523
-0.139623
-0.167013
-0.203266
-0.242359
-0.274884
-0.290972
-0.284835
-0.257541
-0.216959
-0.172562
-0.132175
-0.0993024
-0.0746404
-0.0577383
-0.0471582
-0.0431495
-0.0452774
-0.0551529
-0.0633758
-0.0686157
-0.0644666
-0.0569611
-0.0484514
-0.0480977
-0.0468105
-0.0576715
-0.068092
-0.0951254
-0.105295
-0.101098
-0.0711882
-0.0234318
-0.174683
-0.155352
-0.140341
-0.129028
-0.120612
-0.113081
-0.108214
-0.104481
-0.103793
-0.107476
-0.117497
-0.136298
-0.165345
-0.203034
-0.243211
-0.276426
-0.292804
-0.28659
-0.258959
-0.21793
-0.173053
-0.132206
-0.0988971
-0.0738297
-0.0564848
-0.0454601
-0.0409071
-0.0423813
-0.0516913
-0.0596067
-0.0650134
-0.0612813
-0.0545081
-0.0467148
-0.0471394
-0.0464391
-0.0580559
-0.0692141
-0.0969444
-0.107521
-0.103205
-0.0726909
-0.023902
-0.16713
-0.146217
-0.12991
-0.117734
-0.108961
-0.101735
-0.0975969
-0.0949359
-0.0955468
-0.100696
-0.112315
-0.132784
-0.163441
-0.202515
-0.243735
-0.277627
-0.294313
-0.288066
-0.260159
-0.218751
-0.173452
-0.132186
-0.0984712
-0.0730203
-0.0552515
-0.0437951
-0.0387145
-0.0395449
-0.0482892
-0.0558873
-0.0614397
-0.0581044
-0.0520472
-0.0449579
-0.0461459
-0.0460296
-0.0583944
-0.0702981
-0.0987243
-0.109711
-0.105277
-0.0741663
-0.0243622
-0.160039
-0.137574
-0.119951
-0.106854
-0.097639
-0.0906137
-0.0870711
-0.0854045
-0.087248
-0.0938182
-0.107
-0.129098
-0.161311
-0.201713
-0.243935
-0.278489
-0.295503
-0.289266
-0.261146
-0.219423
-0.17376
-0.13212
-0.0980273
-0.0722144
-0.0540406
-0.0421652
-0.0365737
-0.0367706
-0.0449494
-0.0522213
-0.0578988
-0.0549396
-0.0495814
-0.0431829
-0.045118
-0.0455819
-0.058686
-0.0713427
-0.100464
-0.111861
-0.107313
-0.0756132
-0.024812
-0.153428
-0.129448
-0.110499
-0.0964324
-0.0867226
-0.0797664
-0.0766879
-0.0759321
-0.0789359
-0.0868765
-0.101578
-0.125255
-0.158965
-0.200635
-0.243816
-0.279016
-0.296374
-0.290192
-0.261922
-0.21995
-0.17398
-0.13201
-0.097568
-0.071414
-0.052854
-0.0405724
-0.0344865
-0.0340607
-0.0416745
-0.0486121
-0.0543945
-0.0517905
-0.0471136
-0.0413916
-0.0440564
-0.0450963
-0.0589296
-0.0723465
-0.102161
-0.113971
-0.109311
-0.0770302
-0.0252511
-0.147313
-0.121863
-0.101586
-0.0865093
-0.0762478
-0.0692393
-0.0665005
-0.0665637
-0.0706508
-0.0799033
-0.0960735
-0.121273
-0.156415
-0.199288
-0.243382
-0.279211
-0.296881
-0.290847
-0.262489
-0.220335
-0.174116
-0.131859
-0.097096
-0.0706211
-0.0516932
-0.0390183
-0.0324546
-0.0314172
-0.0384669
-0.0450629
-0.0509308
-0.0486611
-0.0446466
-0.0395861
-0.042962
-0.0445727
-0.0591242
-0.0733084
-0.103816
-0.11604
-0.111267
-0.0784159
-0.0256791
-0.14171
-0.114839
-0.0932371
-0.0771197
-0.066231
-0.0590832
-0.0565613
-0.0573445
-0.0624325
-0.0729316
-0.0905118
-0.117171
-0.153673
-0.197682
-0.242643
-0.279083
-0.297123
-0.291234
-0.262851
-0.22058
-0.17417
-0.131668
-0.0966136
-0.0698376
-0.05056
-0.0375045
-0.0304793
-0.0288421
-0.0353287
-0.0415768
-0.0475116
-0.0455551
-0.0421834
-0.0377683
-0.0418357
-0.0440114
-0.0592689
-0.0742271
-0.105426
-0.118066
-0.113182
-0.0797691
-0.0260957
-0.136635
-0.1084
-0.0854746
-0.068293
-0.0566594
-0.0493698
-0.0469216
-0.0483184
-0.0543205
-0.0659938
-0.0849177
-0.112965
-0.150752
-0.195826
-0.241605
-0.278638
-0.297061
-0.291358
-0.263012
-0.220691
-0.174145
-0.131442
-0.0961231
-0.0690652
-0.0494554
-0.0360324
-0.0285617
-0.0263368
-0.032262
-0.0381567
-0.0441408
-0.0424763
-0.0397269
-0.0359403
-0.0406785
-0.0434126
-0.0593628
-0.0751015
-0.10699
-0.120048
-0.115052
-0.0810884
-0.0265004
-0.132076
-0.102569
-0.0783203
-0.0600444
-0.0475591
-0.0401489
-0.037627
-0.0395278
-0.0463528
-0.0591213
-0.0793154
-0.108674
-0.147664
-0.193732
-0.240279
-0.277884
-0.296699
-0.291225
-0.262977
-0.220669
-0.174045
-0.131182
-0.0956268
-0.0683056
-0.0483808
-0.0346033
-0.0267029
-0.0239029
-0.0292685
-0.0348054
-0.0408219
-0.0394283
-0.0372801
-0.0341042
-0.0394912
-0.0427766
-0.0594051
-0.0759304
-0.108508
-0.121985
-0.116877
-0.0823728
-0.026893
-0.127933
-0.0973159
-0.0718008
-0.0523662
-0.0392762
-0.0312131
-0.0287167
-0.0310128
-0.0385656
-0.0523444
-0.0737281
-0.104315
-0.144424
-0.191411
-0.238676
-0.27683
-0.296045
-0.29084
-0.26275
-0.22052
-0.173871
-0.13089
-0.0951267
-0.0675604
-0.0473371
-0.0332182
-0.0249037
-0.0215415
-0.0263497
-0.0315252
-0.0375584
-0.0364148
-0.0348456
-0.0322621
-0.038275
-0.0421038
-0.0593951
-0.076713
-0.109979
-0.123876
-0.118655
-0.0836211
-0.0272731
-0.12444
-0.0924831
-0.065921
-0.0452679
-0.031627
-0.0228412
-0.0202253
-0.0228105
-0.0309928
-0.0456914
-0.0681782
-0.0999055
-0.141046
-0.188876
-0.236806
-0.275485
-0.295108
-0.290208
-0.262335
-0.220246
-0.173628
-0.13057
-0.0946248
-0.0668308
-0.046325
-0.0318782
-0.0231645
-0.0192536
-0.0235069
-0.0283184
-0.0343537
-0.0334394
-0.0324265
-0.030416
-0.037031
-0.0413946
-0.0593318
-0.077448
-0.111401
-0.12572
-0.120385
-0.084832
-0.0276405
-0.121467
-0.0883855
-0.0606399
-0.0390171
-0.0242842
-0.0149902
-0.0121805
-0.0149548
-0.0236655
-0.0391887
-0.0626867
-0.0954618
-0.137544
-0.18614
-0.234681
-0.27386
-0.293894
-0.289335
-0.261738
-0.219853
-0.173318
-0.130222
-0.0941228
-0.0661183
-0.0453452
-0.0305838
-0.0214857
-0.0170399
-0.0207411
-0.0251869
-0.0312107
-0.0305054
-0.0300254
-0.0285681
-0.0357602
-0.0406494
-0.0592148
-0.0781345
-0.112773
-0.127515
-0.122063
-0.0860044
-0.0279948
-0.118995
-0.0848656
-0.0560396
-0.03337
-0.0176262
-0.00770026
-0.0046171
-0.00747568
-0.016612
-0.0328605
-0.0572731
-0.0910002
-0.133931
-0.183216
-0.232315
-0.271966
-0.292414
-0.28823
-0.260963
-0.219344
-0.172945
-0.12985
-0.0936224
-0.065424
-0.0443983
-0.0293356
-0.0198678
-0.014901
-0.0180531
-0.0221323
-0.0281324
-0.0276162
-0.0276449
-0.0267204
-0.0344638
-0.0398687
-0.0590434
-0.0787717
-0.114094
-0.129262
-0.123687
-0.0871371
-0.0283358
-0.117021
-0.0819143
-0.0520756
-0.0283597
-0.0116459
-0.00221846
0.00243716
-0.000398221
-0.00985725
-0.0267286
-0.0519556
-0.0865358
-0.130223
-0.180117
-0.229719
-0.269813
-0.290674
-0.286896
-0.260017
-0.218723
-0.172511
-0.129456
-0.0931257
-0.0647493
-0.0434848
-0.0281345
-0.0183108
-0.0128374
-0.0154435
-0.0191559
-0.0251213
-0.024775
-0.0252879
-0.024875
-0.0331429
-0.0390531
-0.058817
-0.0793585
-0.115364
-0.130959
-0.125257
-0.0882291
-0.0286632
-0.0795366
-0.0487294
-0.0240011
-0.00628632
0.00419185
0.00897874
0.00625514
-0.00342328
-0.0208126
-0.0467505
-0.0820833
-0.126432
-0.176859
-0.226906
-0.267411
-0.288683
-0.285342
-0.258905
-0.217996
-0.17202
-0.129042
-0.092635
-0.0640961
-0.0426056
-0.026981
-0.0168151
-0.0108493
-0.0129129
-0.0162591
-0.0221799
-0.0219848
-0.0229567
-0.0230338
-0.0317989
-0.0382031
-0.0585351
-0.0798941
-0.11658
-0.132604
-0.126773
-0.0892795
-0.0289767
-0.0777194
-0.0459928
-0.0202858
-0.00155871
0.00996469
0.0149781
0.0124669
0.00267056
-0.0151297
-0.0416728
-0.0776559
-0.122573
-0.173452
-0.223887
-0.264771
-0.286447
-0.283572
-0.257631
-0.217165
-0.171475
-0.128609
-0.0921502
-0.063464
-0.0417598
-0.0258745
-0.01538
-0.00893648
-0.010461
-0.0134422
-0.0193102
-0.0192486
-0.0206541
-0.021199
-0.0304329
-0.0373195
-0.0581973
-0.0803777
-0.117743
-0.134196
-0.128235
-0.0902873
-0.0292761
-0.0764259
-0.0438379
-0.0171915
0.00252741
0.0149794
0.0204306
0.0182224
0.00840789
-0.00969545
-0.0367365
-0.073267
-0.118658
-0.169913
-0.220677
-0.261903
-0.28398
-0.2816
-0.256204
-0.216233
-0.170871
-0.128151
-0.0916648
-0.0628476
-0.0409425
-0.0248111
-0.0140023
-0.00709687
-0.00808608
-0.0107034
-0.0165119
-0.016568
-0.0183821
-0.0193724
-0.0290461
-0.0364027
-0.0578032
-0.0808085
-0.118851
-0.135736
-0.129642
-0.0912516
-0.0295611
-0.0755982
-0.0422146
-0.014678
0.0059972
0.019319
0.0253399
0.0235141
0.0137769
-0.00452323
-0.0319555
-0.0689317
-0.114705
-0.166259
-0.217296
-0.258831
-0.281304
-0.279442
-0.254633
-0.215202
-0.170206
-0.127664
-0.0911757
-0.0622445
-0.0401516
-0.0237888
-0.0126808
-0.00533025
-0.00578841
-0.00804176
-0.0137841
-0.013943
-0.0161416
-0.017555
-0.0276393
-0.0354533
-0.0573524
-0.0811857
-0.119903
-0.137222
-0.130991
-0.0921714
-0.0298314
-0.0752796
-0.0411604
-0.0127763
0.00882721
0.0230117
0.0296874
0.0283209
0.0187625
0.000376842
-0.0273366
-0.0646556
-0.110719
-0.162494
-0.21374
-0.255542
-0.278396
-0.277078
-0.252915
-0.214089
-0.169518
-0.127193
-0.090726
-0.0616912
-0.0394166
-0.022831
-0.0114327
-0.00364795
-0.00357958
-0.00547118
-0.0111403
-0.0113826
-0.0139373
-0.0157496
-0.0262141
-0.0344718
-0.0568444
-0.0815087
-0.120899
-0.138653
-0.132287
-0.0930451
-0.0300871
-0.0757618
-0.0409321
-0.011705
0.0108398
0.0259394
0.0333521
0.0325536
0.0233106
0.00498552
-0.0228677
-0.0603996
-0.106636
-0.158523
-0.209878
-0.251874
-0.275093
-0.274394
-0.251014
-0.212939
-0.168896
-0.12684
-0.09041
-0.0612642
-0.0387992
-0.0219874
-0.0102946
-0.00206882
-0.00147694
-0.00302198
-0.00862395
-0.00892626
-0.011794
-0.0139717
-0.0247795
-0.0334638
-0.0562797
-0.0817732
-0.121828
-0.140012
-0.13351
-0.0938699
-0.0303286
-0.0768639
-0.041357
-0.0113103
0.0121524
0.028143
0.0363476
0.0361874
0.0273605
0.00923156
-0.0186072
-0.0561951
-0.102453
-0.154312
-0.205656
-0.247782
-0.271389
-0.271419
-0.248947
-0.211718
-0.168254
-0.126489
-0.0901106
-0.0608588
-0.0382068
-0.0211815
-0.00920453
-0.00054106
0.000574632
-0.000639063
-0.00620102
-0.00657152
-0.00972384
-0.012238
-0.023349
-0.0324414
-0.0556619
-0.0819732
-0.12268
-0.141291
-0.134651
-0.0946473
-0.030556
-0.0761529
-0.0401973
-0.00959389
0.0144893
0.0310578
0.0397597
0.0399491
0.0312593
0.0130789
-0.0149549
-0.052768
-0.0991828
-0.151132
-0.202575
-0.244867
-0.268715
-0.269098
-0.246998
-0.210105
-0.166908
-0.125336
-0.0890564
-0.0598227
-0.0370887
-0.0199511
-0.00780405
0.00115935
0.00279315
0.00200248
-0.00345795
-0.00394665
-0.00749031
-0.0103948
-0.0218203
-0.0313344
-0.0549806
-0.0821712
-0.123569
-0.14265
-0.135811
-0.0953978
-0.0307645
-0.0719853
-0.0357397
-0.00472327
0.0198866
0.0370479
0.0461239
0.0464357
0.0374942
0.0185955
-0.010577
-0.0497266
-0.0974072
-0.150408
-0.202608
-0.245211
-0.268819
-0.268424
-0.245467
-0.207912
-0.164417
-0.122844
-0.0866914
-0.0576346
-0.0349269
-0.0177461
-0.00555956
0.0034924
0.00577097
0.00583583
0.000881241
0.000373441
-0.00387936
-0.00741007
-0.0193491
-0.0294475
-0.053912
-0.0826579
-0.125139
-0.144827
-0.137461
-0.0963321
-0.0309965
-0.0683071
-0.0323351
-0.00144767
0.023161
0.0403865
0.049544
0.0498845
0.0407919
0.0215462
-0.00810445
-0.0476741
-0.0955023
-0.148231
-0.199716
-0.241311
-0.26386
-0.262859
-0.239814
-0.202706
-0.160023
-0.119334
-0.0838995
-0.0553146
-0.0328302
-0.0157371
-0.00342605
0.00589775
0.0087287
0.00924532
0.00446941
0.00388452
-0.000817778
-0.0047336
-0.0171389
-0.0277475
-0.052995
-0.0830528
-0.126455
-0.146709
-0.138816
-0.0971149
-0.0311866
-0.0648759
-0.0294021
0.00112875
0.0255038
0.042584
0.0515822
0.0517156
0.0423315
0.0227313
-0.00723159
-0.0468831
-0.0943799
-0.146249
-0.196403
-0.236524
-0.257852
-0.256261
-0.233348
-0.196947
-0.155281
-0.115612
-0.0809826
-0.0529297
-0.0307148
-0.0137461
-0.00133683
0.00822928
0.0115524
0.0124443
0.0077622
0.0070604
0.00193108
-0.00230906
-0.0151639
-0.026237
-0.0522135
-0.0833757
-0.12757
-0.148327
-0.139951
-0.0977511
-0.0313362
-0.0619209
-0.0270305
0.00307683
0.027171
0.0440749
0.0529083
0.0528462
0.0431953
0.0232892
-0.00690332
-0.0465187
-0.0935391
-0.144399
-0.193106
-0.23166
-0.251699
-0.249451
-0.226644
-0.190974
-0.150373
-0.111771
-0.0779817
-0.0504905
-0.0285609
-0.0117271
0.000754111
0.0105265
0.0143294
0.0156327
0.0110827
0.0102898
0.00473642
0.000179309
-0.0131035
-0.0246344
-0.0513317
-0.0836181
-0.128616
-0.149865
-0.140976
-0.0982769
-0.0314529
-0.0595622
-0.0253545
0.00424748
0.0279996
0.0446849
0.0533694
0.0531678
0.0433459
0.0232705
-0.00698427
-0.0463852
-0.0927588
-0.142469
-0.189621
-0.226508
-0.245187
-0.242253
-0.219585
-0.184733
-0.145285
-0.107817
-0.0749134
-0.048018
-0.0263942
-0.00970971
0.00282046
0.0127726
0.0170357
0.018765
0.0143703
0.013515
0.00757269
0.00273392
-0.0109279
-0.0228965
-0.0502937
-0.0837542
-0.129575
-0.151302
-0.141859
-0.098672
-0.0315315
-0.0577894
-0.0243704
0.00463072
0.0279609
0.0443734
0.0528921
0.0525798
0.042672
0.0225733
-0.00754728
-0.0465123
-0.0920185
-0.140382
-0.185819
-0.220922
-0.238193
-0.234594
-0.212154
-0.178232
-0.140033
-0.103762
-0.0717873
-0.0455197
-0.0242229
-0.00770234
0.00485441
0.0149608
0.0196572
0.0218155
0.0175844
0.0166815
0.0103865
0.00530987
-0.0086785
-0.0210548
-0.0491158
-0.0837637
-0.130398
-0.152587
-0.142567
-0.0989194
-0.0315682
-0.056571
-0.0240378
0.00427239
0.0271041
0.0431928
0.0515208
0.0511182
0.0412003
0.0212151
-0.008581
-0.0468905
-0.0913059
-0.13812
-0.181677
-0.214889
-0.230722
-0.226501
-0.204388
-0.171507
-0.13464
-0.0996226
-0.0686132
-0.0430021
-0.0220522
-0.00570857
0.00685319
0.0170886
0.0221888
0.0247791
0.0207221
0.0197844
0.0131697
0.00789546
-0.00637102
-0.0191243
-0.0478068
-0.0836296
-0.131055
-0.15369
-0.143081
-0.0990057
-0.0315598
-0.0558698
-0.0243081
0.00323015
0.0254942
0.0412127
0.0493321
0.0488638
0.0390132
0.0192758
-0.0100144
-0.0474621
-0.0905788
-0.135656
-0.177185
-0.20842
-0.222796
-0.218012
-0.196328
-0.164592
-0.129134
-0.0954165
-0.0654018
-0.0404719
-0.0198879
-0.00373278
0.00881349
0.0191538
0.0246264
0.0276518
0.0237851
0.0228293
0.0159296
0.0104959
-0.00400038
-0.0171003
-0.0463585
-0.0833359
-0.131523
-0.154589
-0.143381
-0.0989176
-0.0315029
-0.0556387
-0.0251228
0.00157169
0.0232046
0.0385122
0.0464111
0.0459062
0.0362025
0.0168455
-0.0117641
-0.0481555
-0.0897817
-0.132955
-0.172327
-0.201516
-0.214442
-0.209168
-0.188021
-0.157527
-0.123541
-0.0911611
-0.0621642
-0.0379363
-0.0177359
-0.00177984
0.0107317
0.0211537
0.0269657
0.0304285
0.0267728
0.0258193
0.0186728
0.0131172
-0.00155828
-0.0149741
-0.044758
-0.082865
-0.131779
-0.155257
-0.143447
-0.0986413
-0.0313941
-0.055822
-0.0264137
-0.000624475
0.020323
0.0351826
0.0428538
0.0423434
0.0328661
0.0140182
-0.0137441
-0.0488966
-0.0888563
-0.129976
-0.167086
-0.194185
-0.205692
-0.20002
-0.179521
-0.150353
-0.11789
-0.086875
-0.058912
-0.0354026
-0.0156023
0.000145217
0.0126044
0.023086
0.0292033
0.0331032
0.0296841
0.0287564
0.0214045
0.0157639
0.000961891
-0.0127387
-0.0429934
-0.0821978
-0.131794
-0.155663
-0.143255
-0.0981629
-0.0312299
-0.0563575
-0.0281057
-0.00327222
0.0169446
0.0313254
0.038766
0.0382831
0.02911
0.0108936
-0.0158655
-0.0496104
-0.0877448
-0.126682
-0.161451
-0.186449
-0.196595
-0.190632
-0.170885
-0.143115
-0.112211
-0.0825766
-0.0556567
-0.0328778
-0.0134928
0.0020373
0.0144282
0.0249486
0.0313361
0.0356703
0.0325176
0.0316432
0.0241305
0.0184404
0.00356633
-0.010388
-0.0410538
-0.0813136
-0.131539
-0.155775
-0.142783
-0.0974689
-0.0310068
-0.0571807
-0.030121
-0.00628182
0.0131683
0.0270472
0.0342585
0.0338377
0.0250442
0.00757387
-0.0180387
-0.050224
-0.0863948
-0.123046
-0.155427
-0.178344
-0.187214
-0.181074
-0.162175
-0.135858
-0.106533
-0.0782844
-0.05241
-0.0303692
-0.011413
0.00389126
0.0162001
0.0267392
0.033362
0.0381239
0.0352714
0.034482
0.0268571
0.0211521
0.00626199
-0.00791616
-0.0389286
-0.0801908
-0.13098
-0.155559
-0.142007
-0.0965462
-0.0307216
-0.0582277
-0.0323821
-0.00956364
0.00909359
0.0224546
0.0294421
0.0291185
0.0207761
0.00415667
-0.0201809
-0.0506735
-0.0847661
-0.119057
-0.149035
-0.169926
-0.177625
-0.171425
-0.153458
-0.128627
-0.100884
-0.0740161
-0.0491832
-0.0278837
-0.00936838
0.00570195
0.017917
0.028456
0.0352795
0.0404585
0.0379423
0.0372747
0.0295905
0.0239046
0.00905662
-0.00531681
-0.036607
-0.0788073
-0.130085
-0.154978
-0.140905
-0.0953828
-0.0303709
-0.0594374
-0.034816
-0.0130323
0.00481596
0.0176502
0.0244226
0.0242304
0.0164042
0.000728776
-0.0222228
-0.0509118
-0.0828379
-0.114726
-0.142321
-0.161268
-0.167917
-0.161769
-0.144797
-0.121467
-0.0952922
-0.0697891
-0.0459876
-0.0254282
-0.00736393
0.00746435
0.0195758
0.0300972
0.0370876
0.0426689
0.0405261
0.0400222
0.032336
0.026703
0.0119583
-0.00258369
-0.034079
-0.0771413
-0.12882
-0.153996
-0.139453
-0.0939677
-0.0299518
-0.060754
-0.0373554
-0.0166272
0.000423224
0.0127287
0.0192969
0.0192675
0.0120142
-0.00263925
-0.0241144
-0.0509136
-0.0806141
-0.110087
-0.135352
-0.152463
-0.158188
-0.152191
-0.136255
-0.114418
-0.0897839
-0.0656193
-0.0428337
-0.0230094
-0.00540445
0.0091736
0.0211737
0.0316611
0.0387861
0.0447505
0.0430167
0.0427233
0.0350971
0.0295519
0.0149751
0.00028912
-0.0313353
-0.0751719
-0.127155
-0.152578
-0.137631
-0.0922916
-0.0294616
-0.0621279
-0.039939
-0.0202437
-0.00400533
0.00777466
0.0141505
0.0143107
0.00767551
-0.00589557
-0.0258273
-0.0506785
-0.0781247
-0.105203
-0.128216
-0.143614
-0.14854
-0.142773
-0.12789
-0.107519
-0.0843826
-0.0615216
-0.0397317
-0.0206337
-0.00349439
0.0108251
0.0227075
0.0331462
0.0403753
0.0466995
0.0454061
0.0453749
0.0378749
0.032454
0.0181142
0.00330671
-0.0283683
-0.0728799
-0.125058
-0.15069
-0.135419
-0.0903473
-0.028898
-0.063517
-0.0425163
-0.0238401
-0.00840242
0.00286042
0.00905618
0.00942676
0.00344186
-0.0090068
-0.0273543
-0.050229
-0.0754231
-0.100157
-0.121019
-0.134832
-0.139071
-0.133591
-0.119755
-0.100803
-0.0791094
-0.0575094
-0.0366908
-0.0183073
-0.00163786
0.0124148
0.0241741
0.0345513
0.0418556
0.0485132
0.0476851
0.0479712
0.0406673
0.0354098
0.0213814
0.0064729
-0.0251728
-0.070249
-0.122504
-0.148302
-0.1328
-0.0881299
-0.0282592
-0.0648861
-0.0450451
-0.0273667
-0.012712
-0.00195396
0.00407347
0.00466869
-0.00064797
-0.0119555
-0.0287052
-0.0496051
-0.0725791
-0.0950423
-0.113869
-0.126223
-0.129871
-0.124712
-0.111893
-0.0942985
-0.0739827
-0.0535947
-0.0337196
-0.0160361
0.000161405
0.0139388
0.0255704
0.0358753
0.0432278
0.0501899
0.0498427
0.0505031
0.0434683
0.0384165
0.0247801
0.00978964
-0.0217462
-0.0672669
-0.119473
-0.145388
-0.129761
-0.0856374
-0.0275441
-0.0662072
-0.0474915
-0.030783
-0.0168892
-0.00662058
-0.000750627
7.67822e-05
-0.00456743
-0.0147358
-0.0299009
-0.0488566
-0.0696694
-0.0899559
-0.106869
-0.117885
-0.121018
-0.116189
-0.104341
-0.0880277
-0.0690177
-0.0497878
-0.0308258
-0.0138255
0.00189996
0.0153939
0.0268929
0.037117
0.0444931
0.0517293
0.0518676
0.0529583
0.0462672
0.0414676
0.0283101
0.0132562
-0.0180899
-0.0639265
-0.115948
-0.141928
-0.126293
-0.0828714
-0.0267521
-0.067458
-0.0498289
-0.0340582
-0.0208994
-0.0111026
-0.00538044
-0.00431941
-0.00829943
-0.0173497
-0.0309669
-0.0480349
-0.0667683
-0.0849868
-0.10011
-0.109896
-0.112573
-0.108065
-0.0971232
-0.0820084
-0.064227
-0.0460976
-0.0280162
-0.0116807
0.0035747
0.0167776
0.0281382
0.0382756
0.0456525
0.0531319
0.0537484
0.0553213
0.0490486
0.0445515
0.0319665
0.0168686
-0.0142098
-0.0602269
-0.111924
-0.137909
-0.122392
-0.0798367
-0.0258838
-0.0686215
-0.0520373
-0.037169
-0.024717
-0.015373
-0.00979009
-0.00849926
-0.0118338
-0.0198024
-0.0319286
-0.0471866
-0.0639402
-0.0802088
-0.0936641
-0.102317
-0.104578
-0.100365
-0.0902584
-0.0762527
-0.0596202
-0.0425315
-0.0252968
-0.00960643
0.00518278
0.0180876
0.0293032
0.0393501
0.0467075
0.0543992
0.0554745
0.0575737
0.051792
0.0476513
0.035738
0.0206182
-0.0101169
-0.0561748
-0.107403
-0.133327
-0.11806
-0.0765425
-0.0249405
-0.069685
-0.054102
-0.0400986
-0.0283235
-0.0194126
-0.0139618
-0.0124492
-0.0151649
-0.0221006
-0.0328076
-0.0463489
-0.0612349
-0.0756773
-0.0875825
-0.0951872
-0.0970588
-0.0931061
-0.0837562
-0.0707683
-0.0552043
-0.0390956
-0.0226726
-0.00760703
0.00672163
0.0193225
0.0303849
0.0403394
0.0476596
0.0555332
0.0570377
0.0596952
0.0544716
0.0507446
0.0396055
0.0244911
-0.00582878
-0.0517849
-0.102398
-0.128187
-0.113303
-0.073002
-0.0239247
-0.0706391
-0.0560128
-0.0428356
-0.0317067
-0.0232091
-0.0178843
-0.0161611
-0.0182905
-0.0242502
-0.0336201
-0.0455484
-0.0586865
-0.0714275
-0.0818949
-0.0885261
-0.0900256
-0.086292
-0.0776197
-0.0655589
-0.0509842
-0.0357948
-0.0201479
-0.00568621
0.00818889
0.0204811
0.0313808
0.041242
0.0485107
0.0565361
0.0584319
0.061663
0.0570575
0.053803
0.0435408
0.0284675
-0.00136944
-0.0470807
-0.0969309
-0.122505
-0.108137
-0.0692327
-0.0228399
-0.0714774
-0.0577625
-0.0453726
-0.0348592
-0.0267552
-0.0215514
-0.0196311
-0.0212102
-0.0262558
-0.0343764
-0.044801
-0.0563141
-0.0674786
-0.0766133
-0.0823377
-0.0834764
-0.0799188
-0.0718463
-0.0606248
-0.0469626
-0.0326327
-0.0177261
-0.0038472
0.00958242
0.0215628
0.0322891
0.0420563
0.0492631
0.0574101
0.0596546
0.0634559
0.0595164
0.0567927
0.0475055
0.0325202
0.00322961
-0.0420948
-0.0910361
-0.116303
-0.102584
-0.0652569
-0.021691
-0.0721954
-0.0593469
-0.0477055
-0.0377769
-0.0300474
-0.0249606
-0.0228581
-0.0239252
-0.0281208
-0.0350824
-0.0441139
-0.0541241
-0.0638317
-0.071735
-0.0766135
-0.0773994
-0.0739758
-0.0664293
-0.0559636
-0.0431404
-0.0296118
-0.01541
-0.00209261
0.0109003
0.0225675
0.0331086
0.0427803
0.0499189
0.0581573
0.0607068
0.0650543
0.0618134
0.0596755
0.0514503
0.0366141
0.00792933
-0.0368682
-0.0847556
-0.109617
-0.096672
-0.0611011
-0.0204839
-0.0727905
-0.0607641
-0.0498327
-0.0404591
-0.0330857
-0.0281125
-0.0258436
-0.0264376
-0.0298478
-0.03574
-0.043488
-0.0521141
-0.0604802
-0.0672471
-0.0713361
-0.0717764
-0.0684479
-0.0613591
-0.0515708
-0.0395173
-0.026734
-0.0132017
-0.000424488
0.0121409
0.023495