/*--------------------------------*- C++ -*----------------------------------*\
  =========                 |
  \\      /  F ield         | OpenFOAM: The Open Source CFD Toolbox
   \\    /   O peration     | Website:  https://openfoam.org
    \\  /    A nd           | Version:  7
     \\/     M anipulation  |
\*---------------------------------------------------------------------------*/
FoamFile
{
    version     2.0;
    format      ascii;
    class       volScalarField;
    location    "80";
    object      p;
}
// * * * * * * * * * * * * * * * * * * * * * * * * * * * * * * * * * * * * * //

dimensions      [0 2 -2 0 0 0 0];

internalField   nonuniform List<scalar> 
8500
(
-0.442034
-0.445226
-0.44311
-0.448604
-0.446313
-0.443984
-0.452174
-0.449688
-0.447199
-0.455943
-0.453242
-0.450583
-0.447529
-0.459914
-0.456978
-0.454139
-0.450904
-0.447402
-0.46409
-0.460901
-0.457873
-0.454449
-0.450757
-0.446947
-0.468472
-0.465011
-0.461784
-0.458166
-0.454278
-0.450267
-0.446203
-0.473058
-0.469308
-0.465875
-0.462056
-0.457966
-0.453747
-0.449455
-0.445098
-0.477847
-0.473792
-0.470145
-0.466118
-0.461821
-0.457386
-0.452852
-0.448209
-0.44339
-0.482834
-0.478461
-0.474593
-0.470353
-0.46584
-0.46118
-0.456389
-0.451438
-0.446238
-0.44065
-0.488014
-0.48331
-0.479215
-0.474757
-0.470022
-0.465124
-0.46006
-0.454776
-0.449161
-0.443061
-0.436307
-0.49338
-0.488334
-0.484008
-0.479326
-0.474362
-0.469214
-0.463857
-0.45821
-0.452143
-0.44549
-0.438081
-0.429777
-0.420497
-0.498923
-0.493526
-0.488964
-0.484055
-0.478853
-0.473442
-0.467768
-0.461726
-0.455167
-0.447916
-0.43981
-0.430736
-0.42065
-0.40959
-0.504634
-0.498878
-0.494078
-0.488936
-0.483487
-0.477796
-0.47178
-0.465308
-0.458214
-0.450319
-0.441474
-0.431597
-0.420686
-0.408826
-0.396165
-0.5105
-0.50438
-0.499339
-0.493961
-0.488255
-0.482265
-0.475877
-0.468938
-0.461263
-0.452676
-0.443052
-0.432342
-0.420593
-0.407933
-0.394548
-0.380649
-0.366425
-0.516506
-0.510018
-0.504736
-0.499117
-0.493143
-0.486833
-0.480043
-0.472593
-0.46429
-0.454966
-0.444522
-0.432954
-0.420356
-0.406902
-0.392808
-0.378304
-0.363584
-0.348868
-0.522637
-0.515779
-0.510255
-0.504391
-0.498137
-0.491483
-0.484256
-0.476251
-0.467271
-0.457163
-0.445864
-0.433416
-0.419965
-0.405724
-0.39094
-0.375852
-0.360659
-0.345562
-0.33048
-0.316298
-0.528874
-0.521646
-0.515881
-0.509767
-0.503218
-0.496196
-0.488492
-0.479886
-0.470179
-0.459243
-0.447055
-0.433711
-0.419405
-0.40439
-0.388934
-0.373286
-0.357642
-0.342182
-0.326841
-0.312416
-0.535195
-0.5276
-0.521595
-0.515226
-0.508367
-0.500947
-0.492727
-0.48347
-0.472987
-0.46118
-0.448075
-0.433823
-0.418665
-0.40289
-0.386785
-0.370599
-0.354523
-0.338719
-0.323131
-0.308474
-0.541578
-0.53362
-0.527377
-0.520747
-0.51356
-0.505711
-0.496931
-0.486975
-0.475667
-0.46295
-0.448903
-0.433734
-0.417732
-0.401215
-0.384483
-0.367782
-0.351295
-0.335163
-0.31934
-0.304459
-0.547998
-0.539681
-0.533203
-0.526305
-0.518771
-0.510459
-0.501074
-0.490368
-0.478189
-0.464526
-0.449519
-0.433431
-0.416595
-0.399356
-0.382019
-0.364826
-0.347949
-0.331505
-0.315459
-0.300363
-0.554425
-0.545759
-0.539048
-0.531875
-0.523971
-0.51516
-0.505124
-0.493618
-0.480523
-0.465883
-0.4499
-0.432896
-0.415242
-0.397302
-0.379385
-0.361724
-0.344474
-0.327735
-0.311477
-0.296176
-0.560829
-0.551824
-0.544884
-0.537426
-0.529129
-0.519782
-0.509046
-0.496691
-0.482639
-0.466996
-0.450029
-0.432115
-0.413661
-0.395045
-0.376572
-0.358464
-0.340862
-0.323843
-0.307384
-0.291887
-0.567178
-0.557846
-0.550678
-0.542926
-0.534211
-0.524287
-0.512804
-0.499553
-0.484507
-0.46784
-0.449886
-0.431074
-0.411841
-0.392572
-0.37357
-0.355038
-0.337102
-0.31982
-0.303172
-0.287487
-0.573436
-0.56379
-0.556398
-0.548341
-0.53918
-0.528639
-0.516361
-0.502169
-0.486097
-0.46839
-0.449452
-0.429758
-0.409769
-0.389876
-0.370368
-0.351436
-0.333185
-0.315655
-0.29883
-0.282968
-0.579565
-0.569622
-0.562008
-0.553634
-0.543998
-0.532797
-0.519679
-0.504505
-0.48738
-0.468625
-0.448709
-0.428152
-0.407434
-0.386944
-0.366958
-0.347647
-0.3291
-0.311339
-0.29435
-0.278321
-0.585527
-0.575303
-0.56747
-0.558765
-0.548624
-0.536722
-0.522719
-0.506527
-0.488326
-0.46852
-0.44764
-0.426243
-0.404824
-0.383766
-0.363329
-0.343663
-0.324839
-0.306862
-0.289722
-0.273537
-0.591279
-0.580794
-0.572744
-0.563693
-0.553017
-0.540372
-0.525442
-0.508199
-0.488909
-0.468054
-0.446227
-0.424018
-0.401929
-0.380333
-0.35947
-0.339472
-0.320391
-0.302215
-0.284937
-0.268608
-0.59678
-0.586053
-0.577788
-0.568376
-0.557132
-0.543705
-0.527808
-0.50949
-0.489101
-0.467205
-0.444454
-0.421463
-0.398736
-0.376633
-0.355372
-0.335065
-0.315746
-0.29739
-0.279987
-0.263527
-0.601985
-0.591037
-0.582559
-0.572768
-0.560926
-0.546678
-0.529781
-0.510365
-0.488875
-0.465954
-0.442305
-0.418565
-0.395235
-0.372655
-0.351025
-0.330433
-0.310897
-0.292377
-0.274864
-0.258285
-0.606848
-0.595702
-0.587011
-0.576826
-0.564354
-0.549248
-0.531322
-0.510794
-0.488207
-0.464282
-0.439766
-0.415313
-0.391414
-0.36839
-0.346418
-0.325566
-0.305832
-0.287168
-0.26956
-0.252877
-0.611324
-0.600004
-0.5911
-0.580502
-0.567371
-0.551374
-0.532394
-0.510747
-0.487074
-0.462169
-0.436822
-0.411694
-0.387262
-0.363828
-0.341543
-0.320454
-0.300545
-0.281756
-0.264068
-0.247295
-0.615365
-0.603895
-0.594779
-0.583752
-0.569931
-0.553015
-0.532963
-0.510195
-0.485453
-0.4596
-0.43346
-0.407695
-0.38277
-0.358958
-0.336389
-0.31509
-0.295027
-0.276131
-0.258381
-0.241533
-0.618927
-0.607331
-0.598003
-0.586527
-0.571992
-0.554131
-0.532994
-0.509112
-0.483323
-0.456558
-0.429666
-0.403308
-0.377927
-0.353772
-0.330948
-0.309464
-0.289269
-0.270288
-0.252491
-0.235586
-0.62196
-0.610264
-0.600723
-0.588783
-0.573508
-0.554682
-0.532454
-0.50747
-0.480665
-0.453028
-0.425429
-0.39852
-0.372723
-0.34826
-0.325212
-0.303569
-0.283266
-0.26422
-0.246394
-0.229449
-0.62442
-0.612648
-0.602893
-0.590474
-0.574438
-0.554633
-0.531314
-0.505248
-0.477461
-0.448996
-0.420737
-0.393323
-0.36715
-0.342414
-0.319173
-0.297397
-0.277009
-0.257921
-0.240084
-0.223116
-0.62626
-0.614439
-0.60447
-0.591556
-0.574742
-0.553947
-0.529546
-0.502423
-0.473694
-0.44445
-0.41558
-0.387706
-0.361199
-0.336226
-0.312822
-0.290942
-0.270494
-0.251385
-0.233556
-0.216583
-0.627437
-0.615591
-0.605408
-0.591987
-0.57438
-0.552593
-0.527123
-0.498975
-0.469351
-0.439378
-0.409948
-0.381663
-0.354863
-0.329689
-0.306155
-0.284197
-0.263713
-0.244607
-0.226805
-0.209847
-0.627907
-0.616063
-0.605665
-0.591726
-0.573317
-0.550539
-0.524022
-0.494888
-0.464418
-0.43377
-0.403833
-0.375184
-0.348134
-0.322797
-0.299163
-0.277157
-0.256663
-0.237583
-0.219828
-0.202904
-0.62763
-0.615812
-0.605199
-0.590734
-0.571518
-0.547759
-0.520222
-0.490145
-0.458882
-0.427617
-0.397227
-0.368263
-0.341006
-0.315543
-0.291843
-0.269817
-0.24934
-0.230309
-0.21262
-0.195752
-0.626566
-0.6148
-0.603973
-0.588974
-0.568951
-0.544226
-0.515702
-0.484733
-0.452735
-0.420912
-0.390124
-0.360896
-0.333474
-0.307922
-0.28419
-0.262174
-0.241738
-0.222782
-0.205181
-0.188388
-0.624679
-0.612988
-0.601949
-0.586415
-0.565589
-0.539919
-0.510448
-0.47864
-0.445969
-0.413647
-0.382519
-0.353076
-0.325534
-0.299931
-0.276199
-0.254222
-0.233857
-0.214998
-0.197509
-0.180815
-0.621934
-0.610342
-0.599094
-0.583023
-0.561405
-0.534817
-0.504446
-0.471857
-0.438576
-0.405819
-0.374408
-0.344799
-0.317181
-0.291566
-0.267869
-0.245961
-0.225692
-0.206957
-0.189603
-0.173032
-0.6183
-0.606831
-0.595376
-0.578773
-0.556377
-0.528905
-0.497683
-0.464376
-0.430552
-0.397424
-0.365786
-0.336064
-0.308414
-0.282825
-0.259196
-0.237388
-0.217242
-0.198657
-0.18146
-0.165023
-0.613748
-0.602424
-0.590768
-0.573638
-0.550485
-0.522168
-0.490152
-0.456193
-0.421893
-0.388459
-0.356654
-0.326869
-0.299231
-0.273706
-0.250181
-0.228503
-0.208507
-0.190096
-0.173068
-0.156744
-0.608254
-0.597097
-0.585245
-0.567599
-0.543714
-0.514596
-0.481846
-0.447305
-0.412599
-0.378924
-0.34701
-0.317213
-0.289631
-0.26421
-0.240822
-0.219305
-0.199489
-0.181278
-0.164427
-0.148187
-0.601794
-0.590826
-0.578786
-0.560638
-0.536051
-0.506181
-0.472762
-0.437709
-0.40267
-0.368819
-0.336855
-0.307097
-0.279616
-0.254337
-0.231121
-0.209796
-0.190188
-0.172203
-0.155557
-0.13956
-0.594351
-0.583592
-0.571374
-0.55274
-0.527487
-0.496919
-0.462899
-0.427409
-0.392108
-0.358148
-0.326191
-0.296523
-0.269186
-0.244089
-0.221079
-0.199978
-0.180607
-0.162873
-0.146453
-0.130727
-0.58591
-0.57538
-0.562993
-0.543896
-0.518015
-0.486809
-0.452258
-0.416406
-0.380916
-0.346913
-0.315021
-0.285493
-0.258345
-0.233469
-0.2107
-0.189854
-0.170749
-0.153291
-0.137125
-0.121677
-0.57646
-0.566178
-0.553634
-0.534097
-0.507633
-0.47585
-0.440844
-0.404706
-0.3691
-0.33512
-0.303351
-0.274013
-0.247098
-0.22248
-0.199987
-0.179427
-0.160616
-0.143461
-0.127573
-0.112414
-0.565992
-0.555977
-0.543291
-0.523342
-0.496343
-0.464049
-0.428662
-0.392317
-0.356668
-0.322775
-0.291187
-0.262088
-0.235448
-0.211128
-0.188944
-0.168701
-0.150213
-0.133386
-0.117799
-0.102946
-0.554503
-0.544773
-0.53196
-0.51163
-0.484147
-0.451411
-0.415721
-0.379247
-0.343627
-0.309888
-0.278535
-0.249725
-0.223403
-0.199418
-0.177578
-0.157683
-0.139544
-0.123072
-0.107807
-0.0932785
-0.541994
-0.532566
-0.519642
-0.498965
-0.471054
-0.437946
-0.402033
-0.365507
-0.32999
-0.296466
-0.265406
-0.236932
-0.210971
-0.187358
-0.165896
-0.146377
-0.128617
-0.112524
-0.0976009
-0.0834181
-0.528467
-0.519357
-0.506343
-0.485355
-0.457074
-0.423668
-0.38761
-0.351111
-0.315767
-0.282522
-0.251808
-0.223718
-0.198159
-0.174955
-0.153904
-0.134793
-0.117438
-0.101748
-0.087188
-0.0733712
-0.51393
-0.505154
-0.492069
-0.470811
-0.442219
-0.40859
-0.372468
-0.336073
-0.300973
-0.268069
-0.237754
-0.210093
-0.184977
-0.16222
-0.141611
-0.122937
-0.106013
-0.0907512
-0.0765747
-0.0631444
-0.498394
-0.489968
-0.476833
-0.455347
-0.426507
-0.392731
-0.356625
-0.320411
-0.285622
-0.253119
-0.223255
-0.19607
-0.171438
-0.149161
-0.129027
-0.110819
-0.0943531
-0.0795416
-0.0657687
-0.0527451
-0.481874
-0.473812
-0.460651
-0.43898
-0.409957
-0.37611
-0.3401
-0.304142
-0.269732
-0.237688
-0.208327
-0.181662
-0.157551
-0.135791
-0.116163
-0.0984485
-0.0824659
-0.068128
-0.0547782
-0.0421811
-0.464388
-0.456703
-0.44354
-0.421731
-0.392591
-0.35875
-0.322914
-0.287285
-0.253321
-0.221794
-0.192984
-0.166882
-0.143332
-0.122122
-0.10303
-0.0858365
-0.0703622
-0.0565199
-0.0436124
-0.0314609
-0.445957
-0.438663
-0.425523
-0.403622
-0.374432
-0.340676
-0.305092
-0.269863
-0.236409
-0.205453
-0.177243
-0.151746
-0.128792
-0.108166
-0.0896409
-0.0729946
-0.0580529
-0.0447275
-0.0322809
-0.0205939
-0.426606
-0.419716
-0.406625
-0.384681
-0.355508
-0.321915
-0.286655
-0.251899
-0.219016
-0.188685
-0.161121
-0.136269
-0.113949
-0.0939377
-0.076008
-0.0599354
-0.0455497
-0.032762
-0.0207946
-0.00959017
-0.406363
-0.399888
-0.386874
-0.364939
-0.335855
-0.302484
-0.267633
-0.233418
-0.201165
-0.171511
-0.144637
-0.120469
-0.0988171
-0.0794523
-0.0621457
-0.046672
-0.0328652
-0.0206352
-0.00916464
0.00153928
-0.385258
-0.37921
-0.3663
-0.344428
-0.31551
-0.282411
-0.248052
-0.214445
-0.18288
-0.153951
-0.12781
-0.104365
-0.0834136
-0.0647253
-0.0480687
-0.0332184
-0.0200129
-0.0083597
0.00259655
0.0127823
-0.363324
-0.357716
-0.344938
-0.323179
-0.294459
-0.261769
-0.227944
-0.195008
-0.164185
-0.136029
-0.110662
-0.087974
-0.0677562
-0.0497731
-0.0337926
-0.0195894
-0.0070067
0.00405112
0.0144759
0.0241251
-0.340598
-0.335442
-0.322826
-0.301226
-0.272781
-0.240557
-0.207341
-0.175135
-0.145107
-0.117769
-0.0932141
-0.0713176
-0.0518632
-0.0346129
-0.0193334
-0.00580004
0.00613866
0.0165833
0.0264595
-0.317117
-0.312426
-0.300001
-0.278601
-0.250513
-0.218814
-0.186275
-0.154856
-0.125672
-0.0991943
-0.0754886
-0.0544159
-0.0357539
-0.0192623
-0.00470754
0.00813384
0.019408
0.0292225
-0.29292
-0.288709
-0.276495
-0.255361
-0.227687
-0.196577
-0.164778
-0.134201
-0.105909
-0.0803311
-0.0575089
-0.0372905
-0.0194478
-0.00373953
0.010068
0.0221962
0.0327857
-0.268047
-0.264339
-0.252358
-0.231543
-0.204343
-0.173885
-0.142887
-0.113204
-0.0858468
-0.0612057
-0.0392993
-0.0199633
-0.00296542
0.0119367
0.0249761
0.036371
-0.242535
-0.23937
-0.22764
-0.207188
-0.180522
-0.150778
-0.120636
-0.0918955
-0.0655145
-0.0418454
-0.0208847
-0.00245735
0.0136725
0.0277474
0.0399994
0.0506421
-0.216455
-0.213835
-0.202388
-0.182343
-0.156268
-0.127296
-0.0980627
-0.07031
-0.0449432
-0.0222781
-0.00229054
0.0152041
0.0304446
0.0436731
0.0551205
-0.189892
-0.187753
-0.176646
-0.157054
-0.131626
-0.103479
-0.0752047
-0.0484819
-0.0241642
-0.00253254
0.0164568
0.032997
0.0473289
0.0596944
-0.162859
-0.161198
-0.150464
-0.13137
-0.106639
-0.0793704
-0.0521005
-0.0264462
-0.00320953
0.017362
0.0353306
0.0508968
0.0643032
0.0757911
-0.135398
-0.13423
-0.123892
-0.105338
-0.0813552
-0.0550123
-0.0287892
-0.00423854
0.0178881
0.0373757
0.0543033
0.0688783
0.0813446
-0.107566
-0.106903
-0.0969819
-0.079009
-0.0558203
-0.0304481
-0.00531042
0.0181047
0.0390956
0.0574781
0.073347
0.0869159
0.0984294
-0.0794202
-0.0792703
-0.069787
-0.0524335
-0.0300823
-0.00572162
0.0182956
0.0405469
0.0603793
0.0776383
0.0924334
0.104983
-0.0510153
-0.0513834
-0.04236
-0.0256621
-0.00418861
0.0191229
0.0419883
0.0630508
0.081705
0.0978249
0.111533
-0.0224088
-0.0232986
-0.0147555
0.00125315
0.0218121
0.0440409
0.0657268
0.085579
0.103039
0.118006
0.130618
0.00634185
0.00492798
0.0129717
0.0282602
0.0478712
0.0689875
0.0894701
0.108094
0.124345
0.138151
0.0351791
0.0332401
0.0407667
0.0553068
0.0739401
0.0939178
0.113177
0.130558
0.145591
0.158227
0.0640452
0.061581
0.0685742
0.0823406
0.0999699
0.118787
0.136806
0.152933
0.166741
0.178202
0.0928823
0.0898939
0.0963393
0.109309
0.125912
0.14355
0.160317
0.175182
0.187759
0.121632
0.118122
0.124007
0.136161
0.151718
0.168163
0.183668
0.197267
0.208613
0.150238
0.146209
0.151522
0.162844
0.17734
0.192581
0.206819
0.219151
0.178642
0.174097
0.17883
0.189306
0.20273
0.21676
0.22973
0.240796
0.206787
0.201732
0.205877
0.215497
0.227841
0.240657
0.252361
0.234618
0.229058
0.23261
0.241366
0.252626
0.264229
0.274671
0.262078
0.25602
0.258976
0.266865
0.277039
0.287433
0.296624
0.289112
0.282565
0.284924
0.291944
0.301035
0.310229
0.315668
0.308639
0.310402
0.316555
0.324571
0.332576
0.341691
0.334191
0.335361
0.340651
0.347602
0.354433
0.367131
0.35917
0.359752
0.364188
0.370086
0.391937
0.383527
0.383528
0.38712
0.391983
0.416061
0.407213
0.406642
0.409405
0.413252
0.439454
0.430182
0.429051
0.431
0.433855
0.462071
0.45239
0.450709
0.451865
0.483867
0.473791
0.471577
0.471961
0.504801
0.494345
0.491615
0.491251
0.52483
0.514012
0.510783
0.509699
0.543917
0.532753
0.529046
0.527271
0.562024
0.550533
0.546368
0.579116
0.567317
0.562718
0.595161
0.583073
0.578064
0.610128
0.597771
0.592379
0.623989
0.611383
0.605634
0.636716
0.623884
0.617807
0.648288
0.63525
0.628874
0.658681
0.645459
0.638815
0.667878
0.654495
0.647614
0.67586
0.662339
0.682615
0.668978
0.688129
0.674401
0.692394
0.678597
0.695403
0.681561
0.697151
0.683289
0.697637
0.683779
0.696862
0.683031
0.694829
0.681049
0.691544
0.677838
0.687015
0.673407
0.681253
0.667766
0.674272
0.660929
0.654004
0.666087
0.652911
0.646215
0.656716
0.64373
0.637294
0.646181
0.633406
0.62726
0.634503
0.621961
0.616135
0.62171
0.609421
0.603942
0.607827
0.595813
0.590707
0.592886
0.581165
0.576458
0.576918
0.56551
0.561225
0.559957
0.548881
0.54504
0.543039
0.542039
0.531313
0.527938
0.526606
0.523204
0.512843
0.509953
0.509318
0.50349
0.493512
0.491124
0.491212
0.482941
0.473361
0.471491
0.472324
0.461598
0.452432
0.451093
0.452693
0.455155
0.439509
0.430769
0.429974
0.432358
0.43578
0.416721
0.40842
0.408178
0.411362
0.415764
0.39328
0.385431
0.385751
0.389746
0.395147
0.400338
0.369239
0.361852
0.362741
0.367556
0.37397
0.380277
0.344647
0.337734
0.339194
0.344836
0.352274
0.359713
0.319557
0.313127
0.315161
0.321633
0.330104
0.338688
0.294023
0.288084
0.290692
0.297995
0.307502
0.31724
0.325827
0.2681
0.262658
0.265839
0.27397
0.284514
0.295412
0.305205
0.241842
0.236905
0.240654
0.249607
0.261186
0.273245
0.28425
0.215306
0.21088
0.215191
0.224957
0.237564
0.250783
0.263003
0.273393
0.188548
0.184637
0.189503
0.200071
0.213696
0.228069
0.241503
0.253108
0.161626
0.158234
0.163645
0.174999
0.189628
0.205146
0.21979
0.23261
0.243253
0.134597
0.131727
0.137671
0.149793
0.165409
0.182059
0.197905
0.211936
0.22376
0.107519
0.105172
0.111637
0.124506
0.141088
0.158852
0.175889
0.191124
0.204125
0.214851
0.0804498
0.0786268
0.0855971
0.0991895
0.116713
0.135571
0.153782
0.170211
0.184383
0.196233
0.053447
0.0521478
0.0596068
0.0738962
0.0923322
0.11226
0.131627
0.149236
0.164568
0.177534
0.0265683
0.0257914
0.0337211
0.0486782
0.0679954
0.0889636
0.109464
0.128235
0.144715
0.158788
0.170577
-0.000129179
-0.000386508
0.00799476
0.0235876
0.0437508
0.0657275
0.0873341
0.107247
0.124858
0.140026
0.152858
0.163564
-0.0265884
-0.0263305
-0.017518
-0.00132376
0.0196469
0.0425961
0.0652787
0.0863091
0.105033
0.12128
0.135144
0.146828
-0.0527521
-0.0519857
-0.042763
-0.0260043
-0.00426815
0.0196137
0.0433384
0.0654587
0.0852729
0.102581
0.117461
0.130111
0.140764
-0.0785663
-0.0773005
-0.0676882
-0.050404
-0.027947
-0.0031756
0.0215535
0.0447327
0.065612
0.0839606
0.0998394
0.11344
0.124994
-0.103972
-0.102223
-0.0922417
-0.0744727
-0.0513427
-0.0257284
-3.62284e-05
0.0241674
0.0460834
0.0654488
0.0823067
0.0968414
0.109283
0.119861
-0.128922
-0.126697
-0.116373
-0.0981615
-0.0744089
-0.048002
-0.0213914
0.00379884
0.0267202
0.047076
0.0648908
0.0803402
0.0936516
0.105056
-0.153408
-0.150641
-0.140031
-0.121423
-0.0971004
-0.069954
-0.0424734
-0.0163378
0.00755435
0.0288718
0.0476186
0.0639612
0.0781242
0.0903386
0.100825
-0.177351
-0.174035
-0.163172
-0.14421
-0.119373
-0.0915434
-0.0632444
-0.036208
-0.0113824
0.0108648
0.0305165
0.0477287
0.0627223
0.0757279
0.0869675
0.0966462
-0.200674
-0.19685
-0.185751
-0.166476
-0.141183
-0.11273
-0.0836673
-0.0557778
-0.0300593
-0.00691654
0.0136105
0.0316664
0.0474674
0.0612436
0.0732172
0.0835973
0.092518
-0.22334
-0.219031
-0.207718
-0.188179
-0.16249
-0.133473
-0.103706
-0.0750144
-0.0484463
-0.024445
-0.00307442
0.0157971
0.0323806
0.0469047
0.0595917
0.070653
0.0802281
-0.24531
-0.240531
-0.229021
-0.209284
-0.183252
-0.153735
-0.123326
-0.0938859
-0.0665143
-0.0416938
-0.019514
0.000143121
0.0174823
0.03273
0.046108
0.0578293
0.0680383
0.0768361
-0.266545
-0.261308
-0.249629
-0.229733
-0.20344
-0.173475
-0.142493
-0.112361
-0.084235
-0.0586374
-0.0356845
-0.0152739
0.00279234
0.0187377
0.0327831
0.0451421
0.0559638
0.0653431
0.0741102
-0.287007
-0.281324
-0.269505
-0.249494
-0.223019
-0.192654
-0.161176
-0.130411
-0.101581
-0.0752508
-0.0515634
-0.030433
-0.0116701
0.00494558
0.0196333
0.032607
0.0440201
0.0539629
0.0632342
0.0717783
-0.30666
-0.300543
-0.288611
-0.268532
-0.24189
-0.211292
-0.179344
-0.148005
-0.118527
-0.0915104
-0.0671288
-0.0453143
-0.0258864
-0.00862915
0.00667499
0.0202394
0.0322217
0.0427095
0.0524673
0.0615023
-0.325472
-0.318933
-0.306913
-0.28682
-0.260091
-0.229292
-0.196963
-0.165117
-0.135047
-0.107393
-0.0823599
-0.0598984
-0.0398388
-0.0219699
-0.00607646
0.00805406
0.0205831
0.0315965
0.0418229
0.0513298
-0.343413
-0.336462
-0.324381
-0.304323
-0.27758
-0.246633
-0.214005
-0.181721
-0.151118
-0.122877
-0.0972366
-0.074167
-0.0535103
-0.0350608
-0.0186061
-0.00393484
0.00911784
0.0206366
0.0313136
0.0412739
-0.360454
-0.353104
-0.340987
-0.32101
-0.294318
-0.263299
-0.230443
-0.197793
-0.166717
-0.137943
-0.11174
-0.0881028
-0.0668848
-0.0478868
-0.0308997
-0.0157138
-0.00216123
0.00984222
0.0209512
0.0313463
-0.376571
-0.368835
-0.356706
-0.336856
-0.310278
-0.279264
-0.246256
-0.213308
-0.181823
-0.152569
-0.125853
-0.101689
-0.0799469
-0.0604335
-0.0429438
-0.0272701
-0.013242
-0.000775357
0.0107468
0.0215577
-0.391744
-0.383636
-0.371518
-0.351837
-0.325437
-0.294502
-0.261419
-0.228245
-0.196415
-0.166739
-0.139558
-0.114911
-0.0926825
-0.0726877
-0.0547258
-0.0385918
-0.0241131
-0.0112055
0.000710455
0.0119177
-0.405954
-0.397489
-0.385404
-0.365934
-0.339773
-0.308991
-0.275911
-0.242585
-0.210477
-0.180437
-0.152841
-0.127755
-0.105078
-0.0846367
-0.0662339
-0.0496677
-0.0347641
-0.0214382
-0.00914833
0.0024355
-0.419189
-0.410382
-0.398349
-0.37913
-0.353268
-0.322712
-0.289713
-0.256309
-0.22399
-0.193645
-0.165686
-0.140206
-0.117122
-0.0962693
-0.0774573
-0.0604877
-0.0451853
-0.0314646
-0.0188209
-0.00688082
-0.431436
-0.422303
-0.410342
-0.391411
-0.365906
-0.335648
-0.302807
-0.269401
-0.23694
-0.206351
-0.178082
-0.152254
-0.128802
-0.107575
-0.0883862
-0.0710424
-0.0553678
-0.0412762
-0.0282993
-0.0160235
-0.442691
-0.433248
-0.421376
-0.402768
-0.377675
-0.347784
-0.315178
-0.281846
-0.249313
-0.218541
-0.190016
-0.163886
-0.14011
-0.118544
-0.0990115
-0.0813232
-0.0653036
-0.0508657
-0.0375764
-0.0249855
-0.452949
-0.443215
-0.431448
-0.413194
-0.388564
-0.359109
-0.326813
-0.293631
-0.261096
-0.230205
-0.201478
-0.175095
-0.151035
-0.129168
-0.109325
-0.0913225
-0.0749856
-0.0602264
-0.0466459
-0.0337599
-0.462213
-0.452205
-0.440558
-0.422686
-0.398567
-0.369613
-0.337702
-0.304745
-0.27228
-0.241333
-0.212459
-0.185872
-0.16157
-0.139439
-0.11932
-0.101034
-0.0844073
-0.0693523
-0.0555024
-0.0423401
-0.470486
-0.460223
-0.448708
-0.431245
-0.407681
-0.37929
-0.347837
-0.31518
-0.282856
-0.251916
-0.222952
-0.196209
-0.171708
-0.149352
-0.128991
-0.110451
-0.0935632
-0.0782384
-0.064142
-0.0507189
-0.477777
-0.46728
-0.455908
-0.438875
-0.415907
-0.388136
-0.357211
-0.324929
-0.292817
-0.261949
-0.232951
-0.206101
-0.181444
-0.158902
-0.138332
-0.11957
-0.102448
-0.0868801
-0.0725626
-0.0588888
-0.484099
-0.473387
-0.462169
-0.445584
-0.423249
-0.396153
-0.365823
-0.333987
-0.302156
-0.271425
-0.24245
-0.215543
-0.190774
-0.168083
-0.147339
-0.128386
-0.11106
-0.0952727
-0.0807632
-0.0668462
-0.489468
-0.478563
-0.467507
-0.451384
-0.429713
-0.403341
-0.37367
-0.342351
-0.310872
-0.280341
-0.251447
-0.224531
-0.199694
-0.176892
-0.156009
-0.136896
-0.119394
-0.103413
-0.0887247
-0.0746188
-0.493903
-0.482827
-0.471939
-0.456292
-0.43531
-0.409708
-0.380756
-0.350021
-0.318962
-0.288695
-0.259938
-0.233065
-0.208203
-0.185329
-0.164339
-0.145097
-0.127448
-0.1113
-0.0964659
-0.0823099
-0.497428
-0.486204
-0.475489
-0.460325
-0.440054
-0.415261
-0.387084
-0.356998
-0.326426
-0.296487
-0.267923
-0.241142
-0.216298
-0.19339
-0.17233
-0.152989
-0.13522
-0.118931
-0.10396
-0.0897112
-0.500069
-0.48872
-0.478184
-0.463506
-0.443963
-0.420014
-0.392661
-0.363287
-0.333266
-0.303716
-0.275403
-0.248763
-0.223981
-0.201077
-0.179979
-0.160569
-0.142709
-0.126303
-0.111206
-0.0968492
-0.501856
-0.490406
-0.480051
-0.465862
-0.447058
-0.423981
-0.397499
-0.368893
-0.339487
-0.310387
-0.28238
-0.25593
-0.231253
-0.208391
-0.187288
-0.167839
-0.149914
-0.133417
-0.118217
-0.103768
-0.502821
-0.491295
-0.481124
-0.467422
-0.449363
-0.42718
-0.401609
-0.373826
-0.345092
-0.316502
-0.288855
-0.262646
-0.238115
-0.215332
-0.194257
-0.174799
-0.156836
-0.140272
-0.124994
-0.110478
-0.503
-0.491423
-0.481438
-0.468217
-0.450906
-0.429632
-0.405007
-0.378094
-0.35009
-0.322067
-0.294835
-0.268912
-0.244572
-0.221904
-0.200891
-0.181452
-0.163477
-0.146871
-0.131538
-0.116977
-0.502431
-0.490829
-0.48103
-0.468284
-0.451716
-0.431363
-0.407711
-0.381711
-0.354489
-0.327088
-0.300323
-0.274736
-0.250626
-0.228111
-0.20719
-0.187801
-0.169839
-0.153215
-0.137848
-0.123264
-0.501154
-0.489554
-0.479941
-0.467661
-0.451828
-0.432398
-0.40974
-0.384693
-0.358301
-0.331575
-0.305327
-0.280121
-0.256284
-0.233956
-0.213161
-0.193847
-0.175925
-0.159307
-0.143926
-0.129338
-0.499212
-0.487638
-0.478213
-0.466386
-0.451276
-0.432768
-0.411119
-0.387055
-0.361538
-0.335535
-0.309855
-0.285076
-0.26155
-0.239446
-0.218806
-0.199597
-0.181739
-0.165149
-0.149773
-0.135202
-0.496647
-0.485127
-0.47589
-0.464503
-0.4501
-0.432505
-0.411873
-0.388818
-0.364215
-0.338981
-0.313915
-0.289607
-0.266433
-0.244587
-0.224133
-0.205054
-0.187283
-0.170744
-0.155394
-0.140858
-0.493505
-0.482066
-0.473016
-0.462055
-0.448338
-0.431644
-0.41203
-0.390002
-0.366346
-0.341925
-0.317517
-0.293722
-0.270938
-0.249384
-0.229145
-0.210223
-0.192564
-0.176098
-0.160791
-0.146309
-0.489833
-0.4785
-0.469638
-0.459087
-0.446034
-0.430221
-0.411619
-0.390632
-0.367951
-0.344379
-0.320672
-0.297432
-0.275075
-0.253846
-0.233851
-0.215111
-0.197586
-0.181213
-0.165968
-0.151557
-0.485676
-0.474476
-0.465803
-0.455646
-0.443231
-0.428275
-0.410674
-0.390732
-0.369048
-0.34636
-0.323392
-0.300745
-0.278852
-0.257979
-0.238257
-0.219723
-0.202355
-0.186096
-0.170928
-0.156606
-0.481082
-0.47004
-0.461556
-0.451777
-0.439974
-0.425846
-0.409228
-0.39033
-0.369659
-0.347883
-0.325689
-0.303673
-0.282278
-0.261793
-0.242371
-0.224067
-0.206876
-0.19075
-0.175678
-0.16146
-0.476098
-0.465239
-0.456947
-0.447528
-0.436307
-0.422976
-0.407318
-0.389455
-0.369806
-0.348965
-0.327577
-0.306226
-0.285364
-0.265296
-0.2462
-0.22815
-0.211156
-0.195182
-0.18022
-0.166122
-0.470772
-0.460119
-0.45202
-0.442946
-0.432278
-0.419709
-0.40498
-0.388138
-0.369513
-0.349625
-0.329071
-0.308417
-0.288118
-0.268498
-0.249753
-0.231979
-0.215202
-0.199397
-0.184561
-0.170597
-0.465148
-0.454724
-0.446821
-0.438077
-0.427931
-0.416086
-0.402253
-0.386411
-0.368806
-0.349883
-0.330186
-0.310257
-0.290552
-0.271407
-0.253038
-0.235562
-0.219021
-0.203402
-0.188707
-0.174889
-0.459272
-0.449099
-0.441394
-0.432966
-0.423311
-0.412151
-0.399176
-0.384308
-0.367712
-0.349759
-0.330938
-0.311761
-0.292676
-0.274033
-0.256065
-0.238906
-0.222619
-0.207203
-0.192662
-0.179004
-0.453187
-0.443285
-0.435783
-0.427657
-0.418464
-0.407949
-0.39579
-0.381862
-0.366258
-0.349276
-0.331344
-0.31294
-0.294503
-0.276386
-0.258841
-0.242021
-0.226004
-0.210807
-0.196433
-0.182947
-0.446936
-0.437324
-0.430027
-0.422191
-0.413432
-0.403521
-0.392135
-0.379109
-0.364475
-0.348456
-0.331422
-0.313809
-0.296042
-0.278476
-0.261376
-0.244913
-0.229184
-0.21422
-0.200025
-0.186721
-0.44056
-0.431255
-0.424167
-0.41661
-0.408257
-0.398909
-0.388251
-0.376086
-0.362392
-0.347324
-0.33119
-0.314383
-0.297305
-0.280312
-0.263679
-0.247592
-0.232166
-0.21745
-0.203445
-0.190334
-0.434096
-0.425113
-0.418239
-0.410951
-0.402979
-0.394155
-0.384176
-0.372829
-0.360041
-0.345905
-0.330668
-0.314676
-0.298305
-0.281905
-0.265758
-0.250065
-0.234958
-0.220502
-0.2067
-0.19379
-0.42758
-0.418933
-0.412278
-0.405251
-0.397635
-0.389297
-0.379952
-0.369373
-0.357452
-0.344224
-0.329875
-0.314703
-0.299053
-0.283264
-0.267621
-0.25234
-0.237566
-0.223384
-0.209794
-0.197094
-0.421048
-0.412747
-0.406315
-0.399542
-0.392262
-0.384373
-0.375614
-0.365756
-0.354658
-0.342307
-0.328833
-0.31448
-0.299562
-0.284399
-0.269279
-0.254425
-0.239998
-0.226102
-0.212734
-0.200253
-0.41453
-0.406585
-0.400379
-0.393856
-0.386891
-0.379417
-0.371199
-0.362011
-0.35169
-0.340182
-0.327562
-0.314024
-0.299843
-0.28532
-0.270737
-0.256327
-0.242261
-0.228663
-0.215527
-0.203271
-0.408055
-0.400474
-0.394498
-0.388219
-0.381552
-0.374463
-0.366741
-0.358173
-0.348582
-0.337877
-0.326084
-0.31335
-0.299909
-0.286035
-0.272005
-0.258053
-0.244361
-0.231073
-0.218177
-0.206153
-0.401649
-0.394437
-0.388696
-0.382657
-0.376273
-0.369538
-0.362272
-0.354274
-0.345362
-0.335417
-0.324423
-0.312477
-0.299772
-0.286556
-0.273089
-0.259609
-0.246305
-0.233337
-0.22069
-0.208906
-0.395337
-0.388496
-0.382992
-0.377191
-0.371078
-0.364672
-0.357822
-0.350347
-0.342063
-0.332832
-0.3226
-0.311422
-0.299446
-0.28689
-0.273998
-0.261002
-0.248098
-0.235461
-0.223072
-0.211533
-0.389139
-0.382671
-0.377407
-0.371841
-0.365987
-0.359887
-0.353419
-0.34642
-0.338713
-0.330147
-0.32064
-0.310202
-0.298944
-0.287048
-0.274737
-0.262238
-0.249744
-0.237451
-0.225327
-0.214041
-0.383073
-0.376977
-0.371955
-0.366624
-0.361019
-0.355205
-0.349085
-0.342519
-0.33534
-0.32739
-0.318563
-0.308837
-0.29828
-0.287039
-0.275314
-0.263321
-0.25125
-0.23931
-0.227459
-0.216434
-0.377155
-0.37143
-0.36665
-0.361552
-0.35619
-0.350643
-0.344843
-0.33867
-0.33197
-0.324586
-0.316395
-0.307345
-0.297466
-0.286873
-0.275736
-0.264256
-0.252618
-0.241042
-0.371399
-0.366039
-0.361503
-0.356637
-0.351511
-0.346217
-0.34071
-0.334893
-0.328627
-0.321759
-0.314157
-0.305744
-0.296518
-0.286559
-0.276008
-0.265047
-0.253853
-0.365815
-0.360815
-0.356523
-0.351888
-0.346992
-0.341939
-0.336702
-0.331207
-0.325331
-0.318931
-0.31187
-0.304053
-0.29545
-0.286107
-0.276137
-0.360412
-0.355766
-0.351715
-0.34731
-0.342641
-0.337817
-0.332832
-0.327628
-0.322104
-0.316125
-0.309556
-0.302291
-0.294277
-0.285528
-0.355196
-0.350895
-0.347085
-0.342909
-0.338462
-0.33386
-0.329108
-0.32417
-0.31896
-0.313358
-0.307234
-0.300476
-0.350171
-0.346207
-0.342635
-0.338687
-0.334459
-0.330069
-0.325538
-0.320842
-0.315913
-0.310647
-0.304923
-0.345339
-0.341703
-0.338367
-0.334643
-0.330631
-0.326449
-0.322125
-0.317651
-0.312974
-0.308006
-0.340702
-0.337384
-0.334279
-0.330778
-0.326979
-0.322998
-0.318872
-0.314602
-0.310152
-0.33626
-0.33325
-0.330371
-0.327089
-0.3235
-0.319715
-0.315777
-0.311697
-0.33201
-0.329298
-0.32664
-0.323573
-0.32019
-0.316597
-0.312839
-0.327951
-0.325525
-0.323084
-0.320227
-0.317045
-0.313638
-0.324079
-0.32193
-0.319698
-0.317046
-0.31406
-0.320392
-0.31851
-0.316479
-0.314026
-0.316886
-0.315259
-0.313424
-0.313558
-0.312177
-0.310407
-0.30926
-0.30743
-0.228589
-0.234222
-0.239694
-0.245013
-0.250182
-0.255209
-0.2601
-0.264862
-0.269501
-0.274025
-0.278441
-0.282756
-0.28698
-0.291118
-0.29518
-0.299174
-0.218785
-0.224279
-0.22963
-0.234842
-0.23992
-0.24487
-0.249697
-0.254407
-0.259006
-0.2635
-0.267897
-0.272203
-0.276425
-0.28057
-0.284646
-0.288659
-0.209342
-0.214685
-0.219901
-0.224994
-0.229968
-0.234828
-0.239579
-0.244226
-0.248775
-0.253231
-0.257601
-0.26189
-0.266105
-0.270252
-0.274339
-0.278371
-0.200248
-0.20544
-0.210518
-0.215488
-0.220352
-0.225116
-0.229782