/*--------------------------------*- C++ -*----------------------------------*\
  =========                 |
  \\      /  F ield         | OpenFOAM: The Open Source CFD Toolbox
   \\    /   O peration     | Website:  https://openfoam.org
    \\  /    A nd           | Version:  7
     \\/     M anipulation  |
\*---------------------------------------------------------------------------*/
FoamFile
{
    version     2.0;
    format      ascii;
    class       surfaceScalarField;
    location    "80";
    object      phi;
}
// * * * * * * * * * * * * * * * * * * * * * * * * * * * * * * * * * * * * * //

dimensions      [0 3 -1 0 0 0 0];

internalField   nonuniform List<scalar> 
16607
(
1.69378e-05
1.1124e-06
1.58254e-05
2.90092e-05
1.22449e-06
1.46009e-05
6.05931e-06
2.41744e-05
1.4235e-05
1.35539e-06
1.32455e-05
6.62812e-06
1.89016e-05
3.7481e-06
1.50493e-06
1.17406e-05
7.2636e-06
1.3143e-05
1.86317e-05
-7.62004e-06
-5.21328e-05
1.67261e-06
1.0068e-05
7.96397e-06
6.85161e-06
2.02827e-05
-1.99388e-05
4.00883e-05
-7.19384e-05
-0.000150963
1.85777e-06
8.21023e-06
8.7265e-06
-1.71208e-08
2.20614e-05
-3.32737e-05
4.33661e-05
-9.32431e-05
7.41662e-05
-0.000181763
-0.000300637
2.05954e-06
6.15069e-06
9.54781e-06
-7.50539e-06
2.39594e-05
-4.76853e-05
4.68322e-05
-0.000116116
7.97044e-05
-0.000214635
0.000124021
-0.000344954
-0.000508344
2.27695e-06
3.87374e-06
1.04239e-05
-1.56524e-05
2.59671e-05
-6.32284e-05
5.04674e-05
-0.000140616
8.54585e-05
-0.000249626
0.00013233
-0.000391826
0.000192157
-0.00056817
-0.000778507
2.50895e-06
1.36479e-06
1.13505e-05
-2.44939e-05
2.80737e-05
-7.99516e-05
5.425e-05
-0.000166793
9.13904e-05
-0.000286767
0.000140805
-0.00044124
0.000203404
-0.000630769
0.000279462
-0.000854566
-0.00110998
2.75442e-06
-1.38963e-06
1.23228e-05
-3.40623e-05
3.02676e-05
-9.78964e-05
5.8157e-05
-0.000194682
9.74592e-05
-0.000326069
0.000149377
-0.000493157
0.000214626
-0.000696019
0.00029319
-0.000933129
0.000384085
-0.00120087
-0.0014933
3.01225e-06
-4.40188e-06
1.33359e-05
-4.4386e-05
3.25365e-05
-0.000117097
6.21638e-05
-0.000224309
0.000103622
-0.000367527
0.000157978
-0.000547513
0.000225723
-0.000763764
0.000306517
-0.00101392
0.000398984
-0.00129334
0.000500641
-0.00159496
-0.00190968
3.28128e-06
-7.68316e-06
1.43847e-05
-5.54895e-05
3.48676e-05
-0.00013758
6.62447e-05
-0.000255686
0.000109833
-0.000411115
0.000166538
-0.000604217
0.000236592
-0.000833818
0.000319311
-0.00109664
0.000412916
-0.00138695
0.000514538
-0.00169658
0.000620438
-0.00201558
0.000726456
-0.00233328
-0.00263975
3.56037e-06
-1.12435e-05
1.5464e-05
-6.73931e-05
3.72474e-05
-0.000159363
7.03732e-05
-0.000288812
0.000116048
-0.000456791
0.000174985
-0.000663154
0.000247133
-0.000905966
0.000331442
-0.00118095
0.000425737
-0.00148124
0.000526791
-0.00179763
0.000630646
-0.00211943
0.000733122
-0.00243576
0.000830411
-0.00273704
-0.00301625
3.84831e-06
-1.50918e-05
1.65681e-05
-8.01129e-05
3.96622e-05
-0.000182457
7.45219e-05
-0.000323672
0.00012222
-0.000504488
0.000183248
-0.000724183
0.000257248
-0.000979966
0.000342792
-0.00126649
0.000437318
-0.00157577
0.000537288
-0.00189761
0.000638592
-0.00222074
0.000737113
-0.00253428
0.000829311
-0.00282924
0.000912672
-0.00309961
-0.00334282
4.14388e-06
-1.92357e-05
1.76915e-05
-9.36605e-05
4.20974e-05
-0.000206863
7.86626e-05
-0.000360237
0.0001283
-0.000554126
0.000191256
-0.000787139
0.000266842
-0.00105555
0.000353248
-0.0013529
0.000447547
-0.00167007
0.000545942
-0.001996
0.000644243
-0.00231904
0.000738469
-0.00262851
0.000825405
-0.00291618
0.000902979
-0.00317718
0.000970368
-0.00341021
0.00102788
-0.00361702
-0.00380155
4.44581e-06
-2.36815e-05
1.88282e-05
-0.000108043
4.45385e-05
-0.000232574
8.27666e-05
-0.000398465
0.000134242
-0.000605601
0.00019894
-0.000851838
0.000275826
-0.00113244
0.000362711
-0.00143979
0.000456334
-0.00176369
0.000552695
-0.00209236
0.000647597
-0.00241394
0.000737263
-0.00271817
0.000818846
-0.00299776
0.000890718
-0.00324905
0.000952487
-0.00347198
0.0010048
-0.00366933
0.001049
-0.00384575
-0.00400671
4.75274e-06
-2.84343e-05
1.99722e-05
-0.000123262
4.69702e-05
-0.000259572
8.6805e-05
-0.0004383
0.000139998
-0.000658793
0.000206233
-0.000918073
0.000284116
-0.00121032
0.000371094
-0.00152676
0.000463607
-0.0018562
0.000557514
-0.00218627
0.000648682
-0.00250511
0.000733595
-0.00280308
0.000809801
-0.00307397
0.000876113
-0.00331537
0.000932532
-0.0035284
0.000979989
-0.00371679
0.00101999
-0.00388574
0.00105423
-0.00404096
0.00108439
-0.00418744
-0.00433023
5.06325e-06
-3.34975e-05
2.11171e-05
-0.000139316
4.9377e-05
-0.000287832
9.07485e-05
-0.000479671
0.000145522
-0.000713567
0.000213071
-0.000985621
0.000291639
-0.00128889
0.000378323
-0.00161345
0.000469313
-0.00194719
0.000560391
-0.00227735
0.000647552
-0.00259227
0.000727586
-0.00288312
0.000798455
-0.00314483
0.00085939
-0.0033763
0.000910748
-0.00357975
0.000953691
-0.00375973
0.000989828
-0.00392188
0.00102086
-0.00407199
0.00104835
-0.00421493
-0.00435535
0.00107347
5.37582e-06
-3.88733e-05
2.22561e-05
-0.000156197
5.1743e-05
-0.000317318
9.4568e-05
-0.000522496
0.000150769
-0.000769768
0.000219394
-0.00105425
0.000298326
-0.00136782
0.000384339
-0.00169946
0.000473422
-0.00203628
0.000561343
-0.00236527
0.000644283
-0.00267521
0.000719376
-0.00295821
0.000784996
-0.00321045
0.000840771
-0.00343208
0.000887365
-0.00362635
0.000926124
-0.00379849
0.000958714
-0.00395447
0.000986795
-0.00410007
0.00101183
-0.00423997
-0.00437838
0.00103487
5.68884e-06
-4.45622e-05
2.33827e-05
-0.00017389
5.40522e-05
-0.000347988
9.82346e-05
-0.000566679
0.000155696
-0.000827229
0.000225147
-0.0011237
0.000304121
-0.0014468
0.000389099
-0.00178444
0.000475922
-0.0021231
0.000560407
-0.00244975
0.00063897
-0.00275377
0.000709112
-0.00302835
0.000769614
-0.00327096
0.000820468
-0.00348293
0.000862597
-0.00366848
0.000897484
-0.00383338
0.000926814
-0.0039838
0.000952183
-0.00412544
0.000974943
-0.00426273
-0.00439946
0.00099602
6.00064e-06
-5.05628e-05
2.44897e-05
-0.000192379
5.62886e-05
-0.000379787
0.00010172
-0.00061211
0.000160262
-0.000885771
0.000230283
-0.00119372
0.000308977
-0.00152549
0.000392573
-0.00186803
0.000476821
-0.00220735
0.000557639
-0.00253057
0.000631724
-0.00282786
0.000696953
-0.00309358
0.000752501
-0.0033265
0.000798685
-0.00352911
0.000836641
-0.00370643
0.000867947
-0.00386468
0.000894275
-0.00401013
0.000917136
-0.0041483
0.000937762
-0.00428336
-0.00441867
0.000956971
6.30944e-06
-5.68723e-05
2.557e-05
-0.00021164
5.84362e-05
-0.000412653
0.000104998
-0.000658672
0.000164429
-0.000945202
0.000234757
-0.00126405
0.000312857
-0.00160359
0.000394747
-0.00194992
0.00047614
-0.00228874
0.00055311
-0.00260754
0.000622663
-0.00289741
0.000683058
-0.00315398
0.000733839
-0.00337729
0.00077561
-0.00357088
0.000809677
-0.0037405
0.00083767
-0.00389267
0.000861223
-0.00403368
0.00088175
-0.00416883
0.000900365
-0.00430198
-0.00443608
0.000917779
6.61342e-06
-6.34857e-05
2.66165e-05
-0.000231643
6.04793e-05
-0.000446516
0.000108041
-0.000706233
0.000168163
-0.00100532
0.000238533
-0.00133442
0.000315735
-0.00168079
0.000395621
-0.00202981
0.000473919
-0.00236704
0.000546905
-0.00268052
0.000611916
-0.00296242
0.000667588
-0.00320965
0.000713807
-0.0034235
0.00075142
-0.0036085
0.000781864
-0.00377094
0.000806789
-0.0039176
0.000827766
-0.00405466
0.000846107
-0.00418717
0.000862809
-0.00431868
-0.00445176
0.000878485
6.91072e-06
-7.03964e-05
2.7622e-05
-0.000252354
6.24027e-05
-0.000481297
0.000110826
-0.000754657
0.000171433
-0.00106593
0.000241583
-0.00140457
0.000317597
-0.00175681
0.000395207
-0.00210742
0.00047021
-0.00244204
0.000539118
-0.00274943
0.000599614
-0.00302292
0.000650701
-0.00326074
0.00069257
-0.00346537
0.000726277
-0.0036422
0.000753347
-0.00379801
0.000775422
-0.00393967
0.000793998
-0.00407323
0.000810277
-0.00420345
0.000825145
-0.00433354
-0.00446574
0.000839125
7.19943e-06
-7.75958e-05
2.85795e-05
-0.000273734
6.4192e-05
-0.000516909
0.000113331
-0.000803796
0.000174214
-0.00112681
0.000243885
-0.00147424
0.000318436
-0.00183136
0.000393529
-0.00218251
0.000465073
-0.00251359
0.00052985
-0.00281421
0.000585891
-0.00307896
0.000632548
-0.00330739
0.000670286
-0.00350311
0.000700327
-0.00367225
0.000724254
-0.00382194
0.000743674
-0.00395909
0.000759997
-0.00408956
0.000774318
-0.00421777
0.000787414
-0.00434664
-0.00447806
0.000799731
7.47768e-06
-8.50735e-05
2.94822e-05
-0.000295739
6.58334e-05
-0.00055326
0.000115536
-0.000853499
0.000176483
-0.00118776
0.000245423
-0.00154318
0.000318258
-0.00190419
0.000390622
-0.00225488
0.000458582
-0.00258155
0.000519207
-0.00287484
0.00057088
-0.00313063
0.000613275
-0.00334979
0.000647099
-0.00353693
0.000673703
-0.00369885
0.000694695
-0.00384293
0.000711633
-0.00397603
0.000725832
-0.00410376
0.000738278
-0.00423021
0.000749652
-0.00435801
-0.00448873
0.000760328
7.74356e-06
-9.28171e-05
3.03235e-05
-0.000318319
6.73142e-05
-0.000590251
0.000117423
-0.000903607
0.000178224
-0.00124856
0.000246192
-0.00161115
0.000317075
-0.00197508
0.000386531
-0.00232433
0.000450812
-0.00264583
0.000507298
-0.00293132
0.00055471
-0.00317804
0.000593021
-0.0033881
0.000623143
-0.00356706
0.000646524
-0.00372223
0.000664772
-0.00386118
0.000679378
-0.00399064
0.000691558
-0.00411594
0.000702198
-0.00424085
0.000711888
-0.0043677
-0.00449778
0.000720939
7.99526e-06
-0.000100812
3.10971e-05
-0.000341421
6.8623e-05
-0.000627777
0.000118977
-0.000953961
0.000179424
-0.00130901
0.00024619
-0.00167791
0.000314911
-0.0020438
0.000381305
-0.00239072
0.000441848
-0.00270637
0.000494231
-0.00298371
0.000537506
-0.00322132
0.000571915
-0.00342251
0.000598541
-0.00359368
0.000618896
-0.00374259
0.000634568
-0.00387685
0.000646972
-0.00400304
0.000657225
-0.00412619
0.000666114
-0.00424974
0.000674149
-0.00437574
-0.00450522
0.000681584
8.23098e-06
-0.000109043
3.17972e-05
-0.000364987
6.97495e-05
-0.000665729
0.000120187
-0.0010044
0.000180075
-0.0013689
0.000245423
-0.00174326
0.000311794
-0.00211017
0.000375004
-0.00245394
0.000431774
-0.00276314
0.000480116
-0.00303205
0.000519389
-0.00326059
0.000550077
-0.0034532
0.000573401
-0.00361701
0.000590912
-0.0037601
0.00060416
-0.0038901
0.000614475
-0.00401336
0.000622875
-0.00413459
0.000630057
-0.00425692
0.000636458
-0.00438214
-0.00451104
0.000642283
8.44903e-06
-0.000117492
3.24185e-05
-0.000388956
7.06849e-05
-0.000703996
0.000121043
-0.00105476
0.000180176
-0.00142803
0.000243904
-0.00180699
0.000307758
-0.00217402
0.000367689
-0.00251387
0.00042068
-0.00281613
0.000465057
-0.00307642
0.000500472
-0.00329601
0.000527617
-0.00348034
0.000547824
-0.00363721
0.000562657
-0.00377493
0.000573613
-0.00390106
0.000581933
-0.00402168
0.000588542
-0.0041412
0.000594051
-0.00426243
0.000598834
-0.00438692
-0.00451526
0.000603052
8.64782e-06
-0.00012614
3.29563e-05
-0.000413265
7.14218e-05
-0.000742461
0.000121538
-0.00110487
0.000179726
-0.00148622
0.000241651
-0.00186891
0.000302845
-0.00223521
0.000359426
-0.00257045
0.000408652
-0.00286536
0.000449157
-0.00311693
0.00048086
-0.00332771
0.000504637
-0.00350412
0.000521898
-0.00365447
0.000534202
-0.00378724
0.000542982
-0.00390984
0.00054939
-0.00402808
0.000554257
-0.00414607
0.000558121
-0.0042663
0.000561295
-0.0043901
-0.00451788
0.000563908
8.82587e-06
-0.000134966
3.34063e-05
-0.000437845
7.19544e-05
-0.000781009
0.000121671
-0.00115459
0.000178734
-0.00154328
0.000238685
-0.00192887
0.000297099
-0.00229363
0.000350283
-0.00262363
0.000395777
-0.00291085
0.000432513
-0.00315367
0.000460655
-0.00335585
0.000481229
-0.00352469
0.000495703
-0.00366895
0.000505613
-0.00379714
0.000512318
-0.00391654
0.000516881
-0.00403265
0.000520047
-0.00414923
0.000522285
-0.00426854
0.000523859
-0.00439167
-0.00451888
0.000524864
8.98183e-06
-0.000143948
3.3765e-05
-0.000462628
7.22783e-05
-0.000819523
0.000121439
-0.00120375
0.000177206
-0.00159905
0.000235034
-0.00198669
0.000290569
-0.00234916
0.000340329
-0.00267339
0.000382141
-0.00295266
0.000415219
-0.00318674
0.000439947
-0.00338058
0.000457477
-0.00354222
0.00046931
-0.00368078
0.000476944
-0.00380478
0.000481662
-0.00392126
0.000484437
-0.00403542
0.000485935
-0.00415073
0.000486563
-0.00426916
0.00048654
-0.00439165
-0.00451828
0.000485936
9.11562e-06
-0.000153063
3.40318e-05
-0.000487545
7.23944e-05
-0.000857885
0.00012085
-0.00125221
0.000175164
-0.00165336
0.000230735
-0.00204226
0.000283311
-0.00240174
0.000329641
-0.00271972
0.000367833
-0.00299085
0.00039737
-0.00321628
0.000418829
-0.00340204
0.000433465
-0.00355686
0.00044279
-0.0036901
0.000448253
-0.00381024
0.000451058
-0.00392406
0.000452093
-0.00403646
0.000451949
-0.00415059
0.000450977
-0.00426819
0.00044936
-0.00439003
-0.00451606
0.000447145
9.22411e-06
-0.000162288
3.42001e-05
-0.000512521
7.22948e-05
-0.00089598
0.000119899
-0.00129981
0.000172611
-0.00170607
0.000225807
-0.00209546
0.000275365
-0.0024513
0.000318271
-0.00276263
0.000352917
-0.0030255
0.000379032
-0.0032424
0.000397363
-0.00342037
0.000409243
-0.00356874
0.000416181
-0.00369704
0.000419568
-0.00381363
0.000420525
-0.00392502
0.000419858
-0.00403579
0.000418092
-0.00414882
0.000415529
-0.00426563
0.000412319
-0.00438682
-0.00451223
0.000408489
9.30748e-06
-0.000171595
3.42703e-05
-0.000537483
7.19829e-05
-0.000933693
0.000118597
-0.00134642
0.000169572
-0.00175705
0.000220293
-0.00214618
0.000266788
-0.00249779
0.000306295
-0.00280213
0.000337476
-0.00305668
0.000360288
-0.00326521
0.000375628
-0.00343571
0.000384881
-0.00357799
0.00038954
-0.0037017
0.000390932
-0.00381502
0.000390096
-0.00392418
0.00038776
-0.00403345
0.000384388
-0.00414545
0.000380239
-0.00426148
0.000375435
-0.00438202
-0.00450679
0.000369989
9.365e-06
-0.00018096
3.42417e-05
-0.00056236
7.14604e-05
-0.000970911
0.000116953
-0.00139192
0.000166069
-0.00180617
0.000214229
-0.00219434
0.000257635
-0.0025412
0.000293778
-0.00283828
0.00032158
-0.00308448
0.00034121
-0.00328484
0.000353686
-0.00344818
0.000360433
-0.00358474
0.000362912
-0.00370418
0.00036238
-0.00381449
0.000359796
-0.0039216
0.000355818
-0.00402948
0.000350851
-0.00414048
0.00034512
-0.00425575
0.000338722
-0.00437562
-0.00449972
0.000331658
9.39612e-06
-0.000190356
3.41139e-05
-0.000587078
7.07302e-05
-0.00100753
0.000114978
-0.00143616
0.000162125
-0.00185331
0.000207654
-0.00223987
0.000247958
-0.0025815
0.000280782
-0.0028711
0.000305297
-0.003109
0.000321862
-0.0033014
0.000331597
-0.00345792
0.000335947
-0.00358909
0.000336332
-0.00370456
0.000333939
-0.0038121
0.000329648
-0.00391731
0.000324047
-0.00402388
0.000317496
-0.00413393
0.000310184
-0.00424844
0.000302192
-0.00436763
-0.00449104
0.000293507
9.40045e-06
-0.000199757
3.38872e-05
-0.000611565
6.97964e-05
-0.00104344
0.000112684
-0.00147905
0.000157764
-0.00189839
0.000200606
-0.00228271
0.000237808
-0.0026187
0.000267366
-0.00290066
0.00028869
-0.00313032
0.000302304
-0.00331502
0.000309412
-0.00346503
0.000311466
-0.00359114
0.000309836
-0.00370293
0.000305635
-0.0038079
0.000299669
-0.00391134
0.000292464
-0.00401667
0.000284335
-0.0041258
0.000275444
-0.00423955
0.000265855
-0.00435804
-0.00448073
0.00025555
9.37778e-06
-0.000209134
3.35626e-05
-0.00063575
6.86643e-05
-0.00107854
0.000110086
-0.00152047
0.000153011
-0.00194132
0.000193125
-0.00232283
0.000227235
-0.00265281
0.000253589
-0.00292701
0.000271815
-0.00314855
0.000282589
-0.00332579
0.000287179
-0.00346962
0.000287028
-0.00359099
0.000283452
-0.00369936
0.00027749
-0.00380194
0.000269877
-0.00390373
0.000261082
-0.00400788
0.000251379
-0.0041161
0.00024091
-0.00422908
0.000229724
-0.00434685
-0.00446881
0.000217797
9.32807e-06
-0.000218462
3.31416e-05
-0.000659563
6.73402e-05
-0.00111274
0.000107197
-0.00156033
0.000147895
-0.00198202
0.000185249
-0.00236018
0.000216287
-0.00268385
0.000239503
-0.00295023
0.000254728
-0.00316377
0.000262767
-0.00333383
0.000264939
-0.00347179
0.000262665
-0.00358872
0.000257205
-0.0036939
0.000249524
-0.00379425
0.000240287
-0.00389449
0.000229913
-0.0039975
0.000218641
-0.00410483
0.000206593
-0.00421703
0.000193808
-0.00433407
-0.00445526
0.00018026
9.25141e-06
-0.000227714
3.26261e-05
-0.000682938
6.5831e-05
-0.00114594
0.000104033
-0.00159853
0.000142441
-0.00202042
0.000177015
-0.00239475
0.000205012
-0.00271185
0.000225159
-0.00297037
0.000237477
-0.00317609
0.000242883
-0.00333924
0.000242729
-0.00347164
0.000238409
-0.0035844
0.00023112
-0.00368661
0.000221754
-0.00378489
0.000210914
-0.00388365
0.000198969
-0.00398556
0.00018613
-0.00409199
0.000172503
-0.0042034
0.00015812
-0.00431969
-0.00444009
0.00014295
9.14805e-06
-0.000236862
3.20186e-05
-0.000705808
6.41447e-05
-0.00117807
0.000100612
-0.001635
0.000136676
-0.00205649
0.000168462
-0.00242654
0.000193454
-0.00273684
0.000210604
-0.00298752
0.000220107
-0.00318559
0.000222977
-0.00334211
0.000220584
-0.00346924
0.000214286
-0.0035781
0.000205215
-0.00367754
0.000194195
-0.00377387
0.000181768
-0.00387122
0.000168261
-0.00397205
0.000153858
-0.00407758
0.00013865
-0.00418819
0.000122668
-0.0043037
-0.00442329
0.000105873
9.0184e-06
-0.00024588
3.1322e-05
-0.000728112
6.22897e-05
-0.00120904
9.69504e-05
-0.00166966
0.000130628
-0.00209016
0.000159626
-0.00245554
0.000181654
-0.00275887
0.000195881
-0.00300175
0.000202662
-0.00319238
0.000203086
-0.00334253
0.000198532
-0.00346469
0.000190318
-0.00356989
0.000179509
-0.00366673
0.000166863
-0.00376122
0.000152864
-0.00385723
0.0001378
-0.00395699
0.000121833
-0.00406162
0.000105043
-0.0041714
8.74615e-05
-0.00428612
-0.00440487
6.90409e-05
8.86296e-06
-0.000254743
3.05395e-05
-0.000749789
6.02749e-05
-0.00123877
9.3065e-05
-0.00170245
0.000124323
-0.00212142
0.00015054
-0.00248175
0.000169652
-0.00277798
0.000181033
-0.00301313
0.000185177
-0.00319652
0.000183242
-0.0033406
0.000176601
-0.00345805
0.000166527
-0.00355981
0.000154018
-0.00365422
0.000139768
-0.00374697
0.00012421
-0.00384167
0.000107597
-0.00394037
9.00675e-05
-0.00404409
7.16952e-05
-0.00415303
5.25003e-05
-0.00426693
-0.00438483
3.24556e-05
8.68238e-06
-0.000263426
2.96746e-05
-0.000770781
5.81097e-05
-0.00126721
8.89735e-05
-0.00173331
0.000117788
-0.00215024
0.000141239
-0.00250521
0.000157485
-0.00279423
0.000166095
-0.00302174
0.000167688
-0.00319811
0.000163474
-0.00333638
0.000154814
-0.00344939
0.00014293
-0.00354793
0.000128756
-0.00364005
0.000112924
-0.00373114
9.58187e-05
-0.00382456
7.76613e-05
-0.00392221
5.85752e-05
-0.004025
3.86298e-05
-0.00413309
1.77978e-05
-0.0042461
-0.00436275
-4.28429e-06
8.47738e-06
-0.000271903
2.87313e-05
-0.000791035
5.58037e-05
-0.00129428
8.46934e-05
-0.0017622
0.000111048
-0.00217659
0.000131754
-0.00252591
0.000145189
-0.00280766
0.000151102
-0.00302766
0.000150227
-0.00319724
0.000143809
-0.00332996
0.000133192
-0.00343877
0.000119544
-0.00353428
0.000103736
-0.00362424
8.63399e-05
-0.00371375
6.76981e-05
-0.00380592
4.80022e-05
-0.00390252
2.73625e-05
-0.00400436
5.84141e-06
-0.00411156
-1.65443e-05
-0.00422371
-0.00433949
-3.97945e-05
8.24882e-06
-0.000280152
2.77134e-05
-0.000810499
5.33667e-05
-0.00131993
8.02419e-05
-0.00178908
0.000104127
-0.00220048
0.000122114
-0.0025439
0.000132796
-0.00281835
0.000136087
-0.00303095
0.00013282
-0.00319397
0.00012427
-0.00332141
0.000111753
-0.00342625
9.63833e-05
-0.00351891
7.89681e-05
-0.00360682
6.00261e-05
-0.0036948
3.98575e-05
-0.00378575
1.86283e-05
-0.00388129
-3.5644e-06
-0.00398217
-2.66558e-05
-0.00408847
-5.0639e-05
-0.00419973
-0.00431465
-7.54869e-05
7.9976e-06
-0.000288149
2.66252e-05
-0.000829127
5.08086e-05
-0.00134412
7.5636e-05
-0.00181391
9.70492e-05
-0.00222189
0.00011235
-0.0025592
0.000120335
-0.00282633
0.000121077
-0.00303169
0.000115495
-0.00318839
0.000104878
-0.0033108
9.05148e-05
-0.00341189
7.34605e-05
-0.00350186
5.44638e-05
-0.00358782
3.39913e-05
-0.00367433
1.23053e-05
-0.00376407
-1.04516e-05
-0.00385853
-3.4192e-05
-0.00395843
-5.88557e-05
-0.00406381
-8.44189e-05
-0.00417416
-0.00428817
-0.000110893
7.7247e-06
-0.000295874
2.54711e-05
-0.000846873
4.81393e-05
-0.00136678
7.08922e-05
-0.00183666
8.98374e-05
-0.00224083
0.000102487
-0.00257185
0.000107835
-0.00283168
0.0001061
-0.00302995
9.82727e-05
-0.00318056
8.56525e-05
-0.00329818
6.94907e-05
-0.00339573
5.07871e-05
-0.00348315
3.0232e-05
-0.00356727
8.24377e-06
-0.00365234
-1.49501e-05
-0.00374087
-3.92293e-05
-0.00383425
-6.45162e-05
-0.00393314
-9.07485e-05
-0.00403758
-0.000117894
-0.00414702
-0.00426008
-0.000145982
7.43118e-06
-0.000303305
2.42554e-05
-0.000863697
4.53687e-05
-0.0013879
6.60268e-05
-0.00185732
8.2513e-05
-0.00225732
9.25496e-05
-0.00258188
9.53218e-05
-0.00283445
9.11792e-05
-0.00302581
8.11747e-05
-0.00317056
6.66091e-05
-0.00328361
4.86939e-05
-0.00337781
2.8373e-05
-0.00346283
6.28106e-06
-0.00354518
-1.72084e-05
-0.00362885
-4.19009e-05
-0.00371618
-6.76964e-05
-0.00380846
-9.45262e-05
-0.00390631
-0.000122325
-0.00400978
-0.000151055
-0.00411829
-0.00423039
-0.000180744
7.11813e-06
-0.000310423
2.29827e-05
-0.000879562
4.25064e-05
-0.00140742
6.10552e-05
-0.00187587
7.50967e-05
-0.00227136
8.25623e-05
-0.00258935
8.28185e-05
-0.00283471
7.6336e-05
-0.00301933
6.42193e-05
-0.00315844
4.77627e-05
-0.00326715
2.8136e-05
-0.00335819
6.22734e-06
-0.00344092
-1.73809e-05
-0.00352157
-4.23581e-05
-0.00360388
-6.85397e-05
-0.00369
-9.58447e-05
-0.00378115
-0.000124213
-0.00387794
-0.000153576
-0.00398041
-0.000183888
-0.00408798
-0.00419911
-0.000215171
6.78667e-06
-0.00031721
2.16575e-05
-0.000894433
3.95621e-05
-0.00142532
5.59925e-05
-0.0018923
6.76079e-05
-0.00228298
7.25463e-05
-0.00259429
7.0347e-05
-0.00283251
6.15904e-05
-0.00301057
4.74228e-05
-0.00314427
2.91265e-05
-0.00324886
7.82711e-06
-0.00333689
-1.56415e-05
-0.00341746
-4.07471e-05
-0.00349646
-6.71984e-05
-0.00357742
-9.48588e-05
-0.00366234
-0.000123666
-0.00375235
-0.000153567
-0.00384804
-0.000184493
-0.00394949
-0.000216383
-0.00405609
-0.00416624
-0.000249251
6.43796e-06
-0.000323648
2.02842e-05
-0.000908279
3.6545e-05
-0.00144159
5.08531e-05
-0.00190661
6.00649e-05
-0.00229219
6.25218e-05
-0.00259675
5.79271e-05
-0.00282791
4.69601e-05
-0.00299961
3.08001e-05
-0.00312811
1.07122e-05
-0.00322877
-1.22237e-05
-0.00331395
-3.72264e-05
-0.00339245
-6.38112e-05
-0.00346988
-9.17228e-05
-0.00354951
-0.000120851
-0.00363321
-0.000151151
-0.00372205
-0.00018258
-0.00381661
-0.000215064
-0.00391701
-0.00024853
-0.00402262
-0.0041318
-0.000282976
6.0732e-06
-0.000329721
1.88673e-05
-0.000921073
3.34642e-05
-0.00145618
4.56507e-05
-0.00191879
5.24847e-05
-0.00229902
5.25076e-05
-0.00259677
4.55769e-05
-0.00282098
3.2461e-05
-0.00298649
1.43643e-05
-0.00311002
-7.47021e-06
-0.00320694
-3.20085e-05
-0.00328941
-5.8521e-05
-0.00336594
-8.6567e-05
-0.00344183
-0.000115925
-0.00352015
-0.00014651
-0.00360262
-0.000178293
-0.00369026
-0.000211242
-0.00378366
-0.00024528
-0.00388297
-0.000280319
-0.00398758
-0.00409578
-0.000316337
5.69356e-06
-0.000335415
1.74112e-05
-0.000932791
3.03286e-05
-0.0014691
4.03983e-05
-0.00192886
4.48836e-05
-0.00230351
4.25208e-05
-0.00259441
3.33128e-05
-0.00281177
1.81075e-05
-0.00297128
-1.87296e-06
-0.00309004
-2.54115e-05
-0.0031834
-5.15203e-05
-0.0032633
-7.95192e-05
-0.00333794
-0.000109009
-0.00341234
-0.0001398
-0.00348936
-0.000171828
-0.0035706
-0.000205083
-0.00365701
-0.000239543
-0.0037492
-0.000275131
-0.00384738
-0.000311739
-0.00395097
-0.00405819
-0.000349323
5.30027e-06
-0.000340715
1.59202e-05
-0.000943411
2.71465e-05
-0.00148033
3.51085e-05
-0.00193682
3.72764e-05
-0.00230568
3.25773e-05
-0.00258971
2.11499e-05
-0.00280035
3.91289e-06
-0.00295405
-1.79016e-05
-0.00306822
-4.31036e-05
-0.0031582
-7.07527e-05
-0.00323566
-0.000100216
-0.00330848
-0.000131132
-0.00338143
-0.000163341
-0.00345716
-0.000196798
-0.00353714
-0.000231513
-0.00362229
-0.000267475
-0.00371324
-0.000304606
-0.00381025
-0.000342782
-0.0039128
-0.00401905
-0.000381924
4.89454e-06
-0.00034561
1.43986e-05
-0.000952915
2.39261e-05
-0.00148985
2.97929e-05
-0.00194269
2.96773e-05
-0.00230556
2.26917e-05
-0.00258272
9.10176e-06
-0.00278676
-1.01125e-05
-0.00293483
-3.37121e-05
-0.00304462
-6.05395e-05
-0.00313137
-8.97001e-05
-0.00320649
-0.000120606
-0.00327757
-0.000152932
-0.0033491
-0.000186543
-0.00342355
-0.000221416
-0.00350227
-0.000257576
-0.00358613
-0.000295027
-0.00367579
-0.000333695
-0.00377158
-0.000373435
-0.00387306
-0.00397835
-0.000414132
4.47764e-06
-0.000350087
1.28505e-05
-0.000961288
2.06752e-05
-0.00149768
2.44624e-05
-0.00194648
2.20995e-05
-0.0023032
1.28773e-05
-0.0025735
-2.81772e-06
-0.00277106
-2.39569e-05
-0.00291369
-4.92964e-05
-0.00301928
-7.77129e-05
-0.00310295
-0.000108358
-0.00317585
-0.000140685
-0.00324525
-0.000174405
-0.00331538
-0.000209403
-0.00338855
-0.000245675
-0.00346599
-0.000283264
-0.00354854
-0.00032219
-0.00363686
-0.000362386
-0.00373139
-0.000403688
-0.00383176
-0.00393611
-0.000445936
4.05087e-06
-0.000354138
1.128e-05
-0.000968517
1.74015e-05
-0.0015038
1.91276e-05
-0.0019482
1.45548e-05
-0.00229863
3.14941e-06
-0.00256209
-1.46027e-05
-0.00275331
-3.76122e-05
-0.00289068
-6.46474e-05
-0.00299225
-9.46183e-05
-0.00307298
-0.000126721
-0.00314375
-0.00016045
-0.00321152
-0.000195546
-0.00328029
-0.000231915
-0.00335218
-0.00026957
-0.00342834
-0.00030857
-0.00350954
-0.000348954
-0.00359648
-0.000390668
-0.00368967
-0.000433531
-0.00378889
-0.00389231
-0.000477327
3.6156e-06
-0.000357754
9.69102e-06
-0.000974592
1.4112e-05
-0.00150822
1.37997e-05
-0.00194789
7.05153e-06
-0.00229188
-6.48874e-06
-0.00254855
-2.62378e-05
-0.00273356
-5.10697e-05
-0.00286585
-7.97586e-05
-0.00296356
-0.000111251
-0.00304149
-0.000144786
-0.00311021
-0.000179897
-0.0031764
-0.000216352
-0.00324383
-0.000254076
-0.00331445
-0.000293096
-0.00338932
-0.000333487
-0.00346915
-0.00037531
-0.00355466
-0.000418528
-0.00364645
-0.00046295
-0.00374447
-0.00384697
-0.000508294
3.17279e-06
-0.000360927
8.08706e-06
-0.000979506
1.0813e-05
-0.00151095
8.48956e-06
-0.00194557
-3.51444e-07
-0.00228304
-1.60164e-05
-0.00253289
-3.77168e-05
-0.00271186
-6.43224e-05
-0.00283925
-9.46245e-05
-0.00293326
-0.000127606
-0.00300851
-0.000162549
-0.00307527
-0.000199022
-0.00313993
-0.00023682
-0.00320603
-0.000275883
-0.00327539
-0.000316249
-0.00334895
-0.000358009
-0.00342739
-0.000401249
-0.00351142
-0.000445955
-0.00360175
-0.000491934
-0.00369849
-0.00380007
-0.000538828
2.7236e-06
-0.00036365
6.47169e-06
-0.000983254
7.511e-06
-0.00151199
3.19712e-06
-0.00194125
-7.77657e-06
-0.00227206
-2.54385e-05
-0.00251523
-4.90309e-05
-0.00268827
-7.73637e-05
-0.00281091
-0.00010924
-0.00290138
-0.00014368
-0.00297407
-0.000180007
-0.00303894
-0.000217824
-0.00310211
-0.000256947
-0.00316691
-0.000297332
-0.003235
-0.000339026
-0.00330726
-0.000382133
-0.00338429
-0.000426763
-0.00346679
-0.000472937
-0.00355557
-0.000520468
-0.00365096
2.26936e-06
-0.00036592
4.84872e-06
-0.000985834
4.21166e-06
-0.00151135
-2.06159e-06
-0.00193498
-1.50819e-05
-0.00225904
-3.47359e-05
-0.00249557
-6.01729e-05
-0.00266283
-9.01877e-05
-0.0027809
-0.000123601
-0.00286797
-0.000159469
-0.0029382
-0.000197157
-0.00300126
-0.000236298
-0.00306297
-0.00027673
-0.00312648
-0.000318421
-0.00319331
-0.000361424
-0.00326426
-0.000405853
-0.00333986
-0.000451845
-0.00342079
-0.00049946
-0.00350796
1.81103e-06
-0.000367731
3.22184e-06
-0.000987245
9.28988e-07
-0.00150906
-7.29172e-06
-0.00192676
-2.23094e-05
-0.00224403
-4.39025e-05
-0.00247398
-7.1136e-05
-0.0026356
-0.000102789
-0.00274925
-0.000137702
-0.00283305
-0.000174971
-0.00290093
-0.000213996
-0.00296223
-0.000254443
-0.00302253
-0.000296168
-0.00308475
-0.000339148
-0.00315033
-0.000383441
-0.00321996
-0.000429169
-0.00329413
-0.000476489
-0.00337347
1.34913e-06
-0.00036908
1.59153e-06
-0.000987487
-2.35621e-06
-0.00150511
-1.24711e-05
-0.00191664
-2.94491e-05
-0.00222705
-5.2932e-05
-0.0024505
-8.19144e-05
-0.00260662
-0.000115163
-0.002716
-0.000151542
-0.00279667
-0.000190182
-0.00286229
-0.000230522
-0.00292189
-0.000272256
-0.00298079
-0.000315257
-0.00304175
-0.000359511
-0.00310608
-0.000405076
-0.0031744
-0.000452078
-0.00324713
8.82712e-07
-0.000369962
-3.89985e-08
-0.000986565
-5.61789e-06
-0.00149953
-1.75989e-05
-0.00190466
-3.64941e-05
-0.00220815
-6.18182e-05
-0.00242517
-9.25028e-05
-0.00257593
-0.000127306
-0.00268119
-0.000165115
-0.00275887
-0.0002051
-0.0028223
-0.000246732
-0.00288026
-0.000289734
-0.00293779
-0.000333995
-0.00299749
-0.000379507
-0.00306057
-0.000426329
-0.00312757
-0.00319887
3.95946e-07
-0.000370358
-1.66812e-06
-0.000984501
-8.85423e-06
-0.00149234
-2.26691e-05
-0.00189085
-4.3438e-05
-0.00218738
-7.05554e-05
-0.00239805
-0.000102896
-0.00254359
-0.000139214
-0.00264488
-0.000178421
-0.00271966
-0.000219722
-0.002781
-0.000262625
-0.00283736
-0.000306876
-0.00289354
-0.00035238
-0.00295199
-0.000399136
-0.00301381
-0.000447199
-0.00307951
-9.77196e-08
-0.000370261
-3.29192e-06
-0.000981307
-1.20623e-05
-0.00148357
-2.76761e-05
-0.00187524
-5.02749e-05
-0.00216478
-7.91384e-05
-0.00236919
-0.000113091
-0.00250964
-0.000150883
-0.00260708
-0.000191454
-0.00267909
-0.000234046
-0.00273841
-0.000278197
-0.00279321
-0.000323678
-0.00284806
-0.000370409
-0.00290526
-0.000418393
-0.00296583
-5.4478e-07
-0.000369716
-4.90084e-06
-0.000976951
-1.52379e-05
-0.00147324
-3.26148e-05
-0.00185786
-5.69994e-05
-0.0021404
-8.75624e-05
-0.00233863
-0.000123082
-0.00247412
-0.000162311
-0.00256786
-0.000204215
-0.00263718
-0.00024807
-0.00269456
-0.000293446
-0.00274783
-0.000340138
-0.00280137
-0.000388078
-0.00285732
-0.00291663
-1.00298e-06
-0.000368713
-6.49764e-06
-0.000971456
-1.8377e-05
-0.00146136
-3.74805e-05
-0.00183875
-6.36068e-05
-0.00211427
-9.58233e-05
-0.00230641
-0.000132867
-0.00243707
-0.000173495
-0.00252723
-0.000216699
-0.00259398
-0.000261791
-0.00264946
-0.000308371
-0.00270125
-0.000356253
-0.00275348
-0.000405384
-0.00280818
-1.46881e-06
-0.000367244
-8.08144e-06
-0.000964844
-2.14763e-05
-0.00144796
-4.22689e-05
-0.00181796
-7.00926e-05
-0.00208645
-0.000103917
-0.00227259
-0.000142443
-0.00239855
-0.000184432
-0.00248524
-0.000228906
-0.0025495
-0.000275208
-0.00260316
-0.000322967
-0.00265349
-0.000372019
-0.00270443