/*--------------------------------*- C++ -*----------------------------------*\
  =========                 |
  \\      /  F ield         | OpenFOAM: The Open Source CFD Toolbox
   \\    /   O peration     | Website:  https://openfoam.org
    \\  /    A nd           | Version:  7
     \\/     M anipulation  |
\*---------------------------------------------------------------------------*/
FoamFile
{
    version     2.0;
    format      ascii;
    class       volVectorField;
    location    "80";
    object      U;
}
// * * * * * * * * * * * * * * * * * * * * * * * * * * * * * * * * * * * * * //

dimensions      [0 1 -1 0 0 0 0];

internalField   nonuniform List<vector> 
8500
(
(-0.00791846 0.00627562 1.37789e-19)
(-0.00753733 0.0057665 1.15771e-19)
(-0.0126448 0.0122694 -1.52486e-19)
(-0.00708772 0.00524515 7.28415e-19)
(-0.0106501 0.0107057 -4.32004e-19)
(-0.00316125 0.0134171 -1.77157e-21)
(-0.00655948 0.004709 -3.78828e-19)
(-0.00838922 0.00912457 4.01955e-21)
(0.00151369 0.010988 3.12714e-19)
(-0.00594211 0.00415614 -1.32581e-19)
(-0.00583657 0.00752515 7.95703e-20)
(0.0067119 0.00857711 1.15215e-19)
(0.0314824 0.00777839 -3.41294e-19)
(-0.00522508 0.0035855 6.80478e-19)
(-0.0029664 0.00590805 -1.71323e-19)
(0.0124686 0.00618991 -2.49241e-19)
(0.040791 0.00488186 1.27949e-19)
(0.0820484 0.00284009 6.07896e-19)
(-0.00439788 0.0029969 -3.06701e-19)
(0.000246444 0.00427603 4.71582e-20)
(0.0188175 0.00383464 -3.46057e-19)
(0.0509493 0.0020944 -4.89833e-19)
(0.0966256 -6.06775e-05 -2.11095e-19)
(0.155721 -0.00187695 -1.18477e-19)
(-0.00345018 0.00239111 -2.98686e-19)
(0.00382631 0.00263403 6.58451e-19)
(0.0257901 0.00152228 4.11736e-19)
(0.061989 -0.000565418 1.84289e-19)
(0.112327 -0.00272397 -6.65779e-20)
(0.176555 -0.00418892 -4.37714e-19)
(0.254126 -0.0043505 6.14471e-20)
(-0.00237199 0.0017699 5.31113e-20)
(0.00779643 0.000989318 -9.98489e-20)
(0.0334157 -0.000733084 7.337e-20)
(0.0739374 -0.00307587 -1.76877e-19)
(0.129167 -0.00512023 3.75325e-19)
(0.198707 -0.00609946 6.81381e-19)
(0.281785 -0.00542134 2.11157e-19)
(0.377075 -0.00265402 1.3248e-19)
(-0.00115371 0.00113602 -1.78532e-19)
(0.0121786 -0.000648442 -4.16559e-19)
(0.0417203 -0.00291421 -3.1541e-19)
(0.0868167 -0.00541176 9.8629e-20)
(0.147155 -0.00721704 -5.34535e-19)
(0.222158 -0.00757077 -6.67659e-19)
(0.31079 -0.00591103 -9.02118e-20)
(0.411373 -0.00186282 -2.09421e-19)
(0.521411 0.00471061 -2.19081e-20)
(0.00021376 0.000493221 -1.37517e-19)
(0.0169928 -0.00226724 -1.07251e-19)
(0.0507267 -0.00500072 4.85586e-19)
(0.100643 -0.00754455 -3.00795e-19)
(0.166289 -0.00897895 7.78917e-19)
(0.246875 -0.00856343 3.29342e-19)
(0.341064 -0.00578068 -2.16996e-19)
(0.446786 -0.000330023 -3.72547e-19)
(0.561087 0.00781677 -5.96175e-19)
(0.680123 0.0183803 6.3357e-19)
(0.00173893 -0.000153843 2.70187e-19)
(0.0222572 -0.00385277 4.40663e-19)
(0.0604541 -0.0069692 1.76708e-20)
(0.115427 -0.00944253 2.75945e-19)
(0.186559 -0.010368 -6.68077e-19)
(0.272814 -0.00903672 1.6182e-19)
(0.372517 -0.00499237 -1.05684e-19)
(0.483167 0.00197264 -2.07016e-20)
(0.601334 0.0117588 -2.02425e-19)
(0.722718 0.0239334 -4.46866e-19)
(0.842447 0.0377538 2.21851e-19)
(0.00342969 -0.000799605 -4.86272e-20)
(0.0279878 -0.00538854 -6.64157e-19)
(0.0709173 -0.00879336 -5.12645e-19)
(0.131173 -0.0110711 -3.26279e-20)
(0.207946 -0.0113439 1.16911e-19)
(0.29992 -0.00894927 -2.26481e-19)
(0.405042 -0.00350971 -8.83654e-22)
(0.520354 0.00506922 7.61358e-20)
(0.641936 0.0165415 1.125e-19)
(0.765059 0.0303086 6.34607e-19)
(0.884582 0.0454686 2.63448e-19)
(0.995537 0.0609326 1.61388e-19)
(1.09377 0.0755877 -2.15423e-19)
(0.00529319 -0.00143766 8.60298e-20)
(0.034198 -0.00685605 3.51902e-19)
(0.0821267 -0.0104443 2.20673e-19)
(0.147876 -0.0123932 -4.04508e-19)
(0.23042 -0.011865 8.71534e-20)
(0.328124 -0.00825987 5.32459e-19)
(0.438521 -0.00129879 2.92043e-19)
(0.558171 0.00897888 3.92467e-20)
(0.68267 0.022163 3.58317e-19)
(0.8069 0.03748 -7.30966e-19)
(0.925527 0.0538728 -2.05591e-19)
(1.03366 0.0701487 -8.80885e-20)
(1.12748 0.0851631 5.19476e-19)
(1.20472 0.0979897 -3.43862e-19)
(0.00733586 -0.00206084 -8.02639e-20)
(0.0408987 -0.00823494 -4.97847e-20)
(0.0940878 -0.011891 -1.28621e-19)
(0.165527 -0.0133699 4.2483e-19)
(0.253941 -0.0118886 2.84682e-19)
(0.357345 -0.00692824 -9.15631e-20)
(0.472824 0.00167104 -1.65997e-20)
(0.596439 0.0137153 3.6142e-19)
(0.723317 0.0286146 -5.5112e-19)
(0.848005 0.0454154 3.37577e-19)
(0.965068 0.0629147 3.46089e-19)
(1.06979 0.0798382 9.19954e-20)
(1.1588 0.0950376 -1.85206e-19)
(1.2304 0.107654 2.67859e-19)
(1.28459 0.117206 2.21868e-19)
(0.00956323 -0.00266126 -1.24306e-19)
(0.048098 -0.00950322 5.48467e-20)
(0.106801 -0.0131004 3.62751e-19)
(0.184106 -0.0139606 6.15427e-21)
(0.278459 -0.011372 -6.16347e-19)
(0.38749 -0.00491592 -4.23967e-19)
(0.507808 0.00542637 -3.63492e-19)
(0.634968 0.0192862 -1.91427e-19)
(0.763656 0.0358809 7.28589e-19)
(0.888152 0.054077 -3.27665e-20)
(1.00302 0.0725401 9.79914e-20)
(1.10382 0.0899398 1.60269e-19)
(1.18769 0.105154 -5.38098e-19)
(1.25355 0.117414 -4.29716e-19)
(1.30203 0.126368 1.15626e-19)
(1.335 0.132038 -2.27734e-20)
(1.35514 0.134769 -4.53459e-19)
(0.01198 -0.00323037 1.58269e-19)
(0.0558008 -0.0106375 2.01606e-19)
(0.120261 -0.014038 -3.74608e-19)
(0.203587 -0.0141243 -2.035e-20)
(0.303916 -0.010273 7.22748e-19)
(0.418457 -0.00218706 4.53813e-19)
(0.543324 0.00998901 -1.82482e-19)
(0.673569 0.025693 2.6935e-19)
(0.803477 0.0439404 -2.88368e-19)
(0.927141 0.0634227 -2.91391e-19)
(1.03922 0.0826935 2.96906e-19)
(1.13565 0.100395 -6.01716e-19)
(1.21415 0.115459 7.61571e-20)
(1.27426 0.127232 2.8979e-19)
(1.31719 0.135497 -1.57537e-19)
(1.34525 0.14041 2.25126e-19)
(1.36134 0.142413 -2.71963e-19)
(1.36841 0.141962 4.53409e-20)
(0.0145897 -0.00375907 1.85105e-19)
(0.0640088 -0.0116133 -6.13579e-19)
(0.134457 -0.0146683 9.87516e-20)
(0.223936 -0.0138194 -1.03093e-19)
(0.330241 -0.00855094 -2.54863e-19)
(0.450134 0.00129075 -2.03788e-19)
(0.579214 0.0153755 1.83824e-19)
(0.712049 0.0329309 -8.4348e-19)
(0.842576 0.0527656 -1.97185e-19)
(0.964792 0.0734065 1.28034e-19)
(1.07355 0.0933193 -1.62561e-19)
(1.16525 0.111149 4.6427e-19)
(1.23821 0.125908 3.25777e-19)
(1.29264 0.137076 1.12892e-19)
(1.33025 0.144578 6.25391e-19)
(1.35373 0.148701 -6.16985e-19)
(1.36615 0.14997 3.79932e-19)
(1.37046 0.148912 5.34717e-19)
(1.36929 0.146519 -3.80231e-19)
(1.36428 0.141572 1.06862e-19)
(0.017395 -0.00423775 1.46608e-20)
(0.0727203 -0.0124052 -6.5501e-21)
(0.149373 -0.0149552 4.4857e-19)
(0.245109 -0.013005 -6.44506e-20)
(0.357356 -0.00616714 -2.85294e-20)
(0.482397 0.00554583 4.84414e-19)
(0.615316 0.0215965 5.57433e-19)
(0.75022 0.0409887 1.53818e-19)
(0.880767 0.0623239 3.2984e-19)
(1.00095 0.0839804 -2.16208e-19)
(1.10591 0.104363 -1.83941e-19)
(1.19259 0.12215 -4.41198e-21)
(1.25995 0.136461 -2.25558e-19)
(1.30881 0.146921 -8.60702e-21)
(1.34137 0.153602 -4.39326e-19)
(1.36061 0.156911 1.7331e-19)
(1.36972 0.157451 4.04053e-19)
(1.37161 0.155801 -2.03717e-19)
(1.36876 0.152905 2.33795e-19)
(1.36269 0.147694 4.19049e-19)
(0.0203974 -0.00465637 5.65421e-20)
(0.0819298 -0.012987 -1.5699e-19)
(0.164986 -0.0148627 -9.29305e-21)
(0.267057 -0.0116415 4.69217e-21)
(0.385171 -0.00308587 -3.17518e-19)
(0.515119 0.0106018 -4.54104e-20)
(0.651466 0.0286569 -5.74648e-19)
(0.787899 0.0498493 5.97921e-19)
(0.917874 0.0725786 3.08478e-19)
(1.03547 0.0950947 2.79978e-20)
(1.13623 0.115772 -2.83453e-21)
(1.21768 0.133352 -1.6184e-19)
(1.27943 0.147084 9.51141e-20)
(1.32289 0.156748 2.60543e-19)
(1.35069 0.162563 -4.52903e-19)
(1.36605 0.165046 3.45096e-19)
(1.37219 0.164865 -4.16161e-19)
(1.37197 0.16264 -1.86439e-20)
(1.36769 0.159263 1.30178e-21)
(1.36073 0.153796 1.87775e-19)
(0.0235969 -0.00500453 -1.24017e-19)
(0.0916285 -0.0133323 -1.41461e-19)
(0.181266 -0.0143547 2.03535e-19)
(0.28972 -0.00969059 -9.0681e-20)
(0.413593 0.000725147 -2.84267e-20)
(0.548164 0.0164771 -2.81027e-19)
(0.687498 0.0365555 3.1515e-19)
(0.824912 0.05949 -5.66587e-19)
(0.953742 0.0834892 5.14666e-20)
(1.06826 0.106699 8.7841e-20)
(1.16448 0.127496 -4.7706e-20)
(1.24055 0.144713 3.41847e-20)
(1.29675 0.157749 -3.97996e-19)
(1.33503 0.166544 -3.04167e-19)
(1.35838 0.171459 2.55811e-19)
(1.3702 0.173113 -8.23212e-20)
(1.37371 0.172225 -4.92934e-19)
(1.37165 0.169443 -9.34713e-20)
(1.36615 0.165602 -4.1151e-19)
(1.35846 0.159887 -5.08283e-19)
(0.0269925 -0.0052716 -2.92981e-20)
(0.101803 -0.0134146 2.09434e-19)
(0.19818 -0.0133964 1.52047e-19)
(0.313032 -0.00711651 4.47476e-19)
(0.442516 0.00529416 -1.57351e-20)
(0.581394 0.0231846 2.40309e-19)
(0.72325 0.0452848 -5.10154e-19)
(0.861094 0.0698832 1.79926e-19)
(0.988234 0.0950128 -1.51707e-19)
(1.09923 0.118745 2.18836e-19)
(1.19063 0.139489 5.44658e-20)
(1.26125 0.156198 1.27761e-19)
(1.31201 0.168433 3.6924e-19)
(1.34536 0.176299 4.58945e-20)
(1.36459 0.180292 -2.2954e-19)
(1.3732 0.18112 3.80396e-19)
(1.37438 0.179541 1.34337e-19)
(1.37074 0.176221 -6.33033e-20)
(1.36421 0.171932 3.86085e-19)
(1.35591 0.165974 2.55569e-19)
(0.0305816 -0.00544676 9.57722e-20)
(0.112437 -0.0132076 1.08256e-19)
(0.215687 -0.0119539 -2.69143e-19)
(0.336922 -0.00388623 -6.22551e-20)
(0.471834 0.0106449 8.00364e-20)
(0.614667 0.0307317 -4.69893e-20)
(0.758562 0.0548318 2.88888e-19)
(0.896292 0.0809967 -9.17064e-20)
(1.02123 0.107104 -1.13099e-19)
(1.12831 0.131183 -3.86742e-19)
(1.21469 0.151707 -2.46703e-19)
(1.27986 0.167773 -2.29239e-19)
(1.32534 0.179117 -1.86553e-19)
(1.35402 0.186008 7.16014e-20)
(1.36945 0.189066 -1.39346e-19)
(1.37517 0.189076 1.66113e-20)
(1.37431 0.186824 2.66938e-19)
(1.3693 0.182982 2.83656e-19)
(1.36191 0.17826 2.01229e-20)
(1.35311 0.172063 1.77827e-19)
(0.0343603 -0.00551912 4.90318e-20)
(0.12351 -0.0126853 1.8408e-19)
(0.233739 -0.00999512 1.4651e-19)
(0.361308 2.99979e-05 -2.44724e-19)
(0.50143 0.0167964 2.27012e-19)
(0.647841 0.0391197 -7.3718e-20)
(0.793282 0.0651779 -1.58023e-19)
(0.930368 0.0927946 3.80692e-19)
(1.05263 0.119718 -9.60246e-20)
(1.15547 0.143966 -3.24083e-21)
(1.23668 0.164111 2.64864e-19)
(1.29644 0.179411 -2.38516e-19)
(1.33683 0.189787 1.0507e-19)
(1.36114 0.195667 -2.65111e-19)
(1.37309 0.197785 4.48241e-19)
(1.37624 0.196989 -3.40405e-19)
(1.37358 0.194083 -2.05761e-19)
(1.36741 0.189735 -2.30731e-21)
(1.35929 0.18459 -3.0302e-19)
(1.35008 0.178157 -3.79103e-21)
(0.0383233 -0.00547782 -2.21518e-19)
(0.134997 -0.0118227 -8.23199e-20)
(0.252285 -0.00749003 -2.72242e-19)
(0.386108 0.00465821 -1.50942e-19)
(0.531188 0.0237622 -7.8527e-20)
(0.680775 0.0483442 -3.74918e-20)
(0.827263 0.0762993 1.74587e-19)
(0.963195 0.105238 -9.61032e-20)
(1.08236 0.132807 -4.67209e-20)
(1.18069 0.15705 1.19072e-19)
(1.25665 0.176664 -1.61345e-19)
(1.31108 0.19109 2.06804e-19)
(1.34662 0.200433 1.99381e-19)
(1.36685 0.205276 4.50659e-20)
(1.37563 0.206455 -1.27341e-19)
(1.37648 0.204868 -2.98463e-20)
(1.37226 0.201325 -1.76067e-19)
(1.3651 0.196485 -7.512e-20)
(1.35638 0.190928 1.24017e-19)
(1.34684 0.184259 -2.11811e-19)
(0.0424635 -0.00531215 7.30662e-20)
(0.146869 -0.0105958 -1.25065e-19)
(0.271269 -0.00441112 2.13199e-19)
(0.41123 0.0100204 1.00387e-19)
(0.560988 0.0315508 -1.44972e-19)
(0.71333 0.0583954 1.79501e-19)
(0.86037 0.0881679 4.51513e-20)
(0.994666 0.118285 -8.19024e-20)
(1.11035 0.146326 2.20573e-19)
(1.20395 0.170391 6.6057e-20)
(1.27463 0.189334 1.26328e-19)
(1.32389 0.202788 -1.30648e-19)
(1.3548 0.211046 -8.7554e-20)
(1.37126 0.214835 1.8606e-19)
(1.37718 0.215081 -5.35338e-20)
(1.37599 0.212719 3.07643e-19)
(1.37043 0.208557 1.63285e-19)
(1.36243 0.203237 -2.71716e-20)
(1.3532 0.197273 9.01885e-20)
(1.34339 0.190368 3.44723e-19)
(0.0467727 -0.00501166 -3.62493e-20)
(0.159095 -0.00898185 2.0317e-20)
(0.290628 -0.000733695 -1.94159e-19)
(0.436581 0.016134 1.2556e-19)
(0.590708 0.0401651 1.18107e-19)
(0.745372 0.0692576 -1.69602e-19)
(0.892476 0.100751 7.8651e-20)
(1.02469 0.131893 -1.54123e-19)
(1.13656 0.160228 -2.20778e-19)
(1.22528 0.183951 8.02557e-20)
(1.2907 0.202091 1.48876e-20)
(1.33494 0.214489 1.26577e-19)
(1.36151 0.22162 8.55349e-20)
(1.37449 0.224345 -5.85645e-20)
(1.37782 0.223669 -1.22808e-20)
(1.37484 0.220548 -4.6787e-20)
(1.36812 0.215784 -2.44843e-19)
(1.35942 0.209992 2.05404e-20)
(1.34978 0.203628 -1.63434e-19)
(1.33976 0.196484 1.43663e-21)
(0.0512407 -0.00456625 -4.05538e-20)
(0.171638 -0.00695982 -5.22269e-20)
(0.310296 0.00356375 2.05117e-19)
(0.462065 0.0230121 -2.57148e-20)
(0.620228 0.0496027 1.15241e-21)
(0.776771 0.0809104 -1.14974e-19)
(0.923465 0.114012 -2.05882e-20)
(1.05317 0.146016 8.26648e-20)
(1.16096 0.174469 2.84488e-19)
(1.24469 0.197692 -9.19303e-20)
(1.30493 0.214911 1.57792e-20)
(1.34434 0.226179 5.0609e-20)
(1.36683 0.232151 -9.94244e-20)
(1.37662 0.23381 -6.44407e-20)
(1.37764 0.232222 1.73943e-20)
(1.3731 0.228361 6.10114e-20)
(1.36539 0.223008 1.56124e-19)
(1.35609 0.216753 -4.13162e-21)
(1.34613 0.209992 5.99134e-20)
(1.33593 0.202605 4.1194e-20)
(0.0558563 -0.00396631 7.06282e-20)
(0.18446 -0.00451053 1.45835e-19)
(0.330203 0.00849926 1.01184e-19)
(0.487581 0.0306626 -5.58951e-20)
(0.649428 0.0598556 2.08622e-19)
(0.807405 0.0933282 1.24337e-19)
(0.953234 0.127913 -1.87764e-19)
(1.08006 0.160609 -6.5983e-20)
(1.18354 0.189005 9.56715e-22)
(1.26222 0.211578 -5.57167e-20)
(1.31737 0.227769 -1.61831e-19)
(1.35219 0.237846 2.71296e-20)
(1.37087 0.242635 2.86436e-22)
(1.37776 0.24323 -1.72722e-19)
(1.37671 0.240746 7.96606e-20)
(1.37081 0.236159 -4.32106e-20)
(1.36226 0.230231 -1.91862e-19)
(1.35248 0.223519 9.35005e-20)
(1.34225 0.216361 -1.99257e-19)
(1.33191 0.208727 -1.20297e-19)
(0.0606067 -0.00320283 -2.47791e-20)
(0.197519 -0.00161694 -6.26603e-20)
(0.350277 0.0140872 -1.05327e-19)
(0.513029 0.0390888 -5.11864e-21)
(0.678191 0.0709105 -9.92974e-21)
(0.837159 0.106481 -1.17443e-19)
(0.981691 0.142411 2.72549e-20)
(1.10531 0.175627 2.57339e-20)
(1.20429 0.203795 -5.37752e-20)
(1.27792 0.225577 4.41495e-21)
(1.32812 0.240645 8.52747e-20)
(1.35857 0.249479 -1.13021e-20)
(1.37373 0.25307 6.57012e-20)
(1.37798 0.252607 2.96205e-20)
(1.37511 0.249242 -1.63819e-19)
(1.36803 0.243946 1.26548e-20)
(1.35877 0.237453 1.01694e-19)
(1.34859 0.230287 -2.44549e-20)
(1.33815 0.222734 4.79898e-21)
(1.32771 0.214847 -1.68175e-20)
(0.0654776 -0.00226751 -2.26815e-20)
(0.210769 0.00173564 -2.22479e-20)
(0.370441 0.0203378 -3.97513e-20)
(0.538309 0.0482888 -2.63712e-20)
(0.706403 0.0827492 -6.93967e-20)
(0.865925 0.120335 8.11015e-20)
(1.00876 0.157463 1.61797e-19)
(1.12887 0.191024 5.68203e-20)
(1.22322 0.218798 2.92836e-20)
(1.29183 0.239659 -7.0365e-20)
(1.33725 0.253519 -7.59795e-22)
(1.36358 0.26107 4.62592e-20)
(1.37548 0.263453 -5.98291e-20)
(1.37736 0.261941 2.29874e-20)
(1.37288 0.257711 7.79884e-20)
(1.36478 0.251721 -2.71377e-20)
(1.35493 0.244672 -4.84407e-20)
(1.34443 0.237054 -4.52171e-20)
(1.33383 0.229105 1.61989e-19)
(1.32332 0.220959 5.71044e-20)
(0.0704536 -0.00115284 -4.04329e-20)
(0.224164 0.00555931 4.91554e-20)
(0.39062 0.0272576 -1.12891e-20)
(0.56332 0.0582557 3.57831e-20)
(0.733955 0.0953483 -3.2349e-20)
(0.893605 0.134853 -1.99199e-20)
(1.03436 0.173022 -7.85838e-20)
(1.15072 0.206753 9.23219e-21)
(1.24035 0.233975 2.25097e-20)
(1.304 0.253796 5.09263e-20)
(1.34483 0.266374 -2.00466e-20)
(1.3673 0.27261 -1.57924e-20)
(1.37621 0.273782 1.46305e-20)
(1.37596 0.271234 -2.59037e-20)
(1.37006 0.266155 5.93896e-20)
(1.36111 0.259483 3.97632e-20)
(1.35077 0.251886 -6.81891e-21)
(1.34001 0.243817 -4.52043e-21)
(1.32929 0.23547 -4.36951e-20)
(1.31874 0.227058 -5.48752e-20)
(0.0755181 0.000147749 8.70974e-21)
(0.237654 0.00986344 -1.53451e-20)
(0.410733 0.0348485 1.05625e-20)
(0.587963 0.0689776 -1.4626e-20)
(0.760744 0.10868 -5.64988e-20)
(0.920109 0.149993 2.63465e-20)
(1.05845 0.189042 1.29457e-20)
(1.17084 0.222769 -6.18119e-20)
(1.25571 0.249288 -3.92098e-20)
(1.31451 0.26796 -3.76517e-21)
(1.35094 0.279195 -5.53111e-20)
(1.3698 0.284091 5.75371e-20)
(1.37599 0.284054 -1.18434e-22)
(1.37383 0.280482 -7.76899e-21)
(1.36671 0.27457 -1.50847e-20)
(1.35702 0.267228 7.43443e-21)
(1.34629 0.25909 5.25331e-21)
(1.33534 0.250569 -2.05983e-21)
(1.32455 0.241822 -1.59596e-20)
(1.31397 0.233138 1.95467e-20)
(0.0806534 0.00163986 2.90788e-21)
(0.251189 0.0146545 1.01081e-20)
(0.430703 0.0431083 5.6757e-21)
(0.612142 0.0804378 -2.65887e-21)
(0.78667 0.122712 3.72889e-20)
(0.945358 0.165713 -8.387e-21)
(1.08097 0.205475 1.34051e-20)
(1.18924 0.239029 2.98469e-20)
(1.26933 0.264703 -5.41348e-21)
(1.32341 0.282128 1.36505e-21)
(1.35567 0.291966 1.51898e-20)
(1.37117 0.295506 -8.14739e-21)
(1.37488 0.294266 1.06564e-20)
(1.37103 0.289685 1.94646e-21)
(1.36285 0.282955 -2.04387e-20)
(1.35255 0.274954 1.01439e-21)
(1.3415 0.266278 2.68648e-20)
(1.33042 0.257305 -5.63306e-21)
(1.31958 0.248155 8.41316e-21)
(1.30901 0.239191 -9.48372e-21)
(0.0858412 0.00332801 1.19165e-21)
(0.264716 0.0199361 1.48965e-20)
(0.45045 0.0520306 8.1007e-21)
(0.635762 0.0926151 -1.66455e-21)
(0.811643 0.137408 3.43805e-20)
(0.969282 0.181965 -9.78233e-21)
(1.10189 0.222273 1.83973e-20)
(1.2059 0.255487 2.48696e-20)
(1.28125 0.280184 -5.17129e-21)
(1.33075 0.296275 1.16787e-21)
(1.35907 0.304673 1.71921e-20)
(1.37147 0.306847 -6.98923e-21)
(1.37294 0.304412 6.9248e-21)
(1.3676 0.298839 -1.72265e-21)
(1.35851 0.291305 -1.66024e-20)
(1.34771 0.282654 -4.9292e-22)
(1.33642 0.273444 2.65857e-20)
(1.32524 0.264017 -5.24668e-21)
(1.3144 0.254462 9.8989e-21)
(1.30385 0.245211 -1.06319e-20)
(0.0910622 0.00521561 1.03863e-20)
(0.278182 0.0257085 -1.91363e-20)
(0.469896 0.0616045 9.8072e-21)
(0.658734 0.105483 -7.95585e-21)
(0.835579 0.152729 -5.44521e-20)
(0.991817 0.198703 2.22412e-20)
(1.12119 0.239386 1.02353e-20)
(1.22085 0.272102 -7.01806e-20)
(1.29151 0.295699 -2.96021e-20)
(1.33661 0.310379 -2.66535e-23)
(1.36121 0.317303 -4.63175e-20)
(1.37076 0.318106 3.88916e-20)
(1.37022 0.314487 -8.7938e-21)
(1.36358 0.307939 5.57165e-21)
(1.35372 0.299614 -2.17763e-20)
(1.34251 0.290321 1.6633e-20)
(1.33105 0.280581 1.06629e-20)
(1.31982 0.270696 -1.90198e-21)
(1.309 0.260733 -2.12634e-20)
(1.29848 0.25119 1.94702e-20)
(0.096296 0.00730484 -2.24409e-20)
(0.291534 0.0319691 -1.02931e-20)
(0.488963 0.0718152 -1.50919e-20)
(0.680971 0.119013 5.21215e-20)
(0.858399 0.168631 2.37853e-22)
(1.01291 0.215875 -2.79744e-20)
(1.13884 0.256765 -1.14454e-19)
(1.2341 0.288831 1.12651e-20)
(1.30015 0.311215 1.31163e-20)
(1.34104 0.324419 5.83462e-20)
(1.36217 0.329842 8.77988e-21)
(1.3691 0.329274 -4.96968e-20)
(1.36676 0.324487 4.69955e-20)
(1.35899 0.316978 -1.90636e-20)
(1.34849 0.307876 7.23231e-20)
(1.33697 0.297949 -6.66258e-21)
(1.32538 0.287679 3.77187e-21)
(1.31415 0.277334 3.26789e-21)
(1.30338 0.266962 -5.64376e-20)
(1.29292 0.257118 -3.40256e-20)
(0.101522 0.0095966 -8.46547e-21)
(0.304717 0.0387119 -4.94519e-20)
(0.507578 0.0826432 3.92485e-20)
(0.702391 0.133169 -5.0125e-20)
(0.880034 0.185069 -9.05368e-20)
(1.03252 0.233431 7.93267e-20)
(1.15484 0.274362 1.31151e-19)
(1.24568 0.305633 4.7123e-20)
(1.30724 0.326702 3.28576e-20)
(1.34411 0.338373 -9.4463e-20)
(1.36199 0.342276 7.26762e-20)
(1.36655 0.340343 8.44115e-21)
(1.36262 0.334402 -9.26249e-20)
(1.35387 0.32595 3.63296e-20)
(1.34284 0.316083 1.29563e-19)
(1.33108 0.305527 -8.93207e-20)
(1.31943 0.294729 -2.55963e-20)
(1.30823 0.283923 -2.47736e-20)
(1.29754 0.273137 1.14875e-19)
(1.28715 0.262988 6.57157e-20)
(0.106719 0.0120905 5.86445e-20)
(0.317679 0.0459278 -1.00264e-19)
(0.525666 0.0940655 -1.467e-19)
(0.722918 0.147914 6.64242e-21)
(0.90042 0.201993 -2.66609e-20)
(1.05062 0.251319 -1.08897e-19)
(1.16918 0.292127 -1.84488e-20)
(1.25561 0.322468 5.62587e-20)
(1.3128 0.34213 -9.07802e-20)
(1.34586 0.35222 7.46046e-20)
(1.36075 0.354591 8.68469e-20)
(1.36315 0.351302 -5.4917e-20)
(1.35781 0.344224 2.25679e-20)
(1.34824 0.334846 1.14426e-19)
(1.33678 0.324226 -1.5347e-19)
(1.32486 0.313047 2.69207e-20)
(1.3132 0.301722 7.33715e-20)
(1.30206 0.290451 -2.22824e-20)
(1.29147 0.279251 -2.38919e-20)
(1.28117 0.268791 -4.05939e-21)
(0.111867 0.0147849 8.639e-20)
(0.330367 0.0536046 1.61419e-19)
(0.543157 0.106055 8.61492e-20)
(0.742482 0.163206 -1.02907e-19)
(0.919502 0.219353 2.69717e-19)
(1.06716 0.269484 4.17423e-20)
(1.18187 0.310012 -1.15392e-19)
(1.26392 0.339296 -8.34592e-20)
(1.3169 0.357469 -6.69157e-20)
(1.34636 0.36594 2.24534e-20)
(1.35848 0.366775 -7.6074e-20)
(1.35895 0.362141 2.46002e-21)
(1.35238 0.353946 -5.19163e-20)
(1.34211 0.343657 -7.11848e-20)
(1.33033 0.332294 -1.21614e-20)
(1.31831 0.320497 -7.52261e-21)
(1.30667 0.308646 -1.35669e-19)
(1.29564 0.296908 1.02713e-19)
(1.28518 0.285293 -1.56308e-19)
(1.27499 0.274518 -9.10546e-20)
(0.116943 0.0176768 -1.04771e-19)
(0.34273 0.061727 -4.33355e-20)
(0.559986 0.118581 1.93551e-19)
(0.761017 0.179001 4.94128e-20)
(0.937233 0.237096 -1.69639e-19)
(1.08214 0.287875 -9.85807e-20)
(1.19292 0.32797 -3.27719e-20)
(1.27066 0.356078 2.13768e-19)
(1.31959 0.372691 1.5328e-19)
(1.34567 0.379514 -5.26568e-20)
(1.35524 0.378811 -3.06862e-20)
(1.35398 0.372849 7.77619e-20)
(1.34635 0.363554 -8.48776e-20)
(1.33551 0.352371 3.95416e-20)
(1.32349 0.340276 1.72004e-20)
(1.31143 0.327867 -2.17058e-20)
(1.29987 0.31549 1.64932e-19)
(1.28896 0.303283 -6.96849e-20)
(1.27865 0.291252 1.4079e-19)
(1.26859 0.280158 -4.93639e-20)
(0.121928 0.0207618 -5.88054e-20)
(0.354717 0.0702768 -1.09151e-19)
(0.576089 0.13161 -1.73865e-19)
(0.778463 0.195252 1.05426e-19)
(0.953572 0.255167 5.81239e-20)
(1.09554 0.306436 -8.2866e-20)
(1.20234 0.345952 1.38614e-19)
(1.27585 0.372778 -2.14389e-19)
(1.3209 0.387769 -2.28547e-19)
(1.34383 0.392922 1.38442e-19)
(1.35108 0.390686 5.18598e-20)
(1.34828 0.383413 -5.79202e-20)
(1.33975 0.373039 8.82036e-20)
(1.32846 0.360978 6.94544e-20)
(1.31627 0.34816 -5.08782e-20)
(1.30423 0.335143 -1.73461e-20)
(1.29278 0.322242 -1.257e-19)
(1.28204 0.309566 2.56947e-20)
(1.2719 0.297118 -1.0741e-19)
(1.26199 0.285702 -1.73788e-20)
(0.1268 0.0240344 4.89016e-20)
(0.366282 0.079233 -8.55394e-20)
(0.591407 0.145104 1.56955e-19)
(0.794768 0.211909 2.66485e-19)
(0.968486 0.273511 -3.84555e-19)
(1.10736 0.325113 3.39749e-19)
(1.21016 0.363912 9.12772e-20)
(1.27954 0.389357 -1.32935e-19)
(1.3209 0.402673 1.57754e-19)
(1.34089 0.406142 9.33364e-20)
(1.34604 0.402384 1.15987e-19)
(1.34189 0.39382 -2.01838e-19)
(1.33259 0.382388 -4.16462e-20)
(1.32095 0.369464 1.00344e-19)
(1.30868 0.355933 3.84049e-20)
(1.2967 0.342313 1.77032e-19)
(1.28541 0.32889 2.22635e-19)
(1.27485 0.315744 -5.49514e-20)
(1.26492 0.302879 9.56782e-20)
(1.25517 0.291142 1.07005e-19)
(0.131539 0.0274878 -1.40609e-20)
(0.377376 0.0885719 -1.9846e-19)
(0.605885 0.159024 -2.74096e-19)
(0.809885 0.228919 -3.59225e-19)
(0.981948 0.292072 -3.48321e-20)
(1.11758 0.343853 1.32684e-19)
(1.2164 0.381804 -2.55678e-20)
(1.28177 0.405779 4.5031e-20)
(1.31963 0.417379 -6.96797e-20)
(1.33689 0.419156 1.16758e-19)
(1.34015 0.413889 -1.78702e-19)
(1.33482 0.404056 2.33576e-19)
(1.3249 0.391587 1.34448e-19)
(1.31301 0.377816 6.12225e-20)
(1.30073 0.363583 -9.17927e-20)
(1.28886 0.349365 -9.83172e-20)
(1.27775 0.335421 -9.353e-20)
(1.26741 0.321804 6.87661e-21)
(1.25771 0.308525 1.23747e-19)
(1.24815 0.296465 -1.29907e-19)
(0.136124 0.0311138 -2.50073e-20)
(0.387958 0.0982671 1.54905e-19)
(0.619473 0.173327 1.95514e-19)
(0.823772 0.24623 -3.06201e-20)
(0.993938 0.310792 9.2095e-20)
(1.12623 0.362602 2.46329e-20)
(1.22108 0.399582 -1.35137e-19)
(1.28258 0.42201 1.07406e-19)
(1.31714 0.431858 1.00811e-19)
(1.3319 0.431943 -1.75744e-19)
(1.33346 0.425184 2.83505e-19)
(1.32712 0.414107 -2.36573e-19)
(1.3167 0.400622 1.36823e-19)
(1.30465 0.386021 -1.99711e-19)
(1.29241 0.371095 2.94385e-19)
(1.2807 0.356284 -1.8617e-19)
(1.26981 0.341822 -5.43912e-20)
(1.25972 0.327735 -7.32403e-20)
(1.25027 0.31404 -1.54542e-19)
(1.24092 0.301662 2.55382e-21)
(0.140538 0.0349031 1.80727e-19)
(0.397986 0.10829 1.9326e-19)
(0.632125 0.187967 -2.80128e-19)
(0.836394 0.263786 -1.71034e-19)
(1.00444 0.329613 2.54826e-19)
(1.13331 0.381307 -1.02007e-19)
(1.22424 0.417201 1.49406e-19)
(1.28201 0.438014 6.45239e-20)
(1.31347 0.446085 -1.50411e-19)
(1.32593 0.444482 -3.73746e-19)
(1.32599 0.436253 -6.70115e-20)
(1.3188 0.423957 -1.40424e-19)
(1.308 0.409478 -2.0907e-19)
(1.29587 0.394063 1.7011e-20)
(1.28373 0.378454 -2.19637e-20)
(1.27223 0.363057 -2.079e-20)
(1.26158 0.34808 1.6999e-19)
(1.25177 0.333524 1.22462e-19)
(1.24259 0.319415 1.38295e-20)
(1.23346 0.306725 7.07677e-20)
(0.144761 0.0388455 -4.35351e-20)
(0.407421 0.11861 3.4219e-19)
(0.643801 0.202898 1.33883e-19)
(0.847723 0.281531 2.7308e-19)
(1.01345 0.348478 8.9076e-20)
(1.13883 0.399915 3.40683e-20)
(1.22591 0.434618 -2.17486e-19)
(1.28011 0.453756 -7.03217e-20)
(1.30867 0.460033 3.50892e-20)
(1.31905 0.456753 2.7759e-19)
(1.31778 0.447079 -9.12316e-20)
(1.30989 0.43359 1.13243e-19)
(1.29881 0.418141 2.39346e-19)
(1.28669 0.401927 5.46926e-20)
(1.2747 0.385647 -4.79309e-20)
(1.26344 0.36967 6.43555e-20)
(1.25307 0.354182 1.22036e-19)
(1.24356 0.339162 5.53587e-20)
(1.23467 0.324648 1.41852e-19)
(1.22573 0.311638 1.0676e-19)
(0.148776 0.0429295 -1.13364e-19)
(0.416228 0.129194 -1.75606e-19)
(0.654463 0.218071 1.11976e-19)
(0.857735 0.299406 3.77006e-20)
(1.02097 0.367328 7.5258e-20)
(1.14282 0.418374 -3.0921e-19)
(1.22613 0.451791 1.12567e-19)
(1.27692 0.469204 -2.43266e-19)
(1.30278 0.473676 -1.35298e-19)
(1.31128 0.468735 1.58149e-19)
(1.30887 0.457643 -1.70799e-20)
(1.30041 0.442989 1.03998e-20)
(1.28916 0.426593 -2.90961e-19)
(1.2771 0.409598 -1.17547e-19)
(1.26533 0.392657 9.6724e-20)
(1.25434 0.376108 -1.69532e-19)
(1.24429 0.360115 -9.10616e-20)
(1.2351 0.344637 -9.1892e-20)
(1.22653 0.329745 -1.59259e-19)
(1.21784 0.316367 -3.61957e-19)
(0.152566 0.0471425 6.6189e-20)
(0.424375 0.140008 -8.25703e-20)
(0.664081 0.233436 -4.52698e-19)
(0.866413 0.317355 2.45344e-19)
(1.02699 0.386106 -3.06515e-19)
(1.14529 0.436633 -4.34834e-20)
(1.22493 0.468676 -4.23478e-19)
(1.27249 0.484324 4.52249e-19)
(1.29585 0.486988 2.58909e-19)
(1.30266 0.480407 -1.56754e-20)
(1.29927 0.467926 9.28344e-20)
(1.29037 0.452137 -1.17518e-19)
(1.27905 0.434818 -9.46109e-21)
(1.26713 0.41706 5.50376e-20)
(1.25562 0.39947 -5.69389e-20)
(1.24494 0.382357 1.06595e-19)
(1.23523 0.365864 -1.41574e-19)
(1.2264 0.349934 -1.26453e-19)
(1.21816 0.334668 7.17752e-20)
(1.20978 0.320954 9.62362e-20)
(0.156117 0.0514714 1.50752e-19)
(0.431833 0.151016 1.52288e-19)
(0.672629 0.248941 1.18319e-19)
(0.873745 0.335319 -3.33069e-21)
(1.03153 0.404756 -7.91093e-20)
(1.14628 0.454641 5.39578e-19)
(1.22235 0.485233 3.07477e-19)
(1.26685 0.499084 2.0843e-19)
(1.28792 0.499945 2.97041e-19)
(1.29323 0.491748 3.64992e-20)
(1.28902 0.477911 -2.48894e-19)
(1.2798 0.461018 -2.65553e-20)
(1.26849 0.442799 -5.42273e-20)
(1.25678 0.424295 -1.77024e-19)
(1.24556 0.406069 -6.61919e-20)
(1.23524 0.388401 -9.33567e-20)
(1.22589 0.371415 2.91247e-19)
(1.21744 0.355041 -3.73188e-21)
(1.20958 0.339405 8.09069e-20)
(1.20152 0.325363 6.41424e-20)
(0.159413 0.0559019 -5.06305e-20)
(0.438577 0.16218 -8.83559e-20)
(0.680084 0.264535 -1.94028e-19)
(0.879725 0.35324 -3.30731e-20)
(1.03459 0.42322 -3.24701e-19)
(1.14581 0.472349 -2.34584e-19)
(1.21844 0.501421 7.804e-20)
(1.26006 0.513452 -5.69484e-19)
(1.27903 0.51252 -3.09793e-19)
(1.28302 0.502736 7.53653e-20)
(1.27814 0.487578 -3.88971e-20)
(1.26872 0.469612 2.26153e-19)
(1.25751 0.450519 3.08501e-19)
(1.24606 0.431288 7.81451e-20)
(1.23518 0.412439 2.11923e-19)
(1.22524 0.394225 -1.10978e-19)
(1.21629 0.376756 1.51663e-19)
(1.20825 0.359945 8.46842e-20)
(1.20077 0.343945 7.28933e-20)
(1.19307 0.329584 -1.37689e-19)
(0.162441 0.060419 7.54912e-20)
(0.444583 0.173461 -8.79541e-21)
(0.686431 0.280163 -2.99936e-19)
(0.884352 0.371059 -5.20114e-22)
(1.0362 0.441443 7.31087e-19)
(1.14392 0.489709 1.4675e-19)
(1.21324 0.517202 1.11473e-19)
(1.25216 0.527398 3.29507e-19)
(1.26922 0.524689 -2.67471e-19)
(1.27206 0.513351 -2.88132e-19)
(1.26666 0.496907 -2.73312e-21)
(1.25715 0.477901 -2.05023e-19)
(1.2461 0.457961 -1.14376e-19)
(1.23497 0.438022 3.0825e-19)
(1.22448 0.418564 -8.13414e-20)
(1.21494 0.399816 6.1733e-21)
(1.20642 0.381871 -1.10312e-19)
(1.19881 0.364632 -1.66349e-19)
(1.19175 0.348277 9.64769e-21)
(1.18441 0.333606 1.55048e-19)
(0.165191 0.0650073 -3.64679e-19)
(0.449833 0.184822 2.29294e-19)
(0.691656 0.295773 5.15009e-19)
(0.887628 0.388718 1.62496e-19)
(1.03638 0.45937 -8.60165e-19)
(1.14065 0.506675 -3.57628e-19)
(1.20678 0.532537 -2.81139e-19)
(1.24319 0.54089 -1.02918e-19)
(1.25853 0.536426 3.50324e-19)
(1.2604 0.523571 3.80972e-20)
(1.2546 0.505881 -7.38293e-20)
(1.24509 0.485868 1.36606e-19)
(1.2343 0.465107 1.99593e-20)
(1.22353 0.44448 -3.67579e-19)
(1.21346 0.424428 1.09984e-19)
(1.20436 0.405158 1.46494e-19)
(1.19628 0.386748 6.96693e-20)
(1.18913 0.36909 9.51664e-20)
(1.18252 0.352391 -1.6589e-19)
(1.17557 0.337417 -7.98252e-20)
(0.167651 0.0696505 -2.49024e-20)
(0.454311 0.19622 1.15562e-19)
(0.695754 0.311312 5.79916e-20)
(0.889562 0.406161 1.73196e-19)
(1.03515 0.476948 4.80205e-19)
(1.13602 0.5232 -3.14297e-19)
(1.19912 0.547389 -1.88312e-20)
(1.23319 0.5539 3.05701e-19)
(1.24699 0.547709 -3.72742e-19)
(1.24804 0.533374 1.22104e-19)
(1.24198 0.514478 3.15595e-19)
(1.23258 0.493494 7.23435e-20)
(1.2221 0.47194 -1.563e-19)
(1.21175 0.450646 2.63673e-19)
(1.20213 0.430017 -3.07057e-19)
(1.1935 0.410237 8.7732e-21)
(1.18589 0.391372 -7.17109e-20)
(1.17923 0.373306 1.23742e-19)
(1.17307 0.356275 1.09603e-19)
(1.16654 0.341009 9.58277e-20)
(0.169812 0.0743321 4.7235e-20)
(0.458006 0.207617 1.84656e-19)
(0.69872 0.326725 1.83939e-19)
(0.890166 0.423332 -1.18062e-19)
(1.03254 0.494125 1.04009e-20)
(1.13008 0.53924 2.9172e-19)
(1.19029 0.561723 5.19952e-19)
(1.22221 0.566398 -5.3754e-20)
(1.23465 0.558512 5.07261e-20)
(1.23504 0.542741 -1.51687e-19)
(1.22883 0.52268 -3.22612e-19)
(1.21962 0.50076 5.21939e-20)
(1.20952 0.478441 1.83521e-19)
(1.19963 0.456503 -3.75263e-20)
(1.19051 0.435314 -2.8922e-20)
(1.18237 0.415039 -1.2134e-19)
(1.17526 0.395732 -2.05628e-20)
(1.16909 0.377269 -4.82508e-20)
(1.16343 0.359918 -3.89078e-20)
(1.15734 0.344372 -8.77539e-20)
(0.171666 0.079035 -1.62687e-19)