/*--------------------------------*- C++ -*----------------------------------*\
  =========                 |
  \\      /  F ield         | OpenFOAM: The Open Source CFD Toolbox
   \\    /   O peration     | Website:  https://openfoam.org
    \\  /    A nd           | Version:  7
     \\/     M anipulation  |
\*---------------------------------------------------------------------------*/
FoamFile
{
    version     2.0;
    format      ascii;
    class       volVectorField;
    location    "75";
    object      U;
}
// * * * * * * * * * * * * * * * * * * * * * * * * * * * * * * * * * * * * * //

dimensions      [0 1 -1 0 0 0 0];

internalField   nonuniform List<vector> 
9950
(
(-0.00108937 -0.00665119 -1.35571e-20)
(-0.00679184 -0.0129762 2.56251e-21)
(-0.0175825 -0.0147846 6.82759e-21)
(-0.0302121 -0.0136934 -3.63206e-21)
(-0.0437017 -0.0110313 2.00085e-21)
(-0.0570624 -0.00765873 2.19536e-20)
(-0.0696903 -0.00395642 -2.62702e-21)
(-0.0813153 8.39061e-05 -3.23321e-22)
(-0.092019 0.00470389 -2.19747e-21)
(-0.101891 0.0102582 7.13596e-21)
(-0.000966025 -0.00488332 3.71469e-20)
(-0.00656484 -0.00894863 4.22752e-21)
(-0.0173026 -0.00944712 1.64907e-21)
(-0.029878 -0.00774575 3.37138e-20)
(-0.0432722 -0.0049899 -5.63775e-20)
(-0.0564719 -0.00186635 -1.84013e-20)
(-0.0688572 0.00139873 1.40254e-20)
(-0.0801457 0.0049562 1.6359e-21)
(-0.0904124 0.00918196 2.00912e-20)
(-0.0996355 0.0145093 -3.31941e-20)
(-0.00094477 -0.00312545 -4.685e-20)
(-0.00654418 -0.00495573 3.55299e-20)
(-0.0172442 -0.00417233 -2.39749e-20)
(-0.0297208 -0.00188845 -6.89977e-20)
(-0.0429257 0.000935029 3.39531e-20)
(-0.055828 0.00378369 -5.04223e-20)
(-0.0677932 0.00658229 -4.01648e-20)
(-0.0785236 0.00962051 7.02086e-21)
(-0.088096 0.0134087 -3.91584e-21)
(-0.0963289 0.0184581 3.20759e-20)
(-0.00102433 -0.00139446 6.46937e-20)
(-0.00672893 -0.00103355 -9.55441e-20)
(-0.0174096 0.000993863 -6.72899e-21)
(-0.0297477 0.00382748 1.09557e-20)
(-0.0426747 0.00668985 1.18285e-20)
(-0.0551495 0.0092352 8.45938e-20)
(-0.0665246 0.0115342 5.71118e-20)
(-0.0764826 0.0140111 5.48184e-20)
(-0.0851149 0.0173134 -6.46116e-21)
(-0.0920245 0.0220327 9.57816e-22)
(-0.00120212 0.000294462 -1.0335e-19)
(-0.00711562 0.00278494 7.17494e-20)
(-0.0177987 0.00600884 -7.98794e-20)
(-0.0299627 0.00935431 3.84881e-20)
(-0.0425287 0.012224 5.50467e-20)
(-0.0544519 0.0144351 -8.44789e-20)
(-0.0650738 0.0161975 4.54018e-20)
(-0.0740515 0.0180656 -1.68373e-19)
(-0.0815088 0.020829 -9.3399e-20)
(-0.0867629 0.025165 8.70229e-21)
(-0.00147449 0.00192814 6.24743e-20)
(-0.00769847 0.00647033 5.86197e-20)
(-0.0184079 0.0108339 5.99234e-20)
(-0.0303662 0.0146481 -7.50466e-21)
(-0.0424929 0.0174906 5.94491e-20)
(-0.0537459 0.0193342 9.19318e-21)
(-0.0634575 0.0205196 6.84417e-20)
(-0.0712512 0.0217259 9.61476e-20)
(-0.0773084 0.0238917 1.52737e-19)
(-0.0805662 0.0277896 -3.53592e-20)
(-0.00183694 0.00349555 -3.06417e-21)
(-0.00846959 0.00999701 -2.39832e-20)
(-0.0192308 0.0154343 6.38074e-20)
(-0.0309545 0.0196689 4.87097e-20)
(-0.0425668 0.022447 -1.94265e-22)
(-0.053035 0.0238878 -1.32496e-19)
(-0.0616838 0.0244526 -7.07153e-20)
(-0.0680908 0.0249389 1.827e-20)
(-0.0725307 0.026442 -8.26232e-21)
(-0.0734298 0.0298442 -2.26693e-19)
(-0.00228439 0.00498781 1.24878e-19)
(-0.00941921 0.0133433 -1.57027e-19)
(-0.0202574 0.01978 7.82295e-20)
(-0.0317185 0.0243813 -8.42249e-21)
(-0.0427433 0.0270551 1.06904e-19)
(-0.0523135 0.0280564 1.68222e-19)
(-0.0597483 0.0279548 1.11358e-21)
(-0.0645625 0.0276582 -3.60032e-22)
(-0.0671729 0.0284251 -2.1043e-19)
(-0.0653132 0.0312692 2.85181e-19)
(-0.00281133 0.00639814 -1.16271e-19)
(-0.0105358 0.0164912 1.40443e-19)
(-0.0214741 0.0238448 -1.55327e-20)
(-0.0326433 0.0287545 7.92964e-20)
(-0.0430056 0.0312817 -2.2491e-19)
(-0.0515627 0.0318064 1.79822e-20)
(-0.0576298 0.0309917 1.06249e-19)
(-0.0606344 0.0298464 -9.9725e-20)
(-0.0612043 0.0297919 3.03793e-19)
(-0.0561268 0.0320086 1.16215e-19)
(-0.00341207 0.00772169 -4.7894e-20)
(-0.011806 0.0194263 -1.45257e-21)
(-0.0228631 0.0276069 -2.06071e-21)
(-0.0337066 0.0327617 -1.98379e-19)
(-0.0433262 0.0350988 -3.50543e-20)
(-0.0507476 0.0351111 -1.77581e-19)
(-0.0552841 0.0335379 -2.29525e-19)
(-0.056243 0.031478 4.79568e-20)
(-0.0545553 0.0305025 -8.53992e-20)
(-0.04572 0.0320231 -1.95644e-19)
(-0.00408079 0.00895524 1.40383e-19)
(-0.013215 0.0221372 1.26062e-19)
(-0.024402 0.031048 1.81784e-19)
(-0.0348773 0.0363806 -2.30825e-19)
(-0.0436632 0.0384835 8.03624e-20)
(-0.0498124 0.0379504 -1.42191e-20)
(-0.0526374 0.0355782 1.74971e-20)
(-0.0512824 0.0325426 8.12168e-20)
(-0.0471002 0.0305311 2.16838e-19)
(-0.0338843 0.0313413 4.26905e-20)
(-0.00481163 0.0100969 -2.38517e-19)
(-0.0147458 0.0246153 2.77599e-22)
(-0.026063 0.0341531 -7.54787e-20)
(-0.0361147 0.0395926 1.41093e-19)
(-0.0439589 0.0414175 2.55078e-20)
(-0.0486763 0.0403117 -7.56799e-21)
(-0.049579 0.0371078 1.83923e-19)
(-0.045592 0.0330447 -1.62545e-19)
(-0.0386126 0.0298548 -1.42122e-19)
(-0.0203692 0.0300934 -2.44582e-19)
(-0.00559868 0.0111456 2.76489e-19)
(-0.0163797 0.0268534 -2.10141e-19)
(-0.0278125 0.0369096 -3.12229e-19)
(-0.0373662 0.0423821 2.11535e-20)
(-0.044136 0.0438872 -1.17833e-19)
(-0.0472287 0.0421895 1.54294e-19)
(-0.0459548 0.0381345 -3.2012e-19)
(-0.0389534 0.0330049 -1.09575e-19)
(-0.0287071 0.0284249 -1.37221e-19)
(-0.00475696 0.0282762 1.85949e-19)
(-0.0064359 0.012101 9.78492e-20)
(-0.0180954 0.0288459 2.60932e-19)
(-0.0296101 0.0393067 1.9891e-19)
(-0.0385665 0.0447358 8.693e-20)
(-0.0440958 0.0458821 -8.58724e-20)
(-0.0453252 0.043585 1.9978e-19)
(-0.0415611 0.0386809 4.90919e-19)
(-0.031113 0.0324868 2.06728e-19)
(-0.0169444 0.0262722 2.75062e-20)
(0.0137402 0.0258377 3.49847e-20)
(-0.00731699 0.0129628 -1.82494e-19)
(-0.019869 0.0305874 -4.04565e-19)
(-0.0314081 0.0413346 -1.15168e-19)
(-0.0396364 0.0466423 1.21365e-19)
(-0.0437153 0.0473947 2.46867e-19)
(-0.042782 0.044504 1.13815e-19)
(-0.0361252 0.038784 -4.35022e-19)
(-0.0217472 0.0316284 8.93864e-21)
(-0.00285976 0.0235552 3.8562e-19)
(0.0360045 0.0228877 1.62709e-19)
(-0.00823521 0.0137303 2.33641e-19)
(-0.0216731 0.0320727 2.03437e-19)
(-0.0331505 0.0429838 -1.78015e-19)
(-0.0404808 0.0480906 -6.8971e-20)
(-0.042846 0.0484182 -1.00474e-19)
(-0.0393745 0.0449537 -3.27179e-19)
(-0.0292833 0.0384796 5.12387e-19)
(-0.0103708 0.0304762 -1.41484e-19)
(0.0140837 0.0204778 -3.05999e-19)
(0.062936 0.0197649 1.64059e-19)
(-0.00918316 0.0144026 -5.15338e-19)
(-0.0234769 0.0332956 2.52567e-19)
(-0.0347726 0.044245 2.38018e-19)
(-0.040989 0.0490706 6.97593e-20)
(-0.0413134 0.0489469 7.40608e-20)
(-0.0348453 0.0449416 -1.99862e-19)
(-0.0206601 0.0378125 -1.89743e-19)
(0.00364053 0.02908 -6.29686e-20)
(0.0346832 0.0172093 1.68068e-19)
(0.0954544 0.0169755 -1.59533e-19)
(-0.0101525 0.0149782 4.1923e-19)
(-0.0252451 0.0342494 -2.6778e-20)
(-0.0361998 0.0451085 6.52986e-20)
(-0.0410327 0.0495726 -3.42233e-20)
(-0.0389149 0.0489767 1.54575e-19)
(-0.0288883 0.044481 -5.42174e-20)
(-0.00982687 0.0368495 -3.16224e-19)
(0.0208802 0.0276033 2.14163e-19)
(0.0599077 0.0138761 -7.62581e-21)
(0.134479 0.0151201 -4.79188e-19)
(-0.0111337 0.0154545 -1.08972e-19)
(-0.0269372 0.0349262 -1.01765e-19)
(-0.0373468 0.0455646 -1.77992e-19)
(-0.040466 0.0495879 -1.01576e-19)
(-0.0354209 0.0485048 -1.97497e-19)
(-0.0211574 0.0435824 -1.92248e-19)
(0.00372104 0.0356358 2.38893e-19)
(0.0419789 0.0261966 -3.4966e-19)
(0.0907997 0.0107016 1.37958e-19)
(0.180697 0.0148668 4.97129e-19)
(-0.0121157 0.0158283 -3.9009e-20)
(-0.028507 0.0353174 -6.85857e-20)
(-0.038117 0.0456042 1.93791e-19)
(-0.0391241 0.0491104 1.94628e-19)
(-0.0305755 0.0475325 -3.77075e-21)
(-0.0112739 0.0422608 -5.88947e-20)
(0.020533 0.0342221 1.82569e-19)
(0.0675952 0.024975 -5.30813e-20)
(0.128456 0.00800743 -8.85313e-20)
(0.234305 0.0168377 1.22251e-19)
(-0.0130856 0.0160957 1.62575e-19)
(-0.0299017 0.0354137 8.8851e-20)
(-0.0384012 0.0452194 -3.4293e-20)
(-0.0368232 0.0481385 -3.06179e-20)
(-0.0240953 0.0460693 1.29507e-19)
(0.00117083 0.0405417 5.29875e-19)
(0.0411819 0.0326747 -1.72331e-19)
(0.0983817 0.024018 5.98754e-20)
(0.173956 0.00625609 -2.17268e-19)
(0.294755 0.0214474 -6.07883e-19)
(-0.0140281 0.016252 1.32889e-20)
(-0.0310608 0.0352055 -3.29242e-19)
(-0.0380766 0.0444053 -1.08345e-19)
(-0.0333588 0.0466783 -1.33577e-19)
(-0.0156709 0.0441368 -4.31779e-19)
(0.0166139 0.0384682 -6.34058e-20)
(0.0662474 0.0310835 1.2593e-19)
(0.134965 0.0233689 -3.56163e-19)
(0.228182 0.00612978 2.16392e-19)
(0.360492 0.0288703 1.67625e-19)
(-0.0149252 0.0162917 3.16841e-19)
(-0.0319149 0.0346836 5.91051e-20)
(-0.0370061 0.0431619 -7.6828e-22)
(-0.0285054 0.0447449 1.04915e-19)
(-0.00496717 0.041775 3.96704e-19)
(0.035516 0.0361111 1.04931e-19)
(0.0962956 0.029572 -1.25313e-19)
(0.177959 0.0230472 4.90047e-20)
(0.291563 0.00859907 1.74873e-19)
(0.428811 0.0391635 -1.9568e-19)
(-0.0157562 0.016209 -1.57947e-19)
(-0.0323845 0.0338396 1.06494e-19)
(-0.0350369 0.0414955 1.18699e-19)
(-0.0220162 0.0423661 -2.80409e-19)
(0.0083743 0.0390465 -1.33806e-19)
(0.0583535 0.033578 -2.07599e-19)
(0.131846 0.0282988 -1.62167e-19)
(0.228003 0.0231063 -1.51904e-19)
(0.363855 0.0148017 4.15609e-19)
(0.496673 0.0514446 5.49983e-19)
(-0.0164974 0.0159983 -1.70078e-19)
(-0.0323821 0.0326699 -7.87534e-20)
(-0.0319975 0.0394169 3.44412e-20)
(-0.0136239 0.0395851 1.28783e-20)
(0.0247303 0.0360407 2.44536e-19)
(0.0856012 0.0310197 2.68413e-19)
(0.17332 0.0274499 3.06605e-19)
(0.285646 0.0237889 8.19289e-20)
(0.443824 0.0253232 -6.34683e-19)
(0.564197 0.0606976 -4.40572e-20)
(-0.01712 0.0156538 5.33129e-19)
(-0.0318105 0.0311728 9.53973e-20)
(-0.0277018 0.0369459 -8.44327e-20)
(-0.00304206 0.0364637 -1.2344e-21)
(0.044487 0.0328783 -2.79155e-19)
(0.117708 0.0286351 2.18471e-19)
(0.220995 0.0272462 -2.73541e-19)
(0.350963 0.0256851 -4.36174e-20)
(0.528186 0.0386355 5.7198e-19)
(0.638612 0.0591033 6.77962e-20)
(-0.0175879 0.0151678 -5.9738e-19)
(-0.0305598 0.0293502 -1.30902e-19)
(-0.0219505 0.0341158 2.84432e-19)
(0.01003 0.0330838 -6.10342e-20)
(0.0680295 0.0297111 1.71285e-19)
(0.155066 0.026671 -2.90302e-19)
(0.275 0.0279707 1.98169e-19)
(0.423282 0.0295723 2.27942e-19)
(0.61182 0.0502674 -4.95254e-19)
(0.741025 0.0577194 -1.28372e-19)
(-0.0178621 0.0145378 5.91624e-20)
(-0.0285065 0.0272098 -1.24624e-19)
(-0.0145303 0.0309706 -2.66518e-19)
(0.0259007 0.0295479 1.30671e-19)
(0.0957261 0.0267219 1.44422e-19)
(0.19797 0.0254132 -5.96444e-20)
(0.335257 0.0299503 1.19762e-19)
(0.501142 0.0358833 -1.25346e-19)
(0.696242 0.0612817 -1.30225e-19)
(0.840026 0.0679214 2.10478e-19)
(-0.0179021 0.0137623 9.19265e-20)
(-0.0255171 0.0247641 -1.14041e-19)
(-0.00521577 0.0275689 2.04918e-19)
(0.0448779 0.0259808 -1.21972e-19)
(0.127905 0.0241234 -6.26449e-19)
(0.246569 0.0251719 4.15546e-20)
(0.401371 0.0335287 -6.42195e-20)
(0.582655 0.0446237 6.43977e-19)
(0.780311 0.0731097 -1.87481e-19)
(0.928986 0.0819269 -6.33671e-19)
(-0.0176598 0.0128393 -4.59534e-20)
(-0.0214511 0.0220362 1.91581e-19)
(0.00622423 0.0239855 5.28783e-20)
(0.067257 0.0225309 3.62205e-19)
(0.164826 0.0221543 2.95219e-19)
(0.300808 0.0262628 -4.81666e-19)
(0.472531 0.0390026 1.61755e-19)
(0.665731 0.0555291 -4.92878e-19)
(0.861494 0.0860239 3.19551e-19)
(1.00782 0.0969365 6.11758e-19)
(-0.0170821 0.0117702 7.0401e-20)
(-0.0161604 0.0190596 -4.46737e-19)
(0.0200212 0.0203132 -1.49736e-19)
(0.0933066 0.0193701 -1.4409e-19)
(0.20665 0.0210739 -1.52171e-19)
(0.360386 0.0289838 6.50134e-19)
(0.547485 0.0465558 -1.58975e-19)
(0.748155 0.068226 -6.82353e-20)
(0.937518 0.0997806 5.79868e-20)
(1.07546 0.112041 -1.27755e-19)
(-0.0161115 0.0105607 -2.5925e-19)
(-0.00949113 0.01588 4.46053e-19)
(0.0364002 0.0166641 -1.10065e-19)
(0.123251 0.0166935 1.37502e-19)
(0.253403 0.021154 2.19337e-19)
(0.424703 0.033585 -2.73232e-19)
(0.62462 0.0562104 -3.39793e-19)
(0.827782 0.0822916 2.96541e-19)
(1.00664 0.11399 -3.02811e-19)
(1.13204 0.126625 -4.63667e-19)
(-0.0146868 0.0092209 -9.58915e-20)
(-0.00128749 0.0125564 -3.74956e-19)
(0.0555712 0.0131714 3.29316e-19)
(0.157252 0.0147181 -2.10366e-20)
(0.304937 0.0226674 8.63142e-20)
(0.492855 0.0402358 9.10163e-20)
(0.702113 0.0678204 2.84108e-19)
(0.90276 0.0972881 -1.51728e-19)
(1.0678 0.128259 3.33644e-19)
(1.17824 0.140371 -6.82596e-20)
(-0.0127438 0.00776619 2.57849e-19)
(0.00860444 0.00916346 3.59848e-19)
(0.0777195 0.00998892 -2.21724e-19)
(0.195387 0.0136787 -5.85952e-20)
(0.360903 0.0258688 -7.00989e-20)
(0.563659 0.0489972 1.62772e-19)
(0.778126 0.0811067 -9.14602e-20)
(0.971678 0.112803 4.6781e-21)
(1.12061 0.142271 7.89186e-20)
(1.21511 0.153139 2.23845e-19)
(-0.010216 0.00621817 2.16843e-19)
(0.020332 0.00579161 -1.93211e-19)
(0.102994 0.00729105 2.42434e-19)
(0.237627 0.0138211 -2.26797e-19)
(0.420732 0.0309715 -4.54609e-19)
(0.635732 0.0598108 -1.14836e-19)
(0.850992 0.0957168 2.68038e-19)
(1.03363 0.128481 -1.7655e-19)
(1.16517 0.155801 -1.55463e-19)
(1.24385 0.164919 1.34971e-19)
(-0.00703642 0.00460508 2.35831e-19)
(0.0340308 0.0025479 -1.23828e-19)
(0.131496 0.00526993 6.47481e-20)
(0.283818 0.0153915 9.91296e-20)
(0.483642 0.038122 1.96287e-19)
(0.707612 0.0725104 -6.39246e-20)
(0.919347 0.111282 -2.14318e-20)
(1.08818 0.144046 3.65672e-19)
(1.20198 0.168719 -1.33549e-19)
(1.26569 0.175775 -1.42074e-19)
(-0.00313906 0.00296234 -5.15696e-20)
(0.049818 -0.000444372 2.61819e-21)
(0.163266 0.0041321 2.01164e-19)
(0.333663 0.0186228 -9.12869e-20)
(0.548669 0.047381 -2.42795e-19)
(0.777882 0.0868517 6.16585e-20)
(0.982203 0.127462 -5.37907e-19)
(1.13531 0.159297 -2.30766e-19)
(1.23172 0.18097 1.30539e-21)
(1.28181 0.185817 -4.10905e-20)
(0.00153912 0.00133286 -3.32618e-19)
(0.0677866 -0.00304658 1.05246e-19)
(0.198273 0.00409321 -4.80473e-19)
(0.386718 0.0237169 3.82562e-20)
(0.614728 0.0587182 1.98051e-19)
(0.845284 0.102552 -4.13857e-20)
(1.03895 0.143968 4.43912e-19)
(1.17528 0.174106 4.00563e-19)
(1.25522 0.192557 1.19319e-19)
(1.29324 0.195177 -2.04046e-19)
(0.00705599 -0.000232925 1.24166e-19)
(0.0879984 -0.00510644 1.96877e-19)
(0.236401 0.00537106 2.73018e-19)
(0.442397 0.0308284 1.35745e-19)
(0.680692 0.0720213 -1.2457e-19)
(0.908792 0.119323 -3.33233e-20)
(1.08931 0.160569 6.52521e-20)
(1.20857 0.188405 -1.09563e-19)
(1.2733 0.203527 7.95545e-20)
(1.30089 0.203986 1.89639e-19)
(0.0134618 -0.00167722 1.36217e-19)
(0.110478 -0.00646054 5.05765e-20)
(0.277446 0.00817685 9.8391e-20)
(0.499994 0.0400514 -5.17295e-20)
(0.745471 0.0871175 -4.59839e-20)
(0.967648 0.136896 2.45748e-19)
(1.13328 0.177096 -2.3293e-19)
(1.23577 0.202172 -9.30412e-20)
(1.28678 0.213948 1.11552e-20)
(1.30552 0.212373 8.82799e-20)
(0.0207968 -0.00293538 -9.54258e-20)
(0.135206 -0.00693758 3.54441e-20)
(0.32111 0.012705 4.53323e-20)
(0.558717 0.0514133 -9.65914e-20)
(0.808077 0.103798 3.17752e-19)
(1.02135 0.155037 -2.58573e-19)
(1.17107 0.19343 4.04903e-20)
(1.25752 0.215421 -7.87785e-20)
(1.29639 0.223905 -7.96709e-20)
(1.30775 0.220449 1.07028e-19)
(0.0290888 -0.00393677 -8.43457e-20)
(0.162116 -0.00636265 -1.15376e-19)
(0.367005 0.0191225 3.11033e-20)
(0.61773 0.0648775 2.1426e-19)
(0.867672 0.12184 -2.23054e-19)
(1.06963 0.173548 1.39634e-19)
(1.20302 0.209496 5.39812e-20)
(1.27448 0.228187 8.24578e-20)
(1.30277 0.233483 -2.5861e-19)
(1.30806 0.228311 -7.8208e-12)
(0.0383511 -0.00460586 -1.38524e-20)
(0.191089 -0.00456222 4.27619e-20)
(0.414662 0.0275591 -1.30818e-19)
(0.676204 0.0803528 -1.76784e-19)
(0.923592 0.141024 2.03292e-19)
(1.11242 0.192269 -2.42909e-19)
(1.22955 0.225251 9.06191e-21)
(1.28726 0.240521 3.81024e-20)
(1.30647 0.242766 1.97294e-19)
(1.30684 0.236035 -1.84829e-12)
(0.0485804 -0.00486362 -9.12464e-21)
(0.221953 -0.00137001 4.59856e-20)
(0.463546 0.0380999 -1.04191e-19)
(0.733352 0.0977067 1.48133e-19)
(0.975346 0.161142 5.23209e-21)
(1.1498 0.211074 1.21033e-19)
(1.25113 0.240681 -1.14234e-19)
(1.29644 0.252481 1.24922e-21)
(1.30796 0.251827 -1.09735e-19)
(1.30438 0.243681 -3.82885e-20)
(0.059755 -0.00462925 1.08377e-20)
(0.254485 0.0033668 -3.49346e-20)
(0.513079 0.0507822 -1.43036e-20)
(0.788462 0.116778 -3.55388e-20)
(1.02261 0.182007 -1.10232e-19)
(1.18194 0.229866 -9.23718e-21)
(1.26824 0.255788 1.19681e-19)
(1.30252 0.264124 -7.91408e-20)
(1.30761 0.26073 1.14495e-19)
(1.30089 0.25129 -9.3606e-20)
(0.0718344 -0.0038221 -4.58267e-20)
(0.28841 0.00978116 -8.62441e-20)
(0.56266 0.065595 1.38989e-19)
(0.840921 0.137389 -1.03427e-20)
(1.06519 0.203448 -3.28391e-21)
(1.20912 0.248571 5.36991e-20)
(1.28134 0.270585 -3.59921e-20)
(1.30593 0.275503 1.21304e-19)
(1.30572 0.269525 -1.50812e-20)
(1.29652 0.258889 8.49335e-20)
(0.0847577 -0.00236375 1.14882e-20)
(0.323411 0.0179803 1.69082e-20)
(0.611688 0.0824828 -4.04675e-20)
(0.890222 0.159355 -9.45715e-20)
(1.10303 0.225314 -2.50297e-20)
(1.23162 0.267133 -2.16964e-20)
(1.29087 0.28509 3.85552e-20)
(1.30705 0.286665 -5.74052e-20)
(1.30252 0.278249 2.17405e-20)
(1.29139 0.266491 -1.41773e-20)
(0.0984448 -0.000180339 6.67875e-21)
(0.359135 0.0280408 7.47935e-20)
(0.659586 0.101351 4.04445e-20)
(0.935966 0.182488 3.65545e-20)
(1.13614 0.247471 -9.4342e-21)
(1.24978 0.285509 -2.76971e-20)
(1.29722 0.299323 -4.6323e-20)
(1.30618 0.297647 -1.07315e-20)
(1.29819 0.286928 -5.80025e-20)
(1.28558 0.274097 -1.74979e-20)
(0.112796 0.00279508 -3.7347e-20)
(0.395199 0.0400051 -1.92523e-20)
(0.705816 0.122072 -3.7518e-20)
(0.977856 0.206601 5.67587e-21)
(1.16463 0.269798 6.74282e-20)
(1.26392 0.303665 3.29997e-20)
(1.30074 0.313302 -2.29057e-20)
(1.3036 0.308477 -4.00625e-21)
(1.29286 0.295573 1.98519e-20)
(1.27913 0.281699 1.13913e-20)
(0.127693 0.00662018 2.62915e-20)
(0.431208 0.0538793 -6.05525e-21)
(0.749889 0.144492 2.29156e-20)
(1.01568 0.231513 8.77364e-21)
(1.18863 0.292186 -1.35645e-20)
(1.27435 0.321572 -2.19655e-20)
(1.30174 0.327039 4.57852e-21)
(1.29949 0.31917 1.62514e-21)
(1.28663 0.304184 2.43149e-20)
(1.27208 0.289279 -3.29523e-21)
(0.143005 0.0113412 2.41875e-20)
(0.466759 0.0696333 -5.96461e-21)
(0.791379 0.168434 2.41056e-20)
(1.04933 0.257045 7.04475e-21)
(1.20832 0.314535 -1.41665e-20)
(1.28138 0.339203 -2.097e-20)
(1.30048 0.340541 5.9433e-21)
(1.29402 0.329731 -3.88142e-22)
(1.27957 0.312753 2.3334e-20)
(1.26445 0.296816 -2.11871e-21)
(0.158583 0.016991 -6.13551e-20)
(0.501454 0.0872016 -1.71763e-20)
(0.829923 0.19371 -3.42253e-20)
(1.07872 0.283025 -1.00934e-21)
(1.2239 0.336751 7.37246e-20)
(1.28529 0.356532 1.36318e-20)
(1.29719 0.353805 -6.93391e-21)
(1.28732 0.340157 -1.49522e-21)
(1.27173 0.321258 7.48839e-21)
(1.25626 0.304279 1.48794e-20)
(0.174269 0.0235874 5.75594e-21)
(0.534911 0.106485 8.53037e-20)
(0.865222 0.220116 4.133e-20)
(1.10387 0.309285 3.02269e-20)
(1.23559 0.358746 -6.51566e-21)
(1.28633 0.373528 -1.62133e-20)
(1.29205 0.366821 -5.39535e-20)
(1.27948 0.350432 3.20142e-21)
(1.26315 0.329674 -3.85294e-20)
(1.2475 0.311637 -8.19865e-21)
(0.1899 0.0311321 -1.8971e-20)
(0.566769 0.127355 6.4575e-20)
(0.89704 0.247442 -5.12066e-20)
(1.12481 0.335659 -1.14581e-19)
(1.24358 0.380433 2.1125e-20)
(1.28472 0.390158 -4.77552e-20)
(1.28523 0.379571 3.21121e-20)
(1.2706 0.360532 -3.45633e-20)
(1.25384 0.337968 1.24475e-20)
(1.23819 0.318854 -7.8322e-22)
(0.205305 0.0396102 3.12302e-20)
(0.596696 0.149655 -1.70748e-19)
(0.925202 0.275472 1.38637e-19)
(1.14162 0.361989 6.60798e-20)
(1.24809 0.40173 -6.90623e-20)
(1.28068 0.406385 8.7485e-20)
(1.27687 0.392029 -3.4926e-20)
(1.26072 0.370427 1.03524e-19)
(1.24383 0.346098 -1.52152e-20)
(1.22835 0.325889 2.09424e-20)
(0.220315 0.0489898 9.22086e-20)
(0.624396 0.173207 -1.09057e-19)
(0.949585 0.303987 -9.89852e-20)
(1.1544 0.388119 1.67462e-20)
(1.24933 0.422552 -6.97675e-20)
(1.27439 0.422166 -3.33632e-20)
(1.26706 0.404161 1.04943e-19)
(1.24988 0.380077 -5.69809e-20)
(1.23312 0.354016 5.28546e-20)
(1.21799 0.332697 -2.63066e-20)
(0.234762 0.0592227 4.93449e-20)
(0.64961 0.197812 1.174e-19)
(0.970116 0.33277 -1.70516e-19)
(1.16328 0.413895 1.18741e-19)
(1.2475 0.442816 6.65307e-21)
(1.26601 0.437454 1.20919e-19)
(1.2559 0.415928 -7.91269e-20)
(1.23813 0.389437 -2.7127e-20)
(1.22172 0.361667 -4.70993e-20)
(1.20707 0.339225 7.0769e-21)
(0.248487 0.0702449 1.79061e-19)
(0.672121 0.223258 -8.47452e-20)
(0.986765 0.361601 -6.95169e-20)
(1.1684 0.439171 -2.18538e-19)
(1.24278 0.462438 1.38667e-19)
(1.25569 0.452197 -1.46395e-19)
(1.24348 0.427284 3.75588e-21)
(1.2255 0.398465 -1.45079e-20)
(1.20963 0.369006 7.60315e-20)
(1.19548 0.345427 -2.49699e-21)
(0.261335 0.0819777 -1.95545e-19)
(0.69175 0.249321 -1.71437e-19)
(0.999542 0.390266 3.55657e-20)
(1.16992 0.463801 2.06952e-19)
(1.23535 0.481334 -2.10989e-19)
(1.24357 0.466337 1.17435e-19)
(1.22987 0.438177 9.9351e-20)
(1.21202 0.407112 7.2825e-21)
(1.19687 0.37603 -8.11409e-20)
(1.18313 0.35131 6.47642e-22)
(0.273165 0.0943297 8.99465e-20)
(0.70836 0.275768 6.34687e-21)
(1.00849 0.418551 6.06119e-20)
(1.16798 0.487645 -8.4989e-20)
(1.22539 0.499418 1.79448e-19)
(1.22975 0.479815 -1.29896e-19)
(1.21512 0.448549 8.70128e-22)
(1.19771 0.41532 -2.69571e-21)
(1.18348 0.382747 -2.60217e-20)
(1.17014 0.356922 1.92134e-20)
(0.283849 0.107197 6.44466e-20)
(0.721855 0.302363 7.19037e-20)
(1.01368 0.44625 2.16889e-19)
(1.16277 0.510567 -7.47211e-20)
(1.21306 0.516605 -7.72247e-20)
(1.21436 0.492567 1.7942e-19)
(1.19929 0.45834 -9.16976e-20)
(1.1826 0.423009 -2.88997e-20)
(1.16944 0.389075 1.97121e-20)
(1.15677 0.36206 8.46847e-22)
(0.293274 0.120468 1.05247e-19)
(0.732177 0.32887 2.62152e-19)
(1.01522 0.47316 1.01629e-19)
(1.15446 0.532433 1.46688e-19)
(1.19851 0.532811 -1.64781e-20)
(1.19749 0.504528 2.15005e-20)
(1.18244 0.467496 -1.16424e-20)
(1.16676 0.430148 -1.1206e-20)
(1.1547 0.394899 2.04696e-20)
(1.14302 0.366753 -2.58353e-20)
(0.301344 0.13402 -3.1575e-19)
(0.739304 0.355053 5.35513e-21)
(1.01321 0.499088 -4.53545e-19)
(1.14322 0.553117 4.15101e-20)
(1.18191 0.54795 8.86733e-20)
(1.17925 0.515628 1.70027e-20)
(1.16464 0.475941 9.05069e-20)
(1.15021 0.436694 5.96311e-20)
(1.13932 0.400172 -3.83736e-21)
(1.12883 0.370911 9.52992e-21)
(0.30798 0.147726 -7.27863e-20)
(0.743246 0.380683 2.33184e-20)
(1.0078 0.523846 4.08635e-20)
(1.12923 0.572495 3.7027e-20)
(1.1634 0.56194 -1.05168e-19)
(1.15973 0.525796 -5.11254e-20)
(1.14596 0.483615 -8.82659e-20)
(1.13295 0.442582 -9.50836e-21)
(1.12336 0.404852 -1.83906e-20)
(1.1142 0.374494 2.07281e-20)
(0.313121 0.161456 2.09374e-19)
(0.744044 0.405534 -3.3838e-19)
(0.999137 0.547257 1.39513e-19)
(1.11267 0.590452 5.43952e-20)
(1.14312 0.574695 1.45396e-19)
(1.13903 0.534962 -4.53868e-20)
(1.12644 0.490452 2.50978e-20)
(1.11503 0.447757 -1.60147e-20)
(1.10685 0.408889 -3.82596e-22)
(1.09914 0.377456 5.80175e-20)
(0.316726 0.175076 1.55908e-19)
(0.741766 0.429394 -1.38727e-19)
(0.987402 0.569153 9.60196e-20)
(1.09373 0.606877 -1.37887e-19)
(1.1212 0.586135 -1.54457e-19)
(1.11724 0.543055 -1.24859e-20)
(1.10613 0.49639 1.51253e-20)
(1.09649 0.452163 1.67172e-20)
(1.08982 0.412236 6.94157e-20)
(1.08368 0.379756 -1.00731e-19)
(0.31877 0.188454 1.62982e-19)
(0.736512 0.452054 4.52885e-19)
(0.97279 0.589387 -1.6586e-19)
(1.07256 0.621656 -1.11414e-19)
(1.0978 0.596182 4.09884e-20)
(1.09445 0.550004 1.44255e-20)
(1.0851 0.501369 1.86063e-20)
(1.07738 0.455747 -1.64663e-20)
(1.07231 0.414845 -6.12314e-21)
(1.06784 0.381354 -1.13913e-19)
(0.319248 0.201457 -1.08022e-19)
(0.728412 0.473318 -3.00306e-19)
(0.9555 0.607831 1.11338e-19)
(1.04932 0.634683 7.17492e-20)
(1.07304 0.604755 4.54816e-20)
(1.07076 0.555745 -1.61609e-20)
(1.06342 0.505328 -7.93003e-20)
(1.05775 0.45846 1.00234e-19)
(1.05437 0.416671 -1.2705e-19)
(1.05169 0.382212 -7.36009e-20)
(0.318179 0.213957 -2.61188e-19)
(0.717627 0.493004 3.58301e-19)
(0.935646 0.624319 -1.36619e-19)
(1.02423 0.645898 7.00853e-20)
(1.04709 0.611773 2.51478e-20)
(1.04626 0.560215 4.60738e-20)
(1.04116 0.508214 2.61094e-21)
(1.03766 0.460255 -1.15987e-19)
(1.03603 0.41767 1.65459e-19)
(1.03529 0.382284 3.6654e-19)
(0.315602 0.225826 2.04949e-20)
(0.70433 0.510998 -2.04224e-19)
(0.913327 0.638658 -9.67247e-20)
(0.997506 0.655212 -3.29205e-20)
(1.02006 0.617184 -1.23328e-20)
(1.02104 0.563356 -1.21402e-19)
(1.01839 0.509972 8.14033e-20)
(1.01718 0.461087 -7.65449e-20)
(1.01735 0.417793 -1.48247e-20)
(1.01869 0.38151 1.21422e-19)
(0.311573 0.236921 -8.10805e-20)
(0.688646 0.527179 1.7067e-19)
(0.888811 0.65079 1.47619e-20)
(0.969351 0.6625 1.54744e-20)
(0.992113 0.620939 -9.08478e-20)
(0.99522 0.565116 1.41258e-19)
(0.995185 0.510557 1.83762e-20)
(0.99636 0.460917 1.91886e-19)
(0.998392 0.416989 -1.66687e-19)
(1.00193 0.379817 -4.65037e-19)
(0.306121 0.247092 2.59703e-20)
(0.670653 0.541333 -3.80651e-20)
(0.862454 0.660714 7.772e-22)
(0.939942 0.667693 8.94313e-21)
(0.963369 0.62298 1.40963e-19)
(0.968883 0.565446 -8.03781e-20)
(0.971631 0.509925 8.36235e-20)
(0.975253 0.459708 -3.66875e-19)
(0.979191 0.415212 1.06956e-19)
(0.98516 0.377146 5.2041e-19)
(0.299275 0.256208 1.67943e-20)
(0.65056 0.553282 -4.95194e-20)
(0.834487 0.668323 -3.04787e-21)
(0.909446 0.670773 -4.96789e-20)
(0.933967 0.623262 -1.58957e-20)
(0.942137 0.564304 6.46895e-20)
(0.947795 0.508036 -1.43573e-19)
(0.953898 0.457417 1.47077e-19)
(0.959861 0.41242 9.72997e-20)
(0.968782 0.373505 -1.80436e-19)
(0.291165 0.264173 -5.90949e-20)
(0.628606 0.5629 4.82236e-21)
(0.805068 0.673512 2.43562e-21)
(0.878038 0.671698 -1.20713e-20)
(0.904045 0.621745 -1.02743e-19)
(0.915081 0.561655 1.70435e-19)
(0.923738 0.504858 -6.62763e-20)
(0.932333 0.453987 -1.58282e-19)
(0.940621 0.408524 3.80939e-19)
(0.953298 0.368993 2.75001e-19)
(0.281924 0.270979 3.35276e-21)
(0.605001 0.570124 -3.41679e-20)
(0.774414 0.676194 2.41744e-21)
(0.845899 0.670432 1.98811e-20)
(0.87374 0.618401 1.2462e-19)
(0.887817 0.557473 -5.79233e-20)
(0.89952 0.500371 2.00725e-19)
(0.910644 0.449381 1.39352e-19)
(0.921753 0.403387 -6.89136e-19)
(0.938383 0.36335 -3.96743e-20)
(0.271614 0.276522 -6.97244e-22)
(0.579978 0.574893 7.48366e-20)
(0.742744 0.67632 -3.22841e-20)
(0.813213 0.666946 -6.02503e-20)
(0.843191 0.613206 -1.75875e-19)
(0.860446 0.551741 -2.42735e-19)
(0.875223 0.494569 -1.8984e-19)
(0.888994 0.443647 -1.60565e-19)
(0.903423 0.39716 7.09733e-19)
(0.922221 0.354159 1.01155e-19)
(0.260339 0.280725 8.66775e-20)
(0.553764 0.57715 -1.50464e-20)
(0.710279 0.673859 -8.33999e-20)
(0.780158 0.66122 1.72479e-19)
(0.812536 0.606146 2.18317e-19)
(0.833074 0.544445 1.38011e-19)
(0.850966 0.487435 1.14134e-19)
(0.867548 0.436785 2.58138e-19)
(0.885033 0.390715 -5.34605e-19)
(0.904353 0.34874 -9.12196e-19)
(0.248218 0.283526 -1.25812e-19)
(0.526579 0.576851 -1.45021e-19)
(0.677238 0.668795 1.80834e-20)
(0.746916 0.653246 -1.33088e-19)
(0.781912 0.597215 -3.88536e-19)
(0.80581 0.535572 -6.75819e-20)
(0.826861 0.478946 2.7848e-19)
(0.846331 0.428711 -3.94577e-19)
(0.866545 0.383011 -9.07063e-20)
(0.886751 0.34127 2.80015e-19)
(0.235377 0.284875 1.29673e-19)
(0.498644 0.573964 1.99181e-19)
(0.643838 0.661123 1.86924e-19)
(0.713662 0.643027 1.13564e-19)
(0.751455 0.586412 4.30329e-19)
(0.778767 0.525123 1.93751e-19)
(0.802998 0.469107 -7.59007e-20)
(0.825366 0.419478 2.2044e-19)
(0.84811 0.3744 -1.94261e-19)
(0.869537 0.333426 -2.70559e-19)
(0.221946 0.284735 -4.40623e-21)
(0.47018 0.568477 -5.74886e-20)
(0.610294 0.650856 7.14416e-20)
(0.68057 0.630575 2.53184e-20)
(0.721301 0.573749 -2.61457e-19)
(0.752056 0.513103 -5.37404e-19)
(0.779469 0.45792 -2.2979e-20)
(0.804704 0.409079 -1.48328e-19)
(0.829852 0.364795 4.94856e-19)
(0.852722 0.324777 8.93966e-19)
(0.208056 0.283082 6.06146e-20)
(0.441406 0.560391 -6.04403e-20)
(0.576815 0.638013 -1.82027e-19)
(0.647812 0.615915 -1.836e-19)
(0.691583 0.559242 -2.27042e-19)
(0.725785 0.499523 2.81736e-19)
(0.756361 0.445396 -2.41026e-19)
(0.784419 0.397534 -1.19224e-19)
(0.811897 0.354234 9.84497e-20)
(0.836357 0.315326 -1.86517e-19)
(0.193841 0.2799 2.03381e-19)
(0.412539 0.549724 9.15987e-20)
(0.543607 0.622632 1.9188e-19)
(0.615554 0.599079 3.08513e-19)
(0.662434 0.542918 4.35158e-19)
(0.700064 0.484405 -1.67468e-20)
(0.733764 0.431554 -4.18763e-19)
(0.764588 0.384858 5.07237e-19)
(0.794336 0.342721 4.85812e-20)
(0.820478 0.305041 -9.35251e-19)
(0.179435 0.275189 -7.04666e-19)
(0.383792 0.536509 5.10628e-20)
(0.51087 0.604759 -1.37233e-19)
(0.583957 0.580112 9.93674e-20)
(0.633981 0.524811 -1.75125e-19)
(0.674999 0.467776 4.73577e-20)
(0.711765 0.416415 4.9104e-19)
(0.74529 0.371074 -2.63493e-19)
(0.77725 0.330267 1.32148e-19)
(0.805128 0.293919 6.9848e-19)
(0.164969 0.268957 9.94569e-19)
(0.355374 0.520793 -6.3883e-19)
(0.478798 0.584453 -2.21214e-19)
(0.55318 0.559066 -3.37507e-19)
(0.606351 0.504965 9.76529e-20)
(0.650692 0.449671 2.86234e-19)
(0.69045 0.40001 4.66352e-19)
(0.726602 0.356206 -1.39554e-19)
(0.760711 0.316886 -3.57237e-19)
(0.790349 0.281966 5.84239e-19)
(0.150575 0.261225 -3.43699e-19)
(0.327486 0.502637 -1.79917e-19)
(0.447577 0.561786 2.44286e-19)
(0.523374 0.536004 1.57763e-19)
(0.579664 0.48343 1.4604e-19)
(0.627245 0.43013 6.59589e-19)
(0.669906 0.382374 -9.5124e-19)
(0.708599 0.340283 2.90568e-19)
(0.744786 0.302598 7.59705e-19)
(0.776185 0.269198 -5.98246e-19)
(0.13638 0.252024 3.90142e-19)
(0.300323 0.482117 1.08462e-18)
(0.417387 0.53684 1.17953e-19)
(0.494684 0.510999 -5.29578e-19)
(0.554039 0.460266 -5.27785e-19)
(0.604754 0.409203 -8.6715e-20)
(0.650215 0.363549 7.25878e-19)
(0.691351 0.32334 -6.15491e-20)
(0.729537 0.287428 -5.62196e-19)
(0.762677 0.25564 -4.2764e-19)
(0.122511 0.241398 2.60267e-20)
(0.274073 0.459321 -8.18e-19)
(0.388401 0.509707 -4.89489e-19)
(0.467249 0.48413 1.24184e-19)
(0.529588 0.435537 4.41358e-20)
(0.583315 0.386945 -5.53886e-19)
(0.631457 0.34358 -1.00394e-18)
(0.674928 0.305416 -6.58057e-19)
(0.715022 0.271408 2.81722e-19)
(0.749867 0.241324 -2.1974e-19)
(0.109086 0.229396 -3.75363e-19)
(0.248915 0.434349 4.90587e-19)
(0.36078 0.480491 3.47282e-19)
(0.441203 0.455488 2.29699e-19)
(0.506417 0.409319 3.95417e-19)
(0.563016 0.363418 -5.69386e-19)
(0.613706 0.322521 9.39997e-19)
(0.659394 0.286555 1.72988e-19)
(0.701298 0.254573 2.75134e-19)
(0.737794 0.226285 -3.92005e-19)
(0.0962221 0.216081 6.98468e-19)
(0.225017 0.407315 -3.90477e-20)
(0.334679 0.449305 5.58502e-19)
(0.41667 0.425168 -4.08752e-19)