/*--------------------------------*- C++ -*----------------------------------*\
  =========                 |
  \\      /  F ield         | OpenFOAM: The Open Source CFD Toolbox
   \\    /   O peration     | Website:  https://openfoam.org
    \\  /    A nd           | Version:  7
     \\/     M anipulation  |
\*---------------------------------------------------------------------------*/
FoamFile
{
    version     2.0;
    format      ascii;
    class       volScalarField;
    location    "90";
    object      p;
}
// * * * * * * * * * * * * * * * * * * * * * * * * * * * * * * * * * * * * * //

dimensions      [0 2 -2 0 0 0 0];

internalField   nonuniform List<scalar> 
8500
(
-0.504359
-0.496308
-0.482863
-0.464008
-0.440132
-0.412187
-0.381603
-0.350117
-0.319387
-0.290888
-0.265719
-0.244669
-0.228348
-0.217284
-0.21196
-0.212655
-0.219134
-0.230299
-0.244062
-0.257572
-0.267709
-0.271657
-0.267396
-0.254238
-0.23314
-0.206652
-0.178075
-0.15065
-0.126601
-0.107311
-0.0929295
-0.0836671
-0.0787106
-0.0785296
-0.0819329
-0.0912209
-0.104106
-0.123057
-0.138469
-0.151545
-0.149196
-0.138186
-0.112723
-0.0841269
-0.0490418
-0.016476
-0.490323
-0.482323
-0.469233
-0.45105
-0.42817
-0.401509
-0.37241
-0.342522
-0.313398
-0.28645
-0.262744
-0.243078
-0.228093
-0.218359
-0.214381
-0.216417
-0.224155
-0.236388
-0.25093
-0.264879
-0.275116
-0.278857
-0.274118
-0.260254
-0.238285
-0.210851
-0.181341
-0.153052
-0.128235
-0.108263
-0.0932722
-0.0834379
-0.0779366
-0.0771945
-0.0800196
-0.0886274
-0.100808
-0.119037
-0.133952
-0.146814
-0.144699
-0.134274
-0.109723
-0.0820038
-0.0478967
-0.0160895
-0.475672
-0.467744
-0.455036
-0.437553
-0.415694
-0.390335
-0.362733
-0.334451
-0.306939
-0.281551
-0.259325
-0.241065
-0.227446
-0.219075
-0.216471
-0.219863
-0.228856
-0.242133
-0.25742
-0.271778
-0.282101
-0.285639
-0.280445
-0.265908
-0.243111
-0.214776
-0.184376
-0.155263
-0.129709
-0.109081
-0.0935026
-0.0831125
-0.0770788
-0.0757853
-0.0780409
-0.0859754
-0.0974572
-0.114966
-0.129386
-0.142031
-0.14015
-0.130307
-0.10667
-0.0798337
-0.0467172
-0.0156926
-0.46047
-0.452629
-0.440319
-0.423557
-0.402736
-0.378683
-0.352588
-0.325908
-0.300009
-0.276187
-0.255453
-0.238621
-0.226398
-0.219422
-0.21822
-0.222979
-0.233216
-0.247511
-0.263509
-0.278246
-0.288642
-0.291987
-0.286361
-0.271191
-0.247611
-0.218422
-0.187178
-0.157283
-0.131027
-0.10977
-0.0936245
-0.0826954
-0.0761424
-0.0743078
-0.0760031
-0.0832724
-0.0940616
-0.110853
-0.124779
-0.137205
-0.135557
-0.126293
-0.103567
-0.0776198
-0.0455049
-0.0152856
-0.44479
-0.437039
-0.425138
-0.409106
-0.389329
-0.366585
-0.341982
-0.316901
-0.292612
-0.270358
-0.251129
-0.235746
-0.224948
-0.219398
-0.219621
-0.225754
-0.237221
-0.252503
-0.269175
-0.284265
-0.294725
-0.297885
-0.291857
-0.276094
-0.251779
-0.221787
-0.189748
-0.159112
-0.13219
-0.110333
-0.0936422
-0.0821912
-0.0751325
-0.0727679
-0.0739128
-0.0805255
-0.0906293
-0.106707
-0.120142
-0.132346
-0.130928
-0.122238
-0.10042
-0.0753656
-0.0442615
-0.0148687
-0.428705
-0.421041
-0.409546
-0.394245
-0.375506
-0.354072
-0.330929
-0.307442
-0.284758
-0.26407
-0.246355
-0.232442
-0.223098
-0.219003
-0.220671
-0.228178
-0.240857
-0.257092
-0.274403
-0.289821
-0.300337
-0.303325
-0.296926
-0.280612
-0.255611
-0.224868
-0.192083
-0.160752
-0.133202
-0.110774
-0.09356
-0.0816049
-0.0740546
-0.0711715
-0.0717764
-0.0777421
-0.0871683
-0.102535
-0.115483
-0.127462
-0.126271
-0.118149
-0.0972325
-0.0730743
-0.0429887
-0.0144422
-0.412293
-0.404704
-0.393605
-0.379025
-0.361308
-0.341162
-0.31946
-0.297546
-0.276463
-0.257333
-0.241142
-0.22872
-0.220856
-0.218242
-0.221368
-0.230247
-0.244114
-0.261266
-0.27918
-0.2949
-0.305468
-0.3083
-0.301561
-0.28474
-0.259106
-0.227665
-0.194187
-0.162207
-0.134066
-0.111096
-0.0933825
-0.0809415
-0.0729141
-0.0695243
-0.0696001
-0.0749291
-0.0836863
-0.0983479
-0.11081
-0.122561
-0.121593
-0.114032
-0.0940103
-0.0707494
-0.0416882
-0.0140065
-0.395636
-0.3881
-0.377378
-0.363497
-0.34678
-0.327888
-0.307618
-0.287222
-0.267753
-0.250166
-0.235507
-0.224594
-0.218235
-0.217123
-0.221717
-0.231957
-0.246985
-0.265016
-0.283497
-0.299497
-0.310114
-0.312806
-0.30576
-0.288478
-0.262261
-0.230179
-0.19606
-0.163478
-0.134785
-0.111305
-0.0931145
-0.080206
-0.0717164
-0.0678322
-0.0673904
-0.0720936
-0.0801911
-0.0941524
-0.106133
-0.117652
-0.116902
-0.109894
-0.0907577
-0.0683941
-0.0403618
-0.0135619
-0.378818
-0.371307
-0.360931
-0.34772
-0.33197
-0.314294
-0.295432
-0.276512
-0.258653
-0.242592
-0.229471
-0.220084
-0.215251
-0.215658
-0.221723
-0.233309
-0.249465
-0.268336
-0.287349
-0.303608
-0.314271
-0.316841
-0.309524
-0.291825
-0.265079
-0.232411
-0.197705
-0.164569
-0.135363
-0.111404
-0.0927609
-0.0794036
-0.0704668
-0.066101
-0.0651533
-0.0692422
-0.07669
-0.0899568
-0.101458
-0.112743
-0.112206
-0.10574
-0.0874795
-0.0660119
-0.0390112
-0.0131087
-0.361923
-0.354403
-0.344336
-0.331756
-0.316931
-0.300428
-0.282923
-0.265469
-0.249194
-0.234642
-0.223064
-0.215216
-0.211926
-0.213863
-0.221395
-0.234306
-0.251554
-0.271223
-0.290733
-0.307231
-0.317943
-0.320409
-0.312853
-0.294782
-0.26756
-0.234363
-0.199126
-0.165484
-0.135806
-0.111398
-0.0923267
-0.0785395
-0.0691709
-0.0643364
-0.062895
-0.0663815
-0.0731902
-0.0857689
-0.0967952
-0.107841
-0.10751
-0.101577
-0.0841801
-0.063606
-0.0376382
-0.0126471
-0.337471
-0.327667
-0.315672
-0.301724
-0.286345
-0.270152
-0.254122
-0.239408
-0.226352
-0.216318
-0.210019
-0.208284
-0.211754
-0.220744
-0.234952
-0.253252
-0.273678
-0.29365
-0.31037
-0.321133
-0.323513
-0.315752
-0.297354
-0.269709
-0.23604
-0.200327
-0.166228
-0.136118
-0.111293
-0.091817
-0.0776189
-0.067834
-0.0625439
-0.0606212
-0.0635179
-0.0696986
-0.081596
-0.0921508
-0.102955
-0.102823
-0.0974102
-0.0808642
-0.0611798
-0.0362445
-0.0121775
-0.320596
-0.311004
-0.299539
-0.286413
-0.272105
-0.257176
-0.242521
-0.229335
-0.217767
-0.209273
-0.204528
-0.204352
-0.209353
-0.219782
-0.235254
-0.254565
-0.275705
-0.296106
-0.313031
-0.323847
-0.32616
-0.318226
-0.299546
-0.27153
-0.237445
-0.201312
-0.166805
-0.136303
-0.111093
-0.0912371
-0.076647
-0.0664614
-0.0607291
-0.0583376
-0.0606575
-0.0662219
-0.0774454
-0.0875324
-0.0980914
-0.0981503
-0.0932457
-0.0775361
-0.0587365
-0.0348319
-0.0117002
-0.303866
-0.294429
-0.283433
-0.271068
-0.257773
-0.244053
-0.230733
-0.219017
-0.208934
-0.201972
-0.198781
-0.200161
-0.206681
-0.218525
-0.235223
-0.255499
-0.277309
-0.298108
-0.315222
-0.326096
-0.328358
-0.320283
-0.301363
-0.273028
-0.238585
-0.202087
-0.167222
-0.136368
-0.110804
-0.090592
-0.075629
-0.0650581
-0.0588973
-0.0560499
-0.0578061
-0.0627663
-0.0733237
-0.0829469
-0.093257
-0.0934985
-0.0890889
-0.0742002
-0.0562793
-0.0334022
-0.0112155
-0.287368
-0.278027
-0.267435
-0.255763
-0.243418
-0.230845
-0.218833
-0.208503
-0.199907
-0.194461
-0.192815
-0.195742
-0.203762
-0.216987
-0.234868
-0.256061
-0.278498
-0.299663
-0.316953
-0.327891
-0.330119
-0.321932
-0.302813
-0.27421
-0.239466
-0.202658
-0.167483
-0.136318
-0.110432
-0.0898871
-0.0745698
-0.0636294
-0.0570536
-0.0537633
-0.0549694
-0.0593378
-0.0692374
-0.0784008
-0.0884585
-0.0888734
-0.084945
-0.0708606
-0.0538115
-0.0319571
-0.0107238
-0.27119
-0.261883
-0.251625
-0.240577
-0.229114
-0.217623
-0.206884
-0.19786
-0.19074
-0.186789
-0.186674
-0.191128
-0.200619
-0.215187
-0.234202
-0.256262
-0.279284
-0.300785
-0.318237
-0.329245
-0.331452
-0.323183
-0.303904
-0.275084
-0.240094
-0.203031
-0.167595
-0.136158
-0.109981
-0.0891275
-0.0734746
-0.0621802
-0.055203
-0.051483
-0.0521527
-0.0559424
-0.0651926
-0.0739005
-0.0837021
-0.0842808
-0.0808192
-0.0675215
-0.0513362
-0.0304984
-0.0102253
-0.255418
-0.246084
-0.236088
-0.225589
-0.214939
-0.204458
-0.194947
-0.187161
-0.181493
-0.179008
-0.1804
-0.186351
-0.197277
-0.213141
-0.233238
-0.256114
-0.279677
-0.301486
-0.319088
-0.330184
-0.332373
-0.324047
-0.304646
-0.275658
-0.240476
-0.203213
-0.167563
-0.135894
-0.109456
-0.0883182
-0.0723483
-0.0607152
-0.0533504
-0.0492137
-0.0493611
-0.0525852
-0.061195
-0.0694518
-0.0789937
-0.079726
-0.0767164
-0.0641869
-0.0488564
-0.0290278
-0.0097204
-0.24014
-0.230712
-0.220905
-0.210881
-0.20097
-0.191425
-0.183087
-0.176483
-0.172223
-0.17117
-0.174034
-0.181446
-0.193761
-0.210867
-0.23199
-0.255629
-0.279692
-0.301782
-0.31952
-0.330721
-0.332893
-0.324535
-0.30505
-0.275941
-0.240622
-0.203212
-0.167396
-0.135532
-0.108864
-0.0874643
-0.0711957
-0.0592391
-0.0515002
-0.0469601
-0.0465994
-0.0492714
-0.05725
-0.06506
-0.0743388
-0.0752142
-0.0726411
-0.0608605
-0.0463752
-0.0275472
-0.00920945
-0.225396
-0.215843
-0.206158
-0.196534
-0.187285
-0.178583
-0.171379
-0.165899
-0.16299
-0.163325
-0.167618
-0.176444
-0.190094
-0.208384
-0.230472
-0.254822
-0.279342
-0.301687
-0.319547
-0.330618
-0.333027
-0.324661
-0.305125
-0.275942
-0.24054
-0.203035
-0.167098
-0.135079
-0.10821
-0.0865709
-0.0700213
-0.0577563
-0.049657
-0.0447267
-0.043872
-0.0460058
-0.0533627
-0.0607304
-0.0697426
-0.07075
-0.0685979
-0.0575463
-0.0438954
-0.0260581
-0.00869276
-0.211257
-0.201548
-0.191922
-0.182623
-0.173953
-0.165992
-0.1599
-0.15548
-0.153852
-0.155523
-0.161192
-0.171376
-0.186301
-0.205709
-0.228701
-0.253705
-0.278644
-0.30122
-0.319199
-0.330376
-0.332793
-0.324438
-0.304885
-0.275671
-0.240238
-0.202689
-0.166678
-0.134539
-0.107498
-0.0856426
-0.0688298
-0.0562712
-0.0478249
-0.0425175
-0.0411832
-0.0427927
-0.0495376
-0.0564678
-0.06521
-0.0663382
-0.0645911
-0.0542476
-0.04142
-0.0245623
-0.00817067
-0.197805
-0.187892
-0.178267
-0.169221
-0.161038
-0.153741
-0.148717
-0.145294
-0.144864
-0.147811
-0.154795
-0.166272
-0.182402
-0.20286
-0.22669
-0.252296
-0.277613
-0.300398
-0.318489
-0.32976
-0.332204
-0.32388
-0.304339
-0.27514
-0.239726
-0.202184
-0.166142
-0.133918
-0.106734
-0.0846841
-0.0676254
-0.0547877
-0.0460078
-0.0403364
-0.0385368
-0.0396361
-0.0457792
-0.0522764
-0.0607454
-0.0619827
-0.0606246
-0.0509681
-0.0389517
-0.0230616
-0.00764351
-0.1851
-0.174931
-0.165258
-0.156392
-0.148596
-0.14212
-0.137709
-0.135389
-0.136078
-0.140234
-0.148462
-0.161158
-0.17842
-0.199854
-0.224456
-0.250609
-0.276266
-0.299239
-0.317434
-0.328786
-0.331279
-0.323
-0.303502
-0.274359
-0.239014
-0.201527
-0.165496
-0.133224
-0.105923
-0.0837001
-0.0664123
-0.0533097
-0.0442094
-0.0381871
-0.0359365
-0.03654
-0.0420913
-0.0481604
-0.056353
-0.0576877
-0.0567022
-0.0477109
-0.0364933
-0.0215575
-0.00711163
-0.162711
-0.152953
-0.144181
-0.136664
-0.130974
-0.127166
-0.125815
-0.127541
-0.132831
-0.142224
-0.156062
-0.174375
-0.196709
-0.222014
-0.248659
-0.27462
-0.29776
-0.316052
-0.327484
-0.330032
-0.321813
-0.302385
-0.27334
-0.238111
-0.200727
-0.164748
-0.132461
-0.105071
-0.0826949
-0.0651944
-0.0518409
-0.0424332
-0.036073
-0.0333855
-0.0335076
-0.0384776
-0.0441234
-0.0520365
-0.0534567
-0.0528275
-0.0444794
-0.0340473
-0.0200519
-0.00657538
-0.151271
-0.1414
-0.132606
-0.125327
-0.120368
-0.117119
-0.116613
-0.119298
-0.125638
-0.136112
-0.151006
-0.170285
-0.193439
-0.219379
-0.246463
-0.272692
-0.29598
-0.31436
-0.325869
-0.32848
-0.320332
-0.301001
-0.272094
-0.237028
-0.199791
-0.163905
-0.131635
-0.104181
-0.0816726
-0.0639756
-0.0503848
-0.0406824
-0.033997
-0.030887
-0.030542
-0.0349413
-0.0401687
-0.0477996
-0.0492932
-0.049004
-0.0412766
-0.0316163
-0.0185462
-0.00603511
-0.140658
-0.130626
-0.121678
-0.114943
-0.110114
-0.107574
-0.107826
-0.111385
-0.118685
-0.130152
-0.14601
-0.166168
-0.190061
-0.216567
-0.244037
-0.270499
-0.293917
-0.312377
-0.323961
-0.326636
-0.318571
-0.299364
-0.270633
-0.235775
-0.19873
-0.162974
-0.130752
-0.103258
-0.0806373
-0.0627594
-0.0489446
-0.0389599
-0.0319621
-0.0284435
-0.027646
-0.0314855
-0.0362995
-0.0436453
-0.0452002
-0.0452348
-0.0381053
-0.0292028
-0.0170421
-0.00549116
-0.130859
-0.120615
-0.111447
-0.105243
-0.100549
-0.098565
-0.0994878
-0.103833
-0.112
-0.124364
-0.141094
-0.16204
-0.18659
-0.213592
-0.241397
-0.268059
-0.291588
-0.310121
-0.321774
-0.324517
-0.316544
-0.297485
-0.268969
-0.234362
-0.19755
-0.161962
-0.129817
-0.102308
-0.0795927
-0.0615492
-0.0475232
-0.0372686
-0.0299709
-0.0260577
-0.0248222
-0.0281128
-0.0325183
-0.0395765
-0.0411808
-0.0415228
-0.0349684
-0.0268091
-0.0155413
-0.0049439
-0.121788
-0.111394
-0.102305
-0.0959322
-0.0916604
-0.090117
-0.0916252
-0.0966645
-0.105604
-0.118768
-0.136273
-0.157915
-0.183039
-0.21047
-0.238559
-0.265388
-0.289012
-0.307607
-0.319326
-0.322135
-0.314265
-0.295378
-0.267114
-0.2328
-0.196261
-0.160874
-0.128836
-0.101334
-0.0785426
-0.0603481
-0.0461234
-0.0356108
-0.0280256
-0.0237317
-0.0220726
-0.0248254
-0.0288276
-0.0355958
-0.0372375
-0.037871
-0.0318684
-0.0244374
-0.0140452
-0.00439368
-0.11348
-0.102979
-0.0939087
-0.087445
-0.0834345
-0.0822488
-0.0842577
-0.0898992
-0.0995144
-0.113379
-0.131561
-0.153807
-0.179423
-0.207215
-0.235539
-0.262503
-0.286205
-0.304855
-0.316633
-0.319505
-0.311747
-0.293057
-0.26508
-0.231099
-0.194872
-0.159719
-0.127813
-0.10034
-0.0774902
-0.059159
-0.0447479
-0.0339889
-0.0261284
-0.0214674
-0.0193991
-0.0216254
-0.0252295
-0.0317057
-0.0333729
-0.0342818
-0.0288079
-0.0220901
-0.0125556
-0.00384085
-0.106081
-0.0953864
-0.0862141
-0.0797417
-0.0758717
-0.0749732
-0.0773977
-0.0835494
-0.0937427
-0.108209
-0.12697
-0.149729
-0.175756
-0.203843
-0.232353
-0.259421
-0.283185
-0.301883
-0.313708
-0.31664
-0.309003
-0.290535
-0.262879
-0.229269
-0.193389
-0.158501
-0.126754
-0.0993302
-0.0764388
-0.0579847
-0.043399
-0.0324049
-0.024281
-0.0192665
-0.0168033
-0.0185145
-0.0217258
-0.027908
-0.0295891
-0.0307577
-0.0257893
-0.019769
-0.0110738
-0.00328579
-0.0884736
-0.0793152
-0.0727639
-0.0689754
-0.068294
-0.0710508
-0.0776226
-0.0882976
-0.103267
-0.122511
-0.14569
-0.172049
-0.200367
-0.229016
-0.256159
-0.279968
-0.298704
-0.310566
-0.313554
-0.306047
-0.287823
-0.260524
-0.227321
-0.191822
-0.157228
-0.125664
-0.0983086
-0.0753913
-0.0568277
-0.0420788
-0.0308605
-0.0224851
-0.0171303
-0.0142865
-0.0154943
-0.0183179
-0.0242045
-0.0258884
-0.027301
-0.0228149
-0.0174764
-0.00960153
-0.00272886
-0.0824057
-0.0731622
-0.0664951
-0.0627413
-0.062208
-0.0652173
-0.0721213
-0.0831836
-0.0985597
-0.11819
-0.141703
-0.168316
-0.196802
-0.225546
-0.252732
-0.276567
-0.295339
-0.307221
-0.310259
-0.302892
-0.284937
-0.258025
-0.225265
-0.190178
-0.155906
-0.124546
-0.0972784
-0.0743505
-0.0556901
-0.0407893
-0.0293574
-0.020742
-0.0150601
-0.0118497
-0.0125658
-0.0150072
-0.0205969
-0.0222726
-0.0239138
-0.0198868
-0.015214
-0.00814018
-0.00217042
-0.0771548
-0.0677261
-0.0609264
-0.0571571
-0.056707
-0.0598929
-0.0670441
-0.0784021
-0.0940904
-0.114016
-0.137776
-0.164568
-0.193163
-0.221956
-0.249156
-0.272998
-0.291819
-0.303686
-0.306767
-0.29955
-0.281888
-0.255396
-0.22311
-0.188464
-0.154539
-0.123406
-0.0962427
-0.0733188
-0.0545741
-0.039532
-0.0278969
-0.0190528
-0.0130567
-0.00949376
-0.00973007
-0.0117945
-0.0170865
-0.0187433
-0.020598
-0.0170071
-0.0129836
-0.00669125
-0.00161083
-0.0725736
-0.0630011
-0.05604
-0.0522074
-0.0517797
-0.0550693
-0.0623862
-0.0739517
-0.0898615
-0.109993
-0.133917
-0.160817
-0.189461
-0.218261
-0.245444
-0.269268
-0.288162
-0.299974
-0.30309
-0.296034
-0.278689
-0.252648
-0.220866
-0.186689
-0.153135
-0.122248
-0.0952053
-0.072299
-0.0534817
-0.0383088
-0.0264804
-0.0174184
-0.0111211
-0.00721926
-0.00698784
-0.00868075
-0.0136743
-0.0153021
-0.0173555
-0.0141777
-0.010787
-0.00525623
-0.00105048
-0.0687273
-0.0589641
-0.0518169
-0.0478758
-0.0474121
-0.050736
-0.0581404
-0.0698291
-0.0858733
-0.106125
-0.130135
-0.157073
-0.185711
-0.214476
-0.241609
-0.265388
-0.28437
-0.296089
-0.299238
-0.292356
-0.275353
-0.249793
-0.218544
-0.184862
-0.1517
-0.121077
-0.0941702
-0.0712942
-0.0524155
-0.0371215
-0.0251092
-0.0158401
-0.00925387
-0.00502661
-0.00433964
-0.00566639
-0.0103613
-0.0119505
-0.014188
-0.0114008
-0.00862591
-0.00383654
-0.000489724
-0.0655978
-0.0555993
-0.0482414
-0.0441466
-0.0435901
-0.0468812
-0.0542983
-0.0660293
-0.0821249
-0.102416
-0.126435
-0.153346
-0.181924
-0.210611
-0.237661
-0.261366
-0.280264
-0.292025
-0.295219
-0.288528
-0.271894
-0.246843
-0.216154
-0.182989
-0.150238
-0.119895
-0.0931389
-0.0703053
-0.051376
-0.0359706
-0.0237835
-0.0143176
-0.00745498
-0.00291563
-0.00178549
-0.00275144
-0.00714789
-0.00868957
-0.0110972
-0.00867805
-0.00650182
-0.00243365
7.106e-05
-0.0528894
-0.0452967
-0.0410028
-0.0402988
-0.0434931
-0.0508513
-0.0625479
-0.0786158
-0.0988686
-0.122825
-0.149646
-0.17811
-0.20668
-0.233614
-0.257216
-0.275799
-0.287791
-0.291048
-0.284566
-0.268325
-0.243805
-0.213695
-0.181065
-0.148742
-0.118696
-0.0921044
-0.0693264
-0.0503584
-0.0348524
-0.0225004
-0.0128487
-0.00572255
-0.000884887
0.000675506
6.47599e-05
-0.00403327
-0.00551947
-0.0080839
-0.00601121
-0.00441619
-0.00104894
0.000631502
-0.0508123
-0.0429561
-0.0384216
-0.0375204
-0.040559
-0.047792
-0.0593824
-0.075349
-0.0954913
-0.119318
-0.145989
-0.17429
-0.202702
-0.229489
-0.252967
-0.271454
-0.283418
-0.286747
-0.280486
-0.264652
-0.240678
-0.211161
-0.179082
-0.147204
-0.117471
-0.0910599
-0.0683523
-0.049359
-0.0337642
-0.0212581
-0.0114319
-0.00405558
0.00106631
0.00304327
0.00278192
-0.00101765
-0.00244056
-0.00514838
-0.00340144
-0.00237017
0.00031631
0.00119126
-0.0493549
-0.0412057
-0.0363921
-0.0352436
-0.038067
-0.0451089
-0.0565233
-0.0723172
-0.0922794
-0.115912
-0.142374
-0.170463
-0.198675
-0.22528
-0.248604
-0.266993
-0.278891
-0.282298
-0.27628
-0.260884
-0.237487
-0.208594
-0.177091
-0.145677
-0.116273
-0.090052
-0.0674218
-0.0484092
-0.0327309
-0.0200762
-0.0100827
-0.00246609
0.00292996
0.005311
0.00539449
0.00189021
0.000539995
-0.00229655
-0.000852569
-0.000365906
0.00166049
0.00174991
-0.0486106
-0.0401563
-0.0349949
-0.0335169
-0.0360332
-0.0427885
-0.0539307
-0.0694576
-0.0891491
-0.112502
-0.138679
-0.166487
-0.19444
-0.220814
-0.243942
-0.262219
-0.274063
-0.2776
-0.271914
-0.257057
-0.234336
-0.206145
-0.175265
-0.144336
-0.115257
-0.0892127
-0.0666419
-0.0475931
-0.0318173
-0.0190037
-0.00883829
-0.000981763
0.00468895
0.00746775
0.00789586
0.00467493
0.00340577
0.000451015
0.00162255
0.00158966
0.00297971
0.00230642
-0.0487284
-0.0398847
-0.0343007
-0.0324105
-0.0345258
-0.0408895
-0.051647
-0.0667907
-0.086096
-0.109059
-0.134849
-0.162285
-0.189908
-0.216005
-0.238907
-0.25708
-0.268957
-0.272714
-0.267467
-0.253253
-0.231285
-0.203835
-0.173591
-0.143137
-0.114366
-0.0884797
-0.0659524
-0.0468554
-0.030974
-0.0179957
-0.00765777
0.000434129
0.0063734
0.00954502
0.0103169
0.00737725
0.00618321
0.0031043
0.00402508
0.00349487
0.00427095
0.00285977
-0.0483746
-0.039269
-0.0335111
-0.031464
-0.0334218
-0.039613
-0.0501755
-0.0650957
-0.0841448
-0.106819
-0.132295
-0.159407
-0.186716
-0.212537
-0.235194
-0.253135
-0.264873
-0.268566
-0.263389
-0.249394
-0.227774
-0.200755
-0.170971
-0.140949
-0.112544
-0.0869277
-0.0645768
-0.0455616
-0.0296928
-0.0166477
-0.00621425
0.00204184
0.00816311
0.0116809
0.0127631
0.0101887
0.00905086
0.00586316
0.00647743
0.00541506
0.00556343
0.00341841
-0.0351186
-0.0296951
-0.028022
-0.0304155
-0.0371037
-0.0482004
-0.0636541
-0.0831866
-0.106239
-0.131934
-0.159065
-0.18617
-0.211619
-0.233793
-0.250828
-0.261411
-0.264017
-0.257837
-0.243084
-0.221087
-0.194114
-0.164748
-0.135369
-0.107684
-0.0827296
-0.0609213
-0.0422859
-0.0266625
-0.0136971
-0.00324625
0.0051517
0.0113989
0.0153811
0.0169106
0.01518
0.0141685
0.0109699
0.0109084
0.00880084
0.00781016
0.00438118
-0.0358525
-0.0309248
-0.0296606
-0.0323385
-0.0391509
-0.0501714
-0.0653078
-0.0842459
-0.106402
-0.130889
-0.156524
-0.181874
-0.205374
-0.225554
-0.240738
-0.249576
-0.250769
-0.243777
-0.228959
-0.207669
-0.182035
-0.154379
-0.126775
-0.100705
-0.0770625
-0.056236
-0.038258
-0.0230307
-0.0102244
0.00020156
0.00876195
0.0152609
0.0197951
0.0217944
0.0207737
0.0197928
0.0165216
0.0159033
0.012774
0.0105649
0.00557681
-0.0384408
-0.0341259
-0.0333165
-0.0362547
-0.0430923
-0.0538583
-0.0684186
-0.086429
-0.107297
-0.130161
-0.153894
-0.177145
-0.198495
-0.216574
-0.229746
-0.236747
-0.236661
-0.229108
-0.214522
-0.194206
-0.170081
-0.144194
-0.118351
-0.0938488
-0.0714759
-0.0516075
-0.0342871
-0.0194747
-0.00685911
0.00351162
0.0121896
0.0188783
0.0238678
0.0262933
0.0259024
0.0249964
0.0216538
0.0205309
0.0164519
0.0131507
0.00672
-0.0423325
-0.0385145
-0.0380163
-0.0410483
-0.0477283
-0.0580491
-0.071843
-0.0887442
-0.10816
-0.129258
-0.15097
-0.172044
-0.19119
-0.207004
-0.218099
-0.223406
-0.222174
-0.214184
-0.199951
-0.180703
-0.158149
-0.134061
-0.109988
-0.0870527
-0.0659527
-0.0470491
-0.0304012
-0.0160251
-0.00362774
0.00666125
0.0154158
0.0222421
0.0276131
0.0304364
0.0306428
0.029884
0.0264779
0.0249233
0.0199444
0.015601
0.00783067
-0.0472561
-0.0438325
-0.0434996
-0.0464445
-0.0527603
-0.062415
-0.0752204
-0.0908023
-0.108578
-0.12775
-0.147317
-0.166107
-0.18289
-0.19648
-0.205617
-0.209389
-0.207208
-0.199004
-0.18533
-0.167299
-0.146393
-0.124119
-0.101796
-0.0803968
-0.0605466
-0.0425984
-0.0266288
-0.0127062
-0.000554365
0.00962398
0.0184148
0.025331
0.0310114
0.0341895
0.034945
0.0343719
0.0309104
0.0290043
0.0232075
0.0178792
0.00889478
-0.0526912
-0.0495824
-0.0493009
-0.0520149
-0.057798
-0.0666018
-0.0782293
-0.0923099
-0.108283
-0.125397
-0.142722
-0.159191
-0.17368
-0.185112
-0.192446
-0.194897
-0.192027
-0.183858
-0.170928
-0.154213
-0.134973
-0.114476
-0.0938459
-0.0739309
-0.0552948
-0.0382849
-0.0229937
-0.00953785
0.00234343
0.0123832
0.0211731
0.0281349
0.0340539
0.037535
0.038786
0.0384208
0.0349172
0.0327225
0.0262005
0.0199518
0.00989576
-0.0581274
-0.0552579
-0.0549345
-0.0573068
-0.0624328
-0.0702548
-0.0805762
-0.0930411
-0.107123
-0.122123
-0.137196
-0.151393
-0.163708
-0.173162
-0.178902
-0.180284
-0.176977
-0.169045
-0.156981
-0.141616
-0.124006
-0.105215
-0.0861986
-0.0676996
-0.0502312
-0.0341355
-0.0195175
-0.00653764
0.00505075
0.0149249
0.0236797
0.0306459
0.0367366
0.0404652
0.0421563
0.0420152
0.0384897
0.0360599
0.0289082
0.0217996
0.0108225
-0.0631839
-0.0604878
-0.0600511
-0.0620053
-0.0663962
-0.0731623
-0.0821154
-0.0929235
-0.105102
-0.11802
-0.130924
-0.142966
-0.153264
-0.160963
-0.165355
-0.165909
-0.162371
-0.154819
-0.143677
-0.129642
-0.113586
-0.0964009
-0.0789006
-0.0617384
-0.0453837
-0.0301724
-0.0162186
-0.0037207
0.00755506
0.0172376
0.0259253
0.0328588
0.0390586
0.0429775
0.0450499
0.0451428
0.0416234
0.0390059
0.0313242
0.0234085
0.0116668
-0.0676184
-0.0650452
-0.0644503
-0.0659477
-0.0695735
-0.0752671
-0.082854
-0.0920331
-0.10237
-0.113304
-0.124174
-0.134229
-0.142706
-0.148884
-0.152158
-0.152087
-0.148469
-0.141375
-0.131156
-0.118383
-0.103776
-0.0880776
-0.0719851
-0.0560743
-0.0407744
-0.0264143
-0.0131125
-0.00109973
0.00984631
0.0193124
0.0279031
0.0347706
0.041022
0.0450743
0.0474646
0.0477932
0.0443155
0.0415505
0.033444
0.0247664
0.0124213
-0.0713053
-0.0688211
-0.0680486
-0.0690855
-0.07196
-0.0766153
-0.0828946
-0.09053
-0.0991399
-0.108237
-0.117237
-0.125509
-0.132384
-0.137253
-0.139602
-0.13906
-0.135456
-0.128841
-0.1195
-0.107892
-0.0946091
-0.0802707
-0.0654737
-0.0507263
-0.0364203
-0.0228758
-0.0102117
0.00131516
0.0119169
0.0211433
0.0296084
0.0363804
0.0426316
0.0467628
0.0494034
0.0499607
0.0465667
0.0436863
0.0352657
0.0258644
0.0130806
-0.0742052
-0.0717906
-0.0708419
-0.0714417
-0.0736124
-0.0773021
-0.082373
-0.0885916
-0.0956289
-0.103065
-0.110398
-0.117082
-0.122559
-0.126306
-0.127885
-0.126977
-0.123432
-0.11728
-0.108743
-0.0981867
-0.0860976
-0.0729905
-0.0593774
-0.0457064
-0.0323334
-0.0195679
-0.00752557
0.00351636
0.0137619
0.022727
0.0310391
0.0376896
0.0438953
0.0480544
0.0508749
0.0516448
0.0483812
0.045409
0.0367904
0.0266993
0.0136424
-0.0763345
-0.0739813
-0.0728721
-0.0730762
-0.0746114
-0.0774316
-0.0814177
-0.0863694
-0.0920056
-0.0979667
-0.103829
-0.109128
-0.113392
-0.116176
-0.117105
-0.115902
-0.11243
-0.1067
-0.0988791
-0.0892588
-0.0782348
-0.0662355
-0.0536993
-0.0410209
-0.0285216
-0.0164982
-0.00506063
0.00549888
0.0153783
0.024063
0.0321958
0.0387018
0.0448234
0.0489643
0.0518937
0.0528498
0.0497644
0.0467176
0.0380207
0.0272745
0.0141074
-0.0777404
-0.075448
-0.0742023
-0.0740615
-0.0750396
-0.0770966
-0.0801306
-0.0839716
-0.088381
-0.0930554
-0.0976377
-0.101737
-0.104953
-0.106909
-0.107281
-0.105831
-0.102429
-0.0970698
-0.0898778
-0.081081
-0.0710015
-0.059995
-0.048436
-0.0366712
-0.0249886
-0.013671
-0.00282067
0.00726022
0.0167658
0.0251536
0.0330818
0.0394224
0.0454282
0.0495105
0.052481
0.0535861
0.0506195
0.0476126
0.0389592
0.0276008
0.0144792
-0.0784848
-0.0762567
-0.0749023
-0.0744702
-0.0749714
-0.0763717
-0.0785848
-0.0814672
-0.0848181
-0.0883838
-0.091864
-0.0949297
-0.0972446
-0.0984872
-0.0983816
-0.0967168
-0.0933753
-0.0883361
-0.0816904
-0.0736148
-0.0643708
-0.0542525
-0.0435793
-0.0326545
-0.0217349
-0.0110881
-0.000806849
0.00880037
0.017926
0.0260032
0.0337035
0.0398593
0.0457237
0.049713
0.052664
0.0538836
0.0511416
0.0481064
0.0396058
0.0276966
0.0147622
-0.0786338
-0.0764758
-0.0750408
-0.0743695
-0.0744707
-0.0753152
-0.0768305
-0.0788966
-0.081346
-0.0839643
-0.0865027
-0.0886847
-0.0902273
-0.090858
-0.0903404
-0.0884895
-0.0851969
-0.0804324
-0.0742602
-0.0668157
-0.0583106
-0.0489872
-0.0391171
-0.028965
-0.0187583
-0.00874819
0.000982043
0.0101217
0.0188628
0.0266186
0.0340696
0.0400227
0.0457248
0.0495926
0.0524738
0.0537625
0.0512379
0.0482045
0.039956
0.0275869
0.0149577
-0.078253
-0.0761714
-0.0746826
-0.0738204
-0.0735921
-0.0739732
-0.0749028
-0.076281
-0.0779679
-0.0797854
-0.0815253
-0.0829568
-0.0838421
-0.0839505
-0.0830798
-0.0810682
-0.0778166
-0.0732886
-0.0675279
-0.060637
-0.0527866
-0.0441759
-0.035035
-0.0255941
-0.0160536
-0.00664798
0.00254941
0.0112287
0.019582
0.0270085
0.0341915
0.0399254
0.0454475
0.0491711
0.0519451
0.0532594
0.0509266
0.0479168
0.0400012
0.0273013
0.0150589
-0.0774049
-0.0754058
-0.0738875
-0.0728781
-0.0723836
-0.0723836
-0.0728274
-0.0736317
-0.0746805
-0.0758258
-0.0768944
-0.0776933
-0.0780234
-0.0776897
-0.0765197
-0.0743721
-0.0711573
-0.0668356
-0.0614349
-0.0550319
-0.0477639
-0.0397938
-0.0313164
-0.0225311
-0.0136138
-0.0047819
0.00390062
0.0121279
0.0200912
0.0271832
0.0340823
0.0395826
0.0449088
0.0484708
0.0511135
0.0524048
0.0502353
0.0472567
0.039732
0.0268694
0.0150473
-0.0761484
-0.0742371
-0.0727108
-0.0715928
-0.0708879
-0.0705793
-0.070625
-0.0709559
-0.0714757
-0.0720621
-0.0725709
-0.0728414
-0.072707
-0.0720033
-0.0705833
-0.0683245
-0.0651461
-0.0610076
-0.0559251
-0.0499551
-0.0432076
-0.0358156
-0.0279435
-0.0197636
-0.0114298
-0.00314248
0.00504287
0.0128277
0.0204001
0.0271547
0.0337569
0.0390118
0.0441269
0.047514
0.0500145
0.0512342
0.0492015
0.0462443
0.0391435
0.026315
0.0148917
-0.0745386
-0.0727197
-0.0712039
-0.0700108
-0.0691443
-0.0685903
-0.0683143
-0.0682593
-0.0683456
-0.0684719
-0.0685187
-0.0683525
-0.0678341
-0.0668251
-0.0652008
-0.0628551
-0.0597161
-0.0557438
-0.050946
-0.0453632
-0.0390838
-0.0322157
-0.0248975
-0.0172778
-0.00949108
-0.00172065
0.00598492
0.0133379
0.0205197
0.0269364
0.0332312
0.0382323
0.0431218
0.0463233
0.0486818
0.0497841
0.0478713
0.0449083
0.0382443
0.025649
0.0145569
-0.0726269
-0.0709037
-0.0694145
-0.0681751
-0.0671891
-0.0664445
-0.0659131
-0.0655481
-0.0652836
-0.0650359
-0.0647062
-0.0641837
-0.0633524
-0.0620962
-0.0603094
-0.0579008
-0.0548066
-0.0509886
-0.0464488
-0.0412156
-0.0353596
-0.0289685
-0.0221591
-0.0150589
-0.00778564
-0.000505916
0.00673695
0.0136695
0.0204625
0.0265428
0.0325218
0.0372646
0.0419153
0.0449228
0.0471453
0.0480913
0.0462952
0.0432881
0.0370611
0.0248681
0.0140193
-0.0704608
-0.068836
-0.0673865
-0.0661256
-0.0650561
-0.0641683
-0.0634388
-0.0628292
-0.0622854
-0.0617383
-0.0611064
-0.0602979
-0.0592166
-0.0577649
-0.0558539
-0.0534052
-0.050363
-0.0466914
-0.0423885
-0.0374737
-0.0320036
-0.0260488
-0.0197084
-0.0130911
-0.00630049
0.000513363
0.00731035
0.0138348
0.020242
0.0259895
0.0316463
0.0361295
0.0405304
0.0433376
0.0454317
0.0461926
0.0445215
0.0414332
0.0356374
0.0239614
0.0132855
-0.0680846
-0.0665596
-0.0651609
-0.0638992
-0.0627769
-0.0617864
-0.0609079
-0.06011
-0.0593483
-0.0585663
-0.0576967
-0.0566636
-0.0553872
-0.0537862
-0.0517855
-0.0493184
-0.0463363
-0.0428062
-0.0387239
-0.0341018
-0.0289856
-0.0234321
-0.0175254
-0.0113581
-0.00502176
0.00134974
0.00771756
0.0138467
0.0198727
0.0252924
0.0306226
0.0348484
0.0389909
0.0415944
0.0435658
0.0441248
0.0425921
0.0394001
0.0340253
0.0229229
0.0124008
-0.0655387
-0.0641142
-0.0627751
-0.06153
-0.060381
-0.0593214
-0.058336
-0.057398
-0.0564715
-0.05551
-0.0544583
-0.0532539
-0.0518306
-0.0501207
-0.0480615
-0.0455961
-0.0426827
-0.0392914
-0.0354168
-0.0310663
-0.0262769
-0.0210944
-0.0155903
-0.00984328
-0.00393495
0.00201647
0.00797178
0.0137188
0.01937
0.0244683
0.0294698
0.033442
0.0373202
0.03972
0.0415716
0.0419243
0.0405408
0.0372445
0.0322742
0.0217614
0.0114396
-0.0628601
-0.061536
-0.0602634
-0.0590493
-0.0578953
-0.056796
-0.0557385
-0.0547014
-0.0536552
-0.0525617
-0.0513757
-0.0500458
-0.0485175
-0.0467344
-0.0446444
-0.0421992
-0.0393631
-0.0361095
-0.0324324
-0.0283361
-0.0238505
-0.0190125
-0.0138834
-0.00852987
-0.00302511
0.0025273
0.00808683
0.0134649
0.0187495
0.0235335
0.0282072
0.0319311
0.0355417
0.0377413
0.0394721
0.0396268
0.0383949
0.0350151
0.0304248
0.0205016
0.0104794
-0.0600824
-0.0588577
-0.0576569
-0.0564854
-0.0553444
-0.0542294
-0.0531298
-0.0520282
-0.0509004
-0.0497153
-0.0484359
-0.04702
-0.0454228
-0.0435976
-0.0415011
-0.0390928
-0.0363423
-0.0332263
-0.0297389
-0.0258821
-0.0216805
-0.0171639
-0.0123853
-0.00740102
-0.00227708
0.0028963
0.00807688
0.0130993
0.0180273
0.0225046
0.0268545
0.0303356
0.033679
0.0356865
0.0372922
0.0372647
0.0361772
0.0327506
0.0285089
0.0191766
0.00957534
-0.0572359
-0.0561091
-0.0549837
-0.053864
-0.0527507
-0.0516399
-0.0505231
-0.049386
-0.0482089
-0.0469663
-0.0456282
-0.0441599
-0.0425248
-0.0406844
-0.0386028
-0.0362461
-0.0335889
-0.030611
-0.027307
-0.0236773
-0.0197428
-0.0155275
-0.0110772