/*--------------------------------*- C++ -*----------------------------------*\
  =========                 |
  \\      /  F ield         | OpenFOAM: The Open Source CFD Toolbox
   \\    /   O peration     | Website:  https://openfoam.org
    \\  /    A nd           | Version:  7
     \\/     M anipulation  |
\*---------------------------------------------------------------------------*/
FoamFile
{
    version     2.0;
    format      ascii;
    class       surfaceScalarField;
    location    "90";
    object      phi;
}
// * * * * * * * * * * * * * * * * * * * * * * * * * * * * * * * * * * * * * //

dimensions      [0 3 -1 0 0 0 0];

internalField   nonuniform List<scalar> 
16753
(
-0.000125648
0.000609709
-0.000643221
-8.81766e-05
0.0010272
-0.00106468
-4.64507e-05
0.00147703
-0.00151875
-5.04374e-07
0.00194715
-0.0019931
4.90103e-05
0.00242164
-0.00247116
0.000100431
0.00288196
-0.00293338
0.000151061
0.00331036
-0.00336099
0.000197531
0.00369393
-0.0037404
0.00023663
0.0040268
-0.0040659
0.000265796
0.0043113
-0.00434046
0.00028382
0.00455432
-0.00457235
0.000291548
0.0047622
-0.00476993
0.000292532
0.00493416
-0.00493515
0.000293316
0.00505527
-0.00505605
0.000302668
0.00509219
-0.00510155
0.00032933
0.00499645
-0.00502311
0.00037885
0.00471764
-0.00476716
0.000451398
0.00422229
-0.00429484
0.000542277
0.00350627
-0.00359715
0.000644485
0.00259185
-0.00269406
0.000751233
0.00151544
-0.00162219
0.000857483
0.000318507
-0.000424757
0.000960123
-0.000950671
0.000848031
0.00105675
-0.00222744
0.00213082
0.00114433
-0.00342923
0.00334165
0.00121924
-0.00447294
0.00439803
0.0012784
-0.00530116
0.005242
0.00132034
-0.00589719
0.00585525
0.00134526
-0.00628226
0.00625734
0.00135447
-0.00650377
0.00649455
0.00135017
-0.00661546
0.00661977
0.00133433
-0.00666255
0.00667839
0.00130628
-0.00668606
0.00671412
0.00126293
-0.00676396
0.00680732
0.00120466
-0.00693463
0.0069929
0.00114053
-0.00713568
0.00719981
0.00108619
-0.00704386
0.0070982
0.00105495
-0.00641752
0.00644876
0.00105169
-0.00492124
0.0049245
0.00107556
-0.00293955
0.00291567
0.00111583
-0.000340202
0.000299939
0.00116944
0.00190061
-0.00195422
0.00121724
0.00412761
-0.00417542
0.00125197
0.00546674
-0.00550146
0.00127668
0.00660441
-0.00662912
0.00679767
-0.00679102
-0.000171851
0.000573898
-0.00013161
0.000986964
-8.68238e-05
0.00143224
-3.76907e-05
0.00189802
1.49675e-05
0.00236898
6.94393e-05
0.00282749
0.000122948
0.00325685
0.000172157
0.00364472
0.000213992
0.00398497
0.000246073
0.00427922
0.000267483
0.00453291
0.000279467
0.00475022
0.000285983
0.00492765
0.000293768
0.00504748
0.000311319
0.00507464
0.00034653
0.00496124
0.000403762
0.00466041
0.000482171
0.00414388
0.000576611
0.00341183
0.000680102
0.00248836
0.000786141
0.00140941
0.000890143
0.000214504
0.000989522
-0.00105005
0.00108229
-0.00232021
0.00116569
-0.00351263
0.00123629
-0.00454355
0.00129124
-0.0053561
0.00132927
-0.00593522
0.00135077
-0.00630377
0.00135711
-0.00651011
0.00135042
-0.00660877
0.0013327
-0.00664483
0.00130332
-0.00665668
0.00125899
-0.00671964
0.00119963
-0.00687527
0.00113398
-0.00707003
0.00107781
-0.0069877
0.00104502
-0.00638474
0.00104084
-0.00491705
0.0010644
-0.00296311
0.00110483
-0.000380634
0.0011589
0.00184654
0.0012072
0.00407931
0.00124268
0.00543125
0.00126835
0.00657875
0.0068039
-0.000215696
0.000535963
-0.000172866
0.000944134
-0.000125194
0.00138457
-7.30465e-05
0.00184587
-1.73996e-05
0.00231334
3.99582e-05
0.00277013
9.62451e-05
0.00320056
0.000148131
0.00359284
0.000192726
0.00394037
0.000227862
0.00424408
0.000252923
0.00450785
0.000269535
0.00473361
0.000281983
0.0049152
0.000297074
0.00503239
0.000322902
0.00504882
0.00036645
0.00491769
0.000430943
0.00459592
0.000514669
0.00406016
0.000612147
0.00331435
0.000716472
0.00238403
0.00082144
0.00130444
0.000922939
0.000113005
0.0010189
-0.00114601
0.00110772
-0.00240903
0.00118688
-0.00359179
0.00125315
-0.00460982
0.00130388
-0.00540682
0.00133803
-0.00596937
0.00135615
-0.00632189
0.00135966
-0.00651362
0.00135064
-0.00659976
0.0013311
-0.00662528
0.00130045
-0.00662603
0.00125525
-0.00667444
0.00119492
-0.00681494
0.00112783
-0.00700294
0.00106989
-0.00692976
0.00103556
-0.0063504
0.00103042
-0.00491192
0.00105366
-0.00298634
0.00109423
-0.000421213
0.00114872
0.00179205
0.00119749
0.00403055
0.00123371
0.00539503
0.00126031
0.00655215
0.0068097
-0.000256959
0.000496127
-0.00021176
0.000898935
-0.000161414
0.00133422
-0.000106453
0.00179091
-4.79956e-05
0.00225488
1.19334e-05
0.0027102
7.10454e-05
0.00314145
0.000125569
0.00353831
0.000172971
0.00389297
0.000211325
0.00420573
0.000240316
0.00447886
0.000261912
0.00471201
0.000280642
0.00489647
0.000303261
0.00500977
0.000337348
0.00501473
0.000388941
0.0048661
0.000460202
0.00452466
0.000548691
0.00397167
0.000648697
0.00321435
0.000753422
0.00227931
0.000856983
0.00120088
0.000955754
1.42336e-05
0.00104817
-0.00123842
0.00113298
-0.00249384
0.00120787
-0.00366669
0.00126979
-0.00467174
0.0013163
-0.00545333
0.00134659
-0.00599966
0.00136137
-0.00633667
0.00136212
-0.00651437
0.00135085
-0.00658848
0.00132953
-0.00660397
0.00129769
-0.00659419
0.00125171
-0.00662846
0.00119052
-0.00675376
0.0011221
-0.00693452
0.00106244
-0.00687009
0.00102656
-0.00631452
0.00102046
-0.00490582
0.00104334
-0.00300922
0.00108404
-0.000461915
0.00113892
0.00173717
0.00118811
0.00398136
0.00122506
0.00535808
0.00125256
0.00652465
0.0068151
-0.000295413
0.000454652
-0.000248104
0.000851626
-0.000195332
0.00128145
-0.000137785
0.00173336
-7.67127e-05
0.00219381
-1.41585e-05
0.00264765
4.74596e-05
0.00307983
0.000104602
0.00348117
0.000154882
0.00384269
0.000196635
0.00416397
0.000229835
0.00444566
0.000256745
0.0046851
0.000282044
0.00487117
0.000312324
0.00497949
0.00035456
0.00497249
0.000413833
0.00480682
0.000491338
0.00444715
0.000584035
0.00387897
0.000686068
0.00311231
0.000790779
0.0021746
0.000892624
0.00109903
0.000988474
-8.1616e-05
0.00107724
-0.00132719
0.001158
-0.0025746
0.00122861
-0.00373729
0.00128618
-0.00472931
0.00132849
-0.00549565
0.00135495
-0.00602612
0.00136644
-0.00634816
0.00136449
-0.00651242
0.00135103
-0.00657502
0.00132801
-0.00658096
0.00129504
-0.00656121
0.00124837
-0.00658179
0.00118644
-0.00669183
0.0011168
-0.00686487
0.00105546
-0.00680876
0.00101804
-0.0062771
0.00101095
-0.00489873
0.00103346
-0.00303173
0.00107426
-0.000502715
0.0011295
0.00168193
0.00117908
0.00393177
0.00121674
0.00532042
0.00124512
0.00649627
0.00682013
-0.000330828
0.000411836
-0.000281705
0.000802503
-0.000226783
0.00122653
-0.0001669
0.00167348
-0.000103427
0.00213033
-3.84376e-05
0.00258266
2.55523e-05
0.00301584
8.53757e-05
0.00342135
0.000138625
0.00378944
0.000183967
0.00411863
0.000221645
0.00440798
0.000254157
0.00465259
0.000286244
0.00483908
0.000324228
0.00494151
0.000374414
0.00492231
0.000440941
0.0047403
0.00052414
0.00436395
0.000620495
0.00378262
0.000724067
0.00300874
0.00082837
0.00207029
0.00092822
0.000999181
0.00102099
-0.000174383
0.00110605
-0.00141225
0.00118274
-0.00265129
0.00124905
-0.00380361
0.00130228
-0.00478253
0.00134042
-0.00553379
0.00136309
-0.00604879
0.00137135
-0.00635641
0.00136676
-0.00650783
0.00135119
-0.00655945
0.00132654
-0.00655631
0.00129249
-0.00652716
0.00124522
-0.00653452
0.00118268
-0.0066293
0.00111192
-0.00679411
0.00104897
-0.00674581
0.00101001
-0.00623813
0.0010019
-0.00489062
0.00102401
-0.00305384
0.00106488
-0.000543584
0.00112044
0.00162638
0.0011704
0.00388181
0.00120875
0.00528208
0.00123798
0.00646703
0.00682478
-0.000362964
0.000368008
-0.000312353
0.000751893
-0.000255587
0.00116976
-0.000193639
0.00161153
-0.000127989
0.00206468
-6.07564e-05
0.00251542
4.88066e-06
0.0029502
6.80524e-05
0.00335818
0.000124375
0.00373312
0.000173497
0.00406951
0.000215898
0.00436558
0.000254251
0.00461424
0.000293266
0.00480007
0.000338907
0.00489587
0.000396762
0.00486445
0.000470068
0.00466699
0.000558398
0.00427562
0.000657862
0.00368315
0.000762503
0.0029041
0.000866028
0.00196677
0.000963634
0.000901575
0.00105319
-0.000263941
0.0011345
-0.00149356
0.00120713
-0.00272392
0.00126917
-0.00386565
0.00131807
-0.00483144
0.00135207
-0.00556779
0.00137101
-0.00606773
0.00137609
-0.00636149
0.00136894
-0.00650068
0.00135132
-0.00654184
0.0013251
-0.00653009
0.00129005
-0.0064921
0.00124227
-0.00648675
0.00117923
-0.00656626
0.00110747
-0.00672235
0.00104297
-0.00668131
0.00100247
-0.00619763
0.00099331
-0.00488146
0.001015
-0.00307553
0.00105591
-0.000584495
0.00111176
0.00157053
0.00116206
0.00383151
0.00120109
0.00524305
0.00123116
0.00643696
0.00682909
-0.000391569
0.000323523
-0.000339824
0.000700148
-0.000281543
0.00111148
-0.000217818
0.00154781
-0.000150223
0.00199709
-8.08704e-05
0.00244607
-1.24192e-05
0.00288175
5.28475e-05
0.00329291
0.000112319
0.00367365
0.000165397
0.00401643
0.000212732
0.00431825
0.000257103
0.00456987
0.000303106
0.00475407
0.000356267
0.0048427
0.000421439
0.00479928
0.000501007
0.00458742
0.000593893
0.00418274
0.000695932
0.00358111
0.000801188
0.00279884
0.000903591
0.00186437
0.000998735
0.000806431
0.00108499
-0.000350193
0.00116254
-0.00157111
0.00123112
-0.0027925
0.00128892
-0.00392345
0.00133353
-0.00487605
0.00136343
-0.00559769
0.00137868
-0.00608298
0.00138065
-0.00636345
0.00137101
-0.00649104
0.00135143
-0.00652226
0.00132371
-0.00650237
0.00128771
-0.0064561
0.00123951
-0.00643854
0.00117609
-0.00650284
0.00110345
-0.0066497
0.00103746
-0.00661533
0.000995423
-0.00615559
0.000985185
-0.00487123
0.00100642
-0.00309677
0.00104734
-0.000625415
0.00110344
0.00151443
0.00115407
0.00378088
0.00119376
0.00520337
0.00122464
0.00640608
0.00683307
-0.000416385
0.000278741
-0.000363876
0.000647639
-0.000304428
0.00105203
-0.000239229
0.00148261
-0.000169925
0.00192779
-9.86343e-05
0.00237478
-2.78873e-05
0.00281101
3.98948e-05
0.00322513
0.000102648
0.00361089
0.00015983
0.00395925
0.000212265
0.00426581
0.000262763
0.00451937
0.000315726
0.0047011
0.00037619
0.00478224
0.000448262
0.00472721
0.000533545
0.00450214
0.000630413
0.00408587
0.000734501
0.00347702
0.000839941
0.0026934
0.000940904
0.0017634
0.0010334
0.000713934
0.00111629
-0.000433078
0.00119009
-0.00164491
0.00125466
-0.00285707
0.00130825
-0.00397705
0.00134861
-0.00491641
0.00137447
-0.00562354
0.0013861
-0.00609462
0.00138503
-0.00636238
0.00137297
-0.00647898
0.00135152
-0.00650081
0.00132237
-0.00647322
0.00128548
-0.00641922
0.00123693
-0.00638999
0.00117326
-0.00643917
0.00109985
-0.00657629
0.00103245
-0.00654793
0.000988877
-0.00611202
0.000977526
-0.00485987
0.000998282
-0.00311753
0.00103918
-0.000666313
0.0010955
0.00145811
0.00114643
0.00372995
0.00118677
0.00516303
0.00121844
0.0063744
0.00683672
-0.000437146
-0.000384255
0.000594747
-0.000324001
0.000991778
-0.000257644
0.00141625
-0.000186881
0.00185702
-0.000113837
0.00230174
-4.09335e-05
0.0027381
2.93864e-05
0.00315481
9.55427e-05
0.00354474
0.000156946
0.00389785
0.00021459
0.00420817
0.000271249
0.00446271
0.000331064
0.00464129
0.000398533
0.00471477
0.000477036
0.00464871
0.000567467
0.00441171
0.000667744
0.00398559
0.000773373
0.0033714
0.000878586
0.00258819
0.000977821
0.00166417
0.00106752
0.000624237
0.001147
-0.000512561
0.00121709
-0.001715
0.00127771
-0.00291769
0.00132715
-0.00402648
0.00136331
-0.00495257
0.00138517
-0.00564541
0.00139326
-0.00610271
0.00138922
-0.00635834
0.00137482
-0.00646459
0.00135157
-0.00647755
0.00132106
-0.00644271
0.00128335
-0.00638151
0.00123454
-0.00634118
0.00117073
-0.00637535
0.00109667
-0.00650224
0.00102793
-0.00647919
0.000982833
-0.00606692
0.000970333
-0.00484738
0.000990572
-0.00313777
0.00103141
-0.000707154
0.00108792
0.0014016
0.00113914
0.00367873
0.00118011
0.00512206
0.00121256
0.00634196
0.00684006
-0.000400696
0.000541851
-0.000340003
0.000931085
-0.000272813
0.00134906
-0.000200851
0.00178506
-0.000126234
0.00222712
-5.12846e-05
0.00266315
2.15258e-05
0.003082
9.11758e-05
0.00347509
0.000156875
0.00383215
0.000219775
0.00414527
0.000282551
0.00439993
0.000349025
0.00457481
0.000423136
0.00464066
0.00050756
0.00456428
0.000602557
0.00431671
0.000705678
0.00388247
0.000812358
0.00326472
0.000916958
0.00248359
0.00101421
0.00156692
0.00110098
0.000537461
0.00117706
-0.000588639
0.00124349
-0.00178143
0.00130023
-0.00297443
0.00134557
-0.00407182
0.00137758
-0.00498458
0.00139552
-0.00566335
0.00140013
-0.00610732
0.0013932
-0.00635141
0.00137656
-0.00644794
0.00135159
-0.00645258
0.00131979
-0.00641091
0.00128132
-0.00634305
0.00123233
-0.00629219
0.00116848
-0.00631151
0.00109391
-0.00642766
0.0010239
-0.00640918
0.00097729
-0.00602031
0.000963607
-0.00483369
0.000983292
-0.00315745
0.00102404
-0.000747902
0.00108071
0.00134493
0.00113219
0.00362725
0.00117379
0.00508046
0.00120699
0.00630876
0.0068431
-0.000412941
0.000489316
-0.000352174
0.000870319
-0.000284478
0.00128136
-0.000211585
0.00171217
-0.000135584
0.00215112
-5.87091e-05
0.00258628
1.6534e-05
0.00300675
8.97101e-05
0.00340191
0.000159723
0.00376213
0.000227856
0.00407713
0.000296627
0.00433116
0.000369495
0.00450195
0.000449822
0.00456033
0.000539622
0.00447448
0.000638598
0.00421773
0.000744012
0.00377706
0.000851274
0.00315745
0.000954901
0.00237997
0.00104994
0.00147189
0.0011337
0.000453694
0.0012064
-0.000661334
0.00126925
-0.00184428
0.00132218
-0.00302736
0.00136348
-0.00411312
0.00139141
-0.00501251
0.00140549
-0.00567743
0.00140671
-0.00610854
0.00139698
-0.00634168
0.00137817
-0.00642912
0.00135157
-0.00642598
0.00131856
-0.0063779
0.00127938
-0.00630387
0.00123028
-0.00624308
0.00116652
-0.00624775
0.00109155
-0.00635269
0.00102036
-0.006338
0.00097225
-0.0059722
0.000957345
-0.00481879
0.000976437
-0.00317655
0.00101706
-0.000788522
0.00107386
0.00128813
0.00112559
0.00357552
0.00116781
0.00503824
0.00120175
0.00627481
0.00684585
-0.000420741
0.000437488
-0.000360256
0.000809833
-0.000292383
0.00121349
-0.000218832
0.00163862
-0.00014165
0.00207394
-6.29861e-05
0.00250761
1.46609e-05
0.00292911
9.12875e-05
0.00332528
0.00016557
0.00368785
0.00023884
0.00400386
0.000313408
0.00425659
0.000392331
0.00442302
0.000478401
0.00447426
0.00057301
0.00437987
0.000675382
0.00411536
0.000782554
0.00366988
0.000889951
0.00305006
0.000992274
0.00227764
0.0010849
0.00137926
0.0011656
0.000372995
0.00123495
-0.000730693
0.00129431
-0.00190364
0.00134352
-0.00307656
0.00138085
-0.00415046
0.00140476
-0.00503642
0.00141507
-0.00568774
0.00141299
-0.00610646
0.00140055
-0.00632924
0.00137964
-0.00640822
0.0013515
-0.00639784
0.00131736
-0.00634376
0.00127754
-0.00626405
0.00122838
-0.00619393
0.00116482
-0.00618419
0.00108959
-0.00627746
0.00101731
-0.00626572
0.000967709
-0.00592259
0.000951545
-0.00480262
0.000970002
-0.003195
0.00101045
-0.000828974
0.00106736
0.00123123
0.00111933
0.00352354
0.00116216
0.00499542
0.00119683
0.00624015
0.00684831
-0.000423882
0.000386674
-0.000364013
0.000749964
-0.000296283
0.00114576
-0.000222355
0.00156469
-0.00014421
0.00199579
-6.392e-05
0.00242732
1.61267e-05
0.00284906
9.60201e-05
0.00324539
0.000174464
0.00360941
0.000252702
0.00392563
0.000332795
0.0041765
0.000417376
0.00433844
0.000508673
0.00438297
0.000607512
0.00428104
0.000712702
0.00401017
0.000821116
0.00356147
0.00092823
0.00294294
0.00102894
0.00217693
0.00111899
0.00128922
0.00119659
0.000295395
0.00126268
-0.000796783
0.00131865
-0.00195961
0.00136421
-0.00312213
0.00139766
-0.0041839
0.00141762
-0.00505639
0.00142424
-0.00569435
0.00141894
-0.00610116
0.00140388
-0.00631417
0.00138098
-0.00638532
0.00135138
-0.00636824
0.00131618
-0.00630856
0.00127577
-0.00622364
0.00122664
-0.0061448
0.00116339
-0.00612093
0.00108802
-0.00620209
0.00101474
-0.00619244
0.000963667
-0.00587152
0.000946205
-0.00478516
0.000963982
-0.00321278
0.00100423
-0.000869221
0.00106121
0.00117425
0.00111342
0.00347133
0.00115684
0.00495199
0.00119222
0.00620477
0.00685049
-0.000422194
0.000337138
-0.000363246
0.000691016
-0.000295965
0.00107848
-0.000221942
0.00149067
-0.000143068
0.00191692
-6.13537e-05
0.00234561
2.10418e-05
0.00276667
0.000103983
0.00316245
0.000186417
0.00352697
0.000269382
0.00384266
0.000354664
0.00409122
0.000444452
0.00424865
0.000540433
0.00428698
0.000642916
0.00417855
0.000750362
0.00390273
0.000859527
0.00345231
0.000965963
0.00283651
0.0010648
0.00207809
0.00115213
0.00120189
0.00122663
0.000220896
0.00128954
-0.000859691
0.00134222
-0.00201229
0.00138423
-0.00316415
0.00141386
-0.00421353
0.00142997
-0.00507249
0.00143298
-0.00569737
0.00142457
-0.00609275
0.00140698
-0.00629659
0.00138218
-0.00636052
0.00135121
-0.00633727
0.00131503
-0.00627238
0.00127408
-0.0061827
0.00122504
-0.00609575
0.00116219
-0.00605809
0.00108682
-0.00612672
0.00101264
-0.00611826
0.00096012
-0.005819
0.000941322
-0.00476636
0.000958372
-0.00322983
0.000998372
-0.000909221
0.0010554
0.00111722
0.00110783
0.0034189
0.00115186
0.00490797
0.00118794
0.00616869
0.0068524
-0.000415576
0.00028909
-0.000357808
0.000633249
-0.00029126
0.00101193
-0.000217419
0.00141683
-0.000138065
0.00183756
-5.5179e-05
0.00226272
2.94399e-05
0.00268205
0.00011521
0.00307668
0.000201402
0.00344078
0.000288792
0.00375527
0.000378866
0.00400115
0.000473368
0.00415415
0.00057347
0.00418688
0.000679015
0.00407301
0.000788172
0.00379357
0.000897621
0.00334286
0.00100302
0.00273111
0.00109972
0.00198139
0.00118424
0.00111738
0.00125565
0.000149477
0.00131549
-0.000919521
0.001365
-0.0020618
0.00140356
-0.00320271
0.00142945
-0.00423942
0.00144177
-0.00508481
0.00144127
-0.00569687
0.00142985
-0.00608133
0.00140984
-0.00627657
0.00138322
-0.00633389
0.00135097
-0.00630503
0.00131389
-0.0062353
0.00127247
-0.00614127
0.00122356
-0.00604685
0.00116123
-0.00599576
0.00108599
-0.00605148
0.00101101
-0.00604328
0.000957063
-0.00576505
0.000936891
-0.00474619
0.000953164
-0.0032461
0.000992876
-0.000948933
0.00104993
0.00106017
0.00110259
0.00336624
0.0011472
0.00486336
0.00118397
0.00613191
0.00685403
-0.000404005
0.000242581
-0.000347619
0.000576863
-0.000282055
0.000946366
-0.000208665
0.00134344
-0.000129095
0.00175799
-4.53561e-05
0.00217899
4.13293e-05
0.00259536
0.000129694
0.00298831
0.000219355
0.00335112
0.00031081
0.00366382
0.000405233
0.00390672
0.000503925
0.00405546
0.000607573
0.00408323
0.000715606
0.00396497
0.000825952
0.00368322
0.000935247
0.00323356
0.00103927
0.00262709
0.00113364
0.00188702
0.00121525
0.00103576
0.00128364
8.10903e-05
0.00134051
-0.000976388
0.00138696
-0.00210825
0.00142215
-0.00323791
0.00144438
-0.00426165
0.00145301
-0.00509344
0.00144911
-0.00569296
0.00143478
-0.006067
0.00141244
-0.00625424
0.0013841
-0.00630555
0.00135066
-0.00627159
0.00131276
-0.0061974
0.00127092
-0.00609943
0.00122221
-0.00599814
0.00116048
-0.00593403
0.0010855
-0.0059765
0.00100983
-0.0059676
0.000954492
-0.00570972
0.000932908
-0.00472461
0.000948353
-0.00326155
0.000987734
-0.000988314
0.00104479
0.00100312
0.00109767
0.00331336
0.00114286
0.00481816
0.00118033
0.00609444
0.00685538
-0.000387547
0.000197643
-0.000332681
0.000521997
-0.000268311
0.000881996
-0.000195619
0.00127075
-0.000116107
0.00167848
-3.19723e-05
0.00209485
5.66864e-05
0.0025067
0.000147388
0.00289761
0.000240177
0.00325833
0.000335288
0.0035687
0.000433576
0.00380844
0.000535911
0.00395312
0.00064253
0.00397662
0.000752494
0.00385501
0.000863532
0.00357219
0.000972265
0.00312483
0.0010746
0.00252475
0.00116645
0.00179517
0.0012451
0.000957114
0.00131058
1.56086e-05
0.00136457
-0.00103038
0.00140809
-0.00215176
0.00144
-0.00326982
0.00145865
-0.00428029
0.00146367
-0.00509847
0.00145646
-0.00568575
0.00143934
-0.00604988
0.00141479
-0.00622969
0.00138481
-0.00627558
0.00135027
-0.00623705
0.00131163
-0.00615875
0.00126942
-0.00605722
0.00122096
-0.00594968
0.00115993
-0.00587301
0.00108535
-0.00590191
0.00100909
-0.00589134
0.000952399
-0.00565303
0.000929369
-0.00470158
0.000943932
-0.00327611
0.000982937
-0.00102732
0.00103997
0.000946089
0.00109307
0.00326026
0.00113884
0.00477239
0.001177
0.00605628
0.00685644
-0.000366353
0.000154281
-0.000313083
0.000468727
-0.00025007
0.000818982
-0.000178291
0.00119897
-9.91215e-05
0.00159931
-1.54831e-05
0.00201121
7.54548e-05
0.00241576
0.000168202
0.00280487
0.000263731
0.0031628
0.00036205
0.00347038
0.000463691
0.00370679
0.000569112
0.0038477
0.000678132
0.0038676
0.00078949
0.00374365
0.000900751
0.00346092
0.00100854
0.00301703
0.00110893
0.00242436
0.00119811
0.001706
0.00127379
0.000881432
0.00133639
-4.69943e-05
0.00138768
-0.00108167
0.00142836
-0.00219244
0.00145707
-0.00329854
0.00147221
-0.00429543
0.00147373
-0.00509998
0.00146332
-0.00567535
0.00144352
-0.00603008
0.00141686
-0.00620303
0.00138535
-0.00624407
0.0013498
-0.00620149
0.0013105
-0.00611945
0.00126798
-0.0060147
0.0012198
-0.0059015
0.00115957
-0.00581277
0.0010855
-0.00582785
0.00100878
-0.00581462
0.000950779
-0.00559503
0.000926268
-0.00467706
0.000939894
-0.00328974
0.000978478
-0.0010659
0.00103547
0.000889101
0.00108879
0.00320693
0.00113514
0.00472604
0.00117398
0.00601744
0.00685721
-0.000340674
0.000112448
-0.000289012
0.000417066
-0.000227463
0.000757433
-0.000156781
0.00112828
-7.82062e-05
0.00152074
6.16425e-06
0.00192684
9.75862e-05
0.00232434
0.000192004
0.00271045
0.00028985
0.00306496
0.0003909
0.00336934
0.000495364
0.00360233
0.000603308
0.00373976
0.000714172
0.00375673
0.000826411
0.00363141
0.000937458
0.00334988
0.00104397
0.00291053
0.00114216
0.00232617
0.00122854
0.00161962
0.00130127
0.000808706
0.0013611
-0.000106824
0.00140981
-0.00113038
0.00144776
-0.00223039
0.00147335
-0.00332413
0.00148507
-0.00430714
0.00148317
-0.00509808
0.00146968
-0.00566185
0.00144731
-0.00600771
0.00141866
-0.00617438
0.00138571
-0.00621112
0.00134923
-0.00616501
0.00130935
-0.00607957
0.00126657
-0.00597193
0.00121873
-0.00585366
0.00115936
-0.0057534
0.00108596
-0.00575444
0.00100889
-0.00573755
0.000949622
-0.00553577
0.000923601
-0.00465104
0.000936233
-0.00330237
0.000974347
-0.00110402
0.00103127
0.000832178
0.00108482
0.00315339
0.00113174
0.00467912
0.00117127
0.00597792
0.00685769
-0.000310851
-0.000260749
0.000366964
-0.000200715
0.0006974
-0.000131281
0.00105885
-5.36499e-05
0.0014431
3.17856e-05
0.00184141
0.000122925
0.0022332
0.000218625
0.00261475
0.000318333
0.00296525
0.000421617
0.00326605
0.000528365
0.00349558
0.000638278
0.00362985
0.000750449
0.00364456
0.000863085
0.00351878
0.000973513
0.00323945
0.00107843
0.00280561
0.00117422
0.00223037
0.00125772
0.00153612
0.00132752
0.000738907
0.0013847
-0.000164005
0.00143096
-0.00117665
0.00146628
-0.00226571
0.00148882
-0.00334666
0.00149718
-0.0043155
0.00149197
-0.00509287
0.00147551
-0.0056454
0.0014507
-0.0059829
0.00142017
-0.00614384
0.00138588
-0.00617684
0.00134856
-0.00612768
0.00130818
-0.00603919
0.00126521
-0.00592896
0.00121774
-0.00580619
0.00115931
-0.00569497
0.00108669
-0.00568182
0.00100939
-0.00566026
0.000948921
-0.00547529
0.000921362
-0.00462348
0.000932941
-0.00331395
0.000970538
-0.00114161
0.00102738
0.000775338
0.00108116
0.0030996
0.00112865
0.00463162
0.00116887
0.0059377
0.00685784
-0.000228658
0.000318327
-0.000170137
0.000638878
-0.000102083
0.000990797
-2.61828e-05
0.0013672
5.99945e-05
0.00175523
0.000151231
0.00214197
0.000247836
0.00251814
0.000348949
0.00286414
0.000453964
0.00316104
0.000562462
0.00338708
0.0006738
0.00351851
0.000786765
0.00353159
0.000899344
0.0034062
0.00100878
0.00313001
0.00111182
0.00270257
0.00120504
0.00213715
0.0012856
0.00145556
0.00135253
0.000671974
0.0014072
-0.00021867
0.00145114
-0.00122059
0.00148391
-0.00229848
0.00150345
-0.0033662
0.00150853
-0.00432059
0.00150011
-0.00508445
0.00148081
-0.0056261
0.00145369
-0.00595577
0.00142138
-0.00611154
0.00138585
-0.00614131
0.00134777
-0.00608961
0.00130698
-0.0059984
0.00126387
-0.00588584
0.0012168
-0.00575913
0.00115938
-0.00563755
0.00108767
-0.00561011
0.00101029
-0.00558287
0.000948665
-0.00541367
0.000919545
-0.00459436
0.000930014
-0.00332442
0.000967042
-0.00117864
0.00102378
0.000718604
0.0010778
0.00304558
0.00112586
0.00458356
0.00116677
0.00589679
0.00685768
-0.000193185
0.000271047
-0.00013613
0.000581823
-6.95814e-05
0.000924248
5.56019e-06
0.00129206
9.11062e-05
0.00166968
0.000182255
0.00205082
0.000279371
0.00242103
0.000381441
0.00276207
0.000487689
0.00305479
0.00059741
0.00327736
0.000709654
0.00340626
0.000822927
0.00341832
0.000935029
0.0032941
0.00104314
0.0030219
0.00114406
0.00260165
0.00123456
0.00204665
0.00131215
0.00137797
0.0013763
0.000607821
0.0014286
-0.000270962
0.00147034
-0.00126234
0.00150064
-0.00232878
0.00151723
-0.0033828
0.00151911
-0.00432247
0.00150759
-0.00507293
0.00148557
-0.00560408
0.00145625
-0.00592646
0.0014223
-0.00607758
0.00138562
-0.00610464
0.00134687
-0.00605086
0.00130574
-0.00595727
0.00126254
-0.00584264
0.00121591
-0.00571249
0.00115957
-0.00558121
0.00108889
-0.00553944
0.00101155
-0.00550553
0.000948843
-0.00535096
0.000918145
-0.00456367
0.000927444
-0.00333372
0.000963852
-0.00121505
0.00102046
0.000661996
0.00107472
0.00299132
0.00112336
0.00453492
0.00116497
0.00585517
0.00685716
-0.000154828
0.000224913
-9.91755e-05
0.000526171
-3.4578e-05
0.000859651
4.12203e-05
0.00121626
0.000124911
0.00158599
0.000215694
0.00196003
0.000312937
0.00232378
0.000415528
0.00265947
0.000522525
0.00294779
0.000632966
0.00316692
0.00074562
0.00329361
0.000858748
0.00330519
0.000969987
0.00318286
0.00107647
0.00291542
0.00117506
0.00250306
0.00126274
0.00195897
0.00133737
0.00130334
0.00139885
0.000546341
0.00144892
-0.000321031
0.00148857
-0.001302
0.00151645
-0.00235665
0.00153014
-0.0033965
0.00152889
-0.00432122
0.00151438
-0.00505841
0.00148978
-0.00557947
0.00145839
-0.00589507
0.0014229
-0.00604209
0.00138518
-0.00606691
0.00134584
-0.00601152
0.00130446
-0.00591588
0.00126123
-0.00579941
0.00121506
-0.00566633
0.00115984
-0.00552599
0.00109033
-0.00546992
0.00101316
-0.00542836
0.000949445
-0.00528725
0.000917155
-0.00453138
0.000925227
-0.00334179
0.00096096
-0.00125078
0.00101742
0.000605535
0.00107194
0.0029368
0.00112114
0.00448572
0.00116347
0.00581285
0.00685628
-0.000114097
0.000179665
-5.98898e-05
0.000471964
3.36699e-06
0.000796394
7.84603e-05
0.00114117
0.000161007
0.00150345
0.000251193
0.00186985
0.000348208
0.00222677
0.000450908
0.00255677
0.000558194
0.00284051
0.000668877
0.00305624
0.000781479
0.00318101
0.000894044
0.00319263
0.00100407
0.00307283
0.00110866
0.00281084
0.00120475
0.00240697
0.00128953
0.00187419
0.00136125
0.00123163
0.00142018
0.000487405
0.00146818
-0.000369027
0.00150584
-0.00133966
0.00153133
-0.00238213
0.00154216
-0.00340733
0.00153786
-0.00431692
0.00152048
-0.00504103
0.00149342
-0.00555241
0.0014601
-0.00586176
0.00142319
-0.00600518
0.00138452
-0.00602824
0.00134468
-0.00597169
0.00130312
-0.00587432
0.00125992
-0.00575621
0.00121424
-0.00562065
0.0011602
-0.00547195
0.00109195
-0.00540167
0.0010151
-0.00535151
0.000950458
-0.00522261
0.000916569
-0.00449749
0.000923358
-0.00334858
0.000958362
-0.00128579
0.00101465
0.000549245
0.00106943
0.00288202
0.00111921
0.00443594
0.00116226
0.00576979
0.00685502
-7.15495e-05
0.000135555
-1.98196e-05
0.000420234
4.4997e-05
0.000731577
0.000117654
0.00106851
0.000199003
0.0014221
0.00028836
0.00178049
0.000384836
0.00213029
0.000487263
0.00245435
0.000594411
0.00273336
0.000704893
0.00294576
0.000817017
0.00306888
0.000928641
0.003081
0.00103715
0.00296432
0.00113961
0.00270838
0.00123307
0.00231351
0.00131492
0.00179234
0.00138379
0.00116276
0.00144034
0.000430855
0.00148641
-0.000415096
0.00152215
-0.00137541
0.00154528
-0.00240526
0.00155328
-0.00341533
0.00154601
-0.00430965
0.00152587
-0.00502089
0.00149649
-0.00552303
0.00146137
-0.00582664
0.00142316
-0.00596697
0.00138363
-0.00598871
0.00134337
-0.00593143
0.00130171
-0.00583266
0.0012586
-0.0057131
0.00121343
-0.00557548
0.0011606
-0.00541912
0.00109374
-0.00533482
0.00101735
-0.00527511
0.000951869
-0.00515713
0.00091638
-0.004462
0.000921832
-0.00335403
0.000956049
-0.00132
0.00101215
0.000493149
0.00106719
0.00282697
0.00111754
0.0043856
0.00116133
0.005726
0.00685333
-2.80607e-05
9.31951e-05
2.50663e-05
0.000367107
8.71791e-05
0.000669465
0.000158343
0.000997349
0.000238459
0.00134198
0.000326785
0.00169216
0.000422451
0.00203463
0.000524262
0.00235253
0.000630883
0.00262674
0.000740762
0.00283588
0.000852023
0.00295762
0.000962366
0.00297066
0.00106908
0.0028576
0.00116923
0.00260822
0.00125995
0.00222279
0.00133888
0.00171342
0.00140501
0.00109662
0.00145934
0.000376524
0.00150363
-0.000459381
0.00153751
-0.00140929
0.00155827
-0.00242602
0.00156347
-0.00342052
0.00155331
-0.00429949
0.00153054
-0.00499813
0.00149898
-0.00549147
0.00146219
-0.00578985
0.0014228
-0.00592758
0.00138252
-0.00594843
0.00134191
-0.00589082
0.00130022
-0.00579096
0.00125726
-0.00567014
0.00121263
-0.00553085
0.00116105
-0.00536754
0.00109568
-0.00526945
0.00101989
-0.00519932
0.000953665
-0.0050909
0.000916581
-0.00442492
0.000920644
-0.00335809
0.000954018
-0.00135338
0.00100989
0.000437273
0.00106522
0.00277165
0.00111614
0.00433468
0.00116068
0.00568145
0.00685121
1.82903e-05
6.99365e-05
0.000315461
0.000130366
0.000609035
0.000200128
0.000927588
0.000278922
0.00126319
0.000366058
0.00160503
0.000460677
0.00194001
0.000561571
0.00225164
0.000667319
0.00252099
0.000776235
0.00272696
0.000886291
0.00284757
0.000995058
0.00286189
0.00109975
0.00275291
0.00119744
0.00251053
0.00128537
0.00213487
0.00136141
0.00163737
0.00142496
0.00103308
0.00147724
0.000324241
0.00151987
-0.000502012
0.00155192
-0.00144134
0.00157031
-0.00244441
0.00157271
-0.00342293
0.00155975
-0.00428653
0.00153449
-0.00497286
0.00150089
-0.00545787
0.00146257
-0.00575153
0.00142211
-0.00588712
0.00138117
-0.00590749
0.0013403
-0.00584995
0.00129865
-0.00574932
0.0012559
-0.00562739
0.00121183
-0.00548678
0.00116152
-0.00531723
0.00109774
-0.00520567
0.0010227
-0.00512428
0.00095583
-0.00502403
0.000917165
-0.00438625
0.00091979
-0.00336072
0.000952264
-0.00138585
0.00100789
0.000381644
0.0010635
0.00271604
0.00111499
0.00428319
0.00116031
0.00563613
0.0068486
0.000115402
0.000265816
0.000174292
0.000550144
0.000242598
0.000859282
0.000319974
0.00118581
0.000405777
0.00151922
0.000499144
0.00184664
0.000598858