/*--------------------------------*- C++ -*----------------------------------*\
  =========                 |
  \\      /  F ield         | OpenFOAM: The Open Source CFD Toolbox
   \\    /   O peration     | Website:  https://openfoam.org
    \\  /    A nd           | Version:  7
     \\/     M anipulation  |
\*---------------------------------------------------------------------------*/
FoamFile
{
    version     2.0;
    format      ascii;
    class       volScalarField;
    location    "15";
    object      p;
}
// * * * * * * * * * * * * * * * * * * * * * * * * * * * * * * * * * * * * * //

dimensions      [0 2 -2 0 0 0 0];

internalField   nonuniform List<scalar> 
21350
(
-0.353497
-0.356549
-0.354943
-0.359745
-0.357973
-0.356204
-0.363087
-0.361139
-0.35923
-0.357063
-0.366576
-0.364443
-0.362389
-0.36008
-0.357536
-0.370216
-0.367888
-0.365684
-0.363229
-0.36054
-0.357704
-0.374005
-0.371475
-0.369115
-0.366511
-0.363675
-0.360696
-0.357623
-0.377946
-0.375204
-0.372684
-0.369926
-0.36694
-0.363818
-0.360604
-0.357333
-0.354025
-0.382036
-0.379075
-0.376391
-0.373477
-0.370338
-0.367069
-0.363712
-0.360297
-0.35684
-0.353339
-0.386276
-0.383087
-0.380234
-0.377162
-0.373868
-0.37045
-0.366946
-0.363382
-0.359768
-0.356095
-0.352339
-0.390661
-0.387238
-0.384214
-0.38098
-0.37753
-0.373959
-0.370305
-0.366586
-0.362805
-0.358947
-0.354979
-0.350859
-0.346535
-0.395189
-0.391526
-0.388327
-0.38493
-0.381321
-0.377596
-0.373787
-0.369905
-0.365946
-0.361888
-0.35769
-0.353304
-0.348676
-0.34376
-0.33852
-0.399856
-0.395946
-0.39257
-0.38901
-0.38524
-0.381357
-0.377387
-0.373334
-0.369185
-0.364909
-0.36046
-0.355783
-0.350826
-0.345544
-0.339907
-0.333909
-0.404655
-0.400493
-0.39694
-0.393213
-0.389281
-0.385238
-0.381101
-0.376867
-0.372513
-0.368001
-0.363277
-0.358284
-0.35297
-0.347294
-0.341238
-0.334806
-0.328028
-0.320953
-0.40958
-0.405162
-0.401429
-0.397537
-0.393441
-0.389233
-0.384923
-0.380496
-0.375921
-0.371152
-0.366128
-0.360792
-0.355092
-0.348997
-0.342498
-0.335615
-0.32839
-0.320887
-0.313182
-0.305354
-0.414622
-0.409945
-0.406032
-0.401974
-0.397712
-0.393336
-0.388843
-0.384211
-0.379398
-0.374348
-0.368999
-0.36329
-0.357177
-0.350636
-0.343674
-0.336323
-0.328643
-0.320708
-0.312604
-0.304417
-0.296227
-0.288102
-0.419771
-0.414833
-0.41074
-0.406516
-0.402087
-0.397537
-0.392853
-0.388001
-0.382929
-0.377575
-0.371872
-0.365762
-0.359207
-0.352196
-0.344751
-0.33692
-0.328776
-0.320408
-0.311908
-0.303367
-0.294865
-0.28647
-0.278242
-0.270165
-0.425016
-0.419816
-0.415544
-0.411153
-0.406555
-0.401826
-0.39694
-0.391852
-0.386501
-0.380816
-0.37473
-0.368189
-0.361165
-0.353662
-0.345716
-0.337393
-0.328782
-0.31998
-0.311088
-0.302199
-0.293392
-0.284732
-0.276275
-0.268009
-0.260257
-0.430345
-0.424883
-0.420433
-0.415877
-0.411107
-0.406191
-0.401091
-0.39575
-0.390096
-0.384053
-0.377555
-0.370554
-0.363034
-0.355017
-0.346555
-0.337732
-0.32865
-0.319417
-0.310138
-0.300907
-0.291803
-0.282886
-0.274206
-0.265754
-0.25782
-0.435743
-0.43002
-0.425394
-0.420672
-0.415728
-0.410618
-0.405292
-0.399677
-0.393695
-0.387266
-0.380325
-0.372836
-0.364796
-0.356245
-0.347255
-0.337927
-0.328374
-0.318713
-0.309053
-0.299488
-0.290094
-0.280927
-0.27203
-0.263396
-0.255285
-0.441195
-0.435212
-0.430413
-0.425527
-0.420405
-0.415093
-0.409525
-0.403616
-0.39728
-0.390435
-0.383022
-0.375016
-0.366433
-0.357331
-0.347803
-0.337965
-0.327943
-0.31786
-0.307827
-0.297937
-0.28826
-0.27885
-0.269742
-0.260931
-0.252646
-0.446683
-0.440444
-0.435475
-0.430425
-0.425121
-0.419597
-0.413771
-0.407546
-0.400828
-0.393537
-0.385622
-0.377073
-0.367926
-0.35826
-0.348187
-0.337838
-0.32735
-0.316852
-0.306454
-0.296247
-0.286297
-0.276651
-0.267338
-0.258356
-0.249901
-0.452187
-0.445697
-0.440562
-0.435348
-0.429858
-0.424112
-0.41801
-0.411445
-0.404317
-0.396551
-0.388105
-0.378989
-0.369259
-0.359017
-0.348393
-0.337535
-0.326587
-0.315682
-0.304928
-0.294413
-0.284198
-0.274324
-0.264813
-0.255665
-0.247045
-0.457688
-0.450953
-0.445655
-0.440279
-0.434598
-0.428617
-0.42222
-0.41529
-0.407724
-0.399452
-0.390448
-0.380742
-0.370413
-0.359586
-0.348411
-0.337047
-0.325647
-0.314343
-0.303244
-0.292431
-0.28196
-0.271865
-0.262163
-0.252854
-0.244075
-0.463164
-0.45619
-0.450734
-0.445195
-0.439317
-0.433088
-0.426377
-0.419056
-0.411022
-0.402216
-0.392628
-0.382312
-0.371372
-0.359955
-0.348229
-0.336365
-0.32452
-0.312828
-0.301395
-0.290294
-0.279576
-0.269269
-0.259383
-0.249919
-0.240985
-0.46859
-0.461386
-0.455777
-0.450075
-0.443993
-0.437503
-0.430456
-0.422717
-0.414188
-0.404819
-0.394623
-0.383679
-0.372118
-0.360108
-0.347834
-0.335478
-0.3232
-0.311132
-0.299375
-0.287997
-0.277041
-0.266531
-0.256468
-0.246855
-0.237772
-0.473943
-0.466518
-0.46076
-0.454895
-0.448603
-0.441835
-0.434431
-0.426247
-0.417193
-0.407236
-0.396411
-0.384825
-0.372635
-0.360033
-0.347217
-0.334379
-0.321679
-0.309247
-0.297178
-0.285534
-0.274351
-0.263645
-0.253414
-0.243659
-0.234433
-0.479194
-0.471559
-0.465659
-0.45963
-0.453119
-0.446058
-0.438273
-0.429619
-0.420013
-0.409442
-0.397969
-0.38573
-0.372908
-0.359716
-0.346368
-0.333058
-0.319949
-0.307167
-0.294798
-0.282899
-0.271499
-0.260607
-0.250216
-0.240326
-0.230963
-0.484318
-0.476484
-0.470446
-0.464253
-0.457514
-0.450144
-0.441955
-0.432804
-0.422619
-0.411412
-0.399276
-0.386375
-0.372921
-0.359146
-0.345275
-0.331507
-0.318003
-0.304884
-0.29223
-0.280088
-0.26848
-0.257411
-0.246869
-0.236851
-0.227359
-0.489285
-0.481265
-0.475095
-0.468736
-0.461759
-0.454063
-0.445447
-0.435773
-0.424986
-0.413124
-0.400311
-0.386744
-0.37266
-0.35831
-0.343929
-0.329717
-0.315834
-0.302393
-0.289466
-0.277093
-0.26529
-0.254053
-0.243369
-0.233232
-0.223617
-0.494066
-0.485873
-0.479577
-0.47305
-0.465826
-0.457785
-0.44872
-0.438497
-0.427086
-0.414551
-0.401053
-0.386818
-0.372111
-0.357197
-0.34232
-0.327682
-0.313435
-0.299687
-0.286501
-0.27391
-0.261922
-0.250529
-0.239711
-0.229463
-0.219734
-0.498629
-0.490279
-0.483863
-0.477165
-0.469683
-0.461279
-0.451742
-0.440949
-0.428892
-0.415672
-0.401482
-0.386582
-0.37126
-0.355796
-0.34044
-0.325392
-0.310799
-0.296759
-0.283329
-0.270533
-0.258372
-0.246832
-0.235892
-0.225541
-0.215706
-0.502945
-0.494451
-0.487921
-0.481051
-0.4733
-0.464515
-0.454484
-0.443099
-0.43038
-0.416463
-0.401579
-0.38602
-0.370094
-0.354097
-0.33828
-0.32284
-0.307918
-0.293604
-0.279944
-0.266956
-0.254634
-0.242959
-0.231907
-0.221462
-0.21153
-0.506981
-0.49836
-0.491721
-0.484675
-0.476644
-0.467462
-0.456916
-0.44492
-0.431524
-0.416903
-0.401327
-0.385117
-0.368603
-0.352089
-0.335831
-0.320019
-0.304787
-0.290215
-0.276341
-0.263175
-0.250705
-0.238906
-0.227752
-0.217223
-0.207204
-0.510705
-0.501973
-0.495231
-0.488006
-0.479684
-0.470087
-0.459008
-0.446382
-0.432299
-0.416972
-0.400708
-0.383858
-0.366773
-0.349764
-0.333085
-0.316922
-0.301398
-0.286586
-0.272514
-0.259184
-0.246578
-0.234668
-0.223423
-0.21282
-0.202724
-0.514083
-0.505258
-0.498418
-0.491012
-0.482388
-0.472359
-0.460729
-0.447461
-0.432681
-0.416648
-0.399705
-0.382232
-0.364595
-0.347112
-0.330034
-0.313541
-0.297747
-0.282712
-0.268458
-0.254979
-0.242251
-0.230242
-0.218918
-0.208251
-0.198087
-0.517085
-0.508183
-0.501252
-0.49366
-0.484723
-0.474247
-0.462051
-0.448129
-0.432649
-0.415914
-0.398304
-0.380225
-0.362059
-0.344125
-0.326673
-0.309872
-0.293826
-0.278587
-0.264168
-0.250555
-0.237719
-0.225623
-0.214233
-0.203512
-0.193291
-0.519677
-0.510717
-0.503699
-0.495918
-0.486658
-0.475722
-0.462947
-0.448362
-0.432182
-0.414752
-0.39649
-0.377827
-0.359154
-0.340796
-0.322993
-0.305906
-0.289631
-0.274207
-0.259639
-0.245907
-0.232978
-0.220808
-0.209364
-0.198601
-0.188335
-0.521828
-0.512827
-0.505728
-0.497755
-0.488162
-0.476754
-0.463388
-0.448136
-0.431259
-0.413146
-0.394251
-0.375026
-0.355874
-0.337117
-0.318988
-0.30164
-0.285156
-0.269566
-0.254867
-0.241033
-0.228025
-0.215795
-0.20431
-0.193515
-0.183216
-0.523506
-0.514483
-0.507308
-0.499139
-0.489205
-0.477313
-0.46335
-0.447429
-0.429861
-0.41108
-0.391574
-0.371814
-0.352209
-0.333081
-0.314653
-0.297068
-0.280396
-0.264661
-0.249849
-0.235929
-0.222856
-0.210581
-0.199067
-0.188253
-0.177932
-0.524681
-0.515654
-0.508408
-0.500041
-0.489757
-0.477374
-0.462808
-0.446221
-0.427972
-0.408542
-0.388448
-0.368181
-0.348153
-0.328682
-0.309983
-0.292184
-0.275348
-0.259487
-0.24458
-0.23059
-0.217468
-0.205162
-0.193635
-0.182812
-0.172482
-0.525323
-0.51631
-0.508999
-0.50043
-0.489791
-0.476909
-0.461739
-0.44449
-0.425576
-0.405518
-0.384864
-0.364119
-0.3437
-0.323916
-0.304972
-0.286986
-0.270007
-0.25404
-0.239057
-0.225015
-0.21186
-0.199537
-0.18801
-0.177192
-0.166866
-0.525404
-0.516422
-0.50905
-0.500279
-0.489279
-0.475895
-0.460121
-0.442221
-0.422658
-0.401997
-0.380813
-0.359623
-0.338844
-0.318777
-0.299616
-0.281468
-0.264371
-0.248319
-0.233278
-0.219201
-0.206029
-0.193705
-0.182191
-0.171391
-0.161081
-0.524896
-0.515964
-0.508536
-0.49956
-0.488196
-0.474308
-0.457936
-0.439396
-0.419206
-0.397969
-0.376287
-0.354686
-0.33358
-0.313261
-0.293913
-0.275628
-0.258435
-0.242319
-0.227241
-0.213146
-0.199974
-0.187663
-0.176178
-0.165408
-0.155128
-0.523772
-0.514908
-0.50743
-0.498248
-0.486518
-0.472128
-0.455164
-0.436002
-0.415208
-0.393427
-0.37128
-0.349303
-0.327904
-0.307366
-0.287859
-0.269463
-0.252198
-0.23604
-0.220943
-0.206848
-0.193692
-0.181411
-0.169969
-0.159243
-0.149006
-0.52201
-0.51323
-0.505707
-0.49632
-0.484223
-0.469334
-0.451791
-0.432025
-0.410655
-0.388362
-0.365788
-0.34347
-0.321813
-0.301088
-0.281451
-0.262972
-0.245658
-0.22948
-0.214383
-0.200308
-0.187184
-0.174948
-0.163564
-0.152896
-0.142719
-0.519585
-0.510907
-0.503344
-0.493753
-0.481292
-0.46591
-0.447801
-0.427454
-0.405539
-0.38277
-0.359805
-0.337184
-0.315305
-0.294425
-0.274689
-0.256152
-0.238814
-0.222637
-0.207562
-0.193522
-0.180449
-0.168273
-0.15696
-0.146365
-0.136266
-0.516477
-0.507918
-0.50032
-0.490527
-0.477705
-0.46184
-0.443182
-0.422281
-0.399854
-0.376646
-0.353329
-0.330444
-0.308378
-0.287377
-0.267571
-0.249004
-0.231665
-0.215511
-0.200477
-0.186493
-0.173486
-0.161386
-0.150159
-0.139649
-0.129625
-0.512668
-0.504243
-0.496617
-0.486625
-0.473447
-0.457111
-0.437926
-0.416499
-0.393594
-0.369987
-0.346359
-0.323249
-0.301033
-0.279943
-0.260097
-0.241526
-0.224212
-0.208103
-0.19313
-0.179221
-0.166298
-0.15429
-0.143164
-0.132747
-0.122764
-0.508139
-0.499864
-0.492216
-0.482029
-0.468505
-0.451712
-0.432022
-0.410101
-0.386757
-0.362791
-0.338894
-0.315598
-0.293269
-0.272124
-0.252267
-0.23372
-0.216455
-0.200413
-0.185522
-0.171706
-0.158885
-0.146985
-0.135979
-0.125667
-0.115716
-0.502877
-0.494768
-0.487102
-0.476727
-0.462865
-0.445633
-0.425465
-0.403084
-0.379341
-0.355059
-0.330934
-0.307492
-0.285087
-0.263921
-0.244084
-0.225588
-0.208395
-0.192443
-0.177655
-0.163951
-0.151248
-0.139475
-0.128602
-0.118397
-0.108604
-0.496869
-0.48894
-0.481264
-0.470707
-0.456519
-0.438869
-0.418251
-0.395447
-0.371346
-0.346791
-0.322481
-0.298935
-0.27649
-0.255335
-0.235548
-0.21713
-0.200035
-0.184195
-0.16953
-0.155957
-0.143391
-0.131762
-0.121036
-0.110957
-0.101336
-0.490105
-0.482369
-0.474691
-0.463959
-0.44946
-0.431413
-0.410377
-0.387189
-0.362773
-0.33799
-0.313539
-0.289927
-0.26748
-0.246371
-0.226664
-0.20835
-0.191377
-0.175671
-0.16115
-0.147727
-0.135317
-0.123846
-0.113284
-0.10335
-0.093904
-0.482576
-0.475048
-0.467374
-0.456477
-0.441683
-0.423264
-0.401844
-0.378312
-0.353626
-0.328659
-0.30411
-0.280475
-0.258062
-0.237031
-0.217434
-0.199251
-0.182424
-0.166876
-0.152518
-0.139265
-0.127027
-0.115733
-0.105349
-0.0955763
-0.0863103
-0.474277
-0.466969
-0.459307
-0.448256
-0.433185
-0.414421
-0.392653
-0.368818
-0.343908
-0.318804
-0.294201
-0.270582
-0.24824
-0.227321
-0.207862
-0.189837
-0.173181
-0.157812
-0.143639
-0.130573
-0.118526
-0.107425
-0.0972355
-0.087637
-0.0785602
-0.465205
-0.45813
-0.450487
-0.439295
-0.423965
-0.404887
-0.382807
-0.358715
-0.333626
-0.308431
-0.283817
-0.260255
-0.238021
-0.217245
-0.197954
-0.180114
-0.163653
-0.148484
-0.134516
-0.121657
-0.109818
-0.0989251
-0.0889458
-0.0795351
-0.0706586
-0.455358
-0.448528
-0.440914
-0.429592
-0.414027
-0.394664
-0.372313
-0.348007
-0.322787
-0.297547
-0.272966
-0.2495
-0.227409
-0.206809
-0.187717
-0.170087
-0.153844
-0.138898
-0.125154
-0.112522
-0.100906
-0.0902391
-0.0804843
-0.0712744
-0.06261
-0.444739
-0.438165
-0.430588
-0.419151
-0.403373
-0.383759
-0.361177
-0.336704
-0.311399
-0.28616
-0.261656
-0.238326
-0.216414
-0.196022
-0.177155
-0.159762
-0.143761
-0.129059
-0.11556
-0.103171
-0.0917979
-0.0813714
-0.0718558
-0.0628591
-0.0544193
-0.433351
-0.427044
-0.419513
-0.407976
-0.392011
-0.372179
-0.349409
-0.324814
-0.299473
-0.274282
-0.249897
-0.226741
-0.205043
-0.18489
-0.166277
-0.149146
-0.13341
-0.118974
-0.10574
-0.0936123
-0.0824974
-0.0723274
-0.0630652
-0.0542944
-0.0460914
-0.4212
-0.41517
-0.407695
-0.396075
-0.379948
-0.359935
-0.33702
-0.312351
-0.28702
-0.261922
-0.237699
-0.214756
-0.193306
-0.173423
-0.155091
-0.138247
-0.122799
-0.10865
-0.095699
-0.0838513
-0.0730113
-0.063113
-0.0541182
-0.0455857
-0.0376315
-0.408295
-0.402551
-0.395142
-0.383456
-0.367196
-0.347039
-0.324021
-0.299325
-0.274053
-0.249093
-0.225073
-0.20238
-0.181212
-0.161629
-0.143606
-0.127074
-0.111937
-0.0980941
-0.0854458
-0.0738952
-0.0633462
-0.0537346
-0.0450209
-0.0367387
-0.0290454
-0.394647
-0.389198
-0.381865
-0.370132
-0.353767
-0.333503
-0.310428
-0.285752
-0.260586
-0.235808
-0.212032
-0.189626
-0.168773
-0.149519
-0.131832
-0.115635
-0.10083
-0.0873151
-0.074988
-0.0637516
-0.0535093
-0.0441992
-0.0357798
-0.0277599
-0.0203389
-0.380268
-0.375123
-0.367876
-0.356116
-0.339675
-0.319343
-0.296256
-0.271647
-0.246633
-0.222081
-0.198589
-0.176506
-0.155999
-0.137103
-0.119778
-0.10394
-0.0894898
-0.0763218
-0.0643341
-0.0534286
-0.0435085
-0.034514
-0.0264021
-0.018656
-0.0115186
-0.365174
-0.36034
-0.353192
-0.341423
-0.324937
-0.304577
-0.281522
-0.257028
-0.232211
-0.207928
-0.184758
-0.163034
-0.142904
-0.124394
-0.107455
-0.0919998
-0.0779249
-0.0651235
-0.053493
-0.0429348
-0.033352
-0.0246871
-0.0168953
-0.00943444
-0.00259125
-0.349382
-0.344867
-0.337827
-0.326071
-0.309572
-0.289223
-0.266245
-0.241911
-0.217335
-0.193364
-0.170555
-0.149222
-0.1295
-0.111403
-0.0948756
-0.0798251
-0.0661459
-0.0537301
-0.0424742
-0.0322793
-0.0230486
-0.0147269
-0.00726739
-0.000102939
0.0064357
-0.332911
-0.328721
-0.321802
-0.310079
-0.293598
-0.273301
-0.250446
-0.226313
-0.202027
-0.178407
-0.155995
-0.135086
-0.115802
-0.0981442
-0.0820513
-0.0674273
-0.0541638
-0.0421519
-0.0312876
-0.0214717
-0.0126075
-0.00464234
0.00247295
0.0093301
0.0155542
-0.315783
-0.311924
-0.305137
-0.293469
-0.277038
-0.256834
-0.234142
-0.210262
-0.186304
-0.163075
-0.141095
-0.120643
-0.101823
-0.0846302
-0.0689952
-0.0548185
-0.04199
-0.0303998
-0.0199436
-0.010522
-0.00203836
0.00555721
0.0123166
0.0188557
0.0247556
-0.29802
-0.294498
-0.287854
-0.276264
-0.259921
-0.239837
-0.217357
-0.193773
-0.170186
-0.147386
-0.125873
-0.105907
-0.0875793
-0.0708755
-0.0557203
-0.0420111
-0.0296362
-0.018485
-0.00845298
0.000559447
0.00864866
0.0158618
0.0222539
0.028464
0.0340298
-0.279648
-0.276466
-0.269978
-0.258492
-0.242281
-0.222324
-0.200114
-0.176871
-0.153695
-0.131361
-0.110347
-0.0908957
-0.0730865
-0.0568948
-0.0422406
-0.0290182
-0.0171148
-0.00641914
0.00317322
0.011762
0.0194431
0.0262611
0.0322747
0.0381448
0.0433659
-0.26069
-0.257857
-0.251536
-0.240173
-0.224088
-0.204374
-0.182443
-0.159578
-0.136852
-0.115019
-0.0945352
-0.0756274
-0.0583609
-0.0427036
-0.0285703
-0.0158533
-0.00443832
0.00578588
0.0149237
0.0230748
0.0303344
0.0367445
0.0423685
0.0478866
0.0527511
-0.241176
-0.238696
-0.232553
-0.221334
-0.205423
-0.185967
-0.164365
-0.141919
-0.11968
-0.0983813
-0.0784582
-0.0601197
-0.0434195
-0.0283174
-0.0147243
-0.00253003
0.00838028
0.0181179
0.0267869
0.0344867
0.0413115
0.0473009
0.0525242
0.0576768
0.0621687
-0.221132
-0.219014
-0.21306
-0.202006
-0.186307
-0.167138
-0.145907
-0.123918
-0.102203
-0.0814704
-0.0621359
-0.0443917
-0.0282797
-0.0137528
-0.000717787
0.0109373
0.0213277
0.0305645
0.0387513
0.0459869
0.0523638
0.0579195
0.0627307
0.0675008
0.071595
-0.200584
-0.198842
-0.193085
-0.182222
-0.166764
-0.147917
-0.127098
-0.105603
-0.0844444
-0.0643083
-0.045589
-0.0284625
-0.0129596
0.000973491
0.0134336
0.0245341
0.0343904
0.0431132
0.0508051
0.0575644
0.0634808
0.0685895
0.0729771
0.0773434
0.0810044
-0.179559
-0.178226
-0.17266
-0.162011
-0.146825
-0.128335
-0.107964
-0.086998
-0.0664289
-0.0469179
-0.0288389
-0.012352
0.00252231
0.0158443
0.0277139
0.0382455
0.0475546
0.0557511
0.0629368
0.0692086
0.0746522
0.0793005
0.0832549
0.087196
0.0903777
-0.158105
-0.157185
-0.151822
-0.141406
-0.126522
-0.108422
-0.0885343
-0.0681314
-0.0481818
-0.0293227
-0.0119074
0.00391937
0.0181472
0.030842
0.0421065
0.0520561
0.0608062
0.0684654
0.0751348
0.0809092
0.0858679
0.0900434
0.0935625
0.0970558
0.0996596
-0.136294
-0.135722
-0.130602
-0.12044
-0.105886
-0.0882098
-0.0688389
-0.0490305
-0.0297289
-0.0115467
0.00518324
0.020331
0.0338956
0.0459485
0.0565947
0.0659505
0.0741306
0.081243
0.0873874
0.092656
0.0971189
0.100815
0.103909
0.106894
0.108652
-0.114123
-0.113899
-0.109035
-0.099148
-0.0849512
-0.0677297
-0.0489074
-0.0297234
-0.0110964
0.0063857
0.0224103
0.0368616
0.0497479
0.0611453
0.0711613
0.0799125
0.0875133
0.0940705
0.099683
0.104439
0.108399
0.111622
0.11431
0.116627
0.117079
-0.0916229
-0.0917587
-0.087157
-0.0775638
-0.0637512
-0.0470141
-0.0287706
-0.0102387
0.00768908
0.0244498
0.0397506
0.0534897
0.0656839
0.0764138
0.0857888
0.0939258
0.100939
0.106934
0.112009
0.116247
0.119705
0.122478
0.124762
0.126177
0.125164
-0.0688351
-0.0693356
-0.065004
-0.0557237
-0.0423205
-0.0260962
-0.00845929
0.00939465
0.0266005
0.0426203
0.0571808
0.0701936
0.0816832
0.0917347
0.100459
0.107974
0.114392
0.119819
0.124352
0.12807
0.131033
0.133373
0.135205
0.135514
0.134695
-0.0457966
-0.0466648
-0.0426118
-0.033663
-0.0206936
-0.00500874
0.0119953
0.0291474
0.0456106
0.0608719
0.0746772
0.0869508
0.097725
0.107089
0.115154
0.122039
0.127856
0.13271
0.136696
0.139893
0.142366
0.144267
0.145637
0.145391
0.14501
-0.0225474
-0.0237848
-0.0200186
-0.0114187
0.00109398
0.0162145
0.0325614
0.0489899
0.0646917
0.0791788
0.0922158
0.103739
0.113788
0.122456
0.129855
0.136104
0.141315
0.145591
0.149028
0.151703
0.153686
0.155133
0.156039
0.15539
0.155058
0.00087287
-0.00073404
0.00273744
0.010972
0.0230065
0.0375395
0.0532071
0.0688923
0.0838161
0.0975152
0.109772
0.120536
0.129852
0.137817
0.144544
0.150152
0.154751
0.158446
0.161331
0.163483
0.164975
0.165962
0.166415
0.165411
0.164952
0.0244245
0.0224485
0.0256178
0.0334716
0.0450081
0.0589323
0.0739005
0.0888249
0.102956
0.115855
0.127323
0.137319
0.145895
0.153151
0.159201
0.164164
0.168149
0.17126
0.17359
0.175216
0.176216
0.176738
0.176745
0.175388
0.174711
0.0480676
0.0457236
0.0485838
0.0560426
0.0670625
0.0803587
0.0946095
0.108757
0.122083
0.134172
0.144842
0.154064
0.161896
0.168439
0.173808
0.178122
0.181491
0.184015
0.185789
0.186889
0.187393
0.187447
0.187008
0.185288
0.184334
0.0717619
0.0690516
0.0715964
0.0786469
0.0891337
0.101784
0.115302
0.12866
0.14117
0.15244
0.162307
0.17075
0.177833
0.18366
0.188346
0.19201
0.194759
0.196696
0.197912
0.198484
0.19849
0.198074
0.197187
0.195092
0.193823
0.0954673
0.0923929
0.0946165
0.101247
0.111185
0.123175
0.135945
0.148502
0.160187
0.170634
0.179692
0.187353
0.193685
0.198793
0.202796
0.205808
0.207938
0.209286
0.209944
0.209987
0.209494
0.208605
0.207267
0.204787
0.203179
0.119143
0.115708
0.117605
0.123804
0.133181
0.144496
0.156508
0.168255
0.179108
0.188726
0.196973
0.20385
0.20943
0.21382
0.217138
0.219498
0.221009
0.22177
0.221869
0.221383
0.220391
0.219026
0.217235
0.214364
0.212398
0.14275
0.138956
0.140523
0.146282
0.155085
0.165714
0.176957
0.187887
0.197905
0.206691
0.214126
0.220219
0.225047
0.22872
0.231354
0.233064
0.233957
0.234131
0.233673
0.232659
0.231167
0.229327
0.227081
0.223814
0.221478
0.166247
0.162098
0.163331
0.168641
0.176861
0.186795
0.197262
0.20737
0.21655
0.224503
0.231126
0.236437
0.240515
0.243472
0.245426
0.246488
0.246765
0.246354
0.245341
0.243801
0.24181
0.239494
0.236793
0.233128
0.230414
0.189594
0.185095
0.185991
0.190845
0.198473
0.207705
0.217391
0.226673
0.235014
0.242137
0.24795
0.252481
0.255813
0.258058
0.259334
0.259752
0.259417
0.258424
0.256859
0.254794
0.252307
0.249517
0.246363
0.2423
0.239201
0.212751
0.207907
0.208464
0.212857
0.219887
0.22841
0.237312
0.245769
0.253272
0.259566
0.264574
0.268329
0.270919
0.272458
0.27306
0.272838
0.271895
0.270325
0.268212
0.265627
0.262645
0.259384
0.255779
0.251321
0.247833
0.23568
0.230495
0.230712
0.234639
0.241067
0.248879
0.256995
0.264627
0.271296
0.276766
0.280974
0.283959
0.285814
0.286651
0.286587
0.285731
0.284186
0.282043
0.279386
0.276285
0.272814
0.269085
0.265033
0.260182
0.256304
0.258341
0.25282
0.252697
0.256156
0.261978
0.269078
0.276409
0.28322
0.28906
0.293712
0.297127
0.29935
0.300477
0.30062
0.299896
0.298413
0.296271
0.293563
0.290368
0.286757
0.282802
0.278609
0.274115
0.268875
0.264606
0.280696
0.274845
0.274383
0.277372
0.282587
0.288974
0.295525
0.30152
0.306536
0.31038
0.31301
0.31448
0.314887
0.314345
0.312969
0.310867
0.308137
0.30487
0.301145
0.29703
0.292596
0.287946
0.283016
0.277392
0.272733
0.302707
0.296533
0.295731
0.298251
0.30286
0.308538
0.314312
0.319498
0.323701
0.326745
0.328601
0.329328
0.329026
0.327808
0.32579
0.323078
0.319768
0.315951
0.311703
0.307091
0.302186
0.297085
0.291725
0.285725
0.280676
0.324336
0.317845
0.316708
0.318758
0.322764
0.327737
0.332741
0.337128
0.340528
0.342783
0.343877
0.343873
0.342873
0.340991
0.338341
0.335029
0.33115
0.326791
0.322029
0.316929
0.31156
0.306016
0.300234
0.293864
0.28843
0.345547
0.338747
0.337276
0.33886
0.342267
0.346542
0.350786
0.354383
0.356992
0.358472
0.358817
0.358095
0.356409
0.353876
0.350606
0.346705
0.342266
0.337377
0.33211
0.326532
0.320708
0.314729
0.308534
0.301801
0.295985
0.366304
0.359202
0.357402
0.358524
0.361337
0.364922
0.368416
0.371238
0.37307
0.373789
0.373399
0.371973
0.369617
0.366444
0.362568
0.35809
0.353104
0.347695
0.341935
0.335887
0.329618
0.323214
0.316615
0.309528
0.303334
0.386572
0.379177
0.377051
0.377717
0.379944
0.382849
0.385606
0.387666
0.388737
0.388712
0.387603
0.385489
0.382477
0.37868
0.374211
0.36917
0.363649
0.357732
0.35149
0.344985
0.338281
0.331461
0.324469
0.317036
0.31047
0.406317
0.398636
0.396191
0.396407
0.398057
0.400295
0.402329
0.403644
0.403971
0.403219
0.401409
0.398624
0.394972
0.390567
0.385519
0.37993
0.373888
0.367476
0.360764
0.353813
0.346686
0.33946
0.332085
0.324316
0.317386
0.425505
0.417548
0.41479
0.414563
0.415648
0.417232
0.41856
0.419147
0.418749
0.417289
0.414797
0.411359
0.407084
0.402088
0.396479
0.390355
0.383807
0.376914
0.369746
0.362362
0.354823
0.347203
0.339457
0.331362
0.324074
0.444105
0.43588
0.432816
0.432156
0.432688
0.433633
0.434273
0.434153
0.43305
0.430902
0.427747
0.423676
0.418798
0.413228
0.407074
0.400433
0.393394
0.386034
0.378423
0.370619
0.362681
0.354681
0.346574
0.338164
0.330527
0.462085
0.453601
0.45024
0.449157
0.449149
0.449473
0.449444
0.448637
0.446851
0.444038
0.440242
0.435558
0.430096
0.423972
0.41729
0.410149
0.402635
0.394825
0.386786
0.378576
0.370252
0.361883
0.353429
0.344714
0.336738
0.479414
0.470682
0.467032
0.465539
0.465006
0.464728
0.464051
0.46258
0.460134
0.456678
0.452264
0.446988
0.440964
0.434304
0.427115
0.419491
0.411519
0.403275
0.394824
0.386222
0.377527
0.368802
0.360014
0.351006
0.3427
0.496065
0.487095
0.483165
0.481273
0.480234
0.479372
0.478071
0.47596
0.472879
0.468804
0.463795
0.457951
0.451385
0.444211
0.436533
0.428447
0.420035
0.411373
0.402525
0.393548
0.384496
0.37543
0.366321
0.357032
0.348407
0.512008
0.50281
0.498611
0.496335
0.494807
0.493385
0.491482
0.488757
0.485066
0.480398
0.474819
0.46843
0.461346
0.45368
0.445534
0.437003
0.42817
0.419109
0.409882
0.400545
0.391151
0.381758
0.372342
0.362784
0.353852
0.527218
0.517803
0.513345
0.5107
0.508702
0.506743
0.504265
0.500951
0.496678
0.491444
0.48532
0.478412
0.470833
0.462696
0.454105
0.44515
0.435915
0.426472
0.416884
0.407203
0.397483
0.387779
0.378071
0.368256
0.35903
0.541669
0.532048
0.527343
0.524344
0.521898
0.519425
0.516399
0.512526
0.507698
0.501925
0.495284
0.487881
0.479832
0.471249
0.462233
0.452876
0.443259
0.433454
0.423521
0.413515
0.403485
0.393485
0.3835
0.373442
0.363934
0.555336
0.545521
0.540581
0.537246
0.534374
0.531414
0.527867
0.523463
0.51811
0.511827
0.504696
0.496825
0.488332
0.479325
0.469908
0.460171
0.450193
0.440045
0.429787
0.419472
0.40915
0.39887
0.388622
0.378334
0.368559
0.568198
0.5582
0.553038
0.549385
0.546109
0.542688
0.538651
0.533746
0.527898
0.521135
0.513542
0.505232
0.496319
0.486915
0.47712
0.467025
0.456707
0.446236
0.435673
0.425068
0.414469
0.403926
0.393432
0.382928
0.372901
0.580232
0.570064
0.564692
0.56074
0.557085
0.553232
0.548734
0.54336
0.537048
0.529835
0.521811
0.513088
0.503784
0.494007
0.483859
0.473428
0.462792
0.45202
0.44117
0.430294
0.419438
0.408649
0.397924
0.387218
0.376953
0.59142
0.581092
0.575526
0.571294
0.567285
0.563029
0.558101
0.552291
0.545547
0.537915
0.529489
0.520384
0.510715
0.500592
0.490116
0.479373
0.468441
0.457388
0.446273
0.435144
0.424049
0.41303
0.402092
0.391199
0.380712
0.601741
0.591267
0.58552
0.58103
0.576692
0.572063
0.566739
0.560524
0.553383
0.545364
0.536567
0.527108
0.517103
0.506661
0.495881
0.484851
0.473647
0.462335
0.450974
0.439612
0.428296
0.417067
0.405931
0.394865
0.384172
0.611179
0.600572
0.594659
0.58993
0.585292
0.580321
0.574633
0.568049
0.560543
0.552171
0.543035
0.533252
0.522939
0.512205
0.501148
0.489855
0.478401
0.466853
0.455267
0.443693
0.432174
0.420752
0.409436
0.398212
0.387331
0.619718
0.60899
0.602927
0.597983
0.593072
0.58779
0.581772
0.574854
0.567017
0.558325
0.548882
0.538806
0.528215
0.517217
0.505909
0.494378
0.482698
0.470936
0.459147
0.447381
0.435679
0.424082
0.412604
0.401236
0.390185
0.627345
0.616509
0.610311
0.605173
0.600018
0.594459
0.588146
0.580928
0.572796
0.563818
0.5541
0.543763
0.532923
0.521689
0.510157
0.498413
0.486532
0.474579
0.462609
0.450671
0.438806
0.427053
0.415429
0.403934
0.392729
0.634046
0.623115
0.616799
0.611491
0.60612
0.600316
0.593744
0.586263
0.577871
0.568642
0.558683
0.548116
0.537058
0.525616
0.513887
0.501957
0.489899
0.477777
0.465648
0.453559
0.44155
0.429661
0.417909
0.406302
0.394962
0.63981
0.628798
0.62238
0.616924
0.611368
0.605354
0.598558
0.59085
0.582235
0.572789
0.562624
0.551859
0.540612
0.528992
0.517094
0.505003
0.492793
0.480527
0.46826
0.456041
0.44391
0.431902
0.42004
0.408337
0.396881
0.644629
0.633549
0.627044
0.621466
0.615754
0.609564
0.602581
0.594683
0.585882
0.576255
0.565916
0.554986
0.543582
0.531813
0.519773
0.507548
0.49521
0.482823
0.470442
0.458115
0.44588
0.433774
0.421821
0.410037
0.398483
0.648493
0.637358
0.630785
0.625108
0.619271
0.612939
0.605807
0.597757
0.588805
0.579033
0.568555
0.557493
0.545963
0.534074
0.521921
0.509588
0.497148
0.484664
0.472192
0.459777
0.447459
0.435274
0.423248
0.411399
0.399768
0.651397
0.640221
0.633596
0.627845
0.621914
0.615476
0.60823
0.600066
0.591002
0.581121
0.570538
0.559376
0.547752
0.535773
0.523534
0.51112
0.498604
0.486047
0.473506
0.461025
0.448646
0.436401
0.424319
0.412422
0.400732
0.653335
0.642132
0.635473
0.629671
0.623678
0.617169
0.609848
0.601608
0.592468
0.582514
0.571862
0.560633
0.548945
0.536906
0.524611
0.512143
0.499575
0.48697
0.474382
0.461858
0.449437
0.437153
0.425035
0.413105
0.401376
0.654305
0.643089
0.636412
0.630586
0.624561
0.618016
0.610657
0.602379
0.593202
0.583211
0.572524
0.561262
0.549543
0.537474
0.52515
0.512655
0.500061
0.487432
0.474821
0.462275
0.449834
0.43753
0.425392
0.413447
0.401698
0.654305
0.643089
0.636412
0.630586
0.624561
0.618016
0.610657
0.602379
0.593202
0.583211
0.572524
0.561262
0.549543
0.537474
0.52515
0.512655
0.500061
0.487432
0.474821
0.462275
0.449834
0.43753
0.425392
0.413447
0.401698
0.653335
0.642132
0.635473
0.629671
0.623678
0.617169
0.609848
0.601608
0.592468
0.582514
0.571862
0.560633
0.548945
0.536906
0.524611
0.512143
0.499575
0.48697
0.474382
0.461858
0.449437
0.437153
0.425035
0.413105
0.401376
0.651397
0.640221
0.633596
0.627845
0.621914
0.615476
0.60823
0.600066
0.591002
0.581121
0.570538
0.559376
0.547752
0.535773
0.523534
0.51112
0.498604
0.486047
0.473506
0.461025
0.448646
0.436401
0.424319
0.412422
0.400732
0.648493
0.637358
0.630785
0.625108
0.619271
0.612939
0.605807
0.597757
0.588805
0.579033
0.568555
0.557493
0.545963
0.534074
0.521921
0.509588
0.497148
0.484664
0.472192
0.459777
0.447459
0.435274
0.423248
0.411399
0.399768
0.644629
0.633549
0.627044
0.621466
0.615754
0.609564
0.602581
0.594683
0.585882
0.576255
0.565916
0.554986
0.543582
0.531813
0.519773
0.507548
0.49521
0.482823
0.470443
0.458115
0.44588
0.433774
0.421821
0.410037
0.398483
0.63981
0.628798
0.62238
0.616924
0.611368
0.605354
0.598558
0.59085
0.582235
0.572789
0.562624
0.551859
0.540612
0.528992
0.517094
0.505003
0.492793
0.480527
0.46826
0.456041
0.44391
0.431902
0.420041
0.408337
0.396881
0.634046
0.623115
0.616799
0.61149
0.60612
0.600316
0.593744
0.586263
0.577871
0.568642
0.558683
0.548116
0.537058
0.525616
0.513887
0.501957
0.489899
0.477777
0.465648
0.453559
0.441551
0.429661
0.417909
0.406302
0.394962
0.627345
0.616509
0.610311
0.605173
0.600018
0.594459
0.588146
0.580928
0.572796
0.563818
0.5541
0.543763
0.532923
0.521689
0.510157
0.498413
0.486532
0.474579
0.462609
0.450671
0.438806
0.427053
0.415429
0.403934
0.392729
0.619718
0.60899
0.602927
0.597983
0.593072
0.58779
0.581772
0.574854
0.567017
0.558325
0.548882
0.538806
0.528215
0.517217
0.505909
0.494378
0.482698
0.470936
0.459147
0.447381
0.435679
0.424082
0.412604
0.401236
0.390185
0.611179
0.600572
0.594659
0.58993
0.585292
0.580321
0.574633
0.568049
0.560543
0.552171