/*--------------------------------*- C++ -*----------------------------------*\
  =========                 |
  \\      /  F ield         | OpenFOAM: The Open Source CFD Toolbox
   \\    /   O peration     | Website:  https://openfoam.org
    \\  /    A nd           | Version:  7
     \\/     M anipulation  |
\*---------------------------------------------------------------------------*/
FoamFile
{
    version     2.0;
    format      ascii;
    class       surfaceScalarField;
    location    "5";
    object      phi;
}
// * * * * * * * * * * * * * * * * * * * * * * * * * * * * * * * * * * * * * //

dimensions      [0 3 -1 0 0 0 0];

internalField   nonuniform List<scalar> 
16730
(
-0.00366479
-0.000574433
-0.000553276
-0.00351412
-0.00361428
-0.000603781
-0.000529586
-0.00337166
-0.000580561
-0.00346315
-0.00356221
-0.00063263
-0.000504426
-0.00323848
-0.000554907
-0.00332117
-0.000607338
-0.00341072
-0.00350859
-0.000660958
-0.000528029
-0.00318859
-0.000579762
-0.00326944
-0.000633608
-0.00335687
-0.00345345
-0.000688749
-0.000500128
-0.0030636
-0.000551227
-0.00313749
-0.00060417
-0.0032165
-0.000659387
-0.00330165
-0.00339679
-0.00071605
-0.000470942
-0.00294477
-0.000521735
-0.00301281
-0.000574033
-0.0030852
-0.00062816
-0.00316237
-0.000684722
-0.00324509
-0.00333855
-0.000742957
-0.000490933
-0.00289413
-0.000542961
-0.00296078
-0.00059647
-0.00303169
-0.000651783
-0.00310706
-0.000709626
-0.00318725
-0.00327874
-0.000769435
-0.000458665
-0.00278092
-0.000510532
-0.00284226
-0.000563799
-0.00290752
-0.000618563
-0.00297692
-0.000675133
-0.00305049
-0.000734077
-0.0031283
-0.00321718
-0.000795636
-0.000476649
-0.00272921
-0.000529721
-0.00278919
-0.000584227
-0.00285301
-0.000640298
-0.00292085
-0.000698269
-0.00299252
-0.000758805
-0.00306777
-0.00315569
-0.000820304
-0.000441351
-0.0026213
-0.000494224
-0.00267633
-0.000548476
-0.00273494
-0.000604203
-0.00279728
-0.000661581
-0.00286347
-0.000720741
-0.00293336
-0.000780877
-0.00300763
-0.00308878
-0.000847781
-0.000404705
-0.00251814
-0.000457389
-0.00256862
-0.000511395
-0.00262233
-0.000566797
-0.00267954
-0.000623699
-0.00274038
-0.000682259
-0.00280491
-0.000742522
-0.0028731
-0.000804552
-0.0029456
-0.00302248
-0.000870857
-0.000419259
-0.00246564
-0.000473039
-0.00251484
-0.000528151
-0.00256722
-0.000584671
-0.00262301
-0.000642706
-0.00268235
-0.000702384
-0.00274524
-0.000763777
-0.0028117
-0.000827163
-0.00288222
-0.00295605
-0.000893593
-0.000379878
-0.00236668
-0.000433447
-0.00241207
-0.000488299
-0.00245999
-0.000544489
-0.00251103
-0.000602097
-0.00256541
-0.000661226
-0.00262322
-0.000721987
-0.00268447
-0.000784475
-0.00274922
-0.000848956
-0.00281773
-0.00288912
-0.000915887
-0.000392657
-0.00231334
-0.000447268
-0.00235746
-0.000503165
-0.00240409
-0.000560406
-0.00245379
-0.000619072
-0.00250674
-0.00067926
-0.00256303
-0.000741073
-0.00262266
-0.000804611
-0.00268568
-0.000870082
-0.00275226
-0.00282151
-0.000937692
-0.00035073
-0.00221739
-0.000405093
-0.00225898
-0.000460721
-0.00230183
-0.000517637
-0.00234718
-0.000575901
-0.00239552
-0.000635595
-0.00244705
-0.000696812
-0.00250181
-0.000759647
-0.00255983
-0.000824197
-0.00262113
-0.000890616
-0.00268584
-0.00275312
-0.000959002
-0.000361827
-0.00216334
-0.000417185
-0.00220362
-0.000473804
-0.00224521
-0.000531712
-0.00228927
-0.000590973
-0.00233626
-0.000651667
-0.00238635
-0.000713884
-0.0024396
-0.000777712
-0.002496
-0.000843243
-0.0025556
-0.000910595
-0.00261849
-0.0026839
-0.000979818
-0.000372606
-0.00210832
-0.000428932
-0.0021473
-0.000486516
-0.00218762
-0.000545391
-0.00223039
-0.000605621
-0.00227603
-0.000667288
-0.00232468
-0.000730477
-0.00237641
-0.000795274
-0.0024312
-0.000861762
-0.00248911
-0.000930036
-0.00255022
-0.0026138
-0.00100013
-0.000327085
-0.00201366
-0.000383065
-0.00205234
-0.000440333
-0.00209003
-0.000498857
-0.0021291
-0.000558671
-0.00217058
-0.000619845
-0.00221486
-0.000682457
-0.00226207
-0.000746593
-0.00231227
-0.000812334
-0.00236546
-0.000879758
-0.00242169
-0.000948949
-0.00248103
-0.00254281
-0.00101994
-0.000336298
-0.00195818
-0.000393205
-0.00199543
-0.000451389
-0.00203184
-0.000510825
-0.00206966
-0.000571553
-0.00210985
-0.000633644
-0.00215277
-0.000697176
-0.00219854
-0.000762234
-0.00224721
-0.000828896
-0.0022988
-0.000897237
-0.00235334
-0.000967335
-0.00241093
-0.00247092
-0.00103923
-0.00028882
-0.00186086
-0.000345218
-0.00190179
-0.000403025
-0.00193763
-0.000462097
-0.00197277
-0.000522419
-0.00200934
-0.000584036
-0.00204823
-0.000647017
-0.00208979
-0.000711444
-0.00213411
-0.000777399
-0.00218126
-0.000844959
-0.00223124
-0.000914199
-0.0022841
-0.000985195
-0.00233993
-0.00239813
-0.00105799
-0.000296554
-0.00180529
-0.000353846
-0.00184449
-0.000412524
-0.00187895
-0.000472458
-0.00191284
-0.00053364
-0.00194816
-0.000596118
-0.00198576
-0.000659965
-0.00202594
-0.000725261
-0.00206882
-0.000792088
-0.00211443
-0.000860525
-0.0021628
-0.000930645
-0.00221398
-0.00100252
-0.00226805
-0.00232444
-0.00107621
-0.000304024
-0.00174881
-0.000362182
-0.00178634
-0.000421702
-0.00181943
-0.000482472
-0.00185207
-0.000544487
-0.00188614
-0.0006078
-0.00192244
-0.000672486
-0.00196125
-0.000738626
-0.00200268
-0.000806301
-0.00204676
-0.000875591
-0.00209351
-0.000946571
-0.002143
-0.00101932
-0.00219531
-0.00224987
-0.00109388
-0.000253885
-0.0016445
-0.000311232
-0.00169147
-0.000370224
-0.00172734
-0.00043056
-0.00175909
-0.000492136
-0.00179049
-0.000554958
-0.00182332
-0.000619081
-0.00185832
-0.000684579
-0.00189575
-0.000751537
-0.00193572
-0.000820036
-0.00197826
-0.000890157
-0.00202339
-0.000961975
-0.00207119
-0.00103557
-0.00212171
-0.00217444
-0.001111
-0.00025999
-0.00158851
-0.000318176
-0.00163328
-0.000377972
-0.00166755
-0.000439095
-0.00169797
-0.000501452
-0.00172813
-0.000565054
-0.00175972
-0.000629958
-0.00179342
-0.000696244
-0.00182947
-0.000763994
-0.00186797
-0.000833292
-0.00190896
-0.000904219
-0.00195246
-0.000976854
-0.00199855
-0.00105128
-0.00204728
-0.00209817
-0.00112756
-0.000265863
-0.00153166
-0.000324856
-0.00157429
-0.000385427
-0.00160698
-0.000447309
-0.00163609
-0.000510418
-0.00166503
-0.000574772
-0.00169537
-0.000640433
-0.00172776
-0.000707479
-0.00176242
-0.000775995
-0.00179945
-0.000846066
-0.00183889
-0.000917775
-0.00188075
-0.000991203
-0.00192512
-0.00106644
-0.00197205
-0.00202106
-0.00114354
-0.000213837
-0.00141414
-0.000271505
-0.001474
-0.000331272
-0.00151452
-0.000392588
-0.00154566
-0.000455199
-0.00157348
-0.000519034
-0.00160119
-0.000584113
-0.00163029
-0.000650502
-0.00166137
-0.000718282
-0.00169464
-0.000787538
-0.0017302
-0.000858356
-0.00176807
-0.000930822
-0.00180829
-0.00100502
-0.00185093
-0.00108103
-0.00189604
-0.00194316
-0.00115894
-0.000218459
-0.00135869
-0.000276914
-0.00141554
-0.000337424
-0.00145401
-0.000399454
-0.00148363
-0.000462767
-0.00151016
-0.000527298
-0.00153666
-0.000593075
-0.00156451
-0.000660166
-0.00159428
-0.000728652
-0.00162616
-0.000798621
-0.00166023
-0.00087016
-0.00169653
-0.000943357
-0.00173509
-0.0010183
-0.00177599
-0.00109507
-0.00181926
-0.00186448
-0.00117375
-0.000222883
-0.00130244
-0.000282091
-0.00135633
-0.000343311
-0.00139279
-0.000406026
-0.00142091
-0.000470011
-0.00144618
-0.000535211
-0.00147146
-0.000601658
-0.00149806
-0.000669422
-0.00152651
-0.000738587
-0.00155699
-0.000809242
-0.00158957
-0.000881475
-0.0016243
-0.000955376
-0.00166119
-0.00103103
-0.00170033
-0.00110854
-0.00174175
-0.00178505
-0.00118797
-0.000227109
-0.00124542
-0.000287035
-0.00129641
-0.000348933
-0.00133089
-0.000412303
-0.00135755
-0.000476932
-0.00138155
-0.000542772
-0.00140562
-0.00060986
-0.00143098
-0.00067827
-0.0014581
-0.000748086
-0.00148718
-0.000819398
-0.00151826
-0.000892298
-0.0015514
-0.000966875
-0.00158661
-0.00104322
-0.00162399
-0.00112143
-0.00166354
-0.0017049
-0.00120158
-0.000173378
-0.00111188
-0.000231137
-0.00118766
-0.000291746
-0.0012358
-0.00035429
-0.00126835
-0.000418284
-0.00129355
-0.000483527
-0.00131631
-0.000549979
-0.00133917
-0.000617681
-0.00136327
-0.000686708
-0.00138908
-0.000757147
-0.00141674
-0.000829089
-0.00144632
-0.000902627
-0.00147786
-0.000977852
-0.00151139
-0.00105486
-0.00154698
-0.00113375
-0.00158466
-0.00162405
-0.00121459
-0.00017651
-0.00105771
-0.000234966
-0.0011292
-0.000296224
-0.00117454
-0.000359382
-0.00120519
-0.00042397
-0.00122896
-0.000489798
-0.00125048
-0.000556832
-0.00127213
-0.000625119
-0.00129499
-0.000694735
-0.00131946
-0.000765768
-0.0013457
-0.000838311
-0.00137378
-0.000912458
-0.00140371
-0.000988304
-0.00143554
-0.00106594
-0.00146934
-0.00114547
-0.00150512
-0.00154255
-0.00122698
-0.00017948
-0.00100283
-0.000238595
-0.00107009
-0.000300467
-0.00111267
-0.000364208
-0.00114145
-0.000429359
-0.00116381
-0.000495742
-0.0011841
-0.000563331
-0.00120454
-0.000632173
-0.00122614
-0.000702349
-0.00124929
-0.000773947
-0.00127411
-0.000847062
-0.00130066
-0.00092179
-0.00132898
-0.000998225
-0.00135911
-0.00107647
-0.0013911
-0.00115662
-0.00142498
-0.00146041
-0.00123875
-0.000182288
-0.000947285
-0.000242025
-0.00101035
-0.000304477
-0.00105021
-0.000368767
-0.00107716
-0.000434452
-0.00109813
-0.000501361
-0.00111719
-0.000569474
-0.00113643
-0.000638843
-0.00115678
-0.000709549
-0.00117858
-0.000781683
-0.00120197
-0.000855341
-0.001227
-0.000930619
-0.00125371
-0.00100761
-0.00128211
-0.00108643
-0.00131229
-0.00116716
-0.00134424
-0.00137767
-0.0012499
-0.000184933
-0.00089111
-0.000245255
-0.000950028
-0.000308253
-0.000987217
-0.000373061
-0.00101235
-0.000439248
-0.00103194
-0.000506652
-0.00104978
-0.00057526
-0.00106782
-0.000645126
-0.00108691
-0.000716333
-0.00110737
-0.000788974
-0.00112933
-0.000863144
-0.00115283
-0.000938943
-0.00117791
-0.00101647
-0.00120459
-0.00109582
-0.00123293
-0.00117711
-0.00126295
-0.00129437
-0.00126042
-0.000130653
-0.000747498
-0.000187415
-0.000834348
-0.000248284
-0.000889158
-0.000311794
-0.000923708
-0.000377088
-0.000947059
-0.000443746
-0.000965281
-0.000511617
-0.000981913
-0.00058069
-0.00099875
-0.000651023
-0.00101658
-0.000722701
-0.0010357
-0.000795818
-0.00105621
-0.000870471
-0.00107818
-0.000946759
-0.00110162
-0.00102478
-0.00112656
-0.00110465
-0.00115307
-0.00118646
-0.00118114
-0.00121052
-0.0012703
-0.000132422
-0.000696491
-0.000189733
-0.000777038
-0.000251114
-0.000827778
-0.0003151
-0.000859722
-0.000380848
-0.000881311
-0.000447947
-0.000898182
-0.000516253
-0.000913607
-0.000585761
-0.000929242
-0.000656532
-0.000945806
-0.00072865
-0.000963576
-0.000802213
-0.000982652
-0.000877318
-0.00100307
-0.000954066
-0.00102487
-0.00103256
-0.00104807
-0.0011129
-0.00107273
-0.0011952
-0.00109885
-0.00112618
-0.00127954
-0.000134068
-0.000644954
-0.000191887
-0.000719219
-0.000253742
-0.000765923
-0.000318171
-0.000795292
-0.00038434
-0.000815142
-0.000451849
-0.000830673
-0.000520561
-0.000844896
-0.000590474
-0.000859329
-0.000661651
-0.000874628
-0.000734181
-0.000891047
-0.000808159
-0.000908674
-0.000883685
-0.000927548
-0.00096086
-0.000947695
-0.00103979
-0.000969141
-0.00112057
-0.000991941
-0.00120333
-0.00101609
-0.00104137
-0.00128814
-0.000135588
-0.000592927
-0.000193877
-0.00066093
-0.000256169
-0.000703631
-0.000321007
-0.000730454
-0.000387566
-0.000748584
-0.000455453
-0.000762785
-0.000524539
-0.000775811
-0.000594827
-0.000789041
-0.000666381
-0.000803074
-0.000739291
-0.000818137
-0.000813653
-0.000834311
-0.000889569
-0.000851632
-0.00096714
-0.000870123
-0.00104647
-0.00088981
-0.00112767
-0.000910742
-0.00121085
-0.000932915
-0.000956127
-0.00129609
-0.000136983
-0.000540452
-0.000195702
-0.000602212
-0.000258395
-0.000640938
-0.000323608
-0.000665241
-0.000390523
-0.000681668
-0.000458758
-0.000694549
-0.000528188
-0.000706381
-0.00059882
-0.000718409
-0.00067072
-0.000731174
-0.000743979
-0.000744878
-0.000818694
-0.000759596
-0.000894968
-0.000775358
-0.000972904
-0.000792188
-0.00105261
-0.000810107
-0.00113419
-0.000829163
-0.00121775
-0.00084935
-0.000870484
-0.00130339
-0.000138253
-0.000487569
-0.000197362
-0.000543102
-0.000260419
-0.000577881
-0.000325972
-0.000599688
-0.000393213
-0.000614428
-0.000461764
-0.000625998
-0.000531507
-0.000636638
-0.000602452
-0.000647465
-0.000674667
-0.000658959
-0.000748244
-0.000671301
-0.000823282
-0.000684558
-0.000899882
-0.000698758
-0.00097815
-0.00071392
-0.00105819
-0.000730067
-0.00114011
-0.000747238
-0.00122403
-0.000765431
-0.000784478
-0.00131004
-0.000139396
-0.000434318
-0.000198857
-0.000483642
-0.000262241
-0.000514496
-0.000328101
-0.000533828
-0.000395634
-0.000546895
-0.00046447
-0.000557161
-0.000534495
-0.000566613
-0.000605723
-0.000576238
-0.000678222
-0.000586459
-0.000752086
-0.000597438
-0.000827414
-0.00060923
-0.000904309
-0.000621863
-0.000982876
-0.000635353
-0.00106322
-0.00064972
-0.00114546
-0.000665002
-0.0012297
-0.000681192
-0.000698144
-0.00131603
-0.000140413
-0.000380742
-0.000200186
-0.000423869
-0.000263862
-0.00045082
-0.000329994
-0.000467695
-0.000397787
-0.000479102
-0.000466877
-0.000488071
-0.000537153
-0.000496337
-0.000608631
-0.000504759
-0.000681384
-0.000513707
-0.000755503
-0.000523318
-0.00083109
-0.000533644
-0.000908247
-0.000544706
-0.00098708
-0.00055652
-0.0010677
-0.000569103
-0.00115021
-0.000582487
-0.00123474
-0.000596668
-0.000611518
-0.00132136
-0.000141304
-0.00032688
-0.00020135
-0.000363823
-0.00026528
-0.00038689
-0.000331651
-0.000401324
-0.000399671
-0.000411082
-0.000468983
-0.00041876
-0.000539479
-0.000425841
-0.000611178
-0.00043306
-0.000684152
-0.000440732
-0.000758495
-0.000448975
-0.000834308
-0.000457831
-0.000911695
-0.000467319
-0.000990762
-0.000477452
-0.00107162
-0.000488246
-0.00115438
-0.000499729
-0.00123915
-0.000511895
-0.000524636
-0.00132603
-8.7961e-05
-0.000225396
-0.000142067
-0.000272774
-0.000202347
-0.000303544
-0.000266496
-0.000322741
-0.000333071
-0.000334749
-0.000401286
-0.000342866
-0.000470789
-0.000349257
-0.000541474
-0.000355156
-0.000613361
-0.000361173
-0.000686526
-0.000367568
-0.000761061
-0.00037444
-0.000837068
-0.000381824
-0.000914653
-0.000389735
-0.000993921
-0.000398184
-0.00107498
-0.000407185
-0.00115795
-0.000416761
-0.00124294
-0.000426907
-0.000437533
-0.00133004
-8.83938e-05
-0.000180553
-0.000142704
-0.000218464
-0.000203179
-0.000243069
-0.000267509
-0.000258411
-0.000334255
-0.000268004
-0.000402633
-0.000274488
-0.000472294
-0.000279596
-0.000543136
-0.000284314
-0.000615181
-0.000289127
-0.000688504
-0.000294245
-0.0007632
-0.000299745
-0.00083937
-0.000305654
-0.000917119
-0.000311985
-0.000996554
-0.000318749
-0.00107779
-0.000325953
-0.00116093
-0.000333619
-0.00124609
-0.000341741
-0.000350247
-0.00133338
-8.87403e-05
-0.000135553
-0.000143214
-0.00016399
-0.000203844
-0.000182438
-0.00026832
-0.000193936
-0.000335202
-0.000201122
-0.00040371
-0.00020598
-0.000473498
-0.000209808
-0.000544466
-0.000213346
-0.000616638
-0.000216956
-0.000690088
-0.000220795
-0.000764912
-0.000224921
-0.000841211
-0.000229354
-0.000919092
-0.000234105
-0.000998662
-0.000239179
-0.00108003
-0.000244585
-0.00116331
-0.000250337
-0.00124862
-0.000256431
-0.000262814
-0.00133606
-8.90002e-05
-9.04345e-05
-0.000143596
-0.000109395
-0.000204344
-0.00012169
-0.000268928
-0.000129351
-0.000335912
-0.000134138
-0.000404518
-0.000137374
-0.000474401
-0.000139925
-0.000545464
-0.000142283
-0.00061773
-0.00014469
-0.000691276
-0.000147249
-0.000766196
-0.000150001
-0.000842593
-0.000152957
-0.000920573
-0.000156125
-0.00100024
-0.000159508
-0.00108171
-0.000163113
-0.0011651
-0.000166949
-0.00125052
-0.000171014
-0.000175271
-0.00133806
-8.91736e-05
-4.52369e-05
-0.000143851
-5.47176e-05
-0.000204676
-6.08644e-05
-0.000269334
-6.46934e-05
-0.000336386
-6.70858e-05
-0.000405057
-6.87032e-05
-0.000475004
-6.99783e-05
-0.000546129
-7.1157e-05
-0.000618459
-7.23605e-05
-0.000692068
-7.36404e-05
-0.000767052
-7.50161e-05
-0.000843514
-7.64945e-05
-0.00092156
-7.80786e-05
-0.0010013
-7.97708e-05
-0.00108284
-8.15737e-05
-0.0011663
-8.3492e-05
-0.00125178
-8.55247e-05
-8.76537e-05
-0.0013394
-8.92602e-05
1.3959e-10
-0.000143978
1.87465e-10
-0.000204843
2.32118e-10
-0.000269536
2.74096e-10
-0.000336623
3.13037e-10
-0.000405326
3.46999e-10
-0.000475305
3.73967e-10
-0.000546462
3.92871e-10
-0.000618823
4.03817e-10
-0.000692464
4.07746e-10
-0.00076748
4.05947e-10
-0.000843975
3.99749e-10
-0.000922054
3.90355e-10
-0.00100183
3.78779e-10
-0.0010834
3.65877e-10
-0.00116689
3.52402e-10
-0.00125242
3.39008e-10
3.25418e-10
-0.00134007
-8.92602e-05
4.52372e-05
-0.000143978
5.4718e-05
-0.000204843
6.08649e-05
-0.000269536
6.4694e-05
-0.000336623
6.70864e-05
-0.000405326
6.87039e-05
-0.000475305
6.9979e-05
-0.000546462
7.11577e-05
-0.000618823
7.23613e-05
-0.000692464
7.36413e-05
-0.00076748
7.50169e-05
-0.000843975
7.64953e-05
-0.000922054
7.80794e-05
-0.00100183
7.97716e-05
-0.0010834
8.15744e-05
-0.00116689
8.34927e-05
-0.00125242
8.55253e-05
8.76543e-05
-0.00134007
-8.91736e-05
9.04348e-05
-0.000143851
0.000109395
-0.000204676
0.000121691
-0.000269334
0.000129351
-0.000336386
0.000134139
-0.000405057
0.000137375
-0.000475004
0.000139926
-0.000546129
0.000142284
-0.000618459
0.000144691
-0.000692068
0.00014725
-0.000767052
0.000150001
-0.000843515
0.000152958
-0.00092156
0.000156125
-0.0010013
0.000159509
-0.00108284
0.000163114
-0.0011663
0.00016695
-0.00125178
0.000171014
0.000175272
-0.0013394
-8.90002e-05
0.000135553
-0.000143596
0.000163991
-0.000204344
0.000182438
-0.000268928
0.000193936
-0.000335912
0.000201122
-0.000404518
0.000205981
-0.000474401
0.000209809
-0.000545464
0.000213346
-0.00061773
0.000216957
-0.000691276
0.000220796
-0.000766196
0.000224921
-0.000842593
0.000229355
-0.000920573
0.000234105
-0.00100024
0.00023918
-0.00108171
0.000244586
-0.0011651
0.000250337
-0.00125052
0.000256432
0.000262815
-0.00133806
-8.87403e-05
0.000180554
-0.000143214
0.000218464
-0.000203844
0.000243069
-0.00026832
0.000258412
-0.000335202
0.000268004
-0.00040371
0.000274489
-0.000473498
0.000279597
-0.000544466
0.000284315
-0.000616638
0.000289128
-0.000690088
0.000294246
-0.000764912
0.000299745
-0.000841211
0.000305655
-0.000919092
0.000311986
-0.000998662
0.000318749
-0.00108003
0.000325954
-0.00116331
0.00033362
-0.00124862
0.000341742
0.000350248
-0.00133606
-8.83938e-05
0.000225396
-0.000142704
0.000272774
-0.000203179
0.000303544
-0.000267509
0.000322742
-0.000334255
0.00033475
-0.000402633
0.000342867
-0.000472294
0.000349258
-0.000543136
0.000355157
-0.000615181
0.000361173
-0.000688504
0.000367569
-0.0007632
0.000374441
-0.00083937
0.000381824
-0.000917119
0.000389735
-0.000996554
0.000398185
-0.00107779
0.000407186
-0.00116093
0.000416762
-0.00124609
0.000426908
0.000437534
-0.00133338
-8.7961e-05
-0.000142067
0.000326881
-0.000202347
0.000363824
-0.000266496
0.000386891
-0.000333071
0.000401325
-0.000401287
0.000411083
-0.000470789
0.00041876
-0.000541474
0.000425842
-0.000613361
0.000433061
-0.000686526
0.000440733
-0.000761061
0.000448976
-0.000837068
0.000457832
-0.000914653
0.00046732
-0.000993921
0.000477453
-0.00107498
0.000488247
-0.00115795
0.00049973
-0.00124294
0.000511896
0.000524636
-0.00133004
-0.000141304
0.000380742
-0.00020135
0.00042387
-0.00026528
0.000450821
-0.000331651
0.000467696
-0.000399671
0.000479103
-0.000468983
0.000488072
-0.000539479
0.000496338
-0.000611178
0.00050476
-0.000684152
0.000513707
-0.000758495
0.000523319
-0.000834308
0.000533645
-0.000911695
0.000544707
-0.000990763
0.00055652
-0.00107162
0.000569103
-0.00115438
0.000582488
-0.00123915
0.000596669
0.000611519
-0.00132603
-0.000140413
0.000434319
-0.000200186
0.000483642
-0.000263862
0.000514497
-0.000329994
0.000533829
-0.000397787
0.000546896
-0.000466877
0.000557162
-0.000537153
0.000566614
-0.000608632
0.000576238
-0.000681384
0.00058646
-0.000755503
0.000597438
-0.00083109
0.000609231
-0.000908247
0.000621864
-0.00098708
0.000635354
-0.0010677
0.000649721
-0.00115021
0.000665003
-0.00123474
0.000681192
0.000698145
-0.00132136
-0.000139396
0.000487569
-0.000198857
0.000543103
-0.000262241
0.000577881
-0.000328101
0.000599689
-0.000395634
0.000614428
-0.000464471
0.000625999
-0.000534496
0.000636639
-0.000605723
0.000647466
-0.000678222
0.000658959
-0.000752086
0.000671302
-0.000827414
0.000684559
-0.000904309
0.000698759
-0.000982876
0.000713921
-0.00106322
0.000730067
-0.00114546
0.000747239
-0.0012297
0.000765431
0.000784479
-0.00131603
-0.000138253
0.000540452
-0.000197362
0.000602212
-0.000260419
0.000640938
-0.000325972
0.000665242
-0.000393213
0.000681669
-0.000461764
0.00069455
-0.000531507
0.000706382
-0.000602452
0.00071841
-0.000674667
0.000731175
-0.000748244
0.000744879
-0.000823282
0.000759597
-0.000899882
0.000775359
-0.00097815
0.000792188
-0.00105819
0.000810108
-0.00114012
0.000829164
-0.00122403
0.000849351
0.000870485
-0.00131004
-0.000136983
0.000592928
-0.000195702
0.000660931
-0.000258395
0.000703631
-0.000323608
0.000730455
-0.000390523
0.000748584
-0.000458759
0.000762786
-0.000528188
0.000775811
-0.00059882
0.000789042
-0.00067072
0.000803075
-0.000743979
0.000818138
-0.000818695
0.000834312
-0.000894968
0.000851633
-0.000972904
0.000870124
-0.00105261
0.000889811
-0.00113419
0.000910742
-0.00121775
0.000932916
0.000956127
-0.00130339
-0.000135588
0.000644954
-0.000193877
0.000719219
-0.000256169
0.000765923
-0.000321007
0.000795293
-0.000387566
0.000815143
-0.000455454
0.000830673
-0.000524539
0.000844897
-0.000594827
0.000859329
-0.000666381
0.000874629
-0.000739291
0.000891048
-0.000813653
0.000908675
-0.000889569
0.000927549
-0.00096714
0.000947695
-0.00104647
0.000969142
-0.00112767
0.000991941
-0.00121085
0.00101609
0.00104137
-0.00129609
-0.000134068
0.000696492
-0.000191887
0.000777038
-0.000253742
0.000827778
-0.000318171
0.000859722
-0.00038434
0.000881312
-0.00045185
0.000898182
-0.000520561
0.000913608
-0.000590474
0.000929242
-0.000661651
0.000945807
-0.000734181
0.000963577
-0.000808159
0.000982653
-0.000883685
0.00100307
-0.00096086
0.00102487
-0.00103979
0.00104807
-0.00112057
0.00107273
-0.00120333
0.00109885
0.00112618
-0.00128814
-0.000132423
0.000747498
-0.000189733
0.000834349
-0.000251114
0.000889159
-0.0003151
0.000923709
-0.000380848
0.00094706
-0.000447947
0.000965282
-0.000516253
0.000981914
-0.000585761
0.000998751
-0.000656532
0.00101658
-0.000728651
0.0010357
-0.000802213
0.00105622
-0.000877318
0.00107818
-0.000954066
0.00110162
-0.00103256
0.00112656
-0.0011129
0.00115307
-0.0011952
0.00118115
0.00121052
-0.00127954
-0.000130653
-0.000187415
0.000891111
-0.000248285
0.000950028
-0.000311794
0.000987218
-0.000377088
0.00101235
-0.000443747
0.00103194
-0.000511617
0.00104978
-0.00058069
0.00106782
-0.000651023
0.00108691
-0.000722701
0.00110737
-0.000795818
0.00112933
-0.000870471
0.00115283
-0.00094676
0.00117791
-0.00102478
0.00120459
-0.00110465
0.00123293
-0.00118646
0.00126295
0.00129437
-0.0012703
-0.000184933
0.000947285
-0.000245255
0.00101035
-0.000308253
0.00105022
-0.000373061
0.00107716
-0.000439248
0.00109813
-0.000506653
0.00111719
-0.000575261
0.00113643
-0.000645127
0.00115678
-0.000716333
0.00117858
-0.000788974
0.00120197
-0.000863144
0.001227
-0.000938943
0.00125371
-0.00101647
0.00128211
-0.00109582
0.00131229
-0.00117711
0.00134424
0.00137767
-0.00126042
-0.000182288
0.00100283
-0.000242025
0.00107009
-0.000304477
0.00111267
-0.000368768
0.00114145
-0.000434452
0.00116381
-0.000501361
0.0011841
-0.000569474
0.00120454
-0.000638843
0.00122615
-0.000709549
0.00124929
-0.000781683
0.00127411
-0.000855341
0.00130066
-0.000930619
0.00132898
-0.00100762
0.00135911
-0.00108643
0.0013911
-0.00116716
0.00142498
0.00146041
-0.0012499
-0.00017948
0.00105771
-0.000238595
0.0011292
-0.000300468
0.00117454
-0.000364208
0.00120519
-0.00042936
0.00122896
-0.000495743
0.00125048
-0.000563331
0.00127213
-0.000632174
0.00129499
-0.000702349
0.00131946
-0.000773947
0.00134571
-0.000847063
0.00137378
-0.00092179
0.00140371
-0.000998226
0.00143554
-0.00107647
0.00146934
-0.00115662
0.00150513
0.00154255
-0.00123875
-0.00017651
0.00111188
-0.000234966
0.00118766
-0.000296224
0.0012358
-0.000359382
0.00126835
-0.00042397
0.00129355
-0.000489798
0.00131631
-0.000556833
0.00133917
-0.000625119
0.00136327
-0.000694735
0.00138908
-0.000765768
0.00141674
-0.000838311
0.00144632
-0.000912459
0.00147786
-0.000988304
0.00151139
-0.00106594
0.00154698
-0.00114548
0.00158466
0.00162405
-0.00122698
-0.000173378
-0.000231137
0.00124542
-0.000291746
0.00129641
-0.000354291
0.0013309
-0.000418285
0.00135755
-0.000483527
0.00138155
-0.000549979
0.00140562
-0.000617681
0.00143098
-0.000686708
0.0014581
-0.000757147
0.00148718
-0.000829089
0.00151826
-0.000902627
0.0015514
-0.000977853
0.00158661
-0.00105486
0.00162399
-0.00113375
0.00166354
0.0017049
-0.00121459
-0.000227109
0.00130244
-0.000287036
0.00135633
-0.000348934
0.00139279
-0.000412303
0.00142092
-0.000476932
0.00144618
-0.000542772
0.00147146
-0.000609861
0.00149807
-0.00067827
0.00152651
-0.000748086
0.00155699
-0.000819399
0.00158957
-0.000892298
0.0016243
-0.000966876
0.00166119
-0.00104322
0.00170033
-0.00112143
0.00174175
0.00178505
-0.00120158
-0.000222883
0.00135869
-0.000282092
0.00141554
-0.000343311
0.00145401
-0.000406027
0.00148363
-0.000470012
0.00151017
-0.000535212
0.00153666
-0.000601659
0.00156451
-0.000669422
0.00159428
-0.000738587
0.00162616
-0.000809242
0.00166023
-0.000881475
0.00169653
-0.000955376
0.00173509
-0.00103103
0.00177599
-0.00110854
0.00181926
0.00186448
-0.00118797
-0.000218459
-0.000276915
0.001474
-0.000337424
0.00151452
-0.000399455
0.00154566
-0.000462767
0.00157348
-0.000527299
0.00160119
-0.000593076
0.00163029
-0.000660166
0.00166137
-0.000728652
0.00169464
-0.000798621
0.0017302
-0.000870161
0.00176807
-0.000943357
0.00180829
-0.0010183
0.00185093
-0.00109507
0.00189604
0.00194316
-0.00117375
-0.000271505
0.00153167
-0.000331272
0.00157429
-0.000392588
0.00160698
-0.0004552
0.00163609
-0.000519034
0.00166503
-0.000584113
0.00169537
-0.000650502
0.00172776
-0.000718282
0.00176242
-0.000787538
0.00179945
-0.000858357
0.00183889
-0.000930823
0.00188075
-0.00100502
0.00192513
-0.00108104
0.00197205
0.00202106
-0.00115894
-0.000265864
0.00158851
-0.000324856
0.00163328
-0.000385427
0.00166755
-0.000447309
0.00169797
-0.000510418
0.00172814
-0.000574772
0.00175972
-0.000640433
0.00179342
-0.000707479
0.00182947
-0.000775995
0.00186797
-0.000846066
0.00190896
-0.000917776
0.00195246
-0.000991203
0.00199855
-0.00106644
0.00204729
0.00209817
-0.00114354
-0.00025999
0.0016445
-0.000318176
0.00169147
-0.000377973
0.00172734
-0.000439096
0.00175909
-0.000501452
0.00179049
-0.000565054
0.00182332
-0.000629959
0.00185832
-0.000696245
0.00189576
-0.000763994
0.00193572
-0.000833292
0.00197826
-0.000904219
0.00202339
-0.000976854
0.00207119
-0.00105128
0.00212171
0.00217444
-0.00112756
-0.000253885
-0.000311232
0.00174882
-0.000370224
0.00178634
-0.00043056
0.00181943
-0.000492137
0.00185207
-0.000554959
0.00188615
-0.000619081
0.00192244
-0.00068458
0.00196125
-0.000751538
0.00200268
-0.000820037
0.00204676
-0.000890157
0.00209351
-0.000961975
0.00214301
-0.00103557
0.00219531
0.00224987
-0.001111
-0.000304025
0.00180529
-0.000362182
0.00184449
-0.000421703
0.00187895
-0.000482472
0.00191284
-0.000544487
0.00194816
-0.000607801
0.00198576
-0.000672486
0.00202594
-0.000738626
0.00206882
-0.000806301
0.00211443
-0.000875592
0.0021628
-0.000946571
0.00221398
-0.00101932
0.00226805
0.00232444
-0.00109388
-0.000296554
0.00186086
-0.000353847
0.00190179
-0.000412524
0.00193763
-0.000472459
0.00197277
-0.000533641
0.00200934
-0.000596119
0.00204824
-0.000659965
0.00208979
-0.000725261
0.00213411
-0.000792089
0.00218126
-0.000860525
0.00223124
-0.000930645
0.0022841
-0.00100252
0.00233993
0.00239813
-0.00107621
-0.00028882
-0.000345219
0.00195818
-0.000403025
0.00199543
-0.000462098
0.00203185
-0.00052242
0.00206966
-0.000584036
0.00210985
-0.000647018
0.00215277
-0.000711445
0.00219854
-0.000777399
0.00224721
-0.00084496
0.0022988
-0.0009142
0.00235334
-0.000985195
0.00241093
0.00247092
-0.00105799
-0.000336298
0.00201366
-0.000393205
0.00205234
-0.000451389
0.00209003
-0.000510825
0.0021291
-0.000571554
0.00217058
-0.000633644
0.00221486
-0.000697177
0.00226207
-0.000762234
0.00231227
-0.000828896
0.00236546
-0.000897238
0.00242169
-0.000967336
0.00248103
0.00254281
-0.00103923
-0.000327086
-0.000383065
0.00210832
-0.000440334
0.0021473
-0.000498857
0.00218762
-0.000558672
0.00223039
-0.000619845
0.00227603
-0.000682458
0.00232469
-0.000746594
0.00237641
-0.000812335
0.0024312
-0.000879759
0.00248911
-0.000948949
0.00255022
0.0026138
-0.00101994
-0.000372606
0.00216335
-0.000428932
0.00220362
-0.000486517
0.00224521
-0.000545391
0.00228927
-0.000605621
0.00233626
-0.000667288
0.00238635
-0.000730477
0.0024396
-0.000795274
0.002496
-0.000861762
0.0025556
-0.000930037
0.00261849
0.0026839
-0.00100013
-0.000361828
-0.000417185
0.00225898
-0.000473805
0.00230183
-0.000531713
0.00234718
-0.000590973
0.00239552
-0.000651668
0.00244705
-0.000713884
0.00250181
-0.000777713
0.00255983
-0.000843244
0.00262113
-0.000910595
0.00268584
0.00275312
-0.000979819
-0.000405093
0.00231334
-0.000460722
0.00235746
-0.000517637
0.00240409
-0.000575901
0.00245379
-0.000635596
0.00250674
-0.000696813
0.00256303
-0.000759647
0.00262266
-0.000824197
0.00268568
-0.000890616
0.00275226
0.00282151
-0.000959003
-0.000392657
0.00236669
-0.000447269
0.00241207
-0.000503166
0.00245999
-0.000560406
0.00251103
-0.000619072
0.00256541
-0.000679261
0.00262322
-0.000741074
0.00268448
-0.000804612
0.00274922
-0.000870083
0.00281773
0.00288912
-0.000937693
-0.000379878
-0.000433448
0.00246564
-0.000488299
0.00251484
-0.000544489
0.00256722
-0.000602098
0.00262302
-0.000661226
0.00268235
-0.000721987
0.00274524
-0.000784475
0.0028117
-0.000848957
0.00288222
0.00295605
-0.000915888
-0.000419259
-0.00047304
0.00256862
-0.000528151
0.00262233
-0.000584672
0.00267954
-0.000642707
0.00274038
-0.000702385
0.00280491
-0.000763778
0.0028731
-0.000827164
0.0029456
0.00302248
-0.000893593
-0.00045739
0.00262131
-0.000511395
0.00267633
-0.000566797