/*--------------------------------*- C++ -*----------------------------------*\
  =========                 |
  \\      /  F ield         | OpenFOAM: The Open Source CFD Toolbox
   \\    /   O peration     | Website:  https://openfoam.org
    \\  /    A nd           | Version:  7
     \\/     M anipulation  |
\*---------------------------------------------------------------------------*/
FoamFile
{
    version     2.0;
    format      ascii;
    class       volVectorField;
    location    "5";
    object      U;
}
// * * * * * * * * * * * * * * * * * * * * * * * * * * * * * * * * * * * * * //

dimensions      [0 1 -1 0 0 0 0];

internalField   nonuniform List<vector> 
8500
(
(1.04093 0.367259 1.35923e-21)
(1.02922 0.38424 -2.33863e-22)
(1.03037 0.367239 2.92435e-20)
(1.01601 0.403461 -1.1853e-20)
(1.01784 0.383983 4.70601e-20)
(1.01972 0.366885 -5.41159e-20)
(1.00217 0.424533 -1.57553e-20)
(1.00401 0.403002 7.12225e-20)
(1.00636 0.383379 -3.46268e-20)
(1.00897 0.366181 9.95458e-21)
(0.989562 0.423835 3.22238e-20)
(0.991955 0.402182 5.35466e-20)
(0.994798 0.382417 -1.56772e-19)
(0.998146 0.365104 3.70612e-20)
(0.974509 0.445776 5.30726e-20)
(0.976925 0.422734 -6.57344e-20)
(0.979875 0.400991 3.87433e-20)
(0.983173 0.381082 1.8356e-19)
(0.987264 0.363617 1.19245e-19)
(0.958257 0.468861 -2.18478e-20)
(0.961143 0.444347 -8.75702e-20)
(0.96428 0.42122 -3.49453e-20)
(0.967793 0.399422 -1.12427e-19)
(0.971509 0.379358 6.95387e-20)
(0.976364 0.36167 -1.42268e-19)
(0.944044 0.467054 -2.19987e-20)
(0.947753 0.442465 -1.80053e-20)
(0.951642 0.41928 6.70779e-20)
(0.955727 0.397465 1.38741e-19)
(0.959858 0.37723 -2.32928e-19)
(0.965617 0.359228 1.66651e-19)
(0.925321 0.490889 -4.18055e-21)
(0.929798 0.46476 -3.83053e-21)
(0.934349 0.440121 1.25904e-19)
(0.939009 0.416902 -4.92437e-20)
(0.943678 0.395089 -1.01953e-19)
(0.948333 0.374652 -4.69258e-21)
(0.955296 0.356302 -2.41106e-19)
(0.910159 0.488132 -6.9407e-20)
(0.915534 0.461977 4.04411e-20)
(0.920933 0.437313 1.11511e-19)
(0.926368 0.414076 3.67464e-20)
(0.931647 0.392254 -2.05949e-19)
(0.937074 0.371486 -7.18071e-21)
(0.945364 0.352718 7.3386e-20)
(0.88865 0.512582 -4.11166e-20)
(0.894991 0.484851 -1.17817e-20)
(0.901267 0.458703 -1.23119e-19)
(0.907513 0.434045 -6.49309e-20)
(0.913706 0.410816 -7.30132e-20)
(0.919652 0.388987 2.4643e-19)
(0.926163 0.367721 -5.85917e-20)
(0.934815 0.346888 2.20885e-19)
(0.86505 0.53806 -1.27724e-19)
(0.872532 0.508735 5.82177e-20)
(0.879838 0.481043 9.66292e-20)
(0.887016 0.454941 3.91079e-20)
(0.8941 0.430326 1.11525e-19)
(0.901045 0.40714 5.57428e-20)
(0.907719 0.385351 -1.35668e-20)
(0.915181 0.364104 1.25366e-19)
(0.923834 0.343349 2.19569e-20)
(0.847935 0.533578 -6.27973e-20)
(0.856448 0.504321 -1.86467e-19)
(0.86472 0.47671 -1.13288e-20)
(0.8728 0.450691 -8.44186e-20)
(0.880719 0.426159 1.33476e-19)
(0.888417 0.403053 -2.07648e-19)
(0.895812 0.381325 -5.29265e-20)
(0.903965 0.36011 -8.12583e-20)
(0.912646 0.339368 -2.96403e-19)
(0.820891 0.559209 -1.9458e-20)
(0.830875 0.528483 -9.66266e-21)
(0.840421 0.49934 -3.43354e-20)
(0.849661 0.47185 -6.70532e-20)
(0.858643 0.445954 -9.8002e-20)
(0.867394 0.421543 5.48183e-20)
(0.875851 0.398556 1.68443e-19)
(0.883967 0.376931 -9.32983e-20)
(0.892743 0.355826 1.22786e-19)
(0.90164 0.335285 3.49156e-19)
(0.802819 0.553362 -3.0236e-19)
(0.813896 0.522775 -1.50741e-19)
(0.824476 0.49379 3.80881e-20)
(0.834683 0.466464 5.63462e-20)
(0.844564 0.44073 2.01886e-19)
(0.854145 0.41648 -2.84772e-19)
(0.863365 0.393649 8.4769e-20)
(0.872196 0.372165 5.03181e-20)
(0.881579 0.351227 -7.19437e-20)
(0.890813 0.330975 -2.63083e-19)
(0.771821 0.578531 -2.4912e-19)
(0.784853 0.546852 2.13513e-19)
(0.797023 0.516455 2.6404e-19)
(0.808636 0.487674 2.19403e-19)
(0.819809 0.460553 1.63724e-19)
(0.830587 0.435022 -3.54477e-19)
(0.840996 0.41097 -4.36755e-21)
(0.850979 0.388333 -9.65811e-20)
(0.860522 0.367029 3.76478e-19)
(0.870514 0.346306 -1.48025e-20)
(0.880157 0.326381 -1.87026e-19)
(0.752855 0.571158 2.1551e-19)
(0.767022 0.539683 5.06675e-21)
(0.780284 0.509524 9.09731e-20)
(0.792927 0.480993 -1.4378e-19)
(0.805061 0.45412 -1.80609e-19)
(0.816732 0.42883 4.60649e-19)
(0.827967 0.405014 1.86945e-19)
(0.838712 0.382607 -1.95377e-19)
(0.848966 0.361522 -2.23751e-19)
(0.859572 0.341056 -2.53984e-19)
(0.869674 0.321479 -2.44149e-20)
(0.734053 0.563073 1.23902e-19)
(0.749352 0.531857 4.93952e-20)
(0.763703 0.501987 -2.51228e-19)
(0.777371 0.473749 2.68189e-19)
(0.790462 0.447165 1.66397e-19)
(0.803022 0.422156 -6.39965e-20)
(0.815079 0.398614 -1.2628e-19)
(0.826584 0.376473 1.10803e-19)
(0.837548 0.355641 -1.95034e-19)
(0.848775 0.335467 -2.72837e-19)
(0.859366 0.316257 2.61797e-19)
(0.697445 0.585714 3.96682e-19)
(0.715443 0.554281 -2.01393e-19)
(0.731873 0.523378 2.49635e-19)
(0.747308 0.493846 -2.8993e-19)
(0.761994 0.465947 3.83263e-20)
(0.776034 0.439694 -1.16122e-19)
(0.789477 0.415004 8.60221e-20)
(0.802351 0.391772 8.18884e-20)
(0.814613 0.369931 -5.08331e-20)
(0.826285 0.349387 4.87848e-19)
(0.838137 0.329535 -6.73258e-20)
(0.849239 0.310705 -2.24767e-19)
(0.677925 0.575914 -2.88791e-19)
(0.697057 0.544786 4.22041e-19)
(0.714613 0.514252 -4.37142e-20)
(0.731123 0.485107 1.20685e-19)
(0.74682 0.457591 1.49861e-19)
(0.761801 0.431709 6.06053e-20)
(0.776118 0.407377 -4.13511e-19)
(0.789803 0.384491 9.49318e-20)
(0.802818 0.362983 8.76557e-20)
(0.815195 0.342757 -2.96164e-19)
(0.827672 0.323257 1.09958e-19)
(0.839299 0.304818 4.29142e-20)
(0.635787 0.594966 -4.31892e-20)
(0.658663 0.565359 -5.75543e-21)
(0.678926 0.534598 7.06356e-20)
(0.697599 0.504486 -1.17457e-19)
(0.715174 0.475775 -1.74122e-20)
(0.73187 0.448686 -4.65928e-19)
(0.747783 0.423216 -3.61093e-19)
(0.762966 0.399279 -6.16404e-20)
(0.777455 0.376773 -5.18431e-20)
(0.791216 0.35563 -5.82697e-20)
(0.804294 0.335755 -1.19598e-19)
(0.817394 0.316632 -1.39347e-19)
(0.829555 0.298597 -1.86933e-19)
(0.615749 0.583361 -8.51502e-20)
(0.639692 0.554058 -4.00206e-20)
(0.66108 0.523724 -4.12419e-19)
(0.680859 0.494088 -3.9414e-19)
(0.699487 0.465859 7.27497e-20)
(0.71717 0.43924 6.46482e-19)
(0.734003 0.41422 9.58202e-20)
(0.750041 0.390716 2.6221e-19)
(0.765324 0.368624 -4.122e-19)
(0.779824 0.347878 -9.79446e-20)
(0.793596 0.328382 4.90251e-19)
(0.807315 0.309661 2.17721e-19)
(0.820015 0.292042 9.00848e-19)
(0.596035 0.570954 -5.53045e-20)
(0.621044 0.542023 2.83483e-19)
(0.643547 0.512175 -1.8009e-19)
(0.664419 0.483066 1.31262e-19)
(0.684086 0.455365 3.04053e-19)
(0.702742 0.429258 -2.07953e-19)
(0.720482 0.404729 5.27781e-20)
(0.737363 0.381692 2.621e-19)
(0.753428 0.360048 3.31006e-19)
(0.768659 0.339729 -1.74617e-19)
(0.783117 0.320641 -9.93649e-20)
(0.797446 0.302345 1.53276e-19)
(0.810687 0.285156 -4.46373e-19)
(0.546654 0.582223 6.39214e-20)
(0.576681 0.557761 1.8092e-19)
(0.602751 0.529265 -2.708e-19)
(0.626357 0.499962 6.47567e-19)
(0.648307 0.47143 2.74039e-19)
(0.668996 0.444304 -9.13368e-20)
(0.688609 0.41875 -2.88411e-20)
(0.70724 0.394749 1.24753e-19)
(0.72495 0.372216 -3.48369e-19)
(0.741786 0.351052 2.90817e-20)
(0.757736 0.33119 -2.28049e-19)
(0.77287 0.312537 -1.01286e-19)
(0.787801 0.29469 -4.51501e-19)
(0.801581 0.277944 -1.96453e-19)
(0.526801 0.567975 -2.27097e-19)
(0.557723 0.543794 1.24334e-19)
(0.584845 0.5158 -7.59067e-20)
(0.609539 0.487097 -2.35878e-19)
(0.632548 0.459193 2.60876e-19)
(0.654241 0.432685 2.80759e-19)
(0.674792 0.407726 -5.83308e-22)
(0.694298 0.38429 -6.48609e-20)
(0.712822 0.362294 -3.69675e-20)
(0.730414 0.341642 2.77382e-19)
(0.747071 0.322266 2.47982e-19)
(0.76287 0.304074 6.99467e-20)
(0.778391 0.286698 4.77301e-19)
(0.792707 0.27041 1.56311e-19)
(0.507377 0.552901 -8.39938e-20)
(0.539194 0.529072 -1.41664e-19)
(0.567356 0.501641 -5.45389e-20)
(0.59312 0.473593 -8.58021e-21)
(0.617168 0.446366 -5.67834e-19)
(0.639843 0.42052 -7.27294e-19)
(0.661314 0.396195 -1.13259e-19)
(0.681675 0.373362 2.56922e-19)
(0.700996 0.351937 -1.0177e-19)
(0.71933 0.331827 -5.20265e-19)
(0.736679 0.312965 4.9198e-19)
(0.753129 0.295261 7.11081e-20)
(0.769229 0.278377 -1.99857e-19)
(0.784075 0.262562 3.15447e-19)
(0.450314 0.551916 9.62464e-20)
(0.488421 0.537023 3.37173e-19)
(0.521127 0.513613 -1.18387e-19)
(0.550315 0.486806 1.81385e-19)
(0.577127 0.459466 3.48626e-19)
(0.602192 0.432962 1.92272e-19)
(0.625827 0.407821 8.14246e-19)
(0.648195 0.384169 3.77113e-19)
(0.669393 0.361973 -3.07486e-20)
(0.689491 0.341152 -2.03117e-20)
(0.708549 0.321614 6.62407e-20)
(0.726576 0.303294 -5.45656e-19)
(0.743662 0.286102 -2.93358e-19)
(0.760325 0.269733 1.26555e-19)
(0.775695 0.254406 -4.39152e-19)
(0.431285 0.535153 7.30672e-20)
(0.469967 0.52036 -4.3217e-19)
(0.503556 0.497434 3.2993e-19)
(0.53375 0.471311 -1.53639e-19)
(0.561588 0.444731 -3.58047e-19)
(0.587643 0.418997 -8.74358e-20)
(0.612213 0.394602 -3.36477e-19)
(0.635456 0.371659 -7.07466e-19)
(0.657468 0.350136 6.14026e-20)
(0.678325 0.329951 5.69304e-19)
(0.698088 0.311015 -2.50384e-19)
(0.716775 0.293262 3.05617e-19)
(0.734481 0.276608 4.1437e-19)
(0.751692 0.260773 2.67222e-19)
(0.767576 0.24595 2.04614e-19)
(0.412788 0.517562 2.63496e-19)
(0.452051 0.502936 4.60484e-19)
(0.48651 0.480558 -5.62499e-19)
(0.51769 0.455174 4.47935e-19)
(0.546527 0.429406 3.60144e-19)
(0.573546 0.404486 -1.05179e-19)
(0.599025 0.380876 -5.57806e-20)
(0.623117 0.358681 2.0651e-19)
(0.64592 0.337863 -3.58597e-19)
(0.667513 0.318344 -4.82545e-19)
(0.687962 0.300038 1.84152e-19)
(0.70729 0.28288 -1.88769e-19)
(0.725598 0.266787 -2.2454e-19)
(0.743342 0.251506 -1.96312e-19)
(0.75973 0.237202 1.99195e-20)
(0.394862 0.499171 -4.57282e-19)
(0.434707 0.484774 -3.58559e-20)
(0.470022 0.463006 2.66749e-20)
(0.502161 0.438417 -4.64506e-20)
(0.531969 0.413508 -4.53148e-19)
(0.559923 0.389444 -2.07675e-20)
(0.586283 0.36666 -7.49544e-20)
(0.611198 0.345247 4.5647e-19)
(0.634767 0.325167 -1.43189e-19)
(0.657073 0.306344 -4.12594e-20)
(0.678186 0.288695 2.43827e-19)
(0.698136 0.272156 7.14796e-19)
(0.717027 0.256647 -7.21782e-20)
(0.735285 0.24194 -8.70304e-20)
(0.752165 0.228172 1.49118e-19)
(0.331174 0.480181 3.29205e-19)
(0.377542 0.480006 -1.95837e-19)
(0.417967 0.4659 -3.17472e-19)
(0.454118 0.4448 3.15429e-19)
(0.487191 0.42106 -1.06049e-19)
(0.517939 0.397057 2.98047e-19)
(0.546797 0.373891 1.37244e-19)
(0.574007 0.351969 -8.10817e-20)
(0.599716 0.331372 -3.10361e-19)
(0.624025 0.312062 3.88014e-19)
(0.64702 0.293964 -9.80851e-20)
(0.668775 0.276999 -4.28842e-19)
(0.689325 0.261103 -1.47008e-19)
(0.708779 0.246201 -4.67018e-20)
(0.727533 0.232086 7.3916e-19)
(0.744891 0.218869 -4.77505e-19)
(0.314406 0.460587 -2.43753e-19)
(0.360864 0.460096 4.84297e-19)
(0.401863 0.446339 8.76695e-20)
(0.438829 0.425965 2.40776e-19)
(0.472806 0.403124 1.79972e-19)
(0.50446 0.380072 -4.94947e-19)
(0.534188 0.357845 -2.61114e-19)
(0.562218 0.33682 4.87772e-19)
(0.588691 0.317072 -1.56746e-20)
(0.613712 0.298562 -4.02013e-19)
(0.63737 0.281217 1.03318e-19)
(0.659742 0.264961 5.01564e-19)
(0.680871 0.249731 -4.0811e-19)
(0.700866 0.235457 -1.66577e-19)
(0.720096 0.221953 -1.45975e-19)
(0.737917 0.209303 3.27372e-19)
(0.298297 0.44023 -3.31531e-19)
(0.344862 0.439471 -1.44666e-19)
(0.386424 0.42612 -6.15539e-20)
(0.424181 0.406526 -4.80427e-19)
(0.459028 0.384634 -3.67905e-19)
(0.491554 0.362575 4.91644e-19)
(0.522118 0.341324 2.74168e-19)
(0.550933 0.321232 -2.15654e-19)
(0.57814 0.302365 -2.51556e-19)
(0.603844 0.284683 2.73464e-19)
(0.628137 0.268118 -1.56109e-19)
(0.651101 0.252595 2.25941e-19)
(0.672785 0.238054 1.08683e-19)
(0.693299 0.224429 4.2506e-19)
(0.712984 0.211552 8.57965e-20)
(0.731254 0.199484 -3.87473e-19)
(0.282883 0.419143 -6.83765e-20)
(0.329567 0.418162 -1.951e-19)
(0.37168 0.405272 1.71339e-19)
(0.410199 0.38651 6.39513e-20)
(0.445882 0.365612 -1.92672e-19)
(0.479243 0.344588 1.29583e-19)
(0.510605 0.32435 -3.45457e-19)
(0.540171 0.305223 -7.71256e-20)
(0.568078 0.287267 3.18847e-19)
(0.594435 0.270442 1.14249e-19)
(0.619336 0.254681 1.79856e-19)
(0.642866 0.239915 -3.41797e-19)
(0.66508 0.226085 -1.32461e-19)
(0.686089 0.213128 -4.47714e-20)
(0.706209 0.200895 6.27748e-20)
(0.724908 0.189425 3.56526e-19)
(0.268198 0.397359 -1.53e-19)
(0.315009 0.396201 3.37114e-19)
(0.357658 0.383824 5.40321e-19)
(0.396908 0.365943 1.55074e-19)
(0.43339 0.346084 2.11534e-19)
(0.467547 0.326134 -2.58091e-21)
(0.499669 0.306943 1.01828e-19)
(0.529949 0.288813 3.59821e-19)
(0.558523 0.271796 -5.29162e-20)
(0.585501 0.255854 -6.50141e-19)
(0.61098 0.240922 5.76513e-21)
(0.635048 0.226935 3.67163e-20)
(0.657766 0.213836 3.41482e-20)
(0.679247 0.201567 -2.11443e-19)
(0.699779 0.189994 -1.96059e-19)
(0.71889 0.179136 -3.84116e-19)
(0.203148 0.357961 -1.02778e-19)
(0.254272 0.374915 2.04445e-19)
(0.301218 0.373623 2.01936e-19)
(0.344383 0.361806 -2.00989e-19)
(0.384332 0.344854 2.46506e-20)
(0.421573 0.326076 -1.33185e-19)
(0.456484 0.307236 3.36305e-20)
(0.489328 0.289126 -4.06604e-21)
(0.520285 0.272022 -1.6089e-19)
(0.54949 0.255972 -7.23805e-20)
(0.577055 0.240937 4.32359e-19)
(0.603081 0.226858 -3.26054e-19)
(0.627659 0.213671 2.18944e-19)
(0.650855 0.201322 8.952e-20)
(0.672781 0.189758 -2.05979e-20)
(0.693704 0.17886 6.71502e-21)
(0.713207 0.168629 2.11735e-19)
(0.190504 0.336147 2.85936e-19)
(0.241136 0.351847 -1.58641e-19)
(0.288221 0.350461 -2.8065e-19)
(0.33188 0.339252 -1.70686e-19)
(0.372493 0.323273 -3.33023e-19)
(0.410451 0.305615 2.74168e-19)
(0.446075 0.28792 -2.25258e-19)
(0.479597 0.270921 4.84596e-20)
(0.511192 0.254872 3.4302e-20)
(0.540992 0.239814 -1.49308e-19)
(0.569111 0.225711 1.74405e-19)
(0.595652 0.212505 2.64266e-19)
(0.620711 0.200138 -2.36258e-19)
(0.644357 0.188559 -2.70686e-19)
(0.666703 0.177716 5.20417e-19)
(0.687992 0.167507 -4.69638e-19)
(0.707866 0.157917 1.7197e-19)
(0.178635 0.31373 -2.38918e-19)
(0.228819 0.328194 5.08159e-20)
(0.276043 0.326752 1.11382e-19)
(0.320173 0.316194 -3.91464e-19)
(0.361411 0.301229 6.40391e-20)
(0.400044 0.284728 -2.67762e-19)
(0.436335 0.268211 2.29054e-19)
(0.470494 0.252352 5.4681e-20)
(0.502686 0.237383 -2.50495e-19)
(0.533043 0.223342 -5.69124e-20)
(0.56168 0.210192 1.36036e-19)
(0.588705 0.197881 6.45235e-20)
(0.614213 0.186353 -1.89759e-20)
(0.638282 0.17556 1.5703e-20)
(0.66102 0.165455 -4.58282e-19)
(0.682652 0.155948 3.27315e-19)
(0.702875 0.147011 3.05134e-19)
(0.167569 0.29075 2.18671e-19)
(0.217346 0.303994 1.49818e-19)
(0.264709 0.302531 2.85273e-19)
(0.309282 0.292665 3.96472e-20)
(0.351105 0.278753 2.78217e-20)
(0.390367 0.263444 -2.02953e-21)
(0.427281 0.248134 -2.92846e-19)
(0.462033 0.233443 1.54479e-19)
(0.49478 0.21958 -2.50218e-19)
(0.525655 0.206577 1.65904e-19)
(0.554776 0.194402 -2.67633e-19)
(0.58225 0.183003 -1.57879e-19)
(0.608177 0.172332 3.20986e-19)
(0.632637 0.162341 2.86432e-20)
(0.655741 0.152989 7.23684e-20)
(0.677692 0.144197 2.95216e-20)
(0.698241 0.135926 -3.36164e-19)
(0.157333 0.267249 -1.46598e-19)
(0.206742 0.279287 9.32343e-20)
(0.25424 0.277838 -2.10475e-19)
(0.299228 0.268701 1.60985e-19)
(0.341594 0.255877 2.28304e-20)
(0.381439 0.241791 1.37157e-19)
(0.418927 0.227718 -5.25743e-21)
(0.454227 0.214218 -1.36047e-19)
(0.487488 0.201484 1.34519e-19)
(0.518842 0.189541 -3.49028e-19)
(0.548408 0.178358 4.89521e-19)
(0.576297 0.167891 1.88204e-19)
(0.60261 0.158092 -3.96004e-19)
(0.627433 0.148919 4.00489e-20)
(0.650874 0.140334 2.60188e-19)
(0.673119 0.132267 -3.69604e-19)
(0.693971 0.124674 -1.79655e-21)
(0.147951 0.243267 9.64616e-20)
(0.197029 0.254115 -7.9362e-20)
(0.244658 0.252709 -3.98407e-20)
(0.290028 0.244336 -8.08374e-20)
(0.332894 0.232633 -1.03579e-19)
(0.373274 0.2198 -2.89057e-19)
(0.411289 0.206988 1.26793e-19)
(0.44709 0.194704 -1.7796e-19)
(0.48082 0.183119 3.28481e-19)
(0.512612 0.172254 2.22991e-19)
(0.542586 0.162083 -3.95195e-19)
(0.570855 0.152563 -3.99242e-19)
(0.597522 0.143651 1.91196e-19)
(0.622677 0.13531 -2.14345e-19)
(0.646426 0.127504 -2.6571e-20)
(0.668939 0.120173 2.11692e-19)
(0.690069 0.113269 -3.93528e-19)
(0.139443 0.218849 -1.55212e-19)
(0.188229 0.228518 -2.23665e-19)
(0.235979 0.227184 3.29721e-19)
(0.281701 0.219607 4.58584e-20)
(0.325021 0.209055 1.66671e-19)
(0.365885 0.197501 1.76684e-19)
(0.404378 0.185974 -4.20069e-20)
(0.440633 0.174927 2.49803e-19)
(0.474789 0.164509 -1.48057e-19)
(0.506977 0.154741 -1.92858e-19)
(0.537321 0.145597 3.09008e-19)
(0.565933 0.137039 3.52852e-19)
(0.59292 0.129028 -4.07143e-19)
(0.618375 0.12153 5.61104e-20)
(0.642404 0.114514 -3.75708e-20)
(0.66516 0.10793 -1.32552e-19)
(0.686542 0.101724 5.28156e-20)
(0.13183 0.194038 1.70879e-19)
(0.180359 0.20254 1.23927e-19)
(0.228223 0.201303 -1.78188e-19)
(0.27426 0.19455 8.40977e-20)
(0.317988 0.185176 9.5453e-20)
(0.359286 0.174924 -3.01617e-19)
(0.398205 0.164704 1.48575e-19)
(0.434866 0.154911 1.68859e-20)
(0.469402 0.145679 1.43735e-19)
(0.501945 0.137023 -1.87267e-19)
(0.532619 0.12892 2.3608e-20)
(0.561539 0.121337 -1.48572e-20)
(0.588812 0.11424 2.06993e-20)
(0.614535 0.107597 1.2692e-19)
(0.638813 0.101382 2.27605e-20)
(0.661786 0.0955518 -2.81987e-20)
(0.683394 0.0900546 3.49983e-21)
(0.12513 0.168878 -2.56585e-20)
(0.173437 0.176224 1.52314e-19)
(0.221402 0.175106 -1.93341e-19)
(0.267719 0.169202 4.84827e-20)
(0.311806 0.16103 -1.72438e-19)
(0.353487 0.152102 4.24925e-22)
(0.392782 0.143207 -2.79419e-19)
(0.4298 0.134686 -2.04444e-19)
(0.46467 0.126653 1.0997e-19)
(0.497525 0.119123 2.91066e-20)
(0.528488 0.112075 -7.76852e-20)
(0.557678 0.105479 1.04528e-19)
(0.585203 0.0993057 7.67663e-20)
(0.611162 0.0935281 1.29225e-19)
(0.635659 0.0881233 6.38586e-20)
(0.658822 0.0830548 1.4722e-19)
(0.68063 0.0782736 5.96527e-20)
(0.0734733 0.126019 2.49062e-19)
(0.119359 0.143414 -9.77071e-20)
(0.167476 0.149614 -4.50301e-20)
(0.215532 0.148634 -8.61048e-20)
(0.26209 0.143601 8.36424e-21)
(0.306488 0.136651 6.14089e-20)
(0.348498 0.129066 1.91119e-19)
(0.388117 0.121512 2.35327e-19)
(0.425441 0.114277 9.17378e-20)
(0.4606 0.107458 -2.21804e-20)
(0.493722 0.101065 -4.80822e-20)
(0.524936 0.0950825 -1.21793e-19)
(0.554358 0.089484 1.48261e-20)
(0.5821 0.0842444 -1.44523e-20)
(0.608262 0.0793407 -1.05652e-19)
(0.632947 0.0747539 -1.08857e-20)
(0.656274 0.0704539 -2.12558e-19)
(0.678253 0.066396 4.15543e-21)
(0.0691745 0.103444 -1.0191e-19)
(0.114528 0.117692 -5.39595e-21)
(0.16249 0.122754 -1.16328e-20)
(0.210622 0.121929 5.75061e-20)
(0.257384 0.117786 -1.81188e-19)
(0.302042 0.112076 -7.1332e-20)
(0.344327 0.105848 -1.22355e-19)
(0.384217 0.0996486 4.8916e-21)
(0.421799 0.0937125 4.11818e-20)
(0.457197 0.0881179 9.2665e-20)
(0.490545 0.0828737 -1.84489e-20)
(0.521967 0.0779656 8.17653e-20)
(0.551583 0.0733731 -4.02679e-20)
(0.579506 0.0690752 -1.46429e-19)
(0.605838 0.0650529 -1.5543e-20)
(0.630681 0.0612908 -3.40467e-20)
(0.654144 0.0577649 1.62252e-19)
(0.676268 0.0544364 -2.79441e-20)
(0.0657221 0.0806664 -2.38434e-20)
(0.110651 0.0917585 5.2666e-20)
(0.158488 0.0956886 4.12129e-20)
(0.206683 0.0950331 1.17655e-20)
(0.253609 0.0917947 1.39837e-19)
(0.298476 0.0873384 -3.79574e-20)
(0.340983 0.0824816 3.402e-20)
(0.381089 0.0776478 4.06148e-20)
(0.418877 0.0730204 2.83478e-20)
(0.454469 0.0686594 -7.73099e-20)
(0.487996 0.0645719 1.02341e-19)
(0.519586 0.0607464 7.73904e-20)
(0.549358 0.057167 -3.05989e-20)
(0.577426 0.0538173 1.24783e-19)
(0.603894 0.0506825 1.96506e-19)
(0.628863 0.0477507 -2.9012e-20)
(0.652436 0.0450035 7.36421e-20)
(0.674676 0.0424094 -3.3449e-20)
(0.0631252 0.0577316 1.61916e-20)
(0.107734 0.06566 -8.33193e-20)
(0.155479 0.0684634 4.31858e-20)
(0.203722 0.0679875 1.2756e-19)
(0.250772 0.0656659 -1.02982e-19)
(0.295796 0.0624748 -5.9769e-21)
(0.338469 0.0589986 2.68086e-20)
(0.378739 0.0555396 6.00261e-20)
(0.416682 0.0522286 5.66678e-21)
(0.452419 0.0491086 -1.94464e-20)
(0.486081 0.0461842 -3.17067e-20)
(0.517797 0.0434474 -3.36619e-20)
(0.547686 0.0408867 1.29523e-20)
(0.575864 0.0384904 1.30734e-20)
(0.602434 0.0362478 -6.61466e-20)
(0.627498 0.0341505 -6.50475e-21)
(0.651153 0.0321858 -1.5906e-19)
(0.67348 0.03033 6.6611e-20)
(0.0613902 0.0346841 -7.69298e-21)
(0.105787 0.0394433 3.53168e-20)
(0.15347 0.0411238 -2.07128e-20)
(0.201745 0.0408352 -6.53707e-20)
(0.248878 0.0394388 3.17763e-20)
(0.294007 0.037521 -7.43065e-22)
(0.336791 0.0354324 -9.25733e-20)
(0.37717 0.0333545 5.64378e-20)
(0.415217 0.0313657 -3.82473e-20)
(0.45105 0.0294916 3.04493e-20)
(0.484803 0.0277351 -2.51587e-20)
(0.516603 0.0260912 1.32768e-20)
(0.54657 0.0245532 2.41989e-20)
(0.57482 0.023114 -7.12279e-20)
(0.601459 0.0217671 6.75766e-21)
(0.626587 0.0205075 -3.19972e-21)
(0.650297 0.0193276 4.03954e-20)
(0.672682 0.018213 9.11265e-22)
(0.0605215 0.0115688 5.30771e-21)
(0.104812 0.0131556 6.6477e-21)
(0.152464 0.0137155 -1.32353e-20)
(0.200756 0.0136188 2.55183e-20)
(0.24793 0.0131527 -1.01079e-20)
(0.293112 0.0125129 3.1635e-20)
(0.335951 0.0118162 2.91105e-20)
(0.376385 0.0111232 -3.64168e-20)
(0.414483 0.0104599 -1.34708e-20)
(0.450366 0.00983482 1.84424e-20)
(0.484163 0.00924902 -1.29683e-20)
(0.516005 0.00870079 -1.66605e-20)
(0.546012 0.00818786 1.49337e-21)
(0.574298 0.00770786 1.72895e-20)
(0.600971 0.00725868 3.38347e-20)
(0.626131 0.00683861 2.53002e-21)
(0.649869 0.00644515 3.77652e-21)
(0.672283 0.00607343 1.66775e-20)
(0.0605216 -0.011569 4.2251e-21)
(0.104812 -0.0131558 7.87451e-21)
(0.152464 -0.0137157 -6.6658e-21)
(0.200756 -0.013619 2.41298e-20)
(0.24793 -0.013153 -1.34145e-20)
(0.293112 -0.0125132 3.49113e-20)
(0.335951 -0.0118166 2.14537e-20)
(0.376385 -0.0111235 -2.88528e-20)
(0.414483 -0.0104602 -1.05919e-20)
(0.450366 -0.00983514 1.31867e-20)
(0.484163 -0.00924932 -1.09848e-20)
(0.516005 -0.00870108 -2.14251e-20)
(0.546012 -0.00818813 5.70749e-21)
(0.574299 -0.00770812 1.53767e-20)
(0.600971 -0.00725892 3.47301e-20)
(0.626131 -0.00683883 2.98076e-21)
(0.649869 -0.00644535 2.63378e-21)
(0.672283 -0.00607362 1.77672e-20)
(0.0613902 -0.0346842 2.86926e-20)
(0.105787 -0.0394434 2.2077e-20)
(0.15347 -0.041124 -1.79211e-20)
(0.201745 -0.0408355 -1.06886e-19)
(0.248878 -0.0394391 6.48945e-20)
(0.294007 -0.0375213 -1.07556e-20)
(0.336791 -0.0354327 -5.06345e-20)
(0.37717 -0.0333548 1.77256e-23)
(0.415217 -0.031366 -2.80373e-20)
(0.45105 -0.0294919 3.66872e-20)
(0.484803 -0.0277354 -3.68547e-20)
(0.516603 -0.0260915 3.11548e-20)
(0.54657 -0.0245535 1.17504e-20)
(0.57482 -0.0231142 -5.65344e-20)
(0.601459 -0.0217673 1.69798e-20)
(0.626587 -0.0205077 -2.78894e-21)
(0.650297 -0.0193278 2.98125e-20)
(0.672682 -0.0182132 3.06377e-21)
(0.0631252 -0.0577318 -4.33756e-20)
(0.107734 -0.0656602 -6.77391e-20)
(0.155479 -0.0684636 7.79613e-20)
(0.203722 -0.0679878 1.19483e-19)
(0.250772 -0.0656662 -1.06982e-19)
(0.295796 -0.0624751 2.8247e-20)
(0.338469 -0.0589989 1.37446e-20)
(0.378739 -0.0555399 6.8769e-20)
(0.416682 -0.052229 -1.85866e-20)
(0.452419 -0.0491089 -6.41672e-20)
(0.486081 -0.0461845 1.31755e-20)
(0.517797 -0.0434477 -4.93862e-20)
(0.547686 -0.0408869 3.93744e-20)
(0.575864 -0.0384906 1.11877e-20)
(0.602434 -0.0362481 -8.79015e-20)
(0.627498 -0.0341508 5.23618e-21)
(0.651153 -0.032186 -1.28186e-19)
(0.67348 -0.0303302 2.88041e-20)
(0.0657222 -0.0806665 2.19004e-20)
(0.110651 -0.0917587 2.96814e-20)
(0.158488 -0.0956888 -5.4728e-20)
(0.206683 -0.0950333 1.02223e-20)
(0.253609 -0.091795 1.78107e-19)
(0.298476 -0.0873387 1.81715e-20)
(0.340983 -0.0824819 3.68916e-20)
(0.38109 -0.0776481 5.04369e-21)
(0.418877 -0.0730207 6.18691e-20)
(0.454469 -0.0686597 -6.8687e-20)
(0.487996 -0.0645722 9.73152e-20)
(0.519586 -0.0607467 2.8841e-21)
(0.549358 -0.0571673 -2.45193e-20)
(0.577426 -0.0538175 1.87519e-19)
(0.603894 -0.0506828 1.4576e-19)
(0.628863 -0.0477509 -7.54888e-20)
(0.652436 -0.0450037 9.99087e-20)
(0.674676 -0.0424096 -2.20762e-21)
(0.0691745 -0.103444 -1.54006e-19)
(0.114528 -0.117692 6.77271e-21)
(0.16249 -0.122754 -2.77379e-20)
(0.210622 -0.12193 -4.50478e-21)
(0.257384 -0.117786 -9.03538e-20)
(0.302042 -0.112076 -1.04681e-19)
(0.344327 -0.105849 -4.36936e-20)
(0.384217 -0.0996489 -1.50375e-19)
(0.421799 -0.0937129 1.68278e-19)
(0.457198 -0.0881182 3.45507e-20)
(0.490545 -0.082874 -6.98826e-20)
(0.521967 -0.0779659 1.19127e-19)
(0.551583 -0.0733733 -5.1701e-20)
(0.579506 -0.0690754 -1.17391e-19)
(0.605838 -0.0650531 -2.76893e-20)
(0.630681 -0.061291 -3.68328e-20)
(0.654144 -0.0577651 5.92058e-20)
(0.676268 -0.0544366 -4.15268e-21)
(0.0734733 -0.126019 9.74979e-21)
(0.119359 -0.143414 -2.39111e-20)
(0.167476 -0.149614 -6.73296e-20)
(0.215532 -0.148634 -3.12451e-20)
(0.262091 -0.143602 -5.59018e-20)
(0.306488 -0.136652 3.93835e-20)
(0.348498 -0.129066 2.33335e-19)
(0.388117 -0.121512 2.02804e-19)
(0.425442 -0.114277 1.27367e-19)
(0.4606 -0.107458 -4.74939e-20)
(0.493723 -0.101066 2.64532e-20)
(0.524936 -0.0950828 -1.94811e-19)
(0.554358 -0.0894842 6.7574e-20)
(0.5821 -0.0842446 -5.35168e-20)
(0.608262 -0.079341 -7.56211e-20)
(0.632947 -0.0747541 4.01781e-20)
(0.656274 -0.0704541 -3.41531e-19)
(0.678253 -0.0663962 1.23046e-19)
(0.12513 -0.168878 4.87339e-20)
(0.173437 -0.176224 -2.12522e-20)
(0.221402 -0.175106 -3.22733e-20)
(0.267719 -0.169202 -1.0635e-19)
(0.311807 -0.16103 -2.23812e-20)
(0.353487 -0.152103 -9.90654e-21)
(0.392782 -0.143207 -3.63235e-19)
(0.4298 -0.134686 -2.64929e-19)
(0.46467 -0.126654 1.54616e-19)
(0.497525 -0.119123 2.25906e-20)
(0.528488 -0.112075 5.79704e-20)
(0.557678 -0.105479 -5.54425e-20)
(0.585203 -0.0993059 2.82228e-19)
(0.611162 -0.0935283 5.49951e-20)
(0.635659 -0.0881235 8.19825e-20)
(0.658822 -0.0830549 1.92037e-19)
(0.68063 -0.0782738 -1.0251e-19)
(0.13183 -0.194038 6.29587e-20)
(0.180359 -0.20254 5.63716e-20)
(0.228223 -0.201303 -8.62785e-20)
(0.27426 -0.19455 1.48951e-19)
(0.317988 -0.185176 2.11821e-20)
(0.359286 -0.174925 -2.69714e-19)
(0.398206 -0.164704 1.69601e-19)
(0.434866 -0.154912 6.76242e-20)
(0.469402 -0.145679 -7.8494e-20)
(0.501946 -0.137023 2.11275e-20)
(0.532619 -0.12892 9.76792e-21)
(0.561539 -0.121337 -7.99744e-20)
(0.588812 -0.11424 2.02858e-19)
(0.614535 -0.107597 -7.1444e-20)
(0.638813 -0.101382 5.14376e-20)
(0.661786 -0.095552 1.09268e-19)
(0.683394 -0.0900548 -4.05636e-20)
(0.139443 -0.218849 -8.60357e-20)
(0.188229 -0.228518 -3.09877e-19)
(0.23598 -0.227184 2.08667e-19)
(0.281701 -0.219607 1.00097e-19)
(0.325021 -0.209055 1.71603e-19)
(0.365885 -0.197501 1.84834e-19)
(0.404378 -0.185975 1.17209e-19)
(0.440633 -0.174927 1.54269e-19)
(0.474789 -0.164509 -2.77608e-19)
(0.506977 -0.154741 3.09486e-20)
(0.537321 -0.145597 6.0229e-20)
(0.565933 -0.137039 3.10143e-19)
(0.592921 -0.129028 -1.68507e-19)
(0.618375 -0.12153 -4.2462e-20)
(0.642404 -0.114515 -9.71485e-20)
(0.66516 -0.10793 -6.31358e-20)
(0.686542 -0.101725 1.63953e-19)
(0.147951 -0.243268 2.28773e-21)
(0.197029 -0.254115 -3.43071e-20)
(0.244658 -0.252709 1.34939e-19)
(0.290029 -0.244336 -2.9127e-19)
(0.332895 -0.232634 -1.66226e-20)
(0.373274 -0.2198 -2.58911e-19)
(0.411289 -0.206989 1.46277e-19)
(0.44709 -0.194705 -2.34745e-19)
(0.480821 -0.183119 2.25738e-19)
(0.512613 -0.172255 2.00524e-19)
(0.542587 -0.162084 -1.63371e-19)
(0.570855 -0.152564 -5.64585e-19)
(0.597522 -0.143652 3.00827e-19)
(0.622677 -0.13531 -2.41535e-19)
(0.646426 -0.127504 -5.25563e-20)
(0.668939 -0.120173 1.94582e-19)
(0.690069 -0.113269 -1.58976e-19)
(0.157333 -0.267249 -1.29605e-19)
(0.206742 -0.279287 1.63531e-19)
(0.254241 -0.277838 -3.11034e-19)
(0.299228 -0.268701 5.75155e-20)
(0.341594 -0.255877 -6.25242e-21)
(0.381439 -0.241791 3.55923e-19)
(0.418928 -0.227718 -2.20989e-19)
(0.454227 -0.214219 -4.66528e-20)
(0.487488 -0.201484 6.0871e-20)
(0.518842 -0.189541 -7.67111e-20)
(0.548408 -0.178359 2.96828e-19)
(0.576297 -0.167892 1.64128e-19)
(0.60261 -0.158092 -3.28944e-19)
(0.627433 -0.148919 1.77802e-19)
(0.650874 -0.140334 2.439e-19)
(0.673119 -0.132267 -4.45068e-19)
(0.693971 -0.124674 1.68055e-21)
(0.16757 -0.29075 1.28118e-19)
(0.217346 -0.303994 1.77134e-19)
(0.264709 -0.302532 1.01389e-19)
(0.309282 -0.292666 4.11653e-19)
(0.351105 -0.278753 -5.21959e-20)
(0.390367 -0.263444 1.6752e-19)
(0.427281 -0.248134 -5.844e-19)
(0.462033 -0.233443 3.32845e-19)
(0.49478 -0.21958 -2.05065e-19)
(0.525656 -0.206577 5.99082e-20)
(0.554776 -0.194402 -3.21403e-19)
(0.58225 -0.183004 -2.54287e-20)
(0.608177 -0.172332 2.58048e-19)
(0.632637 -0.162341 4.29759e-20)
(0.655742 -0.15299 -1.26658e-20)
(0.677692 -0.144197 2.13688e-20)
(0.698241 -0.135926 -2.82603e-19)
(0.178635 -0.31373 -1.78224e-19)
(0.228819 -0.328194 1.4574e-20)
(0.276044 -0.326752 1.59059e-19)
(0.320173 -0.316194 -3.57935e-19)
(0.361411 -0.301229 3.75713e-20)
(0.400044 -0.284728 -4.19231e-19)
(0.436335 -0.268211 4.63324e-19)
(0.470494 -0.252352 -1.21407e-19)
(0.502686 -0.237384 -1.37058e-19)
(0.533043 -0.223342 3.91508e-21)
(0.561681 -0.210192 1.5212e-21)
(0.588705 -0.197881 2.41424e-19)
(0.614214 -0.186353 -3.54645e-20)
(0.638282 -0.17556 -3.05097e-19)
(0.66102 -0.165455 -3.7687e-19)
(0.682652 -0.155948 4.38044e-19)
(0.702875 -0.147012 2.75492e-19)
(0.190504 -0.336147 2.06705e-19)
(0.241136 -0.351848 -3.18987e-19)
(0.288221 -0.350462 -3.02431e-19)
(0.331881 -0.339252 1.20965e-19)
(0.372493 -0.323273 -5.04101e-19)
(0.410452 -0.305615 5.05399e-19)
(0.446075 -0.28792 -2.20052e-19)
(0.479598 -0.270921 -2.2182e-19)
(0.511192 -0.254872 1.98486e-20)
(0.540992 -0.239814 -4.41818e-22)
(0.569111 -0.225711 -2.77788e-20)
(0.595653 -0.212505 1.85642e-19)
(0.620711 -0.200138 -1.75726e-19)
(0.644357 -0.188559 9.05761e-20)
(0.666703 -0.177717 1.95672e-19)
(0.687992 -0.167507 -2.44568e-19)
(0.707866 -0.157917 -5.00809e-20)
(0.203148 -0.357961 -2.97147e-20)
(0.254272 -0.374915 2.25038e-19)
(0.301218 -0.373623 2.01772e-19)
(0.344383 -0.361807 -3.16638e-19)
(0.384333 -0.344855 1.7099e-19)
(0.421573 -0.326077 -1.31262e-19)
(0.456485 -0.307236 -8.7606e-21)
(0.489328 -0.289126 3.3081e-20)
(0.520285 -0.272022 -7.87191e-20)
(0.54949 -0.255972 1.56504e-19)
(0.577055 -0.240938 -8.52708e-20)
(0.603081 -0.226858 -2.51842e-19)
(0.627659 -0.213671 3.57773e-19)
(0.650856 -0.201323 2.21509e-19)
(0.672782 -0.189758 -2.83307e-19)
(0.693704 -0.17886 1.64189e-19)
(0.713207 -0.168629 2.38088e-19)
(0.268198 -0.39736 4.32775e-20)
(0.315009 -0.396202 1.59728e-19)
(0.357658 -0.383824 3.17096e-19)
(0.396909 -0.365943 2.3864e-19)
(0.43339 -0.346085 4.58804e-19)