/*--------------------------------*- C++ -*----------------------------------*\
  =========                 |
  \\      /  F ield         | OpenFOAM: The Open Source CFD Toolbox
   \\    /   O peration     | Website:  https://openfoam.org
    \\  /    A nd           | Version:  7
     \\/     M anipulation  |
\*---------------------------------------------------------------------------*/
FoamFile
{
    version     2.0;
    format      ascii;
    class       volVectorField;
    location    "15";
    object      U;
}
// * * * * * * * * * * * * * * * * * * * * * * * * * * * * * * * * * * * * * //

dimensions      [0 1 -1 0 0 0 0];

internalField   nonuniform List<vector> 
3275
(
(0.0192529 -0.00823932 6.28648e-20)
(0.0631298 -0.0227458 4.82404e-20)
(0.0219778 -0.00868944 -1.81615e-20)
(0.0709361 -0.0236152 -2.0009e-19)
(0.127104 -0.033233 1.59483e-19)
(0.0248541 -0.00902083 5.03305e-20)
(0.0791197 -0.0241381 1.95541e-19)
(0.140274 -0.0333953 1.2446e-19)
(0.207128 -0.0383064 -1.65951e-19)
(0.278907 -0.0393194 -2.66563e-20)
(0.027874 -0.00921981 -7.25645e-20)
(0.0876542 -0.0242794 9.22395e-20)
(0.153924 -0.0329452 -7.14132e-20)
(0.225496 -0.0368789 -1.11849e-19)
(0.301565 -0.0366172 7.77446e-20)
(0.381297 -0.0325588 -1.46499e-19)
(0.463737 -0.025198 8.84325e-20)
(0.031028 -0.00927312 6.97583e-20)
(0.0965085 -0.0240059 4.46953e-21)
(0.167998 -0.0318367 2.65407e-20)
(0.24432 -0.0345762 -7.36848e-20)
(0.324641 -0.032853 1.73356e-19)
(0.408078 -0.0271495 -6.28011e-20)
(0.49362 -0.0180449 -1.67743e-19)
(0.580162 -0.00613829 -5.33486e-20)
(0.666506 0.00794703 -2.77066e-20)
(0.0343048 -0.00916802 -1.04533e-19)
(0.105647 -0.0232864 8.65391e-20)
(0.182435 -0.0300281 -7.13059e-20)
(0.263513 -0.0313525 8.06471e-20)
(0.34802 -0.0279834 -5.68935e-20)
(0.435029 -0.0204903 8.07519e-20)
(0.523478 -0.00954038 2.52235e-19)
(0.612203 0.00418273 1.35437e-19)
(0.699956 0.0199769 9.63593e-20)
(0.785426 0.0371188 -1.48419e-19)
(0.867279 0.0548725 -1.25904e-19)
(0.0376913 -0.00889248 -6.31904e-21)
(0.115029 -0.0220926 -9.16418e-20)
(0.197168 -0.0274825 2.50332e-20)
(0.282979 -0.0271693 -6.60965e-20)
(0.37158 -0.0219748 5.90823e-20)
(0.462004 -0.0125582 2.83961e-20)
(0.553143 0.000322494 1.1883e-20)
(0.643784 0.0158979 4.12208e-20)
(0.73264 0.0333869 3.72861e-21)
(0.818374 0.0519983 9.03115e-20)
(0.899654 0.0709439 -9.56914e-20)
(0.975197 0.0894673 -3.09082e-20)
(1.04384 0.10694 -2.849e-20)
(0.0411728 -0.00843537 2.26323e-20)
(0.12461 -0.0203988 -1.0649e-20)
(0.212122 -0.0241683 5.19961e-20)
(0.302615 -0.0219961 4.02904e-20)
(0.395191 -0.0148038 -1.35759e-19)
(0.488849 -0.00334307 5.75651e-20)
(0.582442 0.0115363 -1.30189e-19)
(0.67472 0.0289783 -1.46708e-19)
(0.764367 0.0481244 -8.51956e-20)
(0.850042 0.0681186 -1.76201e-19)
(0.930431 0.0881259 8.53489e-21)
(1.00431 0.107365 5.84419e-20)
(1.07059 0.125196 7.63979e-20)
(1.12838 0.140927 6.89327e-20)
(1.1767 0.153144 -5.19189e-12)
(0.0447324 -0.00778657 3.42063e-20)
(0.134342 -0.0181829 -1.0863e-19)
(0.227217 -0.0200599 -9.79461e-20)
(0.322313 -0.0158108 1.60337e-20)
(0.418719 -0.00645794 6.91898e-20)
(0.515407 0.00715293 -1.24698e-20)
(0.611201 0.0240796 -1.33662e-20)
(0.704826 0.0433806 6.25147e-20)
(0.794953 0.0641226 1.56974e-19)
(0.880252 0.08539 1.08459e-19)
(0.959451 0.106308 -6.52216e-21)
(1.0314 0.12608 5.96009e-20)
(1.09513 0.144065 -5.12629e-20)
(1.14987 0.159617 -2.78587e-20)
(1.19488 0.171567 3.49405e-20)
(0.0483517 -0.00693726 -9.99483e-20)
(0.144171 -0.0154269 1.16518e-19)
(0.242369 -0.0151383 -5.09928e-20)
(0.341958 -0.00860006 3.13401e-21)
(0.442023 0.00306424 6.31654e-20)
(0.541519 0.0189146 -5.61232e-20)
(0.639247 0.0379172 1.28423e-19)
(0.733922 0.0590474 4.49543e-20)
(0.824219 0.0813019 -1.06871e-19)
(0.908837 0.103712 1.75933e-20)
(0.986568 0.125374 5.10604e-20)
(1.05636 0.145483 -5.17451e-20)
(1.11736 0.163412 1.0948e-19)
(1.16898 0.178571 -2.85709e-20)
(1.21067 0.190029 -2.20591e-20)
(0.0520106 -0.00588005 8.48634e-20)
(0.15404 -0.0121166 -2.47028e-20)
(0.257488 -0.0093912 3.10679e-20)
(0.361432 -0.000360256 -6.2262e-20)
(0.464963 0.0137527 3.82402e-20)
(0.567023 0.0319141 1.72923e-21)
(0.666408 0.0530005 -9.18006e-20)
(0.761833 0.0759086 -1.26994e-19)
(0.851995 0.0995711 3.75175e-20)
(0.935645 0.122976 -1.66766e-20)
(1.01165 0.145198 -6.34577e-20)
(1.07909 0.165443 -3.62041e-21)
(1.13724 0.183104 3.05851e-20)
(1.18568 0.197662 -3.69818e-20)
(1.22408 0.208416 6.8503e-20)
(0.0556874 -0.00460921 -7.96605e-20)
(0.16389 -0.00824303 -2.50097e-20)
(0.272481 -0.00281402 3.2383e-20)
(0.380614 0.00890264 4.90115e-20)
(0.487392 0.025586 -2.12852e-20)
(0.591759 0.0461107 -2.23334e-20)
(0.692514 0.0692681 3.90507e-20)
(0.788391 0.0938816 9.03763e-20)
(0.878126 0.118828 -4.3187e-20)
(0.960538 0.143063 -1.58482e-20)
(1.0346 0.165654 -3.37257e-20)
(1.09951 0.185826 -1.37497e-20)
(1.15472 0.203012 4.21391e-20)
(1.19998 0.216772 4.26324e-20)
(1.23515 0.226627 1.1247e-20)
(0.0593592 -0.00312083 -4.64131e-21)
(0.173658 -0.00380198 4.44649e-20)
(0.287251 0.00459004 -4.00822e-20)
(0.399378 0.0191725 -8.29433e-21)
(0.509167 0.0385307 2.23328e-20)
(0.615569 0.0614513 4.19297e-20)
(0.717404 0.086646 -4.09104e-20)
(0.813438 0.112873 -4.36749e-20)
(0.902467 0.138963 5.61377e-21)
(0.983395 0.163851 3.93488e-20)
(1.05532 0.186611 6.49814e-21)
(1.11758 0.206503 -1.02755e-20)
(1.16979 0.223011 -2.94277e-20)
(1.21189 0.235789 6.86722e-21)
(1.24393 0.24457 -2.20888e-20)
(0.0630017 -0.00141301 2.0848e-20)
(0.183278 0.00120517 -2.50601e-20)
(0.301699 0.0128096 3.28671e-20)
(0.417602 0.0304228 -2.61028e-20)
(0.530144 0.0525419 1.58751e-20)
(0.6383 0.0778708 -1.5301e-20)
(0.740922 0.105049 1.16923e-20)
(0.836828 0.132778 4.42819e-20)
(0.924887 0.159856 -2.42212e-21)
(1.00411 0.18521 7.67911e-22)
(1.07373 0.207937 2.794e-20)
(1.13325 0.227345 3.00424e-21)
(1.18246 0.242982 2.8946e-20)
(1.22146 0.254608 -3.50166e-20)
(1.2505 0.262161 -1.54653e-20)
(0.0665897 0.000513986 -2.30397e-21)
(0.192684 0.00677136 7.47173e-21)
(0.315727 0.0218247 -1.98422e-20)
(0.43516 0.0426168 8.54359e-22)
(0.550182 0.0675633 -5.77706e-21)
(0.659803 0.0952924 1.44946e-21)
(0.762922 0.12438 -1.00977e-20)
(0.858425 0.153484 4.9346e-21)
(0.945274 0.181382 2.01489e-21)
(1.0226 0.207009 -1.39462e-21)
(1.08979 0.229499 4.42448e-21)
(1.14651 0.248224 3.5509e-21)
(1.19273 0.26281 -9.62614e-22)
(1.22873 0.273132 6.67308e-21)
(1.25491 0.279325 -4.96564e-21)
(0.0700978 0.00265767 -8.72698e-21)
(0.201809 0.0128836 5.85754e-21)
(0.329236 0.0316069 -1.1819e-20)
(0.451931 0.0557072 1.51853e-22)
(0.569146 0.0835272 -5.86589e-21)
(0.679938 0.113628 7.02546e-22)
(0.78327 0.144534 -1.03296e-20)
(0.878109 0.174871 4.97915e-21)
(0.963528 0.203411 -3.24212e-22)
(1.0388 0.229114 7.21082e-22)
(1.10346 0.251167 7.37994e-21)
(1.15735 0.269019 1.07662e-21)
(1.20064 0.282389 1.28093e-21)
(1.23376 0.291271 3.44582e-21)
(1.25727 0.295994 -2.27139e-21)
(0.0734998 0.00501321 8.07502e-21)
(0.210585 0.019523 -2.17489e-20)
(0.342126 0.0421193 3.18335e-20)
(0.467796 0.0696367 -1.71286e-20)
(0.586905 0.100355 -3.41861e-21)
(0.698574 0.13278 -1.16592e-20)
(0.801842 0.165395 3.32212e-20)
(0.895774 0.19681 1.19738e-20)
(0.979568 0.225808 1.05362e-20)
(1.05265 0.251389 -1.70013e-21)
(1.11471 0.272809 2.3328e-20)
(1.1658 0.289611 8.29091e-21)
(1.20624 0.301614 3.88617e-21)
(1.23663 0.308943 -1.39245e-20)
(1.25765 0.312107 -3.33877e-21)
(0.0767692 0.00757332 1.88103e-20)
(0.218945 0.0266643 1.97993e-20)
(0.354303 0.0533161 -3.28048e-20)
(0.482639 0.084338 -4.60325e-21)
(0.603337 0.11796 2.94998e-20)
(0.71559 0.152641 5.03586e-22)
(0.818527 0.186841 -6.89803e-21)
(0.911329 0.219169 -4.74846e-20)
(0.99333 0.248436 -4.01972e-21)
(1.06411 0.273699 3.39805e-20)
(1.12356 0.2943 -8.99945e-22)
(1.17188 0.309888 1.17521e-20)
(1.20958 0.32039 -3.10051e-20)
(1.23741 0.32607 2.13378e-20)
(1.25615 0.32761 -6.6082e-21)
(0.0798797 0.0103282 -4.83904e-20)
(0.226824 0.0342764 -6.09741e-20)
(0.365673 0.0651433 3.6717e-20)
(0.496352 0.0997343 4.18151e-20)
(0.618327 0.136241 -6.24631e-21)
(0.730874 0.173094 -1.09812e-20)
(0.833229 0.208742 1.57975e-20)
(0.924697 0.24181 7.12533e-20)
(1.00476 0.271155 2.43533e-21)
(1.07318 0.295909 -1.42973e-20)
(1.13001 0.315515 -1.40051e-20)
(1.17564 0.329738 -4.09404e-20)
(1.21074 0.338627 4.4166e-20)
(1.23619 0.342581 -1.02828e-20)
(1.25286 0.34245 4.74398e-20)
(0.0828059 0.0132657 9.42347e-20)
(0.234157 0.042322 -6.50729e-21)
(0.376148 0.0775389 4.09291e-21)
(0.508834 0.11574 7.54799e-21)
(0.63177 0.155095 -1.18239e-20)
(0.74433 0.194016 1.19941e-20)
(0.845866 0.230962 -9.397e-20)
(0.935821 0.264593 -6.30853e-20)
(1.01384 0.293827 -2.07888e-20)
(1.07985 0.317888 -5.42993e-21)
(1.13409 0.336335 -3.43269e-20)
(1.17712 0.349061 1.11443e-20)
(1.20978 0.356239 -2.54929e-20)
(1.23305 0.358411 1.11848e-21)
(1.24789 0.356583 1.19314e-20)
(0.0855229 0.0163712 -7.80645e-20)
(0.240886 0.0507581 6.27208e-20)
(0.385646 0.0904331 1.56287e-20)
(0.51999 0.132261 1.15113e-20)
(0.643573 0.174405 -2.64655e-21)
(0.755873 0.215278 4.92442e-20)
(0.856371 0.253364 7.7183e-20)
(0.944656 0.287375 -9.02101e-21)
(1.02054 0.316312 -3.28914e-20)
(1.08412 0.339506 -1.62426e-20)
(1.13584 0.356644 6.21537e-20)
(1.1764 0.367756 -2.04192e-20)
(1.20679 0.373146 -1.69068e-21)
(1.2281 0.373497 2.24567e-20)
(1.24133 0.369965 -4.19724e-21)
(0.0880072 0.0196276 8.22668e-20)
(0.246953 0.0595364 -1.05682e-19)
(0.39409 0.103749 -3.06035e-20)
(0.529737 0.149196 4.9452e-20)
(0.653653 0.19405 -2.94245e-20)
(0.765434 0.236743 -6.63028e-20)
(0.864693 0.275803 3.19972e-20)
(0.951176 0.310013 8.84247e-20)
(1.02486 0.338473 1.06318e-19)
(1.08604 0.360638 1.08659e-19)
(1.1353 0.376332 -2.95562e-21)
(1.17354 0.385732 1.92519e-20)
(1.20185 0.389274 -6.16089e-20)
(1.22142 0.387783 1.17629e-20)
(1.23327 0.382556 7.46849e-21)
(0.0902364 0.0230159 5.02272e-20)
(0.252305 0.0686033 -6.82931e-22)
(0.401411 0.117404 1.1274e-19)
(0.538 0.166437 -1.34993e-19)
(0.661943 0.213905 2.18606e-20)
(0.772956 0.258275 5.67922e-21)
(0.870796 0.298137 -7.77018e-20)
(0.955369 0.332366 -1.23793e-19)
(1.02683 0.360177 -6.56424e-20)
(1.08563 0.381161 -8.6967e-20)
(1.13255 0.395294 1.48789e-20)
(1.16861 0.4029 -5.77691e-21)
(1.19505 0.404554 2.05325e-20)
(1.2131 0.401215 -2.54964e-20)
(1.22381 0.394321 2.24342e-21)
(0.0921901 0.0265147 -4.10157e-20)
(0.256896 0.0779005 1.69051e-20)
(0.407548 0.131308 -3.25383e-20)
(0.544717 0.183871 -3.02256e-20)
(0.668386 0.233838 3.81292e-20)
(0.778399 0.27973 -7.70635e-21)
(0.87466 0.320221 2.98924e-20)
(0.957239 0.354292 2.02665e-21)
(1.02646 0.381291 1.49205e-20)
(1.08295 0.400959 1.08769e-21)
(1.12765 0.413428 -1.59135e-20)
(1.16171 0.419179 -3.06742e-21)
(1.18648 0.418921 -5.67023e-20)
(1.20325 0.413743 3.21479e-20)
(1.21304 0.405223 -5.58882e-20)
(0.0938498 0.030101 -4.08254e-20)
(0.260684 0.0873658 4.39818e-20)
(0.41245 0.145369 -1.34126e-20)
(0.549836 0.20138 6.73911e-20)
(0.672939 0.253714 -1.02358e-19)
(0.781737 0.300965 1.81911e-19)
(0.876282 0.34191 1.06097e-19)
(0.956804 0.375654 1.19889e-19)
(1.0238 0.40169 -1.08005e-20)
(1.07806 0.41992 7.64321e-20)
(1.12067 0.430642 7.60968e-20)
(1.15292 0.434492 -1.70625e-20)
(1.17623 0.432313 -4.64081e-20)
(1.19195 0.425318 3.96534e-20)
(1.20105 0.415229 -5.60468e-22)
(0.0951992 0.0337498 6.61757e-21)
(0.263633 0.0969332 4.29786e-20)
(0.416074 0.159487 3.30373e-20)
(0.553317 0.218841 1.25992e-20)
(0.675576 0.273396 5.09938e-21)
(0.78296 0.321838 1.75183e-20)
(0.875671 0.363062 -1.61951e-19)
(0.954098 0.396315 -1.08452e-19)
(1.0189 0.421251 -4.1486e-20)
(1.07103 0.437939 -1.0205e-19)
(1.11171 0.446846 -9.48359e-20)
(1.14233 0.448768 -4.0975e-20)
(1.16441 0.444676 3.34012e-21)
(1.17929 0.435897 4.56589e-21)
(1.18789 0.424296 -3.74885e-21)
(0.0962244 0.037435 -4.51006e-20)
(0.265714 0.106534 -3.58793e-20)
(0.418387 0.173562 -3.62472e-20)
(0.555135 0.236132 9.59943e-21)
(0.676283 0.292748 -8.25338e-20)
(0.782073 0.342206 -8.90005e-20)
(0.872853 0.383538 1.34647e-19)
(0.949169 0.416147 -4.99174e-20)
(1.01183 0.439858 8.73819e-20)
(1.06194 0.454915 3.54595e-20)
(1.10084 0.461959 -6.13954e-20)
(1.13004 0.46194 8.4693e-20)
(1.15109 0.455962 -2.60468e-21)
(1.16536 0.445465 -3.98523e-21)
(1.17367 0.432387 -3.51159e-20)
(0.0969143 0.0411289 1.3137e-19)
(0.266906 0.116096 1.4044e-20)
(0.419368 0.18749 5.96143e-20)
(0.555274 0.253127 1.22358e-19)
(0.67506 0.311631 -3.78273e-20)
(0.779095 0.361927 4.05272e-20)
(0.86787 0.403201 -9.54515e-20)
(0.942075 0.435024 6.72133e-20)
(1.00267 0.457401 -5.8246e-20)
(1.05088 0.470757 -4.22451e-20)
(1.08817 0.475904 8.18558e-20)
(1.11614 0.473947 3.86114e-20)
(1.13638 0.466113 9.16115e-21)
(1.15026 0.453974 2.03874e-20)
(1.1585 0.439499 1.49363e-20)
(0.0972603 0.0448031 -9.00142e-20)
(0.267194 0.125548 -5.709e-20)
(0.419004 0.201166 -1.25119e-19)
(0.553735 0.269699 -4.58602e-20)
(0.671922 0.32991 6.7595e-20)
(0.774062 0.380866 8.79686e-20)
(0.860774 0.42192 3.43869e-20)
(0.932889 0.452827 2.37642e-20)
(0.991497 0.473775 4.23438e-20)
(1.03795 0.485376 8.77869e-20)
(1.0738 0.488611 -4.41954e-20)
(1.10072 0.484733 7.48412e-21)
(1.12036 0.475089 -3.12018e-20)
(1.13406 0.461369 3.22349e-21)
(1.14247 0.4456 -5.31189e-22)
(0.0972569 0.0484285 1.0893e-20)
(0.26657 0.134815 1.13956e-20)
(0.417296 0.214487 8.58796e-20)
(0.550528 0.285726 -1.16864e-19)
(0.6669 0.34745 4.79299e-20)
(0.76702 0.398887 -4.1618e-20)
(0.851634 0.439569 -5.59367e-21)
(0.921696 0.469442 5.38587e-21)
(0.978414 0.488886 3.15266e-20)
(1.02324 0.498695 3.46019e-20)
(1.05782 0.500019 2.21062e-20)
(1.08389 0.49425 -8.54504e-21)
(1.10312 0.482851 1.65247e-20)
(1.11684 0.467619 3.12059e-21)
(1.12561 0.450651 3.40065e-21)
(0.0969016 0.0519757 -3.89555e-21)
(0.265035 0.143824 -4.10808e-20)
(0.414253 0.227346 2.28785e-20)
(0.54568 0.301084 5.44394e-20)
(0.660035 0.364122 -1.10573e-19)
(0.758032 0.415862 -1.05602e-19)
(0.840529 0.456029 -4.48004e-20)
(0.90859 0.484765 -4.29172e-20)
(0.963524 0.502644 -2.98144e-20)
(1.00687 0.510642 -2.80799e-20)
(1.04035 0.510069 2.52837e-20)
(1.06573 0.502453 -1.48282e-20)
(1.08475 0.489362 -5.56501e-21)
(1.09867 0.472695 1.13932e-21)
(1.10799 0.45462 -1.82294e-21)
(0.0961948 0.055415 1.08339e-20)
(0.262597 0.152499 2.94338e-20)
(0.409895 0.239642 5.52243e-20)
(0.539227 0.315653 -7.66852e-20)
(0.651383 0.379801 3.03857e-20)
(0.747174 0.43167 1.0175e-19)
(0.827552 0.471186 -3.79997e-20)
(0.893677 0.498696 -3.06902e-21)
(0.946942 0.514967 1.49266e-21)
(0.988958 0.521153 -5.77229e-21)
(1.02149 0.518715 -2.16281e-20)
(1.04636 0.509306 -1.59267e-20)
(1.06532 0.494592 -7.40246e-21)
(1.07962 0.476565 -2.49461e-22)
(1.08967 0.457479 5.94015e-21)
(0.0951399 0.0587171 1.54859e-20)
(0.25927 0.16077 -9.53904e-20)
(0.404253 0.251274 -8.26144e-21)
(0.531217 0.329317 6.4801e-20)
(0.641013 0.394364 -7.73366e-21)
(0.734531 0.446192 3.67799e-20)
(0.812805 0.484936 3.50327e-20)
(0.877072 0.511145 -1.45632e-20)
(0.928789 0.525783 3.79397e-20)
(0.969618 0.530171 -1.88536e-20)
(1.00136 0.525915 5.98681e-21)
(1.02586 0.514778 -1.07632e-20)
(1.04491 0.498514 3.73698e-20)
(1.05976 0.479204 -3.53629e-20)
(1.07072 0.459197 3.04899e-20)
(0.0937436 0.0618532 2.70537e-20)
(0.255077 0.168565 6.57515e-20)
(0.397368 0.262144 2.42394e-20)
(0.521713 0.341966 -6.75242e-20)
(0.629006 0.407699 -5.33049e-20)
(0.720202 0.459321 -3.34917e-21)
(0.796402 0.497179 -9.02683e-21)
(0.858899 0.52203 7.98451e-22)
(0.909195 0.535025 -2.14497e-20)
(0.948982 0.537649 -5.26649e-21)
(0.980074 0.531636 -1.78535e-20)
(1.00434 0.518849 -5.97455e-21)
(1.0236 0.501113 -1.81224e-20)
(1.03912 0.480587 -5.674e-20)
(1.05117 0.459738 -1.17523e-19)
(0.0920145 0.0647954 -2.491e-20)
(0.250048 0.175817 -7.48827e-20)
(0.389292 0.272159 3.24859e-20)
(0.510784 0.353493 3.73183e-20)
(0.615451 0.419696 3.33094e-20)
(0.704295 0.470954 -2.6025e-20)
(0.778464 0.507826 1.59244e-21)
(0.839288 0.531275 7.58035e-21)
(0.888296 0.542634 1.43722e-20)
(0.927184 0.543543 -3.16569e-21)
(0.957765 0.535853 5.58941e-21)
(0.981905 0.521505 1.58468e-20)
(1.00146 0.502381 6.63536e-20)
(1.01774 0.480698 9.8205e-20)
(1.03106 0.459062 1.07234e-19)
(0.0899646 0.0675155 -1.15588e-20)
(0.244219 0.182459 2.88165e-20)
(0.380082 0.28123 -1.15157e-20)
(0.498513 0.363801 -1.49523e-20)
(0.60045 0.430258 -6.53979e-21)
(0.686928 0.480998 3.83696e-21)
(0.759121 0.516796 7.1421e-21)
(0.818379 0.538812 1.99559e-20)
(0.866234 0.54856 3.89367e-22)
(0.904368 0.547821 8.30799e-21)
(0.934565 0.538547 3.21172e-20)
(0.958673 0.522742 -2.98319e-20)
(0.978568 0.502323 2.06361e-20)
(0.995656 0.479529 2.42995e-20)
(0.0876096 0.0699875 -3.29526e-21)
(0.237633 0.188429 -2.52952e-22)
(0.369807 0.289276 -8.1796e-22)
(0.48499 0.372795 -1.55088e-21)
(0.584113 0.439291 8.27938e-22)
(0.668226 0.489368 -4.61332e-21)
(0.73851 0.524013 2.29149e-21)
(0.796316 0.544583 -2.33011e-20)
(0.843157 0.552758 -6.49892e-20)
(0.88068 0.550452 -2.81895e-20)
(0.910619 0.539706 -6.28437e-21)
(0.934774 0.522567 4.26927e-20)
(0.955014 0.50096 -1.46897e-19)
(0.084967 0.0721876 -7.56017e-21)
(0.230337 0.193669 -9.40753e-21)
(0.358542 0.296219 2.32824e-20)
(0.470314 0.380394 1.20129e-20)
(0.566558 0.446712 -2.72424e-20)
(0.648321 0.495988 -2.12049e-20)
(0.716774 0.529415 -2.51735e-20)
(0.773245 0.548535 -5.52005e-20)
(0.819215 0.555189 1.05198e-19)
(0.856275 0.551412 -1.02131e-20)
(0.886083 0.539321 2.37618e-20)
(0.910357 0.52099 -1.08533e-19)
(0.0820561 0.0740929 3.15279e-20)
(0.222387 0.198127 -2.91384e-20)
(0.346371 0.30199 -3.26444e-20)
(0.454591 0.386519 2.27015e-20)
(0.547911 0.452448 1.5794e-20)
(0.627352 0.500792 -4.41069e-20)
(0.694056 0.532944 8.47406e-21)
(0.749317 0.550624 4.4731e-20)
(0.794562 0.555819 4.43427e-20)
(0.831308 0.550677 2.82295e-20)
(0.861123 0.537382 -6.61678e-22)
(0.8856 0.518029 6.9411e-21)
(0.0788988 0.0756824 3.01264e-20)
(0.21384 0.201754 4.13863e-20)
(0.333383 0.306524 7.08046e-20)
(0.437935 0.391105 -3.11283e-20)
(0.5283 0.456434 6.29976e-20)
(0.605459 0.503724 1.62541e-20)
(0.670507 0.534554 2.04714e-20)
(0.724682 0.550812 5.50589e-20)
(0.769346 0.55462 -9.97495e-20)
(0.805934 0.548226 9.13247e-22)
(0.835909 0.533876 -2.46142e-20)
(0.0755194 0.0769377 -1.33872e-19)
(0.204762 0.204507 -3.31616e-20)
(0.319673 0.30977 -7.71406e-20)
(0.420465 0.394094 3.41312e-20)
(0.507863 0.458617 -3.30294e-20)
(0.582789 0.504737 -8.10856e-20)
(0.646274 0.534208 7.63102e-21)
(0.699488 0.549071 -1.06881e-19)
(0.743713 0.551568 -6.87349e-20)
(0.780296 0.544035 -1.06436e-19)
(0.0719436 0.0778422 6.54181e-20)
(0.195219 0.206351 -8.86592e-20)
(0.305339 0.311679 1.44576e-20)
(0.402303 0.395439 -4.39686e-20)
(0.486737 0.458954 -8.32678e-20)
(0.55949 0.503796 -2.55053e-20)
(0.621508 0.531881 -4.39369e-21)
(0.67388 0.545383 -5.64347e-20)
(0.7178 0.546651 6.63163e-20)
(0.754519 0.538088 2.47043e-19)
(0.0681986 0.0783817 4.84209e-20)
(0.185282 0.207253 -2.0524e-20)
(0.290487 0.312214 7.40336e-20)
(0.383577 0.395102 6.99441e-20)
(0.465066 0.457414 1.22883e-19)
(0.53571 0.500878 1.82447e-20)
(0.596359 0.527557 4.85479e-20)
(0.648003 0.539742 7.93586e-20)
(0.691736 0.539867 -3.14864e-20)
(0.0643133 0.0785445 7.58914e-20)
(0.175025 0.207189 3.74367e-20)
(0.275223 0.311346 -3.4623e-20)
(0.364418 0.393057 1.41399e-20)
(0.442995 0.453975 -1.79611e-19)
(0.5116 0.49597 2.89906e-20)
(0.570975 0.521232 1.09069e-19)
(0.621998 0.532152 -6.74089e-20)
(0.0603175 0.078322 -1.63533e-20)
(0.164525 0.206141 -1.23367e-19)
(0.259658 0.309056 1.32415e-19)
(0.344958 0.389288 -1.70779e-19)
(0.420668 0.448627 1.09105e-19)
(0.487313 0.489072 1.23544e-19)
(0.545507 0.512915 -5.83236e-20)
(0.596008 0.522628 2.49917e-19)
(0.0562423 0.077708 7.60104e-20)
(0.153859 0.204098 6.22391e-20)
(0.243902 0.305333 -2.14736e-19)
(0.325332 0.383788 3.06495e-19)
(0.398234 0.441374 -6.82282e-20)
(0.462999 0.480192 -2.8218e-19)
(0.520105 0.502622 1.68523e-19)
(0.0521189 0.0766991 -2.15601e-20)
(0.143108 0.201055 -2.15693e-19)
(0.228068 0.300177 2.06604e-19)
(0.305673 0.376564 -6.57855e-20)
(0.375839 0.432228 1.15394e-19)
(0.43881 0.469352 1.89494e-19)
(0.494917 0.490381 1.51617e-19)
(0.0479793 0.075295 8.40196e-21)
(0.132349 0.197015 1.99055e-20)
(0.21227 0.293594 -6.93553e-20)
(0.286117 0.367631 -2.52572e-19)
(0.353628 0.421211 -1.83794e-19)
(0.414893 0.456581 4.37287e-20)
(0.0438553 0.0734978 -8.73723e-20)
(0.121663 0.191986 -1.65268e-19)
(0.196619 0.285603 -4.43843e-20)
(0.266795 0.357013 1.7023e-19)
(0.331746 0.408358 1.86195e-19)
(0.391397 0.441921 -1.24506e-19)
(0.0397786 0.0713127 1.21791e-19)
(0.111128 0.185985 8.78315e-20)
(0.181226 0.27623 1.97345e-19)
(0.247839 0.344748 -1.72917e-19)
(0.310331 0.393712 -1.30422e-19)
(0.368462 0.425421 -1.89364e-19)
(0.0357806 0.0687474 -2.25312e-20)
(0.100821 0.179034 2.40744e-19)
(0.1662 0.265508 -1.86026e-19)
(0.229376 0.330881 1.04191e-19)
(0.289522 0.377328 1.5984e-19)
(0.0318918 0.0658125 -8.63772e-20)
(0.0908191 0.171159 -1.66083e-19)
(0.151645 0.253482 1.63054e-19)
(0.211528 0.315466 -2.93553e-19)
(0.26945 0.359269 1.87446e-19)
(0.028142 0.0625208 1.32299e-19)
(0.0811935 0.162397 2.35349e-19)
(0.137663 0.240203 -1.84905e-19)
(0.194416 0.298567 1.71978e-19)
(0.250241 0.339606 -7.4245e-20)
(0.0245596 0.0588879 -2.38918e-19)
(0.0720147 0.152788 1.16532e-19)
(0.124352 0.225729 -1.64244e-19)
(0.178151 0.280258 -7.39311e-20)
(0.021172 0.0549317 2.41107e-19)
(0.0633492 0.142376 -1.53183e-19)
(0.111804 0.210127 1.804e-19)
(0.162842 0.260618 -2.92102e-20)
(0.0180049 0.0506722 -2.17155e-19)
(0.0552596 0.131214 3.62062e-19)
(0.100104 0.193471 -9.47902e-20)
(0.148589 0.239736 -3.8715e-20)
(0.0150822 0.0461317 -1.01195e-20)
(0.0478041 0.119357 -1.22379e-19)
(0.0893346 0.17584 3.3307e-20)
(0.135484 0.217708 5.7223e-20)
(0.012426 0.0413341 1.97478e-19)
(0.0410362 0.106866 -1.01469e-19)
(0.0795683 0.15732 -9.21512e-20)
(0.123613 0.194635 5.6247e-20)
(0.0100563 0.0363054 -7.92055e-20)
(0.0350046 0.0938044 -6.49543e-20)
(0.0708723 0.138003 1.0817e-19)
(0.00799108 0.0310731 3.0501e-20)
(0.0297524 0.0802416 3.48446e-20)
(0.0633058 0.117985 1.13973e-20)
(0.00624578 0.0256661 -5.24373e-20)
(0.0253171 0.0662487 -3.69744e-20)
(0.0569204 0.0973655 -8.33186e-20)
(0.00483354 0.0201145 -7.50102e-21)
(0.0217304 0.0519001 3.17023e-20)
(0.0517593 0.0762496 4.87712e-20)
(0.00376499 0.0144492 1.50098e-20)
(0.0190177 0.0372724 2.02944e-20)
(0.0478576 0.0547443 6.06219e-21)
(0.00304813 0.00870237 3.21518e-20)
(0.0171985 0.0224441 -3.84474e-20)
(0.0452417 0.032959 -1.63532e-20)
(0.00268835 0.00290627 -7.95718e-21)
(0.0162857 0.00749481 5.09878e-21)
(0.0439293 0.0110051 -1.32903e-20)
(0.00268835 -0.00290627 -1.24974e-20)
(0.0162857 -0.00749482 2.72535e-21)
(0.0439293 -0.0110051 -1.1807e-21)
(0.00304813 -0.00870237 1.2923e-20)
(0.0171985 -0.0224441 -3.48842e-20)
(0.0452417 -0.032959 -1.60142e-20)
(0.00376499 -0.0144493 8.31516e-21)
(0.0190177 -0.0372724 7.93534e-20)
(0.0478576 -0.0547443 -3.10944e-20)
(0.00483354 -0.0201145 -3.44563e-20)
(0.0217304 -0.0519001 1.69998e-20)
(0.0517593 -0.0762497 6.01298e-20)
(0.00624578 -0.0256661 -2.19881e-20)
(0.0253171 -0.0662487 -1.29891e-20)
(0.0569204 -0.0973655 -7.89369e-20)
(0.00799108 -0.0310731 4.28904e-20)
(0.0297524 -0.0802416 -1.2269e-19)
(0.0633058 -0.117985 1.12719e-19)
(0.0100563 -0.0363054 -7.44952e-20)
(0.0350046 -0.0938044 -9.04414e-20)
(0.0708723 -0.138003 3.00285e-20)
(0.012426 -0.0413341 9.11146e-20)
(0.0410362 -0.106866 8.57755e-20)
(0.0795683 -0.15732 3.03185e-20)
(0.123613 -0.194635 -7.00408e-20)
(0.0150822 -0.0461317 -7.13056e-20)
(0.0478041 -0.119357 2.71502e-20)
(0.0893346 -0.17584 -5.65778e-20)
(0.135484 -0.217708 9.27657e-20)
(0.0180049 -0.0506722 2.80853e-21)
(0.0552596 -0.131214 1.53142e-19)
(0.100104 -0.193471 -1.00243e-19)
(0.148589 -0.239736 4.91238e-20)
(0.021172 -0.0549317 1.60225e-19)
(0.0633492 -0.142376 -8.16194e-20)
(0.111804 -0.210127 2.04932e-19)
(0.162842 -0.260618 -4.31827e-20)
(0.0245596 -0.0588879 -2.37675e-19)
(0.0720147 -0.152788 -6.86796e-20)
(0.124352 -0.225729 -7.5471e-21)
(0.178151 -0.280258 -4.92882e-20)
(0.028142 -0.0625208 1.91126e-19)
(0.0811935 -0.162397 3.02217e-20)
(0.137663 -0.240203 -8.70278e-20)
(0.194416 -0.298567 1.8361e-19)
(0.250241 -0.339606 1.53482e-19)
(0.0318918 -0.0658125 -1.2287e-19)
(0.0908191 -0.171159 -1.85098e-19)
(0.151645 -0.253482 5.46695e-20)
(0.211528 -0.315466 -1.443e-19)
(0.26945 -0.359269 3.24838e-20)
(0.0357806 -0.0687475 8.41221e-20)
(0.100821 -0.179034 8.45046e-20)
(0.1662 -0.265508 -9.34242e-21)
(0.229376 -0.330881 9.58689e-20)
(0.289522 -0.377328 -9.54234e-20)
(0.0397786 -0.0713127 1.02134e-19)
(0.111128 -0.185985 1.30592e-19)
(0.181226 -0.27623 1.48961e-19)
(0.247839 -0.344748 -6.91497e-20)
(0.310331 -0.393712 -3.72295e-19)
(0.368462 -0.425421 2.20357e-19)
(0.0438553 -0.0734978 -8.49425e-20)
(0.121663 -0.191986 -3.97429e-20)
(0.196619 -0.285603 -1.92578e-19)
(0.266795 -0.357013 1.99321e-19)
(0.331746 -0.408358 1.79481e-19)
(0.391397 -0.441921 1.80325e-20)
(0.0479793 -0.075295 1.01297e-19)
(0.132349 -0.197015 -1.32229e-19)
(0.21227 -0.293594 -3.17041e-20)
(0.286117 -0.367631 -8.26955e-20)
(0.353628 -0.421211 -2.68434e-19)
(0.414894 -0.456581 -1.66015e-20)
(0.0521189 -0.0766991 -1.41317e-19)
(0.143108 -0.201055 4.68769e-20)
(0.228068 -0.300177 1.47814e-19)
(0.305673 -0.376564 -7.02692e-20)
(0.375839 -0.432228 1.82391e-19)
(0.43881 -0.469352 1.11411e-19)
(0.494917 -0.490381 -2.11788e-19)
(0.0562423 -0.077708 9.76941e-20)
(0.15386 -0.204098 8.19839e-20)
(0.243902 -0.305333 -1.15838e-19)
(0.325332 -0.383788 1.80487e-19)
(0.398234 -0.441374 -1.9314e-19)
(0.462999 -0.480192 -1.79479e-20)
(0.520105 -0.502622 -7.23085e-20)
(0.0603175 -0.078322 -1.01924e-19)
(0.164525 -0.206141 -6.39989e-21)
(0.259658 -0.309056 -7.65494e-21)
(0.344958 -0.389288 -1.03931e-19)
(0.420668 -0.448628 1.77805e-19)
(0.487313 -0.489072 1.05594e-19)
(0.545507 -0.512915 -1.68021e-19)
(0.596008 -0.522628 -6.73795e-20)
(0.0643133 -0.0785445 -3.01675e-20)
(0.175025 -0.207189 1.59474e-19)
(0.275223 -0.311346 -5.75993e-20)
(0.364418 -0.393057 -7.0131e-20)
(0.442995 -0.453975 -1.78616e-20)
(0.5116 -0.49597 -1.43008e-19)
(0.570975 -0.521232 8.95277e-20)
(0.621998 -0.532152 -1.52309e-19)
(0.0681986 -0.0783817 -4.76048e-20)
(0.185282 -0.207253 4.50254e-20)
(0.290487 -0.312214 3.55578e-20)
(0.383577 -0.395103 1.38351e-19)
(0.465066 -0.457414 7.96737e-20)
(0.53571 -0.500878 4.18521e-20)
(0.596359 -0.527557 1.01923e-19)
(0.648003 -0.539742 1.37688e-19)
(0.691736 -0.539867 -2.73844e-20)
(0.0719436 -0.0778422 -3.89779e-20)
(0.195219 -0.206351 3.70973e-20)
(0.305339 -0.311679 -5.3885e-20)
(0.402303 -0.395439 -8.47156e-20)
(0.486737 -0.458954 -9.91251e-21)
(0.55949 -0.503796 1.88695e-20)
(0.621509 -0.531881 -8.93791e-20)
(0.67388 -0.545383 -6.74194e-20)
(0.7178 -0.546651 1.83531e-19)
(0.754519 -0.538088 -1.13911e-19)
(0.0755194 -0.0769377 -9.73845e-20)
(0.204762 -0.204507 -8.90734e-20)
(0.319673 -0.30977 -2.44376e-20)
(0.420465 -0.394094 -1.8087e-20)
(0.507863 -0.458617 -4.05459e-20)
(0.582789 -0.504737 -4.34145e-21)
(0.646274 -0.534208 -6.25967e-20)
(0.699488 -0.549071 -6.36591e-20)
(0.743713 -0.551568 -3.54019e-20)
(0.780296 -0.544035 -6.61784e-20)
(0.0788988 -0.0756824 3.06326e-20)
(0.21384 -0.201754 8.35713e-20)
(0.333383 -0.306524 4.32662e-21)
(0.437935 -0.391105 3.25165e-20)
(0.5283 -0.456434 6.52683e-21)
(0.605459 -0.503724 2.12463e-20)
(0.670507 -0.534554 1.76303e-20)
(0.724682 -0.550812 9.04144e-20)
(0.769346 -0.55462 -7.12277e-20)
(0.805934 -0.548226 -9.18699e-20)
(0.835909 -0.533876 8.19121e-20)
(0.0820561 -0.0740929 2.71288e-20)
(0.222387 -0.198127 1.99864e-20)
(0.346371 -0.30199 -2.44676e-20)
(0.454591 -0.386519 -2.77584e-20)
(0.547911 -0.452448 2.83219e-20)
(0.627352 -0.500792 -3.59721e-21)
(0.694056 -0.532944 1.13608e-20)
(0.749317 -0.550624 -4.36612e-21)
(0.794562 -0.555819 1.15994e-20)
(0.831308 -0.550677 1.12565e-19)
(0.861123 -0.537382 -6.78865e-20)
(0.8856 -0.518029 1.85077e-19)
(0.084967 -0.0721876 -5.64655e-21)
(0.230337 -0.193669 -1.75933e-20)
(0.358542 -0.296219 1.68876e-20)
(0.470314 -0.380394 2.31101e-20)
(0.566558 -0.446712 -2.56584e-20)
(0.648321 -0.495988 -1.43282e-20)
(0.716774 -0.529415 -2.17961e-20)
(0.773245 -0.548535 -3.21543e-20)
(0.819215 -0.555189 4.09923e-20)
(0.856275 -0.551412 8.65391e-20)
(0.886084 -0.539321 -6.68359e-20)
(0.910357 -0.52099 -1.50416e-19)
(0.0876096 -0.0699875 -3.41871e-21)
(0.237633 -0.188429 -5.6955e-22)
(0.369807 -0.289276 -3.96956e-22)
(0.48499 -0.372795 -3.15631e-21)
(0.584113 -0.439291 7.4272e-21)
(0.668226 -0.489368 -1.23127e-20)
(0.73851 -0.524013 -1.05936e-20)
(0.796316 -0.544583 -2.47678e-22)
(0.843157 -0.552758 -6.20048e-20)
(0.88068 -0.550452 -8.09528e-20)
(0.910619 -0.539706 4.24502e-20)
(0.934774 -0.522567 2.43828e-20)
(0.955014 -0.50096 1.75851e-20)
(0.0899646 -0.0675155 -9.99887e-21)
(0.244219 -0.182459 1.42401e-20)
(0.380082 -0.28123 5.87574e-21)
(0.498513 -0.363801 -2.30555e-20)
(0.60045 -0.430258 -2.49599e-21)
(0.686928 -0.480998 1.39173e-21)
(0.759121 -0.516796 3.52848e-21)
(0.818379 -0.538812 1.54018e-20)
(0.866234 -0.54856 2.64752e-20)
(0.904368 -0.547821 -2.69678e-20)
(0.934565 -0.538548 4.028e-20)
(0.958673 -0.522742 2.55589e-20)
(0.978568 -0.502323 1.52485e-20)
(0.995656 -0.479529 -1.16818e-19)
(0.0920145 -0.0647954 -2.93954e-20)
(0.250048 -0.175817 -6.09064e-20)
(0.389292 -0.272159 -6.1565e-21)
(0.510784 -0.353493 4.92648e-20)
(0.615451 -0.419696 4.37388e-20)
(0.704295 -0.470954 -2.32969e-20)
(0.778464 -0.507826 7.79693e-21)
(0.839288 -0.531275 7.01837e-22)
(0.888296 -0.542634 4.64263e-21)
(0.927184 -0.543543 2.41614e-20)
(0.957765 -0.535853 -2.25156e-20)
(0.981905 -0.521505 2.34362e-20)
(1.00146 -0.502381 3.05893e-20)
(1.01774 -0.480698 8.90013e-20)
(1.03106 -0.459062 1.01422e-19)
(0.0937436 -0.0618532 1.02823e-20)
(0.255077 -0.168565 9.93677e-20)
(0.397368 -0.262144 -1.06119e-20)
(0.521713 -0.341966 -6.51078e-20)
(0.629006 -0.407699 -2.9463e-20)
(0.720202 -0.459321 -1.96434e-20)
(0.796402 -0.497179 6.31969e-22)
(0.858899 -0.52203 -5.44907e-22)
(0.909195 -0.535025 -1.58468e-20)
(0.948982 -0.537649 -1.03145e-20)
(0.980074 -0.531636 -2.52355e-20)
(1.00434 -0.518849 -5.34977e-21)
(1.0236 -0.501113 -1.79514e-20)
(1.03912 -0.480587 -1.61237e-20)
(1.05117 -0.459738 -1.60642e-19)
(0.0951399 -0.0587171 1.73171e-20)
(0.25927 -0.16077 -7.94081e-20)