/*--------------------------------*- C++ -*----------------------------------*\
  =========                 |
  \\      /  F ield         | OpenFOAM: The Open Source CFD Toolbox
   \\    /   O peration     | Website:  https://openfoam.org
    \\  /    A nd           | Version:  7
     \\/     M anipulation  |
\*---------------------------------------------------------------------------*/
FoamFile
{
    version     2.0;
    format      ascii;
    class       volScalarField;
    location    "65";
    object      p;
}
// * * * * * * * * * * * * * * * * * * * * * * * * * * * * * * * * * * * * * //

dimensions      [0 2 -2 0 0 0 0];

internalField   nonuniform List<scalar> 
8500
(
-0.270419
-0.271478
-0.272118
-0.272662
-0.273134
-0.27354
-0.273897
-0.274221
-0.27452
-0.274802
-0.275071
-0.275332
-0.275585
-0.275834
-0.27608
-0.276327
-0.27658
-0.276845
-0.277121
-0.277417
-0.270997
-0.272026
-0.272651
-0.273184
-0.273649
-0.27405
-0.274407
-0.274733
-0.275039
-0.275333
-0.275619
-0.275902
-0.276184
-0.276468
-0.276757
-0.277056
-0.277371
-0.27771
-0.278073
-0.278469
-0.271617
-0.272615
-0.273223
-0.273743
-0.274198
-0.274593
-0.274947
-0.275275
-0.275586
-0.27589
-0.276191
-0.276493
-0.276802
-0.277119
-0.277449
-0.277797
-0.278171
-0.278581
-0.279027
-0.279519
-0.272278
-0.273242
-0.273831
-0.274336
-0.27478
-0.275167
-0.275517
-0.275844
-0.276159
-0.27647
-0.276783
-0.277104
-0.277436
-0.277783
-0.278151
-0.278545
-0.278975
-0.279452
-0.279979
-0.280561
-0.272976
-0.273903
-0.274473
-0.274962
-0.275392
-0.27577
-0.276114
-0.276438
-0.276754
-0.277071
-0.277394
-0.27773
-0.278083
-0.278457
-0.278859
-0.279296
-0.279778
-0.280319
-0.280921
-0.281588
-0.273709
-0.274598
-0.275145
-0.275616
-0.276033
-0.276399
-0.276735
-0.277055
-0.27737
-0.277689
-0.27802
-0.278369
-0.278739
-0.279137
-0.27957
-0.280045
-0.280575
-0.281176
-0.281848
-0.282592
-0.274474
-0.275322
-0.275846
-0.276298
-0.276698
-0.277052
-0.277378
-0.277691
-0.278002
-0.278323
-0.278659
-0.279016
-0.279401
-0.279819
-0.280279
-0.280788
-0.28136
-0.282016
-0.282754
-0.283567
-0.275269
-0.276074
-0.276574
-0.277005
-0.277387
-0.277726
-0.27804
-0.278344
-0.27865
-0.278968
-0.279306
-0.27967
-0.280065
-0.2805
-0.280981
-0.28152
-0.28213
-0.282835
-0.283632
-0.284506
-0.27609
-0.276851
-0.277325
-0.277734
-0.278096
-0.278418
-0.278718
-0.279011
-0.279309
-0.279622
-0.279959
-0.280325
-0.280728
-0.281174
-0.281673
-0.282235
-0.282877
-0.283626
-0.284476
-0.285401
-0.276935
-0.277651
-0.278097
-0.278483
-0.278824
-0.279128
-0.279411
-0.279691
-0.279978
-0.280283
-0.280615
-0.28098
-0.281385
-0.281838
-0.282349
-0.28293
-0.283597
-0.284383
-0.285279
-0.286246
-0.2778
-0.27847
-0.278888
-0.279249
-0.279568
-0.279851
-0.280116
-0.28038
-0.280653
-0.280947
-0.28127
-0.28163
-0.282034
-0.282489
-0.283006
-0.283599
-0.284285
-0.285101
-0.286035
-0.287031
-0.278683
-0.279307
-0.279696
-0.280031
-0.280325
-0.280586
-0.280831
-0.281075
-0.281332
-0.281612
-0.281923
-0.282274
-0.282671
-0.283123
-0.283641
-0.284238
-0.284936
-0.285774
-0.286738
-0.287752
-0.279582
-0.280159
-0.280519
-0.280826
-0.281095
-0.281331
-0.281553
-0.281776
-0.282013
-0.282274
-0.28257
-0.282907
-0.283293
-0.283736
-0.284248
-0.284844
-0.285544
-0.286396
-0.287382
-0.288399
-0.280494
-0.281024
-0.281354
-0.281633
-0.281874
-0.282085
-0.282281
-0.28248
-0.282693
-0.282933
-0.283209
-0.283528
-0.283897
-0.284326
-0.284826
-0.285412
-0.286107
-0.286963
-0.287963
-0.288967
-0.281416
-0.281901
-0.2822
-0.28245
-0.282662
-0.282844
-0.283013
-0.283184
-0.283372
-0.283586
-0.283838
-0.284134
-0.284482
-0.28489
-0.28537
-0.285938
-0.286619
-0.28747
-0.288475
-0.289443
-0.282348
-0.282787
-0.283055
-0.283275
-0.283457
-0.283608
-0.283747
-0.283888
-0.284046
-0.284231
-0.284455
-0.284723
-0.285044
-0.285425
-0.285879
-0.286422
-0.287078
-0.287913
-0.288917
-0.289813
-0.283287
-0.283681
-0.283919
-0.284107
-0.284257
-0.284376
-0.284482
-0.28459
-0.284714
-0.284867
-0.285058
-0.285294
-0.285583
-0.285931
-0.286351
-0.28686
-0.287482
-0.28829
-0.28929
-0.290108
-0.284232
-0.284583
-0.284789
-0.284946
-0.285062
-0.285146
-0.285216
-0.285288
-0.285376
-0.285493
-0.285647
-0.285846
-0.286097
-0.286406
-0.286785
-0.287251
-0.287829
-0.288598
-0.289555
-0.290337
-0.285183
-0.285492
-0.285666
-0.28579
-0.285871
-0.285919
-0.28595
-0.285983
-0.286031
-0.286107
-0.28622
-0.286378
-0.286585
-0.28685
-0.287181
-0.287595
-0.288118
-0.288837
-0.289744
-0.290447
-0.286137
-0.286406
-0.286549
-0.286639
-0.286683
-0.286692
-0.286683
-0.286673
-0.286677
-0.286709
-0.286777
-0.286889
-0.287049
-0.287262
-0.287538
-0.287892
-0.288349
-0.289006
-0.289853
-0.290438
-0.287096
-0.287327
-0.287438
-0.287493
-0.287499
-0.287467
-0.287414
-0.287358
-0.287315
-0.287299
-0.287318
-0.28738
-0.287487
-0.287644
-0.287859
-0.288144
-0.288524
-0.289103
-0.289878
-0.290312
-0.28806
-0.288254
-0.288334
-0.288353
-0.288319
-0.288242
-0.288143
-0.288038
-0.287945
-0.287877
-0.287844
-0.287851
-0.287901
-0.287997
-0.288144
-0.288352
-0.288645
-0.289132
-0.28982
-0.290065
-0.289029
-0.289189
-0.289237
-0.289219
-0.289143
-0.28902
-0.288871
-0.288714
-0.288567
-0.288444
-0.288354
-0.288303
-0.288293
-0.288323
-0.288397
-0.288522
-0.288715
-0.289095
-0.289681
-0.289693
-0.290004
-0.290132
-0.290148
-0.290092
-0.289972
-0.289801
-0.289599
-0.289387
-0.289182
-0.289
-0.28885
-0.288738
-0.288664
-0.288625
-0.288621
-0.288655
-0.288741
-0.288998
-0.289467
-0.289193
-0.290988
-0.291085
-0.291069
-0.290974
-0.290808
-0.290586
-0.290328
-0.290057
-0.289791
-0.289547
-0.289334
-0.289157
-0.289015
-0.288904
-0.288819
-0.288758
-0.288727
-0.288847
-0.289184
-0.288561
-0.291983
-0.29205
-0.292002
-0.291866
-0.291652
-0.291376
-0.291059
-0.290726
-0.290396
-0.290085
-0.289806
-0.289562
-0.28935
-0.289164
-0.288995
-0.288836
-0.288681
-0.288648
-0.28884
-0.287795
-0.292991
-0.293031
-0.29295
-0.292772
-0.292507
-0.292173
-0.291794
-0.291395
-0.290997
-0.290618
-0.290269
-0.289954
-0.289671
-0.289409
-0.289154
-0.288893
-0.288609
-0.28841
-0.288447
-0.286897
-0.294015
-0.294029
-0.293915
-0.293693
-0.293375
-0.292981
-0.292536
-0.292067
-0.291597
-0.291146
-0.290724
-0.290337
-0.289979
-0.28964
-0.289298
-0.288935
-0.288518
-0.288141
-0.288015
-0.285866
-0.295061
-0.295049
-0.2949
-0.294632
-0.294258
-0.293801
-0.293286
-0.292744
-0.292199
-0.291671
-0.291174
-0.290712
-0.290279
-0.28986
-0.289432
-0.288966
-0.288416
-0.287849
-0.287558
-0.284709
-0.296132
-0.296095
-0.29591
-0.295594
-0.295161
-0.294636
-0.294049
-0.293429
-0.292805
-0.292198
-0.291622
-0.291082
-0.290572
-0.290074
-0.289559
-0.288991
-0.288307
-0.287541
-0.287086
-0.283431
-0.297234
-0.297172
-0.296949
-0.296581
-0.296086
-0.295491
-0.294826
-0.294126
-0.293419
-0.292728
-0.29207
-0.29145
-0.290861
-0.290282
-0.289681
-0.289013
-0.288196
-0.287224
-0.286612
-0.282045
-0.298371
-0.298284
-0.298021
-0.297599
-0.297039
-0.296368
-0.295623
-0.294837
-0.294043
-0.293266
-0.292523
-0.29182
-0.291149
-0.290489
-0.289802
-0.289034
-0.288088
-0.286904
-0.28614
-0.280568
-0.299551
-0.299437
-0.299132
-0.298653
-0.298023
-0.297273
-0.296443
-0.295568
-0.294683
-0.293815
-0.292984
-0.292194
-0.29144
-0.290698
-0.289924
-0.289058
-0.287984
-0.286585
-0.285672
-0.279021
-0.30078
-0.300636
-0.300286
-0.299746
-0.299043
-0.29821
-0.29729
-0.296322
-0.295342
-0.294381
-0.293457
-0.292579
-0.291739
-0.290913
-0.290051
-0.289088
-0.287889
-0.286277
-0.285205
-0.277435
-0.302066
-0.30189
-0.301491
-0.300886
-0.300104
-0.299185
-0.29817
-0.297105
-0.296026
-0.294967
-0.293948
-0.292978
-0.29205
-0.291137
-0.290189
-0.289129
-0.287807
-0.285993
-0.284737
-0.275867
-0.303416
-0.303203
-0.302751
-0.302077
-0.301213
-0.300202
-0.299089
-0.297922
-0.296741
-0.29558
-0.294463
-0.293398
-0.292379
-0.291379
-0.290342
-0.28919
-0.287745
-0.285754
-0.284268
-0.274411
-0.304837
-0.304583
-0.304074
-0.303326
-0.302374
-0.301267
-0.300052
-0.298779
-0.297492
-0.296227
-0.295007
-0.293845
-0.292733
-0.291643
-0.29052
-0.289279
-0.287716
-0.285587
-0.283766
-0.273093
-0.306339
-0.306037
-0.305467
-0.304638
-0.303595
-0.302387
-0.301065
-0.299683
-0.298286
-0.296913
-0.295589
-0.294326
-0.293118
-0.291939
-0.290731
-0.289413
-0.287748
-0.285559
-0.283148
-0.271639
-0.307931
-0.307573
-0.306935
-0.306022
-0.304882
-0.303567
-0.302135
-0.30064
-0.29913
-0.297646
-0.296215
-0.294849
-0.293544
-0.292274
-0.290987
-0.289609
-0.287894
-0.285829
-0.282597
-0.270312
-0.30962
-0.309199
-0.308487
-0.307483
-0.30624
-0.304815
-0.303268
-0.301656
-0.300031
-0.298433
-0.296892
-0.295421
-0.294016
-0.292656
-0.291291
-0.289874
-0.288181
-0.286521
-0.283038
-0.273871
-0.311415
-0.310922
-0.310129
-0.309029
-0.307677
-0.306137
-0.304471
-0.302739
-0.300995
-0.299282
-0.297628
-0.296049
-0.294542
-0.293088
-0.291647
-0.290196
-0.288553
-0.287369
-0.284764
-0.291008
-0.313326
-0.31275
-0.31187
-0.310666
-0.3092
-0.307539
-0.30575
-0.303896
-0.302031
-0.300199
-0.29843
-0.296741
-0.295128
-0.293575
-0.292049
-0.290554
-0.288934
-0.288108
-0.285822
-0.294526
-0.315362
-0.314691
-0.313715
-0.312401
-0.310815
-0.309029
-0.307114
-0.305133
-0.303144
-0.301192
-0.299306
-0.297502
-0.295777
-0.294117
-0.292493
-0.290927
-0.289275
-0.288561
-0.286167
-0.294479
-0.31753
-0.316752
-0.315672
-0.314241
-0.312528
-0.310613
-0.308567
-0.306458
-0.304342
-0.302267
-0.300261
-0.298338
-0.296495
-0.294716
-0.292976
-0.291304
-0.289555
-0.288754
-0.286137
-0.293432
-0.319838
-0.31894
-0.317748
-0.316192
-0.314347
-0.312298
-0.310118
-0.307876
-0.305632
-0.303431
-0.301301
-0.299253
-0.297282
-0.295371
-0.29349
-0.291671
-0.289763
-0.288722
-0.285805
-0.291665
-0.322296
-0.321263
-0.31995
-0.318262
-0.316279
-0.31409
-0.311772
-0.309396
-0.30702
-0.30469
-0.30243
-0.30025
-0.29814
-0.296078
-0.294031
-0.292021
-0.28989
-0.288492
-0.285212
-0.289453
-0.323727
-0.322283
-0.320456
-0.318328
-0.315995
-0.313536
-0.311022
-0.308512
-0.306048
-0.303654
-0.301332
-0.299069
-0.296835
-0.294589
-0.292344
-0.289934
-0.28809
-0.284406
-0.287019
-0.324756
-0.322781
-0.320502
-0.31802
-0.315415
-0.31276
-0.310112
-0.307511
-0.304974
-0.302499
-0.300065
-0.297635
-0.295159
-0.292634
-0.289891
-0.287541
-0.283428
-0.284496
-0.325242
-0.322806
-0.320171
-0.317417
-0.314617
-0.311827
-0.309081
-0.306392
-0.30375
-0.301125
-0.298472
-0.29573
-0.292882
-0.289761
-0.286867
-0.282312
-0.281963
-0.327846
-0.325247
-0.322453
-0.319546
-0.316597
-0.313659
-0.310761
-0.307909
-0.305084
-0.302245
-0.299337
-0.296294
-0.293084
-0.289545
-0.286085
-0.281081
-0.279462
-0.327829
-0.324871
-0.321807
-0.318705
-0.315613
-0.312554
-0.309524
-0.306495
-0.303417
-0.300224
-0.296842
-0.293231
-0.289242
-0.285206
-0.279753
-0.27701
-0.327432
-0.324206
-0.320946
-0.317692
-0.31446
-0.311236
-0.30798
-0.304633
-0.30112
-0.297363
-0.293319
-0.288852
-0.284239
-0.278341
-0.274611
-0.326747
-0.323321
-0.319896
-0.316477
-0.313039
-0.309532
-0.305883
-0.302015
-0.297849
-0.293339
-0.288375
-0.283191
-0.276853
-0.27226
-0.325835
-0.322227
-0.318605
-0.31493
-0.311141
-0.307158
-0.302898
-0.298287
-0.293286
-0.287808
-0.282063
-0.275293
-0.269945
-0.324684
-0.320838
-0.316901
-0.312798
-0.308444
-0.303756
-0.298668
-0.293152
-0.28715
-0.280857
-0.273664
-0.267653
-0.323173
-0.318943
-0.314491
-0.309728
-0.304577
-0.298981
-0.292932
-0.286399
-0.279572
-0.271965
-0.265368
-0.321044
-0.316206
-0.310996
-0.305346
-0.299217
-0.292618
-0.285552
-0.278206
-0.270195
-0.263076
-0.317929
-0.312233
-0.306051
-0.299364
-0.292205
-0.284606
-0.276756
-0.268352
-0.260762
-0.306678
-0.299413
-0.291686
-0.283558
-0.275219
-0.266433
-0.258413
-0.299354
-0.291056
-0.282404
-0.273591
-0.264433
-0.256018
-0.290308
-0.28114
-0.271868
-0.26235
-0.253565
-0.270047
-0.260178
-0.251045
-0.257912
-0.248448
-0.238319
-0.228523
-0.250629
-0.240384
-0.230864
-0.271547
-0.261999
-0.252311
-0.242354
-0.233126
-0.280969
-0.272281
-0.26319
-0.253898
-0.244236
-0.235318
-0.295784
-0.288729
-0.281082
-0.272909
-0.264279
-0.255395
-0.246035
-0.23745
-0.300719
-0.294757
-0.288222
-0.281102
-0.273437
-0.26527
-0.256807
-0.247754
-0.239534
-0.304245
-0.299203
-0.293695
-0.287651
-0.281037
-0.273871
-0.266169
-0.258137
-0.249398
-0.241583
-0.306729
-0.302375
-0.297702
-0.292613
-0.287028
-0.280896
-0.274216
-0.266977
-0.25939
-0.25097
-0.243609
-0.308519
-0.304636
-0.300569
-0.296231
-0.291524
-0.286365
-0.280688
-0.27448
-0.267699
-0.260567
-0.252473
-0.245629
-0.30986
-0.306297
-0.302641
-0.298836
-0.2948
-0.290441
-0.285673
-0.280423
-0.274666
-0.268336
-0.261671
-0.253908
-0.247657
-0.310881
-0.307565
-0.304195
-0.30075
-0.297181
-0.293418
-0.289373
-0.284963
-0.28011
-0.274782
-0.26889
-0.262702
-0.255276
-0.249707
-0.311608
-0.308537
-0.3054
-0.302213
-0.298963
-0.295611
-0.292093
-0.288332
-0.284245
-0.279756
-0.274831
-0.269361
-0.263659
-0.256572
-0.251795
-0.312
-0.309218
-0.306323
-0.30336
-0.300347
-0.29728
-0.294127
-0.290831
-0.287324
-0.283528
-0.279369
-0.274819
-0.26975
-0.264536
-0.257794
-0.253929
-0.311991
-0.309564
-0.306958
-0.304235
-0.301439
-0.298595
-0.2957
-0.292729
-0.289636
-0.286355
-0.282819
-0.278958
-0.274749
-0.270055
-0.265328
-0.25893
-0.256113
-0.311492
-0.309508
-0.307255
-0.30482
-0.302265
-0.299634
-0.296951
-0.294219
-0.291418
-0.288508
-0.285431
-0.282125
-0.278527
-0.274624
-0.270274
-0.266022
-0.259968
-0.258341
-0.308971
-0.307151
-0.305066
-0.302798
-0.300407
-0.297935
-0.295409
-0.292833
-0.290191
-0.287448
-0.284553
-0.281451
-0.278082
-0.274447
-0.270404
-0.266603
-0.260888
-0.260591
-0.30791
-0.306575
-0.304912
-0.30299
-0.300885
-0.298653
-0.296337
-0.293962
-0.291536
-0.289044
-0.286455
-0.283724
-0.280799
-0.277628
-0.274222
-0.270441
-0.267051
-0.261662
-0.262814
-0.306477
-0.305495
-0.3043
-0.302786
-0.30102
-0.299072
-0.296996
-0.294831
-0.292604
-0.290321
-0.287971
-0.285525
-0.282942
-0.280174
-0.27717
-0.273951
-0.270382
-0.267342
-0.262255
-0.264926
-0.304036
-0.303202
-0.302137
-0.300766
-0.29915
-0.297354
-0.295428
-0.293411
-0.291326
-0.289182
-0.286967
-0.284655
-0.282207
-0.279575
-0.276711
-0.273638
-0.270226
-0.267447
-0.262621
-0.266785
-0.301718
-0.301021
-0.30008
-0.298845
-0.297374
-0.295724
-0.293943
-0.292068
-0.290122
-0.288111
-0.286025
-0.283839
-0.281514
-0.279002
-0.276255
-0.273286
-0.269974
-0.267338
-0.262707
-0.268158
-0.299517
-0.298948
-0.298124
-0.297018
-0.295683
-0.294174
-0.292533
-0.290796
-0.288983
-0.2871
-0.285139
-0.283072
-0.280861
-0.278456
-0.275803
-0.272903
-0.269629
-0.266988
-0.262471
-0.268763
-0.297425
-0.296976
-0.296261
-0.295277
-0.294073
-0.292698
-0.291191
-0.289586
-0.287902
-0.286143
-0.2843
-0.282347
-0.280243
-0.277934
-0.275358
-0.272496
-0.269201
-0.266362
-0.261839
-0.268303
-0.295435
-0.295098
-0.294486
-0.293618
-0.292538
-0.29129
-0.289912
-0.288434
-0.286873
-0.285233
-0.283503
-0.281657
-0.279653
-0.277432
-0.274924
-0.272076
-0.268707
-0.265441
-0.260473
-0.264164
-0.293541
-0.293308
-0.292794
-0.292035
-0.291072
-0.289945
-0.288689
-0.287332
-0.285888
-0.284362
-0.28274
-0.280997
-0.279087
-0.27695
-0.274502
-0.271662
-0.268199
-0.264408
-0.258403
-0.246377
-0.291737
-0.291603
-0.29118
-0.290523
-0.289671
-0.288658
-0.287518
-0.286275
-0.284943
-0.283524
-0.282006
-0.280359
-0.27854
-0.276483
-0.274097
-0.271276
-0.267755
-0.263538
-0.257727
-0.242611
-0.290017
-0.289976
-0.289639
-0.289078
-0.28833
-0.287424
-0.286393
-0.285258
-0.284032
-0.282715
-0.281294
-0.27974
-0.278006
-0.276027
-0.273707
-0.270929
-0.26743
-0.263077
-0.258045
-0.24373
-0.288376
-0.288423
-0.288166
-0.287696
-0.287045
-0.286241
-0.285312
-0.284279
-0.283152
-0.28193
-0.2806
-0.279133
-0.277482
-0.275579
-0.273329
-0.270614
-0.267194
-0.262888
-0.258393
-0.244903
-0.28681
-0.28694
-0.286759
-0.286373
-0.285814
-0.285104
-0.284271
-0.283333
-0.282299
-0.281167
-0.279922
-0.278536
-0.276962
-0.275133
-0.272956
-0.270315
-0.266996
-0.262812
-0.258609
-0.245908
-0.285315
-0.285524
-0.285414
-0.285107
-0.284633
-0.284012
-0.283268
-0.282419
-0.281471
-0.280422
-0.279257
-0.277947
-0.276446
-0.274688
-0.272584
-0.270022
-0.26681
-0.26279
-0.258787
-0.247041
-0.283888
-0.284172
-0.284129
-0.283896
-0.283501
-0.282962
-0.282301
-0.281534
-0.280667
-0.279696
-0.278605
-0.277365
-0.275932
-0.274242
-0.27221
-0.269731
-0.266631
-0.262802
-0.258967
-0.24829
-0.282527
-0.282882
-0.2829
-0.282736
-0.282415
-0.281953
-0.281369
-0.280679
-0.279886
-0.278987
-0.277964
-0.27679
-0.275422
-0.273797
-0.271836
-0.269441
-0.266459
-0.262833
-0.259153
-0.249567
-0.281228
-0.281651
-0.281727
-0.281628
-0.281375
-0.280984
-0.280472
-0.279853
-0.279129
-0.278296
-0.277338
-0.276225
-0.274917
-0.273355
-0.271465
-0.269157
-0.266297
-0.26288
-0.259354
-0.250826
-0.27999
-0.280477
-0.280609
-0.280569
-0.28038
-0.280054
-0.279609
-0.279056
-0.278396
-0.277625
-0.276726
-0.275672
-0.274422
-0.272922
-0.271102
-0.268883
-0.266151
-0.262943
-0.259581
-0.252043
-0.278812
-0.27936
-0.279543
-0.279559
-0.279429
-0.279164
-0.278781
-0.278289
-0.277689
-0.276976
-0.276133
-0.275134
-0.273941
-0.272501
-0.270754
-0.268627
-0.266027
-0.263026
-0.25984
-0.253206
-0.277693
-0.278299
-0.278529
-0.278597
-0.278523
-0.278314
-0.277988
-0.277553
-0.277009
-0.27635
-0.275561
-0.274615
-0.273477
-0.272099
-0.270425
-0.268394
-0.265931
-0.263132
-0.260132
-0.254302
-0.276632
-0.277292
-0.277568
-0.277683
-0.27766
-0.277505
-0.277232
-0.276849
-0.276358
-0.275751
-0.275013
-0.274119
-0.273036
-0.27172
-0.270122
-0.268189
-0.265866
-0.263263
-0.260453
-0.255326
-0.275628
-0.27634
-0.276658
-0.276818
-0.276842
-0.276736
-0.276513
-0.27618
-0.275738
-0.27518
-0.274491
-0.273649
-0.27262
-0.271368
-0.269848
-0.268017
-0.265833
-0.263418
-0.260798
-0.256275
-0.274681
-0.275443
-0.275799
-0.276001
-0.27607
-0.276009
-0.275832
-0.275546
-0.275151
-0.27464
-0.274
-0.273207
-0.272235
-0.271047
-0.269607
-0.267879
-0.265834
-0.263596
-0.261161
-0.257149
-0.273792
-0.274599
-0.274992
-0.275233
-0.275343
-0.275324
-0.275191
-0.274949
-0.274599
-0.274134
-0.27354
-0.272798
-0.271882
-0.27076
-0.269401
-0.267777
-0.265868
-0.263795
-0.261538
-0.257953
-0.27296
-0.27381
-0.274237
-0.274514
-0.274662
-0.274683
-0.27459
-0.274391
-0.274083
-0.273662
-0.273115
-0.272424
-0.271564
-0.270509
-0.269232
-0.26771
-0.265933
-0.264013
-0.261928
-0.258689
-0.272184
-0.273075
-0.273533
-0.273844
-0.274028
-0.274086
-0.274032
-0.273872
-0.273606
-0.273228
-0.272727
-0.272086
-0.271283
-0.270295
-0.2691
-0.26768
-0.266028
-0.264249
-0.262339
-0.25935
-0.271467
-0.272395
-0.272883
-0.273224
-0.273441
-0.273534
-0.273517
-0.273394
-0.273168
-0.272832
-0.272376
-0.271785
-0.27104
-0.270119
-0.269005
-0.267684
-0.266152
-0.264509
-0.262759
-0.259942
-0.270807
-0.27177
-0.272285
-0.272656
-0.272903
-0.273029
-0.273046
-0.272959
-0.272771
-0.272476
-0.272064
-0.271523
-0.270835
-0.269982
-0.268947
-0.267722
-0.266305
-0.264782
-0.263115
-0.260619
-0.270206
-0.271201
-0.271741
-0.272138
-0.272414
-0.27257
-0.272619
-0.272567
-0.272416
-0.272161
-0.271793
-0.271301
-0.27067
-0.269883
-0.268927
-0.267793
-0.266485
-0.265076
-0.263505
-0.261302
-0.269662
-0.270687
-0.27125
-0.271672
-0.271975
-0.272159
-0.272239
-0.27222
-0.272104
-0.271887
-0.271563
-0.27112
-0.270544
-0.269822
-0.268942
-0.267898
-0.266692
-0.265389
-0.263916
-0.261926
-0.269177
-0.270229
-0.270813
-0.271258
-0.271586
-0.271797
-0.271905
-0.271917
-0.271835
-0.271656
-0.271374
-0.270979
-0.270458
-0.2698
-0.268995
-0.268035
-0.266926
-0.265722
-0.264343
-0.262524
-0.268752
-0.269828
-0.270431
-0.270896
-0.271247
-0.271483
-0.271618
-0.27166
-0.271611
-0.271468
-0.271228
-0.270879
-0.270412
-0.269817
-0.269083
-0.268206
-0.267189
-0.266077
-0.26479
-0.263121
-0.268385
-0.269483
-0.270104
-0.270588
-0.270959
-0.271218
-0.271378
-0.271449
-0.271431
-0.271324
-0.271123
-0.270821
-0.270407
-0.269872
-0.269209
-0.268411
-0.26748
-0.266457
-0.265261
-0.263729
-0.268078
-0.269195
-0.269831
-0.270332
-0.270723
-0.271003
-0.271187
-0.271284
-0.271296
-0.271224
-0.271062
-0.270804
-0.270442
-0.269966
-0.269371
-0.268649
-0.267803
-0.266865
-0.265758
-0.264352
-0.26783
-0.268964
-0.269614
-0.27013
-0.270538
-0.270837
-0.271044
-0.271166
-0.271207
-0.271168
-0.271044
-0.270829
-0.270517
-0.270099
-0.269569
-0.268922
-0.268158
-0.267302
-0.266283
-0.264989
-0.267642
-0.26879
-0.269451
-0.269981
-0.270404
-0.270722
-0.270949
-0.271095
-0.271164
-0.271156
-0.271068
-0.270896
-0.270633
-0.270272
-0.269806
-0.26923
-0.268545
-0.267771
-0.266841
-0.265665
-0.267513
-0.268673
-0.269344
-0.269885
-0.270322
-0.270656
-0.270902
-0.271071
-0.271165
-0.271188
-0.271136
-0.271005
-0.270789
-0.270483
-0.270079
-0.269574
-0.268967
-0.268273
-0.267433
-0.266374
-0.267444
-0.268612
-0.269291
-0.269842
-0.270291
-0.27064
-0.270904
-0.271093
-0.271212
-0.271264
-0.271246
-0.271155
-0.270986
-0.270733
-0.270391
-0.269955
-0.269424
-0.268811
-0.268061
-0.267117
-0.267434
-0.268607
-0.269292
-0.269852
-0.270312
-0.270673
-0.270953
-0.271162
-0.271305
-0.271384
-0.271399
-0.271347
-0.271222
-0.271021
-0.270739
-0.270371
-0.269916
-0.269383
-0.268726
-0.267896
-0.267483
-0.268659
-0.269348
-0.269914
-0.270382
-0.270755
-0.27105
-0.271277
-0.271441
-0.271547
-0.271594
-0.271579
-0.271498
-0.271348
-0.271125
-0.270824
-0.270443
-0.269992
-0.269427
-0.268712
-0.26759
-0.268765
-0.269457
-0.270027
-0.270503
-0.270886
-0.271193
-0.271437
-0.271622
-0.271753
-0.27183
-0.271851
-0.271813
-0.271713
-0.271547
-0.271312
-0.271006
-0.270635
-0.270164
-0.269564
-0.267754
-0.268926
-0.269618
-0.270191
-0.270673
-0.271064
-0.271383
-0.271642
-0.271846
-0.272001
-0.272107
-0.272163
-0.272167
-0.272115
-0.272005
-0.271835
-0.271602
-0.271312
-0.270936
-0.270452
-0.267975
-0.26914
-0.269831
-0.270405
-0.27089
-0.271288
-0.271618
-0.27189
-0.272112
-0.27229
-0.272423
-0.272513
-0.272557
-0.272553
-0.272498
-0.272391
-0.272232
-0.272023
-0.271741
-0.271372
-0.268252
-0.269407
-0.270094
-0.270668
-0.271155
-0.271558
-0.271896
-0.272181
-0.27242
-0.272618
-0.272778
-0.2729
-0.272983
-0.273025
-0.273024
-0.27298
-0.272892
-0.272765
-0.272578
-0.272324
-0.268583
-0.269725
-0.270407
-0.270978
-0.271466
-0.271873
-0.272218
-0.272513
-0.272767
-0.272985
-0.27317
-0.273323
-0.273443
-0.273529
-0.273582
-0.273599
-0.273582
-0.273535
-0.273444
-0.273303
-0.268967
-0.270093
-0.270767
-0.271334
-0.271821
-0.27223
-0.27258
-0.272885
-0.273152
-0.273389
-0.273597
-0.27378
-0.273935
-0.274065
-0.274168
-0.274246
-0.274299
-0.274332
-0.274335
-0.274307
-0.269402
-0.270509
-0.271174
-0.271735
-0.272218
-0.272628
-0.272982
-0.273294
-0.273574
-0.273827
-0.274058
-0.274268
-0.274458
-0.274629
-0.274782
-0.274918
-0.27504
-0.275152
-0.275247
-0.27533
-0.269887
-0.270971
-0.271624
-0.272178
-0.272657
-0.273065
-0.273422
-0.27374
-0.274031
-0.274299
-0.27455
-0.274786
-0.275009
-0.27522
-0.27542
-0.275613
-0.275801
-0.275991
-0.276178
-0.276369
-0.278081
-0.278328
-0.279146
-0.279561
-0.280243
-0.280689
-0.281146
-0.281338
-0.28128
-0.280777
-0.279755
-0.278096
-0.275779
-0.272862
-0.26956
-0.266262
-0.279313
-0.279712
-0.280768
-0.281434
-0.282406
-0.283165
-0.283951
-0.284473
-0.284729
-0.284493
-0.283656
-0.282064
-0.279649
-0.276427
-0.272579
-0.268474
-0.280561
-0.281092
-0.282395
-0.283305
-0.28457
-0.285642
-0.286761
-0.287618
-0.288194
-0.288232
-0.287589
-0.286069
-0.28356
-0.280033
-0.275634
-0.270711
-0.281818
-0.282463
-0.284017
-0.285166
-0.286726
-0.28811
-0.289565
-0.290761
-0.291664
-0.291982
-0.29154
-0.290101
-0.287502
-0.283674
-0.278721
-0.272972
-0.283078
-0.283816
-0.285628
-0.287008
-0.288863
-0.290559
-0.292352
-0.293892
-0.295126
-0.295733
-0.295499
-0.294148
-0.291467
-0.28734
-0.281834
-0.275255
-0.284333
-0.285144
-0.287218
-0.288823
-0.290974
-0.29298
-0.295112
-0.296996
-0.298568
-0.29947
-0.299453
-0.298198
-0.295443
-0.291023
-0.284965
-0.277556
-0.285576
-0.286439
-0.28878
-0.290601
-0.293047
-0.29536
-0.297833
-0.300065
-0.301977
-0.303181
-0.303386
-0.302238
-0.299417
-0.294712
-0.288109
-0.279873
-0.2868
-0.287694
-0.290306
-0.292334
-0.295073
-0.297689
-0.300503
-0.303083
-0.305339
-0.30685
-0.307286
-0.306254
-0.303377
-0.298397
-0.291257
-0.282199
-0.287999
-0.288901
-0.291787
-0.294014
-0.297042
-0.299957
-0.303109
-0.306037
-0.30864
-0.310465
-0.311136
-0.31023
-0.307308
-0.302065
-0.294398
-0.28453
-0.289166
-0.290053
-0.293216
-0.295632
-0.298945
-0.302154
-0.30564
-0.308915
-0.311867
-0.314008
-0.314921
-0.314152
-0.311196
-0.305702
-0.297522
-0.286858
-0.290294
-0.291142
-0.294584
-0.297179
-0.300773
-0.304267
-0.308085
-0.311703
-0.315009
-0.317467
-0.318625
-0.318002
-0.315026
-0.309296
-0.300619
-0.289176
-0.291379
-0.292161
-0.295885
-0.298648
-0.302515
-0.306289
-0.310431
-0.314391
-0.317999
-0.320825
-0.322232
-0.321765
-0.318781
-0.31283
-0.303675
-0.291474
-0.292415
-0.293105
-0.297112
-0.300031
-0.304164
-0.308208
-0.312667
-0.316966
-0.320918
-0.324068
-0.325725
-0.325424
-0.322445
-0.316291
-0.306677
-0.293743
-0.293399
-0.293967
-0.298257
-0.301324
-0.305712
-0.310017
-0.314784
-0.319417
-0.323718
-0.327182
-0.329087
-0.328961
-0.326001
-0.319661
-0.309612
-0.295973
-0.294333
-0.29474
-0.299316
-0.30252
-0.307152
-0.311706
-0.31677
-0.321732
-0.326368
-0.330153
-0.332304
-0.332361
-0.329434
-0.322926
-0.312467
-0.298152
-0.295221
-0.295415
-0.300288
-0.303611
-0.308476
-0.313267
-0.318615
-0.323901
-0.328855
-0.332966
-0.33536
-0.335606
-0.332728
-0.326069
-0.315227
-0.300269
-0.29602
-0.296012
-0.301171
-0.304591
-0.30968
-0.314696
-0.320316
-0.325911
-0.331168
-0.33561
-0.338239
-0.33868
-0.335867
-0.329076
-0.31788
-0.302315
-0.296732
-0.296539
-0.301933
-0.305471
-0.310759
-0.315994
-0.321873
-0.327748
-0.333298
-0.338077
-0.340923
-0.341566
-0.338838
-0.331929
-0.320411
-0.304277
-0.297398
-0.29696
-0.302604
-0.306233
-0.311705
-0.317148
-0.323262
-0.329415
-0.33525
-0.340366
-0.343395
-0.344258
-0.341621
-0.334615
-0.322809
-0.306145
-0.285178
-0.298021
-0.297278
-0.303179
-0.306877
-0.312522
-0.318159
-0.324496
-0.330894
-0.336995
-0.342381
-0.345723
-0.346754
-0.3442
-0.337121
-0.325058
-0.307908
-0.286236
-0.298596
-0.297499
-0.303651
-0.307409
-0.313208
-0.319024
-0.325567
-0.332188
-0.338541
-0.344205
-0.347815
-0.349026
-0.346568
-0.339448
-0.327148
-0.309558
-0.287237
-0.299129
-0.297628
-0.30402
-0.307829
-0.313762
-0.31974
-0.326469
-0.3333
-0.339887
-0.345789
-0.349673
-0.351075
-0.34871
-0.341569
-0.329073
-0.311092
-0.288175
-0.299626
-0.297669
-0.304286
-0.308139
-0.314183
-0.320307
-0.327201
-0.334228
-0.341026
-0.346737
-0.351295
-0.352889
-0.350624
-0.343483
-0.33082
-0.312496
-0.289047
-0.300096
-0.297629
-0.304451
-0.30834
-0.314475
-0.320727
-0.327765
-0.33497
-0.341975
-0.347956
-0.352688
-0.35446
-0.352305
-0.345182
-0.332384
-0.313768
-0.289848
-0.300545
-0.297516
-0.304517
-0.308437
-0.314638
-0.321
-0.328161
-0.335527
-0.342729
-0.349034
-0.353844
-0.355784
-0.353748
-0.346658
-0.333763
-0.314902
-0.290575
-0.300979
-0.297341
-0.304488
-0.308432
-0.314677
-0.321131
-0.328393
-0.335898
-0.343276
-0.349835
-0.354759
-0.356858
-0.354947
-0.347906
-0.33495
-0.315896
-0.291226
-0.301402
-0.297116
-0.304365
-0.30833
-0.314595
-0.321121
-0.328463
-0.336085
-0.343615
-0.350375
-0.35543
-0.357682
-0.355898
-0.348925
-0.335943
-0.316746
-0.2918
-0.301814
-0.296855
-0.304153
-0.308134
-0.314397
-0.320975
-0.328375
-0.336091
-0.343747
-0.350679
-0.35586
-0.358254
-0.356601
-0.349713
-0.336741
-0.317453
-0.292296
-0.30221
-0.296574
-0.303856
-0.307849
-0.314085
-0.320697
-0.328132
-0.335919
-0.343674
-0.350765
-0.356053
-0.358576
-0.357056
-0.35027
-0.337342
-0.318016
-0.292715
-0.302578
-0.296287
-0.30348
-0.307477
-0.313666
-0.32029
-0.327739
-0.335572
-0.343401
-0.350667
-0.356011
-0.35865
-0.357264
-0.350596
-0.337748
-0.318435
-0.293058
-0.302894
-0.296008
-0.303028
-0.307021
-0.313141
-0.319759
-0.327201
-0.335054
-0.34293
-0.350418
-0.355737
-0.35848
-0.357228
-0.350695
-0.337961
-0.318712
-0.293324
-0.303123
-0.29575
-0.302508
-0.306484
-0.312516
-0.319108
-0.326521
-0.334371
-0.342264
-0.349869
-0.355225
-0.358068
-0.356951
-0.350569
-0.337982
-0.318851
-0.293517
-0.303213
-0.295519
-0.301926
-0.305865
-0.311793
-0.318339
-0.325704
-0.333527
-0.341406
-0.348689
-0.354472
-0.357418
-0.356438
-0.350223
-0.337818
-0.318853
-0.293638
-0.263125
-0.303095
-0.295314
-0.301288
-0.305165
-0.310972
-0.317455
-0.324752
-0.332526
-0.340377
-0.347586
-0.35349
-0.356535
-0.355694
-0.349661
-0.337471
-0.318724
-0.293691
-0.263284
-0.302676
-0.29512
-0.300598
-0.304382
-0.310054
-0.316458
-0.323669
-0.331373
-0.339181
-0.346362
-0.352287
-0.355428
-0.354726
-0.348892
-0.336947
-0.318464
-0.293673
-0.263439
-0.301833
-0.294902
-0.29986
-0.303516
-0.309044
-0.315354
-0.322463
-0.33008
-0.337824
-0.34496
-0.350888
-0.354112
-0.353549
-0.347925
-0.336253
-0.318074
-0.293576
-0.263574
-0.300426
-0.29463
-0.299087
-0.302575
-0.307946
-0.314149
-0.321142
-0.328654
-0.336316
-0.3434
-0.349303
-0.352598
-0.352176
-0.346777
-0.335407
-0.317577
-0.293428
-0.263721
-0.298383
-0.294257
-0.298267
-0.30154
-0.306726
-0.312801
-0.319653
-0.327038
-0.334597
-0.341622
-0.347464
-0.350824
-0.350563
-0.345433
-0.334432
-0.317038
-0.293341
-0.264038
-0.295446
-0.293537
-0.297302
-0.300329
-0.305307
-0.311234
-0.317926
-0.325157
-0.332584
-0.33952
-0.345308
-0.348728
-0.348642
-0.34382
-0.333251
-0.316377
-0.293226
-0.264426
-0.289892
-0.292064
-0.296207
-0.299075
-0.303938
-0.309796
-0.316389
-0.32351
-0.330814
-0.337626
-0.343409
-0.346811
-0.346759
-0.342049
-0.331673
-0.315053
-0.292185
-0.263652
-0.278167
-0.289961
-0.295403
-0.298249
-0.303128
-0.309039
-0.315649
-0.322774
-0.330067
-0.336869
-0.342499
-0.34577
-0.34554
-0.340606
-0.329973
-0.313087
-0.289966
-0.261207
-0.272256
-0.288006
-0.294201
-0.29681
-0.301601
-0.307449
-0.313887
-0.320755
-0.327698
-0.334072
-0.3392
-0.341945
-0.341192
-0.335802
-0.324841
-0.307796
-0.284695
-0.256112
-0.269934
-0.286107
-0.292581
-0.295016
-0.299714
-0.305472
-0.311694
-0.318243
-0.324763
-0.330631
-0.335146
-0.337258
-0.3359
-0.330007
-0.318714
-0.301549
-0.278546
-0.250253
-0.268894
-0.283682
-0.290305
-0.292744
-0.297341
-0.302995
-0.308999
-0.315223