/*--------------------------------*- C++ -*----------------------------------*\
  =========                 |
  \\      /  F ield         | OpenFOAM: The Open Source CFD Toolbox
   \\    /   O peration     | Website:  https://openfoam.org
    \\  /    A nd           | Version:  7
     \\/     M anipulation  |
\*---------------------------------------------------------------------------*/
FoamFile
{
    version     2.0;
    format      ascii;
    class       volScalarField;
    location    "45";
    object      p;
}
// * * * * * * * * * * * * * * * * * * * * * * * * * * * * * * * * * * * * * //

dimensions      [0 2 -2 0 0 0 0];

internalField   nonuniform List<scalar> 
34000
(
-0.166455
-0.167476
-0.168098
-0.168632
-0.1691
-0.169505
-0.169862
-0.170183
-0.170479
-0.170754
-0.171015
-0.171264
-0.171504
-0.171736
-0.171961
-0.172182
-0.172402
-0.172623
-0.172847
-0.173077
-0.166509
-0.167527
-0.168148
-0.168681
-0.169148
-0.169551
-0.169907
-0.170227
-0.170521
-0.170796
-0.171056
-0.171304
-0.171543
-0.171774
-0.171999
-0.172219
-0.172438
-0.172659
-0.172883
-0.173111
-0.166608
-0.16762
-0.168238
-0.168767
-0.169231
-0.169631
-0.169985
-0.170303
-0.170594
-0.170867
-0.171124
-0.17137
-0.171606
-0.171835
-0.172057
-0.172275
-0.172492
-0.172711
-0.172933
-0.173156
-0.16675
-0.167753
-0.168366
-0.168891
-0.16935
-0.169746
-0.170095
-0.170409
-0.170697
-0.170965
-0.171219
-0.171461
-0.171693
-0.171917
-0.172135
-0.17235
-0.172562
-0.172778
-0.172997
-0.173213
-0.166934
-0.167927
-0.168532
-0.169051
-0.169505
-0.169895
-0.170238
-0.170547
-0.170829
-0.171092
-0.17134
-0.171576
-0.171802
-0.172021
-0.172233
-0.172442
-0.172649
-0.17286
-0.173073
-0.173278
-0.167161
-0.16814
-0.168737
-0.169248
-0.169694
-0.170077
-0.170413
-0.170714
-0.170989
-0.171245
-0.171486
-0.171715
-0.171934
-0.172145
-0.172349
-0.17255
-0.17275
-0.172955
-0.173161
-0.173352
-0.167429
-0.168391
-0.168978
-0.16948
-0.169917
-0.170291
-0.170619
-0.170911
-0.171178
-0.171425
-0.171657
-0.171876
-0.172086
-0.172288
-0.172483
-0.172674
-0.172864
-0.173062
-0.173259
-0.173433
-0.167737
-0.168681
-0.169256
-0.169747
-0.170173
-0.170537
-0.170855
-0.171137
-0.171394
-0.17163
-0.171851
-0.17206
-0.172259
-0.172449
-0.172632
-0.172812
-0.172991
-0.173179
-0.173365
-0.173519
-0.168085
-0.169008
-0.16957
-0.170048
-0.170462
-0.170815
-0.17112
-0.171391
-0.171635
-0.17186
-0.172068
-0.172264
-0.17245
-0.172626
-0.172796
-0.172961
-0.173127
-0.173304
-0.173478
-0.173607
-0.16847
-0.16937
-0.169918
-0.170382
-0.170783
-0.171122
-0.171415
-0.171672
-0.171902
-0.172113
-0.172307
-0.172488
-0.172658
-0.172819
-0.172972
-0.173122
-0.173271
-0.173435
-0.173594
-0.173695
-0.168893
-0.169768
-0.170299
-0.170749
-0.171135
-0.171459
-0.171736
-0.171978
-0.172193
-0.172388
-0.172565
-0.17273
-0.172882
-0.173025
-0.17316
-0.17329
-0.173421
-0.17357
-0.173712
-0.173781
-0.169351
-0.170199
-0.170713
-0.171146
-0.171516
-0.171824
-0.172085
-0.17231
-0.172507
-0.172684
-0.172843
-0.172988
-0.173121
-0.173242
-0.173356
-0.173465
-0.173575
-0.173705
-0.173829
-0.173861
-0.169843
-0.170664
-0.171159
-0.171574
-0.171926
-0.172216
-0.172458
-0.172665
-0.172843
-0.172999
-0.173138
-0.173261
-0.173371
-0.17347
-0.17356
-0.173644
-0.173729
-0.173839
-0.173941
-0.173931
-0.170367
-0.171159
-0.171635
-0.172032
-0.172364
-0.172634
-0.172857
-0.173042
-0.173199
-0.173333
-0.173449
-0.173548
-0.173634
-0.173706
-0.173768
-0.173825
-0.173882
-0.173968
-0.174047
-0.173989
-0.170924
-0.171686
-0.172141
-0.172517
-0.172829
-0.173078
-0.173278
-0.173441
-0.173574
-0.173684
-0.173775
-0.173848
-0.173905
-0.173948
-0.17398
-0.174005
-0.174031
-0.17409
-0.174143
-0.174029
-0.17151
-0.172242
-0.172676
-0.17303
-0.173319
-0.173545
-0.173722
-0.173861
-0.173968
-0.174052
-0.174114
-0.174158
-0.174185
-0.174196
-0.174194
-0.174184
-0.174174
-0.174202
-0.174225
-0.174048
-0.172126
-0.172826
-0.173238
-0.173569
-0.173835
-0.174037
-0.174188
-0.174299
-0.174379
-0.174434
-0.174466
-0.174478
-0.174471
-0.174447
-0.174407
-0.174358
-0.174308
-0.1743
-0.174292
-0.174039
-0.172771
-0.173438
-0.173827
-0.174135
-0.174375
-0.17455
-0.174674
-0.174757
-0.174807
-0.17483
-0.174829
-0.174807
-0.174764
-0.1747
-0.174619
-0.174526
-0.17443
-0.174382
-0.17434
-0.173998
-0.173442
-0.174077
-0.174442
-0.174725
-0.174938
-0.175086
-0.17518
-0.175232
-0.175249
-0.175239
-0.175203
-0.175143
-0.17506
-0.174954
-0.174828
-0.174686
-0.17454
-0.174445
-0.174366
-0.173912
-0.17414
-0.174743
-0.175083
-0.175339
-0.175525
-0.175642
-0.175705
-0.175723
-0.175706
-0.17566
-0.175586
-0.175487
-0.175361
-0.175209
-0.175033
-0.174838
-0.174635
-0.174488
-0.174375
-0.173762
-0.174865
-0.175435
-0.175749
-0.175978
-0.176134
-0.176219
-0.176248
-0.176231
-0.176178
-0.176092
-0.175978
-0.175836
-0.175665
-0.175464
-0.175234
-0.174981
-0.174714
-0.174509
-0.174376
-0.173559
-0.175616
-0.176153
-0.176441
-0.176641
-0.176765
-0.176816
-0.17681
-0.176755
-0.176662
-0.176535
-0.176379
-0.176191
-0.175972
-0.175718
-0.175431
-0.175114
-0.174778
-0.174502
-0.174284
-0.173393
-0.176392
-0.176897
-0.177157
-0.177327
-0.177418
-0.177434
-0.177389
-0.177294
-0.177159
-0.176989
-0.176787
-0.176552
-0.176282
-0.175972
-0.175623
-0.175237
-0.174825
-0.174474
-0.174171
-0.173145
-0.177195
-0.177667
-0.177899
-0.178037
-0.178093
-0.178071
-0.177985
-0.177848
-0.177669
-0.177453
-0.177203
-0.176919
-0.176594
-0.176226
-0.175812
-0.175352
-0.174856
-0.174422
-0.174035
-0.172816
-0.178024
-0.178463
-0.178667
-0.178772
-0.17879
-0.178727
-0.178599
-0.178417
-0.178191
-0.177927
-0.177627
-0.17729
-0.17691
-0.176481
-0.175998
-0.175461
-0.174873
-0.174344
-0.173869
-0.172408
-0.178882
-0.179288
-0.179461
-0.179531
-0.17951
-0.179404
-0.17923
-0.179001
-0.178725
-0.178411
-0.178059
-0.177668
-0.17723
-0.176738
-0.176184
-0.175563
-0.174878
-0.174243
-0.173671
-0.171918
-0.179768
-0.18014
-0.180282
-0.180315
-0.180253
-0.180102
-0.17988
-0.179599
-0.179272
-0.178905
-0.178499
-0.178051
-0.177554
-0.176997
-0.17637
-0.175663
-0.174873
-0.174121
-0.173445
-0.17134
-0.180684
-0.181023
-0.181132
-0.181126
-0.18102
-0.180821
-0.180547
-0.180214
-0.179832
-0.179409
-0.178946
-0.178441
-0.177883
-0.17726
-0.176557
-0.175763
-0.174863
-0.173983
-0.173195
-0.170668
-0.181632
-0.181937
-0.182011
-0.181965
-0.181811
-0.181561
-0.181234
-0.180844
-0.180404
-0.179923
-0.179402
-0.178837
-0.178217
-0.177528
-0.176749
-0.175865
-0.174851
-0.173831
-0.172927
-0.169901
-0.182615
-0.182884
-0.182923
-0.182833
-0.18263
-0.182325
-0.18194
-0.18149
-0.18099
-0.180448
-0.179866
-0.17924
-0.178557
-0.1778
-0.176946
-0.175972
-0.174842
-0.173673
-0.172648
-0.169039
-0.183634
-0.183867
-0.183868
-0.183732
-0.183476
-0.183114
-0.182667
-0.182155
-0.181591
-0.180985
-0.180339
-0.17965
-0.178904
-0.178079
-0.17715
-0.176087
-0.174839
-0.173512
-0.172365
-0.168084
-0.184693
-0.184888
-0.184849
-0.184664
-0.184351
-0.183928
-0.183417
-0.182838
-0.182206
-0.181533
-0.180822
-0.180068
-0.179257
-0.178365
-0.177362
-0.176211
-0.174846
-0.173356
-0.172086
-0.167047
-0.185796
-0.185951
-0.185868
-0.185631
-0.185259
-0.184771
-0.184191
-0.183541
-0.182838
-0.182096
-0.181316
-0.180494
-0.179617
-0.178658
-0.177582
-0.176346
-0.174868
-0.173212
-0.171815
-0.165944
-0.186945
-0.187058
-0.18693
-0.186637
-0.186201
-0.185644
-0.18499
-0.184266
-0.183489
-0.182672
-0.181821
-0.18093
-0.179985
-0.178959
-0.177812
-0.176495
-0.174908
-0.173088
-0.171554
-0.164803
-0.188145
-0.188214
-0.188036
-0.187684
-0.18718
-0.186549
-0.185819
-0.185015
-0.184159
-0.183265
-0.182339
-0.181377
-0.180363
-0.179269
-0.178053
-0.176659
-0.174969
-0.172998
-0.171304
-0.163674
-0.189401
-0.189421
-0.189192
-0.188776
-0.1882
-0.18749
-0.186678
-0.185791
-0.184852
-0.183877
-0.182873
-0.181836
-0.180751
-0.17959
-0.178307
-0.176842
-0.175057
-0.172959
-0.171064
-0.162643
-0.190717
-0.190686
-0.1904
-0.189916
-0.189263
-0.18847
-0.187571
-0.186596
-0.18557
-0.18451
-0.183424
-0.18231
-0.181153
-0.179924
-0.178577
-0.177049
-0.175179
-0.172995
-0.170802
-0.161767
-0.192099
-0.192012
-0.191665
-0.191108
-0.190373
-0.189492
-0.188502
-0.187435
-0.186317
-0.185168
-0.183997
-0.182802
-0.181571
-0.180275
-0.178869
-0.177289
-0.175356
-0.173149
-0.170421
-0.160944
-0.193553
-0.193404
-0.192992
-0.192358
-0.191535
-0.190561
-0.189474
-0.18831
-0.187096
-0.185854
-0.184595
-0.183317
-0.182011
-0.180648
-0.179188
-0.177574
-0.175624
-0.173526
-0.169995
-0.16061
-0.195084
-0.194868
-0.194386
-0.193668
-0.192753
-0.191681
-0.190493
-0.189226
-0.187913
-0.186574
-0.185222
-0.18386
-0.182475
-0.181047
-0.179538
-0.177911
-0.176008
-0.174231
-0.170302
-0.164739
-0.196699
-0.196409
-0.195851
-0.195045
-0.194031
-0.192855
-0.191561
-0.190189
-0.188771
-0.187332
-0.185885
-0.184434
-0.18297
-0.181475
-0.179921
-0.178293
-0.17647
-0.175115
-0.171901
-0.179811
-0.198405
-0.198033
-0.197394
-0.196493
-0.195375
-0.194091
-0.192686
-0.191203
-0.189677
-0.188134
-0.186589
-0.185047
-0.183501
-0.181936
-0.180335
-0.178704
-0.176947
-0.175955
-0.17295
-0.18354
-0.200208
-0.199747
-0.199019
-0.198017
-0.19679
-0.195391
-0.193871
-0.192273
-0.190636
-0.188986
-0.18734
-0.185703
-0.184072
-0.182435
-0.180779
-0.179131
-0.1774
-0.176602
-0.173587
-0.184093
-0.202115
-0.201555
-0.200733
-0.199624
-0.198282
-0.196763
-0.195122
-0.193406
-0.191654
-0.189894
-0.188144
-0.18641
-0.18469
-0.182973
-0.181253
-0.179566
-0.177819
-0.177063
-0.174012
-0.183758
-0.204134
-0.203466
-0.202542
-0.201319
-0.199855
-0.198212
-0.196446
-0.194608
-0.192737
-0.190864
-0.189007
-0.187173
-0.185358
-0.183555
-0.181755
-0.180005
-0.178197
-0.177358
-0.174224
-0.182736
-0.206271
-0.205484
-0.204451
-0.203108
-0.201516
-0.199743
-0.197849
-0.195885
-0.193893
-0.191904
-0.189937
-0.187997
-0.186082
-0.184181
-0.182286
-0.180441
-0.178528
-0.1775
-0.174231
-0.181235
-0.208533
-0.207616
-0.206467
-0.204996
-0.203271
-0.201364
-0.199336
-0.197243
-0.195127
-0.193019
-0.190938
-0.188888
-0.186863
-0.184853
-0.182843
-0.180871
-0.178808
-0.177506
-0.174061
-0.179456
-0.210927
-0.209868
-0.208595
-0.20699
-0.205125
-0.203079
-0.200914
-0.198688
-0.196446
-0.194216
-0.192017
-0.18985
-0.187706
-0.185571
-0.183424
-0.18129
-0.179035
-0.177394
-0.173742
-0.177539
-0.21346
-0.212247
-0.210841
-0.209096
-0.207086
-0.204895
-0.20259
-0.200228
-0.197855
-0.1955
-0.193177
-0.190885
-0.188611
-0.186333
-0.184024
-0.181696
-0.179209
-0.17718
-0.173295
-0.175573
-0.216139
-0.214758
-0.213212
-0.211318
-0.209157
-0.206818
-0.204369
-0.201869
-0.199362
-0.196877
-0.194424
-0.191997
-0.189578
-0.187138
-0.184641
-0.182084
-0.179328
-0.176879
-0.17274
-0.173615
-0.218968
-0.217407
-0.215712
-0.213664
-0.211346
-0.208854
-0.206257
-0.203615
-0.200971
-0.19835
-0.195759
-0.193186
-0.190606
-0.187981
-0.185268
-0.182451
-0.179393
-0.176503
-0.172091
-0.171699
-0.221954
-0.220199
-0.218347
-0.216137
-0.213658
-0.211008
-0.20826
-0.205473
-0.202687
-0.199924
-0.197186
-0.194453
-0.191691
-0.188858
-0.185899
-0.18279
-0.179402
-0.17606
-0.171359
-0.169843
-0.225101
-0.223138
-0.221121
-0.218744
-0.216098
-0.213287
-0.210385
-0.207448
-0.204515
-0.201602
-0.198704
-0.195794
-0.192831
-0.189761
-0.186528
-0.183098
-0.179355
-0.175556
-0.170554
-0.168052
-0.228415
-0.22623
-0.22404
-0.22149
-0.218671
-0.215695
-0.212635
-0.209544
-0.206457
-0.203385
-0.200313
-0.197208
-0.194018
-0.190684
-0.187147
-0.183368
-0.179247
-0.174993
-0.169681
-0.166322
-0.231898
-0.229478
-0.227108
-0.224377
-0.221382
-0.218238
-0.215015
-0.211765
-0.208517
-0.205274
-0.202012
-0.198688
-0.195245
-0.191618
-0.187747
-0.183594
-0.179078
-0.174373
-0.168744
-0.164644
-0.235555
-0.232885
-0.230327
-0.227411
-0.224235
-0.220919
-0.217529
-0.214114
-0.210695
-0.207266
-0.203795
-0.200229
-0.196503
-0.192553
-0.188318
-0.183769
-0.178843
-0.173695
-0.167745
-0.163003
-0.239386
-0.236454
-0.233701
-0.230595
-0.227234
-0.223741
-0.22018
-0.216592
-0.212991
-0.20936
-0.205657
-0.201821
-0.197782
-0.193477
-0.188851
-0.183884
-0.178538
-0.172955
-0.166685
-0.161386
-0.243392
-0.240185
-0.237232
-0.233931
-0.230382
-0.226709
-0.22297
-0.2192
-0.215402
-0.21155
-0.207589
-0.203454
-0.19907
-0.194378
-0.189335
-0.183934
-0.178159
-0.172149
-0.16556
-0.159775
-0.247575
-0.244081
-0.240921
-0.237421
-0.23368
-0.229822
-0.225899
-0.221936
-0.217926
-0.213829
-0.209584
-0.205116
-0.200354
-0.195245
-0.18976
-0.183909
-0.177701
-0.171274
-0.164368
-0.158155
-0.251932
-0.248139
-0.244767
-0.241066
-0.237129
-0.233081
-0.228966
-0.224797
-0.220555
-0.216189
-0.211627
-0.206793
-0.201619
-0.196063
-0.190115
-0.183802
-0.177159
-0.170325
-0.163106
-0.156511
-0.256461
-0.252359
-0.248771
-0.244864
-0.240728
-0.236485
-0.232168
-0.227778
-0.223282
-0.218618
-0.213706
-0.20847
-0.20285
-0.19682
-0.190389
-0.183605
-0.176526
-0.169295
-0.161768
-0.154827
-0.261158
-0.256737
-0.25293
-0.248815
-0.244476
-0.240032
-0.235501
-0.230872
-0.226097
-0.221103
-0.215805
-0.210131
-0.204032
-0.197502
-0.190571
-0.183311
-0.175798
-0.168179
-0.160351
-0.153092
-0.266017
-0.261268
-0.25724
-0.252915
-0.24837
-0.243716
-0.238959
-0.23407
-0.228987
-0.223628
-0.217907
-0.211757
-0.205149
-0.198095
-0.190652
-0.182912
-0.174968
-0.166971
-0.158847
-0.151292
-0.271031
-0.265948
-0.261696
-0.25716
-0.252403
-0.247531
-0.242531
-0.237358
-0.231937
-0.226176
-0.219993
-0.213331
-0.206183
-0.198586
-0.190621
-0.1824
-0.174032
-0.165666
-0.157252
-0.149418
-0.276191
-0.270767
-0.266291
-0.261541
-0.256569
-0.251468
-0.246207
-0.240723
-0.234929
-0.228728
-0.222042
-0.214834
-0.207119
-0.198962
-0.190469
-0.181767
-0.172981
-0.164256
-0.15556
-0.147459
-0.281484
-0.275717
-0.271016
-0.266052
-0.260858
-0.255516
-0.249973
-0.244148
-0.237943
-0.231261
-0.224034
-0.216246
-0.20794
-0.19921
-0.190184
-0.181007
-0.171811
-0.162736
-0.153765
-0.145407
-0.286899
-0.280785
-0.27586
-0.27068
-0.265259
-0.25966
-0.253811
-0.247613
-0.240959
-0.233753
-0.225947
-0.217548
-0.208631
-0.199318
-0.189759
-0.180112
-0.170515
-0.1611
-0.151861
-0.143253
-0.292418
-0.285958
-0.280811
-0.275413
-0.269756
-0.263885
-0.257703
-0.251096
-0.243951
-0.236181
-0.227757
-0.218721
-0.209175
-0.199273
-0.189184
-0.179075
-0.169085
-0.159341
-0.149841
-0.140991
-0.298026
-0.291219
-0.285852
-0.280236
-0.274334
-0.268171
-0.261627
-0.254573
-0.246894
-0.238518
-0.229444
-0.219744
-0.209558
-0.199064
-0.18845
-0.177888
-0.167517
-0.157452
-0.147699
-0.138613
-0.3037
-0.296551
-0.290967
-0.285129
-0.278972
-0.272496
-0.265558
-0.258017
-0.249761
-0.24074
-0.230982
-0.220599
-0.209764
-0.19868
-0.187548
-0.176543
-0.165802
-0.155427
-0.145429
-0.136113
-0.30942
-0.301933
-0.296135
-0.290074
-0.283648
-0.276836
-0.269469
-0.261399
-0.252525
-0.242819
-0.23235
-0.221268
-0.209779
-0.198108
-0.186468
-0.175033
-0.163934
-0.15326
-0.143025
-0.133485
-0.31516
-0.307342
-0.301335
-0.295046
-0.288338
-0.281163
-0.273331
-0.26469
-0.255154
-0.24473
-0.233526
-0.221733
-0.209589
-0.197339
-0.185202
-0.173349
-0.161905
-0.150943
-0.14048
-0.130721
-0.320892
-0.312754
-0.306541
-0.300021
-0.293015
-0.285448
-0.277113
-0.267858
-0.257621
-0.246446
-0.234487
-0.221975
-0.20918
-0.196361
-0.183741
-0.171485
-0.159708
-0.148469
-0.137788
-0.127817
-0.326589
-0.318139
-0.311725
-0.304969
-0.297647
-0.289659
-0.280781
-0.270871
-0.259894
-0.247941
-0.235211
-0.221979
-0.208539
-0.195164
-0.182076
-0.169432
-0.157336
-0.145832
-0.134943
-0.124767
-0.332217
-0.32347
-0.31686
-0.309861
-0.302204
-0.293762
-0.284301
-0.273694
-0.261944
-0.249188
-0.235679
-0.221728
-0.207654
-0.193738
-0.180198
-0.167183
-0.154781
-0.143025
-0.131937
-0.121565
-0.337744
-0.328713
-0.321911
-0.314663
-0.30665
-0.297721
-0.287638
-0.276295
-0.26374
-0.250164
-0.235869
-0.221205
-0.206511
-0.192072
-0.178098
-0.164728
-0.152035
-0.140041
-0.128765
-0.118204
-0.343133
-0.333836
-0.326847
-0.31934
-0.310949
-0.301499
-0.290755
-0.27864
-0.265253
-0.250843
-0.235763
-0.220397
-0.2051
-0.190156
-0.175768
-0.16206
-0.149093
-0.136873
-0.125421
-0.114681
-0.348348
-0.338801
-0.33163
-0.323856
-0.315062
-0.305058
-0.293614
-0.280694
-0.266454
-0.251203
-0.235343
-0.219289
-0.203407
-0.18798
-0.173198
-0.159171
-0.145945
-0.133515
-0.121898
-0.11099
-0.353349
-0.343573
-0.336222
-0.328171
-0.31895
-0.308357
-0.296179
-0.282425
-0.267315
-0.25122
-0.23459
-0.217866
-0.201423
-0.185535
-0.170381
-0.156053
-0.142585
-0.12996
-0.11819
-0.107126
-0.358096
-0.348111
-0.340586
-0.332245
-0.322573
-0.311358
-0.298412
-0.2838
-0.267809
-0.250873
-0.233488
-0.216116
-0.199135
-0.182811
-0.167306
-0.152698
-0.139005
-0.126201
-0.114293
-0.103084
-0.362548
-0.352375
-0.344679
-0.336038
-0.32589
-0.314021
-0.300278
-0.284788
-0.26791
-0.250143
-0.232021
-0.214026
-0.196534
-0.179799
-0.163967
-0.1491
-0.1352
-0.122233
-0.1102
-0.098859
-0.366661
-0.356324
-0.34846
-0.339506
-0.328857
-0.316304
-0.301739
-0.285358
-0.267594
-0.249009
-0.230174
-0.211583
-0.193609
-0.17649
-0.160355
-0.14525
-0.131162
-0.118049
-0.105906
-0.0944475
-0.370394
-0.359916
-0.351887
-0.342607
-0.331433
-0.31817
-0.302761
-0.28548
-0.266838
-0.247454
-0.227933
-0.208778
-0.190351
-0.172876
-0.156463
-0.141141
-0.126886
-0.113645
-0.101407
-0.0898452
-0.373702
-0.363109
-0.354917
-0.345298
-0.333576
-0.319579
-0.303311
-0.285129
-0.265621
-0.245462
-0.225285
-0.205598
-0.18675
-0.168949
-0.152283
-0.136768
-0.122364
-0.109015
-0.0966975
-0.0850485
-0.376544
-0.365859
-0.357507
-0.347536
-0.335246
-0.320495
-0.303358
-0.284277
-0.263921
-0.243016
-0.222218
-0.202033
-0.182799
-0.1647
-0.147809
-0.132123
-0.117593
-0.104154
-0.0917742
-0.0800541
-0.378875
-0.368125
-0.359614
-0.349281
-0.336404
-0.320882
-0.30287
-0.282901
-0.261721
-0.240103
-0.218721
-0.198076
-0.178489
-0.160123
-0.143034
-0.127202
-0.112566
-0.0990583
-0.086633
-0.0748593
-0.380655
-0.369865
-0.361197
-0.350489
-0.337009
-0.320705
-0.30182
-0.280979
-0.259004
-0.23671
-0.214783
-0.193717
-0.173812
-0.155212
-0.137952
-0.121999
-0.10728
-0.0937237
-0.0812707
-0.0694616
-0.381842
-0.371037
-0.362214
-0.351122
-0.337026
-0.319934
-0.300181
-0.278491
-0.255754
-0.232825
-0.210396
-0.188949
-0.168763
-0.14996
-0.132558
-0.116509
-0.10173
-0.0881468
-0.0756845
-0.0638586
-0.382395
-0.371601
-0.362626
-0.35114
-0.336419
-0.318538
-0.297931
-0.275419
-0.251959
-0.228438
-0.205552
-0.183766
-0.163336
-0.144363
-0.126847
-0.110729
-0.0959134
-0.0823244
-0.0698717
-0.0580481
-0.382278
-0.37152
-0.362394
-0.350509
-0.335156
-0.316489
-0.295048
-0.271747
-0.247607
-0.223542
-0.200244
-0.17816
-0.157524
-0.138416
-0.120816
-0.104654
-0.0898264
-0.0762541
-0.0638302
-0.0520287
-0.381453
-0.370757
-0.361482
-0.349193
-0.333206
-0.313764
-0.291512
-0.267461
-0.242687
-0.218127
-0.194466
-0.172128
-0.151325
-0.132114
-0.114461
-0.0982827
-0.0834669
-0.0699339
-0.0575589
-0.045803
-0.379886
-0.369276
-0.359857
-0.34716
-0.330543
-0.310339
-0.287308
-0.262549
-0.237193
-0.212189
-0.188213
-0.165666
-0.144735
-0.125457
-0.107781
-0.0916124
-0.076833
-0.0633615
-0.0510588
-0.0393781
-0.377547
-0.367046
-0.357486
-0.344382
-0.327141
-0.306196
-0.282421
-0.257002
-0.231116
-0.205723
-0.181482
-0.158772
-0.137752
-0.118441
-0.100772
-0.0846418
-0.0699228
-0.0565353
-0.04433
-0.0327506
-0.374404
-0.364037
-0.35434
-0.340832
-0.322978
-0.301318
-0.27684
-0.250812
-0.224453
-0.198726
-0.174271
-0.151442
-0.130375
-0.111065
-0.0934354
-0.0773703
-0.0627357
-0.0494546
-0.0373666
-0.0258781
-0.370433
-0.360222
-0.350394
-0.336487
-0.318036
-0.295692
-0.270556
-0.243975
-0.217202
-0.191196
-0.16658
-0.143678
-0.122602
-0.10333
-0.0857708
-0.0697989
-0.0552738
-0.0421226
-0.0301551
-0.0186853
-0.365609
-0.355577
-0.345624
-0.331327
-0.312299
-0.289307
-0.263563
-0.236487
-0.209359
-0.183134
-0.158408
-0.135479
-0.114436
-0.0952371
-0.0777796
-0.0619294
-0.0475408
-0.0345444
-0.0226962
-0.0111949
-0.359913
-0.350081
-0.340011
-0.325335
-0.305755
-0.282156
-0.255858
-0.228348
-0.200928
-0.17454
-0.149757
-0.126848
-0.105877
-0.0867877
-0.0694642
-0.0537646
-0.0395398
-0.0267214
-0.0150227
-0.00372068
-0.353328
-0.343717
-0.333538
-0.318498
-0.298395
-0.274233
-0.247439
-0.219559
-0.191909
-0.165418
-0.140631
-0.117787
-0.0969299
-0.0779851
-0.0608276
-0.0453077
-0.0312736
-0.0186578
-0.00712976
0.00393339
-0.34584
-0.33647
-0.326193
-0.310806
-0.290213
-0.265538
-0.238307
-0.210122
-0.182307
-0.155773
-0.131033
-0.108301
-0.0875973
-0.0688333
-0.0518738
-0.0365628
-0.0227463
-0.0103567
0.000970657
0.0117941
-0.33744
-0.32833
-0.317965
-0.302254
-0.281207
-0.256071
-0.228468
-0.200044
-0.172129
-0.145609
-0.120969
-0.0983949
-0.0778849
-0.0593372
-0.0426079
-0.0275346
-0.013962
-0.00182318
0.00927943
0.0198597
-0.32812
-0.31929
-0.30885
-0.292837
-0.271378
-0.245836
-0.217926
-0.189332
-0.161381
-0.134934
-0.110446
-0.0880749
-0.0677987
-0.0495031
-0.0330355
-0.0182286
-0.00492604
0.00693783
0.0177949
0.0281222
-0.31788
-0.309346
-0.298846
-0.282557
-0.260729
-0.234841
-0.20669
-0.177995
-0.150073
-0.123758
-0.0994726
-0.077349
-0.0573465
-0.0393378
-0.0231636
-0.00865154
0.00435524
0.0159207
0.026513
0.0365738
-0.306718
-0.298498
-0.287953
-0.271418
-0.249268
-0.223094
-0.194773
-0.166045
-0.138215
-0.11209
-0.0880579
-0.0662263
-0.0465362
-0.0288494
-0.0129998
0.00118923
0.0138747
0.0251188
0.0354278
0.0452068
-0.29464
-0.28675
-0.276176
-0.259428
-0.237005
-0.210609
-0.182185
-0.153493
-0.125821
-0.0999413
-0.0762128
-0.0547167
-0.0353775
-0.018047
-0.00255296
0.0112853
0.0236241
0.0345246
0.044532
0.0540134
-0.281654
-0.27411
-0.263525
-0.246596
-0.223953
-0.1974
-0.168944
-0.140356
-0.112904
-0.0873257
-0.0639492
-0.0428313
-0.023881
-0.00694055
0.0081674
0.0216273
0.0335946
0.0441294
0.0538173
0.0629848
-0.267772
-0.260588
-0.250011
-0.232938
-0.210128
-0.183484
-0.155066
-0.126651
-0.0994791
-0.0742574
-0.0512803
-0.0305825
-0.0120581
0.00445889
0.0191507
0.0322052
0.0437761
0.0539235
0.0632741
0.0721117
-0.253008
-0.246198
-0.23565
-0.218471
-0.19555
-0.16888
-0.14057
-0.112394
-0.0855639
-0.0607517
-0.0382206
-0.0179835
7.86416e-05
0.0161395
0.0303856
0.0430077
0.0541578
0.0638964
0.0728916
0.0813831
-0.237381
-0.230958
-0.22046
-0.203215
-0.180239
-0.153612
-0.125479
-0.0976061
-0.0711773
-0.0468256
-0.0247854
-0.00504883
0.0125158
0.0280886
0.04186
0.054023
0.0647279
0.0740363
0.082658
0.0907864
-0.220912
-0.214889
-0.204463
-0.187193
-0.16422
-0.137702
-0.109813
-0.0823093
-0.0563385
-0.0324973
-0.0109915
0.00820633
0.0252391
0.0402927
0.0535609
0.0652387
0.0754738
0.0843307
0.0925597
0.100307
-0.203627
-0.198016
-0.187683
-0.17043
-0.147521
-0.121178
-0.0935968
-0.0665261
-0.0410685
-0.017786
0.00314356
0.0217657
0.0382334
0.0527377
0.065475
0.0766416
0.0863823
0.094766
0.102582
0.109926
-0.185554
-0.180364
-0.17015
-0.152957
-0.130169
-0.104061
-0.0768615
-0.0502811
-0.0253897
-0.00271202
0.0176011
0.0356121
0.051483
0.065409
0.0775882
0.0882181
0.0974398
0.105328
0.112709
0.119625
-0.166721
-0.161965
-0.151892
-0.134807
-0.112189
-0.0863896
-0.0596317
-0.0335999
-0.00932562
0.0127032
0.0323616
0.0497277
0.0649714
0.0782911
0.0898865
0.0999545
0.108632
0.116003
0.122924
0.129378
-0.147164
-0.142851
-0.132946
-0.116014
-0.0936127
-0.0681914
-0.0419368
-0.0165097
0.007099
0.0284371
0.0474045
0.0640936
0.0786814
0.0913685
0.102355
0.111837
0.119946
0.126775
0.133206
0.139149
-0.126915
-0.123058
-0.113343
-0.0965916
-0.0744972
-0.0495007
-0.0238079
0.000961296
0.0238584
0.0444663
0.0627085
0.0786905
0.0925953
0.104625
0.11498
0.123852
0.131367
0.137632
0.143536
0.148899
-0.106014
-0.102625
-0.0931211
-0.0766015
-0.0548611
-0.0303515
-0.0052771
0.0187838
0.0409259
0.0607664
0.0782512
0.0934982
0.106695
0.118045
0.127747
0.135988
0.142885
0.148564
0.153898
0.158595
-0.0844948
-0.0815931
-0.0723198
-0.0560808
-0.034744
-0.0107799
0.0136223
0.0369273
0.0582736
0.077312
0.0940098
0.108496
0.120961
0.131611
0.140641
0.148231
0.154488
0.159563
0.16429
0.168209
-0.0623951
-0.0600153
-0.0509854
-0.0350675
-0.0141862
0.00917711
0.0328561
0.0553604
0.0758729
0.094077
0.10996
0.123661
0.135375
0.145306
0.153648
0.160569
0.166168
0.170631
0.174705
0.177633
-0.0397758
-0.0379251
-0.0291635
-0.0136045
0.00677103
0.0294812
0.0523888
0.0740508
0.0936943
0.111034
0.126078
0.138972
0.149916
0.159113
0.166754
0.172993
0.177925
0.181789
0.185101
0.186588
-0.0167207
-0.0153375
-0.00689563
0.00826378
0.0280856
0.0500932
0.0721844
0.0929654
0.111707
0.128157
0.142337
0.154405
0.164563
0.173013
0.179944
0.185494
0.189778
0.193081
0.195453
0.194869
0.00676106
0.00767326
0.0157706
0.030492
0.0497142
0.0709729
0.0922058
0.11207
0.129881
0.145415
0.158712
0.169937
0.179293
0.186986
0.193198
0.198064
0.201738
0.204529
0.205849
0.203252
0.030625
0.0310521
0.0387868
0.0530337
0.0716127
0.0920792
0.112415
0.131331
0.148184
0.16278
0.175175
0.185541
0.194084
0.201009
0.206497
0.210684
0.213776
0.216031
0.216259
0.21446
0.0548184
0.0547517
0.062105
0.075842
0.0937366
0.113371
0.132775
0.150712
0.166584
0.180222
0.1917
0.201193
0.208912
0.21506
0.219817
0.223327
0.22582
0.227486
0.227098
0.226078
0.0792869
0.0787211
0.0856744
0.0988681
0.11604
0.134805
0.153245
0.170178
0.185048
0.197712
0.208257
0.216867
0.223751
0.229114
0.233135
0.235963
0.237839
0.238894
0.238009
0.237093
0.103976
0.102908
0.109444
0.122063
0.138477
0.15634
0.173787
0.189693
0.203542
0.215218
0.22482
0.232535
0.238577
0.243148
0.246427
0.248568
0.249812
0.250256
0.2489
0.24779
0.128833
0.127261
0.133361
0.145378
0.161002
0.177932
0.194362
0.209222
0.222035
0.23271
0.241358
0.248172
0.253364
0.257137
0.259669
0.261117
0.261717
0.26155
0.259705
0.258263
0.153802
0.151725
0.157375
0.168762
0.183567
0.199538
0.21493
0.228726
0.240491
0.250157
0.257844
0.263751
0.268088
0.271059
0.272839
0.273589
0.273536
0.272751
0.270395
0.268544
0.178828
0.176247
0.181431
0.192165
0.206125
0.221115
0.23545
0.248171
0.258879
0.267528
0.274249
0.279244
0.282724
0.284889
0.285915
0.285961
0.28525
0.283843
0.280956
0.27865
0.203857
0.200773
0.205479
0.215538
0.228631
0.242619
0.255884
0.267519
0.277163
0.284791
0.290544
0.294625
0.297246
0.298605
0.298875
0.298214
0.296841
0.294806
0.291377
0.288589
0.228832
0.225249
0.229464
0.23883
0.251037
0.264009
0.276192
0.286734
0.295311
0.301917
0.306701
0.309869
0.31163
0.312183
0.311697
0.31033
0.308292
0.305627
0.301647
0.298361
0.253699
0.249619
0.253335
0.261992
0.273297
0.28524
0.296334
0.30578
0.31329
0.318874
0.322691
0.324948
0.325853
0.325601
0.324361
0.322288
0.319586
0.31629
0.311757
0.307962
0.278403
0.273831
0.277039
0.284974
0.295364
0.30627
0.316271
0.324622
0.331065
0.335633
0.338487
0.339836
0.339889
0.338838
0.336847
0.334071
0.330707
0.326782
0.321697
0.317386
0.302889
0.297829
0.300523
0.307726
0.317193
0.327058
0.335965
0.343223
0.348606
0.352162
0.35406
0.354509
0.353716
0.35187
0.349135
0.34566
0.341638
0.337089
0.331455
0.326624
0.327102
0.321562
0.323738
0.3302
0.338739
0.347561
0.355378
0.361548
0.365879
0.368432
0.369382
0.36894
0.36731
0.364678
0.361205
0.357038
0.352363
0.347197
0.34102
0.335668
0.35099
0.344976
0.34663
0.352349
0.359957
0.367738
0.374471
0.379563
0.382852
0.384414
0.384428
0.383105
0.380648
0.377239
0.373038
0.368188
0.362868
0.357091
0.350379
0.344506
0.374499
0.36802
0.369152
0.374124
0.380804
0.38755
0.393208
0.397235
0.399495
0.400078
0.39917
0.396979
0.393707
0.389534
0.384615
0.379092
0.373137
0.36676
0.359521
0.35313
0.397577
0.390641
0.391253
0.39548
0.401235
0.406956
0.411552
0.414528
0.415776
0.415398
0.413582
0.410539
0.406466
0.401541
0.395917
0.389733
0.383154
0.376188
0.368434
0.361528
0.420174
0.412791
0.412885
0.416371
0.42121
0.425918
0.429468
0.431411
0.431665
0.430344
0.427639
0.423759
0.418902
0.413241
0.406927
0.400095
0.392905
0.385363
0.377105
0.36969
0.442239
0.434421
0.434001
0.436753
0.440688
0.444397
0.446921
0.447852
0.447133
0.444889
0.441315
0.436619
0.430995
0.424615
0.417626
0.410161
0.402374
0.39427
0.385521
0.377604
0.463723
0.455481
0.454555
0.456583
0.459627
0.462358
0.463878
0.46382
0.462152
0.459008
0.454587
0.449095
0.442724
0.435643
0.427997
0.419916
0.411547
0.402897
0.393671
0.385261
0.484581
0.475927
0.474502
0.475818
0.47799
0.479765
0.480304
0.479284
0.476693
0.472674
0.46743
0.461165
0.454068
0.446307
0.438023
0.429344
0.420411
0.411231
0.401543
0.39265
0.504764
0.495713
0.4938
0.494419
0.495739
0.496582
0.496169
0.494215
0.490729
0.485863
0.479821
0.472808
0.465009
0.45659
0.447688
0.43843
0.42895
0.419259
0.409124
0.39976
0.52423
0.514795
0.512407
0.512346
0.512837
0.512777
0.511442
0.508584
0.504234
0.498551
0.491739
0.484003
0.475527
0.466473
0.456976
0.447159
0.437152
0.426968
0.416404
0.406583
0.542935
0.533131
0.530281
0.529561
0.529249
0.528316
0.526093
0.522366
0.517183
0.510714
0.503163
0.494732
0.485605
0.47594
0.46587
0.455517
0.445005
0.434347
0.423371
0.413107
0.560839
0.550682
0.547386
0.546028
0.544943
0.543171
0.540093
0.535533
0.529553
0.52233
0.51407
0.504975
0.495224
0.484974
0.474357
0.463491
0.452494
0.441385
0.430015
0.419323
0.577901
0.567408
0.563683
0.561713
0.559886
0.55731
0.553417
0.54806
0.54132
0.533378
0.524443
0.514713
0.504368
0.493562
0.482423
0.471067
0.459609
0.448069
0.436325
0.425224
0.594086
0.583273
0.579138
0.576582
0.574048
0.570706
0.566037
0.559924
0.552461
0.543838
0.534261
0.523931
0.513022
0.501687
0.490053
0.478233
0.466337
0.45439
0.442291
0.430799
0.609357
0.598243
0.593718
0.590605
0.5874
0.583333
0.57793
0.571102
0.562958
0.55369
0.543508
0.53261
0.521169
0.509336
0.497235
0.484977
0.472668
0.460337
0.447904
0.436041
0.62368
0.612284
0.60739
0.603752
0.599914
0.595165
0.589073
0.581573
0.572788
0.562916
0.552167
0.540737
0.528797
0.516495
0.503957
0.491288
0.478592
0.465902
0.453155
0.440942
0.637026
0.625366
0.620127
0.615997
0.611566
0.60618
0.599443
0.591317
0.581936
0.5715
0.560222
0.548295
0.53589
0.523153
0.510207
0.497156
0.484099
0.471074
0.458036
0.445495
0.649364
0.637461
0.631901
0.627313
0.622332
0.616355
0.609022
0.600316
0.590382
0.579426
0.567658
0.555273
0.542438
0.529298
0.515974
0.50257
0.48918
0.475845
0.462538
0.449693
0.660668
0.648542
0.642686
0.637676
0.63219
0.62567
0.61779
0.608552
0.598113
0.586679
0.574463
0.561657
0.548428