/*--------------------------------*- C++ -*----------------------------------*\
  =========                 |
  \\      /  F ield         | OpenFOAM: The Open Source CFD Toolbox
   \\    /   O peration     | Website:  https://openfoam.org
    \\  /    A nd           | Version:  7
     \\/     M anipulation  |
\*---------------------------------------------------------------------------*/
FoamFile
{
    version     2.0;
    format      ascii;
    class       surfaceScalarField;
    location    "40";
    object      phi;
}
// * * * * * * * * * * * * * * * * * * * * * * * * * * * * * * * * * * * * * //

dimensions      [0 3 -1 0 0 0 0];

internalField   nonuniform List<scalar> 
16730
(
-0.00359426
-0.000519785
-0.000502118
-0.00344266
-0.00354617
-0.000550208
-0.000481833
-0.00329979
-0.000530391
-0.0033941
-0.00349645
-0.000580119
-0.000459989
-0.00316663
-0.000508064
-0.00325172
-0.000558143
-0.00334402
-0.00344509
-0.000609496
-0.000484428
-0.00311912
-0.000533815
-0.00320233
-0.000585372
-0.00329246
-0.00339214
-0.000638324
-0.000459685
-0.00299437
-0.000508449
-0.00307036
-0.000559103
-0.00315168
-0.000612093
-0.00323947
-0.00333759
-0.000666644
-0.00043358
-0.00287596
-0.000482051
-0.0029459
-0.000532065
-0.00302034
-0.000583956
-0.00309978
-0.000638346
-0.00318508
-0.0032814
-0.000694537
-0.000454273
-0.00282762
-0.000504024
-0.00289615
-0.000555297
-0.00296907
-0.000608422
-0.00304666
-0.00066414
-0.00312937
-0.00322358
-0.000721958
-0.000424956
-0.00271493
-0.000474563
-0.00277801
-0.0005256
-0.00284512
-0.000578171
-0.0029165
-0.000632593
-0.00299224
-0.000689451
-0.00307251
-0.00316395
-0.000749086
-0.000443577
-0.00266546
-0.000494434
-0.00272715
-0.000546755
-0.00279279
-0.000600675
-0.00286258
-0.000656535
-0.00293638
-0.000715016
-0.00301403
-0.00310408
-0.000774883
-0.000411108
-0.00255815
-0.000461781
-0.00261478
-0.000513862
-0.00267507
-0.000567447
-0.00273921
-0.000622715
-0.00280731
-0.000679824
-0.00287927
-0.000738121
-0.00295573
-0.00303901
-0.000803189
-0.000377224
-0.00245564
-0.00042772
-0.00250766
-0.000479569
-0.00256293
-0.000532844
-0.0026218
-0.000587649
-0.0026844
-0.000644142
-0.00275082
-0.000702397
-0.00282101
-0.000762519
-0.00289561
-0.00297464
-0.000826889
-0.0003923
-0.00240532
-0.000443935
-0.00245602
-0.000496932
-0.00250994
-0.000551369
-0.00256736
-0.00060735
-0.00262842
-0.000665006
-0.00269316
-0.000724425
-0.0027616
-0.000785886
-0.00283415
-0.00291015
-0.000850376
-0.000355575
-0.00230701
-0.000407002
-0.00235389
-0.000459749
-0.00240327
-0.000513866
-0.00245582
-0.000569433
-0.00251179
-0.000626551
-0.00257131
-0.000685335
-0.00263438
-0.000745885
-0.00270105
-0.00080846
-0.00277157
-0.00284513
-0.000873482
-0.000368816
-0.00225582
-0.000421327
-0.00230138
-0.000475159
-0.00234944
-0.000530368
-0.00240061
-0.000587034
-0.00245513
-0.000645255
-0.00251309
-0.000705134
-0.0025745
-0.000766774
-0.0026394
-0.000830374
-0.00270797
-0.00277938
-0.000896124
-0.000329453
-0.00216043
-0.000381706
-0.00220357
-0.000435272
-0.00224782
-0.000490163
-0.00229455
-0.000546435
-0.00234434
-0.000604171
-0.00239739
-0.000663462
-0.00245379
-0.000724406
-0.00251356
-0.000787101
-0.00257671
-0.000851694
-0.00264338
-0.0027128
-0.000918276
-0.000340954
-0.00210852
-0.000394242
-0.00215028
-0.000448838
-0.00219322
-0.000504759
-0.00223863
-0.000562067
-0.00228703
-0.000620843
-0.00233862
-0.000681176
-0.00239346
-0.000743156
-0.00245158
-0.000806876
-0.00251299
-0.000872448
-0.00257781
-0.00264532
-0.000939925
-0.000352128
-0.00205559
-0.000406423
-0.00209598
-0.000462021
-0.00213762
-0.000518946
-0.0021817
-0.000577263
-0.00222871
-0.00063705
-0.00227883
-0.000698396
-0.00233212
-0.000761388
-0.00238858
-0.000826108
-0.00244827
-0.000892652
-0.00251126
-0.00257691
-0.000961058
-0.000309045
-0.00196138
-0.000362973
-0.00200166
-0.000418247
-0.00204071
-0.000474821
-0.00208105
-0.000532724
-0.0021238
-0.00059202
-0.00216942
-0.000652792
-0.00221806
-0.000715125
-0.00226978
-0.000779102
-0.00232461
-0.000844803
-0.00238257
-0.00091231
-0.00244376
-0.00250756
-0.000981663
-0.000318595
-0.00190799
-0.000373488
-0.00194677
-0.000429715
-0.00198448
-0.000487237
-0.00202353
-0.000546089
-0.00206495
-0.00060634
-0.00210917
-0.00066807
-0.00215633
-0.000731363
-0.00220649
-0.000796302
-0.00225967
-0.000862963
-0.00231591
-0.000931424
-0.00237529
-0.00243726
-0.00100173
-0.000273495
-0.00181097
-0.000327844
-0.00185364
-0.000383674
-0.00189094
-0.000440825
-0.00192733
-0.000499268
-0.00196508
-0.000559043
-0.00200517
-0.00062022
-0.00204799
-0.000682881
-0.00209367
-0.00074711
-0.00214226
-0.000812987
-0.00219379
-0.000880588
-0.00224831
-0.000949991
-0.00230589
-0.002366
-0.00102124
-0.000281509
-0.0017575
-0.000336792
-0.00179836
-0.000393529
-0.0018342
-0.000451576
-0.00186929
-0.000510912
-0.00190575
-0.000571583
-0.0019445
-0.00063366
-0.00198591
-0.000697226
-0.0020301
-0.000762364
-0.00207712
-0.000829156
-0.002127
-0.000897677
-0.00217979
-0.000968006
-0.00223556
-0.00229381
-0.0010402
-0.000289253
-0.00170309
-0.000345437
-0.00174218
-0.000403052
-0.00177658
-0.000461967
-0.00181037
-0.00052217
-0.00184554
-0.000583709
-0.00188296
-0.000646659
-0.00192296
-0.000711103
-0.00196566
-0.000777126
-0.0020111
-0.000844808
-0.00205932
-0.000914228
-0.00211037
-0.000985466
-0.00216432
-0.0022207
-0.00105858
-0.000241398
-0.00159908
-0.000296725
-0.00164776
-0.00035378
-0.00168512
-0.000412244
-0.00171812
-0.000471998
-0.00175062
-0.000533039
-0.0017845
-0.00059542
-0.00182058
-0.000659216
-0.00185917
-0.000724511
-0.00190036
-0.000791392
-0.00194422
-0.000859941
-0.00199077
-0.000930237
-0.00204007
-0.00100236
-0.0020922
-0.00214668
-0.00107638
-0.000247722
-0.00154517
-0.000303926
-0.00159155
-0.00036182
-0.00162723
-0.000421102
-0.00165884
-0.000481668
-0.00169005
-0.000543519
-0.00172265
-0.000606713
-0.00175739
-0.000671328
-0.00179455
-0.000737448
-0.00183424
-0.000805162
-0.00187651
-0.000874552
-0.00192138
-0.0009457
-0.00196892
-0.00101869
-0.0020192
-0.00207177
-0.0010936
-0.000253807
-0.00149036
-0.000310854
-0.00153451
-0.000369555
-0.00156853
-0.000429628
-0.00159876
-0.000490976
-0.0016287
-0.000553609
-0.00166002
-0.000617589
-0.00169341
-0.000682995
-0.00172915
-0.000749913
-0.00176732
-0.000818432
-0.00180799
-0.000888637
-0.00185117
-0.000960613
-0.00189695
-0.00103445
-0.00194537
-0.001996
-0.00111022
-0.000203983
-0.00137347
-0.000259653
-0.00143469
-0.000317509
-0.00147665
-0.000376987
-0.00150905
-0.000437819
-0.00153793
-0.000499921
-0.0015666
-0.000563308
-0.00159663
-0.000628045
-0.00162867
-0.000694214
-0.00166298
-0.000761902
-0.00169963
-0.000831199
-0.00173869
-0.000902194
-0.00178018
-0.000974971
-0.00182417
-0.00104963
-0.00187071
-0.0019194
-0.00112623
-0.000208766
-0.00132006
-0.00026526
-0.0013782
-0.000323891
-0.00141802
-0.000384114
-0.00144883
-0.000445676
-0.00147637
-0.000508502
-0.00150378
-0.000572615
-0.00153252
-0.000638081
-0.00156321
-0.000704984
-0.00159607
-0.000773415
-0.0016312
-0.000843463
-0.00166864
-0.000915218
-0.00170842
-0.000988771
-0.00175062
-0.00106422
-0.00179527
-0.00184199
-0.00114163
-0.000213345
-0.00126581
-0.000270626
-0.00132091
-0.000329999
-0.00135865
-0.000390936
-0.00138789
-0.000453197
-0.00141411
-0.000516719
-0.00144025
-0.000581528
-0.00146771
-0.000647694
-0.00149704
-0.000715304
-0.00152846
-0.000784448
-0.00156206
-0.000855218
-0.00159787
-0.000927707
-0.00163593
-0.00100201
-0.00167632
-0.00107821
-0.00171906
-0.00176379
-0.00115641
-0.00021772
-0.00121075
-0.000275752
-0.00126288
-0.000335833
-0.00129857
-0.000397452
-0.00132627
-0.000460383
-0.00135118
-0.00052457
-0.00137607
-0.000590046
-0.00140223
-0.000656884
-0.0014302
-0.000725171
-0.00146018
-0.000794999
-0.00149223
-0.000866463
-0.00152641
-0.000939656
-0.00156274
-0.00101467
-0.0016013
-0.00109161
-0.00164212
-0.00168485
-0.00117056
-0.000166066
-0.00107863
-0.000221891
-0.00115493
-0.000280637
-0.00120414
-0.000341392
-0.00123781
-0.000403662
-0.001264
-0.000467232
-0.00128761
-0.000532055
-0.00131124
-0.000598169
-0.00133612
-0.000665648
-0.00136272
-0.000734583
-0.00139124
-0.000805066
-0.00142175
-0.000877194
-0.00145428
-0.000951063
-0.00148887
-0.00102677
-0.00152559
-0.00110441
-0.00156448
-0.00160518
-0.00118408
-0.000169303
-0.0010264
-0.000225857
-0.00109837
-0.00028528
-0.00114471
-0.000346677
-0.00117642
-0.000409565
-0.00120111
-0.000473744
-0.00122343
-0.000539173
-0.00124581
-0.000605894
-0.0012694
-0.000673986
-0.00129463
-0.000743538
-0.00132169
-0.000814647
-0.00135064
-0.000887409
-0.00138152
-0.000961923
-0.00141436
-0.00103829
-0.00144923
-0.0011166
-0.00148616
-0.00152482
-0.00119696
-0.000172374
-0.00097342
-0.000229616
-0.00104113
-0.000289682
-0.00108465
-0.000351685
-0.00111441
-0.000415161
-0.00113764
-0.000479917
-0.00115867
-0.000545922
-0.00117981
-0.000613222
-0.0012021
-0.000681895
-0.00122596
-0.000752035
-0.00125155
-0.000823739
-0.00127894
-0.000897105
-0.00130815
-0.000972232
-0.00133923
-0.00104922
-0.00137224
-0.00112818
-0.0014072
-0.00144381
-0.0012092
-0.000175277
-0.000919749
-0.000233169
-0.000983238
-0.000293841
-0.00102397
-0.000356419
-0.00105184
-0.000420449
-0.00107361
-0.000485753
-0.00109337
-0.000552303
-0.00111326
-0.000620149
-0.00113425
-0.000689374
-0.00115673
-0.000760072
-0.00118085
-0.00083234
-0.00120667
-0.000906278
-0.00123421
-0.000981989
-0.00126352
-0.00105957
-0.00129465
-0.00113914
-0.00132763
-0.00136217
-0.00122078
-0.000178013
-0.000865423
-0.000236516
-0.000924735
-0.000297758
-0.000962733
-0.000360875
-0.000988718
-0.000425429
-0.00100905
-0.000491249
-0.00102755
-0.000558313
-0.00104619
-0.000626677
-0.00106589
-0.000696422
-0.00108699
-0.000767646
-0.00110963
-0.000840447
-0.00113387
-0.000914927
-0.00115973
-0.000991189
-0.00118726
-0.00106934
-0.00121651
-0.00114948
-0.00124749
-0.00127994
-0.00123171
-0.000125642
-0.000724272
-0.00018058
-0.000810485
-0.000239655
-0.00086566
-0.000301431
-0.000900958
-0.000365056
-0.000925093
-0.000430101
-0.000944009
-0.000496405
-0.000961246
-0.000563953
-0.000978645
-0.000632802
-0.000997038
-0.000703037
-0.00101675
-0.000774756
-0.00103791
-0.000848059
-0.00106056
-0.000923049
-0.00108474
-0.000999829
-0.00111048
-0.00107851
-0.00113783
-0.00115919
-0.0011668
-0.00119715
-0.00124198
-0.000127469
-0.000675016
-0.000182978
-0.000754975
-0.000242587
-0.000806051
-0.000304861
-0.000838683
-0.000368959
-0.000860995
-0.000434464
-0.000878504
-0.000501221
-0.000894489
-0.000569221
-0.000910645
-0.000638525
-0.000927734
-0.000709218
-0.000946059
-0.000781401
-0.000965729
-0.000855173
-0.000986792
-0.00093064
-0.00100928
-0.00100791
-0.00103321
-0.00108708
-0.00105865
-0.00116828
-0.00108561
-0.00111385
-0.00125158
-0.000129167
-0.000625209
-0.000185207
-0.000698934
-0.000245311
-0.000745947
-0.000308048
-0.000775947
-0.000372586
-0.000796457
-0.000438517
-0.000812573
-0.000505695
-0.000827311
-0.000574117
-0.000842223
-0.000643843
-0.000858008
-0.000714964
-0.000874938
-0.000787578
-0.000893115
-0.000861788
-0.000912581
-0.000937699
-0.000933364
-0.00101542
-0.000955491
-0.00109506
-0.000979016
-0.00117673
-0.00100394
-0.00103005
-0.00126052
-0.000130737
-0.000574894
-0.000187266
-0.000642405
-0.000247827
-0.000685386
-0.000310991
-0.000712783
-0.000375934
-0.000731513
-0.00044226
-0.000746248
-0.000509828
-0.000759743
-0.000578639
-0.000773412
-0.000648757
-0.00078789
-0.000720272
-0.000803423
-0.000793286
-0.000820102
-0.000867901
-0.000837966
-0.000944224
-0.000857041
-0.00102236
-0.000877352
-0.00110243
-0.000898949
-0.00118454
-0.000921833
-0.000945809
-0.00126878
-0.000132178
-0.000524112
-0.000189155
-0.000585428
-0.000250134
-0.000624407
-0.000313689
-0.000649228
-0.000379005
-0.000666197
-0.000445693
-0.000679561
-0.000513618
-0.000691817
-0.000582787
-0.000704244
-0.000653264
-0.000717412
-0.000725143
-0.000731544
-0.000798523
-0.000746721
-0.000873511
-0.000762978
-0.000950213
-0.000780339
-0.00102874
-0.000798827
-0.0011092
-0.000818489
-0.00119171
-0.000839322
-0.000861152
-0.00127637
-0.000133489
-0.000472907
-0.000190873
-0.000528043
-0.000252233
-0.000563048
-0.000316143
-0.000585318
-0.000381798
-0.000600543
-0.000448815
-0.000612544
-0.000517066
-0.000623565
-0.00058656
-0.00063475
-0.000657365
-0.000646607
-0.000729574
-0.000659335
-0.000803289
-0.000673006
-0.000878617
-0.000687651
-0.000955663
-0.000703292
-0.00103454
-0.000719951
-0.00111536
-0.000737669
-0.00119824
-0.000756443
-0.000776117
-0.00128327
-0.000134669
-0.00042132
-0.00019242
-0.000470292
-0.000254122
-0.000501346
-0.000318353
-0.000521087
-0.000384312
-0.000534583
-0.000451625
-0.000545231
-0.000520171
-0.00055502
-0.000589958
-0.000564962
-0.000661058
-0.000575507
-0.000733566
-0.000586828
-0.000807582
-0.000598989
-0.000883216
-0.000612018
-0.000960574
-0.000625934
-0.00103977
-0.000640757
-0.00112091
-0.000656524
-0.00120412
-0.000673232
-0.000690742
-0.0012895
-0.00013572
-0.000369395
-0.000193797
-0.000412216
-0.000255802
-0.000439341
-0.000320317
-0.000456572
-0.000386548
-0.000468352
-0.000454125
-0.000477654
-0.000522931
-0.000486214
-0.00059298
-0.000494914
-0.000664343
-0.000504144
-0.000737116
-0.000514055
-0.000811401
-0.000524703
-0.000887307
-0.000536112
-0.000964942
-0.000548299
-0.00104442
-0.000561281
-0.00112585
-0.000575091
-0.00120936
-0.000589726
-0.000605064
-0.00129504
-0.00013664
-0.000317174
-0.000195001
-0.000353854
-0.000257272
-0.00037707
-0.000322036
-0.000391808
-0.000388504
-0.000401884
-0.000456312
-0.000409846
-0.000525348
-0.000417178
-0.000595625
-0.000424636
-0.000667219
-0.00043255
-0.000740224
-0.00044105
-0.000814745
-0.000450182
-0.00089089
-0.000459968
-0.000968768
-0.000470421
-0.00104849
-0.000481557
-0.00113018
-0.000493405
-0.00121394
-0.00050596
-0.000519119
-0.00129989
-8.49532e-05
-0.000218178
-0.000137429
-0.000264698
-0.000196034
-0.000295249
-0.000258533
-0.000314571
-0.00032351
-0.000326831
-0.000390182
-0.000335213
-0.000458188
-0.000341839
-0.000527419
-0.000347947
-0.000597894
-0.000354162
-0.000669685
-0.000360759
-0.00074289
-0.000367845
-0.000817613
-0.000375459
-0.000893963
-0.000383618
-0.000972049
-0.000392335
-0.00105199
-0.000401621
-0.00113389
-0.000411501
-0.00121788
-0.000421971
-0.000432946
-0.00130405
-8.53993e-05
-0.000174786
-0.000138087
-0.00021201
-0.000196895
-0.000236441
-0.000259584
-0.000251882
-0.000324739
-0.000261676
-0.00039158
-0.000268371
-0.000459751
-0.000273668
-0.000529147
-0.000278552
-0.000599784
-0.000283524
-0.000671741
-0.000288803
-0.000745112
-0.000294474
-0.000820004
-0.000300567
-0.000896525
-0.000307098
-0.000974785
-0.000314074
-0.0010549
-0.000321507
-0.00113698
-0.000329416
-0.00122116
-0.000337797
-0.000346583
-0.00130752
-8.57563e-05
-0.00013123
-0.000138613
-0.000159153
-0.000197584
-0.00017747
-0.000260424
-0.000189042
-0.000325722
-0.000196379
-0.000392698
-0.000201395
-0.000461002
-0.000205364
-0.000530528
-0.000209026
-0.000601298
-0.000212755
-0.000673386
-0.000216715
-0.00074689
-0.000220969
-0.000821917
-0.00022554
-0.000898575
-0.00023044
-0.000976975
-0.000235674
-0.00105723
-0.000241251
-0.00113946
-0.000247185
-0.00122378
-0.000253474
-0.000260067
-0.0013103
-8.60243e-05
-8.75516e-05
-0.000139008
-0.000106169
-0.000198101
-0.000118378
-0.000261055
-0.000126087
-0.000326459
-0.000130975
-0.000393538
-0.000134316
-0.000461941
-0.000136961
-0.000531565
-0.000139401
-0.000602433
-0.000141887
-0.00067462
-0.000144528
-0.000748225
-0.000147364
-0.000823353
-0.000150412
-0.000900113
-0.000153679
-0.000978618
-0.000157169
-0.00105898
-0.000160888
-0.00114132
-0.000164846
-0.00122575
-0.00016904
-0.000173436
-0.00131239
-8.62029e-05
-4.37917e-05
-0.000139272
-5.31008e-05
-0.000198445
-5.9204e-05
-0.000261475
-6.30574e-05
-0.00032695
-6.54998e-05
-0.000394097
-6.71695e-05
-0.000462566
-6.84913e-05
-0.000532256
-6.97114e-05
-0.000603189
-7.09542e-05
-0.000675443
-7.22742e-05
-0.000749114
-7.36924e-05
-0.00082431
-7.52165e-05
-0.000901139
-7.685e-05
-0.000979713
-7.85951e-05
-0.00106015
-8.04547e-05
-0.00114256
-8.24334e-05
-0.00122707
-8.45304e-05
-8.67287e-05
-0.00131378
-8.62922e-05
9.07957e-09
-0.000139403
1.00901e-08
-0.000198618
1.04848e-08
-0.000261686
1.06212e-08
-0.000327196
1.07165e-08
-0.000394376
1.08679e-08
-0.000462879
1.10974e-08
-0.000532602
1.13942e-08
-0.000603568
1.17429e-08
-0.000675854
1.21333e-08
-0.000749559
1.25622e-08
-0.000824788
1.30298e-08
-0.000901652
1.35383e-08
-0.000980261
1.409e-08
-0.00106073
1.46872e-08
-0.00114318
1.53326e-08
-0.00122773
1.60272e-08
1.67652e-08
-0.00131447
-8.62922e-05
4.38098e-05
-0.000139403
5.3121e-05
-0.000198618
5.92249e-05
-0.000261686
6.30786e-05
-0.000327196
6.55212e-05
-0.000394376
6.71913e-05
-0.000462879
6.85135e-05
-0.000532602
6.97342e-05
-0.000603567
7.09777e-05
-0.000675854
7.22985e-05
-0.000749559
7.37175e-05
-0.000824788
7.52426e-05
-0.000901652
7.6877e-05
-0.000980261
7.86233e-05
-0.00106073
8.04841e-05
-0.00114318
8.2464e-05
-0.00122773
8.45624e-05
8.67622e-05
-0.00131447
-8.62028e-05
8.75697e-05
-0.000139271
0.00010619
-0.000198445
0.000118399
-0.000261475
0.000126109
-0.00032695
0.000130996
-0.000394097
0.000134338
-0.000462566
0.000136983
-0.000532256
0.000139424
-0.000603189
0.000141911
-0.000675442
0.000144552
-0.000749114
0.000147389
-0.000824309
0.000150438
-0.000901139
0.000153706
-0.000979713
0.000157198
-0.00106015
0.000160918
-0.00114256
0.000164876
-0.00122707
0.000169072
0.000173469
-0.00131378
-8.60242e-05
0.000131248
-0.000139008
0.000159173
-0.000198101
0.000177491
-0.000261055
0.000189063
-0.000326459
0.0001964
-0.000393537
0.000201416
-0.00046194
0.000205386
-0.000531565
0.000209048
-0.000602432
0.000212778
-0.000674619
0.000216739
-0.000748224
0.000220994
-0.000823352
0.000225566
-0.000900113
0.000230467
-0.000978617
0.000235702
-0.00105898
0.00024128
-0.00114132
0.000247216
-0.00122575
0.000253506
0.0002601
-0.00131238
-8.57562e-05
0.000174804
-0.000138613
0.00021203
-0.000197584
0.000236462
-0.000260424
0.000251903
-0.000325721
0.000261697
-0.000392698
0.000268393
-0.000461002
0.00027369
-0.000530528
0.000278575
-0.000601297
0.000283547
-0.000673385
0.000288827
-0.00074689
0.000294499
-0.000821916
0.000300593
-0.000898574
0.000307124
-0.000976974
0.000314102
-0.00105723
0.000321536
-0.00113946
0.000329446
-0.00122378
0.000337829
0.000346616
-0.0013103
-8.53991e-05
0.000218196
-0.000138087
0.000264718
-0.000196895
0.00029527
-0.000259583
0.000314592
-0.000324738
0.000326852
-0.000391579
0.000335234
-0.000459751
0.000341861
-0.000529146
0.00034797
-0.000599784
0.000354185
-0.00067174
0.000360783
-0.000745111
0.00036787
-0.000820002
0.000375485
-0.000896523
0.000383645
-0.000974784
0.000392362
-0.0010549
0.00040165
-0.00113698
0.000411531
-0.00122116
0.000422003
0.000432979
-0.00130752
-8.4953e-05
-0.000137429
0.000317193
-0.000196034
0.000353875
-0.000258532
0.000377091
-0.000323509
0.000391829
-0.000390181
0.000401905
-0.000458187
0.000409867
-0.000527418
0.000417201
-0.000597892
0.000424659
-0.000669684
0.000432574
-0.000742888
0.000441075
-0.000817611
0.000450208
-0.000893961
0.000459994
-0.000972047
0.000470449
-0.00105198
0.000481586
-0.00113389
0.000493435
-0.00121788
0.000505991
0.000519152
-0.00130405
-0.00013664
0.000369415
-0.000195001
0.000412236
-0.000257272
0.000439362
-0.000322035
0.000456593
-0.000388503
0.000468373
-0.000456311
0.000477676
-0.000525346
0.000486236
-0.000595624
0.000494937
-0.000667217
0.000504167
-0.000740222
0.00051408
-0.000814743
0.000524729
-0.000890888
0.000536139
-0.000968765
0.000548327
-0.00104849
0.00056131
-0.00113018
0.000575121
-0.00121394
0.000589757
0.000605096
-0.00129989
-0.00013572
0.00042134
-0.000193796
0.000470312
-0.000255801
0.000501367
-0.000320316
0.000521108
-0.000386547
0.000534604
-0.000454124
0.000545253
-0.00052293
0.000555042
-0.000592978
0.000564985
-0.000664341
0.00057553
-0.000737114
0.000586852
-0.000811399
0.000599014
-0.000887305
0.000612044
-0.00096494
0.000625961
-0.00104442
0.000640786
-0.00112585
0.000656554
-0.00120935
0.000673263
0.000690775
-0.00129503
-0.000134669
0.000472926
-0.00019242
0.000528063
-0.000254121
0.000563068
-0.000318351
0.000585338
-0.000384311
0.000600563
-0.000451624
0.000612566
-0.000520169
0.000623587
-0.000589956
0.000634773
-0.000661056
0.000646631
-0.000733563
0.000659359
-0.00080758
0.000673031
-0.000883213
0.000687677
-0.000960571
0.000703319
-0.00103976
0.000719979
-0.00112091
0.000737698
-0.00120412
0.000756474
0.00077615
-0.00128949
-0.000133488
0.000524131
-0.000190872
0.000585448
-0.000252232
0.000624427
-0.000316142
0.000649249
-0.000381797
0.000666218
-0.000448813
0.000679582
-0.000517064
0.000691838
-0.000586558
0.000704266
-0.000657363
0.000717435
-0.000729572
0.000731568
-0.000803287
0.000746746
-0.000878614
0.000763004
-0.00095566
0.000780366
-0.00103454
0.000798855
-0.00111536
0.000818518
-0.00119823
0.000839352
0.000861184
-0.00128327
-0.000132177
0.000574912
-0.000189154
0.000642425
-0.000250133
0.000685406
-0.000313688
0.000712803
-0.000379004
0.000731534
-0.000445691
0.000746269
-0.000513617
0.000759764
-0.000582785
0.000773434
-0.000653262
0.000787913
-0.00072514
0.000803446
-0.00079852
0.000820126
-0.000873508
0.000837991
-0.000950209
0.000857067
-0.00102873
0.00087738
-0.00110919
0.000898978
-0.0011917
0.000921862
0.000945841
-0.00127636
-0.000130736
0.000625228
-0.000187265
0.000698954
-0.000247826
0.000745967
-0.000310989
0.000775967
-0.000375933
0.000796477
-0.000442258
0.000812594
-0.000509826
0.000827332
-0.000578636
0.000842245
-0.000648754
0.00085803
-0.000720269
0.000874961
-0.000793282
0.000893139
-0.000867898
0.000912606
-0.000944221
0.00093339
-0.00102236
0.000955518
-0.00110243
0.000979044
-0.00118453
0.00100397
0.00103008
-0.00126877
-0.000129166
0.000675034
-0.000185206
0.000754994
-0.00024531
0.00080607
-0.000308046
0.000838703
-0.000372584
0.000861015
-0.000438515
0.000878525
-0.000505693
0.00089451
-0.000574114
0.000910666
-0.00064384
0.000927756
-0.000714961
0.000946082
-0.000787574
0.000965753
-0.000861784
0.000986816
-0.000937695
0.0010093
-0.00101541
0.00103324
-0.00109505
0.00105868
-0.00117672
0.00108564
0.00111388
-0.00126051
-0.000127468
0.00072429
-0.000182977
0.000810504
-0.000242586
0.000865679
-0.00030486
0.000900977
-0.000368958
0.000925113
-0.000434461
0.000944029
-0.000501218
0.000961267
-0.000569218
0.000978667
-0.000638521
0.00099706
-0.000709215
0.00101678
-0.000781397
0.00103793
-0.000855169
0.00106059
-0.000930636
0.00108477
-0.0010079
0.0011105
-0.00108708
0.00113786
-0.00116827
0.00116683
0.00119718
-0.00125158
-0.000125641
-0.000180579
0.000865442
-0.000239654
0.000924754
-0.000301429
0.000962752
-0.000365054
0.000988737
-0.000430099
0.00100907
-0.000496402
0.00102757
-0.00056395
0.00104621
-0.000632799
0.00106591
-0.000703034
0.00108701
-0.000774752
0.00110965
-0.000848054
0.00113389
-0.000923044
0.00115976
-0.000999824
0.00118728
-0.0010785
0.00121653
-0.00115919
0.00124752
0.00127997
-0.00124197
-0.000178012
0.000919767
-0.000236514
0.000983256
-0.000297756
0.00102399
-0.000360873
0.00105185
-0.000425427
0.00107363
-0.000491246
0.00109339
-0.00055831
0.00111328
-0.000626673
0.00113427
-0.000696418
0.00115676
-0.000767642
0.00118088
-0.000840442
0.00120669
-0.000914922
0.00123424
-0.000991183
0.00126354
-0.00106933
0.00129468
-0.00114947
0.00132766
0.0013622
-0.0012317
-0.000175276
0.000973438
-0.000233168
0.00104115
-0.000293839
0.00108466
-0.000356416
0.00111443
-0.000420447
0.00113766
-0.00048575
0.00115869
-0.0005523
0.00117983
-0.000620146
0.00120212
-0.00068937
0.00122598
-0.000760067
0.00125157
-0.000832335
0.00127896
-0.000906273
0.00130817
-0.000981983
0.00133925
-0.00105957
0.00137227
-0.00113913
0.00140723
0.00144383
-0.00122077
-0.000172373
0.00102641
-0.000229614
0.00109839
-0.00028968
0.00114473
-0.000351683
0.00117644
-0.000415158
0.00120113
-0.000479914
0.00122345
-0.000545919
0.00124583
-0.000613218
0.00126942
-0.000681891
0.00129465
-0.00075203
0.00132171
-0.000823734
0.00135066
-0.000897099
0.00138154
-0.000972226
0.00141438
-0.00104922
0.00144926
-0.00112817
0.00148619
0.00152485
-0.00120919
-0.000169302
0.00107865
-0.000225855
0.00115494
-0.000285278
0.00120415
-0.000346674
0.00123783
-0.000409562
0.00126402
-0.00047374
0.00128763
-0.000539169
0.00131126
-0.00060589
0.00133614
-0.000673981
0.00136274
-0.000743533
0.00139126
-0.000814641
0.00142177
-0.000887403
0.0014543
-0.000961916
0.00148889
-0.00103828
0.00152562
-0.0011166
0.0015645
0.00160521
-0.00119695
-0.000166064
-0.000221889
0.00121077
-0.000280635
0.0012629
-0.00034139
0.00129859
-0.000403659
0.00132629
-0.000467228
0.0013512
-0.000532051
0.00137609
-0.000598165
0.00140225
-0.000665644
0.00143022
-0.000734578
0.0014602
-0.00080506
0.00149225
-0.000877188
0.00152643
-0.000951056
0.00156276
-0.00102676
0.00160132
-0.0011044
0.00164215
0.00168487
-0.00118407
-0.000217719
0.00126583
-0.00027575
0.00132093
-0.00033583
0.00135867
-0.000397449
0.00138791
-0.000460379
0.00141413
-0.000524566
0.00144027
-0.000590042
0.00146773
-0.000656879
0.00149706
-0.000725165
0.00152848
-0.000794993
0.00156208
-0.000866456
0.00159789
-0.000939649
0.00163596
-0.00101467
0.00167634
-0.00109161
0.00171909
0.00176382
-0.00117055
-0.000213343
0.00132008
-0.000270624
0.00137821
-0.000329996
0.00141804
-0.000390933
0.00144884
-0.000453194
0.00147639
-0.000516715
0.00150379
-0.000581524
0.00153254
-0.000647689
0.00156323
-0.000715298
0.00159609
-0.000784442
0.00163122
-0.000855211
0.00166866
-0.0009277
0.00170844
-0.001002
0.00175064
-0.0010782
0.00179529
0.00184201
-0.0011564
-0.000208764
-0.000265258
0.00143471
-0.000323888
0.00147667
-0.000384111
0.00150907
-0.000445672
0.00153795
-0.000508498
0.00156662
-0.00057261
0.00159665
-0.000638076
0.00162869
-0.000704979
0.001663
-0.000773408
0.00169965
-0.000843456
0.00173871
-0.000915211
0.0017802
-0.000988762
0.00182419
-0.00106421
0.00187074
0.00191942
-0.00114162
-0.000259651
0.00149038
-0.000317506
0.00153452
-0.000376984
0.00156854
-0.000437815
0.00159878
-0.000499916
0.00162872
-0.000563304
0.00166003
-0.00062804
0.00169343
-0.000694208
0.00172916
-0.000761896
0.00176734
-0.000831192
0.00180801
-0.000902186
0.00185119
-0.000974963
0.00189697
-0.00104962
0.00194539
0.00199603
-0.00112622
-0.000253805
0.00154519
-0.000310851
0.00159157
-0.000369552
0.00162725
-0.000429624
0.00165885
-0.000490971
0.00169007
-0.000553605
0.00172267
-0.000617584
0.00175741
-0.000682988
0.00179457
-0.000749906
0.00183426
-0.000818424
0.00187653
-0.000888629
0.0019214
-0.000960604
0.00196894
-0.00103444
0.00201923
0.00207179
-0.00111021
-0.00024772
0.0015991
-0.000303923
0.00164777
-0.000361816
0.00168514
-0.000421099
0.00171813
-0.000481663
0.00175063
-0.000543514
0.00178452
-0.000606708
0.0018206
-0.000671322
0.00185918
-0.000737442
0.00190038
-0.000805154
0.00194424
-0.000874543
0.00199079
-0.000945691
0.00204009
-0.00101868
0.00209222
0.0021467
-0.00109359
-0.000241396
-0.000296722
0.0017031
-0.000353777
0.00174219
-0.00041224
0.0017766
-0.000471994
0.00181039
-0.000533034
0.00184556
-0.000595414
0.00188298
-0.000659209
0.00192298
-0.000724504
0.00196567
-0.000791384
0.00201112
-0.000859932
0.00205933
-0.000930227
0.00211038
-0.00100235
0.00216434
0.00222072
-0.00107637
-0.00028925
0.00175752
-0.000345434
0.00179838
-0.000403048
0.00183421
-0.000461963
0.0018693
-0.000522165
0.00190576
-0.000583703
0.00194452
-0.000646653
0.00198593
-0.000711096
0.00203012
-0.000777118
0.00207714
-0.000844799
0.00212702
-0.000914218
0.0021798
-0.000985455
0.00223558
0.00229383
-0.00105857
-0.000281506
0.00181099
-0.000336788
0.00185366
-0.000393525
0.00189095
-0.000451571
0.00192735
-0.000510907
0.0019651
-0.000571577
0.00200519
-0.000633654
0.002048
-0.000697219
0.00209368
-0.000762356
0.00214228
-0.000829147
0.00219381
-0.000897667
0.00224832
-0.000967996
0.00230591
0.00236602
-0.00104019
-0.000273492
-0.000327841
0.00190801
-0.00038367
0.00194678
-0.00044082
0.0019845
-0.000499263
0.00202354
-0.000559037
0.00206496
-0.000620214
0.00210918
-0.000682874
0.00215634
-0.000747101
0.0022065
-0.000812978
0.00225968
-0.000880578
0.00231592
-0.00094998
0.00237531
0.00243727
-0.00102123
-0.000318591
0.00196139
-0.000373484
0.00200167
-0.000429711
0.00204072
-0.000487232
0.00208106
-0.000546083
0.00212381
-0.000606333
0.00216943
-0.000668062
0.00221807
-0.000731355
0.0022698
-0.000796293
0.00232462
-0.000862953
0.00238258
-0.000931413
0.00244377
0.00250758
-0.00100172
-0.000309041
-0.000362969
0.0020556
-0.000418243
0.002096
-0.000474816
0.00213763
-0.000532718
0.00218172
-0.000592014
0.00222873
-0.000652785
0.00227884
-0.000715117
0.00233213
-0.000779093
0.0023886
-0.000844793
0.00244828
-0.000912299
0.00251128
0.00257693
-0.000981651
-0.000352124
0.00210853
-0.000406418
0.00215029
-0.000462016
0.00219323
-0.000518941
0.00223864
-0.000577256
0.00228704
-0.000637042
0.00233863
-0.000698388
0.00239347
-0.000761378
0.00245159
-0.000826098
0.002513
-0.00089264
0.00257782
0.00264533
-0.000961046
-0.00034095
-0.000394237
0.00220358
-0.000448833
0.00224783
-0.000504753
0.00229456
-0.000562061
0.00234435
-0.000620835
0.0023974
-0.000681167
0.00245381
-0.000743147
0.00251357
-0.000806866
0.00257672
-0.000872437
0.00264339
0.00271281
-0.000939912
-0.000381702
0.00225583
-0.000435267
0.00230139
-0.000490157
0.00234945
-0.000546429
0.00240062
-0.000604163
0.00245514
-0.000663454
0.0025131
-0.000724397
0.00257451
-0.00078709
0.00263942
-0.000851682
0.00270798
0.00277939
-0.000918263
-0.000368812
0.00230702
-0.000421321
0.0023539
-0.000475153
0.00240328
-0.000530361
0.00245583
-0.000587027
0.0025118
-0.000645246
0.00257132
-0.000705124
0.00263439
-0.000766763
0.00270105
-0.000830362
0.00277158
0.00284514
-0.000896111
-0.00035557
-0.000406997
0.00240533
-0.000459743
0.00245603
-0.00051386
0.00250995
-0.000569426
0.00256737
-0.000626543
0.00262843
-0.000685325
0.00269317
-0.000745874
0.0027616
-0.000808448
0.00283416
0.00291016
-0.000873469
-0.000392295
-0.000443929
0.00250766
-0.000496926
0.00256294
-0.000551362
0.00262181
-0.000607341
0.00268441
-0.000664997
0.00275083
-0.000724414
0.00282102
-0.000785874
0.00289562
0.00297465
-0.000850362
-0.000427715
0.00255816
-0.000479563