/*--------------------------------*- C++ -*----------------------------------*\
  =========                 |
  \\      /  F ield         | OpenFOAM: The Open Source CFD Toolbox
   \\    /   O peration     | Website:  https://openfoam.org
    \\  /    A nd           | Version:  7
     \\/     M anipulation  |
\*---------------------------------------------------------------------------*/
FoamFile
{
    version     2.0;
    format      ascii;
    class       volVectorField;
    location    "40";
    object      U;
}
// * * * * * * * * * * * * * * * * * * * * * * * * * * * * * * * * * * * * * //

dimensions      [0 1 -1 0 0 0 0];

internalField   nonuniform List<vector> 
8500
(
(1.00826 0.378322 -1.20521e-20)
(0.995939 0.393404 -1.26811e-19)
(0.998382 0.377633 1.54239e-19)
(0.982317 0.41073 -1.6492e-19)
(0.985285 0.392518 1.82345e-19)
(0.988394 0.376631 -2.39345e-19)
(0.968282 0.429838 -8.86807e-20)
(0.971078 0.409684 3.04931e-19)
(0.974518 0.391309 -2.03781e-19)
(0.978307 0.375303 6.74552e-20)
(0.956475 0.4286 1.38515e-19)
(0.959777 0.408302 1.24796e-19)
(0.963658 0.389768 -5.11139e-19)
(0.968136 0.373626 1.18489e-19)
(0.9414 0.448624 1.73156e-19)
(0.94463 0.426986 -2.22638e-19)
(0.94844 0.406576 6.80501e-20)
(0.952725 0.387881 5.25781e-19)
(0.957893 0.371563 2.98984e-19)
(0.925246 0.469778 -7.77577e-20)
(0.928865 0.44673 -2.76228e-19)
(0.932766 0.424986 -8.42306e-20)
(0.937092 0.404498 -3.19255e-19)
(0.941745 0.385633 1.39715e-19)
(0.947619 0.369068 -3.53125e-19)
(0.911902 0.467555 -5.6361e-20)
(0.916294 0.44441 -2.2983e-20)
(0.920898 0.422587 1.72006e-19)
(0.92575 0.402058 3.25352e-19)
(0.930768 0.38301 -5.55214e-19)
(0.937479 0.366106 3.67398e-19)
(0.893434 0.489491 -3.63906e-21)
(0.898513 0.464873 -1.28359e-20)
(0.903698 0.441656 3.11698e-19)
(0.909027 0.419776 -1.19721e-19)
(0.914421 0.399225 -2.29937e-19)
(0.919904 0.379967 -7.17911e-21)
(0.927722 0.362688 -5.07479e-19)
(0.879164 0.486397 -1.51811e-19)
(0.885093 0.461728 8.36141e-20)
(0.89108 0.438463 2.37608e-19)
(0.897139 0.416542 6.76873e-20)
(0.903103 0.395958 -4.10122e-19)
(0.909282 0.376368 -1.35829e-20)
(0.918299 0.358644 1.63528e-19)
(0.85806 0.508982 -9.0612e-20)
(0.864873 0.482807 -1.32031e-20)
(0.871656 0.458119 -2.45874e-19)
(0.878445 0.434836 -1.30317e-19)
(0.885222 0.412898 -1.49568e-19)
(0.891809 0.392281 4.77454e-19)
(0.898975 0.372191 -1.10804e-19)
(0.908275 0.352403 4.21879e-19)
(0.834975 0.532569 -2.82454e-19)
(0.842851 0.504883 1.18871e-19)
(0.850581 0.478717 1.90377e-19)
(0.858221 0.454047 8.29483e-20)
(0.865806 0.430782 2.10384e-19)
(0.873295 0.408863 9.84109e-20)
(0.880561 0.38826 -3.05521e-20)
(0.888591 0.368168 2.27819e-19)
(0.897824 0.348463 3.08623e-20)
(0.818803 0.527898 -1.19659e-19)
(0.827658 0.500245 -3.44807e-19)
(0.836308 0.474127 -2.53786e-20)
(0.844808 0.449512 -1.49681e-19)
(0.853185 0.426304 2.31366e-19)
(0.861388 0.404441 -3.6188e-19)
(0.869331 0.383878 -9.45531e-20)
(0.877996 0.363803 -1.41134e-19)
(0.887218 0.344124 -5.17128e-19)
(0.792412 0.551661 -4.65605e-20)
(0.802665 0.522641 -9.13088e-21)
(0.812505 0.495064 -4.41912e-20)
(0.822078 0.469036 -1.15224e-19)
(0.831436 0.444515 -1.64715e-19)
(0.840606 0.421401 8.36872e-20)
(0.849529 0.399633 2.88392e-19)
(0.858152 0.379151 -1.52699e-19)
(0.867399 0.359168 2.00213e-19)
(0.87681 0.339684 5.81083e-19)
(0.775295 0.545723 -5.24134e-19)
(0.786588 0.516797 -2.43125e-19)
(0.797415 0.489341 7.53757e-20)
(0.807912 0.463443 9.69101e-20)
(0.818128 0.439055 3.33549e-19)
(0.828089 0.416074 -4.67716e-19)
(0.837738 0.394437 1.37997e-19)
(0.847038 0.374075 8.62785e-20)
(0.856857 0.354238 -1.2465e-19)
(0.866583 0.335026 -4.3497e-19)
(0.745074 0.569027 -4.16479e-19)
(0.758261 0.539148 3.70185e-19)
(0.770597 0.510366 4.42634e-19)
(0.782411 0.483076 3.56678e-19)
(0.793831 0.45735 2.56191e-19)
(0.804905 0.433133 -5.59098e-19)
(0.815657 0.410323 -2.83157e-21)
(0.826032 0.388854 -1.52471e-19)
(0.836008 0.36865 5.87188e-19)
(0.846405 0.349006 -2.97344e-20)
(0.856521 0.330097 -2.91473e-19)
(0.727072 0.561668 3.60939e-19)
(0.741337 0.531937 9.19414e-21)
(0.754717 0.50335 1.37989e-19)
(0.767518 0.47627 -2.19642e-19)
(0.779858 0.450757 -2.80841e-19)
(0.791787 0.42675 7.07956e-19)
(0.803328 0.404147 2.86118e-19)
(0.81443 0.382882 -2.95019e-19)
(0.825083 0.362872 -3.49617e-19)
(0.836068 0.343461 -3.9343e-19)
(0.84662 0.324877 -3.08234e-20)
(0.709207 0.55362 1.93166e-19)
(0.724552 0.524093 7.45702e-20)
(0.738975 0.49575 -3.86412e-19)
(0.752759 0.468925 4.07939e-19)
(0.766016 0.443666 2.46956e-19)
(0.778796 0.419908 -1.01552e-19)
(0.791124 0.397549 -1.93299e-19)
(0.802953 0.376522 1.70632e-19)
(0.814282 0.356741 -2.88522e-19)
(0.825861 0.337595 -4.04175e-19)
(0.836882 0.319351 3.95989e-19)
(0.673524 0.574462 5.97191e-19)
(0.691508 0.544887 -2.95741e-19)
(0.707933 0.51562 3.64676e-19)
(0.723395 0.487569 -4.25433e-19)
(0.738157 0.461043 5.58366e-20)
(0.752327 0.43608 -1.74315e-19)
(0.765953 0.412608 1.21467e-19)
(0.779064 0.390528 1.15014e-19)
(0.791617 0.369773 -7.22627e-20)
(0.803623 0.350254 7.18777e-19)
(0.815801 0.331404 -8.93366e-20)
(0.82731 0.313512 -3.3574e-19)
(0.654944 0.564811 -4.31679e-19)
(0.674006 0.535476 6.1559e-19)
(0.691509 0.506523 -7.31724e-20)
(0.708004 0.478813 1.77654e-19)
(0.723737 0.45263 2.10373e-19)
(0.738811 0.428001 8.44945e-20)
(0.753278 0.404854 -5.92044e-19)
(0.767166 0.383088 1.30525e-19)
(0.78044 0.362637 1.28206e-19)
(0.793121 0.343411 -4.25585e-19)
(0.805899 0.324884 1.65493e-19)
(0.817911 0.307355 6.26936e-20)
(0.613852 0.582039 -6.3025e-20)
(0.636591 0.554425 -6.07452e-21)
(0.656731 0.525391 9.26407e-20)
(0.675306 0.496807 -1.72425e-19)
(0.692826 0.469486 -2.06174e-20)
(0.709521 0.443689 -6.53995e-19)
(0.725492 0.419435 -5.04131e-19)
(0.74079 0.396649 -8.31025e-20)
(0.75545 0.375231 -7.38766e-20)
(0.769439 0.355116 -8.12747e-20)
(0.782792 0.336212 -1.65505e-19)
(0.796168 0.318033 -1.93539e-19)
(0.808691 0.300881 -2.63484e-19)
(0.594751 0.570702 -1.19144e-19)
(0.618498 0.543313 -5.36225e-20)
(0.639713 0.514642 -5.70219e-19)
(0.659351 0.48648 -5.43232e-19)
(0.677886 0.459594 1.02715e-19)
(0.695532 0.434227 8.85648e-19)
(0.712389 0.410386 1.37315e-19)
(0.72851 0.387997 3.64193e-19)
(0.743933 0.366961 -5.65769e-19)
(0.758632 0.347213 -1.36347e-19)
(0.77265 0.328659 6.84526e-19)
(0.78662 0.310853 3.10069e-19)
(0.799659 0.294089 1.26911e-18)
(0.57594 0.558582 -7.3537e-20)
(0.600699 0.531487 3.83369e-19)
(0.622982 0.503238 -2.3469e-19)
(0.643672 0.475549 1.79051e-19)
(0.663208 0.449146 4.09014e-19)
(0.681794 0.424249 -2.88166e-19)
(0.699524 0.40086 7.54228e-20)
(0.716457 0.378904 3.53686e-19)
(0.732633 0.358283 4.54102e-19)
(0.748033 0.33893 -2.37112e-19)
(0.76271 0.320755 -1.40644e-19)
(0.777267 0.303345 2.13467e-19)
(0.790824 0.286982 -6.26664e-19)
(0.52779 0.568153 8.6875e-20)
(0.557456 0.545692 2.41737e-19)
(0.583224 0.518957 -3.62815e-19)
(0.606566 0.491189 8.64234e-19)
(0.628295 0.464024 3.62116e-19)
(0.648818 0.438149 -1.25295e-19)
(0.668327 0.413764 -4.12013e-20)
(0.686918 0.390865 1.67685e-19)
(0.70465 0.369375 -4.68007e-19)
(0.721568 0.349201 3.83371e-20)
(0.737659 0.330274 -3.041e-19)
(0.752985 0.312504 -1.37688e-19)
(0.768122 0.295513 -6.15816e-19)
(0.782195 0.279565 -2.69832e-19)
(0.508827 0.554312 -2.99892e-19)
(0.539334 0.532046 1.59094e-19)
(0.566106 0.505737 -9.93896e-20)
(0.590494 0.478506 -3.09332e-19)
(0.613245 0.451916 3.34538e-19)
(0.634738 0.426613 3.63222e-19)
(0.655154 0.40278 -1.81635e-21)
(0.67459 0.380408 -8.49056e-20)
(0.693107 0.359419 -4.78568e-20)
(0.710754 0.339722 3.64514e-19)
(0.727525 0.321249 3.35019e-19)
(0.74349 0.303911 9.44285e-20)
(0.759195 0.28736 6.45825e-19)
(0.773782 0.271842 2.14073e-19)
(0.490257 0.539661 -1.06151e-19)
(0.521608 0.517661 -1.86283e-19)
(0.549375 0.491841 -7.0598e-20)
(0.574792 0.465203 -8.97884e-21)
(0.598548 0.439236 -7.37804e-19)
(0.620991 0.414548 -9.40903e-19)
(0.642297 0.391306 -1.4722e-19)
(0.66256 0.369497 3.33971e-19)
(0.681846 0.349043 -1.32606e-19)
(0.700208 0.329854 -6.86538e-19)
(0.717646 0.311862 6.50271e-19)
(0.734236 0.294981 9.4835e-20)
(0.750498 0.278892 -2.68477e-19)
(0.765594 0.263818 4.24621e-19)
(0.434664 0.537258 1.243e-19)
(0.472117 0.52422 4.30839e-19)
(0.504311 0.502553 -1.50477e-19)
(0.53306 0.477284 2.29442e-19)
(0.559489 0.451293 4.43904e-19)
(0.584228 0.425997 2.44178e-19)
(0.607601 0.401966 1.04213e-18)
(0.629776 0.379355 4.81151e-19)
(0.650847 0.358144 -4.1701e-20)
(0.670886 0.338256 -2.43997e-20)
(0.689945 0.319604 8.72793e-20)
(0.708036 0.302121 -7.13651e-19)
(0.725239 0.285722 -3.86657e-19)
(0.742043 0.270115 1.68767e-19)
(0.757641 0.255501 -5.86877e-19)
(0.416458 0.521034 9.14559e-20)
(0.454444 0.508007 -5.43755e-19)
(0.487476 0.486742 4.14e-19)
(0.517191 0.462084 -1.95116e-19)
(0.544611 0.436791 -4.50945e-19)
(0.570309 0.412212 -1.10316e-19)
(0.594589 0.38888 -4.28651e-19)
(0.617611 0.366936 -9.01221e-19)
(0.639471 0.346357 7.69031e-20)
(0.660242 0.327068 7.28887e-19)
(0.679983 0.308982 -3.21768e-19)
(0.698709 0.292033 4.00095e-19)
(0.716509 0.276141 5.40589e-19)
(0.733842 0.261037 3.52332e-19)
(0.749933 0.246898 2.71191e-19)
(0.398746 0.503994 3.26054e-19)
(0.437272 0.491047 5.73166e-19)
(0.471134 0.470246 -7.00024e-19)
(0.501797 0.446257 5.55216e-19)
(0.530183 0.421715 4.48764e-19)
(0.556815 0.397896 -1.29796e-19)
(0.581977 0.375304 -7.0839e-20)
(0.605822 0.354063 2.61268e-19)
(0.628448 0.33415 -4.54152e-19)
(0.649931 0.315488 -6.16195e-19)
(0.670335 0.297996 2.37129e-19)
(0.68968 0.281608 -2.40691e-19)
(0.70806 0.266245 -2.94386e-19)
(0.725906 0.251665 -2.57179e-19)
(0.742481 0.238016 2.52779e-20)
(0.381566 0.486165 -5.63465e-19)
(0.420637 0.47336 -4.67002e-20)
(0.455316 0.453088 3.4963e-20)
(0.486904 0.429823 -5.96426e-20)
(0.516229 0.40608 -5.60366e-19)
(0.543769 0.383066 -2.32451e-20)
(0.569786 0.361251 -9.35946e-20)
(0.594429 0.340749 5.68964e-19)
(0.617798 0.321533 -1.78475e-19)
(0.639971 0.30353 -5.11966e-20)
(0.661016 0.286659 3.09368e-19)
(0.680962 0.270856 9.13513e-19)
(0.699904 0.256045 -9.44297e-20)
(0.718246 0.242006 -1.11226e-19)
(0.735293 0.228865 1.93746e-19)
(0.319628 0.466392 3.99603e-19)
(0.364955 0.467573 -2.35219e-19)
(0.404571 0.454973 -3.86987e-19)
(0.44005 0.435289 3.85271e-19)
(0.472539 0.412803 -1.30442e-19)
(0.502775 0.389905 3.65848e-19)
(0.531193 0.367737 1.68947e-19)
(0.558035 0.346737 -9.98551e-20)
(0.58345 0.327008 -3.87376e-19)
(0.607536 0.308521 4.83324e-19)
(0.630376 0.291204 -1.21942e-19)
(0.652042 0.27498 -5.41125e-19)
(0.672567 0.259786 -1.89957e-19)
(0.692052 0.245549 -6.00929e-20)
(0.710872 0.232072 9.52692e-19)
(0.728379 0.219452 -6.20034e-19)
(0.303552 0.447457 -2.97908e-19)
(0.348948 0.448246 5.8662e-19)
(0.389105 0.43591 1.07556e-19)
(0.425366 0.416872 2.88887e-19)
(0.458727 0.395217 2.1712e-19)
(0.489844 0.37321 -6.01639e-19)
(0.519107 0.351928 -3.19074e-19)
(0.546746 0.331779 5.97446e-19)
(0.572903 0.312855 -2.13099e-20)
(0.59768 0.295127 -4.97937e-19)
(0.621162 0.278524 1.29622e-19)
(0.643425 0.262972 6.28992e-19)
(0.664509 0.24841 -5.15539e-19)
(0.684516 0.234769 -2.11221e-19)
(0.703796 0.22187 -1.89186e-19)
(0.721749 0.209788 4.20877e-19)
(0.288096 0.427767 -3.9792e-19)
(0.333579 0.428212 -1.73556e-19)
(0.37427 0.416199 -7.27943e-20)
(0.411289 0.397863 -5.78508e-19)
(0.445493 0.377087 -4.4379e-19)
(0.477456 0.356016 5.945e-19)
(0.507532 0.335658 3.33992e-19)
(0.535935 0.316394 -2.64389e-19)
(0.562805 0.298307 -3.07857e-19)
(0.588244 0.281366 3.38212e-19)
(0.612343 0.265503 -1.92471e-19)
(0.635179 0.250648 2.80512e-19)
(0.6568 0.23674 1.36702e-19)
(0.677308 0.223715 5.3653e-19)
(0.697028 0.211411 1.07692e-19)
(0.71541 0.199882 -4.97062e-19)
(0.273297 0.407354 -8.08972e-20)
(0.318881 0.407503 -2.30533e-19)
(0.360094 0.395868 2.04804e-19)
(0.397847 0.378287 7.67499e-20)
(0.432861 0.358438 -2.28955e-19)
(0.465635 0.338343 1.54534e-19)
(0.496488 0.318946 -4.15948e-19)
(0.525621 0.3006 -9.40838e-20)
(0.553172 0.283379 3.88338e-19)
(0.579246 0.267253 1.39016e-19)
(0.603934 0.252156 2.22041e-19)
(0.627318 0.23802 -4.24345e-19)
(0.649451 0.224788 -1.65407e-19)
(0.670437 0.212398 -5.71638e-20)
(0.690577 0.200706 7.82647e-20)
(0.709373 0.189746 4.54931e-19)
(0.259188 0.386251 -1.80273e-19)
(0.304883 0.38615 3.9997e-19)
(0.346606 0.374946 6.38548e-19)
(0.385064 0.35817 1.83493e-19)
(0.420852 0.339293 2.5309e-19)
(0.454399 0.320213 -4.68173e-21)
(0.485993 0.301812 1.23009e-19)
(0.515822 0.284415 4.33343e-19)
(0.544021 0.26809 -6.47116e-20)
(0.570698 0.252805 -7.91873e-19)
(0.595947 0.238498 6.64563e-21)
(0.619852 0.225104 4.58927e-20)
(0.642473 0.212567 4.25968e-20)
(0.663915 0.200831 -2.65519e-19)
(0.684454 0.189767 -2.49209e-19)
(0.703646 0.179389 -4.87941e-19)
(0.196056 0.347017 -1.21005e-19)
(0.245801 0.364495 2.39897e-19)
(0.291615 0.364187 2.37283e-19)
(0.333831 0.353463 -2.3833e-19)
(0.372963 0.337541 2.75958e-20)
(0.409487 0.319678 -1.57231e-19)
(0.443769 0.301651 3.88337e-20)
(0.476065 0.284278 -4.72212e-21)
(0.506553 0.267861 -1.94262e-19)
(0.535367 0.252458 -8.86158e-20)
(0.562615 0.238038 5.25415e-19)
(0.588395 0.224544 -3.96713e-19)
(0.612794 0.211912 2.6929e-19)
(0.635878 0.200091 1.10102e-19)
(0.65775 0.189026 -2.57064e-20)
(0.678666 0.178605 7.70628e-21)
(0.698235 0.168824 2.68353e-19)
(0.183907 0.325935 3.33127e-19)
(0.233166 0.342121 -1.85231e-19)
(0.279105 0.341647 -3.27859e-19)
(0.321794 0.331452 -2.00785e-19)
(0.361566 0.316427 -3.92005e-19)
(0.398788 0.299619 3.22951e-19)
(0.433763 0.282679 -2.67632e-19)
(0.466721 0.266366 5.77582e-20)
(0.49783 0.250956 4.08054e-20)
(0.527223 0.236501 -1.79786e-19)
(0.555009 0.222971 2.11276e-19)
(0.58129 0.21031 3.22804e-19)
(0.606155 0.198461 -2.88546e-19)
(0.629675 0.187373 -3.34111e-19)
(0.651953 0.176997 6.45321e-19)
(0.673223 0.167232 -5.87209e-19)
(0.69315 0.158061 2.16829e-19)
(0.172496 0.304256 -2.77682e-19)
(0.221313 0.319167 5.95716e-20)
(0.267379 0.318566 1.30217e-19)
(0.310518 0.308943 -4.56511e-19)
(0.350895 0.294859 7.52124e-20)
(0.388772 0.279143 -3.14537e-19)
(0.424398 0.263323 2.69376e-19)
(0.457976 0.248099 6.5244e-20)
(0.489668 0.233722 -2.98194e-19)
(0.519603 0.220239 -6.85641e-20)
(0.547894 0.20762 1.63701e-19)
(0.574644 0.195814 7.78986e-20)
(0.599946 0.184766 -2.33097e-20)
(0.623873 0.174429 1.95741e-20)
(0.646532 0.164756 -5.66387e-19)
(0.668134 0.155661 4.08268e-19)
(0.688396 0.147113 3.82313e-19)
(0.161852 0.282019 2.52433e-19)
(0.210267 0.295671 1.73436e-19)
(0.25646 0.29498 3.30686e-19)
(0.300024 0.28597 4.67264e-20)
(0.340968 0.272866 3.24835e-20)
(0.379457 0.258276 -2.35386e-21)
(0.415689 0.243608 -3.44694e-19)
(0.449846 0.2295 1.82379e-19)
(0.48208 0.216181 -2.96459e-19)
(0.51252 0.203692 1.97279e-19)
(0.541281 0.192006 -3.20711e-19)
(0.568467 0.181073 -1.90983e-19)
(0.594175 0.170843 3.89708e-19)
(0.618483 0.161272 3.51684e-20)
(0.641495 0.152319 8.96646e-20)
(0.663405 0.143905 3.60931e-20)
(0.683982 0.135993 -4.21925e-19)
(0.152001 0.259264 -1.69025e-19)
(0.200054 0.271673 1.0688e-19)
(0.246372 0.270925 -2.43208e-19)
(0.290334 0.262568 1.86499e-19)
(0.331804 0.250479 2.70691e-20)
(0.37086 0.237049 1.59812e-19)
(0.407653 0.22356 -5.42754e-21)
(0.442345 0.210593 -1.59923e-19)
(0.475079 0.198355 1.6037e-19)
(0.505986 0.186882 -4.15206e-19)
(0.53518 0.176146 5.85834e-19)
(0.56277 0.166104 2.26615e-19)
(0.588853 0.156709 -4.79755e-19)
(0.613511 0.147919 4.8728e-20)
(0.636849 0.139698 3.19771e-19)
(0.659044 0.131977 -4.57981e-19)
(0.679912 0.124712 -2.71483e-21)
(0.142968 0.236033 1.10618e-19)
(0.190696 0.247214 -9.17096e-20)
(0.237134 0.24644 -4.558e-20)
(0.281465 0.238771 -9.32856e-20)
(0.323419 0.227731 -1.19559e-19)
(0.362995 0.21549 -3.36304e-19)
(0.400303 0.203206 1.48523e-19)
(0.435484 0.191404 -2.08514e-19)
(0.468677 0.180267 3.87997e-19)
(0.50001 0.169828 2.6491e-19)
(0.529602 0.160061 -4.7137e-19)
(0.557561 0.150926 -4.79218e-19)
(0.583987 0.14238 2.31647e-19)
(0.608967 0.134386 -2.60638e-19)
(0.632603 0.126909 -3.26407e-20)
(0.655058 0.119891 2.61878e-19)
(0.676194 0.113285 -4.90238e-19)
(0.134774 0.212368 -1.7757e-19)
(0.182213 0.222334 -2.56403e-19)
(0.228765 0.221563 3.78469e-19)
(0.273434 0.214614 5.31025e-20)
(0.315829 0.204654 1.92731e-19)
(0.355877 0.193628 2.04943e-19)
(0.393651 0.182573 -4.89173e-20)
(0.429275 0.171956 2.92423e-19)
(0.462883 0.16194 -1.74011e-19)
(0.494604 0.152553 -2.28556e-19)
(0.524555 0.143771 3.68025e-19)
(0.552848 0.135557 4.2365e-19)
(0.579585 0.127874 -4.90614e-19)
(0.604856 0.120687 6.83875e-20)
(0.628763 0.113966 -4.57502e-20)
(0.651453 0.107662 -1.63284e-19)
(0.672832 0.101723 6.56631e-20)
(0.127439 0.188312 1.94952e-19)
(0.174626 0.197075 1.41932e-19)
(0.221283 0.196334 -2.04361e-19)
(0.266256 0.190133 9.65396e-20)
(0.309047 0.181281 1.09852e-19)
(0.349518 0.171495 -3.49051e-19)
(0.387709 0.16169 1.7259e-19)
(0.42373 0.152277 1.95598e-20)
(0.457709 0.143399 1.69266e-19)
(0.489775 0.135079 -2.21005e-19)
(0.520048 0.127296 2.78212e-20)
(0.54864 0.120017 -1.77717e-20)
(0.575655 0.113209 2.51344e-20)
(0.601186 0.106841 1.5393e-19)
(0.625334 0.100886 2.80077e-20)
(0.648234 0.0953033 -3.48834e-20)
(0.669831 0.0900415 4.03779e-21)
(0.120982 0.16391 -2.93772e-20)
(0.16795 0.171482 1.73697e-19)
(0.214703 0.170792 -2.21043e-19)
(0.259946 0.165366 5.5452e-20)
(0.303086 0.157645 -1.98509e-19)
(0.34393 0.14912 6.4722e-22)
(0.382487 0.140584 -3.2409e-19)
(0.418857 0.132393 -2.38064e-19)
(0.453163 0.124667 1.29346e-19)
(0.485533 0.117428 3.45598e-20)
(0.516088 0.110657 -9.22639e-20)
(0.544942 0.104324 1.24764e-19)
(0.572202 0.098402 9.22489e-20)
(0.597962 0.0928627 1.5612e-19)
(0.622322 0.0876837 7.75089e-20)
(0.645406 0.0828297 1.80237e-19)
(0.667196 0.0782529 7.38554e-20)
(0.070931 0.121999 2.82382e-19)
(0.115419 0.139206 -1.11049e-19)
(0.1622 0.145596 -5.13005e-20)
(0.209038 0.144979 -9.81817e-20)
(0.254514 0.140349 9.44758e-21)
(0.297956 0.13378 7.05177e-20)
(0.339121 0.126535 2.2052e-19)
(0.377995 0.119285 2.72856e-19)
(0.414664 0.112329 1.07133e-19)
(0.449251 0.10577 -2.59442e-20)
(0.481883 0.0996234 -5.67897e-20)
(0.512682 0.0938748 -1.44249e-19)
(0.541762 0.0884995 1.75819e-20)
(0.569232 0.0834723 -1.74513e-20)
(0.595189 0.0787703 -1.27608e-19)
(0.619732 0.0743747 -1.36203e-20)
(0.642974 0.0702563 -2.60843e-19)
(0.66493 0.0663714 5.20804e-21)
(0.0667893 0.100151 -1.15531e-19)
(0.110761 0.114246 -6.13034e-21)
(0.157389 0.119463 -1.31911e-20)
(0.2043 0.118935 6.57139e-20)
(0.249973 0.115121 -2.07032e-19)
(0.293667 0.109722 -8.18786e-20)
(0.335101 0.103772 -1.41039e-19)
(0.374239 0.0978214 5.7509e-21)
(0.41116 0.0921129 4.80164e-20)
(0.445982 0.0867309 1.08234e-19)
(0.478832 0.0816883 -2.15119e-20)
(0.509834 0.076972 9.69816e-20)
(0.539104 0.072562 -4.78349e-20)
(0.56675 0.0684379 -1.75301e-19)
(0.592871 0.0645808 -1.85353e-20)
(0.617567 0.0609752 -4.139e-20)
(0.640942 0.0575979 1.99152e-19)
(0.663036 0.054411 -3.3916e-20)
(0.0634625 0.0781035 -2.70059e-20)
(0.107022 0.0890758 5.95854e-20)
(0.153528 0.0931263 4.68471e-20)
(0.200498 0.0927006 1.35566e-20)
(0.246329 0.0897183 1.59756e-19)
(0.290227 0.0855037 -4.34939e-20)
(0.331877 0.0808631 3.90452e-20)
(0.371227 0.0762227 4.69621e-20)
(0.408349 0.0717722 3.28417e-20)
(0.44336 0.0675767 -9.04439e-20)
(0.476386 0.0636459 1.20056e-19)
(0.507551 0.0599696 9.1448e-20)
(0.536972 0.0565322 -3.62444e-20)
(0.564759 0.0533178 1.49442e-19)
(0.591012 0.0503115 2.36941e-19)
(0.615831 0.0475014 -3.50817e-20)
(0.639312 0.0448698 9.02987e-20)
(0.661518 0.0423859 -4.11073e-20)
(0.0609596 0.055899 1.83002e-20)
(0.104209 0.0637415 -9.4296e-20)
(0.150624 0.0666308 4.8994e-20)
(0.197639 0.066319 1.45053e-19)
(0.24359 0.0641801 -1.17517e-19)
(0.287641 0.0611616 -6.8785e-21)
(0.329453 0.0578397 3.07174e-20)
(0.368963 0.0545188 6.92682e-20)
(0.406237 0.0513342 6.47926e-21)
(0.441389 0.0483323 -2.26335e-20)
(0.474547 0.0455199 -3.72025e-20)
(0.505835 0.0428896 -3.97992e-20)
(0.53537 0.0404304 1.53772e-20)
(0.563263 0.0381307 1.55777e-20)
(0.589616 0.03598 -7.97241e-20)
(0.614526 0.0339696 -7.90301e-21)
(0.638087 0.0320874 -1.94655e-19)
(0.660377 0.0303104 8.20305e-20)
(0.0592873 0.0335823 -8.68107e-21)
(0.102331 0.0382898 3.99505e-20)
(0.148685 0.0400218 -2.34958e-20)
(0.195731 0.0398317 -7.42943e-20)
(0.241761 0.0385449 3.62753e-20)
(0.285914 0.0367306 -8.2783e-22)
(0.327835 0.0347346 -1.06407e-19)
(0.367452 0.0327395 6.51373e-20)
(0.404827 0.0308265 -4.43227e-20)
(0.440074 0.0290233 3.5565e-20)
(0.47332 0.027334 -2.94772e-20)
(0.50469 0.0257541 1.57081e-20)
(0.534301 0.024277 2.87772e-20)
(0.562265 0.0228957 -8.51583e-20)
(0.588684 0.0216039 8.12466e-21)
(0.613656 0.0203965 -3.93344e-21)
(0.63727 0.0192661 4.93599e-20)
(0.659616 0.0181988 1.11923e-21)
(0.05845 0.0111983 5.99595e-21)
(0.10139 0.0127676 7.53115e-21)
(0.147715 0.0133447 -1.49954e-20)
(0.194775 0.0132809 2.89961e-20)
(0.240846 0.0128515 -1.15272e-20)
(0.28505 0.0122462 3.62032e-20)
(0.327026 0.0115804 3.34685e-20)
(0.366696 0.010915 -4.20305e-20)
(0.404121 0.010277 -1.56563e-20)
(0.439415 0.00967561 2.1481e-20)
(0.472706 0.0091122 -1.52163e-20)
(0.504116 0.00858528 -1.96894e-20)
(0.533766 0.00809264 1.70568e-21)
(0.561765 0.00763196 2.06046e-20)
(0.588217 0.00720111 4.07107e-20)
(0.61322 0.00679841 3.06909e-21)
(0.636861 0.00642142 4.61294e-21)
(0.659235 0.00606543 2.05638e-20)
(0.0584501 -0.0112081 4.76584e-21)
(0.10139 -0.0127781 8.91007e-21)
(0.147715 -0.0133552 -7.54886e-21)
(0.194775 -0.0132911 2.74269e-20)
(0.240846 -0.0128614 -1.52956e-20)
(0.28505 -0.0122559 3.9953e-20)
(0.327026 -0.01159 2.46625e-20)
(0.366696 -0.0109245 -3.33113e-20)
(0.404121 -0.0102864 -1.22974e-20)
(0.439415 -0.00968501 1.53656e-20)
(0.472706 -0.00912158 -1.28877e-20)
(0.504116 -0.00859466 -2.53185e-20)
(0.533766 -0.00810203 6.69999e-21)
(0.561765 -0.00764138 1.83172e-20)
(0.588217 -0.00721058 4.17837e-20)
(0.61322 -0.00680795 3.6167e-21)
(0.636861 -0.00643104 3.21424e-21)
(0.659235 -0.00607512 2.19033e-20)
(0.0592875 -0.0335921 3.24035e-20)
(0.102331 -0.0383003 2.49958e-20)
(0.148685 -0.0400323 -2.03166e-20)
(0.195731 -0.0398419 -1.21533e-19)
(0.241761 -0.0385549 7.39714e-20)
(0.285914 -0.0367403 -1.2313e-20)
(0.327835 -0.0347442 -5.81634e-20)
(0.367452 -0.032749 2.10516e-23)
(0.404827 -0.0308359 -3.25991e-20)
(0.440074 -0.0290327 4.27658e-20)
(0.47332 -0.0273434 -4.32924e-20)
(0.50469 -0.0257635 3.67312e-20)
(0.534301 -0.0242864 1.39348e-20)
(0.562265 -0.0229051 -6.76368e-20)
(0.588684 -0.0216134 2.04904e-20)
(0.613656 -0.020406 -3.3311e-21)
(0.63727 -0.0192757 3.64813e-20)
(0.659616 -0.0182084 3.78719e-21)
(0.06096 -0.0559087 -4.90062e-20)
(0.10421 -0.063752 -7.67108e-20)
(0.150625 -0.0666413 8.84496e-20)
(0.19764 -0.0663292 1.35916e-19)
(0.24359 -0.06419 -1.22046e-19)
(0.287641 -0.0611713 3.24134e-20)
(0.329453 -0.0578492 1.58627e-20)
(0.368963 -0.0545282 7.95311e-20)
(0.406237 -0.0513436 -2.15421e-20)
(0.441389 -0.0483416 -7.49023e-20)
(0.474547 -0.0455292 1.53848e-20)
(0.505835 -0.042899 -5.83485e-20)
(0.53537 -0.0404398 4.68327e-20)
(0.563263 -0.0381401 1.34796e-20)
(0.589616 -0.0359894 -1.05874e-19)
(0.614526 -0.0339792 6.36133e-21)
(0.638087 -0.032097 -1.56685e-19)
(0.660377 -0.0303201 3.56204e-20)
(0.0634631 -0.0781132 2.48058e-20)
(0.107022 -0.0890862 3.36553e-20)
(0.153528 -0.0931367 -6.2109e-20)
(0.200498 -0.0927108 1.16161e-20)
(0.246329 -0.0897282 2.0331e-19)
(0.290227 -0.0855134 2.08714e-20)
(0.331877 -0.0808726 4.25413e-20)
(0.371227 -0.0762321 5.96559e-21)
(0.408349 -0.0717816 7.18972e-20)
(0.44336 -0.067586 -8.01162e-20)
(0.476386 -0.0636552 1.14432e-19)
(0.507551 -0.0599789 3.41138e-21)
(0.536972 -0.0565416 -2.92768e-20)
(0.564759 -0.0533272 2.24558e-19)
(0.591012 -0.0503209 1.75821e-19)
(0.615831 -0.0475109 -9.18962e-20)
(0.639312 -0.0448794 1.21978e-19)
(0.661518 -0.0423956 -2.76701e-21)
(0.06679 -0.100161 -1.7447e-19)
(0.110762 -0.114256 7.68111e-21)
(0.15739 -0.119473 -3.14936e-20)
(0.2043 -0.118945 -5.07236e-21)
(0.249973 -0.115131 -1.03281e-19)
(0.293668 -0.109731 -1.20103e-19)
(0.335102 -0.103782 -5.02899e-20)
(0.374239 -0.0978308 -1.73944e-19)
(0.41116 -0.0921222 1.95657e-19)
(0.445982 -0.0867402 4.03788e-20)
(0.478832 -0.0816976 -8.22697e-20)
(0.509834 -0.0769813 1.40818e-19)
(0.539104 -0.0725714 -6.17033e-20)
(0.566749 -0.0684473 -1.40697e-19)
(0.592871 -0.0645902 -3.33167e-20)
(0.617567 -0.0609846 -4.49674e-20)
(0.640942 -0.0576075 7.22426e-20)
(0.663036 -0.0544207 -5.61952e-21)
(0.0709319 -0.122008 1.08973e-20)
(0.115419 -0.139216 -2.72479e-20)
(0.162201 -0.145607 -7.66638e-20)
(0.209039 -0.144989 -3.54967e-20)
(0.254515 -0.140359 -6.40446e-20)
(0.297957 -0.13379 4.51125e-20)
(0.339122 -0.126545 2.69142e-19)
(0.377995 -0.119294 2.3513e-19)
(0.414665 -0.112338 1.48574e-19)
(0.449251 -0.105779 -5.55777e-20)
(0.481883 -0.0996327 3.11026e-20)
(0.512682 -0.0938841 -2.30545e-19)
(0.541762 -0.0885088 8.05406e-20)
(0.569232 -0.0834816 -6.41676e-20)
(0.595188 -0.0787797 -9.1207e-20)
(0.619731 -0.0743841 4.90083e-20)
(0.642974 -0.0702658 -4.18898e-19)
(0.664929 -0.066381 1.52203e-19)
(0.120983 -0.16392 5.53719e-20)
(0.167951 -0.171492 -2.42766e-20)
(0.214704 -0.170802 -3.69588e-20)
(0.259946 -0.165376 -1.22132e-19)
(0.303086 -0.157654 -2.59223e-20)
(0.34393 -0.14913 -1.10293e-20)
(0.382488 -0.140594 -4.21313e-19)
(0.418857 -0.132402 -3.08976e-19)
(0.453163 -0.124676 1.81218e-19)
(0.485533 -0.117437 2.65304e-20)
(0.516088 -0.110666 6.87252e-20)
(0.544942 -0.104334 -6.61487e-20)
(0.572202 -0.0984113 3.3932e-19)
(0.597961 -0.0928721 6.7061e-20)
(0.622322 -0.0876932 1.00117e-19)
(0.645406 -0.0828392 2.36091e-19)
(0.667195 -0.0782625 -1.26597e-19)
(0.127441 -0.188322 7.18214e-20)
(0.174627 -0.197086 6.44813e-20)
(0.221284 -0.196344 -9.93226e-20)
(0.266257 -0.190143 1.71028e-19)
(0.309048 -0.18129 2.41868e-20)
(0.349519 -0.171504 -3.12272e-19)
(0.38771 -0.161699 1.97009e-19)
(0.42373 -0.152286 7.9015e-20)
(0.457709 -0.143408 -9.20356e-20)
(0.489775 -0.135088 2.46907e-20)
(0.520048 -0.127305 1.16647e-20)
(0.54864 -0.120026 -9.56352e-20)
(0.575655 -0.113218 2.44848e-19)
(0.601186 -0.10685 -8.61062e-20)
(0.625334 -0.100896 6.26677e-20)
(0.648233 -0.0953127 1.34664e-19)
(0.669831 -0.090051 -4.97266e-20)
(0.134775 -0.212378 -9.83098e-20)
(0.182215 -0.222344 -3.55021e-19)
(0.228766 -0.221573 2.39343e-19)
(0.273434 -0.214623 1.15316e-19)
(0.31583 -0.204664 1.98267e-19)
(0.355878 -0.193638 2.14247e-19)
(0.393651 -0.182583 1.36845e-19)
(0.429275 -0.171966 1.81071e-19)
(0.462884 -0.16195 -3.26653e-19)
(0.494604 -0.152562 3.63989e-20)
(0.524555 -0.14378 7.18854e-20)
(0.552848 -0.135566 3.71388e-19)
(0.579585 -0.127883 -2.03119e-19)
(0.604856 -0.120696 -5.1056e-20)
(0.628763 -0.113976 -1.19069e-19)
(0.651452 -0.107671 -7.80919e-20)
(0.672831 -0.101733 2.04187e-19)
(0.142969 -0.236043 2.42551e-21)
(0.190697 -0.247224 -4.01965e-20)
(0.237135 -0.24645 1.55673e-19)
(0.281465 -0.23878 -3.36341e-19)
(0.32342 -0.227741 -1.91627e-20)
(0.362996 -0.215499 -3.01351e-19)
(0.400303 -0.203215 1.71289e-19)
(0.435484 -0.191413 -2.75237e-19)
(0.468677 -0.180276 2.66207e-19)
(0.50001 -0.169837 2.37215e-19)
(0.529602 -0.16007 -1.95066e-19)
(0.557561 -0.150935 -6.77831e-19)
(0.583987 -0.142389 3.63863e-19)
(0.608966 -0.134395 -2.93688e-19)
(0.632603 -0.126918 -6.46977e-20)
(0.655058 -0.119901 2.40338e-19)
(0.676193 -0.113294 -1.9761e-19)
(0.152003 -0.259274 -1.49525e-19)
(0.200055 -0.271683 1.87936e-19)
(0.246373 -0.270935 -3.59388e-19)
(0.290335 -0.262577 6.62988e-20)
(0.331805 -0.250489 -7.40147e-21)
(0.37086 -0.237058 4.14604e-19)
(0.407654 -0.223569 -2.58434e-19)
(0.442345 -0.210602 -5.54731e-20)
(0.475079 -0.198364 7.25299e-20)
(0.505986 -0.186891 -9.14283e-20)
(0.53518 -0.176155 3.55475e-19)
(0.56277 -0.166113 1.96989e-19)
(0.588852 -0.156718 -3.98949e-19)
(0.613511 -0.147928 2.17232e-19)
(0.636849 -0.139707 3.00683e-19)
(0.659044 -0.131986 -5.50944e-19)
(0.679912 -0.124722 1.77626e-21)
(0.161854 -0.282029 1.47728e-19)
(0.210269 -0.295681 2.0489e-19)
(0.256461 -0.294989 1.17106e-19)
(0.300025 -0.28598 4.78896e-19)
(0.340969 -0.272875 -6.04537e-20)
(0.379458 -0.258285 1.96611e-19)
(0.41569 -0.243617 -6.86879e-19)
(0.449847 -0.229509 3.92951e-19)
(0.482081 -0.21619 -2.42147e-19)
(0.512521 -0.203701 7.14091e-20)
(0.541281 -0.192015 -3.85205e-19)
(0.568467 -0.181082 -3.07294e-20)
(0.594175 -0.170852 3.1381e-19)
(0.618482 -0.161281 5.312e-20)
(0.641494 -0.152328 -1.50769e-20)
(0.663405 -0.143914 2.56273e-20)
(0.683981 -0.136002 -3.54997e-19)
(0.172498 -0.304266 -2.07279e-19)
(0.221315 -0.319177 1.74291e-20)
(0.26738 -0.318575 1.85693e-19)
(0.310519 -0.308952 -4.17286e-19)
(0.350896 -0.294868 4.43662e-20)
(0.388772 -0.279151 -4.92639e-19)
(0.424398 -0.263332 5.45521e-19)
(0.457977 -0.248108 -1.43225e-19)
(0.489669 -0.233731 -1.63248e-19)
(0.519604 -0.220248 4.7235e-21)
(0.547894 -0.207629 1.99348e-21)
(0.574644 -0.195823 2.92603e-19)
(0.599946 -0.184775 -4.2355e-20)
(0.623873 -0.174438 -3.74686e-19)
(0.646531 -0.164766 -4.67128e-19)
(0.668133 -0.15567 5.45715e-19)
(0.688396 -0.147123 3.44963e-19)
(0.183909 -0.325945 2.40788e-19)
(0.233168 -0.342131 -3.72535e-19)
(0.279107 -0.341656 -3.53631e-19)
(0.321795 -0.331461 1.40974e-19)
(0.361567 -0.316436 -5.9285e-19)
(0.398789 -0.299628 5.9592e-19)
(0.433764 -0.282688 -2.60505e-19)
(0.466721 -0.266375 -2.63295e-19)
(0.497831 -0.250965 2.30045e-20)
(0.527223 -0.23651 -1.05512e-21)
(0.555009 -0.22298 -3.33404e-20)
(0.58129 -0.210319 2.25823e-19)
(0.606155 -0.19847 -2.15945e-19)
(0.629674 -0.187382 1.11345e-19)
(0.651952 -0.177006 2.42686e-19)
(0.673223 -0.167241 -3.05734e-19)
(0.693149 -0.15807 -6.28802e-20)
(0.196058 -0.347026 -3.39429e-20)
(0.245803 -0.364504 2.64039e-19)
(0.291617 -0.364196 2.37065e-19)
(0.333832 -0.353472 -3.74693e-19)
(0.372964 -0.33755 2.002e-19)
(0.409488 -0.319687 -1.54849e-19)
(0.44377 -0.301659 -1.15512e-20)
(0.476065 -0.284287 3.96404e-20)
(0.506553 -0.267869 -9.52959e-20)
(0.535367 -0.252467 1.88893e-19)
(0.562615 -0.238047 -1.02171e-19)
(0.588395 -0.224552 -3.07337e-19)
(0.612794 -0.211921 4.39461e-19)
(0.635877 -0.2001 2.7413e-19)
(0.65775 -0.189035 -3.52882e-19)
(0.678665 -0.178614 2.05089e-19)
(0.698234 -0.168833 3.02182e-19)
(0.25919 -0.38626 5.16157e-20)
(0.304884 -0.386159 1.9042e-19)
(0.346607 -0.374955 3.73984e-19)
(0.385065 -0.358179 2.82158e-19)
(0.420853 -0.339302 5.4747e-19)