/*--------------------------------*- C++ -*----------------------------------*\
  =========                 |
  \\      /  F ield         | OpenFOAM: The Open Source CFD Toolbox
   \\    /   O peration     | Website:  https://openfoam.org
    \\  /    A nd           | Version:  7
     \\/     M anipulation  |
\*---------------------------------------------------------------------------*/
FoamFile
{
    version     2.0;
    format      ascii;
    class       volScalarField;
    location    "60";
    object      p;
}
// * * * * * * * * * * * * * * * * * * * * * * * * * * * * * * * * * * * * * //

dimensions      [0 2 -2 0 0 0 0];

internalField   nonuniform List<scalar> 
14800
(
-0.169165
-0.170536
-0.171355
-0.171995
-0.172542
-0.173009
-0.173422
-0.173797
-0.174142
-0.174462
-0.174758
-0.175033
-0.175293
-0.17554
-0.175794
-0.169223
-0.17058
-0.171391
-0.172023
-0.172562
-0.173021
-0.173424
-0.173789
-0.174123
-0.174429
-0.174712
-0.174972
-0.175217
-0.175446
-0.175682
-0.169404
-0.170739
-0.171535
-0.172154
-0.172679
-0.173124
-0.173512
-0.17386
-0.174177
-0.174465
-0.174727
-0.174966
-0.175188
-0.175391
-0.175602
-0.169706
-0.17101
-0.171785
-0.172385
-0.172891
-0.173316
-0.173684
-0.17401
-0.174303
-0.174566
-0.1748
-0.17501
-0.175203
-0.175372
-0.175548
-0.170126
-0.171389
-0.172138
-0.172713
-0.173195
-0.173594
-0.173935
-0.174234
-0.174497
-0.174727
-0.174927
-0.1751
-0.175257
-0.175382
-0.175513
-0.170659
-0.171873
-0.172591
-0.173136
-0.173587
-0.173955
-0.174264
-0.174527
-0.174753
-0.174944
-0.175101
-0.175229
-0.175341
-0.175413
-0.175487
-0.171299
-0.172458
-0.173138
-0.173649
-0.174064
-0.174394
-0.174664
-0.174886
-0.175068
-0.175211
-0.175316
-0.175389
-0.175446
-0.175455
-0.175459
-0.172039
-0.173138
-0.173777
-0.174247
-0.17462
-0.174907
-0.17513
-0.175304
-0.175434
-0.175521
-0.175565
-0.175572
-0.175564
-0.175499
-0.175412
-0.172875
-0.173909
-0.174501
-0.174926
-0.175252
-0.175488
-0.175659
-0.175776
-0.175846
-0.175868
-0.17584
-0.17577
-0.175684
-0.175533
-0.175328
-0.173801
-0.174766
-0.175308
-0.175682
-0.175954
-0.176134
-0.176244
-0.176297
-0.176298
-0.176246
-0.176135
-0.175973
-0.175796
-0.175547
-0.175182
-0.174811
-0.175705
-0.176192
-0.176511
-0.176722
-0.176838
-0.176881
-0.176862
-0.176786
-0.176649
-0.176444
-0.176176
-0.17589
-0.175534
-0.174931
-0.1759
-0.176722
-0.177151
-0.177409
-0.177553
-0.177598
-0.177565
-0.177467
-0.177304
-0.177073
-0.176763
-0.176372
-0.17596
-0.17551
-0.174506
-0.177067
-0.177814
-0.178181
-0.178372
-0.178444
-0.17841
-0.178294
-0.178107
-0.177851
-0.177516
-0.17709
-0.176561
-0.176007
-0.175502
-0.173959
-0.178309
-0.17898
-0.179281
-0.1794
-0.179391
-0.179271
-0.179064
-0.178781
-0.178422
-0.177977
-0.177423
-0.176744
-0.17601
-0.175224
-0.173547
-0.179625
-0.180221
-0.180451
-0.180491
-0.180394
-0.180179
-0.179872
-0.179486
-0.179018
-0.178454
-0.177765
-0.176924
-0.176001
-0.174938
-0.172906
-0.181019
-0.181537
-0.181692
-0.181646
-0.181452
-0.181134
-0.180719
-0.180221
-0.179638
-0.17895
-0.17812
-0.177105
-0.175977
-0.174645
-0.172031
-0.182493
-0.182932
-0.183006
-0.182866
-0.182566
-0.182134
-0.181603
-0.180986
-0.180282
-0.179466
-0.178491
-0.177296
-0.175944
-0.174339
-0.170939
-0.184054
-0.184411
-0.184398
-0.184154
-0.183737
-0.183183
-0.182524
-0.181781
-0.180949
-0.180002
-0.178882
-0.177505
-0.175918
-0.174041
-0.169639
-0.185711
-0.185982
-0.185873
-0.185516
-0.184971
-0.184281
-0.183485
-0.182605
-0.181639
-0.180558
-0.179295
-0.177738
-0.175909
-0.173774
-0.16816
-0.187475
-0.187654
-0.18744
-0.186957
-0.186272
-0.185433
-0.184487
-0.183461
-0.182353
-0.181133
-0.179729
-0.177996
-0.17593
-0.173555
-0.166574
-0.18936
-0.189439
-0.18911
-0.188488
-0.187647
-0.186646
-0.185537
-0.184351
-0.183092
-0.181729
-0.180181
-0.178279
-0.17599
-0.173376
-0.165013
-0.191385
-0.191353
-0.190895
-0.190119
-0.189107
-0.187928
-0.18664
-0.185283
-0.183862
-0.182346
-0.180651
-0.178581
-0.176094
-0.17317
-0.163598
-0.193567
-0.193413
-0.192809
-0.191864
-0.190665
-0.18929
-0.187809
-0.186266
-0.18467
-0.182993
-0.181146
-0.178911
-0.176275
-0.172768
-0.162289
-0.195931
-0.195635
-0.194872
-0.193739
-0.192334
-0.190748
-0.189058
-0.187315
-0.185532
-0.183684
-0.181685
-0.17931
-0.176648
-0.172179
-0.161575
-0.198502
-0.198043
-0.197102
-0.195763
-0.194134
-0.19232
-0.190405
-0.188448
-0.186466
-0.184439
-0.182291
-0.179817
-0.177341
-0.17219
-0.16532
-0.201308
-0.20066
-0.199521
-0.197955
-0.196084
-0.194025
-0.191873
-0.189688
-0.187495
-0.185276
-0.182972
-0.180396
-0.178151
-0.173367
-0.179273
-0.204376
-0.203513
-0.202151
-0.200339
-0.198208
-0.195889
-0.193484
-0.19106
-0.188643
-0.186215
-0.18373
-0.181007
-0.178812
-0.174104
-0.180332
-0.207738
-0.206626
-0.205018
-0.202939
-0.20053
-0.197937
-0.195268
-0.192593
-0.189935
-0.187276
-0.184571
-0.181633
-0.179216
-0.174409
-0.178671
-0.211424
-0.210026
-0.208146
-0.20578
-0.203076
-0.200195
-0.197251
-0.194311
-0.191397
-0.188477
-0.185499
-0.182267
-0.179418
-0.174392
-0.176362
-0.215464
-0.213739
-0.211562
-0.208887
-0.205873
-0.202692
-0.199459
-0.196242
-0.193046
-0.189827
-0.18651
-0.182892
-0.179452
-0.174065
-0.173689
-0.219885
-0.217791
-0.21529
-0.212287
-0.208947
-0.205453
-0.20192
-0.198404
-0.194897
-0.191326
-0.187594
-0.183487
-0.179331
-0.173443
-0.170937
-0.224714
-0.222207
-0.219355
-0.216006
-0.212324
-0.208504
-0.204655
-0.200816
-0.196953
-0.192966
-0.18873
-0.184026
-0.179063
-0.172554
-0.168221
-0.229975
-0.227009
-0.223781
-0.220066
-0.21603
-0.21187
-0.207684
-0.203485
-0.199211
-0.19473
-0.18989
-0.184483
-0.178642
-0.171425
-0.165564
-0.235686
-0.232215
-0.228587
-0.224491
-0.220086
-0.215569
-0.211017
-0.206413
-0.201656
-0.196587
-0.191038
-0.184826
-0.178057
-0.170071
-0.16294
-0.241862
-0.237842
-0.233791
-0.2293
-0.224511
-0.219615
-0.21466
-0.209588
-0.204262
-0.198499
-0.192133
-0.185023
-0.177288
-0.1685
-0.1603
-0.248512
-0.243901
-0.239409
-0.234509
-0.229318
-0.224015
-0.218607
-0.21299
-0.206992
-0.200418
-0.193126
-0.185038
-0.176315
-0.166713
-0.157592
-0.255636
-0.250397
-0.245446
-0.240125
-0.234514
-0.228766
-0.222838
-0.216581
-0.209793
-0.202288
-0.193968
-0.184839
-0.175115
-0.164702
-0.154768
-0.263228
-0.257327
-0.251906
-0.246151
-0.240095
-0.233851
-0.227323
-0.220313
-0.212606
-0.204047
-0.194609
-0.18439
-0.173666
-0.162456
-0.151783
-0.271271
-0.264681
-0.25878
-0.252579
-0.246044
-0.23924
-0.232011
-0.224119
-0.215358
-0.205629
-0.194996
-0.18366
-0.171946
-0.159959
-0.1486
-0.279735
-0.272437
-0.266051
-0.259388
-0.252331
-0.244888
-0.236839
-0.227925
-0.217971
-0.206968
-0.195084
-0.182616
-0.169931
-0.157193
-0.145187
-0.288581
-0.280563
-0.273688
-0.266544
-0.25891
-0.250729
-0.241725
-0.23164
-0.220363
-0.207996
-0.194825
-0.181229
-0.1676
-0.154138
-0.141513
-0.297752
-0.289011
-0.281647
-0.273995
-0.265717
-0.256682
-0.246576
-0.235169
-0.22245
-0.208652
-0.194175
-0.179467
-0.164927
-0.150771
-0.137552
-0.307179
-0.297721
-0.289867
-0.281674
-0.272667
-0.262647
-0.251283
-0.238409
-0.224146
-0.208872
-0.193092
-0.177301
-0.161886
-0.147069
-0.133277
-0.316774
-0.306616
-0.298271
-0.289493
-0.279659
-0.26851
-0.255729
-0.241255
-0.225371
-0.208599
-0.191535
-0.174698
-0.158451
-0.143006
-0.128664
-0.326436
-0.315603
-0.306765
-0.297348
-0.286574
-0.274143
-0.259791
-0.243604
-0.226044
-0.207777
-0.189462
-0.171626
-0.154591
-0.138554
-0.123688
-0.336044
-0.324572
-0.315234
-0.305114
-0.293276
-0.279407
-0.263342
-0.245352
-0.226092
-0.206351
-0.186835
-0.168051
-0.150279
-0.133687
-0.118324
-0.345466
-0.333396
-0.32355
-0.312651
-0.299616
-0.284156
-0.266255
-0.246403
-0.225443
-0.204272
-0.183613
-0.16394
-0.145484
-0.128377
-0.112549
-0.354551
-0.341936
-0.331567
-0.319804
-0.305435
-0.288243
-0.268408
-0.246662
-0.224031
-0.201488
-0.179756
-0.159259
-0.140174
-0.122597
-0.10634
-0.363139
-0.350035
-0.339124
-0.326405
-0.310569
-0.291519
-0.269682
-0.246043
-0.221791
-0.197953
-0.175226
-0.153974
-0.134321
-0.116319
-0.0996769
-0.371059
-0.357527
-0.34605
-0.332279
-0.314848
-0.29384
-0.269966
-0.244465
-0.218667
-0.193622
-0.169984
-0.148051
-0.127894
-0.109518
-0.0925396
-0.378131
-0.364237
-0.352166
-0.337247
-0.318109
-0.295069
-0.269156
-0.241853
-0.214603
-0.188452
-0.163994
-0.141459
-0.120867
-0.102171
-0.0849108
-0.38417
-0.369982
-0.357287
-0.341128
-0.320188
-0.295078
-0.267158
-0.238142
-0.209549
-0.182402
-0.157222
-0.134168
-0.113213
-0.0942555
-0.0767737
-0.388992
-0.374578
-0.361227
-0.343744
-0.320935
-0.293749
-0.263889
-0.233271
-0.203462
-0.175436
-0.149637
-0.126151
-0.104909
-0.085752
-0.0681132
-0.392412
-0.377843
-0.363804
-0.344928
-0.320209
-0.290977
-0.259275
-0.227188
-0.196301
-0.167521
-0.141209
-0.117384
-0.095934
-0.0766452
-0.0589192
-0.394253
-0.379596
-0.364842
-0.34452
-0.317884
-0.286673
-0.253253
-0.219849
-0.188031
-0.158628
-0.131914
-0.107845
-0.0862709
-0.0669246
-0.049192
-0.394346
-0.379668
-0.364177
-0.342378
-0.313849
-0.280758
-0.245773
-0.211218
-0.178626
-0.148734
-0.121732
-0.0975139
-0.0759006
-0.0565789
-0.0389364
-0.392534
-0.377899
-0.361658
-0.338374
-0.30801
-0.273171
-0.236793
-0.201268
-0.168063
-0.13782
-0.110646
-0.0863758
-0.0648052
-0.0455868
-0.0281199
-0.388674
-0.374145
-0.357151
-0.332399
-0.300292
-0.263864
-0.226287
-0.189978
-0.156328
-0.125878
-0.0986488
-0.0744247
-0.0529811
-0.033924
-0.0166201
-0.382642
-0.36828
-0.350543
-0.324368
-0.290639
-0.252807
-0.214236
-0.177341
-0.143417
-0.112902
-0.0857388
-0.061666
-0.0404487
-0.0216038
-0.00430964
-0.374335
-0.360198
-0.341739
-0.314212
-0.279013
-0.239982
-0.200635
-0.163354
-0.129328
-0.098894
-0.0719193
-0.0481087
-0.0272262
-0.00867791
0.00861575
-0.363668
-0.349814
-0.330671
-0.301888
-0.265396
-0.225388
-0.18549
-0.148027
-0.114072
-0.0838611
-0.0571956
-0.033767
-0.0133001
0.00495835
0.0217376
-0.350584
-0.337065
-0.317292
-0.287374
-0.249786
-0.209037
-0.16882
-0.131378
-0.0976641
-0.0678186
-0.0415816
-0.0186686
0.00131159
0.0191779
0.0352967
-0.335045
-0.321917
-0.30158
-0.270671
-0.232203
-0.190956
-0.150652
-0.113433
-0.0801304
-0.0507981
-0.0251362
-0.00280012
0.0165867
0.0339449
0.0493526
-0.317041
-0.304355
-0.283537
-0.251799
-0.212681
-0.171186
-0.131027
-0.0942286
-0.0615067
-0.0328323
-0.00785707
0.0137874
0.0324908
0.0492462
0.0638958
-0.296585
-0.284392
-0.263189
-0.230798
-0.191272
-0.149782
-0.109994
-0.0738118
-0.0418345
-0.0139534
0.010217
0.0310607
0.0489908
0.0650625
0.0788943
-0.273716
-0.262064
-0.240581
-0.207731
-0.168049
-0.126811
-0.0876124
-0.0522355
-0.0211602
0.0057932
0.0290425
0.0489808
0.0660504
0.0813633
0.09431
-0.248494
-0.23743
-0.215785
-0.182684
-0.143098
-0.102335
-0.0639498
-0.029561
0.000459974
0.0263557
0.0485705
0.0675032
0.0836283
0.0981079
0.110098
-0.221002
-0.210571
-0.188904
-0.155784
-0.116482
-0.0764294
-0.039084
-0.0058591
0.0229622
0.0476762
0.0687472
0.0865779
0.101677
0.115246
0.126203
-0.191337
-0.181598
-0.160065
-0.12714
-0.0882268
-0.0492341
-0.0131086
0.0187908
0.0462762
0.0696914
0.0895143
0.106151
0.120146
0.13272
0.14255
-0.159614
-0.150644
-0.129377
-0.0966583
-0.0586839
-0.0208473
0.0138805
0.044303
0.0703258
0.0923327
0.110809
0.126164
0.138982
0.150475
0.159077
-0.125967
-0.117864
-0.0968823
-0.0647189
-0.0278497
0.00861679
0.0417789
0.0705861
0.09503
0.115527
0.132563
0.146554
0.158134
0.168469
0.175743
-0.0905292
-0.0834486
-0.0627351
-0.0314777
0.00413354
0.039035
0.0704764
0.097543
0.120303
0.139197
0.154704
0.16726
0.177556
0.186634
0.192384
-0.0534538
-0.0474691
-0.0273272
0.00294628
0.0371151
0.0702767
0.0998574
0.125072
0.146055
0.163263
0.177168
0.188239
0.197213
0.204783
0.208428
-0.0151251
-0.0100953
0.00926997
0.0383898
0.0709388
0.102205
0.129801
0.153065
0.172191
0.187644
0.199897
0.209482
0.21709
0.22266
0.223267
0.0243215
0.0284606
0.0468872
0.0746775
0.105444
0.134677
0.16018
0.181409
0.198609
0.212254
0.222834
0.230956
0.237117
0.240284
0.238107
0.0647505
0.0679431
0.0853256
0.111627
0.140464
0.167545
0.190864
0.209987
0.225204
0.236999
0.245893
0.25253
0.257063
0.257832
0.257498
0.105943
0.108134
0.124379
0.149052
0.175829
0.200658
0.221718
0.238677
0.251866
0.26178
0.268963
0.274026
0.276879
0.276216
0.276939
0.147666
0.148817
0.163836
0.186757
0.211368
0.233863
0.252603
0.267355
0.278483
0.286495
0.291941
0.295377
0.296628
0.294841
0.29533
0.189689
0.189771
0.203483
0.224551
0.246906
0.267004
0.283383
0.295898
0.304944
0.311037
0.314724
0.316516
0.316241
0.313373
0.31308
0.231778
0.230772
0.243108
0.262237
0.282269
0.299926
0.313917
0.324179
0.331133
0.3353
0.337218
0.337366
0.335595
0.331587
0.330246
0.273701
0.271596
0.282498
0.299621
0.317284
0.332474
0.344067
0.352074
0.356939
0.359182
0.359333
0.357844
0.354593
0.349395
0.346872
0.315225
0.312017
0.321441
0.336512
0.351778
0.364494
0.373695
0.379459
0.382249
0.382583
0.380978
0.377866
0.373148
0.366731
0.362957
0.35612
0.351813
0.359729
0.37272
0.385582
0.395837
0.402667
0.406214
0.406954
0.405403
0.402065
0.397352
0.391184
0.383543
0.378482
0.396162
0.390766
0.397157
0.408061
0.418531
0.426353
0.43085
0.432218
0.430947
0.427547
0.422508
0.416226
0.408635
0.39978
0.393418
0.435128
0.428662
0.433526
0.442353
0.450464
0.4559
0.458115
0.457358
0.454126
0.448923
0.442226
0.434413
0.425437
0.415392
0.40773
0.472804
0.465294
0.468644
0.475423
0.481225
0.484337
0.484338
0.48152
0.476389
0.46944
0.461138
0.451842
0.441527
0.430326
0.42138
0.508984
0.500461
0.502325
0.507103
0.510665
0.511531
0.509399
0.504598
0.497639
0.489013
0.479166
0.468446
0.456846
0.444531
0.434329
0.54347
0.533973
0.534392
0.537233
0.53864
0.537355
0.533182
0.526488
0.517786
0.507558
0.496239
0.48416
0.471337
0.457958
0.446537
0.576072
0.565648
0.564675
0.565662
0.565014
0.561686
0.55558
0.547094
0.536741
0.524998
0.512285
0.498921
0.484945
0.470558
0.457966
0.606614
0.595314
0.593018
0.592246
0.58966
0.584411
0.576489
0.566321
0.554422
0.541258
0.527238
0.51267
0.497616
0.482285
0.468579
0.63493
0.622813
0.619272
0.616853
0.612458
0.605422
0.595815
0.584086
0.570751
0.556269
0.541037
0.525354
0.509302
0.493094
0.478342
0.660865
0.647995
0.6433
0.639359
0.633299
0.624622
0.613467
0.600308
0.585657
0.569968
0.553625
0.53692
0.519956
0.502943
0.487223
0.68428
0.670727
0.664978
0.659653
0.652083
0.641919
0.629366
0.614914
0.599075
0.582295
0.564949
0.547322
0.529537
0.511797
0.495191
0.705049
0.690886
0.684195
0.677632
0.668718
0.657233
0.643439
0.627839
0.610945
0.593198
0.574962
0.556517
0.538004
0.519619
0.50222
0.723058
0.708366
0.70085
0.693209
0.683124
0.670492
0.65562
0.639024
0.621216
0.60263
0.583622
0.564467
0.545325
0.526379
0.508287
0.738212
0.723072
0.714858
0.706305
0.695234
0.681635
0.665855
0.648421
0.629843
0.61055
0.590892
0.571141
0.551469
0.532052
0.513372
0.750429
0.734926
0.726147
0.716856
0.704987
0.690608
0.674096
0.655985
0.636786
0.616924
0.596742
0.57651
0.556412
0.536614
0.517458
0.759643
0.743866
0.734659
0.72481
0.712338
0.697369
0.680305
0.661684
0.642017
0.621724
0.601148
0.580553
0.560133
0.540048
0.52053
0.765805
0.749845
0.740349
0.730126
0.717251
0.701887
0.684453
0.665491
0.64551
0.624931
0.604089
0.583252
0.562617
0.54234
0.52258
0.768882
0.752829
0.74319
0.73278
0.719702
0.704141
0.686522
0.66739
0.647252
0.626528
0.605555
0.584596
0.563854
0.543481
0.523599
0.768856
0.752804
0.743166
0.732757
0.71968
0.704121
0.686502
0.667371
0.647234
0.626511
0.605538
0.58458
0.563839
0.543467
0.523586
0.765729
0.74977
0.740277
0.730057
0.717185
0.701825
0.684393
0.665434
0.645456
0.624878
0.604039
0.583204
0.562572
0.542297
0.522539
0.759517
0.743742
0.734538
0.724694
0.712228
0.697264
0.680205
0.661589
0.641926
0.621637
0.601065
0.580473
0.560057
0.539976
0.520462
0.750252
0.734751
0.725978
0.716694
0.704833
0.690461
0.673956
0.655852
0.636659
0.616802
0.596626
0.576399
0.556306
0.536513
0.517362
0.737985
0.722847
0.71464
0.706097
0.695035
0.681446
0.665675
0.648249
0.629679
0.610393
0.590743
0.570998
0.551333
0.531921
0.513249
0.72278
0.70809
0.700583
0.692954
0.682882
0.670262
0.6554
0.638815
0.621016
0.602439
0.583439
0.564293
0.545158
0.52622
0.508137
0.704719
0.690561
0.68388
0.677331
0.668431
0.65696
0.643179
0.62759
0.610708
0.592972
0.574746
0.55631
0.537807
0.51943
0.502042
0.6839
0.670351
0.664614
0.659305
0.651751
0.641604
0.629066
0.614627
0.598801
0.582034
0.5647
0.547083
0.529309
0.511579
0.494985
0.660434
0.647569
0.642887
0.638964
0.632923
0.624264
0.613126
0.599982
0.585347
0.569672
0.553342
0.53665
0.519698
0.502696
0.486989
0.634447
0.622335
0.618809
0.616411
0.612037
0.605022
0.595433
0.583722
0.570404
0.555938
0.540721
0.525052
0.509013
0.492817
0.478081
0.60608
0.594786
0.592506
0.591757
0.589194
0.583968
0.576067
0.565919
0.554038
0.540891
0.526888
0.512336
0.497297
0.481979
0.468291
0.575486
0.565068
0.564114
0.565125
0.564502
0.5612
0.555117
0.546652
0.53632
0.524595
0.5119
0.498554
0.484595
0.470224
0.45765
0.542831
0.533342
0.53378
0.536649
0.538083
0.536825
0.532678
0.526008
0.517327
0.50712
0.495821
0.483761
0.470956
0.457594
0.446193
0.508293
0.499778
0.501664
0.50647
0.510062
0.510958
0.508853
0.504078
0.497143
0.488539
0.478714
0.468015
0.456435
0.444138
0.433957
0.472061
0.464558
0.467932
0.474741
0.480577
0.48372
0.48375
0.480961
0.475854
0.468931
0.460651
0.451378
0.441084
0.429902
0.42098
0.434331
0.427875
0.432763
0.441623
0.449769
0.455238
0.457486
0.456758
0.453554
0.448377
0.441705
0.433916
0.424963
0.414939
0.407302
0.395312
0.389926
0.396342
0.407281
0.417789
0.425647
0.430178
0.431579
0.430337
0.426965
0.421953
0.415697
0.40813
0.399298
0.392962
0.355217
0.35092
0.358862
0.371891
0.384793
0.395086
0.401953
0.405533
0.406305
0.404784
0.401475
0.39679
0.390648
0.383031
0.377998
0.314268
0.31107
0.320523
0.335633
0.350941
0.363699
0.372938
0.378738
0.381562
0.381928
0.380353
0.37727
0.37258
0.366189
0.362444
0.27269
0.270595
0.281527
0.298692
0.316399
0.331633
0.343267
0.351312
0.356213
0.35849
0.358673
0.357215
0.353994
0.348822
0.346331
0.230712
0.229717
0.242084
0.261256
0.281336
0.299039
0.313073
0.323376
0.330368
0.334571
0.336523
0.336704
0.334964
0.330985
0.329676
0.188568
0.18866
0.202405
0.223519
0.245924
0.26607
0.282495
0.295053
0.304139
0.31027
0.313993
0.31582
0.315578
0.312739
0.312479
0.146489
0.147651
0.162703
0.185674
0.210336
0.232883
0.251672
0.266469
0.277639
0.28569
0.291174
0.294647
0.295933
0.294176
0.294699
0.10471
0.106912
0.123192
0.147915
0.174748
0.199631
0.220741
0.237748
0.250981
0.260938
0.268161
0.273261
0.276151
0.275521
0.276277
0.0634608
0.0666644
0.0840838
0.110438
0.139332
0.16647
0.189842
0.209015
0.224279
0.236118
0.245054
0.251732
0.256303
0.257106
0.256803
0.0229749
0.0271251
0.0455897
0.0734347
0.104261
0.133554
0.159113
0.180395
0.197644
0.211335
0.221958
0.230123
0.236324
0.239529
0.237378
-0.0165287
-0.0114883
0.00791619
0.0370929
0.0697047
0.101033
0.128688
0.152007
0.171184
0.186687
0.198985
0.208614
0.216265
0.221876
0.222515
-0.0549139
-0.0489203
-0.0287378
0.00159469
0.0358291
0.0690558
0.0986982
0.12397
0.145007
0.162266
0.176219
0.187336
0.196355
0.20397
0.207653
-0.0920483
-0.0849562
-0.0642033
-0.0328845
0.00279523
0.0377645
0.0692704
0.0963973
0.119214
0.138161
0.153719
0.166322
0.176665
0.18579
0.191582
-0.127545
-0.11943
-0.098407
-0.0661813
-0.0292407
0.00729632
0.0405257
0.069396
0.0938991
0.114452
0.131541
0.145583
0.157211
0.167595
0.174914
-0.161251
-0.15227
-0.130961
-0.0981769
-0.0601275
-0.0222184
0.0125796
0.0430681
0.0691529
0.0912181
0.10975
0.125158
0.138027
0.149571
0.158221
-0.193033
-0.183282
-0.161706
-0.128718
-0.0897225
-0.0506566
-0.0144577
0.0175108
0.0450608
0.068537
0.0884179
0.10511
0.119158
0.131786
0.141666
-0.222756
-0.212313
-0.190603
-0.157416
-0.118034
-0.0779044
-0.0404816
-0.00718461
0.0217041
0.0464818
0.0676133
0.0855018
0.100657
0.114282
0.125291
-0.250307
-0.239231
-0.217543
-0.184373
-0.144707
-0.103862
-0.0653961
-0.0309323
-0.000841144
0.025121
0.0473989
0.0663919
0.0825752
0.0971128
0.109159
-0.275586
-0.263924
-0.242397
-0.209477
-0.169713
-0.128389
-0.0891079
-0.0536531
-0.0225046
0.00451783
0.0278329
0.0478342
0.0649644
0.0803375
0.0933421
-0.298513
-0.28631
-0.265063
-0.232602
-0.192991
-0.151413
-0.111539
-0.0752759
-0.0432226
-0.0152697
0.0089691
0.0298786
0.0478717
0.064006
0.0778981
-0.319026
-0.30633
-0.28547
-0.25366
-0.214455
-0.172869
-0.132622
-0.0957396
-0.0629387
-0.0341899
-0.00914373
0.0125698
0.0313385
0.0481587
0.0628713
-0.337087
-0.323949
-0.30357
-0.272589
-0.234033
-0.192692
-0.152297
-0.114991
-0.0816065
-0.0521973
-0.0264624
-0.00405287
0.0154009
0.0328262
0.0482997
-0.352681
-0.339153
-0.319338
-0.289349
-0.251672
-0.210827
-0.170515
-0.132983
-0.0991846
-0.069259
-0.0429486
-0.0199559
9.16054e-05
0.0180274
0.0342157
-0.36582
-0.351956
-0.332773
-0.303919
-0.267336
-0.227231
-0.187236
-0.14968
-0.115637
-0.0853426
-0.0585986
-0.0350934
-0.014555
0.00377543
0.0206291
-0.376539
-0.362394
-0.343895
-0.316298
-0.281009
-0.241878
-0.202432
-0.165055
-0.130938
-0.100418
-0.073361
-0.0494726
-0.0285149
-0.0098945
0.00748081
-0.384898
-0.370528
-0.352752
-0.326508
-0.292689
-0.254756
-0.216083
-0.17909
-0.145072
-0.114468
-0.0872206
-0.0630668
-0.0417705
-0.0228489
-0.00547426
-0.390979
-0.376442
-0.359412
-0.334593
-0.302395
-0.265866
-0.228185
-0.191776
-0.15803
-0.127487
-0.100171
-0.0758627
-0.0543371
-0.0352005
-0.0178179
-0.394886
-0.380243
-0.363968
-0.340618
-0.310165
-0.275225
-0.238742
-0.203113
-0.16981
-0.139473
-0.112209
-0.0878518
-0.0661967
-0.046896
-0.0293487
-0.396744
-0.382057
-0.366534
-0.344672
-0.316056
-0.282863
-0.247772
-0.213113
-0.180419
-0.15043
-0.123336
-0.0990285
-0.0773282
-0.0579212
-0.0401951
-0.396693
-0.382028
-0.367243
-0.346862
-0.320141
-0.288829
-0.255302
-0.221792
-0.189871
-0.160368
-0.13356
-0.109398
-0.087735
-0.0683006
-0.0504809
-0.394892
-0.380314
-0.366246
-0.347314
-0.322514
-0.293183
-0.261373
-0.229179
-0.198187
-0.169305
-0.142896
-0.118977
-0.0974352
-0.0780556
-0.0602393
-0.391508
-0.377086
-0.363708
-0.346173
-0.323286
-0.296002
-0.266036
-0.23531
-0.205395
-0.177265
-0.151367
-0.127785
-0.106448
-0.0871977
-0.0694655
-0.38672
-0.372523
-0.359804
-0.343596
-0.322582
-0.297378
-0.269353
-0.240229
-0.211529
-0.184276
-0.158995
-0.135843
-0.114791
-0.0957373
-0.0781591
-0.380711
-0.366808
-0.354715
-0.339751
-0.320543
-0.297414
-0.271398
-0.243988
-0.216629
-0.190372
-0.165811
-0.143176
-0.122485
-0.10369
-0.0863305
-0.373667
-0.360125
-0.348628
-0.334816
-0.317321
-0.296227
-0.272253
-0.246646
-0.22074
-0.195589
-0.171846
-0.149811
-0.129553
-0.111076
-0.093995
-0.365771
-0.352656
-0.341727
-0.328971
-0.313076
-0.293946
-0.272014
-0.24827
-0.223911
-0.199967
-0.177134
-0.155778
-0.136021
-0.117916
-0.101169
-0.357204
-0.344577
-0.334192
-0.322396
-0.307974
-0.290707
-0.270782
-0.248935
-0.226198
-0.203548
-0.181711
-0.161109
-0.141919
-0.124236
-0.107872
-0.348136
-0.336055
-0.326194
-0.315266
-0.302183
-0.286655
-0.268668
-0.248719
-0.227657
-0.20638
-0.185615
-0.165837
-0.147274
-0.13006
-0.114122
-0.338729
-0.327245
-0.317894
-0.307748
-0.295867
-0.281937
-0.265792
-0.247711
-0.228352
-0.208508
-0.188886
-0.169996
-0.152117
-0.135416
-0.119941
-0.329133
-0.318287
-0.309436
-0.299997
-0.289186
-0.2767
-0.262276
-0.246003
-0.228349
-0.209981
-0.191564
-0.173622
-0.15648
-0.140332
-0.125351
-0.319481
-0.30931
-0.300953
-0.292155
-0.282289
-0.271092
-0.258246
-0.243693
-0.22772
-0.210853
-0.193688
-0.176747
-0.160392
-0.144835
-0.130378
-0.309892
-0.300421
-0.292556
-0.284345
-0.27531
-0.265249
-0.253828
-0.240883
-0.226539
-0.211175
-0.195298
-0.179405
-0.163883
-0.148954
-0.135045
-0.30047
-0.291715
-0.284341
-0.276673
-0.268371
-0.259301
-0.249147
-0.237677
-0.224885
-0.211003
-0.196435
-0.181629
-0.166983
-0.152715
-0.139378
-0.291301
-0.283269
-0.276385
-0.269226
-0.261573
-0.253362
-0.244318
-0.23418
-0.222839
-0.210397
-0.19714
-0.183451
-0.169719
-0.156145
-0.143402
-0.282457
-0.275145
-0.268749
-0.262073
-0.254999
-0.247531
-0.23945
-0.230493
-0.220486
-0.209416
-0.197456
-0.184901
-0.172118
-0.159269
-0.147145
-0.273992
-0.267389
-0.261477
-0.255265
-0.248715
-0.241892
-0.234638
-0.226713
-0.217909
-0.208126
-0.197427
-0.18601
-0.174203
-0.162109
-0.150633
-0.265949
-0.260034
-0.254602
-0.248836
-0.242767
-0.236508
-0.229962
-0.222929
-0.215191
-0.206591
-0.197097
-0.186809
-0.176
-0.164686
-0.153897
-0.258356
-0.253102
-0.24814
-0.242808
-0.237186
-0.231427
-0.225488
-0.219217
-0.212411
-0.204878
-0.196516
-0.187329
-0.177529
-0.167019
-0.156971
-0.25123
-0.246605
-0.2421
-0.237189
-0.231989
-0.226678
-0.221265
-0.215644
-0.209639
-0.203052
-0.195734
-0.187602
-0.178814
-0.169123
-0.159893
-0.24458
-0.240544
-0.23648
-0.231978
-0.227179
-0.22228
-0.217325
-0.212258
-0.206938
-0.201176
-0.1948
-0.187662
-0.179877
-0.17101
-0.162706
-0.238404
-0.234916
-0.231273
-0.227166
-0.222752
-0.218234
-0.213689
-0.209098
-0.204359
-0.199306
-0.193765
-0.187543
-0.180739
-0.172687
-0.165459
-0.232695
-0.229709
-0.226466
-0.222739
-0.218695
-0.214537
-0.210362
-0.206185
-0.20194
-0.197491
-0.192677
-0.187279
-0.181422
-0.174154
-0.168206
-0.227436
-0.224907
-0.222039
-0.218677
-0.21499
-0.211174
-0.207342
-0.203532
-0.199709
-0.195769
-0.191576
-0.186902
-0.181942
-0.175403
-0.170991
-0.22261
-0.220492
-0.217973
-0.214958
-0.211613
-0.208126
-0.204615
-0.201137
-0.19768
-0.19417
-0.190499
-0.186442
-0.182312
-0.176415
-0.173843
-0.218193
-0.21644
-0.214244
-0.211558
-0.208541
-0.20537
-0.202165
-0.198992
-0.195859
-0.192713
-0.189474
-0.185927
-0.182535
-0.177165
-0.176736
-0.214156
-0.212725
-0.210827
-0.20845
-0.205746
-0.20288
-0.199968
-0.197082
-0.194239
-0.191405
-0.188521
-0.18538
-0.182604
-0.177622
-0.179557
-0.210471
-0.209323
-0.207696
-0.205607
-0.203201
-0.200628
-0.197998
-0.195384
-0.192808
-0.190247
-0.187651
-0.184822
-0.182501
-0.177766
-0.182017
-0.207107
-0.206204
-0.204823
-0.203004
-0.200879
-0.198586
-0.196227
-0.193872
-0.191545
-0.189227
-0.186865
-0.184268
-0.182193
-0.177584
-0.183828
-0.204031
-0.203341
-0.202183
-0.200612
-0.198753
-0.196725
-0.194625
-0.192518
-0.190425
-0.188327
-0.186159
-0.183725
-0.181621
-0.176962
-0.182921
-0.201212
-0.200707
-0.199749
-0.198408
-0.196795
-0.195018
-0.193164
-0.191292
-0.189421
-0.187524
-0.185524
-0.183206
-0.180891
-0.175896
-0.169161
-0.198618
-0.198276
-0.197498
-0.196366
-0.194982
-0.193439
-0.191818
-0.190168
-0.188504
-0.186797
-0.184956
-0.182749
-0.18026
-0.175968
-0.165498
-0.196223
-0.196022
-0.195405
-0.194465
-0.193292
-0.191967
-0.190561
-0.189119
-0.187651
-0.186122
-0.184442
-0.182386
-0.179932
-0.176615
-0.166262
-0.193997
-0.193922
-0.193452
-0.192686
-0.191705
-0.19058
-0.189374
-0.188126
-0.186839
-0.185479
-0.183959
-0.182076
-0.179779
-0.177055
-0.167603
-0.19192
-0.191957
-0.191619
-0.19101
-0.190205
-0.189263
-0.188241
-0.18717
-0.186051
-0.184851
-0.183484
-0.181775
-0.179682
-0.177275
-0.169028
-0.189969
-0.19011
-0.189891
-0.189425
-0.188778
-0.188004
-0.18715
-0.186242
-0.185279
-0.184226
-0.183007
-0.181472
-0.179607
-0.17744
-0.170577
-0.188127
-0.188366
-0.188256
-0.187918
-0.187416
-0.186793
-0.186092
-0.185334
-0.184515
-0.183603
-0.182528
-0.18117
-0.179547
-0.177621
-0.172129
-0.186381
-0.186712
-0.186701
-0.186481
-0.186109
-0.185624
-0.185062
-0.184442
-0.183757
-0.18298
-0.182049
-0.180872
-0.179491
-0.177824
-0.173553
-0.184721
-0.185141
-0.185221
-0.185106
-0.184853
-0.184493
-0.184058
-0.183564
-0.183006
-0.182359
-0.181571
-0.180575
-0.17943
-0.178033
-0.174774
-0.183137
-0.183644
-0.183808
-0.18379
-0.183644
-0.183397
-0.183079
-0.182702
-0.182263
-0.18174
-0.181093
-0.180274
-0.179351
-0.178227
-0.175762
-0.181626
-0.182217
-0.18246
-0.18253
-0.182481
-0.182337
-0.182124
-0.181855
-0.181528
-0.181124
-0.180613
-0.179963
-0.179243
-0.178388
-0.176506
-0.180184
-0.180859
-0.181175
-0.181325
-0.181364
-0.181313
-0.181196
-0.181027
-0.180803
-0.180512
-0.180129
-0.179635
-0.179098
-0.17851
-0.176998
-0.178812
-0.179567
-0.179953
-0.180176
-0.180294
-0.180327
-0.180298
-0.180219
-0.18009
-0.179903
-0.179639
-0.179289
-0.178923
-0.178556
-0.177278
-0.17751
-0.178345
-0.178794
-0.179084
-0.179275
-0.179383
-0.179432
-0.179435
-0.179393
-0.1793
-0.179144
-0.178921
-0.17869
-0.178405
-0.177639
-0.176281
-0.177194
-0.177702
-0.178053
-0.178308
-0.178484
-0.178603
-0.178678
-0.178714
-0.178705
-0.178644
-0.178534
-0.178416
-0.178231
-0.177829
-0.17513
-0.176117
-0.176681
-0.177086
-0.177399
-0.177634
-0.177815
-0.177955
-0.178059
-0.178124
-0.178146
-0.178129
-0.178108
-0.178021
-0.177836
-0.174062
-0.17512
-0.175735
-0.176188
-0.176552
-0.176839
-0.177074
-0.17727
-0.177432
-0.177561
-0.177654
-0.177715
-0.177772
-0.177771
-0.177729
-0.173083
-0.174208
-0.174867
-0.175364
-0.175772
-0.176105
-0.176385
-0.176629
-0.176842
-0.177024
-0.177175
-0.1773
-0.17742
-0.177491
-0.17755
-0.1722
-0.173385
-0.174085
-0.17462
-0.175066
-0.175436
-0.175756
-0.176039
-0.176293
-0.17652
-0.176718
-0.176895
-0.177063
-0.177194
-0.177325
-0.171419
-0.172657
-0.173392
-0.173959
-0.174437
-0.174839
-0.17519
-0.175506
-0.175794
-0.176055
-0.176292
-0.176508
-0.176715
-0.176892
-0.177074
-0.170746
-0.17203
-0.172795
-0.173387
-0.173891
-0.174319
-0.174695
-0.175036
-0.17535
-0.175639
-0.175904
-0.176149
-0.176385
-0.176596
-0.176816
-0.170187
-0.171507
-0.172296
-0.172909
-0.173433
-0.173881
-0.174276
-0.174635
-0.174968
-0.175276
-0.175561
-0.175828
-0.176083
-0.176319
-0.176564
-0.169746
-0.171094
-0.1719
-0.172529
-0.173067
-0.173527
-0.173935
-0.174308
-0.174652
-0.174973
-0.175271
-0.175551
-0.175817
-0.176069
-0.176329
-0.169428
-0.170793
-0.17161
-0.172248
-0.172795
-0.173263
-0.173678
-0.174057
-0.174408
-0.174734
-0.175039
-0.175324
-0.175594
-0.175853
-0.176119
-0.169233
-0.170607
-0.171428
-0.17207
-0.17262
-0.17309
-0.173507
-0.173887
-0.174237
-0.174563
-0.174867
-0.17515
-0.175419
-0.175675
-0.17594
-0.176138
-0.176384
-0.176653
-0.176891
-0.177108
-0.177298
-0.177454
-0.177568
-0.177631
-0.177633
-0.177563
-0.177405
-0.177145
-0.176765
-0.176242
-0.175549
-0.174649
-0.173495
-0.172027
-0.170199
-0.167921
-0.165126
-0.161719
-0.15765
-0.152855
-0.147386
-0.141208
-0.134516
-0.12719