/*--------------------------------*- C++ -*----------------------------------*\
  =========                 |
  \\      /  F ield         | OpenFOAM: The Open Source CFD Toolbox
   \\    /   O peration     | Website:  https://openfoam.org
    \\  /    A nd           | Version:  7
     \\/     M anipulation  |
\*---------------------------------------------------------------------------*/
FoamFile
{
    version     2.0;
    format      ascii;
    class       surfaceScalarField;
    location    "75";
    object      phi;
}
// * * * * * * * * * * * * * * * * * * * * * * * * * * * * * * * * * * * * * //

dimensions      [0 3 -1 0 0 0 0];

internalField   nonuniform List<scalar> 
67470
(
-1.11209e-06
2.35045e-05
-2.23924e-05
-4.17618e-06
5.98376e-05
-5.67735e-05
-9.02398e-06
8.79264e-05
-8.30786e-05
-1.54913e-05
0.000108429
-0.000101962
-2.34207e-05
0.000122159
-0.00011423
-3.26653e-05
0.000130037
-0.000120793
-4.30919e-05
0.000133032
-0.000122606
-5.45834e-05
0.000132094
-0.000120603
-6.70417e-05
0.000128093
-0.000115635
-8.03892e-05
0.000121764
-0.000108417
-9.45711e-05
0.000113663
-9.9481e-05
-0.000109558
0.000104147
-8.916e-05
-0.000125351
9.33693e-05
-7.7577e-05
-0.000141981
8.12873e-05
-6.46572e-05
-0.000159519
6.76855e-05
-5.01471e-05
-0.000178078
5.21946e-05
-3.36356e-05
-0.000197814
3.43061e-05
-1.45698e-05
-0.000218928
1.33787e-05
7.73507e-06
-0.000241651
-1.13637e-05
3.40861e-05
-4.09475e-05
6.55512e-05
-0.000266254
-1.08218e-06
2.45867e-05
-4.07808e-06
6.28335e-05
-8.836e-06
9.26843e-05
-1.52051e-05
0.000114799
-2.30382e-05
0.000129992
-3.21956e-05
0.000139195
-4.25483e-05
0.000143385
-5.39815e-05
0.000143527
-6.63972e-05
0.000140509
-7.9717e-05
0.000135084
-9.38851e-05
0.000127831
-0.000108871
0.000119133
-0.000124674
0.000109173
-0.00014133
9.79424e-05
-0.00015891
8.52664e-05
-0.000177536
7.08203e-05
-0.000197374
5.41444e-05
-0.000218641
3.46456e-05
-0.00024159
1.15848e-05
-1.60124e-05
-0.000266525
-1.04636e-06
2.56331e-05
-3.95864e-06
6.57458e-05
-8.60291e-06
9.73286e-05
-1.48426e-05
0.000121038
-2.25412e-05
0.000137691
-3.15661e-05
0.00014822
-4.17923e-05
0.000153611
-5.31064e-05
0.000154841
-6.54094e-05
0.000152812
-7.86207e-05
0.000148295
-9.26808e-05
0.000141891
-0.000107556
0.000134008
-0.000123242
0.000124859
-0.000139772
0.000114472
-0.000157218
0.000102713
-0.000175703
8.93049e-05
-0.0001954
7.38413e-05
-0.000216537
5.57828e-05
-0.000239385
3.44329e-05
8.87877e-06
-0.000264276
-1.00462e-06
2.66377e-05
-3.81757e-06
6.85587e-05
-8.32389e-06
0.000101835
-1.44021e-05
0.000127116
-2.19268e-05
0.000145216
-3.07724e-05
0.000157065
-4.08179e-05
0.000163657
-5.19502e-05
0.000165974
-6.40685e-05
0.00016493
-7.7088e-05
0.000161315
-9.0944e-05
0.000155747
-0.000105596
0.000148661
-0.000121034
0.000140297
-0.000137284
0.000130722
-0.000154414
0.000119843
-0.000172544
0.000107435
-0.000191849
9.31464e-05
-0.000212564
7.64977e-05
-0.000234973
5.68413e-05
3.33357e-05
-0.000259429
-9.56936e-07
2.75946e-05
-3.65478e-06
7.12566e-05
-7.99863e-06
0.000106179
-1.38828e-05
0.000133001
-2.11934e-05
0.000152526
-2.98122e-05
0.000165684
-3.96215e-05
0.000173466
-5.05082e-05
0.00017686
-6.23682e-05
0.00017679
-7.51114e-05
0.000174058
-8.86654e-05
0.000169301
-0.000102981
0.000162976
-0.000118038
0.000155354
-0.000133852
0.000146535
-0.000150482
0.000136473
-0.00016804
0.000124993
-0.000186698
0.000111804
-0.000206691
9.64906e-05
-0.000228311
7.8462e-05
5.69562e-05
-0.000251932
-9.03436e-07
2.8498e-05
-3.47059e-06
7.38237e-05
-7.62753e-06
0.000110336
-1.32851e-05
0.000138658
-2.03411e-05
0.000159582
-2.8685e-05
0.000174028
-3.82021e-05
0.000182983
-4.87784e-05
0.000187437
-6.0306e-05
0.000188318
-7.26876e-05
0.000186439
-8.58412e-05
0.000182455
-9.9706e-05
0.000176841
-0.000114248
0.000169897
-0.00012947
0.000161757
-0.000145415
0.000152419
-0.000162183
0.00014176
-0.000179934
0.000129555
-0.000198901
0.000115458
-0.00021938
9.89409e-05
7.93299e-05
-0.000241754
-8.4431e-07
2.93424e-05
-3.26556e-06
7.6245e-05
-7.21157e-06
0.000114282
-1.26102e-05
0.000144057
-1.93715e-05
0.000166344
-2.73924e-05
0.000182049
-3.65609e-05
0.000192152
-4.67622e-05
0.000197638
-5.7883e-05
0.000199439
-6.98176e-05
0.000198374
-8.24726e-05
0.00019511
-9.57728e-05
0.000190141
-0.000109668
0.000183792
-0.000124141
0.00017623
-0.000139218
0.000167495
-0.000154976
0.000157519
-0.000171563
0.000146142
-0.0001892
0.000133095
-0.000208182
0.000117923
0.000100043
-0.000228895
-7.79855e-07
3.01222e-05
-3.04062e-06
7.85058e-05
-6.7524e-06
0.000117993
-1.18605e-05
0.000149165
-1.82875e-05
0.000172771
-2.59377e-05
0.000189699
-3.4702e-05
0.000200916
-4.44637e-05
0.000207399
-5.51038e-05
0.000210079
-6.65068e-05
0.000209777
-7.85659e-05
0.000207169
-9.11893e-05
0.000202765
-0.000104307
0.000196909
-0.000117878
0.000189802
-0.000131904
0.000181521
-0.000146439
0.000172054
-0.000161605
0.000161308
-0.000177609
0.000149099
-0.000194742
0.000135056
0.000118697
-0.000213396
-7.1046e-07
3.08327e-05
-2.79698e-06
8.05923e-05
-6.25231e-06
0.000121449
-1.10394e-05
0.000153952
-1.70936e-05
0.000178825
-2.43265e-05
0.000196932
-3.26316e-05
0.000209221
-4.18902e-05
0.000216658
-5.19767e-05
0.000220165
-6.27645e-05
0.000220565
-7.41322e-05
0.000218536
-8.59687e-05
0.000214601
-9.81806e-05
0.000209121
-0.000110701
0.000202322
-0.0001235
0.00019432
-0.0001366
0.000185154
-0.000150095
0.000174803
-0.000164168
0.000163172
-0.0001791
0.000149988
0.000134895
-0.000195298
-6.36604e-07
3.14693e-05
-2.53618e-06
8.24918e-05
-5.7142e-06
0.000124627
-1.01514e-05
0.000158389
-1.57955e-05
0.000184469
-2.25658e-05
0.000203702
-3.03583e-05
0.000217014
-3.90516e-05
0.000225351
-4.8513e-05
0.000229627
-5.86042e-05
0.000230656
-6.91871e-05
0.000229119
-8.01296e-05
0.000225544
-9.13121e-05
0.000220304
-0.000102637
0.000213646
-0.000114038
0.000205721
-0.0001255
0.000196616
-0.000137079
0.000186382
-0.00014893
0.000175023
-0.000161319
0.000162376
0.000148222
-0.000174646
-5.58847e-07
3.20281e-05
-2.26003e-06
8.4193e-05
-5.14153e-06
0.000127508
-9.20159e-06
0.000162449
-1.44005e-05
0.000189668
-2.06649e-05
0.000209967
-2.7893e-05
0.000224242
-3.59606e-05
0.000233419
-4.47274e-05
0.000238394
-5.40426e-05
0.000239971
-6.37503e-05
0.000238827
-7.36954e-05
0.000235489
-8.37295e-05
0.000230338
-9.37196e-05
0.000223636
-0.00010356
0.000215561
-0.00011319
0.000206247
-0.000122621
0.000195813
-0.000131969
0.000184371
-0.000141481
0.000171889
0.000158299
-0.000151558
-4.77823e-07
3.25059e-05
-1.97062e-06
8.56858e-05
-4.53832e-06
0.000130076
-8.19631e-06
0.000166107
-1.29171e-05
0.000194389
-1.86343e-05
0.000215684
-2.52484e-05
0.000230856
-3.26323e-05
0.000240803
-4.06374e-05
0.000246399
-4.90998e-05
0.000248433
-5.78451e-05
0.000247572
-6.66935e-05
0.000244337
-7.54655e-05
0.00023911
-8.39897e-05
0.00023216
-9.21149e-05
0.000223686
-9.97292e-05
0.000213861
-0.00010679
0.000202874
-0.000113368
0.000190949
-0.000119687
0.000178208
0.000164758
-0.000126146
-3.94233e-07
3.29002e-05
-1.67026e-06
8.69618e-05
-3.9091e-06
0.000132315
-7.14256e-06
0.000169341
-1.13548e-05
0.000198601
-1.64865e-05
0.000220816
-2.24396e-05
0.000236809
-2.90841e-05
0.000247447
-3.62631e-05
0.000253578
-4.37989e-05
0.000255969
-5.1498e-05
0.000255271
-5.91547e-05
0.000251994
-6.65566e-05
0.000246512
-7.34911e-05
0.000239095
-7.97567e-05
0.000229952
-8.51838e-05
0.000219288
-8.96677e-05
0.000207358
-9.32239e-05
0.000194505
-9.60477e-05
0.000181032
0.000167241
-9.85312e-05
-3.08831e-07
3.3209e-05
-1.36149e-06
8.80145e-05
-3.25882e-06
0.000134212
-6.0481e-06
0.00017213
-9.72451e-06
0.000202277
-1.42349e-05
0.000225326
-1.94831e-05
0.000242057
-2.53355e-05
0.0002533
-3.16267e-05
0.000259869
-3.81654e-05
0.000262508
-4.47379e-05
0.000261844
-5.11124e-05
0.000258368
-5.7042e-05
0.000252442
-6.22704e-05
0.000244323
-6.65422e-05
0.000234224
-6.96237e-05
0.000222369
-7.13398e-05
0.000209074
-7.16399e-05
0.000194805
-7.0683e-05
0.000180075
0.000165409
-6.88505e-05
-2.22423e-07
3.34314e-05
-1.047e-06
8.88391e-05
-2.59284e-06
0.000135758
-4.92136e-06
0.000174459
-8.03781e-06
0.000205394
-1.18948e-05
0.000229183
-1.63972e-05
0.000246559
-2.14077e-05
0.00025831
-2.67527e-05
0.000265214
-3.22266e-05
0.000267982
-3.75959e-05
0.000267213
-4.26019e-05
0.000263374
-4.69624e-05
0.000256802
-5.03758e-05
0.000247737
-5.25296e-05
0.000236377
-5.31203e-05
0.00022296
-5.1894e-05
0.000207847
-4.87232e-05
0.000191634
-4.37249e-05
0.000175077
0.000158942
-3.72579e-05
-1.35855e-07
3.35673e-05
-7.29659e-07
8.94329e-05
-1.91681e-06
0.000136945
-3.7713e-06
0.000176313
-6.30721e-06
0.00020793
-9.48202e-06
0.000232358
-1.32012e-05
0.000250279
-1.73238e-05
0.000262433
-2.16671e-05
0.000269557
-2.60118e-05
0.000272327
-3.01044e-05
0.000271306
-3.36591e-05
0.000266929
-3.63585e-05
0.000259501
-3.78547e-05
0.000249233
-3.77755e-05
0.000236298
-3.57432e-05
0.000220928
-3.14163e-05
0.00020352
-2.45746e-05
0.000184793
-1.52898e-05
0.000165792
0.000147749
-4.09657e-06
-5.00174e-08
3.36173e-05
-4.12435e-07
8.97953e-05
-1.23668e-06
0.000137769
-2.60734e-06
0.000177684
-4.5459e-06
0.000209868
-7.01363e-06
0.000234826
-9.916e-06
0.000253181
-1.31077e-05
0.000265624
-1.63972e-05
0.000272847
-1.95512e-05
0.000275481
-2.22964e-05
0.000274051
-2.43205e-05
0.000268953
-2.52707e-05
0.000260452
-2.47525e-05
0.000248715
-2.23331e-05
0.000233879
-1.75568e-05
0.000216152
-9.98757e-06
0.000195951
6.99138e-07
0.000174106
1.45922e-05
0.000151899
0.000131362
3.09792e-05
3.43404e-08
3.3583e-05
-9.83538e-08
8.9928e-05
-5.58522e-07
0.00013823
-1.4392e-06
0.000178564
-2.76752e-06
0.000211196
-4.50726e-06
0.000236565
-6.56296e-06
0.000255237
-8.78443e-06
0.000267846
-1.09712e-05
0.000275034
-1.28757e-05
0.000277385
-1.42054e-05
0.000275381
-1.46216e-05
0.000269369
-1.37368e-05
0.000259567
-1.11107e-05
0.000246089
-6.24956e-06
0.000229018
1.38297e-06
0.000208519
1.23249e-05
0.000185009
2.70136e-05
0.000159417
4.55448e-05
0.000133368
0.000109435
6.74717e-05
1.16117e-07
3.34668e-05
2.09494e-07
8.98346e-05
1.11524e-07
0.000138328
-2.76802e-07
0.000178953
-9.8605e-07
0.000211906
-1.98101e-06
0.00023756
-3.16417e-06
0.00025642
-4.3798e-06
0.000269061
-5.41785e-06
0.000276072
-6.01676e-06
0.000277984
-5.86447e-06
0.000275228
-4.59665e-06
0.000268101
-1.79202e-06
0.000256762
3.03438e-06
0.000241262
1.04364e-05
0.000221616
2.10313e-05
0.000197924
3.54653e-05
0.000170575
5.4303e-05
0.00014058
7.77555e-05
0.000109915
8.18212e-05
0.000105369
1.94536e-07
3.32723e-05
5.08052e-07
8.95211e-05
7.67118e-07
0.000138069
8.69903e-07
0.00017885
7.84464e-07
0.000211991
5.46885e-07
0.000237798
2.58081e-07
0.000256709
8.03137e-08
0.000269239
2.33857e-07
0.000275918
9.94691e-07
0.000277223
2.69425e-06
0.000273529
5.72213e-06
0.000265074
1.05324e-05
0.000251952
1.76531e-05
0.000234141
2.76963e-05
0.000211573
4.13596e-05
0.000184261
5.94003e-05
0.000152534
8.25271e-05
0.000117453
0.000111085
8.13572e-05
4.8252e-05
0.000144655
2.68745e-07
3.30036e-05
7.94354e-07
8.89955e-05
1.40237e-06
0.00013746
1.99113e-06
0.000178261
2.53009e-06
0.000211452
3.05826e-06
0.00023727
3.68161e-06
0.000256085
4.57018e-06
0.000268351
5.95538e-06
0.000274533
8.12827e-06
0.00027505
1.144e-05
0.000270217
1.63051e-05
0.000260208
2.32097e-05
0.000245047
3.27231e-05
0.000224628
4.5513e-05
0.000198783
6.23546e-05
0.000167419
8.41171e-05
0.000130772
0.000111664
8.99057e-05
0.000145503
4.75186e-05
8.47107e-06
0.000185284
3.37912e-07
3.26657e-05
1.06554e-06
8.82679e-05
2.01138e-06
0.000136515
3.07742e-06
0.000177195
4.23736e-06
0.000210292
5.53553e-06
0.000235972
7.08487e-06
0.000254536
9.06477e-06
0.000266371
1.17191e-05
0.000271879
1.53549e-05
0.000271414
2.03439e-05
0.000265228
2.71259e-05
0.000253426
3.62184e-05
0.000235955
4.82304e-05
0.000212616
6.38819e-05
0.000183131
8.40218e-05
0.000147279
0.000109628
0.000105166
0.000141727
5.78066e-05
0.000181014
8.23179e-06
-3.77762e-05
0.000227261
4.0127e-07
3.22644e-05
1.31892e-06
8.73502e-05
2.58868e-06
0.000135245
4.11986e-06
0.000175664
5.89354e-06
0.000208519
7.96199e-06
0.000233903
1.04474e-05
0.000252051
1.35403e-05
0.000263278
1.74988e-05
0.00026792
2.26476e-05
0.000266266
2.93798e-05
0.000258496
3.81618e-05
0.000244644
4.95425e-05
0.000224574
6.41694e-05
0.000197989
8.28115e-05
0.000164489
0.000106386
0.000123705
0.000135972
7.55793e-05
0.000172763
2.10157e-05
0.000217664
-3.66695e-05
-9.07494e-05
0.000270638
4.5812e-07
3.18063e-05
1.55208e-06
8.62563e-05
3.12932e-06
0.000133668
5.11034e-06
0.000173683
7.48697e-06
0.000206142
1.03223e-05
0.000231068
1.37503e-05
0.000248623
1.79751e-05
0.000259053
2.32709e-05
0.000262624
2.99821e-05
0.000259554
3.85254e-05
0.000249953
4.9395e-05
0.000233775
6.31725e-05
0.000210797
8.05435e-05
0.000180618
0.000102323
0.000142709
0.00012949
9.65383e-05
0.000163217
4.18523e-05
0.000204857
-2.06239e-05
0.000255544
-8.73567e-05
-0.000150711
0.000315506
5.07861e-07
3.12984e-05
1.76292e-06
8.50012e-05
3.62896e-06
0.000131802
6.04177e-06
0.00017127
9.00746e-06
0.000203176
1.26031e-05
0.000227472
1.69773e-05
0.000244249
2.23502e-05
0.00025368
2.90149e-05
0.00025596
3.73381e-05
0.000251231
4.77626e-05
0.000239528
6.08132e-05
0.000220724
7.71059e-05
0.000194504
9.73653e-05
0.000160359
0.000122451
0.000117623
0.000153396
6.55931e-05
0.000191454
3.79447e-06
0.000238125
-6.72949e-05
0.000294781
-0.000144013
-0.000217924
0.000361994
5.50004e-07
3.07484e-05
1.94975e-06
8.36015e-05
4.08415e-06
0.000129667
6.90843e-06
0.000168446
1.04468e-05
0.000199638
1.47935e-05
0.000223125
2.0115e-05
0.000238927
2.66505e-05
0.000247144
3.47151e-05
0.000247895
4.47007e-05
0.000241246
5.70798e-05
0.000227149
7.2411e-05
0.000205393
9.13484e-05
0.000175567
0.000114657
0.00013705
0.000143241
8.90394e-05
0.000178182
3.06524e-05
0.000220798
-3.8821e-05
0.000272715
-0.000119213
0.000335539
-0.000206837
-0.000292644
0.000410259
5.84197e-07
3.01642e-05
2.11136e-06
8.20743e-05
4.49238e-06
0.000127286
7.70624e-06
0.000165232
1.17989e-05
0.000195545
1.68858e-05
0.000218038
2.31541e-05
0.000232659
3.08659e-05
0.000239433
4.03613e-05
0.0002384
5.20616e-05
0.000229545
6.6473e-05
0.000212738
8.41921e-05
0.000187674
0.000105915
0.000153843
0.000132453
0.000110512
0.000164752
5.67399e-05
0.000203939
-8.53391e-06
0.000251379
-8.62608e-05
0.000308796
-0.00017663
0.000378008
-0.000276049
-0.000375108
0.000460472
6.10249e-07
2.9554e-05
2.24712e-06
8.04374e-05
4.85238e-06
0.000124681
8.43304e-06
0.000161651
1.30609e-05
0.000190917
1.8876e-05
0.000212223
2.60902e-05
0.000225445
3.49919e-05
0.000230531
4.59507e-05
0.000227441
5.94211e-05
0.000216075
7.59477e-05
0.000196211
9.61709e-05
0.000167451
0.000120834
0.00012918
0.000150797
8.05492e-05
0.000187054
2.0483e-05
0.000230769
-5.22487e-05
0.00028334
-0.000138831
0.000346547
-0.000239837
0.000422388
-0.00035189
-0.00046552
0.000512799
6.28155e-07
2.89258e-05
2.35706e-06
7.87085e-05
5.16419e-06
0.000121874
9.08896e-06
0.000157727
1.4233e-05
0.000185773
2.07647e-05
0.000205692
2.89247e-05
0.000217285
3.90319e-05
0.000220424
5.14892e-05
0.000214984
6.67897e-05
0.000200774
8.55218e-05
0.000177479
0.000108375
0.000144597
0.000136147
0.000101408
0.00016975
4.69455e-05
0.00021023
-1.99966e-05
0.000258785
-0.000100804
0.000316828
-0.000196874
0.00038615
-0.000309158
0.000468877
-0.000434617
-0.000564022
0.000567379
6.38116e-07
2.82877e-05
2.44192e-06
7.69047e-05
5.42941e-06
0.000118886
9.67662e-06
0.000153479
1.53191e-05
0.000180131
2.25577e-05
0.000198453
3.16658e-05
0.000208177
4.29971e-05
0.000209093
5.6993e-05
0.000200988
7.41903e-05
0.000183577
9.52268e-05
0.000156442
0.000120848
0.000118977
0.00015191
7.03461e-05
0.000189387
9.46842e-06
0.000234375
-6.4985e-05
0.000288108
-0.000154537
0.000351992
-0.000260758
0.000427771
-0.000384938
0.00051765
-0.000524496
-0.000670666
0.000624295
6.4056e-07
2.76471e-05
2.50328e-06
7.5042e-05
5.65128e-06
0.000115738
1.02015e-05
0.000148929
1.63273e-05
0.000174005
2.42663e-05
0.000190514
3.4329e-05
0.000198114
4.69085e-05
0.000196513
6.249e-05
0.000185406
8.16594e-05
0.000164408
0.00010511
0.000132991
0.00013365
9.04373e-05
0.0001682
3.57956e-05
0.0002098
-3.21317e-05
0.000259601
-0.000114785
0.000318861
-0.000213797
0.000388968
-0.000330865
0.000471554
-0.000467524
0.00056884
-0.000621783
-0.000785371
0.000683545
6.36157e-07
2.7011e-05
2.54353e-06
7.31346e-05
5.83482e-06
0.000112447
1.06719e-05
0.000144092
1.72702e-05
0.000167407
2.59082e-05
0.000181876
3.69381e-05
0.000187084
5.07974e-05
0.000182654
6.80206e-05
0.000168183
8.92488e-05
0.00014318
0.000115237
0.000107003
0.000146861
5.88137e-05
0.000185114
-2.4569e-06
0.000231101
-7.81194e-05
0.000286028
-0.000169712
0.000351173
-0.000278942
0.00042788
-0.000407572
0.000517599
-0.000557244
0.000622515
-0.000726699
-0.000907868
0.000745013
6.25831e-07
2.63851e-05
2.56596e-06
7.11945e-05
5.98688e-06
0.000109026
1.10994e-05
0.00013898
1.8165e-05
0.000160341
2.75074e-05
0.000172534
3.95251e-05
0.000175066
5.47057e-05
0.000167473
7.36384e-05
0.00014925
9.70255e-05
0.000119793
0.00012569
7.83381e-05
0.00016058
2.39235e-05
0.000202764
-4.46408e-05
0.000253416
-0.000128772
0.000313789
-0.000230084
0.000385166
-0.000350318
0.000468825
-0.000491232
0.000565956
-0.000654374
0.000678657
-0.0008394
-0.00103765
0.00080844
6.10757e-07
2.57744e-05
2.57474e-06
6.92305e-05
6.11615e-06
0.000105485
1.14985e-05
0.000133597
1.90334e-05
0.000152806
2.90942e-05
0.000162473
4.21308e-05
0.00016203
5.86861e-05
0.000150918
7.941e-05
0.000128526
0.000105072
9.41307e-05
0.000136568
4.68418e-05
0.000174924
-1.44321e-05
0.000221282
-9.09995e-05
0.000276883
-0.000184373
0.000343016
-0.000296217
0.00042095
-0.000428252
0.000511864
-0.000582146
0.000616606
-0.000759117
0.000737146
-0.00095994
-0.00117391
0.000873402
5.9236e-07
2.5182e-05
2.57489e-06
6.7248e-05
6.23306e-06
0.000101827
1.18867e-05
0.000127944
1.99017e-05
0.000144791
3.07052e-05
0.000151669
4.4804e-05
0.000147931
6.28015e-05
0.00013292
8.54141e-05
0.000105914
0.000113484
6.6061e-05
0.000147985
1.23409e-05
0.00019002
-5.64677e-05
0.000240808
-0.000141787
0.000301643
-0.000245207
0.000373835
-0.000368409
0.000458607
-0.000513025
0.000557001
-0.00068054
0.000669457
-0.000871573
0.000797741
-0.00108822
-0.00131547
0.000939308
5.72288e-07
2.46097e-05
2.5722e-06
6.52481e-05
6.34967e-06
9.8049e-05
1.22843e-05
0.000122009
2.08e-05
0.000136275
3.23826e-05
0.000140087
4.76005e-05
0.000132713
6.71234e-05
0.000113398
9.17396e-05
8.12974e-05
0.000122368
3.54323e-05
0.000160064
-2.53544e-05
0.000206007
-0.000102411
0.000261483
-0.000197263
0.000327826
-0.000311551
0.000406343
-0.000446925
0.000498175
-0.000604857
0.000604168
-0.000786533
0.000724319
-0.000991723
0.000860069
-0.00122397
-0.00146083
0.00100543
5.52388e-07
2.40573e-05
2.57314e-06
6.32273e-05
6.47941e-06
9.41428e-05
1.27138e-05
0.000115774
2.1762e-05
0.000127227
3.41732e-05
0.000127675
5.05823e-05
0.000116304
7.17306e-05
9.22492e-05
9.8483e-05
5.4545e-05
0.000131839
2.07617e-06
0.000172933
-6.64486e-05
0.00022302
-0.000152498
0.000283438
-0.00025768
0.000355542
-0.000383655
0.000440598
-0.000531982
0.000539624
-0.000703883
0.000653204
-0.000900113
0.000780894
-0.00111941
0.000923564
-0.00136665
-0.00160829
0.00107102
5.34659e-07
2.35227e-05
2.58469e-06
6.11773e-05
6.63679e-06
9.00907e-05
1.31995e-05
0.000109212
2.28241e-05
0.000117603
3.61273e-05
0.000114372
5.38154e-05
9.86158e-05
7.6706e-05
6.93586e-05
0.000105744
2.55066e-05
0.000142012
-3.41911e-05
0.00018672
-0.000111156
0.000241186
-0.000206964
0.000306784
-0.000323278
0.000384857
-0.000461729
0.000476594
-0.000623718
0.000582841
-0.00081013
0.000703865
-0.00102114
0.000838831
-0.00125438
0.00098743
-0.00151524
-0.00175645
0.00113559
5.21203e-07
2.30015e-05
2.61418e-06
5.90843e-05
6.837e-06
8.58679e-05
1.37668e-05
0.000102282
2.4024e-05
0.000107346
3.82969e-05
0.000100099
5.73678e-05
7.95449e-05
8.21341e-05
4.45923e-05
0.000113624
-5.98301e-06
0.000152998
-7.35652e-05
0.000201538
-0.000159697
0.00026061
-0.000266036
0.000331593
-0.000394262
0.000415783
-0.000545918
0.000514237
-0.000722172
0.00062759
-0.000923483
0.000755795
-0.00114934
0.000897839
-0.00139642
0.00105106
-0.00166846
-0.00190447
0.00119908
5.14163e-07
2.24873e-05
2.66906e-06
5.69294e-05
7.09547e-06
8.14414e-05
1.44416e-05
9.49358e-05
2.53998e-05
9.63873e-05
4.07343e-05
8.47649e-05
6.13067e-05
5.89726e-05
8.8097e-05
1.78019e-05
0.000122215
-4.01014e-05
0.000164899
-0.000116248
0.000217486
-0.000212284
0.000281366
-0.000329916
0.000357893
-0.000470789
0.000448258
-0.000636282
0.000553328
-0.000827242
0.000673468
-0.00104362
0.000808346
-0.00128422
0.000957231
-0.00154531
0.00111552
-0.00182675
-0.00205024
0.00126128
5.15519e-07
2.19718e-05
2.75646e-06
5.46884e-05
7.42716e-06
7.67707e-05
1.52487e-05
8.71142e-05
2.69888e-05
8.46472e-05
4.349e-05
6.82637e-05
6.56963e-05
3.67663e-05
9.46711e-05
-1.1173e-05
0.000131604
-7.70344e-05
0.000177799
-0.000162443
0.000234634
-0.000269119
0.000303493
-0.000398775
0.000385655
-0.000552952
0.000482147
-0.000732774
0.000593569
-0.000938664
0.00071993
-0.00116999
0.000860487
-0.00142478
0.0010144
-0.00169922
0.00117888
-0.00199123
-0.00225932
0.00138797
5.27545e-07
2.14443e-05
2.88386e-06
5.23321e-05
7.84713e-06
7.18075e-05
1.6213e-05
7.87484e-05
2.88264e-05
7.20338e-05
4.66112e-05
5.04788e-05
7.05948e-05
1.27827e-05
0.000101923
-4.25012e-05
0.000141859
-0.00011697
0.000191759
-0.000212343
0.000253018
-0.000330378
0.000326975
-0.000472733
0.000414783
-0.000640759
0.000517235
-0.000835226
0.000634579
-0.00105601
0.000766365
-0.00130177
0.000911312
-0.00156972
0.00106804
-0.00185595
0.00123295
-0.00215614
-0.00244523
0.00141885
5.51966e-07
2.08923e-05
3.05748e-06
4.98266e-05
8.3684e-06
6.64966e-05
1.73559e-05
6.97609e-05
3.09441e-05
5.84455e-05
5.01392e-05
3.12837e-05
7.60519e-05
-1.313e-05
0.000109907
-7.63559e-05
0.000153031
-0.000160094
0.000206814
-0.000266127
0.000272638
-0.000396201
0.000351753
-0.000551848
0.000445125
-0.000734131
0.000553243
-0.000943344
0.000675922
-0.00117869
0.000812169
-0.00143802
0.000960072
-0.00171763
0.00111733
-0.00201321
0.00127961
-0.00231841
-0.00261671
0.00145108
5.90426e-07
2.03019e-05
3.28306e-06
4.7134e-05
9.00272e-06
6.07769e-05
1.86966e-05
6.0067e-05
3.33689e-05
4.37732e-05
5.41083e-05
1.05443e-05
8.21066e-05
-4.11283e-05
0.00011866
-0.000112909
0.000165146
-0.00020658
0.000222967
-0.000323948
0.00029345
-0.000466685
0.000377711
-0.000636108
0.000476464
-0.000832885
0.000589825
-0.0010567
0.000717115
-0.00130598
0.000856744
-0.00157765
0.00100616
-0.00186704
0.00116222
-0.00216927
0.00132034
-0.00247653
-0.00277685
0.00148048
6.44326e-07
1.96575e-05
3.5654e-06
4.42129e-05
9.75985e-06
5.45824e-05
2.02508e-05
4.9576e-05
3.61224e-05
2.79016e-05
5.85445e-05
-1.18777e-05
8.87855e-05
-7.13692e-05
0.000128204
-0.000152328
0.000178209
-0.000256585
0.000240184
-0.000385923
0.000315367
-0.000541868
0.000404679
-0.00072542
0.000508524
-0.00093673
0.000626583
-0.00117476
0.000757635
-0.00143703
0.000899491
-0.0017195
0.00104901
-0.00201657
0.00120242
-0.00232268
0.00135505
-0.00262916
-0.00292688
0.00150508
7.14723e-07
1.89428e-05
3.90828e-06
4.10194e-05
1.06474e-05
4.78434e-05
2.20303e-05
3.81931e-05
3.922e-05
1.0712e-05
6.34643e-05
-3.6122e-05
9.61013e-05
-0.000104006
0.000138538
-0.000194764
0.000192194
-0.000310241
0.000258401
-0.000452131
0.000338258
-0.000621724
0.000432438
-0.0008196
0.000540977
-0.00104527
0.000663072
-0.00129686
0.000796942
-0.0015709
0.000939822
-0.00186238
0.00108809
-0.00216483
0.00123755
-0.00247214
0.00138367
-0.00277528
-0.00306723
0.00152402
8.02387e-07
1.81404e-05
4.31431e-06
3.75074e-05
1.16704e-05
4.04872e-05
2.40428e-05
2.58208e-05
4.26703e-05
-7.91558e-06
6.88743e-05
-6.2326e-05
0.000104053
-0.000139185
0.000149644
-0.000240356
0.000207051
-0.000367648
0.000277516
-0.000522596
0.000361951
-0.000706159
0.000460727
-0.000918375
0.000573458
-0.001158
0.000698825
-0.00142223
0.000834493
-0.00170657
0.000977184
-0.00200507
0.00112292
-0.00231057
0.00126732
-0.00261654
0.00140613
-0.00291409
-0.00319804
0.00153695
9.07723e-07
1.72327e-05
4.78503e-06
3.36301e-05
1.2832e-05
3.24403e-05
2.62916e-05
1.23612e-05
4.64756e-05
-2.80996e-05
7.47712e-05
-9.06216e-05
0.000112624
-0.000177037
0.000161483
-0.000289215
0.000222704
-0.000428869
0.000297398
-0.00059729
0.00038624
-0.000795001
0.000489246
-0.00102138
0.000605569
-0.00127432
0.00073336
-0.00155002
0.000869763
-0.00184297
0.00101108
-0.00214639
0.00115311
-0.0024526
0.00129151
-0.00275493
0.00142244
-0.00304503
-0.00331942
0.00154382
1.03085e-06
1.62018e-05
5.3209e-06
2.93401e-05
1.41323e-05
2.36289e-05
2.87761e-05
-2.28263e-06
5.06312e-05
-4.99547e-05
8.11417e-05
-0.000121132
0.000121785
-0.00021768
0.000173997
-0.000341427
0.000239052
-0.000493924
0.000317886
-0.000676124
0.000410887
-0.000888002
0.00051767
-0.00112816
0.0006369
-0.00139355
0.000766207
-0.00167932
0.00090227
-0.00197903
0.00104108
-0.0022852
0.00117838
-0.0025899
0.00131003
-0.00288658
0.00143272
-0.00316772
-0.00343154
0.00154484
1.17165e-06
1.50302e-05
5.92141e-06
2.45903e-05
1.557e-05
1.39803e-05
3.14919e-05
-1.82045e-05
5.51264e-05
-7.35892e-05
8.79632e-05
-0.000153969
0.000131493
-0.00026121
0.000187112
-0.000397046
0.000255974
-0.000562786
0.000338795
-0.000758946
0.00043563
-0.000984837
0.000545658
-0.00123819
0.000667041
-0.00151494
0.00079692
-0.0018092
0.000931591
-0.00211371
0.00106686
-0.00242047
0.00119856
-0.0027216
0.0013229
-0.00301092
0.00143719
-0.00328201
-0.00353465
0.0015403
1.32973e-06
1.37005e-05
6.58509e-06
1.9335e-05
1.71413e-05
3.42402e-06
3.44307e-05
-3.54939e-05
5.99448e-05
-9.91033e-05
9.52048e-05
-0.000189229
0.000141694
-0.000307699
0.000200736
-0.000456089
0.000273329
-0.000635379
0.000359922
-0.000845539
0.000460194
-0.00108511
0.000572862
-0.00135086
0.000695595
-0.00163767
0.000825095
-0.0019387
0.000957374
-0.00224599
0.00108819
-0.00255129
0.00121359
-0.00284699
0.00133026
-0.00312759
0.00143614
-0.00338789
-0.00362914
0.00153064
1.50452e-06
1.2196e-05
7.30981e-06
1.35297e-05
1.88408e-05
-8.10702e-06
3.75815e-05
-5.42345e-05
6.50649e-05
-0.000126587
0.000102828
-0.000226992
0.000152322
-0.000357193
0.000214768
-0.000518535
0.000290962
-0.000711573
0.000381048
-0.000935624
0.000484294
-0.00118836
0.000598942
-0.00146551
0.000722193
-0.00176092
0.000850381
-0.00206689
0.000979349
-0.00237495
0.00110494
-0.00267688
0.00122352
-0.00296558
0.00133234
-0.0032364
0.00142997
-0.00348553
-0.00371548
0.00151631
1.69535e-06
1.05006e-05
8.09272e-06
7.1323e-06
2.06618e-05
-2.06761e-05
4.09301e-05
-7.45029e-05
7.04608e-05
-0.000156117
0.000110788
-0.000267319
0.000163304
-0.000409709
0.000229091
-0.000584322
0.000308706
-0.000791188
0.000401946
-0.00102886
0.000507644
-0.00129405
0.00062357
-0.00158143
0.000746501
-0.00188385
0.000872493
-0.00219288
0.000997331
-0.00249979
0.00111706
-0.00279661
0.00122848
-0.003077
0.00132943
-0.00333735
0.00141911
-0.00357521
-0.00379421
0.00149783
1.90141e-06
8.59919e-06
8.93064e-06
1.03075e-07
2.25961e-05
-3.43415e-05
4.44604e-05
-9.63672e-05
7.61027e-05
-0.00018776
0.000119033
-0.00031025
0.000174558
-0.000465233
0.000243584
-0.000653348
0.000326388
-0.000873993
0.000422388
-0.00112486
0.000529968
-0.00140163
0.000646445
-0.00169791
0.000768234
-0.00200564
0.00089121
-0.00231586
0.00101122
-0.0026198
0.00112462
-0.00291001
0.00122871
-0.00318109
0.00132191
-0.00343055
0.00140401
-0.0036573
-0.00386589
0.00147569
2.12189e-06
6.47731e-06
9.81998e-06
-7.59502e-06
2.46348e-05
-4.91564e-05
4.81542e-05
-0.000119887
8.19574e-05
-0.000221563
0.000127509
-0.000355802
0.000185996
-0.00052372
0.000258115
-0.000725467
0.000343829
-0.000959706
0.000442146
-0.00122318
0.000551002
-0.00151049
0.000667296
-0.00181421
0.000787158
-0.0021255
0.000906387
-0.00243509
0.001021
-0.00273442
0.00112775
-0.00301676
0.00122447
-0.00327781
0.00131017
-0.00351625
0.00138513
-0.00373227
-0.00393113
0.00145036
2.3559e-06
4.12141e-06
1.07569e-05
-1.59961e-05
2.67684e-05
-6.51678e-05
5.19915e-05
-0.00014511
8.79892e-05
-0.00025756
0.000136155
-0.000403967
0.000197526
-0.000585092
0.000272553
-0.000800493
0.000360848
-0.001048
0.000460999
-0.00132333
0.000570502
-0.00161999
0.000685892
-0.0019296
0.000803098
-0.00224271
0.000917948
-0.00254994
0.00102673
-0.0028432
0.00112665
-0.00311667
0.00121609
-0.00336725
0.00129461
-0.00359478
0.00136294
-0.00380059
-0.0039905
0.00142231
2.60255e-06
1.51886e-06
1.17375e-05
-2.5131e-05
2.89862e-05
-8.24166e-05
5.59512e-05
-0.000172075
9.41595e-05
-0.000295769
0.000144908
-0.000454715
0.000209052
-0.000649236
0.000286758
-0.000878199
0.000377268
-0.00113851
0.000478738
-0.0014248
0.000588252
-0.0017295
0.000702044
-0.00204339
0.000815934
-0.00235659
0.000925881
-0.00265989
0.00102852
-0.00294584
0.00112156
-0.00320971
0.00120392
-0.00344961
0.00127567
-0.00366653
0.00133787
-0.00386279
-0.00404457
0.00139194
2.86096e-06
-1.3421e-06
1.27573e-05
-3.50273e-05
3.12775e-05
-0.000100937
6.00107e-05
-0.000200808
0.000100428
-0.000336186
0.000153702
-0.000507989
0.000220473
-0.000716007
0.000300597
-0.000958323
0.000392918
-0.00123083
0.000495171
-0.00152706
0.000604065
-0.0018384
0.000715607
-0.00215493
0.000825603
-0.00246659
0.000930236
-0.00276452
0.00102655
-0.00304216
0.00111277
-0.00329593
0.00118834
-0.00352517
0.00125374
-0.00373193
0.00131032
-0.00391937
-0.00409387
0.00135962
3.13019e-06
-4.47229e-06
1.38121e-05
-4.57092e-05
3.36306e-05
-0.000120755
6.41464e-05
-0.000231324
0.000106753
-0.000378792
0.000162469
-0.000563705
0.000231691
-0.000785229
0.000313933
-0.00104056
0.000407635
-0.00132453
0.000510123
-0.00162954
0.000617785
-0.00194606
0.000726482
-0.00226363
0.000832098
-0.00257221
0.000931115
-0.00286353
0.00102104
-0.00313208
0.00110059
-0.00337548
0.0011697
-0.00359428
0.00122921
-0.00379145
0.00128068
-0.00397083
-0.00413887
0.00132569
3.4093e-06
-7.88158e-06
1.48971e-05
-5.7197e-05
3.60334e-05
-0.000141892
6.83336e-05
-0.000263624
0.00011309
-0.000423548
0.00017114
-0.000621756
0.000242605
-0.000856694
0.000326637
-0.0011246
0.000421268
-0.00141917
0.000523445
-0.00173172
0.000629295
-0.00205191
0.000734616
-0.00236895
0.000835458
-0.00267305
0.000928663
-0.00295674
0.00101221
-0.00321563
0.00108533
-0.0034486
0.00114836
-0.00365731
0.00120244
-0.00384553
0.00124927
-0.00401766
-0.00418003
0.00129042