/*--------------------------------*- C++ -*----------------------------------*\
  =========                 |
  \\      /  F ield         | OpenFOAM: The Open Source CFD Toolbox
   \\    /   O peration     | Website:  https://openfoam.org
    \\  /    A nd           | Version:  7
     \\/     M anipulation  |
\*---------------------------------------------------------------------------*/
FoamFile
{
    version     2.0;
    format      ascii;
    class       volVectorField;
    location    "75";
    object      U;
}
// * * * * * * * * * * * * * * * * * * * * * * * * * * * * * * * * * * * * * //

dimensions      [0 1 -1 0 0 0 0];

internalField   nonuniform List<vector> 
8500
(
(1.05419 0.366269 2.39868e-21)
(1.04267 0.383883 7.25196e-21)
(1.04347 0.366365 2.32413e-20)
(1.02948 0.403712 -3.3363e-21)
(1.03108 0.383742 4.1854e-20)
(1.03263 0.366113 -4.56604e-20)
(1.0156 0.425408 -1.21557e-20)
(1.01721 0.403371 6.13629e-20)
(1.01937 0.383243 -2.66585e-20)
(1.02169 0.365501 7.26128e-21)
(1.0027 0.424837 2.75346e-20)
(1.00488 0.402662 5.24668e-20)
(1.00755 0.382379 -1.45183e-19)
(1.01066 0.364509 3.37989e-20)
(0.987591 0.447455 4.84846e-20)
(0.989758 0.423861 -5.98309e-20)
(0.992501 0.40158 3.91779e-20)
(0.995652 0.381138 1.74399e-19)
(0.999545 0.363106 1.14137e-19)
(0.971299 0.471239 -1.94719e-20)
(0.973922 0.446155 -8.05372e-20)
(0.976807 0.422471 -3.39011e-20)
(0.980107 0.400122 -1.06557e-19)
(0.983682 0.379508 6.96894e-20)
(0.988357 0.361252 -1.36379e-19)
(0.956779 0.469558 -2.10082e-20)
(0.960229 0.444401 -1.86795e-20)
(0.96386 0.42066 6.43368e-20)
(0.967715 0.398282 1.35629e-19)
(0.971679 0.377479 -2.28098e-19)
(0.977225 0.358915 1.62942e-19)
(0.937996 0.494097 -4.39522e-21)
(0.94223 0.467386 -3.49866e-21)
(0.946527 0.442185 1.21043e-19)
(0.950924 0.418417 -4.75618e-20)
(0.955335 0.396044 -1.00317e-19)
(0.959749 0.375026 -5.16274e-21)
(0.966412 0.356108 -2.37801e-19)
(0.922523 0.49145 -6.7551e-20)
(0.927667 0.464719 3.96998e-20)
(0.932822 0.439503 1.09531e-19)
(0.937993 0.415735 3.68695e-20)
(0.942987 0.393385 -2.05386e-19)
(0.94808 0.372074 -7.52361e-21)
(0.955944 0.352776 7.21353e-20)
(0.900911 0.516599 -3.98776e-20)
(0.907046 0.488271 -1.23082e-20)
(0.913106 0.461555 -1.21563e-19)
(0.919122 0.436356 -6.41818e-20)
(0.925064 0.412617 -7.22361e-20)
(0.93072 0.390312 2.4656e-19)
(0.936856 0.368632 -5.87904e-20)
(0.945014 0.34771 2.23833e-19)
(0.877173 0.542789 -1.23559e-19)
(0.884472 0.51284 5.70258e-20)
(0.891587 0.484558 9.53227e-20)
(0.898566 0.457894 3.82652e-20)
(0.905439 0.432748 1.11017e-19)
(0.912154 0.409065 5.60607e-20)
(0.918568 0.386823 -1.34746e-20)
(0.925737 0.365174 1.26523e-19)
(0.934121 0.344182 2.25171e-20)
(0.859723 0.53838 -6.1939e-20)
(0.86807 0.508506 -1.84925e-19)
(0.876168 0.48031 -1.09606e-20)
(0.884066 0.453737 -8.45271e-20)
(0.891791 0.42868 1.34085e-19)
(0.899281 0.405086 -2.09182e-19)
(0.906447 0.382915 -5.32986e-20)
(0.914381 0.361296 -8.22855e-20)
(0.922909 0.340248 -3.01171e-19)
(0.832496 0.564728 -1.8575e-20)
(0.842332 0.533349 -1.01031e-20)
(0.851729 0.503595 -3.52511e-20)
(0.860811 0.475528 -6.71481e-20)
(0.869627 0.449084 -9.85711e-20)
(0.878202 0.424154 5.57071e-20)
(0.886472 0.400684 1.70017e-19)
(0.894387 0.378619 -9.45661e-20)
(0.902997 0.357099 1.25051e-19)
(0.911792 0.336201 3.55758e-19)
(0.814079 0.558928 -3.01266e-19)
(0.825026 0.527696 -1.5152e-19)
(0.835473 0.498108 3.744e-20)
(0.845539 0.470211 5.6323e-20)
(0.85527 0.443935 2.0335e-19)
(0.864692 0.419171 -2.87771e-19)
(0.873743 0.395862 8.5767e-20)
(0.882398 0.373938 5.07893e-20)
(0.891649 0.352573 -7.29316e-20)
(0.900801 0.331927 -2.68251e-19)
(0.795772 0.552457 1.59195e-19)
(0.80783 0.521424 2.6428e-19)
(0.819326 0.492047 2.20662e-19)
(0.830373 0.464362 1.65677e-19)
(0.841016 0.438294 -3.58648e-19)
(0.851284 0.413733 -4.62237e-21)
(0.861114 0.39062 -9.80602e-20)
(0.870502 0.368875 3.83838e-19)
(0.880384 0.347717 -1.49095e-20)
(0.889952 0.327376 -1.91722e-19)
(0.763534 0.577473 -2.28375e-19)
(0.777605 0.545318 5.03302e-21)
(0.790772 0.514533 9.19436e-20)
(0.803313 0.485412 -1.45478e-19)
(0.815337 0.457981 -1.82683e-19)
(0.826888 0.43216 4.67374e-19)
(0.837997 0.407841 1.9015e-19)
(0.848605 0.38496 -1.99314e-19)
(0.85872 0.363433 -2.28086e-19)
(0.869233 0.342526 -2.59626e-19)
(0.87926 0.322523 -2.53944e-20)
(0.744383 0.569399 1.24681e-19)
(0.759604 0.537514 4.99636e-20)
(0.773876 0.507027 -2.53652e-19)
(0.787458 0.478208 2.71406e-19)
(0.800453 0.451072 1.68992e-19)
(0.812907 0.425538 -6.48034e-20)
(0.824852 0.401497 -1.2853e-19)
(0.836235 0.378885 1.12629e-19)
(0.847074 0.357611 -1.99727e-19)
(0.85822 0.336993 -2.79802e-19)
(0.868735 0.317353 2.6874e-19)
(0.707498 0.59277 4.00074e-19)
(0.72543 0.560609 -2.03765e-19)
(0.741799 0.52905 2.5299e-19)
(0.75717 0.49891 -2.9398e-19)
(0.771785 0.470438 3.8892e-20)
(0.785743 0.443639 -1.17838e-19)
(0.799094 0.41843 8.7939e-20)
(0.811869 0.394704 8.39357e-20)
(0.824023 0.372395 -5.21367e-20)
(0.835583 0.351409 4.99596e-19)
(0.847362 0.331114 -6.95491e-20)
(0.858389 0.311854 -2.31002e-19)
(0.687622 0.58295 -2.91478e-19)
(0.706707 0.55111 4.27298e-19)
(0.724218 0.519931 -4.37404e-20)
(0.740679 0.490187 1.22311e-19)
(0.756318 0.462106 1.52714e-19)
(0.771231 0.435686 6.18325e-20)
(0.78547 0.410841 -4.22183e-19)
(0.799069 0.387465 9.71688e-20)
(0.811988 0.365493 8.97145e-20)
(0.824264 0.344828 -3.03724e-19)
(0.836677 0.324886 1.12643e-19)
(0.848229 0.306021 4.42567e-20)
(0.645168 0.602759 -4.36503e-20)
(0.66801 0.572368 -5.95496e-21)
(0.688244 0.54091 7.21182e-20)
(0.706888 0.510165 -1.18974e-19)
(0.724429 0.480866 -1.79333e-20)
(0.741081 0.45322 -4.74877e-19)
(0.756939 0.427218 -3.68799e-19)
(0.772056 0.402774 -6.33528e-20)
(0.78647 0.379784 -5.29548e-20)
(0.800147 0.358181 -5.9777e-20)
(0.813135 0.337869 -1.23249e-19)
(0.826177 0.318308 -1.43749e-19)
(0.838266 0.299852 -1.93019e-19)
(0.624767 0.591102 -8.63541e-20)
(0.648695 0.561034 -4.07942e-20)
(0.670071 0.530018 -4.19405e-19)
(0.689837 0.49976 -4.01343e-19)
(0.708445 0.470952 7.39066e-20)
(0.726097 0.443784 6.60128e-19)
(0.742887 0.418241 9.76687e-20)
(0.758871 0.394236 2.68482e-19)
(0.774091 0.371665 -4.2273e-19)
(0.788517 0.350464 -1.00593e-19)
(0.80221 0.330535 5.0408e-19)
(0.815878 0.31138 2.23934e-19)
(0.828509 0.293346 9.29865e-19)
(0.604698 0.578636 -5.63687e-20)
(0.629711 0.548958 2.88546e-19)
(0.652219 0.518443 -1.84053e-19)
(0.673092 0.488725 1.33762e-19)
(0.692752 0.460455 3.10619e-19)
(0.711389 0.433808 -2.1211e-19)
(0.729098 0.408762 5.37969e-20)
(0.745936 0.385232 2.68765e-19)
(0.76195 0.363115 3.39558e-19)
(0.777117 0.342346 -1.79651e-19)
(0.791505 0.322829 -1.02164e-19)
(0.805791 0.304106 1.57914e-19)
(0.818966 0.286507 -4.60873e-19)
(0.55494 0.590648 6.49597e-20)
(0.584998 0.565377 1.84181e-19)
(0.611089 0.536154 -2.75937e-19)
(0.634715 0.506198 6.60403e-19)
(0.65668 0.47707 2.79969e-19)
(0.677374 0.449384 -9.32049e-20)
(0.69698 0.423299 -2.93382e-20)
(0.715591 0.39879 1.27846e-19)
(0.73327 0.375769 -3.57346e-19)
(0.750065 0.354139 2.994e-20)
(0.765961 0.333833 -2.34957e-19)
(0.781034 0.314755 -1.04319e-19)
(0.795929 0.296487 -4.66084e-19)
(0.809648 0.279339 -2.03311e-19)
(0.534729 0.576306 -2.31265e-19)
(0.5657 0.55134 1.27036e-19)
(0.59286 0.522636 -7.74989e-20)
(0.617589 0.493295 -2.40994e-19)
(0.640627 0.464806 2.67085e-19)
(0.662336 0.437749 2.87612e-19)
(0.682893 0.412268 -5.49401e-22)
(0.702389 0.388332 -6.65318e-20)
(0.720892 0.365856 -3.80242e-20)
(0.738454 0.344745 2.85378e-19)
(0.755066 0.32493 2.55019e-19)
(0.770813 0.30632 7.19887e-20)
(0.786304 0.288529 4.92842e-19)
(0.800565 0.271846 1.61468e-19)
(0.514956 0.561134 -8.58243e-20)
(0.54684 0.536541 -1.4439e-19)
(0.575057 0.508419 -5.56782e-20)
(0.600869 0.479748 -8.85261e-21)
(0.624958 0.451948 -5.80927e-19)
(0.647661 0.425563 -7.45207e-19)
(0.669148 0.400724 -1.1613e-19)
(0.689511 0.377399 2.63827e-19)
(0.708821 0.355502 -1.0474e-19)
(0.727133 0.33494 -5.35436e-19)
(0.744447 0.315646 5.07117e-19)
(0.760854 0.297529 7.34732e-20)
(0.77693 0.280238 -2.06382e-19)
(0.791726 0.264035 3.27014e-19)
(0.457427 0.560814 9.81093e-20)
(0.495659 0.545151 3.44235e-19)
(0.52845 0.520999 -1.21065e-19)
(0.557707 0.49352 1.85577e-19)
(0.584582 0.465572 3.56855e-19)
(0.609698 0.438507 1.97089e-19)
(0.633373 0.412837 8.35108e-19)
(0.655767 0.388681 3.87324e-19)
(0.676976 0.366002 -3.15087e-20)
(0.697074 0.344716 -2.09725e-20)
(0.716119 0.324734 6.81977e-20)
(0.734119 0.305988 -5.62842e-19)
(0.75117 0.28839 -3.03054e-19)
(0.767817 0.271619 1.30878e-19)
(0.783142 0.255912 -4.54925e-19)
(0.438051 0.543917 7.46821e-20)
(0.476875 0.528379 -4.41805e-19)
(0.510563 0.504734 3.37591e-19)
(0.540841 0.477955 -1.57186e-19)
(0.568753 0.450783 -3.66877e-19)
(0.594872 0.4245 -8.95839e-20)
(0.619492 0.399586 -3.45035e-19)
(0.642771 0.376149 -7.26657e-19)
(0.664804 0.354151 6.32507e-20)
(0.685669 0.333509 5.86253e-19)
(0.705428 0.314136 -2.58276e-19)
(0.724097 0.295965 3.15298e-19)
(0.741776 0.278911 4.28538e-19)
(0.758977 0.262682 2.76763e-19)
(0.774823 0.247486 2.12214e-19)
(0.419217 0.526189 2.69542e-19)
(0.458637 0.510842 4.71161e-19)
(0.493211 0.487766 -5.75965e-19)
(0.524487 0.461745 4.59123e-19)
(0.55341 0.435398 3.69356e-19)
(0.580503 0.409941 -1.08095e-19)
(0.606042 0.385824 -5.72706e-20)
(0.630179 0.363144 2.12312e-19)
(0.653013 0.34186 -3.69007e-19)
(0.674623 0.321893 -4.97074e-19)
(0.695076 0.303156 1.89817e-19)
(0.714395 0.285586 -1.95252e-19)
(0.732684 0.2691 -2.32177e-19)
(0.750423 0.253434 -2.0346e-19)
(0.766778 0.238764 2.08848e-20)
(0.400964 0.507656 -4.67962e-19)
(0.440979 0.492562 -3.65747e-20)
(0.476422 0.470117 2.71666e-20)
(0.508672 0.444909 -4.74273e-20)
(0.538576 0.419436 -4.64913e-19)
(0.566614 0.394848 -2.14349e-20)
(0.593044 0.371566 -7.70105e-20)
(0.618012 0.349678 4.69779e-19)
(0.641621 0.329141 -1.47553e-19)
(0.663953 0.309878 -4.25849e-20)
(0.685078 0.291807 2.51806e-19)
(0.705027 0.274864 7.38836e-19)
(0.723906 0.258969 -7.46912e-20)
(0.742165 0.243884 -9.03235e-20)
(0.759018 0.229756 1.54909e-19)
(0.336686 0.489092 3.3711e-19)
(0.383328 0.488345 -2.00843e-19)
(0.423935 0.473566 -3.25354e-19)
(0.460228 0.45181 3.23483e-19)
(0.493422 0.427469 -1.08734e-19)
(0.524277 0.402916 3.06104e-19)
(0.553228 0.379238 1.41008e-19)
(0.580517 0.356829 -8.35145e-20)
(0.606288 0.335767 -3.19421e-19)
(0.630645 0.316009 3.99816e-19)
(0.653674 0.29748 -1.01387e-19)
(0.675449 0.2801 -4.43059e-19)
(0.696006 0.263807 -1.51855e-19)
(0.715455 0.248526 -4.83838e-20)
(0.734216 0.234041 7.66842e-19)
(0.751553 0.220472 -4.96034e-19)
(0.319604 0.469327 -2.49434e-19)
(0.366343 0.468287 4.96284e-19)
(0.407535 0.45388 8.97969e-20)
(0.444655 0.432871 2.47244e-19)
(0.478763 0.409446 1.8487e-19)
(0.510535 0.385858 -5.08733e-19)
(0.540365 0.363131 -2.68612e-19)
(0.568481 0.341631 5.02057e-19)
(0.595026 0.321427 -1.61357e-20)
(0.620102 0.302478 -4.14709e-19)
(0.643802 0.28471 1.06528e-19)
(0.666201 0.268047 5.18353e-19)
(0.687344 0.252429 -4.22288e-19)
(0.707342 0.237783 -1.72674e-19)
(0.726584 0.223916 -1.51406e-19)
(0.744391 0.210922 3.4043e-19)
(0.303191 0.448796 -3.39796e-19)
(0.350043 0.44751 -1.48372e-19)
(0.39181 0.433533 -6.32616e-20)
(0.429731 0.413324 -4.93237e-19)
(0.46472 0.390865 -3.78007e-19)
(0.497372 0.368284 5.05448e-19)
(0.528046 0.346545 2.82084e-19)
(0.556956 0.325989 -2.21877e-19)
(0.584241 0.306675 -2.59223e-19)
(0.610009 0.288564 2.82159e-19)
(0.634351 0.271585 -1.61358e-19)
(0.65735 0.255663 2.33859e-19)
(0.679055 0.240742 1.12587e-19)
(0.699579 0.226752 4.40782e-19)
(0.719282 0.213521 8.92426e-20)
(0.737542 0.201116 -4.02931e-19)
(0.287483 0.427532 -7.01747e-20)
(0.33446 0.426046 -2.00361e-19)
(0.376788 0.412552 1.75913e-19)
(0.415481 0.393196 6.56895e-20)
(0.451315 0.371748 -1.98201e-19)
(0.484811 0.350217 1.33498e-19)
(0.516292 0.329503 -3.558e-19)
(0.545959 0.309922 -7.94632e-20)
(0.573953 0.291529 3.28931e-19)
(0.600379 0.274284 1.18018e-19)
(0.625336 0.258118 1.85786e-19)
(0.648909 0.242961 -3.53671e-19)
(0.67115 0.228758 -1.37175e-19)
(0.692176 0.215444 -4.62397e-20)
(0.712319 0.202865 6.55159e-20)
(0.731015 0.191066 3.7112e-19)
(0.272514 0.40557 -1.57096e-19)
(0.319624 0.403929 3.46022e-19)
(0.362496 0.39097 5.5528e-19)
(0.40193 0.372515 1.59539e-19)
(0.438572 0.352123 2.17481e-19)
(0.472871 0.331678 -2.54503e-21)
(0.505119 0.312024 1.04822e-19)
(0.535508 0.293451 3.7104e-19)
(0.564175 0.276007 -5.44483e-20)
(0.59123 0.259654 -6.71616e-19)
(0.616771 0.244326 5.89769e-21)
(0.640888 0.229957 3.78838e-20)
(0.663641 0.216492 3.53979e-20)
(0.685144 0.203873 -2.19473e-19)
(0.705705 0.191962 -2.0379e-19)
(0.724817 0.180782 -3.99972e-19)
(0.206765 0.366144 -1.05491e-19)
(0.258316 0.382945 2.09969e-19)
(0.305565 0.381192 2.07488e-19)
(0.348961 0.368816 -2.06438e-19)
(0.389102 0.351309 2.55182e-20)
(0.42651 0.332014 -1.37141e-19)
(0.461571 0.312694 3.47496e-20)
(0.494547 0.294131 -4.23881e-21)
(0.525619 0.276596 -1.65933e-19)
(0.554924 0.260129 -7.47788e-20)
(0.582573 0.244692 4.46741e-19)
(0.608668 0.230225 -3.37363e-19)
(0.633301 0.216664 2.26839e-19)
(0.656538 0.203958 9.28292e-20)
(0.678493 0.192052 -2.14146e-20)
(0.699449 0.180823 7.11446e-21)
(0.718959 0.170277 2.20482e-19)
(0.193863 0.344134 2.93692e-19)
(0.244917 0.359696 -1.62988e-19)
(0.292308 0.357869 -2.88488e-19)
(0.336205 0.346122 -1.75478e-19)
(0.377017 0.329608 -3.42674e-19)
(0.415151 0.311449 2.82315e-19)
(0.45093 0.293288 -2.32143e-19)
(0.484592 0.275848 4.99207e-20)
(0.516308 0.259377 3.54952e-20)
(0.546213 0.243913 -1.5419e-19)
(0.574422 0.229417 1.80341e-19)
(0.601039 0.215832 2.73602e-19)
(0.626159 0.2031 -2.44755e-19)
(0.649852 0.191171 -2.80907e-19)
(0.672233 0.179994 5.40889e-19)
(0.693559 0.169462 -4.88764e-19)
(0.713446 0.159564 1.79362e-19)
(0.181748 0.32152 -2.45468e-19)
(0.232346 0.335859 5.2193e-20)
(0.27988 0.333997 1.14504e-19)
(0.324254 0.322923 -4.02879e-19)
(0.365697 0.307442 6.58889e-20)
(0.404512 0.290456 -2.75827e-19)
(0.440965 0.273486 2.36249e-19)
(0.47527 0.257198 5.63501e-20)
(0.507589 0.241819 -2.58673e-19)
(0.538057 0.22738 -5.88379e-20)
(0.566791 0.213847 1.40735e-19)
(0.593896 0.201165 6.68148e-20)
(0.619471 0.189281 -1.98124e-20)
(0.643592 0.178146 1.63196e-20)
(0.666371 0.167714 -4.76407e-19)
(0.688046 0.157892 3.40918e-19)
(0.708287 0.148655 3.18463e-19)
(0.170445 0.298343 2.24869e-19)
(0.22063 0.311476 1.54119e-19)
(0.268304 0.309614 2.93629e-19)
(0.313126 0.299252 4.07653e-20)
(0.355162 0.284842 2.86061e-20)
(0.394611 0.269063 -2.17886e-21)
(0.431693 0.253314 -3.02045e-19)
(0.466595 0.238205 1.59464e-19)
(0.499476 0.223942 -2.58696e-19)
(0.530468 0.210552 1.71586e-19)
(0.559689 0.198002 -2.7714e-19)
(0.58725 0.186242 -1.63626e-19)
(0.613249 0.175222 3.33052e-19)
(0.637768 0.164898 2.96785e-20)
(0.660918 0.155227 7.5212e-20)
(0.682915 0.146127 3.09124e-20)
(0.703487 0.137563 -3.50779e-19)
(0.159982 0.274645 -1.50756e-19)
(0.209792 0.286585 9.60233e-20)
(0.257602 0.284756 -2.16688e-19)
(0.302844 0.275144 1.65878e-19)
(0.345428 0.26184 2.35546e-20)
(0.385466 0.2473 1.41523e-19)
(0.423127 0.2328 -5.48247e-21)
(0.458582 0.218895 -1.40435e-19)
(0.491981 0.20577 1.38973e-19)
(0.523457 0.193449 -3.61128e-19)
(0.553129 0.181902 5.07001e-19)
(0.58111 0.171082 1.95265e-19)
(0.607501 0.160943 -4.11105e-19)
(0.632387 0.151443 4.15959e-20)
(0.65588 0.142546 2.70832e-19)
(0.678174 0.13418 -3.85331e-19)
(0.699055 0.126301 -1.81727e-21)
(0.150382 0.250467 9.93155e-20)
(0.199854 0.261228 -8.15931e-20)
(0.247795 0.259462 -4.10837e-20)
(0.293424 0.250635 -8.33066e-20)
(0.336512 0.23847 -1.06828e-19)
(0.377089 0.225197 -2.98221e-19)
(0.415282 0.211971 1.30847e-19)
(0.451243 0.199293 -1.83947e-19)
(0.485116 0.187327 3.39756e-19)
(0.517035 0.176095 2.30965e-19)
(0.54712 0.165567 -4.09558e-19)
(0.575485 0.155703 -4.14264e-19)
(0.602235 0.14646 1.98627e-19)
(0.627458 0.137799 -2.22971e-19)
(0.651264 0.129689 -2.76304e-20)
(0.673831 0.122066 2.20866e-19)
(0.694994 0.114883 -4.11336e-19)
(0.141666 0.225852 -1.59846e-19)
(0.190838 0.235448 -2.30413e-19)
(0.238901 0.233772 3.39863e-19)
(0.284883 0.22576 4.72737e-20)
(0.32843 0.214763 1.71956e-19)
(0.369496 0.202784 1.8243e-19)
(0.408171 0.190856 -4.34519e-20)
(0.44459 0.179424 2.58201e-19)
(0.478893 0.168637 -1.5323e-19)
(0.511212 0.15851 -1.99724e-19)
(0.541671 0.149019 3.20389e-19)
(0.570385 0.140125 3.66314e-19)
(0.59746 0.131791 -4.23234e-19)
(0.622988 0.123982 5.82882e-20)
(0.647078 0.11667 -3.91247e-20)
(0.669892 0.1098 -1.38324e-19)
(0.691312 0.103323 5.51113e-20)
(0.133855 0.200846 1.76053e-19)
(0.182761 0.209287 1.27715e-19)
(0.230936 0.207726 -1.83642e-19)
(0.277236 0.200556 8.67804e-20)
(0.321195 0.190754 9.85819e-20)
(0.362698 0.180092 -3.11554e-19)
(0.401804 0.169482 1.53582e-19)
(0.438632 0.159317 1.74721e-20)
(0.47332 0.149724 1.48777e-19)
(0.505998 0.140719 -1.94047e-19)
(0.536791 0.132278 2.4494e-20)
(0.565817 0.124368 -1.5429e-20)
(0.593182 0.116955 2.13674e-20)
(0.618983 0.11001 1.32065e-19)
(0.643327 0.103505 2.37572e-20)
(0.666361 0.0973973 -2.94976e-20)
(0.688012 0.0916344 3.5387e-21)
(0.126965 0.175492 -2.64247e-20)
(0.17564 0.182788 1.5708e-19)
(0.223916 0.181365 -1.99453e-19)
(0.270498 0.175062 5.00917e-20)
(0.314818 0.166478 -1.78053e-19)
(0.356707 0.157154 3.41354e-22)
(0.396192 0.147881 -2.89027e-19)
(0.433381 0.138998 -2.11623e-19)
(0.468406 0.130615 1.13938e-19)
(0.5014 0.122745 3.02292e-20)
(0.532487 0.115367 -8.06321e-20)
(0.561787 0.108452 1.08636e-19)
(0.589408 0.101971 7.98371e-20)
(0.615449 0.0958983 1.34553e-19)
(0.640017 0.090211 6.66234e-20)
(0.663245 0.0848724 1.53872e-19)
(0.6851 0.0798324 6.23831e-20)
(0.0747041 0.131982 2.56811e-19)
(0.121011 0.149835 -1.00752e-19)
(0.169489 0.155996 -4.64545e-20)
(0.217853 0.154729 -8.89243e-20)
(0.264678 0.149315 8.66271e-21)
(0.309311 0.141969 6.34898e-20)
(0.351532 0.134 1.97608e-19)
(0.391343 0.12608 2.4345e-19)
(0.428842 0.118493 9.49407e-20)
(0.464159 0.111334 -2.29933e-20)
(0.497424 0.10461 -4.99084e-20)
(0.528765 0.0983065 -1.26554e-19)
(0.558301 0.0923973 1.54275e-20)
(0.586143 0.086858 -1.50481e-20)
(0.612392 0.0816663 -1.10222e-19)
(0.637152 0.0768042 -1.1353e-20)
(0.660547 0.0722412 -2.22297e-19)
(0.682578 0.0679311 4.30432e-21)
(0.0702535 0.109221 -1.05098e-19)
(0.116008 0.123923 -5.56705e-21)
(0.164321 0.128956 -1.20227e-20)
(0.212759 0.12786 5.93533e-20)
(0.259788 0.123353 -1.87237e-19)
(0.304683 0.117262 -7.374e-20)
(0.347182 0.110664 -1.26586e-19)
(0.387266 0.10411 5.03906e-21)
(0.425025 0.0978323 4.26556e-20)
(0.460585 0.0919064 9.61304e-20)
(0.494078 0.0863404 -1.91472e-20)
(0.525631 0.0811197 8.49675e-20)
(0.555365 0.0762245 -4.18669e-20)
(0.583392 0.0716345 -1.526e-19)
(0.609814 0.0673316 -1.62931e-20)
(0.634736 0.0633013 -3.55098e-20)
(0.658271 0.0595194 1.69854e-19)
(0.680451 0.0559452 -2.92202e-20)
(0.0666572 0.0862615 -2.46177e-20)
(0.111966 0.0978015 5.43866e-20)
(0.160145 0.101712 4.25512e-20)
(0.208643 0.100801 1.21332e-20)
(0.255836 0.0972156 1.44582e-19)
(0.300941 0.0923933 -3.92862e-20)
(0.343663 0.087179 3.52057e-20)
(0.383966 0.0820016 4.20217e-20)
(0.421934 0.0770424 2.94012e-20)
(0.457689 0.0723594 -8.02349e-20)
(0.491365 0.0679586 1.06302e-19)
(0.523089 0.0638288 8.0489e-20)
(0.552983 0.0599546 -3.18501e-20)
(0.581158 0.0563204 1.3007e-19)
(0.607721 0.0529123 2.05136e-19)
(0.632773 0.0497191 -3.02841e-20)
(0.656421 0.0467227 7.72203e-20)
(0.678721 0.0438895 -3.51182e-20)
(0.063924 0.063147 1.67193e-20)
(0.108894 0.0715171 -8.60754e-20)
(0.156971 0.0743103 4.46293e-20)
(0.205512 0.0735942 1.31897e-19)
(0.252828 0.0709413 -1.06535e-19)
(0.298091 0.0673984 -6.20972e-21)
(0.340981 0.063577 2.7777e-20)
(0.381449 0.059785 6.21928e-20)
(0.419574 0.0561519 5.90009e-21)
(0.455477 0.0527187 -2.02053e-20)
(0.489291 0.0494895 -3.29213e-20)
(0.521144 0.0464564 -3.50395e-20)
(0.551158 0.0436087 1.34732e-20)
(0.579446 0.0409353 1.36633e-20)
(0.606115 0.0384265 -6.91206e-20)
(0.631266 0.0360747 -6.80727e-21)
(0.654999 0.0338673 -1.66716e-19)
(0.67739 0.0317788 6.98984e-20)
(0.0620601 0.0399228 -7.9556e-21)
(0.106797 0.0451173 3.64991e-20)
(0.154803 0.0467962 -2.14149e-20)
(0.203372 0.0462819 -6.76189e-20)
(0.250769 0.0445694 3.28881e-20)
(0.296137 0.0423135 -7.81463e-22)
(0.33914 0.0398915 -9.59537e-20)
(0.379719 0.0374909 5.85528e-20)
(0.417948 0.0351893 -3.96807e-20)
(0.453951 0.0330107 3.1628e-20)
(0.487857 0.0309577 -2.61439e-20)
(0.519797 0.0290255 1.38329e-20)
(0.549892 0.027208 2.52279e-20)
(0.578257 0.0254989 -7.43528e-20)
(0.604997 0.0238927 7.03408e-21)
(0.630215 0.0223852 -3.36081e-21)
(0.654006 0.0209692 4.23496e-20)
(0.67646 0.0196281 9.4672e-22)
(0.0610695 0.0166341 5.48886e-21)
(0.105681 0.0186496 6.87856e-21)
(0.153645 0.0192158 -1.36956e-20)
(0.202225 0.0189071 2.64119e-20)
(0.249662 0.0181395 -1.04686e-20)
(0.295084 0.0171747 3.27821e-20)
(0.338142 0.0161561 3.01859e-20)
(0.378777 0.0151503 -3.77904e-20)
(0.41706 0.0141832 -1.39963e-20)
(0.453112 0.0132621 1.91698e-20)
(0.487066 0.0123877 -1.34964e-20)
(0.519051 0.0115588 -1.7365e-20)
(0.549188 0.0107738 1.54467e-21)
(0.577592 0.010031 1.8049e-20)
(0.604371 0.00932928 3.53893e-20)
(0.629624 0.00866785 2.65093e-21)
(0.653445 0.00804459 3.96192e-21)
(0.675932 0.00745249 1.75407e-20)
(0.0609543 -0.00667364 4.3729e-21)
(0.105547 -0.00783844 8.15334e-21)
(0.1535 -0.00838492 -6.90299e-21)
(0.202075 -0.00848719 2.50084e-20)
(0.24951 -0.00830894 -1.39083e-20)
(0.29493 -0.00798149 3.62201e-20)
(0.337989 -0.00759592 2.22807e-20)
(0.378625 -0.007206 -2.9983e-20)
(0.416909 -0.00683778 -1.10175e-20)
(0.452963 -0.00650062 1.37257e-20)
(0.486919 -0.0061956 -1.14494e-20)
(0.518906 -0.00592062 -2.23568e-20)
(0.549046 -0.00567261 5.94859e-21)
(0.577453 -0.00544847 1.60735e-20)
(0.604235 -0.00524522 3.63782e-20)
(0.629492 -0.00506013 3.12774e-21)
(0.653316 -0.00489031 2.76866e-21)
(0.675806 -0.00473296 1.87114e-20)
(0.0617141 -0.029955 2.97224e-20)
(0.106394 -0.0342993 2.28867e-20)
(0.154367 -0.0359598 -1.85812e-20)
(0.202921 -0.035858 -1.10842e-19)
(0.250311 -0.0347363 6.73259e-20)
(0.295678 -0.0331189 -1.11498e-20)
(0.338681 -0.031331 -5.25931e-20)
(0.379262 -0.029547 7.44415e-24)
(0.417496 -0.0278449 -2.92019e-20)
(0.453503 -0.0262508 3.82256e-20)
(0.487416 -0.0247676 -3.84555e-20)
(0.519363 -0.0233899 3.2514e-20)
(0.549466 -0.0221098 1.22876e-20)
(0.57784 -0.0209197 -5.91894e-20)
(0.604591 -0.0198123 1.78336e-20)
(0.629819 -0.0187815 -2.91755e-21)
(0.653619 -0.0178193 3.1379e-20)
(0.676083 -0.0169132 3.24025e-21)
(0.0633463 -0.0531644 -4.49536e-20)
(0.10822 -0.0606855 -7.02442e-20)
(0.156244 -0.0634629 8.08688e-20)
(0.204759 -0.0631625 1.2398e-19)
(0.252064 -0.0611032 -1.11069e-19)
(0.297324 -0.0582012 2.93693e-20)
(0.340215 -0.0550157 1.42749e-20)
(0.380688 -0.0518419 7.15811e-20)
(0.418819 -0.0488096 -1.93819e-20)
(0.454731 -0.045962 -6.68664e-20)
(0.488555 -0.0433037 1.36982e-20)
(0.52042 -0.040826 -5.16012e-20)
(0.550448 -0.0385165 4.12141e-20)
(0.578751 -0.0363629 1.17053e-20)
(0.605437 -0.0343536 -9.22083e-20)
(0.630605 -0.032479 5.5022e-21)
(0.654352 -0.0307262 -1.3494e-19)
(0.676762 -0.0290732 3.04318e-20)
(0.0658462 -0.0762569 2.27244e-20)
(0.111021 -0.0869494 3.0787e-20)
(0.159126 -0.0908484 -5.67805e-20)
(0.207587 -0.0903577 1.06593e-20)
(0.254765 -0.0873701 1.85055e-19)
(0.299866 -0.0831922 1.8916e-20)
(0.34259 -0.0786168 3.83927e-20)
(0.382899 -0.0740598 5.32709e-21)
(0.420876 -0.0697033 6.44609e-20)
(0.456644 -0.0656076 -7.16595e-20)
(0.490334 -0.0617792 1.0165e-19)
(0.522076 -0.058206 3.01744e-21)
(0.551988 -0.0548714 -2.56822e-20)
(0.580185 -0.0517581 1.96654e-19)
(0.606771 -0.0488505 1.5311e-19)
(0.631848 -0.0461355 -7.94618e-20)
(0.655515 -0.0435948 1.05157e-19)
(0.677841 -0.0411979 -2.29557e-21)
(0.0692068 -0.0991872 -1.59968e-19)
(0.114789 -0.113044 7.03152e-21)
(0.163007 -0.11807 -2.87971e-20)
(0.211398 -0.117401 -4.61226e-21)
(0.258408 -0.113498 -9.3939e-20)
(0.303298 -0.108056 -1.08943e-19)
(0.3458 -0.102101 -4.55089e-20)
(0.385892 -0.09617 -1.56662e-19)
(0.423663 -0.0904976 1.75555e-19)
(0.459238 -0.0851612 3.60455e-20)
(0.492751 -0.0801695 -7.30481e-20)
(0.524326 -0.0755073 1.24712e-19)
(0.554085 -0.0711533 -5.42275e-20)
(0.582139 -0.0670858 -1.23151e-19)
(0.608592 -0.0632848 -2.89858e-20)
(0.633546 -0.0597339 -3.88743e-20)
(0.657106 -0.056409 6.24182e-20)
(0.67932 -0.0532723 -4.45939e-21)
(0.0734188 -0.121911 1.00415e-20)
(0.119514 -0.138923 -2.48968e-20)
(0.167877 -0.145084 -7.00344e-20)
(0.216185 -0.14425 -3.24328e-20)
(0.262987 -0.139448 -5.82337e-20)
(0.307615 -0.132757 4.09655e-20)
(0.34984 -0.125435 2.43218e-19)
(0.389661 -0.118142 2.11655e-19)
(0.427175 -0.111164 1.33127e-19)
(0.462511 -0.104597 -4.96314e-20)
(0.4958 -0.0984505 2.76601e-20)
(0.527168 -0.0927073 -2.04017e-19)
(0.556735 -0.0873413 7.08651e-20)
(0.58461 -0.0823263 -5.62276e-20)
(0.610896 -0.0776383 -7.94788e-20)
(0.635696 -0.0732572 4.23e-20)
(0.659122 -0.0691529 -3.6064e-19)
(0.681195 -0.0652817 1.30241e-19)
(0.125186 -0.164539 5.06581e-20)
(0.173726 -0.171843 -2.21376e-20)
(0.221937 -0.170863 -3.36332e-20)
(0.268493 -0.165181 -1.10895e-19)
(0.312807 -0.157259 -2.3409e-20)
(0.354702 -0.148587 -1.01633e-20)
(0.394198 -0.139946 -3.79172e-19)
(0.431406 -0.131675 -2.7683e-19)
(0.466454 -0.123888 1.61795e-19)
(0.499476 -0.116598 2.36356e-20)
(0.530597 -0.109783 6.07554e-20)
(0.559933 -0.103414 -5.82093e-20)
(0.587595 -0.0974603 2.96877e-19)
(0.61368 -0.0918929 5.80815e-20)
(0.638294 -0.0866885 8.65059e-20)
(0.661559 -0.0818108 2.02954e-19)
(0.683463 -0.0772112 -1.0844e-19)
(0.13179 -0.189846 6.56011e-20)
(0.180542 -0.198305 5.8812e-20)
(0.228642 -0.197199 -9.01304e-20)
(0.274914 -0.190658 1.55317e-19)
(0.318867 -0.181527 2.20032e-20)
(0.360377 -0.171524 -2.81684e-19)
(0.399498 -0.161552 1.77223e-19)
(0.436348 -0.152003 7.07265e-20)
(0.471063 -0.14301 -8.20781e-20)
(0.503774 -0.134588 2.20864e-20)
(0.534606 -0.126714 1.02374e-20)
(0.563674 -0.119352 -8.40784e-20)
(0.591087 -0.112469 2.13856e-19)
(0.616939 -0.106031 -7.51381e-20)
(0.641337 -0.100011 5.43189e-20)
(0.664414 -0.0943668 1.1569e-19)
(0.686122 -0.0890464 -4.2845e-20)
(0.139312 -0.2148 -8.97313e-20)
(0.188308 -0.224424 -3.23342e-19)
(0.236289 -0.223215 2.17696e-19)
(0.28224 -0.215843 1.04579e-19)
(0.325782 -0.205527 1.79311e-19)
(0.366857 -0.194215 1.93204e-19)
(0.405549 -0.18293 1.2274e-19)
(0.441993 -0.17212 1.61726e-19)
(0.476329 -0.161936 -2.91019e-19)
(0.508687 -0.152397 3.23646e-20)
(0.53919 -0.143476 6.33831e-20)
(0.567953 -0.135134 3.26485e-19)
(0.595081 -0.127332 -1.77507e-19)
(0.620668 -0.120034 -4.46111e-20)
(0.64482 -0.113209 -1.02789e-19)
(0.667683 -0.106806 -6.69724e-20)
(0.689168 -0.100773 1.74266e-19)
(0.147731 -0.239355 2.33456e-21)
(0.197009 -0.250157 -3.61123e-20)
(0.24486 -0.248872 1.41135e-19)
(0.290456 -0.240698 -3.04524e-19)
(0.33354 -0.229224 -1.7307e-20)
(0.374128 -0.216627 -2.71126e-19)
(0.412342 -0.204051 1.53436e-19)
(0.448332 -0.192 -2.46048e-19)
(0.482242 -0.180643 2.37007e-19)
(0.514205 -0.170002 2.10588e-19)
(0.54434 -0.160049 -1.71925e-19)
(0.572761 -0.150741 -5.94873e-19)
(0.599571 -0.142033 3.17586e-19)
(0.624861 -0.133886 -2.55221e-19)
(0.648736 -0.126266 -5.57516e-20)
(0.671359 -0.119112 2.06462e-19)
(0.692595 -0.112376 -1.68937e-19)
(0.15703 -0.263468 -1.35685e-19)
(0.206626 -0.275463 1.70862e-19)
(0.254339 -0.27413 -3.25521e-19)
(0.299546 -0.265186 6.0135e-20)
(0.342128 -0.252585 -6.52298e-21)
(0.382179 -0.23873 3.7291e-19)
(0.419865 -0.224887 -2.31622e-19)
(0.455354 -0.211615 -4.91342e-20)
(0.488794 -0.199104 6.42837e-20)
(0.52032 -0.18738 -8.07914e-20)
(0.550048 -0.176412 3.12884e-19)
(0.578091 -0.166151 1.7299e-19)
(0.60455 -0.156551 -3.47691e-19)
(0.629511 -0.147569 1.88273e-19)
(0.653081 -0.139165 2.58845e-19)
(0.675438 -0.131271 -4.72841e-19)
(0.696399 -0.123842 1.61956e-21)
(0.167185 -0.287095 1.34114e-19)
(0.217136 -0.300297 1.85584e-19)
(0.264706 -0.298949 1.06145e-19)
(0.309494 -0.289271 4.3177e-19)
(0.351529 -0.275576 -5.46406e-20)
(0.390996 -0.260493 1.75999e-19)
(0.428106 -0.245409 -6.14023e-19)
(0.463046 -0.230941 3.49985e-19)
(0.495974 -0.217297 -2.15465e-19)
(0.527021 -0.204509 6.3047e-20)
(0.556305 -0.192543 -3.38941e-19)
(0.583936 -0.181347 -2.69117e-20)
(0.61001 -0.170871 2.73092e-19)
(0.634611 -0.161066 4.57348e-20)
(0.657847 -0.151892 -1.32311e-20)
(0.679914 -0.143268 2.23735e-20)
(0.700575 -0.135157 -3.01812e-19)
(0.178171 -0.310196 -1.87163e-19)
(0.228519 -0.324621 1.54686e-20)
(0.275942 -0.323291 1.67154e-19)
(0.320281 -0.312917 -3.75737e-19)
(0.361727 -0.298165 3.96009e-20)
(0.400563 -0.281886 -4.40795e-19)
(0.437049 -0.26559 4.87147e-19)
(0.471396 -0.249951 -1.27634e-19)
(0.503768 -0.235198 -1.44497e-19)
(0.534298 -0.221367 4.10101e-21)
(0.563101 -0.208423 1.647e-21)
(0.590284 -0.19631 2.55502e-19)
(0.615942 -0.184973 -3.73332e-20)
(0.640153 -0.174362 -3.23918e-19)
(0.663027 -0.164431 -4.01134e-19)
(0.684778 -0.155089 4.66821e-19)
(0.705116 -0.146308 2.93818e-19)
(0.189963 -0.332727 2.17197e-19)
(0.240748 -0.348393 -3.35388e-19)
(0.288023 -0.347118 -3.17967e-19)
(0.331887 -0.336091 1.26967e-19)
(0.372704 -0.320321 -5.30638e-19)
(0.410863 -0.302881 5.32113e-19)
(0.44668 -0.285404 -2.31964e-19)
(0.480391 -0.268621 -2.33808e-19)
(0.512165 -0.252784 2.07411e-20)
(0.542139 -0.237933 -6.50256e-22)
(0.570425 -0.224031 -2.92917e-20)
(0.597126 -0.21102 1.96932e-19)
(0.622337 -0.19884 -1.8677e-19)
(0.646129 -0.18744 9.61971e-20)
(0.668613 -0.176767 2.08358e-19)
(0.690024 -0.16672 -2.61075e-19)
(0.710017 -0.157281 -5.35384e-20)
(0.202532 -0.354651 -3.10229e-20)
(0.253796 -0.371574 2.37025e-19)
(0.300925 -0.370394 2.12543e-19)
(0.344289 -0.358757 -3.34247e-19)
(0.38444 -0.342012 1.79703e-19)
(0.421879 -0.323449 -1.38246e-19)
(0.456983 -0.304824 -9.64102e-21)
(0.490013 -0.286926 3.50181e-20)
(0.521151 -0.270031 -8.35522e-20)
(0.550531 -0.254185 1.65635e-19)
(0.578264 -0.239348 -8.99777e-20)
(0.604452 -0.22546 -2.67268e-19)
(0.629184 -0.212457 3.80466e-19)
(0.652529 -0.200284 2.35956e-19)
(0.674597 -0.188886 -3.02341e-19)
(0.695644 -0.178146 1.75216e-19)
(0.715269 -0.168064 2.55523e-19)
(0.267636 -0.394127 4.58336e-20)
(0.314623 -0.393083 1.69123e-19)
(0.357465 -0.380884 3.3436e-19)
(0.396914 -0.363209 2.51756e-19)
(0.433591 -0.343563 4.85286e-19)
(0.46794 -0.323824 -4.44148e-20)