/*--------------------------------*- C++ -*----------------------------------*\
  =========                 |
  \\      /  F ield         | OpenFOAM: The Open Source CFD Toolbox
   \\    /   O peration     | Website:  https://openfoam.org
    \\  /    A nd           | Version:  7
     \\/     M anipulation  |
\*---------------------------------------------------------------------------*/
FoamFile
{
    version     2.0;
    format      ascii;
    class       volScalarField;
    location    "5";
    object      p;
}
// * * * * * * * * * * * * * * * * * * * * * * * * * * * * * * * * * * * * * //

dimensions      [0 2 -2 0 0 0 0];

internalField   nonuniform List<scalar> 
8500
(
-0.439643
-0.415512
-0.386446
-0.352533
-0.314138
-0.271961
-0.227066
-0.180836
-0.134864
-0.0907866
-0.0500682
-0.0139435
0.0168675
0.0420628
0.061725
0.0762341
0.0861636
0.0921855
0.094993
0.0952478
0.0935455
0.0904025
0.0862474
0.0814305
0.0762232
0.0708408
0.0654331
0.0601237
0.0549757
0.0500617
0.0453813
0.0409916
0.0368366
0.0329925
0.0293376
0.0260099
0.0227879
0.0199324
0.017052
0.0146282
0.0119703
0.00994855
0.00734663
0.00572013
0.00292737
0.00174258
-0.440396
-0.416312
-0.387288
-0.353405
-0.315025
-0.272841
-0.227919
-0.181641
-0.135607
-0.091458
-0.0506608
-0.0144653
0.0164119
0.0416671
0.061382
0.0759375
0.0859077
0.0919652
0.0948037
0.0950856
0.093407
0.0902844
0.0861469
0.0813452
0.0761509
0.0707796
0.0653812
0.0600798
0.0549386
0.0500303
0.0453549
0.0409693
0.0368178
0.0329767
0.0293246
0.025999
0.022779
0.019925
0.017046
0.0146233
0.0119666
0.00994553
0.00734457
0.00571839
0.00292668
0.00174169
-0.441878
-0.417891
-0.38895
-0.355128
-0.316777
-0.274583
-0.229608
-0.183238
-0.137081
-0.0927929
-0.0518397
-0.0155049
0.0155036
0.0408772
0.0606971
0.0753449
0.085396
0.0915245
0.0944251
0.0947612
0.0931298
0.0900482
0.085946
0.0811747
0.0760063
0.0706571
0.0652776
0.0599921
0.0548645
0.0499677
0.045302
0.0409247
0.0367804
0.0329454
0.0292984
0.0259773
0.0227611
0.0199104
0.0170342
0.0146137
0.0119592
0.00993948
0.00734044
0.00571489
0.00292531
0.00173991
-0.444049
-0.420204
-0.39139
-0.357662
-0.319358
-0.277152
-0.232103
-0.1856
-0.139267
-0.0947757
-0.0535924
-0.0170539
0.0141479
0.0396965
0.0596721
0.0744572
0.0846291
0.0908636
0.0938572
0.0942746
0.092714
0.0896938
0.0856446
0.0809189
0.0757895
0.0704736
0.0651223
0.0598608
0.0547535
0.049874
0.045223
0.0408581
0.0367244
0.0328984
0.0292593
0.0259448
0.0227344
0.0198884
0.0170165
0.0145993
0.011948
0.00993042
0.00733425
0.00570966
0.00292326
0.00173725
-0.446846
-0.423193
-0.394548
-0.360947
-0.322713
-0.280499
-0.235361
-0.188692
-0.142133
-0.0973842
-0.0559014
-0.0191001
0.0123528
0.0381301
0.05831
0.0732761
0.0836077
0.0899828
0.0931001
0.0936258
0.0921596
0.0892214
0.085243
0.0805781
0.0755008
0.0702292
0.0649156
0.0596861
0.0546059
0.0497493
0.0451178
0.0407695
0.0366499
0.032836
0.0292073
0.0259016
0.0226989
0.0198592
0.016993
0.0145801
0.0119332
0.00991837
0.00732601
0.0057027
0.00292052
0.00173371
-0.450194
-0.426779
-0.398347
-0.364911
-0.326772
-0.28456
-0.239325
-0.192464
-0.145643
-0.10059
-0.058744
-0.0216274
0.0101289
0.0361847
0.0566149
0.0718038
0.0823331
0.0888829
0.0921542
0.092815
0.0914669
0.0886312
0.0847414
0.0801526
0.0751404
0.0699243
0.0646579
0.0594683
0.054422
0.0495941
0.0449868
0.0406592
0.0365573
0.0327584
0.0291426
0.0258478
0.0226546
0.0198228
0.0169637
0.0145562
0.0119147
0.00990332
0.00731573
0.00569401
0.00291711
0.00172932
-0.454006
-0.430875
-0.402702
-0.369468
-0.331456
-0.289262
-0.243933
-0.196864
-0.14975
-0.104362
-0.0620907
-0.0246175
0.0074891
0.033869
0.0545924
0.070044
0.0808074
0.0875653
0.0910204
0.0918429
0.0906363
0.0879236
0.0841401
0.0796428
0.0747088
0.0695593
0.0643495
0.0592079
0.0542021
0.0494085
0.0448304
0.0405274
0.0364466
0.0326656
0.0290653
0.0257836
0.0226017
0.0197793
0.0169286
0.0145275
0.0118926
0.00988532
0.00730342
0.00568361
0.00291301
0.00172409
-0.458186
-0.435386
-0.407517
-0.374526
-0.336675
-0.294525
-0.24911
-0.201827
-0.154405
-0.108677
-0.0658925
-0.0280503
0.0044487
0.0311934
0.0522494
0.0680013
0.0790338
0.0860318
0.0897
0.0907105
0.0896686
0.0870993
0.0834399
0.0790493
0.0742065
0.0691348
0.063991
0.0589053
0.0539468
0.0491931
0.0446489
0.0403746
0.0363182
0.032558
0.0289755
0.025709
0.0225403
0.0197287
0.0168878
0.0144942
0.0118669
0.00986437
0.0072891
0.00567151
0.00290825
0.00171803
-0.462638
-0.440212
-0.412693
-0.379987
-0.342339
-0.300262
-0.254782
-0.207286
-0.159555
-0.113513
-0.0700955
-0.0318999
0.00102495
0.0281703
0.0495948
0.0656815
0.0770164
0.0842855
0.0881953
0.0894195
0.0885652
0.0861595
0.0826417
0.0783729
0.0736344
0.0686514
0.063583
0.058561
0.0536565
0.0489484
0.0444427
0.040201
0.0361724
0.0324358
0.0288736
0.0256242
0.0224705
0.0196712
0.0168414
0.0144564
0.0118376
0.0098405
0.00727278
0.00565773
0.00290282
0.00171116
-0.467262
-0.445253
-0.41813
-0.38575
-0.348349
-0.306385
-0.260866
-0.213175
-0.16514
-0.118581
-0.0748945
-0.0361453
-0.0027622
0.0248142
0.0466387
0.0630922
0.0747606
0.0823304
0.0865092
0.0879722
0.0873279
0.0851056
0.0817468
0.0776147
0.0729933
0.0681101
0.0631263
0.0581759
0.0533319
0.0486749
0.0442124
0.0400071
0.0360096
0.0322993
0.0287598
0.0255295
0.0223925
0.0196069
0.0167895
0.0144139
0.0118048
0.00981374
0.00725449
0.00564227
0.00289672
0.00170351
-0.450412
-0.42373
-0.391719
-0.354611
-0.312806
-0.267285
-0.219429
-0.171102
-0.124058
-0.0800279
-0.0407523
-0.00689086
0.0211415
0.0433934
0.0602424
0.0722731
0.0801716
0.0846458
0.0863716
0.0859592
0.0839397
0.0807567
0.0767762
0.0722846
0.0675119
0.0626218
0.0577507
0.0529737
0.0483731
0.0439583
0.0397934
0.0358301
0.0321489
0.0286343
0.025425
0.0223064
0.0195358
0.0167321
0.014367
0.0117685
0.00978414
0.00723424
0.00562517
0.00288996
0.00169511
-0.455598
-0.429401
-0.397797
-0.361029
-0.319441
-0.273963
-0.225975
-0.17733
-0.129918
-0.0854734
-0.0456894
-0.0113369
0.0171703
0.0398725
0.0571426
0.069562
0.0778153
0.0826098
0.0846217
0.0844622
0.0826642
0.0796737
0.0758591
0.0715095
0.0668579
0.0620705
0.0572863
0.0525825
0.0480438
0.0436812
0.0395603
0.0356344
0.0319848
0.0284974
0.025311
0.0222123
0.0194582
0.0166694
0.0143156
0.0117288
0.00975171
0.00721205
0.00560643
0.00288255
0.00168596
-0.460726
-0.435057
-0.403896
-0.367515
-0.326213
-0.280821
-0.232717
-0.183828
-0.136057
-0.0912024
-0.0509235
-0.0160746
0.0129203
0.0360915
0.0538047
0.0666366
0.0752689
0.0804071
0.082727
0.0828406
0.0812822
0.0785
0.0748652
0.0706698
0.0661495
0.0614736
0.0567836
0.0521594
0.0476877
0.0433816
0.0393083
0.0354229
0.0318074
0.0283493
0.0251876
0.0221105
0.0193741
0.0166014
0.01426
0.0116857
0.0097165
0.00718795
0.00558609
0.0028745
0.00167611
-0.465719
-0.440621
-0.409938
-0.374009
-0.333025
-0.287753
-0.239612
-0.190525
-0.142424
-0.0971766
-0.0564205
-0.0210773
0.00841266
0.0320669
0.0502418
0.0635074
0.0725407
0.0780443
0.0806929
0.0810986
0.079797
0.0772386
0.073797
0.0697673
0.0653883
0.0608323
0.0562438
0.0517051
0.0473054
0.0430601
0.039038
0.0351959
0.0316171
0.0281904
0.0250552
0.0220012
0.0192837
0.0165282
0.0142
0.0116392
0.00967854
0.00716197
0.00556415
0.0028658
0.00166558
-0.470515
-0.446048
-0.415831
-0.380447
-0.339751
-0.294711
-0.246601
-0.197356
-0.148971
-0.103356
-0.062146
-0.0263172
0.00366967
0.0278166
0.0464683
0.0601859
0.06964
0.0755289
0.0785254
0.0792411
0.0782127
0.0758924
0.0726569
0.0688041
0.064576
0.0601481
0.0556679
0.0512206
0.0468979
0.0427174
0.03875
0.0349541
0.0314143
0.028021
0.0249139
0.0218844
0.0191871
0.0164501
0.0141359
0.0115895
0.00963789
0.00713412
0.00554065
0.00285647
0.0016544
-0.475057
-0.451309
-0.421465
-0.386678
-0.346433
-0.301633
-0.253607
-0.204266
-0.155648
-0.1097
-0.0680655
-0.031766
-0.00128569
0.0233593
0.0424994
0.0566844
0.0665767
0.0728691
0.0762311
0.0772734
0.0765334
0.0744651
0.0714478
0.0677824
0.0637144
0.0594224
0.0550572
0.050707
0.0464659
0.0423543
0.0384447
0.0346978
0.0311993
0.0278414
0.024764
0.0217605
0.0190846
0.016367
0.0140676
0.0115366
0.00959457
0.00710445
0.00551561
0.00284652
0.00164259
-0.479279
-0.456077
-0.427061
-0.392743
-0.352943
-0.308449
-0.260573
-0.211202
-0.162407
-0.116169
-0.0741449
-0.0373952
-0.00642984
0.0187144
0.0383509
0.053016
0.0633615
0.0700733
0.0738169
0.0752011
0.0747637
0.0729602
0.0701725
0.0667046
0.0628054
0.0586568
0.054413
0.0501652
0.0460103
0.0419713
0.0381228
0.0344276
0.0309725
0.0276519
0.0246057
0.0216296
0.0189761
0.016279
0.0139954
0.0114805
0.00954864
0.00707297
0.00548905
0.00283594
0.00163019
-0.483166
-0.460582
-0.432312
-0.398552
-0.359236
-0.31511
-0.267448
-0.218115
-0.169204
-0.122725
-0.0803506
-0.0431764
-0.011739
0.0139017
0.0340393
0.049194
0.0600054
0.0671507
0.0712901
0.0730302
0.0729084
0.0713817
0.0688342
0.0655733
0.061851
0.057853
0.0537366
0.0495963
0.045532
0.0415693
0.0377848
0.0341438
0.0307344
0.0274528
0.0244394
0.021492
0.0188619
0.0161864
0.0139192
0.0114213
0.00950015
0.00703971
0.00546101
0.00282475
0.00161721
-0.486684
-0.464756
-0.4372
-0.404052
-0.365274
-0.321571
-0.274184
-0.224957
-0.175995
-0.12933
-0.0866501
-0.0490816
-0.0171895
0.00894108
0.0295812
0.0452323
0.0565197
0.0641105
0.0686584
0.0707668
0.0709725
0.0697335
0.0674363
0.0643911
0.0608535
0.0570126
0.0530293
0.0490015
0.0450319
0.0411489
0.0374314
0.0338471
0.0304853
0.0272445
0.0242652
0.0213477
0.0187422
0.0160892
0.0138391
0.0113592
0.00944913
0.00700471
0.00543149
0.00281296
0.00160369
-0.489809
-0.468553
-0.441714
-0.409211
-0.371017
-0.327787
-0.280738
-0.231688
-0.182743
-0.13595
-0.093012
-0.0550837
-0.0227579
0.00385239
0.0249932
0.0411448
0.052916
0.0609621
0.0659294
0.0684173
0.0689611
0.0680198
0.0659819
0.0631606
0.0598148
0.0561374
0.0522927
0.0483819
0.0445109
0.0407109
0.0370632
0.0335379
0.0302256
0.0270272
0.0240835
0.0211971
0.0186171
0.0159875
0.0137553
0.011294
0.00939563
0.006968
0.00540054
0.00280058
0.00158964
-0.492528
-0.471952
-0.445834
-0.414003
-0.37643
-0.333723
-0.287073
-0.238269
-0.18941
-0.142551
-0.0994068
-0.0611562
-0.0284213
-0.00134478
0.0202918
0.0369452
0.0492056
0.057715
0.0631108
0.0659878
0.0668793
0.0662448
0.0644745
0.0618845
0.0587373
0.0552292
0.051528
0.0477386
0.0439699
0.040256
0.0366808
0.0332166
0.0299558
0.0268013
0.0238944
0.0210403
0.0184867
0.0158815
0.0136678
0.011226
0.00933971
0.00692959
0.00536818
0.00278761
0.0015751
-0.474941
-0.449544
-0.418404
-0.381485
-0.339348
-0.293156
-0.244667
-0.195965
-0.149104
-0.105806
-0.067274
-0.0341577
-0.00663135
0.0154933
0.0326472
0.0454
0.0543785
0.0602105
0.0634847
0.0647323
0.0644125
0.0629174
0.0605657
0.0576231
0.0542896
0.0507367
0.0470728
0.0434097
0.039785
0.0362847
0.0328838
0.0296761
0.0265671
0.0236983
0.0208775
0.0183512
0.0157712
0.0135768
0.0111551
0.00928141
0.00688953
0.00533442
0.00277406
0.00156009
-0.477508
-0.452831
-0.422398
-0.38616
-0.344638
-0.298961
-0.250854
-0.202379
-0.15558
-0.112185
-0.0734133
-0.0399458
-0.0119889
0.0106136
0.0282642
0.0415102
0.0509619
0.0572358
0.0609142
0.062525
0.0625271
0.0613139
0.0592066
0.0564743
0.0533205
0.0499202
0.0463855
0.0428314
0.0392986
0.0358755
0.0325399
0.0293871
0.0263249
0.0234954
0.020709
0.0182108
0.0156569
0.0134823
0.0110814
0.00922077
0.00684784
0.00529931
0.00275994
0.00154463
-0.479649
-0.455689
-0.425973
-0.39044
-0.349571
-0.304464
-0.256805
-0.208626
-0.161955
-0.118518
-0.079552
-0.0457655
-0.0173996
0.00566776
0.0238091
0.0375471
0.0474742
0.0541944
0.0582824
0.0602625
0.0605927
0.0596673
0.0578101
0.0552931
0.0523235
0.0490799
0.0456779
0.0422358
0.0387975
0.0354539
0.0321854
0.0290889
0.0260751
0.0232858
0.0205348
0.0180656
0.0155385
0.0133843
0.0110051
0.00915786
0.00680456
0.00526287
0.00274527
0.00152873
-0.481362
-0.458113
-0.429121
-0.394312
-0.354134
-0.309649
-0.262501
-0.214685
-0.168206
-0.124784
-0.0856692
-0.051598
-0.0228468
0.000670452
0.0192942
0.0335212
0.043924
0.0510932
0.0555951
0.0579495
0.058613
0.0579808
0.0563786
0.0540816
0.0513003
0.0482171
0.044951
0.0416238
0.0382825
0.0350203
0.0318208
0.0287822
0.0258178
0.0230699
0.0203553
0.0179158
0.0154163
0.013283
0.0109261
0.00909271
0.00675971
0.00522511
0.00273004
0.00151241
-0.482649
-0.460103
-0.431838
-0.39777
-0.358315
-0.314501
-0.267925
-0.220538
-0.174315
-0.130964
-0.0917461
-0.0574256
-0.0283147
-0.0043645
0.0147316
0.0294424
0.0403197
0.0479393
0.0528581
0.0555908
0.056592
0.0562574
0.0549146
0.0528417
0.0502526
0.0473331
0.044206
0.0409962
0.037754
0.0345753
0.0314464
0.0284671
0.0255534
0.0228479
0.0201705
0.0177615
0.0152903
0.0131785
0.0108445
0.00902537
0.00671331
0.00518608
0.00271428
0.00149569
-0.483511
-0.46166
-0.434123
-0.400809
-0.362109
-0.319011
-0.273065
-0.22617
-0.180264
-0.13704
-0.0977653
-0.063232
-0.0337884
-0.00942406
0.0101323
0.0253203
0.0366693
0.0447393
0.0500768
0.0531907
0.0545333
0.0545002
0.0534206
0.0515754
0.0491819
0.0464292
0.0434438
0.0403539
0.037213
0.0341195
0.0310627
0.028144
0.0252822
0.02262
0.0199807
0.0176028
0.0151606
0.0130709
0.0107604
0.00895589
0.00666542
0.00514579
0.00269799
0.00147859
-0.483954
-0.462786
-0.435978
-0.40343
-0.365513
-0.323175
-0.277913
-0.23157
-0.18604
-0.142996
-0.103711
-0.0690023
-0.0392542
-0.014496
0.00550693
0.0211639
0.0329804
0.0414994
0.0472564
0.0507536
0.0524404
0.0527119
0.0518989
0.0502847
0.0480897
0.0455066
0.0426654
0.0396976
0.0366599
0.0336533
0.0306702
0.0278133
0.0250044
0.0223864
0.0197861
0.0174399
0.0150274
0.0129602
0.0106738
0.00888432
0.00661604
0.00510427
0.00268117
0.0014611
-0.463487
-0.437406
-0.405637
-0.368528
-0.326991
-0.282464
-0.236729
-0.191632
-0.14882
-0.109571
-0.074723
-0.0446995
-0.0195691
0.000865444
0.0169816
0.02926
0.0382257
0.0444018
0.0482836
0.0503166
0.0508954
0.0503517
0.0489713
0.0469775
0.0445665
0.0418719
0.0390281
0.0360954
0.0331774
0.0302692
0.0274752
0.0247203
0.0221474
0.0195867
0.0172729
0.0148907
0.0128465
0.0105848
0.0088107
0.0065652
0.00506155
0.00266385
0.00144325
-0.46377
-0.438414
-0.407433
-0.371159
-0.33046
-0.286715
-0.241641
-0.19703
-0.154501
-0.115331
-0.0803819
-0.0501128
-0.0246328
-0.00378293
0.0127814
0.025515
0.0349237
0.0415178
0.0457844
0.0481651
0.0490531
0.0487812
0.0476369
0.0458468
0.0436101
0.041064
0.0383461
0.0355202
0.032692
0.0298601
0.0271302
0.0244302
0.0219031
0.0193829
0.017102
0.0147507
0.01273
0.0104935
0.00873508
0.00651295
0.00501764
0.00264603
0.00142503
-0.463641
-0.43901
-0.40883
-0.373413
-0.333586
-0.290668
-0.246304
-0.202228
-0.160029
-0.120981
-0.0859676
-0.0554833
-0.0296772
-0.00842947
0.00857089
0.0217518
0.031599
0.0386089
0.0432599
0.045989
0.0471877
0.0471892
0.0462831
0.0446987
0.0426384
0.0402427
0.0376524
0.0349347
0.0321978
0.0294434
0.0267785
0.0241343
0.0216537
0.0191746
0.0169273
0.0146075
0.0126106
0.0103999
0.00865751
0.00645929
0.00497259
0.00262772
0.00140645
-0.463112
-0.439206
-0.409837
-0.3753
-0.336379
-0.294326
-0.250715
-0.207221
-0.165397
-0.126512
-0.0914711
-0.0608018
-0.0346939
-0.0130665
0.00435675
0.0179761
0.0282563
0.035679
0.0407134
0.043791
0.0453013
0.0455779
0.0449116
0.0435347
0.0416524
0.0394088
0.0369477
0.0343395
0.0316951
0.0290192
0.0264203
0.0238328
0.0213995
0.0189622
0.0167489
0.0144611
0.0124884
0.0103041
0.00857803
0.00640427
0.0049264
0.00260893
0.00138752
-0.462193
-0.439015
-0.41047
-0.376834
-0.338848
-0.297697
-0.25488
-0.212009
-0.170602
-0.13192
-0.0968867
-0.0660625
-0.0396769
-0.0176886
0.000143995
0.0141924
0.0248995
0.0327317
0.0381477
0.0415735
0.0433961
0.0439487
0.0435237
0.0423558
0.0406531
0.038563
0.0362325
0.0337352
0.0311844
0.0285881
0.026056
0.023526
0.0211406
0.0187457
0.0165669
0.0143117
0.0123636
0.0102061
0.00849668
0.0063479
0.00487911
0.00258968
0.00136824
-0.460898
-0.438454
-0.410745
-0.378032
-0.341009
-0.300792
-0.258805
-0.216595
-0.175642
-0.137201
-0.102209
-0.0712594
-0.0446205
-0.0222902
-0.0040624
0.010405
0.0215325
0.0297699
0.0355655
0.0393388
0.0414737
0.0423032
0.0421207
0.0411631
0.0396414
0.0377062
0.0355074
0.0331222
0.0306661
0.0281503
0.0256859
0.023214
0.0208772
0.0185252
0.0163814
0.0141593
0.0122362
0.010106
0.00841351
0.00629021
0.00483075
0.00256997
0.0013486
-0.437537
-0.410677
-0.378904
-0.342864
-0.303605
-0.262476
-0.22096
-0.180497
-0.142332
-0.107416
-0.0763717
-0.0495059
-0.0268553
-0.00824916
0.00662481
0.0181638
0.0268007
0.0329722
0.037091
0.0395376
0.040644
0.0407045
0.039958
0.0386183
0.0368391
0.0347732
0.0325011
0.0301406
0.0277061
0.0253102
0.0228972
0.0206095
0.018301
0.0161926
0.0140041
0.0121063
0.0100039
0.00832855
0.00623123
0.00478132
0.00254983
0.0013286
-0.43628
-0.410275
-0.379449
-0.344403
-0.306116
-0.265864
-0.225068
-0.185127
-0.147273
-0.112469
-0.0813649
-0.054303
-0.0313581
-0.0123947
0.0028695
0.0148078
0.0238354
0.0303769
0.0348373
0.0375932
0.0389753
0.0392783
0.0387432
0.0375859
0.0359633
0.034031
0.0318727
0.0296084
0.0272561
0.0249292
0.0225757
0.0203376
0.0180732
0.0160006
0.013846
0.0119739
0.00989966
0.00824183
0.00617096
0.00473084
0.00252924
0.00130822
-0.43473
-0.409591
-0.379727
-0.345691
-0.308397
-0.269046
-0.228996
-0.189607
-0.152095
-0.117432
-0.0862937
-0.059057
-0.0358347
-0.016527
-0.000882021
0.011449
0.020863
0.0277719
0.0325726
0.0356373
0.0372951
0.0378412
0.0375181
0.0365441
0.035079
0.033281
0.0312373
0.0290701
0.0268005
0.0245433
0.0222499
0.0200618
0.0178419
0.0158055
0.0136853
0.0118392
0.00979353
0.00815346
0.00610945
0.00467939
0.00250822
0.00128749
-0.432981
-0.408777
-0.379946
-0.346989
-0.310749
-0.272351
-0.233089
-0.194279
-0.157123
-0.122602
-0.0914208
-0.0639941
-0.040475
-0.0208018
-0.00475511
0.00798819
0.0178061
0.0250975
0.0302514
0.0336358
0.0355783
0.0363748
0.0362695
0.0354834
0.0341795
0.0325189
0.0305921
0.0285238
0.0263384
0.024152
0.0219195
0.0197822
0.0176074
0.0156076
0.0135222
0.0117024
0.00968564
0.00806372
0.00604684
0.00462722
0.00248682
0.00126646
-0.430943
-0.407747
-0.380018
-0.348204
-0.313074
-0.275677
-0.237242
-0.199043
-0.162266
-0.127903
-0.0966865
-0.069071
-0.0452512
-0.0252045
-0.00874533
0.00442246
0.014657
0.0223434
0.0278623
0.0315769
0.0338135
0.0348686
0.0349883
0.0343962
0.0332585
0.0317394
0.029933
0.0279663
0.0258673
0.0237534
0.0215832
0.0194978
0.0173689
0.0154064
0.0133564
0.0115634
0.00957593
0.00797248
0.00598316
0.00457423
0.00246517
0.00124505
-0.42797
-0.405461
-0.378517
-0.347556
-0.313306
-0.276764
-0.239106
-0.201563
-0.165295
-0.131282
-0.100261
-0.0727004
-0.0488196
-0.0286219
-0.011948
0.00147472
0.0119846
0.0199509
0.0257428
0.0297155
0.0321907
0.033462
0.033775
0.0333534
0.0323651
0.0309755
0.0292812
0.0274105
0.0253945
0.0233507
0.0212421
0.0192077
0.0171253
0.0151998
0.0131863
0.0114195
0.00946301
0.0078771
0.00591746
0.00451803
0.00244328
0.00122239
-0.401572
-0.374892
-0.34433
-0.310607
-0.274699
-0.237743
-0.200922
-0.165345
-0.13195
-0.101445
-0.0742842
-0.0506832
-0.0306543
-0.0140531
-0.000625182
0.00994922
0.0180221
0.0239476
0.0280688
0.0306981
0.0321215
0.0325809
0.0322959
0.0314342
0.0301588
0.0285686
0.0267894
0.0248566
0.0228841
0.0208417
0.0188619
0.0168331
0.0149483
0.0129794
0.0112412
0.00932389
0.00775596
0.00583566
0.00444446
0.00241653
0.00119282
-0.391901
-0.366009
-0.336508
-0.304083
-0.269636
-0.234215
-0.198906
-0.164732
-0.132563
-0.103064
-0.0766735
-0.0536136
-0.0339181
-0.0174735
-0.00406054
0.00660611
0.0148471
0.0209901
0.0253564
0.0282421
0.0299209
0.0306264
0.0305724
0.029924
0.0288419
0.0274261
0.0258012
0.0240064
0.0221533
0.0202182
0.0183293
0.0163843
0.0145676
0.0126656
0.0109774
0.00911646
0.00758353
0.00571534
0.00434572
0.00237426
0.00115693
-0.381107
-0.356112
-0.327783
-0.296755
-0.263858
-0.230048
-0.196319
-0.16361
-0.132729
-0.104299
-0.078745
-0.0562921
-0.0369942
-0.0207666
-0.00742284
0.00328947
0.0116603
0.0179909
0.0225805
0.0257078
0.0276331
0.0285808
0.0287576
0.0283253
0.0274412
0.0262057
0.0247419
0.0230917
0.0213654
0.0195441
0.0177527
0.0158971
0.0141545
0.012324
0.0106913
0.00889006
0.0073973
0.00558344
0.00424052
0.00232629
0.0011208
-0.370198
-0.346134
-0.31899
-0.289356
-0.25799
-0.225767
-0.193591
-0.162324
-0.132712
-0.105344
-0.0806261
-0.0587886
-0.0399031
-0.0239114
-0.0106581
7.80405e-05
0.00855763
0.0150564
0.0198518
0.0232059
0.0253654
0.0265454
0.0269453
0.0267231
0.0260328
0.0249748
0.0236703
0.022164
0.0205641
0.0188569
0.0171636
0.0153982
0.0137308
0.0119729
0.0103967
0.00865653
0.00720508
0.00544686
0.00413188
0.00227607
0.00108451
-0.359103
-0.336012
-0.31008
-0.281851
-0.252016
-0.221368
-0.190731
-0.160893
-0.132545
-0.106236
-0.0823608
-0.0611504
-0.0426931
-0.0269557
-0.0138119
-0.0030706
0.00550056
0.0121523
0.0171409
0.0207112
0.0230966
0.0245025
0.025121
0.0251059
0.0246075
0.0237261
0.0225806
0.0212186
0.0197459
0.0181539
0.01656
0.0148862
0.0132952
0.0116114
0.0100931
0.00841534
0.0070065
0.00530537
0.00401964
0.00222356
0.00104789
-0.347852
-0.325775
-0.30108
-0.274262
-0.245951
-0.216863
-0.187747
-0.159322
-0.132225
-0.106974
-0.0839458
-0.0633742
-0.0453617
-0.0298983
-0.0168849
-0.00615885
0.00248506
0.00927321
0.014441
0.0182164
0.020819
0.0224446
0.0232772
0.0234665
0.0231586
0.0224533
0.0214674
0.0202504
0.0189063
0.0174311
0.0159383
0.0143579
0.0128452
0.0112373
0.00977877
0.00816511
0.00680061
0.00515814
0.00390341
0.00216836
0.00101086
-0.336554
-0.315517
-0.292067
-0.266653
-0.239845
-0.212289
-0.184664
-0.157627
-0.131764
-0.107561
-0.0853796
-0.0654549
-0.0479015
-0.0327304
-0.0198677
-0.00917735
-0.00048006
0.00642714
0.0117592
0.0157273
0.0185374
0.0203752
0.0214168
0.0218069
0.0216875
0.0211574
0.0203311
0.0192599
0.0180456
0.0166885
0.0152986
0.0138133
0.0123807
0.0108504
0.00945344
0.00790556
0.00658723
0.00500495
0.00378313
0.00211032
0.000973418
-0.32531
-0.305324
-0.283111
-0.259079
-0.23374
-0.207679
-0.181507
-0.155824
-0.131171
-0.108002
-0.0866638
-0.0673908
-0.0503086
-0.0354463
-0.0227535
-0.0121188
-0.00338737
0.00362123
0.00910207
0.0132499
0.0162571
0.0182991
0.0195436
0.0201304
0.0201968
0.0198406
0.0191733
0.0182483
0.0171645
0.0159268
0.0146411
0.0132525
0.0119019
0.0104507
0.0091172
0.00763671
0.00636638
0.00484578
0.00365878
0.00204943
0.000935561
-0.314208
-0.295266
-0.27427
-0.251586
-0.227674
-0.20306
-0.178297
-0.15393
-0.130457
-0.108303
-0.0878007
-0.0691817
-0.0525802
-0.0380419
-0.025537
-0.0149773
-0.00623091
0.000861297
0.00647517
0.0107893
0.0139825
0.0162199
0.0176608
0.0184395
0.0186887
0.0185044
0.0179954
0.0172164
0.0162638
0.0151464
0.0139663
0.0126758
0.0114088
0.0100384
0.00877006
0.00735853
0.00613803
0.00468059
0.00353038
0.00198563
0.000897273
-0.303316
-0.285402
-0.265591
-0.244211
-0.221676
-0.198456
-0.175051
-0.151956
-0.129631
-0.108471
-0.0887934
-0.0708278
-0.0547147
-0.0405137
-0.0282138
-0.0177478
-0.00900523
-0.00184722
0.00388362
0.0083502
0.0117178
0.0141413
0.0157714
0.0167368
0.0171651
0.0171504
0.0167986
0.0161652
0.0153441
0.0143477
0.0132745
0.0120834
0.0109015
0.0096135
0.00841202
0.00707099
0.00590216
0.00450929
0.00339789
0.00191889
0.000858541
-0.292689
-0.275777
-0.25711
-0.236984
-0.215769
-0.193885
-0.171784
-0.149915
-0.128701
-0.10851
-0.0896451
-0.0723302
-0.0567111
-0.0428592
-0.0307801
-0.0204257
-0.0117053
-0.00449919
0.00133245
0.00593722
0.0094673
0.0120671
0.0138787
0.015025
0.0156283
0.0157805
0.0155842
0.0150957
0.0144062
0.0135315
0.0125661
0.0114755
0.0103802
0.00917598
0.00804311
0.00677405
0.00565875
0.00433186
0.00326131
0.00184917
0.000819355
-0.282367
-0.266421
-0.248853
-0.229926
-0.20997
-0.189362
-0.168509
-0.147818
-0.127676
-0.108428
-0.0903597
-0.0736907
-0.0585692
-0.0450765
-0.0332328
-0.0230069
-0.0143266
-0.00708979
-0.00117358
0.00355496
0.00723511
0.010001
0.011986
0.0133069
0.0140805
0.0143964
0.0143538
0.0140092
0.013451
0.0126982
0.0118414
0.0108525
0.00984513
0.00872599
0.0076634
0.00646774
0.00540782
0.00414825
0.00312065
0.00177645
0.000779708
-0.272375
-0.257355
-0.240836
-0.22305
-0.204292
-0.184898
-0.165235
-0.145672
-0.126563
-0.108229
-0.0909413
-0.0749113
-0.0602894
-0.0471646
-0.0355694
-0.0254881
-0.0168649
-0.00961459
-0.00362994
0.0012078
0.0050254
0.00794678
0.0100965
0.0115853
0.0125243
0.0130003
0.0131089
0.0129068
0.0124795
0.0118486
0.0111011
0.0102146
0.00929652
0.00826371
0.007273
0.00615211
0.0051494
0.00395847
0.00297591
0.00170071
0.000739596
-0.262725
-0.248591
-0.233068
-0.216365
-0.198742
-0.180501
-0.16197
-0.143485
-0.125369
-0.107921
-0.0913941
-0.0759948
-0.0618727
-0.0491228
-0.037788
-0.0278662
-0.0193167
-0.0120695
-0.00603236
-0.0011
0.00284218
0.0059081
0.0082136
0.00986307
0.010962
0.0115941
0.0118513
0.01179
0.0114928
0.0109836
0.0103458
0.0095624
0.0087347
0.00778936
0.00687207
0.00582723
0.00488355
0.00376252
0.00282711
0.00162195
0.000699021
-0.253421
-0.240129
-0.225552
-0.209873
-0.193324
-0.176175
-0.158721
-0.141264
-0.124101
-0.107507
-0.0917228
-0.0769444
-0.0633208
-0.0509512
-0.0398874
-0.0301389
-0.0216787
-0.0144508
-0.00837682
-0.00336439
0.000689414
0.00388869
0.00634065
0.00814328
0.00939625
0.0101801
0.0105827
0.0106603
0.010492
0.0101041
0.00957615
0.0088964
0.00816008
0.0073032
0.0064608
0.00549324
0.00461038
0.00356046
0.0026743
0.00154018
0.000657985
-0.244461
-0.231969
-0.218286
-0.203574
-0.18804
-0.171925
-0.155491
-0.139014
-0.122764
-0.106995
-0.0919318
-0.0777634
-0.0646356
-0.0526504
-0.0418668
-0.0323044
-0.0239481
-0.016755
-0.0106596
-0.00558149
-0.00142908
0.00189217
0.00448098
0.00642889
0.00782968
0.00876043
0.00930512
0.00951907
0.00947837
0.00921103
0.00879299
0.00821719
0.0075731
0.00680557
0.00603944
0.00515029
0.00432999
0.00335235
0.00251752
0.00145543
0.000616497
-0.235837
-0.224103
-0.211264
-0.197465
-0.182889
-0.16775
-0.152284
-0.13674
-0.121363
-0.106388
-0.0920261
-0.0784556
-0.0658196
-0.0542215
-0.043726
-0.0343612
-0.0261227
-0.0189792
-0.0128771
-0.00774759
-0.00350958
-7.78649e-05
0.00263794
0.00472294
0.00626498
0.00733753
0.00802047
0.00836814
0.00845334
0.00830558
0.00799719
0.00752546
0.00697428
0.00629687
0.00560827
0.0047986
0.00404253
0.00313829
0.00235685
0.00136773
0.000574567
-0.227539
-0.216522
-0.204481
-0.191543
-0.17787
-0.163653
-0.149104
-0.134446
-0.119904
-0.105693
-0.0920103
-0.0790249
-0.0668755
-0.055666
-0.0454651
-0.0363082
-0.0282004
-0.0211206
-0.0150263
-0.00985921
-0.00554852
-0.00201791
0.000814868
0.00302849
0.00470489
0.00591378
0.00673086
0.0072092
0.00741832
0.00738891
0.00718969
0.00682195
0.00636422
0.00577753
0.00516764
0.0044384
0.0037482
0.00291838
0.00219236
0.00127714
0.000532208
-0.219553
-0.209216
-0.197927
-0.1858
-0.172978
-0.159632
-0.145951
-0.132136
-0.118391
-0.104915
-0.0918895
-0.0794755
-0.0678064
-0.0569856
-0.0470847
-0.038145
-0.0301796
-0.0231768
-0.0171041
-0.0119131
-0.00754244
-0.00392453
-0.000984956
0.00134861
0.0031522
0.00449164
0.00543842
0.0060441
0.00637487
0.00646228
0.00637153
0.00610751
0.00574358
0.00524808
0.00471795
0.00406998
0.00344721
0.0026928
0.00202416
0.00118372
0.000489436
-0.211868
-0.202172
-0.191593
-0.180231
-0.168212
-0.155687
-0.142827
-0.129813
-0.11683
-0.104058
-0.0916685
-0.0798116
-0.0686157
-0.0581825
-0.0485857
-0.0398713
-0.0320591
-0.0251458
-0.0191079
-0.0139061
-0.00948809
-0.0057944
-0.00275829
-0.000313645
0.00160972
0.00307366
0.00414538
0.00487476
0.00532461
0.00552707
0.00554384
0.00538304
0.00511308
0.00470908
0.00425964
0.00369371
0.00313981
0.00246171
0.00185237
0.00108755
0.00044627
-0.204468
-0.19538
-0.185471
-0.174829
-0.163567
-0.151818
-0.139735
-0.127481
-0.115223
-0.103128
-0.0913523
-0.0800378
-0.069307
-0.0592594
-0.0499696
-0.0414873
-0.0338381
-0.027026
-0.0210353
-0.0158354
-0.0113823
-0.00762432
-0.00450195
-0.00195523
8.02702e-05
0.00166238
0.00285401
0.00370317
0.00426924
0.00458471
0.00470781
0.00464953
0.00447352
0.00416117
0.0037932
0.00330994
0.0028263
0.00222534
0.00167712
0.00098873
0.000402729
-0.197342
-0.188829
-0.179552
-0.169589
-0.15904
-0.148023
-0.136676
-0.125143
-0.113577
-0.10213
-0.090946
-0.0801586
-0.0698841
-0.0602189
-0.051238
-0.0429936
-0.0355162
-0.0288158
-0.0228843
-0.0176985
-0.0132223
-0.00941121
-0.00621284
-0.00357315
-0.00143332
0.000260409
0.00156666
0.00253139
0.00321056
0.00363672
0.00386472
0.00390804
0.00382576
0.00360506
0.00331921
0.00291913
0.00250699
0.00198394
0.00149859
0.000887366
0.00035884
-0.190477
-0.182508
-0.173828
-0.164505
-0.154628
-0.144302
-0.13365
-0.122801
-0.111894
-0.101068
-0.0904545
-0.0801788
-0.0703509
-0.0610642
-0.0523929
-0.0443911
-0.0370931
-0.0305144
-0.0246531
-0.019493
-0.0150052
-0.0111521
-0.00788799
-0.00516445
-0.00292823
-0.00112964
0.000285684
0.00136153
0.00215041
0.00268471
0.00301592
0.00315969
0.00317074
0.0030415
0.00283825
0.00252176
0.00218226
0.00173777
0.00131693
0.000783584
0.000314628
-0.183862
-0.176407
-0.16829
-0.15957
-0.150327
-0.140654
-0.130658
-0.120459
-0.11018
-0.099947
-0.0898829
-0.0801031
-0.0707118
-0.0617986
-0.0534366
-0.0456811
-0.0385692
-0.0321209
-0.0263402
-0.0212169
-0.0167287
-0.0128444
-0.0095245
-0.00672627
-0.0044017
-0.00250516
-0.000986504
0.000195749
0.00109071
0.00173033
0.00216284
0.0024057
0.00250946
0.00247132
0.002351
0.00211835
0.00185251
0.00148715
0.00113237
0.000677524
0.000270124
-0.177485
-0.170517
-0.162931
-0.154781
-0.146135
-0.137077
-0.127704
-0.11812
-0.108438
-0.0987724
-0.0892362
-0.0799365
-0.070971
-0.0624257
-0.0543717
-0.046865
-0.0399449
-0.0336352
-0.0279445
-0.0228684
-0.0183904
-0.0144854
-0.0111197
-0.00825581
-0.00585099
-0.00386355
-0.0022475
-0.000963748
3.33992e-05
0.000775313
0.00130697
0.00164734
0.00184298
0.00189541
0.00185818
0.00170949
0.00151818
0.00123242
0.000945123
0.000569341
0.000225364
-0.171337
-0.16483
-0.157746
-0.150132
-0.14205
-0.133573
-0.124786
-0.115786
-0.106672
-0.0975487
-0.0885196
-0.0796838
-0.071133
-0.0629491
-0.0552012
-0.0479449
-0.0412213
-0.0350571
-0.0294652
-0.024446
-0.0199884
-0.0160727
-0.0126709
-0.00975041
-0.00727344
-0.00520223
-0.00349488
-0.00211474
-0.0010195
-0.000178574
0.00044984
0.000885937
0.00117243
0.00131471
0.00136054
0.00129581
0.00117975
0.000973966
0.000755432
0.000459203
0.000180385
-0.165409
-0.159337
-0.152727
-0.14562
-0.138068
-0.130139
-0.121908
-0.11346
-0.104886
-0.0962805
-0.0877379
-0.07935
-0.0712025
-0.0633728
-0.055928
-0.0489228