/*--------------------------------*- C++ -*----------------------------------*\
  =========                 |
  \\      /  F ield         | OpenFOAM: The Open Source CFD Toolbox
   \\    /   O peration     | Website:  https://openfoam.org
    \\  /    A nd           | Version:  7
     \\/     M anipulation  |
\*---------------------------------------------------------------------------*/
FoamFile
{
    version     2.0;
    format      ascii;
    class       surfaceScalarField;
    location    "5";
    object      phi;
}
// * * * * * * * * * * * * * * * * * * * * * * * * * * * * * * * * * * * * * //

dimensions      [0 3 -1 0 0 0 0];

internalField   nonuniform List<scalar> 
16753
(
-0.0011298
-2.95895e-05
-1.63046e-08
-0.0010885
-4.12786e-05
-1.37159e-08
-0.00103462
-5.38768e-05
-1.06085e-08
-0.000967399
-6.72105e-05
-6.96052e-09
-0.000886431
-8.09658e-05
-2.85138e-09
-0.000791761
-9.46717e-05
1.60811e-09
-0.000684048
-0.000107719
6.25689e-09
-0.000564635
-0.000119424
1.08491e-08
-0.000435507
-0.000129143
1.51548e-08
-0.000299184
-0.000136341
1.89632e-08
-0.000158455
-0.000140751
2.20269e-08
-1.61962e-05
-0.000142284
2.4334e-08
0.000124929
-0.000141151
2.57377e-08
0.000262622
-0.000137719
2.6328e-08
0.000395039
-0.000132443
2.61688e-08
0.000520819
-0.000125806
2.53776e-08
0.000639058
-0.000118263
2.40816e-08
0.000749246
-0.00011021
2.24073e-08
0.000851199
-0.000101973
2.04738e-08
0.000944983
-9.38024e-05
1.83883e-08
0.00103085
-8.58815e-05
1.62398e-08
0.00110917
-7.83373e-05
1.40967e-08
0.00118041
-7.12514e-05
1.20105e-08
0.00124507
-6.46677e-05
1.00189e-08
0.00130367
-5.8605e-05
8.14469e-09
0.00135672
-5.30581e-05
6.3989e-09
0.00140472
-4.80112e-05
4.78694e-09
0.00144815
-4.34303e-05
3.3091e-09
0.00148743
-3.92835e-05
1.96483e-09
0.00152295
-3.55179e-05
7.56369e-10
0.00155505
-3.20978e-05
-3.15904e-10
0.001584
-2.89536e-05
-1.24503e-09
0.00161006
-2.60579e-05
-2.03042e-09
0.00163339
-2.33212e-05
-2.66529e-09
0.00165414
-2.07471e-05
-3.15485e-09
0.00167237
-1.82288e-05
-3.49371e-09
0.00168822
-1.58478e-05
-3.70289e-09
0.0017017
-1.34729e-05
-3.77176e-09
0.00171301
-1.13148e-05
-3.75092e-09
0.00172217
-9.15006e-06
-3.60799e-09
0.00172954
-7.36355e-06
-3.4442e-09
0.00173503
-5.49305e-06
-3.16805e-09
0.00173925
-4.21313e-06
-2.96934e-09
0.00174185
-2.60278e-06
-2.62152e-09
0.00174377
-1.91689e-06
-2.49552e-09
-4.04199e-07
-2.07494e-09
-0.00111637
-5.9088e-05
-0.00107526
-8.23863e-05
-0.00102163
-0.000107505
-0.000954742
-0.000134101
-0.000874158
-0.00016155
-0.00077992
-0.00018891
-0.000672678
-0.000214961
-0.000553767
-0.000238335
-0.000425171
-0.000257739
-0.00028941
-0.000272102
-0.000149266
-0.000280894
-7.61791e-06
-0.000283932
0.00013288
-0.000281649
0.000269937
-0.000274777
0.000401723
-0.000264228
0.000526885
-0.000250968
0.000644529
-0.000235906
0.000754153
-0.000219834
0.000855576
-0.000203397
0.000948869
-0.000187095
0.00103428
-0.000171295
0.00111219
-0.000156247
0.00118306
-0.000142115
0.00124737
-0.000128985
0.00130566
-0.000116894
0.00135844
-0.000105833
0.00140619
-9.57685e-05
0.0014494
-8.66338e-05
0.00148848
-7.83649e-05
0.00152382
-7.08561e-05
0.00155576
-6.40367e-05
0.00158457
-5.77676e-05
0.00161051
-5.19943e-05
0.00163372
-4.65383e-05
0.00165438
-4.14067e-05
0.00167254
-3.63858e-05
0.00168833
-3.16387e-05
0.00170176
-2.69028e-05
0.00171305
-2.25992e-05
0.00172218
-1.82807e-05
0.00172953
-1.47171e-05
0.00173502
-1.09841e-05
0.00173924
-8.43048e-06
0.00174185
-5.21543e-06
0.00174378
-3.84699e-06
-8.26412e-07
-0.00108986
-8.83649e-05
-0.00104913
-0.000123119
-0.000996023
-0.00016061
-0.000929789
-0.000200335
-0.000849977
-0.000241361
-0.000756604
-0.000282283
-0.000650301
-0.000321264
-0.000532392
-0.000356245
-0.000404851
-0.00038528
-0.000270203
-0.000406751
-0.000131217
-0.00041988
9.22681e-06
-0.000424376
0.000148489
-0.000420911
0.000284298
-0.000410586
0.000414843
-0.000394773
0.000538794
-0.000374919
0.000655272
-0.000352384
0.000763789
-0.000328352
0.000864176
-0.000303784
0.000956507
-0.000279426
0.00104103
-0.000255822
0.00111813
-0.000233346
0.00118826
-0.00021224
0.00125191
-0.000192633
0.00130959
-0.00017458
0.00136182
-0.000158063
0.00140909
-0.000143036
0.00145185
-0.000129398
0.00149054
-0.000117052
0.00152553
-0.000105842
0.00155715
-9.56621e-05
0.00158569
-8.63041e-05
0.00161138
-7.76873e-05
0.00163439
-6.95446e-05
0.00165487
-6.18871e-05
0.00167288
-5.43942e-05
0.00168855
-4.73103e-05
0.00170189
-4.02404e-05
0.0017131
-3.38163e-05
0.00172219
-2.7366e-05
0.00172952
-2.20443e-05
0.001735
-1.6465e-05
0.00173922
-1.26506e-05
0.00174184
-7.84275e-06
0.0017438
-5.79868e-06
-1.28058e-06
-0.00105093
-0.000117294
-0.00101078
-0.000163275
-0.000958465
-0.000212921
-0.000893225
-0.000265576
-0.000814577
-0.000320009
-0.000722502
-0.000374359
-0.000617605
-0.00042616
-0.000501188
-0.000472662
-0.000375215
-0.000511253
-0.00024221
-0.000539756
-0.000104927
-0.000557163
3.37508e-05
-0.000563054
0.000171206
-0.000558367
0.000305195
-0.000544575
0.000433934
-0.000523512
0.000556123
-0.000497108
0.000670908
-0.000467169
0.00077782
-0.000435264
0.000876702
-0.000402666
0.000967635
-0.000370359
0.00105088
-0.000339062
0.0011268
-0.000309268
0.00119585
-0.000281294
0.00125853
-0.00025531
0.00131533
-0.000231386
0.00136677
-0.0002095
0.00141332
-0.00018959
0.00145545
-0.00017152
0.00149356
-0.000155164
0.00152803
-0.000140314
0.0015592
-0.000126829
0.00158733
-0.000114434
0.00161266
-0.000103024
0.00163536
-9.22419e-05
0.00165558
-8.21048e-05
0.00167337
-7.21845e-05
0.00168887
-6.28065e-05
0.00170207
-5.34428e-05
0.00171319
-4.49346e-05
0.0017222
-3.63851e-05
0.00172949
-2.93333e-05
0.00173496
-2.19319e-05
0.00173919
-1.68756e-05
0.00174184
-1.04925e-05
0.00174382
-7.78305e-06
-1.78283e-06
-0.00100052
-0.000145735
-0.000961149
-0.000202645
-0.000909912
-0.000264158
-0.000846004
-0.000329484
-0.000768911
-0.000397101
-0.000678565
-0.000464705
-0.000575533
-0.000529193
-0.000461086
-0.00058711
-0.000337171
-0.000635167
-0.000206316
-0.000670611
-7.12449e-05
-0.000692234
6.51464e-05
-0.000699445
0.000200273
-0.000693494
0.000331923
-0.000676225
0.000458349
-0.000649939
0.000578285
-0.000617044
0.000690908
-0.000579792
0.000795772
-0.000540127
0.000892734
-0.000499629
0.000981886
-0.000459511
0.00106349
-0.000420661
0.00113791
-0.000383688
0.00120559
-0.000348979
0.00126703
-0.000316744
0.00132271
-0.000287069
0.00137313
-0.000259923
0.00141877
-0.00023523
0.00146007
-0.00021282
0.00149744
-0.000192538
0.00153125
-0.000174123
0.00156183
-0.000157405
0.00158944
-0.00014204
0.00161431
-0.0001279
0.00163661
-0.00011454
0.00165649
-0.000101983
0.001674
-8.96927e-05
0.00168927
-7.80759e-05
0.00170229
-6.64702e-05
0.00171328
-5.59254e-05
0.00172222
-4.53191e-05
0.00172946
-3.65736e-05
0.00173491
-2.73816e-05
0.00173914
-2.11082e-05
0.00174182
-1.3173e-05
0.00174385
-9.81159e-06
-2.34948e-06
-0.000939767
-0.000173538
-0.000901398
-0.000241015
-0.000851513
-0.000314043
-0.000789273
-0.000391723
-0.000714121
-0.000472254
-0.000625922
-0.000552903
-0.0005252
-0.000629915
-0.000413182
-0.000699127
-0.000291793
-0.000756556
-0.00016356
-0.000798843
-3.11546e-05
-0.000824639
0.000102461
-0.000833061
0.000234791
-0.000825824
0.000363645
-0.000805078
0.000487315
-0.000773609
0.000604574
-0.000734304
0.000714634
-0.000689851
0.000817073
-0.000642566
0.000911766
-0.000594322
0.000998813
-0.000546558
0.00107847
-0.000500322
0.00115112
-0.000456332
0.00121718
-0.000415046
0.00127715
-0.000376709
0.0013315
-0.000341419
0.00138072
-0.000309142
0.00142527
-0.000279783
0.00146559
-0.000253141
0.00150208
-0.000229031
0.0015351
-0.000207143
0.00156497
-0.000187275
0.00159195
-0.00016902
0.00161628
-0.000152224
0.0016381
-0.000136359
0.00165757
-0.000121453
0.00167474
-0.000106862
0.00168973
-9.30728e-05
0.00170255
-7.92875e-05
0.00171339
-6.67637e-05
0.00172222
-5.41518e-05
0.00172941
-4.3757e-05
0.00173484
-3.28127e-05
0.00173908
-2.53523e-05
0.0017418
-1.58932e-05
0.00174389
-1.18963e-05
-2.99709e-06
-0.000869963
-0.000200549
-0.000832807
-0.00027817
-0.000784544
-0.000362307
-0.000724293
-0.000451974
-0.000651448
-0.000545099
-0.000565797
-0.000638555
-0.000467805
-0.000727907
-0.00035865
-0.000808283
-0.000240222
-0.000874984
-0.000115054
-0.000924011
1.42369e-05
-0.00095393
0.000144673
-0.000963497
0.000273795
-0.000954945
0.000399455
-0.000930739
0.000519992
-0.000894145
0.00063422
-0.000848532
0.000741385
-0.000797016
0.000841092
-0.000742273
0.000933232
-0.000686463
0.00101791
-0.000631238
0.00109539
-0.000577804
0.00116604
-0.000526981
0.00123029
-0.000479294
0.0012886
-0.000435019
0.00134145
-0.000394271
0.00138931
-0.000357004
0.00143264
-0.000323109
0.00147186
-0.000292355
0.00150735
-0.000264527
0.00153948
-0.000239267
0.00156854
-0.000216344
0.00159481
-0.000195286
0.00161851
-0.00017592
0.00163978
-0.000157632
0.00165878
-0.000140457
0.00167556
-0.000123644
0.00169025
-0.000107758
0.00170283
-9.18651e-05
0.00171349
-7.74284e-05
0.00172221
-6.28701e-05
0.00172933
-5.08773e-05
0.00173474
-3.82251e-05
0.001739
-2.9613e-05
0.00174177
-1.86629e-05
0.00174393
-1.40497e-05
-3.74252e-06
-0.000792473
-0.000226616
-0.00075673
-0.000313913
-0.000710336
-0.000408701
-0.000652369
-0.00050994
-0.000582168
-0.0006153
-0.000499429
-0.000721294
-0.000404556
-0.00082278
-0.000298662
-0.000914177
-0.000183594
-0.000990052
-6.18932e-05
-0.00104571
6.38868e-05
-0.00107971
0.000190764
-0.00109037
0.000316315
-0.0010805
0.000438442
-0.00105287
0.00055553
-0.00101123
0.000666436
-0.000959438
0.000770441
-0.000901021
0.000867175
-0.000839007
0.000956543
-0.000775831
0.00103866
-0.000713354
0.00111378
-0.000652927
0.00118227
-0.000595471
0.00124455
-0.000541572
0.00130107
-0.000491539
0.0013523
-0.000445497
0.00139869
-0.000403393
0.00144068
-0.000365104
0.00147869
-0.000330365
0.0015131
-0.000298936
0.00154425
-0.000270413
0.00157244
-0.000244536
0.00159792
-0.000220771
0.00162093
-0.000198926
0.0016416
-0.000178304
0.00166009
-0.000158948
0.00167645
-0.000139999
0.00169079
-0.000122101
0.0017031
-0.000104179
0.00171358
-8.7903e-05
0.00172217
-7.14644e-05
0.00172923
-5.79311e-05
0.00173462
-4.36211e-05
0.00173891
-3.38967e-05
0.00174174
-2.14928e-05
0.00174397
-1.62851e-05
-4.60295e-06
-0.000708685
-0.000251602
-0.00067453
-0.000348068
-0.000630222
-0.000453009
-0.000574791
-0.000565371
-0.000507526
-0.000682565
-0.000428019
-0.000800801
-0.00033661
-0.000914188
-0.000234334
-0.00101645
-0.000122978
-0.00110141
-4.4792e-06
-0.00116421
0.000116812
-0.001201
0.00023977
-0.00121333
0.000361434
-0.00120216
0.000479738
-0.00117117
0.000593114
-0.00112461
0.000700465
-0.00106679
0.000801103
-0.00100166
0.000894683
-0.000932586
0.00098112
-0.000862268
0.00106053
-0.000792764
0.00113317
-0.000725567
0.00119939
-0.000661691
0.0012596
-0.000601781
0.00131424
-0.000546177
0.00136375
-0.000495014
0.00140859
-0.000448233
0.00144918
-0.000405694
0.00148592
-0.000367104
0.00151918
-0.000332198
0.0015493
-0.000300524
0.00157656
-0.000271797
0.00160121
-0.000245424
0.00162348
-0.000221196
0.00164351
-0.000198335
0.00166145
-0.000176891
0.00167735
-0.000155897
0.00169133
-0.000136077
0.00170336
-0.000116212
0.00171364
-9.81764e-05
0.0017221
-7.99292e-05
0.00172909
-6.49179e-05
0.00173447
-4.90047e-05
0.00173879
-3.82114e-05
0.00174169
-2.43947e-05
0.00174402
-1.86164e-05
-5.59596e-06
-0.000619962
-0.000587535
-0.000380494
-0.000545485
-0.00049506
-0.000492791
-0.000618065
-0.0004287
-0.000746657
-0.000352687
-0.000876814
-0.000265034
-0.00100184
-0.000166683
-0.0011148
-5.93728e-05
-0.00120872
5.43441e-05
-0.00127793
0.000172053
-0.00131871
0.000290824
-0.0013321
0.000408322
-0.00131966
0.000522553
-0.0012854
0.000631999
-0.00123406
0.000735608
-0.0011704
0.000832724
-0.00109878
0.000923018
-0.00102288
0.00100642
-0.000945666
0.00108303
-0.000869379
0.00115311
-0.000795647
0.00121699
-0.000725575
0.00127508
-0.000659864
0.00132778
-0.000598883
0.00137555
-0.000542777
0.00141879
-0.00049148
0.00145794
-0.000444841
0.00149337
-0.000402536
0.00152545
-0.000364275
0.00155449
-0.000329565
0.00158079
-0.000298096
0.00160458
-0.000269217
0.00162609
-0.000242703
0.00164545
-0.000217698
0.00166282
-0.000194263
0.00167825
-0.000171321
0.00169184
-0.000149671
0.00170358
-0.000127954
0.00171365
-0.000108242
0.00172198
-8.82629e-05
0.00172891
-7.18404e-05
0.00173428
-5.43824e-05
0.00173864
-4.25668e-05
0.00174163
-2.73814e-05
0.00174407
-2.10586e-05
-6.73951e-06
-0.000497008
-0.000411091
-0.000457338
-0.00053473
-0.000407521
-0.000667882
-0.000346777
-0.0008074
-0.000274456
-0.000949135
-0.000190786
-0.00108551
-9.66092e-05
-0.00120898
6.50361e-06
-0.00131183
0.000115659
-0.00138708
0.000228863
-0.00143191
0.000343166
-0.00144641
0.000456253
-0.00143274
0.000566193
-0.00139534
0.000671529
-0.00133939
0.000771248
-0.00127012
0.000864726
-0.00119225
0.000951646
-0.0011098
0.00103194
-0.00102596
0.00110571
-0.000943149
0.00117319
-0.000863132
0.00123472
-0.000787097
0.00129065
-0.000715801
0.00134141
-0.000649641
0.00138741
-0.000588773
0.00142905
-0.000533125
0.00146675
-0.000482534
0.00150086
-0.000436649
0.00153174
-0.000395159
0.0015597
-0.000357526
0.00158503
-0.000323421
0.00160795
-0.000292135
0.00162868
-0.000263435
0.00164736
-0.000236383
0.00166415
-0.000211054
0.00167909
-0.00018626
0.0016923
-0.000162878
0.00170375
-0.0001394
0.0017136
-0.000118101
0.00172181
-9.6468e-05
0.00172867
-7.87043e-05
0.00173405
-5.9763e-05
0.00173846
-4.69741e-05
0.00174155
-3.04671e-05
0.00174412
-2.36273e-05
-8.05201e-06
-0.00040412
-0.000439801
-0.000366897
-0.000571954
-0.000320032
-0.000714746
-0.00026274
-0.000864693
-0.000194242
-0.00101763
-0.000114705
-0.00116505
-2.46784e-05
-0.00129901
7.34365e-05
-0.00140995
0.000178095
-0.00149174
0.00028656
-0.00154038
0.00039615
-0.001556
0.000504607
-0.0015412
0.000610071
-0.00150081
0.000711144
-0.00144046
0.000806858
-0.00136583
0.000896612
-0.00128201
0.000980103
-0.00119329
0.00105726
-0.00110311
0.00112817
-0.00101406
0.00119305
-0.000928019
0.00125222
-0.000846265
0.00130603
-0.000769606
0.00135485
-0.000698468
0.0013991
-0.00063302
0.00143916
-0.000573185
0.00147542
-0.00051879
0.00150822
-0.000469459
0.00153793
-0.000424859
0.00156482
-0.000384416
0.00158917
-0.000347778
0.00161122
-0.000314185
0.00163118
-0.000283394
0.00164919
-0.000254391
0.0016654
-0.000227264
0.00167986
-0.000200715
0.00169268
-0.000175698
0.00170383
-0.000150554
0.00171348
-0.000127756
0.00172157
-0.000104552
0.00172838
-8.55185e-05
0.00173378
-6.51576e-05
0.00173825
-5.14466e-05
0.00174145
-3.36668e-05
0.00174416
-2.63391e-05
-9.5523e-06
-0.000309938
-0.00046661
-0.000275175
-0.000606717
-0.000231276
-0.000758646
-0.000177469
-0.000918499
-0.000112844
-0.00108226
-3.74195e-05
-0.00124047
4.76933e-05
-0.00138412
0.000141261
-0.00150351
0.000241062
-0.00159154
0.00034457
-0.00164389
0.000449234
-0.00166066
0.000552869
-0.00164484
0.000653696
-0.00160163
0.00075038
-0.00153715
0.000841997
-0.00145745
0.00092797
-0.00136798
0.001008
-0.00127332
0.00108201
-0.00117712
0.00115007
-0.00108212
0.00121238
-0.000990332
0.00126922
-0.000903109
0.00132093
-0.000821315
0.00136787
-0.000745403
0.00141041
-0.000675558
0.00144892
-0.000611699
0.00148377
-0.000553645
0.00151531
-0.000500999
0.00154386
-0.000453409
0.00156971
-0.000410262
0.00159312
-0.000371192
0.00161433
-0.000335387
0.00163353
-0.000302598
0.00165088
-0.000271736
0.00166652
-0.000242906
0.0016805
-0.000214698
0.00169294
-0.000188142
0.00170381
-0.000161426
0.00171328
-0.000137218
0.00172125
-0.000112524
0.00172803
-9.22952e-05
0.00173345
-7.05798e-05
0.001738
-5.59989e-05
0.00174133
-3.6997e-05
0.0017442
-2.92114e-05
-1.12596e-05
-0.000215417
-0.00049155
-0.000183079
-0.000639054
-0.000142085
-0.00079964
-9.17344e-05
-0.00096885
-3.07931e-05
-0.0011432
4.00448e-05
-0.00131131
0.000120544
-0.00146462
0.000209284
-0.00159225
0.000304042
-0.0016863
0.000402412
-0.00174226
0.000501966
-0.00176021
0.000600613
-0.00174348
0.000696666
-0.00169768
0.000788858
-0.00162934
0.00087631
-0.0015449
0.000958465
-0.00145013
0.00103503
-0.00134988
0.0011059
-0.00124799
0.00117113
-0.00114736
0.00123091
-0.00105011
0.00128548
-0.000957679
0.00133515
-0.000870983
0.00138025
-0.000790505
0.00142114
-0.000716445
0.00145816
-0.000648724
0.00149167
-0.000587155
0.00152199
-0.00053132
0.00154944
-0.000480854
0.00157429
-0.000435108
0.00159679
-0.000393701
0.00161718
-0.000355775
0.00163566
-0.000321076
0.00165237
-0.000288444
0.00166746
-0.000258001
0.00168099
-0.000228227
0.00169308
-0.000200226
0.00170368
-0.00017203
0.00171296
-0.000146501
0.00172084
-0.000120401
0.0017276
-9.90495e-05
0.00173306
-7.60453e-05
0.00173771
-6.06477e-05
0.00174119
-4.04752e-05
0.00174424
-3.22626e-05
-1.31938e-05
-0.000121387
-0.000514694
-9.14051e-05
-0.000669036
-5.31119e-05
-0.000837933
-5.20323e-06
-0.00101676
5.07336e-05
-0.00119914
0.000117316
-0.00137789
0.000193234
-0.00154054
0.000277019
-0.00167604
0.000366599
-0.00177588
0.000459678
-0.00183534
0.000553966
-0.0018545
0.000647488
-0.00183701
0.000738655
-0.00178885
0.000826277
-0.00171696
0.000909516
-0.00162814
0.000987835
-0.00152845
0.00106093
-0.00142298
0.00112869
-0.00131575
0.00119115
-0.00120982
0.00124845
-0.00110741
0.00130081
-0.00101004
0.0013485
-0.000918677
0.00139184
-0.000833842
0.00143115
-0.000755752
0.00146675
-0.000684329
0.00149898
-0.000619386
0.00152815
-0.000560486
0.00155455
-0.000507254
0.00157845
-0.000459008
0.0016001
-0.000415356
0.00161972
-0.000375393
0.00163752
-0.000338869
0.00165362
-0.00030455
0.0016682
-0.00027258
0.0016813
-0.000241329
0.00169305
-0.000211974
0.00170341
-0.000182389
0.00171253
-0.000155627
0.00172033
-0.000128201
0.00172708
-0.0001058
0.00173261
-8.1572e-05
0.00173737
-6.54111e-05
0.00174102
-4.41202e-05
0.00174427
-3.55119e-05
-1.53749e-05
-2.84567e-05
-0.000536233
1.3808e-07
-0.000697631
3.47895e-05
-0.000872585
7.84088e-05
-0.00106038
0.000131556
-0.00125228
0.000194006
-0.00144034
0.000265283
-0.00161182
0.000344052
-0.00175481
0.000428354
-0.00186018
0.000516022
-0.00192301
0.000604919
-0.0019434
0.000693204
-0.00192529
0.000779401
-0.00187505
0.000862395
-0.00179996
0.000941395
-0.00170714
0.00101588
-0.00160293
0.00108553
-0.00149263
0.00115022
-0.00138044
0.00120995
-0.00126955
0.00126484
-0.00116229
0.00131505
-0.00106026
0.00136085
-0.000964474
0.0014025
-0.000875493
0.00144031
-0.000793557
0.00147457
-0.000718592
0.0015056
-0.000650414
0.00153368
-0.000588571
0.00155911
-0.000532679
0.00158213
-0.000482026
0.00160299
-0.000436215
0.00162189
-0.000394297
0.00163905
-0.000356024
0.00165459
-0.000320097
0.00166869
-0.000286682
0.0016814
-0.000254037
0.00169284
-0.000223416
0.00170298
-0.000192528
0.00171197
-0.000164617
0.00171972
-0.000135945
0.00172648
-0.000112566
0.00173209
-8.718e-05
0.00173699
-7.03087e-05
0.00174082
-4.79517e-05
0.00174429
-3.89794e-05
-1.78234e-05
6.23388e-05
-0.000556062
8.80469e-05
-0.000723339
0.000121008
-0.000905546
0.000161726
-0.00110109
0.000211276
-0.00130183
0.000269627
-0.00149869
0.000336297
-0.00167848
0.000410026
-0.00182854
0.000488981
-0.00193914
0.000571146
-0.00200517
0.000654556
-0.00202681
0.000737523
-0.00200826
0.00081869
-0.00195622
0.000897025
-0.00187829
0.000971779
-0.00178189
0.00104244
-0.00167359
0.00110868
-0.00155888
0.00117035
-0.00144211
0.00122742
-0.00132662
0.00127996
-0.00121483
0.00132811
-0.00110841
0.00137209
-0.00100845
0.00141214
-0.000915542
0.00144853
-0.000829944
0.00148153
-0.000751597
0.00151144
-0.00068032
0.00153852
-0.000615652
0.00156304
-0.000557202
0.00158525
-0.000504235
0.00160538
-0.000456346
0.00162363
-0.000412547
0.00164021
-0.000372598
0.00165524
-0.000335135
0.00166891
-0.00030035
0.00168127
-0.000266392
0.00169244
-0.000234586
0.00170239
-0.000202479
0.00171127
-0.000173501
0.00171898
-0.000143659
0.00172579
-0.000119372
0.0017315
-9.2891e-05
0.00173655
-7.53617e-05
0.00174059
-5.19905e-05
0.0017443
-4.26857e-05
-2.05605e-05
0.000150889
-0.000574461
0.000174806
-0.000747256
0.000205405
-0.000936145
0.000243315
-0.001139
0.000289447
-0.00134797
0.000343815
-0.00155306
0.000405937
-0.00174061
0.000474627
-0.00189723
0.000548193
-0.0020127
0.000624792
-0.00208177
0.000702649
-0.00210467
0.000780245
-0.00208585
0.000856351
-0.00203232
0.000930019
-0.00195196
0.00100054
-0.00185241
0.00106741
-0.00174046
0.00113029
-0.00162176
0.001189
-0.00150082
0.00124347
-0.00138109
0.00129374
-0.00126509
0.00133991
-0.00115458
0.00138215
-0.0010507
0.00142069
-0.000954073
0.00145574
-0.000864999
0.00148757
-0.000783428
0.00151644
-0.000709188
0.0015426
-0.000641811
0.0015663
-0.000580904
0.00158777
-0.000525708
0.00160725
-0.000475818
0.00162491
-0.000430208
0.00164096
-0.000388651
0.00165555
-0.00034972
0.00166883
-0.000313635
0.00168087
-0.000278435
0.00169181
-0.000245522
0.00170161
-0.000212274
0.00171041
-0.000182307
0.00171812
-0.000151369
0.00172499
-0.000126242
0.00173083
-9.87285e-05
0.00173606
-8.05925e-05
0.00174033
-5.62581e-05
0.00174429
-4.66526e-05
-2.36073e-05
0.000236766
-0.000591597
0.000259056
-0.000769545
0.000287528
-0.000964618
0.000322833
-0.00117431
0.000365737
-0.00139087
0.00041626
-0.00160358
0.000473911
-0.00179826
0.000537584
-0.0019609
0.000605742
-0.00208086
0.000676736
-0.00215276
0.000749004
-0.00217693
0.000821206
-0.00215805
0.000892248
-0.00210336
0.000961265
-0.00202098
0.00102759
-0.00191874
0.00109072
-0.00180359
0.0011503
-0.00168134
0.00120612
-0.00155664
0.00125806
-0.00143304
0.00130614
-0.00131316
0.0013504
-0.00119885
0.001391
-0.00109129
0.0014281
-0.000991171
0.0014619
-0.000898808
0.00149265
-0.000814172
0.00152056
-0.000737103
0.00154588
-0.000667131
0.00156884
-0.000603864
0.00158966
-0.000546523
0.00160854
-0.000494705
0.00162569
-0.00044735
0.00164128
-0.000404246
0.00165547
-0.000363908
0.00166842
-0.000326588
0.0016802
-0.000290215
0.00169095
-0.000256267
0.00170063
-0.000221952
0.00170939
-0.000191069
0.00171713
-0.000159106
0.00172409
-0.000133203
0.00173008
-0.000104717
0.00173551
-8.60244e-05
0.00174003
-6.0777e-05
0.00174428
-5.0902e-05
-2.69854e-05
0.000319654
-0.000607655
0.00034052
-0.000790412
0.0003671
-0.000991198
0.000400016
-0.00120722
0.000439886
-0.00143074
0.000486704
-0.0016504
0.000539968
-0.00185152
0.000598657
-0.00201959
0.000661406
-0.00214361
0.000726784
-0.00221814
0.000793454
-0.0022436
0.000860268
-0.00222487
0.00092627
-0.00216937
0.000990678
-0.00208539
0.00105286
-0.00198092
0.00111231
-0.00186304
0.00116866
-0.0017377
0.00122166
-0.00160964
0.00127117
-0.00148254
0.00131713
-0.00135912
0.00135957
-0.0012413
0.0013986
-0.00113032
0.00143435
-0.00102692
0.001467
-0.000931455
0.00149674
-0.000843912
0.00152378
-0.000764148
0.00154834
-0.000691693
0.00157064
-0.000626162
0.00159088
-0.000566756
0.00160925
-0.00051308
0.00162594
-0.000464043
0.00164115
-0.000419451
0.001655
-0.000377762
0.00166768
-0.000339265
0.00167925
-0.000301782
0.00168984
-0.000266865
0.00169944
-0.000231551
0.0017082
-0.000199822
0.00171599
-0.0001669
0.00172307
-0.000140285
0.00172924
-0.000110883
0.0017349
-9.1682e-05
0.00173969
-6.55704e-05
0.00174424
-5.54566e-05
-3.07168e-05
0.000399357
0.00041901
-0.000810065
0.000443928
-0.00101612
0.000474665
-0.00123796
0.000511687
-0.00146776
0.000554934
-0.00169365
0.000603894
-0.00190048
0.000657639
-0.00207333
0.000714995
-0.00220096
0.000774767
-0.00227791
0.000835858
-0.00230469
0.000897319
-0.00228633
0.000958333
-0.00223038
0.0010182
-0.00214525
0.00107631
-0.00203903
0.00113216
-0.0019189
0.00118536
-0.0017909
0.00123563
-0.0016599
0.00128277
-0.00152968
0.00132671
-0.00140306
0.00136742
-0.00128201
0.00140496
-0.00116787
0.00143945
-0.00106141
0.00147101
-0.000963023
0.00149983
-0.000872729
0.00152609
-0.000790404
0.00154997
-0.000715577
0.00157169
-0.000647875
0.00159141
-0.000586484
0.00160935
-0.000531018
0.00162566
-0.000480357
0.00164054
-0.000434329
0.00165412
-0.000391342
0.00166658
-0.000351722
0.00167798
-0.000313185
0.00168848
-0.000277362
0.00169804
-0.000241113
0.00170682
-0.000208603
0.00171471
-0.000174785
0.00172194
-0.000147516
0.00172831
-0.000117254
0.00173422
-9.75904e-05
0.00173931
-7.06618e-05
0.00174419
-6.03397e-05
-3.48236e-05
0.000494418
-0.000828713
0.00051789
-0.00103959
0.000546641
-0.00126671
0.000580981
-0.00150211
0.000620775
-0.00173344
0.000665505
-0.00194521
0.000714348
-0.00212218
0.000766339
-0.00225296
0.000820538
-0.00233211
0.000876097
-0.00236025
0.000932269
-0.0023425
0.000988372
-0.00228648
0.00104378
-0.00220066
0.00109791
-0.00209316
0.00115026
-0.00197125
0.00120041
-0.00184105
0.00124803
-0.00170753
0.0012929
-0.00157456
0.00133489
-0.00144505
0.00137395
-0.00132106
0.0014101
-0.00120401
0.0014434
-0.0010947
0.00147396
-0.00099359
0.00150194
-0.000900704
0.00152748
-0.000815948
0.00155076
-0.00073886
0.00157197
-0.000669079
0.00159126
-0.00060578
0.00160884
-0.000548589
0.00162484
-0.000496359
0.00163946
-0.000448948
0.00165282
-0.00040471
0.00166512
-0.000364017
0.00167641
-0.000324478
0.00168685
-0.000287805
0.00169642
-0.000250679
0.00170527
-0.000217449
0.00171327
-0.000182794
0.00172069
-0.000154926
0.00172729
-0.000123856
0.00173347
-0.000103776
0.00173889
-7.60754e-05
0.00174412
-6.55749e-05
-3.9328e-05
0.000566704
-0.000846552
0.000588923
-0.00106181
0.000615855
-0.00129364
0.000647649
-0.0015339
0.000684084
-0.00176988
0.000724643
-0.00198577
0.000768626
-0.00216616
0.000815294
-0.00229962
0.000863974
-0.00238079
0.000914075
-0.00241036
0.000965047
-0.00239347
0.00101634
-0.00233778
0.0010674
-0.00225171
0.00111766
-0.00214342
0.00116661
-0.0020202
0.00121381
-0.00188824
0.00125888
-0.0017526
0.00130157
-0.00161725
0.00134171
-0.00148518
0.0013792
-0.00135855
0.00141402
-0.00123883
0.00144622
-0.0011269
0.00147586
-0.00102324
0.00150307
-0.000927911
0.00152798
-0.000840854
0.00155073
-0.000761615
0.0015715
-0.000689846
0.00159043
-0.000624715
0.00160771
-0.000565862
0.00162347
-0.000512118
0.00163789
-0.00046337
0.0016511
-0.000417926
0.00166329
-0.000376205
0.00167452
-0.000335711
0.00168496
-0.000298239
0.00169457
-0.000260292
0.00170352
-0.000226397
0.00171169
-0.000190961
0.00171931
-0.000162547
0.00172617
-0.000130719
0.00173266
-0.000110264
0.00173842
-8.18357e-05
0.00174403
-7.11858e-05
-4.42525e-05
0.000635883
-0.000863757
0.000657012
-0.00108294
0.000682256
-0.00131889
0.000711602
-0.00156325
0.000744742
-0.00180301
0.000781172
-0.0020222
0.000820336
-0.00220533
0.000861733
-0.00234102
0.000904971
-0.00242403
0.000949714
-0.0024551
0.000995603
-0.00243936
0.00104221
-0.00238439
0.00108905
-0.00229854
0.00113556
-0.00218994
0.00118123
-0.00206587
0.00122558
-0.00193259
0.00126821
-0.00179523
0.00130882
-0.00165786
0.00134719
-0.00152355
0.00138319
-0.00139456
0.00141678
-0.00127242
0.00144794
-0.00115807
0.00147674
-0.00105203
0.00150325
-0.000954423
0.00152759
-0.000865195
0.00154989
-0.000783911
0.00157029
-0.000710244
0.00158893
-0.000643356
0.00160597
-0.000582903
0.00162155
-0.000527697
0.00163584
-0.000477658
0.00164896
-0.000431048
0.00166109
-0.000388341
0.00167232
-0.000346936
0.00168279
-0.000308713
0.00169249
-0.000269994
0.00170158
-0.000235487
0.00170994
-0.00019932
0.00171781
-0.00017041
0.00172496
-0.000137871
0.00173178
-0.000117081
0.00173791
-8.79672e-05
0.00174392
-7.71967e-05
-4.96196e-05
0.000702018
-0.000880472
0.000722178
-0.0011031
0.00074582
-0.00134253
0.000772774
-0.0015902
0.000802649
-0.00183289
0.000834976
-0.00205453
0.000869358
-0.00223971
0.000905552
-0.00237721
0.000943447
-0.00246193
0.000982955
-0.00249461
0.0010239
-0.00248031
0.00106598
-0.00242646
0.00110873
-0.00234129
0.00115163
-0.00223284
0.00119414
-0.00210838
0.00123576
-0.00197421
0.00127605
-0.00183552
0.00131467
-0.00169647
0.00135136
-0.00156025
0.00138597
-0.00142916
0.00141839
-0.00130484
0.00144861
-0.00118828
0.00147663
-0.00108005
0.00150251
-0.000980309
0.00152635
-0.000889036
0.00154826
-0.000805814
0.00156835
-0.000730338
0.00158676
-0.000661766
0.00160363
-0.000599775
0.00161909
-0.000543157
0.00163331
-0.000491871
0.00164639
-0.000444135
0.00165853
-0.000400478
0.0016698
-0.000358202
0.00168035
-0.000319272
0.00169019
-0.000279826
0.00169946
-0.000244756
0.00170804
-0.000207906
0.00171618
-0.000178547
0.00172365
-0.00014534
0.00173082
-0.000124255
0.00173735
-9.44947e-05
0.00174378
-8.36316e-05
-5.54518e-05
0.000765202
-0.000896806
0.000784466
-0.00112236
0.000806543
-0.00136461
0.000831113
-0.00161477
0.000857719
-0.0018595
0.000885949
-0.00208276
0.000915588
-0.00226935
0.000946661
-0.00240829
0.000979334
-0.0024946
0.00101376
-0.00252903
0.00104993
-0.00251648
0.00108763
-0.00246416
0.00112645
-0.00238012
0.00116589
-0.00227228
0.00120538
-0.00214787
0.00124439
-0.00201322
0.00128245
-0.00187358
0.00131917
-0.0017332
0.00135428
-0.00159536
0.00138757
-0.00146245
0.00141891
-0.00133618
0.00144824
-0.00121761
0.00147556
-0.00110737
0.00150088
-0.00100564
0.00152429
-0.000912442
0.00154586
-0.000827387
0.00156571
-0.000750189
0.00158395
-0.000680005
0.00160071
-0.000616536
0.00161611
-0.000558556
0.00163031
-0.000506064
0.00164341
-0.000457238
0.0016556
-0.000412669
0.00166696
-0.000369558
0.00167764
-0.00032996
0.00168765
-0.00028983
0.00169713
-0.00025424
0.00170598
-0.000216753
0.00171442
-0.000186987
0.00172223
-0.000153154
0.00172979
-0.000131811
0.00173674
-0.000101443
0.00174362
-9.05148e-05
-6.17716e-05
0.000825545
-0.000912815
0.000843932
-0.00114075
0.000864426
-0.0013851
0.000886572
-0.00163692
0.000909873
-0.0018828
0.000933999
-0.00210689
0.000958941
-0.00229429
0.000984991
-0.00243434
0.00101259
-0.0025222
0.0010421
-0.00255854
0.00107367
-0.00254805
0.00110718
-0.00249767
0.00114225
-0.00241519
0.00117837
-0.0023084
0.00121498
-0.00218447
0.0012515
-0.00204974
0.00128744
-0.00190952
0.00132238
-0.00176814
0.00135599
-0.00162897
0.00138804
-0.00149451
0.00141838
-0.00136652
0.0014469
-0.00124613
0.00147357
-0.00113404
0.0014984
-0.00103046
0.00152143
-0.000935474
0.00154273
-0.000848688
0.0015624
-0.000769854
0.00158052
-0.000698129
0.00159723
-0.000633241
0.00161262
-0.000573948
0.00162685
-0.000520291
0.00164002
-0.000470411
0.00165231
-0.000424962
0.0016638
-0.000381049
0.00167466
-0.00034082
0.00168488
-0.000300045
0.00169462
-0.000263978
0.00170376
-0.000225894