/*--------------------------------*- C++ -*----------------------------------*\
  =========                 |
  \\      /  F ield         | OpenFOAM: The Open Source CFD Toolbox
   \\    /   O peration     | Website:  https://openfoam.org
    \\  /    A nd           | Version:  7
     \\/     M anipulation  |
\*---------------------------------------------------------------------------*/
FoamFile
{
    version     2.0;
    format      ascii;
    class       volVectorField;
    location    "5";
    object      U;
}
// * * * * * * * * * * * * * * * * * * * * * * * * * * * * * * * * * * * * * //

dimensions      [0 1 -1 0 0 0 0];

internalField   nonuniform List<vector> 
8500
(
(-0.592022 -0.0027231 -3.99092e-21)
(-0.574422 -0.00374602 9.11269e-22)
(-0.550497 -0.00480223 2.01686e-21)
(-0.519786 -0.00587198 -6.97828e-23)
(-0.481944 -0.00692512 -3.04044e-21)
(-0.436836 -0.00792099 3.06028e-21)
(-0.384605 -0.00881156 -1.24832e-21)
(-0.325746 -0.00954775 4.56716e-22)
(-0.261109 -0.0100885 -5.92382e-22)
(-0.191865 -0.0104059 4.47883e-22)
(-0.119404 -0.010495 -8.9415e-23)
(-0.0452137 -0.0103654 -8.23046e-24)
(0.029246 -0.0100477 1.0306e-22)
(0.10267 -0.00958073 -2.09164e-22)
(0.173967 -0.00900652 -3.64256e-22)
(0.242294 -0.00836521 3.65672e-22)
(0.307054 -0.00769167 2.78089e-22)
(0.367872 -0.00701399 -1.96873e-23)
(0.424562 -0.00635323 1.0073e-22)
(0.477089 -0.00572413 -3.09929e-22)
(0.525528 -0.00513609 2.32641e-22)
(0.57004 -0.00459427 -2.15552e-22)
(0.610835 -0.00410078 3.58198e-22)
(0.648164 -0.00365534 1.1597e-22)
(0.68228 -0.00325627 -4.08401e-23)
(0.713463 -0.00290067 1.52906e-23)
(0.741956 -0.00258526 5.13362e-23)
(0.768038 -0.00230608 3.24068e-22)
(0.791898 -0.0020595 -3.1483e-22)
(0.81381 -0.00184115 -2.04294e-22)
(0.833874 -0.00164778 8.03246e-23)
(0.852374 -0.00147485 -2.35086e-23)
(0.869272 -0.00131999 6.66012e-23)
(0.884914 -0.00117836 1.07983e-22)
(0.899047 -0.00104939 1.81013e-22)
(0.912179 -0.000928079 1.16181e-22)
(0.92373 -0.000817262 -1.01557e-22)
(0.934577 -0.000711376 1.22399e-22)
(0.943629 -0.000618142 -9.28785e-23)
(0.952478 -0.00052873 2.90026e-23)
(0.959156 -0.000456751 -4.29682e-23)
(0.966504 -0.00038511 -4.56862e-23)
(0.970973 -0.00033679 -1.10679e-23)
(0.977548 -0.000279787 5.59294e-23)
(0.979847 -0.000255378 9.51524e-26)
(0.986611 -0.000206065 4.12428e-24)
(-0.585043 -0.00816858 -4.88857e-21)
(-0.567434 -0.0112292 3.54926e-21)
(-0.543538 -0.0143901 2.3539e-21)
(-0.512892 -0.0175924 -7.89879e-22)
(-0.47515 -0.0207458 -8.83119e-21)
(-0.430172 -0.0237286 7.74085e-21)
(-0.378102 -0.0263963 -5.11838e-21)
(-0.319433 -0.0286015 -1.49731e-21)
(-0.255014 -0.030221 6.4651e-23)
(-0.186018 -0.0311706 -1.15107e-22)
(-0.113835 -0.0314361 -1.06401e-21)
(-0.0399501 -0.0310456 4.22928e-22)
(0.0341809 -0.0300917 -4.6779e-22)
(0.107259 -0.0286913 1.14929e-21)
(0.178203 -0.0269699 -4.38042e-22)
(0.246177 -0.0250481 -6.02677e-22)
(0.31059 -0.0230304 8.63736e-22)
(0.371074 -0.0210006 -5.68323e-22)
(0.427448 -0.0190219 -1.30309e-21)
(0.479679 -0.0171382 1.19173e-21)
(0.527844 -0.0153776 -8.98477e-22)
(0.572104 -0.0137555 6.07729e-22)
(0.612668 -0.0122782 -2.75669e-22)
(0.649786 -0.0109447 -3.68106e-22)
(0.683712 -0.00975013 -7.19147e-23)
(0.714723 -0.00868567 2.76271e-23)
(0.74306 -0.00774155 2.42266e-22)
(0.769001 -0.00690586 7.8612e-24)
(0.792734 -0.00616775 -4.31353e-22)
(0.814531 -0.00551415 3.58243e-22)
(0.834492 -0.00493535 8.84632e-22)
(0.852899 -0.0044177 -6.6716e-23)
(0.869714 -0.00395413 -1.34243e-22)
(0.885282 -0.00353019 5.78165e-23)
(0.899349 -0.00314412 -7.10643e-23)
(0.912424 -0.00278094 1.57586e-22)
(0.923926 -0.00244916 8.69033e-23)
(0.934731 -0.0021321 -2.59868e-22)
(0.94375 -0.0018529 2.36926e-22)
(0.95257 -0.00158507 -2.31777e-23)
(0.959226 -0.00136947 1.43914e-22)
(0.966557 -0.0011548 1.46001e-22)
(0.971013 -0.00101004 -2.3287e-23)
(0.977576 -0.000839178 -1.60519e-22)
(0.979869 -0.000766035 -2.42242e-23)
(0.986624 -0.000618197 1.75889e-23)
(-0.57125 -0.0135927 2.44057e-20)
(-0.553629 -0.0186697 -1.65458e-20)
(-0.529795 -0.0239159 5.02763e-22)
(-0.499282 -0.0292342 7.69426e-21)
(-0.461742 -0.0344744 -1.12456e-21)
(-0.417028 -0.0394341 -1.4512e-21)
(-0.36528 -0.0438716 8.33264e-21)
(-0.306989 -0.0475405 -2.12953e-21)
(-0.243005 -0.0502342 2.31457e-21)
(-0.174503 -0.0518116 -2.81048e-22)
(-0.10287 -0.0522503 -7.44635e-22)
(-0.0295878 -0.0515963 3.08038e-22)
(0.0438948 -0.0500051 -6.06494e-22)
(0.116293 -0.0476722 -2.56552e-23)
(0.186542 -0.0448072 9.14341e-22)
(0.25382 -0.0416102 -2.78107e-22)
(0.317552 -0.0382552 -3.87291e-22)
(0.377382 -0.0348814 1.79106e-21)
(0.433134 -0.0315934 -2.37215e-21)
(0.484783 -0.0284639 2.02493e-21)
(0.532409 -0.0255394 1.65249e-21)
(0.576173 -0.0228453 -1.02343e-21)
(0.616283 -0.0203918 -2.15893e-21)
(0.652989 -0.0181775 1.03063e-21)
(0.686539 -0.0161937 -1.67433e-22)
(0.717211 -0.0144262 1.04291e-21)
(0.745241 -0.0128585 -5.87907e-22)
(0.770905 -0.0114708 3.70757e-22)
(0.794388 -0.0102452 1.22606e-21)
(0.815959 -0.00915997 -5.05849e-22)
(0.835715 -0.00819894 -1.01902e-22)
(0.853938 -0.00733947 -7.25397e-22)
(0.870589 -0.00656985 -1.01185e-22)
(0.88601 -0.00586605 -7.70729e-22)
(0.899948 -0.00522518 3.55904e-22)
(0.912909 -0.00462224 -5.9991e-22)
(0.924315 -0.00407147 2.46243e-22)
(0.935038 -0.00354498 2.95476e-22)
(0.943989 -0.00308138 -2.03044e-22)
(0.952754 -0.00263647 1.97946e-22)
(0.959366 -0.00227835 1.07416e-23)
(0.966661 -0.00192158 -2.81301e-22)
(0.971092 -0.00168105 8.69431e-23)
(0.977632 -0.00139695 1.49368e-22)
(0.979913 -0.0012754 2.30605e-23)
(0.986651 -0.00102953 -3.29778e-23)
(-0.550959 -0.0189784 7.6608e-21)
(-0.53333 -0.0260369 4.53967e-21)
(-0.509598 -0.0333364 1.52038e-20)
(-0.479294 -0.0407432 -3.46186e-21)
(-0.442062 -0.0480483 -1.19465e-20)
(-0.397749 -0.0549688 1.18088e-20)
(-0.346486 -0.0611644 -1.51712e-21)
(-0.288762 -0.0662885 -6.32234e-21)
(-0.225424 -0.0700497 -5.1475e-22)
(-0.157653 -0.0722483 2.33823e-21)
(-0.0868332 -0.0728561 -1.19758e-22)
(-0.0144371 -0.0719345 3.00007e-22)
(0.0580941 -0.0697049 4.23328e-22)
(0.129497 -0.0664418 -8.03633e-22)
(0.19873 -0.0624388 1.05446e-21)
(0.264993 -0.0579757 -9.86217e-22)
(0.327732 -0.0532948 -1.48308e-21)
(0.386607 -0.0485902 1.11403e-21)
(0.441454 -0.0440069 2.39085e-21)
(0.492256 -0.039646 -1.55545e-21)
(0.539096 -0.0355716 1.4541e-22)
(0.582137 -0.0318189 1.92113e-21)
(0.621585 -0.0284018 8.3985e-22)
(0.657688 -0.025318 1.51882e-22)
(0.690692 -0.0225555 1.02238e-21)
(0.720868 -0.0200941 -1.7562e-21)
(0.748449 -0.0179111 -2.28824e-22)
(0.773707 -0.0159789 -6.81192e-22)
(0.796823 -0.0142724 -7.12116e-22)
(0.818063 -0.0127613 3.44277e-23)
(0.83752 -0.0114233 -5.54484e-23)
(0.855473 -0.0102267 1.54855e-21)
(0.871882 -0.00915537 -2.32686e-22)
(0.887087 -0.00817572 -1.314e-22)
(0.900834 -0.00728377 -7.24104e-22)
(0.913628 -0.00644456 -4.29907e-23)
(0.92489 -0.00567799 1.66887e-22)
(0.935492 -0.00494497 -2.22842e-22)
(0.944343 -0.00429951 2.38588e-22)
(0.953026 -0.00367972 -3.14948e-22)
(0.959574 -0.0031809 -1.96115e-22)
(0.966816 -0.00268352 8.01355e-23)
(0.971209 -0.00234837 -3.73775e-22)
(0.977716 -0.00195204 -1.39992e-22)
(0.979979 -0.00178264 -1.01578e-22)
(0.986692 -0.00143953 2.43879e-23)
(-0.52462 -0.0243055 -3.18224e-20)
(-0.506998 -0.0332973 2.71743e-20)
(-0.483415 -0.042606 -6.74769e-21)
(-0.4534 -0.0520636 2.03528e-21)
(-0.416588 -0.0614032 -1.86096e-20)
(-0.372814 -0.0702629 4.60842e-21)
(-0.322198 -0.0782013 6.89174e-21)
(-0.265225 -0.0847699 2.85258e-21)
(-0.202741 -0.089591 -1.56146e-21)
(-0.135929 -0.092403 9.11426e-22)
(-0.066169 -0.0931764 -2.01687e-21)
(0.00507507 -0.0919817 9.23939e-22)
(0.0763741 -0.0891137 -4.77339e-23)
(0.146492 -0.0849244 -9.70658e-23)
(0.214415 -0.0797918 -4.87138e-22)
(0.279374 -0.0740752 4.01814e-21)
(0.340838 -0.0680843 3.31914e-22)
(0.398487 -0.0620668 -3.18083e-21)
(0.452175 -0.0562075 9.75326e-22)
(0.501891 -0.0506344 9.35455e-22)
(0.547723 -0.0454291 -2.8782e-21)
(0.589837 -0.0406357 3.16856e-21)
(0.628438 -0.0362717 1.33466e-21)
(0.663767 -0.0323337 -1.5904e-21)
(0.696068 -0.0288064 -6.86396e-22)
(0.725607 -0.0256637 -4.185e-22)
(0.752611 -0.0228766 2.23062e-21)
(0.777346 -0.0204097 -1.9711e-21)
(0.799989 -0.018231 4.97008e-22)
(0.8208 -0.016302 -4.8881e-22)
(0.83987 -0.0145941 3.14811e-22)
(0.857474 -0.0130668 -3.22768e-22)
(0.873569 -0.0116996 6.07441e-22)
(0.888493 -0.0104495 2.2994e-22)
(0.901992 -0.00931157 1.03561e-21)
(0.914569 -0.00824082 6.30185e-22)
(0.925645 -0.00726282 -1.06175e-21)
(0.936088 -0.00632724 -9.015e-22)
(0.944808 -0.00550341 3.15652e-22)
(0.953384 -0.00471174 -5.68561e-22)
(0.959847 -0.00407471 4.75778e-22)
(0.96702 -0.00343881 -2.19039e-22)
(0.971364 -0.0030106 2.33802e-22)
(0.977827 -0.00250343 -3.3048e-23)
(0.980066 -0.00228692 1.53822e-23)
(0.986745 -0.00184769 2.44184e-23)
(-0.492782 -0.0295503 -3.0542e-20)
(-0.47519 -0.0404149 -1.098e-20)
(-0.451811 -0.0516774 5.14446e-20)
(-0.422169 -0.0631385 -1.76505e-20)
(-0.38589 -0.0744746 -5.96212e-21)
(-0.342791 -0.0852467 3.51289e-20)
(-0.292981 -0.0949095 -3.3871e-21)
(-0.236939 -0.102911 -1.58946e-20)
(-0.175505 -0.108784 1.61837e-20)
(-0.109869 -0.112201 -1.24425e-20)
(-0.0414018 -0.11314 1.39498e-21)
(0.0284456 -0.111665 5.36318e-22)
(0.0982556 -0.108161 -1.66392e-22)
(0.166827 -0.103052 2.85844e-22)
(0.233179 -0.0968012 3.96159e-22)
(0.296576 -0.0898473 -1.81036e-21)
(0.356517 -0.0825665 -3.6623e-21)
(0.412706 -0.0752585 1.15233e-22)
(0.465012 -0.0681467 2.52063e-21)
(0.513435 -0.0613853 3.64264e-21)
(0.55807 -0.0550721 8.72045e-22)
(0.599081 -0.0492601 -1.63307e-21)
(0.636671 -0.0439695 -5.37455e-21)
(0.671079 -0.0391961 -1.36697e-21)
(0.702542 -0.0349208 4.97343e-21)
(0.731319 -0.0311121 -5.12315e-21)
(0.757634 -0.0277344 2.61445e-23)
(0.781743 -0.024745 1.60049e-21)
(0.803819 -0.022105 2.36776e-22)
(0.824116 -0.0197677 1.4207e-22)
(0.84272 -0.0176984 1.23095e-21)
(0.859904 -0.0158482 -2.37937e-21)
(0.87562 -0.0141924 -8.4785e-22)
(0.890205 -0.0126786 7.71996e-22)
(0.903404 -0.0113009 -1.09817e-21)
(0.915718 -0.0100045 5.92666e-22)
(0.926567 -0.00882048 5.69326e-22)
(0.936818 -0.00768724 1.31578e-21)
(0.945379 -0.00668941 -3.83772e-22)
(0.953822 -0.00572962 7.86299e-23)
(0.960183 -0.00495752 -4.55377e-22)
(0.967272 -0.00418569 1.19674e-22)
(0.971554 -0.00366638 2.74767e-22)
(0.977963 -0.00305012 1.85449e-22)
(0.980174 -0.00278746 3.08954e-23)
(0.986812 -0.00225351 -4.75334e-23)
(-0.456067 -0.0346866 2.82962e-20)
(-0.438534 -0.0473525 3.75478e-20)
(-0.415416 -0.0605029 9.70267e-21)
(-0.386231 -0.0739112 -2.33625e-20)
(-0.350593 -0.0871986 6.2654e-21)
(-0.308302 -0.0998521 3.41784e-21)
(-0.259449 -0.111218 -1.46668e-20)
(-0.204508 -0.12064 2.39689e-21)
(-0.144309 -0.127556 1.78971e-20)
(-0.0800521 -0.13157 -1.17352e-20)
(-0.0130913 -0.132679 1.89097e-21)
(0.0551358 -0.130918 3.50341e-21)
(0.123223 -0.126782 1.43687e-21)
(0.190014 -0.120763 1.19746e-21)
(0.254565 -0.11341 9.07667e-22)
(0.316178 -0.105239 -6.31872e-21)
(0.374385 -0.0966925 1.11647e-20)
(0.428913 -0.0881207 -7.41407e-21)
(0.479651 -0.079784 8.85017e-22)
(0.526609 -0.0718619 -2.82218e-21)
(0.569886 -0.0644676 3.62317e-21)
(0.609647 -0.0576621 6.9483e-21)
(0.646093 -0.0514684 -9.7634e-22)
(0.679457 -0.0458811 1.84452e-21)
(0.709969 -0.0408773 7.09849e-22)
(0.737882 -0.0364199 -3.05205e-23)
(0.763411 -0.0324673 2.0177e-21)
(0.786808 -0.0289692 -1.58689e-21)
(0.808237 -0.0258802 -3.04103e-22)
(0.827946 -0.0231456 -1.0367e-21)
(0.846019 -0.0207249 2.57117e-22)
(0.86272 -0.0185609 3.05548e-21)
(0.878001 -0.0166247 1.56751e-21)
(0.892195 -0.014855 2.09829e-22)
(0.905047 -0.0132449 9.33262e-22)
(0.917057 -0.0117296 4.29091e-23)
(0.927643 -0.010346 -4.30466e-22)
(0.937671 -0.00902086 -1.44469e-22)
(0.946046 -0.00785416 -4.29182e-22)
(0.954337 -0.00673069 1.04209e-21)
(0.960578 -0.0058272 -3.74164e-22)
(0.967567 -0.00492254 -1.49237e-23)
(0.971779 -0.00431445 -1.1346e-22)
(0.978124 -0.0035912 -4.4598e-23)
(0.980302 -0.0032835 4.64384e-23)
(0.986891 -0.00265651 -2.7851e-24)
(-0.415136 -0.039687 -5.56443e-20)
(-0.397695 -0.0540731 -1.25513e-20)
(-0.374893 -0.0690364 4.49356e-20)
(-0.346241 -0.0843278 -4.09142e-20)
(-0.311342 -0.0995145 3.26598e-20)
(-0.269979 -0.114014 -1.79919e-20)
(-0.22222 -0.12706 -1.62209e-20)
(-0.168535 -0.137889 1.7233e-21)
(-0.109742 -0.145842 1.2055e-20)
(-0.0470536 -0.150453 -8.55244e-21)
(0.018203 -0.151724 5.74515e-21)
(0.0846077 -0.149681 -5.43971e-22)
(0.150761 -0.144921 -1.2921e-22)
(0.215565 -0.138006 2.13949e-21)
(0.278114 -0.129569 -1.16016e-21)
(0.337752 -0.120206 -6.33475e-21)
(0.394045 -0.110422 5.94396e-21)
(0.446748 -0.100617 7.23218e-21)
(0.495765 -0.0910867 -3.93781e-21)
(0.541118 -0.0820348 -4.25477e-21)
(0.58291 -0.0735892 -4.33347e-21)
(0.621305 -0.0658182 2.10189e-21)
(0.656499 -0.0587473 -3.95688e-22)
(0.688721 -0.0523695 -1.79909e-21)
(0.718192 -0.0466585 -1.59408e-21)
(0.745159 -0.0415715 7.765e-22)
(0.769828 -0.037061 -1.36139e-21)
(0.792442 -0.0330694 -8.38669e-23)
(0.813159 -0.029545 4.68121e-22)
(0.832222 -0.0264252 -6.17193e-22)
(0.849705 -0.0236641 -2.63339e-21)
(0.865872 -0.0211963 2.20071e-22)
(0.880671 -0.0189889 -2.95141e-21)
(0.894431 -0.0169718 2.83108e-22)
(0.906897 -0.0151374 -1.58524e-21)
(0.918566 -0.013411 6.67442e-22)
(0.928859 -0.0118348 7.7048e-22)
(0.938636 -0.0103244 -2.39763e-22)
(0.946804 -0.00899463 -2.20374e-22)
(0.954922 -0.00771249 6.16025e-23)
(0.961027 -0.00668183 4.927e-22)
(0.967905 -0.00564785 5.24461e-23)
(0.972037 -0.00495364 -6.11273e-22)
(0.978309 -0.00412579 1.23607e-22)
(0.980448 -0.00377435 6.53396e-25)
(0.986981 -0.00305624 -1.8926e-23)
(-0.370663 -0.0445246 -1.56219e-20)
(-0.353344 -0.060542 -3.87923e-20)
(-0.330903 -0.0772355 6.96257e-21)
(-0.302848 -0.0943392 2.87605e-20)
(-0.268774 -0.111367 -1.36135e-20)
(-0.228437 -0.127674 9.16633e-22)
(-0.181891 -0.142373 -1.34451e-20)
(-0.129599 -0.154595 1.16604e-20)
(-0.0723663 -0.163583 8.23379e-21)
(-0.0114158 -0.168828 2.21308e-21)
(0.0519559 -0.170175 -7.87827e-21)
(0.11635 -0.167898 5.01269e-21)
(0.180379 -0.162527 -1.28642e-21)
(0.243011 -0.154733 -2.47057e-21)
(0.303383 -0.145237 2.55331e-21)
(0.360883 -0.134711 -5.30514e-21)
(0.415113 -0.123722 -1.39845e-21)
(0.465855 -0.112718 -3.65693e-21)
(0.51303 -0.102029 5.26316e-21)
(0.556669 -0.0918815 7.70973e-21)
(0.596878 -0.0824168 -1.97721e-21)
(0.633818 -0.0737104 -3.77884e-21)
(0.667681 -0.0657899 -4.29147e-21)
(0.698688 -0.0586469 2.99864e-21)
(0.727052 -0.0522513 2.43691e-21)
(0.753011 -0.046555 6.4214e-21)
(0.776762 -0.0415047 -3.94129e-21)
(0.798541 -0.0370358 8.88422e-22)
(0.818497 -0.0330904 1.70142e-21)
(0.836866 -0.0295983 -3.79281e-22)
(0.853718 -0.0265083 3.8311e-21)
(0.86931 -0.0237472 1.25183e-21)
(0.883588 -0.0212786 9.65636e-22)
(0.896879 -0.0190234 -1.2925e-21)
(0.908926 -0.0169735 1.39341e-21)
(0.920226 -0.0150441 -4.55798e-22)
(0.930199 -0.0132833 -1.57953e-22)
(0.939701 -0.0115946 8.72361e-23)
(0.947641 -0.0101082 -5.25611e-22)
(0.95557 -0.0086729 1.79213e-22)
(0.961526 -0.00751969 3.83817e-22)
(0.968281 -0.00636028 5.81216e-22)
(0.972324 -0.00558289 8.45929e-22)
(0.978516 -0.0046531 2.13621e-22)
(0.980613 -0.00425935 1.97417e-22)
(0.987083 -0.00345228 4.31437e-23)
(-0.323314 -0.0491749 -6.17101e-21)
(-0.306138 -0.0667292 -1.43938e-20)
(-0.284094 -0.085064 1.11535e-20)
(-0.256681 -0.103904 7.20514e-23)
(-0.223491 -0.122709 1.08325e-20)
(-0.184259 -0.14078 -9.23846e-21)
(-0.139018 -0.157101 7.90479e-21)
(-0.0882352 -0.1707 -6.32093e-21)
(-0.0327062 -0.180724 -1.07944e-21)
(0.026378 -0.186589 -3.47121e-21)
(0.087701 -0.188023 3.59809e-21)
(0.149889 -0.185522 -1.46658e-21)
(0.211631 -0.179555 -2.48684e-21)
(0.271925 -0.170904 2.70473e-21)
(0.329966 -0.160379 -1.22496e-21)
(0.385189 -0.148723 1.37051e-21)
(0.437232 -0.136566 -3.68538e-21)
(0.485904 -0.124402 6.98021e-21)
(0.531143 -0.112592 -9.259e-21)
(0.572986 -0.101386 6.45829e-22)
(0.611539 -0.0909362 1.14925e-21)
(0.646961 -0.0813264 2.75194e-21)
(0.679437 -0.0725854 3.48737e-22)
(0.709178 -0.0647033 3.02708e-21)
(0.73639 -0.0576468 -5.42979e-21)
(0.761299 -0.0513623 -2.7523e-21)
(0.784094 -0.0457909 -3.04899e-21)
(0.805 -0.0408613 6.04602e-21)
(0.824161 -0.0365097 -1.1394e-21)
(0.841804 -0.0326586 -3.85083e-22)
(0.857993 -0.0292519 -7.27456e-22)
(0.872981 -0.0262086 -1.41535e-21)
(0.886709 -0.0234889 -6.68473e-22)
(0.899503 -0.0210052 -1.26935e-21)
(0.911106 -0.018749 -1.32471e-21)
(0.922013 -0.0166255 1.50153e-21)
(0.931644 -0.0146882 -2.10248e-21)
(0.940853 -0.0128288 -1.95484e-22)
(0.948549 -0.0111925 1.73924e-21)
(0.956275 -0.00961004 -1.15519e-21)
(0.96207 -0.00833928 -1.20937e-22)
(0.968691 -0.00705864 -8.43754e-22)
(0.972638 -0.00620126 -1.72354e-22)
(0.978743 -0.00517241 -1.75218e-22)
(0.980794 -0.0047379 -9.46174e-23)
(0.987196 -0.00384422 -9.48512e-23)
(-0.256703 -0.0726105 7.38743e-20)
(-0.235073 -0.0924934 -9.61402e-20)
(-0.208327 -0.112989 -3.31629e-20)
(-0.176055 -0.133501 9.04811e-20)
(-0.137975 -0.153289 -3.18012e-21)
(-0.0941043 -0.171199 -2.90093e-20)
(-0.0449226 -0.186167 1.6628e-20)
(0.00879369 -0.197214 -7.21052e-21)
(0.0658796 -0.203637 -8.53545e-21)
(0.125003 -0.205258 1.96723e-21)
(0.184828 -0.202509 -4.11749e-21)
(0.244124 -0.195963 1.45125e-21)
(0.301931 -0.186484 7.055e-22)
(0.357504 -0.174963 8.25271e-22)
(0.410329 -0.162217 -3.03445e-21)
(0.460083 -0.148934 1.27949e-21)
(0.506598 -0.135652 -2.1622e-22)
(0.549828 -0.122763 3.20038e-21)
(0.589814 -0.110536 -2.89257e-21)
(0.626662 -0.0991385 -5.74637e-21)
(0.660524 -0.0886584 4.51269e-21)
(0.691577 -0.0791271 -6.24261e-21)
(0.720023 -0.0705331 1.66899e-21)
(0.746055 -0.0628397 7.7756e-21)
(0.769889 -0.0559884 -5.9387e-21)
(0.791705 -0.049915 5.83245e-22)
(0.811718 -0.0445416 -1.11324e-21)
(0.830062 -0.039799 3.31167e-21)
(0.846959 -0.0356024 -4.54661e-21)
(0.862465 -0.0318911 2.06721e-21)
(0.876829 -0.0285766 2.79447e-22)
(0.889989 -0.0256163 2.29295e-21)
(0.902268 -0.0229139 2.08853e-21)
(0.913409 -0.0204608 2.45422e-22)
(0.923904 -0.0181522 -4.81741e-22)
(0.933178 -0.016047 2.69243e-21)
(0.942079 -0.0140248 8.03196e-22)
(0.949518 -0.0122458 -1.08172e-21)
(0.957028 -0.0105224 2.80474e-22)
(0.962653 -0.00913933 -5.32467e-22)
(0.969133 -0.00774191 8.3826e-22)
(0.972978 -0.00680791 3.56987e-22)
(0.978989 -0.00568309 -3.18388e-22)
(0.98099 -0.00520948 -1.4324e-22)
(0.987319 -0.00423171 7.24889e-23)
(-0.205623 -0.078169 -2.14202e-20)
(-0.184407 -0.0995041 -9.75442e-21)
(-0.158325 -0.121573 -1.22729e-20)
(-0.126978 -0.143714 4.30243e-20)
(-0.0900683 -0.165173 3.19687e-20)
(-0.0476049 -0.184638 -4.69335e-20)
(-8.46382e-05 -0.200962 5.65252e-20)
(0.051739 -0.212979 -2.29407e-20)
(0.106709 -0.219981 -1.5514e-20)
(0.163492 -0.221799 2.21915e-21)
(0.220817 -0.218814 -1.05383e-21)
(0.277521 -0.211714 -1.42429e-21)
(0.332704 -0.20144 1.42007e-21)
(0.385688 -0.188963 -9.99329e-22)
(0.436011 -0.175172 -3.24157e-21)
(0.483388 -0.16081 -3.0038e-21)
(0.527677 -0.146455 1.41287e-21)
(0.568842 -0.132531 1.12193e-21)
(0.60693 -0.119326 4.28908e-22)
(0.64204 -0.107018 2.90608e-21)
(0.674319 -0.0957028 -1.3577e-21)
(0.703931 -0.0854121 7.38344e-21)
(0.731066 -0.0761339 -1.04201e-20)
(0.755907 -0.0678281 1.12291e-21)
(0.778658 -0.0604316 2.79803e-21)
(0.799486 -0.0538753 4.92965e-21)
(0.818597 -0.048075 -6.40691e-22)
(0.836118 -0.0429562 8.60242e-22)
(0.852259 -0.0384275 -3.83484e-22)
(0.867074 -0.0344237 -2.02663e-21)
(0.880803 -0.0308492 1.54032e-21)
(0.893384 -0.0276586 -2.47237e-21)
(0.905137 -0.0247475 -4.66193e-22)
(0.915804 -0.022107 1.85803e-22)
(0.925877 -0.0196223 -1.23592e-21)
(0.934783 -0.0173579 -3.69972e-21)
(0.943365 -0.0151811 -4.951e-22)
(0.950537 -0.0132666 -1.26396e-21)
(0.957823 -0.0114087 -5.15856e-22)
(0.963271 -0.00991882 8.71172e-22)
(0.969601 -0.00840924 -2.83606e-22)
(0.97334 -0.00740214 -8.48392e-22)
(0.979252 -0.00618458 5.16145e-22)
(0.981201 -0.00567361 7.48862e-23)
(0.987452 -0.00461442 1.03378e-23)
(-0.153429 -0.0833947 1.15831e-20)
(-0.132609 -0.106084 7.54001e-20)
(-0.107162 -0.129645 -3.94907e-20)
(-0.0767198 -0.153331 -1.10255e-20)
(-0.0409701 -0.176423 -1.56091e-21)
(8.03562e-05 -0.197395 -1.38214e-20)
(0.0459179 -0.215021 5.49376e-20)
(0.0957851 -0.22799 -3.39699e-20)
(0.148531 -0.2356 5.67202e-21)
(0.202859 -0.2376 -1.1421e-20)
(0.257555 -0.234401 4.26195e-21)
(0.311535 -0.226776 1.16817e-21)
(0.363972 -0.215745 -9.37742e-22)
(0.414258 -0.202358 8.2396e-22)
(0.461988 -0.187571 -2.94997e-21)
(0.506916 -0.172179 2.6267e-21)
(0.548923 -0.156803 3.78071e-22)
(0.587983 -0.141892 -4.49731e-21)
(0.624143 -0.127752 3.79272e-21)
(0.657498 -0.114574 -8.70623e-21)
(0.688182 -0.102459 3.35549e-22)
(0.716347 -0.0914407 9.3268e-22)
(0.742172 -0.0815062 4.44909e-21)
(0.765823 -0.0726126 4.29693e-21)
(0.787493 -0.0646926 -1.56923e-21)
(0.807336 -0.0576722 -2.481e-21)
(0.82555 -0.0514617 -2.78707e-21)
(0.842248 -0.0459815 -2.30515e-21)
(0.857636 -0.0411338 5.42192e-22)
(0.87176 -0.0368493 1.35985e-21)
(0.884854 -0.0330257 -1.08358e-21)
(0.896854 -0.029615 -4.23886e-22)
(0.908076 -0.0265048 -1.60378e-22)
(0.918265 -0.0236863 4.465e-22)
(0.92791 -0.0210347 -3.4317e-22)
(0.93644 -0.0186197 6.67831e-22)
(0.944697 -0.0162964 3.96828e-22)
(0.951596 -0.0142539 1.11577e-21)
(0.958652 -0.0122681 6.05067e-22)
(0.963917 -0.0106769 -6.34479e-22)
(0.970093 -0.00905997 -8.05444e-22)
(0.973721 -0.0079834 7.35504e-22)
(0.979529 -0.00667644 -2.70305e-22)
(0.981425 -0.00612991 -1.73655e-22)
(0.987593 -0.00499206 -5.46614e-23)
(-0.100597 -0.0882851 -9.54024e-21)
(-0.0801361 -0.11223 -6.9039e-21)
(-0.0552731 -0.137211 -6.33662e-20)
(-0.0256888 -0.162368 8.68888e-20)
(0.00893828 -0.18702 -5.65267e-20)
(0.048611 -0.209429 9.44729e-20)
(0.0927568 -0.228308 -4.99818e-20)
(0.14062 -0.242252 2.8836e-20)
(0.191062 -0.250449 -1.497e-20)
(0.242834 -0.25263 -4.07095e-21)
(0.294786 -0.249236 -1.45991e-21)
(0.345923 -0.241118 6.07288e-21)
(0.395504 -0.229373 -4.81388e-22)
(0.442997 -0.215127 1.27951e-21)
(0.488055 -0.199398 -3.29892e-21)
(0.530474 -0.183034 -9.96255e-22)
(0.570155 -0.16669 7.50909e-21)
(0.607081 -0.150841 2.75342e-21)
(0.641296 -0.135813 -7.62005e-22)
(0.672887 -0.121807 8.53495e-22)
(0.701976 -0.108929 2.90771e-21)
(0.728701 -0.0972153 -4.73264e-21)
(0.753222 -0.0866527 9.55292e-23)
(0.775695 -0.0771961 3.12915e-21)
(0.796297 -0.0687739 1.21952e-21)
(0.815169 -0.0613082 8.18969e-22)
(0.832496 -0.0547038 1.05154e-21)
(0.848385 -0.0488766 6.76094e-22)
(0.863029 -0.0437227 -1.22523e-21)
(0.87647 -0.0391691 -1.41909e-21)
(0.888936 -0.0351067 1.17997e-21)
(0.900359 -0.0314858 1.52397e-21)
(0.911053 -0.0281859 -2.42776e-21)
(0.920764 -0.0251986 1.32106e-21)
(0.92998 -0.0223889 2.1811e-21)
(0.938134 -0.019832 6.57263e-22)
(0.946063 -0.0173702 7.72169e-22)
(0.952686 -0.0152071 1.00573e-21)
(0.959507 -0.0130999 6.92807e-22)
(0.964586 -0.0114132 9.44588e-23)
(0.970605 -0.0096936 1.13213e-21)
(0.974119 -0.00855123 -6.82693e-22)
(0.97982 -0.00715828 -4.14873e-24)
(0.981661 -0.00657802 6.70015e-24)
(0.987743 -0.00536437 1.61391e-22)
(-0.0475414 -0.0928472 6.19435e-20)
(-0.0273915 -0.11796 5.2857e-20)
(-0.00304421 -0.144276 -1.81082e-20)
(0.0257646 -0.170889 -6.67629e-20)
(0.0593357 -0.196881 1.39615e-20)
(0.0976821 -0.220725 -2.91766e-20)
(0.140142 -0.240841 5.87891e-20)
(0.185976 -0.255735 -3.37338e-20)
(0.234056 -0.264496 1.57079e-20)
(0.283186 -0.266859 8.45599e-21)
(0.33229 -0.263291 -8.67491e-21)
(0.38048 -0.254715 -1.1452e-21)
(0.427107 -0.242303 1.29584e-21)
(0.471725 -0.227254 -2.91672e-21)
(0.514047 -0.210644 -8.64142e-21)
(0.553907 -0.193367 8.98099e-21)
(0.591229 -0.176111 5.17694e-21)
(0.626001 -0.159379 -2.00585e-20)
(0.658263 -0.143511 1.14991e-20)
(0.68809 -0.128719 1.00662e-20)
(0.71559 -0.115116 2.60707e-21)
(0.740886 -0.10274 -1.83545e-21)
(0.764122 -0.091578 1.3475e-21)
(0.785435 -0.0815828 2.73369e-21)
(0.804987 -0.0726798 5.93463e-23)
(0.822908 -0.0647873 -3.26819e-21)
(0.839369 -0.057805 2.46556e-21)
(0.854465 -0.0516448 -1.07624e-21)
(0.868384 -0.0461969 4.09104e-21)
(0.881156 -0.0413851 -8.14643e-22)
(0.893007 -0.0370941 -9.60945e-22)
(0.903864 -0.0332723 -5.31328e-22)
(0.914038 -0.0297917 4.45622e-22)
(0.923278 -0.0266443 -1.16267e-21)
(0.932069 -0.0236852 1.52327e-21)
(0.939848 -0.0209947 -1.36214e-21)
(0.947449 -0.0184023 -1.25164e-21)
(0.953796 -0.016126 -1.33628e-21)
(0.960382 -0.013904 -1.81349e-22)
(0.965273 -0.0121271 6.44874e-22)
(0.971131 -0.0103098 -4.21691e-22)
(0.974531 -0.00910531 -7.10922e-23)
(0.980122 -0.00762982 -2.08223e-22)
(0.981907 -0.00701768 3.46348e-22)
(0.9879 -0.00573114 -2.19896e-23)
(0.00537637 -0.0971006 -9.05216e-22)
(0.0252844 -0.123352 -5.33684e-20)
(0.0491847 -0.150785 -2.71451e-20)
(0.0773586 -0.178815 -2.33005e-20)
(0.109962 -0.20608 -8.88476e-21)
(0.147006 -0.231319 -1.82454e-20)
(0.187827 -0.252619 2.82686e-21)
(0.231626 -0.268414 4.70379e-21)
(0.277298 -0.277717 -1.17072e-20)
(0.323708 -0.280261 1.37998e-20)
(0.369876 -0.27654 -9.47218e-21)
(0.415028 -0.267544 1.27994e-21)
(0.45862 -0.254519 -8.02756e-22)
(0.500294 -0.238726 4.35729e-21)
(0.539827 -0.221299 -6.12342e-21)
(0.577091 -0.203172 5.80074e-21)
(0.61203 -0.185067 -1.13991e-20)
(0.644636 -0.167507 1.37191e-21)
(0.674943 -0.150848 4.34011e-21)
(0.703013 -0.135315 2.25709e-21)
(0.728938 -0.121025 -2.08732e-20)
(0.752823 -0.10802 1.12963e-20)
(0.774793 -0.0962874 -5.15018e-21)
(0.794969 -0.0857785 9.79193e-22)
(0.813497 -0.0764158 9.17854e-23)
(0.830492 -0.0681144 -1.48383e-21)
(0.846111 -0.0607698 1.78257e-21)
(0.860439 -0.05429 -3.61566e-21)
(0.873653 -0.04856 -4.29893e-21)
(0.885777 -0.0435005 1.05379e-21)
(0.89703 -0.0389904 5.12256e-21)
(0.907337 -0.0349765 -3.45717e-21)
(0.917005 -0.0313238 1.62678e-21)
(0.925783 -0.0280246 4.13041e-21)
(0.934158 -0.0249243 -2.73485e-21)
(0.941568 -0.0221083 2.05892e-21)
(0.948845 -0.0193931 1.41895e-21)
(0.954917 -0.0170106 9.15213e-22)
(0.961269 -0.0146801 9.1726e-22)
(0.965973 -0.0128188 -8.32259e-22)
(0.97167 -0.0109084 -2.69144e-22)
(0.974954 -0.00964546 7.39205e-22)
(0.980434 -0.00809086 3.35435e-22)
(0.982162 -0.0074487 -2.32438e-22)
(0.988063 -0.00609218 -9.00539e-23)
(0.0578397 -0.101053 -1.41769e-19)
(0.0776319 -0.12835 1.26174e-19)
(0.101188 -0.156815 -9.2743e-20)
(0.12879 -0.18612 -3.06192e-20)
(0.160548 -0.21472 6.50844e-20)
(0.196371 -0.241221 5.75336e-20)
(0.235597 -0.263633 -7.36092e-20)
(0.277364 -0.280278 4.49491e-20)
(0.320592 -0.290098 -2.90423e-20)
(0.36422 -0.292818 7.86995e-21)
(0.407377 -0.288964 1.31602e-20)
(0.449415 -0.279589 -7.3367e-22)
(0.489905 -0.266005 -5.06399e-22)
(0.528582 -0.249533 -5.42224e-22)
(0.565285 -0.231357 -7.97388e-22)
(0.599929 -0.212448 4.50484e-22)
(0.632471 -0.193556 -1.71834e-21)
(0.662907 -0.175225 3.67969e-21)
(0.691263 -0.157829 1.81333e-21)
(0.717587 -0.141599 4.51561e-21)
(0.741954 -0.126661 -8.85198e-22)
(0.764448 -0.113062 1.57502e-21)
(0.785177 -0.100787 1.61733e-21)
(0.804243 -0.0897893 -5.03131e-22)
(0.821775 -0.0799877 -6.80731e-21)
(0.83787 -0.0712954 1.99686e-21)
(0.852675 -0.0636036 7.88176e-22)
(0.866262 -0.0568173 -2.18647e-21)
(0.878797 -0.0508165 7.63296e-22)
(0.890298 -0.0455192 1.12099e-21)
(0.900975 -0.040799 2.90988e-21)
(0.910751 -0.0366015 -3.08319e-21)
(0.919929 -0.0327845 8.92762e-22)
(0.928261 -0.0293415 -2.7411e-21)
(0.936229 -0.0261077 5.65132e-23)
(0.94328 -0.0231738 -1.89206e-21)
(0.950239 -0.0203431 -1.68563e-21)
(0.956041 -0.0178613 8.72233e-22)
(0.962161 -0.0154286 -7.80916e-22)
(0.96668 -0.0134881 -2.62837e-22)
(0.972216 -0.0114893 -4.52177e-22)
(0.975385 -0.0101716 -3.8127e-22)
(0.980753 -0.00854128 1.15978e-22)
(0.982424 -0.00787092 -2.61633e-22)
(0.988232 -0.00644735 2.77862e-23)
(0.109627 -0.10471 1.93587e-20)
(0.129396 -0.132922 2.12664e-20)
(0.152724 -0.162471 -3.12605e-20)
(0.17987 -0.192909 9.75184e-20)
(0.210892 -0.22276 -9.33792e-20)
(0.24559 -0.250435 4.85652e-20)
(0.283268 -0.273884 -4.40379e-20)
(0.323011 -0.291322 2.40373e-20)
(0.363766 -0.301624 4.8715e-21)
(0.40456 -0.304513 -6.24357e-21)
(0.444643 -0.300546 4.89841e-21)
(0.483507 -0.290835 2.58703e-21)
(0.520844 -0.276752 -7.39748e-22)
(0.556485 -0.259671 -3.37835e-22)
(0.590334 -0.240816 3.54142e-21)
(0.622342 -0.221195 5.56087e-21)
(0.652483 -0.201581 -6.40404e-21)
(0.680753 -0.182539 8.0028e-21)
(0.707168 -0.164457 2.28559e-21)
(0.731762 -0.147577 -1.08121e-20)
(0.75459 -0.132032 -9.03753e-21)
(0.775718 -0.117872 1.01369e-20)
(0.795232 -0.105084 -8.45253e-21)
(0.813216 -0.0936218 5.73586e-22)
(0.82978 -0.0834022 1.59922e-21)
(0.845007 -0.0743365 -2.93289e-21)
(0.859027 -0.0663123 1.23041e-21)
(0.871902 -0.0592321 3.34629e-21)
(0.883786 -0.0529713 -3.96883e-21)
(0.89469 -0.0474458 -1.42638e-22)
(0.904816 -0.0425238 -6.61492e-21)
(0.914083 -0.0381504 1.66807e-21)
(0.922792 -0.0341766 3.03523e-22)
(0.930693 -0.0305971 1.51882e-21)
(0.93827 -0.0272371 1.71596e-21)
(0.944972 -0.0241926 9.09762e-22)
(0.951622 -0.0212533 4.80319e-22)
(0.957161 -0.0186789 -1.41251e-21)
(0.963054 -0.0161498 -1.36296e-21)
(0.96739 -0.0141353 1.08332e-21)
(0.972768 -0.0120528 -7.83612e-23)
(0.975823 -0.0106837 2.75968e-22)
(0.981078 -0.00898103 -3.98561e-22)
(0.982692 -0.00828428 4.72536e-22)
(0.988406 -0.00679653 2.97608e-23)
(0.160558 -0.108108 2.68431e-20)
(0.1804 -0.137167 -9.14464e-21)
(0.203622 -0.167725 3.21313e-20)
(0.230438 -0.199218 -7.93925e-21)
(0.260834 -0.230214 -4.72766e-20)
(0.2945 -0.258976 4.9393e-20)
(0.330676 -0.283379 -2.08285e-20)
(0.368405 -0.301543 3.77286e-21)
(0.406664 -0.312287 -3.33115e-20)
(0.44458 -0.315335 1.85851e-20)
(0.481541 -0.311276 -8.44131e-21)
(0.517185 -0.301275 6.84089e-21)
(0.551335 -0.286754 1.24145e-21)
(0.583917 -0.269134 1.2032e-22)
(0.614901 -0.249676 -9.87609e-22)
(0.644271 -0.229414 -4.77449e-21)
(0.672016 -0.209145 -1.63195e-21)
(0.698131 -0.189453 2.81055e-21)
(0.722621 -0.170739 -4.0163e-21)
(0.745504 -0.153256 2.63519e-21)
(0.766816 -0.137144 3.81478e-21)
(0.786602 -0.122457 -9.4205e-21)
(0.804929 -0.109186 2.59247e-21)
(0.821859 -0.097283 8.28546e-21)
(0.837485 -0.086666 4.53858e-21)
(0.851874 -0.077244 2.05995e-21)
(0.865141 -0.068902 -2.28796e-21)
(0.877333 -0.0615401 -1.10748e-21)
(0.888597 -0.0550297 5.34313e-21)
(0.898931 -0.0492849 -3.10992e-21)
(0.908533 -0.0441691 5.69864e-21)
(0.917315 -0.0396271 -1.54747e-21)
(0.925575 -0.0355034 2.93503e-21)