/*--------------------------------*- C++ -*----------------------------------*\
  =========                 |
  \\      /  F ield         | OpenFOAM: The Open Source CFD Toolbox
   \\    /   O peration     | Website:  https://openfoam.org
    \\  /    A nd           | Version:  7
     \\/     M anipulation  |
\*---------------------------------------------------------------------------*/
FoamFile
{
    version     2.0;
    format      ascii;
    class       volVectorField;
    location    "60";
    object      U;
}
// * * * * * * * * * * * * * * * * * * * * * * * * * * * * * * * * * * * * * //

dimensions      [0 1 -1 0 0 0 0];

internalField   nonuniform List<vector> 
8500
(
(1.02913 0.376694 -8.86729e-21)
(1.0168 0.39271 -1.0017e-19)
(1.01893 0.376142 1.26458e-19)
(1.003 0.410873 -1.332e-19)
(1.00577 0.391951 1.55506e-19)
(1.00861 0.375265 -1.98267e-19)
(0.988699 0.430826 -7.38889e-20)
(0.991339 0.409948 2.58293e-19)
(0.994627 0.390858 -1.69354e-19)
(0.998193 0.374051 5.47309e-20)
(0.976448 0.429711 1.17259e-19)
(0.979605 0.40868 1.11657e-19)
(0.98337 0.389423 -4.42045e-19)
(0.987675 0.372479 1.00551e-19)
(0.961095 0.450614 1.49601e-19)
(0.964154 0.428217 -1.91844e-19)
(0.967823 0.407065 6.31927e-20)
(0.972019 0.387637 4.60225e-19)
(0.977062 0.37052 2.60442e-19)
(0.944672 0.472657 -6.66735e-20)
(0.948113 0.448837 -2.39329e-19)
(0.95184 0.426336 -7.50146e-20)
(0.956019 0.405099 -2.79651e-19)
(0.96059 0.385489 1.27495e-19)
(0.966369 0.368136 -3.07891e-19)
(0.93088 0.47054 -4.98085e-20)
(0.935101 0.446632 -2.24825e-20)
(0.939524 0.424058 1.52108e-19)
(0.94421 0.402775 2.90862e-19)
(0.94912 0.382968 -4.95769e-19)
(0.955715 0.365294 3.25416e-19)
(0.912116 0.493352 -3.8581e-21)
(0.917049 0.467958 -1.10753e-20)
(0.92207 0.44399 2.76525e-19)
(0.927213 0.421374 -1.06457e-19)
(0.932412 0.400079 -2.06566e-19)
(0.937714 0.380054 -7.02047e-21)
(0.945326 0.36201 -4.52682e-19)
(0.897397 0.490339 -1.36434e-19)
(0.903195 0.464906 7.568e-20)
(0.90903 0.440907 2.14459e-19)
(0.914904 0.418275 6.23175e-20)
(0.920646 0.396986 -3.73922e-19)
(0.926548 0.376674 -1.26883e-20)
(0.935203 0.35824 1.45104e-19)
(0.875945 0.513781 -8.13212e-20)
(0.882663 0.486818 -1.32405e-20)
(0.889334 0.461381 -2.2359e-19)
(0.895987 0.437382 -1.18473e-19)
(0.902593 0.414762 -1.35727e-19)
(0.908956 0.393499 4.36878e-19)
(0.915798 0.372827 -1.01712e-19)
(0.924601 0.352796 3.88162e-19)
(0.852471 0.538239 -2.53284e-19)
(0.860281 0.509729 1.07677e-19)
(0.867935 0.482788 1.73336e-19)
(0.875483 0.457383 7.48426e-20)
(0.882952 0.433417 1.92819e-19)
(0.890294 0.410837 9.10872e-20)
(0.897371 0.389618 -2.75084e-20)
(0.905165 0.368964 2.10345e-19)
(0.914137 0.348881 2.9519e-20)
(0.835828 0.533588 -1.09332e-19)
(0.844641 0.505125 -3.16474e-19)
(0.853235 0.478247 -2.27345e-20)
(0.86166 0.45291 -1.38337e-19)
(0.869943 0.429016 2.14565e-19)
(0.878023 0.406506 -3.35591e-19)
(0.885811 0.385343 -8.74232e-20)
(0.894316 0.364711 -1.31083e-19)
(0.903398 0.344589 -4.8034e-19)
(0.808991 0.558222 -4.13653e-20)
(0.819228 0.52834 -9.47934e-21)
(0.829046 0.499968 -4.29978e-20)
(0.838584 0.473193 -1.06899e-19)
(0.847888 0.447964 -1.53382e-19)
(0.856982 0.424177 7.91106e-20)
(0.865806 0.401775 2.68133e-19)
(0.874305 0.380703 -1.42912e-19)
(0.883445 0.360157 1.87653e-19)
(0.892771 0.340185 5.43199e-19)
(0.791395 0.552263 -4.85214e-19)
(0.802696 0.522494 -2.27584e-19)
(0.813523 0.494258 6.85518e-20)
(0.824004 0.467627 8.98654e-20)
(0.834185 0.442543 3.11376e-19)
(0.844091 0.418902 -4.37262e-19)
(0.85366 0.396642 1.29196e-19)
(0.862862 0.375697 8.02087e-20)
(0.87261 0.355294 -1.15829e-19)
(0.882275 0.335562 -4.06994e-19)
(0.77389 0.545656 2.58395e-19)
(0.786258 0.516049 4.11885e-19)
(0.798093 0.487994 3.33565e-19)
(0.809517 0.46155 2.41136e-19)
(0.820574 0.436651 -5.2565e-19)
(0.831289 0.413191 -3.24064e-21)
(0.841605 0.39111 -1.43437e-19)
(0.851505 0.370329 5.53778e-19)
(0.861855 0.350117 -2.71255e-20)
(0.871917 0.330675 -2.75191e-19)
(0.742186 0.569027 -3.53889e-19)
(0.756505 0.538401 8.45972e-21)
(0.76994 0.509007 1.30413e-19)
(0.782782 0.481179 -2.07421e-19)
(0.795146 0.454962 -2.6454e-19)
(0.807076 0.430286 6.68375e-19)
(0.818598 0.407046 2.70417e-19)
(0.829658 0.385179 -2.79529e-19)
(0.840254 0.364599 -3.29632e-19)
(0.851207 0.344622 -3.71569e-19)
(0.86171 0.325499 -3.01571e-20)
(0.723842 0.5609 1.81691e-19)
(0.739268 0.530501 7.05363e-20)
(0.753768 0.50137 -3.64401e-19)
(0.767614 0.473813 3.8549e-19)
(0.780913 0.447865 2.3436e-19)
(0.793712 0.423452 -9.54149e-20)
(0.806037 0.400468 -1.82712e-19)
(0.81784 0.37885 1.61113e-19)
(0.829129 0.358506 -2.74386e-19)
(0.840689 0.338801 -3.84388e-19)
(0.851661 0.32002 3.75553e-19)
(0.687591 0.582618 5.6475e-19)
(0.705676 0.552078 -2.80884e-19)
(0.722208 0.521962 3.46738e-19)
(0.737769 0.493142 -4.0428e-19)
(0.752612 0.465901 5.3125e-20)
(0.76684 0.440263 -1.65126e-19)
(0.780502 0.416151 1.16281e-19)
(0.793627 0.393459 1.1025e-19)
(0.806169 0.372123 -6.915e-20)
(0.818149 0.35205 6.83962e-19)
(0.830318 0.332649 -8.65342e-20)
(0.841781 0.314228 -3.19072e-19)
(0.668526 0.572836 -4.08717e-19)
(0.687718 0.542564 5.85328e-19)
(0.705352 0.512786 -6.81048e-20)
(0.721966 0.484327 1.68727e-19)
(0.737799 0.457447 2.01449e-19)
(0.75295 0.432159 8.1014e-20)
(0.767469 0.408385 -5.65428e-19)
(0.781386 0.386022 1.25492e-19)
(0.794664 0.365002 1.22114e-19)
(0.807331 0.345231 -4.06578e-19)
(0.820109 0.326163 1.57e-19)
(0.832078 0.308116 5.98244e-20)
(0.626807 0.590972 -5.98986e-20)
(0.649701 0.562309 -6.14038e-21)
(0.669998 0.532367 8.97213e-20)
(0.688727 0.502981 -1.6381e-19)
(0.706387 0.474931 -2.03574e-20)
(0.723201 0.448455 -6.26281e-19)
(0.739265 0.423558 -4.83354e-19)
(0.754631 0.40016 -8.02103e-20)
(0.769334 0.378159 -7.06111e-20)
(0.783341 0.357487 -7.8001e-20)
(0.796692 0.33805 -1.59164e-19)
(0.810076 0.319342 -1.86054e-19)
(0.822561 0.301683 -2.52797e-19)
(0.607214 0.579448 -1.14041e-19)
(0.631148 0.551045 -5.17344e-20)
(0.652548 0.521495 -5.47125e-19)
(0.672363 0.492554 -5.21614e-19)
(0.691057 0.46496 9.82179e-20)
(0.708839 0.438931 8.51633e-19)
(0.725805 0.414465 1.31086e-19)
(0.742009 0.391479 3.49623e-19)
(0.757489 0.369875 -5.44294e-19)
(0.772219 0.349583 -1.3092e-19)
(0.786247 0.330509 6.57114e-19)
(0.800232 0.312186 2.96778e-19)
(0.813238 0.294929 1.21762e-18)
(0.587928 0.567129 -7.10362e-20)
(0.612902 0.539055 3.69208e-19)
(0.635396 0.509956 -2.27565e-19)
(0.656284 0.481514 1.72233e-19)
(0.675999 0.454423 3.94487e-19)
(0.694737 0.428883 -2.7655e-19)
(0.712593 0.404886 7.20337e-20)
(0.729623 0.382349 3.41165e-19)
(0.74587 0.361174 4.3692e-19)
(0.761312 0.341293 -2.28625e-19)
(0.77601 0.32261 -1.34734e-19)
(0.79059 0.304698 2.05072e-19)
(0.80412 0.287856 -6.01587e-19)
(0.539047 0.577562 8.35729e-20)
(0.568982 0.55403 2.3327e-19)
(0.594995 0.526352 -3.50011e-19)
(0.618571 0.497762 8.34383e-19)
(0.640519 0.469869 3.50278e-19)
(0.661239 0.443327 -1.20445e-19)
(0.680917 0.418318 -3.93388e-20)
(0.699648 0.394829 1.61833e-19)
(0.717492 0.372776 -4.51786e-19)
(0.734493 0.352063 3.71432e-20)
(0.750639 0.332622 -2.94126e-19)
(0.765997 0.314359 -1.3276e-19)
(0.781163 0.29688 -5.93711e-19)
(0.795216 0.280468 -2.60013e-19)
(0.519606 0.563462 -2.89958e-19)
(0.550413 0.540166 1.54737e-19)
(0.577458 0.512948 -9.62781e-20)
(0.602103 0.484925 -2.99601e-19)
(0.625093 0.457631 3.25338e-19)
(0.6468 0.431683 3.52733e-19)
(0.667402 0.407246 -1.58289e-21)
(0.686992 0.384302 -8.23071e-20)
(0.705634 0.362767 -4.64978e-20)
(0.723377 0.342548 3.53298e-19)
(0.740214 0.323576 3.23263e-19)
(0.75622 0.305759 9.11372e-20)
(0.771963 0.288736 6.23433e-19)
(0.786536 0.272769 2.06294e-19)
(0.500576 0.548543 -1.03464e-19)
(0.532256 0.525551 -1.80275e-19)
(0.560321 0.498858 -6.85197e-20)
(0.586019 0.471457 -9.07996e-21)
(0.610032 0.444812 -7.15844e-19)
(0.632707 0.419501 -9.13758e-19)
(0.654213 0.395676 -1.42874e-19)
(0.674644 0.373314 3.24179e-19)
(0.694068 0.352331 -1.28711e-19)
(0.712537 0.332637 -6.65002e-19)
(0.730053 0.314162 6.29866e-19)
(0.746695 0.296818 9.17645e-20)
(0.763001 0.280273 -2.59462e-19)
(0.77809 0.264765 4.1056e-19)
(0.44411 0.546862 1.20648e-19)
(0.481992 0.532822 4.19076e-19)
(0.514544 0.510205 -1.4654e-19)
(0.543616 0.484097 2.23638e-19)
(0.570346 0.457374 4.32209e-19)
(0.595361 0.431424 2.37895e-19)
(0.618981 0.406794 1.01403e-18)
(0.641371 0.38362 4.68512e-19)
(0.662624 0.361874 -4.01898e-20)
(0.682812 0.341477 -2.40221e-20)
(0.701992 0.322337 8.45666e-20)
(0.72017 0.304387 -6.92498e-19)
(0.737434 0.287541 -3.74823e-19)
(0.75429 0.271495 1.63333e-19)
(0.769888 0.256463 -5.67983e-19)
(0.425451 0.530308 8.9292e-20)
(0.463893 0.516321 -5.30436e-19)
(0.497309 0.494145 4.04101e-19)
(0.527371 0.468684 -1.9005e-19)
(0.555112 0.44269 -4.3995e-19)
(0.581103 0.417483 -1.07592e-19)
(0.605646 0.393574 -4.17417e-19)
(0.628896 0.371088 -8.77788e-19)
(0.650951 0.349995 7.51463e-20)
(0.671884 0.330214 7.09572e-19)
(0.691755 0.311658 -3.13121e-19)
(0.71058 0.29426 3.88189e-19)
(0.72845 0.277936 5.24981e-19)
(0.745842 0.262411 3.41664e-19)
(0.761941 0.24787 2.62846e-19)
(0.407305 0.512929 3.19021e-19)
(0.446313 0.499063 5.60252e-19)
(0.480583 0.477393 -6.84337e-19)
(0.511615 0.452636 5.43219e-19)
(0.540341 0.427421 4.38683e-19)
(0.567284 0.403002 -1.27124e-19)
(0.592723 0.379856 -6.90296e-20)
(0.61681 0.358095 2.54801e-19)
(0.639643 0.337687 -4.4288e-19)
(0.6613 0.318554 -6.00152e-19)
(0.681844 0.30061 2.30657e-19)
(0.701297 0.28379 -2.34609e-19)
(0.719757 0.268012 -2.85657e-19)
(0.737668 0.253027 -2.49667e-19)
(0.754258 0.238993 2.47177e-20)
(0.38971 0.494751 -5.51759e-19)
(0.429286 0.48107 -4.52753e-20)
(0.464397 0.459969 3.38566e-20)
(0.496376 0.435972 -5.7975e-20)
(0.52606 0.411587 -5.48536e-19)
(0.553925 0.387998 -2.31874e-20)
(0.580233 0.365653 -9.14766e-20)
(0.605131 0.344653 5.56355e-19)
(0.628719 0.324963 -1.74544e-19)
(0.651077 0.306508 -5.01152e-20)
(0.672273 0.289204 3.01729e-19)
(0.692336 0.272987 8.90003e-19)
(0.711366 0.257779 -9.16701e-20)
(0.72978 0.243353 -1.08421e-19)
(0.746849 0.229842 1.88409e-19)
(0.326718 0.47535 3.92377e-19)
(0.372703 0.475802 -2.3146e-19)
(0.412846 0.462368 -3.79752e-19)
(0.44878 0.441896 3.77956e-19)
(0.48168 0.418713 -1.27803e-19)
(0.512292 0.395204 3.58628e-19)
(0.54105 0.372488 1.65533e-19)
(0.568197 0.350983 -9.78518e-20)
(0.593878 0.330777 -3.78705e-19)
(0.618195 0.311838 4.72724e-19)
(0.64123 0.294089 -1.19346e-19)
(0.663056 0.277451 -5.28266e-19)
(0.683708 0.261861 -1.84729e-19)
(0.703289 0.247245 -5.84998e-20)
(0.722188 0.233398 9.27367e-19)
(0.739723 0.220426 -6.03016e-19)
(0.310249 0.456013 -2.92131e-19)
(0.356318 0.456109 5.763e-19)
(0.397024 0.442983 1.05418e-19)
(0.433761 0.423197 2.8435e-19)
(0.467552 0.400881 2.13501e-19)
(0.49906 0.378294 -5.9083e-19)
(0.528678 0.356491 -3.13068e-19)
(0.556634 0.335861 5.85984e-19)
(0.58307 0.316483 -2.05427e-20)
(0.608088 0.298324 -4.87538e-19)
(0.631776 0.281309 1.26635e-19)
(0.654209 0.265363 6.14693e-19)
(0.675428 0.250425 -5.03285e-19)
(0.695539 0.236422 -2.06118e-19)
(0.714903 0.223171 -1.83994e-19)
(0.732891 0.210754 4.10009e-19)
(0.29442 0.435913 -3.91566e-19)
(0.340591 0.435702 -1.70816e-19)
(0.381851 0.422941 -7.18464e-20)
(0.419367 0.403899 -5.69038e-19)
(0.454019 0.382498 -4.36408e-19)
(0.486388 0.360877 5.84376e-19)
(0.516832 0.340025 3.27889e-19)
(0.545564 0.320305 -2.59268e-19)
(0.572724 0.301787 -3.02023e-19)
(0.598415 0.284437 3.31238e-19)
(0.622729 0.268183 -1.88632e-19)
(0.645743 0.252954 2.74632e-19)
(0.667507 0.238689 1.33561e-19)
(0.688127 0.22532 5.23968e-19)
(0.707937 0.212683 1.053e-19)
(0.726362 0.200836 -4.84384e-19)
(0.279268 0.415082 -7.98268e-20)
(0.325554 0.414613 -2.27553e-19)
(0.367356 0.402273 2.01723e-19)
(0.405624 0.384026 7.55419e-20)
(0.441102 0.363588 -2.25777e-19)
(0.474297 0.342974 1.52301e-19)
(0.505531 0.323111 -4.09223e-19)
(0.535005 0.304333 -9.23501e-20)
(0.562856 0.286706 3.81328e-19)
(0.589191 0.270193 1.36542e-19)
(0.614102 0.254726 2.17552e-19)
(0.637673 0.240237 -4.15437e-19)
(0.659957 0.226666 -1.61793e-19)
(0.681063 0.213951 -5.5702e-20)
(0.701298 0.201945 7.6634e-20)
(0.720143 0.190684 4.43744e-19)
(0.264826 0.393555 -1.78031e-19)
(0.311237 0.392872 3.94484e-19)
(0.353566 0.381006 6.30298e-19)
(0.392557 0.363606 1.81089e-19)
(0.428825 0.344176 2.49259e-19)
(0.462807 0.324609 -4.32117e-21)
(0.494793 0.305769 1.20946e-19)
(0.524973 0.287966 4.26347e-19)
(0.553483 0.271258 -6.34884e-20)
(0.58043 0.255608 -7.77647e-19)
(0.60591 0.240952 6.58376e-21)
(0.630011 0.227225 4.48703e-20)
(0.65279 0.21437 4.16775e-20)
(0.674358 0.202328 -2.59542e-19)
(0.694997 0.190969 -2.43169e-19)
(0.714244 0.180307 -4.76285e-19)
(0.200509 0.354139 -1.19512e-19)
(0.251127 0.371367 2.37098e-19)
(0.297669 0.370515 2.34464e-19)
(0.340508 0.359173 -2.35099e-19)
(0.38019 0.342666 2.75264e-20)
(0.417208 0.324287 -1.5524e-19)
(0.451938 0.305804 3.85034e-20)
(0.484637 0.288021 -4.67897e-21)
(0.515486 0.271223 -1.91041e-19)
(0.544619 0.255461 -8.69467e-20)
(0.572146 0.240699 5.16187e-19)
(0.598166 0.226878 -3.89696e-19)
(0.622768 0.213935 2.64071e-19)
(0.646017 0.201815 1.07975e-19)
(0.668022 0.190464 -2.51544e-20)
(0.689043 0.179765 7.65707e-21)
(0.708673 0.169719 2.62036e-19)
(0.188067 0.332601 3.29668e-19)
(0.238201 0.348554 -1.83243e-19)
(0.28488 0.347575 -3.24322e-19)
(0.328207 0.336804 -1.98364e-19)
(0.368544 0.321237 -3.87242e-19)
(0.406273 0.303948 3.18991e-19)
(0.441708 0.286584 -2.63942e-19)
(0.47508 0.269889 5.69296e-20)
(0.50656 0.254124 4.02399e-20)
(0.53628 0.239334 -1.76903e-19)
(0.564354 0.225485 2.07686e-19)
(0.590882 0.21252 3.16896e-19)
(0.615956 0.20038 -2.83283e-19)
(0.639648 0.189014 -3.27488e-19)
(0.662064 0.178371 6.32128e-19)
(0.683445 0.168348 -5.74511e-19)
(0.703438 0.158929 2.11925e-19)
(0.176385 0.310459 -2.74929e-19)
(0.226076 0.325155 5.88877e-20)
(0.272893 0.324087 1.28795e-19)
(0.316685 0.313933 -4.51752e-19)
(0.357641 0.299347 7.43297e-20)
(0.396038 0.283186 -3.10841e-19)
(0.432134 0.266974 2.6616e-19)
(0.466137 0.251396 6.42965e-20)
(0.498208 0.236691 -2.94001e-19)
(0.528479 0.222898 -6.74619e-20)
(0.557065 0.209984 1.61107e-19)
(0.584069 0.197896 7.66235e-20)
(0.609586 0.186578 -2.28724e-20)
(0.633692 0.175983 1.91591e-20)
(0.656494 0.166063 -5.55106e-19)
(0.67821 0.156729 3.99611e-19)
(0.698545 0.147952 3.74037e-19)
(0.16549 0.287753 2.50263e-19)
(0.21478 0.301209 1.71862e-19)
(0.261734 0.300089 3.27609e-19)
(0.305965 0.290593 4.61479e-20)
(0.3475 0.277027 3.21378e-20)
(0.386521 0.26203 -2.33286e-21)
(0.423234 0.247001 -3.40525e-19)
(0.457823 0.232567 1.80077e-19)
(0.490445 0.218946 -2.92544e-19)
(0.521228 0.206172 1.94551e-19)
(0.55029 0.194214 -3.15865e-19)
(0.577738 0.183022 -1.87804e-19)
(0.603667 0.172544 3.83007e-19)
(0.628159 0.162736 3.44982e-20)
(0.651319 0.153555 8.78439e-20)
(0.673348 0.144922 3.54492e-20)
(0.694002 0.136799 -4.12679e-19)
(0.155409 0.264523 -1.6761e-19)
(0.204337 0.276756 1.06109e-19)
(0.251425 0.275618 -2.4109e-19)
(0.296066 0.266817 1.84786e-19)
(0.33814 0.254309 2.67051e-20)
(0.377738 0.240507 1.58174e-19)
(0.415021 0.22669 -5.4985e-21)
(0.450154 0.213426 -1.58029e-19)
(0.483283 0.200912 1.58077e-19)
(0.51454 0.189179 -4.09438e-19)
(0.544042 0.178195 5.77115e-19)
(0.571899 0.167917 2.23023e-19)
(0.598209 0.158296 -4.71682e-19)
(0.623056 0.14929 4.78744e-20)
(0.646548 0.140861 3.13702e-19)
(0.668865 0.132941 -4.48753e-19)
(0.689815 0.125484 -2.58531e-21)
(0.146167 0.240812 1.09811e-19)
(0.19477 0.251836 -9.09063e-20)
(0.241987 0.250712 -4.52686e-20)
(0.287008 0.242643 -9.24965e-20)
(0.329577 0.231225 -1.18541e-19)
(0.369705 0.218649 -3.32948e-19)
(0.407511 0.206068 1.46858e-19)
(0.44314 0.193998 -2.06167e-19)
(0.476734 0.182612 3.83081e-19)
(0.508425 0.171938 2.61297e-19)
(0.53833 0.161948 -4.64626e-19)
(0.566561 0.152599 -4.71869e-19)
(0.593219 0.143849 2.27752e-19)
(0.618393 0.13566 -2.56116e-19)
(0.642188 0.127996 -3.20223e-20)
(0.664768 0.120799 2.56675e-19)
(0.68599 0.114019 -4.80078e-19)
(0.137784 0.216663 -1.76352e-19)
(0.186099 0.226491 -2.54553e-19)
(0.233438 0.225409 3.75647e-19)
(0.278807 0.218104 5.2619e-20)
(0.321827 0.207808 1.91025e-19)
(0.362436 0.196483 2.0301e-19)
(0.400715 0.185164 -4.84207e-20)
(0.436794 0.174308 2.8918e-19)
(0.47081 0.16407 -1.71958e-19)
(0.502893 0.154473 -2.25533e-19)
(0.533163 0.145492 3.62854e-19)
(0.561733 0.137088 4.17139e-19)
(0.588707 0.129223 -4.82799e-19)
(0.614176 0.121863 6.71747e-20)
(0.638245 0.114976 -4.4947e-20)
(0.661063 0.108511 -1.60144e-19)
(0.682532 0.102418 6.43158e-20)
(0.130282 0.192119 1.93717e-19)
(0.178345 0.200764 1.40933e-19)
(0.225797 0.199751 -2.0287e-19)
(0.271478 0.193239 9.58168e-20)
(0.314903 0.184091 1.08976e-19)
(0.355943 0.174043 -3.45906e-19)
(0.394646 0.164006 1.70914e-19)
(0.431127 0.154383 1.93794e-20)
(0.46552 0.14531 1.67212e-19)
(0.497953 0.136806 -2.18241e-19)
(0.52855 0.128848 2.74798e-20)
(0.557423 0.121403 -1.75092e-20)
(0.584679 0.114435 2.47007e-20)
(0.610412 0.107915 1.51325e-19)
(0.634726 0.101815 2.74732e-20)
(0.657756 0.0960915 -3.41942e-20)
(0.679447 0.0906942 3.99584e-21)
(0.123679 0.167224 -2.91719e-20)
(0.171523 0.174698 1.72614e-19)
(0.219077 0.173776 -2.1956e-19)
(0.265036 0.168083 5.50738e-20)
(0.308818 0.160107 -1.96915e-19)
(0.350237 0.151357 6.14987e-22)
(0.389313 0.142622 -3.2103e-19)
(0.426148 0.13425 -2.35645e-19)
(0.460872 0.126357 1.27803e-19)
(0.493614 0.11896 3.40912e-20)
(0.524497 0.112038 -9.10116e-20)
(0.553637 0.105563 1.22968e-19)
(0.581141 0.0995038 9.08196e-20)
(0.607106 0.0938337 1.53573e-19)
(0.631635 0.0885296 7.61894e-20)
(0.654852 0.0835554 1.76939e-19)
(0.676738 0.0788622 7.2393e-20)
(0.0725888 0.124654 2.80916e-19)
(0.11799 0.142025 -1.10425e-19)
(0.165649 0.148337 -5.09904e-20)
(0.213293 0.147527 -9.75699e-20)
(0.259493 0.142674 9.4051e-21)
(0.303582 0.135893 6.99821e-20)
(0.345329 0.128459 2.1865e-19)
(0.384726 0.121042 2.70296e-19)
(0.421866 0.113935 1.0599e-19)
(0.456875 0.107235 -2.56597e-20)
(0.489883 0.100957 -5.60711e-20)
(0.521013 0.0950835 -1.42355e-19)
(0.550382 0.0895886 1.7347e-20)
(0.578099 0.0844473 -1.71677e-20)
(0.604264 0.0796363 -1.25531e-19)
(0.628978 0.0751364 -1.33279e-20)
(0.652356 0.0709177 -2.55982e-19)
(0.67441 0.0669359 5.09481e-21)
(0.0683506 0.102332 -1.14935e-19)
(0.113229 0.116567 -6.09639e-21)
(0.160735 0.121725 -1.31226e-20)
(0.208456 0.121044 6.52783e-20)
(0.254858 0.117051 -2.05656e-19)
(0.299206 0.111482 -8.12633e-20)
(0.341227 0.10538 -1.39866e-19)
(0.380892 0.099295 5.68365e-21)
(0.418288 0.0934651 4.75166e-20)
(0.453535 0.0879708 1.07072e-19)
(0.486765 0.0828223 -2.12865e-20)
(0.518101 0.0780055 9.56852e-20)
(0.547662 0.0734999 -4.71832e-20)
(0.575558 0.0692845 -1.7269e-19)
(0.60189 0.0653402 -1.82689e-20)
(0.626759 0.0616512 -4.06761e-20)
(0.650271 0.0581938 1.95437e-19)
(0.672466 0.0549294 -3.33386e-20)
(0.064947 0.0798064 -2.68715e-20)
(0.109407 0.0908953 5.93007e-20)
(0.156791 0.0949074 4.65829e-20)
(0.204576 0.0943691 1.34459e-20)
(0.251141 0.0912525 1.58697e-19)
(0.295697 0.0869089 -4.31796e-20)
(0.337937 0.0821532 3.87514e-20)
(0.377819 0.0774111 4.65451e-20)
(0.415419 0.0728689 3.25361e-20)
(0.450858 0.0685886 -8.94466e-20)
(0.484266 0.0645782 1.18674e-19)
(0.515768 0.0608265 9.02814e-20)
(0.545483 0.0573174 -3.57668e-20)
(0.573522 0.0540346 1.47206e-19)
(0.599988 0.050963 2.33144e-19)
(0.62498 0.0480906 -3.4504e-20)
(0.6486 0.0453991 8.86249e-20)
(0.670909 0.0428572 -4.03354e-20)
(0.0623869 0.057122 1.82157e-20)
(0.106533 0.0650577 -9.38399e-20)
(0.153827 0.067929 4.8735e-20)
(0.201659 0.0675446 1.4422e-19)
(0.248348 0.0653161 -1.16762e-19)
(0.293061 0.0622103 -6.82234e-21)
(0.335467 0.0588102 3.04945e-20)
(0.375511 0.0554204 6.86752e-20)
(0.413265 0.0521739 6.43342e-21)
(0.448848 0.0491149 -2.2403e-20)
(0.482389 0.0462492 -3.67735e-20)
(0.514016 0.0435687 -3.92867e-20)
(0.543847 0.0410618 1.51693e-20)
(0.571993 0.0387167 1.53558e-20)
(0.59856 0.0365227 -7.84497e-20)
(0.623646 0.0344712 -7.76718e-21)
(0.647347 0.0325493 -1.91102e-19)
(0.669741 0.0307338 8.04677e-20)
(0.0606771 0.0343237 -8.64322e-21)
(0.104614 0.039101 3.97604e-20)
(0.151849 0.0408355 -2.33718e-20)
(0.199714 0.040613 -7.38744e-20)
(0.246485 0.0392812 3.60387e-20)
(0.291302 0.0374214 -8.25754e-22)
(0.333819 0.0353843 -1.05571e-19)
(0.373972 0.0333531 6.45751e-20)
(0.411829 0.031408 -4.39079e-20)
(0.447508 0.0295757 3.51818e-20)
(0.481139 0.0278594 -2.91436e-20)
(0.512849 0.0262545 1.55035e-20)
(0.542757 0.0247537 2.83786e-20)
(0.570976 0.0233502 -8.39041e-20)
(0.59761 0.0220372 7.99885e-21)
(0.622758 0.0208097 -3.85879e-21)
(0.646512 0.01966 4.84692e-20)
(0.668963 0.0185738 1.09865e-21)
(0.0598222 0.0114567 5.96875e-21)
(0.103655 0.0130724 7.49307e-21)
(0.15086 0.0136726 -1.49193e-20)
(0.198742 0.0136167 2.88327e-20)
(0.245555 0.013187 -1.1454e-20)
(0.290425 0.0125782 3.59487e-20)
(0.332998 0.0119085 3.32036e-20)
(0.373205 0.0112398 -4.16672e-20)
(0.411113 0.0105996 -1.55008e-20)
(0.446841 0.00999696 2.12593e-20)
(0.480517 0.0094331 -1.50396e-20)
(0.512269 0.00890632 -1.94364e-20)
(0.542215 0.00841425 1.69364e-21)
(0.57047 0.00795443 2.03112e-20)
(0.597137 0.00752462 4.0069e-20)
(0.622317 0.00712298 3.01689e-21)
(0.646098 0.00674697 4.5298e-21)
(0.668577 0.0063918 2.01673e-20)
(0.0598244 -0.0114337 4.74524e-21)
(0.103658 -0.0129807 8.86674e-21)
(0.150864 -0.0135139 -7.51095e-21)
(0.198746 -0.0134015 2.72693e-20)
(0.24556 -0.0129272 -1.51982e-20)
(0.290431 -0.0122833 3.96701e-20)
(0.333004 -0.0115842 2.44662e-20)
(0.373211 -0.010889 -3.30194e-20)
(0.41112 -0.0102231 -1.21769e-20)
(0.446848 -0.00959497 1.5205e-20)
(0.480524 -0.00900548 -1.27374e-20)
(0.512276 -0.00845312 -2.49921e-20)
(0.542223 -0.00793571 6.62096e-21)
(0.570477 -0.00745102 1.80564e-20)
(0.597145 -0.006997 4.11228e-20)
(0.622324 -0.00657208 3.55482e-21)
(0.646105 -0.00617384 3.15635e-21)
(0.668584 -0.00579737 2.14801e-20)
(0.0606838 -0.0343023 3.22557e-20)
(0.104623 -0.0390108 2.48702e-20)
(0.15186 -0.0406781 -2.02096e-20)
(0.199727 -0.0403988 -1.20824e-19)
(0.2465 -0.0390223 7.35033e-20)
(0.291319 -0.0371272 -1.22254e-20)
(0.333837 -0.0350606 -5.77082e-20)
(0.373991 -0.0330028 2.12027e-23)
(0.411849 -0.0310319 -3.22693e-20)
(0.447529 -0.0291739 4.23137e-20)
(0.48116 -0.027432 -4.27759e-20)
(0.51287 -0.0258013 3.6271e-20)
(0.542779 -0.0242752 1.37456e-20)
(0.570997 -0.0228467 -6.6624e-20)
(0.597631 -0.0215095 2.01541e-20)
(0.622779 -0.0202586 -3.28196e-21)
(0.646533 -0.0190866 3.58086e-20)
(0.668983 -0.0179791 3.71171e-21)
(0.0623983 -0.0571036 -4.87777e-20)
(0.106548 -0.0649705 -7.63212e-20)
(0.153846 -0.0677743 8.79693e-20)
(0.201682 -0.0673327 1.35108e-19)
(0.248373 -0.0650589 -1.2125e-19)
(0.293088 -0.0619174 3.21645e-20)
(0.335497 -0.0584877 1.5725e-20)
(0.375542 -0.0550709 7.88034e-20)
(0.413298 -0.0517984 -2.13346e-20)
(0.448882 -0.0487137 -7.40925e-20)
(0.482425 -0.0458221 1.52199e-20)
(0.514052 -0.0431157 -5.75938e-20)
(0.543883 -0.0405833 4.61733e-20)
(0.572029 -0.0382131 1.32644e-20)
(0.598596 -0.0359948 -1.04172e-19)
(0.623681 -0.0339198 6.25087e-21)
(0.647381 -0.0319755 -1.53817e-19)
(0.669774 -0.0301386 3.491e-20)
(0.0649633 -0.0797926 2.46781e-20)
(0.109429 -0.0908125 3.34766e-20)
(0.156818 -0.0947565 -6.17677e-20)
(0.204607 -0.0941603 1.15469e-20)
(0.251176 -0.0909979 2.01955e-19)
(0.295736 -0.0866181 2.07064e-20)
(0.337979 -0.0818323 4.21744e-20)
(0.377863 -0.0770629 5.88258e-21)
(0.415466 -0.0724945 7.11751e-20)
(0.450906 -0.0681881 -7.92545e-20)
(0.484315 -0.0641516 1.13039e-19)
(0.515818 -0.0603738 3.366e-21)
(0.545533 -0.056839 -2.88458e-20)
(0.573572 -0.0535309 2.21138e-19)
(0.600038 -0.0504348 1.72941e-19)
(0.62503 -0.0475387 -9.02623e-20)
(0.648649 -0.0448248 1.19765e-19)
(0.670956 -0.0422613 -2.71115e-21)
(0.0683722 -0.102324 -1.73547e-19)
(0.113258 -0.11649 7.63949e-21)
(0.16077 -0.121579 -3.13168e-20)
(0.208497 -0.120839 -5.05527e-21)
(0.254904 -0.1168 -1.02562e-19)
(0.299256 -0.111194 -1.19178e-19)
(0.341281 -0.105062 -4.9871e-20)
(0.38095 -0.0989486 -1.72338e-19)
(0.418348 -0.093092 1.93658e-19)
(0.453598 -0.0875712 3.99312e-20)
(0.486829 -0.0823962 -8.12494e-20)
(0.518166 -0.0775531 1.38965e-19)
(0.547727 -0.0730215 -6.07927e-20)
(0.575623 -0.0687806 -1.38533e-19)
(0.601955 -0.0648115 -3.27928e-20)
(0.626822 -0.0610987 -4.41398e-20)
(0.650333 -0.0576186 7.09247e-20)
(0.672527 -0.0543325 -5.44387e-21)
(0.0726162 -0.124654 1.08739e-20)
(0.118026 -0.141956 -2.7072e-20)
(0.165693 -0.148198 -7.61848e-20)
(0.213343 -0.147328 -3.52941e-20)
(0.259549 -0.142428 -6.35658e-20)
(0.303644 -0.135608 4.478e-20)
(0.345396 -0.128143 2.66784e-19)
(0.384797 -0.120698 2.32837e-19)
(0.42194 -0.113563 1.46954e-19)
(0.456952 -0.106837 -5.49438e-20)
(0.489961 -0.100532 3.07229e-20)
(0.521092 -0.0946315 -2.27464e-19)
(0.550462 -0.0891103 7.9369e-20)
(0.578179 -0.0839431 -6.31682e-20)
(0.604343 -0.0791071 -8.97096e-20)
(0.629056 -0.0745831 4.81247e-20)
(0.652433 -0.0703415 -4.10928e-19)
(0.674485 -0.0663377 1.49134e-19)
(0.123723 -0.167164 5.50496e-20)
(0.171576 -0.174567 -2.4108e-20)
(0.219138 -0.173584 -3.66846e-20)
(0.265104 -0.167841 -1.21158e-19)
(0.308892 -0.159827 -2.56701e-20)
(0.350317 -0.151045 -1.10155e-20)
(0.389398 -0.14228 -4.17167e-19)
(0.426237 -0.13388 -3.05624e-19)
(0.460964 -0.12596 1.79083e-19)
(0.493708 -0.118536 2.62093e-20)
(0.524592 -0.111587 6.77843e-20)
(0.553732 -0.105085 -6.517e-20)
(0.581236 -0.0989993 3.33866e-19)
(0.6072 -0.0933038 6.58286e-20)
(0.631727 -0.0879754 9.82723e-20)
(0.654943 -0.0829779 2.31512e-19)
(0.676827 -0.0782625 -1.24076e-19)
(0.130335 -0.192069 7.13385e-20)
(0.178408 -0.200642 6.40113e-20)
(0.225868 -0.199566 -9.84753e-20)
(0.271558 -0.193003 1.69669e-19)
(0.31499 -0.183815 2.40248e-20)
(0.356036 -0.173734 -3.09288e-19)
(0.394744 -0.163667 1.95006e-19)
(0.43123 -0.154016 7.81275e-20)
(0.465626 -0.144915 -9.09524e-20)
(0.498062 -0.136383 2.44139e-20)
(0.528659 -0.128397 1.14925e-20)
(0.557533 -0.120925 -9.41745e-20)
(0.584789 -0.11393 2.4072e-19)
(0.610521 -0.107384 -8.46975e-20)
(0.634833 -0.101259 6.15244e-20)
(0.657862 -0.0955124 1.31984e-19)
(0.67955 -0.0900927 -4.87852e-20)
(0.137846 -0.216624 -9.76107e-20)
(0.186173 -0.226379 -3.52326e-19)
(0.233521 -0.225233 2.3748e-19)
(0.278899 -0.217875 1.14315e-19)
(0.321927 -0.207538 1.96439e-19)
(0.362543 -0.196179 2.12142e-19)
(0.400828 -0.184829 1.35311e-19)
(0.436912 -0.173943 1.78864e-19)
(0.470932 -0.163677 -3.22544e-19)
(0.503017 -0.154051 3.59542e-20)
(0.533288 -0.145041 7.07964e-20)
(0.561859 -0.13661 3.65584e-19)
(0.588832 -0.128718 -1.99747e-19)
(0.6143 -0.121331 -5.02441e-20)
(0.638367 -0.114419 -1.16781e-19)
(0.661183 -0.10793 -7.64841e-20)
(0.682649 -0.101814 1.99803e-19)
(0.146239 -0.240787 2.44517e-21)
(0.194854 -0.251735 -3.97045e-20)
(0.242082 -0.250544 1.5427e-19)
(0.287113 -0.242421 -3.33262e-19)
(0.329691 -0.230961 -1.89984e-20)
(0.369827 -0.218348 -2.98131e-19)
(0.407639 -0.205736 1.69257e-19)
(0.443273 -0.193636 -2.71935e-19)
(0.476872 -0.182221 2.62723e-19)
(0.508564 -0.171517 2.3399e-19)
(0.538471 -0.161498 -1.92102e-19)
(0.566702 -0.152121 -6.66919e-19)
(0.59336 -0.143343 3.57558e-19)
(0.618533 -0.135127 -2.88372e-19)
(0.642325 -0.127438 -6.33969e-20)
(0.664903 -0.120216 2.35414e-19)
(0.686121 -0.113413 -1.93405e-19)
(0.155492 -0.264512 -1.4816e-19)
(0.204433 -0.276668 1.86386e-19)
(0.251533 -0.275461 -3.56031e-19)
(0.296185 -0.266605 6.5713e-20)
(0.338268 -0.254052 -7.30235e-21)
(0.377875 -0.240212 4.10097e-19)
(0.415165 -0.226362 -2.55445e-19)
(0.450303 -0.213067 -5.46555e-20)
(0.483436 -0.200523 7.14161e-20)
(0.514696 -0.188759 -9.00514e-20)
(0.544199 -0.177746 3.49848e-19)
(0.572056 -0.167438 1.93816e-19)
(0.598365 -0.157789 -3.91826e-19)
(0.623211 -0.148756 2.13106e-19)
(0.6467 -0.140301 2.94567e-19)
(0.669015 -0.132356 -5.3941e-19)
(0.689961 -0.124875 1.80481e-21)
(0.165586 -0.287758 1.46392e-19)
(0.214889 -0.301135 2.02915e-19)
(0.261856 -0.299944 1.16017e-19)
(0.306098 -0.290389 4.73758e-19)
(0.347643 -0.276777 -5.98622e-20)
(0.386673 -0.26174 1.94173e-19)
(0.423393 -0.246677 -6.78195e-19)
(0.457989 -0.232211 3.87672e-19)
(0.490614 -0.218559 -2.38908e-19)
(0.521401 -0.205754 7.03411e-20)
(0.550464 -0.193765 -3.79043e-19)
(0.577912 -0.182543 -3.01867e-20)
(0.60384 -0.172036 3.08041e-19)
(0.628329 -0.1622 5.19958e-20)
(0.651487 -0.152993 -1.48726e-20)
(0.673513 -0.144334 2.52451e-20)
(0.694162 -0.136188 -3.46774e-19)
(0.176494 -0.310481 -2.05029e-19)
(0.2262 -0.325096 1.71393e-20)
(0.27303 -0.323954 1.83553e-19)
(0.316833 -0.313739 -4.12623e-19)
(0.3578 -0.299104 4.37559e-20)
(0.396206 -0.282903 -4.8639e-19)
(0.43231 -0.266655 5.38428e-19)
(0.466319 -0.251043 -1.41322e-19)
(0.498395 -0.236305 -1.60781e-19)
(0.528669 -0.222481 4.64909e-21)
(0.557256 -0.209535 1.93074e-21)
(0.58426 -0.197417 2.87339e-19)
(0.609776 -0.186069 -4.17066e-20)
(0.633879 -0.175445 -3.67177e-19)
(0.656677 -0.165499 -4.57104e-19)
(0.678391 -0.156138 5.33623e-19)
(0.698721 -0.147337 3.3716e-19)
(0.18819 -0.332641 2.38094e-19)
(0.23834 -0.348511 -3.68193e-19)
(0.285032 -0.347455 -3.49444e-19)
(0.328371 -0.336621 1.39409e-19)
(0.36872 -0.321002 -5.85178e-19)
(0.406458 -0.303671 5.87939e-19)
(0.441901 -0.28627 -2.56812e-19)
(0.47528 -0.269539 -2.59459e-19)
(0.506764 -0.253741 2.27793e-20)
(0.536488 -0.238918 -9.32055e-22)
(0.564562 -0.225037 -3.2804e-20)
(0.59109 -0.212041 2.21557e-19)
(0.616163 -0.19987 -2.11549e-19)
(0.639851 -0.188475 1.09097e-19)
(0.662264 -0.177804 2.3744e-19)
(0.683641 -0.167754 -2.98745e-19)
(0.703628 -0.158311 -6.14113e-20)
(0.200647 -0.354199 -3.36982e-20)
(0.251283 -0.371341 2.60701e-19)
(0.297839 -0.370409 2.34017e-19)
(0.34069 -0.359001 -3.69342e-19)
(0.380383 -0.34244 1.97795e-19)
(0.417411 -0.324016 -1.52757e-19)
(0.452149 -0.305494 -1.11435e-20)
(0.484855 -0.287675 3.89822e-20)
(0.515709 -0.270842 -9.35379e-20)
(0.544845 -0.255046 1.85587e-19)
(0.572373 -0.240251 -1.00536e-19)
(0.598392 -0.226398 -3.01398e-19)
(0.622992 -0.213423 4.30478e-19)
(0.646238 -0.201273 2.68232e-19)
(0.668238 -0.189894 -3.44942e-19)
(0.689255 -0.179168 2.00437e-19)
(0.708879 -0.169096 2.94587e-19)
(0.265 -0.393547 5.0791e-20)
(0.311425 -0.392782 1.87399e-19)
(0.353767 -0.380846 3.68896e-19)
(0.392769 -0.363389 2.78187e-19)
(0.429046 -0.343912 5.38784e-19)
(0.463037 -0.324304 -4.97377e-20)