/*--------------------------------*- C++ -*----------------------------------*\
  =========                 |
  \\      /  F ield         | OpenFOAM: The Open Source CFD Toolbox
   \\    /   O peration     | Website:  https://openfoam.org
    \\  /    A nd           | Version:  7
     \\/     M anipulation  |
\*---------------------------------------------------------------------------*/
FoamFile
{
    version     2.0;
    format      ascii;
    class       surfaceScalarField;
    location    "40";
    object      phi;
}
// * * * * * * * * * * * * * * * * * * * * * * * * * * * * * * * * * * * * * //

dimensions      [0 3 -1 0 0 0 0];

internalField   nonuniform List<scalar> 
16753
(
-0.000363848
1.31291e-05
-3.41742e-06
-0.000373377
1.37592e-05
-4.23021e-06
-0.000382711
1.44832e-05
-5.14849e-06
-0.00039184
1.5303e-05
-6.17479e-06
-0.000400748
1.62177e-05
-7.30889e-06
-0.000409423
1.72222e-05
-8.54709e-06
-0.00041785
1.8306e-05
-9.87962e-06
-0.000426011
1.94536e-05
-1.12928e-05
-0.000433887
2.06412e-05
-1.27647e-05
-0.000441459
2.18371e-05
-1.42658e-05
-0.000448701
2.29997e-05
-1.57569e-05
-0.00045559
2.40773e-05
-1.71891e-05
-0.000462094
2.50074e-05
-1.85035e-05
-0.00046818
2.57153e-05
-1.96285e-05
-0.000473813
2.61159e-05
-2.04833e-05
-0.00047895
2.61157e-05
-2.09788e-05
-0.000483546
2.56063e-05
-2.10107e-05
-0.000487549
2.44836e-05
-2.04803e-05
-0.000490903
2.26319e-05
-1.92776e-05
-0.000493548
1.99365e-05
-1.72917e-05
-0.000495418
1.62938e-05
-1.44234e-05
-0.000496442
1.16097e-05
-1.05857e-05
-0.00049654
5.83941e-06
-5.74129e-06
-0.000495633
-1.01243e-06
1.04991e-07
-0.000493632
-8.96756e-06
6.96677e-06
-0.000490445
-1.79489e-05
1.4762e-05
-0.000485973
-2.78102e-05
2.33383e-05
-0.000480123
-3.83377e-05
3.2487e-05
-0.000472788
-4.92395e-05
4.19051e-05
-0.000463878
-6.01325e-05
5.12224e-05
-0.000453284
-7.0591e-05
5.99968e-05
-0.00044093
-8.00727e-05
6.77192e-05
-0.000426701
-8.80609e-05
7.3832e-05
-0.000410565
-9.39227e-05
7.7786e-05
-0.000392382
-9.71819e-05
7.89992e-05
-0.000372209
-9.72082e-05
7.70355e-05
-0.000349839
-9.37926e-05
7.14219e-05
-0.000325511
-8.64877e-05
6.21599e-05
-0.000298822
-7.56564e-05
4.89673e-05
-0.000270395
-6.12268e-05
3.27996e-05
-0.000239313
-4.47145e-05
1.3633e-05
-0.000206978
-2.64729e-05
-5.86186e-06
-0.000171159
-1.09033e-05
-2.49159e-05
-0.00013464
2.3796e-06
-3.88989e-05
-9.28775e-05
-4.39698e-08
-4.17182e-05
-6.11919e-06
-3.35374e-05
-0.000361994
2.27927e-05
-0.000371474
2.32392e-05
-0.000380759
2.37682e-05
-0.000389837
2.43809e-05
-0.000398695
2.50754e-05
-0.000407318
2.58458e-05
-0.000415693
2.66804e-05
-0.000423801
2.7562e-05
-0.000431625
2.8465e-05
-0.000439143
2.93556e-05
-0.000446333
3.01898e-05
-0.000453169
3.09128e-05
-0.00045962
3.14589e-05
-0.000465655
3.175e-05
-0.000471236
3.16967e-05
-0.000476321
3.12014e-05
-0.000480866
3.01514e-05
-0.00048482
2.8437e-05
-0.000488125
2.59373e-05
-0.000490723
2.25337e-05
-0.000492546
1.81177e-05
-0.000493525
1.25884e-05
-0.000493579
5.89372e-06
-0.000492632
-1.96028e-06
-0.000490594
-1.10052e-05
-0.000487374
-2.11686e-05
-0.000482875
-3.23091e-05
-0.000477004
-4.4209e-05
-0.000469657
-5.65863e-05
-0.000460744
-6.90456e-05
-0.000450158
-8.11776e-05
-0.000437824
-9.24066e-05
-0.000423627
-0.000102257
-0.000407536
-0.000110014
-0.000389411
-0.000115307
-0.000369307
-0.000117312
-0.000347013
-0.000116087
-0.000322766
-0.000110734
-0.000296158
-0.000102265
-0.000267807
-8.95783e-05
-0.000236788
-7.5733e-05
-0.000204503
-5.8758e-05
-0.000168722
-4.66842e-05
-0.000132256
-3.40866e-05
-9.05789e-05
-4.1721e-05
-4.5712e-05
-0.000358352
3.23694e-05
-0.000367744
3.26316e-05
-0.000376941
3.29647e-05
-0.000385929
3.33693e-05
-0.000394696
3.38428e-05
-0.000403229
3.43783e-05
-0.000411511
3.4963e-05
-0.000419528
3.5578e-05
-0.000427258
3.61959e-05
-0.000434684
3.67809e-05
-0.00044178
3.72863e-05
-0.000448522
3.76546e-05
-0.00045488
3.78167e-05
-0.000460821
3.7691e-05
-0.000466308
3.71842e-05
-0.000471301
3.61941e-05
-0.000475754
3.4604e-05
-0.000479615
3.22985e-05
-0.00048283
2.91521e-05
-0.000485338
2.50415e-05
-0.000487074
1.98535e-05
-0.000487966
1.34807e-05
-0.000487936
5.86352e-06
-0.000486907
-2.98846e-06
-0.000484794
-1.31187e-05
-0.000481503
-2.44592e-05
-0.00047694
-3.6872e-05
-0.000471013
-5.01363e-05
-0.00046362
-6.39794e-05
-0.000454672
-7.79934e-05
-0.000444064
-9.17858e-05
-0.000431723
-0.000104747
-0.000417535
-0.000116446
-0.000401468
-0.000126081
-0.000383383
-0.000133392
-0.000363335
-0.000137361
-0.000341108
-0.000138314
-0.000316939
-0.000134903
-0.00029041
-0.000128794
-0.000262139
-0.000117849
-0.000231192
-0.00010668
-0.000198976
-9.09741e-05
-0.000163257
-8.24034e-05
-0.000126907
-7.04361e-05
-8.53439e-05
-8.32844e-05
-8.52735e-05
-0.000352935
4.18211e-05
-0.000362201
4.1898e-05
-0.000371271
4.20342e-05
-0.000380131
4.22297e-05
-0.00038877
4.24812e-05
-0.000397172
4.27809e-05
-0.000405324
4.31146e-05
-0.000413208
4.34622e-05
-0.000420807
4.37944e-05
-0.000428099
4.4073e-05
-0.000435062
4.42491e-05
-0.000441669
4.42623e-05
-0.000447893
4.40401e-05
-0.000453699
4.34976e-05
-0.000459052
4.25373e-05
-0.000463911
4.10527e-05
-0.00046823
3.89229e-05
-0.000471958
3.60271e-05
-0.000475041
3.2235e-05
-0.000477418
2.74188e-05
-0.000479026
2.14606e-05
-0.000479791
1.4246e-05
-0.000479636
5.70881e-06
-0.000478489
-4.13604e-06
-0.000476261
-1.53466e-05
-0.000472862
-2.7858e-05
-0.000468199
-4.15353e-05
-0.000462181
-5.61544e-05
-0.000454708
-7.14519e-05
-0.000445694
-8.70073e-05
-0.000435035
-0.000102445
-0.000422661
-0.000117122
-0.000408457
-0.000130649
-0.000392394
-0.000142144
-0.000374332
-0.000151454
-0.000354325
-0.000157368
-0.000332156
-0.000160483
-0.000308059
-0.000159
-0.000281609
-0.000155244
-0.000253425
-0.000146033
-0.000222556
-0.000137549
-0.000190428
-0.000123103
-0.000154792
-0.000118039
-0.000118618
-0.000106611
-7.71996e-05
-0.000124702
-0.000124826
-0.000345764
5.11104e-05
-0.000354867
5.10009e-05
-0.000363772
5.0939e-05
-0.000372467
5.09243e-05
-0.000380938
5.09526e-05
-0.000389172
5.10153e-05
-0.000397155
5.1097e-05
-0.000404869
5.11761e-05
-0.000412296
5.12214e-05
-0.000419416
5.11929e-05
-0.000426206
5.10389e-05
-0.00043264
5.06964e-05
-0.000438689
5.00895e-05
-0.000444321
4.91299e-05
-0.0004495
4.7716e-05
-0.000454184
4.5737e-05
-0.000458329
4.30678e-05
-0.000461885
3.95824e-05
-0.000464795
3.51457e-05
-0.000467002
2.96256e-05
-0.000468441
2.28992e-05
-0.00046904
1.48452e-05
-0.000468722
5.39069e-06
-0.000467417
-5.44106e-06
-0.000465037
-1.77263e-05
-0.000461494
-3.14015e-05
-0.000456695
-4.63342e-05
-0.000450552
-6.22973e-05
-0.000442968
-7.90361e-05
-0.000433857
-9.61176e-05
-0.000423119
-0.000113183
-0.000410685
-0.000129556
-0.000396442
-0.000144891
-0.000380363
-0.000158223
-0.000362306
-0.00016951
-0.000342328
-0.000177346
-0.000320206
-0.000182606
-0.000296176
-0.00018303
-0.000269802
-0.000181617
-0.00024171
-0.000174125
-0.000210928
-0.00016833
-0.000178905
-0.000155125
-0.000143375
-0.00015357
-0.000107423
-0.000142563
-6.61873e-05
-0.000165938
-0.000164373
-0.000336866
6.02008e-05
-0.000345769
5.99036e-05
-0.000354472
5.96425e-05
-0.000362964
5.94162e-05
-0.000371231
5.92201e-05
-0.00037926
5.90444e-05
-0.000387036
5.88728e-05
-0.000394542
5.86821e-05
-0.00040176
5.84395e-05
-0.00040867
5.81027e-05
-0.000415249
5.76177e-05
-0.000421471
5.69186e-05
-0.000427308
5.59264e-05
-0.000432727
5.45492e-05
-0.000437693
5.26815e-05
-0.000442164
5.02081e-05
-0.000446096
4.7e-05
-0.00044944
4.29257e-05
-0.000452139
3.78457e-05
-0.000454137
3.16232e-05
-0.000455369
2.41309e-05
-0.000455764
1.52402e-05
-0.000455245
4.87173e-06
-0.000453746
-6.94016e-06
-0.000451178
-2.02937e-05
-0.000447455
-3.51248e-05
-0.000442486
-5.13027e-05
-0.000436186
-6.85976e-05
-0.000428459
-8.67634e-05
-0.000419223
-0.000105354
-0.000408378
-0.000124028
-0.000395858
-0.000142076
-0.000381554
-0.000159196
-0.000365438
-0.000174339
-0.00034737
-0.000187578
-0.000327406
-0.00019731
-0.000305322
-0.00020469
-0.000281354
-0.000206998
-0.000255056
-0.000207915
-0.000227059
-0.000202121
-0.000196372
-0.000199018
-0.000164472
-0.000187025
-0.000129064
-0.000188978
-9.33722e-05
-0.000178254
-5.23554e-05
-0.000206955
-0.000203884
-0.000326271
6.90566e-05
-0.000334938
6.85707e-05
-0.000343405
6.8109e-05
-0.000351658
6.76698e-05
-0.000359686
6.72478e-05
-0.000367474
6.68323e-05
-0.000375007
6.6406e-05
-0.000382269
6.59442e-05
-0.000389242
6.54122e-05
-0.000395905
6.47659e-05
-0.000402236
6.39488e-05
-0.00040821
6.28921e-05
-0.000413797
6.15138e-05
-0.000418966
5.97184e-05
-0.000423681
5.73967e-05
-0.000427902
5.4429e-05
-0.000431584
5.06821e-05
-0.000434678
4.60196e-05
-0.00043713
4.02976e-05
-0.000438882
3.33747e-05
-0.00043987
2.5119e-05
-0.000440025
1.5395e-05
-0.000439269
4.11591e-06
-0.000437541
-8.66803e-06
-0.000434751
-2.30834e-05
-0.000430815
-3.90613e-05
-0.000425644
-5.64733e-05
-0.000419155
-7.50866e-05
-0.000411255
-9.46633e-05
-0.000401865
-0.000114744
-0.000390887
-0.000135006
-0.000378258
-0.000154705
-0.000363869
-0.000173584
-0.000347698
-0.000190511
-0.000329602
-0.000205674
-0.00030964
-0.000217272
-0.000287583
-0.000226747
-0.000263672
-0.000230909
-0.000237447
-0.00023414
-0.000209551
-0.000230017
-0.000178965
-0.000229605
-0.000147204
-0.000218785
-0.000111935
-0.000224247
-7.65303e-05
-0.000213659
-3.575e-05
-0.000247735
-0.000243271
-0.000314017
7.76437e-05
-0.000322414
7.6968e-05
-0.000330609
7.63043e-05
-0.00033859
7.56508e-05
-0.000346344
7.50014e-05
-0.000353856
7.43446e-05
-0.000361112
7.3662e-05
-0.000368096
7.29276e-05
-0.000374788
7.21048e-05
-0.00038117
7.11476e-05
-0.000387219
6.99971e-05
-0.000392908
6.85818e-05
-0.000398211
6.68165e-05
-0.000403095
6.46023e-05
-0.000407524
6.1826e-05
-0.000411459
5.8364e-05
-0.000414856
5.40788e-05
-0.000417665
4.8829e-05
-0.000419834
4.24663e-05
-0.000421304
3.48451e-05
-0.000422014
2.58287e-05
-0.000421895
1.52757e-05
-0.000420867
3.08835e-06
-0.000418879
-1.06566e-05
-0.000415834
-2.61278e-05
-0.000411653
-4.32426e-05
-0.00040625
-6.18766e-05
-0.000399543
-8.17936e-05
-0.000391442
-0.000102764
-0.00038187
-0.000124316
-0.000370734
-0.000146143
-0.000357973
-0.000167466
-0.00034348
-0.000188077
-0.000327233
-0.000206757
-0.000309094
-0.000223814
-0.000289121
-0.000237244
-0.000267082
-0.000248786
-0.000243223
-0.000254769
-0.000217069
-0.000260294
-0.000189278
-0.000257808
-0.000158799
-0.000260084
-0.000127194
-0.000250391
-9.20785e-05
-0.000259362
-5.69804e-05
-0.000248757
-1.6355e-05
-0.000288361
-0.000282325
-0.000300142
8.59293e-05
-0.000308237
8.50627e-05
-0.000316129
8.41959e-05
-0.000323805
8.33267e-05
-0.000331252
8.24484e-05
-0.000338456
8.15488e-05
-0.000345402
8.06083e-05
-0.000352074
7.95996e-05
-0.000358454
7.84845e-05
-0.000364521
7.7215e-05
-0.000370254
7.57297e-05
-0.000375626
7.39546e-05
-0.000380611
7.18013e-05
-0.000385176
6.91675e-05
-0.000389287
6.59363e-05
-0.000392902
6.19799e-05
-0.00039598
5.71567e-05
-0.000398472
5.13206e-05
-0.000400325
4.43189e-05
-0.000401481
3.60016e-05
-0.000401879
2.6227e-05
-0.000401455
1.48515e-05
-0.000400123
1.75633e-06
-0.000397844
-1.29354e-05
-0.000394514
-2.94578e-05
-0.000390059
-4.76981e-05
-0.000384394
-6.75411e-05
-0.000377442
-8.87461e-05
-0.000369114
-0.000111092
-0.000359337
-0.000134093
-0.000348019
-0.00015746
-0.000335103
-0.000180382
-0.000320486
-0.000202694
-0.000304148
-0.000223095
-0.00028595
-0.000242012
-0.000265954
-0.00025724
-0.000243925
-0.000270816
-0.000220111
-0.000278583
-0.000194027
-0.000286378
-0.000166345
-0.00028549
-0.000135979
-0.000290449
-0.000104544
-0.000281826
-6.95945e-05
-0.000294311
-3.48323e-05
-0.000283519
5.75955e-06
-0.000328953
-0.000320833
-0.000284691
-0.000292453
9.28241e-05
-0.00030001
9.17529e-05
-0.000307349
9.06666e-05
-0.000314459
8.95579e-05
-0.000321324
8.8414e-05
-0.00032793
8.7214e-05
-0.00033426
8.59295e-05
-0.000340296
8.45205e-05
-0.000346018
8.29371e-05
-0.000351404
8.11156e-05
-0.000356429
7.89794e-05
-0.000361065
7.64371e-05
-0.00036528
7.3383e-05
-0.00036904
6.96965e-05
-0.000372306
6.52457e-05
-0.000375035
5.98851e-05
-0.000377178
5.34637e-05
-0.000378683
4.58247e-05
-0.000379496
3.68139e-05
-0.000379552
2.62834e-05
-0.00037879
1.40897e-05
-0.000377132
9.80647e-08
-0.000374531
-1.55362e-05
-0.000370887
-3.31016e-05
-0.00036613
-5.2455e-05
-0.000360179
-7.34929e-05
-0.000352956
-9.59692e-05
-0.000344376
-0.000119671
-0.000334371
-0.000144098
-0.00032285
-0.000168981
-0.000309761
-0.000193472
-0.000295001
-0.000217454
-0.000278555
-0.000239541
-0.000260284
-0.000260284
-0.000240254
-0.000277269
-0.000218225
-0.000292845
-0.000194453
-0.000302355
-0.000168436
-0.000312395
-0.000140866
-0.00031306
-0.00011062
-0.000320695
-7.93679e-05
-0.000313079
-4.45924e-05
-0.000329087
-1.03025e-05
-0.000317809
2.95706e-05
-0.000368826
-0.000359508
-0.000275107
0.000100223
-0.0002823
9.89466e-05
-0.000289276
9.76419e-05
-0.000296019
9.63015e-05
-0.000302517
9.49117e-05
-0.000308754
9.34507e-05
-0.000314713
9.18889e-05
-0.000320377
9.01844e-05
-0.000325726
8.82856e-05
-0.000330736
8.61265e-05
-0.000335385
8.36279e-05
-0.000339643
8.06955e-05
-0.000343481
7.72203e-05
-0.000346862
7.3078e-05
-0.000349749
6.8133e-05
-0.0003521
6.22355e-05
-0.000353866
5.523e-05
-0.000354997
4.69557e-05
-0.000355437
3.7254e-05
-0.000355125
2.59709e-05
-0.000353991
1.2956e-05
-0.000351995
-1.89788e-06
-0.000349039
-1.84926e-05
-0.000345056
-3.70845e-05
-0.000339973
-5.75378e-05
-0.00033371
-7.97557e-05
-0.000326194
-0.000103486
-0.000317342
-0.000128523
-0.000307087
-0.000154353
-0.000295344
-0.000180724
-0.000282063
-0.000206753
-0.000267144
-0.000232373
-0.000250575
-0.000256109
-0.000232219
-0.00027864
-0.000212145
-0.000297343
-0.000190108
-0.000314882
-0.000166373
-0.00032609
-0.000140421
-0.000338346
-0.000112967
-0.000340514
-8.28456e-05
-0.000350817
-5.17899e-05
-0.000344134
-1.71658e-05
-0.000363711
1.6844e-05
-0.000351819
5.60871e-05
-0.000408069
-0.00039795
-0.000256247
0.000107233
-0.000263051
0.00010575
-0.000269635
0.000104226
-0.000275987
0.000102653
-0.000282091
0.000101016
-0.000287933
9.92925e-05
-0.000293496
9.74518e-05
-0.000298761
9.54503e-05
-0.00030371
9.32345e-05
-0.00030832
9.07364e-05
-0.000312566
8.78742e-05
-0.000316422
8.45506e-05
-0.000319855
8.06537e-05
-0.000322832
7.60553e-05
-0.000325315
7.06162e-05
-0.000327262
6.41825e-05
-0.000328627
5.65943e-05
-0.000329358
4.76868e-05
-0.000329401
3.72974e-05
-0.000328695
2.52648e-05
-0.000327175
1.14358e-05
-0.000324799
-4.27364e-06
-0.000321472
-2.18191e-05
-0.000317128
-4.14287e-05
-0.000311698
-6.29683e-05
-0.000305103
-8.63506e-05
-0.000297273
-0.000111316
-0.000288129
-0.000137667
-0.000277607
-0.000164875
-0.000265624
-0.000192707
-0.000252135
-0.000220242
-0.000237042
-0.000247465
-0.000220338
-0.000272814
-0.000201884
-0.000297094
-0.000181757
-0.00031747
-0.000159705
-0.000336934
-0.000136003
-0.000349792
-0.000110114
-0.000364235
-8.2779e-05
-0.000367849
-5.27863e-05
-0.000380809
-2.19487e-05
-0.000374972
1.25005e-05
-0.00039816
4.62638e-05
-0.000385582
8.48808e-05
-0.000446686
-0.00043607
-0.000235922
0.00011383
-0.000242312
0.00011214
-0.000248481
0.000110396
-0.000254416
0.000108588
-0.000260103
0.000106703
-0.000265527
0.000104716
-0.00027067
0.000102595
-0.000275515
0.000100295
-0.000280041
9.77608e-05
-0.000284227
9.49223e-05
-0.000288048
9.16952e-05
-0.000291477
8.79796e-05
-0.000294483
8.36601e-05
-0.000297033
7.86053e-05
-0.00029909
7.26723e-05
-0.00030061
6.57033e-05
-0.00030155
5.75339e-05
-0.000301859
4.79957e-05
-0.000301484
3.69221e-05
-0.000300363
2.41443e-05
-0.000298435
9.50822e-06
-0.000295658
-7.05087e-06
-0.000291941
-2.55366e-05
-0.000287216
-4.61531e-05
-0.000281419
-6.87655e-05
-0.000274474
-9.32957e-05
-0.000266313
-0.000119477
-0.00025686
-0.00014712
-0.000246055
-0.00017568
-0.000233818
-0.000204943
-0.000220107
-0.000233953
-0.000204828
-0.000262744
-0.000187977
-0.000289665
-0.000169416
-0.000315655
-0.000149227
-0.00033766
-0.000127153
-0.000359007
-0.00010348
-0.000373465
-7.76533e-05
-0.000390062
-5.04399e-05
-0.000395062
-2.05758e-05
-0.000410673
1.00187e-05
-0.000405566
4.42082e-05
-0.00043235
7.77377e-05
-0.000419112
0.00011579
-0.000484738
-0.000473821
-0.000214177
0.000119991
-0.000220131
0.000118094
-0.000225864
0.000116129
-0.000231362
0.000114087
-0.000236612
0.000111952
-0.000241596
0.0001097
-0.000246299
0.000107298
-0.000250702
0.000104698
-0.000254786
0.000101844
-0.000258528
9.86642e-05
-0.000261904
9.50712e-05
-0.000264887
9.09625e-05
-0.000267447
8.62199e-05
-0.00026955
8.07085e-05
-0.000271159
7.42819e-05
-0.000272235
6.67785e-05
-0.00027273
5.80297e-05
-0.000272598
4.78634e-05
-0.000271785
3.61092e-05
-0.000270231
2.25906e-05
-0.000267877
7.15377e-06
-0.000264682
-1.02459e-05
-0.000260556
-2.96622e-05
-0.000255435
-5.1274e-05
-0.000249256
-7.49452e-05
-0.000241945
-0.000100606
-0.000233438
-0.000127984
-0.000223662
-0.000156896
-0.000212561
-0.000186781
-0.000200058
-0.000217447
-0.000186113
-0.000247898
-0.000170638
-0.000278219
-0.00015363
-0.000306673
-0.000134953
-0.000334331
-0.000114695
-0.000357918
-9.25947e-05
-0.000381108
-6.8948e-05
-0.000397111
-4.31807e-05
-0.000415829
-1.60941e-05
-0.000422149
1.36384e-05
-0.000440406
4.40434e-05
-0.000435971
7.79544e-05
-0.000466261
0.000111184
-0.000452342
0.000148675
-0.000522229
-0.000511166
-0.000191054
0.000125698
-0.000196554
0.000123594
-0.000201833
0.000121408
-0.000206877
0.000119131
-0.000211671
0.000116746
-0.000216199
0.000114228
-0.000220445
0.000111544
-0.00022439
0.000108643
-0.000228014
0.000105468
-0.000231295
0.000101945
-0.000234209
9.79853e-05
-0.000236729
9.34827e-05
-0.000238826
8.83165e-05
-0.000240466
8.23482e-05
-0.000241612
7.54285e-05
-0.000242226
6.73919e-05
-0.000242261
5.80655e-05
-0.000241672
4.72739e-05
-0.000240405
3.48426e-05
-0.000238404
2.05892e-05
-0.000235605
4.35448e-06
-0.000231981
-1.38699e-05
-0.000227433
-3.42103e-05
-0.000221902
-5.6805e-05
-0.000215327
-8.15203e-05
-0.000207638
-0.000108295
-0.000198774
-0.000136848
-0.000188664
-0.000167006
-0.000177256
-0.000198189
-0.000164476
-0.000230226
-0.00015029
-0.000262084
-0.000134609
-0.0002939
-0.000117437
-0.000323846
-9.86383e-05
-0.000353129
-7.83055e-05
-0.000378251
-5.61736e-05
-0.00040324
-3.25506e-05
-0.000420734
-6.83935e-06
-0.000441541
2.01197e-05
-0.000449108
4.9698e-05
-0.000469984
7.989e-05
-0.000466163
0.000113551
-0.000499922
0.000146472
-0.000485262
0.000183397
-0.000559154
-0.000548078
-0.000166595
0.000130935
-0.000171625
0.000128624
-0.000176435
0.000126217
-0.00018101
0.000123705
-0.000185334
0.000121071
-0.000189392
0.000118286
-0.000193167
0.000115318
-0.00019664
0.000112116
-0.000199791
0.00010862
-0.000202598
0.000104753
-0.000205037
0.000100424
-0.000207081
9.55271e-05
-0.000208702
8.99368e-05
-0.000209865
8.35116e-05
-0.000210536
7.60993e-05
-0.000210674
6.75306e-05
-0.000210238
5.76287e-05
-0.000209178
4.62148e-05
-0.000207444
3.31087e-05
-0.000204987
1.81313e-05
-0.00020173
1.09784e-06
-0.000197667
-1.7933e-05
-0.000192684
-3.91931e-05
-0.000186733
-6.27564e-05
-0.000179752
-8.85008e-05
-0.000171676
-0.000116371
-0.000162446
-0.000146078
-0.000151995
-0.000177457
-0.000140272
-0.000209912
-0.000127209
-0.00024329
-0.000112773
-0.00027652
-9.68813e-05
-0.000309792
-7.95391e-05
-0.000341188
-6.06139e-05
-0.000372054
-4.02024e-05
-0.000398663
-1.80354e-05
-0.000425407
5.56506e-06
-0.000444335
3.12166e-05
-0.000467192
5.80525e-05
-0.000475944
8.74808e-05
-0.000499412
0.000117442
-0.000496125
0.000150849
-0.000533329
0.000183459
-0.000517872
0.000219817
-0.000595513
-0.000584539
-0.000140833
0.000135691
-0.000145382
0.000133174
-0.000149711
0.000130547
-0.000153805
0.000127799
-0.000157649
0.000124915
-0.000161227
0.000121864
-0.00016452
0.000118612
-0.000167511
0.000115107
-0.00017018
0.000111288
-0.000172503
0.000107076
-0.000174458
0.000102379
-0.000176017
9.70863e-05
-0.000177151
9.10714e-05
-0.000177829
8.41892e-05
-0.000178015
7.62848e-05
-0.000177669
6.71854e-05
-0.000176751
5.67101e-05
-0.000175213
4.4677e-05
-0.000173004
3.08998e-05
-0.000170064
1.5191e-05
-0.000166375
-2.59062e-06
-0.000161848
-2.24609e-05
-0.000156423
-4.46174e-05
-0.000150044
-6.91353e-05
-0.000142652
-9.5893e-05
-0.000134183
-0.00012484
-0.000124581
-0.00015568
-0.000113783
-0.000188256
-0.000101741
-0.000221954
-8.83901e-05
-0.000256641
-7.37013e-05
-0.000291209
-5.75941e-05
-0.0003259
-4.00785e-05
-0.000358703
-2.10231e-05
-0.00039111
-5.30182e-07
-0.000419156
2.16737e-05
-0.000447611
4.52541e-05
-0.000467915
7.08473e-05
-0.000492785
9.75547e-05
-0.000502651
0.000126833
-0.000528691
0.000156557
-0.000525849
0.000189703
-0.000566476
0.000222005
-0.000550174
0.000257798
-0.000631306
-0.000620533
-0.000113796
0.000139956
-0.000117856
0.000137234
-0.000121697
0.000134388
-0.000125304
0.000131406
-0.000128661
0.000128272
-0.000131751
0.000124954
-0.000134558
0.000121418
-0.000137061
0.00011761
-0.000139241
0.000113468
-0.000141075
0.00010891
-0.000142539
0.000103843
-0.000143607
9.81546e-05
-0.000144251
9.17148e-05
-0.000144437
8.43756e-05
-0.000144132
7.59796e-05
-0.000143298
6.63508e-05
-0.000141892
5.53044e-05
-0.00013987
4.26555e-05
-0.00013718
2.82099e-05
-0.00013377
1.17803e-05
-0.000129614
-6.74582e-06
-0.000124633
-2.74425e-05
-0.000118762
-5.04881e-05
-0.000111952
-7.59453e-05
-0.000104145
-0.0001037
-9.52798e-05
-0.000133705
-8.53036e-05
-0.000165656
-7.41559e-05
-0.000199403
-6.1793e-05
-0.000234317
-4.81526e-05
-0.000270281
-3.32092e-05
-0.000306152
-1.68856e-05
-0.000342223
8.06842e-07
-0.000376396
1.99915e-05
-0.000410294
4.05665e-05
-0.000439731
6.2809e-05
-0.000469853
8.6369e-05
-0.000491475
0.000111905
-0.000518321
0.000138482
-0.000529228
0.000167608
-0.000557816
0.000197091
-0.000555332
0.000229968
-0.000599353
0.000261966
-0.000582172
0.0002972
-0.000666539
-0.00065605
-8.55052e-05
0.000143726
-8.90729e-05
0.000140802
-9.24227e-05
0.000137737
-9.55394e-05
0.000134523
-9.8407e-05
0.000131139
-0.000101008
0.000127555
-0.000103325
0.000123736
-0.000105339
0.000119624
-0.000107029
0.000115157
-0.000108372
0.000110253
-0.000109345
0.000104816
-0.000109921
9.87307e-05
-0.000110072
9.18656e-05
-0.000109765
8.40693e-05
-0.000108968
7.51822e-05
-0.000107642
6.50254e-05
-0.000105748
5.34102e-05
-0.000103241
4.01485e-05
-0.00010007
2.5039e-05
-9.61871e-05
7.89698e-06
-9.15655e-05
-1.13674e-05
-8.6126e-05
-3.2882e-05
-7.98099e-05
-5.68042e-05
-7.25685e-05
-8.31868e-05
-6.43462e-05
-0.000111923
-5.50856e-05
-0.000142965
-4.47358e-05
-0.000176006
-3.32397e-05
-0.000210899
-2.05567e-05
-0.000247
-6.62783e-06
-0.00028421
8.56904e-06
-0.000321349
2.51078e-05
-0.000358762
4.29719e-05
-0.00039426
6.22896e-05
-0.000429612
8.29466e-05
-0.000460388
0.000105227
-0.000492134
0.000128766
-0.000515014
0.000154245
-0.0005438
0.00018069
-0.000555673
0.000209661
-0.000586787
0.000238902
-0.000584573
0.000271502
-0.000631954
0.000303203
-0.000613872
0.000337886
-0.000701222
-0.000691084
-5.59735e-05
0.000147003
-5.90498e-05
0.000143878
-6.191e-05
0.000140598
-6.45385e-05
0.000137152
-6.6919e-05
0.00013352
-6.90336e-05
0.00012967
-7.08643e-05
0.000125566
-7.23915e-05
0.000121151
-7.35939e-05
0.00011636
-7.44493e-05
0.000111109
-7.49334e-05
0.0001053
-7.50201e-05
9.88173e-05
-7.46811e-05
9.15266e-05
-7.38848e-05
8.3273e-05
-7.25978e-05
7.38952e-05
-7.0784e-05
6.32116e-05
-6.84037e-05
5.10298e-05
-6.54131e-05
3.71579e-05
-6.17654e-05
2.13914e-05
-5.74078e-05
3.53931e-06
-5.23266e-05
-1.64486e-05
-4.64315e-05
-3.87771e-05
-3.96735e-05
-6.35621e-05
-3.20039e-05
-9.08564e-05
-2.33701e-05
-0.000120556
-1.37174e-05
-0.000152618
-2.99648e-06
-0.000186727
8.84256e-06
-0.000222738
2.18412e-05
-0.000259998
3.60543e-05
-0.000298423
5.15009e-05
-0.000336796
6.8252e-05
-0.000375513
8.6287e-05
-0.000412295
0.000105733
-0.000449058
0.00012647
-0.000481125
0.000148787
-0.000514451
0.000172304
-0.000538532
0.000197724
-0.000569219
0.000224036
-0.000581985
0.000252851
-0.000615602
0.000281849
-0.000613571
0.000314166
-0.000664271
0.000345575
-0.000645281
0.000379721
-0.000735368
-0.000725634
-2.52046e-05
-2.77959e-05
0.000146469
-3.01733e-05
0.000142975
-3.23208e-05
0.000139299
-3.42217e-05
0.00013542
-3.58572e-05
0.000131305
-3.72092e-05
0.000126918
-3.82575e-05
0.0001222
-3.89806e-05
0.000117083
-3.93559e-05
0.000111484
-3.9359e-05
0.000105303
-3.89639e-05
9.84222e-05
-3.81425e-05
9.07052e-05
-3.68635e-05
8.1994e-05
-3.50939e-05
7.21257e-05
-3.27987e-05
6.09164e-05
-2.9939e-05
4.81701e-05
-2.64709e-05
3.36897e-05
-2.235e-05
1.72705e-05
-1.75331e-05
-1.27764e-06
-1.19936e-05
-2.19881e-05
-5.6488e-06
-4.51219e-05
1.5478e-06
-7.07587e-05
9.6346e-06
-9.89432e-05
1.86722e-05
-0.000129594
2.87096e-05
-0.000162655
3.97916e-05
-0.000197809
5.19693e-05
-0.000234916
6.52774e-05
-0.000273306
7.97682e-05
-0.000312914
9.54584e-05
-0.000352486
0.000112416
-0.00039247
0.000130616
-0.000430496
0.000150187
-0.000468628
0.000171
-0.000501938
0.000193351
-0.000536802
0.000216844
-0.000562025
0.000242204
-0.000594579
0.000268383
-0.000608164
0.000297038
-0.000644257
0.000325797
-0.00064233
0.000357824
-0.000696299
0.000388948
-0.000676405
0.000422572
-0.000768992
-0.000759701
4.68879e-06
0.000148588
2.78177e-06
0.000144882
1.10306e-06
0.000140978
-3.28517e-07
0.000136852
-1.50077e-06
0.000132477
-2.38755e-06
0.000127805
-2.97018e-06
0.000122782
-3.22696e-06
0.00011734
-3.13491e-06
0.000111392
-2.66944e-06
0.000104838
-1.80427e-06
9.75571e-05
-5.08668e-07
8.94096e-05
1.23831e-06
8.0247e-05
3.47696e-06
6.9887e-05
6.24169e-06
5.81517e-05
9.5692e-06
4.48426e-05
1.35039e-05
2.9755e-05
1.80925e-05
1.26819e-05
2.33455e-05
-6.53066e-06
2.93388e-05
-2.79813e-05
3.6121e-05
-5.19041e-05
4.3739e-05
-7.83768e-05
5.22406e-05
-0.000107445
6.16727e-05
-0.000139026
7.20846e-05
-0.000173067
8.3519e-05
-0.000209243
9.60239e-05
-0.000247421
0.000109631
-0.000286914
0.00012439
-0.000327673
0.000140315
-0.000368411
0.000157471
-0.000409626
0.00017583
-0.000448855
0.000195518
-0.000488316
0.000216403
-0.000522822
0.000238784
-0.000559184
0.000262251
-0.000585491
0.000287549
-0.000619877
0.000313595
-0.00063421
0.000342089
-0.00067275
0.00037061
-0.000670851
0.000402343
-0.000728031
0.000433188
-0.000707251
0.000466309
-0.000802112
-0.000793292
3.84126e-05
0.000150252
3.69565e-05
0.000146338
3.57261e-05
0.000142208
3.47396e-05
0.000137839
3.40168e-05
0.0001332
3.35769e-05
0.000128245
3.34413e-05
0.000122918
3.36322e-05
0.000117149
3.41731e-05
0.000110851
3.50886e-05
0.000103922
3.64046e-05
9.6241e-05
3.81491e-05
8.76652e-05
4.03527e-05
7.80434e-05
4.30474e-05
6.71923e-05
4.62666e-05
5.49325e-05
5.0047e-05
4.10621e-05
5.44333e-05
2.53687e-05
5.94668e-05
7.64847e-06
6.51568e-05
-1.22207e-05
7.15815e-05
-3.4406e-05
7.87876e-05
-5.91102e-05
8.68163e-05
-8.64056e-05
9.57145e-05
-0.000116343
0.000105526
-0.000148838
0.000116299
-0.00018384
0.000128072
-0.000221016
0.000140891
-0.00026024
0.000154785
-0.000300808
0.0001698
-0.000342688
0.000185949
-0.000384559
0.000203292
-0.000426969
0.0002218
-0.000467364
0.000241598
-0.000508114
0.000262548
-0.000543772
0.000284955
-0.000581591
0.000308392
-0.000608928
0.000333626
-0.000645111
0.000359538
-0.000660123
0.000387869
-0.000701081
0.000416159
-0.000699142
0.000447593
-0.000759465
0.000478168
-0.000737825
0.000510805
-0.00083475
-0.000826414
7.3394e-05
0.000151489
7.23628e-05
0.000147369
7.15555e-05
0.000143016
7.09909e-05
0.000138403
7.06891e-05
0.000133502
7.06705e-05
0.000128263
7.09569e-05
0.000122632
7.15711e-05
0.000116535
7.25367e-05
0.000109886
7.38788e-05
0.00010258
7.56233e-05
9.44964e-05
7.77981e-05
8.54904e-05
8.04334e-05
7.54082e-05
8.35608e-05
6.40649e-05
8.7213e-05
5.12803e-05
9.1427e-05
3.68482e-05
9.62403e-05
2.05554e-05
0.000101701
2.18807e-06
0.000107808
-1.83279e-05
0.000114648
-4.12459e-05
0.000122258
-6.67206e-05
0.00013068
-9.48268e-05
0.000139956
-0.00012562
0.000150131
-0.000159012
0.000161247
-0.000194956
0.000173342
-0.000233112
0.000186458
-0.000273356
0.000200623
-0.000314973
0.00021588
-0.000357945
0.000232238
-0.000400917
0.000249756
-0.000444487
0.000268403
-0.000486012
0.000288302
-0.000528013
0.000309309
-0.000564779
0.000331735
-0.000604017
0.000355139
-0.000632332
0.000380305
-0.000670278
0.000406086
-0.000685904
0.000434252
-0.000729248
0.000462317
-0.000727206
0.000493451
-0.000790599
0.000523761
-0.000768135
0.000555938
-0.000866926
-0.00085908
0.000109659
0.000152333
0.000109019
0.000148009
0.000108601
0.000143433
0.000108425
0.000138579
0.000108512
0.000133415
0.000108882
0.000127893
0.000109559
0.000121955
0.000110566
0.000115528
0.000111926
0.000108525
0.000113665
0.000100841
0.000115809
9.23522e-05
0.000118386
8.29136e-05
0.000121425
7.23688e-05
0.000124959
6.05314e-05
0.000129018
4.72212e-05
0.00013364
3.22265e-05
0.000138867
1.53281e-05
0.000144708
-3.65307e-06
0.000151221
-2.48404e-05
0.000158452
-4.84772e-05
0.000166444
-7.47125e-05
0.000175235
-0.000103619
0.000184869
-0.000135254
0.000195385
-0.000169528
0.000206824
-0.000206395
0.000219221
-0.000245509
0.000232616
-0.000286751
0.000247034
-0.000329391
0.000262514
-0.000373425
0.000279066
-0.000417469
0.000296745
-0.000462165
0.000315518
-0.000504785
0.000335506
-0.000548001
0.000356562
-0.000585835
0.000379001
-0.000626456
0.000402366
-0.000655697
0.000427463
-0.000695374
0.000453113
-0.000711554
0.000481114
-0.000757249
0.000508961
-0.000755054
0.000539796
-0.000821434
0.000569849
-0.000798188
0.000601588
-0.000898666
-0.000891303
0.000147241
0.000152827
0.00014695
0.000148301
0.00014688
0.000143503
0.000147051
0.000138408
0.000147486
0.00013298
0.000148207
0.000127172
0.000149236
0.000120926
0.000150597
0.000114167
0.000152315
0.000106807
0.000154415
9.87408e-05
0.000156924
8.98434e-05
0.000159869
7.99687e-05
0.000163279
6.89584e-05
0.000167187
5.66242e-05
0.000171621
4.27864e-05
0.000176621
2.72269e-05
0.000182224
9.7253e-06
0.000188432
-9.86166e-06
0.000195313
-3.17215e-05
0.000202909
-5.60729e-05
0.000211256
-8.30593e-05
0.000220392
-0.000112755
0.000230358
-0.000145219
0.00024119
-0.00018036
0.000252928
-0.000218133
0.000265604
-0.000258185
0.000279255
-0.000300401
0.000293904
-0.00034404
0.000309589
-0.00038911
0.000326317
-0.000434197
0.00034414