/*--------------------------------*- C++ -*----------------------------------*\
  =========                 |
  \\      /  F ield         | OpenFOAM: The Open Source CFD Toolbox
   \\    /   O peration     | Website:  https://openfoam.org
    \\  /    A nd           | Version:  7
     \\/     M anipulation  |
\*---------------------------------------------------------------------------*/
FoamFile
{
    version     2.0;
    format      ascii;
    class       surfaceScalarField;
    location    "5";
    object      phi;
}
// * * * * * * * * * * * * * * * * * * * * * * * * * * * * * * * * * * * * * //

dimensions      [0 3 -1 0 0 0 0];

internalField   nonuniform List<scalar> 
16730
(
-0.00366128
-0.000572164
-0.000551016
-0.00351034
-0.0036109
-0.000601391
-0.000527482
-0.00336825
-0.000578221
-0.0034596
-0.00355901
-0.000630112
-0.000502617
-0.00323545
-0.000552801
-0.00331806
-0.00060494
-0.00340747
-0.00350563
-0.000658318
-0.000526276
-0.0031858
-0.000577694
-0.00326665
-0.00063119
-0.00335397
-0.0034508
-0.000686021
-0.00049868
-0.00306088
-0.00054956
-0.00313492
-0.000602188
-0.00321402
-0.000657015
-0.00329914
-0.00339451
-0.000713305
-0.000469704
-0.00294203
-0.000520369
-0.00301022
-0.000572484
-0.0030828
-0.000626324
-0.00316018
-0.000682481
-0.00324299
-0.00333671
-0.000740285
-0.000489754
-0.00289147
-0.000541688
-0.00295828
-0.000595069
-0.00302942
-0.000650162
-0.00310508
-0.000707619
-0.00318553
-0.00327734
-0.000766985
-0.000457607
-0.00277822
-0.000509411
-0.00283966
-0.000562624
-0.00290507
-0.000617334
-0.00297471
-0.000673806
-0.00304861
-0.000732467
-0.00312687
-0.00321611
-0.000793699
-0.000475626
-0.00272656
-0.000528652
-0.00278664
-0.000583139
-0.00285058
-0.000639237
-0.00291861
-0.000697289
-0.00299056
-0.000757905
-0.00306625
-0.00315479
-0.00081922
-0.000440411
-0.00261866
-0.00049323
-0.00267375
-0.000547447
-0.00273242
-0.000603174
-0.00279486
-0.000660625
-0.00286116
-0.000719995
-0.00293119
-0.000780603
-0.00300565
-0.00308643
-0.000848971
-0.000403844
-0.00251552
-0.000456467
-0.00256604
-0.000510423
-0.00261979
-0.000565794
-0.00267705
-0.000622699
-0.00273795
-0.000681319
-0.00280254
-0.000741742
-0.00287077
-0.00080413
-0.00294326
-0.00301957
-0.000870987
-0.00041841
-0.00246308
-0.000472132
-0.00251232
-0.000527195
-0.00256473
-0.000583684
-0.00262056
-0.000641716
-0.00267992
-0.000701433
-0.00274282
-0.00076293
-0.00280927
-0.00082653
-0.00287966
-0.00295294
-0.000893156
-0.000379104
-0.00236417
-0.000432609
-0.00240958
-0.000487402
-0.00245752
-0.000543544
-0.00250859
-0.000601118
-0.00256298
-0.000660234
-0.00262081
-0.000721011
-0.00268205
-0.000783552
-0.00274673
-0.000848133
-0.00281508
-0.002886
-0.000915072
-0.000391891
-0.0023109
-0.000446439
-0.00235503
-0.000502277
-0.00240168
-0.000559468
-0.00245139
-0.000618095
-0.00250436
-0.00067826
-0.00256064
-0.000740067
-0.00262024
-0.000803617
-0.00268318
-0.000869106
-0.00274959
-0.00281848
-0.000936633
-0.00035004
-0.00221498
-0.000404334
-0.0022566
-0.000459898
-0.00229947
-0.000516755
-0.00234483
-0.000574967
-0.00239318
-0.000634617
-0.00244471
-0.0006958
-0.00249946
-0.00075861
-0.00255743
-0.00082314
-0.00261865
-0.000889524
-0.0026832
-0.00275021
-0.000957788
-0.000361142
-0.00216101
-0.000416431
-0.00220131
-0.000472986
-0.00224291
-0.000530834
-0.00228698
-0.00059004
-0.00233398
-0.000650685
-0.00238406
-0.000712858
-0.00243728
-0.000776647
-0.00249364
-0.000842134
-0.00255316
-0.000909419
-0.00261592
-0.00268113
-0.000978505
-0.000371925
-0.00210606
-0.000428183
-0.00214505
-0.000485702
-0.00218539
-0.000544515
-0.00222817
-0.000604687
-0.0022738
-0.0006663
-0.00232245
-0.000729438
-0.00237415
-0.000794182
-0.0024289
-0.00086061
-0.00248673
-0.0009288
-0.00254773
-0.00261117
-0.000998758
-0.000326479
-0.00201144
-0.000382388
-0.00205015
-0.000439588
-0.00208785
-0.000498046
-0.00212693
-0.000557797
-0.00216842
-0.000618909
-0.00221269
-0.000681463
-0.00225989
-0.000745541
-0.00231007
-0.000811221
-0.00236322
-0.000878574
-0.00241938
-0.00094767
-0.00247863
-0.00254031
-0.00101853
-0.000335695
-0.00195604
-0.000392531
-0.00199331
-0.000450646
-0.00202974
-0.000510016
-0.00206756
-0.000570679
-0.00210775
-0.000632706
-0.00215066
-0.000696176
-0.00219642
-0.00076117
-0.00224507
-0.000827764
-0.00229662
-0.000896027
-0.00235112
-0.000966027
-0.00240863
-0.00246855
-0.00103779
-0.000288294
-0.00185875
-0.000344619
-0.00189971
-0.000402354
-0.00193558
-0.000461357
-0.00197073
-0.000521612
-0.00200731
-0.000583162
-0.0020462
-0.000646078
-0.00208775
-0.000710439
-0.00213206
-0.000776326
-0.00217919
-0.000843814
-0.00222914
-0.000912971
-0.00228196
-0.000983867
-0.00233774
-0.00239588
-0.00105654
-0.00029603
-0.00180325
-0.000353249
-0.00184249
-0.000411856
-0.00187697
-0.000471721
-0.00191087
-0.000532834
-0.0019462
-0.000595244
-0.00198379
-0.000659024
-0.00202397
-0.000724251
-0.00206684
-0.000791007
-0.00211243
-0.000859368
-0.00216078
-0.000929403
-0.00221192
-0.00100118
-0.00226596
-0.00232231
-0.00107475
-0.000303503
-0.00174685
-0.000361587
-0.00178441
-0.000421036
-0.00181752
-0.000481736
-0.00185017
-0.000543682
-0.00188425
-0.000606926
-0.00192055
-0.000671543
-0.00195935
-0.000737612
-0.00200077
-0.000805214
-0.00204483
-0.000874426
-0.00209156
-0.00094532
-0.00214103
-0.00101797
-0.00219331
-0.00224785
-0.00109243
-0.00025344
-0.00164257
-0.000310712
-0.00168958
-0.000369631
-0.00172549
-0.000429895
-0.00175726
-0.000491402
-0.00178866
-0.000554154
-0.0018215
-0.000618206
-0.0018565
-0.000683635
-0.00189392
-0.000750521
-0.00193388
-0.000818945
-0.00197641
-0.000888986
-0.00202152
-0.000960718
-0.0020693
-0.00103422
-0.0021198
-0.00217253
-0.00110955
-0.000259547
-0.00158666
-0.000317658
-0.00163147
-0.000377381
-0.00166577
-0.000438433
-0.00169621
-0.000500719
-0.00172638
-0.00056425
-0.00175797
-0.000629084
-0.00179166
-0.000695299
-0.00182771
-0.000762976
-0.0018662
-0.000832198
-0.00190718
-0.000903045
-0.00195067
-0.000975594
-0.00199675
-0.00104993
-0.00204547
-0.00209635
-0.0011261
-0.000265422
-0.00152989
-0.00032434
-0.00157255
-0.000384838
-0.00160527
-0.000446648
-0.0016344
-0.000509686
-0.00166334
-0.000573969
-0.00169368
-0.000639559
-0.00172607
-0.000706533
-0.00176074
-0.000774975
-0.00179776
-0.00084497
-0.00183719
-0.000916599
-0.00187905
-0.000989942
-0.00192341
-0.00106508
-0.00197033
-0.00201934
-0.00114209
-0.000213474
-0.00141241
-0.000271065
-0.0014723
-0.000330757
-0.00151286
-0.000392
-0.00154403
-0.00045454
-0.00157186
-0.000518303
-0.00159958
-0.000583311
-0.00162868
-0.000649629
-0.00165975
-0.000717336
-0.00169303
-0.000786518
-0.00172858
-0.00085726
-0.00176645
-0.000929646
-0.00180666
-0.00100376
-0.0018493
-0.00107969
-0.0018944
-0.00194153
-0.0011575
-0.000218096
-0.00135704
-0.000276475
-0.00141392
-0.000336911
-0.00145243
-0.000398868
-0.00148207
-0.000462109
-0.00150862
-0.000526569
-0.00153512
-0.000592275
-0.00156297
-0.000659293
-0.00159274
-0.000727707
-0.00162462
-0.000797601
-0.00165868
-0.000869064
-0.00169498
-0.000942182
-0.00173354
-0.00101704
-0.00177444
-0.00109373
-0.00181771
-0.00186294
-0.00117232
-0.000222521
-0.00130087
-0.000281653
-0.00135479
-0.000342799
-0.00139128
-0.000405442
-0.00141942
-0.000469355
-0.0014447
-0.000534484
-0.00146999
-0.000600859
-0.0014966
-0.000668551
-0.00152504
-0.000737643
-0.00155552
-0.000808223
-0.0015881
-0.00088038
-0.00162283
-0.000954203
-0.00165972
-0.00102978
-0.00169886
-0.0011072
-0.00174029
-0.0017836
-0.00118654
-0.000226748
-0.00124392
-0.000286598
-0.00129494
-0.000348423
-0.00132946
-0.00041172
-0.00135613
-0.000476277
-0.00138015
-0.000542046
-0.00140422
-0.000609063
-0.00142958
-0.0006774
-0.00145671
-0.000747143
-0.00148578
-0.000818382
-0.00151687
-0.000891206
-0.00155
-0.000965705
-0.00158522
-0.00104197
-0.0016226
-0.0011201
-0.00166216
-0.00170353
-0.00120017
-0.000173095
-0.00111046
-0.000230777
-0.00118624
-0.00029131
-0.00123441
-0.000353781
-0.00126699
-0.000417703
-0.00129221
-0.000482874
-0.00131497
-0.000549254
-0.00133784
-0.000616885
-0.00136195
-0.00068584
-0.00138775
-0.000756206
-0.00141541
-0.000828074
-0.001445
-0.000901537
-0.00147654
-0.000976685
-0.00151007
-0.00105361
-0.00154567
-0.00113242
-0.00158336
-0.00162277
-0.00121318
-0.000176227
-0.00105636
-0.000234606
-0.00112786
-0.000295789
-0.00117322
-0.000358874
-0.0012039
-0.00042339
-0.00122769
-0.000489146
-0.00124922
-0.000556109
-0.00127088
-0.000624324
-0.00129373
-0.000693868
-0.00131821
-0.000764828
-0.00134445
-0.000837298
-0.00137253
-0.000911371
-0.00140247
-0.00098714
-0.0014343
-0.0010647
-0.00146811
-0.00114416
-0.0015039
-0.00154134
-0.00122558
-0.000179198
-0.00100156
-0.000238236
-0.00106882
-0.000300034
-0.00111143
-0.000363701
-0.00114023
-0.00042878
-0.00116261
-0.000495092
-0.00118291
-0.000562609
-0.00120336
-0.00063138
-0.00122496
-0.000701484
-0.00124811
-0.00077301
-0.00127293
-0.000846052
-0.00129949
-0.000920706
-0.00132781
-0.000997066
-0.00135794
-0.00107523
-0.00138994
-0.0011553
-0.00142383
-0.00145928
-0.00123736
-0.000182006
-0.000946089
-0.000241667
-0.00100916
-0.000304044
-0.00104905
-0.000368262
-0.00107602
-0.000433874
-0.001097
-0.000500712
-0.00111607
-0.000568754
-0.00113532
-0.000638052
-0.00115566
-0.000708686
-0.00117747
-0.000780748
-0.00120087
-0.000854333
-0.0012259
-0.000929538
-0.00125261
-0.00100646
-0.00128102
-0.0010852
-0.0013112
-0.00116586
-0.00134317
-0.00137662
-0.00124852
-0.000184651
-0.00088999
-0.000244897
-0.000948914
-0.000307821
-0.000986125
-0.000372556
-0.00101128
-0.000438672
-0.00103088
-0.000506005
-0.00104874
-0.000574542
-0.00106678
-0.000644337
-0.00108587
-0.000715472
-0.00110634
-0.000788041
-0.0011283
-0.00086214
-0.0011518
-0.000937866
-0.00117688
-0.00101532
-0.00120357
-0.0010946
-0.00123192
-0.00117581
-0.00126196
-0.00129339
-0.00125905
-0.000130447
-0.000746488
-0.000187134
-0.000833304
-0.000247928
-0.00088812
-0.000311363
-0.00092269
-0.000376584
-0.00094606
-0.000443171
-0.000964295
-0.000510971
-0.000980936
-0.000579973
-0.000997777
-0.000650235
-0.00101561
-0.000721842
-0.00103473
-0.000794888
-0.00105525
-0.000869469
-0.00107722
-0.000945686
-0.00110066
-0.00102364
-0.00112562
-0.00110343
-0.00115213
-0.00118517
-0.00118022
-0.00120962
-0.00126894
-0.000132217
-0.000695554
-0.000189452
-0.000776069
-0.000250757
-0.000826815
-0.00031467
-0.000858777
-0.000380345
-0.000880385
-0.000447373
-0.000897267
-0.000515608
-0.0009127
-0.000585046
-0.000928339
-0.000655746
-0.000944907
-0.000727794
-0.00096268
-0.000801286
-0.000981759
-0.00087632
-0.00100219
-0.000952996
-0.00102399
-0.00103142
-0.00104719
-0.00111169
-0.00107186
-0.00119391
-0.00109799
-0.00112535
-0.00127819
-0.000133863
-0.000644089
-0.000191606
-0.000718326
-0.000253386
-0.000765035
-0.000317742
-0.000794422
-0.000383839
-0.000814288
-0.000451277
-0.000829829
-0.000519917
-0.00084406
-0.00058976
-0.000858496
-0.000660867
-0.000873799
-0.000733326
-0.000890221
-0.000807234
-0.000907852
-0.000882689
-0.000926731
-0.000959794
-0.000946883
-0.00103865
-0.000968337
-0.00111937
-0.000991146
-0.00120205
-0.00101531
-0.0010406
-0.00128679
-0.000135383
-0.000592135
-0.000193596
-0.000660112
-0.000255814
-0.000702818
-0.000320579
-0.000729657
-0.000387065
-0.000747801
-0.000454882
-0.000762012
-0.000523897
-0.000775045
-0.000594115
-0.000788279
-0.000665599
-0.000802315
-0.000738438
-0.000817381
-0.000812731
-0.000833559
-0.000888576
-0.000850885
-0.000966078
-0.000869382
-0.00104534
-0.000889076
-0.00112647
-0.000910017
-0.00120958
-0.000932202
-0.000955428
-0.00129475
-0.000136778
-0.000539732
-0.000195422
-0.000601469
-0.00025804
-0.000640199
-0.00032318
-0.000664517
-0.000390024
-0.000680957
-0.000458188
-0.000693848
-0.000527548
-0.000705685
-0.000598109
-0.000717717
-0.000669939
-0.000730485
-0.000743128
-0.000744192
-0.000817774
-0.000758914
-0.000893979
-0.000774681
-0.000971845
-0.000791515
-0.00105148
-0.000809442
-0.00113299
-0.000828507
-0.00121649
-0.000848704
-0.000869853
-0.00130206
-0.000138048
-0.000486922
-0.000197082
-0.000542434
-0.000260065
-0.000577217
-0.000325545
-0.000599037
-0.000392714
-0.000613788
-0.000461195
-0.000625367
-0.000530868
-0.000636013
-0.000601743
-0.000646843
-0.000673888
-0.000658339
-0.000747396
-0.000670685
-0.000822364
-0.000683945
-0.000898895
-0.000698149
-0.000977094
-0.000713317
-0.00105707
-0.00072947
-0.00113892
-0.00074665
-0.00122278
-0.000764852
-0.000783913
-0.00130872
-0.000139191
-0.000433743
-0.000198577
-0.000483049
-0.000261888
-0.000513906
-0.000327675
-0.000533249
-0.000395136
-0.000546327
-0.000463902
-0.000556601
-0.000533857
-0.000566057
-0.000605015
-0.000575685
-0.000677445
-0.000585909
-0.000751239
-0.00059689
-0.000826498
-0.000608686
-0.000903324
-0.000621323
-0.000981823
-0.000634818
-0.0010621
-0.000649192
-0.00114427
-0.000664481
-0.00122844
-0.00068068
-0.000697644
-0.00131471
-0.000140208
-0.000380239
-0.000199907
-0.00042335
-0.000263508
-0.000450305
-0.000329568
-0.00046719
-0.00039729
-0.000478606
-0.000466309
-0.000487581
-0.000536516
-0.000495851
-0.000607925
-0.000504276
-0.000680608
-0.000513226
-0.000754658
-0.00052284
-0.000830176
-0.000533169
-0.000907265
-0.000544234
-0.00098603
-0.000556052
-0.00106658
-0.000568641
-0.00114903
-0.000582032
-0.00123349
-0.000596222
-0.000611082
-0.00132005
-0.000141099
-0.000326449
-0.000201071
-0.000363379
-0.000264927
-0.000386448
-0.000331225
-0.000400891
-0.000399174
-0.000410657
-0.000468416
-0.00041834
-0.000538843
-0.000425425
-0.000610472
-0.000432647
-0.000683377
-0.000440321
-0.000757651
-0.000448566
-0.000833396
-0.000457424
-0.000910715
-0.000466915
-0.000989715
-0.000477053
-0.0010705
-0.000487851
-0.0011532
-0.00049934
-0.00123791
-0.000511513
-0.000524263
-0.00132472
-8.78284e-05
-0.000225075
-0.000141863
-0.000272415
-0.000202068
-0.000303173
-0.000266143
-0.000322374
-0.000332646
-0.000334388
-0.00040079
-0.000342512
-0.000470223
-0.000348908
-0.000540838
-0.000354809
-0.000612656
-0.000360828
-0.000685752
-0.000367225
-0.000760218
-0.000374099
-0.000836158
-0.000381485
-0.000913674
-0.000389399
-0.000992875
-0.000397852
-0.00107387
-0.000406857
-0.00115677
-0.000416438
-0.0012417
-0.00042659
-0.000437224
-0.00132873
-8.82612e-05
-0.000180297
-0.0001425
-0.000218177
-0.0002029
-0.000242773
-0.000267157
-0.000258117
-0.00033383
-0.000267715
-0.000402137
-0.000274205
-0.000471728
-0.000279317
-0.000542501
-0.000284037
-0.000614477
-0.000288852
-0.000687731
-0.000293971
-0.000762359
-0.000299472
-0.00083846
-0.000305383
-0.000916142
-0.000311717
-0.000995511
-0.000318483
-0.00107668
-0.000325691
-0.00115975
-0.000333361
-0.00124486
-0.000341488
-0.00035
-0.00133208
-8.86077e-05
-0.000135361
-0.000143009
-0.000163775
-0.000203566
-0.000182216
-0.000267968
-0.000193715
-0.000334778
-0.000200905
-0.000403215
-0.000205768
-0.000472933
-0.000209599
-0.000543832
-0.000213138
-0.000615934
-0.000216749
-0.000689316
-0.000220589
-0.000764071
-0.000224716
-0.000840303
-0.000229151
-0.000918117
-0.000233903
-0.00099762
-0.00023898
-0.00107892
-0.000244388
-0.00116214
-0.000250143
-0.00124739
-0.000256242
-0.000262629
-0.00133476
-8.88676e-05
-9.03064e-05
-0.000143391
-0.000109251
-0.000204065
-0.000121542
-0.000268576
-0.000129204
-0.000335488
-0.000133994
-0.000404023
-0.000137233
-0.000473837
-0.000139785
-0.00054483
-0.000142144
-0.000617027
-0.000144552
-0.000690504
-0.000147113
-0.000765356
-0.000149864
-0.000841686
-0.000152822
-0.000919599
-0.000155991
-0.000999203
-0.000159376
-0.00108061
-0.000162983
-0.00116393
-0.000166821
-0.00124928
-0.000170888
-0.000175148
-0.00133677
-8.90409e-05
-4.51728e-05
-0.000143646
-5.46459e-05
-0.000204398
-6.07904e-05
-0.000268982
-6.46199e-05
-0.000335962
-6.70137e-05
-0.000404562
-6.86324e-05
-0.000474439
-6.99084e-05
-0.000545496
-7.10877e-05
-0.000617756
-7.22916e-05
-0.000691297
-7.3572e-05
-0.000766213
-7.4948e-05
-0.000842608
-7.64268e-05
-0.000920587
-7.80116e-05
-0.00100026
-7.97045e-05
-0.00108173
-8.15083e-05
-0.00116513
-8.34277e-05
-0.00125055
-8.54616e-05
-8.75921e-05
-0.00133811
-8.91276e-05
2.04147e-10
-0.000143774
2.5676e-10
-0.000204564
3.00941e-10
-0.000269185
3.40139e-10
-0.000336199
3.75746e-10
-0.000404831
4.06546e-10
-0.00047474
4.30632e-10
-0.000545828
4.46811e-10
-0.00061812
4.55024e-10
-0.000691693
4.56114e-10
-0.000766641
4.51362e-10
-0.000843069
4.42126e-10
-0.000921081
4.29615e-10
-0.00100079
4.1483e-10
-0.00108229
3.98587e-10
-0.00116572
3.81614e-10
-0.00125118
3.64592e-10
3.4714e-10
-0.00133878
-8.91276e-05
4.51732e-05
-0.000143774
5.46464e-05
-0.000204564
6.0791e-05
-0.000269185
6.46206e-05
-0.000336199
6.70144e-05
-0.000404831
6.86332e-05
-0.00047474
6.99092e-05
-0.000545828
7.10886e-05
-0.00061812
7.22925e-05
-0.000691693
7.35729e-05
-0.000766641
7.49489e-05
-0.000843069
7.64277e-05
-0.000921081
7.80124e-05
-0.00100079
7.97053e-05
-0.00108229
8.15091e-05
-0.00116572
8.34284e-05
-0.00125118
8.54623e-05
8.75928e-05
-0.00133878
-8.90409e-05
9.03068e-05
-0.000143646
0.000109252
-0.000204398
0.000121543
-0.000268982
0.000129204
-0.000335962
0.000133994
-0.000404562
0.000137233
-0.000474439
0.000139786
-0.000545496
0.000142145
-0.000617756
0.000144553
-0.000691297
0.000147113
-0.000766213
0.000149865
-0.000842608
0.000152822
-0.000920587
0.000155991
-0.00100026
0.000159377
-0.00108173
0.000162983
-0.00116513
0.000166821
-0.00125055
0.000170888
0.000175148
-0.00133811
-8.88676e-05
0.000135361
-0.000143391
0.000163776
-0.000204065
0.000182216
-0.000268576
0.000193716
-0.000335488
0.000200906
-0.000404023
0.000205769
-0.000473837
0.0002096
-0.00054483
0.000213139
-0.000617027
0.00021675
-0.000690504
0.00022059
-0.000765356
0.000224717
-0.000841686
0.000229152
-0.000919599
0.000233904
-0.000999203
0.000238981
-0.00108061
0.000244389
-0.00116393
0.000250144
-0.00124928
0.000256242
0.00026263
-0.00133677
-8.86077e-05
0.000180297
-0.000143009
0.000218177
-0.000203566
0.000242773
-0.000267968
0.000258118
-0.000334778
0.000267716
-0.000403215
0.000274206
-0.000472933
0.000279318
-0.000543832
0.000284037
-0.000615934
0.000288853
-0.000689316
0.000293972
-0.000764071
0.000299473
-0.000840303
0.000305384
-0.000918117
0.000311718
-0.00099762
0.000318484
-0.00107892
0.000325692
-0.00116214
0.000333361
-0.00124739
0.000341488
0.000350001
-0.00133476
-8.82612e-05
0.000225076
-0.0001425
0.000272415
-0.0002029
0.000303174
-0.000267157
0.000322374
-0.00033383
0.000334389
-0.000402137
0.000342513
-0.000471728
0.000348909
-0.000542501
0.00035481
-0.000614477
0.000360829
-0.000687732
0.000367226
-0.000762359
0.0003741
-0.00083846
0.000381486
-0.000916142
0.000389399
-0.000995511
0.000397852
-0.00107668
0.000406858
-0.00115975
0.000416439
-0.00124486
0.000426591
0.000437224
-0.00133208
-8.78284e-05
-0.000141863
0.00032645
-0.000202069
0.00036338
-0.000266143
0.000386449
-0.000332646
0.000400892
-0.00040079
0.000410657
-0.000470223
0.000418341
-0.000540838
0.000425426
-0.000612656
0.000432647
-0.000685752
0.000440322
-0.000760219
0.000448567
-0.000836158
0.000457425
-0.000913675
0.000466916
-0.000992876
0.000477053
-0.00107387
0.000487852
-0.00115677
0.000499341
-0.0012417
0.000511514
0.000524264
-0.00132873
-0.000141099
0.00038024
-0.000201071
0.000423351
-0.000264927
0.000450305
-0.000331225
0.00046719
-0.000399175
0.000478607
-0.000468416
0.000487582
-0.000538843
0.000495852
-0.000610472
0.000504277
-0.000683377
0.000513227
-0.000757652
0.000522841
-0.000833396
0.00053317
-0.000910715
0.000544235
-0.000989715
0.000556053
-0.0010705
0.000568642
-0.0011532
0.000582033
-0.00123791
0.000596222
0.000611083
-0.00132472
-0.000140209
0.000433744
-0.000199907
0.000483049
-0.000263508
0.000513907
-0.000329568
0.00053325
-0.00039729
0.000546328
-0.000466309
0.000556602
-0.000536516
0.000566058
-0.000607925
0.000575686
-0.000680608
0.00058591
-0.000754658
0.000596891
-0.000830176
0.000608687
-0.000907265
0.000621324
-0.000986031
0.000634819
-0.00106658
0.000649192
-0.00114903
0.000664481
-0.00123349
0.00068068
0.000697644
-0.00132005
-0.000139191
0.000486922
-0.000198577
0.000542435
-0.000261888
0.000577217
-0.000327675
0.000599037
-0.000395136
0.000613789
-0.000463902
0.000625368
-0.000533857
0.000636013
-0.000605015
0.000646843
-0.000677445
0.00065834
-0.000751239
0.000670686
-0.000826498
0.000683946
-0.000903324
0.00069815
-0.000981823
0.000713318
-0.0010621
0.000729471
-0.00114427
0.000746651
-0.00122844
0.000764853
0.000783913
-0.00131471
-0.000138048
0.000539733
-0.000197082
0.000601469
-0.000260065
0.0006402
-0.000325545
0.000664518
-0.000392714
0.000680958
-0.000461195
0.000693849
-0.000530868
0.000705686
-0.000601743
0.000717718
-0.000673888
0.000730486
-0.000747396
0.000744193
-0.000822364
0.000758914
-0.000898895
0.000774682
-0.000977094
0.000791516
-0.00105707
0.000809443
-0.00113892
0.000828507
-0.00122278
0.000848705
0.000869853
-0.00130872
-0.000136778
0.000592136
-0.000195422
0.000660113
-0.00025804
0.000702818
-0.00032318
0.000729658
-0.000390024
0.000747802
-0.000458188
0.000762013
-0.000527548
0.000775046
-0.000598109
0.00078828
-0.00066994
0.000802316
-0.000743129
0.000817382
-0.000817775
0.00083356
-0.000893979
0.000850886
-0.000971845
0.000869382
-0.00105148
0.000889077
-0.00113299
0.000910017
-0.00121649
0.000932202
0.000955429
-0.00130206
-0.000135383
0.00064409
-0.000193596
0.000718326
-0.000255814
0.000765036
-0.000320579
0.000794422
-0.000387065
0.000814288
-0.000454882
0.00082983
-0.000523897
0.000844061
-0.000594115
0.000858497
-0.000665599
0.0008738
-0.000738439
0.000890222
-0.000812731
0.000907853
-0.000888577
0.000926732
-0.000966078
0.000946884
-0.00104534
0.000968338
-0.00112647
0.000991147
-0.00120958
0.00101531
0.0010406
-0.00129475
-0.000133863
0.000695555
-0.000191606
0.00077607
-0.000253386
0.000826816
-0.000317742
0.000858778
-0.000383839
0.000880386
-0.000451277
0.000897268
-0.000519918
0.000912701
-0.00058976
0.00092834
-0.000660867
0.000944908
-0.000733327
0.000962681
-0.000807234
0.00098176
-0.00088269
0.00100219
-0.000959794
0.00102399
-0.00103865
0.0010472
-0.00111937
0.00107186
-0.00120205
0.00109799
0.00112535
-0.00128679
-0.000132217
0.000746488
-0.000189452
0.000833305
-0.000250757
0.000888121
-0.00031467
0.000922691
-0.000380345
0.000946061
-0.000447373
0.000964296
-0.000515609
0.000980937
-0.000585046
0.000997778
-0.000655746
0.00101561
-0.000727794
0.00103473
-0.000801286
0.00105525
-0.00087632
0.00107722
-0.000952997
0.00110067
-0.00103142
0.00112562
-0.00111169
0.00115213
-0.00119391
0.00118022
0.00120962
-0.00127819
-0.000130447
-0.000187134
0.000889991
-0.000247928
0.000948915
-0.000311363
0.000986126
-0.000376584
0.00101128
-0.000443171
0.00103088
-0.000510971
0.00104874
-0.000579973
0.00106678
-0.000650236
0.00108587
-0.000721843
0.00110634
-0.000794888
0.0011283
-0.00086947
0.0011518
-0.000945686
0.00117688
-0.00102364
0.00120357
-0.00110343
0.00123192
-0.00118517
0.00126196
0.00129339
-0.00126894
-0.000184652
0.00094609
-0.000244897
0.00100916
-0.000307821
0.00104905
-0.000372556
0.00107602
-0.000438672
0.001097
-0.000506005
0.00111607
-0.000574542
0.00113532
-0.000644337
0.00115566
-0.000715473
0.00117747
-0.000788042
0.00120087
-0.00086214
0.0012259
-0.000937866
0.00125261
-0.00101532
0.00128102
-0.0010946
0.00131121
-0.00117581
0.00134317
0.00137662
-0.00125905
-0.000182006
0.00100156
-0.000241667
0.00106882
-0.000304045
0.00111143
-0.000368262
0.00114024
-0.000433875
0.00116261
-0.000500712
0.00118291
-0.000568754
0.00120336
-0.000638052
0.00122496
-0.000708686
0.00124811
-0.000780748
0.00127293
-0.000854334
0.00129949
-0.000929539
0.00132781
-0.00100646
0.00135794
-0.0010852
0.00138994
-0.00116586
0.00142383
0.00145928
-0.00124852
-0.000179198
0.00105636
-0.000238236
0.00112786
-0.000300034
0.00117322
-0.000363701
0.0012039
-0.000428781
0.00122769
-0.000495092
0.00124922
-0.00056261
0.00127088
-0.000631381
0.00129373
-0.000701484
0.00131821
-0.00077301
0.00134445
-0.000846053
0.00137253
-0.000920706
0.00140247
-0.000997067
0.0014343
-0.00107523
0.00146811
-0.0011553
0.0015039
0.00154134
-0.00123736
-0.000176227
0.00111046
-0.000234606
0.00118624
-0.000295789
0.00123441
-0.000358874
0.00126699
-0.00042339
0.00129221
-0.000489146
0.00131497
-0.00055611
0.00133784
-0.000624325
0.00136195
-0.000693868
0.00138775
-0.000764829
0.00141542
-0.000837299
0.001445
-0.000911371
0.00147654
-0.000987141
0.00151007
-0.0010647
0.00154567
-0.00114416
0.00158336
0.00162277
-0.00122558
-0.000173095
-0.000230777
0.00124392
-0.000291311
0.00129494
-0.000353781
0.00132946
-0.000417703
0.00135613
-0.000482874
0.00138015
-0.000549255
0.00140422
-0.000616885
0.00142958
-0.00068584
0.00145671
-0.000756206
0.00148578
-0.000828074
0.00151687
-0.000901537
0.00155
-0.000976686
0.00158522
-0.00105361
0.0016226
-0.00113242
0.00166216
0.00170353
-0.00121318
-0.000226748
0.00130087
-0.000286599
0.00135479
-0.000348423
0.00139128
-0.00041172
0.00141943
-0.000476277
0.0014447
-0.000542046
0.00146999
-0.000609063
0.0014966
-0.0006774
0.00152505
-0.000747144
0.00155552
-0.000818382
0.00158811
-0.000891206
0.00162283
-0.000965705
0.00165972
-0.00104197
0.00169886
-0.0011201
0.00174029
0.0017836
-0.00120017
-0.000222522
0.00135704
-0.000281654
0.00141392
-0.000342799
0.00145243
-0.000405442
0.00148207
-0.000469355
0.00150862
-0.000534484
0.00153512
-0.000600859
0.00156297
-0.000668551
0.00159274
-0.000737643
0.00162462
-0.000808224
0.00165869
-0.000880381
0.00169498
-0.000954203
0.00173354
-0.00102978
0.00177444
-0.0011072
0.00181771
0.00186294
-0.00118654
-0.000218097
-0.000276476
0.0014723
-0.000336911
0.00151286
-0.000398869
0.00154403
-0.00046211
0.00157186
-0.00052657
0.00159958
-0.000592275
0.00162868
-0.000659294
0.00165976
-0.000727707
0.00169303
-0.000797602
0.00172858
-0.000869065
0.00176645
-0.000942182
0.00180666
-0.00101704
0.0018493
-0.00109373
0.0018944
0.00194153
-0.00117232
-0.000271065
0.00152989
-0.000330758
0.00157256
-0.000392001
0.00160527
-0.00045454
0.0016344
-0.000518304
0.00166334
-0.000583312
0.00169369
-0.000649629
0.00172607
-0.000717336
0.00176074
-0.000786518
0.00179776
-0.000857261
0.00183719
-0.000929647
0.00187905
-0.00100376
0.00192341
-0.00107969
0.00197033
0.00201934
-0.0011575
-0.000265422
0.00158666
-0.00032434
0.00163147
-0.000384838
0.00166577
-0.000446648
0.00169621
-0.000509687
0.00172638
-0.00057397
0.00175797
-0.000639559
0.00179166
-0.000706533
0.00182771
-0.000774976
0.0018662
-0.000844971
0.00190718
-0.0009166
0.00195068
-0.000989943
0.00199675
-0.00106508
0.00204547
0.00209635
-0.00114209
-0.000259547
0.00164257
-0.000317658
0.00168958
-0.000377382
0.00172549
-0.000438433
0.00175726
-0.000500719
0.00178867
-0.00056425
0.0018215
-0.000629085
0.0018565
-0.000695299
0.00189393
-0.000762976
0.00193388
-0.000832198
0.00197641
-0.000903046
0.00202152
-0.000975594
0.0020693
-0.00104993
0.0021198
0.00217253
-0.0011261
-0.000253441
-0.000310712
0.00174686
-0.000369631
0.00178441
-0.000429896
0.00181752
-0.000491402
0.00185017
-0.000554154
0.00188425
-0.000618207
0.00192055
-0.000683635
0.00195935
-0.000750521
0.00200077
-0.000818946
0.00204483
-0.000888987
0.00209156
-0.000960719
0.00214103
-0.00103422
0.00219331
0.00224785
-0.00110955
-0.000303503
0.00180326
-0.000361587
0.00184249
-0.000421037
0.00187697
-0.000481736
0.00191087
-0.000543682
0.0019462
-0.000606927
0.00198379
-0.000671543
0.00202397
-0.000737613
0.00206684
-0.000805215
0.00211243
-0.000874427
0.00216078
-0.00094532
0.00221192
-0.00101797
0.00226596
0.00232231
-0.00109243
-0.00029603
0.00185875
-0.00035325
0.00189971
-0.000411856
0.00193558
-0.000471721
0.00197074
-0.000532835
0.00200731
-0.000595245
0.0020462
-0.000659024
0.00208775
-0.000724252
0.00213206
-0.000791008
0.00217919
-0.000859369
0.00222914
-0.000929403
0.00228196
-0.00100118
0.00233774
0.00239588
-0.00107475
-0.000288294
-0.000344619
0.00195604
-0.000402354
0.00199331
-0.000461358
0.00202974
-0.000521612
0.00206757
-0.000583162
0.00210775
-0.000646078
0.00215067
-0.00071044
0.00219643
-0.000776326
0.00224508
-0.000843814
0.00229662
-0.000912971
0.00235112
-0.000983867
0.00240863
0.00246855
-0.00105654
-0.000335696
0.00201144
-0.000392532
0.00205015
-0.000450647
0.00208786
-0.000510016
0.00212694
-0.00057068
0.00216842
-0.000632707
0.00221269
-0.000696177
0.0022599
-0.000761171
0.00231007
-0.000827765
0.00236322
-0.000896028
0.00241938
-0.000966028
0.00247863
0.00254031
-0.00103779
-0.00032648
-0.000382388
0.00210606
-0.000439589
0.00214506
-0.000498046
0.00218539
-0.000557797
0.00222817
-0.00061891
0.00227381
-0.000681464
0.00232245
-0.000745542
0.00237415
-0.000811221
0.0024289
-0.000878574
0.00248673
-0.000947671
0.00254773
0.00261117
-0.00101853
-0.000371925
0.00216101
-0.000428183
0.00220131
-0.000485703
0.00224291
-0.000544516
0.00228698
-0.000604688
0.00233398
-0.0006663
0.00238406
-0.000729438
0.00243728
-0.000794183
0.00249364
-0.000860611
0.00255316
-0.000928801
0.00261592
0.00268113
-0.000998759
-0.000361142
-0.000416432
0.0022566
-0.000472987
0.00229947
-0.000530835
0.00234483
-0.00059004
0.00239318
-0.000650685
0.00244471
-0.000712859
0.00249946
-0.000776647
0.00255743
-0.000842135
0.00261865
-0.000909419
0.0026832
0.00275021
-0.000978506
-0.000404334
0.0023109
-0.000459899
0.00235503
-0.000516755
0.00240169
-0.000574967
0.0024514
-0.000634618
0.00250436
-0.000695801
0.00256064
-0.000758611
0.00262024
-0.000823141
0.00268318
-0.000889525
0.00274959
0.00281848
-0.000957788
-0.000391892
0.00236417
-0.000446439
0.00240958
-0.000502278
0.00245752
-0.000559469
0.00250859
-0.000618096
0.00256299
-0.000678261
0.00262081
-0.000740068
0.00268205
-0.000803618
0.00274673
-0.000869106
0.00281508
0.002886
-0.000936634
-0.000379105
-0.00043261
0.00246308
-0.000487403
0.00251232
-0.000543544
0.00256473
-0.000601119
0.00262056
-0.000660235
0.00267992
-0.000721011
0.00274283
-0.000783553
0.00280927
-0.000848134
0.00287966
0.00295294
-0.000915072
-0.000418411
-0.000472132
0.00256604
-0.000527196
0.00261979
-0.000583685
0.00267705
-0.000641716
0.00273795
-0.000701433
0.00280254
-0.00076293
0.00287077
-0.000826531
0.00294326
0.00301957
-0.000893157
-0.000456468
0.00261866
-0.000510423
0.00267375
-0.000565795
0.00273242
-0.0006227
0.00279486
-0.00068132