/*--------------------------------*- C++ -*----------------------------------*\
  =========                 |
  \\      /  F ield         | OpenFOAM: The Open Source CFD Toolbox
   \\    /   O peration     | Website:  https://openfoam.org
    \\  /    A nd           | Version:  7
     \\/     M anipulation  |
\*---------------------------------------------------------------------------*/
FoamFile
{
    version     2.0;
    format      ascii;
    class       surfaceScalarField;
    location    "10";
    object      phi;
}
// * * * * * * * * * * * * * * * * * * * * * * * * * * * * * * * * * * * * * //

dimensions      [0 3 -1 0 0 0 0];

internalField   nonuniform List<scalar> 
42332
(
-7.28534e-07
7.29137e-07
-6.02898e-10
-2.75262e-06
2.02577e-06
-1.68539e-09
-5.97511e-06
3.22518e-06
-2.69389e-09
-1.03093e-05
4.33779e-06
-3.62662e-09
-1.56775e-05
5.37269e-06
-4.48036e-09
-2.20109e-05
6.33868e-06
-5.25429e-09
-2.92492e-05
7.24421e-06
-5.95039e-09
-3.73403e-05
8.09768e-06
-6.57259e-09
-4.62408e-05
8.90767e-06
-7.1271e-09
-5.59163e-05
9.68312e-06
-7.62146e-09
-6.63418e-05
1.04335e-05
-8.06405e-09
-7.75022e-05
1.11689e-05
-8.46366e-09
-8.93935e-05
1.19002e-05
-8.8284e-09
-0.000102023
1.26389e-05
-9.16587e-09
-0.000115412
1.33977e-05
-9.48228e-09
-0.000129592
1.419e-05
-9.78211e-09
-0.000144612
1.50301e-05
-1.00681e-08
-0.000160535
1.59334e-05
-1.03413e-08
-0.00017744
1.69158e-05
-1.06003e-08
-0.000195424
1.79943e-05
-1.08426e-08
-0.000214599
1.91861e-05
-1.10636e-08
-0.000235096
2.05089e-05
-1.12576e-08
-0.000257065
2.19801e-05
-1.14175e-08
-0.000280667
2.36136e-05
-1.15352e-08
2.54412e-05
-1.16017e-08
-0.000306096
-7.24632e-07
1.45377e-06
-2.73842e-06
4.03956e-06
-5.94505e-06
6.43181e-06
-1.02584e-05
8.65111e-06
-1.56012e-05
1.07155e-05
-2.19048e-05
1.26423e-05
-2.9109e-05
1.44484e-05
-3.71616e-05
1.61503e-05
-4.6019e-05
1.77651e-05
-5.56463e-05
1.93104e-05
-6.6018e-05
2.08052e-05
-7.71184e-05
2.22693e-05
-8.89427e-05
2.37244e-05
-0.000101497
2.51936e-05
-0.000114801
2.67018e-05
-0.000128887
2.82756e-05
-0.000143801
2.99438e-05
-0.000159604
3.17366e-05
-0.000176374
3.36861e-05
-0.000194206
3.58259e-05
-0.00021321
3.81902e-05
-0.000233516
4.08147e-05
-0.000255269
4.37334e-05
-0.000278629
4.69739e-05
5.05993e-05
-0.000303787
-7.16884e-07
2.17065e-06
-2.71022e-06
6.0329e-06
-5.88531e-06
9.6069e-06
-1.01572e-05
1.2923e-05
-1.54495e-05
1.60077e-05
-2.16939e-05
1.88868e-05
-2.88303e-05
2.15848e-05
-3.68063e-05
2.41263e-05
-4.55778e-05
2.65366e-05
-5.51093e-05
2.88419e-05
-6.5374e-05
3.10699e-05
-7.6355e-05
3.32504e-05
-8.80458e-05
3.54153e-05
-0.000100451
3.75989e-05
-0.000113588
3.98382e-05
-0.000127485
4.21729e-05
-0.000142187
4.46456e-05
-0.000157751
4.73013e-05
-0.000174253
5.0188e-05
-0.000191783
5.33553e-05
-0.000210447
5.68546e-05
-0.000230371
6.07387e-05
-0.000251696
6.50582e-05
-0.000274576
6.9854e-05
7.52185e-05
-0.000299195
-7.05399e-07
2.87605e-06
-2.6684e-06
7.9959e-06
-5.7967e-06
1.27352e-05
-1.00071e-05
1.71334e-05
-1.52242e-05
2.12249e-05
-2.13807e-05
2.50432e-05
-2.84162e-05
2.86203e-05
-3.62784e-05
3.19885e-05
-4.49222e-05
3.51805e-05
-5.4311e-05
3.82306e-05
-6.44165e-05
4.11754e-05
-7.52199e-05
4.40538e-05
-8.67122e-05
4.69075e-05
-9.88951e-05
4.97819e-05
-0.000111782
5.27253e-05
-0.000125399
5.57901e-05
-0.000139786
5.90323e-05
-0.000154996
6.25114e-05
-0.000171099
6.62906e-05
-0.000188179
7.04355e-05
-0.000206338
7.50139e-05
-0.000225695
8.00954e-05
-0.000246384
8.57467e-05
-0.000268551
9.20212e-05
9.90379e-05
-0.00029237
-6.90337e-07
3.56639e-06
-2.61351e-06
9.91907e-06
-5.68033e-06
1.5802e-05
-9.80984e-06
2.12629e-05
-1.49283e-05
2.63433e-05
-2.09688e-05
3.10837e-05
-2.78716e-05
3.55232e-05
-3.55838e-05
3.97006e-05
-4.40593e-05
4.3656e-05
-5.326e-05
4.74313e-05
-6.31557e-05
5.10711e-05
-7.37248e-05
5.46229e-05
-8.49553e-05
5.8138e-05
-9.68451e-05
6.16717e-05
-0.000109403
6.52837e-05
-0.000122651
6.9038e-05
-0.000136623
7.30037e-05
-0.000151366
7.72542e-05
-0.000166942
8.18672e-05
-0.000183431
8.69239e-05
-0.000200925
9.25082e-05
-0.000219535
9.87055e-05
-0.000239386
0.000105598
-0.000260617
0.000113251
0.000121808
-0.000283386
-6.71904e-07
4.23829e-06
-2.54628e-06
1.17934e-05
-5.53771e-06
1.87935e-05
-9.56795e-06
2.52931e-05
-1.4565e-05
3.13404e-05
-2.04632e-05
3.69819e-05
-2.72027e-05
4.22627e-05
-3.47301e-05
4.7228e-05
-4.29984e-05
5.19243e-05
-5.19675e-05
5.64004e-05
-6.16047e-05
6.07082e-05
-7.18852e-05
6.49034e-05
-8.27931e-05
6.90459e-05
-9.43218e-05
7.32004e-05
-0.000106475
7.7437e-05
-0.000119268
8.18311e-05
-0.000132728
8.64637e-05
-0.000146896
9.14215e-05
-0.000161825
9.67962e-05
-0.000177585
0.000102684
-0.000194261
0.000109184
-0.000211953
0.000116398
-0.000230777
0.000124422
-0.000250857
0.000133332
0.000143291
-0.000272341
-6.50352e-07
4.88865e-06
-2.46759e-06
1.36107e-05
-5.37064e-06
2.16965e-05
-9.28439e-06
2.92069e-05
-1.41389e-05
3.61949e-05
-1.98696e-05
4.27126e-05
-2.6417e-05
4.88101e-05
-3.37269e-05
5.4538e-05
-4.17511e-05
5.99485e-05
-5.04472e-05
6.50965e-05
-5.97796e-05
7.00406e-05
-6.97199e-05
7.48436e-05
-8.02475e-05
7.95735e-05
-9.13505e-05
8.43035e-05
-0.000103027
8.91131e-05
-0.000115284
9.40881e-05
-0.000128141
9.9321e-05
-0.00014163
0.000104911
-0.000155797
0.000110963
-0.0001707
0.000117587
-0.000186413
0.000124898
-0.000203026
0.000133011
-0.000220642
0.000142038
-0.000239374
0.000152064
0.000163269
-0.000259352
-6.25971e-07
5.51462e-06
-2.37846e-06
1.53632e-05
-5.18122e-06
2.44993e-05
-8.96261e-06
3.29883e-05
-1.3655e-05
4.08873e-05
-1.9195e-05
4.82525e-05
-2.55233e-05
5.51384e-05
-3.25852e-05
6.15999e-05
-4.03307e-05
6.7694e-05
-4.87151e-05
7.34809e-05
-5.76994e-05
7.90249e-05
-6.72509e-05
8.43952e-05
-7.73441e-05
8.96666e-05
-8.79608e-05
9.49202e-05
-9.90917e-05
0.000100244
-0.000110737
0.000105733
-0.000122906
0.00011149
-0.000135622
0.000117626
-0.000148918
0.000124259
-0.000162843
0.000131512
-0.000177459
0.000139514
-0.000192843
0.000148395
-0.000209085
0.00015828
-0.000226285
0.000169264
0.000181539
-0.000244555
-5.99089e-07
6.11371e-06
-2.28004e-06
1.70441e-05
-4.97182e-06
2.71911e-05
-8.60652e-06
3.6623e-05
-1.3119e-05
4.53998e-05
-1.8447e-05
5.35806e-05
-2.45316e-05
6.1223e-05
-3.13173e-05
6.83855e-05
-3.87523e-05
7.5129e-05
-4.67891e-05
8.15178e-05
-5.53852e-05
8.7621e-05
-6.45032e-05
9.35132e-05
-7.41118e-05
9.92752e-05
-8.41863e-05
0.000104995
-9.47093e-05
0.000110767
-0.000105672
0.000116696
-0.000117074
0.000122893
-0.000128928
0.00012948
-0.000141255
0.000136586
-0.000154091
0.000144349
-0.000167486
0.000152909
-0.000181503
0.000162412
-0.00019622
0.000172996
-0.000211721
0.000184766
0.000197921
-0.000228103
-5.70062e-07
6.68377e-06
-2.17359e-06
1.86476e-05
-4.74503e-06
2.97625e-05
-8.22038e-06
4.00983e-05
-1.2537e-05
4.97165e-05
-1.76342e-05
5.86777e-05
-2.34529e-05
6.70418e-05
-2.99369e-05
7.48695e-05
-3.70325e-05
8.22245e-05
-4.46893e-05
8.91745e-05
-5.28606e-05
9.57924e-05
-6.15043e-05
0.000102157
-7.05827e-05
0.000108354
-8.00638e-05
0.000114476
-8.99218e-05
0.000120625
-0.000100138
0.000126912
-0.000110702
0.000133457
-0.000121613
0.000140391
-0.000132881
0.000147854
-0.000144529
0.000155996
-0.000156591
0.000164971
-0.000169117
0.000174938
-0.000182171
0.000186051
-0.000195827
0.000198421
0.000212256
-0.000210162
-5.39269e-07
7.22304e-06
-2.06045e-06
2.01688e-05
-4.50362e-06
3.22057e-05
-7.80877e-06
4.34035e-05
-1.19159e-05
5.38236e-05
-1.67655e-05
6.35273e-05
-2.22989e-05
7.25752e-05
-2.84587e-05
8.10293e-05
-3.51892e-05
8.8955e-05
-4.24369e-05
9.64222e-05
-5.01509e-05
0.000103506
-5.82837e-05
0.00011029
-6.6791e-05
0.000116861
-7.56332e-05
0.000123318
-8.47753e-05
0.000129767
-9.41883e-05
0.000136325
-0.00010385
0.000143119
-0.000113748
0.000150288
-0.000123877
0.000157983
-0.000134245
0.000166365
-0.000144875
0.000175601
-0.000155801
0.000185864
-0.000167074
0.000197324
-0.000178755
0.000210102
0.000224408
-0.000190907
-5.07108e-07
7.73014e-06
-1.94202e-06
2.16037e-05
-4.25048e-06
3.45141e-05
-7.37649e-06
4.65295e-05
-1.12626e-05
5.77098e-05
-1.58507e-05
6.81154e-05
-2.1082e-05
7.78065e-05
-2.68982e-05
8.68454e-05
-3.32412e-05
9.52981e-05
-4.00545e-05
0.000103235
-4.72827e-05
0.000110735
-5.48726e-05
0.000117879
-6.27731e-05
0.000124762
-7.09364e-05
0.000131481
-7.93181e-05
0.000138149
-8.78782e-05
0.000144885
-9.65824e-05
0.000151823
-0.000105404
0.00015911
-0.000114324
0.000166904
-0.000123337
0.000175377
-0.000132449
0.000184712
-0.00014168
0.000195096
-0.000151069
0.000206712
-0.000160665
0.000219698
0.000234263
-0.00017052
-4.73987e-07
8.20413e-06
-1.81974e-06
2.29495e-05
-3.9886e-06
3.6683e-05
-6.92848e-06
4.94694e-05
-1.05845e-05
6.13658e-05
-1.48995e-05
7.24304e-05
-1.9815e-05
8.2722e-05
-2.52713e-05
9.23017e-05
-3.12082e-05
0.000101235
-3.75656e-05
0.000109593
-4.42837e-05
0.000117453
-5.13035e-05
0.000124899
-5.85668e-05
0.000132025
-6.60173e-05
0.000138932
-7.36006e-05
0.000145732
-8.12656e-05
0.00015255
-8.89651e-05
0.000159523
-9.66581e-05
0.000166803
-0.000104312
0.000174557
-0.000111903
0.000182969
-0.000119423
0.000192233
-0.00012688
0.000202553
-0.000134299
0.000214131
-0.000141721
0.00022712
0.000241731
-0.000149188
-4.40318e-07
8.64445e-06
-1.69509e-06
2.42043e-05
-3.72101e-06
3.87089e-05
-6.46978e-06
5.22181e-05
-9.88881e-06
6.47848e-05
-1.39221e-05
7.64637e-05
-1.85109e-05
8.73108e-05
-2.35943e-05
9.73851e-05
-2.91099e-05
0.000106751
-3.4994e-05
0.000115477
-4.11822e-05
0.000123641
-4.76094e-05
0.000131326
-5.42104e-05
0.000138626
-6.09202e-05
0.000145642
-6.76743e-05
0.000152486
-7.44097e-05
0.000159286
-8.10662e-05
0.00016618
-8.7588e-05
0.000173325
-9.39266e-05
0.000180896
-0.000100043
0.000189085
-0.000105914
0.000198103
-0.000111531
0.00020817
-0.00011691
0.00021951
-0.000122086
0.000232296
0.000246739
-0.000127095
-4.0651e-07
9.05096e-06
-1.5695e-06
2.53673e-05
-3.45074e-06
4.05901e-05
-6.00538e-06
5.47728e-05
-9.183e-06
6.79624e-05
-1.29285e-05
8.02092e-05
-1.71828e-05
9.15651e-05
-2.18837e-05
0.000102086
-2.69664e-05
0.000111833
-3.23636e-05
0.000120874
-3.80062e-05
0.000129284
-4.38234e-05
0.000137143
-4.97425e-05
0.000144545
-5.56897e-05
0.000151589
-6.15904e-05
0.000158387
-6.73695e-05
0.000165065
-7.29534e-05
0.000171763
-7.82712e-05
0.000178642
-8.32581e-05
0.000185883
-8.7859e-05
0.000193686
-9.20337e-05
0.000202278
-9.57614e-05
0.000211898
-9.90473e-05
0.000222796
-0.000101924
0.000235172
0.000249238
-0.000104422
-3.72962e-07
9.42392e-06
-1.4444e-06
2.64387e-05
-3.18072e-06
4.23265e-05
-5.54021e-06
5.71323e-05
-8.47428e-06
7.08965e-05
-1.19285e-05
8.36634e-05
-1.58434e-05
9.54801e-05
-2.01555e-05
0.000106398
-2.47972e-05
0.000116475
-2.96979e-05
0.000125775
-3.47838e-05
0.000134369
-3.99781e-05
0.000142338
-4.52009e-05
0.000149768
-5.03697e-05
0.000156758
-5.53995e-05
0.000163417
-6.02032e-05
0.000169868
-6.46933e-05
0.000176253
-6.87837e-05
0.000182733
-7.23928e-05
0.000189492
-7.54485e-05
0.000196742
-7.78942e-05
0.000204723
-7.96954e-05
0.000213699
-8.08494e-05
0.00022395
-8.13888e-05
0.000235711
0.000249191
-8.1342e-05
-3.40058e-07
9.76398e-06
-1.32116e-06
2.74198e-05
-2.91382e-06
4.39191e-05
-5.07901e-06
5.92975e-05
-7.76966e-06
7.35872e-05
-1.09318e-05
8.68255e-05
-1.45053e-05
9.90536e-05
-1.84251e-05
0.000110318
-2.26213e-05
0.000120671
-2.70197e-05
0.000130173
-3.15417e-05
0.000138891
-3.61049e-05
0.000146901
-4.06221e-05
0.000154285
-4.50023e-05
0.000161138
-4.91501e-05
0.000167564
-5.29665e-05
0.000173685
-5.63499e-05
0.000179637
-5.91985e-05
0.000185581
-6.14137e-05
0.000191707
-6.29059e-05
0.000198234
-6.36013e-05
0.000205419
-6.34521e-05
0.00021355
-6.24489e-05
0.000222947
-6.0629e-05
0.000233892
0.00024658
-5.80174e-05
-3.08158e-07
1.00721e-05
-1.20108e-06
2.83127e-05
-2.65272e-06
4.53708e-05
-4.62626e-06
6.1271e-05
-7.07574e-06
7.60366e-05
-9.94728e-06
8.96971e-05
-1.31801e-05
0.000102286
-1.67074e-05
0.000113845
-2.04568e-05
0.000124421
-2.43504e-05
0.000134067
-2.83054e-05
0.000142846
-3.22334e-05
0.000150829
-3.60405e-05
0.000158092
-3.96271e-05
0.000164724
-4.28878e-05
0.000170825
-4.57114e-05
0.000176508
-4.79826e-05
0.000181908
-4.95836e-05
0.000187182
-5.03983e-05
0.000192522
-5.03186e-05
0.000198155
-4.92534e-05
0.000204354
-4.71408e-05
0.000211437
-4.39662e-05
0.000219772
-3.97818e-05
0.000229707
0.0002414
-3.46024e-05
-2.77597e-07
1.03497e-05
-1.08533e-06
2.91204e-05
-2.39991e-06
4.66853e-05
-4.18611e-06
6.30572e-05
-6.39865e-06
7.82492e-05
-8.98345e-06
9.22818e-05
-1.18788e-05
0.000105182
-1.5016e-05
0.000116982
-1.832e-05
0.000127725
-2.17098e-05
0.000137457
-2.5098e-05
0.000146235
-2.83907e-05
0.000154122
-3.14873e-05
0.000161189
-3.42801e-05
0.000167517
-3.66536e-05
0.000173199
-3.84851e-05
0.00017834
-3.96452e-05
0.000183068
-4.00002e-05
0.000187537
-3.9416e-05
0.000191937
-3.77651e-05
0.000196504
-3.49378e-05
0.000201526
-3.0857e-05
0.000207356
-2.54994e-05
0.000214415
-1.89604e-05
0.000223168
0.000233768
-1.13281e-05
-2.48675e-07
1.05984e-05
-9.75007e-07
2.98468e-05
-2.15765e-06
4.7868e-05
-3.76233e-06
6.46619e-05
-5.74395e-06
8.02308e-05
-8.04785e-06
9.45857e-05
-1.0611e-05
0.000107745
-1.3363e-05
0.000119734
-1.62261e-05
0.000130588
-1.91157e-05
0.000140346
-2.19404e-05
0.000149059
-2.46009e-05
0.000156782
-2.69902e-05
0.000163578
-2.89927e-05
0.00016952
-3.04835e-05
0.000174689
-3.13282e-05
0.000179185
-3.1384e-05
0.000183124
-3.05007e-05
0.000186654
-2.85259e-05
0.000189963
-2.53119e-05
0.00019329
-2.07288e-05
0.000196943
-1.46833e-05
0.000201311
-7.12689e-06
0.000206858
1.98083e-06
0.00021406
0.000223788
1.19612e-05
-2.21653e-07
1.08201e-05
-8.71044e-07
3.04962e-05
-1.92789e-06
4.89248e-05
-3.3582e-06
6.60922e-05
-5.11646e-06
8.1989e-05
-7.14707e-06
9.66164e-05
-9.38551e-06
0.000109983
-1.17592e-05
0.000122108
-1.41877e-05
0.000133016
-1.65833e-05
0.000142742
-1.88502e-05
0.000151326
-2.08842e-05
0.000158816
-2.25722e-05
0.000165266
-2.37911e-05
0.000170739
-2.44067e-05
0.000175305
-2.42738e-05
0.000179052
-2.32358e-05
0.000182086
-2.11266e-05
0.000184545
-1.77747e-05
0.000186611
-1.30113e-05
0.000188526
-6.68475e-06
0.000190617
1.31665e-06
0.00019331
1.10313e-05
0.000197144
2.23536e-05
0.000202738
0.00021097
3.51711e-05
-1.96754e-07
1.10168e-05
-7.74237e-07
3.10737e-05
-1.7123e-06
4.98629e-05
-2.97646e-06
6.73564e-05
-4.52026e-06
8.35328e-05
-6.28664e-06
9.83827e-05
-8.20927e-06
0.000111906
-1.02133e-05
0.000124112
-1.22155e-05
0.000135019
-1.41249e-05
0.000144651
-1.58415e-05
0.000153043
-1.72566e-05
0.000160231
-1.82512e-05
0.000166261
-1.86949e-05
0.000171182
-1.8445e-05
0.000175055
-1.73456e-05
0.000177952
-1.52268e-05
0.000179967
-1.19065e-05
0.000181225
-7.19362e-06
0.000181898
-8.97253e-07
0.00018223
7.15806e-06
0.000182561
1.71057e-05
0.000183362
2.89931e-05
0.000185256
4.27285e-05
0.000189003
0.00019561
5.80886e-05
-1.74153e-07
1.1191e-05
-6.85212e-07
3.15847e-05
-1.51218e-06
5.06899e-05
-2.61932e-06
6.84635e-05
-3.95852e-06
8.4872e-05
-5.47088e-06
9.98951e-05
-7.08783e-06
0.000113523
-8.73198e-06
0.000125756
-1.03174e-05
0.000136604
-1.17495e-05
0.000146083
-1.29246e-05
0.000154218
-1.37293e-05
0.000161036
-1.40389e-05
0.00016657
-1.37166e-05
0.00017086
-1.26113e-05
0.00017395
-1.05567e-05
0.000175898
-7.37036e-06
0.000176781
-2.85389e-06
0.000176708
3.20338e-06
0.000175841
1.10162e-05
0.000174417
2.07864e-05
0.000172791
3.26731e-05
0.000171475
4.67408e-05
0.000171188
6.28922e-05
0.000172851
0.00017768
8.08219e-05
-1.53978e-07
1.13449e-05
-6.04428e-07
3.20352e-05
-1.32849e-06
5.14139e-05
-2.28831e-06
6.94233e-05
-3.43353e-06
8.60173e-05
-4.70279e-06
0.000101164
-6.02495e-06
0.000114845
-7.31982e-06
0.000127051
-8.49839e-06
0.000137782
-9.46268e-06
0.000147048
-1.01052e-05
0.00015486
-1.03078e-05
0.000161239
-9.94081e-06
0.000166203
-8.8607e-06
0.00016978
-6.90873e-06
0.000171998
-3.90878e-06
0.000172898
3.34141e-07
0.000172538
6.03418e-06
0.000171008
1.34222e-05
0.000168453
2.27381e-05
0.000165101
3.42129e-05
0.000161316
4.80359e-05
0.000157652
6.42942e-05
0.00015493
8.28866e-05
0.000154259
0.000157138
0.000103429
-1.36306e-07
1.14813e-05
-5.32158e-07
3.2431e-05
-1.16179e-06
5.20436e-05
-1.98436e-06
7.02459e-05
-2.94655e-06
8.69795e-05
-3.98401e-06
0.000102202
-5.02256e-06
0.000115884
-5.97887e-06
0.000128007
-6.76063e-06
0.000138564
-7.26628e-06
0.000147553
-7.38435e-06
0.000154978
-6.99232e-06
0.000160846
-5.95511e-06
0.000165166
-4.12317e-06
0.000167948
-1.33018e-06
0.000169205
2.60941e-06
0.000168958
7.9026e-06
0.000167245
1.47792e-05
0.000164131
2.34906e-05
0.000159741
3.43027e-05
0.000154289
4.74792e-05
0.00014814
6.32446e-05
0.000141887
8.17154e-05
0.000136459
0.000102793
0.000133181
0.000133916
0.000126016
-1.21165e-07
1.16024e-05
-4.6849e-07
3.27783e-05
-1.01223e-06
5.25873e-05
-1.7077e-06
7.09414e-05
-2.49785e-06
8.77696e-05
-3.31474e-06
0.000103019
-4.08066e-06
0.00011665
-4.70873e-06
0.000128635
-5.103e-06
0.000138959
-5.15808e-06
0.000147608
-4.75834e-06
0.000154579
-3.77666e-06
0.000159865
-2.07272e-06
0.000163462
5.09145e-07
0.000165366
4.14263e-06
0.000165571
9.02242e-06
0.000164079
1.53672e-05
0.0001609
2.34223e-05
0.000156076
3.34595e-05
0.000149704
4.57721e-05
0.000141977
6.06589e-05
0.000133253
7.83857e-05
0.00012416
9.91069e-05
0.000115738
0.000122735
0.000109553
0.000107913
0.000148739
-1.08529e-07
1.17109e-05
-4.13323e-07
3.30831e-05
-8.79578e-07
5.30535e-05
-1.45786e-06
7.15196e-05
-2.08664e-06
8.83984e-05
-2.69372e-06
0.000103626
-3.19729e-06
0.000117153
-3.50645e-06
0.000128945
-3.52117e-06
0.000138973
-3.13183e-06
0.000147219
-2.21832e-06
0.000153665
-6.48617e-07
0.000158295
1.72306e-06
0.000161091
5.05867e-06
0.00016203
9.53929e-06
0.000161091
1.53687e-05
0.000158249
2.2777e-05
0.000153491
3.20248e-05
0.000146829
4.34042e-05
0.000138325
5.72369e-05
0.000128144
7.3859e-05
0.000116631
9.35835e-05
0.000104436
0.000116613
9.27086e-05
0.000142884
8.32816e-05
7.89941e-05
0.000171802
-9.83216e-08
1.18093e-05
-3.66366e-07
3.33512e-05
-7.63197e-07
5.34504e-05
-1.23371e-06
7.19902e-05
-1.7111e-06
8.88758e-05
-2.11821e-06
0.000104033
-2.36852e-06
0.000117403
-2.36651e-06
0.000128943
-2.00752e-06
0.000138614
-1.1772e-06
0.000146389
2.49597e-07
0.000152238
2.41027e-06
0.000156134
5.45656e-06
0.000158044
9.55711e-06
0.00015793
1.49007e-05
0.000155747
2.17004e-05
0.000151449
3.01979e-05
0.000144994
4.06684e-05
0.000136358
5.34247e-05
0.000125568
6.88166e-05
0.000112752
8.72202e-05
9.82275e-05
0.000109001
8.26552e-05
0.000134419
6.72897e-05
0.000163452
5.4249e-05
4.69888e-05
0.000195457
-9.04164e-08
1.18997e-05
-3.27144e-07
3.35879e-05
-6.62044e-07
5.37853e-05
-1.03341e-06
7.23615e-05
-1.36835e-06
8.92107e-05
-1.58401e-06
0.000104249
-1.58844e-06
0.000117408
-1.28083e-06
0.000128635
-5.51216e-07
0.000137885
7.20202e-07
0.000145117
2.66428e-06
0.000150294
5.42459e-06
0.000153374
9.15956e-06
0.000154309
1.40453e-05
0.000153044
2.0279e-05
0.000149513
2.80833e-05
0.000143645
3.77118e-05
0.000135366
4.94546e-05
0.000124615
6.36444e-05
0.000111378
8.06593e-05
9.5737e-05
0.000100916
7.79711e-05
0.000124836
5.8735e-05
0.000152752
3.9374e-05
0.000184694
2.23063e-05
1.16875e-05
0.000219996
-8.46368e-08
1.19843e-05
-2.95001e-07
3.37983e-05
-5.74694e-07
5.4065e-05
-8.5449e-07
7.26413e-05
-1.05454e-06
8.94108e-05
-1.08551e-06
0.00010428
-8.49251e-07
0.000117172
-2.38858e-07
0.000128024
8.61729e-07
0.000136784
2.57864e-06
0.0001434
5.04941e-06
0.000147824
8.42477e-06
0.000149999
1.28709e-05
0.000149863
1.85725e-05
0.000147342
2.57362e-05
0.00014235
3.45954e-05
0.000134786
4.54159e-05
0.000124545
5.85029e-05
0.000111528
7.42087e-05
9.56727e-05
9.29386e-05
7.70071e-05
0.000115149
5.57603e-05
0.000141323
3.25615e-05
0.000171871
8.82592e-06
0.000206901
-1.27234e-05
-2.71546e-05
0.000245743
-8.07617e-08
1.20651e-05
-2.6911e-07
3.39866e-05
-4.99358e-07
5.42952e-05
-6.93824e-07
7.28358e-05
-7.64845e-07
8.94818e-05
-6.1575e-07
0.00010413
-1.41326e-07
0.000116697
7.72291e-07
0.000127111
2.24826e-06
0.000135308
4.42009e-06
0.000141229
7.43316e-06
0.00014481
1.14467e-05
0.000145985
1.6636e-05
0.000144674
2.31959e-05
0.000140783
3.1344e-05
0.000134202
4.13258e-05
0.000124804
5.34203e-05
0.00011245
6.79484e-05
9.70003e-05
8.52812e-05
7.83399e-05
0.00010585
5.64383e-05
0.00013015
3.14605e-05
0.000158722
3.98891e-06
0.000192068
-2.45192e-05
0.000230388
-5.10435e-05
-6.98126e-05
0.000273046
-7.85252e-08
1.21436e-05
-2.48486e-07
3.41566e-05
-4.33903e-07
5.44806e-05
-5.47713e-07
7.29496e-05
-4.93546e-07
8.94276e-05
-1.66497e-07
0.000103803
5.46633e-07
0.000115984
1.7677e-06
0.00012589
3.62807e-06
0.000133448
6.26988e-06
0.000138587
9.84778e-06
0.000141233
1.4531e-05
0.000141302
2.0506e-05
0.000138699
2.79794e-05
0.000133309
3.71818e-05
0.000124999
4.83725e-05
0.000113613
6.18457e-05
9.89773e-05
7.79382e-05
8.09078e-05
9.70399e-05
5.92382e-05
0.000119606
3.38725e-05
0.000146165
4.90084e-06
0.000177317
-2.71631e-05
0.000213653
-6.08551e-05
0.000255489
-9.28793e-05
-0.000116583
0.00030226
-7.76234e-08
1.22212e-05
-2.31999e-07
3.4311e-05
-3.75885e-07
5.46245e-05
-4.1192e-07
7.29856e-05
-2.34114e-07
8.92498e-05
2.71619e-07
0.000103298
1.22748e-06
0.000115028
2.76444e-06
0.000124353
5.02333e-06
0.000131189
8.15638e-06
0.000135454
1.23291e-05
0.00013706
1.77228e-05
0.000135908
2.45369e-05
0.000131885
3.29922e-05
0.000124854
4.33349e-05
0.000114657
5.58404e-05
0.000101108
7.08199e-05
8.39978e-05
8.86276e-05
6.31001e-05
0.000109671
3.81943e-05
0.000134427
9.11664e-06
0.000163454
-2.4126e-05
0.0001974
-6.11091e-05
0.000236947
-0.000100402
0.00028254
-0.000138472
-0.000167772
0.000333729
-7.77171e-08
1.22989e-05
-2.18389e-07
3.44516e-05
-3.22582e-07
5.47287e-05
-2.81726e-07
7.29448e-05
2.07262e-08
8.89474e-05
7.08998e-07
0.000102609
1.91543e-06
0.000113822
3.78132e-06
0.000122487
6.45837e-06
0.000128512
1.01105e-05
0.000131802
1.49161e-05
0.000132254
2.10705e-05
0.000129754
2.87884e-05
0.000124167
3.83079e-05
0.000115334
4.9893e-05
0.000103072
6.38384e-05
8.71625e-05
8.04745e-05
6.73616e-05
0.000100175
4.34001e-05
0.000123364
1.50044e-05
0.000150538
-1.80565e-05
0.000182275
-5.58632e-05
0.000219263
-9.80972e-05
0.000262265
-0.000143404
0.000311864
-0.000188071
-0.000223677
0.000367769
-7.84372e-08
1.23774e-05
-2.06286e-07
3.45795e-05
-2.71033e-07
5.47935e-05
-1.52012e-07
7.28258e-05
2.78818e-07
8.85165e-05
1.15691e-06
0.000101731
2.62584e-06
0.000112353
4.83859e-06
0.000120274
7.9593e-06
0.000125391
1.21654e-05
0.000127596
1.765e-05
0.00012677
2.46249e-05
0.000122779
3.33231e-05
0.000115469
4.40022e-05
0.000104655
5.69477e-05
9.01261e-05
7.24764e-05
7.16338e-05
9.09409e-05
4.88971e-05
0.000112735
2.16059e-05
0.000138303
-1.05633e-05
0.000168152
-4.79054e-05
0.000202875
-9.05867e-05
0.000243183
-0.000138405
0.000289902
-0.000190124
0.000343753
-0.000241921
-0.000284568
0.000404643
-7.93905e-08
1.24568e-05
-1.94228e-07
3.46943e-05
-2.18081e-07
5.48173e-05
-1.72922e-08
7.2625e-05
5.4859e-07
8.79506e-05
1.62734e-06
0.000100653
3.37502e-06
0.000110605
5.95771e-06
0.000117692
9.55362e-06
0.000121795
1.43556e-05
0.000122794
2.05738e-05
0.000120551
2.84389e-05
0.000114914
3.82048e-05
0.000105703
5.01521e-05
9.27081e-05
6.45906e-05
7.56876e-05
8.18628e-05
5.43616e-05
0.000102346
2.84136e-05
0.000126458
-2.50568e-06
0.000154659
-3.87646e-05
0.000187468
-8.07144e-05
0.000225481
-0.000128599
0.000269409
-0.000182333
0.000320118
-0.000240832
0.000378454
-0.000300257
-0.000350659
0.000444545
-8.0165e-08
1.25369e-05
-1.80688e-07
3.47948e-05
-1.60426e-07
5.47971e-05
1.28103e-07
7.23364e-05
8.38808e-07
8.72399e-05
2.13281e-06
9.93585e-05
4.17997e-06
0.000108558
7.16097e-06
0.000114711
1.12698e-05
0.000117686
1.67168e-05
0.000117347
2.37314e-05
0.000113537
3.25657e-05
0.00010608
4.34976e-05
9.47708e-05
5.68334e-05
7.93722e-05
7.2911e-05
5.961e-05
9.21013e-05
3.51713e-05
0.00011481
5.70493e-06
0.000141479
-2.91743e-05
0.000172587
-6.98729e-05
0.000208659
-0.000116787
0.000250283
-0.000170223
0.00029815
-0.0002302
0.000353123
-0.000295806
0.000416153
-0.000363288
-0.000422084
0.000487578
-8.03372e-08
1.26173e-05
-1.64087e-07
3.48786e-05
-9.46561e-08
5.47276e-05
2.90119e-07
7.19517e-05
1.15852e-06
8.63715e-05
2.68621e-06
9.78308e-05
5.05816e-06
0.000106186
8.47119e-06
0.000111297
1.3137e-05
0.000113021
1.92851e-05
0.000111198
2.7167e-05
0.000105655
3.70586e-05
9.61881e-05
4.92645e-05
8.25649e-05
6.412e-05
6.45167e-05
8.19936e-05
4.17364e-05
0.000103288
1.3877e-05
0.000128439
-1.94464e-05
0.000157916
-5.86508e-05
0.000192215
-0.000104172
0.000231864
-0.000156436
0.00027743
-0.000215789
0.000329559
-0.000282329
0.000389066
-0.000355313
0.000456965
-0.000431187
-0.00049886
0.000533741
-7.94766e-08
1.26968e-05
-1.42823e-07
3.49419e-05
-1.72834e-08
5.46021e-05
4.74727e-07
7.14597e-05
1.51692e-06
8.53293e-05
3.30061e-06
9.60472e-05
6.02724e-06
0.000103459
9.91139e-06
0.000107413
1.51841e-05
0.000107748
2.20967e-05
0.000104286
3.09243e-05
9.68273e-05
4.19697e-05
8.51427e-05
5.55664e-05
6.89682e-05
7.20815e-05
4.80017e-05
9.19168e-05
2.1901e-05
0.000115509
-9.71526e-06
0.000143327
-4.72643e-05
0.000175866
-9.119e-05
0.000213642
-0.000141948
0.00025718
-0.000199974
0.000307018
-0.000265627
0.000363729
-0.000339041
0.000428024
-0.000419607
0.000500926
-0.000504089
-0.000580854
0.000582921
-7.71545e-08
1.27739e-05
-1.15304e-07
3.49801e-05
7.50783e-08
5.44117e-05
6.87916e-07
7.08468e-05
1.92319e-06
8.40941e-05
3.98906e-06
9.39813e-05
7.10484e-06
0.000100344
1.15044e-05
0.000103014
1.74402e-05
0.000101812
2.51869e-05
9.65391e-05
3.50459e-05
8.69683e-05
4.73488e-05
7.28398e-05
6.24607e-05
5.38563e-05
8.07824e-05
2.968e-05
0.000102751
-6.76732e-08
0.000128839
-3.5803e-05
0.000159548
-7.79732e-05
0.000195401
-0.000127044
0.000236931
-0.000183478
0.000284659
-0.000247702
0.000339084
-0.000320051
0.000400684
-0.000400641
0.000470005
-0.000488928
0.000548005
-0.00058209
-0.000667738
0.000634889
-7.29466e-08
1.28469e-05
-7.99414e-08
3.49871e-05
1.85922e-07
5.41458e-05
9.35615e-07
7.00971e-05
2.3864e-06
8.26433e-05
4.76445e-06
9.16032e-05
8.30828e-06
9.67999e-05
1.32727e-05
9.80493e-05
1.99332e-05
9.51516e-05
2.859e-05
8.78823e-05
3.95725e-05
7.59858e-05
5.32431e-05
5.91692e-05
7.00004e-05
3.70991e-05
9.02804e-05
9.4e-06
0.000114557
-2.43439e-05
0.000143337
-6.45833e-05
0.000177156
-0.000111793
0.000216565
-0.000166452
0.000262109
-0.000229021
0.000314303
-0.000299896
0.000373601
-0.00037935
0.000440372
-0.000467411
0.000514942
-0.000563498
0.000598114
-0.000665261
-0.000758956
0.000689331
-6.64401e-08
1.29133e-05
-3.51823e-08
3.49558e-05
3.18562e-07
5.37921e-05
1.2236e-06
6.91921e-05
2.9154e-06
8.09515e-05
5.63928e-06
8.88794e-05
9.65436e-06
9.27848e-05
1.52379e-05
9.24657e-05
2.26901e-05
8.76994e-05
3.23383e-05
7.82341e-05
4.4542e-05
6.37821e-05
5.96959e-05
4.40152e-05
7.82331e-05
1.85619e-05
0.000100625
-1.29923e-05
0.000127383
-5.1101e-05
0.000159047
-9.62476e-05
0.000196184
-0.00014893
0.000239368
-0.000209636
0.000289156
-0.000278809
0.000346055
-0.000356795
0.000410473
-0.000443768
0.000482659
-0.000539597
0.000562693
-0.000643532
0.000651106
-0.000753675
-0.000853777
0.000745927
-5.72466e-08
1.29705e-05
2.04321e-08
3.48781e-05
4.76191e-07
5.33363e-05
1.5574e-06
6.81109e-05
3.51866e-06
7.89902e-05
6.62557e-06
8.57725e-05
1.11591e-05
8.82512e-05
1.74205e-05
8.62043e-05
2.57361e-05
7.93838e-05
3.64623e-05
6.75079e-05
4.99895e-05
5.02549e-05
6.6746e-05
2.72587e-05
8.71996e-05
-1.89176e-06
0.000111858
-3.76506e-05
0.000141265
-8.0508e-05
0.000175995
-0.000130977
0.000216639
-0.000189574
0.000263789
-0.000256787
0.000318011
-0.000333031
0.000379801
-0.000418586
0.000449532
-0.000513499
0.000527348
-0.000617413
0.000613076
-0.000729259
0.000706744
-0.000847343
-0.000951616
0.000804583
-4.5001e-08
1.30155e-05
8.82147e-08
3.47449e-05
6.61833e-07
5.27627e-05
1.94228e-06
6.68304e-05
4.20423e-06
7.67283e-05
7.73463e-06
8.2242e-05
1.28376e-05
8.31482e-05
1.98397e-05
7.92023e-05
2.90948e-05
7.01287e-05
4.09893e-05
5.56134e-05
5.5946e-05
3.52983e-05
7.44267e-05
8.778e-06
9.69338e-05
-2.43989e-05
0.000124009
-6.47254e-05
0.000156226
-0.000112726
0.000194186
-0.000168938
0.000238501
-0.000233888
0.00028977
-0.000308056
0.000348558
-0.000391819
0.000415355
-0.000485383
0.000490519
-0.000588663
0.000574182
-0.000701076
0.000666037
-0.000821115
0.00076501
-0.000946316
-0.00105231
0.000865703
-2.93477e-08
1.30449e-05
1.69595e-07
3.4546e-05
8.78334e-07
5.2054e-05
2.38314e-06
6.53256e-05
4.97958e-06
7.41318e-05
8.977e-06
7.82446e-05
1.47038e-05
7.74214e-05
2.2513e-05
7.1393e-05
3.27874e-05
5.98543e-05
4.5944e-05
4.24568e-05
6.24383e-05
1.8804e-05
8.27656e-05
-1.15493e-05
0.000107461
-4.90944e-05
0.000137097
-9.43609e-05
0.000172273
-0.000147902
0.000213609
-0.000210273
0.000261723
-0.000282002
0.000317213
-0.000363546
0.000380629
-0.000455235
0.000452442
-0.000557196
0.000533023
-0.000669244
0.000622636
-0.000790689
0.000721393
-0.000919872
0.000827775
-0.0010527
-0.00115406
0.000929531
-1.00756e-08
1.3055e-05
2.65548e-07
3.42704e-05
1.12808e-06
5.11914e-05
2.88426e-06
6.35695e-05
5.85134e-06
7.11647e-05
1.0362e-05
7.37339e-05
1.67701e-05
7.10133e-05
2.5456e-05
6.27071e-05
3.68322e-05
4.84782e-05
5.13471e-05
2.79419e-05
6.94884e-05
6.62691e-07
9.17836e-05
-3.38446e-05
0.000118798
-7.61091e-05
0.00015113
-0.000126692
0.000189397
-0.00018617
0.000234228
-0.000255104
0.000286233
-0.000334008
0.000345989
-0.000423302
0.000414007
-0.000523252
0.000490714
-0.000633903
0.00057646
-0.00075499
0.000671602
-0.000885831
0.000776783
-0.00102505
0.000894945
-0.00117086
-0.00131095
0.00105183
1.33105e-08
1.30417e-05
3.77476e-07
3.39062e-05
1.41385e-06
5.01551e-05
3.4502e-06
6.15331e-05
6.82623e-06
6.77887e-05
1.18989e-05
6.86613e-05
1.90481e-05
6.38641e-05
2.86828e-05
5.30724e-05
4.12454e-05
3.59157e-05
5.72157e-05
1.19716e-05
7.71129e-05
-1.92345e-05
0.000101494
-5.82261e-05
0.000130952
-0.000105566
0.000166102
-0.000161843
0.000207574
-0.000227641
0.000255987
-0.000303517
0.000311931
-0.000389952
0.000375935
-0.000487306
0.00044844
-0.000595757
0.000529781
-0.000715245
0.000620204
-0.000845412
0.000719963
-0.000985589
0.000829654
-0.00113474
0.000950839
-0.00129205
-0.00145161
0.0010915
4.09072e-08
1.30008e-05
5.06165e-07
3.34409e-05
1.73753e-06
4.89237e-05
4.08433e-06
5.91863e-05
7.90943e-06
6.39636e-05
1.35947e-05
6.2976e-05
2.15473e-05
5.59115e-05
3.22046e-05