/*--------------------------------*- C++ -*----------------------------------*\
  =========                 |
  \\      /  F ield         | OpenFOAM: The Open Source CFD Toolbox
   \\    /   O peration     | Website:  https://openfoam.org
    \\  /    A nd           | Version:  7
     \\/     M anipulation  |
\*---------------------------------------------------------------------------*/
FoamFile
{
    version     2.0;
    format      ascii;
    class       surfaceScalarField;
    location    "45";
    object      phi;
}
// * * * * * * * * * * * * * * * * * * * * * * * * * * * * * * * * * * * * * //

dimensions      [0 3 -1 0 0 0 0];

internalField   nonuniform List<scalar> 
16608
(
1.86049e-05
4.67309e-07
1.81376e-05
4.06935e-05
5.68397e-07
1.75692e-05
3.15703e-06
3.81049e-05
4.48658e-05
6.80075e-07
1.68891e-05
3.64581e-06
3.51391e-05
3.86168e-05
8.02805e-07
1.60863e-05
4.17711e-06
3.17648e-05
1.11737e-05
3.16202e-05
1.46593e-05
9.36967e-07
1.51493e-05
4.752e-06
2.79498e-05
1.25482e-05
2.38241e-05
2.54938e-05
1.71368e-06
-3.95904e-05
1.08286e-06
1.40665e-05
5.37121e-06
2.36614e-05
1.40189e-05
1.51764e-05
2.82466e-05
-1.25141e-05
4.93462e-05
-6.06899e-05
-0.000130755
1.2407e-06
1.28258e-05
6.03509e-06
1.8867e-05
1.55856e-05
5.62586e-06
3.11621e-05
-2.80905e-05
5.40988e-05
-8.36267e-05
8.57684e-05
-0.000162425
-0.000265932
1.41061e-06
1.14152e-05
6.74359e-06
1.35341e-05
1.72472e-05
-4.87775e-06
3.42356e-05
-4.50789e-05
5.90785e-05
-0.00010847
9.31614e-05
-0.000196508
0.000137813
-0.000310583
-0.000451786
1.59262e-06
9.82255e-06
7.49628e-06
7.6304e-06
1.90013e-05
-1.63828e-05
3.74608e-05
-6.35385e-05
6.42702e-05
-0.000135279
0.000100814
-0.000233051
0.000148373
-0.000358143
0.000207993
-0.000511406
-0.000692923
1.78669e-06
8.03587e-06
8.29227e-06
1.12482e-06
2.08447e-05
-2.89352e-05
4.08291e-05
-8.35229e-05
6.96557e-05
-0.000164106
0.00010869
-0.000272086
0.000159144
-0.000408596
0.000221917
-0.00057418
0.000297415
-0.00076842
-0.000989581
1.99265e-06
6.04322e-06
9.13028e-06
-6.01281e-06
2.2773e-05
-4.25779e-05
4.43297e-05
-0.00010508
7.52129e-05
-0.000194989
0.000116751
-0.000313624
0.000170057
-0.000461903
0.000235858
-0.00063998
0.000314291
-0.000846854
0.000404724
-0.00108001
-0.00133524
2.21026e-06
3.83295e-06
1.00086e-05
-1.38111e-05
2.47807e-05
-5.735e-05
4.795e-05
-0.000128249
8.09163e-05
-0.000227955
0.00012495
-0.000357657
0.000181039
-0.000517992
0.000249703
-0.000708643
0.000330783
-0.000927934
0.000423278
-0.00117251
0.000525259
-0.00143722
0.000633937
-0.00171531
-0.00199902
2.43917e-06
1.39379e-06
1.0925e-05
-2.22969e-05
2.68613e-05
-7.32863e-05
5.16749e-05
-0.000153063
8.67371e-05
-0.000263017
0.000133237
-0.000404157
0.000192011
-0.000576766
0.000263336
-0.000779969
0.000346734
-0.00101133
0.000440821
-0.0012666
0.000543285
-0.00153968
0.000651023
-0.00182305
0.00076046
-0.00210845
-0.00238789
2.67891e-06
-1.28512e-06
1.18768e-05
-3.14948e-05
2.90071e-05
-9.04167e-05
5.54877e-05
-0.000179543
9.26432e-05
-0.000300173
0.000141558
-0.000453072
0.000202886
-0.000638094
0.000276637
-0.00085372
0.000361987
-0.00109668
0.00045717
-0.00136178
0.000559516
-0.00164203
0.000665666
-0.0019292
0.000771962
-0.00221475
0.000874911
-0.00249083
-0.00275131
2.9289e-06
-4.21401e-06
1.28609e-05
-4.14268e-05
3.12094e-05
-0.000108765
5.93693e-05
-0.000207703
9.85996e-05
-0.000339403
0.000149855
-0.000504327
0.000213577
-0.000701816
0.000289484
-0.000929626
0.000376391
-0.00118359
0.000472157
-0.00145755
0.000573792
-0.00174366
0.000677749
-0.00203316
0.000780368
-0.00231737
0.000878355
-0.00258882
0.000969193
-0.00284215
0.00105138
-0.00307454
-0.00328576
3.18844e-06
-7.40246e-06
1.38737e-05
-5.21121e-05
3.34582e-05
-0.00012835
6.32989e-05
-0.000237544
0.000104568
-0.000380673
0.000158066
-0.000557824
0.000223995
-0.000767746
0.000301757
-0.00100739
0.000389802
-0.00127163
0.000485632
-0.00155338
0.000585984
-0.00184401
0.000687195
-0.00213437
0.000785686
-0.00241586
0.000878428
-0.00268156
0.000963302
-0.00292702
0.00103926
-0.00315049
0.00110627
-0.00335277
-0.00353664
3.45672e-06
-1.08592e-05
1.49111e-05
-6.35665e-05
3.57426e-05
-0.000149181
6.7254e-05
-0.000269055
0.00011051
-0.000423928
0.000166128
-0.000613442
0.000234049
-0.000835667
0.00031334
-0.00108668
0.000402088
-0.00136038
0.000497466
-0.00164875
0.000595995
-0.00194254
0.000693972
-0.00223235
0.000787968
-0.00250986
0.000875279
-0.00276888
0.000954204
-0.00300594
0.00102412
-0.00322041
0.00108538
-0.00341403
0.00113904
-0.0035903
0.00118658
-0.00375338
-0.00390849
3.73278e-06
-1.4592e-05
1.59685e-05
-7.58023e-05
3.80507e-05
-0.000171263
7.12103e-05
-0.000302215
0.000116382
-0.0004691
0.000173976
-0.000671036
0.000243648
-0.00090534
0.000324122
-0.00116715
0.00041313
-0.00144939
0.000507554
-0.00174318
0.000603763
-0.00203875
0.000698083
-0.00232667
0.000787307
-0.00259908
0.00086909
-0.00285066
0.000942156
-0.00307901
0.00100629
-0.00328455
0.00106216
-0.0034699
0.00111102
-0.00363916
0.00115443
-0.00379679
-0.00394792
0.00119387
4.01555e-06
-1.86075e-05
1.70409e-05
-8.88276e-05
4.03695e-05
-0.000194592
7.51423e-05
-0.000336987
0.00012214
-0.000516098
0.000181545
-0.000730441
0.000252707
-0.000976503
0.000334001
-0.00124845
0.000422825
-0.00153822
0.000515817
-0.00183617
0.000609255
-0.00213219
0.000699569
-0.00241698
0.000783825
-0.00268334
0.000860064
-0.0029269
0.000927425
-0.00314637
0.000986064
-0.00334319
0.00103691
-0.00352075
0.00108137
-0.00368361
0.00112101
-0.00383644
-0.00398417
0.00115726
4.30381e-06
-2.29113e-05
1.81227e-05
-0.000102646
4.26853e-05
-0.000219155
7.90232e-05
-0.000373325
0.000127742
-0.000564816
0.000188771
-0.000791469
0.000261142
-0.00104887
0.000342884
-0.00133019
0.000431089
-0.00162642
0.0005222
-0.00192728
0.000612473
-0.00222246
0.000698503
-0.00250301
0.000777672
-0.00276251
0.000848419
-0.00299764
0.00091028
-0.00320823
0.000963733
-0.00339664
0.00100992
-0.00356694
0.00105034
-0.00372403
0.00108654
-0.00387264
-0.0040175
0.00111987
4.59624e-06
-2.75076e-05
1.92081e-05
-0.000117258
4.49837e-05
-0.00024493
8.28257e-05
-0.000411167
0.000133142
-0.000615133
0.000195591
-0.000853917
0.000268877
-0.00112216
0.000350692
-0.001412
0.000437855
-0.00171358
0.000526674
-0.0020161
0.000613445
-0.00230923
0.000694983
-0.00258455
0.000769018
-0.00283654
0.000834383
-0.00306301
0.000890982
-0.00326483
0.000939569
-0.00344523
0.000981451
-0.00360882
0.00101816
-0.00376074
0.00105122
-0.0039057
-0.00404813
0.00108185
4.89137e-06
-3.23989e-05
2.02907e-05
-0.000132658
4.72496e-05
-0.000271889
8.65219e-05
-0.00045044
0.000138297
-0.000666909
0.000201945
-0.000917565
0.00027584
-0.00119605
0.000357355
-0.00149352
0.000443077
-0.00179931
0.000529234
-0.00210226
0.000612226
-0.00239222
0.00068913
-0.00266145
0.000758043
-0.00290545
0.000818182
-0.00312315
0.000869781
-0.00331643
0.000913825
-0.00348927
0.000951732
-0.00364673
0.000985043
-0.00379405
0.0010152
-0.00393586
-0.00407627
0.00104334
5.18767e-06
-3.75866e-05
2.13642e-05
-0.000148834
4.94675e-05
-0.000299992
9.00836e-05
-0.000491056
0.000143165
-0.00071999
0.000207778
-0.000982179
0.00028197
-0.00127025
0.00036282
-0.00157437
0.000446728
-0.00188321
0.000529899
-0.00218543
0.000608891
-0.00247121
0.000681082
-0.00273364
0.000744938
-0.00296931
0.000800041
-0.00317825
0.000846915
-0.0033633
0.000886729
-0.00352908
0.000920969
-0.00368097
0.000951152
-0.00382423
0.000978632
-0.00396334
-0.00410206
0.00100443
5.48346e-06
-4.30701e-05
2.24215e-05
-0.000165772
5.16219e-05
-0.000329193
9.34833e-05
-0.000532917
0.000147703
-0.000774209
0.000213038
-0.00104751
0.000287215
-0.00134442
0.000367047
-0.0016542
0.000448799
-0.00196497
0.000528708
-0.00226534
0.000603537
-0.00254604
0.000670987
-0.00280109
0.000729894
-0.00302821
0.000780176
-0.00322853
0.000822605
-0.00340573
0.000858488
-0.00356497
0.000889343
-0.00371182
0.000916636
-0.00385152
0.00094162
-0.00398832
-0.00412564
0.0009652
5.77701e-06
-4.88471e-05
2.34558e-05
-0.000183451
5.3697e-05
-0.000359434
9.66938e-05
-0.000575914
0.000151873
-0.000829389
0.00021768
-0.00111332
0.000291531
-0.00141828
0.000370012
-0.00173268
0.000449299
-0.00204425
0.000525717
-0.00234176
0.000596271
-0.0026166
0.000659003
-0.00286383
0.000713102
-0.00308231
0.000758793
-0.00327422
0.000797054
-0.00344399
0.000829287
-0.0035972
0.000857012
-0.00373955
0.000881622
-0.00387613
0.000904263
-0.00401096
-0.00414711
0.000925734
6.06651e-06
-5.49136e-05
2.446e-05
-0.000201845
5.56772e-05
-0.000390651
9.96891e-05
-0.000619926
0.000155641
-0.00088534
0.000221663
-0.00117934
0.000294886
-0.0014915
0.000371703
-0.0018095
0.000448253
-0.0021208
0.000520998
-0.0024145
0.000587214
-0.00268281
0.000645288
-0.0029219
0.000694748
-0.00313177
0.000736086
-0.00331556
0.000770446
-0.00347835
0.000799291
-0.00362604
0.00082411
-0.00376437
0.000846215
-0.00389824
0.000866643
-0.00403139
-0.00416656
0.000886087
6.35012e-06
-6.12637e-05
2.5427e-05
-0.000220922
5.75474e-05
-0.000422772
0.000102445
-0.000664823
0.000158973
-0.000941869
0.000224955
-0.00124533
0.000297257
-0.0015638
0.000372122
-0.00188436
0.000445702
-0.00219438
0.000514634
-0.00248343
0.000576492
-0.00274467
0.000630003
-0.00297541
0.000675009
-0.00317678
0.000712234
-0.00335279
0.000742948
-0.00350907
0.000768641
-0.00365174
0.000790755
-0.00378648
0.000810507
-0.00391799
0.000828827
-0.00404971
-0.00418404
0.00084631
6.62595e-06
-6.78897e-05
2.63498e-05
-0.000240645
5.9293e-05
-0.000455715
0.000104938
-0.000710467
0.000161842
-0.000998773
0.00022753
-0.00131101
0.000298631
-0.0016349
0.000371283
-0.00195701
0.000441697
-0.0022648
0.00050672
-0.00254846
0.000564237
-0.00280219
0.000613305
-0.00302448
0.000654054
-0.00321753
0.000687401
-0.00338613
0.000714709
-0.00353638
0.000737465
-0.00367449
0.000757047
-0.00380606
0.000774574
-0.00393552
0.000790871
-0.00406601
-0.00419961
0.000806444
6.89212e-06
-7.47818e-05
2.72215e-05
-0.000260975
6.09e-05
-0.000489393
0.000107147
-0.000756715
0.000164223
-0.00105585
0.000229368
-0.00137616
0.000299007
-0.00170454
0.000369214
-0.00202722
0.000436302
-0.00233188
0.000497357
-0.00260951
0.000550581
-0.00285541
0.000595348
-0.00306925
0.000632042
-0.00325422
0.000661739
-0.00341583
0.000685861
-0.0035605
0.000705872
-0.00369451
0.000723071
-0.00382326
0.000738479
-0.00395093
0.000752823
-0.00408035
-0.00421332
0.000766525
7.14674e-06
-8.19285e-05
2.80355e-05
-0.000281863
6.23555e-05
-0.000523713
0.000109055
-0.000803414
0.000166098
-0.00111289
0.000230459
-0.00144052
0.000298392
-0.00177247
0.000365951
-0.00209478
0.000429587
-0.00239552
0.00048665
-0.00266657
0.000535655
-0.00290442
0.000576276
-0.00310987
0.000609117
-0.00328707
0.000635382
-0.0034421
0.00065652
-0.00358164
0.000673955
-0.00371194
0.0006889
-0.00383821
0.000702278
-0.0039643
0.000714723
-0.0040928
-0.00422518
0.000726585
7.388e-06
-8.93165e-05
2.87855e-05
-0.000303261
6.36477e-05
-0.000558575
0.000110645
-0.000850412
0.000167452
-0.0011697
0.000230796
-0.00150386
0.0002968
-0.00183848
0.000361537
-0.00215952
0.00042163
-0.00245561
0.000474707
-0.00271965
0.00051959
-0.0029493
0.000556227
-0.0031465
0.000585416
-0.00331625
0.000608452
-0.00346513
0.00062679
-0.00359997
0.000641797
-0.00372695
0.000654597
-0.00385101
0.000666017
-0.00397573
0.000676607
-0.00410339
-0.00423522
0.000686652
7.6141e-06
-9.69306e-05
2.94657e-05
-0.000325113
6.47659e-05
-0.000593875
0.000111904
-0.00089755
0.000168274
-0.00122607
0.000230383
-0.00156597
0.000294256
-0.00190235
0.000356026
-0.00222129
0.000412515
-0.0025121
0.000461635
-0.00276877
0.000502509
-0.00299017
0.000535332
-0.00317933
0.000561061
-0.00334198
0.000581057
-0.00348513
0.00059676
-0.00361568
0.000609468
-0.00373965
0.000620214
-0.00386175
0.000629736
-0.00398525
0.000638505
-0.00411216
-0.00424347
0.00064675
7.82334e-06
-0.000104754
3.00706e-05
-0.00034736
6.57008e-05
-0.000629506
0.000112822
-0.000944672
0.00016856
-0.00128181
0.000229227
-0.00162664
0.00029079
-0.00196391
0.000349475
-0.00227997
0.000402325
-0.00256495
0.000447542
-0.00281399
0.000484531
-0.00302716
0.000513709
-0.0032085
0.000536164
-0.00336444
0.000553294
-0.00350226
0.000566508
-0.00362889
0.000577028
-0.00375017
0.000585797
-0.00387052
0.000593468
-0.00399292
0.000600443
-0.00411913
-0.00424992
0.0006069
8.01497e-06
-0.000112769
3.05971e-05
-0.000369942
6.64473e-05
-0.000665356
0.000113395
-0.00099162
0.000168312
-0.00133672
0.000227348
-0.00168567
0.000286444
-0.00202301
0.000341952
-0.00233548
0.000391155
-0.00261416
0.000432539
-0.00285537
0.000465776
-0.0030604
0.000491477
-0.0032342
0.000510832
-0.00338379
0.000525256
-0.00351668
0.00053611
-0.00363975
0.000544537
-0.0037586
0.000551393
-0.00387738
0.000557251
-0.00399878
0.000562452
-0.00412433
-0.0042546
0.000567132
8.18591e-06
-0.000120955
3.10374e-05
-0.000392794
6.69939e-05
-0.000701312
0.000113611
-0.00103824
0.000167525
-0.00139064
0.000224754
-0.0017429
0.000281248
-0.0020795
0.000333512
-0.00238774
0.000379078
-0.00265972
0.000416714
-0.00289301
0.000446336
-0.00309002
0.000468723
-0.00325659
0.00048514
-0.00340021
0.000497001
-0.00352854
0.00050561
-0.00364836
0.000512026
-0.00376502
0.00051702
-0.00388237
0.000521096
-0.00400285
0.00052454
-0.00412778
-0.00425751
0.000527449
8.33561e-06
-0.00012929
3.13896e-05
-0.000415848
6.73382e-05
-0.000737261
0.000113471
-0.00108437
0.000166211
-0.00144338
0.000221474
-0.00179817
0.000275252
-0.00213328
0.000324226
-0.00243672
0.000366186
-0.00270168
0.000400169
-0.00292699
0.000426316
-0.00311617
0.000445545
-0.00327582
0.000459178
-0.00341384
0.000468605
-0.00353797
0.000475067
-0.00365482
0.00047954
-0.00376949
0.000482716
-0.00388555
0.000485034
-0.00400517
0.000486732
-0.00412947
-0.00425866
0.000487877
8.46283e-06
-0.000137753
3.16505e-05
-0.000439035
6.74769e-05
-0.000773087
0.000112977
-0.00112987
0.000164382
-0.00149478
0.000217536
-0.00185132
0.000268505
-0.00218425
0.000314163
-0.00248237
0.000352562
-0.00274008
0.000382997
-0.00295743
0.000405807
-0.00313898
0.000422029
-0.00329204
0.000433016
-0.00342483
0.000440125
-0.00354508
0.000444526
-0.00365922
0.000447114
-0.00377208
0.000448507
-0.00388694
0.000449086
-0.00400575
0.000449047
-0.00412944
-0.00425804
0.000448432
8.5665e-06
-0.00014632
3.18176e-05
-0.000462286
6.74082e-05
-0.000808678
0.000112131
-0.00117459
0.000162051
-0.0015447
0.000212971
-0.00190224
0.000261057
-0.00223234
0.000303393
-0.00252471
0.000338289
-0.00277498
0.000365283
-0.00298442
0.000384894
-0.00315859
0.00039825
-0.0033054
0.000406717
-0.0034333
0.00041161
-0.00354997
0.000414025
-0.00366163
0.000414777
-0.00377283
0.000414415
-0.00388658
0.00041327
-0.0040046
0.000411502
-0.00412767
-0.00425567
0.000409131
8.6457e-06
-0.000154965
3.18893e-05
-0.00048553
6.71319e-05
-0.000843921
0.000110939
-0.0012184
0.000159236
-0.001593
0.000207812
-0.00195082
0.000252959
-0.00227748
0.000291981
-0.00256373
0.000323443
-0.00280644
0.000347108
-0.00300809
0.000363652
-0.00317514
0.000374274
-0.00331602
0.000380338
-0.00343936
0.000383107
-0.00355274
0.000383599
-0.00366213
0.000382555
-0.00377179
0.000380462
-0.00388449
0.000377603
-0.00400174
0.000374112
-0.00412418
-0.00425155
0.000369989
8.69969e-06
-0.000163665
3.18644e-05
-0.000508695
6.66488e-05
-0.000878705
0.00010941
-0.00126116
0.000155956
-0.00163954
0.000202096
-0.00199696
0.000244264
-0.00231965
0.000279993
-0.00259946
0.000308097
-0.00283454
0.000328548
-0.00302854
0.000342152
-0.00318874
0.000350164
-0.00332403
0.00035393
-0.00344313
0.000354652
-0.00355346
0.000353277
-0.00366075
0.000350471
-0.00376898
0.000346665
-0.00388068
0.000342103
-0.00399718
0.000336893
-0.00411897
-0.00424567
0.000331021
8.72789e-06
-0.000172393
3.17424e-05
-0.000531709
6.59616e-05
-0.000912924
0.000107552
-0.00130275
0.000152233
-0.00168423
0.000195858
-0.00204058
0.000235023
-0.00235882
0.000267494
-0.00263193
0.000292323
-0.00285937
0.00030967
-0.00304588
0.000320458
-0.00319953
0.000325973
-0.00332955
0.000327535
-0.00344469
0.000326282
-0.00355221
0.000323086
-0.00365755
0.000318546
-0.00376444
0.000313041
-0.00387517
0.000306783
-0.00399092
0.000299857
-0.00411204
-0.00423806
0.000292241
8.72989e-06
-0.000181123
3.15235e-05
-0.000554503
6.50739e-05
-0.000946475
0.000105378
-0.00134305
0.000148092
-0.00172694
0.000189137
-0.00208163
0.000225289
-0.00239497
0.000254545
-0.00266119
0.000276185
-0.00288101
0.00029054
-0.00306024
0.000298627
-0.00320761
0.00030175
-0.00333267
0.000301192
-0.00344413
0.000298026
-0.00354904
0.000293049
-0.00365258
0.000286799
-0.00375819
0.000279607
-0.00386798
0.000271658
-0.00398297
0.000263019
-0.0041034
-0.0042287
0.000253663
8.70545e-06
-0.000189828
3.12085e-05
-0.000577006
6.39905e-05
-0.000979257
0.0001029
-0.00138196
0.000143557
-0.0017676
0.000181972
-0.00212004
0.000215111
-0.00242811
0.000241204
-0.00268728
0.000259744
-0.00289955
0.000271215
-0.00307171
0.00027671
-0.00321311
0.000277538
-0.0033335
0.000274936
-0.00344153
0.00026991
-0.00354402
0.000263187
-0.00364585
0.000255246
-0.00375025
0.000246378
-0.00385912
0.000236741
-0.00397334
0.000226392
-0.00409306
-0.00421761
0.0002153
8.65449e-06
-0.000198483
3.07987e-05
-0.00059915
6.27173e-05
-0.00101118
0.000100132
-0.00141938
0.000138653
-0.00180612
0.000174401
-0.00215579
0.000204539
-0.00245825
0.000227527
-0.00271027
0.000243057
-0.00291508
0.00025175
-0.0030804
0.000254755
-0.00321611
0.000253375
-0.00333212
0.000248797
-0.00343695
0.000241958
-0.00353718
0.000233518
-0.00363741
0.000223903
-0.00374063
0.000213366
-0.00384858
0.000202045
-0.00396201
0.000189989
-0.004081
-0.00420479
0.000177164
8.57709e-06
-0.00020706
3.02958e-05
-0.000620869
6.12609e-05
-0.00104214
9.70907e-05
-0.00145521
0.000133408
-0.00184244
0.000166461
-0.00218884
0.00019362
-0.0024854
0.000213566
-0.00273022
0.000226177
-0.00292769
0.000232191
-0.00308642
0.000232802
-0.00321673
0.000229295
-0.00332861
0.000222802
-0.00343046
0.000214192
-0.00352857
0.000204061
-0.00362728
0.000192784
-0.00372936
0.000180585
-0.00383638
0.000167582
-0.00394901
0.00015382
-0.00406724
-0.00419023
0.000139267
8.47347e-06
-0.000215533
2.97024e-05
-0.000642098
5.9629e-05
-0.00107207
9.37912e-05
-0.00148937
0.000127847
-0.00187649
0.000158191
-0.00221919
0.0001824
-0.00250961
0.00019937
-0.00274719
0.000209151
-0.00293747
0.000212584
-0.00308985
0.00021089
-0.00321503
0.000205328
-0.00332305
0.000196974
-0.0034221
0.000186629
-0.00351822
0.000174829
-0.00361548
0.000161904
-0.00371643
0.000148047
-0.00382252
0.000133363
-0.00393433
0.000117894
-0.00405177
-0.00417396
0.000101618
8.34401e-06
-0.000223877
2.90211e-05
-0.000662775
5.78296e-05
-0.00110088
9.02505e-05
-0.00152179
0.000121999
-0.00190824
0.000149626
-0.00224682
0.000170921
-0.00253091
0.000184985
-0.00276125
0.000192025
-0.00294451
0.000192967
-0.00309079
0.000189051
-0.00321112
0.000181501
-0.0033155
0.000171335
-0.00341194
0.000159287
-0.00350618
0.000145838
-0.00360203
0.000131276
-0.00370187
0.000115767
-0.00380701
9.94024e-05
-0.00391796
8.22241e-05
-0.00403459
-0.00415594
6.42029e-05
8.18919e-06
-0.000232067
2.8255e-05
-0.00068284
5.58716e-05
-0.00112849
8.64854e-05
-0.00155241
0.000115889
-0.00193764
0.000140802
-0.00227173
0.000159224
-0.00254933
0.000170454
-0.00277248
0.000174839
-0.0029489
0.000173377
-0.00308933
0.000167315
-0.00320505
0.000157838
-0.00330602
0.000145903
-0.0034
0.000132182
-0.00349246
0.000117101
-0.00358695
0.000100913
-0.00368568
8.3759e-05
-0.00378986
6.57245e-05
-0.00389993
4.68322e-05
-0.0040157
-0.00413604
2.69414e-05
8.00965e-06
-0.000240076
2.74076e-05
-0.000702238
5.37641e-05
-0.00115485
8.25133e-05
-0.00158115
0.000109543
-0.00196467
0.000131752
-0.00229394
0.000147348
-0.00256492
0.000155815
-0.00278095
0.000157629
-0.00295071
0.000153847
-0.00308555
0.000145709
-0.00319692
0.00013436
-0.00329467
0.000120694
-0.00338634
0.000105326
-0.00347709
8.86311e-05
-0.00357026
7.0826e-05
-0.00366788
5.20362e-05
-0.00377107
3.23492e-05
-0.00388024
1.17731e-05
-0.00399512
-0.00411423
-1.00406e-05
7.8061e-06
-0.000247882
2.64827e-05
-0.000720915
5.15166e-05
-0.00117988
7.83515e-05
-0.00160799
0.000102988
-0.00198931
0.000122509
-0.00231346
0.000135328
-0.00257774
0.000141105
-0.00278673
0.00014043
-0.00295004
0.000134403
-0.00307952
0.000124256
-0.00318677
0.000111085
-0.0032815
9.57252e-05
-0.00337098
7.87327e-05
-0.00346009
6.04386e-05
-0.00355196
4.10272e-05
-0.00364847
2.06063e-05
-0.00375065
-7.5539e-07
-0.00385888
-2.29985e-05
-0.00397288
-0.00409108
-4.61542e-05
7.57936e-06
-0.000255462
2.54842e-05
-0.00073882
4.91388e-05
-0.00120354
7.40173e-05
-0.00163287
9.62476e-05
-0.00201154
0.000113104
-0.00233032
0.000123199
-0.00258784
0.000126359
-0.00278989
0.000123272
-0.00294695
0.000115074
-0.00307132
0.000102977
-0.00317467
8.80302e-05
-0.00326656
7.10082e-05
-0.00335395
5.24135e-05
-0.0034415
3.25346e-05
-0.00353208
1.15265e-05
-0.00362746
-1.05167e-05
-0.00372861
-3.35151e-05
-0.00383588
-5.74472e-05
-0.00394895
-0.00406627
-8.22569e-05
7.33035e-06
-0.000262792
2.44163e-05
-0.000755906
4.66405e-05
-0.00122576
6.95274e-05
-0.00165575
8.93463e-05
-0.00203136
0.000103565
-0.00234453
0.000110992
-0.00259527
0.000111605
-0.0027905
0.000106182
-0.00294153
9.5881e-05
-0.00306102
8.18913e-05
-0.00316068
6.521e-05
-0.00324988
4.65555e-05
-0.0033353
2.63791e-05
-0.00342132
4.92872e-06
-0.00351063
-1.76659e-05
-0.00360486
-4.13257e-05
-0.00370495
-6.5976e-05
-0.00381123
-9.15669e-05
-0.00392335
-0.00403976
-0.000118071
7.06005e-06
-0.000269852
2.32833e-05
-0.000772129
4.40315e-05
-0.00124651
6.48988e-05
-0.00167662
8.2307e-05
-0.00204877
9.39205e-05
-0.00235615
9.8736e-05
-0.00260008
9.68726e-05
-0.00278864
8.91845e-05
-0.00293384
7.68454e-05
-0.00304868
6.10146e-05
-0.00314485
4.26377e-05
-0.0032315
2.23778e-05
-0.00331504
6.36799e-07
-0.00339958
-2.23687e-05
-0.00348763
-4.65402e-05
-0.00358069
-7.18106e-05
-0.00367968
-9.81065e-05
-0.00378494
-0.00012536
-0.0038961
-0.00401157
-0.000153554
6.76949e-06
-0.000276622
2.20896e-05
-0.000787449
4.13219e-05
-0.00126574
6.01474e-05
-0.00169545
7.51516e-05
-0.00206377
8.41957e-05
-0.00236519
8.64577e-05
-0.00260234
8.21868e-05
-0.00278436
7.23028e-05
-0.00292395
5.79857e-05
-0.00303437
4.03617e-05
-0.00312723
2.03248e-05
-0.00321146
-1.51526e-06
-0.0032932
-2.47982e-05
-0.0033763
-4.93488e-05
-0.00346308
-7.50866e-05
-0.00355495
-0.00010196
-0.0036528
-0.000129896
-0.003757
-0.000158814
-0.00386718
-0.00398169
-0.000188689
6.45978e-06
-0.000283081
2.08397e-05
-0.000801829
3.85212e-05
-0.00128342
5.52891e-05
-0.00171222
6.79011e-05
-0.00207638
7.44147e-05
-0.00237171
7.41818e-05
-0.00260211
6.75709e-05
-0.00277775
5.55564e-05
-0.00291194
3.9318e-05
-0.00301813
1.99458e-05
-0.00310785
-1.7184e-06
-0.0031898
-2.51132e-05
-0.0032698
-4.99236e-05
-0.00335149
-7.60029e-05
-0.003437
-0.000103295
-0.00352766
-0.000131763
-0.00362433
-0.000161335
-0.00372743
-0.000191914
-0.0038366
-0.00395015
-0.000223461
6.13204e-06
-0.000289213
1.95381e-05
-0.000815235
3.5639e-05
-0.00129952
5.03391e-05
-0.00172692
6.05753e-05
-0.00208662
6.46002e-05
-0.00237573
6.19313e-05
-0.00259944
5.30457e-05
-0.00276887
3.89633e-05
-0.00289786
2.08569e-05
-0.00300002
-2.23171e-07
-0.00308677
-2.34817e-05
-0.00316654
-4.84099e-05
-0.00324488
-7.47293e-05
-0.00332517
-0.000102323
-0.00340941
-0.000131157
-0.00349883
-0.000161209
-0.00359428
-0.000192409
-0.00369623
-0.000224648
-0.00380437
-0.00391694
-0.000257858
5.78744e-06
-0.000295001
1.81893e-05
-0.000827637
3.26847e-05
-0.00131402
4.53118e-05
-0.00173954
5.31929e-05
-0.0020945
5.47729e-05
-0.00237731
4.97269e-05
-0.0025944
3.86304e-05
-0.00275777
2.25397e-05
-0.00288177
2.6157e-06
-0.0029801
-2.01307e-05
-0.00306403
-4.49575e-05
-0.00314171
-7.13973e-05
-0.00321844
-9.92083e-05
-0.00329736
-0.0001283
-0.00338031
-0.000158662
-0.00346847
-0.000190286
-0.00356266
-0.000223108
-0.00366341
-0.000257003
-0.00377047
-0.00388207
-0.000291869
5.42716e-06
-0.000300428
1.67978e-05
-0.000839008
2.96676e-05
-0.00132689
4.02213e-05
-0.0017501
4.57715e-05
-0.00210005
4.49523e-05
-0.00237649
3.75877e-05
-0.00258703
2.43419e-05
-0.00274453
6.29982e-06
-0.00286372
-1.53945e-05
-0.0029584
-3.97721e-05
-0.00303965
-6.61384e-05
-0.00311535
-9.40688e-05
-0.00319051
-0.000123354
-0.00326807
-0.000153928
-0.00334974
-0.000185801
-0.00343659
-0.000218983
-0.00352948
-0.000253419
-0.00362897
-0.000288966
-0.00373492
-0.00384555
-0.000325483
5.05241e-06
-0.00030548
1.5368e-05
-0.000849323
2.65963e-05
-0.00133812
3.50808e-05
-0.00175858
3.83277e-05
-0.0021033
3.51562e-05
-0.00237332
2.5531e-05
-0.00257741
1.01958e-05
-0.00272919
-9.74347e-06
-0.00284378
-3.31635e-05
-0.00293498
-5.91378e-05
-0.00301368
-8.70177e-05
-0.00308747
-0.000116418
-0.00316111
-0.00014716
-0.00323733
-0.000179199
-0.0033177
-0.000212566
-0.00340323
-0.000247291
-0.00349475
-0.000283328
-0.00359293
-0.000320523
-0.00369773
-0.00380739
-0.000358687
4.66441e-06
-0.000310145
1.39042e-05
-0.000858563
2.34795e-05
-0.00134769
2.99029e-05
-0.001765
3.08768e-05
-0.00210427
2.54014e-05
-0.00236784
1.35727e-05
-0.00256558
-3.79374e-06
-0.00271182
-2.55788e-05
-0.002822
-5.06823e-05
-0.00290988
-7.82205e-05
-0.00298614
-0.000107589
-0.0030581
-0.000138441
-0.00313025
-0.000170621
-0.00320515
-0.000204108
-0.00328421
-0.000238949
-0.00336839
-0.000275197
-0.0034585
-0.000312822
-0.00355531
-0.00035166
-0.00365889
-0.00376758
-0.000391468
4.2644e-06
-0.000314409
1.24107e-05
-0.000866709
2.03254e-05
-0.00135561
2.46995e-05
-0.00176938
2.34334e-05
-0.002103
1.5703e-05
-0.00236011
1.72996e-06
-0.0025516
-1.7615e-05
-0.00269248
-4.1196e-05
-0.00279842
-6.79427e-05
-0.00288313
-9.70139e-05
-0.00295707
-0.000127848
-0.00302726
-0.000160131
-0.00309797
-0.000193732
-0.00317155
-0.000228647
-0.0032493
-0.000264942
-0.00333209
-0.000302691
-0.00342075
-0.000341888
-0.00351611
-0.000382364
-0.00361841
-0.00372613
-0.000423813
3.85366e-06
-0.000318263
1.08917e-05
-0.000873747
1.7142e-05
-0.00136186
1.94821e-05
-0.00177172
1.6011e-05
-0.00209953
6.075e-06
-0.00235018
-9.99217e-06
-0.00253554
-3.12564e-05
-0.00267122
-5.65861e-05
-0.00277309
-8.49378e-05
-0.00285478
-0.000115512
-0.00292649
-0.000147789
-0.00299499
-0.000181484
-0.00306428
-0.00021649
-0.00313654
-0.000252814
-0.00321297
-0.000290539
-0.00329437
-0.000329765
-0.00338153
-0.000370512
-0.00347536
-0.000412619
-0.00357631
-0.00368304
-0.000455708
3.4335e-06
-0.000321696
9.35137e-06
-0.000879665
1.39368e-05
-0.00136644
1.42614e-05
-0.00177204
8.62159e-06
-0.00209389
-3.46905e-06
-0.00233809
-2.15739e-05
-0.00251743
-4.47078e-05
-0.00264808
-7.17409e-05
-0.00274606
-0.000101661
-0.00282486
-0.000133711
-0.00289444
-0.000167408
-0.00296129
-0.000202497
-0.00302919
-0.000238889
-0.00310015
-0.000276603
-0.00317526
-0.000315736
-0.00325523
-0.00035641
-0.00334085
-0.000398681
-0.00343309
-0.000442408
-0.00353258
3.00538e-06
-0.000324702
7.79356e-06
-0.000884453
1.07169e-05
-0.00136937
9.04793e-06
-0.00177037
1.28637e-06
-0.00208613
-1.29209e-05
-0.00232388
-3.30077e-05
-0.00249735
-5.79602e-05
-0.00262313
-8.66532e-05
-0.00271736
-0.000118107
-0.00279341
-0.000151605
-0.00286094
-0.000186701
-0.00292619
-0.000223166
-0.00299272
-0.000260927
-0.00306239
-0.000300012
-0.00313617
-0.000340527
-0.00321472
-0.000382619
-0.00329876
-0.000426384
-0.00338933
2.57039e-06
-0.000327272
6.22213e-06
-0.000888105
7.48949e-06
-0.00137063
3.84961e-06
-0.00176673
-6.01102e-06
-0.00207627
-2.2267e-05
-0.00230762
-4.42835e-05
-0.00247533
-7.10056e-05
-0.00259641
-0.000101317
-0.00268705
-0.00013427
-0.00276045
-0.00016919
-0.00282602
-0.000205664
-0.00288972
-0.000243488
-0.0029549
-0.000282602
-0.00302328
-0.00032304
-0.00309574
-0.000364913
-0.00317285
-0.000408388
-0.00325529
2.12962e-06
-0.000329402
4.64075e-06
-0.000890616
4.26104e-06
-0.00137025
-1.31781e-06
-0.00176116
-1.32339e-05
-0.00206436
-3.14975e-05
-0.00228936
-5.53925e-05
-0.00245143
-8.38366e-05
-0.00256796
-0.000115725
-0.00265516
-0.000150146
-0.00272603
-0.000186462
-0.00278971
-0.000224294
-0.00285189
-0.00026346
-0.00291573
-0.00030391
-0.00298283
-0.000345684
-0.00305396
-0.000388893
-0.00312964
1.68419e-06
-0.000331086
3.0531e-06
-0.000891985
1.04069e-06
-0.00136824
-6.46781e-06
-0.00175365
-2.03836e-05
-0.00205044
-4.06038e-05
-0.00226914
-6.63269e-05
-0.00242571
-9.64467e-05
-0.00253784
-0.000129874
-0.00262174
-0.000165731
-0.00269017
-0.000203418
-0.00275202
-0.000242587
-0.00281272
-0.000283078
-0.00287524
-0.00032485
-0.00294106
-0.000367944
-0.00301087
-0.00308511
1.23487e-06
-0.000332321
1.46107e-06
-0.000892211
-2.17761e-06
-0.0013646
-1.15698e-05
-0.00174425
-2.74499e-05
-0.00203456
-4.95778e-05
-0.00224701
-7.70794e-05
-0.00239821
-0.00010883
-0.00250609
-0.000143758
-0.00258681
-0.00018102
-0.00265291
-0.000220054
-0.00271299
-0.00026054
-0.00277223
-0.000302339
-0.00283344
-0.000345419
-0.00289798
-0.00038982
-0.00296647
7.81041e-07
-0.000333102
-1.3261e-07
-0.000891298
-5.37853e-06
-0.00135936
-1.66245e-05
-0.00173301
-3.44255e-05
-0.00201676
-5.84119e-05
-0.00222303
-8.76435e-05
-0.00236898
-0.000120981
-0.00247275
-0.000157373
-0.00255042
-0.000196011
-0.00261427
-0.000236366
-0.00267263
-0.00027815
-0.00273045
-0.000321239
-0.00279035
-0.000365613
-0.0028536
3.05394e-07
-0.000333407
-1.72644e-06
-0.000889266
-8.55714e-06
-0.00135253
-2.16252e-05
-0.00171994
-4.13031e-05
-0.00199708
-6.70994e-05
-0.00219723
-9.80133e-05
-0.00233806
-0.000132895
-0.00243787
-0.000170715
-0.0025126
-0.000210698
-0.00257429
-0.000252351
-0.00263098
-0.000295412
-0.00268739
-0.000339775
-0.00274599
-0.00280795
-1.72803e-07
-0.000333234
-3.31529e-06
-0.000886123
-1.17096e-05
-0.00134413
-2.65654e-05
-0.00170509
-4.80761e-05
-0.00197557
-7.5634e-05
-0.00216967
-0.000108183
-0.00230551
-0.000144568
-0.00240149
-0.00018378
-0.00247338
-0.00022508
-0.00253299
-0.000268006
-0.00258805
-0.000312322
-0.00264307
-0.000357941
-0.00270037
-6.04529e-07
-0.00033263
-4.89022e-06
-0.000881838
-1.48313e-05
-0.00133419
-3.14394e-05
-0.00168848
-5.47384e-05
-0.00195227
-8.40102e-05
-0.0021404
-0.000118149
-0.00227138
-0.000155996
-0.00236364
-0.000196565
-0.00243281
-0.000239152
-0.0024904
-0.000283327
-0.00254388
-0.000328877
-0.00259752
-0.00265352
-1.05749e-06
-0.000331572
-6.45512e-06
-0.00087644