/*--------------------------------*- C++ -*----------------------------------*\
  =========                 |
  \\      /  F ield         | OpenFOAM: The Open Source CFD Toolbox
   \\    /   O peration     | Website:  https://openfoam.org
    \\  /    A nd           | Version:  7
     \\/     M anipulation  |
\*---------------------------------------------------------------------------*/
FoamFile
{
    version     2.0;
    format      ascii;
    class       volScalarField;
    location    "40";
    object      p;
}
// * * * * * * * * * * * * * * * * * * * * * * * * * * * * * * * * * * * * * //

dimensions      [0 2 -2 0 0 0 0];

internalField   nonuniform List<scalar> 
3025
(
-0.22086
-0.209756
-0.198281
-0.186554
-0.17469
-0.162799
-0.150982
-0.139329
-0.127921
-0.116825
-0.106102
-0.0957989
-0.0859616
-0.0766037
-0.0677811
-0.0594415
-0.051717
-0.044376
-0.0378326
-0.0313326
-0.0261577
-0.0200678
-0.0168008
-0.0100606
-0.0101886
-0.000208499
-0.00759138
0.0119675
-0.220983
-0.20987
-0.198386
-0.186651
-0.174781
-0.162884
-0.151061
-0.139402
-0.127988
-0.116886
-0.106159
-0.0958499
-0.0860075
-0.0766449
-0.0678178
-0.059474
-0.0517456
-0.0444011
-0.0378542
-0.0313516
-0.0261732
-0.0200821
-0.0168107
-0.0100724
-0.0101923
-0.000221588
-0.00758578
0.0119441
-0.221227
-0.210095
-0.198595
-0.186846
-0.174962
-0.163053
-0.151218
-0.139547
-0.128122
-0.117009
-0.106271
-0.0959516
-0.0860994
-0.0767273
-0.0678912
-0.059539
-0.0518027
-0.0444512
-0.0378974
-0.0313894
-0.0262043
-0.0201108
-0.0168306
-0.0100961
-0.0101996
-0.00024773
-0.00757462
0.0118973
-0.221589
-0.210429
-0.198905
-0.187134
-0.175231
-0.163304
-0.151451
-0.139764
-0.128321
-0.117193
-0.106438
-0.0961039
-0.0862368
-0.0768505
-0.0680011
-0.0596364
-0.0518883
-0.0445263
-0.037962
-0.0314461
-0.0262508
-0.0201537
-0.0168603
-0.0101315
-0.0102106
-0.000286848
-0.00755799
0.0118274
-0.222063
-0.210867
-0.199312
-0.187515
-0.175586
-0.163635
-0.15176
-0.14005
-0.128586
-0.117436
-0.106661
-0.0963059
-0.0864193
-0.0770143
-0.0681471
-0.0597658
-0.0520021
-0.0446261
-0.0380479
-0.0315215
-0.0263126
-0.0202107
-0.0168999
-0.0101785
-0.0102254
-0.000338829
-0.007536
0.0117347
-0.222643
-0.211404
-0.199812
-0.187982
-0.176024
-0.164045
-0.152142
-0.140405
-0.128915
-0.117738
-0.106937
-0.0965571
-0.0866462
-0.0772181
-0.0683289
-0.059927
-0.0521438
-0.0447504
-0.038155
-0.0316155
-0.0263898
-0.0202819
-0.0169494
-0.0102372
-0.0102439
-0.000403525
-0.00750883
0.0116195
-0.22332
-0.212033
-0.200399
-0.188532
-0.17654
-0.164529
-0.152595
-0.140827
-0.129305
-0.118098
-0.107266
-0.0968566
-0.086917
-0.0774613
-0.068546
-0.0601196
-0.0523132
-0.0448991
-0.038283
-0.0317279
-0.026482
-0.020367
-0.0170086
-0.0103074
-0.0102661
-0.000480753
-0.00747665
0.0114824
-0.224085
-0.212745
-0.201066
-0.189159
-0.177131
-0.165084
-0.153114
-0.141312
-0.129755
-0.118513
-0.107647
-0.0972032
-0.0872306
-0.0777433
-0.0687977
-0.0603431
-0.0525098
-0.0450717
-0.0384318
-0.0318585
-0.0265892
-0.0204659
-0.0170774
-0.0103889
-0.0102922
-0.000570293
-0.00743972
0.011324
-0.224928
-0.213532
-0.201806
-0.189858
-0.17779
-0.165705
-0.153699
-0.141858
-0.130262
-0.118982
-0.108077
-0.0975957
-0.0875862
-0.0780632
-0.0690836
-0.0605969
-0.0527332
-0.0452679
-0.0386009
-0.032007
-0.0267112
-0.0205784
-0.0171559
-0.0104817
-0.0103221
-0.000671896
-0.00739827
0.0111448
-0.225838
-0.214384
-0.202611
-0.19062
-0.178513
-0.166389
-0.154343
-0.142462
-0.130825
-0.119502
-0.108556
-0.0980329
-0.0879826
-0.0784201
-0.0694027
-0.0608804
-0.0529828
-0.0454874
-0.03879
-0.0321732
-0.0268478
-0.0207044
-0.0172438
-0.0105854
-0.0103559
-0.000785282
-0.00735261
0.0109458
-0.226803
-0.215292
-0.203472
-0.19144
-0.179294
-0.167131
-0.155044
-0.143121
-0.13144
-0.120073
-0.109081
-0.0985131
-0.0884185
-0.078813
-0.0697542
-0.061193
-0.0532582
-0.0457295
-0.0389988
-0.0323568
-0.0269986
-0.0208436
-0.0173411
-0.0107
-0.0103937
-0.000910139
-0.00730303
0.0107276
-0.227811
-0.216245
-0.204381
-0.192311
-0.180127
-0.167925
-0.155797
-0.143831
-0.132105
-0.120691
-0.109651
-0.0990349
-0.0888926
-0.0792408
-0.0701373
-0.0615339
-0.0535586
-0.0459938
-0.0392267
-0.0325573
-0.0271634
-0.0209958
-0.0174476
-0.0108252
-0.0104356
-0.00104613
-0.00724985
0.0104911
-0.217235
-0.205331
-0.193225
-0.181006
-0.168767
-0.156599
-0.144589
-0.132817
-0.121353
-0.110264
-0.0995964
-0.0894036
-0.0797023
-0.0705509
-0.0619022
-0.0538835
-0.0462797
-0.0394734
-0.0327745
-0.027342
-0.0211606
-0.0175631
-0.0109608
-0.0104814
-0.0011929
-0.00719342
0.0102373
-0.218251
-0.206312
-0.194175
-0.181925
-0.169651
-0.157444
-0.145391
-0.133572
-0.122058
-0.110916
-0.100196
-0.0899498
-0.0801962
-0.0709939
-0.062297
-0.0542319
-0.0465867
-0.0397383
-0.0330078
-0.0275339
-0.0213379
-0.0176876
-0.0111065
-0.0105314
-0.00135006
-0.00713409
0.0099672
-0.219284
-0.207317
-0.195155
-0.182878
-0.170573
-0.158329
-0.146234
-0.134367
-0.122803
-0.111607
-0.100831
-0.0905297
-0.0807212
-0.0714653
-0.0627174
-0.0546031
-0.0469139
-0.0400209
-0.0332568
-0.0277388
-0.0215272
-0.0178208
-0.011262
-0.0105856
-0.0015172
-0.00707221
0.00968178
-0.220325
-0.208339
-0.196158
-0.183859
-0.171527
-0.159249
-0.147113
-0.1352
-0.123584
-0.112334
-0.101501
-0.0911417
-0.0812759
-0.0719638
-0.0631625
-0.0549963
-0.0472607
-0.0403205
-0.0335209
-0.0279563
-0.0217282
-0.0179626
-0.0114271
-0.0106439
-0.00169391
-0.00700815
0.0093821
-0.221366
-0.209369
-0.197178
-0.184864
-0.172509
-0.1602
-0.148025
-0.136067
-0.1244
-0.113094
-0.102203
-0.0917841
-0.0818589
-0.0724883
-0.0636311
-0.0554107
-0.0476265
-0.0406366
-0.0337998
-0.0281861
-0.0219406
-0.0181127
-0.0116014
-0.0107065
-0.00187974
-0.00694227
0.00906924
-0.222401
-0.210403
-0.198209
-0.185886
-0.173514
-0.161179
-0.148968
-0.136965
-0.125248
-0.113886
-0.102936
-0.0924555
-0.082469
-0.0730378
-0.0641225
-0.0558454
-0.0480105
-0.0409685
-0.034093
-0.0284277
-0.022164
-0.0182709
-0.0117846
-0.0107734
-0.00207426
-0.00687492
0.00874427
-0.223421
-0.211433
-0.199245
-0.186921
-0.174537
-0.16218
-0.149936
-0.137891
-0.126123
-0.114706
-0.103696
-0.0931533
-0.0831039
-0.0736101
-0.0646348
-0.0562989
-0.0484114
-0.0413152
-0.0343994
-0.0286803
-0.0223978
-0.0184368
-0.0119763
-0.0108444
-0.00227698
-0.00680636
0.00840826
-0.212449
-0.200276
-0.187958
-0.175568
-0.163193
-0.150921
-0.138836
-0.12702
-0.115547
-0.104477
-0.0938718
-0.0837587
-0.0742011
-0.0651644
-0.0567681
-0.0488266
-0.0416745
-0.0347173
-0.0289425
-0.0226408
-0.0186095
-0.0121758
-0.0109193
-0.00248734
-0.00673678
0.00806229
-0.213454
-0.201304
-0.188998
-0.176609
-0.164221
-0.151922
-0.139801
-0.127938
-0.11641
-0.10528
-0.094612
-0.0844341
-0.0748115
-0.065712
-0.0572537
-0.0492568
-0.0420472
-0.0350473
-0.0292152
-0.0228935
-0.0187899
-0.0123831
-0.010999
-0.00270475
-0.00666739
0.00770758
-0.214488
-0.202371
-0.190086
-0.177704
-0.165309
-0.152987
-0.14083
-0.12892
-0.117337
-0.106144
-0.0954085
-0.0851616
-0.0754692
-0.0663021
-0.057777
-0.0497199
-0.0424484
-0.0354016
-0.0295086
-0.0231631
-0.0189847
-0.0126016
-0.0110881
-0.00292935
-0.00660131
0.00734537
-0.215528
-0.203466
-0.191222
-0.178863
-0.166472
-0.154137
-0.141949
-0.129993
-0.118353
-0.107094
-0.0962866
-0.0859643
-0.076195
-0.0669527
-0.0583532
-0.0502286
-0.0428879
-0.035788
-0.0298278
-0.023454
-0.0191955
-0.0128334
-0.0111855
-0.00316279
-0.00653574
0.00697543
-0.216178
-0.204182
-0.191988
-0.179666
-0.167296
-0.154966
-0.142769
-0.130792
-0.119119
-0.107819
-0.0969623
-0.0865878
-0.0767627
-0.0674663
-0.0588096
-0.0506364
-0.0432389
-0.0361045
-0.0300827
-0.0237022
-0.0193592
-0.0130479
-0.0112463
-0.00340311
-0.00643849
0.00659393
-0.204647
-0.192392
-0.180011
-0.167588
-0.155214
-0.14298
-0.130973
-0.119276
-0.107958
-0.0970882
-0.0867053
-0.0768715
-0.067574
-0.0589088
-0.0507438
-0.0433302
-0.0362212
-0.0301601
-0.0238428
-0.0194039
-0.01324
-0.0112174
-0.00370216
-0.0062479
0.00609594
-0.202943
-0.19097
-0.178846
-0.166657
-0.154492
-0.142444
-0.130598
-0.11904
-0.107839
-0.0970645
-0.08676
-0.0769858
-0.0677372
-0.0591011
-0.0509661
-0.0435533
-0.0364702
-0.0303749
-0.0241046
-0.0195713
-0.0135261
-0.0112817
-0.00406853
-0.00609782
0.00549124
-0.200328
-0.188726
-0.176948
-0.165077
-0.153203
-0.141417
-0.129804
-0.118449
-0.107425
-0.0967995
-0.0866204
-0.0769473
-0.0677826
-0.0592065
-0.0511255
-0.0437359
-0.0366923
-0.0305803
-0.0243599
-0.0197489
-0.0138128
-0.0113684
-0.00443288
-0.00597544
0.00487536
-0.197461
-0.18625
-0.174836
-0.163303
-0.151739
-0.140232
-0.128871
-0.117738
-0.106907
-0.0964476
-0.0864093
-0.0768513
-0.067783
-0.0592782
-0.0512606
-0.043903
-0.0369055
-0.0307828
-0.0246165
-0.0199314
-0.0141073
-0.0114628
-0.00481014
-0.00585556
0.0042366
-0.194269
-0.183488
-0.172474
-0.161312
-0.150089
-0.138892
-0.127808
-0.11692
-0.106304
-0.0960289
-0.0861478
-0.0767192
-0.0677593
-0.0593363
-0.0513901
-0.0440714
-0.0371245
-0.0309958
-0.024885
-0.0201285
-0.014416
-0.0115709
-0.00520312
-0.00574084
0.00357641
-0.190643
-0.180343
-0.169778
-0.159032
-0.14819
-0.13734
-0.126569
-0.115959
-0.105585
-0.0955196
-0.0858174
-0.0765373
-0.0677015
-0.0593738
-0.0515094
-0.0442391
-0.0373482
-0.0312198
-0.0251657
-0.0203424
-0.0147388
-0.0116963
-0.00560939
-0.00563687
0.00290147
-0.186549
-0.176781
-0.166713
-0.156429
-0.146013
-0.135551
-0.125129
-0.11483
-0.10473
-0.0949019
-0.085403
-0.0762927
-0.0675991
-0.0593824
-0.0516118
-0.0444009
-0.0375726
-0.0314523
-0.0254563
-0.0205724
-0.0150741
-0.01184
-0.00602638
-0.00554704
0.0022192
-0.181965
-0.17278
-0.163259
-0.153483
-0.143537
-0.133504
-0.12347
-0.113518
-0.103724
-0.0941627
-0.0848931
-0.0759756
-0.0674436
-0.059355
-0.0516917
-0.0445522
-0.0377943
-0.0316908
-0.0257549
-0.0208175
-0.0154204
-0.0120023
-0.0064517
-0.00547399
0.00153761
-0.176879
-0.168324
-0.159397
-0.150176
-0.140743
-0.131182
-0.121575
-0.112007
-0.102553
-0.0932888
-0.0842759
-0.0755756
-0.0672264
-0.0592843
-0.051743
-0.0446883
-0.0380094
-0.0319324
-0.026059
-0.0210764
-0.015776
-0.012183
-0.00688264
-0.00542028
0.000865614
-0.17129
-0.163409
-0.155119
-0.146497
-0.137619
-0.12857
-0.11943
-0.110282
-0.101203
-0.092267
-0.0835395
-0.0750821
-0.066938
-0.0591622
-0.0517589
-0.0448036
-0.0382133
-0.0321735
-0.0263659
-0.021347
-0.0161386
-0.0123819
-0.00731601
-0.00538815
0.00021283
-0.165213
-0.158042
-0.150427
-0.142441
-0.134158
-0.125659
-0.117023
-0.108331
-0.0996603
-0.0910852
-0.0826722
-0.0744843
-0.0665687
-0.05898
-0.051732
-0.0448917
-0.0384009
-0.0324098
-0.0266717
-0.0216267
-0.0165056
-0.0125976
-0.00774825
-0.00537935
-0.000410743
-0.158683
-0.152247
-0.145336
-0.138018
-0.130363
-0.122448
-0.11435
-0.106147
-0.0979173
-0.0897337
-0.081664
-0.0737722
-0.066109
-0.058729
-0.0516543
-0.0449454
-0.0385659
-0.0326361
-0.0269723
-0.021912
-0.0168736
-0.0128284
-0.00817541
-0.00539488
-0.000995198
-0.15175
-0.146064
-0.139876
-0.133248
-0.126247
-0.118943
-0.111412
-0.103729
-0.095969
-0.0882058
-0.080507
-0.0729374
-0.0655503
-0.0584007
-0.051518
-0.0449576
-0.0387021
-0.0328466
-0.0272627
-0.0221986
-0.0172389
-0.0130715
-0.00859324
-0.00543497
-0.00153124
-0.144478
-0.139546
-0.134089
-0.128164
-0.121833
-0.115161
-0.108219
-0.10108
-0.0938158
-0.0864987
-0.0791963
-0.0719732
-0.0648852
-0.0579875
-0.0513155
-0.0449209
-0.0388027
-0.0330351
-0.0275376
-0.0224818
-0.0175972
-0.0133239
-0.00899729
-0.00549885
-0.00201075
-0.136944
-0.132754
-0.128027
-0.122808
-0.117153
-0.111125
-0.104788
-0.0982113
-0.0914635
-0.0846143
-0.0777305
-0.0708762
-0.0641086
-0.057483
-0.05104
-0.0448284
-0.038861
-0.0331954
-0.0277913
-0.0227561
-0.0179438
-0.0135815
-0.00938301
-0.00558475
-0.00242741
-0.129231
-0.125765
-0.12175
-0.117229
-0.11225
-0.106869
-0.101145
-0.095141
-0.0889238
-0.0825593
-0.0761122
-0.0696457
-0.0632175
-0.0568827
-0.0506859
-0.0446739
-0.0388708
-0.0333209
-0.0280178
-0.023016
-0.0182738
-0.0138399
-0.00974599
-0.00568991
-0.0027771
-0.121423
-0.11865
-0.115325
-0.111485
-0.10717
-0.10243
-0.0973178
-0.091892
-0.0862136
-0.0803449
-0.0743483
-0.0682848
-0.0622119
-0.0561844
-0.0502495
-0.0444524
-0.0388265
-0.0334059
-0.0282117
-0.0232559
-0.0185823
-0.0140945
-0.0100821
-0.00581074
-0.00305823
-0.113603
-0.111485
-0.108819
-0.105633
-0.101963
-0.0978509
-0.0933432
-0.0884925
-0.0833544
-0.0779871
-0.0724495
-0.0667999
-0.061095
-0.0553882
-0.0497287
-0.0441604
-0.0387237
-0.0334451
-0.0283676
-0.0234702
-0.0188645
-0.0143402
-0.0103878
-0.00594293
-0.00327198
-0.105848
-0.104341
-0.102295
-0.0997326
-0.0966817
-0.0931769
-0.089259
-0.084974
-0.0803718
-0.0755057
-0.0704304
-0.0652012
-0.0598728
-0.0544971
-0.049124
-0.0437962
-0.0385595
-0.0334344
-0.0284812
-0.023654
-0.0191159
-0.0145723
-0.0106602
-0.00608172
-0.0034222
-0.0982291
-0.0972853
-0.0958173
-0.0938407
-0.0913769
-0.0884539
-0.0851053
-0.0813707
-0.0772942
-0.0729235
-0.0683089
-0.063502
-0.0585546
-0.0535167
-0.0484382
-0.0433602
-0.0383323
-0.0333711
-0.028549
-0.0238031
-0.0193329
-0.0147862
-0.0108973
-0.00622213
-0.00351518
-0.0908091
-0.0903786
-0.0894431
-0.0880117
-0.0860995
-0.0837274
-0.0809228
-0.0777184
-0.0741521
-0.0702662
-0.0661058
-0.0617182
-0.0571524
-0.0524554
-0.0476764
-0.042855
-0.0380429
-0.0332539
-0.0285688
-0.0239142
-0.0195125
-0.0149778
-0.0110982
-0.00635932
-0.00355904
-0.083644
-0.0836762
-0.0832262
-0.082297
-0.0808976
-0.0790424
-0.0767524
-0.0740535
-0.0709777
-0.0675611
-0.0638439
-0.0598688
-0.0556808
-0.0513243
-0.0468465
-0.0422854
-0.0376936
-0.0330834
-0.0285401
-0.0239852
-0.0196531
-0.0151439
-0.011263
-0.00648887
-0.00356314
-0.0767833
-0.077228
-0.077216
-0.0767449
-0.0758176
-0.0744427
-0.0726345
-0.0704132
-0.0678041
-0.0648377
-0.0615486
-0.0579747
-0.0541571
-0.0501367
-0.0459585
-0.0416586
-0.0372892
-0.0328619
-0.0284636
-0.0240156
-0.0197541
-0.0152821
-0.011393
-0.00660707
-0.00353721
-0.0702712
-0.0710795
-0.0714586
-0.0714009
-0.0709041
-0.0699709
-0.0686099
-0.066835
-0.0646657
-0.0621265
-0.0592467
-0.0560592
-0.0526007
-0.0489085
-0.0450248
-0.0409838
-0.0368362
-0.0325937
-0.0283422
-0.024006
-0.0198162
-0.015391
-0.0114903
-0.00671109
-0.00349065
-0.0641474
-0.0652728
-0.0659972
-0.0663088
-0.0662003
-0.0656693
-0.0647189
-0.0633572
-0.0615978
-0.0594598
-0.0569671
-0.0541475
-0.0510332
-0.0476578
-0.0440602
-0.0402726
-0.0363436
-0.0322851
-0.0281801
-0.0239588
-0.0198416
-0.0154705
-0.0115577
-0.00679918
-0.00343184
-0.0584487
-0.0598472
-0.0608731
-0.0615108
-0.0617487
-0.0615798
-0.061002
-0.0600182
-0.0586369
-0.0568714
-0.0547404
-0.0522669
-0.0494785
-0.046405
-0.0430818
-0.0395389
-0.0358222
-0.0319441
-0.0279837
-0.023878
-0.0198336
-0.0155217
-0.0115988
-0.00687065
-0.00336769
-0.0532101
-0.0548408
-0.0561265
-0.0570485
-0.0575916
-0.0577447
-0.0575009
-0.0568586
-0.0558212
-0.0543968
-0.0525993
-0.0504468
-0.0479627
-0.0451727
-0.0421088
-0.0387986
-0.035285
-0.0315809
-0.0277606
-0.023769
-0.0197969
-0.0155469
-0.0116175
-0.00692589
-0.00330341
-0.0484657
-0.050291
-0.0517975
-0.0529638
-0.0537718
-0.0542068
-0.0542581
-0.0539196
-0.05319
-0.0520733
-0.0505783
-0.0487189
-0.0465141
-0.0439859
-0.0411627
-0.0380697
-0.0347469
-0.0312074
-0.0275205
-0.0236389
-0.0197373
-0.0155497
-0.0116181
-0.0069662
-0.00324251
-0.0442505
-0.046236
-0.0479268
-0.0492994
-0.0503333
-0.0510107
-0.0513176
-0.0512442
-0.0507852
-0.0499403
-0.0487144
-0.047117
-0.0451632
-0.0428716
-0.040267
-0.0373725
-0.0342247
-0.0308373
-0.0272743
-0.023496
-0.0196617
-0.0155347
-0.011605
-0.00699366
-0.00318705
-0.0406018
-0.0427164
-0.0445574
-0.0461003
-0.0473221
-0.0482029
-0.0487259
-0.048878
-0.0486506
-0.0480398
-0.0470466
-0.0456772
-0.0439428
-0.041859
-0.0394473
-0.0367288
-0.0337369
-0.0304858
-0.0270345
-0.02335
-0.0195778
-0.0155073
-0.0115828
-0.00701087
-0.00313794
-0.0375614
-0.0397766
-0.0417363
-0.0434148
-0.0447878
-0.0458334
-0.0465324
-0.0468695
-0.0468331
-0.0464162
-0.0456169
-0.044438
-0.042888
-0.0409795
-0.0387312
-0.0361623
-0.0333036
-0.0301694
-0.0268145
-0.0232115
-0.0194938
-0.0154738
-0.011556
-0.00702063
-0.00309534
-0.0351779
-0.0374675
-0.039516
-0.0412969
-0.0427848
-0.0439564
-0.0447909
-0.0452709
-0.0453828
-0.0451172
-0.0444696
-0.0434406
-0.042036
-0.0402662
-0.0381477
-0.0356981
-0.032946
-0.0299056
-0.0266283
-0.0230915
-0.0194185
-0.0154405
-0.0115294
-0.00702588
-0.00305867
-0.03351
-0.0358493
-0.0379577
-0.039808
-0.0413744
-0.0426324
-0.0435604
-0.0441393
-0.0443542
-0.044194
-0.0436525
-0.0427285
-0.0414262
-0.0397541
-0.0377274
-0.0353623
-0.0326859
-0.0297124
-0.0264906
-0.0230016
-0.0193604
-0.0154142
-0.011507
-0.00703143
-0.00302594
-0.0326303
-0.0349951
-0.0371344
-0.0390208
-0.0406279
-0.041931
-0.0429077
-0.0435384
-0.0438073
-0.0437025
-0.0432169
-0.0423484
-0.0411001
-0.0394799
-0.0375018
-0.0351817
-0.0325454
-0.0296079
-0.0264151
-0.0229529
-0.0193265
-0.0154022
-0.0114895
-0.0070454
-0.00299587
-0.0300676
-0.0326303
-0.0349952
-0.0371344
-0.0390208
-0.0406279
-0.041931
-0.0429077
-0.0435384
-0.0438073
-0.0437025
-0.0432169
-0.0423484
-0.0411001
-0.0394799
-0.0375018
-0.0351817
-0.0325454
-0.0296079
-0.0264151
-0.022953
-0.0193265
-0.0154022
-0.0114895
-0.0070454
-0.00299587
-0.0309675
-0.03351
-0.0358493
-0.0379577
-0.039808
-0.0413744
-0.0426325
-0.0435604
-0.0441393
-0.0443542
-0.044194
-0.0436525
-0.0427285
-0.0414262
-0.0397541
-0.0377274
-0.0353623
-0.0326859
-0.0297124
-0.0264906
-0.0230016
-0.0193604
-0.0154142
-0.011507
-0.00703143
-0.00302594
-0.0326747
-0.0351779
-0.0374675
-0.039516
-0.0412969
-0.0427848
-0.0439564
-0.0447909
-0.0452709
-0.0453828
-0.0451172
-0.0444696
-0.0434406
-0.042036
-0.0402662
-0.0381478
-0.0356981
-0.032946
-0.0299056
-0.0266283
-0.0230915
-0.0194185
-0.0154405
-0.0115294
-0.00702588
-0.00305867
-0.0351181
-0.0375615
-0.0397766
-0.0417363
-0.0434148
-0.0447878
-0.0458334
-0.0465324
-0.0468695
-0.0468331
-0.0464162
-0.0456169
-0.044438
-0.042888
-0.0409795
-0.0387312
-0.0361623
-0.0333036
-0.0301694
-0.0268145
-0.0232115
-0.0194938
-0.0154738
-0.011556
-0.00702063
-0.00309534
-0.0382403
-0.0406018
-0.0427164
-0.0445574
-0.0461003
-0.0473221
-0.0482029
-0.0487259
-0.048878
-0.0486506
-0.0480398
-0.0470467
-0.0456772
-0.0439428
-0.041859
-0.0394473
-0.0367288
-0.0337369
-0.0304858
-0.0270345
-0.02335
-0.0195778
-0.0155073
-0.0115828
-0.00701087
-0.00313794
-0.0419957
-0.0442505
-0.046236
-0.0479268
-0.0492994
-0.0503333
-0.0510107
-0.0513176
-0.0512442
-0.0507852
-0.0499403
-0.0487144
-0.047117
-0.0451632
-0.0428716
-0.040267
-0.0373725
-0.0342247
-0.0308373
-0.0272743
-0.023496
-0.0196617
-0.0155347
-0.011605
-0.00699366
-0.00318705
-0.0463457
-0.0484657
-0.050291
-0.0517975
-0.0529638
-0.0537719
-0.0542068
-0.0542581
-0.0539196
-0.05319
-0.0520733
-0.0505783
-0.0487189
-0.0465141
-0.0439859
-0.0411627
-0.0380697
-0.0347469
-0.0312074
-0.0275205
-0.0236389
-0.0197373
-0.0155497
-0.0116181
-0.0069662
-0.00324251
-0.0512566
-0.0532101
-0.0548408
-0.0561265
-0.0570485
-0.0575916
-0.0577447
-0.0575009
-0.0568586
-0.0558212
-0.0543968
-0.0525993
-0.0504468
-0.0479627
-0.0451727
-0.0421088
-0.0387986
-0.035285
-0.0315809
-0.0277606
-0.023769
-0.0197969
-0.0155469
-0.0116175
-0.00692589
-0.00330341
-0.0566973
-0.0584487
-0.0598472
-0.0608731
-0.0615108
-0.0617487
-0.0615798
-0.061002
-0.0600182
-0.0586369
-0.0568714
-0.0547404
-0.0522669
-0.0494785
-0.046405
-0.0430818
-0.0395389
-0.0358222
-0.0319441
-0.0279837
-0.023878
-0.0198336
-0.0155217
-0.0115988
-0.00687065
-0.00336769
-0.0626376
-0.0641474
-0.0652728
-0.0659972
-0.0663088
-0.0662003
-0.0656693
-0.0647189
-0.0633572
-0.0615978
-0.0594598
-0.0569671
-0.0541475
-0.0510332
-0.0476578
-0.0440602
-0.0402726
-0.0363436
-0.0322851
-0.0281801
-0.0239588
-0.0198416
-0.0154705
-0.0115577
-0.00679918
-0.00343184
-0.0690463
-0.0702712
-0.0710795
-0.0714586
-0.0714009
-0.0709041
-0.0699709
-0.0686099
-0.066835
-0.0646657
-0.0621265
-0.0592467
-0.0560592
-0.0526007
-0.0489085
-0.0450248
-0.0409838
-0.0368362
-0.0325937
-0.0283422
-0.024006
-0.0198162
-0.015391
-0.0114903
-0.00671109
-0.00349065
-0.0758902
-0.0767833
-0.077228
-0.077216
-0.0767449
-0.0758176
-0.0744427
-0.0726345
-0.0704132
-0.0678041
-0.0648377
-0.0615486
-0.0579747
-0.0541571
-0.0501367
-0.0459585
-0.0416586
-0.0372892
-0.0328619
-0.0284636
-0.0240156
-0.0197541
-0.0152821
-0.011393
-0.00660707
-0.00353721
-0.0831327
-0.083644
-0.0836762
-0.0832262
-0.082297
-0.0808976
-0.0790425
-0.0767524
-0.0740535
-0.0709777
-0.0675611
-0.0638439
-0.0598688
-0.0556808
-0.0513243
-0.0468465
-0.0422854
-0.0376936
-0.0330834
-0.0285401
-0.0239852
-0.0196531
-0.0151439
-0.011263
-0.00648887
-0.00356314
-0.090732
-0.0908091
-0.0903786
-0.0894431
-0.0880117
-0.0860995
-0.0837274
-0.0809228
-0.0777184
-0.0741521
-0.0702662
-0.0661058
-0.0617182
-0.0571524
-0.0524555
-0.0476764
-0.042855
-0.0380429
-0.0332539
-0.0285688
-0.0239142
-0.0195125
-0.0149778
-0.0110982
-0.00635932
-0.00355904
-0.0986402
-0.0982291
-0.0972853
-0.0958173
-0.0938407
-0.0913769
-0.0884539
-0.0851053
-0.0813707
-0.0772942
-0.0729235
-0.0683089
-0.063502
-0.0585546
-0.0535167
-0.0484382
-0.0433602
-0.0383323
-0.0333711
-0.028549
-0.0238031
-0.0193329
-0.0147862
-0.0108973
-0.00622213
-0.00351518
-0.105848
-0.104341
-0.102295
-0.0997326
-0.0966817
-0.0931769
-0.089259
-0.084974
-0.0803718
-0.0755057
-0.0704304
-0.0652012
-0.0598728
-0.0544971
-0.049124
-0.0437962
-0.0385594
-0.0334344
-0.0284812
-0.023654
-0.0191159
-0.0145723
-0.0106602
-0.00608172
-0.0034222
-0.113603
-0.111485
-0.108819
-0.105633
-0.101963
-0.0978509
-0.0933432
-0.0884925
-0.0833544
-0.0779871
-0.0724495
-0.0667999
-0.061095
-0.0553882
-0.0497287
-0.0441604
-0.0387237
-0.0334451
-0.0283676
-0.0234702
-0.0188645
-0.0143402
-0.0103878
-0.00594293
-0.00327198
-0.121423
-0.11865
-0.115326
-0.111485
-0.10717
-0.10243
-0.0973178
-0.0918921
-0.0862136
-0.0803449
-0.0743483
-0.0682848
-0.0622119
-0.0561844
-0.0502495
-0.0444524
-0.0388265
-0.0334059
-0.0282117
-0.0232559
-0.0185823
-0.0140945
-0.0100821
-0.00581074
-0.00305823
-0.129231
-0.125765
-0.12175
-0.117229
-0.11225
-0.106869
-0.101145
-0.095141
-0.0889238
-0.0825593
-0.0761122
-0.0696457
-0.0632175
-0.0568827
-0.0506859
-0.0446739
-0.0388708
-0.0333209
-0.0280178
-0.023016
-0.0182738
-0.0138399
-0.00974598
-0.00568991
-0.0027771
-0.136944
-0.132754
-0.128027
-0.122808
-0.117153
-0.111125
-0.104788
-0.0982113
-0.0914635
-0.0846143
-0.0777305
-0.0708762
-0.0641086
-0.057483
-0.05104
-0.0448284
-0.038861
-0.0331954
-0.0277913
-0.0227561
-0.0179438
-0.0135815
-0.00938301
-0.00558474
-0.00242741
-0.144478
-0.139546
-0.134089
-0.128164
-0.121833
-0.115161
-0.108219
-0.10108
-0.0938158
-0.0864987
-0.0791963
-0.0719733
-0.0648852
-0.0579875
-0.0513155
-0.0449209
-0.0388027
-0.0330351
-0.0275376
-0.0224818
-0.0175972
-0.0133239
-0.00899728
-0.00549885
-0.00201075
-0.15175
-0.146064
-0.139876
-0.133248
-0.126247
-0.118943
-0.111412
-0.103729
-0.095969
-0.0882058
-0.080507
-0.0729374
-0.0655503
-0.0584007
-0.051518
-0.0449576
-0.0387021
-0.0328466
-0.0272627
-0.0221986
-0.0172389
-0.0130715
-0.00859324
-0.00543497
-0.00153124
-0.158683
-0.152247
-0.145336
-0.138018
-0.130363
-0.122448
-0.11435
-0.106147
-0.0979173
-0.0897337
-0.081664
-0.0737722
-0.066109
-0.058729
-0.0516543
-0.0449454
-0.0385659
-0.0326361
-0.0269723
-0.021912
-0.0168736
-0.0128284
-0.00817541
-0.00539488
-0.000995198
-0.165213
-0.158042
-0.150427
-0.142441
-0.134158
-0.125659
-0.117023
-0.108331
-0.0996603
-0.0910852
-0.0826722
-0.0744843
-0.0665687
-0.05898
-0.051732
-0.0448917
-0.0384009
-0.0324098
-0.0266717
-0.0216267
-0.0165056
-0.0125976
-0.00774825
-0.00537934
-0.000410742
-0.17129
-0.163409
-0.155119
-0.146497
-0.137619
-0.12857
-0.11943
-0.110282
-0.101203
-0.092267
-0.0835395
-0.0750821
-0.066938
-0.0591622
-0.0517589
-0.0448036
-0.0382133
-0.0321735
-0.0263659
-0.021347
-0.0161386
-0.0123819
-0.00731601
-0.00538815
0.000212831
-0.176879
-0.168324
-0.159397
-0.150176
-0.140743
-0.131182
-0.121575
-0.112007
-0.102553
-0.0932888
-0.0842759
-0.0755756
-0.0672264
-0.0592843
-0.051743
-0.0446883
-0.0380094
-0.0319324
-0.026059
-0.0210764
-0.015776
-0.012183
-0.00688263
-0.00542028
0.000865615
-0.181965
-0.17278
-0.163259
-0.153483
-0.143537
-0.133504
-0.12347
-0.113518
-0.103724
-0.0941627
-0.0848931
-0.0759756
-0.0674436
-0.059355
-0.0516917
-0.0445522
-0.0377943
-0.0316908
-0.0257549
-0.0208175
-0.0154204
-0.0120023
-0.0064517
-0.00547399
0.00153761
-0.186549
-0.176781
-0.166713
-0.156429
-0.146013
-0.135551
-0.125129
-0.11483
-0.10473
-0.0949019
-0.085403
-0.0762927
-0.0675991
-0.0593824
-0.0516118
-0.0444009
-0.0375726
-0.0314523
-0.0254563
-0.0205724
-0.0150741
-0.01184
-0.00602638
-0.00554704
0.0022192
-0.190643
-0.180343
-0.169778
-0.159032
-0.14819
-0.13734
-0.126569
-0.115959
-0.105585
-0.0955196
-0.0858174
-0.0765373
-0.0677015
-0.0593738
-0.0515094
-0.0442391
-0.0373482
-0.0312198
-0.0251657
-0.0203424
-0.0147388
-0.0116963
-0.00560939
-0.00563687
0.00290147
-0.194269
-0.183488
-0.172474
-0.161312
-0.150089
-0.138892
-0.127808
-0.11692
-0.106304
-0.0960289
-0.0861478
-0.0767192
-0.0677593
-0.0593363
-0.0513901
-0.0440714
-0.0371245
-0.0309958
-0.024885
-0.0201285
-0.014416
-0.0115709
-0.00520312
-0.00574084
0.00357641
-0.197461
-0.18625
-0.174836
-0.163303
-0.151739
-0.140232
-0.128871
-0.117738
-0.106907
-0.0964476
-0.0864093
-0.0768513
-0.067783
-0.0592782
-0.0512606
-0.043903
-0.0369055
-0.0307828
-0.0246165
-0.0199314
-0.0141073
-0.0114627
-0.00481014
-0.00585556
0.0042366
-0.200328
-0.188726
-0.176948
-0.165077
-0.153203
-0.141417
-0.129804
-0.118449
-0.107425
-0.0967995
-0.0866204
-0.0769473
-0.0677826
-0.0592065
-0.0511255
-0.0437359
-0.0366923
-0.0305803
-0.0243599
-0.0197489
-0.0138128
-0.0113684
-0.00443288
-0.00597544
0.00487537
-0.202943
-0.19097
-0.178846
-0.166657
-0.154492
-0.142444
-0.130598
-0.11904
-0.107839
-0.0970645
-0.08676
-0.0769858
-0.0677372
-0.0591011
-0.0509661
-0.0435533
-0.0364702
-0.0303749
-0.0241046
-0.0195713
-0.0135261
-0.0112817
-0.00406853
-0.00609781
0.00549124
-0.204647
-0.192392
-0.180011
-0.167588
-0.155214
-0.14298
-0.130973
-0.119276
-0.107958
-0.0970882
-0.0867053
-0.0768715
-0.067574
-0.0589088
-0.0507438
-0.0433302
-0.0362212
-0.0301601
-0.0238428
-0.0194039
-0.01324
-0.0112174
-0.00370216
-0.00624789
0.00609595
-0.216178
-0.204182
-0.191988
-0.179666
-0.167296
-0.154966
-0.142769
-0.130792
-0.119119
-0.107819
-0.0969623
-0.0865879
-0.0767627
-0.0674663
-0.0588096
-0.0506364
-0.0432389
-0.0361045
-0.0300827
-0.0237022
-0.0193592
-0.0130479
-0.0112463
-0.00340311
-0.00643849
0.00659393
-0.215528
-0.203466
-0.191222
-0.178863
-0.166472
-0.154137
-0.141949
-0.129993
-0.118353
-0.107094
-0.0962866
-0.0859643
-0.076195
-0.0669527
-0.0583532
-0.0502286
-0.0428879
-0.035788
-0.0298278
-0.023454
-0.0191955
-0.0128333
-0.0111855
-0.00316279
-0.00653574
0.00697543
-0.214488
-0.202371
-0.190086
-0.177704
-0.165309
-0.152987
-0.14083
-0.12892
-0.117337
-0.106144
-0.0954085
-0.0851616
-0.0754692
-0.0663021
-0.057777
-0.0497199
-0.0424483
-0.0354016
-0.0295086
-0.0231631
-0.0189847
-0.0126016
-0.0110881
-0.00292935
-0.00660131
0.00734537
-0.213454
-0.201304
-0.188998
-0.176609
-0.164221
-0.151922
-0.139801
-0.127938
-0.11641
-0.10528
-0.094612
-0.0844341
-0.0748115
-0.065712
-0.0572537
-0.0492568
-0.0420472
-0.0350473
-0.0292152
-0.0228935
-0.0187899
-0.0123831
-0.010999
-0.00270475
-0.00666739
0.00770758
-0.212449
-0.200276
-0.187958
-0.175568
-0.163193
-0.150921
-0.138836
-0.12702
-0.115547
-0.104477
-0.0938718
-0.0837587
-0.0742011
-0.0651644
-0.0567681
-0.0488266
-0.0416745
-0.0347173
-0.0289425
-0.0226408
-0.0186095
-0.0121758
-0.0109193
-0.00248733
-0.00673678
0.00806229
-0.223421
-0.211433
-0.199245
-0.186921
-0.174537
-0.16218
-0.149936
-0.137891
-0.126123
-0.114706
-0.103696
-0.0931533
-0.0831039
-0.0736101
-0.0646348
-0.0562989
-0.0484114
-0.0413152
-0.0343994
-0.0286803
-0.0223978
-0.0184368
-0.0119763
-0.0108444
-0.00227698
-0.00680635
0.00840826
-0.222401
-0.210403
-0.198209
-0.185886
-0.173514
-0.161179
-0.148968
-0.136965
-0.125248
-0.113886
-0.102936
-0.0924555
-0.082469
-0.0730378
-0.0641225
-0.0558454
-0.0480105
-0.0409685
-0.034093
-0.0284277
-0.022164
-0.0182709
-0.0117846
-0.0107734
-0.00207426
-0.00687492
0.00874427
-0.221366
-0.209369
-0.197178
-0.184864
-0.172509
-0.1602
-0.148026
-0.136067
-0.1244
-0.113094
-0.102203
-0.0917841
-0.0818589
-0.0724884
-0.0636311
-0.0554107
-0.0476265
-0.0406366
-0.0337998
-0.0281861
-0.0219406
-0.0181127
-0.0116014
-0.0107065
-0.00187974
-0.00694227
0.00906924
-0.220325
-0.208339
-0.196158
-0.183859
-0.171527
-0.159249
-0.147113
-0.1352
-0.123584
-0.112334
-0.101501
-0.0911417
-0.0812759
-0.0719638
-0.0631625
-0.0549963
-0.0472607
-0.0403205
-0.0335209
-0.0279563
-0.0217282
-0.0179626
-0.0114271
-0.0106439
-0.00169391
-0.00700815
0.0093821
-0.219284
-0.207317
-0.195155
-0.182878
-0.170573
-0.158329
-0.146234
-0.134367
-0.122803
-0.111607
-0.100831
-0.0905297
-0.0807212
-0.0714653
-0.0627174
-0.0546031
-0.0469139
-0.0400209
-0.0332568
-0.0277388
-0.0215272
-0.0178208
-0.011262
-0.0105856
-0.0015172
-0.00707221
0.00968178
-0.218251
-0.206312
-0.194175
-0.181925
-0.169651
-0.157444
-0.145391
-0.133572
-0.122058
-0.110916
-0.100196
-0.0899498
-0.0801962
-0.0709939
-0.062297
-0.0542319
-0.0465867
-0.0397383
-0.0330078
-0.0275339
-0.0213379
-0.0176876
-0.0111065
-0.0105314
-0.00135006
-0.00713409
0.0099672
-0.217235
-0.205331
-0.193225
-0.181006
-0.168767
-0.156599
-0.144589
-0.132817
-0.121353
-0.110264
-0.0995964
-0.0894036
-0.0797023
-0.0705509
-0.0619022
-0.0538835
-0.0462797
-0.0394734
-0.0327745
-0.027342
-0.0211606
-0.0175631
-0.0109608
-0.0104814
-0.0011929
-0.00719342
0.0102373
-0.227811
-0.216245
-0.204381
-0.192311
-0.180127
-0.167925
-0.155797
-0.143831
-0.132105
-0.120691
-0.109651
-0.0990349
-0.0888926
-0.0792408
-0.0701373
-0.0615339
-0.0535586
-0.0459938
-0.0392267
-0.0325573
-0.0271634
-0.0209958
-0.0174476
-0.0108252
-0.0104356
-0.00104613
-0.00724985
0.0104911
-0.226803
-0.215292
-0.203472
-0.19144
-0.179294
-0.167131
-0.155044
-0.143121
-0.13144
-0.120073
-0.109081
-0.0985131
-0.0884185
-0.078813
-0.0697542
-0.061193
-0.0532582
-0.0457295
-0.0389988
-0.0323568
-0.0269986