/*--------------------------------*- C++ -*----------------------------------*\
  =========                 |
  \\      /  F ield         | OpenFOAM: The Open Source CFD Toolbox
   \\    /   O peration     | Website:  https://openfoam.org
    \\  /    A nd           | Version:  7
     \\/     M anipulation  |
\*---------------------------------------------------------------------------*/
FoamFile
{
    version     2.0;
    format      ascii;
    class       surfaceScalarField;
    location    "40";
    object      phi;
}
// * * * * * * * * * * * * * * * * * * * * * * * * * * * * * * * * * * * * * //

dimensions      [0 3 -1 0 0 0 0];

internalField   nonuniform List<scalar> 
5905
(
-4.94383e-05
-2.86038e-05
3.00872e-11
-1.50065e-05
-3.44318e-05
2.83289e-11
2.48272e-05
-3.98338e-05
2.53095e-11
6.95635e-05
-4.47363e-05
2.08342e-11
0.00011867
-4.91068e-05
1.47506e-11
0.000171611
-5.29404e-05
6.95066e-12
0.000227861
-5.62502e-05
-2.61222e-12
0.000286919
-5.90585e-05
-1.39017e-11
0.000348312
-6.13928e-05
-2.67916e-11
0.000411593
-6.32813e-05
-4.10373e-11
0.000476346
-6.47522e-05
-5.62677e-11
0.000542178
-6.58317e-05
-7.19738e-11
0.000608724
-6.65459e-05
-8.75065e-11
0.000675639
-6.69157e-05
-1.02083e-10
0.000742608
-6.69685e-05
-1.14809e-10
0.000809322
-6.67137e-05
-1.24712e-10
0.000875518
-6.61962e-05
-1.30806e-10
0.000940903
-6.53846e-05
-1.32156e-10
0.0010053
-6.44022e-05
-1.27979e-10
0.00106837
-6.30624e-05
-1.17745e-10
0.00113016
-6.17889e-05
-1.01289e-10
0.00118998
-5.98229e-05
-7.90068e-11
0.00124865
-5.86677e-05
-5.17181e-11
0.00130421
-5.5558e-05
-2.13183e-11
0.00135987
-5.56602e-05
1.05176e-11
0.00140951
-4.96473e-05
3.96483e-11
0.00146331
-5.38012e-05
6.55032e-11
-4.1766e-05
7.65448e-11
-4.23572e-05
-5.72394e-05
-7.94803e-06
-6.8841e-05
3.18118e-05
-7.95936e-05
7.64286e-05
-8.9353e-05
0.000125377
-9.80552e-05
0.000178128
-0.000105691
0.000234164
-0.000112286
0.00029299
-0.000117885
0.000354137
-0.00012254
0.000417166
-0.00012631
0.000481661
-0.000129248
0.000547236
-0.000131406
0.000613527
-0.000132837
0.000680193
-0.000133582
0.000746918
-0.000133694
0.000813397
-0.000133193
0.000879369
-0.000132167
0.000944539
-0.000130555
0.00100874
-0.000128603
0.00107161
-0.000125936
0.00113323
-0.000123403
0.00119289
-0.000119485
0.00125141
-0.00011719
0.00130684
-0.000110986
0.00136238
-0.000111206
0.00141194
-9.92024e-05
0.00146565
-0.000107515
-8.35089e-05
-2.82568e-05
-8.59357e-05
6.10455e-06
-0.000103202
4.57146e-05
-0.000119204
9.0091e-05
-0.000133729
0.000138722
-0.000146687
0.000191094
-0.000158062
0.000246702
-0.000167894
0.000305064
-0.000176247
0.000365724
-0.0001832
0.000428249
-0.000188835
0.000492233
-0.000193233
0.000557297
-0.00019647
0.000623082
-0.000198622
0.000689251
-0.000199751
0.000755494
-0.000199936
0.000821506
-0.000199205
0.000887031
-0.000197692
0.000951777
-0.000195301
0.00101558
-0.000192402
0.00107807
-0.000188434
0.00113934
-0.000184669
0.00119868
-0.000178827
0.00125692
-0.000175422
0.00131209
-0.000166157
0.00136741
-0.000166524
0.00141678
-0.000148575
0.00147032
-0.000161058
-0.000125207
-7.25938e-06
-0.000114715
2.70231e-05
-0.000137485
6.64032e-05
-0.000158584
0.000110416
-0.000177742
0.00015857
-0.000194841
0.000210373
-0.000209865
0.000265342
-0.000222863
0.000323013
-0.000233918
0.000382945
-0.000243132
0.00044472
-0.00025061
0.000507946
-0.000256458
0.00057225
-0.000260774
0.000637283
-0.000263656
0.000702716
-0.000265183
0.000768242
-0.000265463
0.000833564
-0.000264527
0.000898427
-0.000262555
0.000962544
-0.000259418
0.00102575
-0.000255609
0.00108769
-0.000250377
0.00114845
-0.000245421
0.00120732
-0.000237699
0.00126512
-0.000233228
0.00131992
-0.00022095
0.0013749
-0.000221508
0.00142401
-0.000197681
0.0014773
-0.000214349
-0.000166842
2.04527e-05
-0.000143591
5.46176e-05
-0.00017165
9.36815e-05
-0.000197648
0.000137203
-0.000221263
0.000184719
-0.000242357
0.000235765
-0.000260911
0.000289885
-0.000276983
0.000346641
-0.000290674
0.000405612
-0.000302103
0.0004664
-0.000311398
0.000528626
-0.000318684
0.00059193
-0.000324078
0.000655976
-0.000327702
0.000720441
-0.000329648
0.000785028
-0.000330049
0.000849444
-0.000328943
0.00091344
-0.000326552
0.000976734
-0.000322712
0.00103916
-0.00031804
0.00110038
-0.000311595
0.00116046
-0.000305502
0.00121872
-0.000295955
0.00127597
-0.000290479
0.00133027
-0.00027525
0.00138482
-0.000276058
0.00143358
-0.000246442
0.00148655
-0.000267315
-0.000208401
5.46409e-05
-0.000172562
8.86384e-05
-0.000205647
0.000127291
-0.000236301
0.000170189
-0.000264161
0.000216903
-0.000289071
0.000267004
-0.000311012
0.000320071
-0.00033005
0.000375694
-0.000346297
0.000433479
-0.000359889
0.00049305
-0.000370969
0.000554046
-0.000379679
0.000616123
-0.000386156
0.000678957
-0.000390536
0.000742237
-0.000392928
0.000805673
-0.000393485
0.000868981
-0.000392251
0.000931918
-0.00038949
0.000994207
-0.000385
0.00105569
-0.000379526
0.00111603
-0.000371929
0.00117529
-0.000364768
0.0012328
-0.000353464
0.00128938
-0.000347055
0.00134308
-0.000328954
0.00139711
-0.000330085
0.00144546
-0.000294789
0.00149803
-0.000319891
-0.000249876
9.50126e-05
-0.000201613
0.000128779
-0.000239413
0.000166915
-0.000274437
0.000209049
-0.000306295
0.000254796
-0.000334817
0.000303766
-0.000359983
0.000355579
-0.000381863
0.000409859
-0.000400577
0.000466243
-0.000416273
0.000524379
-0.000429104
0.000583928
-0.000439228
0.000644564
-0.000446793
0.000705978
-0.000451949
0.000767869
-0.000454819
0.00082996
-0.000455576
0.000891973
-0.000454264
0.000953675
-0.000451192
0.00101479
-0.000446117
0.00107518
-0.00043991
0.00113448
-0.000431236
0.0011928
-0.000423085
0.00124945
-0.000410107
0.00130524
-0.000402852
0.00135826
-0.000381973
0.00141169
-0.000383511
0.00145956
-0.000342665
0.0015117
-0.000372024
-0.000291267
0.000141224
-0.000230707
0.000174678
-0.000272867
0.00021218
-0.00031194
0.000253405
-0.000347519
0.000298014
-0.000379427
0.00034567
-0.000407639
0.000396034
-0.000432227
0.000448771
-0.000453313
0.000503549
-0.000471051
0.000560046
-0.000485602
0.000617947
-0.000497129
0.000676945
-0.000505791
0.000736746
-0.00051175
0.000797064
-0.000515138
0.000857633
-0.000516145
0.000918184
-0.000514816
0.000978493
-0.0005115
0.00103829
-0.000505915
0.00109744
-0.000499057
0.00115559
-0.00048939
0.00121285
-0.000480342
0.00126852
-0.000465783
0.00132345
-0.000457781
0.00137571
-0.000434229
0.00142847
-0.000436272
0.00147583
-0.000390027
0.00152748
-0.000423674
-0.000332583
0.000192885
-0.000259781
0.000225925
-0.000305906
0.000262662
-0.000348678
0.000302821
-0.000387679
0.000346123
-0.000422729
0.000392283
-0.000453798
0.00044101
-0.000480954
0.000492012
-0.000504316
0.000544995
-0.000524034
0.000599665
-0.000540272
0.000655734
-0.000553198
0.000712915
-0.000562972
0.000770932
-0.000569767
0.000829513
-0.000573719
0.000888403
-0.000575035
0.000947345
-0.000573758
0.00100612
-0.000570276
0.00106447
-0.000564265
0.00112226
-0.000556848
0.00117916
-0.000546284
0.00123526
-0.000536442
0.00128988
-0.000520407
0.00134387
-0.00051177
0.00139531
-0.000485665
0.00144736
-0.000488319
0.00149417
-0.000436845
0.00154531
-0.000474813
-0.000373845
0.00024956
-0.000288745
0.000282062
-0.000338408
0.000317886
-0.000384501
0.000356816
-0.00042661
0.000398637
-0.00046455
0.000443122
-0.000498283
0.000490033
-0.000527865
0.000539122
-0.000553405
0.000590135
-0.000575046
0.000642808
-0.000592946
0.00069688
-0.000607269
0.000752087
-0.000618178
0.00080817
-0.00062585
0.000864872
-0.000630421
0.000921951
-0.000632114
0.00097916
-0.000630966
0.00103629
-0.000627407
0.00109309
-0.000621063
0.00114943
-0.000613189
0.00120498
-0.000601834
0.00125985
-0.00059131
0.00131336
-0.000573917
0.00136635
-0.000564766
0.00141693
-0.00053624
0.00146823
-0.000539625
0.0015145
-0.000483108
0.00156511
-0.000525432
-0.000415083
0.000310775
-0.000317476
0.00034259
-0.000370223
0.000377334
-0.000419245
0.000414864
-0.000464139
0.000455029
-0.000504715
0.000497665
-0.000540919
0.00054259
-0.000572789
0.000589603
-0.000600418
0.000638486
-0.00062393
0.000689013
-0.000643472
0.000740945
-0.000659202
0.000794043
-0.000671276
0.000848066
-0.000679872
0.000902772
-0.000685127
0.000957931
-0.000687274
0.00101331
-0.000686342
0.0010687
-0.000682801
0.00112386
-0.000676228
0.00117868
-0.000668007
0.00123283
-0.000655977
0.00128641
-0.000644896
0.00133876
-0.00062627
0.00139074
-0.000616737
0.00144043
-0.000585934
0.00149098
-0.000590175
0.00153669
-0.000528821
0.0015868
-0.000575538
-0.00045634
0.000376016
0.000406967
-0.000401174
0.00044045
-0.000452729
0.000476397
-0.000500086
0.000514731
-0.000543048
0.000555351
-0.00058154
0.000598132
-0.00061557
0.000642919
-0.000645205
0.000689536
-0.000670547
0.000737786
-0.000691722
0.00078746
-0.000708876
0.000838339
-0.000722155
0.0008902
-0.000731734
0.000942818
-0.000737744
0.000995975
-0.000740431
0.00104944
-0.000739811
0.00110304
-0.000736393
0.00115651
-0.000729703
0.00120976
-0.000721257
0.00126246
-0.000708675
0.00131473
-0.00069717
0.00136591
-0.000677447
0.00141685
-0.000667674
0.00146566
-0.000634747
0.00151546
-0.000639981
0.00156065
-0.000574009
0.00161027
-0.000625155
-0.000497671
0.000474617
-0.000431057
0.000506639
-0.000484751
0.000540816
-0.000534263
0.000577144
-0.000579376
0.000615589
-0.000619985
0.000656081
-0.000656062
0.000698511
-0.000687635
0.000742743
-0.000714778
0.00078861
-0.00073759
0.000835931
-0.000756197
0.000884507
-0.000770731
0.000934134
-0.000781361
0.000984599
-0.00078821
0.0010357
-0.00079153
0.00108721
-0.000791327
0.00113897
-0.000788146
0.00119072
-0.000781459
0.00124238
-0.000772916
0.00129362
-0.000759916
0.00134458
-0.000748127
0.00139459
-0.000727452
0.0014445
-0.000717589
0.00149246
-0.000682703
0.00154155
-0.00068907
0.00158625
-0.000618718
0.00163543
-0.00067433
-0.000539147
0.000544928
-0.000459636
0.000575275
-0.000515097
0.000607487
-0.000566475
0.000641639
-0.000613528
0.000677761
-0.000656107
0.000715834
-0.000694135
0.000755797
-0.000727598
0.000797547
-0.000756528
0.000840951
-0.000780994
0.00088585
-0.000801096
0.000932066
-0.000816947
0.000979412
-0.000828707
0.00102769
-0.000836486
0.0010767
-0.000840544
0.00112625
-0.000840871
0.00117615
-0.00083805
0.00122619
-0.000831494
0.00127626
-0.000822991
0.00132606
-0.000809712
0.00137572
-0.000797789
0.00142458
-0.000776313
0.00147351
-0.000766518
0.00152065
-0.000729847
0.00156908
-0.000737494
0.00161337
-0.000663011
0.00166217
-0.000723127
-0.000580851
0.00061726
-0.000486652
0.000645702
-0.000543539
0.000675756
-0.00059653
0.000707568
-0.000645341
0.00074123
-0.000689768
0.000776774
-0.000729679
0.000814179
-0.000765003
0.000853377
-0.000795726
0.000894262
-0.000821878
0.000936697
-0.000843531
0.000980524
-0.000860775
0.00102557
-0.000873753
0.00107165
-0.000882566
0.00111858
-0.000887475
0.00116616
-0.000888452
0.00121424
-0.000886121
0.00126257
-0.000879833
0.0013111
-0.000871514
0.00135949
-0.000858104
0.0014079
-0.000846202
0.00145567
-0.000824085
0.00150368
-0.000814522
0.00155007
-0.000776246
0.00159791
-0.000785326
0.00164187
-0.000706976
0.00169038
-0.000771631
-0.000622882
0.00069094
-0.000511823
0.000717241
-0.00056984
0.000744945
-0.000624233
0.000774265
-0.000674661
0.000805348
-0.000720851
0.000838271
-0.000762603
0.000873052
-0.000799783
0.000909651
-0.000832326
0.000947988
-0.000860215
0.000987947
-0.00088349
0.00102939
-0.000902213
0.00107214
-0.000916512
0.00111605
-0.00092647
0.00116092
-0.000932352
0.00120658
-0.00093411
0.00125287
-0.000932406
0.00129956
-0.000926527
0.00134659
-0.000918542
0.00139364
-0.000905154
0.00144088
-0.000893437
0.00148763
-0.000870843
0.00153479
-0.000861682
0.00158054
-0.000821992
0.00162787
-0.00083266
0.00167162
-0.00075072
0.00171993
-0.000819947
-0.000665351
0.000765272
-0.000534846
0.000789194
-0.000593762
0.000814363
-0.000649402
0.000841052
-0.00070135
0.000869456
-0.000749255
0.000899692
-0.000792838
0.000931807
-0.000831898
0.000965789
-0.000866308
0.00100158
-0.000896004
0.00103908
-0.000920988
0.00107815
-0.00094129
0.00111866
-0.000957022
0.00116044
-0.000968247
0.00120332
-0.000975233
0.00124712
-0.000977909
0.00129169
-0.000976977
0.00133682
-0.000971656
0.00138244
-0.000964162
0.00142824
-0.000950955
0.00147439
-0.000939589
0.00152024
-0.00091669
0.00156666
-0.000908106
0.00161187
-0.000867198
0.00165882
-0.000879611
0.00170247
-0.000794369
0.00175072
-0.000868203
-0.000708388
0.000839538
-0.000555415
0.000860847
-0.000615072
0.00088331
-0.000671865
0.00090725
-0.00072529
0.0009329
-0.000774905
0.000960406
-0.000820345
0.000989842
-0.000861334
0.00102122
-0.000897682
0.00105449
-0.000929274
0.00108957
-0.000956068
0.00112634
-0.000978064
0.00116467
-0.000995353
0.0012044
-0.00100798
0.00124537
-0.0010162
0.0012874
-0.00101994
0.00133036
-0.00101993
0.00137403
-0.00101532
0.00141835
-0.00100848
0.00146301
-0.00099562
0.0015082
-0.000984777
0.00155326
-0.000961749
0.00159908
-0.000953921
0.00164388
-0.000911997
0.00169058
-0.000926318
0.00173428
-0.000838072
0.00178263
-0.000916544
-0.000752132
0.000913
0.000931478
-0.00063355
0.000951086
-0.000691474
0.000972184
-0.000746388
0.000995029
-0.00079775
0.00101979
-0.000845108
0.00104656
-0.000888106
0.00107537
-0.000926487
0.00110618
-0.000960081
0.00113891
-0.000988804
0.00117347
-0.00101262
0.00120971
-0.0010316
0.0012475
-0.00104576
0.00128667
-0.00105538
0.00132706
-0.00106033
0.00136852
-0.0010614
0.00141086
-0.00105766
0.00145401
-0.00105164
0.00149768
-0.00103929
0.00154205
-0.00102915
0.00158647
-0.00100617
0.00163183
-0.000999279
0.00167638
-0.000956548
0.001723
-0.000972937
0.00176692
-0.000881997
0.00181551
-0.000965135
-0.00079674
0.00100036
-0.000649003
0.00101699
-0.000708108
0.00103519
-0.000764579
0.00105521
-0.000817773
0.00107725
-0.000867145
0.0011014
-0.000912259
0.0011277
-0.00095279
0.00115613
-0.000988512
0.00118663
-0.0010193
0.00121908
-0.00104507
0.00125336
-0.00106589
0.00128934
-0.00108173
0.00132685
-0.00109289
0.00136573
-0.00109921
0.00140586
-0.00110152
0.00144701
-0.00109882
0.00148916
-0.00109378
0.00153199
-0.00108212
0.0015757
-0.00107286
0.00161964
-0.00105011
0.00166471
-0.00104435
0.00170919
-0.00100102
0.0017559
-0.00101965
0.00180023
-0.000926329
0.00184926
-0.00101416
-0.00084238
0.00106676
-0.000661273
0.00108034
-0.000721683
0.0010956
-0.000779837
0.00111282
-0.00083499
0.00113218
-0.000886506
0.00115379
-0.00093387
0.00117769
-0.000976691
0.00120386
-0.00101468
0.00123224
-0.00104767
0.00126273
-0.00107556
0.0012952
-0.00109836
0.00132952
-0.00111605
0.00136553
-0.00112891
0.00140308
-0.00113676
0.00144203
-0.00114047
0.00148218
-0.00113897
0.0015235
-0.0011351
0.00156567
-0.00112429
0.00160891
-0.00111609
0.00165257
-0.00109377
0.00169754
-0.00108932
0.00174214
-0.00104562
0.00178913
-0.00106664
0.00183408
-0.000971273
0.00188374
-0.00106383
-0.000889232
0.00112996
-0.000670246
0.00114043
-0.000732158
0.00115277
-0.000792172
0.00116723
-0.000849452
0.001184
-0.000903275
0.00120318
-0.00095305
0.0012248
-0.000998318
0.00124886
-0.00103874
0.00127528
-0.0010741
0.00130398
-0.00110425
0.00133481
-0.0011292
0.00136766
-0.0011489
0.00140237
-0.00116362
0.00143877
-0.00117316
0.00147674
-0.00117844
0.00151608
-0.00117832
0.00155677
-0.00117578
0.00159849
-0.00116601
0.00164145
-0.00115906
0.00168503
-0.00113735
0.00173012
-0.00113441
0.00177505
-0.00109056
0.00182253
-0.00111412
0.00186831
-0.00101705
0.00191883
-0.00111434
-0.000937491
0.00118933
-0.00067586
0.0011967
-0.00073953
0.00120616
-0.000801631
0.00121795
-0.000861242
0.00123224
-0.000917564
0.00124912
-0.000969932
0.00126863
-0.00101783
0.00129074
-0.00106085
0.00131538
-0.00109874
0.00134247
-0.00113133
0.00137187
-0.0011586
0.00140344
-0.00118047
0.00143704
-0.00119722
0.0014725
-0.00120862
0.00150971
-0.00121565
0.00154846
-0.00121707
0.00158872
-0.00121604
0.0016302
-0.00120749
0.00167312
-0.00120197
0.00171684
-0.00118107
0.00176225
-0.00117982
0.00180774
-0.00113605
0.00185595
-0.00116233
0.0019028
-0.00106389
0.00195441
-0.00116595
-0.000987358
0.00124442
0.00124877
-0.000743873
0.00125546
-0.00080832
0.0012647
-0.000870492
0.00127666
-0.00092952
0.00129141
-0.000984677
0.00130896
-0.00103538
0.0013293
-0.00108119
0.00135235
-0.0011218
0.00137802
-0.001157
0.00140617
-0.00118675
0.00143666
-0.00121096
0.00146936
-0.00122991
0.00150409
-0.00124335
0.00154074
-0.0012523
0.00157911
-0.00125544
0.00161917
-0.0012561
0.00166064
-0.00124896
0.00170371
-0.00124505
0.00174782
-0.00122518
0.00179377
-0.00122577
0.0018401
-0.00118238
0.0018892
-0.00121143
0.00193747
-0.00111216
0.00199024
-0.00121872
-0.00103917
0.00271113
-0.000737961
0.00270675
-0.000803937
0.00270413
-0.000867876
0.00270351
-0.000928896
0.00270507
-0.000986237
0.00270896
-0.00103927
0.00271528
-0.00108751
0.00272407
-0.00113059
0.00273535
-0.00116827
0.00274905
-0.00120045
0.0027651
-0.00122701
0.00278339
-0.0012482
0.00280379
-0.00126375
0.00282612
-0.00127463
0.00285027
-0.00127958
0.002876
-0.00128184
0.00290326
-0.00127622
0.00293175
-0.00127354
0.00296151
-0.00125493
0.00299224
-0.0012565
0.00302395
-0.0012141
0.00305667
-0.00124415
0.00308998
-0.00114548
0.00312456
-0.00125329
-0.00107488
0.00307834
-0.000722381
0.00306496
-0.000790558
0.00305389
-0.000856803
0.00304525
-0.000920258
0.00303917
-0.000980158
0.00303575
-0.00103585
0.00303505
-0.00108681
0.00303711
-0.00113265
0.00304189
-0.00117306
0.00304935
-0.00120791
0.0030594
-0.00123706
0.0030719
-0.0012607
0.00308674
-0.00127858
0.00310371
-0.0012916
0.00312271
-0.00129859
0.00314347
-0.0013026
0.00316598
-0.00129873
0.00318983
-0.0012974
0.00321525
-0.00128035
0.0032416
-0.00128285
0.00326945
-0.00124195
0.0032979
-0.0012726
0.0033281
-0.00117569
0.00335816
-0.00128336
-0.00110822
0.00348435
-0.000695991
0.00346087
-0.000767075
0.00344027
-0.000836203
0.00342258
-0.000902572
0.00340786
-0.00096544
0.00339616
-0.00102415
0.00338751
-0.00107816
0.00338191
-0.00112705
0.00337933
-0.00117047
0.00337968
-0.00120827
0.00338289
-0.00124026
0.0033888
-0.00126661
0.00339728
-0.00128707
0.00340814
-0.00130245
0.00342125
-0.0013117
0.00343634
-0.00131768
0.0034534
-0.00131579
0.00347198
-0.00131598
0.00349238
-0.00130075
0.0035138
-0.00130427
0.0035371
-0.00126526
0.00356084
-0.00129633
0.00358713
-0.00120198
0.00361249
-0.00130871
-0.00113842
0.00392879
-0.000658095
0.00389443
-0.000732716
0.00386349
-0.000805264
0.00383593
-0.000875011
0.00381175
-0.000941252
0.00379094
-0.00100334
0.0037735
-0.00106073
0.00375943
-0.00111297
0.00374866
-0.0011597
0.00374112
-0.00120072
0.00373669
-0.00123584
0.00373524
-0.00126516
0.00373662
-0.00128845
0.00374063
-0.00130646
0.00374715
-0.00131822
0.00375587
-0.0013264
0.00376681
-0.00132673
0.00377947
-0.00132864
0.00379421
-0.00131548
0.00381009
-0.00132015
0.00382824
-0.00128341
0.00384669
-0.00131478
0.00386851
-0.0012238
0.00388858
-0.00132877
-0.00116494
0.00441003
-0.000608591
0.0043645
-0.000687185
0.0043228
-0.000763564
0.00428485
-0.000837065
0.00425062
-0.000907021
0.00422009
-0.00097281
0.00419323
-0.00103388
0.00417002
-0.00108976
0.00415039
-0.00114007
0.00413426
-0.00118459
0.00412151
-0.0012231
0.00411201
-0.00125566
0.00410562
-0.00128205
0.0041021
-0.00130295
0.00410136
-0.00131747
0.00410306
-0.00132811
0.00410724
-0.0013309
0.00411336
-0.00133476
0.00412182
-0.00132395
0.00413158
-0.00132991
0.00414399
-0.00129582
0.00415658
-0.00132738
0.00417339
-0.00124061
0.00418762
-0.001343
-0.00118724
0.00492502
-0.000548068
0.00486862
-0.000630778
0.00481623
-0.000711179
0.00476781
-0.000788645
0.00472333
-0.000862537
0.00468276
-0.000932246
0.0046461
-0.000997215
0.00461331
-0.00105697
0.00458434
-0.0011111
0.00455911
-0.00115936
0.00453751
-0.0012015
0.00451941
-0.00123755
0.00450466
-0.0012673
0.00449305
-0.00129134
0.00448447
-0.00130888
0.00447858
-0.00132223
0.00447543
-0.00132775
0.00447444
-0.00133378
0.00447608
-0.00132559
0.00447916
-0.00133299
0.00448529
-0.00130195
0.0044915
-0.00133359
0.00450275
-0.00125186
0.00451064
-0.00135088
-0.00120477
0.0054693
-0.000477836
0.00540297
-0.000564445
0.00534055
-0.000648767
0.00528209
-0.000730177
0.00522759
-0.00080804
0.00517708
-0.000881743
0.00513059
-0.000950719
0.0050881
-0.00101447
0.00504958
-0.00107258
0.00501497
-0.00112475
0.00498419
-0.00117073
0.00495712
-0.00121048
0.00493361
-0.0012438
0.00491348
-0.00127121
0.00489661
-0.00129201
0.00488269
-0.0013083
0.00487173
-0.00131679
0.00486317
-0.00132522
0.0048575
-0.00131992
0.00485344
-0.00132892
0.00485281
-0.00130131
0.00485216
-0.00133294
0.00485738
-0.00125708
0.00485848
-0.00135198
-0.001217
0.00603708
-0.00039986
0.00596241
-0.000489781
0.00589124
-0.000577599
0.00582372
-0.000662654
0.00575997
-0.000744285
0.00570008
-0.000821857
0.00564414
-0.000894779
0.00559219
-0.000962526
0.00554426
-0.00102465
0.00550031
-0.0010808
0.0054603
-0.00113071
0.00542412
-0.0011743
0.00539169
-0.00121137
0.00536281
-0.00124233
0.00533738
-0.00126659
0.00531511
-0.00128603
0.00529603
-0.00129771
0.00527957
-0.00130875
0.00526623
-0.00130658
0.00525466
-0.00131735
0.00524688
-0.00129353
0.005239
-0.00132507
0.00523777
-0.00125584
0.00523173
-0.00134594
-0.00122344
0.00662155
-0.000316625
0.00654072
-0.000408949
0.00646264
-0.000499524
0.00638762
-0.000587632
0.0063159
-0.000672567
0.0062477
-0.000753651
0.00618317
-0.000830252
0.00612245
-0.000901805
0.00606562
-0.000967816
0.00601272
-0.0010279
0.00596375
-0.00108174
0.00591866
-0.00112921
0.00587738
-0.00117009
0.00583977
-0.00120472
0.00580575
-0.00123257
0.00577504
-0.00125533
0.0057477
-0.00127037
0.00572315
-0.0012842
0.00570194
-0.00128538
0.00568264
-0.00129805
0.00566744
-0.00127834
0.00565209
-0.00130972
0.00564407
-0.00124782
0.00563066
-0.00133253
-0.00122367
0.00721533
-0.00023095
0.0071309
-0.000324525
0.00704823
-0.000416856
0.00696777
-0.000507163
0.00688988
-0.000594681
0.00681491
-0.000678679
0.00674313
-0.000758472
0.00667476
-0.000833441
0.00660999
-0.000903043
0.00654893
-0.000966838
0.00649164
-0.00102446
0.00643815
-0.00107572
0.00638843
-0.00112037
0.0063424
-0.00115869
0.00630001
-0.00119018
0.00626102
-0.00121634
0.0062255
-0.00123485
0.0061929
-0.0012516
0.0061638
-0.00125628
0.00613671
-0.00127096
0.00611401
-0.00125563
0.00609107
-0.00128678
0.00607606
-0.00123281
0.00605518
-0.00131165
-0.00121734
0.00781091
-0.000145763
0.0077257
-0.000239307
0.00764106
-0.000332219
0.00755756
-0.000423665
0.00747571
-0.000512828
0.00739595
-0.000598923
0.00731868
-0.000681205
0.00724424
-0.000758998
0.00717289
-0.000831697
0.00710486
-0.000898802
0.00704029
-0.000959887
0.00697927
-0.0010147
0.00692187
-0.00106297
0.00686804
-0.00110486
0.00681779
-0.00113993
0.00677094
-0.00116949
0.00672759
-0.00119149
0.00668721
-0.00121122
0.00665042
-0.00121949
0.00661571
-0.00123625
0.00658557
-0.0012255
0.00655513
-0.00125634
0.00653307
-0.00121075
0.00650479
-0.00128337
-0.00120422
0.00840133
-6.3885e-05
0.00831812
-0.000156096
0.00823423
-0.000248335
0.00815031
-0.000339742
0.00806695
-0.000429465
0.00798469
-0.000516668
0.00790404
-0.000600557
0.00782544
-0.000680395
0.00774926
-0.000755516
0.00767581
-0.000825354
0.00760535
-0.000889423
0.00753805
-0.0009474
0.00747404
-0.00099896
0.00741337
-0.00104419
0.0073561
-0.00108267
0.00730211
-0.0011155
0.00725153
-0.00114091
0.00720391
-0.00116359
0.00715987
-0.00117545
0.00711791
-0.00119429
0.00708063
-0.00118822
0.00704296
-0.00121867
0.00701397
-0.00118176
0.00697856
-0.00124796
-0.00118424
0.00898065
1.21751e-05
0.00890203
-7.74757e-05
0.00882151
-0.000167815
0.00873976
-0.000257984
0.0086574
-0.000347113
0.00857508
-0.00043434
0.00849335
-0.000518829
0.00841275
-0.000599793
0.00833374
-0.000676511
0.00825674
-0.000748351
0.00818208
-0.000814763
0.00811003
-0.000875354
0.00804082
-0.000929747
0.00797456
-0.000977936
0.0079114
-0.0010195
0.00785127
-0.00105537
0.00779437
-0.00108401
0.00774029
-0.00110951
0.00768969
-0.00112485
0.0076411
-0.0011457
0.00759719
-0.0011443
0.0075528
-0.00117428
0.00751717
-0.00114614
0.00747508
-0.00120586
-0.00115746
0.00954454
8.03881e-05
0.00947269
-5.62512e-06
0.00939783
-9.29559e-05
0.0093206
-0.000180752
0.00924165
-0.000268161
0.00916162
-0.00035431
0.00908114
-0.000438343
0.00900078
-0.000519438
0.00892109
-0.000596826
0.00884256
-0.00066982
0.00876561
-0.000737814
0.0086906
-0.00080034
0.00861782
-0.00085697
0.00854749
-0.000907604
0.00847981
-0.000951823
0.00841481
-0.000990369
0.00835273
-0.00102192
0.00829322
-0.00105
0.008237
-0.00106863
0.00818263
-0.00109134
0.00813282
-0.00109449
0.00808242
-0.00112388
0.00804065
-0.00110437
0.00799253
-0.00115774
-0.00112412
0.0100906
0.00013934
0.0100271
5.78112e-05
0.00995974
-2.55685e-05
0.009889
-0.000110008
0.00981551
-0.000194673
0.00973991
-0.00027871
0.00966283
-0.000361258
0.00958487
-0.00044148
0.00950662
-0.000518577
0.00942862
-0.000591821
0.00935136
-0.000660552
0.00927526
-0.000724243
0.00920071
-0.000782413
0.00912797
-0.000834873
0.00905735
-0.000881196
0.00898893
-0.000921947
0.008923
-0.000956
0.00885932
-0.000986316
0.00879861
-0.00100793
0.00873952
-0.00103225
0.00868473
-0.00103971
0.00862924
-0.00106838
0.00858203
-0.00105716
0.0085287
-0.00110441
-0.00108469
0.0106184
0.00018826
0.0105644
0.000111833
0.0105057
3.31098e-05
0.0104429
-4.7178e-05
0.0103764
-0.000128246
0.010307
-0.000209267
0.0102351
-0.000289401
0.0101615
-0.000367812
0.0100866
-0.00044369
0.010011
-0.000516279
0.00993537
-0.000584884
0.00986005
-0.000648926
0.00978551
-0.000707879
0.00971211
-0.000761472
0.00964019
-0.000809268
0.00956991
-0.000851666
0.00950162
-0.000887712
0.00943514
-0.000919837
0.00937123
-0.000944016
0.00930863
-0.000969645
0.00924996
-0.000981042
0.00919045
-0.00100887
0.00913865
-0.00100536
0.0090811
-0.00104686
-0.00103976
0.0111296
0.000227012
0.0110854
0.000156057
0.0110361
8.24623e-05
0.010982
6.89657e-06
0.0109237
-6.99215e-05
0.0108616
-0.000147203
0.0107963
-0.000224144
0.0107285
-0.000299928
0.0106585
-0.00037375
0.0105871
-0.000444844
0.0105147
-0.000512495
0.0104419
-0.000576085
0.010369
-0.000635054
0.0102966
-0.000689061
0.010225
-0.000737658
0.0101544
-0.000781089
0.0100853
-0.000818559
0.0100174
-0.000851998
0.00995169
-0.000878264
0.00988688
-0.000904838
0.00982553
-0.000919689
0.0097632
-0.000946544
0.00970778
-0.000949945
0.0096471
-0.000986179
-0.000990111
0.0116276
0.000255993
0.011593
0.00019066
0.0115531
0.000122445
0.011508
5.19449e-05
0.0114583
-2.01755e-05
0.0114042
-9.31931e-05
0.0113464
-0.000166343
0.0112854
-0.000238843
0.0112215
-0.000309907
0.0111555
-0.000378777
0.0110877
-0.00044473
0.0110187
-0.000507126
0.0109491
-0.000565383
0.0108791
-0.000619101
0.0108093
-0.000667827
0.0107398
-0.000711667
0.0106713
-0.000749965
0.0106034
-0.000784191
0.0105372
-0.00081201
0.0104715
-0.000839132
0.0104087
-0.000856867
0.0103447
-0.000882619
0.0102868
-0.000891975
0.0102241
-0.000923494
-0.000936641
0.0121169
0.000275983
0.0120913
0.000216244
0.0120603
0.000153472
0.012024
8.81952e-05
0.0119828
2.10177e-05
0.011937
-4.73991e-05
0.011887
-0.000116343
0.0118333
-0.000185073
0.0117762
-0.000252835
0.0117163
-0.000318889
0.0116541
-0.00038252
0.0115901
-0.00044308
0.0115246
-0.000499973
0.0114583
-0.00055276
0.0113915
-0.000600984
0.0113244
-0.000644631
0.0112576
-0.00068317
0.0111911
-0.000717657
0.0111256
-0.000746476
0.0110602
-0.000773744
0.010997
-0.000793737
0.0109327
-0.000818281
0.0108732
-0.000832507
0.0108097
-0.000859908
-0.000880306
0.0126025
0.000287975
0.0125851
0.000233677
0.0125623
0.000176272
0.0125343
0.000116227
0.0125012
5.40807e-05
0.0124634
-9.56189e-06
0.0124211
-7.40494e-05
0.0123747
-0.000138684
0.0123246
-0.000202754
0.0122713
-0.000265545
0.0122151
-0.000326363
0.0121566
-0.000384561
0.0120962
-0.000439545
0.0120342
-0.000490843
0.0119713
-0.000538004
0.0119075
-0.000580913
0.0118435
-0.000619149
0.0117793
-0.000653401
0.0117155
-0.000682681
0.0116514
-0.000709716
0.011589
-0.000731316
0.0115253
-0.000754577
0.0114653
-0.000772528
0.0114019
-0.000796418
-0.000822065
0.0130898
0.000293016
0.0130796
0.000243932
0.0130641
0.000191732
0.0130435
0.000136825
0.0130179
7.9688e-05
0.0129875
2.08677e-05
0.0129525
-3.90384e-05
0.0129132
-9.93864e-05
0.0128699
-0.000159506
0.0128231
-0.00021872
0.0127731
-0.000276358
0.0127203
-0.000331789
0.0126652
-0.000384423
0.0126082
-0.000433776
0.0125495
-0.000479401
0.0124897
-0.000521102
0.0124291
-0.000558554
0.0123679
-0.000592133
0.0123066
-0.000621374
0.0122447
-0.000647838
0.0121838
-0.000670409
0.0121216
-0.000692347
0.0120619
-0.000712881
0.0119993
-0.000733847
-0.000762812
0.0135838
0.000292084
0.0135798
0.000247958
0.0135707
0.000200757
0.0135567
0.000150838
0.0135378
9.86207e-05
0.0135141
4.45952e-05
0.0134857
-1.06937e-05
0.013453
-6.66575e-05
0.0134162
-0.00012267
0.0133755
-0.000178094
0.0133315
-0.00023229
0.0132843
-0.000284648
0.0132345
-0.000334595
0.0131823
-0.000381636
0.0131283
-0.000425341
0.0130726
-0.000465446
0.0130158
-0.000501704
0.0129579
-0.00053424
0.0128995
-0.000562999
0.0128403
-0.000588611
0.0127814
-0.000611558
0.0127213
-0.000632167
0.0126626
-0.000654206
0.0126015
-0.000672783
-0.000703307
0.0140888
0.000286017
0.0140902
0.000246589
0.0140868
0.000204172
0.0140785
0.00015907
0.0140655
0.000111653
0.0140477
6.23563e-05
0.0140254
1.16706e-05
0.0139986
-3.98663e-05
0.0139676
-9.16777e-05
0.0139327
-0.000143167
0.0138941
-0.000193732
0.0138522
-0.000242788
0.0138074
-0.000289783
0.01376
-0.000334225
0.0137104
-0.000375697
0.0136588
-0.00041389
0.0136057
-0.000448615
0.0135513
-0.0004798
0.013496
-0.000507697
0.0134396
-0.000532232
0.0133831
-0.000555025
0.0133252
-0.000574325
0.0132679
-0.000596905
0.0132087
-0.000613552
-0.00064413
0.0146088
0.000275491
0.0146149
0.000240512
0.0146164
0.000202669
0.0146132
0.000162216
0.0146054
0.000119475
0.0145929
7.4829e-05
0.0145759
2.87158e-05
0.0145544
-1.83762e-05
0.0145286
-6.59225e-05
0.0144988
-0.000113369
0.0144653
-0.000160153
0.0144282
-0.000205722
0.014388
-0.00024955
0.0143449
-0.000291154
0.0142993
-0.000330133
0.0142516
-0.000366149
0.014202
-0.000399056
0.0141509
-0.000428637
0.0140985
-0.000455345
0.0140449
-0.000478624
0.0139907
-0.000500805
0.0139352
-0.000518825
0.0138794
-0.000541134
0.0138221
-0.000556215
-0.00058564
0.0151471
0.000261023