/*--------------------------------*- C++ -*----------------------------------*\
  =========                 |
  \\      /  F ield         | OpenFOAM: The Open Source CFD Toolbox
   \\    /   O peration     | Website:  https://openfoam.org
    \\  /    A nd           | Version:  7
     \\/     M anipulation  |
\*---------------------------------------------------------------------------*/
FoamFile
{
    version     2.0;
    format      ascii;
    class       volScalarField;
    location    "5";
    object      p;
}
// * * * * * * * * * * * * * * * * * * * * * * * * * * * * * * * * * * * * * //

dimensions      [0 2 -2 0 0 0 0];

internalField   nonuniform List<scalar> 
3275
(
-0.590895
-0.570504
-0.598823
-0.577654
-0.561487
-0.606273
-0.584369
-0.56772
-0.552133
-0.536658
-0.613166
-0.590575
-0.573483
-0.557509
-0.541636
-0.526052
-0.510631
-0.61942
-0.596196
-0.578703
-0.562375
-0.546126
-0.530123
-0.514212
-0.498227
-0.482033
-0.624948
-0.601151
-0.583301
-0.566653
-0.550051
-0.533639
-0.517235
-0.500655
-0.483753
-0.466408
-0.448527
-0.62966
-0.605355
-0.587197
-0.570265
-0.553335
-0.536522
-0.519623
-0.502435
-0.484806
-0.46662
-0.447799
-0.428281
-0.407911
-0.633462
-0.608722
-0.590305
-0.573128
-0.555893
-0.538692
-0.521295
-0.503487
-0.485118
-0.466079
-0.446315
-0.425796
-0.404434
-0.382846
-0.362152
-0.636258
-0.611161
-0.592541
-0.575156
-0.557643
-0.540064
-0.522169
-0.503734
-0.484613
-0.464716
-0.444013
-0.422515
-0.400202
-0.377666
-0.35582
-0.637953
-0.612584
-0.593815
-0.576264
-0.558499
-0.540555
-0.522163
-0.503096
-0.483218
-0.462463
-0.440834
-0.418387
-0.395169
-0.371749
-0.348866
-0.638449
-0.612897
-0.59404
-0.576364
-0.558375
-0.540079
-0.521195
-0.501494
-0.48086
-0.459254
-0.436721
-0.413361
-0.389292
-0.365058
-0.341251
-0.63765
-0.612012
-0.593127
-0.575369
-0.557185
-0.538553
-0.519182
-0.498852
-0.477468
-0.455027
-0.431617
-0.407391
-0.382531
-0.357558
-0.332939
-0.635464
-0.609838
-0.59099
-0.573194
-0.554844
-0.535895
-0.516047
-0.495096
-0.472974
-0.449722
-0.425474
-0.400434
-0.374852
-0.349217
-0.323898
-0.631798
-0.60629
-0.587543
-0.569755
-0.551271
-0.532023
-0.511714
-0.490155
-0.467317
-0.443286
-0.418245
-0.392454
-0.366224
-0.340011
-0.314101
-0.626568
-0.601285
-0.582706
-0.564972
-0.546387
-0.526864
-0.50611
-0.483965
-0.460439
-0.435668
-0.409891
-0.383419
-0.356621
-0.329916
-0.303527
-0.619694
-0.594745
-0.576401
-0.558768
-0.540117
-0.520344
-0.49917
-0.476466
-0.452288
-0.426827
-0.400376
-0.373301
-0.346023
-0.318918
-0.292159
-0.611096
-0.586594
-0.568554
-0.55107
-0.53239
-0.512398
-0.490832
-0.467602
-0.442818
-0.416725
-0.389674
-0.36208
-0.334415
-0.307006
-0.279985
-0.600709
-0.576768
-0.5591
-0.541814
-0.523144
-0.502965
-0.481042
-0.457329
-0.431991
-0.405335
-0.377764
-0.349743
-0.32179
-0.294175
-0.267
-0.588474
-0.565208
-0.54798
-0.530941
-0.512322
-0.491995
-0.469756
-0.445609
-0.419779
-0.392633
-0.364631
-0.336283
-0.308144
-0.280425
-0.253201
-0.574342
-0.551863
-0.535143
-0.518402
-0.499878
-0.479444
-0.456935
-0.432411
-0.406159
-0.378608
-0.35027
-0.321698
-0.29348
-0.265761
-0.238593
-0.558272
-0.536693
-0.520548
-0.504155
-0.485771
-0.465277
-0.442551
-0.417715
-0.391119
-0.363254
-0.334682
-0.305994
-0.277807
-0.250195
-0.223182
-0.540237
-0.519666
-0.504162
-0.488168
-0.469973
-0.44947
-0.426587
-0.401509
-0.374655
-0.346574
-0.317876
-0.289184
-0.261141
-0.233743
-0.206983
-0.52022
-0.500764
-0.485963
-0.47042
-0.452465
-0.432009
-0.409034
-0.383794
-0.356772
-0.32858
-0.299866
-0.271286
-0.243502
-0.216438
-0.190028
-0.498216
-0.479976
-0.465942
-0.450901
-0.43324
-0.41289
-0.389894
-0.364577
-0.337487
-0.309291
-0.280677
-0.252323
-0.224917
-0.198309
-0.172318
-0.474233
-0.457308
-0.4441
-0.429613
-0.412301
-0.392121
-0.369182
-0.343877
-0.316823
-0.288736
-0.260339
-0.232328
-0.205411
-0.179332
-0.153661
-0.448292
-0.432773
-0.42045
-0.406568
-0.389663
-0.369722
-0.346921
-0.321726
-0.294815
-0.266953
-0.238891
-0.211341
-0.185018
-0.15948
-0.133784
-0.420427
-0.406402
-0.395018
-0.381793
-0.365354
-0.345724
-0.323147
-0.298162
-0.271505
-0.243987
-0.216381
-0.18941
-0.163778
-0.138988
-0.114553
-0.390685
-0.378234
-0.367841
-0.355325
-0.339414
-0.32017
-0.297907
-0.273235
-0.246948
-0.219892
-0.192861
-0.166583
-0.141746
-0.117749
-0.0943886
-0.359127
-0.348323
-0.338971
-0.327213
-0.311893
-0.293113
-0.271258
-0.247007
-0.221204
-0.194729
-0.168391
-0.142918
-0.118983
-0.0958761
-0.0734945
-0.325826
-0.316736
-0.30847
-0.297521
-0.282855
-0.264619
-0.243268
-0.219546
-0.194343
-0.168568
-0.143038
-0.118477
-0.0955426
-0.0734207
-0.0520324
-0.290867
-0.28355
-0.276413
-0.266322
-0.252376
-0.234767
-0.214012
-0.19093
-0.166444
-0.141487
-0.116874
-0.0933269
-0.0714857
-0.0504295
-0.0300733
-0.254348
-0.248856
-0.242887
-0.233702
-0.220541
-0.203648
-0.183574
-0.161247
-0.137593
-0.113567
-0.0899811
-0.0675445
-0.0468808
-0.0269629
-0.00767983
-0.21638
-0.212756
-0.20799
-0.199757
-0.187445
-0.171332
-0.152072
-0.130594
-0.107884
-0.0848998
-0.0624444
-0.0412109
-0.0218027
-0.0030905
0.015079
-0.177076
-0.175364
-0.171832
-0.164596
-0.153195
-0.137952
-0.11959
-0.0990719
-0.0774173
-0.0555822
-0.0343567
-0.0144139
0.00366688
0.0211088
0.0381222
-0.13655
-0.136818
-0.134531
-0.128333
-0.117907
-0.103615
-0.0862426
-0.0667908
-0.0462979
-0.0257157
-0.0058162
0.0127518
0.0294379
0.0455439
0.0613551
-0.0950011
-0.097208
-0.0962139
-0.0910957
-0.0817031
-0.0684409
-0.0521499
-0.0338651
-0.0146362
0.00459395
0.023075
0.0401858
0.055414
0.0701147
-0.0525342
-0.0567044
-0.0570203
-0.0530177
-0.0447155
-0.0325576
-0.0174357
-0.000413353
0.0174546
0.0352388
0.0522118
0.067785
0.0815053
-0.00930642
-0.0154551
-0.0170941
-0.0142402
-0.00708144
0.00390155
0.0177719
0.0334427
0.0498594
0.0661096
0.0814873
0.095446
0.0345154
0.0263864
0.0234139
0.0250894
0.0310557
0.0407987
0.0533414
0.0675793
0.082463
0.0970981
0.110795
0.123063
0.0787605
0.0686582
0.0643459
0.0648176
0.0695475
0.0779916
0.0891385
0.101872
0.115152
0.128102
0.140044
0.123253
0.111191
0.105538
0.104786
0.108241
0.115335
0.125026
0.136194
0.147814
0.159031
0.16782
0.15382
0.146828
0.144834
0.146983
0.152681
0.160867
0.170419
0.180335
0.189793
0.212278
0.196367
0.188043
0.184799
0.185615
0.189881
0.19652
0.204416
0.212596
0.256445
0.238657
0.229014
0.224513
0.223977
0.226783
0.231842
0.238052
0.300137
0.280512
0.269568
0.263811
0.261911
0.263236
0.266693
0.271196
0.34317
0.321756
0.309533
0.302525
0.299257
0.299091
0.300932
0.385364
0.362214
0.348738
0.340493
0.335859
0.334199
0.334422
0.426538
0.401711
0.387015
0.37755
0.371563
0.368416
0.466518
0.440077
0.424198
0.413539
0.406216
0.401599
0.505133
0.477148
0.460127
0.448304
0.439673
0.433611
0.542216
0.512761
0.494644
0.481694
0.47179
0.577609
0.546761
0.527599
0.513566
0.502432
0.611159
0.579001
0.558849
0.543781
0.531468
0.642721
0.609338
0.588255
0.572207
0.672159
0.637641
0.61569
0.598722
0.699345
0.663785
0.641032
0.62321
0.724161
0.687654
0.664169
0.645565
0.7465
0.709145
0.685001
0.665688
0.766264
0.728161
0.703434
0.783368
0.74462
0.719388
0.797736
0.758448
0.732793
0.809307
0.769585
0.743588
0.81803
0.777981
0.751726
0.823866
0.783599
0.757172
0.826791
0.786414
0.759901
0.826791
0.786414
0.759901
0.823866
0.783599
0.757172
0.81803
0.777981
0.751726
0.809307
0.769585
0.743588
0.797736
0.758448
0.732792
0.783368
0.74462
0.719388
0.766264
0.728161
0.703434
0.7465
0.709145
0.685
0.665687
0.724161
0.687654
0.664169
0.645564
0.699344
0.663785
0.641031
0.62321
0.672158
0.637641
0.61569
0.598722
0.642721
0.609338
0.588255
0.572207
0.611159
0.579
0.558849
0.54378
0.531467
0.577609
0.546761
0.527599
0.513565
0.502432
0.542216
0.51276
0.494643
0.481694
0.47179
0.505132
0.477147
0.460126
0.448303
0.439672
0.433611
0.466518
0.440077
0.424197
0.413539
0.406216
0.401599
0.426538
0.40171
0.387014
0.37755
0.371562
0.368415
0.385363
0.362213
0.348737
0.340492
0.335859
0.334199
0.334421
0.34317
0.321756
0.309532
0.302525
0.299256
0.299091
0.300932
0.300136
0.280511
0.269567
0.26381
0.26191
0.263236
0.266692
0.271196
0.256445
0.238656
0.229014
0.224513
0.223976
0.226783
0.231841
0.238052
0.212278
0.196366
0.188043
0.184798
0.185614
0.18988
0.196519
0.204415
0.212595
0.167819
0.153819
0.146827
0.144834
0.146982
0.152681
0.160866
0.170418
0.180335
0.189792
0.123252
0.111191
0.105537
0.104785
0.10824
0.115334
0.125026
0.136193
0.147813
0.15903
0.0787597
0.0686574
0.0643451
0.0648168
0.0695467
0.0779909
0.0891378
0.101871
0.115151
0.128102
0.140044
0.0345146
0.0263856
0.0234131
0.0250886
0.0310549
0.0407979
0.0533407
0.0675786
0.0824624
0.0970974
0.110794
0.123063
-0.00930724
-0.0154559
-0.0170949
-0.014241
-0.00708223
0.00390079
0.0177711
0.033442
0.0498587
0.0661089
0.0814867
0.0954454
-0.0525351
-0.0567053
-0.0570211
-0.0530186
-0.0447163
-0.0325584
-0.0174365
-0.000414082
0.0174539
0.0352381
0.0522112
0.0677844
0.0815047
-0.0950019
-0.0972089
-0.0962148
-0.0910965
-0.081704
-0.0684417
-0.0521507
-0.0338659
-0.0146369
0.00459327
0.0230743
0.0401852
0.0554134
0.0701142
-0.136551
-0.136818
-0.134532
-0.128334
-0.117908
-0.103616
-0.0862434
-0.0667916
-0.0462986
-0.0257164
-0.00581686
0.0127512
0.0294373
0.0455433
0.0613546
-0.177076
-0.175365
-0.171833
-0.164596
-0.153196
-0.137953
-0.119591
-0.0990727
-0.077418
-0.0555829
-0.0343574
-0.0144146
0.00366627
0.0211082
0.0381217
-0.216381
-0.212757
-0.207991
-0.199758
-0.187446
-0.171333
-0.152073
-0.130594
-0.107885
-0.0849005
-0.062445
-0.0412115
-0.0218033
-0.00309108
0.0150785
-0.254349
-0.248857
-0.242888
-0.233703
-0.220542
-0.203649
-0.183574
-0.161247
-0.137594
-0.113568
-0.0899818
-0.0675452
-0.0468814
-0.0269634
-0.00768037
-0.290868
-0.283551
-0.276414
-0.266323
-0.252377
-0.234768
-0.214013
-0.190931
-0.166445
-0.141487
-0.116875
-0.0933276
-0.0714863
-0.05043
-0.0300739
-0.325827
-0.316736
-0.308471
-0.297522
-0.282856
-0.26462
-0.243269
-0.219546
-0.194344
-0.168569
-0.143038
-0.118477
-0.0955432
-0.0734213
-0.0520329
-0.359128
-0.348324
-0.338972
-0.327214
-0.311894
-0.293114
-0.271259
-0.247007
-0.221204
-0.19473
-0.168392
-0.142919
-0.118984
-0.0958767
-0.073495
-0.390686
-0.378234
-0.367842
-0.355325
-0.339415
-0.320171
-0.297908
-0.273236
-0.246948
-0.219893
-0.192862
-0.166584
-0.141747
-0.117749
-0.0943891
-0.420428
-0.406402
-0.395019
-0.381794
-0.365355
-0.345725
-0.323148
-0.298163
-0.271506
-0.243988
-0.216382
-0.18941
-0.163778
-0.138989
-0.114553
-0.448293
-0.432774
-0.420451
-0.406569
-0.389664
-0.369723
-0.346922
-0.321727
-0.294815
-0.266954
-0.238892
-0.211342
-0.185018
-0.159481
-0.133784
-0.474234
-0.457308
-0.444101
-0.429614
-0.412302
-0.392122
-0.369183
-0.343878
-0.316824
-0.288737
-0.26034
-0.232329
-0.205412
-0.179333
-0.153662
-0.498217
-0.479977
-0.465943
-0.450902
-0.433241
-0.412891
-0.389895
-0.364577
-0.337488
-0.309292
-0.280678
-0.252324
-0.224918
-0.19831
-0.172319
-0.520221
-0.500765
-0.485964
-0.470421
-0.452466
-0.43201
-0.409035
-0.383795
-0.356773
-0.328581
-0.299867
-0.271286
-0.243503
-0.216439
-0.190028
-0.540238
-0.519667
-0.504163
-0.488169
-0.469974
-0.449471
-0.426588
-0.40151
-0.374655
-0.346575
-0.317876
-0.289184
-0.261141
-0.233744
-0.206984
-0.558273
-0.536694
-0.520549
-0.504156
-0.485772
-0.465278
-0.442552
-0.417716
-0.391119
-0.363255
-0.334683
-0.305994
-0.277808
-0.250195
-0.223182
-0.574343
-0.551864
-0.535144
-0.518403
-0.499879
-0.479445
-0.456936
-0.432412
-0.40616
-0.378609
-0.350271
-0.321698
-0.29348
-0.265762
-0.238593
-0.588475
-0.565209
-0.547981
-0.530942
-0.512323
-0.491996
-0.469756
-0.44561
-0.419779
-0.392634
-0.364632
-0.336283
-0.308144
-0.280426
-0.253202
-0.60071
-0.576769
-0.559101
-0.541815
-0.523145
-0.502966
-0.481043
-0.45733
-0.431992
-0.405335
-0.377765
-0.349744
-0.32179
-0.294176
-0.267
-0.611097
-0.586595
-0.568555
-0.551071
-0.532391
-0.512399
-0.490832
-0.467603
-0.442818
-0.416726
-0.389675
-0.362081
-0.334416
-0.307007
-0.279986
-0.619695
-0.594746
-0.576402
-0.558769
-0.540118
-0.520345
-0.499171
-0.476466
-0.452288
-0.426828
-0.400377
-0.373301
-0.346024
-0.318919
-0.29216
-0.626569
-0.601286
-0.582707
-0.564972
-0.546388
-0.526864
-0.506111
-0.483966
-0.46044
-0.435669
-0.409891
-0.383419
-0.356622
-0.329917
-0.303528
-0.631799
-0.606291
-0.587544
-0.569756
-0.551272
-0.532024
-0.511714
-0.490156
-0.467318
-0.443286
-0.418246
-0.392455
-0.366225
-0.340011
-0.314102
-0.635465
-0.609839
-0.590991
-0.573195
-0.554845
-0.535896
-0.516048
-0.495097
-0.472975
-0.449723
-0.425475
-0.400435
-0.374853
-0.349218
-0.323899
-0.637651
-0.612013
-0.593128
-0.57537
-0.557185
-0.538554
-0.519183
-0.498853
-0.477468
-0.455028
-0.431618
-0.407391
-0.382532
-0.357558
-0.33294
-0.63845
-0.612898
-0.594041
-0.576364
-0.558375
-0.54008
-0.521195
-0.501495
-0.480861
-0.459255
-0.436721
-0.413361
-0.389292
-0.365059
-0.341252
-0.637954
-0.612584
-0.593816
-0.576264
-0.5585
-0.540556
-0.522164
-0.503097
-0.483219
-0.462464
-0.440835
-0.418387
-0.395169
-0.37175
-0.348867
-0.636259
-0.611162
-0.592541
-0.575157
-0.557644
-0.540065
-0.52217
-0.503735
-0.484614
-0.464717
-0.444014
-0.422516
-0.400202
-0.377666
-0.35582
-0.633462
-0.608722
-0.590306
-0.573128
-0.555894
-0.538693
-0.521296
-0.503488
-0.485119
-0.46608
-0.446315
-0.425796
-0.404435
-0.382846
-0.362152
-0.629661
-0.605356
-0.587197
-0.570266
-0.553335
-0.536523
-0.519624
-0.502435
-0.484807
-0.466621
-0.447799
-0.428281
-0.407912
-0.624949
-0.601151
-0.583302
-0.566654
-0.550052
-0.53364
-0.517236
-0.500656
-0.483754
-0.466408
-0.619421
-0.596196
-0.578703
-0.562376
-0.546126
-0.530123
-0.514213
-0.498227
-0.613167
-0.590575
-0.573484
-0.55751
-0.541636
-0.526053
-0.510631
-0.606274
-0.584369
-0.56772
-0.552134
-0.536659
-0.598824
-0.577655
-0.561487
-0.590896
-0.570505
-0.27977
-0.289178
-0.297837
-0.305763
-0.312972
-0.319488
-0.325341
-0.330569
-0.259785
-0.269071
-0.277749
-0.285834
-0.293345
-0.300307
-0.30675
-0.31271
-0.240989
-0.250109
-0.258749
-0.26692
-0.27464
-0.281925
-0.2888
-0.295289
-0.223242
-0.232059
-0.240491
-0.248548
-0.256241
-0.263585
-0.270598
-0.277299
-0.206576
-0.215051
-0.223219
-0.231087
-0.238668
-0.245972
-0.253015
-0.259813
-0.190981
-0.199089
-0.206954
-0.214583
-0.221986
-0.229173
-0.236156
-0.242949
-0.176404
-0.184126
-0.191656
-0.198999
-0.206166
-0.213163
-0.220003
-0.226696
-0.162782
-0.170109
-0.177282
-0.18431
-0.191197
-0.197953
-0.204586
-0.211107
-0.150053
-0.156981
-0.163788
-0.170479
-0.177059
-0.183537
-0.189918
-0.196211
-0.138151
-0.144684
-0.15112
-0.157463
-0.163719
-0.169892
-0.175989
-0.182018
-0.127018
-0.133162
-0.139228
-0.145219
-0.15114
-0.156994
-0.162788
-0.168525
-0.116597
-0.122362
-0.128064
-0.133704
-0.139287
-0.144815
-0.150293
-0.155725
-0.10684
-0.112239
-0.117585
-0.12288
-0.128127
-0.133328
-0.138487
-0.143607
-0.0977034
-0.102749
-0.107751
-0.11271
-0.117627
-0.122506
-0.127348
-0.132155
-0.089149
-0.0938576
-0.0985284
-0.103163
-0.107761
-0.112325
-0.116857
-0.121357
-0.0811419
-0.0855303
-0.0898859
-0.0942094
-0.0985013
-0.102762
-0.106994
-0.111196
-0.0736528
-0.0777388
-0.0817958
-0.0858241
-0.089824
-0.0937957
-0.0977397
-0.101657
-0.0666549
-0.0704568
-0.0742328
-0.0779827
-0.0817065
-0.0854042
-0.0890758
-0.0927215
-0.0601248
-0.0636612
-0.067174
-0.0706628
-0.0741274
-0.0775675
-0.0809828
-0.0843733
-0.0540409
-0.0573304
-0.0605981
-0.0638436
-0.0670663
-0.0702657
-0.0734415
-0.0765933
-0.0483839
-0.0514449
-0.0544856
-0.0575053
-0.0605035
-0.0634795
-0.0664328
-0.0693628
-0.0431366
-0.0459869
-0.0488182
-0.0516297
-0.0544206
-0.0571902
-0.0599378
-0.0626629
-0.0382831
-0.0409403
-0.0435794
-0.0461995
-0.0487999
-0.0513798
-0.0539385
-0.0564752
-0.0338101
-0.0362908
-0.0387542
-0.0411995
-0.0436257
-0.0460321
-0.0484178
-0.0507822
-0.029705
-0.0320254
-0.0343291
-0.0366154
-0.0388832
-0.0411317
-0.0433601
-0.0455677
-0.0259583
-0.0281337
-0.030293
-0.0324354
-0.0345598
-0.0366655
-0.0387516
-0.0408173
-0.0225617
-0.0246069
-0.0266365
-0.0286496
-0.0306452
-0.0326226
-0.0345808
-0.0365191
-0.0195098
-0.0214389
-0.0233528
-0.0252507
-0.0271315
-0.0289944
-0.0308387
-0.0326635
-0.0168
-0.0186268
-0.0204386
-0.0222347
-0.0240142
-0.0257763
-0.02752
-0.0292447
-0.0144323
-0.0161699
-0.0178929
-0.0196005
-0.0212919
-0.0229662
-0.0246226
-0.0262604
-0.0124128
-0.0140741
-0.015721
-0.0173529
-0.0189689
-0.0205681
-0.02215
-0.0237136
-0.0107472
-0.0123453
-0.0139295
-0.0154988
-0.0170526
-0.01859
-0.0201104
-0.0216131
-0.00945726
-0.0110043
-0.0125376
-0.0140563
-0.0155598
-0.0170474
-0.0185185
-0.0199723
-0.0085542
-0.0100656
-0.0115635
-0.0130471
-0.0145159
-0.0159691
-0.0174061
-0.0188263
-0.0202293
-0.00808631
-0.00957088
-0.0110422
-0.0124996
-0.0139427
-0.0153709
-0.0167836
-0.0181804
-0.0195608
0.0301788
0.008922
-0.0119792
-0.0324817
-0.0525451
-0.0721358
-0.0912349
-0.10995
-0.128545
-0.145032
-0.161574
-0.177588
-0.192898
-0.207511
-0.221412
-0.234583
-0.247011
-0.258688
-0.269608
0.0283847
0.0087246
-0.0105549
-0.0294343
-0.0478857
-0.0658845
-0.0833997
-0.100406
-0.116885
-0.132507
-0.148112
-0.163046
-0.177305
-0.190948
-0.203983
-0.216399
-0.228188
-0.239348
-0.249879
0.0229407
0.0052171
-0.0121422
-0.0291389
-0.0457556
-0.0619769
-0.0777865
-0.0931677
-0.108137
-0.122722
-0.136595
-0.150159
-0.163256
-0.175852
-0.187955
-0.199562
-0.210669
-0.221275
-0.23138
0.0189076
0.00285465
-0.0128584
-0.0282415
-0.0432836
-0.0579743
-0.072305
-0.0862668
-0.0998588
-0.113085
-0.125801
-0.138267
-0.150318
-0.161947
-0.173173
-0.183995
-0.194412
-0.204423
-0.214032
0.0157649
0.00123233
-0.0129921
-0.0269218
-0.0405508
-0.053872
-0.0668802
-0.0795702
-0.0919366
-0.103958
-0.115556
-0.127098
-0.138223
-0.148974
-0.159392
-0.169483
-0.179244
-0.188678
-0.197787
0.0132126
6.40253e-05
-0.0128105
-0.025426
-0.0377806
-0.0498709
-0.0616957
-0.0732542
-0.0845486
-0.0956044
-0.106465
-0.116799
-0.126985
-0.13693
-0.1466
-0.156001
-0.165137
-0.17401
-0.182623
0.0112357
-0.000661303
-0.0123198
-0.0237544
-0.0349653
-0.0459507
-0.0567108
-0.0672455
-0.0775544
-0.0876408
-0.0975088
-0.1071
-0.116543
-0.12575
-0.134724
-0.143482
-0.152026
-0.160359
-0.168483
0.00975284
-0.00101533
-0.0115795
-0.0219528
-0.0321364
-0.0421294
-0.0519321
-0.0615446
-0.0709669
-0.0801973
-0.0892125
-0.0979501
-0.106804
-0.115363
-0.123694
-0.131849
-0.139835
-0.14765
-0.155297
0.00869004
-0.00106309
-0.0106443
-0.0200653
-0.0293278
-0.0384321
-0.0473797
-0.0561727
-0.0648131
-0.0733058
-0.0816799
-0.0899845
-0.0978594
-0.105706
-0.113447
-0.121043
-0.128497
-0.135815
-0.142999
0.00798383
-0.000857533
-0.00955578
-0.018121
-0.0265551
-0.0348583
-0.0430318
-0.0510771
-0.0589951
-0.0667858
-0.0744518
-0.0819994
-0.0893926
-0.0966975
-0.103894
-0.11097
-0.117929
-0.124777
-0.131516
0.0157288
0.00757885
-0.00044406
-0.00834928
-0.0161454
-0.023834
-0.0314154
-0.0388907
-0.046261
-0.0535275
-0.0606912
-0.0677533
-0.0747137
-0.0815663
-0.088343
-0.0950191
-0.101598
-0.108084
-0.114482
-0.120792
0.0148201
0.00742786
0.000139439
-0.00705341
-0.0141579
-0.0211752
-0.0281056
-0.0349499
-0.041709
-0.0483839
-0.0549753
-0.0614843
-0.0679087
-0.0742413
-0.080531
-0.0867313
-0.0928493
-0.0988929
-0.104864
-0.110765
0.0142037
0.00749062
0.000861312
-0.00569147
-0.0121736
-0.0185861
-0.0249291
-0.031203
-0.037409
-0.0435476
-0.0496198
-0.0556267
-0.0615733
-0.0674665
-0.0732521
-0.0789949
-0.0846833
-0.0903106
-0.0958779
-0.101387
0.0138376
0.00773334
0.00169574
-0.00428149
-0.0102031
-0.0160698
-0.0218812
-0.0276379
-0.0333402
-0.0389887
-0.0445835
-0.050125
-0.0556141
-0.0610521
-0.066431
-0.0717655
-0.0770516
-0.0822873
-0.0874736
-0.0926119
0.0136858
0.00812734
0.00262112
-0.00283831
-0.00825477
-0.0136284
-0.018959
-0.0242465
-0.0294911
-0.034693
-0.0398523
-0.0449692
-0.0500439
-0.0550763
-0.0600642
-0.0650144
-0.0699227
-0.0747894
-0.0796156
-0.0844019
0.0137172
0.00864817
0.00361931
-0.00137406
-0.00633489
-0.011263
-0.016158
-0.0210196
-0.0258476
-0.0306421
-0.0354027
-0.0401294
-0.0448222
-0.0494799
-0.0541
-0.0586963
-0.0632546
-0.067777
-0.0722654
-0.0767204
0.0139048
0.00927458
0.0046746
0.000100801
-0.00444905
-0.00897453
-0.0134749
-0.0179499
-0.022399
-0.026822
-0.0312185
-0.035588
-0.0399304
-0.0442456
-0.0485334
-0.0527898
-0.0570196
-0.0612213
-0.0653941
-0.069538
0.0142246
0.00998789
0.00577323
0.00157716
-0.00260193
-0.00676339
-0.0109064
-0.0150303
-0.0191345
-0.0232187
-0.027282
-0.0313241
-0.0353443
-0.0393428
-0.0433199
-0.0472664
-0.0511925
-0.0550959
-0.0589743
-0.0628274
0.0146553
0.0107714
0.00690275
0.00304664
-0.000798069
-0.00463055
-0.00844981
-0.0122551
-0.0160457
-0.0198208
-0.0235798
-0.0273218
-0.0310462
-0.0347523
-0.0384396
-0.0421055
-0.0457523
-0.0493785
-0.052983
-0.0565653
0.0151776
0.0116095
0.00805151
0.00450115
0.000957789
-0.00257762
-0.00610398
-0.00962039
-0.013126
-0.01662
-0.0201014
-0.0235694
-0.0270232
-0.0304618
-0.0338846
-0.0372899
-0.0406782
-0.0440483
-0.0473992
-0.0507303
0.0157734
0.012488
0.00920841
0.00593274
0.00266064
-0.000606838
-0.00386852
-0.00712341
-0.0103706
-0.013609
-0.0168378
-0.0200558
-0.0232623
-0.0264562
-0.0296365
-0.032802
-0.0359528
-0.0390872
-0.0422043
-0.0453035
0.0164258
0.013393
0.0103627
0.00733342
0.00430511
0.00127889
-0.00174402
-0.00476257
-0.00777572
-0.0107824
-0.0137816
-0.0167723
-0.0197534
-0.0227239
-0.0256825
-0.028628
-0.0315616
-0.0344799
-0.0373822
-0.040268
0.017119
0.0143114
0.0115038
0.00869508
0.00588541
0.00307597
0.000267965
-0.00253748
-0.0053393
-0.00813638
-0.0109276
-0.0137119
-0.0164882
-0.0192554
-0.0220122
-0.0247575
-0.0274917
-0.0302122
-0.0329181
-0.0356087
0.0178377
0.0152303
0.0126212
0.0100094
0.00739526
0.00478002
0.00216487
-0.000449043
-0.00306062
-0.00566875
-0.0082723
-0.0108702
-0.0134612
-0.0160443
-0.0186186
-0.0211834
-0.0237341
-0.0262737
-0.0288005
-0.031313
0.0185674
0.0161375
0.0137046
0.011268
0.00882821
0.0063864
0.0039438
0.00150153
-0.000939279
-0.00337751
-0.00581201
-0.00824165
-0.0106653
-0.0130818
-0.01549
-0.017889
-0.0202771
-0.0226539
-0.0250183
-0.027369
0.0192938
0.0170207
0.0147435
0.0124622
0.0101771
0.00788944
0.00560046
0.00331125
0.00102293
-0.00126338
-0.00354655
-0.00582543
-0.0080989
-0.0103658
-0.0126251
-0.0148756
-0.0171161
-0.0193457
-0.0215633
-0.0237679
0.0200034
0.0178677
0.0157275
0.0135828
0.0114342
0.00928289
0.00712993
0.00497645
0.00282356
0.00067237
-0.00147601
-0.00362047
-0.00575988
-0.00789313
-0.0100191
-0.0121367
-0.0142448
-0.0163424
-0.0184285
-0.0205019
0.0206827
0.0186667
0.016646
0.0146208
0.0125917
0.0105599
0.00852648
0.00649247
0.00445896
0.00242703
0.000397774
-0.00162772
-0.00364836
-0.00566305
-0.00767072
-0.00967029
-0.0116607
-0.0136408
-0.0156097
-0.0175664
0.0213183
0.0194052
0.0174876
0.0155656
0.0136401
0.0117121
0.00978262
0.00785269
0.00592336
0.00399567
0.00207069
0.000149459
-0.00176696
-0.00367751
-0.00558114
-0.00747682
-0.00936347
-0.0112401
-0.0131058
-0.0149594
0.0218978
0.020072
0.0182419
0.016408
0.0145709
0.0127317
0.0108913
0.0090508
0.00721114
0.00537333
0.00353838
0.0017073
-0.000118886
-0.00193917
-0.00375255
-0.00555801
-0.00735455
-0.00914123
-0.010917
-0.012681
0.0224055
0.0206518
0.0188943
0.0171335
0.0153701
0.0136052
0.0118396
0.0100744
0.00831032
0.00654848
0.00478979
0.00303522
0.00128574
-0.000457698
-0.00219413
-0.00392259
-0.00564213
-0.00735185
-0.0090508
-0.0107381
0.022833
0.0211368
0.0194375
0.0177355
0.0160318
0.0143271
0.0126224
0.0109185
0.00921636
0.00751681
0.00582078
0.00412918
0.00244293
0.00076292
-0.000909935
-0.00257473
-0.00423058
-0.00587664
-0.00751199
-0.00913578
0.023154
0.0214999
0.0198436
0.0181856
0.0165268
0.0148679
0.0132098
0.0115532
0.0098991
0.00824822
0.00660143
0.00495958
0.00332351
0.00169406
7.20597e-05
-0.00154164
-0.00314621
-0.00474089
-0.0063248
-0.00789718
0.0233789
0.0217532
0.0201262
0.0184984
0.0168707
0.0152437
0.0136182
0.0119949
0.0103747
0.00875816
0.0071462
0.00553957
0.00393903
0.00234537
0.00075937
-0.000818066
-0.00238598
-0.00394543
-0.00549357
-0.00702996
0.0234341
0.0218168
0.0201998
0.0185839
0.0169696
0.0153576
0.0137486
0.0121433
0.0105424
0.00894656
0.00735639
0.0057726
0.00419584
0.00262679
0.0010661
-0.000485761
-0.00202834
-0.00355907
-0.0050796
-0.006589
0.0234338
0.0218165
0.0201995
0.0185836
0.0169693
0.0153573
0.0137483
0.0121431
0.0105422
0.00894628
0.00735612
0.00577232
0.00419557
0.00262652
0.00106582
-0.000486032
-0.00202861
-0.00355934
-0.00507987
-0.00658927
0.0233786
0.0217529
0.0201259
0.0184982
0.0168704
0.0152435
0.0136179
0.0119947
0.0103744
0.00875789
0.00714593
0.0055393
0.00393876
0.00234511
0.000759104
-0.000818331
-0.00238624
-0.00394569
-0.00549384
-0.00703022
0.0231537
0.0214996
0.0198433
0.0181854
0.0165265
0.0148677
0.0132095
0.011553
0.00989883
0.00824795
0.00660116
0.00495931
0.00332324
0.00169379
7.17905e-05
-0.00154191
-0.00314648
-0.00474116
-0.00632507
-0.00789745
0.0228327
0.0211365
0.0194372
0.0177353
0.0160315
0.0143269
0.0126222
0.0109183
0.00921609
0.00751654
0.00582051
0.00412891
0.00244266
0.000762652
-0.000910203
-0.002575
-0.00423084
-0.00587691
-0.00751226
-0.00913605
0.0224053
0.0206516
0.018894
0.0171332
0.0153699
0.013605
0.0118394
0.0100741
0.00831005
0.00654821
0.00478952
0.00303495
0.00128547
-0.000457966
-0.00219439
-0.00392286
-0.0056424
-0.00735212
-0.00905107
-0.0107383
0.0218975
0.0200718
0.0182417
0.0164077
0.0145706
0.0127314
0.010891
0.00905053
0.00721087
0.00537306
0.00353811
0.00170703
-0.000119154
-0.00193944
-0.00375282
-0.00555828
-0.00735482
-0.00914149
-0.0109173
-0.0126813
0.021318
0.019405
0.0174873
0.0155654
0.0136399
0.0117118
0.00978235
0.00785242
0.00592309
0.0039954
0.00207042
0.000149191
-0.00176723
-0.00367778
-0.00558141
-0.00747708
-0.00936374
-0.0112404
-0.013106
-0.0149597
0.0206825
0.0186664
0.0166457
0.0146205
0.0125915
0.0105597
0.00852621
0.0064922
0.00445869
0.00242676
0.000397504
-0.00162799
-0.00364863
-0.00566332
-0.00767099
-0.00967056
-0.0116609
-0.0136411
-0.01561
-0.0175667
0.0200031
0.0178674
0.0157272
0.0135825
0.011434
0.00928262
0.00712966
0.00497618
0.00282329
0.000672099
-0.00147629
-0.00362074
-0.00576015
-0.0078934
-0.0100194
-0.012137
-0.0142451
-0.0163427
-0.0184288
-0.0205022
0.0192936
0.0170204
0.0147433
0.0124619
0.0101768
0.00788917
0.00560019
0.00331098
0.00102265
-0.00126366
-0.00354682
-0.00582571
-0.00809917
-0.0103661
-0.0126254
-0.0148759
-0.0171164
-0.019346
-0.0215636
-0.0237682
0.0185671
0.0161373
0.0137043
0.0112677
0.00882793
0.00638613
0.00394352
0.00150126
-0.000939557
-0.00337778
-0.00581229
-0.00824192
-0.0106656
-0.013082
-0.0154903
-0.0178893
-0.0202774
-0.0226542
-0.0250186
-0.0273693
0.0178374
0.0152301
0.0126209
0.0100091
0.00739498
0.00477973
0.00216459
-0.000449325
-0.00306091
-0.00566903
-0.00827259
-0.0108704
-0.0134615
-0.0160446
-0.0186189
-0.0211837
-0.0237343
-0.0262739
-0.0288008
-0.0313133
0.0171187
0.0143111
0.0115035
0.00869479
0.00588513
0.00307568
0.000267677
-0.00253777
-0.00533958
-0.00813667
-0.0109279
-0.0137122
-0.0164885
-0.0192557
-0.0220125
-0.0247578
-0.027492
-0.0302125
-0.0329184
-0.035609
0.0164255
0.0133927
0.0103624
0.00733312
0.00430481
0.0012786
-0.00174432
-0.00476286
-0.00777601
-0.0107827
-0.0137819
-0.0167726
-0.0197537
-0.0227242
-0.0256828
-0.0286283
-0.0315619
-0.0344802
-0.0373825
-0.0402683
0.0157731
0.0124877
0.0092081
0.00593244
0.00266033
-0.000607139
-0.00386882
-0.00712371
-0.0103709
-0.0136093
-0.0168381
-0.0200561
-0.0232626
-0.0264565
-0.0296368
-0.0328023
-0.0359531
-0.0390875
-0.0422046
-0.0453038
0.0151773
0.0116092
0.0080512
0.00450084
0.000957479
-0.00257793
-0.00610429
-0.0096207
-0.0131263
-0.0166203
-0.0201017
-0.0235697
-0.0270235
-0.0304621
-0.0338849
-0.0372902
-0.0406785
-0.0440486
-0.0473995
-0.0507306
0.014655
0.010771
0.00690243
0.00304632
-0.000798389
-0.00463087
-0.00845013
-0.0122554
-0.016046
-0.0198211
-0.0235801
-0.0273221
-0.0310465
-0.0347526
-0.0384399
-0.0421059
-0.0457526
-0.0493788
-0.0529833
-0.0565656
0.0142243
0.00998757
0.0057729
0.00157683
-0.00260226
-0.00676372
-0.0109067
-0.0150306
-0.0191349
-0.023219
-0.0272824
-0.0313244
-0.0353446
-0.0393431
-0.0433202
-0.0472667
-0.0511929
-0.0550962
-0.0589746
-0.0628277
0.0139044
0.00927424
0.00467426
0.000100461
-0.00444939
-0.00897487
-0.0134753
-0.0179502
-0.0223994
-0.0268223
-0.0312188
-0.0355884
-0.0399307
-0.044246
-0.0485338
-0.0527902
-0.0570199
-0.0612216
-0.0653944
-0.0695383
0.0137169
0.00864782
0.00361896
-0.00137441
-0.00633524
-0.0112634
-0.0161583
-0.0210199
-0.025848
-0.0306424
-0.0354031
-0.0401298
-0.0448225
-0.0494802
-0.0541003
-0.0586966
-0.063255
-0.0677773
-0.0722657
-0.0767207
0.0136855
0.00812697
0.00262076
-0.00283868
-0.00825513
-0.0136288
-0.0189593
-0.0242468
-0.0294915
-0.0346934
-0.0398527
-0.0449696
-0.0500442
-0.0550767
-0.0600645
-0.0650147
-0.0699231
-0.0747897
-0.0796159
-0.0844023
0.0138373
0.00773296
0.00169537
-0.00428186
-0.0102035
-0.0160701
-0.0218816
-0.0276383
-0.0333406
-0.038989
-0.0445839
-0.0501253
-0.0556144
-0.0610525
-0.0664313
-0.0717658
-0.077052
-0.0822877
-0.087474
-0.0926123
0.0142033
0.00749023
0.000860925
-0.00569186
-0.012174
-0.0185865
-0.0249294
-0.0312034
-0.0374093
-0.043548
-0.0496202
-0.0556271
-0.0615736
-0.0674669
-0.0732525
-0.0789952
-0.0846837
-0.090311
-0.0958783
-0.101388
0.0148197
0.00742746
0.000139042
-0.00705381
-0.0141583
-0.0211756
-0.028106
-0.0349502
-0.0417094
-0.0483842
-0.0549757
-0.0614847
-0.067909
-0.0742417
-0.0805314
-0.0867316
-0.0928497
-0.0988933
-0.104865
-0.110765
0.0157284
0.00757845
-0.000444467
-0.00834969
-0.0161458
-0.0238344
-0.0314158
-0.038891
-0.0462614
-0.0535279
-0.0606916
-0.0677536
-0.074714
-0.0815667
-0.0883434
-0.0950194
-0.101598
-0.108084
-0.114482
-0.120792
0.0169784
0.00798341
-0.000857961
-0.0095562
-0.0181215
-0.0265555
-0.0348587
-0.0430322
-0.0510775
-0.0589955
-0.0667862
-0.0744522
-0.0819998
-0.089393
-0.0966979
-0.103894
-0.11097
-0.117929
-0.124777
-0.131516
0.0186266
0.00868959
-0.00106354
-0.0106447
-0.0200657
-0.0293283
-0.0384326
-0.0473802
-0.0561732
-0.0648136
-0.0733062
-0.0816803
-0.0899849
-0.0978598
-0.105707
-0.113448
-0.121044
-0.128498
-0.135815
-0.142999
0.0207382
0.00975239
-0.00101579
-0.0115799
-0.0219533