/*--------------------------------*- C++ -*----------------------------------*\
  =========                 |
  \\      /  F ield         | OpenFOAM: The Open Source CFD Toolbox
   \\    /   O peration     | Website:  https://openfoam.org
    \\  /    A nd           | Version:  7
     \\/     M anipulation  |
\*---------------------------------------------------------------------------*/
FoamFile
{
    version     2.0;
    format      ascii;
    class       volVectorField;
    location    "5";
    object      U;
}
// * * * * * * * * * * * * * * * * * * * * * * * * * * * * * * * * * * * * * //

dimensions      [0 1 -1 0 0 0 0];

internalField   nonuniform List<vector> 
3275
(
(0.020258 -0.00869462 7.12613e-20)
(0.066241 -0.0240311 5.47824e-20)
(0.0230673 -0.0091448 -2.04709e-20)
(0.0742759 -0.0248907 -2.27486e-19)
(0.132867 -0.0351938 1.82255e-19)
(0.0260279 -0.00947115 5.68332e-20)
(0.0826859 -0.0253897 2.22213e-19)
(0.14638 -0.0353072 1.41989e-19)
(0.215885 -0.0407953 -1.89889e-19)
(0.290392 -0.0423291 -3.0574e-20)
(0.0291315 -0.00965994 -8.21477e-20)
(0.0914426 -0.0254932 1.04732e-19)
(0.160363 -0.0347872 -8.12052e-20)
(0.234671 -0.0392634 -1.27744e-19)
(0.313522 -0.0394878 8.93112e-20)
(0.396033 -0.0358842 -1.68157e-19)
(0.481191 -0.0289733 1.02262e-19)
(0.0323679 -0.00969783 7.88003e-20)
(0.100513 -0.0251679 5.13094e-21)
(0.174758 -0.0335883 3.01733e-20)
(0.253892 -0.0368309 -8.415e-20)
(0.337039 -0.0355558 1.98546e-19)
(0.423265 -0.0302726 -7.1987e-20)
(0.511497 -0.0215889 -1.93456e-19)
(0.600557 -0.0101314 -6.15156e-20)
(0.689169 0.00345054 -3.20006e-20)
(0.0357252 -0.00957211 -1.17863e-19)
(0.10986 -0.0243831 9.80663e-20)
(0.189502 -0.0316695 -8.08918e-20)
(0.273457 -0.0334531 9.20614e-20)
(0.360824 -0.0304916 -6.49684e-20)
(0.450621 -0.0233834 9.28262e-20)
(0.541722 -0.0128262 2.90701e-19)
(0.632889 0.00046716 1.56715e-19)
(0.722796 0.0157676 1.12001e-19)
(0.810058 0.032328 -1.73007e-19)
(0.893273 0.0493946 -1.47548e-19)
(0.0391897 -0.0092708 -7.03057e-21)
(0.119442 -0.0231107 -1.03808e-19)
(0.204523 -0.0289946 2.83862e-20)
(0.293269 -0.0290931 -7.53612e-20)
(0.384752 -0.0242635 6.75523e-20)
(0.477952 -0.0151964 3.25766e-20)
(0.571693 -0.0026817 1.37047e-20)
(0.664691 0.0124806 4.77136e-20)
(0.75558 0.0294817 4.39969e-21)
(0.842956 0.047507 1.05473e-19)
(0.925424 0.0657515 -1.11906e-19)
(1.00166 0.0834508 -3.64442e-20)
(1.07047 0.0999792 -3.38715e-20)
(0.0427457 -0.00878287 2.55008e-20)
(0.129212 -0.0213255 -1.21402e-20)
(0.219746 -0.0255331 5.88717e-20)
(0.313221 -0.0237218 4.58855e-20)
(0.408692 -0.0168506 -1.55048e-19)
(0.505103 -0.00570428 6.5915e-20)
(0.601238 0.00883385 -1.4994e-19)
(0.695778 0.0258763 -1.6964e-19)
(0.787332 0.0445365 -9.89087e-20)
(0.874496 0.063936 -2.05534e-19)
(0.955904 0.0832245 9.78945e-21)
(1.03029 0.101616 6.86972e-20)
(1.09658 0.118476 9.05259e-20)
(1.15386 0.133132 8.21853e-20)
(1.20118 0.144207 -6.31993e-12)
(0.046376 -0.00809844 3.84577e-20)
(0.13912 -0.0190062 -1.22768e-19)
(0.235089 -0.0212606 -1.11128e-19)
(0.333203 -0.017319 1.81184e-20)
(0.432506 -0.00824278 7.89555e-20)
(0.531914 0.00508779 -1.422e-20)
(0.630182 0.0216956 -1.5254e-20)
(0.725966 0.0406072 7.22282e-20)
(0.81787 0.0608616 1.82108e-19)
(0.904505 0.0815218 1.26342e-19)
(0.984557 0.101701 -7.86317e-21)
(1.05685 0.120599 7.01021e-20)
(1.12042 0.137586 -6.09253e-20)
(1.17453 0.152037 -3.33236e-20)
(1.21846 0.162823 4.17182e-20)
(0.0500614 -0.00720891 -1.12366e-19)
(0.149111 -0.0161355 1.31653e-19)
(0.250464 -0.0161595 -5.77501e-20)
(0.353098 -0.00987349 3.52584e-21)
(0.456053 0.0015589 7.21312e-20)
(0.558224 0.0171616 -6.43537e-20)
(0.65835 0.0358651 1.47608e-19)
(0.755077 0.0566126 5.19104e-20)
(0.847017 0.078374 -1.24057e-19)
(0.932821 0.100161 2.04544e-20)
(1.01125 0.12106 5.98058e-20)
(1.08123 0.140269 -6.11878e-20)
(1.14193 0.157174 1.29946e-19)
(1.1928 0.171209 -3.41031e-20)
(1.23333 0.181485 -2.69912e-20)
(0.0537813 -0.00610721 9.53888e-20)
(0.159127 -0.0127003 -2.78821e-20)
(0.26578 -0.0102192 3.52568e-20)
(0.372786 -0.00138368 -7.07831e-20)
(0.479188 0.0125417 4.36009e-20)
(0.583872 0.0304861 1.97944e-21)
(0.685571 0.0512903 -1.05599e-19)
(0.782936 0.073819 -1.46766e-19)
(0.874609 0.0969793 4.35175e-20)
(0.959297 0.119742 -1.93551e-20)
(1.03585 0.141177 -7.43954e-20)
(1.10333 0.160494 -4.32448e-21)
(1.16106 0.177106 3.63601e-20)
(1.20865 0.190522 -4.42971e-20)
(1.24584 0.20008 8.30669e-20)
(0.0575134 -0.00478797 -8.95252e-20)
(0.169107 -0.00869251 -2.82349e-20)
(0.280943 -0.00343676 3.67258e-20)
(0.392143 0.00814209 5.57577e-20)
(0.501766 0.0246812 -2.42701e-20)
(0.608698 0.0450176 -2.55931e-20)
(0.711678 0.0679066 4.49325e-20)
(0.80938 0.0921405 1.04483e-19)
(0.900493 0.116573 -5.01712e-20)
(0.983801 0.140145 -1.86093e-20)
(1.05827 0.161923 -3.97771e-20)
(1.12309 0.181141 -1.6366e-20)
(1.17778 0.197254 5.01925e-20)
(1.2221 0.209857 5.13599e-20)
(1.25603 0.218509 1.37988e-20)
(0.0612342 -0.00324771 -5.23377e-21)
(0.178986 -0.00410927 5.01716e-20)
(0.295854 0.00418275 -4.54036e-20)
(0.411046 0.0186852 -9.42813e-21)
(0.523643 0.0379414 2.54733e-20)
(0.632543 0.0606999 4.80751e-20)
(0.736508 0.0856368 -4.70536e-20)
(0.834253 0.111481 -5.0504e-20)
(0.924529 0.137042 6.5026e-21)
(1.00622 0.161245 4.5997e-20)
(1.07841 0.183166 7.65451e-21)
(1.14047 0.202078 -1.21968e-20)
(1.19207 0.217494 -3.5199e-20)
(1.23318 0.229102 8.29504e-21)
(1.26395 0.236678 -2.70383e-20)
(0.0649192 -0.00148499 2.34236e-20)
(0.1887 0.0010468 -2.82923e-20)
(0.310414 0.0126259 3.72388e-20)
(0.429368 0.0302168 -2.97129e-20)
(0.544674 0.0522744 1.81095e-20)
(0.655255 0.0774648 -1.75173e-20)
(0.759911 0.104393 1.34443e-20)
(0.857411 0.131733 5.12239e-20)
(0.946593 0.158265 -2.81407e-21)
(1.02645 0.18291 9.08493e-22)
(1.09622 0.204772 3.29211e-20)
(1.15544 0.223177 3.53625e-21)
(1.20395 0.237705 3.47642e-20)
(1.24192 0.248153 -4.23639e-20)
(1.26967 0.254506 -1.8962e-20)
(0.0685429 0.000499434 -2.58259e-21)
(0.19818 0.00676727 8.45962e-21)
(0.324524 0.0218709 -2.2477e-20)
(0.446985 0.0426974 9.75089e-22)
(0.564719 0.0676209 -6.60097e-21)
(0.676688 0.0952324 1.66891e-21)
(0.781742 0.124075 -1.16293e-20)
(0.878725 0.152781 5.72729e-21)
(0.966575 0.180115 2.34057e-21)
(1.04442 0.205009 -1.65722e-21)
(1.11165 0.226609 5.23003e-21)
(1.16798 0.24431 4.21729e-21)
(1.21344 0.257774 -1.16862e-21)
(1.24838 0.266915 8.10782e-21)
(1.27328 0.271916 -6.1254e-21)
(0.0720794 0.00270253 -9.82294e-21)
(0.20736 0.0130378 6.61774e-21)
(0.338084 0.0318871 -1.34112e-20)
(0.463776 0.0560773 1.8119e-22)
(0.583644 0.0839107 -6.70598e-21)
(0.696703 0.113912 8.0978e-22)
(0.80187 0.144575 -1.19191e-20)
(0.898078 0.174503 5.78402e-21)
(0.984383 0.20246 -3.73268e-22)
(1.06006 0.227405 8.05918e-22)
(1.12467 0.248544 8.76153e-21)
(1.1781 0.265355 1.32854e-21)
(1.22058 0.277593 1.54669e-21)
(1.25262 0.285296 4.26677e-21)
(1.27486 0.28884 -2.84205e-21)
(0.0755025 0.00511894 9.09226e-21)
(0.216171 0.0198379 -2.46155e-20)
(0.350996 0.0426354 3.61693e-20)
(0.479621 0.0702967 -1.95428e-20)
(0.601321 0.101063 -3.93072e-21)
(0.715171 0.133403 -1.34496e-20)
(0.820174 0.165775 3.84328e-20)
(0.915368 0.196769 1.39581e-20)
(0.99994 0.225163 1.23402e-20)
(1.07332 0.249963 -2.01992e-21)
(1.13526 0.270449 2.7795e-20)
(1.18582 0.286194 1.00261e-20)
(1.22542 0.297059 4.69849e-21)
(1.25472 0.303214 -1.73452e-20)
(1.27449 0.305218 -4.27065e-21)
(0.0787854 0.00774079 2.12394e-20)
(0.224546 0.0271411 2.24425e-20)
(0.363163 0.0540681 -3.73184e-20)
(0.494407 0.0852858 -5.29123e-21)
(0.617626 0.118986 3.38692e-20)
(0.731973 0.153596 5.38824e-22)
(0.836547 0.18755 -8.01432e-21)
(0.930507 0.219443 -5.53279e-20)
(1.01319 0.248085 -4.71849e-21)
(1.08419 0.272546 4.01591e-20)
(1.14343 0.292194 -1.01806e-21)
(1.19118 0.306713 1.42664e-20)
(1.22802 0.316076 -3.79963e-20)
(1.25476 0.320592 2.65471e-20)
(1.27227 0.320992 -8.45259e-21)
(0.081902 0.0105578 -5.46419e-20)
(0.23242 0.0349147 -6.92156e-20)
(0.374495 0.0661293 4.18008e-20)
(0.508027 0.100965 4.78057e-20)
(0.632449 0.13758 -7.16021e-21)
(0.747002 0.174371 -1.26907e-20)
(0.850897 0.209769 1.83634e-20)
(0.943426 0.242388 8.33072e-20)
(1.02408 0.271088 2.93628e-21)
(1.09263 0.29502 -1.67801e-20)
(1.1492 0.313656 -1.65339e-20)
(1.19422 0.326803 -4.9666e-20)
(1.22844 0.334554 5.46944e-20)
(1.25282 0.337356 -1.29884e-20)
(1.26831 0.336111 6.07271e-20)
(0.0848267 0.0135571 1.06579e-19)
(0.239729 0.04312 -7.52704e-21)
(0.384903 0.0787547 4.73303e-21)
(0.52038 0.117248 8.7578e-21)
(0.645686 0.156736 -1.35199e-20)
(0.760164 0.195604 1.3857e-20)
(0.863146 0.232295 -1.09589e-19)
(0.954069 0.26546 -7.38975e-20)
(1.03259 0.294031 -2.45114e-20)
(1.09866 0.317251 -6.50307e-21)
(1.15259 0.334716 -4.15085e-20)
(1.195 0.346361 1.36873e-20)
(1.22677 0.352406 -3.15741e-20)
(1.249 0.353442 1.27853e-21)
(1.26268 0.350529 1.58216e-20)
(0.087535 0.0167235 -8.85565e-20)
(0.246414 0.0517127 7.14502e-20)
(0.394305 0.091873 1.79009e-20)
(0.531374 0.134037 1.33397e-20)
(0.657247 0.176337 -2.93584e-21)
(0.771378 0.217163 5.72572e-20)
(0.873231 0.254987 9.03754e-20)
(0.962397 0.288518 -1.07214e-20)
(1.03871 0.316773 -3.92113e-20)
(1.1023 0.339111 -1.95225e-20)
(1.15366 0.355257 7.58955e-20)
(1.19357 0.365287 -2.5218e-20)
(1.22309 0.369553 -1.48649e-21)
(1.24338 0.368787 2.87798e-20)
(1.25549 0.364202 -4.62626e-21)
(0.0900033 0.0200396 9.35506e-20)
(0.252419 0.0606432 -1.20957e-19)
(0.402628 0.105406 -3.52196e-20)
(0.540928 0.151229 5.73983e-20)
(0.667053 0.196261 -3.37614e-20)
(0.780576 0.238911 -7.76374e-20)
(0.881104 0.277701 3.76252e-20)
(0.968388 0.311417 1.04971e-19)
(1.04243 0.339178 1.27493e-19)
(1.10357 0.360473 1.32296e-19)
(1.15245 0.375168 -2.8921e-21)
(1.19003 0.383489 2.4223e-20)
(1.21748 0.385919 -7.82407e-20)
(1.23606 0.383332 1.55465e-20)
(1.24684 0.377089 1.15059e-20)
(0.0922098 0.0234858 5.75248e-20)
(0.257693 0.0698567 -1.06715e-21)
(0.409803 0.119268 1.30158e-19)
(0.548969 0.168715 -1.56368e-19)
(0.675037 0.216379 2.56426e-20)
(0.787707 0.260708 6.58234e-21)
(0.886734 0.300292 -9.18248e-20)
(0.972034 0.334013 -1.47633e-19)
(1.04379 0.361111 -7.88288e-20)
(1.10251 0.381215 -1.0589e-19)
(1.14903 0.394345 1.94513e-20)
(1.18444 0.400878 -6.90106e-21)
(1.21003 0.401435 2.7275e-20)
(1.22713 0.397023 -3.52084e-20)
(1.23682 0.389155 5.00954e-21)
(0.0941341 0.0270402 -4.69071e-20)
(0.262188 0.0792938 1.90328e-20)
(0.415772 0.133369 -3.75063e-20)
(0.555437 0.186381 -3.53617e-20)
(0.681146 0.236558 4.5018e-20)
(0.792734 0.282412 -9.21244e-21)
(0.890104 0.322616 3.51765e-20)
(0.973343 0.356167 1.96132e-21)
(1.04281 0.382441 1.80708e-20)
(1.09919 0.40122 7.58928e-22)
(1.14347 0.412686 -2.04416e-20)
(1.17689 0.417372 -3.98737e-21)
(1.20084 0.416032 -7.48347e-20)
(1.2167 0.409805 4.35666e-20)
(1.22553 0.400371 -8.06418e-20)
(0.0957582 0.0306793 -4.72365e-20)
(0.265865 0.0888913 5.04524e-20)
(0.420484 0.147614 -1.57733e-20)
(0.560283 0.204105 7.90522e-20)
(0.685343 0.256664 -1.20815e-19)
(0.795634 0.303877 2.16854e-19)
(0.891214 0.344526 1.27835e-19)
(0.972337 0.377738 1.46056e-19)
(1.03953 0.40304 -1.31062e-20)
(1.09366 0.420376 9.6374e-20)
(1.13584 0.430097 9.83676e-20)
(1.16746 0.432893 -2.28041e-20)
(1.18999 0.429647 -6.40569e-20)
(1.20485 0.421621 5.65726e-20)
(1.21302 0.410705 -1.22922e-21)
(0.0970662 0.0343779 7.41989e-21)
(0.268689 0.0985824 4.99457e-20)
(0.423898 0.161904 3.86307e-20)
(0.563469 0.221766 1.53226e-20)
(0.687601 0.276557 6.27961e-21)
(0.796401 0.32496 2.22138e-20)
(0.890079 0.365881 -1.96297e-19)
(0.969052 0.398593 -1.33468e-19)
(1.03402 0.422786 -5.25929e-20)
(1.08599 0.438579 -1.30052e-19)
(1.12624 0.446491 -1.2489e-19)
(1.15625 0.44737 -5.90966e-20)
(1.17758 0.442226 3.50114e-21)
(1.19163 0.432427 5.07261e-21)
(1.19927 0.42007 -7.22197e-21)
(0.0980447 0.0381093 -5.31945e-20)
(0.270633 0.108297 -4.24329e-20)
(0.425985 0.176137 -4.35658e-20)
(0.564973 0.23924 1.14392e-20)
(0.687911 0.296101 -9.8982e-20)
(0.795042 0.345518 -1.08046e-19)
(0.886727 0.386541 1.65327e-19)
(0.963539 0.418601 -6.32016e-20)
(1.02634 0.441564 1.11444e-19)
(1.07627 0.455728 4.63332e-20)
(1.11476 0.461785 -8.60323e-20)
(1.14336 0.460739 1.16629e-19)
(1.16369 0.453734 -1.46752e-21)
(1.17715 0.442264 -6.96612e-21)
(1.18453 0.428362 -6.63906e-20)
(0.0986829 0.0418458 1.557e-19)
(0.271676 0.117964 1.74324e-20)
(0.426723 0.190209 7.12345e-20)
(0.564782 0.256399 1.4835e-19)
(0.686277 0.315156 -4.57287e-20)
(0.791582 0.36541 4.99598e-20)
(0.881202 0.406368 -1.18829e-19)
(0.955861 0.437636 8.44945e-20)
(1.01656 0.459264 -7.63686e-20)
(1.0646 0.47173 -5.7135e-20)
(1.10148 0.475902 1.13881e-19)
(1.12887 0.472938 5.78819e-20)
(1.14843 0.464106 1.97704e-20)
(1.16154 0.451029 3.73064e-20)
(1.16897 0.435737 2.77894e-20)
(0.098973 0.0455586 -1.08279e-19)
(0.271804 0.12751 -6.88588e-20)
(0.426105 0.204014 -1.5337e-19)
(0.562898 0.273118 -5.48968e-20)
(0.682715 0.333587 8.42549e-20)
(0.786056 0.384499 1.10925e-19)
(0.873561 0.425232 4.42461e-20)
(0.946093 0.455581 3.08618e-20)
(1.00479 0.475781 5.46731e-20)
(1.05106 0.486499 1.24401e-19)
(1.08652 0.488774 -6.66601e-20)
(1.11289 0.483909 1.1706e-20)
(1.13189 0.473296 -5.68767e-20)
(1.14486 0.458669 8.34539e-21)
(1.15251 0.442104 -9.12306e-21)
(0.0989099 0.0492184 1.30767e-20)
(0.271012 0.13686 1.40063e-20)
(0.42413 0.217447 1.04931e-19)
(0.559336 0.289272 -1.44979e-19)
(0.677259 0.351259 6.28912e-20)
(0.778516 0.40265 -5.16543e-20)
(0.863874 0.443008 -6.21885e-21)
(0.93432 0.472321 7.55091e-21)
(0.991112 0.491019 4.34584e-20)
(1.03576 0.499955 5.6491e-20)
(1.06996 0.500335 3.59876e-20)
(1.09551 0.493604 -6.95305e-21)
(1.11414 0.481263 3.89713e-20)
(1.12718 0.465155 1.59988e-20)
(1.13524 0.447415 -1.23331e-20)
(0.0984916 0.0527956 -5.09548e-21)
(0.269302 0.14594 -5.20074e-20)
(0.420811 0.230403 2.73432e-20)
(0.554124 0.304738 7.15124e-20)
(0.669954 0.368043 -1.42783e-19)
(0.769027 0.419735 -1.40734e-19)
(0.852224 0.459575 -5.96685e-20)
(0.920641 0.487751 -6.12216e-20)
(0.975639 0.504891 -4.42203e-20)
(1.01881 0.512028 -3.78956e-20)
(1.05193 0.51053 4.68907e-20)
(1.07683 0.501976 -2.20358e-20)
(1.09527 0.487972 -1.76677e-20)
(1.10857 0.470457 8.59373e-21)
(1.11722 0.451638 1.28473e-20)
(0.097719 0.0562607 1.39904e-20)
(0.266682 0.154677 3.97704e-20)
(0.41617 0.242779 7.10954e-20)
(0.5473 0.319397 -1.01987e-19)
(0.660859 0.383813 4.13815e-20)
(0.757668 0.435632 1.39191e-19)
(0.838705 0.474821 -5.50615e-20)
(0.905163 0.501774 -6.09622e-21)
(0.958486 0.517314 -1.46576e-21)
(1.00034 0.522653 6.25335e-21)
(1.03253 0.519311 -4.79876e-20)
(1.05694 0.508989 -8.39344e-20)
(1.07537 0.49339 1.80316e-20)
(1.08909 0.474545 -1.08978e-22)
(1.09851 0.454743 -8.56156e-22)
(0.0965964 0.0595843 2.20824e-20)
(0.263169 0.162997 -1.30994e-19)
(0.410241 0.254475 -1.30666e-20)
(0.538916 0.333132 9.12067e-20)
(0.650044 0.398448 -8.38104e-21)
(0.744526 0.450226 5.71844e-20)
(0.82342 0.488641 5.40346e-20)
(0.888002 0.514299 -2.57002e-20)
(0.939774 0.528215 7.65815e-20)
(0.980448 0.531774 -3.5506e-20)
(1.01187 0.526636 3.43522e-20)
(1.03595 0.514613 5.61582e-20)
(1.05451 0.497493 -2.44483e-20)
(1.06881 0.477393 1.93827e-21)
(1.07918 0.456697 1.04203e-20)
(0.0951305 0.062738 4.44036e-20)
(0.258786 0.17083 9.85815e-20)
(0.403065 0.265394 3.32679e-20)
(0.529035 0.345833 -1.03792e-19)
(0.637591 0.411834 -8.62594e-20)
(0.729701 0.463406 2.08656e-21)
(0.806488 0.500938 -1.76535e-20)
(0.869284 0.525243 -3.51308e-21)
(0.919635 0.537528 -8.49573e-20)
(0.95928 0.539341 8.78741e-21)
(0.990084 0.532471 -6.13778e-21)
(1.01396 0.518825 -9.40379e-21)
(1.03276 0.500263 3.86802e-21)
(1.04777 0.478976 -2.39607e-20)
(1.05927 0.457465 -5.55039e-20)
(0.0933291 0.0656925 -3.43837e-20)
(0.253566 0.178109 -1.26718e-19)
(0.394696 0.275442 5.29323e-20)
(0.51773 0.357395 6.6061e-20)
(0.623594 0.423866 6.05307e-20)
(0.713304 0.475072 -5.07884e-20)
(0.788031 0.511622 9.98989e-22)
(0.849141 0.534532 4.86522e-20)
(0.898205 0.545196 1.13005e-20)
(0.936968 0.545315 8.56146e-22)
(0.967285 0.536792 -1.86752e-20)
(0.991065 0.521613 5.34852e-22)
(1.0102 0.501693 2.92393e-20)
(1.02601 0.479278 4.72477e-20)
(1.03881 0.457006 5.61388e-20)
(0.0912073 0.068419 -2.12083e-20)
(0.247546 0.184767 5.30544e-20)
(0.385193 0.284532 -3.71943e-20)
(0.505085 0.367719 -3.27249e-20)
(0.608156 0.434442 -1.03208e-20)
(0.695455 0.485131 8.85406e-22)
(0.768179 0.520611 -1.17171e-20)
(0.827713 0.542099 -2.164e-20)
(0.875629 0.551168 1.12861e-20)
(0.913653 0.54966 1.68208e-21)
(0.943612 0.53958 7.45269e-21)
(0.967392 0.522974 -1.36613e-20)
(0.986901 0.501788 1.57807e-20)
(1.00356 0.47829 1.78552e-20)
(0.0887813 0.0708943 -8.32994e-21)
(0.240768 0.190741 2.9894e-20)
(0.374627 0.292581 2.50744e-20)
(0.491191 0.376714 1.87548e-20)
(0.591388 0.443472 -2.89195e-21)
(0.67628 0.493499 1.9419e-21)
(0.747071 0.527832 8.12908e-21)
(0.805145 0.547885 9.92186e-21)
(0.852053 0.555399 -2.00861e-20)
(0.889484 0.552347 -1.38852e-20)
(0.919211 0.540822 9.68098e-23)
(0.943069 0.522911 2.58258e-20)
(0.962955 0.500568 -8.98462e-20)
(0.0860675 0.0730937 -5.11032e-21)
(0.233282 0.195976 -1.02906e-20)
(0.363075 0.299514 -1.62573e-20)
(0.476149 0.384296 -3.29811e-21)
(0.57341 0.450874 2.39527e-21)
(0.655913 0.500101 -1.03137e-20)
(0.724851 0.533221 -1.24846e-20)
(0.781585 0.551838 -2.59853e-20)
(0.82763 0.55785 4.64327e-20)
(0.864616 0.553352 -9.30393e-21)
(0.894237 0.54051 1.55683e-20)
(0.918244 0.521438 -7.17693e-20)
(0.0830857 0.0749943 1.27291e-20)
(0.225143 0.200419 -1.70365e-20)
(0.35062 0.30526 -9.05929e-21)
(0.460068 0.39039 1.19103e-20)
(0.554348 0.456574 3.21727e-21)
(0.634493 0.504871 -2.5982e-20)
(0.701664 0.536724 -1.52444e-21)
(0.757183 0.553915 2.0959e-20)
(0.802512 0.558489 3.04251e-20)
(0.839203 0.552651 2.05444e-20)
(0.868857 0.538634 -1.18164e-21)
(0.893095 0.518571 1.18775e-21)
(0.0798583 0.0765753 2.27142e-20)
(0.216411 0.204022 2.42092e-20)
(0.337354 0.309757 3.90516e-20)
(0.443062 0.394929 -1.55271e-20)
(0.534335 0.460509 3.7608e-20)
(0.612163 0.507753 6.63553e-21)
(0.67766 0.538294 1.24172e-20)
(0.732091 0.554078 3.69502e-20)
(0.776848 0.557287 -6.91843e-20)
(0.8134 0.550223 2.92813e-21)
(0.843239 0.535181 -1.84979e-20)
(0.0764101 0.0778185 -9.3428e-20)
(0.207152 0.206742 -2.17414e-20)
(0.323372 0.312953 -5.17509e-20)
(0.42525 0.397858 2.41926e-20)
(0.513506 0.462627 -2.08627e-20)
(0.58907 0.508703 -5.87454e-20)
(0.652989 0.537895 5.01306e-21)
(0.706457 0.5523 -7.70489e-20)
(0.750785 0.554221 -5.43912e-20)
(0.787351 0.546045 -8.20112e-20)
(0.0727671 0.0787074 4.79019e-20)
(0.197432 0.208544 -6.93984e-20)
(0.308775 0.314801 8.71641e-21)
(0.406758 0.399129 -3.29308e-20)
(0.492002 0.462886 -6.31042e-20)
(0.565362 0.507686 -2.23621e-20)
(0.6278 0.535501 -5.80547e-21)
(0.680426 0.548564 -4.55222e-20)
(0.724459 0.549278 5.04659e-20)
(0.761179 0.5401 1.96339e-19)
(0.0689567 0.0792282 3.76912e-20)
(0.187324 0.209397 -1.89552e-20)
(0.293667 0.315265 5.72375e-20)
(0.387712 0.398707 5.48963e-20)
(0.469966 0.461253 9.63338e-20)
(0.541189 0.504679 1.2754e-20)
(0.602245 0.531099 3.72076e-20)
(0.654143 0.542863 6.23985e-20)
(0.698001 0.542457 -2.5325e-20)
(0.0650081 0.0793693 6.27731e-20)
(0.176902 0.209276 3.05287e-20)
(0.278156 0.314316 -2.87447e-20)
(0.368245 0.396565 1.28637e-20)
(0.447543 0.457711 -1.46628e-19)
(0.516702 0.499671 2.22275e-20)
(0.576473 0.524686 9.09193e-20)
(0.62775 0.535202 -5.61616e-20)
(0.0609514 0.0791223 -1.48628e-20)
(0.166243 0.208165 -1.0454e-19)
(0.262354 0.311935 1.11601e-19)
(0.348489 0.392688 -1.44402e-19)
(0.424881 0.45225 9.20446e-20)
(0.492054 0.492661 1.03169e-19)
(0.550634 0.516269 -4.84081e-20)
(0.60139 0.525598 2.1196e-19)
(0.0568177 0.0784813 6.6135e-20)
(0.155425 0.206053 5.38464e-20)
(0.246371 0.308113 -1.85849e-19)
(0.328581 0.387071 2.63768e-19)
(0.402126 0.444872 -5.8039e-20)
(0.467397 0.483661 -2.43096e-19)
(0.524878 0.505867 1.44982e-19)
(0.0526386 0.0774432 -1.96151e-20)
(0.144528 0.202936 -1.90667e-19)
(0.230322 0.30285 1.81208e-19)
(0.308653 0.379721 -5.60769e-20)
(0.379426 0.435592 1.01231e-19)
(0.442881 0.47269 1.64695e-19)
(0.499354 0.493508 1.33428e-19)
(0.0484459 0.0760076 7.29036e-21)
(0.133631 0.198816 1.68054e-20)
(0.214319 0.296154 -6.12223e-20)
(0.288842 0.370653 -2.23971e-19)
(0.356926 0.424433 -1.62499e-19)
(0.418655 0.45978 3.89809e-20)
(0.0442718 0.0741773 -7.97031e-20)
(0.122814 0.193703 -1.5047e-19)
(0.198474 0.288043 -4.0036e-20)
(0.26928 0.359895 1.52456e-19)
(0.33477 0.41143 1.66315e-19)
(0.394866 0.444973 -1.11101e-19)
(0.0401479 0.0719573 1.112e-19)
(0.112157 0.187614 7.87617e-20)
(0.182899 0.278544 1.78896e-19)
(0.250097 0.347482 -1.56061e-19)
(0.313099 0.396627 -1.18029e-19)
(0.371657 0.428319 -1.71101e-19)
(0.0361056 0.0693556 -2.04749e-20)
(0.101735 0.18057 2.20411e-19)
(0.167702 0.267692 -1.69642e-19)
(0.231422 0.33346 9.51073e-20)
(0.29205 0.38008 1.44291e-19)
(0.0321757 0.066383 -7.99968e-20)
(0.091626 0.1726 -1.53295e-19)
(0.152988 0.255531 1.49889e-19)
(0.213377 0.317886 -2.69299e-19)
(0.271754 0.361852 1.70918e-19)
(0.0283876 0.0630526 1.23274e-19)
(0.0819013 0.16374 2.17784e-19)
(0.138859 0.242113 -1.70651e-19)
(0.196082 0.300824 1.5818e-19)
(0.252339 0.342016 -6.83885e-20)
(0.0247702 0.05938 -2.23098e-19)
(0.0726314 0.154031 1.08378e-19)
(0.125413 0.227496 -1.52713e-19)
(0.179649 0.282347 -6.83912e-20)
(0.0213506 0.0553832 2.25714e-19)
(0.0638825 0.143517 -1.43173e-19)
(0.11274 0.211749 1.6778e-19)
(0.164186 0.262535 -2.73062e-20)
(0.0181544 0.0510824 -2.03916e-19)
(0.0557175 0.13225 3.39012e-19)
(0.100929 0.194945 -8.85859e-20)
(0.149793 0.241479 -3.63316e-20)
(0.0152057 0.0465 -9.69408e-21)
(0.0481943 0.120288 -1.14547e-19)
(0.0900585 0.177164 3.11403e-20)
(0.136563 0.219274 5.33999e-20)
(0.0125264 0.0416601 1.86216e-19)
(0.0413666 0.107689 -9.53476e-20)
(0.0802031 0.158493 -8.64986e-20)
(0.124581 0.196022 5.26107e-20)
(0.0101367 0.0365886 -7.48171e-20)
(0.0352828 0.09452 -6.1082e-20)
(0.0714294 0.139022 1.01562e-19)
(0.0080543 0.0313133 2.89252e-20)
(0.029986 0.0808483 3.29111e-20)
(0.0637965 0.118849 1.07231e-20)
(0.00629475 0.0258629 -4.96974e-20)
(0.0255136 0.066746 -3.49725e-20)
(0.0573558 0.0980737 -7.8516e-20)
(0.00487115 0.0202677 -7.13981e-21)
(0.0218973 0.0522873 2.99201e-20)
(0.0521506 0.0768012 4.59841e-20)
(0.0037941 0.0145588 1.4221e-20)
(0.0191625 0.0375492 1.92046e-20)
(0.0482159 0.0551386 5.75341e-21)
(0.00307159 0.00876812 3.05239e-20)
(0.0173286 0.0226102 -3.63854e-20)
(0.045578 0.0331957 -1.5441e-20)
(0.00270899 0.00292817 -7.56767e-21)
(0.0164083 0.00755015 4.80125e-21)
(0.0442547 0.0110839 -1.25643e-20)
(0.00270899 -0.00292824 -1.18704e-20)
(0.0164084 -0.00755035 2.57339e-21)
(0.0442547 -0.0110842 -1.11578e-21)
(0.00307159 -0.00876819 1.22673e-20)
(0.0173286 -0.0226104 -3.30172e-20)
(0.045578 -0.033196 -1.51286e-20)
(0.0037941 -0.0145589 7.89497e-21)
(0.0191625 -0.0375494 7.50826e-20)
(0.0482159 -0.0551389 -2.93654e-20)
(0.00487116 -0.0202678 -3.26792e-20)
(0.0218973 -0.0522875 1.60822e-20)
(0.0521506 -0.0768015 5.67558e-20)
(0.00629476 -0.025863 -2.08155e-20)
(0.0255136 -0.0667461 -1.2281e-20)
(0.0573558 -0.098074 -7.43923e-20)
(0.00805431 -0.0313133 4.05481e-20)
(0.029986 -0.0808485 -1.15778e-19)
(0.0637965 -0.118849 1.06172e-19)
(0.0101367 -0.0365887 -7.03868e-20)
(0.0352828 -0.0945202 -8.51122e-20)
(0.0714294 -0.139022 2.81948e-20)
(0.0125264 -0.0416601 8.6066e-20)
(0.0413666 -0.107689 8.09904e-20)
(0.0802032 -0.158493 2.82459e-20)
(0.124581 -0.196022 -6.55127e-20)
(0.0152057 -0.0465001 -6.72351e-20)
(0.0481943 -0.120288 2.57818e-20)
(0.0900586 -0.177164 -5.31153e-20)
(0.136563 -0.219274 8.65771e-20)
(0.0181544 -0.0510825 2.60407e-21)
(0.0557175 -0.13225 1.43389e-19)
(0.100929 -0.194945 -9.34378e-20)
(0.149793 -0.241479 4.56443e-20)
(0.0213506 -0.0553833 1.5008e-19)
(0.0638826 -0.143517 -7.61796e-20)
(0.11274 -0.21175 1.90638e-19)
(0.164186 -0.262536 -4.02795e-20)
(0.0247702 -0.0593801 -2.22028e-19)
(0.0726314 -0.154031 -6.38198e-20)
(0.125413 -0.227497 -7.24428e-21)
(0.179649 -0.282347 -4.56638e-20)
(0.0283877 -0.0630527 1.77737e-19)
(0.0819014 -0.163741 2.7561e-20)
(0.13886 -0.242113 -8.02306e-20)
(0.196082 -0.300824 1.68807e-19)
(0.252339 -0.342016 1.41061e-19)
(0.0321757 -0.0663831 -1.1379e-19)
(0.0916261 -0.172601 -1.70795e-19)
(0.152988 -0.255531 5.04743e-20)
(0.213377 -0.317887 -1.32389e-19)
(0.271755 -0.361852 2.92396e-20)
(0.0361057 -0.0693557 7.75341e-20)
(0.101736 -0.18057 7.70612e-20)
(0.167702 -0.267692 -8.36216e-21)
(0.231422 -0.333461 8.7278e-20)
(0.29205 -0.380081 -8.7773e-20)
(0.0401479 -0.0719573 9.31415e-20)
(0.112157 -0.187614 1.17463e-19)
(0.182899 -0.278544 1.34876e-19)
(0.250097 -0.347482 -6.2376e-20)
(0.3131 -0.396628 -3.36339e-19)
(0.371658 -0.428319 1.98914e-19)
(0.0442718 -0.0741773 -7.75334e-20)
(0.122814 -0.193703 -3.74976e-20)
(0.198474 -0.288044 -1.73456e-19)
(0.26928 -0.359895 1.78526e-19)
(0.33477 -0.41143 1.60289e-19)
(0.394867 -0.444973 1.61918e-20)
(0.048446 -0.0760077 9.06288e-20)
(0.133631 -0.198816 -1.19164e-19)
(0.214319 -0.296154 -2.75449e-20)
(0.288842 -0.370653 -7.34358e-20)
(0.356926 -0.424433 -2.37519e-19)
(0.418655 -0.45978 -1.43709e-20)
(0.0526386 -0.0774432 -1.2565e-19)
(0.144528 -0.202936 4.10776e-20)
(0.230322 -0.30285 1.29248e-19)
(0.308654 -0.379721 -6.01357e-20)
(0.379426 -0.435592 1.59659e-19)
(0.442881 -0.47269 9.65294e-20)
(0.499354 -0.493508 -1.85582e-19)
(0.0568178 -0.0784813 8.51155e-20)
(0.155425 -0.206053 7.0917e-20)
(0.246371 -0.308114 -1.00744e-19)
(0.328581 -0.387071 1.55246e-19)
(0.402126 -0.444872 -1.653e-19)
(0.467397 -0.483661 -1.61095e-20)
(0.524878 -0.505868 -6.21134e-20)
(0.0609515 -0.0791224 -8.81969e-20)
(0.166243 -0.208166 -5.11948e-21)
(0.262354 -0.311935 -6.75058e-21)
(0.34849 -0.392688 -8.80646e-20)
(0.424881 -0.45225 1.49811e-19)
(0.492055 -0.492662 8.81504e-20)
(0.550634 -0.51627 -1.40972e-19)
(0.60139 -0.525598 -5.91332e-20)
(0.0650081 -0.0793694 -2.56385e-20)
(0.176902 -0.209277 1.31766e-19)
(0.278156 -0.314316 -4.77232e-20)
(0.368245 -0.396565 -5.59882e-20)
(0.447543 -0.457711 -1.44176e-20)
(0.516703 -0.499672 -1.18688e-19)
(0.576473 -0.524686 7.44684e-20)
(0.62775 -0.535202 -1.27e-19)
(0.0689568 -0.0792282 -3.93655e-20)
(0.187324 -0.209397 3.39401e-20)
(0.293667 -0.315265 2.71705e-20)
(0.387712 -0.398707 1.08636e-19)
(0.469966 -0.461254 6.23236e-20)
(0.541189 -0.50468 3.12538e-20)
(0.602245 -0.5311 7.97705e-20)
(0.654143 -0.542863 1.09693e-19)
(0.698001 -0.542458 -2.15819e-20)
(0.0727671 -0.0787075 -3.17611e-20)
(0.197432 -0.208544 2.51145e-20)
(0.308775 -0.314801 -4.22174e-20)
(0.406758 -0.39913 -6.30576e-20)
(0.492002 -0.462886 -8.68565e-21)
(0.565362 -0.507686 1.14007e-20)
(0.627801 -0.535502 -7.00328e-20)
(0.680426 -0.548564 -5.4175e-20)
(0.724459 -0.549278 1.42442e-19)
(0.76118 -0.5401 -9.29793e-20)
(0.0764101 -0.0778185 -6.80195e-20)
(0.207152 -0.206743 -6.01061e-20)
(0.323372 -0.312953 -1.63339e-20)
(0.42525 -0.397858 -1.08028e-20)
(0.513506 -0.462627 -2.62571e-20)
(0.58907 -0.508703 -5.5604e-21)
(0.652989 -0.537895 -4.45649e-20)
(0.706457 -0.5523 -4.56789e-20)
(0.750786 -0.554221 -2.90384e-20)
(0.787351 -0.546045 -5.05342e-20)
(0.0798584 -0.0765754 2.31011e-20)
(0.216412 -0.204022 4.79123e-20)
(0.337354 -0.309757 2.17094e-21)
(0.443062 -0.394929 1.98467e-20)
(0.534335 -0.46051 5.39707e-21)
(0.612164 -0.507754 8.98974e-21)
(0.677661 -0.538294 1.00098e-20)
(0.732092 -0.554078 6.03354e-20)
(0.776849 -0.557287 -4.8708e-20)
(0.813401 -0.550224 -6.34765e-20)
(0.843239 -0.535181 5.92991e-20)
(0.0830857 -0.0749944 1.15953e-20)
(0.225143 -0.200419 -3.26369e-22)
(0.35062 -0.30526 -6.67747e-21)
(0.460069 -0.39039 -4.39929e-21)
(0.554349 -0.456574 7.28492e-21)
(0.634493 -0.504871 -7.195e-21)
(0.701665 -0.536724 2.28556e-21)
(0.757184 -0.553915 -5.99796e-21)
(0.802512 -0.558489 9.10373e-21)
(0.839203 -0.552652 7.55375e-20)
(0.868857 -0.538635 -4.6965e-20)
(0.893096 -0.518572 1.29942e-19)
(0.0860676 -0.0730938 -5.78951e-21)
(0.233282 -0.195977 -7.23465e-21)
(0.363075 -0.299514 -1.37292e-20)
(0.47615 -0.384296 -7.7751e-21)
(0.57341 -0.450874 2.43828e-21)
(0.655913 -0.500101 -8.77942e-21)
(0.724851 -0.533222 -1.00427e-20)
(0.781585 -0.551839 -1.44788e-20)
(0.82763 -0.557851 1.54722e-20)
(0.864616 -0.553352 4.57428e-20)
(0.894238 -0.54051 -3.89004e-20)
(0.918244 -0.521438 -1.00518e-19)
(0.0887814 -0.0708943 1.07791e-20)
(0.240768 -0.190741 6.91761e-21)
(0.374628 -0.292582 5.43107e-20)
(0.491191 -0.376715 1.01507e-20)
(0.591388 -0.443472 -2.82994e-20)
(0.67628 -0.493499 1.68644e-20)
(0.747072 -0.527832 9.0633e-21)
(0.805145 -0.547885 7.92173e-21)
(0.852054 -0.555399 -1.75502e-20)
(0.889485 -0.552347 -3.66259e-20)
(0.919212 -0.540823 2.29524e-20)
(0.943069 -0.522912 1.54072e-20)
(0.962956 -0.500568 1.57875e-20)
(0.0912073 -0.068419 -1.76329e-20)
(0.247546 -0.184767 1.89057e-20)
(0.385194 -0.284532 4.39404e-21)
(0.505085 -0.36772 -5.25296e-20)
(0.608156 -0.434442 4.73192e-21)
(0.695455 -0.485131 1.55626e-21)
(0.768179 -0.520611 -1.79133e-20)
(0.827713 -0.542099 -2.43385e-20)
(0.875629 -0.551168 3.68667e-21)
(0.913653 -0.54966 4.40161e-22)
(0.943613 -0.53958 7.84288e-21)
(0.967393 -0.522974 1.21935e-20)
(0.986901 -0.501788 1.60476e-20)
(1.00356 -0.47829 -6.70298e-20)
(0.0933291 -0.0656926 -4.196e-20)
(0.253566 -0.178109 -1.02895e-19)
(0.394696 -0.275442 -1.39615e-20)
(0.517731 -0.357396 8.57837e-20)
(0.623594 -0.423866 7.92865e-20)
(0.713305 -0.475072 -4.5015e-20)
(0.788031 -0.511622 2.33807e-20)
(0.849141 -0.534532 2.20026e-20)
(0.898206 -0.545197 3.54085e-20)
(0.936968 -0.545315 -2.69786e-20)
(0.967285 -0.536792 -1.1849e-20)
(0.991065 -0.521614 2.93231e-22)
(1.0102 -0.501693 1.38397e-20)
(1.02601 -0.479278 3.92154e-20)
(1.03881 -0.457006 4.70903e-20)
(0.0951305 -0.062738 1.96976e-20)
(0.258787 -0.17083 1.48324e-19)
(0.403065 -0.265394 -1.89922e-20)
(0.529035 -0.345834 -1.0085e-19)
(0.637591 -0.411835 -4.85948e-20)
(0.729702 -0.463406 -2.55979e-20)
(0.806489 -0.500939 -2.2285e-22)
(0.869284 -0.525243 -6.13595e-21)
(0.919635 -0.537529 -5.52941e-20)
(0.959281 -0.539342 -2.25619e-20)
(0.990084 -0.532471 2.41259e-21)
(1.01396 -0.518825 -1.44956e-20)
(1.03276 -0.500263 2.12329e-21)
(1.04777 -0.478976 -1.00862e-20)
(1.05927 -0.457465 -7.15315e-20)
(0.0965965 -0.0595843 2.4624e-20)
(0.263169 -0.162997 -1.08867e-19)
(0.410241 -0.254475 -3.10228e-20)