/*--------------------------------*- C++ -*----------------------------------*\
  =========                 |
  \\      /  F ield         | OpenFOAM: The Open Source CFD Toolbox
   \\    /   O peration     | Website:  https://openfoam.org
    \\  /    A nd           | Version:  7
     \\/     M anipulation  |
\*---------------------------------------------------------------------------*/
FoamFile
{
    version     2.0;
    format      ascii;
    class       volScalarField;
    location    "75";
    object      p;
}
// * * * * * * * * * * * * * * * * * * * * * * * * * * * * * * * * * * * * * //

dimensions      [0 2 -2 0 0 0 0];

internalField   nonuniform List<scalar> 
8500
(
-0.354365
-0.363086
-0.373645
-0.384604
-0.393978
-0.399408
-0.398484
-0.389227
-0.370544
-0.343099
-0.309238
-0.272806
-0.237398
-0.205977
-0.180264
-0.161051
-0.148526
-0.142774
-0.14431
-0.153689
-0.170035
-0.189499
-0.206004
-0.21305
-0.207361
-0.189556
-0.164345
-0.137305
-0.113099
-0.0940048
-0.0811588
-0.0743196
-0.0733312
-0.0774436
-0.0896054
-0.106068
-0.125259
-0.132253
-0.130297
-0.111059
-0.0885819
-0.0614305
-0.0407186
-0.0203625
-0.00801084
-0.350096
-0.356814
-0.365543
-0.374952
-0.383132
-0.387784
-0.386537
-0.377477
-0.35953
-0.333321
-0.30102
-0.266314
-0.232603
-0.202758
-0.178457
-0.160495
-0.1491
-0.144433
-0.147107
-0.15769
-0.17518
-0.195497
-0.212355
-0.219173
-0.212759
-0.193918
-0.167583
-0.139486
-0.114388
-0.0945347
-0.0810259
-0.0735597
-0.0719777
-0.0754401
-0.0868422
-0.102601
-0.121232
-0.128205
-0.126617
-0.10809
-0.0863519
-0.0599769
-0.0398352
-0.0199789
-0.0079089
-0.345659
-0.350295
-0.357117
-0.36491
-0.37185
-0.375698
-0.374139
-0.365297
-0.348118
-0.32318
-0.29247
-0.259522
-0.227533
-0.199291
-0.17642
-0.159724
-0.149471
-0.145905
-0.149736
-0.161536
-0.180171
-0.201332
-0.218529
-0.225112
-0.217975
-0.198113
-0.170676
-0.141545
-0.115574
-0.094981
-0.0808257
-0.0727449
-0.0705798
-0.0734027
-0.0840542
-0.0991169
-0.117191
-0.124142
-0.122908
-0.105086
-0.0840801
-0.0584902
-0.0389215
-0.0195763
-0.00780265
-0.34109
-0.343571
-0.348415
-0.354528
-0.360183
-0.363203
-0.361331
-0.352724
-0.336339
-0.312699
-0.283602
-0.252434
-0.222189
-0.195567
-0.174142
-0.158724
-0.149624
-0.147173
-0.152178
-0.165208
-0.184989
-0.206982
-0.224506
-0.23085
-0.222997
-0.202134
-0.17362
-0.14348
-0.116659
-0.0953454
-0.0805606
-0.0718786
-0.0691414
-0.0713358
-0.0812465
-0.0956206
-0.113141
-0.120067
-0.119175
-0.10205
-0.0817691
-0.0569716
-0.0379779
-0.0191547
-0.00769206
-0.336423
-0.336688
-0.339488
-0.34386
-0.348183
-0.350355
-0.348148
-0.339804
-0.324226
-0.301901
-0.27443
-0.245057
-0.216569
-0.191582
-0.171612
-0.157481
-0.149544
-0.148222
-0.154419
-0.168688
-0.189615
-0.212428
-0.230268
-0.236372
-0.227815
-0.205972
-0.17641
-0.145291
-0.117643
-0.0956298
-0.0802336
-0.0709644
-0.0676664
-0.0692439
-0.0784241
-0.0921174
-0.109088
-0.115986
-0.115421
-0.0989846
-0.079421
-0.0554224
-0.0370049
-0.0187141
-0.0075771
-0.331692
-0.329688
-0.330386
-0.332962
-0.335905
-0.3372
-0.334638
-0.326579
-0.311809
-0.29081
-0.264968
-0.237397
-0.210673
-0.187329
-0.168822
-0.155983
-0.149217
-0.149039
-0.156442
-0.171961
-0.19403
-0.217652
-0.235798
-0.241663
-0.232419
-0.209621
-0.179045
-0.146977
-0.118528
-0.0958365
-0.0798473
-0.0700056
-0.0661585
-0.0671313
-0.0755918
-0.0886122
-0.105036
-0.111902
-0.11165
-0.0958939
-0.0770383
-0.0538439
-0.0360029
-0.0182546
-0.00745775
-0.322616
-0.321162
-0.321888
-0.323405
-0.323791
-0.320892
-0.313042
-0.299122
-0.27945
-0.255233
-0.229463
-0.204502
-0.182802
-0.165761
-0.154218
-0.148631
-0.149611
-0.158235
-0.175011
-0.198218
-0.222634
-0.24108
-0.246712
-0.236798
-0.213076
-0.181519
-0.148537
-0.119315
-0.0959677
-0.0794048
-0.0690056
-0.0646218
-0.0650022
-0.0727541
-0.0851097
-0.100989
-0.10782
-0.107865
-0.0927804
-0.0746234
-0.0522375
-0.0349726
-0.0177761
-0.00733399
-0.315513
-0.311867
-0.310695
-0.310742
-0.310182
-0.306928
-0.299271
-0.286199
-0.267845
-0.245241
-0.221262
-0.198057
-0.178
-0.162422
-0.152177
-0.147775
-0.149925
-0.159785
-0.177823
-0.202162
-0.22736
-0.246098
-0.251506
-0.240943
-0.21633
-0.183833
-0.149972
-0.120006
-0.0960259
-0.0789088
-0.067968
-0.0630598
-0.0628609
-0.0699156
-0.0816145
-0.0969536
-0.103744
-0.104071
-0.0896473
-0.0721786
-0.0506044
-0.0339146
-0.0172788
-0.00720578
-0.30842
-0.302551
-0.299441
-0.297972
-0.296428
-0.292786
-0.285327
-0.273083
-0.256019
-0.235006
-0.212802
-0.191341
-0.172917
-0.158799
-0.14985
-0.146638
-0.149972
-0.16108
-0.180384
-0.205846
-0.231813
-0.250837
-0.256032
-0.244848
-0.219381
-0.185982
-0.151282
-0.120602
-0.0960137
-0.0783625
-0.0668961
-0.0614764
-0.0607113
-0.0670808
-0.078131
-0.0929324
-0.0996775
-0.100271
-0.0864975
-0.0697064
-0.0489462
-0.0328295
-0.0167627
-0.00707309
-0.301378
-0.293265
-0.288181
-0.285154
-0.282585
-0.278514
-0.271153
-0.25981
-0.243996
-0.224545
-0.204093
-0.184357
-0.167553
-0.154884
-0.147229
-0.145214
-0.149743
-0.16211
-0.182683
-0.209257
-0.235978
-0.255286
-0.260279
-0.248504
-0.222222
-0.187967
-0.152467
-0.121105
-0.0959336
-0.0777687
-0.0657934
-0.0598751
-0.0585574
-0.0642538
-0.0746633
-0.0889299
-0.0956241
-0.0964681
-0.0833341
-0.0672093
-0.0472641
-0.031718
-0.016228
-0.00693591
-0.294421
-0.284056
-0.27697
-0.272345
-0.268706
-0.264167
-0.25702
-0.246234
-0.2318
-0.213874
-0.195143
-0.177108
-0.161906
-0.150676
-0.14431
-0.143496
-0.149232
-0.162869
-0.184709
-0.212383
-0.239843
-0.259432
-0.264241
-0.251906
-0.224852
-0.189786
-0.153528
-0.121519
-0.0957886
-0.0771307
-0.0646631
-0.0582596
-0.0564029
-0.0614387
-0.0712156
-0.0849499
-0.0915875
-0.0926658
-0.0801599
-0.0646898
-0.0455595
-0.030581
-0.0156746
-0.00679419
-0.287586
-0.27497
-0.265864
-0.259602
-0.254848
-0.249791
-0.242803
-0.232568
-0.219456
-0.203011
-0.185963
-0.1696
-0.155977
-0.14617
-0.141089
-0.141481
-0.148435
-0.163349
-0.186454
-0.215211
-0.243397
-0.263266
-0.267908
-0.255049
-0.227268
-0.191438
-0.154467
-0.121844
-0.0955814
-0.0764513
-0.0635086
-0.0566332
-0.0542516
-0.0586395
-0.0677917
-0.0809963
-0.0875711
-0.0888676
-0.076978
-0.0621504
-0.0438339
-0.0294193
-0.0151029
-0.00664793
-0.280902
-0.266051
-0.254914
-0.246983
-0.241066
-0.235436
-0.228536
-0.218852
-0.206985
-0.191973
-0.176563
-0.161838
-0.149768
-0.141368
-0.137565
-0.139165
-0.147347
-0.163545
-0.187908
-0.217734
-0.24663
-0.266778
-0.271273
-0.257928
-0.229468
-0.192925
-0.155286
-0.122083
-0.095315
-0.0757337
-0.0623332
-0.0549993
-0.0521069
-0.0558599
-0.0643955
-0.0770725
-0.0835783
-0.0850766
-0.0737913
-0.0595935
-0.0420887
-0.0282337
-0.0145128
-0.00649707
-0.2744
-0.25734
-0.244172
-0.234543
-0.227415
-0.221154
-0.214275
-0.205094
-0.194413
-0.180778
-0.166955
-0.15383
-0.143283
-0.136271
-0.133737
-0.136551
-0.14597
-0.163454
-0.189068
-0.219942
-0.249533
-0.269962
-0.274332
-0.26054
-0.231451
-0.194246
-0.155985
-0.12224
-0.0949924
-0.0749808
-0.06114
-0.0533613
-0.0499723
-0.0531035
-0.0610304
-0.0731822
-0.0796122
-0.0812959
-0.0706025
-0.0570217
-0.0403253
-0.0270251
-0.0139047
-0.00634161
-0.268105
-0.248875
-0.233687
-0.222338
-0.213952
-0.206996
-0.200067
-0.191272
-0.181788
-0.169447
-0.157151
-0.145585
-0.136527
-0.130881
-0.129609
-0.133639
-0.144303
-0.163077
-0.189929
-0.221831
-0.252101
-0.272812
-0.277081
-0.262883
-0.233216
-0.195402
-0.156567
-0.122317
-0.0946166
-0.0741957
-0.059932
-0.0517223
-0.0478509
-0.0503738
-0.0577
-0.0693287
-0.0756761
-0.0775288
-0.0674145
-0.0544375
-0.0385451
-0.0257945
-0.0132787
-0.00618152
-0.262041
-0.240693
-0.223504
-0.210421
-0.20073
-0.193016
-0.185953
-0.177437
-0.169129
-0.158001
-0.147166
-0.137112
-0.129507
-0.125207
-0.125187
-0.130435
-0.14235
-0.162412
-0.190489
-0.223396
-0.254329
-0.275324
-0.279516
-0.264956
-0.234764
-0.196396
-0.157034
-0.122316
-0.0941906
-0.0733813
-0.0587122
-0.0500853
-0.0457458
-0.047674
-0.0544075
-0.0655151
-0.071773
-0.0737782
-0.0642301
-0.0518435
-0.0367496
-0.0245429
-0.0126349
-0.00601677
-0.256231
-0.232826
-0.213668
-0.198844
-0.187807
-0.179266
-0.17198
-0.164064
-0.156083
-0.146457
-0.137017
-0.128426
-0.122235
-0.119255
-0.120478
-0.126946
-0.140117
-0.161463
-0.190747
-0.224634
-0.256214
-0.277495
-0.281635
-0.266757
-0.236095
-0.197228
-0.157389
-0.122241
-0.0937176
-0.0725406
-0.0574836
-0.0484533
-0.0436599
-0.0450072
-0.0511561
-0.0617445
-0.0679059
-0.0700468
-0.0610521
-0.0492421
-0.0349402
-0.0232714
-0.0119736
-0.00584733
-0.250694
-0.225304
-0.204218
-0.187656
-0.175234
-0.1658
-0.158191
-0.150604
-0.143131
-0.134844
-0.126724
-0.119542
-0.114723
-0.113038
-0.115493
-0.123182
-0.13761
-0.160234
-0.190704
-0.225546
-0.257755
-0.279325
-0.283439
-0.268288
-0.237212
-0.197901
-0.157633
-0.122094
-0.0932004
-0.0716764
-0.0562489
-0.046829
-0.0415961
-0.0423764
-0.0479486
-0.0580198
-0.0640777
-0.0663375
-0.0578832
-0.046636
-0.0331185
-0.0219812
-0.011295
-0.00567319
-0.245448
-0.218155
-0.195193
-0.176903
-0.163066
-0.152673
-0.144641
-0.137244
-0.130305
-0.123185
-0.116308
-0.110477
-0.106986
-0.10657
-0.110244
-0.119153
-0.13484
-0.158731
-0.190363
-0.226131
-0.258952
-0.280814
-0.284928
-0.26955
-0.238115
-0.198417
-0.157771
-0.121879
-0.0926422
-0.0707916
-0.0550107
-0.045215
-0.0395568
-0.0397842
-0.0447881
-0.054344
-0.0602913
-0.0626638
-0.0547262
-0.0440276
-0.0312858
-0.0206733
-0.0105994
-0.00549432
-0.240508
-0.211404
-0.186626
-0.16663
-0.151351
-0.139939
-0.131387
-0.124078
-0.117599
-0.111508
-0.105798
-0.101252
-0.099043
-0.0998664
-0.104749
-0.114875
-0.131816
-0.156961
-0.189729
-0.226392
-0.259807
-0.281964
-0.286103
-0.270544
-0.238807
-0.19878
-0.157806
-0.121598
-0.092046
-0.0698889
-0.0537717
-0.0436141
-0.0375445
-0.0372333
-0.041677
-0.0507197
-0.0565493
-0.0590082
-0.0515836
-0.0414195
-0.0294437
-0.019349
-0.00988702
-0.0053107
-0.23589
-0.205071
-0.178548
-0.156875
-0.14014
-0.127651
-0.118483
-0.111156
-0.10504
-0.0998456
-0.0952216
-0.0918924
-0.0909152
-0.0929481
-0.0990231
-0.110362
-0.128552
-0.154933
-0.188807
-0.226335
-0.260325
-0.282778
-0.286969
-0.271273
-0.239292
-0.198992
-0.157739
-0.121255
-0.0914147
-0.0689709
-0.0525342
-0.0420284
-0.0355616
-0.034726
-0.038618
-0.0471495
-0.0528545
-0.055384
-0.0484583
-0.0388142
-0.0275936
-0.0180095
-0.00915811
-0.00512232
-0.23161
-0.199177
-0.170986
-0.147677
-0.129475
-0.115863
-0.105982
-0.0985208
-0.092662
-0.0882352
-0.0846118
-0.0824251
-0.0826275
-0.0858373
-0.0930884
-0.105633
-0.125062
-0.152658
-0.187605
-0.225964
-0.260509
-0.283261
-0.287527
-0.271742
-0.239573
-0.199058
-0.157575
-0.120853
-0.0907513
-0.0680404
-0.0513005
-0.0404603
-0.03361
-0.0322645
-0.0356135
-0.0436359
-0.0492097
-0.0517942
-0.0453526
-0.0362142
-0.0257371
-0.0166562
-0.00841297
-0.00492916
-0.22769
-0.193741
-0.163963
-0.139065
-0.119399
-0.104623
-0.0939362
-0.0862194
-0.0804987
-0.0767157
-0.0740046
-0.0728815
-0.0742079
-0.0785591
-0.0869671
-0.100706
-0.121361
-0.150147
-0.186131
-0.225286
-0.260366
-0.283418
-0.287785
-0.271954
-0.239654
-0.198981
-0.157317
-0.120395
-0.0900586
-0.0670997
-0.0500728
-0.0389118
-0.0316918
-0.0298508
-0.0326655
-0.0401813
-0.0456172
-0.0482411
-0.0422693
-0.0336221
-0.0238755
-0.0152904
-0.00765186
-0.0047312
-0.188794
-0.157504
-0.131068
-0.109947
-0.0939792
-0.0823974
-0.0743028
-0.0686716
-0.0653306
-0.0634392
-0.0632965
-0.0656872
-0.0711413
-0.0806839
-0.0956029
-0.117466
-0.147414
-0.184396
-0.224311
-0.259904
-0.283257
-0.287746
-0.271913
-0.23954
-0.198765
-0.156968
-0.119883
-0.0893394
-0.0661513
-0.0488532
-0.037385
-0.0298088
-0.0274868
-0.0297761
-0.0367878
-0.0420797
-0.0447277
-0.0392109
-0.0310402
-0.0220104
-0.0139134
-0.0068751
-0.00452843
-0.184332
-0.15164
-0.123714
-0.10115
-0.083973
-0.0714159
-0.0628221
-0.0571927
-0.0541279
-0.0529579
-0.0537082
-0.0570993
-0.0636141
-0.074265
-0.0903459
-0.113395
-0.144471
-0.18241
-0.223047
-0.259132
-0.282784
-0.287418
-0.271626
-0.239235
-0.198414
-0.156533
-0.119322
-0.0885963
-0.0651976
-0.0476435
-0.0358816
-0.0279625
-0.0251742
-0.0269473
-0.0334576
-0.0385995
-0.0412564
-0.0361799
-0.0284711
-0.0201433
-0.0125267
-0.00608299
-0.00432083
-0.18022
-0.146369
-0.117038
-0.0930415
-0.0746427
-0.06104
-0.0518231
-0.0459575
-0.0431633
-0.042606
-0.0441576
-0.0484806
-0.0560095
-0.0677385
-0.084958
-0.109166
-0.141333
-0.180186
-0.221506
-0.258059
-0.28201
-0.286806
-0.271097
-0.238743
-0.197933
-0.156015
-0.118713
-0.0878321
-0.0642408
-0.0464457
-0.0344034
-0.0261545
-0.0229143
-0.0241807
-0.0301927
-0.035179
-0.03783
-0.0331787
-0.0259172
-0.0182756
-0.0111317
-0.00527583
-0.00410841
-0.176736
-0.141528
-0.11103
-0.0856575
-0.0660284
-0.0513137
-0.0413364
-0.0352096
-0.032496
-0.032431
-0.0346884
-0.0398699
-0.0483617
-0.0611335
-0.0794634
-0.104799
-0.138016
-0.177736
-0.219699
-0.256696
-0.280942
-0.285919
-0.270334
-0.238072
-0.197326
-0.155417
-0.118061
-0.0870492
-0.063283
-0.0452614
-0.0329517
-0.0243861
-0.0207086
-0.0214779
-0.0269948
-0.0318204
-0.0344511
-0.0302099
-0.0233809
-0.0164089
-0.0097299
-0.00445394
-0.00389114
-0.173757
-0.137426
-0.105523
-0.078955
-0.0581952
-0.0422718
-0.0314097
-0.0250256
-0.0221825
-0.0224824
-0.0253461
-0.0313074
-0.0407059
-0.05448
-0.0738866
-0.100313
-0.134535
-0.175074
-0.217638
-0.255054
-0.279592
-0.284766
-0.269342
-0.237226
-0.196599
-0.154743
-0.117367
-0.0862502
-0.0623262
-0.0440921
-0.031528
-0.0226584
-0.0185581
-0.0188401
-0.0238656
-0.0285258
-0.0311221
-0.0272758
-0.0208646
-0.0145445
-0.00832282
-0.00361764
-0.00366903
-0.171265
-0.133934
-0.100867
-0.0727083
-0.0511701
-0.0339327
-0.0222016
-0.0153502
-0.0122765
-0.0128111
-0.0161772
-0.0228348
-0.0330782
-0.0478084
-0.0682523
-0.0957276
-0.130906
-0.172213
-0.215336
-0.253144
-0.27797
-0.283352
-0.26813
-0.236211
-0.195756
-0.153998
-0.116636
-0.0854372
-0.0613724
-0.0429393
-0.0301336
-0.0209726
-0.0164638
-0.0162687
-0.0208067
-0.0252972
-0.0278455
-0.0243788
-0.0183706
-0.012684
-0.00691199
-0.00276725
-0.00344207
-0.169259
-0.131024
-0.0969006
-0.0676307
-0.044526
-0.0263121
-0.0137636
-0.00616964
-0.00282828
-0.0034675
-0.0072288
-0.0144944
-0.0255154
-0.0411495
-0.0625852
-0.0910624
-0.127146
-0.169168
-0.212806
-0.250978
-0.276085
-0.281688
-0.266703
-0.235034
-0.194801
-0.153184
-0.115868
-0.0846124
-0.0604233
-0.0418043
-0.0287694
-0.0193295
-0.0144265
-0.0137646
-0.0178194
-0.0221364
-0.0246237
-0.0215211
-0.0159011
-0.0108288
-0.00549897
-0.00190308
-0.00321026
-0.167731
-0.12869
-0.0935886
-0.0632487
-0.038792
-0.0195087
-0.0059066
0.00235888
0.00611398
0.00549913
0.00145258
-0.00632809
-0.0180539
-0.0345336
-0.0569098
-0.086337
-0.12327
-0.165954
-0.210062
-0.248569
-0.273947
-0.279782
-0.26507
-0.2337
-0.193741
-0.152306
-0.115069
-0.0837781
-0.0594807
-0.0406883
-0.0274364
-0.0177297
-0.0124468
-0.0113287
-0.0149047
-0.0190451
-0.0214591
-0.0187051
-0.0134586
-0.00898036
-0.00408533
-0.00102547
-0.00297359
-0.16667
-0.126921
-0.0909229
-0.0595545
-0.0338592
-0.0134774
0.00119336
0.0102183
0.0145089
0.014042
0.00982145
0.00162252
-0.0107297
-0.0279906
-0.05125
-0.0815703
-0.119294
-0.162584
-0.207117
-0.245928
-0.271569
-0.277642
-0.263238
-0.232216
-0.19258
-0.151368
-0.114239
-0.0829365
-0.0585463
-0.0395927
-0.0261357
-0.0161742
-0.0105253
-0.00896171
-0.0120639
-0.0160251
-0.0183539
-0.015933
-0.011045
-0.00714008
-0.00267267
-0.000134718
-0.00273207
-0.125703
-0.0888934
-0.0565611
-0.0296909
-0.00821845
0.0075204
0.0173958
0.0223444
0.022117
0.0178339
0.00931716
-0.00357782
-0.0215494
-0.0456286
-0.0767808
-0.115234
-0.159074
-0.203985
-0.243067
-0.268959
-0.275275
-0.261213
-0.230589
-0.191324
-0.150374
-0.113383
-0.0820901
-0.0576221
-0.0385187
-0.024868
-0.0146635
-0.00866231
-0.00666434
-0.00929778
-0.0130777
-0.0153104
-0.013207
-0.00866275
-0.00530941
-0.00126261
0.000768856
-0.0024857
-0.125017
-0.0874818
-0.0542548
-0.0262784
-0.00372951
0.0130845
0.0238734
0.0294792
0.0296783
0.025448
0.016717
0.00336805
-0.0152377
-0.0400678
-0.0719858
-0.111105
-0.155436
-0.200677
-0.239996
-0.266127
-0.27269
-0.259005
-0.228825
-0.189977
-0.149327
-0.112502
-0.0812395
-0.0567085
-0.0374666
-0.0236333
-0.0131977
-0.00685778
-0.00443668
-0.00660669
-0.0102042
-0.0123306
-0.0105293
-0.00631385
-0.0034898
0.000143238
0.00168494
-0.00223448
-0.124815
-0.0866407
-0.0525925
-0.0235844
1.5015e-05
0.0179001
0.0296413
0.0353775
0.0366915
0.0326274
0.0237857
0.0100757
-0.00908217
-0.0345888
-0.0672028
-0.106922
-0.151685
-0.197208
-0.236726
-0.263084
-0.269899
-0.256623
-0.226931
-0.188541
-0.148225
-0.111591
-0.0803808
-0.0558023
-0.0364337
-0.0224295
-0.011775
-0.00511045
-0.0022781
-0.00398992
-0.00740426
-0.00941535
-0.00790153
-0.00400021
-0.00168262
0.00154327
0.00261324
-0.00197842
-0.12502
-0.0862957
-0.0515059
-0.0215467
0.00306142
0.0219959
0.034727
0.041447
0.0431458
0.039343
0.0304923
0.0165161
-0.0031082
-0.0292129
-0.06245
-0.102702
-0.147839
-0.193594
-0.233276
-0.259852
-0.26692
-0.254083
-0.224915
-0.187018
-0.147067
-0.110652
-0.0795136
-0.0549033
-0.0354199
-0.0212561
-0.010395
-0.00342007
-0.000188901
-0.00144763
-0.00467788
-0.00656476
-0.00532466
-0.00172311
0.000110936
0.00293609
0.00355353
-0.00171753
-0.125699
-0.0865068
-0.0510479
-0.0202088
0.00536903
0.0253339
0.0390814
0.046821
0.0489887
0.0455531
0.0368002
0.0226604
0.00266312
-0.023955
-0.0577384
-0.098453
-0.143903
-0.189836
-0.229636
-0.256432
-0.263735
-0.251372
-0.222782
-0.185434
-0.145891
-0.109721
-0.0786716
-0.0540388
-0.0344467
-0.0201301
-0.00907054
-0.00179497
0.00182431
0.00101193
-0.00203449
-0.00378731
-0.00280355
0.000514138
0.00188911
0.00432
0.00450553
-0.00145179
-0.127257
-0.0876479
-0.0515536
-0.0198597
0.00669006
0.0277041
0.0425112
0.0512838
0.0540875
0.0511445
0.0426243
0.0284552
0.00820895
-0.0188103
-0.0530377
-0.0941204
-0.139792
-0.185816
-0.225656
-0.252671
-0.260215
-0.248423
-0.220534
-0.18384
-0.14477
-0.108875
-0.0779227
-0.0532636
-0.0335562
-0.0190852
-0.00782735
-0.000250925
0.00375125
0.00337395
0.000503329
-0.00111046
-0.000356574
0.0026979
0.00364578
0.00569012
0.00546771
-0.00118111
-0.129458
-0.0894894
-0.0527993
-0.0202816
0.00722912
0.0292841
0.0451465
0.0548954
0.058458
0.0560859
0.0478952
0.0338155
0.0134512
-0.0138339
-0.0483717
-0.0896938
-0.135466
-0.181477
-0.221289
-0.248466
-0.256383
-0.245271
-0.218172
-0.182189
-0.143621
-0.108018
-0.0771744
-0.0524988
-0.0326828
-0.0180664
-0.00662235
0.00124486
0.00562088
0.00567175
0.00296496
0.00148047
0.00201686
0.00482103
0.00537566
0.00704074
0.00643718
-0.000905461
-0.129132
-0.0890216
-0.0519928
-0.0189403
0.00924674
0.0320496
0.0486863
0.059102
0.0632079
0.0611738
0.0530966
0.038914
0.0182608
-0.00944443
-0.0444333
-0.0861223
-0.132113
-0.178214
-0.218058
-0.245198
-0.253344
-0.242503
-0.215728
-0.180091
-0.141847
-0.106509
-0.0758436
-0.051259
-0.0314378
-0.0167506
-0.00520043
0.0028653
0.00755908
0.00807311
0.00557648
0.00424113
0.00449
0.00700612
0.00713406
0.00840878
0.00743365
-0.000626398
-0.124456
-0.0843841
-0.047266
-0.013967
0.0146497
0.0380265
0.0553896
0.0666165
0.0712092
0.0694252
0.0612441
0.0465151
0.0248591
-0.00424596
-0.0408435
-0.0840487
-0.131202
-0.177985
-0.217995
-0.24497
-0.252166
-0.240497
-0.213055
-0.177086
-0.138867
-0.103752
-0.0733633
-0.0490216
-0.0293345
-0.0146443
-0.00306574
0.00508623
0.0100724
0.0112665
0.00921134
0.0082279
0.00798621
0.0100859
0.00949596
0.010247
0.00877671
-0.000287334
-0.11956
-0.0801474
-0.0434706
-0.0103856
0.0182318
0.0417656
0.0594375
0.0709751
0.0759784
0.0744571
0.0663286
0.0513784
0.0292193
-0.000585575
-0.0378753
-0.0815055
-0.128612
-0.174815
-0.213821
-0.238768
-0.246041
-0.234062
-0.206873
-0.171621
-0.134352
-0.100141
-0.0704683
-0.0465893
-0.0271506
-0.0125427
-0.000927481
0.00742112
0.0127406
0.0144545
0.0126514
0.0119469
0.0113026
0.0132002
0.0119353
0.0122926
0.0102052
0.000116458
-0.114696
-0.0761296
-0.0400917
-0.00743159
0.0209691
0.0444431
0.0622089
0.0739126
0.0790668
0.0776093
0.0694173
0.0542255
0.0316675
0.00142069
-0.0361448
-0.079667
-0.126141
-0.171208
-0.208796
-0.232572
-0.23891
-0.226769
-0.20007
-0.165745
-0.129575
-0.0963647
-0.0674699
-0.0440985
-0.0249435
-0.0104478
0.00118201
0.00970448
0.0153235
0.0175023
0.0159084
0.0154428
0.0144172
0.0161647
0.0142756
0.0143083
0.0115994
0.000534593
-0.110246
-0.0726078
-0.0372959
-0.00515079
0.022952
0.0463045
0.0641217
0.0759649
0.0812627
0.0798867
0.0716513
0.0562546
0.033363
0.00277861
-0.0349191
-0.0781641
-0.123838
-0.167634
-0.203728
-0.226256
-0.231596
-0.219255
-0.193049
-0.15969
-0.124663
-0.0924879
-0.0643984
-0.0415591
-0.0227064
-0.00833506
0.00329191
0.0119601
0.0178557
0.0204966
0.0191325
0.0189179
0.0175255
0.0191185
0.0166252
0.0163413
0.01302
0.000976849
-0.106299
-0.069681
-0.0351927
-0.00366202
0.0240487
0.047202
0.0650079
0.0769329
0.082398
0.0811516
0.0729496
0.0574609
0.0343849
0.00364215
-0.0339947
-0.0767755
-0.12149
-0.163897
-0.198406
-0.219559
-0.223913
-0.211385
-0.185739
-0.153429
-0.119612
-0.0885222
-0.0612707
-0.0389897
-0.0204587
-0.00622608
0.0053817
0.0141722
0.0203227
0.0234123
0.022288
0.0223301
0.0205955
0.0220431
0.0189768
0.0183892
0.0144685
0.00144547
-0.102828
-0.0673199
-0.0337526
-0.00293905
0.0242755
0.0471334
0.0648416
0.0767892
0.082391
0.0812854
0.0731758
0.0577097
0.0346222
0.00394441
-0.0333822
-0.0754539
-0.118999
-0.159854
-0.192668
-0.212376
-0.215779
-0.203133
-0.178148
-0.146981
-0.114443
-0.0844813
-0.058097
-0.0363983
-0.0182082
-0.0041288
0.00744393
0.0163341
0.0227158
0.0262337
0.0253519
0.0256462
0.0235921
0.0249093
0.021307
0.0204388
0.0159324
0.00194014
-0.0998053
-0.0654827
-0.0329217
-0.00291822
0.0237023
0.0461717
0.0636946
0.0756073
0.0812997
0.0803317
0.0723601
0.0570198
0.0340879
0.0036988
-0.0330627
-0.0741734
-0.116332
-0.155474
-0.186496
-0.204717
-0.207217
-0.19454
-0.170318
-0.140381
-0.109179
-0.0803816
-0.0548881
-0.033792
-0.0159606
-0.0020483
0.00947439
0.0184416
0.0250298
0.0289541
0.0283175
0.0288585
0.0265063
0.0277057
0.0236054
0.0224812
0.0174048
0.00246116
-0.097201
-0.0641244
-0.0326422
-0.00352993
0.0224089
0.0444044
0.0616615
0.0734801
0.0792227
0.0783905
0.0706015
0.0554875
0.0328723
0.00298571
-0.0329701
-0.0728852
-0.11346
-0.150745
-0.179896
-0.196609
-0.198267
-0.185654
-0.162294
-0.133664
-0.103845
-0.0762398
-0.0516552
-0.0311788
-0.0137223
9.77348e-06
0.0114684
0.0204905
0.0272603
0.0315672
0.03118
0.0319628
0.0293353
0.0304268
0.0258682
0.0245104
0.0188828
0.00300945
-0.0949765
-0.0631933
-0.0328495
-0.00469772
0.0204823
0.0419268
0.0588442
0.070512
0.0762698
0.0755743
0.0680141
0.0532261
0.0310843
0.00190362
-0.0330222
-0.0715276
-0.110343
-0.145647
-0.17287
-0.188078
-0.188973
-0.176527
-0.154127
-0.126868
-0.0984668
-0.0720731
-0.0484098
-0.0285664
-0.0114998
0.00203946
0.0134209
0.0224763
0.0294025
0.0340668
0.0339336
0.0349538
0.0320754
0.0330663
0.0280916
0.0265205
0.0203643
0.00358593
-0.0930885
-0.0626325
-0.0334734
-0.00633903
0.0180164
0.0388418
0.0553539
0.0668195
0.0725621
0.0720067
0.0647223
0.050358
0.0288392
0.00055535
-0.0331339
-0.0700366
-0.106939
-0.140165
-0.165427
-0.179164
-0.17939
-0.167222
-0.145868
-0.120032
-0.093071
-0.0678989
-0.045164
-0.0259632
-0.00929963
0.00403476
0.0153269
0.0243949
0.0314522
0.0364467
0.0365725
0.0378264
0.0347228
0.0356178
0.0302713
0.0285045
0.0218459
0.00419138
-0.0914912
-0.0623829
-0.0344416
-0.00836878
0.0151087
0.0352566
0.0513081
0.062527
0.0682297
0.0678215
0.0608605
0.047014
0.0262586
-0.000953305
-0.0332202
-0.0683514
-0.103213
-0.134291
-0.157591
-0.169917
-0.169585
-0.157806
-0.137574
-0.113195
-0.0876842
-0.0637347
-0.0419294
-0.0233771
-0.00712812
0.00598974
0.0171815
0.0262421
0.0334058
0.0387015
0.0390911
0.0405761
0.0372742
0.0380754
0.0324041
0.0304555
0.0233243
0.00482645
-0.090139
-0.0623864
-0.0356833
-0.010703
0.0118563
0.0312794
0.0468251
0.0577612
0.0634059
0.0631557
0.0565665
0.0433276
0.0234647
-0.0025185
-0.0332012
-0.0664198
-0.0991432
-0.128036
-0.149405
-0.160409
-0.15964
-0.148353
-0.129301
-0.106398
-0.0823324
-0.0595976
-0.0387178
-0.0208164
-0.00499162
0.0078985
0.0189798
0.028014
0.0352596
0.0408262
0.041484
0.0431991
0.0397271
0.0404343
0.0344874
0.0323663
0.024796
0.00549173
-0.0889879
-0.0625877
-0.0371312
-0.0132621
0.0083511
0.0270169
0.0420201
0.0526453
0.0582199
0.0581419
0.0519725
0.0394256
0.0205714
-0.00404713
-0.0330107
-0.0642062
-0.0947275
-0.121433
-0.140933
-0.150724
-0.149642
-0.138938
-0.121106
-0.0996789
-0.0770409
-0.0555041
-0.0355407
-0.018289
-0.00289628
0.00975533
0.0207167
0.0297072
0.037011
0.0428168
0.0437457
0.0456922
0.0420796
0.0426909
0.03652
0.0342299
0.0262577
0.00618776
-0.0879975
-0.0629364
-0.0387238
-0.0159732
0.00467776
0.0225641
0.0370002
0.0472945
0.052792
0.0529021
0.047198
0.0354194
0.0176747
-0.00546593
-0.0326043
-0.0616993
-0.0899886
-0.114539
-0.13226
-0.140962
-0.139685
-0.129638
-0.113044
-0.0930738
-0.0718332
-0.0514698
-0.0324091
-0.0158028
-0.000848037
0.0115547
0.0223874
0.0313181
0.0386573
0.0446699
0.045871
0.0480523
0.04433
0.0448427
0.0385019
0.0360396
0.0277063
0.00691495
-0.0871314
-0.0633874
-0.0404065
-0.0187711
0.000912096
0.0180076
0.0318619
0.0418124
0.0472299
0.0475435
0.0423446
0.0313993
0.0148467
-0.00672819
-0.0319661
-0.058917
-0.084979
-0.107435
-0.123488
-0.13123
-0.129864
-0.120525
-0.105166
-0.0866163
-0.0667315
-0.0475095
-0.0293336
-0.0133654
0.00114739
0.0132915
0.0239872
0.0328437
0.0401965
0.0463831
0.0478547
0.0502764
0.0464764
0.0468883
0.0404343
0.0377886
0.0291393
0.00767357
-0.0863579
-0.0639019
-0.0421322
-0.0215997
-0.00288018
0.0134225
0.0266888
0.0362892
0.0416262
0.0421561
0.0374939
0.0274321
0.012133
-0.00781623
-0.0311106
-0.0559073
-0.0797781
-0.100227
-0.114732
-0.12164
-0.120271
-0.111666
-0.0975148
-0.0803358
-0.0617554
-0.0436366
-0.026324
-0.0109842
0.00308456
0.0149608
0.0255113
0.0342811
0.0416269
0.0479548
0.0496916
0.052361
0.0485168
0.0488278
0.0423193
0.0394704
0.0305543
0.00846376
-0.08565
-0.0644472
-0.0438613
-0.024412
-0.00664378
0.00887233
0.0215517
0.0308011
0.0360586
0.0368135
0.0327086
0.0235628
0.00955415
-0.00873872
-0.0300788
-0.052743
-0.0744857
-0.0930272
-0.106113
-0.112297
-0.110989
-0.103119
-0.0901306
-0.0742578
-0.0569224
-0.0398634
-0.0233894
-0.00866614
0.00495832
0.0165581
0.0269551
0.0356275
0.0429474
0.0493845
0.0513772
0.0543025
0.0504483
0.0506627
0.0441598
0.0410789
0.0319499
0.00928542
-0.0849849
-0.064996
-0.0455613
-0.0271694
-0.0103333
0.00440911
0.0165088
0.02541
0.0305895
0.0315732
0.0280346
0.0198182
0.00711205
-0.00952368
-0.0289299
-0.0495121
-0.0692109
-0.0859605
-0.097744
-0.103296
-0.102088
-0.0949308
-0.0830441
-0.0684033
-0.0522474
-0.0362009
-0.0205384
-0.0064179
0.00676381
0.0180795
0.0283145
0.0368805
0.0441571
0.0506723
0.0529072
0.0560962
0.052267
0.0523954
0.0459587
0.0426085
0.0333251
0.0101382
-0.0843436
-0.0655263
-0.0472058
-0.0298406
-0.0139124
7.43237e-05
0.0116061
0.0201654
0.0252683
0.0264795
0.0235045
0.0162127
0.00479655
-0.0102093
-0.0277301
-0.0463049
-0.0640596
-0.0791334
-0.0897224
-0.0947161
-0.093622
-0.0871382
-0.0762787
-0.0627886
-0.0477427
-0.0326585
-0.0177784
-0.00424562
0.0084965
0.0195213
0.0295855
0.0380377
0.0452555
0.0518193
0.0542782
0.0577367
0.0539678
0.0540294
0.047718
0.0440537
0.0346796
0.0110216
-0.0837106
-0.0660201
-0.0487743
-0.0324015
-0.0173528
-0.00409977
0.00687941
0.015105
0.0201325
0.0215653
0.0191411
0.0127527
0.00259259
-0.0108349
-0.0265427
-0.0432037
-0.0591239
-0.0726358
-0.082126
-0.0866137
-0.0856303
-0.0797653
-0.0698508
-0.0574259
-0.0434184
-0.0292445
-0.0151161
-0.00215496
0.0101522
0.0208806
0.0307646
0.0390968
0.0462425
0.0528268
0.0554879
0.059218
0.055544
0.0555686
0.049438
0.0454098
0.0360141
0.0119343
-0.0830731
-0.0664634
-0.0502503
-0.0348332
-0.0206329
-0.00808875
0.00235554
0.0102572
0.0152097
0.0168546
0.0149602
0.00944059
0.000485495
-0.0114345
-0.02542
-0.0402741
-0.0544748
-0.0665339
-0.0750082
-0.0790261
-0.0781356
-0.0728258
-0.06377
-0.0523234
-0.0392821
-0.0259659
-0.0125575
-0.000151029
0.0117269
0.0221546
0.0318489
0.0400558
0.0471181
0.0536967
0.0565355
0.0605333
0.0569876
0.0570169
0.0511156
0.0466727
0.0373294
0.0128748
-0.0824206
-0.066845
-0.0516216
-0.0371217
-0.0237368
-0.0118748
-0.00194606
0.0056422
0.0105197
0.0123641
0.0109724
0.00627764
-0.00153607
-0.0120332
-0.0243993
-0.0375618
-0.0501595
-0.0608692
-0.0683992
-0.0719714
-0.0711465
-0.0663243
-0.05804
-0.0474856
-0.0353394
-0.0228283
-0.0101077
0.00176164
0.0132173
0.0233412
0.032836
0.0409124
0.0478829
0.0544313
0.0574214
0.0616757
0.0582891
0.0583771
0.0527434
0.0478391
0.0386266
0.0138405
-0.0817443
-0.067156
-0.0528787
-0.0392567
-0.0266529
-0.0154452
-0.00601185
0.0012739
0.00607579
0.00810524
0.00718515
0.00326488
-0.00347894
-0.0126462
-0.0235028
-0.0350927
-0.0462026
-0.05566
-0.0623086
-0.065451
-0.0646601
-0.0602573
-0.0526599
-0.0429143
-0.0315939
-0.0198362
-0.00777083
0.00357913
0.0146201
0.0244387
0.0337243
0.041665
0.048537
0.055033
0.0581476
0.0626389
0.0594386
0.05965
0.0543079
0.048907
0.0399058
0.0148281
-0.0810374
-0.0673895
-0.0540146
-0.0412307
-0.0293734
-0.0187915
-0.00983299
-0.00283877
0.0018865
0.00408513
0.00360322
0.000403694
-0.00534578
-0.0132797
-0.0227393
-0.0328758
-0.0426098
-0.0509062
-0.0567299
-0.0594541
-0.0586646
-0.0546157
-0.0476248
-0.0386087
-0.0280477
-0.0169931
-0.0055505
0.00529819
0.0159326
0.0254457
0.0345128
0.0423118
0.0490811
0.0555042
0.0587173
0.0634176
0.0604258
0.0608328
0.055789
0.0498758
0.0411655
0.0158327
-0.0802938
-0.0675403
-0.0550243
-0.0430388
-0.0318933
-0.0219088
-0.0134043
-0.00669084
-0.00204363
0.000307632
0.000229434
-0.00230433
-0.00713598
-0.0139334
-0.0221072
-0.0309064
-0.0393729
-0.0465943
-0.0516449
-0.0539605
-0.0531419
-0.0493861
-0.0429268
-0.034566
-0.0247014
-0.0143015
-0.00344947
0.0069162
0.0171525
0.0263612
0.0352012
0.0428518
0.0495152
0.0558478
0.059135
0.0640083
0.0612414
0.0619177
0.0571595
0.0507466
0.042401
0.0168477
-0.079509
-0.0676046
-0.0559044
-0.0446781
-0.0342099
-0.0247944
-0.0167237
-0.0102804
-0.00571302
-0.00322594
-0.00293499
-0.00485762
-0.0088469
-0.0146024
-0.0215983
-0.0291714
-0.0364763
-0.0427017
-0.0470276
-0.0489445
-0.0480696
-0.0445521
-0.0385561