/*--------------------------------*- C++ -*----------------------------------*\
  =========                 |
  \\      /  F ield         | OpenFOAM: The Open Source CFD Toolbox
   \\    /   O peration     | Website:  https://openfoam.org
    \\  /    A nd           | Version:  7
     \\/     M anipulation  |
\*---------------------------------------------------------------------------*/
FoamFile
{
    version     2.0;
    format      ascii;
    class       surfaceScalarField;
    location    "75";
    object      phi;
}
// * * * * * * * * * * * * * * * * * * * * * * * * * * * * * * * * * * * * * //

dimensions      [0 3 -1 0 0 0 0];

internalField   nonuniform List<scalar> 
16755
(
-0.000301871
-0.00343712
0.00338406
-0.000236796
-0.00333471
0.00326963
-0.000160597
-0.003073
0.0029968
-7.53133e-05
-0.00263925
0.00255397
1.644e-05
-0.00203145
0.0019397
0.000112505
-0.00125747
0.00116141
0.000211868
-0.000333434
0.000234071
0.000314516
0.000712247
-0.000814894
0.000420008
0.00183105
-0.00193654
0.000525667
0.00295028
-0.00305594
0.000626434
0.0039859
-0.00408666
0.000715733
0.00487176
-0.00496106
0.000787882
0.00557321
-0.00564535
0.000838726
0.00609318
-0.00614402
0.000865298
0.00646272
-0.00648929
0.000864879
0.00673496
-0.00673454
0.000836563
0.00697408
-0.00694577
0.000787079
0.00721314
-0.00716365
0.00073615
0.007377
-0.00732607
0.000711495
0.00724423
-0.00721958
0.000732194
0.00655029
-0.00657098
0.000798383
0.00516825
-0.00523444
0.000898171
0.00318053
-0.00328032
0.00101694
0.000804846
-0.000923617
0.00113989
-0.00166171
0.00153877
0.00125305
-0.00393383
0.00382067
0.00134599
-0.0057677
0.00567476
0.00141165
-0.00708794
0.00702228
0.00144795
-0.00790769
0.00787139
0.00145944
-0.00838829
0.0083768
0.00145179
-0.00853911
0.00854677
0.00141964
-0.00860875
0.0086409
0.00135654
-0.00876133
0.00882443
0.00127167
-0.00920429
0.00928916
0.00119311
-0.0092863
0.00936486
0.00115038
-0.00839392
0.00843665
0.00115335
-0.00608335
0.00608038
0.00120015
-0.00250498
0.00245818
0.00126566
0.000990808
-0.00105632
0.00133058
0.00468911
-0.00475402
0.00138218
0.00650069
-0.00655229
0.00140964
0.00867975
-0.00870721
0.00142017
0.00790642
-0.00791696
0.00136993
0.00974494
-0.0096947
0.0085983
-0.00853508
-0.000346696
-0.0034863
-0.000284723
-0.00339668
-0.000210438
-0.00314729
-0.000125611
-0.00272408
-3.2834e-05
-0.00212423
6.56193e-05
-0.00135593
0.000168386
-0.000436201
0.000275095
0.000605538
0.000384986
0.00172116
0.000495155
0.00284011
0.000600472
0.00388058
0.000694213
0.00477801
0.000770531
0.00549689
0.000825045
0.00603866
0.000854574
0.00643319
0.000856456
0.00673307
0.000830505
0.00700003
0.000784769
0.00725887
0.000739844
0.00742192
0.00072256
0.00726152
0.000749649
0.0065232
0.000819598
0.0050983
0.000920418
0.00307971
0.00103804
0.000687225
0.00115827
-0.00178194
0.00126772
-0.00404329
0.0013566
-0.00585658
0.00141845
-0.00714979
0.00145138
-0.00794062
0.00145991
-0.00839681
0.0014501
-0.00852931
0.00141688
-0.00857553
0.00135311
-0.00869755
0.0012671
-0.00911828
0.00118696
-0.00920616
0.00114292
-0.00834989
0.00114534
-0.00608576
0.00119206
-0.0025517
0.00125784
0.000925026
0.00132346
0.00462349
0.00137639
0.00644776
0.00140497
0.00865118
0.00141598
0.00789541
0.00136572
0.0097952
0.00866174
-0.000387734
-0.00353121
-0.000329345
-0.00345507
-0.000257496
-0.00321913
-0.000173616
-0.00280796
-8.01913e-05
-0.00221765
2.0243e-05
-0.00145636
0.000126195
-0.000542153
0.000236736
0.000494997
0.000350809
0.00160709
0.00046528
0.00272564
0.000574958
0.0037709
0.000672981
0.00467999
0.000753351
0.00541652
0.000811461
0.00598056
0.000843944
0.00640071
0.000848255
0.00672876
0.000824989
0.0070233
0.000783443
0.00730042
0.000744872
0.0074605
0.00073499
0.0072714
0.000768217
0.00648997
0.000841603
0.00502492
0.000943162
0.00297815
0.00105939
0.000571001
0.00117671
-0.00189927
0.00128234
-0.00414892
0.00136708
-0.00594131
0.0014251
-0.00720781
0.00145469
-0.00797021
0.0014603
-0.00840243
0.00144839
-0.0085174
0.00141417
-0.00854131
0.00134983
-0.00863321
0.0012628
-0.00903125
0.00118114
-0.0091245
0.00113576
-0.00830452
0.00113758
-0.00608758
0.00118418
-0.0025983
0.0012502
0.000859003
0.00131651
0.00455718
0.00137078
0.00639349
0.00140044
0.00862152
0.00141193
0.00788392
0.00136168
0.00984545
0.00872539
-0.000424602
-0.00357146
-0.000370294
-0.00350938
-0.000301443
-0.00328799
-0.000219062
-0.00289034
-0.000125479
-0.00231123
-2.34973e-05
-0.00155834
8.53914e-05
-0.000651042
0.000199517
0.000380872
0.000317534
0.00148907
0.000436082
0.00260709
0.000549921
0.00365706
0.000652059
0.00457785
0.000736354
0.00533222
0.000797984
0.00591893
0.000833425
0.00636527
0.000840314
0.00672187
0.000820064
0.00704355
0.000783141
0.00733734
0.000751228
0.00749241
0.000748733
0.00727389
0.000787831
0.00645087
0.000864335
0.00494841
0.000966351
0.00287614
0.00108094
0.000456407
0.0011952
-0.00201352
0.00129689
-0.00425062
0.00137742
-0.00602184
0.00143158
-0.00726198
0.00145787
-0.0079965
0.00146063
-0.00840519
0.00144665
-0.00850342
0.00141149
-0.00850615
0.00134671
-0.00856843
0.00125877
-0.00894332
0.00117564
-0.00904136
0.00112891
-0.00825779
0.00113007
-0.00608874
0.0011765
-0.00264473
0.00124274
0.000792764
0.00130974
0.00449018
0.00136533
0.00633789
0.00139606
0.00859079
0.00140803
0.00787195
0.00135781
0.00989568
0.00878924
-0.000456931
-0.00360669
-0.000407205
-0.00355911
-0.000341946
-0.00335325
-0.000261675
-0.00297061
-0.000168481
-0.00240443
-6.51753e-05
-0.00166165
4.60419e-05
-0.000762259
0.000163496
0.000263417
0.000285206
0.00136736
0.000407591
0.0024847
0.000525384
0.00353927
0.00063146
0.00447178
0.000719548
0.00524413
0.000784623
0.00585385
0.000823037
0.00632685
0.000832672
0.00671224
0.00081578
0.00706044
0.000783891
0.00736923
0.000758895
0.0075174
0.000763729
0.00726906
0.00080842
0.00640618
0.000887731
0.0048691
0.000989929
0.00277394
0.00110267
0.00034367
0.00121368
-0.00212453
0.00131135
-0.00434828
0.0013876
-0.0060981
0.0014379
-0.00731227
0.00146092
-0.00801952
0.00146089
-0.00840516
0.00144488
-0.00848741
0.00140885
-0.00847011
0.00134374
-0.00850332
0.00125502
-0.00885461
0.00117046
-0.0089568
0.00112235
-0.00820967
0.0011228
-0.00608919
0.00116902
-0.00269094
0.00123546
0.000726329
0.00130313
0.0044225
0.00136007
0.00628096
0.00139183
0.00855902
0.00140429
0.00785949
0.00135411
0.00994585
0.00885328
-0.000484366
-0.00043972
-0.00360375
-0.000378668
-0.0034143
-0.000301172
-0.00304811
-0.000208989
-0.00249661
-0.000104961
-0.00176568
7.96018e-06
-0.00087518
0.000128721
0.000142657
0.000253857
0.00124222
0.00037983
0.00235873
0.000501359
0.00341774
0.000611192
0.00436195
0.000702938
0.00515239
0.000771385
0.0057854
0.000812801
0.00628544
0.000825366
0.00669967
0.000812181
0.00707362
0.000785715
0.0073957
0.000767845
0.00753527
0.000779912
0.00725699
0.000829909
0.00635618
0.000911724
0.00478728
0.00101384
0.00267182
0.00112451
0.000233003
0.00123214
-0.00223216
0.00132568
-0.00444182
0.00139763
-0.00617004
0.00144404
-0.00735869
0.00146384
-0.00803932
0.00146108
-0.0084024
0.00144309
-0.00846942
0.00140624
-0.00843326
0.00134091
-0.00843799
0.00125155
-0.00876525
0.00116562
-0.00887088
0.0011161
-0.00816015
0.00111578
-0.00608888
0.00116174
-0.0027369
0.00122835
0.000659719
0.00129671
0.00435415
0.00135497
0.0062227
0.00138775
0.00852624
0.00140069
0.00784656
0.00135059
0.00999595
0.00891749
-0.000467487
-0.00364284
-0.000411272
-0.00347051
-0.00033726
-0.00312212
-0.000246779
-0.00258709
-0.000142624
-0.00186983
-2.8077e-05
-0.000989727
9.52344e-05
1.93452e-05
0.000223512
0.00111395
0.00035281
0.00222943
0.000477852
0.0032927
0.000591258
0.00424854
0.000686525
0.00505712
0.000758277
0.00571365
0.000802737
0.00624098
0.000818435
0.00668398
0.000809305
0.00708275
0.000788623
0.00741638
0.00077804
0.00754586
0.000797209
0.00723782
0.000852221
0.00630117
0.000936242
0.00470326
0.00103802
0.00257005
0.00114642
0.000124605
0.00125052
-0.00233627
0.00133987
-0.00453117
0.00140747
-0.00623765
0.00145
-0.00740122
0.00146663
-0.00805594
0.00146121
-0.00839698
0.00144127
-0.00844949
0.00140366
-0.00839564
0.00133824
-0.00837257
0.00124834
-0.00867535
0.00116111
-0.00878364
0.00111015
-0.00810919
0.001109
-0.00608773
0.00115466
-0.00278256
0.00122143
0.000592952
0.00129046
0.00428512
0.00135005
0.00616311
0.00138382
0.00849246
0.00139724
0.00783314
0.00134725
0.0100459
0.00898188
-0.000490176
-0.00367593
-0.000439418
-0.00352127
-0.000369632
-0.00319191
-0.000281612
-0.00267511
-0.000178005
-0.00197344
-6.22121e-05
-0.00110552
6.30489e-05
-0.000105916
0.000194189
0.000982806
0.000326537
0.00209708
0.000454863
0.00316437
0.000571656
0.00413175
0.00067031
0.00495847
0.000745307
0.00563865
0.000792869
0.00619342
0.000811918
0.00666493
0.000807188
0.00708749
0.000792618
0.00743095
0.000789436
0.00754904
0.000815544
0.00721172
0.000875276
0.00624144
0.000961214
0.00461733
0.00106241
0.00246885
0.00116835
1.86634e-05
0.00126881
-0.00243673
0.00135389
-0.00461625
0.00141712
-0.00630087
0.00145577
-0.00743987
0.00146927
-0.00806945
0.00146126
-0.00838897
0.00143944
-0.00842766
0.00140111
-0.00835732
0.0013357
-0.00830716
0.00124541
-0.00858506
0.00115694
-0.00869517
0.00110451
-0.00805677
0.00110246
-0.00608567
0.00114776
-0.00282786
0.00121467
0.000526043
0.00128438
0.00421542
0.0013453
0.00610218
0.00138004
0.00845772
0.00139396
0.00781923
0.00134409
0.0100958
0.00904642
-0.000507474
-0.0037026
-0.000462777
-0.00356597
-0.000397976
-0.00325671
-0.00031323
-0.00275986
-0.00021093
-0.00207574
-9.46211e-05
-0.00122183
3.21201e-05
-0.000232657
0.000165895
0.000849031
0.000301014
0.00196196
0.000432389
0.003033
0.000552382
0.00401175
0.000654291
0.00485656
0.000732484
0.00556046
0.000783224
0.00614268
0.000805852
0.0066423
0.000805858
0.00708748
0.000797693
0.00743912
0.000801978
0.00754475
0.000834837
0.00717886
0.000898992
0.00617729
0.000986565
0.00452975
0.00108695
0.00236846
0.00119026
-8.465e-05
0.00128696
-0.00253342
0.00136772
-0.00469701
0.00142656
-0.00635971
0.00146134
-0.00747465
0.00147177
-0.00807988
0.00146125
-0.00837845
0.00143758
-0.00840399
0.00139859
-0.00831834
0.0013333
-0.00824187
0.00124273
-0.00849449
0.00115309
-0.00860553
0.00109918
-0.00800286
0.00109616
-0.00608265
0.00114106
-0.00287276
0.0012081
0.000459007
0.00127847
0.00414504
0.00134073
0.00603993
0.00137642
0.00842203
0.00139083
0.00780481
0.00134112
0.0101455
0.00911109
-0.000519102
-0.00372253
-0.000481029
-0.00360404
-0.000421969
-0.00331577
-0.000341357
-0.00284047
-0.000241191
-0.00217591
-0.000125096
-0.00133792
1.65044e-06
-0.000359404
0.000138643
0.000712039
0.000276243
0.00182436
0.000410424
0.00289882
0.000533433
0.00388875
0.000638471
0.00475152
0.000719822
0.00547911
0.00077383
0.00608867
0.000800274
0.00661585
0.000805339
0.00708241
0.000803831
0.00744062
0.000815605
0.00753298
0.000855003
0.00713946
0.000923283
0.00610901
0.00101222
0.00444082
0.00111157
0.00226911
0.0012121
-0.000185179
0.00130493
-0.00262625
0.00138133
-0.0047734
0.00143577
-0.00641416
0.0014667
-0.00750557
0.00147411
-0.0080873
0.00146115
-0.00836549
0.00143569
-0.00837853
0.0013961
-0.00827875
0.00133102
-0.00817679
0.00124032
-0.00840378
0.00114958
-0.00851479
0.00109416
-0.00794744
0.00109009
-0.00607858
0.00113454
-0.00291722
0.00120169
0.000391859
0.00127274
0.00407399
0.00133632
0.00597635
0.00137294
0.00838541
0.00138786
0.0077899
0.00133834
0.010195
0.0091759
-0.000524818
-0.00373542
-0.000493877
-0.00363498
-0.000441292
-0.00336835
-0.000365695
-0.00291607
-0.000268554
-0.00227305
-0.000153439
-0.00145304
-2.55331e-05
-0.000487309
0.000112487
0.000574019
0.000252233
0.00168462
0.000388966
0.00276208
0.000514807
0.0037629
0.000622854
0.00464347
0.000707338
0.00539463
0.000764719
0.00603129
0.00079522
0.00658535
0.000805649
0.00707198
0.00081101
0.00743526
0.000830249
0.00751374
0.000875953
0.00709375
0.000948065
0.00603689
0.0010381
0.00435079
0.00113621
0.00217099
0.00123382
-0.000282783
0.0013227
-0.00271513
0.0013947
-0.0048454
0.00144475
-0.00646422
0.00147184
-0.00753266
0.0014763
-0.00809176
0.00146099
-0.00835017
0.00143378
-0.00835132
0.00139362
-0.00823858
0.00132887
-0.00811204
0.00123815
-0.00831307
0.00114639
-0.00842303
0.00108944
-0.00789049
0.00108426
-0.0060734
0.00112821
-0.00296117
0.00119546
0.000324613
0.00126718
0.00400226
0.00133209
0.00591144
0.00136962
0.00834788
0.00138506
0.00777446
0.00133575
0.0102444
0.00924082
-0.000524428
-0.00374108
-0.000501056
-0.00365835
-0.000455633
-0.00341378
-0.000385935
-0.00298576
-0.000292762
-0.00236622
-0.000179497
-0.0015663
-5.1375e-05
-0.000615431
8.74284e-05
0.000435215
0.000229003
0.00154304
0.000368019
0.00262307
0.000496507
0.00363442
0.000607452
0.00453253
0.000695057
0.00530702
0.000755928
0.00597041
0.000790726
0.00655056
0.000806798
0.00705591
0.000819198
0.00742286
0.000845839
0.0074871
0.000897599
0.00704199
0.000973247
0.00596125
0.00106412
0.00425991
0.00116081
0.0020743
0.00125537
-0.000377338
0.00134023
-0.00279999
0.0014078
-0.00491298
0.00145348
-0.0065099
0.00147676
-0.00755594
0.00147832
-0.00809332
0.00146074
-0.00833259
0.00143184
-0.00832243
0.00139115
-0.00819789
0.00132682
-0.00804771
0.00123623
-0.00822248
0.00114353
-0.00833033
0.00108504
-0.007832
0.00107867
-0.00606703
0.00112206
-0.00300456
0.00118939
0.00025728
0.0012618
0.00392985
0.00132803
0.00584521
0.00136645
0.00830946
0.00138242
0.00775849
0.00133336
0.0102934
0.00930584
-0.000517793
-0.00373941
-0.000502337
-0.00367381
-0.000464699
-0.00345141
-0.000401758
-0.00304871
-0.000313529
-0.00245445
-0.000203063
-0.00167677
-7.56885e-05
-0.000742805
6.35085e-05
0.000296018
0.000206584
0.00139997
0.000347598
0.00248205
0.000478546
0.00350347
0.000592281
0.00441879
0.000683007
0.0052163
0.000747495
0.00590593
0.000786825
0.00651123
0.000808794
0.00703394
0.000828354
0.0074033
0.000862295
0.00745316
0.000919849
0.00698444
0.000998741
0.00588235
0.00109021
0.00416845
0.0011853
0.00197921
0.0012767
-0.000468738
0.00135748
-0.00288077
0.00142062
-0.00497612
0.00146194
-0.00655122
0.00148145
-0.00757545
0.00148017
-0.00809204
0.0014604
-0.00831283
0.00142988
-0.0082919
0.00138869
-0.00815671
0.00132487
-0.00798388
0.00123454
-0.00813216
0.001141
-0.00823679
0.00108095
-0.00777195
0.00107331
-0.00605939
0.00111609
-0.00304734
0.0011835
0.000189876
0.00125658
0.00385677
0.00132414
0.00577765
0.00136343
0.00827018
0.00137994
0.00774198
0.00133116
0.0103422
0.00937095
-0.000504841
-0.00373041
-0.000497547
-0.0036811
-0.000468225
-0.00348074
-0.000412852
-0.00310408
-0.00033055
-0.00253675
-0.000223882
-0.00178344
-9.81405e-05
-0.000868547
4.0776e-05
0.000157102
0.000185025
0.00125572
0.000327732
0.00233935
0.000460948
0.00337025
0.000577372
0.00430237
0.000671227
0.00512244
0.000739461
0.00583769
0.000783549
0.00646714
0.000811636
0.00700586
0.000838434
0.00737651
0.000879537
0.00741206
0.000942609
0.00692137
0.00102446
0.0058005
0.00111628
0.00407662
0.00120961
0.00188588
0.00129776
-0.000556893
0.00137442
-0.00295743
0.00143312
-0.00503481
0.00147012
-0.00658822
0.00148589
-0.00759122
0.00148183
-0.00808798
0.00145998
-0.00829098
0.00142788
-0.0082598
0.00138624
-0.00811506
0.00132301
-0.00792065
0.00123307
-0.00804222
0.00113878
-0.0081425
0.00107717
-0.00771034
0.00106819
-0.00605041
0.00111031
-0.00308946
0.00117777
0.000122415
0.00125153
0.00378301
0.00132041
0.00570877
0.00136056
0.00823003
0.00137763
0.00772491
0.00132917
0.0103906
0.00943612
-0.000485574
-0.00371418
-0.000486569
-0.00368011
-0.00046599
-0.00350131
-0.000418918
-0.00315115
-0.000343503
-0.00261217
-0.00024166
-0.00188528
-0.000118481
-0.000991726
1.91967e-05
1.9424e-05
0.000164394
0.00111052
0.000308474
0.00219527
0.000443753
0.00323497
0.000562765
0.00418335
0.000659763
0.00502544
0.000731875
0.00576558
0.000780928
0.00641809
0.000815317
0.00697147
0.000849385
0.00734244
0.00089748
0.00736396
0.000965785
0.00685306
0.00105031
0.00571598
0.00114226
0.00398467
0.00123369
0.00179446
0.00131852
-0.000641731
0.00139102
-0.00302993
0.00144528
-0.00508907
0.00147799
-0.00662093
0.00149008
-0.00760331
0.00148331
-0.00808121
0.00145946
-0.00826713
0.00142586
-0.0082262
0.00138378
-0.00807298
0.00132123
-0.0078581
0.00123182
-0.00795282
0.00113688
-0.00804755
0.00107371
-0.00764717
0.00106332
-0.00604002
0.00110471
-0.00313085
0.00117221
5.49117e-05
0.00124665
0.00370856
0.00131685
0.00563857
0.00135783
0.00818905
0.00137548
0.00770726
0.00132738
0.0104387
0.00950135
-0.000460074
-0.00369093
-0.000469361
-0.00367082
-0.000457824
-0.00351285
-0.000419683
-0.00318929
-0.000352067
-0.00267978
-0.000256075
-0.00198127
-0.000136443
-0.00111136
-2.78266e-06
-0.000114236
0.000144796
0.000962943
0.000289903
0.00205016
0.000427021
0.00309786
0.000548515
0.00406186
0.00064867
0.00492529
0.000724784
0.00568947
0.000778989
0.00636388
0.000819826
0.00693063
0.000861152
0.00730111
0.000916038
0.00730908
0.000989282
0.00677982
0.0010762
0.00562906
0.00116807
0.00389279
0.00125746
0.00170507
0.00133893
-0.000723194
0.00140725
-0.00309825
0.00145708
-0.0051389
0.00148555
-0.0066494
0.00149401
-0.00761177
0.0014846
-0.0080718
0.00145884
-0.00824137
0.00142379
-0.00819114
0.00138131
-0.0080305
0.00131952
-0.00779631
0.00123077
-0.00786407
0.00113528
-0.00795207
0.00107056
-0.00758244
0.00105868
-0.00602814
0.00109929
-0.00317145
0.00116682
-1.26153e-05
0.00124194
0.00363344
0.00131345
0.00556706
0.00135526
0.00814724
0.0013735
0.00768902
0.00132579
0.0104865
0.00956661
-0.000428509
-0.00366098
-0.000445958
-0.00365337
-0.000443622
-0.00351519
-0.00041492
-0.00321799
-0.00035593
-0.00273877
-0.000266803
-0.0020704
-0.000151629
-0.00122653
-1.88407e-05
-0.000247024
0.000126443
0.000817659
0.000272124
0.00190448
0.000410829
0.00295915
0.000534691
0.003938
0.000638012
0.00482197
0.000718241
0.00560924
0.000777758
0.00630436
0.000825147
0.00688324
0.000873672
0.00725259
0.000935122
0.00724763
0.00101301
0.00670193
0.00110205
0.00554003
0.00119364
0.0038012
0.00128089
0.00161782
0.00135893
-0.000801242
0.00142307
-0.00316239
0.0014685
-0.00518432
0.00149278
-0.00667368
0.00149767
-0.00761666
0.00148568
-0.00805981
0.00145812
-0.00821381
0.00142169
-0.00815472
0.00137883
-0.00798765
0.00131786
-0.00773533
0.00122991
-0.00777612
0.00113399
-0.00785615
0.00106773
-0.00751618
0.0010543
-0.00601472
0.00109406
-0.00321121
0.00116159
-8.01467e-05
0.00123739
0.00355764
0.00131021
0.00549424
0.00135283
0.00810461
0.00137169
0.00767016
0.00132441
0.0105337
0.00963188
-0.00039114
-0.00362478
-0.000416482
-0.00362803
-0.000423356
-0.00350831
-0.000404454
-0.0032369
-0.000354811
-0.00278842
-0.000273518
-0.00215169
-0.000163895
-0.00133615
-3.39342e-05
-0.000376985
0.00010944
0.000674285
0.000255276
0.00175864
0.00039528
0.00281915
0.00052138
0.0038119
0.000627862
0.00471549
0.000712301
0.0055248
0.000777258
0.00623941
0.000831257
0.00682924
0.000886882
0.00719696
0.000954643
0.00717986
0.00103687
0.00661971
0.00112776
0.00544914
0.00121888
0.00371008
0.00130389
0.00153281
0.0013785
-0.000875852
0.00143846
-0.00322235
0.00147951
-0.00522537
0.00149966
-0.00669383
0.00150105
-0.00761804
0.00148656
-0.00804532
0.00145728
-0.00818453
0.00141955
-0.00811698
0.00137634
-0.00794444
0.00131625
-0.00767525
0.00122922
-0.00768909
0.00113298
-0.00775991
0.00106521
-0.0074484
0.00105016
-0.00599968
0.00108901
-0.00325005
0.00115652
-0.000147661
0.00123299
0.00348117
0.00130712
0.00542012
0.00135055
0.00806118
0.00137004
0.00765067
0.00132324
0.0105805
0.00969716
-0.000348316
-0.00358283
-0.00038115
-0.0035952
-0.00039708
-0.00349238
-0.000388179
-0.0032458
-0.000348469
-0.00282813
-0.000275909
-0.00222425
-0.000172921
-0.00143914
-4.69934e-05
-0.000502913
9.40113e-05
0.00053328
0.00023952
0.00161314
0.000380499
0.00267817
0.000508682
0.00368371
0.000618304
0.00460586
0.000707022
0.00543608
0.000777508
0.00616892
0.00083813
0.00676862
0.000900712
0.00713438
0.000974513
0.00710606
0.00106077
0.00653345
0.00115325
0.00535666
0.00124373
0.00361961
0.00132643
0.0014501
0.00139759
-0.000947013
0.00145339
-0.00327815
0.00149009
-0.00526207
0.00150619
-0.00670993
0.00150414
-0.007616
0.00148721
-0.00802839
0.00145632
-0.00815363
0.00141736
-0.00807802
0.00137381
-0.0079009
0.00131467
-0.00761611
0.0012287
-0.00760312
0.00113227
-0.00766347
0.001063
-0.00737914
0.00104628
-0.00598296
0.00108415
-0.00328792
0.00115162
-0.000215131
0.00122876
0.00340403
0.00130418
0.0053447
0.00134841
0.00801695
0.00136856
0.00763052
0.00132227
0.0106268
0.0097624
-0.000300475
-0.00353575
-0.00034027
-0.0035554
-0.000364943
-0.00346771
-0.000366067
-0.00324467
-0.000336717
-0.00285748
-0.000273684
-0.00228729
-0.000178344
-0.00153448
-5.75175e-05
-0.000623739
8.04163e-05
0.000395347
0.000225043
0.00146851
0.000366634
0.00253658
0.000496715
0.00355363
0.000609426
0.00449315
0.000702461
0.00534305
0.000778526
0.00609286
0.000845736
0.00670141
0.000915095
0.00706502
0.000994642
0.00702652
0.00108463
0.00644347
0.00117845
0.00526284
0.00126812
0.00352993
0.00134845
0.00136977
0.00141617
-0.00101473
0.00146782
-0.0033298
0.00150022
-0.00529447
0.00151233
-0.00672204
0.00150693
-0.0076106
0.00148765
-0.00800911
0.00145523
-0.00812122
0.00141512
-0.0080379
0.00137126
-0.00785704
0.00131312
-0.00755796
0.00122833
-0.00751833
0.00113182
-0.00756696
0.00106111
-0.00730843
0.00104266
-0.00596451
0.00107949
-0.00332475
0.00114689
-0.000282531
0.00122469
0.00332624
0.0013014
0.00526799
0.00134641
0.00797194
0.00136725
0.00760968
0.00132151
0.0106726
0.0098276
-0.000248137
-0.0034842
-0.000294246
-0.00350929
-0.000327187
-0.00343477
-0.000338178
-0.00323368
-0.00031944
-0.00287621
-0.000266589
-0.00234014
-0.00017982
-0.00162125
-6.51262e-05
-0.000738433
6.89335e-05
0.000261287
0.000212062
0.00132538
0.000353854
0.00239479
0.000485609
0.00342188
0.000601325
0.00437744
0.000698677
0.00524569
0.000780325
0.00601121
0.00085404
0.00662769
0.000929959
0.0069891
0.00101494
0.00694153
0.00110835
0.00635006
0.00120326
0.00516793
0.00129198
0.00344121
0.00136991
0.00129184
0.00143419
-0.00107902
0.00148174
-0.00337734
0.00150989
-0.00532262
0.00151809
-0.00673024
0.00150942
-0.00760193
0.00148785
-0.00798754
0.00145401
-0.00808738
0.00141282
-0.00799671
0.00136867
-0.00781289
0.00131157
-0.00750086
0.00122809
-0.00743484
0.00113164
-0.00747051
0.00105952
-0.00723631
0.0010393
-0.00594429
0.00107503
-0.00336047
0.00114232
-0.00034983
0.00122077
0.00324779
0.00129876
0.00519
0.00134455
0.00792615
0.00136609
0.00758813
0.00132096
0.0107177
0.00989273
-0.000191889
-0.00342891
-0.000243573
-0.00345761
-0.000284155
-0.00339419
-0.000304669
-0.00321317
-0.000296599
-0.00288428
-0.000254425
-0.00238231
-0.000177047
-0.00169863
-6.94734e-05
-0.000846007
5.98659e-05
0.000131948
0.000200815
0.00118443
0.000342347
0.00225325
0.000475508
0.00328872
0.000594104
0.00425884
0.000695729
0.00514407
0.000782915
0.00592402
0.000863006
0.0065476
0.000945232
0.00690687
0.00103533
0.00685143
0.00113184
0.00625355
0.00122761
0.00507216
0.00131526
0.00335356
0.00139075
0.00121634
0.00145164
-0.0011399
0.00149511
-0.00342081
0.00151906
-0.00534657
0.00152343
-0.00673461
0.00151159
-0.00759009
0.00148782
-0.00796376
0.00145265
-0.00805222
0.00141047
-0.00795453
0.00136604
-0.00776847
0.00131002
-0.00744483
0.00122796
-0.00735279
0.00113171
-0.00737426
0.00105824
-0.00716285
0.00103621
-0.00592225
0.00107076
-0.00339503
0.00113792
-0.000416992
0.001217
0.00316871
0.00129626
0.00511074
0.00134282
0.00787959
0.0013651
0.00756585
0.00132062
0.0107622
0.00995776
-0.000132403
-0.000188832
-0.00340118
-0.000236288
-0.00334673
-0.000265796
-0.00318366
-0.00026825
-0.00288183
-0.000237062
-0.0024135
-0.000169768
-0.00176592
-7.02365e-05
-0.000945539
5.35376e-05
8.17366e-06
0.000191558
0.00104641
0.000332316
0.0021125
0.000466563
0.00315447
0.000587868
0.00413754
0.000693674
0.00503826
0.000786304
0.00583139
0.000872593
0.00646131
0.000960843
0.00681862
0.00105573
0.00675654
0.00115504
0.00615424
0.00125143
0.00497577
0.0013379
0.0032671
0.00141095
0.00114329
0.00146846
-0.00119741
0.00150791
-0.00346026
0.00152772
-0.00536638
0.00152837
-0.00673525
0.00151344
-0.00757517
0.00148754
-0.00793786
0.00145114
-0.00801582
0.00140805
-0.00791145
0.00136337
-0.00772379
0.00130845
-0.00738991
0.00122794
-0.00727228
0.00113202
-0.00727834
0.00105727
-0.0070881
0.00103338
-0.00589837
0.0010667
-0.00342835
0.00113369
-0.000483979
0.00121338
0.00308902
0.00129389
0.00503024
0.00134123
0.00783225
0.00136428
0.0075428
0.00132049
0.010806
0.0100227
-0.000130687
-0.00334089
-0.000184124
-0.0032933
-0.000221919
-0.00314586
-0.000234543
-0.00286921
-0.000214455
-0.00243359
-0.000157782
-0.00182259
-6.71271e-05
-0.00103619
5.02486e-05
-0.000109202
0.000184548
0.000912111
0.00032397
0.00197307
0.000458932
0.00301951
0.000582723
0.00401375
0.000692567
0.00492842
0.000790494
0.00573346
0.000882759
0.00636905
0.000976722
0.00672466
0.00107605
0.00665722
0.00117785
0.00605244
0.00127466
0.00487896
0.00135984
0.00318192
0.00143046
0.00107267
0.00148465
-0.00125161
0.00152013
-0.00349574
0.00153586
-0.00538212
0.00153286
-0.00673225
0.00151496
-0.00755727
0.00148701
-0.00790991
0.00144947
-0.00797828
0.00140557
-0.00786754
0.00136065
-0.00767886
0.00130685
-0.00733611
0.001228
-0.00719344
0.00113256
-0.00718289
0.00105659
-0.00701213
0.00103083
-0.00587261
0.00106285
-0.00346037
0.00112963
-0.00055075
0.00120991
0.00300873
0.00129166
0.00494849
0.00133976
0.00778415
0.00136361
0.00751895
0.00132057
0.010849
0.0100874
-6.98725e-05
-0.00327806
-0.000128297
-0.00323487
-0.000173504
-0.00310066
-0.000195737
-0.00284697
-0.000186648
-0.00244268
-0.000140964
-0.00186828
-5.98865e-05
-0.00111727
5.02458e-05
-0.000219334
0.00018005
0.000782307
0.000317525
0.0018356
0.000452776
0.00288426
0.000578776
0.00388775
0.00069246
0.00481473
0.000795485
0.00563044
0.000893461
0.00627107
0.000992798
0.00662533
0.00109621
0.00655381
0.00120021
0.00594844
0.00129722
0.00478194
0.00138105
0.00309809
0.00144926
0.00100447
0.00150017
-0.00130252
0.00153173
-0.00352729
0.00154346
-0.00539385
0.00153691
-0.00672571
0.00151614
-0.00753649
0.00148622
-0.00787999
0.00144764
-0.00793969
0.00140301
-0.00782292
0.00135787
-0.00763372
0.00130521
-0.00728346
0.00122814
-0.00711636
0.00113331
-0.00708806
0.0010562
-0.00693502
0.00102855
-0.00584496
0.00105922
-0.00349104
0.00112573
-0.000617259
0.00120659
0.00292788
0.00128956
0.00486552
0.00133842
0.00773529
0.00136309
0.00749428
0.00132086
0.0108912
0.010152
-7.66554e-06
-0.00321189
-6.95315e-05
-0.003173
-0.000121125
-0.00304906
-0.000152201
-0.0028159
-0.000153788
-0.00244109
-0.000119265
-0.0019028
-4.84804e-05
-0.00118806
5.38689e-05
-0.000321684
0.00017831
0.000657866
0.000313189
0.00170072
0.000448253
0.00274919
0.000576128
0.00375987
0.0006934
0.00469746
0.000801271
0.00552257
0.000904652
0.00616769
0.001009
0.00652097
0.00111614
0.00644667
0.00122204
0.00584255
0.00131907
0.00468491
0.00140149
0.00301566
0.00146731
0.000938648
0.00151501
-0.00135022
0.00154269
-0.00355498
0.00155049
-0.00540165
0.00154051
-0.00671573
0.00151697
-0.00751295
0.00148518
-0.0078482
0.00144564
-0.00790015
0.00140037
-0.00777765
0.00135503
-0.00758838
0.00130352
-0.00723195
0.00122832
-0.00704116
0.00113426
-0.006994
0.00105609
-0.00685686
0.00102655
-0.00581541
0.00105581
-0.00352031
0.00112201
-0.000683457
0.00120341
0.00284648
0.00128758
0.00478135
0.00133721
0.00768566
0.00136273
0.00746876
0.00132135
0.0109326
0.0102164
5.71456e-05
-0.00314455
-9.143e-06
-0.00310672
-6.54688e-05
-0.00299274
-0.000104423
-0.00277694
-0.000116134
-0.00242938
-9.27368e-05
-0.0019262
-3.28548e-05
-0.00124794
6.12633e-05
-0.000415802
0.000179566
0.000539564
0.000311164
0.00156912
0.000445513
0.00261484
0.000574876
0.00363051
0.000695427
0.00457691
0.000807844
0.00541015
0.000916286
0.00605925
0.00102527
0.00641199
0.00113578
0.00633616
0.00124327
0.00573506
0.00134015
0.00458803
0.00142113
0.00293468
0.00148461
0.000875166
0.00152913
-0.00139474
0.00155301
-0.00357885
0.00155695
-0.00540559
0.00154364
-0.00670242
0.00151745
-0.00748676
0.00148386
-0.00781462
0.00144345
-0.00785975
0.00139765
-0.00773185
0.00135213
-0.00754286
0.00130177
-0.00718158
0.00122854
-0.00696793
0.0011354
-0.00690086
0.00105626
-0.00677772
0.00102482
-0.00578397
0.00105262
-0.00354811
0.00111846
-0.000749294
0.00120037
0.00276457
0.00128572
0.004696
0.00133611
0.00763527
0.00136253
0.00744234
0.00132205
0.0109731
0.0102805
0.000122398
-0.00307693
5.42997e-05
-0.00303862
-8.00191e-06
-0.00293044
-5.30382e-05
-0.00273191
-7.40968e-05
-0.00240832
-6.15752e-05
-0.00193872
-1.34485e-05
-0.00129606
7.25699e-05
-0.00050182
0.000184024
0.000428109
0.000311633
0.00144151
0.000444697
0.00248178
0.000575107
0.0035001
0.000698575
0.00445344
0.00081519
0.00529354
0.000928316
0.00594613
0.00104154
0.00629876
0.00115505
0.00622266
0.00126385
0.00562625
0.00136041
0.00449148
0.00143993
0.00285516
0.00150113
0.00081397
0.00154253
-0.00143614
0.00156265
-0.00359898
0.00156282
-0.00540575
0.00154628
-0.00668588
0.00151756
-0.00745804
0.00148228
-0.00777933
0.00144109
-0.00781856
0.00139484
-0.00768561
0.00134917
-0.00749719
0.00129994
-0.00713235
0.00122877
-0.00689675
0.0011367
-0.00680879
0.0010567
-0.00669772
0.00102337
-0.00575064
0.00104967
-0.0035744
0.00111509
-0.000814716
0.00119747
0.00268219
0.00128397
0.00460949
0.00133513
0.00758411
0.00136247
0.007415
0.00132296
0.0110126
0.0103444
0.000187216
-0.00300948
0.000118429
-0.00296983
5.34607e-05
-0.00286547
-7.94622e-07
-0.00267765
-2.84175e-05
-0.0023807
-2.63228e-05
-0.00194082
1.20963e-05
-0.00133448
8.79299e-05
-0.000577654
0.000191851
0.000324188
0.00031476
0.0013186
0.000445933
0.00235061
0.0005769
0.00336913
0.000702872
0.00432747
0.000823292
0.00517312
0.000940693
0.00582872
0.00105775
0.0061817
0.00117389
0.00610651
0.00128373
0.00551642
0.00137982
0.00439538
0.00145789
0.00277709
0.00151686
0.000754998
0.00155519
-0.00147447
0.00157161
-0.0036154
0.00156808
-0.00540223
0.00154844
-0.00666623
0.00151731
-0.00742692
0.00148041
-0.00774243
0.00143852
-0.00777667
0.00139193
-0.00763901
0.00134614
-0.0074514
0.00129804
-0.00708425
0.00122901
-0.00682772
0.00113816
-0.00671795
0.0010574
-0.00661696
0.0010222
-0.00571544