/*--------------------------------*- C++ -*----------------------------------*\
  =========                 |
  \\      /  F ield         | OpenFOAM: The Open Source CFD Toolbox
   \\    /   O peration     | Website:  https://openfoam.org
    \\  /    A nd           | Version:  7
     \\/     M anipulation  |
\*---------------------------------------------------------------------------*/
FoamFile
{
    version     2.0;
    format      ascii;
    class       volScalarField;
    location    "75";
    object      p;
}
// * * * * * * * * * * * * * * * * * * * * * * * * * * * * * * * * * * * * * //

dimensions      [0 2 -2 0 0 0 0];

internalField   nonuniform List<scalar> 
8500
(
-0.306027
-0.307333
-0.308095
-0.308726
-0.309268
-0.309738
-0.310167
-0.310577
-0.310982
-0.31139
-0.311806
-0.312231
-0.312663
-0.313102
-0.313545
-0.313991
-0.31444
-0.314894
-0.315351
-0.315813
-0.308039
-0.30932
-0.310076
-0.310708
-0.311262
-0.311754
-0.312217
-0.312675
-0.313143
-0.313629
-0.31414
-0.314677
-0.315241
-0.31583
-0.316445
-0.317087
-0.317755
-0.318454
-0.31919
-0.319961
-0.310107
-0.311358
-0.312103
-0.312734
-0.313296
-0.313809
-0.314305
-0.31481
-0.315338
-0.315902
-0.316506
-0.317154
-0.317848
-0.318587
-0.319372
-0.320207
-0.321094
-0.322038
-0.323051
-0.324129
-0.312228
-0.313441
-0.314172
-0.314799
-0.315368
-0.315898
-0.316426
-0.316975
-0.317563
-0.318202
-0.318898
-0.319655
-0.320476
-0.321362
-0.322316
-0.323342
-0.324445
-0.325631
-0.326919
-0.328297
-0.314395
-0.315566
-0.316279
-0.316899
-0.317471
-0.318017
-0.318573
-0.319165
-0.319811
-0.320522
-0.321308
-0.322171
-0.323117
-0.324147
-0.325266
-0.326478
-0.327792
-0.329218
-0.330775
-0.332444
-0.316605
-0.317725
-0.318417
-0.319027
-0.3196
-0.320159
-0.320742
-0.321374
-0.322074
-0.322856
-0.323728
-0.324695
-0.325761
-0.326931
-0.328209
-0.329604
-0.331123
-0.332783
-0.3346
-0.336549
-0.31885
-0.319915
-0.320581
-0.321178
-0.321749
-0.322319
-0.322925
-0.323594
-0.324346
-0.325195
-0.326149
-0.327215
-0.328398
-0.329703
-0.331135
-0.332705
-0.334422
-0.336307
-0.338377
-0.34059
-0.321126
-0.322129
-0.322766
-0.323346
-0.323912
-0.324489
-0.325116
-0.325819
-0.326619
-0.327531
-0.328564
-0.329725
-0.331019
-0.332452
-0.334031
-0.335767
-0.337673
-0.339774
-0.342084
-0.344545
-0.323426
-0.324361
-0.324966
-0.325526
-0.326083
-0.326665
-0.327308
-0.328041
-0.328886
-0.329857
-0.330964
-0.332213
-0.333612
-0.335166
-0.336884
-0.338777
-0.340861
-0.343165
-0.345701
-0.34839
-0.325744
-0.326606
-0.327175
-0.327711
-0.328256
-0.328838
-0.329494
-0.330254
-0.331139
-0.332164
-0.333339
-0.334671
-0.336168
-0.337835
-0.339682
-0.341721
-0.343969
-0.346463
-0.349208
-0.3521
-0.328072
-0.328856
-0.329385
-0.329895
-0.330425
-0.331003
-0.331669
-0.33245
-0.33337
-0.334443
-0.33568
-0.337089
-0.338676
-0.340447
-0.342412
-0.344585
-0.346983
-0.34965
-0.352585
-0.35565
-0.330404
-0.331105
-0.331592
-0.332072
-0.332583
-0.333154
-0.333824
-0.334623
-0.335572
-0.336688
-0.33798
-0.339457
-0.341125
-0.34299
-0.345062
-0.347355
-0.349886
-0.352709
-0.355813
-0.359018
-0.332733
-0.333348
-0.33379
-0.334236
-0.334724
-0.335284
-0.335954
-0.336764
-0.337737
-0.338889
-0.340229
-0.341767
-0.343506
-0.345455
-0.347621
-0.350018
-0.352666
-0.355623
-0.358875
-0.362182
-0.335052
-0.335578
-0.335971
-0.336381
-0.336842
-0.337386
-0.338051
-0.338867
-0.339858
-0.341038
-0.34242
-0.344008
-0.34581
-0.34783
-0.350076
-0.352562
-0.355308
-0.358379
-0.361756
-0.36512
-0.337354
-0.337789
-0.338132
-0.338501
-0.338932
-0.339455
-0.34011
-0.340927
-0.341928
-0.34313
-0.344543
-0.346174
-0.348027
-0.350106
-0.352419
-0.354977
-0.3578
-0.360962
-0.364442
-0.36781
-0.339634
-0.339976
-0.340265
-0.340592
-0.340988
-0.341487
-0.342126
-0.342936
-0.34394
-0.345156
-0.346592
-0.348255
-0.350148
-0.352274
-0.354639
-0.357253
-0.360132
-0.363361
-0.36693
-0.370222
-0.341886
-0.342133
-0.342367
-0.342648
-0.343006
-0.343474
-0.344092
-0.344889
-0.345889
-0.34711
-0.34856
-0.350246
-0.352168
-0.354328
-0.356729
-0.35938
-0.362295
-0.365568
-0.369225
-0.372344
-0.344102
-0.344256
-0.344434
-0.344666
-0.344981
-0.345414
-0.346004
-0.346781
-0.34777
-0.348987
-0.350441
-0.352138
-0.354078
-0.356259
-0.358682
-0.361353
-0.364282
-0.367564
-0.371203
-0.374317
-0.34628
-0.34634
-0.34646
-0.346641
-0.346909
-0.347303
-0.347858
-0.348607
-0.349576
-0.35078
-0.35223
-0.353928
-0.355873
-0.358062
-0.360492
-0.363166
-0.366088
-0.369356
-0.37297
-0.375985
-0.348413
-0.348382
-0.348443
-0.34857
-0.348789
-0.349136
-0.349651
-0.350365
-0.351305
-0.352487
-0.353921
-0.355609
-0.357548
-0.359732
-0.362156
-0.364815
-0.367709
-0.37094
-0.374515
-0.377345
-0.350499
-0.350379
-0.350381
-0.350452
-0.350616
-0.350912
-0.351379
-0.352051
-0.352953
-0.354104
-0.355512
-0.357179
-0.359101
-0.361267
-0.363669
-0.366298
-0.369145
-0.372312
-0.375827
-0.378401
-0.352535
-0.35233
-0.352272
-0.352284
-0.35239
-0.352629
-0.353042
-0.353662
-0.354518
-0.355627
-0.356999
-0.358635
-0.360527
-0.362664
-0.365031
-0.367614
-0.370396
-0.373475
-0.376908
-0.379154
-0.354518
-0.354232
-0.354114
-0.354066
-0.354109
-0.354287
-0.354638
-0.355199
-0.355998
-0.357056
-0.358381
-0.359974
-0.361826
-0.363922
-0.366242
-0.368765
-0.371465
-0.374431
-0.377762
-0.379606
-0.356449
-0.356086
-0.355909
-0.355798
-0.355775
-0.355885
-0.356167
-0.35666
-0.357394
-0.35839
-0.359658
-0.361197
-0.362998
-0.365041
-0.367302
-0.369753
-0.372355
-0.375185
-0.378399
-0.37976
-0.358326
-0.357892
-0.357656
-0.357481
-0.357388
-0.357424
-0.35763
-0.358047
-0.358706
-0.35963
-0.36083
-0.362305
-0.364043
-0.366022
-0.368213
-0.370581
-0.373072
-0.375745
-0.378828
-0.379622
-0.360151
-0.359652
-0.359358
-0.359117
-0.35895
-0.358906
-0.359029
-0.359361
-0.359936
-0.360778
-0.361899
-0.363298
-0.364963
-0.366869
-0.36898
-0.371253
-0.373623
-0.376118
-0.379063
-0.379199
-0.361927
-0.361368
-0.361017
-0.360708
-0.360464
-0.360336
-0.360368
-0.360606
-0.361087
-0.361837
-0.362869
-0.364182
-0.365763
-0.367585
-0.369606
-0.371775
-0.374014
-0.376313
-0.379117
-0.378503
-0.363658
-0.363046
-0.362638
-0.36226
-0.361935
-0.361715
-0.36165
-0.361786
-0.362164
-0.362812
-0.363744
-0.364961
-0.366448
-0.368176
-0.370097
-0.372154
-0.374253
-0.376339
-0.379005
-0.377546
-0.365347
-0.364688
-0.364226
-0.363776
-0.363366
-0.36305
-0.36288
-0.362907
-0.363173
-0.363708
-0.364531
-0.365641
-0.367024
-0.368648
-0.370461
-0.372397
-0.374351
-0.376207
-0.378741
-0.376344
-0.367003
-0.366303
-0.365785
-0.365263
-0.364764
-0.364347
-0.364066
-0.363975
-0.364119
-0.364534
-0.365237
-0.366231
-0.367501
-0.369012
-0.370708
-0.372514
-0.374315
-0.375926
-0.378336
-0.37492
-0.368631
-0.367896
-0.367324
-0.366727
-0.366136
-0.365612
-0.365213
-0.364997
-0.365013
-0.365297
-0.365872
-0.36674
-0.367887
-0.369277
-0.370846
-0.372515
-0.374157
-0.375509
-0.3778
-0.3733
-0.370241
-0.369476
-0.36885
-0.368177
-0.36749
-0.366854
-0.366332
-0.365983
-0.365863
-0.366009
-0.366447
-0.367182
-0.368197
-0.369455
-0.37089
-0.372411
-0.373886
-0.374968
-0.377137
-0.371514
-0.371843
-0.371052
-0.370371
-0.369619
-0.368833
-0.368082
-0.36743
-0.366944
-0.36668
-0.366681
-0.366975
-0.367567
-0.368443
-0.369562
-0.370853
-0.372218
-0.373516
-0.374318
-0.376347
-0.369599
-0.373448
-0.372633
-0.371898
-0.371065
-0.370176
-0.369304
-0.368519
-0.367889
-0.367476
-0.367326
-0.367469
-0.367912
-0.368641
-0.369613
-0.370751
-0.37195
-0.373058
-0.373579
-0.375424
-0.3676
-0.375069
-0.374232
-0.37344
-0.372524
-0.371529
-0.370533
-0.369609
-0.36883
-0.368263
-0.367957
-0.367944
-0.368232
-0.368807
-0.369624
-0.370601
-0.371626
-0.372528
-0.372774
-0.374361
-0.365579
-0.376717
-0.375858
-0.375009
-0.374006
-0.372902
-0.371778
-0.370711
-0.369781
-0.369056
-0.368589
-0.368415
-0.368543
-0.368959
-0.369614
-0.370422
-0.371264
-0.371941
-0.371933
-0.373148
-0.363616
-0.378408
-0.377525
-0.376615
-0.375523
-0.374306
-0.373051
-0.371839
-0.370754
-0.369868
-0.369238
-0.368899
-0.368863
-0.369113
-0.3696
-0.370231
-0.370883
-0.371315
-0.371087
-0.371739
-0.361712
-0.380156
-0.379246
-0.378271
-0.377086
-0.375753
-0.374364
-0.373005
-0.371763
-0.370714
-0.369918
-0.369412
-0.369208
-0.369288
-0.369601
-0.370047
-0.370504
-0.370683
-0.370294
-0.370056
-0.359717
-0.381975
-0.381032
-0.379989
-0.378707
-0.377255
-0.375729
-0.374221
-0.37282
-0.371607
-0.370644
-0.369968
-0.369593
-0.369499
-0.36963
-0.369886
-0.370146
-0.370087
-0.369661
-0.368246
-0.358135
-0.383881
-0.382897
-0.38178
-0.380397
-0.378823
-0.377158
-0.375499
-0.373939
-0.372562
-0.37143
-0.370584
-0.370034
-0.369759
-0.369701
-0.369757
-0.369817
-0.369547
-0.369239
-0.366987
-0.360502
-0.385888
-0.384853
-0.383657
-0.382168
-0.380468
-0.378663
-0.376852
-0.375133
-0.373591
-0.372291
-0.371272
-0.370544
-0.370081
-0.369823
-0.369664
-0.369509
-0.369025
-0.368805
-0.366528
-0.371291
-0.388011
-0.386914
-0.385632
-0.384032
-0.382203
-0.380255
-0.378292
-0.376414
-0.374708
-0.373238
-0.372044
-0.371132
-0.370473
-0.370002
-0.369608
-0.369208
-0.368474
-0.368191
-0.365675
-0.37193
-0.390263
-0.389091
-0.387715
-0.385999
-0.384037
-0.381945
-0.379829
-0.377792
-0.375922
-0.374282
-0.372911
-0.371809
-0.370942
-0.370239
-0.369585
-0.3689
-0.36786
-0.367297
-0.364346
-0.369825
-0.392659
-0.391396
-0.389918
-0.38808
-0.385981
-0.383742
-0.381473
-0.379278
-0.377243
-0.375433
-0.373879
-0.372579
-0.371491
-0.370535
-0.369591
-0.368573
-0.367164
-0.366156
-0.362706
-0.366847
-0.395209
-0.39384
-0.392251
-0.390285
-0.388045
-0.385658
-0.383235
-0.38088
-0.378681
-0.376697
-0.374956
-0.373447
-0.37212
-0.370887
-0.369617
-0.36822
-0.366379
-0.364806
-0.360808
-0.363334
-0.397925
-0.396432
-0.394723
-0.392622
-0.390237
-0.387699
-0.385121
-0.382607
-0.380241
-0.37808
-0.376143
-0.374413
-0.372827
-0.371288
-0.369656
-0.36783
-0.3655
-0.363278
-0.358695
-0.359549
-0.399182
-0.397343
-0.395099
-0.392565
-0.389874
-0.387139
-0.384465
-0.38193
-0.379586
-0.377444
-0.375475
-0.373608
-0.371732
-0.369699
-0.367396
-0.364527
-0.361601
-0.356414
-0.355666
-0.400118
-0.397726
-0.395036
-0.392189
-0.389296
-0.386458
-0.383751
-0.381216
-0.378856
-0.376631
-0.374456
-0.372208
-0.369734
-0.366912
-0.363461
-0.3598
-0.354003
-0.351783
-0.400506
-0.397658
-0.39465
-0.391596
-0.388592
-0.385706
-0.382971
-0.380379
-0.377875
-0.375362
-0.372708
-0.369753
-0.366372
-0.362305
-0.357898
-0.351495
-0.347954
-0.403448
-0.400434
-0.397263
-0.394044
-0.390869
-0.387796
-0.38485
-0.382006
-0.379198
-0.376315
-0.373218
-0.369745
-0.36577
-0.361062
-0.355911
-0.348914
-0.344203
-0.40337
-0.400031
-0.396644
-0.39329
-0.390022
-0.386849
-0.383732
-0.380592
-0.377306
-0.373728
-0.369699
-0.365101
-0.359735
-0.353852
-0.346278
-0.340539
-0.402959
-0.399396
-0.395858
-0.392382
-0.388964
-0.38555
-0.382046
-0.378319
-0.374223
-0.369605
-0.364361
-0.358326
-0.351731
-0.343599
-0.33696
-0.402304
-0.398571
-0.394873
-0.391189
-0.38745
-0.383547
-0.379343
-0.374692
-0.369454
-0.363545
-0.356838
-0.349552
-0.340886
-0.333459
-0.401429
-0.397491
-0.393516
-0.389421
-0.385084
-0.380363
-0.375121
-0.369236
-0.362648
-0.355272
-0.347322
-0.338143
-0.330023
-0.400229
-0.395937
-0.39145
-0.386639
-0.381363
-0.375496
-0.368942
-0.361667
-0.353628
-0.34504
-0.335373
-0.32664
-0.39844
-0.393524
-0.388199
-0.382329
-0.375806
-0.368563
-0.360598
-0.351906
-0.342708
-0.332575
-0.323295
-0.395626
-0.389745
-0.383244
-0.376038
-0.368092
-0.359436
-0.350106
-0.340325
-0.329747
-0.319975
-0.391262
-0.384094
-0.37618
-0.36752
-0.358179
-0.348225
-0.337887
-0.326885
-0.316666
-0.376219
-0.36684
-0.356822
-0.346263
-0.335393
-0.323986
-0.313356
-0.366046
-0.35536
-0.344215
-0.332837
-0.321045
-0.310033
-0.353791
-0.342079
-0.330216
-0.318054
-0.306686
-0.327522
-0.315008
-0.303304
-0.3119
-0.299876
-0.229641
-0.218942
-0.242833
-0.231608
-0.221165
-0.265812
-0.255174
-0.244426
-0.233469
-0.223293
-0.276294
-0.266494
-0.256288
-0.245911
-0.235226
-0.225333
-0.293143
-0.28509
-0.27636
-0.267056
-0.257287
-0.24729
-0.236883
-0.227292
-0.298902
-0.292064
-0.284531
-0.276318
-0.267504
-0.258174
-0.248566
-0.238441
-0.229178
-0.303089
-0.297317
-0.290937
-0.283892
-0.276175
-0.267842
-0.258951
-0.249742
-0.239903
-0.231001
-0.306073
-0.301137
-0.295737
-0.289776
-0.283186
-0.275941
-0.268075
-0.25962
-0.250819
-0.24127
-0.232771
-0.308224
-0.30389
-0.299241
-0.294175
-0.288594
-0.282424
-0.275622
-0.268207
-0.260181
-0.251798
-0.242541
-0.234499
-0.309817
-0.305913
-0.301803
-0.29741
-0.292641
-0.287403
-0.281616
-0.275227
-0.268242
-0.260637
-0.252679
-0.243717
-0.236197
-0.311002
-0.307438
-0.303722
-0.299815
-0.295651
-0.291147
-0.286213
-0.280772
-0.274765
-0.268186
-0.260988
-0.253463
-0.244795
-0.237876
-0.311822
-0.308578
-0.305189
-0.30165
-0.297928
-0.293969
-0.289698
-0.285035
-0.279904
-0.274243
-0.268043
-0.261234
-0.254146
-0.245772
-0.239549
-0.312249
-0.309357
-0.306288
-0.303067
-0.299692
-0.296141
-0.292365
-0.288301
-0.283876
-0.279019
-0.273669
-0.267818
-0.261376
-0.254726
-0.246642
-0.241224
-0.312221
-0.309737
-0.307024
-0.304125
-0.301064
-0.297846
-0.294451
-0.290841
-0.286959
-0.282742
-0.278125
-0.273051
-0.267515
-0.261414
-0.255197
-0.247397
-0.242906
-0.311654
-0.309659
-0.307357
-0.304817
-0.302081
-0.299176
-0.296105
-0.292856
-0.289395
-0.285675
-0.281639
-0.277231
-0.272396
-0.267139
-0.261346
-0.255552
-0.248024
-0.244591
-0.309051
-0.307231
-0.305102
-0.302729
-0.300152
-0.297395
-0.294465
-0.291351
-0.288026
-0.284449
-0.280571
-0.27634
-0.271711
-0.266695
-0.261172
-0.255778
-0.248508
-0.246265
-0.307867
-0.306582
-0.304929
-0.302968
-0.300756
-0.298331
-0.295716
-0.292919
-0.289931
-0.28673
-0.283281
-0.279539
-0.27546
-0.271002
-0.266188
-0.260894
-0.255862
-0.248828
-0.24789
-0.306195
-0.305374
-0.304244
-0.302751
-0.300948
-0.29889
-0.29661
-0.294131
-0.29146
-0.288592
-0.285505
-0.28217
-0.278546
-0.274594
-0.270277
-0.265624
-0.26051
-0.255786
-0.248956
-0.249399
-0.303655
-0.303016
-0.302033
-0.30069
-0.299039
-0.297127
-0.294986
-0.292636
-0.290085
-0.287327
-0.284346
-0.281113
-0.277593
-0.273747
-0.269542
-0.26501
-0.260025
-0.255531
-0.24886
-0.250672
-0.301255
-0.300789
-0.299944
-0.298744
-0.297237
-0.295463
-0.293453
-0.291225
-0.288787
-0.286134
-0.28325
-0.28011
-0.276679
-0.272922
-0.268804
-0.264354
-0.259445
-0.255079
-0.248506
-0.251512
-0.298994
-0.29869
-0.297976
-0.29691
-0.295537
-0.293894
-0.292007
-0.289895
-0.287564
-0.285008
-0.282215
-0.279158
-0.275807
-0.272124
-0.268071
-0.263667
-0.258782
-0.254412
-0.247871
-0.251656
-0.296868
-0.296717
-0.296124
-0.295184
-0.293938
-0.292417
-0.290646
-0.288643
-0.286411
-0.283947
-0.281237
-0.278257
-0.274976
-0.271354
-0.26735
-0.262964
-0.258051
-0.253512
-0.246932
-0.250811
-0.294875
-0.294867
-0.294388
-0.293565
-0.292436
-0.29103
-0.289368
-0.287466
-0.285327
-0.282948
-0.280315
-0.277406
-0.274187
-0.270619
-0.266652
-0.262261
-0.257277
-0.252372
-0.245493
-0.246848
-0.293013
-0.293138
-0.292765
-0.29205
-0.291032
-0.289731
-0.288171
-0.286363
-0.284311
-0.282012
-0.27945
-0.276605
-0.273443
-0.269922
-0.265984
-0.261581
-0.256509
-0.251144
-0.243583
-0.231536
-0.291281
-0.291529
-0.291253
-0.290639
-0.289722
-0.288521
-0.287054
-0.285334
-0.283363
-0.281137
-0.278642
-0.275856
-0.272747
-0.269268
-0.265358
-0.260949
-0.255814
-0.250056
-0.242856
-0.226912
-0.289677
-0.290038
-0.289852
-0.289331
-0.288508
-0.287398
-0.286019
-0.28438
-0.282485
-0.280326
-0.277893
-0.275161
-0.2721
-0.268662
-0.264783
-0.260384
-0.255248
-0.249318
-0.242931
-0.226831
-0.2882
-0.288664
-0.288561
-0.288125
-0.287389
-0.286364
-0.285065
-0.283502
-0.281676
-0.279581
-0.277204
-0.274524
-0.271507
-0.268109
-0.264263
-0.259891
-0.254796
-0.248844
-0.242993
-0.227267
-0.28685
-0.287407
-0.287379
-0.287022
-0.286365
-0.285418
-0.284194
-0.282702
-0.280941
-0.278905
-0.276581
-0.273948
-0.270974
-0.267613
-0.263803
-0.259465
-0.254427
-0.248529
-0.242933
-0.227777
-0.285624
-0.286265
-0.286305
-0.28602
-0.285436
-0.284561
-0.283407
-0.281981
-0.280281
-0.2783
-0.276026
-0.273438
-0.270504
-0.267181
-0.263407
-0.259109
-0.254133
-0.248334
-0.242868
-0.228544
-0.284522
-0.285238
-0.28534
-0.285119
-0.284604
-0.283795
-0.282706
-0.281342
-0.279699
-0.277771
-0.275545
-0.273
-0.270105
-0.266819
-0.263083
-0.25883
-0.25392
-0.248253
-0.242867
-0.229562
-0.283543
-0.284324
-0.284481
-0.28432
-0.283867
-0.283121
-0.282093
-0.280786
-0.279199
-0.277322
-0.275143
-0.27264
-0.269784
-0.266536
-0.26284
-0.258635
-0.253799
-0.248283
-0.242959
-0.230757
-0.282684
-0.283523
-0.28373
-0.283623
-0.283227
-0.282539
-0.281568
-0.280318
-0.278783
-0.276956
-0.274823
-0.272362
-0.269547
-0.266339
-0.262688
-0.258537
-0.253784
-0.24843
-0.243171
-0.232075
-0.281945
-0.282833
-0.283084
-0.283027
-0.282683
-0.282049
-0.281134
-0.279937
-0.278454
-0.276677
-0.27459
-0.272174
-0.269402
-0.266237
-0.262636
-0.258547
-0.253886
-0.248701
-0.243522
-0.233486
-0.281322
-0.282253
-0.282544
-0.282531
-0.282237
-0.281654
-0.280791
-0.279646
-0.278214
-0.276487
-0.274448
-0.27208
-0.269354
-0.266238
-0.262692
-0.258674
-0.254116
-0.249102
-0.244025
-0.234966
-0.280815
-0.281781
-0.282107
-0.282136
-0.281887
-0.281353
-0.28054
-0.279446
-0.278066
-0.276389
-0.274402
-0.272083
-0.269409
-0.266348
-0.262866
-0.258927
-0.254482
-0.24964
-0.244684
-0.236497
-0.280419
-0.281416
-0.281774
-0.28184
-0.281633
-0.281145
-0.280381
-0.279338
-0.27801
-0.276386
-0.274452
-0.272187
-0.26957
-0.266571
-0.26316
-0.259311
-0.254987
-0.250317
-0.245496
-0.238068
-0.280134
-0.281156
-0.281542
-0.281642
-0.281476
-0.281032
-0.280316
-0.279323
-0.278048
-0.276478
-0.2746
-0.272395
-0.26984
-0.26691
-0.26358
-0.259828
-0.255634
-0.251132
-0.246456
-0.239674
-0.279955
-0.280999
-0.28141
-0.281542
-0.281414
-0.281013
-0.280343
-0.279401
-0.27818
-0.276667
-0.274848
-0.272707
-0.270221
-0.267368
-0.264126
-0.26048
-0.256421
-0.252085
-0.247556
-0.241315
-0.279881
-0.280942
-0.281376
-0.281539
-0.281446
-0.281086
-0.280463
-0.279572
-0.278405
-0.276951
-0.275196
-0.273123
-0.270712
-0.267942
-0.264796
-0.261264
-0.257344
-0.253169
-0.248789
-0.242995
-0.279907
-0.280985
-0.28144
-0.28163
-0.281572
-0.281252
-0.280675
-0.279834
-0.278724
-0.277331
-0.275643
-0.273643
-0.271312
-0.268633
-0.26559
-0.262176
-0.258398
-0.25438
-0.250148
-0.244721
-0.280033
-0.281124
-0.281599
-0.281815
-0.28179
-0.28151
-0.280977
-0.280188
-0.279135
-0.277806
-0.276188
-0.274265
-0.27202
-0.269437
-0.266503
-0.263213
-0.259578
-0.255714
-0.251626
-0.246502
-0.280254
-0.281358
-0.281851
-0.282093
-0.282099
-0.281857
-0.28137
-0.280633
-0.279638
-0.278375
-0.27683
-0.274988
-0.272834
-0.270351
-0.267531
-0.264369
-0.260878
-0.257164
-0.253221
-0.248348
-0.280568
-0.281685
-0.282195
-0.282461
-0.282499
-0.282294
-0.281852
-0.281166
-0.280231
-0.279035
-0.277566
-0.275809
-0.273749
-0.271373
-0.26867
-0.26564
-0.262294
-0.258726
-0.254929
-0.250269
-0.280973
-0.282102
-0.28263
-0.282919
-0.282987
-0.282819
-0.282421
-0.281788
-0.280913
-0.279786
-0.278395
-0.276726
-0.274764
-0.272497
-0.269917
-0.267021
-0.26382
-0.260399
-0.256755
-0.252267
-0.281467
-0.282608
-0.283153
-0.283465
-0.283562
-0.283431
-0.283077
-0.282497
-0.281683
-0.280626
-0.279315
-0.277736
-0.275876
-0.273722
-0.271267
-0.268508
-0.265454
-0.262182
-0.258685
-0.25435
-0.282047
-0.283202
-0.283763
-0.284098
-0.284224
-0.284129
-0.283819
-0.283291
-0.282539
-0.281554
-0.280325
-0.278838
-0.277082
-0.275044
-0.272717
-0.270098
-0.267192
-0.264071
-0.260703
-0.256559
-0.282712
-0.283882
-0.284459
-0.284816
-0.28497
-0.284911
-0.284645
-0.28417
-0.28348
-0.282567
-0.281421
-0.28003
-0.27838
-0.276461
-0.274264
-0.271786
-0.269032
-0.266064
-0.262831
-0.258916
-0.28346
-0.284645
-0.285239
-0.285618
-0.2858
-0.285777
-0.285554
-0.285131
-0.284504
-0.283665
-0.282603
-0.281308
-0.279767
-0.277969
-0.275905
-0.273572
-0.270972
-0.268159
-0.265068
-0.261359
-0.28429
-0.285492
-0.286103
-0.286503
-0.286713
-0.286724
-0.286544
-0.286174
-0.28561
-0.284845
-0.283869
-0.282672
-0.281242
-0.279567
-0.277639
-0.275453
-0.273009
-0.270355
-0.267413
-0.263902
-0.285201
-0.28642
-0.287048
-0.287469
-0.287707
-0.287752
-0.287616
-0.287298
-0.286798
-0.286107
-0.285218
-0.28412
-0.282803
-0.281253
-0.279464
-0.277427
-0.275144
-0.272653
-0.26987
-0.266563
-0.286193
-0.287429
-0.288074
-0.288516
-0.28878
-0.28886
-0.288766
-0.288502
-0.288064
-0.287449
-0.286648
-0.285651
-0.284448
-0.283026
-0.281378
-0.279494
-0.277375
-0.275053
-0.27244
-0.269344
-0.287264
-0.288518
-0.289179
-0.289642
-0.289933
-0.290046
-0.289995
-0.289783
-0.289409
-0.28887
-0.288158
-0.287263
-0.286176
-0.284884
-0.28338
-0.281653
-0.279703
-0.277555
-0.275123
-0.272247
-0.288413
-0.289685
-0.290362
-0.290846
-0.291162
-0.291309
-0.2913
-0.291141
-0.290831
-0.290369
-0.289746
-0.288955
-0.287986
-0.286827
-0.285469
-0.283903
-0.282126
-0.28016
-0.277919
-0.275271
-0.289641
-0.29093
-0.291622
-0.292126
-0.292468
-0.292648
-0.292681
-0.292574
-0.292329
-0.291944
-0.291412
-0.290726
-0.289876
-0.288852
-0.287644
-0.286243
-0.284644
-0.282866
-0.280827
-0.278418
-0.290947
-0.292251
-0.292959
-0.293481
-0.293848
-0.29406
-0.294135
-0.294081
-0.293901
-0.293593
-0.293153
-0.292573
-0.291845
-0.290958
-0.289904
-0.288671
-0.287257
-0.285674
-0.283845
-0.281687
-0.292329
-0.293648
-0.294369
-0.294909
-0.295301
-0.295545
-0.295661
-0.29566
-0.295544
-0.295315
-0.294968
-0.294496
-0.293891
-0.293144
-0.292246
-0.291186
-0.289961
-0.28858
-0.286973
-0.285075
-0.293788
-0.295119
-0.295852
-0.29641
-0.296824
-0.2971
-0.297258
-0.297309
-0.297258
-0.297108
-0.296854
-0.296491
-0.296012
-0.295407
-0.294668
-0.293786
-0.292755
-0.291583
-0.290208
-0.288579
-0.295322
-0.296662
-0.297407
-0.29798
-0.298417
-0.298723
-0.298922
-0.299025
-0.29904
-0.298969
-0.29881
-0.298557
-0.298205
-0.297744
-0.297168
-0.296467
-0.295636
-0.29468
-0.293545
-0.292196
-0.296931
-0.298276
-0.29903
-0.299617
-0.300076
-0.300412
-0.300651
-0.300807
-0.300887
-0.300896
-0.300832
-0.30069
-0.300466
-0.300153
-0.299741
-0.299225
-0.298599
-0.297865
-0.296979
-0.295918
-0.298612
-0.299959
-0.30072
-0.30132
-0.301799
-0.302164
-0.302443
-0.30265
-0.302797
-0.302885
-0.302917
-0.302888
-0.302794
-0.302628
-0.302385
-0.302057
-0.30164
-0.301135
-0.300506
-0.29974
-0.300365
-0.30171
-0.302475
-0.303086
-0.303583
-0.303976
-0.304294
-0.304553
-0.304765
-0.304934
-0.305061
-0.305146
-0.305183
-0.305167
-0.305093
-0.304956
-0.304752
-0.304481
-0.304116
-0.303652
-0.302187
-0.303524
-0.304291
-0.304911
-0.305425
-0.305845
-0.306201
-0.306511
-0.306788
-0.307037
-0.307261
-0.307459
-0.307628
-0.307763
-0.307861
-0.307917
-0.307929
-0.307896
-0.307801
-0.307643
-0.304075
-0.305399
-0.306166
-0.306792
-0.307321
-0.307767
-0.30816
-0.308521
-0.308862
-0.309191
-0.309511
-0.309823
-0.310123
-0.31041
-0.310681
-0.310932
-0.311161
-0.31137
-0.31155
-0.311702
-0.316298
-0.316612
-0.316899
-0.317081
-0.317151
-0.317079
-0.316842
-0.316414
-0.315778
-0.314927
-0.313875
-0.312663
-0.311369
-0.310116
-0.320721
-0.321224
-0.321727
-0.322119
-0.322389
-0.322497
-0.322406
-0.322077
-0.321474
-0.320571
-0.319361
-0.317864
-0.316138
-0.31429
-0.325196
-0.325885
-0.326609
-0.327219
-0.327698
-0.327996
-0.328062
-0.327841
-0.32728
-0.326333
-0.32497
-0.323188
-0.321025
-0.318572
-0.329705
-0.330573
-0.331527
-0.332362
-0.333058
-0.333554
-0.333787
-0.333686
-0.333178
-0.332195
-0.330684
-0.328621
-0.32602
-0.322954
-0.334227
-0.335268
-0.336458
-0.337524
-0.338445
-0.339149
-0.33956
-0.339589
-0.339145
-0.338136
-0.336487
-0.334147
-0.33111
-0.327428
-0.338741
-0.339947
-0.341378
-0.34268
-0.343833
-0.344755
-0.345353
-0.345525
-0.345156
-0.344133
-0.342356
-0.339747
-0.336278
-0.331982
-0.343216
-0.344584
-0.34626
-0.347804
-0.349195
-0.350342
-0.351139
-0.351463
-0.351182
-0.350159
-0.348265
-0.345399
-0.341506
-0.336599
-0.347637
-0.349159
-0.35108
-0.352868
-0.354503
-0.355882
-0.356887
-0.357375
-0.357195
-0.356185
-0.354188
-0.351076
-0.34677
-0.341261
-0.351982
-0.353641
-0.355809
-0.357843
-0.359726
-0.361344
-0.362564
-0.363228
-0.363161
-0.362178
-0.360093
-0.35675
-0.352046
-0.345946
-0.356217
-0.35799
-0.360422
-0.3627
-0.364832
-0.366694
-0.368137
-0.368986
-0.369045
-0.368104
-0.365947
-0.362391
-0.357304
-0.350631
-0.360319
-0.362213
-0.364894
-0.36741
-0.369792
-0.371899
-0.373572
-0.374616
-0.374813
-0.373928
-0.371716
-0.367964
-0.362515
-0.355287
-0.346317
-0.364261
-0.366262
-0.369145
-0.371941
-0.374573
-0.376929
-0.378836
-0.380081
-0.380427
-0.379614
-0.377364
-0.373434
-0.367645
-0.359886
-0.350178
-0.368022
-0.37012
-0.373232
-0.376275
-0.379149
-0.38175
-0.383893
-0.385346
-0.385851
-0.385124
-0.382853
-0.378765
-0.372661
-0.364398
-0.353978
-0.371578
-0.373765
-0.377114
-0.380388
-0.383492
-0.386333
-0.388712
-0.390376
-0.39105
-0.390422
-0.388147
-0.383921
-0.377528
-0.36879
-0.357691
-0.374912
-0.377176
-0.380746
-0.384222
-0.387572
-0.390651
-0.393261
-0.395137
-0.395989
-0.395471
-0.39321
-0.388863
-0.382211
-0.37303
-0.361288
-0.378039
-0.380325
-0.384101
-0.387671
-0.391364
-0.394681
-0.397512
-0.399597
-0.400639
-0.400239
-0.398009
-0.393556
-0.386676
-0.377087
-0.364741
-0.380936
-0.383212
-0.387174
-0.39097
-0.394869
-0.398393
-0.40143
-0.403723
-0.404971
-0.404691
-0.402512
-0.397966
-0.390889
-0.380929
-0.368021
-0.383438
-0.385873
-0.389961
-0.393974
-0.398092
-0.401765
-0.40499
-0.407498
-0.408951
-0.408791
-0.40669
-0.402059
-0.394819
-0.38453
-0.371103
-0.385719
-0.388238
-0.392415
-0.396616
-0.40094
-0.404786
-0.408221
-0.410923
-0.412558
-0.412509
-0.410541
-0.405779
-0.398431
-0.38786
-0.373961
-0.387758
-0.390304
-0.394562
-0.398929
-0.403408
-0.407425
-0.411059
-0.413951
-0.415742
-0.415863
-0.414092
-0.409066
-0.401704
-0.390896
-0.376571
-0.389527
-0.392088
-0.396412
-0.400902
-0.405075
-0.409682
-0.413519
-0.416587
-0.418514
-0.418775
-0.416983
-0.41221
-0.404651
-0.39362
-0.378908
-0.391031
-0.393597
-0.397964
-0.402602
-0.407057
-0.411621
-0.415598
-0.41882
-0.420873
-0.421266
-0.419522
-0.414886
-0.407217
-0.395994
-0.380983
-0.362335
-0.39228
-0.394832
-0.399217
-0.403992
-0.408631
-0.413195
-0.417288
-0.420641
-0.422817
-0.423334
-0.421662
-0.417116
-0.409394
-0.39802
-0.382757
-0.363707
-0.393286
-0.3958
-0.400172
-0.405051
-0.409783
-0.414396
-0.41859
-0.422053
-0.424342
-0.424969
-0.423377
-0.418914
-0.411171
-0.399687
-0.38422
-0.364838
-0.394059
-0.396509
-0.400835
-0.405788
-0.410572
-0.415234
-0.41951
-0.42306
-0.425446
-0.426171
-0.42466
-0.420276
-0.412539
-0.400987
-0.385368
-0.365722
-0.39461
-0.396972
-0.401216
-0.406217
-0.411031
-0.415724
-0.420055
-0.42367
-0.426134
-0.426943
-0.425511
-0.421204
-0.413496
-0.401914
-0.386195
-0.366356
-0.394951
-0.397201
-0.401326
-0.406355
-0.411191
-0.415882
-0.420238
-0.423891
-0.426413
-0.42729
-0.425931
-0.421701
-0.414041
-0.402467
-0.3867
-0.366738
-0.39509
-0.39721
-0.401178
-0.406213
-0.411119
-0.415728
-0.420068
-0.423734
-0.426291
-0.42722
-0.425926
-0.421773
-0.414178
-0.402646
-0.386884
-0.366868
-0.395033
-0.397008
-0.400782
-0.4058
-0.410838
-0.415257
-0.419555
-0.42321
-0.425781
-0.426745
-0.425506
-0.421429
-0.413914
-0.402457
-0.386749
-0.366747
-0.342718
-0.394778
-0.396605
-0.400151
-0.405091
-0.409771
-0.41444
-0.418705
-0.422329
-0.424892
-0.425874
-0.424681
-0.420678
-0.413258
-0.401907
-0.386302
-0.366382
-0.342389
-0.394319
-0.396005
-0.399301
-0.404143
-0.408605
-0.413313
-0.417525
-0.421102
-0.423638
-0.424621
-0.423463
-0.419534
-0.412221
-0.401006
-0.385551
-0.365777
-0.3419
-0.393639
-0.395206
-0.398245
-0.402973
-0.407342
-0.411892
-0.416031
-0.419542
-0.422032
-0.422999
-0.421867
-0.41801
-0.410818
-0.399766
-0.384507
-0.364941
-0.341259
-0.392716
-0.394196
-0.396987
-0.401567
-0.405815
-0.410196
-0.414238
-0.417661
-0.420086
-0.421024
-0.419908
-0.416123
-0.409064
-0.398203
-0.383183
-0.363886
-0.340472
-0.391514
-0.392952
-0.395528
-0.399926
-0.404028
-0.408237
-0.412154
-0.415469
-0.417812
-0.418708
-0.417602
-0.413891
-0.406976
-0.396334
-0.381595
-0.362624
-0.339549
-0.389997
-0.39144
-0.393863
-0.398057
-0.401989
-0.406015
-0.409786
-0.412976
-0.415223
-0.416066
-0.414965
-0.41133
-0.404574
-0.394174
-0.379756
-0.361163
-0.338491
-0.312106
-0.388112
-0.389606
-0.391981
-0.39598
-0.3997
-0.403539
-0.407151
-0.410202
-0.412344
-0.413127
-0.412027
-0.408471
-0.401883
-0.391747
-0.377681
-0.359507
-0.33729
-0.311354
-0.385762
-0.387395
-0.389877
-0.393675
-0.397167
-0.400824
-0.40427
-0.407176
-0.409205
-0.409925
-0.408827
-0.405356
-0.39895
-0.3891
-0.375418
-0.357707
-0.336
-0.310575
-0.382902
-0.38475
-0.387486
-0.390894
-0.394318
-0.397798
-0.401074
-0.403831
-0.405749
-0.406413
-0.405334
-0.401977
-0.395796
-0.38629
-0.373066
-0.355905
-0.334805
-0.309999
-0.379637
-0.381388
-0.384624
-0.387857
-0.390977
-0.394284
-0.397395
-0.400004
-0.401814
-0.402432
-0.40139
-0.398177
-0.392266
-0.383163
-0.37047
-0.353947
-0.333551
-0.309463
-0.374666
-0.376902
-0.381487
-0.384368
-0.387604
-0.390816
-0.393797
-0.396258
-0.397925
-0.398428
-0.397318
-0.394102
-0.388269
-0.379338
-0.366914
-0.350747
-0.330776
-0.307152
-0.362239
-0.371399
-0.379128
-0.382607
-0.385342
-0.388443
-0.391315
-0.39361
-0.395071
-0.395336
-0.393964
-0.390467
-0.384349
-0.375144
-0.362476
-0.346111
-0.326004
-0.302312
-0.27539
-0.356915
-0.36578
-0.37414
-0.37728
-0.379749
-0.382523
-0.385003
-0.386823
-0.387747
-0.387447
-0.385512
-0.381491
-0.37493
-0.365408
-0.352587
-0.336259
-0.316386
-0.293114
-0.266768
-0.353199
-0.360404
-0.368057
-0.37101
-0.373125
-0.37548
-0.377512
-0.378819
-0.379178
-0.378294
-0.375791
-0.371256
-0.364282
-0.354492
-0.341586
-0.325379
-0.305839
-0.283096
-0.257445
-0.349279
-0.354609
-0.361081
-0.363872
-0.365704
-0.367656
-0.36926
-0.370098
-0.369953
-0.368558
-0.365568
-0.36061
-0.353316
-0.34335
-0.330444
-0.314435
-0.295295
-0.273142
-0.248239
-0.344387
-0.348252
-0.353358
-0.355875
-0.357479
-0.359051
-0.360238
-0.360645
-0.360051
-0.358211
-0.354813
-0.349518
-0.341994
-0.331943
-0.319126
-0.303399
-0.284736
-0.263243
-0.239156
-0.338304
-0.34126
-0.345001
-0.347135
-0.348529
-0.34975
-0.350536
-0.350543
-0.349549
-0.347326
-0.34359
-0.338036