/*--------------------------------*- C++ -*----------------------------------*\
  =========                 |
  \\      /  F ield         | OpenFOAM: The Open Source CFD Toolbox
   \\    /   O peration     | Website:  https://openfoam.org
    \\  /    A nd           | Version:  7
     \\/     M anipulation  |
\*---------------------------------------------------------------------------*/
FoamFile
{
    version     2.0;
    format      ascii;
    class       surfaceScalarField;
    location    "100";
    object      phi;
}
// * * * * * * * * * * * * * * * * * * * * * * * * * * * * * * * * * * * * * //

dimensions      [0 3 -1 0 0 0 0];

internalField   nonuniform List<scalar> 
42261
(
3.96111e-06
1.15052e-06
2.81058e-06
-3.80667e-06
1.2418e-06
1.56879e-06
5.52302e-06
-8.08789e-06
-3.09207e-05
1.34099e-06
2.27793e-07
5.92607e-06
-1.2673e-05
1.44049e-05
-3.93995e-05
-8.06536e-05
1.44773e-06
-1.21994e-06
6.35552e-06
-1.75807e-05
1.53853e-05
-4.84293e-05
2.92078e-05
-9.44761e-05
-0.000156458
1.56156e-06
-2.7815e-06
6.80959e-06
-2.28288e-05
1.64147e-05
-5.80344e-05
3.10537e-05
-0.000109115
5.13904e-05
-0.000176795
-0.000261703
1.68198e-06
-4.46348e-06
7.28628e-06
-2.84331e-05
1.74884e-05
-6.82365e-05
3.29665e-05
-0.000124593
5.43761e-05
-0.000198204
8.2311e-05
-0.000289637
-0.000399224
1.80844e-06
-6.27192e-06
7.78341e-06
-3.44081e-05
1.86013e-05
-7.90544e-05
3.49365e-05
-0.000140928
5.743e-05
-0.000220698
8.66436e-05
-0.000318851
0.000123002
-0.000435582
0.000166726
-0.000570645
-0.000723206
1.94039e-06
-8.2123e-06
8.29869e-06
-4.07664e-05
1.9748e-05
-9.05037e-05
3.69535e-05
-0.000158134
6.05348e-05
-0.000244279
9.10134e-05
-0.00034933
0.000128749
-0.000473318
0.00017387
-0.000615765
0.0002262
-0.000775536
-0.000950736
2.07724e-06
-1.02895e-05
8.82973e-06
-4.75189e-05
2.09229e-05
-0.000102597
3.9007e-05
-0.000176218
6.3673e-05
-0.000268945
9.53934e-05
-0.00038105
0.000134454
-0.000512379
0.000180879
-0.00066219
0.000234365
-0.000829022
0.00029423
-0.0010106
-0.00120385
2.21843e-06
-1.2508e-05
9.37409e-06
-5.46745e-05
2.212e-05
-0.000115343
4.10859e-05
-0.000195184
6.68263e-05
-0.000294685
9.97564e-05
-0.00041398
0.000140077
-0.0005527
0.000187703
-0.000709816
0.000242193
-0.000883513
0.00030272
-0.00107113
0.000368065
-0.00126919
0.000436676
-0.00147358
-0.00167977
2.36335e-06
-1.48713e-05
9.92926e-06
-6.22404e-05
2.33336e-05
-0.000128747
4.3179e-05
-0.000215029
6.99765e-05
-0.000321483
0.000104075
-0.000448078
0.000145582
-0.000594207
0.000194292
-0.000758526
0.000249626
-0.000938847
0.000310608
-0.00113211
0.000375882
-0.00133446
0.00044379
-0.00154148
0.000512496
-0.00174848
0.000580147
-0.00195091
-0.00214476
2.51143e-06
-1.73828e-05
1.04927e-05
-7.02217e-05
2.45575e-05
-0.000142812
4.5275e-05
-0.000235747
7.31049e-05
-0.000349313
0.00010832
-0.000483294
0.000150929
-0.000636815
0.000200597
-0.000808195
0.000256606
-0.000994856
0.000317832
-0.00119334
0.000382796
-0.00139943
0.00044975
-0.00160844
0.000516826
-0.00181556
0.000582206
-0.00201629
0.000644285
-0.00220684
-0.00238442
2.66205e-06
-2.00448e-05
1.10619e-05
-7.86216e-05
2.57856e-05
-0.000157535
4.73625e-05
-0.000257324
7.61929e-05
-0.000378143
0.000112467
-0.000519568
0.000156082
-0.00068043
0.000206574
-0.000858687
0.00026308
-0.00105136
0.00032434
-0.0012546
0.000388758
-0.00146385
0.000454521
-0.0016742
0.000519752
-0.00188079
0.000582688
-0.00207922
0.000641841
-0.00226599
0.000696115
-0.00243869
0.000744871
-0.00259619
-0.00273851
2.81461e-06
-2.28594e-05
1.16342e-05
-8.74412e-05
2.70117e-05
-0.000172913
4.94298e-05
-0.000279742
7.9222e-05
-0.000407935
0.000116487
-0.000556832
0.000161005
-0.000724948
0.000212178
-0.000909861
0.000269001
-0.00110818
0.000330083
-0.00131568
0.000393731
-0.00152749
0.000458082
-0.00173855
0.000521276
-0.00194398
0.000581627
-0.00213958
0.000637778
-0.00232214
0.000688797
-0.00248971
0.000734215
-0.00264161
0.000774004
-0.0027783
0.000808501
-0.00290118
-0.00301228
2.96848e-06
-2.58279e-05
1.2207e-05
-9.66797e-05
2.82296e-05
-0.000188936
5.14656e-05
-0.000302978
8.21739e-05
-0.000438644
0.000120354
-0.000595012
0.000165664
-0.000770259
0.00021737
-0.000961566
0.000274327
-0.00116514
0.000335023
-0.00137637
0.000397685
-0.00159016
0.000460423
-0.00180129
0.000521414
-0.00200497
0.00057907
-0.00219723
0.000632174
-0.00237524
0.00067996
-0.0025375
0.000722128
-0.00268377
0.000758792
-0.00281496
0.0007904
-0.00293279
0.00081762
-0.0030395
0.000841232
-0.00313754
-0.00322931
3.123e-06
-2.89509e-05
1.27774e-05
-0.000106334
2.94328e-05
-0.000205591
5.34583e-05
-0.000327003
8.50305e-05
-0.000470216
0.000124043
-0.000634024
0.000170028
-0.000816244
0.000222113
-0.00101365
0.000279019
-0.00122205
0.000339128
-0.00143648
0.000400602
-0.00165163
0.000461546
-0.00186223
0.000520194
-0.00206362
0.000575072
-0.00225211
0.000625112
-0.00242528
0.000669714
-0.0025821
0.000708734
-0.00272279
0.000742418
-0.00284864
0.000771304
-0.00296167
0.000796112
-0.00306431
0.00081763
-0.00315906
0.000836633
-0.00324831
0.000853815
-0.0033341
-0.00341803
3.27752e-06
-3.22284e-05
1.33429e-05
-0.000116399
3.06151e-05
-0.000222863
5.53963e-05
-0.000351784
8.77742e-05
-0.000502594
0.00012753
-0.00067378
0.000174067
-0.000862781
0.000226374
-0.00106596
0.000283048
-0.00127872
0.000342375
-0.00149581
0.000402473
-0.00171173
0.000461463
-0.00192122
0.000517654
-0.00211981
0.000569698
-0.00230415
0.000616682
-0.00247227
0.000658168
-0.00262359
0.000694156
-0.00275878
0.000725009
-0.0028795
0.000751338
-0.002988
0.000773896
-0.00308687
0.00079347
-0.00317864
0.000810806
-0.00326565
0.000826551
-0.00334985
0.000841234
-0.00343271
-0.00351525
0.000855235
3.43134e-06
-3.56598e-05
1.39005e-05
-0.000126869
3.17701e-05
-0.000240733
5.72686e-05
-0.000377283
9.03879e-05
-0.000535713
0.000130792
-0.000714185
0.000177752
-0.000909741
0.000230123
-0.00111833
0.000286386
-0.00133498
0.000344748
-0.00155417
0.000403298
-0.00177028
0.000460196
-0.00197812
0.000513841
-0.00217346
0.00056302
-0.00235333
0.000606978
-0.00251623
0.000645431
-0.00266204
0.000678513
-0.00279186
0.000706684
-0.00290767
0.000730615
-0.00301193
0.000751076
-0.00310733
0.000768843
-0.0031964
0.000784624
-0.00328143
0.00079902
-0.00336425
0.000812507
-0.0034462
-0.00352817
0.000825421
3.58377e-06
-3.92435e-05
1.44475e-05
-0.000137732
3.28915e-05
-0.000259177
5.9064e-05
-0.000403455
9.28553e-05
-0.000569505
0.000133808
-0.000755137
0.00018106
-0.000956992
0.000233337
-0.00117061
0.000289015
-0.00139066
0.000346238
-0.0016114
0.000403088
-0.00182713
0.000457775
-0.00203281
0.000508809
-0.00222449
0.000555116
-0.00239964
0.000596096
-0.00255721
0.000631612
-0.00269756
0.000661919
-0.00282217
0.000687557
-0.0029333
0.00070924
-0.00303362
0.000727746
-0.00312583
0.000743827
-0.00321249
0.000758152
-0.00329575
0.000771272
-0.00337737
0.000783614
-0.00345854
-0.00354003
0.000795474
3.73408e-06
-4.29776e-05
1.4981e-05
-0.000148979
3.3973e-05
-0.000278169
6.07718e-05
-0.000430254
9.51607e-05
-0.000603893
0.000136557
-0.000796534
0.000183968
-0.0010044
0.000235996
-0.00122263
0.000290922
-0.00144559
0.000346845
-0.00166732
0.000401857
-0.00188214
0.00045424
-0.00208519
0.000502618
-0.00227287
0.000546065
-0.00244308
0.000584132
-0.00259527
0.000616817
-0.00273024
0.00064448
-0.00284983
0.00066773
-0.00295655
0.000687308
-0.0030532
0.000703987
-0.00314251
0.000718491
-0.00322699
0.000731445
-0.00330871
0.000743352
-0.00338927
0.00075459
-0.00346978
-0.00355086
0.000765419
3.88155e-06
-4.68592e-05
1.54983e-05
-0.000160596
3.50085e-05
-0.000297679
6.23818e-05
-0.000457628
9.72895e-05
-0.000638801
0.000139023
-0.000838267
0.000186457
-0.00105184
0.000238083
-0.00127426
0.0002921
-0.00149961
0.000346575
-0.00172179
0.000399631
-0.0019352
0.000449634
-0.00213519
0.000495333
-0.00231857
0.000535949
-0.0024837
0.000571179
-0.0026305
0.000601145
-0.00276021
0.000626298
-0.00287499
0.000647298
-0.00297755
0.000664904
-0.0030708
0.000679873
-0.00315748
0.000692896
-0.00324001
0.000704553
-0.00332036
0.000715297
-0.00340002
0.000725465
-0.00347995
-0.00356067
0.000735282
4.02543e-06
-5.08846e-05
1.59965e-05
-0.000172567
3.5992e-05
-0.000317675
6.38842e-05
-0.00048552
9.92283e-05
-0.000674145
0.000141188
-0.000880227
0.000188513
-0.00109916
0.000239588
-0.00132534
0.000292546
-0.00155256
0.00034544
-0.00177469
0.00039644
-0.0019862
0.000444007
-0.00218276
0.000487023
-0.00236159
0.000524853
-0.00252153
0.000557332
-0.00266298
0.000584694
-0.00278757
0.000607466
-0.00289776
0.000626349
-0.00299644
0.000642104
-0.00308656
0.000655468
-0.00317085
0.000667094
-0.00325164
0.000677515
-0.00333079
0.00068714
-0.00340964
0.000696264
-0.00348907
-0.00356949
0.00070508
4.16499e-06
-5.50496e-05
1.64728e-05
-0.000184875
3.69178e-05
-0.00033812
6.52696e-05
-0.000513872
0.000100965
-0.00070984
0.000143039
-0.000922302
0.000190123
-0.00114625
0.000240504
-0.00137572
0.000292264
-0.00160432
0.00034346
-0.00182588
0.00039232
-0.00203506
0.000437413
-0.00222785
0.000477757
-0.00240193
0.000512857
-0.00255663
0.000542678
-0.0026928
0.000567553
-0.00281244
0.000588072
-0.00291828
0.000604961
-0.00301333
0.000618977
-0.00310057
0.00063083
-0.0031827
0.000641131
-0.00326194
0.000650369
-0.00334002
0.000658909
-0.00341818
0.000667009
-0.00349717
-0.00357731
0.000674834
4.2995e-06
-5.93491e-05
1.69247e-05
-0.0001975
3.77804e-05
-0.000358975
6.65297e-05
-0.000542621
0.000102488
-0.000745799
0.000144565
-0.000964379
0.000191278
-0.00119296
0.000240828
-0.00142527
0.000291263
-0.00165476
0.000340656
-0.00187528
0.000387311
-0.00208171
0.000429909
-0.00227045
0.000467605
-0.00243962
0.000500043
-0.00258907
0.000527304
-0.00272006
0.000549808
-0.00283495
0.000568194
-0.00293666
0.000583204
-0.00302834
0.000595583
-0.00311295
0.000606008
-0.00319312
0.000615047
-0.00327098
0.000623146
-0.00334812
0.000630628
-0.00342566
0.000637719
-0.00350426
-0.00358415
0.000644557
4.42822e-06
-6.37773e-05
1.73495e-05
-0.000210421
3.85746e-05
-0.0003802
6.76564e-05
-0.000571703
0.000103788
-0.00078193
0.000145757
-0.00100635
0.000191971
-0.00123917
0.000240563
-0.00147386
0.000289556
-0.00170375
0.000337058
-0.00192278
0.000381456
-0.00212611
0.000421553
-0.00231055
0.00045664
-0.00247471
0.00048649
-0.00261892
0.000511291
-0.00274486
0.000531537
-0.00285519
0.000547906
-0.00295303
0.000561144
-0.00304157
0.000571976
-0.00312378
0.000581044
-0.00320219
0.000588875
-0.00327881
0.000595871
-0.00335512
0.000602318
-0.00343211
0.00060841
-0.00351035
-0.00359001
0.000614266
4.55045e-06
-6.83278e-05
1.77448e-05
-0.000223616
3.92956e-05
-0.000401751
6.86429e-05
-0.00060105
0.000104857
-0.000818144
0.000146607
-0.0010481
0.000192202
-0.00128477
0.000239715
-0.00152137
0.000287161
-0.0017512
0.000332697
-0.00196832
0.000374803
-0.00216822
0.000412406
-0.00234815
0.00044493
-0.00250724
0.000472272
-0.00264626
0.000494715
-0.00276731
0.000512814
-0.00287329
0.000527274
-0.00296749
0.000538837
-0.00305314
0.000548204
-0.00313315
0.000555979
-0.00320997
0.000562646
-0.00328548
0.000568569
-0.00336104
0.000573998
-0.00343754
0.000579099
-0.00351546
-0.00359488
0.000583973
4.6655e-06
-7.29933e-05
1.81082e-05
-0.000237058
3.9939e-05
-0.000423582
6.94829e-05
-0.000630594
0.000105689
-0.00085435
0.00014711
-0.00108952
0.000191969
-0.00132963
0.000238292
-0.00156769
0.000284099
-0.001797
0.000327607
-0.00201182
0.000367399
-0.00220801
0.000402527
-0.00238328
0.000432545
-0.00253725
0.000457463
-0.00267118
0.000477648
-0.00278749
0.000493705
-0.00288935
0.000506356
-0.00298014
0.000516333
-0.00306311
0.000524307
-0.00314112
0.000530844
-0.0032165
0.000536386
-0.00329102
0.000541259
-0.00336591
0.000545683
-0.00344196
0.000549799
-0.00351957
-0.00359877
0.000553691
4.77273e-06
-7.7766e-05
1.84376e-05
-0.000250723
4.05009e-05
-0.000445645
7.01712e-05
-0.000660264
0.000106277
-0.000890456
0.000147265
-0.00113051
0.000191277
-0.00137364
0.000236307
-0.00161272
0.000280395
-0.00184109
0.000321827
-0.00205326
0.000359294
-0.00224547
0.000391976
-0.00241596
0.000419551
-0.00256483
0.00044213
-0.00269376
0.000460155
-0.00280552
0.000474272
-0.00290347
0.000485208
-0.00299108
0.000493679
-0.00307159
0.000500324
-0.00314777
0.000505669
-0.00322185
0.000510118
-0.00329547
0.000513961
-0.00336976
0.000517389
-0.00344539
0.000520522
-0.00352271
-0.00360168
0.00052343
4.8715e-06
-8.26375e-05
1.8731e-05
-0.000264583
4.09777e-05
-0.000467892
7.07033e-05
-0.00068999
0.00010662
-0.000926373
0.000147071
-0.00117096
0.000190132
-0.0014167
0.000233776
-0.00165637
0.000276075
-0.00188339
0.000315395
-0.00209258
0.00035054
-0.00228062
0.000380813
-0.00244624
0.00040601
-0.00259003
0.000426338
-0.00271408
0.0004423
-0.00282148
0.000454571
-0.00291574
0.000463877
-0.00300038
0.000470914
-0.00307862
0.000476285
-0.00315314
0.000480479
-0.00322604
0.000483861
-0.00329885
0.000486688
-0.00337258
0.000489128
-0.00344783
0.00049128
-0.00352486
-0.0036036
0.000493201
4.96124e-06
-8.75987e-05
1.89865e-05
-0.000278608
4.13665e-05
-0.000490272
7.1076e-05
-0.000719699
0.000106713
-0.00096201
0.00014653
-0.00121077
0.000188543
-0.00145871
0.000230717
-0.00169854
0.000271168
-0.00192384
0.000308352
-0.00212976
0.000341185
-0.00231345
0.000369094
-0.00247414
0.000391985
-0.00261292
0.000410148
-0.00273225
0.000424139
-0.00283547
0.000434652
-0.00292625
0.000442407
-0.00300814
0.000448074
-0.00308429
0.00045222
-0.00315729
0.000455296
-0.00322912
0.000457632
-0.00330119
0.000459457
-0.00337441
0.000460912
-0.00344929
0.000462084
-0.00352603
-0.00360453
0.000463016
5.0414e-06
-9.26401e-05
1.92027e-05
-0.000292769
4.16647e-05
-0.000512734
7.12867e-05
-0.000749321
0.000106558
-0.000997282
0.000145645
-0.00124986
0.00018652
-0.00149959
0.00022715
-0.00173917
0.000265707
-0.0019624
0.000300739
-0.00216479
0.000331281
-0.00234399
0.000356876
-0.00249974
0.000377532
-0.00263357
0.000393615
-0.00274833
0.000405723
-0.00284758
0.000414561
-0.00293509
0.000420836
-0.00301442
0.00042519
-0.00308864
0.000428154
-0.00316025
0.000430141
-0.0032311
0.000431449
-0.00330249
0.000432279
-0.00337524
0.000432754
-0.00344976
0.000432943
-0.00352622
-0.00360447
0.000432883
5.11148e-06
-9.77516e-05
1.9378e-05
-0.000307036
4.18703e-05
-0.000535226
7.13339e-05
-0.000778785
0.000106155
-0.0010321
0.000144423
-0.00128813
0.000184076
-0.00153924
0.000223097
-0.00177819
0.000259722
-0.00199902
0.000292599
-0.00219767
0.000320876
-0.00237227
0.000344211
-0.00252308
0.000362707
-0.00265207
0.000376793
-0.00276242
0.000387101
-0.00285789
0.000394339
-0.00294233
0.000399199
-0.00301928
0.00040229
-0.00309173
0.000404108
-0.00316207
0.000405029
-0.00323202
0.000405324
-0.00330279
0.000405166
-0.00337508
0.000404661
-0.00344926
0.000403868
-0.00352543
-0.00360342
0.000402812
5.17188e-06
-0.000102923
1.95132e-05
-0.000321377
4.19843e-05
-0.000557698
7.12203e-05
-0.000808021
0.00010551
-0.00106639
0.000142875
-0.0013255
0.000181231
-0.0015776
0.000218589
-0.00181555
0.000253255
-0.00203369
0.000283978
-0.00222839
0.000310024
-0.00239832
0.000331158
-0.00254421
0.000347566
-0.00266848
0.000359736
-0.00277459
0.000368322
-0.00286647
0.000374031
-0.00294804
0.000377534
-0.00302278
0.000379406
-0.00309361
0.000380108
-0.00316277
0.000379985
-0.0032319
0.000379276
-0.00330208
0.000378135
-0.00337394
0.000376652
-0.00344777
0.000374874
-0.00352365
-0.00360136
0.000372819
5.22068e-06
-0.000108144
1.96039e-05
-0.00033576
4.2001e-05
-0.000580095
7.09397e-05
-0.00083696
0.000104618
-0.00110007
0.000141002
-0.00136188
0.000177992
-0.00161459
0.000213638
-0.0018512
0.000246324
-0.00206637
0.000274906
-0.00225697
0.000298759
-0.00242217
0.000317751
-0.0025632
0.000332144
-0.00268287
0.000342474
-0.00278491
0.000349412
-0.00287341
0.000353656
-0.00295228
0.000355853
-0.00302497
0.000356545
-0.0030943
0.000356159
-0.00316238
0.000355007
-0.00323075
0.000353304
-0.00330038
0.000351183
-0.00337182
0.000348722
-0.00344531
0.000345957
-0.00352088
-0.0035983
0.0003429
5.25832e-06
-0.000113402
1.9651e-05
-0.000350153
4.19223e-05
-0.000602366
7.04965e-05
-0.000865534
0.000103489
-0.00113306
0.000138817
-0.00139721
0.000174381
-0.00165015
0.000208276
-0.00188509
0.000238971
-0.00209707
0.000265428
-0.00228343
0.000287131
-0.00244387
0.000304042
-0.00258011
0.000316492
-0.00269532
0.000325055
-0.00279348
0.000330413
-0.00287877
0.000333251
-0.00295512
0.000334188
-0.00302591
0.000333734
-0.00309384
0.000332283
-0.00316093
0.000330116
-0.00322858
0.000327424
-0.00329768
0.000324326
-0.00336872
0.000320885
-0.00344187
0.000317131
-0.00351713
-0.00359424
0.000313071
5.28454e-06
-0.000118687
1.96542e-05
-0.000364523
4.17481e-05
-0.00062446
6.98925e-05
-0.000893678
0.000102127
-0.0011653
0.000136332
-0.00143141
0.000170416
-0.00168424
0.00020253
-0.00191721
0.00023123
-0.00212577
0.000255584
-0.00230779
0.000275183
-0.00246347
0.000290074
-0.002595
0.000300651
-0.0027059
0.000307517
-0.00280034
0.000311357
-0.00288261
0.000312842
-0.00295661
0.000312561
-0.00302563
0.000310991
-0.00309227
0.000308492
-0.00315843
0.000305321
-0.00322541
0.000301647
-0.00329401
0.000297573
-0.00336465
0.000293152
-0.00343745
0.000288406
-0.00351238
-0.00358918
0.000283339
5.29912e-06
-0.000123986
1.96131e-05
-0.000378837
4.1479e-05
-0.000646326
6.91304e-05
-0.00092133
0.00010054
-0.00119671
0.000133559
-0.00146443
0.000166118
-0.00171679
0.000196425
-0.00194751
0.000223132
-0.00215248
0.000245412
-0.00233007
0.000262954
-0.00248101
0.000275888
-0.00260794
0.000284659
-0.00271467
0.000289893
-0.00280558
0.000292274
-0.00288499
0.000292454
-0.00295679
0.000290991
-0.00302417
0.00028833
-0.00308961
0.000284801
-0.00315491
0.000280634
-0.00322125
0.000275981
-0.00328936
0.000270931
-0.0033596
0.000265528
-0.00343205
0.000259789
-0.00350664
-0.0035831
0.000253714
5.3019e-06
-0.000129288
1.95277e-05
-0.000393062
4.11159e-05
-0.000667914
6.82136e-05
-0.000948427
9.87345e-05
-0.00122723
0.000130513
-0.00149621
0.000161505
-0.00174779
0.000189989
-0.001976
0.000214711
-0.0021772
0.000234948
-0.0023503
0.000250483
-0.00249655
0.000261521
-0.00261897
0.000268549
-0.0027217
0.000272213
-0.00280924
0.00027319
-0.00288597
0.000272108
-0.0029557
0.000269495
-0.00302155
0.000265765
-0.00308588
0.000261219
-0.00315036
0.000256064
-0.00321609
0.000250435
-0.00328373
0.000244408
-0.00335357
0.000238022
-0.00342566
0.000231288
-0.00349991
-0.00357602
0.000224203
5.29277e-06
-0.000134581
1.93981e-05
-0.000407168
4.06602e-05
-0.000689176
6.7146e-05
-0.000974913
9.67192e-05
-0.0012568
0.000127205
-0.00152669
0.000156598
-0.00177718
0.000183248
-0.00200265
0.000205998
-0.00219995
0.000224226
-0.00236853
0.000237807
-0.00251013
0.000247007
-0.00262817
0.000252355
-0.00272705
0.000254506
-0.00281139
0.000254128
-0.00288559
0.000251822
-0.0029534
0.000248088
-0.00301782
0.000243308
-0.0030811
0.000237757
-0.00314481
0.000231619
-0.00320995
0.000225015
-0.00327712
0.000218012
-0.00334657
0.000210641
-0.00341829
0.00020291
-0.00349218
-0.00356792
0.000194814
5.27171e-06
-0.000139853
1.92247e-05
-0.000421121
4.01136e-05
-0.000710065
6.59322e-05
-0.00100073
9.45029e-05
-0.00128537
0.000123652
-0.00155584
0.000151417
-0.00180494
0.000176228
-0.00202746
0.000197024
-0.00222075
0.000213281
-0.00238479
0.000224957
-0.00252181
0.000232379
-0.0026356
0.000236106
-0.00273077
0.000236798
-0.00281208
0.000235108
-0.0028839
0.000231615
-0.0029499
0.000226785
-0.00301299
0.000220972
-0.00307529
0.000214424
-0.00313826
0.000207308
-0.00320284
0.000199731
-0.00326955
0.00019175
-0.00333859
0.000183393
-0.00340993
0.000174663
-0.00348345
-0.00355881
0.000165555
5.23872e-06
-0.000145091
1.90081e-05
-0.00043489
3.94783e-05
-0.000730535
6.45772e-05
-0.00102583
9.2095e-05
-0.00131289
0.000119868
-0.00158362
0.000145984
-0.00183106
0.000168955
-0.00205043
0.000187819
-0.00223961
0.000202144
-0.00239911
0.000211967
-0.00253163
0.000217666
-0.0026413
0.000219827
-0.00273293
0.00021911
-0.00281137
0.000216151
-0.00288094
0.000211501
-0.00294525
0.000205597
-0.00300709
0.000198765
-0.00306846
0.000191229
-0.00313072
0.000183139
-0.00319475
0.000174588
-0.003261
0.000165629
-0.00332963
0.000156284
-0.00340059
0.000146554
-0.00347372
-0.00354869
0.000136432
5.19386e-06
-0.000150285
1.8749e-05
-0.000448445
3.87566e-05
-0.000750543
6.30866e-05
-0.00105016
8.95054e-05
-0.00133931
0.000115867
-0.00160998
0.000140318
-0.00185551
0.000161454
-0.00207157
0.00017841
-0.00225656
0.000190844
-0.00241155
0.000198865
-0.00253965
0.000202897
-0.00264533
0.000203544
-0.00273358
0.000201463
-0.00280929
0.000197272
-0.00287675
0.000191494
-0.00293948
0.000184536
-0.00300013
0.000176697
-0.00306062
0.000168179
-0.00312221
0.000159118
-0.00318569
0.000149595
-0.00325147
0.000139656
-0.00331969
0.000129321
-0.00339025
0.000118588
-0.00346299
-0.00353755
0.000107452
5.13727e-06
-0.000155422
1.84482e-05
-0.000461756
3.79514e-05
-0.000770046
6.14661e-05
-0.00107367
8.67441e-05
-0.00136459
0.000111666
-0.0016349
0.000134439
-0.00187828
0.00015375
-0.00209088
0.000168824
-0.00227164
0.000179409
-0.00242213
0.000185678
-0.00254592
0.000188095
-0.00264774
0.000187277
-0.00273276
0.000183876
-0.00280588
0.000178487
-0.00287136
0.000171606
-0.00293259
0.000163612
-0.00299214
0.000154776
-0.00305178
0.000145283
-0.00311271
0.000135252
-0.00317566
0.000124757
-0.00324098
0.000113837
-0.00330877
0.000102509
-0.00337892
9.07716e-05
-0.00345125
-0.0035254
7.86178e-05
5.06909e-06
-0.000160491
1.81068e-05
-0.000474794
3.70655e-05
-0.000789005
5.9722e-05
-0.00109633
8.38215e-05
-0.00138869
0.000107278
-0.00165836
0.000128368
-0.00189937
0.000145865
-0.00210837
0.000159088
-0.00228486
0.000167866
-0.00243091
0.000172432
-0.00255048
0.000173283
-0.0026486
0.000171048
-0.00273053
0.000166366
-0.0028012
0.000159811
-0.0028648
0.000151849
-0.00292463
0.000142834
-0.00298312
0.000133011
-0.00304196
0.000122548
-0.00310225
0.000111549
-0.00316466
0.000100082
-0.00322951
8.81799e-05
-0.00329687
7.58565e-05
-0.0033666
6.31093e-05
-0.0034385
-0.00351222
4.99299e-05
4.98953e-06
-0.000165481
1.7726e-05
-0.00048753
3.61023e-05
-0.000807381
5.78605e-05
-0.00111809
8.0748e-05
-0.00141157
0.000102719
-0.00168033
0.000122123
-0.00191878
0.000137821
-0.00212407
0.000149225
-0.00229626
0.000156239
-0.00243792
0.000159149
-0.00255339
0.000158484
-0.00264793
0.000154875
-0.00272692
0.000148948
-0.00279528
0.000141254
-0.00285711
0.000132233
-0.00291561
0.00012221
-0.0029731
0.000111409
-0.00303116
9.99792e-05
-0.00309082
8.80153e-05
-0.00315269
7.5576e-05
-0.00321707
6.26929e-05
-0.00328398
4.93762e-05
-0.00335328
3.56138e-05
-0.00342474
-0.00349798
2.13778e-05
4.89885e-06
-0.00017038
1.73071e-05
-0.000499939
3.5065e-05
-0.000825139
5.58884e-05
-0.00113891
7.75343e-05
-0.00143322
9.80046e-05
-0.0017008
0.000115723
-0.00193649
0.000129641
-0.00213799
0.000139258
-0.00230588
0.00014455
-0.00244322
0.000145852
-0.0025547
0.000143715
-0.00264579
0.000138772
-0.00272198
0.000131635
-0.00278814
0.000122829
-0.0028483
0.000112767
-0.00290555
0.000101748
-0.00296208
8.99761e-05
-0.00301939
7.75842e-05
-0.00307843
6.46567e-05
-0.00313977
5.12466e-05
-0.00320366
3.7384e-05
-0.00327012
2.3083e-05
-0.00333898
8.32587e-06
-0.00340998
-0.00348256
-7.10248e-06
4.79732e-06
-0.000175177
1.68515e-05
-0.000511993
3.39573e-05
-0.000842245
5.38122e-05
-0.00115877
7.41909e-05
-0.0014536
9.3148e-05
-0.00171976
0.000109185
-0.00195253
0.000121345
-0.00215015
0.000129209
-0.00231375
0.000132821
-0.00244683
0.00013256
-0.00255444
0.000128995
-0.00264223
0.000122756
-0.00271574
0.000114439
-0.00277982
0.000104544
-0.00283841
9.34579e-05
-0.00289446
8.14548e-05
-0.00295008
6.8719e-05
-0.00300665
5.53687e-05
-0.00306508
4.14793e-05
-0.00312588
2.70992e-05
-0.00318928
1.22575e-05
-0.00325528
-3.03445e-06
-0.00332369
-1.87916e-05
-0.00339423
-0.00346635
-3.50025e-05
4.68525e-06
-0.000179862
1.63606e-05
-0.000523668
3.27828e-05
-0.000858667
5.16388e-05
-0.00117762
7.07283e-05
-0.00147269
8.81638e-05
-0.00173719
0.000102528
-0.0019669
0.000112952
-0.00216057
0.000119097
-0.00231989
0.000121072
-0.0024488
0.000119291
-0.00255265
0.000114339
-0.00263728
0.00010684
-0.00270824
9.7372e-05
-0.00277035
8.64101e-05
-0.00282745
7.43146e-05
-0.00288237
6.13373e-05
-0.0029371
4.76436e-05
-0.00299296
3.33385e-05
-0.00305077
1.84889e-05
-0.00311103
3.13943e-06
-0.00317393
-1.26813e-05
-0.00323946
-2.89614e-05
-0.00330741
-4.57131e-05
-0.00337747
-0.00344914
-6.29209e-05
4.56301e-06
-0.000184425
1.58361e-05
-0.000534941
3.15453e-05
-0.000874376
4.9375e-05
-0.00119545
6.71567e-05
-0.00149047
8.30659e-05
-0.0017531
9.5768e-05
-0.0019796
0.00010448
-0.00216928
0.000108943
-0.00232435
0.00010932
-0.00244918
0.000106061
-0.0025494
9.97607e-05
-0.00263098
9.10359e-05
-0.00269951
8.04432e-05
-0.00275976
6.84341e-05
-0.00281544
5.53435e-05
-0.00286928
4.14012e-05
-0.00292316
2.67556e-05
-0.00297831
1.1499e-05
-0.00303552
-4.30892e-06
-0.00309522
-2.06269e-05
-0.00315761
-3.74266e-05
-0.00322266
-5.4695e-05
-0.00329014
-7.24373e-05
-0.00335973
-0.00343091
-9.06611e-05
4.43094e-06
-0.000188856
1.52795e-05
-0.00054579
3.02485e-05
-0.000889345
4.70275e-05
-0.00121223
6.34863e-05
-0.00150693
7.78675e-05
-0.00176748
8.89203e-05
-0.00199065
9.59472e-05
-0.00217631
9.87621e-05
-0.00232717
9.7582e-05
-0.002448
9.28858e-05
-0.0025447
8.52742e-05
-0.00262336
7.53541e-05
-0.00268959
6.36616e-05
-0.00274807
5.06236e-05
-0.0028024
3.65508e-05
-0.00285521
2.16524e-05
-0.00290826
6.06033e-06
-0.00296272
-1.01441e-05
-0.00301931
-2.69084e-05
-0.00307845
-4.41943e-05
-0.00314033
-6.1973e-05
-0.00320488
-8.02287e-05
-0.00327189
-9.89646e-05
-0.003341
-0.00341168
-0.000118201
4.28946e-06
-0.000193146
1.46926e-05
-0.000556193
2.88965e-05
-0.000903549
4.46031e-05
-0.00122794
5.9727e-05
-0.00152205
7.25815e-05
-0.00178034
8.20001e-05
-0.00200007
8.7369e-05
-0.00218168
8.85719e-05
-0.00232837
8.5874e-05
-0.0024453
7.9779e-05
-0.0025386
7.08909e-05
-0.00261448
5.98047e-05
-0.00267851
4.70352e-05
-0.0027353
3.29851e-05
-0.00278835
1.79424e-05
-0.00284016
2.09575e-06
-0.00289241
-1.44369e-05
-0.00294619
-3.15856e-05
-0.00300216
-4.93042e-05
-0.00306074
-6.75569e-05
-0.00312207
-8.63141e-05
-0.00318612
-0.000105557
-0.00325264
-0.000125287
-0.00332126
-0.00339143
-0.000145531
4.13897e-06
-0.000197285
1.4077e-05
-0.000566131
2.74929e-05
-0.000916965
4.21086e-05
-0.00124255
5.58885e-05
-0.00153583
6.72202e-05
-0.00179167
7.50219e-05
-0.00200787
7.8761e-05
-0.00218542
7.83872e-05
-0.002328
7.42097e-05
-0.00244112
6.6753e-05
-0.00253115
5.66214e-05
-0.00260435
4.43964e-05
-0.00266628
3.05713e-05
-0.00272147
1.55248e-05
-0.0027733
-4.78251e-07
-0.00282416
-1.72634e-05
-0.00287563
-3.47312e-05
-0.00292872
-5.28204e-05
-0.00298407
-7.14909e-05
-0.00304207
-9.07091e-05
-0.00310286
-0.000110444
-0.00316639
-0.000130674
-0.00323241
-0.000151398
-0.00330054
-0.00337019
-0.000172644
3.97991e-06
-0.000201265
1.34345e-05
-0.000575586
2.60418e-05
-0.000929572
3.95503e-05
-0.00125606
5.19802e-05
-0.00154826
6.17954e-05
-0.00180148
6.79991e-05
-0.00201408
7.01374e-05
-0.00218756
6.82221e-05
-0.00232608
6.26022e-05
-0.0024355
5.38191e-05
-0.00252236
4.24754e-05
-0.002593
2.91372e-05
-0.00265294
1.42763e-05
-0.00270661
-1.75174e-06
-0.00275728
-1.87013e-05
-0.00280721
-3.64202e-05
-0.00285791
-5.48178e-05
-0.00291032
-7.38434e-05
-0.00296505
-9.3463e-05
-0.00302245
-0.000113645
-0.00308267
-0.000134357
-0.00314568
-0.000155572
-0.0032112
-0.000177289
-0.00327882
-0.00334794
-0.000199534
3.8127e-06
-0.000205077
1.27669e-05
-0.00058454
2.4547e-05
-0.000941352
3.69348e-05
-0.00126845
4.8011e-05
-0.00155934
5.63183e-05
-0.00180979
6.09444e-05
-0.0020187
6.15113e-05
-0.00218813
5.80894e-05
-0.00232266
5.10632e-05
-0.00242848
4.09878e-05
-0.00251229
2.84614e-05
-0.00258048
1.40341e-05
-0.00263852
-1.84403e-06
-0.00269073
-1.88393e-05
-0.00274028
-3.67273e-05
-0.00278932
-5.53706e-05
-0.00283926
-7.4692e-05
-0.002891
-9.46496e-05
-0.00294509
-0.000115215
-0.00300188
-0.000136358
-0.00306153
-0.000158046
-0.00312399
-0.000180247
-0.003189
-0.000202954
-0.00325612
-0.0033247
-0.000226193
3.63781e-06
-0.000208715
1.20759e-05
-0.000592978
2.30122e-05
-0.000952289
3.42683e-05
-0.00127971
4.39896e-05
-0.00156906
5.07998e-05
-0.0018166
5.38698e-05
-0.00202177
5.28953e-05
-0.00218715
4.8001e-05
-0.00231777
3.96035e-05
-0.00242008
2.82683e-05
-0.00250095
1.45872e-05
-0.00256679
-9.06447e-07
-0.00262302
-1.7784e-05
-0.00267386
-3.57339e-05
-0.00272233
-5.45501e-05
-0.00277051
-7.41104e-05
-0.0028197
-9.43495e-05
-0.00287076
-0.000115234
-0.0029242
-0.000136741
-0.00298037
-0.000158843
-0.00303943
-0.000181505
-0.00310133
-0.00020469
-0.00316581
-0.000228386
-0.00323242
-0.00330047
-0.000252616
3.45568e-06
-0.000212171
1.13632e-05
-0.000600885
2.14412e-05
-0.000962367
3.15568e-05
-0.00128982
3.99245e-05
-0.00157743
4.525e-05
-0.00182193
4.67866e-05
-0.00202331
4.43008e-05
-0.00218466
3.79679e-05
-0.00231143
2.8233e-05
-0.00241035
1.56691e-05
-0.00248839
8.60016e-07
-0.00255199
-1.56785e-05
-0.00260648
-3.35393e-05
-0.002656
-5.2431e-05
-0.00270344
-7.21659e-05
-0.00275077
-9.26356e-05
-0.00279923
-0.000113786
-0.00284961
-0.000135592
-0.0029024
-0.000158036
-0.00295793
-0.000181094
-0.00301637
-0.000204728
-0.00307769
-0.000228896
-0.00314164
-0.000253579
-0.00320774
-0.00327526
-0.000278796
3.26679e-06
-0.000215438
1.06307e-05
-0.000608249
1.98376e-05
-0.000971574
2.88063e-05
-0.00129879
3.58235e-05
-0.00158445
3.96784e-05
-0.00182578
3.97053e-05
-0.00202334
3.57383e-05
-0.0021807
2.80002e-05
-0.00230369
1.69607e-05
-0.00239931
3.19787e-06
-0.00247463
-1.2714e-05
-0.00253607
-3.02772e-05
-0.00258892
-4.91053e-05
-0.00263717
-6.8927e-05
-0.00268362
-8.9571e-05
-0.00273013
-0.000110942
-0.00277786
-0.000132997
-0.00282755
-0.000155718
-0.00287968
-0.000179095
-0.00293455
-0.000203105
-0.00299236
-0.000227709
-0.00305309
-0.000252859
-0.00311649
-0.000278526
-0.00318207
-0.00324906
-0.000304726
3.0716e-06
-0.000218509
9.88003e-06
-0.000615058
1.82052e-05
-0.000979899
2.60224e-05
-0.00130661
3.16945e-05
-0.00159012
3.40942e-05
-0.00182818
3.26358e-05
-0.00202188
2.72179e-05
-0.00217528
1.8107e-05
-0.00229458
5.79472e-06
-0.00238699
-9.13856e-06
-0.00245969
-2.61291e-05
-0.00251908
-4.46977e-05
-0.00257035
-6.44782e-05
-0.00261739