/*--------------------------------*- C++ -*----------------------------------*\
  =========                 |
  \\      /  F ield         | OpenFOAM: The Open Source CFD Toolbox
   \\    /   O peration     | Website:  https://openfoam.org
    \\  /    A nd           | Version:  7
     \\/     M anipulation  |
\*---------------------------------------------------------------------------*/
FoamFile
{
    version     2.0;
    format      ascii;
    class       volVectorField;
    location    "100";
    object      U;
}
// * * * * * * * * * * * * * * * * * * * * * * * * * * * * * * * * * * * * * //

dimensions      [0 1 -1 0 0 0 0];

internalField   nonuniform List<vector> 
21350
(
(-0.00262616 0.00194912 1.36231e-19)
(-0.00196614 0.00150391 -4.56536e-19)
(0.00241267 0.00159835 1.89972e-19)
(-0.00123582 0.00105298 3.46709e-19)
(0.00498797 0.000341621 -3.62201e-19)
(0.0204439 -0.00133306 1.4609e-19)
(-0.000429254 0.00059664 3.02532e-20)
(0.00779504 -0.000911313 1.84944e-19)
(0.025662 -0.00316 1.62005e-19)
(0.0528584 -0.00608245 2.88034e-19)
(0.000459335 0.00013573 -2.03836e-19)
(0.0108476 -0.00215672 2.3047e-19)
(0.0312907 -0.00494333 -3.05108e-19)
(0.0614311 -0.00818779 -1.03898e-19)
(0.101147 -0.0114513 2.41179e-19)
(0.00143554 -0.000328422 4.64014e-19)
(0.0141587 -0.00338964 -3.02663e-19)
(0.0373466 -0.00667397 1.38922e-19)
(0.0705935 -0.0101828 1.02317e-19)
(0.11373 -0.0134762 -3.78871e-19)
(0.166512 -0.0161435 1.37164e-19)
(0.00250468 -0.000793981 -2.0129e-19)
(0.0177404 -0.00460394 -1.04148e-19)
(0.0438444 -0.00834116 3.76076e-19)
(0.0803593 -0.0120521 -4.82213e-19)
(0.127061 -0.0152997 2.31173e-19)
(0.183628 -0.0176774 6.38228e-20)
(0.24956 -0.0188703 7.18987e-20)
(0.00367172 -0.00125861 -1.63266e-19)
(0.0216037 -0.00579227 2.65349e-19)
(0.0507972 -0.00993262 -1.23891e-20)
(0.0907389 -0.0137785 7.15504e-20)
(0.141141 -0.0169004 -2.17341e-19)
(0.201596 -0.0189002 1.14773e-19)
(0.271486 -0.0194806 1.25109e-19)
(0.349925 -0.0184187 1.70761e-20)
(0.435699 -0.0155834 -2.60945e-19)
(0.0049413 -0.00171948 -4.73136e-20)
(0.0257587 -0.00694609 4.43236e-20)
(0.0582159 -0.0114345 -3.40822e-19)
(0.10174 -0.0153432 1.93939e-19)
(0.155971 -0.0182551 9.3389e-20)
(0.220404 -0.0197858 -1.73813e-19)
(0.294287 -0.0196617 1.25618e-20)
(0.376571 -0.0176928 -9.86793e-20)
(0.465848 -0.0137929 4.45348e-19)
(0.560328 -0.00799685 3.32989e-20)
(0.0063176 -0.00217329 5.43456e-20)
(0.0302139 -0.00805575 1.24632e-19)
(0.0661091 -0.0128315 3.35786e-19)
(0.113366 -0.0167258 6.23295e-20)
(0.171545 -0.0193395 1.71944e-19)
(0.240029 -0.0203076 2.23539e-19)
(0.317921 -0.0193866 -2.95892e-19)
(0.403993 -0.0164269 -1.05932e-19)
(0.496633 -0.0113949 7.31326e-21)
(0.593837 -0.00438972 -1.46734e-19)
(0.69325 0.00435142 2.48115e-19)
(0.00780441 -0.0026163 -7.85069e-21)
(0.0349767 -0.00911052 -3.66037e-20)
(0.0744831 -0.0141068 7.06983e-20)
(0.125618 -0.0179046 -4.16503e-19)
(0.187852 -0.0201282 1.49186e-19)
(0.260445 -0.0204383 -1.01907e-19)
(0.34234 -0.0186285 -4.22063e-21)
(0.432118 -0.0145977 -1.29667e-19)
(0.527954 -0.00837274 1.46735e-19)
(0.627629 -0.000124051 1.17463e-19)
(0.728598 0.0098334 1.59718e-19)
(0.828121 0.0210547 -1.04967e-19)
(0.923457 0.0329977 4.53633e-20)
(0.00940502 -0.00304438 2.64139e-19)
(0.0400528 -0.0100987 -2.08259e-19)
(0.0833415 -0.0152425 7.44378e-20)
(0.138492 -0.0188566 1.92995e-19)
(0.204877 -0.0205948 -1.67474e-19)
(0.281619 -0.0201502 1.16053e-19)
(0.367489 -0.0173613 7.65228e-20)
(0.460865 -0.0121836 -1.76225e-19)
(0.559704 -0.00471242 4.376e-20)
(0.661574 0.00480374 -2.89225e-20)
(0.763752 0.0159681 -3.05926e-19)
(0.863389 0.0282585 -5.19556e-20)
(0.957714 0.041069 2.99494e-19)
(1.04427 0.0537661 4.50557e-20)
(1.12112 0.0657499 8.18788e-20)
(0.0111222 -0.00345301 -5.27814e-20)
(0.0454466 -0.0110077 1.60503e-19)
(0.0926855 -0.0162194 -1.64851e-20)
(0.151982 -0.0195578 -9.76409e-20)
(0.2226 -0.0207123 1.61196e-20)
(0.303513 -0.0194159 -2.3656e-19)
(0.393307 -0.0155601 -1.75466e-19)
(0.490148 -0.00916518 1.5595e-19)
(0.591771 -0.000403071 -2.56018e-20)
(0.69554 0.0103936 1.51432e-19)
(0.798572 0.0227434 -1.45503e-19)
(0.897934 0.036048 2.34722e-19)
(0.99087 0.0496434 -1.84396e-19)
(1.07503 0.0628632 4.68851e-20)
(1.14869 0.0751029 -2.34561e-19)
(1.21081 0.0858751 9.32481e-20)
(0.0129583 -0.00383734 -1.33295e-19)
(0.0511605 -0.0118243 1.3207e-19)
(0.102513 -0.0170176 -1.78642e-19)
(0.166077 -0.0199834 -1.10735e-19)
(0.240995 -0.0204535 -4.00219e-19)
(0.326082 -0.0182084 -4.79989e-20)
(0.419727 -0.013201 1.32005e-19)
(0.519875 -0.00552526 1.8024e-19)
(0.624042 0.00456298 -1.89161e-19)
(0.729395 0.0166418 1.18479e-19)
(0.832919 0.0301435 8.50165e-20)
(0.931627 0.0443966 -1.52283e-19)
(1.02281 0.0586862 -1.01448e-19)
(1.10428 0.072323 -7.35308e-20)
(1.17453 0.0847096 3.37243e-19)
(1.2328 0.0953914 -1.0186e-19)
(1.27914 0.104085 -1.71737e-19)
(1.3142 0.110681 5.7288e-20)
(0.0149149 -0.00419223 1.51988e-19)
(0.0571956 -0.0125343 -1.29253e-19)
(0.11282 -0.0176165 1.35693e-19)
(0.180761 -0.0201081 2.75573e-19)
(0.260033 -0.0197912 1.2483e-19)
(0.349276 -0.0165014 1.18315e-19)
(0.446676 -0.0102621 1.40624e-19)
(0.549951 -0.00124941 1.49553e-19)
(0.6564 0.01019 9.6991e-20)
(0.763012 0.0235408 -1.13824e-19)
(0.866661 0.0381492 -7.59811e-20)
(0.964346 0.0532751 1.05064e-19)
(1.05345 0.0681614 1.17371e-19)
(1.13196 0.0821072 1.83244e-19)
(1.19862 0.0945335 -3.12925e-20)
(1.25299 0.105028 3.22651e-19)
(1.29535 0.113366 5.70717e-20)
(1.32664 0.1195 -2.5082e-19)
(1.3482 0.123537 -2.58222e-19)
(1.36161 0.125692 -2.52506e-19)
(0.0169933 -0.00451229 -1.3968e-19)
(0.0635511 -0.0131235 -5.5502e-20)
(0.123599 -0.0179948 2.97894e-19)
(0.196016 -0.0199067 8.12785e-20)
(0.279677 -0.0186985 -1.02556e-20)
(0.373041 -0.01427 9.95211e-20)
(0.474076 -0.00672376 6.87938e-20)
(0.580276 0.00367383 -3.21586e-19)
(0.688729 0.0164788 1.29501e-21)
(0.796264 0.0310797 1.46802e-19)
(0.899676 0.0467384 -8.83812e-20)
(0.995985 0.0626527 -3.39871e-20)
(1.0827 0.078033 7.26509e-20)
(1.15802 0.0921787 -1.73989e-19)
(1.22097 0.10454 1.3883e-19)
(1.2714 0.114758 -2.34044e-19)
(1.30987 0.122669 2.16448e-19)
(1.33754 0.128293 8.78237e-20)
(1.3559 0.131791 -1.3849e-20)
(1.36662 0.133425 1.55067e-19)
(1.37135 0.133507 2.42387e-19)
(1.3716 0.13236 -1.17796e-19)
(0.0191939 -0.00479188 -7.94312e-21)
(0.0702241 -0.0135769 1.51897e-19)
(0.134838 -0.0181313 -1.45894e-20)
(0.211819 -0.0193539 -1.97375e-19)
(0.29989 -0.0171496 3.75996e-19)
(0.397316 -0.0114908 1.10177e-19)
(0.501847 -0.00256852 -1.90154e-19)
(0.610749 0.00925274 8.5213e-20)
(0.720913 0.0234265 -2.65569e-19)
(0.829031 0.0392441 -1.89109e-20)
(0.931849 0.0558864 8.1096e-20)
(1.02645 0.072497 8.38333e-21)
(1.1105 0.0882649 1.91475e-20)
(1.18245 0.102502 2.94175e-19)
(1.2416 0.114699 2.83444e-20)
(1.2881 0.124556 7.03056e-21)
(1.32278 0.131978 -1.24349e-19)
(1.34698 0.137049 7.65607e-20)
(1.36234 0.139987 3.84314e-20)
(1.3706 0.141092 1.11209e-19)
(1.37339 0.140702 6.34478e-20)
(1.37217 0.13915 1.89666e-19)
(1.36815 0.136729 2.27397e-19)
(1.36226 0.133829 -4.19584e-20)
(0.0215167 -0.00502522 -1.85257e-19)
(0.0772101 -0.0138793 -2.12241e-19)
(0.146526 -0.0180043 6.00719e-20)
(0.228142 -0.0184249 -5.97142e-20)
(0.320624 -0.0151194 -3.05755e-19)
(0.422037 -0.0081424 -2.27218e-19)
(0.529902 0.00221813 3.51339e-19)
(0.641266 0.0154923 -1.94592e-19)
(0.752837 0.0310269 1.81712e-19)
(0.861196 0.0480165 1.88339e-19)
(0.963076 0.0655661 -3.48799e-19)
(1.05566 0.0827746 1.64857e-19)
(1.1368 0.0988216 9.99976e-20)
(1.20522 0.113043 -1.26421e-19)
(1.26053 0.124981 -3.4343e-19)
(1.30315 0.134401 -2.09743e-19)
(1.33415 0.141279 2.0009e-19)
(1.35507 0.145764 -4.55928e-21)
(1.36765 0.148125 6.51833e-21)
(1.37365 0.148698 -1.8699e-19)
(1.37469 0.147842 -1.0119e-19)
(1.37218 0.145893 -3.6742e-19)
(1.36724 0.143146 -1.97818e-19)
(1.36073 0.139961 -2.50299e-20)
(1.35298 0.135697 -1.15818e-19)
(0.0239608 -0.00520639 1.29388e-19)
(0.0845026 -0.0140155 1.46444e-19)
(0.158644 -0.0175927 -8.91162e-20)
(0.244955 -0.0170954 2.14589e-19)
(0.341833 -0.0125846 1.38875e-19)
(0.447134 -0.00420565 -8.6013e-20)
(0.558153 0.00764779 -1.47444e-19)
(0.671724 0.0223939 9.88117e-20)
(0.78439 0.0392703 3.52557e-20)
(0.89265 0.0573764 -1.29891e-19)
(0.993263 0.0757488 1.04992e-19)
(1.08354 0.093452 1.73157e-19)
(1.16157 0.109669 -2.07858e-19)
(1.22635 0.12377 -2.38797e-20)
(1.2778 0.13536 5.31993e-20)
(1.31661 0.144275 9.34216e-20)
(1.34409 0.150563 8.7947e-21)
(1.36192 0.154434 -1.54778e-19)
(1.37191 0.156208 -1.81514e-19)
(1.37586 0.15625 2.22727e-19)
(1.37534 0.154933 1.45996e-19)
(1.3717 0.152596 1.9562e-19)
(1.36597 0.149532 -6.63959e-20)
(1.35893 0.146068 6.61138e-21)
(1.35085 0.141632 -1.96815e-20)
(0.0265248 -0.00532937 -6.18343e-20)
(0.0920932 -0.0139703 -4.21075e-20)
(0.171173 -0.0168754 -4.09792e-20)
(0.262223 -0.0153425 -6.15069e-20)
(0.363463 -0.00952345 -2.17942e-19)
(0.472536 0.000336144 4.29388e-20)
(0.586511 0.0137289 -6.4809e-20)
(0.70202 0.0299556 1.39492e-19)
(0.815464 0.0481435 -1.93e-19)
(0.923294 0.067301 -1.96652e-19)
(1.02233 0.0864041 1.87646e-19)
(1.11004 0.104495 -1.35474e-19)
(1.18478 0.120773 -8.71158e-20)
(1.24585 0.134655 1.88736e-19)
(1.29345 0.145814 3.45245e-20)
(1.32856 0.154162 2.38442e-19)
(1.35267 0.15982 -1.28293e-19)
(1.3676 0.163059 1.17692e-19)
(1.37522 0.164238 9.99546e-20)
(1.37731 0.163752 1.20509e-19)
(1.37541 0.161982 -2.80627e-21)
(1.37077 0.159267 5.52065e-20)
(1.36437 0.155891 9.94928e-20)
(1.35688 0.152154 9.50025e-20)
(1.34854 0.147546 1.29889e-19)
(0.0292066 -0.00538809 1.56022e-19)
(0.0999713 -0.0137286 5.66549e-22)
(0.184091 -0.0158321 1.49107e-19)
(0.279906 -0.013144 -4.20042e-20)
(0.385457 -0.00591617 9.34951e-20)
(0.498166 0.0054969 -1.34835e-19)
(0.614883 0.0204666 -1.00275e-19)
(0.732052 0.0381721 -1.04756e-19)
(0.845957 0.0576306 2.01422e-20)
(0.953033 0.0777649 -8.35542e-20)
(1.0502 0.0975009 -1.97877e-20)
(1.13513 0.115871 1.51118e-19)
(1.20644 0.132102 1.12645e-19)
(1.26375 0.145671 -1.63836e-19)
(1.30755 0.156323 -1.76798e-19)
(1.33907 0.164051 -3.73554e-20)
(1.35999 0.169047 7.21832e-20)
(1.37222 0.171637 1.47777e-19)
(1.37766 0.17222 -4.58991e-20)
(1.37808 0.17121 -1.639e-19)
(1.37495 0.168996 -2.37333e-19)
(1.36946 0.165911 4.48612e-20)
(1.36248 0.16223 1.56392e-22)
(1.3546 0.158225 -8.8069e-20)
(1.34605 0.153445 -1.56802e-19)
(0.0320031 -0.0053765 -2.75492e-20)
(0.108125 -0.0132754 -2.95256e-20)
(0.197371 -0.0144432 -4.07222e-20)
(0.297965 -0.0104796 1.03592e-19)
(0.407755 -0.00174527 5.87246e-20)
(0.523948 0.0112876 5.21018e-20)
(0.643178 0.0278626 8.63773e-20)
(0.761721 0.0470345 -7.60016e-20)
(0.875771 0.0677125 1.10604e-19)
(0.981785 0.088741 1.04989e-19)
(1.07681 0.109007 1.23463e-19)
(1.15876 0.127546 -1.19285e-19)
(1.22654 0.143626 4.8575e-20)
(1.28008 0.156792 1.70988e-20)
(1.32015 0.16687 2.17125e-19)
(1.34822 0.173932 -1.65177e-19)
(1.36613 0.178238 -8.64137e-20)
(1.37585 0.18017 1.309e-20)
(1.37931 0.180158 1.64328e-19)
(1.37823 0.178631 -2.94672e-20)
(1.37402 0.175981 6.74906e-20)
(1.36778 0.172533 -3.79786e-20)
(1.36031 0.168553 -6.59522e-20)
(1.35212 0.164282 -3.01691e-20)
(1.34339 0.159329 1.33709e-19)
(0.0349108 -0.0052886 1.39286e-20)
(0.116539 -0.0125964 -1.51826e-19)
(0.210987 -0.0126901 -3.01127e-20)
(0.316353 -0.00733054 3.81179e-20)
(0.430295 0.00300429 -1.32973e-19)
(0.549802 0.0177162 3.75977e-20)
(0.671305 0.0359154 1.92052e-19)
(0.79093 0.0565309 3.75518e-20)
(0.904816 0.0783676 -2.17636e-20)
(1.00947 0.100201 3.68099e-21)
(1.10212 0.120891 -9.79858e-20)
(1.18092 0.13949 6.0986e-20)
(1.2451 0.155318 5.82526e-20)
(1.29488 0.167998 1.07397e-19)
(1.33132 0.177439 1.04972e-21)
(1.3561 0.183794 1.32234e-19)
(1.37117 0.187392 9.0099e-20)
(1.37858 0.188659 -7.25635e-20)
(1.38024 0.188055 -8.85314e-20)
(1.37782 0.18602 1.35266e-19)
(1.37267 0.182942 1.19287e-19)
(1.36578 0.179139 -2.84585e-20)
(1.3579 0.174864 1.38564e-19)
(1.34945 0.170328 1.17328e-19)
(1.34058 0.1652 -6.3053e-22)
(0.0379253 -0.00511847 -7.57438e-20)
(0.125198 -0.0116777 6.19825e-21)
(0.224905 -0.0105555 4.09933e-20)
(0.335022 -0.00367993 -8.12379e-20)
(0.453011 0.00834491 -2.75804e-21)
(0.575647 0.0247875 -7.25277e-20)
(0.699172 0.0446201 6.92821e-21)
(0.819588 0.0666461 -6.71809e-20)
(0.933007 0.0895721 -5.42014e-20)
(1.03603 0.112114 1.87471e-19)
(1.12608 0.133119 -5.29164e-20)
(1.2016 0.15167 -1.50837e-19)
(1.26213 0.167151 -1.23392e-20)
(1.3082 0.179267 -5.80637e-20)
(1.34113 0.188017 -4.674e-20)
(1.36276 0.193633 -9.08305e-20)
(1.37519 0.196507 -7.67713e-20)
(1.38047 0.197107 -1.67237e-19)
(1.38051 0.195915 -2.52221e-20)
(1.3769 0.19338 -7.16833e-20)
(1.37092 0.189883 -2.02257e-19)
(1.36349 0.185731 -5.71135e-20)
(1.35525 0.181163 6.19152e-20)
(1.34659 0.176365 -6.45078e-20)
(1.33761 0.171059 -5.10774e-20)
(0.0410416 -0.00486036 -1.04897e-20)
(0.134083 -0.0105061 1.92346e-20)
(0.239094 -0.00802323 -2.02402e-20)
(0.353922 0.000486966 1.90974e-19)
(0.475836 0.0142862 -1.32522e-19)
(0.601403 0.0325029 8.16949e-20)
(0.726691 0.0539683 -5.21496e-20)
(0.847605 0.0773621 2.16132e-20)
(0.960268 0.1013 1.02432e-19)
(1.06141 0.12445 -1.56723e-19)
(1.14867 0.14566 -9.8472e-20)
(1.22081 0.164057 -9.13961e-20)
(1.27767 0.179099 -7.49432e-20)
(1.32009 0.190582 9.37099e-20)
(1.34963 0.198593 -2.61013e-21)
(1.3683 0.203443 1.52263e-19)
(1.37826 0.205582 -9.03816e-21)
(1.3816 0.205515 -5.87199e-21)
(1.38018 0.203743 2.3674e-19)
(1.37552 0.200716 1.55549e-19)
(1.36882 0.196808 -2.96678e-20)
(1.36092 0.192311 3.12791e-21)
(1.35239 0.187452 6.66763e-20)
(1.34355 0.182392 -5.1124e-20)
(1.33448 0.176905 7.8808e-21)
(0.0442536 -0.00450872 8.34358e-20)
(0.143175 -0.00906902 -5.01546e-20)
(0.253516 -0.00507875 -6.66986e-20)
(0.373 0.00518263 -1.78586e-20)
(0.498701 0.020835 8.1262e-20)
(0.626988 0.0408608 -3.99298e-20)
(0.753776 0.0639486 -9.09514e-20)
(0.874901 0.0886583 -7.96426e-20)
(0.986529 0.113523 2.19493e-20)
(1.08555 0.137177 -2.99929e-20)
(1.16987 0.158483 6.125e-20)
(1.23854 0.176623 1.18566e-19)
(1.29175 0.191141 -2.86848e-20)
(1.33061 0.201926 1.42042e-20)
(1.3569 0.209157 -3.10918e-20)
(1.37277 0.21322 -1.39741e-19)
(1.38045 0.214617 9.48682e-20)
(1.38202 0.213886 9.73552e-20)
(1.37929 0.211541 -1.33059e-19)
(1.37371 0.20803 -9.04711e-20)
(1.36639 0.203717 1.09446e-19)
(1.3581 0.198881 -5.44493e-21)
(1.34932 0.193732 2.98803e-20)
(1.34034 0.188409 -6.12782e-20)
(1.33121 0.182737 -1.05645e-20)
(0.0475549 -0.00405825 1.86163e-20)
(0.152452 -0.00735511 3.2586e-20)
(0.268135 -0.00170917 1.1183e-19)
(0.392201 0.0104171 -9.63641e-20)
(0.521536 0.027995 2.65894e-20)
(0.652323 0.0498561 9.96201e-21)
(0.780344 0.0745465 5.41102e-20)
(0.901397 0.100511 1.50263e-19)
(1.01173 0.126212 -1.81231e-19)
(1.10842 0.150263 8.17789e-21)
(1.18965 0.171556 3.92636e-20)
(1.25482 0.189341 8.55077e-20)
(1.3044 0.203255 1.00765e-19)
(1.33981 0.213285 -1.23477e-19)
(1.363 0.219701 -5.43236e-20)
(1.37625 0.222959 7.27231e-20)
(1.38183 0.223611 -2.47033e-20)
(1.38179 0.222221 4.79176e-20)
(1.37789 0.219311 1.93529e-20)
(1.37151 0.215324 -5.42536e-20)
(1.36365 0.210613 -1.83474e-21)
(1.35503 0.20544 4.92491e-20)
(1.34606 0.200001 -3.9176e-21)
(1.33697 0.194414 5.30174e-20)
(1.32779 0.188554 -4.5696e-20)
(0.0509383 -0.00350395 -5.53357e-20)
(0.161891 -0.00535386 5.92863e-20)
(0.28291 0.00209656 -5.44821e-20)
(0.41147 0.0161981 3.42804e-20)
(0.544272 0.0357669 -4.72801e-20)
(0.677329 0.0594807 1.64501e-20)
(0.806315 0.0857445 -2.10521e-20)
(0.927023 0.112896 -1.082e-19)
(1.03581 0.139337 1.37103e-19)
(1.12998 0.163677 1.18627e-19)
(1.20803 0.184849 -1.10232e-19)
(1.26966 0.202185 4.66685e-21)
(1.31568 0.215421 2.01104e-20)
(1.34774 0.224646 -2.50182e-20)
(1.368 0.230217 -6.68594e-21)
(1.3788 0.232659 4.62416e-21)
(1.38244 0.232565 5.93822e-20)
(1.38096 0.230522 -9.1649e-20)
(1.37602 0.227055 2.44479e-20)
(1.36893 0.2226 1.92059e-20)
(1.36063 0.217495 -2.60304e-20)
(1.35173 0.211988 -8.24685e-20)
(1.3426 0.206259 3.64196e-20)
(1.33343 0.200406 -7.70878e-20)
(1.32422 0.194354 4.8512e-20)
(0.0543958 -0.00284118 6.57751e-20)
(0.171467 -0.00305593 -1.04038e-19)
(0.297798 0.00634759 3.77122e-20)
(0.430747 0.0225303 1.09016e-20)
(0.566838 0.0441483 -3.19945e-20)
(0.701929 0.0697232 1.19775e-19)
(0.831614 0.0975223 5.30145e-21)
(0.951713 0.125785 7.72585e-20)
(1.05873 0.152867 -2.52901e-20)
(1.15022 0.177385 -6.8888e-20)
(1.225 0.198332 -2.05382e-20)
(1.28309 0.215131 -3.5473e-20)
(1.32563 0.227622 -7.42513e-20)
(1.35447 0.235997 2.37999e-20)
(1.37195 0.240699 5.85439e-20)
(1.38048 0.242316 2.91461e-20)
(1.38235 0.241478 -2.5432e-22)
(1.37956 0.238789 8.52415e-20)
(1.37371 0.234773 -1.69754e-20)
(1.36602 0.229857 4.19704e-20)
(1.35733 0.224363 -1.09642e-20)
(1.3482 0.218523 5.67905e-21)
(1.33895 0.212503 -8.42138e-20)
(1.32972 0.206382 2.77514e-20)
(1.32049 0.200132 -8.76075e-21)
(0.0579188 -0.00206569 -2.96604e-20)
(0.181154 -0.000453273 1.45162e-20)
(0.312759 0.011051 -3.89552e-20)
(0.449976 0.0294161 -3.82282e-20)
(0.589165 0.0531339 6.35497e-20)
(0.726048 0.0805693 -6.26314e-20)
(0.856169 0.109857 -8.17658e-21)
(0.975407 0.139149 -4.11151e-20)
(1.08045 0.166768 5.65744e-20)
(1.16912 0.191356 1.50635e-20)
(1.24056 0.211977 2.92399e-20)
(1.29515 0.228155 -4.55965e-20)
(1.33428 0.23984 1.19643e-20)
(1.36005 0.247327 -5.63324e-20)
(1.37491 0.251141 -1.25504e-21)
(1.38134 0.251927 -2.92406e-20)
(1.3816 0.25035 -6.87005e-22)
(1.37765 0.247022 -5.16965e-20)
(1.37099 0.242466 4.69265e-20)
(1.36277 0.237094 -8.44932e-21)
(1.35377 0.231215 9.18519e-21)
(1.34446 0.225044 1.08854e-20)
(1.33512 0.21873 3.55083e-20)
(1.32585 0.212339 5.42844e-20)
(1.31662 0.205887 -4.17743e-20)
(0.0614984 -0.00117368 -3.68237e-21)
(0.190926 0.00246086 1.10975e-20)
(0.327746 0.0162118 1.32475e-20)
(0.469097 0.036855 7.96068e-21)
(0.611184 0.0627151 -2.58983e-20)
(0.749616 0.0920018 2.71355e-20)
(0.879915 0.122724 5.14214e-21)
(0.998054 0.152957 4.21549e-20)
(1.10093 0.181007 -2.05847e-21)
(1.18667 0.205557 -1.2078e-20)
(1.25474 0.225756 2.94788e-20)
(1.30586 0.241235 2.17049e-20)
(1.3417 0.25206 1.48713e-21)
(1.36454 0.258625 1.36817e-20)
(1.37695 0.261537 1.87921e-20)
(1.38143 0.261491 -4.95119e-21)
(1.38024 0.259179 5.2511e-20)
(1.37524 0.255221 1.91976e-20)
(1.36789 0.250132 1.1869e-20)
(1.35922 0.244311 -3.19478e-20)
(1.34995 0.238049 9.36477e-21)
(1.3405 0.231546 -2.97873e-20)
(1.3311 0.224936 -3.02775e-20)
(1.32181 0.218273 -1.50369e-20)
(1.31259 0.211615 -1.35982e-20)
(0.0651246 -0.000161828 -2.24246e-21)
(0.200753 0.0056918 3.56783e-21)
(0.342716 0.0218326 5.75203e-21)
(0.488052 0.0448437 1.57926e-20)
(0.632827 0.0728807 9.96933e-21)
(0.772563 0.104001 9.46272e-21)
(0.902789 0.136095 -3.34457e-20)
(1.01961 0.167177 -4.2003e-20)
(1.12015 0.195552 -1.18124e-20)
(1.20286 0.219959 -1.21111e-20)
(1.26756 0.239642 -9.17419e-21)
(1.31527 0.254351 8.15999e-21)
(1.34792 0.264266 1.09704e-21)
(1.36798 0.269882 -1.77736e-20)
(1.3781 0.27188 -1.70073e-20)
(1.3808 0.271003 -1.36514e-20)
(1.37829 0.267963 -4.56677e-20)
(1.37237 0.263383 -1.60736e-20)
(1.36441 0.257769 -2.45831e-20)
(1.35537 0.251504 2.30416e-20)
(1.34589 0.244861 1.0845e-20)
(1.33634 0.238027 7.53702e-21)
(1.32689 0.231119 -2.3695e-21)
(1.3176 0.22418 -1.37464e-21)
(1.3084 0.217311 -1.68603e-21)
(0.0687876 0.00097267 -2.63522e-21)
(0.210608 0.00924337 4.67781e-21)
(0.357623 0.0279141 -4.63213e-21)
(0.506782 0.0533761 -1.13445e-20)
(0.65403 0.0836162 2.26786e-21)
(0.794825 0.116543 -1.68053e-20)
(0.924735 0.149941 1.38351e-20)
(1.04002 0.181776 7.07329e-21)
(1.13809 0.21037 7.2829e-21)
(1.2177 0.23453 1.13368e-20)
(1.27903 0.25361 9.02981e-21)
(1.3234 0.267482 8.50966e-21)
(1.35299 0.276444 4.80047e-21)
(1.37043 0.281089 8.26967e-21)
(1.37842 0.282167 1.06737e-21)
(1.37949 0.280461 -1.479e-20)
(1.3758 0.2767 1.16739e-20)
(1.36907 0.271507 -3.68113e-21)
(1.36059 0.265375 -3.27058e-21)
(1.35124 0.258669 4.45195e-21)
(1.34159 0.251648 -3.64334e-21)
(1.33197 0.244481 -1.19373e-20)
(1.3225 0.237272 1.33691e-20)
(1.31323 0.230055 -6.27234e-23)
(1.30406 0.222971 5.71914e-21)
(0.0724768 0.00223207 -3.11374e-21)
(0.22046 0.0131179 5.6976e-21)
(0.37242 0.0344543 -8.19676e-21)
(0.52523 0.0624436 -1.01647e-20)
(0.67473 0.0949046 8.34445e-22)
(0.81634 0.129604 -1.23778e-20)
(0.945703 0.164232 1.06351e-20)
(1.05927 0.19672 1.20243e-20)
(1.15473 0.225425 3.90779e-21)
(1.23119 0.249239 8.45755e-21)
(1.28917 0.267633 1.21052e-20)
(1.3303 0.280609 8.43997e-21)
(1.35697 0.288581 2.55071e-21)
(1.37193 0.292237 7.21189e-21)
(1.37795 0.292391 2.26173e-21)
(1.37754 0.289861 -1.53274e-20)
(1.37279 0.285388 1.25693e-20)
(1.36535 0.27959 -2.63436e-21)
(1.35643 0.272945 -5.11324e-21)
(1.34683 0.265804 4.87284e-21)
(1.33706 0.258404 -1.69601e-21)
(1.32739 0.250904 -1.19113e-20)
(1.31793 0.243392 1.19761e-20)
(1.30868 0.235895 1.96922e-21)
(1.29956 0.22859 2.8718e-21)
(0.0761816 0.0036181 9.98891e-21)
(0.230279 0.0173162 2.40475e-23)
(0.387063 0.0414493 -4.94056e-22)
(0.543339 0.0720346 4.61748e-21)
(0.694865 0.106726 -4.1263e-22)
(0.837052 0.143156 1.60124e-20)
(0.965646 0.178933 -3.04908e-20)
(1.07732 0.211975 -3.12566e-20)
(1.17006 0.240685 -2.21771e-20)
(1.24335 0.264057 -1.35617e-20)
(1.29803 0.281689 -1.11731e-20)
(1.33601 0.293714 1.22949e-20)
(1.35989 0.300664 -2.09605e-22)
(1.37253 0.303318 -1.24468e-20)
(1.37674 0.302546 -6.52236e-21)
(1.37498 0.299198 -2.42976e-20)
(1.36929 0.294022 -3.60858e-20)
(1.36124 0.287627 -1.36252e-20)
(1.35194 0.280477 -1.78226e-20)
(1.34214 0.272902 9.30053e-21)
(1.33229 0.265126 6.50972e-21)
(1.3226 0.257291 6.70018e-21)
(1.31317 0.249472 2.20951e-21)
(1.30397 0.241692 2.44871e-21)
(1.29489 0.234163 -9.71353e-22)
(0.0798902 0.00513183 -1.92986e-20)
(0.240035 0.0218373 3.16652e-20)
(0.401506 0.0488927 1.26826e-20)
(0.561054 0.0821351 -1.20313e-20)
(0.714378 0.119058 1.2237e-20)
(0.856906 0.15717 4.51101e-21)
(0.984523 0.194013 1.53614e-20)
(1.09414 0.227505 4.03545e-20)
(1.18409 0.256117 2.98744e-21)
(1.25419 0.278954 -1.49505e-20)
(1.30562 0.295753 1.31831e-20)
(1.34057 0.306779 1.42588e-20)
(1.3618 0.312681 1.81458e-20)
(1.37228 0.314322 1.04746e-20)
(1.37481 0.312626 1.96472e-20)
(1.37184 0.308468 -3.31572e-21)
(1.36533 0.302598 3.0418e-20)
(1.35675 0.295614 2.21952e-20)
(1.34715 0.287964 3.05202e-20)
(1.33719 0.279958 -3.02634e-20)
(1.32729 0.271806 -1.88344e-20)
(1.31761 0.263635 -1.30797e-20)
(1.30822 0.255507 -1.8887e-20)
(1.29908 0.247443 -4.72502e-21)
(1.29007 0.239686 -1.43327e-20)
(0.0835914 0.0067737 -8.51831e-21)
(0.249698 0.0266788 -2.38596e-21)
(0.415703 0.0567757 -2.22213e-20)
(0.578322 0.0927284 -4.2948e-20)
(0.733212 0.131876 7.2459e-20)
(0.875855 0.171615 -6.46094e-20)
(1.0023 0.209434 -4.22088e-20)
(1.10973 0.243273 -2.78998e-20)
(1.19681 0.271686 4.39294e-20)
(1.26373 0.293903 5.78434e-20)
(1.31199 0.309802 1.4225e-20)
(1.34401 0.319786 -2.88837e-20)
(1.36274 0.324618 -3.43143e-20)
(1.37121 0.32524 9.86003e-21)
(1.37222 0.322625 -4.76572e-20)
(1.36816 0.317665 8.04281e-21)
(1.36092 0.31111 -3.54147e-20)
(1.35189 0.303546 -2.93479e-20)
(1.34205 0.2954 4.21491e-20)
(1.33198 0.286967 -2.57098e-20)
(1.32206 0.278438 3.46645e-20)
(1.31241 0.26993 1.98488e-21)
(1.30308 0.26149 5.11818e-20)
(1.29401 0.25314 1.28057e-21)
(1.28508 0.245151 7.60886e-21)
(0.0872735 0.00854351 5.42382e-20)
(0.259235 0.0318365 -8.34966e-20)
(0.42961 0.0650874 1.21813e-20)
(0.595089 0.103795 7.7353e-20)
(0.751318 0.145154 -5.9814e-20)
(0.893854 0.186457 1.18525e-19)
(1.01894 0.225161 3.87539e-20)
(1.12406 0.259245 5.72137e-20)
(1.20823 0.28736 -4.82298e-20)
(1.27199 0.308874 -5.01695e-20)
(1.31715 0.323814 -3.63243e-20)
(1.34638 0.33272 -2.00422e-20)
(1.36275 0.336464 -3.82538e-20)
(1.36935 0.336065 -1.66271e-20)
(1.36897 0.332535 6.99418e-20)
(1.36395 0.326783 2.138e-21)
(1.35608 0.319553 1.64626e-20)
(1.34668 0.311416 9.0399e-20)
(1.33664 0.30278 -5.21697e-20)
(1.32652 0.293921 3.74534e-20)
(1.3166 0.285016 -2.56931e-20)
(1.30701 0.276169 2.72405e-21)
(1.29775 0.267415 -5.04363e-20)
(1.28878 0.258777 3.09332e-20)
(1.27992 0.250554 -1.37594e-20)
(0.0909247 0.0104404 -2.65086e-20)
(0.268618 0.0373045 -3.95104e-20)
(0.443184 0.0738147 1.83265e-20)
(0.611308 0.115314 5.27713e-20)
(0.768645 0.15886 -4.40318e-20)
(0.910862 0.201661 -6.60419e-20)
(1.03443 0.241158 -4.55841e-22)
(1.13713 0.275384 -7.81885e-20)
(1.21836 0.303106 9.56469e-20)
(1.27899 0.32384 1.12587e-19)
(1.32115 0.337767 -5.70904e-20)
(1.34771 0.345563 -2.15772e-21)
(1.36187 0.348207 -3.39934e-21)
(1.36675 0.346786 6.25798e-20)
(1.36512 0.34235 -5.31805e-20)
(1.35924 0.335816 5.78702e-21)
(1.35083 0.32792 -1.41423e-20)
(1.34113 0.319217 -3.95002e-20)
(1.33095 0.310095 2.17694e-20)
(1.32079 0.300814 -6.07107e-21)
(1.31091 0.291532 -3.5228e-20)
(1.30139 0.282345 -4.94916e-20)
(1.29223 0.273276 2.71171e-20)
(1.28336 0.264349 -6.08211e-20)
(1.2746 0.255889 6.72517e-20)
(0.0945333 0.0124629 -2.84915e-20)
(0.277816 0.0430755 3.41866e-20)
(0.456383 0.0829421 8.81065e-20)
(0.626931 0.127262 -1.5541e-19)
(0.78515 0.172966 8.74909e-20)
(0.926845 0.217192 1.97238e-20)
(1.04873 0.257385 6.5451e-20)
(1.14893 0.291653 1.40054e-19)
(1.2272 0.318892 -1.58874e-19)
(1.28476 0.338775 -2.07093e-20)
(1.32402 0.35164 1.35495e-19)
(1.34804 0.3583 -8.23409e-20)
(1.36014 0.359834 1.14393e-19)
(1.36344 0.357394 -6.61681e-20)
(1.36068 0.352061 5.10762e-21)
(1.35404 0.344756 2.49525e-20)
(1.34518 0.336204 -1.7164e-21)
(1.33524 0.326942 2.3296e-20)
(1.32497 0.317339 -2.79698e-20)
(1.31481 0.307636 -3.66776e-20)
(1.30499 0.297979 3.91981e-20)
(1.29557 0.288452 2.94007e-20)
(1.28652 0.279065 -6.32388e-20)
(1.27776 0.269848 4.43471e-20)
(1.26911 0.261148 -1.22176e-21)
(0.0980876 0.0146089 4.25921e-20)
(0.2868 0.0491405 -6.95922e-20)
(0.469166 0.0924525 -6.6825e-20)
(0.641912 0.139612 2.62927e-20)
(0.800791 0.187438 2.05812e-20)
(0.94177 0.233013 -6.96822e-20)
(1.06184 0.273806 -1.66703e-20)
(1.15947 0.308017 -1.56135e-19)
(1.23477 0.334686 5.71611e-20)
(1.28932 0.353652 7.40862e-20)
(1.32579 0.365412 4.14214e-20)
(1.34742 0.370914 6.32884e-20)
(1.35759 0.371333 -2.04031e-20)
(1.35945 0.36788 1.92179e-20)
(1.35567 0.36166 -5.56522e-20)
(1.34839 0.353594 -1.08558e-19)
(1.33915 0.344397 6.98115e-20)
(1.32902 0.334584 7.84276e-20)
(1.3187 0.324504 -1.14702e-19)
(1.30858 0.314381 -4.31147e-20)
(1.29885 0.304349 6.61801e-20)
(1.28954 0.29448 1.32199e-20)
(1.28062 0.284775 2.12003e-20)
(1.27199 0.275267 -9.90604e-20)
(1.26345 0.266326 6.25363e-20)
(0.101576 0.0168755 1.2907e-20)
(0.295541 0.055489 2.16063e-21)
(0.481495 0.102326 4.67825e-20)
(0.656211 0.152337 1.11432e-19)
(0.81553 0.202241 -4.71189e-20)
(0.955612 0.249086 -4.43202e-20)
(1.07374 0.290381 -2.05098e-20)
(1.16874 0.324439 1.26432e-19)
(1.24109 0.350456 7.14969e-20)
(1.29271 0.368444 -2.79895e-19)
(1.32649 0.379062 -6.78129e-21)
(1.34586 0.383389 -1.28113e-19)
(1.35425 0.382692 2.24741e-20)
(1.3548 0.378233 5.89615e-20)
(1.35013 0.371137 -4.63203e-22)
(1.34228 0.362324 1.17955e-19)
(1.33273 0.35249 4.61082e-21)
(1.32248 0.342132 -4.25131e-20)
(1.31215 0.33158 1.61417e-19)
(1.30209 0.32104 1.18912e-19)
(1.29247 0.310633 2.75987e-20)
(1.2833 0.300422 3.72944e-20)
(1.27452 0.290398 -6.10933e-20)
(1.26604 0.2806 1.58109e-20)
(1.25763 0.271417 -3.0335e-20)
(0.104987 0.0192594 -9.12373e-20)
(0.30401 0.062109 8.41189e-20)
(0.493332 0.112543 3.98916e-20)
(0.669789 0.165408 -1.09464e-19)
(0.829334 0.21734 -5.6625e-20)
(0.968346 0.265371 7.6194e-20)
(1.08442 0.307071 -1.19298e-19)
(1.17675 0.340884 -2.70228e-21)
(1.24618 0.366172 2.8422e-20)
(1.29494 0.383127 4.60716e-20)
(1.32617 0.392572 -7.00701e-20)
(1.34341 0.395711 5.71632e-21)
(1.35015 0.393898 -7.13061e-20)
(1.34952 0.388443 -7.36593e-20)
(1.34406 0.380484 -4.52726e-21)
(1.33575 0.370934 -9.40427e-20)
(1.32596 0.360475 -1.5374e-19)
(1.31563 0.34958 8.78366e-21)
(1.30532 0.338559 -1.41112e-19)
(1.29536 0.327603 -5.33211e-20)
(1.28587 0.316822 -1.28922e-19)
(1.27685 0.30627 -5.0519e-21)
(1.26823 0.295927 1.12813e-20)
(1.2599 0.285837 4.96946e-20)
(1.25164 0.276413 -9.68494e-20)
(0.108309 0.0217564 -3.66127e-20)
(0.312182 0.068987 -8.67217e-20)
(0.504642 0.123079 -2.33198e-20)
(0.682609 0.178793 -2.94957e-20)
(0.842174 0.232698 1.7094e-20)
(0.979955 0.281829 1.05788e-21)
(1.09388 0.323839 5.83806e-20)
(1.18351 0.357315 3.11687e-20)
(1.25006 0.381803 4.37595e-20)
(1.29605 0.397676 3.12752e-21)
(1.32485 0.40592 -6.86265e-20)
(1.3401 0.407863 1.34127e-20)
(1.34533 0.404939 9.26336e-20)
(1.34363 0.398498 9.21718e-20)
(1.3375 0.38969 -2.88203e-21)
(1.32879 0.379417 7.13966e-20)
(1.31882 0.368342 1.51587e-19)
(1.30846 0.356916 -1.42082e-19)
(1.29822 0.345431 -2.02567e-20)
(1.28838 0.334063 7.4805e-20)
(1.27904 0.322909 5.12102e-20)
(1.27019 0.312016 -1.49605e-20)
(1.26175 0.301353 1.04599e-19)
(1.25359 0.290972 9.20735e-20)
(1.24549 0.281306 -8.02334e-21)
(0.111531 0.024362 2.5151e-20)
(0.320031 0.0761083 4.86885e-20)
(0.515392 0.13391 -2.23006e-19)
(0.694638 0.19246 7.77855e-20)
(0.854021 0.248277 1.39889e-19)
(0.990423 0.29842 -5.7367e-20)
(1.10211 0.340644 1.41936e-19)
(1.18903 0.373699 -4.75654e-20)
(1.25275 0.397318 6.51461e-20)
(1.29608 0.412066 1.35669e-19)
(1.32256 0.419087 2.85392e-20)
(1.33596 0.419829 -1.69071e-20)
(1.33981 0.415802 5.10973e-20)
(1.33717 0.408388 6.09049e-20)
(1.33044 0.398744 8.00045e-20)
(1.32142 0.387762 -1.67635e-19)
(1.31134 0.37608 -8.19935e-20)
(1.30099 0.364131 9.50908e-20)
(1.29084 0.352187 9.77719e-20)
(1.28114 0.340409 -5.86424e-20)
(1.27198 0.328884 7.92697e-20)
(1.26332 0.317651 -1.48329e-21)
(1.25507 0.306668 -8.57253e-20)
(1.2471 0.295994 -9.6845e-22)
(1.23916 0.286086 9.10437e-20)
(0.114644 0.0270708 3.67188e-20)
(0.327532 0.0834569 1.25073e-19)
(0.525552 0.145011 6.97716e-20)
(0.705848 0.206374 1.29117e-20)
(0.864855 0.264038 7.00269e-20)
(0.99974 0.315103 -6.43099e-20)
(1.10912 0.357449 -8.65852e-20)
(1.19334 0.389999 -1.19491e-19)
(1.25428 0.412689 -8.00495e-20)
(1.29504 0.426273 -3.3242e-20)
(1.31934 0.432053 3.78681e-20)
(1.33102 0.431595 7.81517e-20)
(1.33362 0.426473 2.84471e-20)
(1.33014 0.418101 -1.21228e-19)
(1.32292 0.407637 -1.06424e-19)
(1.31366 0.395957 7.30735e-20)
(1.30351 0.38368 -6.80129e-21)
(1.29321 0.371215 5.03287e-20)
(1.28319 0.358816 -4.61204e-21)
(1.27367 0.346631 -1.30628e-19)
(1.26469 0.334738 -1.16233e-19)