/*--------------------------------*- C++ -*----------------------------------*\
  =========                 |
  \\      /  F ield         | OpenFOAM: The Open Source CFD Toolbox
   \\    /   O peration     | Website:  https://openfoam.org
    \\  /    A nd           | Version:  7
     \\/     M anipulation  |
\*---------------------------------------------------------------------------*/
FoamFile
{
    version     2.0;
    format      ascii;
    class       volScalarField;
    location    "65";
    object      p;
}
// * * * * * * * * * * * * * * * * * * * * * * * * * * * * * * * * * * * * * //

dimensions      [0 2 -2 0 0 0 0];

internalField   nonuniform List<scalar> 
34000
(
-0.248752
-0.249813
-0.250455
-0.251
-0.251473
-0.251878
-0.252233
-0.252553
-0.252846
-0.253122
-0.253383
-0.253634
-0.253877
-0.254113
-0.254346
-0.254579
-0.254816
-0.255064
-0.255326
-0.255609
-0.249116
-0.250146
-0.250771
-0.251302
-0.251764
-0.25216
-0.252509
-0.252825
-0.253118
-0.253396
-0.253663
-0.253924
-0.254181
-0.254437
-0.254695
-0.25496
-0.255237
-0.255535
-0.255857
-0.256211
-0.249525
-0.250521
-0.251126
-0.251642
-0.252091
-0.252477
-0.252818
-0.253129
-0.253419
-0.253697
-0.253968
-0.254237
-0.254506
-0.254779
-0.25506
-0.255354
-0.255668
-0.256013
-0.256392
-0.256811
-0.249974
-0.250933
-0.251518
-0.252017
-0.252452
-0.252826
-0.253158
-0.253461
-0.253747
-0.254023
-0.254296
-0.25457
-0.254848
-0.255136
-0.255437
-0.255758
-0.256106
-0.256495
-0.256927
-0.257406
-0.250461
-0.251382
-0.251945
-0.252425
-0.252844
-0.253204
-0.253525
-0.25382
-0.254099
-0.254372
-0.254644
-0.254921
-0.255206
-0.255505
-0.255823
-0.256167
-0.256546
-0.256975
-0.257456
-0.257989
-0.250985
-0.251865
-0.252405
-0.252865
-0.253266
-0.253611
-0.253919
-0.254203
-0.254474
-0.25474
-0.25501
-0.255287
-0.255576
-0.255884
-0.256215
-0.256578
-0.256984
-0.257449
-0.257975
-0.258555
-0.251541
-0.25238
-0.252894
-0.253333
-0.253715
-0.254043
-0.254336
-0.254607
-0.254868
-0.255126
-0.25539
-0.255664
-0.255955
-0.256267
-0.256609
-0.256987
-0.257415
-0.257913
-0.258478
-0.259099
-0.252128
-0.252923
-0.253412
-0.253828
-0.254189
-0.254499
-0.254776
-0.255032
-0.255279
-0.255527
-0.255782
-0.256051
-0.25634
-0.256654
-0.257001
-0.25739
-0.257836
-0.258361
-0.25896
-0.259614
-0.252743
-0.253493
-0.253955
-0.254347
-0.254686
-0.254976
-0.255234
-0.255473
-0.255706
-0.25594
-0.256184
-0.256444
-0.256727
-0.257038
-0.257387
-0.257783
-0.258242
-0.258788
-0.259417
-0.260094
-0.253382
-0.254087
-0.254521
-0.254888
-0.255204
-0.255473
-0.25571
-0.25593
-0.256145
-0.256363
-0.256593
-0.256841
-0.257114
-0.257419
-0.257765
-0.258162
-0.258628
-0.259191
-0.259842
-0.260534
-0.254044
-0.254703
-0.255109
-0.25545
-0.255741
-0.255987
-0.256202
-0.2564
-0.256594
-0.256793
-0.257006
-0.257238
-0.257498
-0.257792
-0.25813
-0.258523
-0.25899
-0.259563
-0.260231
-0.260928
-0.254725
-0.25534
-0.255716
-0.256031
-0.256296
-0.256516
-0.256706
-0.256881
-0.257052
-0.257229
-0.257421
-0.257634
-0.257876
-0.258154
-0.258479
-0.258863
-0.259324
-0.259902
-0.26058
-0.261271
-0.255425
-0.255994
-0.256341
-0.256628
-0.256865
-0.257059
-0.257223
-0.257371
-0.257516
-0.257668
-0.257836
-0.258026
-0.258246
-0.258504
-0.25881
-0.259178
-0.259627
-0.260202
-0.260883
-0.261556
-0.256139
-0.256664
-0.256982
-0.25724
-0.257449
-0.257614
-0.257749
-0.257869
-0.257985
-0.258109
-0.258248
-0.258411
-0.258605
-0.258837
-0.259119
-0.259465
-0.259896
-0.260459
-0.261138
-0.261777
-0.256868
-0.257349
-0.257637
-0.257866
-0.258045
-0.25818
-0.258284
-0.258373
-0.258458
-0.258549
-0.258657
-0.258789
-0.258952
-0.259154
-0.259406
-0.259723
-0.260126
-0.260671
-0.26134
-0.261916
-0.257608
-0.258047
-0.258305
-0.258504
-0.258653
-0.258755
-0.258827
-0.258881
-0.258932
-0.258989
-0.259061
-0.259158
-0.259285
-0.25945
-0.259666
-0.259948
-0.260317
-0.260835
-0.261487
-0.261951
-0.258359
-0.258757
-0.258986
-0.259155
-0.259271
-0.25934
-0.259376
-0.259394
-0.259407
-0.259425
-0.259459
-0.259516
-0.259602
-0.259727
-0.259901
-0.26014
-0.260466
-0.260948
-0.261578
-0.262013
-0.25912
-0.259479
-0.259678
-0.259816
-0.259899
-0.259932
-0.259931
-0.25991
-0.259882
-0.259858
-0.25985
-0.259863
-0.259905
-0.259983
-0.260109
-0.260297
-0.260573
-0.261009
-0.261595
-0.261981
-0.25989
-0.260213
-0.260382
-0.260488
-0.260536
-0.260532
-0.260491
-0.260428
-0.260356
-0.260288
-0.260233
-0.260199
-0.260191
-0.260218
-0.260289
-0.260421
-0.260636
-0.261018
-0.261551
-0.261851
-0.26067
-0.260957
-0.261098
-0.261171
-0.261183
-0.26114
-0.261057
-0.260949
-0.26083
-0.260714
-0.260609
-0.260523
-0.260462
-0.260433
-0.260444
-0.260511
-0.260657
-0.260973
-0.261447
-0.26163
-0.261458
-0.261712
-0.261825
-0.261865
-0.261839
-0.261755
-0.261627
-0.261472
-0.261304
-0.261136
-0.260978
-0.260837
-0.260719
-0.260628
-0.260574
-0.260569
-0.260637
-0.260876
-0.261279
-0.261316
-0.262257
-0.26248
-0.262564
-0.262571
-0.262506
-0.262379
-0.262204
-0.261998
-0.261778
-0.261555
-0.261341
-0.261142
-0.260962
-0.260806
-0.260681
-0.260598
-0.260579
-0.260728
-0.26105
-0.260907
-0.263067
-0.263261
-0.263317
-0.263289
-0.263184
-0.263011
-0.262787
-0.262528
-0.262252
-0.261972
-0.261698
-0.261437
-0.261194
-0.260969
-0.260768
-0.260601
-0.260486
-0.260533
-0.260761
-0.260397
-0.263889
-0.264057
-0.264084
-0.264021
-0.263874
-0.263654
-0.263377
-0.263063
-0.262728
-0.262387
-0.262051
-0.261727
-0.261416
-0.26112
-0.26084
-0.260583
-0.260363
-0.260295
-0.260418
-0.259784
-0.264727
-0.26487
-0.264868
-0.264769
-0.264578
-0.264308
-0.263977
-0.263604
-0.263207
-0.262803
-0.262402
-0.262011
-0.261631
-0.26126
-0.260899
-0.260548
-0.260216
-0.260021
-0.260026
-0.259064
-0.265582
-0.265702
-0.265672
-0.265534
-0.265298
-0.264976
-0.264587
-0.264152
-0.263691
-0.263221
-0.262753
-0.262292
-0.261841
-0.261395
-0.260949
-0.260502
-0.260052
-0.259715
-0.259594
-0.258233
-0.266458
-0.266556
-0.266496
-0.26632
-0.266036
-0.265658
-0.265209
-0.26471
-0.264182
-0.263643
-0.263104
-0.262573
-0.262049
-0.261526
-0.260996
-0.260449
-0.259876
-0.259387
-0.25913
-0.25729
-0.267358
-0.267436
-0.267346
-0.267128
-0.266794
-0.266359
-0.265846
-0.265279
-0.264681
-0.26407
-0.26346
-0.262856
-0.262259
-0.261658
-0.261042
-0.260396
-0.259698
-0.259044
-0.258646
-0.256236
-0.268286
-0.268344
-0.268223
-0.267963
-0.267576
-0.26708
-0.2665
-0.265862
-0.265191
-0.264506
-0.263822
-0.263144
-0.262471
-0.261794
-0.261093
-0.260348
-0.259522
-0.258694
-0.258153
-0.255074
-0.269249
-0.269286
-0.269132
-0.268827
-0.268384
-0.267824
-0.267175
-0.266463
-0.265715
-0.264953
-0.264192
-0.263439
-0.262691
-0.261936
-0.261151
-0.260309
-0.259356
-0.258345
-0.257665
-0.253811
-0.270249
-0.270266
-0.270077
-0.269724
-0.269223
-0.268596
-0.267873
-0.267083
-0.266256
-0.265415
-0.264575
-0.263744
-0.26292
-0.262087
-0.26122
-0.260282
-0.259205
-0.258004
-0.257191
-0.252458
-0.271294
-0.271288
-0.271063
-0.270659
-0.270096
-0.269398
-0.268598
-0.267727
-0.266818
-0.265893
-0.264972
-0.264062
-0.263161
-0.262251
-0.261302
-0.260271
-0.259073
-0.257677
-0.256739
-0.251035
-0.272389
-0.272359
-0.272094
-0.271636
-0.271007
-0.270235
-0.269354
-0.268399
-0.267403
-0.266393
-0.265388
-0.264397
-0.263417
-0.26243
-0.261401
-0.260279
-0.258964
-0.257371
-0.256311
-0.249562
-0.273541
-0.273484
-0.273176
-0.27266
-0.271962
-0.271111
-0.270145
-0.269102
-0.268017
-0.266918
-0.265827
-0.264753
-0.263693
-0.262628
-0.261518
-0.260309
-0.258879
-0.257094
-0.255904
-0.248075
-0.274756
-0.274668
-0.274314
-0.273737
-0.272964
-0.27203
-0.270976
-0.269841
-0.268663
-0.267473
-0.266293
-0.265134
-0.263992
-0.262848
-0.261659
-0.260364
-0.258823
-0.256857
-0.255512
-0.246628
-0.276043
-0.27592
-0.275515
-0.274871
-0.274019
-0.272999
-0.271851
-0.270621
-0.269347
-0.268063
-0.266791
-0.265544
-0.26432
-0.263096
-0.261828
-0.26045
-0.258802
-0.25668
-0.255131
-0.245313
-0.277409
-0.277244
-0.276783
-0.276068
-0.275133
-0.274021
-0.272777
-0.271448
-0.270074
-0.268692
-0.267326
-0.26599
-0.26468
-0.263376
-0.262031
-0.260576
-0.258823
-0.256586
-0.254721
-0.244157
-0.278861
-0.278648
-0.278127
-0.277334
-0.276311
-0.275103
-0.273758
-0.272325
-0.27085
-0.269367
-0.267905
-0.266476
-0.26508
-0.263696
-0.262277
-0.260754
-0.258912
-0.256632
-0.254191
-0.242944
-0.280407
-0.280138
-0.27955
-0.278676
-0.277559
-0.276249
-0.274799
-0.27326
-0.271679
-0.270094
-0.268532
-0.26701
-0.265526
-0.264061
-0.262572
-0.260998
-0.259114
-0.256955
-0.25369
-0.241997
-0.282057
-0.281723
-0.281062
-0.280099
-0.278883
-0.277467
-0.275908
-0.274259
-0.272569
-0.270878
-0.269215
-0.267597
-0.266023
-0.264477
-0.262921
-0.261315
-0.259454
-0.257667
-0.254079
-0.245683
-0.283816
-0.283408
-0.282667
-0.281609
-0.280288
-0.278761
-0.277088
-0.275326
-0.273525
-0.271726
-0.26996
-0.268243
-0.266577
-0.264948
-0.263325
-0.261693
-0.25988
-0.258538
-0.255703
-0.261663
-0.285695
-0.285201
-0.284373
-0.283213
-0.281781
-0.280138
-0.278348
-0.276469
-0.274554
-0.272645
-0.270773
-0.268955
-0.267193
-0.265477
-0.26378
-0.262113
-0.260325
-0.25932
-0.256734
-0.265102
-0.2877
-0.287109
-0.286186
-0.284918
-0.283368
-0.281604
-0.279692
-0.277693
-0.275661
-0.273639
-0.271659
-0.269737
-0.267875
-0.266064
-0.264282
-0.262556
-0.260744
-0.259853
-0.257165
-0.265237
-0.28984
-0.289139
-0.288112
-0.286728
-0.285055
-0.283165
-0.281127
-0.279005
-0.276853
-0.274717
-0.272625
-0.270594
-0.268626
-0.26671
-0.264826
-0.26301
-0.261116
-0.260158
-0.257287
-0.264441
-0.292121
-0.291298
-0.290158
-0.288651
-0.286847
-0.284826
-0.282659
-0.28041
-0.278136
-0.275882
-0.273675
-0.271531
-0.269448
-0.267414
-0.265407
-0.263463
-0.261431
-0.260264
-0.257148
-0.262966
-0.294551
-0.293591
-0.29233
-0.290692
-0.288752
-0.286595
-0.284293
-0.281915
-0.279516
-0.27714
-0.274814
-0.272549
-0.270341
-0.268173
-0.266019
-0.263907
-0.26168
-0.260194
-0.256776
-0.261062
-0.297137
-0.296026
-0.294635
-0.292857
-0.290774
-0.288475
-0.286036
-0.283525
-0.280998
-0.278497
-0.276046
-0.273652
-0.271305
-0.268983
-0.266653
-0.264332
-0.261857
-0.259969
-0.256209
-0.258939
-0.299885
-0.298609
-0.297077
-0.295153
-0.29292
-0.290475
-0.287893
-0.285246
-0.282587
-0.279956
-0.277373
-0.274839
-0.272338
-0.269841
-0.267304
-0.264732
-0.261958
-0.259608
-0.255481
-0.256722
-0.302801
-0.301344
-0.299663
-0.297584
-0.295196
-0.292598
-0.289871
-0.287083
-0.284288
-0.281521
-0.278798
-0.276111
-0.273437
-0.270738
-0.267962
-0.265098
-0.261982
-0.259131
-0.254618
-0.254487
-0.305891
-0.304237
-0.302398
-0.300157
-0.297606
-0.294852
-0.291974
-0.289042
-0.286106
-0.283196
-0.280321
-0.277466
-0.274597
-0.271668
-0.268618
-0.265423
-0.261927
-0.25855
-0.253642
-0.252272
-0.309159
-0.307293
-0.305287
-0.302876
-0.300156
-0.29724
-0.294208
-0.291127
-0.288043
-0.284982
-0.281942
-0.2789
-0.275813
-0.272623
-0.269263
-0.265701
-0.261791
-0.257877
-0.252567
-0.250098
-0.31261
-0.310517
-0.308334
-0.305746
-0.302852
-0.299769
-0.296578
-0.293343
-0.290104
-0.28688
-0.28366
-0.28041
-0.277075
-0.273592
-0.269888
-0.265925
-0.261573
-0.257117
-0.251403
-0.247966
-0.316247
-0.313913
-0.311544
-0.308771
-0.305697
-0.302444
-0.299089
-0.295693
-0.292291
-0.288891
-0.285472
-0.281988
-0.278376
-0.274565
-0.270481
-0.266085
-0.26127
-0.256276
-0.250157
-0.245872
-0.320075
-0.317484
-0.314921
-0.311957
-0.308698
-0.305268
-0.301744
-0.298181
-0.294604
-0.291012
-0.287372
-0.283628
-0.279706
-0.275531
-0.271033
-0.266177
-0.260879
-0.255353
-0.248833
-0.243805
-0.324094
-0.321232
-0.318468
-0.315307
-0.311857
-0.308247
-0.304547
-0.300808
-0.297044
-0.293242
-0.289356
-0.285319
-0.281051
-0.276477
-0.271531
-0.266191
-0.260398
-0.25435
-0.247432
-0.241751
-0.328307
-0.32516
-0.322186
-0.318823
-0.315178
-0.311382
-0.307501
-0.303575
-0.299609
-0.295575
-0.291414
-0.287051
-0.2824
-0.27739
-0.271966
-0.26612
-0.259823
-0.253264
-0.245954
-0.239695
-0.332715
-0.329269
-0.32608
-0.322509
-0.318664
-0.314677
-0.310606
-0.306481
-0.302295
-0.298003
-0.293537
-0.28881
-0.283739
-0.278257
-0.272327
-0.265958
-0.259151
-0.252092
-0.244398
-0.237623
-0.337316
-0.333559
-0.330148
-0.326365
-0.322316
-0.318132
-0.313863
-0.309525
-0.305096
-0.300519
-0.295712
-0.290583
-0.285052
-0.279064
-0.272602
-0.265697
-0.258378
-0.250833
-0.24276
-0.23552
-0.342109
-0.338029
-0.334391
-0.330393
-0.326135
-0.321748
-0.31727
-0.312702
-0.308006
-0.303111
-0.297924
-0.292353
-0.286323
-0.279798
-0.272782
-0.265331
-0.257501
-0.249481
-0.241038
-0.233374
-0.34709
-0.342677
-0.338809
-0.334591
-0.330121
-0.325523
-0.320822
-0.316004
-0.311014
-0.305766
-0.300159
-0.294103
-0.287537
-0.280444
-0.272856
-0.264852
-0.256515
-0.248034
-0.239229
-0.231173
-0.352256
-0.3475
-0.343397
-0.338957
-0.33427
-0.329453
-0.324516
-0.319425
-0.314108
-0.308467
-0.302397
-0.295815
-0.288676
-0.28099
-0.272815
-0.264256
-0.255416
-0.246486
-0.237329
-0.228907
-0.357599
-0.352492
-0.348152
-0.343488
-0.338578
-0.333533
-0.328341
-0.32295
-0.317273
-0.311197
-0.304621
-0.297471
-0.289725
-0.281422
-0.27265
-0.263534
-0.2542
-0.244834
-0.235332
-0.226566
-0.363111
-0.357646
-0.353068
-0.348178
-0.34304
-0.337754
-0.332287
-0.326568
-0.32049
-0.313937
-0.306808
-0.29905
-0.290667
-0.281729
-0.272352
-0.262683
-0.252862
-0.243073
-0.233236
-0.224141
-0.368783
-0.362954
-0.358137
-0.353018
-0.347647
-0.342107
-0.336342
-0.33026
-0.323741
-0.316663
-0.308938
-0.300533
-0.291486
-0.281897
-0.271911
-0.261695
-0.251398
-0.241198
-0.231034
-0.221625
-0.374601
-0.368406
-0.363349
-0.358
-0.352387
-0.346577
-0.340489
-0.334008
-0.327003
-0.319353
-0.310987
-0.3019
-0.292165
-0.281915
-0.271321
-0.260564
-0.249802
-0.239204
-0.228723
-0.21901
-0.380551
-0.373987
-0.368692
-0.363111
-0.357248
-0.351149
-0.344708
-0.337788
-0.330251
-0.321982
-0.312933
-0.303132
-0.292689
-0.281771
-0.270572
-0.259285
-0.24807
-0.237085
-0.226296
-0.216289
-0.386615
-0.379682
-0.374151
-0.368337
-0.362213
-0.355805
-0.348977
-0.341577
-0.333459
-0.324524
-0.314751
-0.304209
-0.293044
-0.281455
-0.269657
-0.25785
-0.246194
-0.234836
-0.223747
-0.213457
-0.392775
-0.385475
-0.37971
-0.373659
-0.367263
-0.360522
-0.353273
-0.345346
-0.336599
-0.326952
-0.316419
-0.305111
-0.293214
-0.280956
-0.268568
-0.256253
-0.24417
-0.23245
-0.221072
-0.210505
-0.399008
-0.391345
-0.385349
-0.379058
-0.372377
-0.365276
-0.357567
-0.349067
-0.339642
-0.329239
-0.317914
-0.30582
-0.293186
-0.280263
-0.267295
-0.254487
-0.241991
-0.229921
-0.218265
-0.207429
-0.405289
-0.397269
-0.391046
-0.38451
-0.377528
-0.370039
-0.361829
-0.352708
-0.342557
-0.331357
-0.319211
-0.306319
-0.292945
-0.279365
-0.265832
-0.252545
-0.23965
-0.227244
-0.215318
-0.204222
-0.411592
-0.403223
-0.396776
-0.389991
-0.38269
-0.374781
-0.366026
-0.356236
-0.345312
-0.333279
-0.320288
-0.306588
-0.292478
-0.278253
-0.264169
-0.25042
-0.23714
-0.22441
-0.212225
-0.200878
-0.417886
-0.409178
-0.402512
-0.395472
-0.387832
-0.379469
-0.370126
-0.359617
-0.347877
-0.334977
-0.321123
-0.306612
-0.291773
-0.276917
-0.262298
-0.248103
-0.234454
-0.221414
-0.208981
-0.197391
-0.424139
-0.415104
-0.408223
-0.400922
-0.392921
-0.384068
-0.37409
-0.362817
-0.350219
-0.336424
-0.321696
-0.306374
-0.290817
-0.275345
-0.26021
-0.245587
-0.231584
-0.218248
-0.205579
-0.193755
-0.430317
-0.42097
-0.413878
-0.406306
-0.39792
-0.388541
-0.377883
-0.365798
-0.352307
-0.337595
-0.321984
-0.305857
-0.289597
-0.273529
-0.257897
-0.242865
-0.228523
-0.214905
-0.202011
-0.189964
-0.436383
-0.426739
-0.41944
-0.411588
-0.402793
-0.392847
-0.381464
-0.368527
-0.354109
-0.338463
-0.321968
-0.305047
-0.288101
-0.271457
-0.25535
-0.239927
-0.225264
-0.211379
-0.198273
-0.186012
-0.442299
-0.432375
-0.424874
-0.41673
-0.407499
-0.396947
-0.384795
-0.370965
-0.355595
-0.339004
-0.321629
-0.303928
-0.286318
-0.269121
-0.25256
-0.236766
-0.221799
-0.207662
-0.194356
-0.181894
-0.448023
-0.437839
-0.430139
-0.421692
-0.411996
-0.400799
-0.387836
-0.373079
-0.356735
-0.339195
-0.320948
-0.302487
-0.284235
-0.26651
-0.249518
-0.233373
-0.21812
-0.203747
-0.190256
-0.177604
-0.453513
-0.44309
-0.435194
-0.426431
-0.416241
-0.40436
-0.390548
-0.374833
-0.3575
-0.339012
-0.319908
-0.300709
-0.281842
-0.263614
-0.246215
-0.229741
-0.21422
-0.199629
-0.185966
-0.173137
-0.458726
-0.448085
-0.439997
-0.430903
-0.420189
-0.407588
-0.39289
-0.376194
-0.357864
-0.338434
-0.318493
-0.298582
-0.279128
-0.260424
-0.242643
-0.225861
-0.210091
-0.195299
-0.18148
-0.168488
-0.463616
-0.452781
-0.444503
-0.435063
-0.423797
-0.410439
-0.394824
-0.377128
-0.357798
-0.33744
-0.316686
-0.296093
-0.276082
-0.256931
-0.238793
-0.221726
-0.205728
-0.190753
-0.176792
-0.163652
-0.468138
-0.457134
-0.448667
-0.438866
-0.427019
-0.412872
-0.396313
-0.377604
-0.35728
-0.336012
-0.314474
-0.293229
-0.272694
-0.253126
-0.234657
-0.217329
-0.201122
-0.185983
-0.171897
-0.158624
-0.472246
-0.461096
-0.452443
-0.442264
-0.42981
-0.414843
-0.397321
-0.377593
-0.356284
-0.334132
-0.31184
-0.28998
-0.268954
-0.248999
-0.230227
-0.212661
-0.196268
-0.180985
-0.166791
-0.1534
-0.475892
-0.464623
-0.455784
-0.445213
-0.432125
-0.416314
-0.397811
-0.377066
-0.35479
-0.331783
-0.308774
-0.286335
-0.264853
-0.244543
-0.225496
-0.207717
-0.191159
-0.175752
-0.161468
-0.147977
-0.479032
-0.467669
-0.458646
-0.447667
-0.433922
-0.417244
-0.397752
-0.375996
-0.352777
-0.328948
-0.305261
-0.282284
-0.260382
-0.23975
-0.220457
-0.20249
-0.18579
-0.170281
-0.155923
-0.142351
-0.481618
-0.470188
-0.460981
-0.44958
-0.435156
-0.417596
-0.397112
-0.374361
-0.350227
-0.325615
-0.301292
-0.277816
-0.255533
-0.234612
-0.215102
-0.196974
-0.180156
-0.164566
-0.150155
-0.136518
-0.483605
-0.472135
-0.462744
-0.450908
-0.435788
-0.417334
-0.395863
-0.372136
-0.347123
-0.321771
-0.296857
-0.272925
-0.250299
-0.229124
-0.209427
-0.191164
-0.174251
-0.158603
-0.144158
-0.130477
-0.484951
-0.473466
-0.463893
-0.451609
-0.435779
-0.416426
-0.393977
-0.369302
-0.34345
-0.317404
-0.291945
-0.267602
-0.244672
-0.223278
-0.203425
-0.185056
-0.168073
-0.15239
-0.13793
-0.124225
-0.485612
-0.474139
-0.464384
-0.451642
-0.435093
-0.414841
-0.391431
-0.365842
-0.339194
-0.312503
-0.28655
-0.261841
-0.238648
-0.217069
-0.197092
-0.178644
-0.161617
-0.145923
-0.131468
-0.11776
-0.485547
-0.474113
-0.464177
-0.450969
-0.433694
-0.41255
-0.388202
-0.361738
-0.334343
-0.307061
-0.280663
-0.255635
-0.23222
-0.210493
-0.190424
-0.171925
-0.154881
-0.1392
-0.124771
-0.11108
-0.484719
-0.473348
-0.463233
-0.449554
-0.431551
-0.409527
-0.384272
-0.356977
-0.328889
-0.30107
-0.27428
-0.24898
-0.225385
-0.203547
-0.183417
-0.164898
-0.147862
-0.132218
-0.117838
-0.104186
-0.48309
-0.471808
-0.461516
-0.447362
-0.428637
-0.405751
-0.379624
-0.351547
-0.322823
-0.294524
-0.267396
-0.241871
-0.218139
-0.196227
-0.17607
-0.157559
-0.140559
-0.124977
-0.110668
-0.0970807
-0.480628
-0.469459
-0.458994
-0.444365
-0.424925
-0.401202
-0.374245
-0.34544
-0.316139
-0.28742
-0.260007
-0.234307
-0.210479
-0.18853
-0.16838
-0.149907
-0.13297
-0.117474
-0.103258
-0.0897623
-0.477301
-0.46627
-0.455634
-0.440534
-0.420393
-0.395864
-0.368123
-0.338649
-0.308833
-0.279753
-0.252112
-0.226285
-0.202405
-0.180457
-0.160347
-0.141942
-0.125094
-0.10971
-0.0956074
-0.0822106
-0.473083
-0.462211
-0.451411
-0.435845
-0.415021
-0.389722
-0.36125
-0.331168
-0.300901
-0.271523
-0.243709
-0.217804
-0.193916
-0.172008
-0.151971
-0.133665
-0.116935
-0.101688
-0.087718
-0.0743956
-0.467947
-0.457258
-0.4463
-0.430278
-0.408795
-0.382766
-0.353619
-0.322995
-0.292344
-0.262729
-0.234799
-0.208867
-0.185012
-0.163182
-0.143254
-0.125077
-0.108493
-0.093412
-0.0795949
-0.0663528
-0.461874
-0.45139
-0.440281
-0.423816
-0.401703
-0.37499
-0.345229
-0.314129
-0.283163
-0.253374
-0.225384
-0.199473
-0.175697
-0.153982
-0.134196
-0.11618
-0.0997708
-0.0848797
-0.0712321
-0.0581789
-0.454845
-0.444587
-0.433336
-0.416446
-0.393734
-0.366389
-0.336078
-0.304573
-0.273359
-0.243461
-0.215468
-0.189627
-0.165972
-0.144411
-0.124802
-0.106978
-0.0907722
-0.0760984
-0.0626397
-0.0498094
-0.446848
-0.436835
-0.425453
-0.408157
-0.384885
-0.356963
-0.326168
-0.294331
-0.262938
-0.232995
-0.205053
-0.179333
-0.155841
-0.134473
-0.115075
-0.0974741
-0.0815007
-0.0670692
-0.0538272
-0.0412346
-0.437871
-0.428124
-0.416623
-0.398943
-0.375153
-0.346713
-0.315505
-0.283407
-0.251907
-0.22198
-0.194147
-0.168596
-0.145311
-0.124173
-0.105021
-0.0876733
-0.0719605
-0.0577972
-0.0447966
-0.0324573
-0.427909
-0.418446
-0.40684
-0.388804
-0.36454
-0.335644
-0.304095
-0.271811
-0.240273
-0.210426
-0.182757
-0.157422
-0.134387
-0.113518
-0.0946443
-0.0775812
-0.0621571
-0.0482876
-0.0355515
-0.0234836
-0.416959
-0.407798
-0.396101
-0.377738
-0.353051
-0.323764
-0.291948
-0.259552
-0.228046
-0.198342
-0.170891
-0.14582
-0.123077
-0.102514
-0.0839525
-0.0672043
-0.0520967
-0.0385463
-0.0260966
-0.0143197
-0.405023
-0.396181
-0.38441
-0.365753
-0.340694
-0.311083
-0.279076
-0.246643
-0.215238
-0.185738
-0.158558
-0.133801
-0.11139
-0.0911689
-0.0729535
-0.05655
-0.0417863
-0.0285799
-0.0164379
-0.00497232
-0.392105
-0.383598
-0.371771
-0.352856
-0.32748
-0.297616
-0.265492
-0.233097
-0.201861
-0.172627
-0.145772
-0.121372
-0.0993347
-0.0794928
-0.0616559
-0.0456267
-0.0312339
-0.0183957
-0.00658225
0.00455134
-0.378213
-0.370058
-0.358195
-0.339059
-0.313424
-0.283377
-0.251214
-0.218931
-0.187932
-0.159022
-0.132543
-0.108547
-0.086923
-0.0674958
-0.0500695
-0.0344436
-0.0204481
-0.00800198
0.00346248
0.0142437
-0.363362
-0.355573
-0.343694
-0.324378
-0.298543
-0.268386
-0.236259
-0.204161
-0.173465
-0.144937
-0.118886
-0.0953371
-0.0741665
-0.0551891
-0.0382049
-0.0230107
-0.00943852
0.00259243
0.0136878
0.0240964
-0.347566
-0.340157
-0.328285
-0.308831
-0.282857
-0.252664
-0.22065
-0.188808
-0.15848
-0.130391
-0.104816
-0.0817577
-0.0610782
-0.0425849
-0.0260736
-0.011339
0.00178452
0.0133777
0.0240843
0.0341007
-0.330846
-0.32383
-0.311988
-0.292439
-0.26639
-0.236233
-0.204407
-0.172892
-0.142994
-0.115399
-0.0903488
-0.0678233
-0.0476723
-0.0296964
-0.0136881
0.000559671
0.0132098
0.0243434
0.034642
0.0442467
-0.313224
-0.306615
-0.294827
-0.275229
-0.249168
-0.219121
-0.187553
-0.156435
-0.12703
-0.0999818
-0.0755019
-0.0535499
-0.0339635
-0.0165376
-0.0010617
0.0126728
0.0248254
0.0354782
0.0453499
0.054524
-0.294727
-0.288536
-0.276826
-0.257226
-0.231219
-0.201354
-0.170115
-0.139463
-0.110609
-0.0841588
-0.0602941
-0.0389547
-0.0199679
-0.00312341
0.0117917
0.0249871
0.0366186
0.0467699
0.0561964
0.0649208
-0.275384
-0.269622
-0.258016
-0.238462
-0.212574
-0.182956
-0.152125
-0.121999
-0.0937538
-0.0679515
-0.0447447
-0.0240557
-0.00570221
0.0105305
0.0248573
0.0374886
0.0485758
0.0582059
0.0671687
0.075424
-0.255226
-0.249905
-0.23843
-0.218977
-0.193252
-0.163964
-0.133608
-0.104073
-0.0764897
-0.0513823
-0.0288745
-0.00887195
0.00881606
0.0244078
0.0381199
0.0501625
0.060683
0.0697725
0.0782536
0.0860189
-0.234289
-0.22942
-0.218106
-0.198818
-0.173277
-0.144408
-0.114595
-0.0857106
-0.0588424
-0.0344747
-0.0127048
0.00657685
0.0235686
0.0384915
0.0515633
0.0629938
0.0729255
0.081456
0.0894366
0.0966885
-0.212608
-0.208204
-0.197076
-0.17795
-0.152756
-0.124327
-0.0951194
-0.0669427
-0.0408387
-0.0172532
0.00374174
0.0222701
0.0385364
0.0527641
0.0651715
0.0759669
0.0852882
0.0932418
0.100702
0.107411
-0.190224
-0.186298
-0.175378
-0.156479
-0.131669
-0.103757
-0.0752138
-0.0477995
-0.0225065
0.000256574
0.020442
0.0381863
0.0536998
0.0672074
0.0789276
0.0890663
0.0977559
0.105115
0.112032
0.118155
-0.167175
-0.163744
-0.153053
-0.134443
-0.110062
-0.0827327
-0.0549133
-0.0283127
-0.00387473
0.0180285
0.0373717
0.0543035
0.0690387
0.081803
0.0928148
0.102276
0.110313
0.117062
0.123408
0.128891
-0.143498
-0.140596
-0.130152
-0.111875
-0.0879796
-0.0612941
-0.0342535
-0.00851477
0.015027
0.0360353
0.0545062
0.070599
0.0845322
0.0965321
0.106816
0.11558
0.122945
0.129071
0.134824
0.139597
-0.119248
-0.116899
-0.106723
-0.0888197
-0.0654644
-0.0394805
-0.0132709
0.0115608
0.0341682
0.0542491
0.0718199
0.0870493
0.100159
0.111376
0.120915
0.128963
0.135637
0.141139
0.146278
0.150208
-0.0945198
-0.0926635
-0.0828086
-0.0653244
-0.0425608
-0.0173327
0.00799694
0.0318796
0.0535174
0.0726412
0.0892865
0.10363
0.115897
0.126314
0.135093
0.142409
0.14838
0.153276
0.15774
0.160484
-0.0693346
-0.0679562
-0.0584581
-0.0414356
-0.019314
0.00510758
0.0295118
0.0524067
0.0730427
0.0911825
0.106879
0.120318
0.131725
0.141326
0.149332
0.155903
0.161179
0.165497
0.169116
0.170091
-0.0437271
-0.0428419
-0.0337216
-0.0172016
0.00423027
0.0277979
0.0512346
0.0731066
0.0927114
0.109843
0.12457
0.137086
0.147618
0.156392
0.163613
0.169434
0.174036
0.177783
0.180297
0.17934
-0.0177542
-0.017373
-0.00865066
0.00732804
0.0280252
0.0506951
0.0731258
0.0939429
0.112491
0.128592
0.142332
0.15391
0.163553
0.171489
0.177916
0.182988
0.18693
0.190039
0.191191
0.190295
0.00852969
0.00839993
0.0167035
0.0321038
0.0520238
0.0737556
0.0951453
0.114879
0.132346
0.147399
0.160136
0.170762
0.179507
0.186594
0.192221
0.196544
0.199814
0.202239
0.202548
0.202019
0.0350679
0.0344225
0.0422871
0.0570744
0.0761783
0.0969351
0.117253
0.135878
0.152245
0.166232
0.177953
0.187616
0.195452
0.201684
0.206505
0.210078
0.212658
0.214385
0.21404
0.213482
0.0618037
0.0606398
0.0680463
0.0821884
0.10044
0.120189
0.139407
0.156902
0.172152
0.185061
0.195755
0.204446
0.211366
0.216736
0.220747
0.223565
0.225445
0.226484
0.225563
0.224784
0.0886804
0.0869963
0.0939267
0.107394
0.124762
0.143473
0.161568
0.177914
0.192033
0.203853
0.213511
0.221223
0.227222
0.231725
0.234923
0.236983
0.238156
0.238515
0.237035
0.235923
0.115641
0.113436
0.119874
0.132639
0.149094
0.166743
0.183693
0.198876
0.211853
0.222576
0.231192
0.237921
0.242994
0.246628
0.24901
0.25031
0.250772
0.250453
0.248413
0.246893
0.142627
0.139903
0.145833
0.157872
0.173389
0.189952
0.205743
0.219751
0.231578
0.241199
0.24877
0.254513
0.258658
0.26142
0.262986
0.263524
0.263272
0.262277
0.259668
0.257691
0.169583
0.16634
0.171749
0.183041
0.197597
0.213058
0.227676
0.240501
0.251174
0.25969
0.266214
0.27097
0.274187
0.276079
0.276829
0.276604
0.275637
0.273966
0.27078
0.268314
0.19645
0.192692
0.197567
0.208094
0.221671
0.236015
0.249451
0.261088
0.270605
0.278016
0.283495
0.287266
0.289558
0.290581
0.290517
0.28953
0.287849
0.285502
0.281735
0.278754
0.223171
0.218901
0.223233
0.232978
0.245562
0.258779
0.271028
0.281476
0.289838
0.296148
0.300584
0.303375
0.304745
0.304903
0.304028
0.302283
0.299888
0.296868
0.292517
0.289007
0.249689
0.244912
0.248693
0.257644
0.269224
0.281307
0.292367
0.301627
0.308839
0.314052
0.317453
0.319268
0.319723
0.319022
0.317341
0.314843
0.311739
0.308048
0.303115
0.299063
0.275948
0.270669
0.273893
0.28204
0.292609
0.303555
0.313428
0.321506
0.327575
0.331699
0.334073
0.334921
0.334469
0.332916
0.330437
0.327191
0.323383
0.319027
0.313514
0.308916
0.301891
0.296118
0.29878
0.306117
0.31567
0.325481
0.334172
0.341076
0.346011
0.349059
0.350415
0.350308
0.348957
0.346563
0.343294
0.339308
0.334804
0.32979
0.323704
0.318554
0.327465
0.321204
0.323302
0.329826
0.338363
0.347042
0.35456
0.360302
0.364117
0.3661
0.366452
0.365402
0.363166
0.359941
0.355893
0.351178
0.345986
0.340323
0.333671
0.327969
0.352614
0.345873
0.347408
0.353117
0.360643
0.368199
0.374555
0.379149
0.381859
0.382794
0.382158
0.380179
0.377071
0.373028
0.368214
0.362781
0.356912
0.350611
0.343402
0.33715
0.377285
0.370075
0.371047
0.375945
0.382465
0.388909
0.394119
0.397584
0.399207
0.399111
0.397505
0.394614
0.390651
0.385805
0.380239
0.374101
0.367567
0.36064
0.352886
0.346087
0.401426
0.393756
0.394169
0.398261
0.403786
0.409134
0.413217
0.415571
0.41613
0.415024
0.412467
0.408683
0.403882
0.398251
0.391949
0.38512
0.377936
0.370396
0.362109
0.35477
0.424986
0.416867
0.416728
0.420022
0.424565
0.428835
0.431812
0.433081
0.432597
0.430505
0.427019
0.422363
0.416744
0.410346
0.403325
0.395822
0.388003
0.379866
0.371059
0.363187
0.447915
0.43936
0.438675
0.441183
0.444762
0.447975
0.449871
0.450079
0.44858
0.445526
0.441135
0.43563
0.429215
0.422071
0.414349
0.406191
0.397753
0.389036
0.379724
0.371328
0.470165
0.461187
0.459965
0.461701
0.464336
0.466517
0.46736
0.466537
0.46405
0.460062
0.454793
0.448464
0.441275
0.433406
0.425006
0.416211
0.407173
0.397894
0.388092
0.379183
0.49169
0.482301
0.480555
0.481536
0.483249
0.484427
0.484247
0.482423
0.47898
0.474088
0.467969
0.460841
0.452905
0.444334
0.435277
0.425866
0.416247
0.406425
0.396151
0.386741
0.512443
0.502659
0.500402
0.500647
0.501465
0.50167
0.500501
0.497711
0.493344
0.487579
0.480639
0.472742
0.464084
0.454838
0.445147
0.435143
0.424964
0.414618
0.403889
0.393993
0.532382
0.522218
0.519465
0.518997
0.518948
0.518213
0.516091
0.51237
0.507115
0.500512
0.492784
0.484147
0.474796
0.464899
0.4546
0.444026
0.433309
0.422462
0.411296
0.400929
0.551464
0.540938
0.537705
0.536547
0.535665
0.534027
0.530989
0.526377
0.52027
0.512864
0.50438
0.495036
0.485021
0.474503
0.463621
0.452501
0.44127
0.429943
0.41836
0.40754
0.569651
0.558778
0.555084
0.553265
0.551582
0.54908
0.545168
0.539704
0.532786
0.524613
0.51541
0.50539
0.494743
0.483633
0.472196
0.460556
0.448835
0.437051
0.425072
0.413816
0.586903
0.575701
0.571567
0.569115
0.566669
0.563344
0.558601
0.552328
0.54464
0.53574
0.525854
0.515194
0.503947
0.492274
0.480311
0.468178
0.455992
0.443776
0.431421
0.419749
0.603186
0.591674
0.587121
0.584068
0.580898
0.576794
0.571264
0.564227
0.55581
0.546224
0.535693
0.524429
0.512616
0.500413
0.487954
0.475355
0.46273
0.450106
0.437397
0.425331
0.618464
0.606661
0.601713
0.598092
0.59424
0.589403
0.583133
0.575378
0.566279
0.556048
0.544912
0.533081
0.520736
0.508036
0.495111
0.482076
0.469039
0.456034
0.442993
0.430555
0.632708
0.620633
0.615314
0.611161
0.60667
0.601147
0.594188
0.585763
0.576025
0.565194
0.553494
0.541134
0.528295
0.515131
0.501771
0.48833
0.47491
0.461549
0.448199
0.435413
0.645887
0.633561
0.627896
0.623249
0.618165
0.612006
0.604406
0.595361
0.585034
0.573646
0.561425
0.548576
0.535278
0.521685
0.507925
0.494107
0.480333
0.466643
0.453007
0.439898
0.657973
0.645417
0.639434
0.634331
0.628701
0.621958