/*--------------------------------*- C++ -*----------------------------------*\
  =========                 |
  \\      /  F ield         | OpenFOAM: The Open Source CFD Toolbox
   \\    /   O peration     | Website:  https://openfoam.org
    \\  /    A nd           | Version:  7
     \\/     M anipulation  |
\*---------------------------------------------------------------------------*/
FoamFile
{
    version     2.0;
    format      ascii;
    class       surfaceScalarField;
    location    "65";
    object      phi;
}
// * * * * * * * * * * * * * * * * * * * * * * * * * * * * * * * * * * * * * //

dimensions      [0 3 -1 0 0 0 0];

internalField   nonuniform List<scalar> 
67470
(
-8.76416e-07
8.01708e-06
-7.14066e-06
-3.30365e-06
2.24256e-05
-1.99983e-05
-7.15432e-06
3.58192e-05
-3.19685e-05
-1.23005e-05
4.81405e-05
-4.29943e-05
-1.86149e-05
5.93715e-05
-5.30572e-05
-2.59726e-05
6.95403e-05
-6.21827e-05
-3.42529e-05
7.8719e-05
-7.04386e-05
-4.33416e-05
8.70224e-05
-7.79337e-05
-5.31333e-05
9.4603e-05
-8.48112e-05
-6.35345e-05
0.000101642
-9.12404e-05
-7.44662e-05
0.000108337
-9.74053e-05
-8.58672e-05
0.000114894
-0.000103493
-9.76976e-05
0.000121513
-0.000109683
-0.000109942
0.000128383
-0.000116138
-0.000122611
0.000135669
-0.000123
-0.000135747
0.000143517
-0.000130381
-0.000149419
0.000152044
-0.000138372
-0.000163727
0.00016134
-0.000147032
-0.000178791
0.000171458
-0.000156394
0.000182426
-0.000166459
-0.000194758
-8.48795e-07
8.86587e-06
-3.20419e-06
2.4781e-05
-6.94619e-06
3.95612e-05
-1.19532e-05
5.31475e-05
-1.81031e-05
6.55215e-05
-2.52751e-05
7.67123e-05
-3.33513e-05
8.67952e-05
-4.22194e-05
9.58904e-05
-5.17745e-05
0.000104158
-6.19227e-05
0.00011179
-7.25832e-05
0.000118998
-8.36926e-05
0.000126003
-9.52074e-05
0.000133028
-0.000107108
0.000140283
-0.000119401
0.000147962
-0.000132123
0.000156239
-0.000145339
0.00016526
-0.000159146
0.000175146
-0.00017366
0.000185973
0.000197796
-0.00018903
-8.18896e-07
9.68477e-06
-3.09619e-06
2.70583e-05
-6.7195e-06
4.31845e-05
-1.15736e-05
5.80016e-05
-1.75417e-05
7.14895e-05
-2.45067e-05
8.36774e-05
-3.23537e-05
9.46421e-05
-4.09713e-05
0.000104508
-5.02551e-05
0.000113442
-6.01097e-05
0.000121644
-7.04523e-05
0.00012934
-8.12154e-05
0.000136767
-9.23512e-05
0.000144164
-0.000103834
0.000151766
-0.000115666
0.000159794
-0.000127875
0.000168448
-0.000140524
0.000177908
-0.000153702
0.000188324
-0.000167525
0.000199796
0.00021241
-0.00018214
-7.86936e-07
1.04717e-05
-2.98043e-06
2.92518e-05
-6.47581e-06
4.66799e-05
-1.11643e-05
6.26901e-05
-1.69341e-05
7.72593e-05
-2.36721e-05
9.04154e-05
-3.12655e-05
0.000102236
-3.96042e-05
0.000112847
-4.85831e-05
0.000122421
-5.8105e-05
0.000131166
-6.80838e-05
0.000139319
-7.84474e-05
0.00014713
-8.9142e-05
0.000154859
-0.000100135
0.00016276
-0.000111421
0.00017108
-0.000123022
0.000180049
-0.000134991
0.000189878
-0.000147415
0.000200748
-0.000160406
0.000212787
0.000226113
-0.000174109
-7.53167e-07
1.12249e-05
-2.85774e-06
3.13563e-05
-6.2168e-06
5.00389e-05
-1.07279e-05
6.72012e-05
-1.62843e-05
8.28157e-05
-2.27764e-05
9.69074e-05
-3.00933e-05
0.000109553
-3.81258e-05
0.000120879
-4.67676e-05
0.000131063
-5.59191e-05
0.000140318
-6.54898e-05
0.00014889
-7.54022e-05
0.000157043
-8.55952e-05
0.000165052
-9.60285e-05
0.000173193
-0.000106687
0.000181738
-0.000117583
0.000190946
-0.000128765
0.000201059
-0.00014031
0.000212293
-0.000152329
0.000224806
0.000238749
-0.000164965
-7.17854e-07
1.19427e-05
-2.72907e-06
3.33676e-05
-5.94437e-06
5.32542e-05
-1.02676e-05
7.15244e-05
-1.55966e-05
8.81448e-05
-2.18251e-05
0.000103136
-2.88443e-05
0.000116572
-3.65446e-05
0.00012858
-4.48188e-05
0.000139337
-5.35637e-05
0.000149063
-6.2684e-05
0.00015801
-7.20953e-05
0.000166454
-8.17282e-05
0.000174685
-9.15328e-05
0.000182998
-0.000101483
0.000191688
-0.000111583
0.000201045
-0.000121868
0.000211344
-0.000132412
0.000222837
-0.000143321
0.000235715
0.000250166
-0.000154737
-6.81291e-07
1.2624e-05
-2.5954e-06
3.52817e-05
-5.66051e-06
5.63193e-05
-9.78641e-06
7.56503e-05
-1.48755e-05
9.32339e-05
-2.08245e-05
0.000109085
-2.7526e-05
0.000123273
-3.48702e-05
0.000135924
-4.27477e-05
0.000147214
-5.10518e-05
0.000157367
-5.96811e-05
0.000166639
-6.85436e-05
0.000175316
-7.75602e-05
0.000183701
-8.66699e-05
0.000192107
-9.58347e-05
0.000200853
-0.000105046
0.000210257
-0.00011433
0.000220628
-0.000123752
0.000232259
-0.000133415
0.000245378
0.000260211
-0.00014346
-6.43782e-07
1.32678e-05
-2.45779e-06
3.70957e-05
-5.36736e-06
5.92289e-05
-9.28793e-06
7.95709e-05
-1.41261e-05
9.80721e-05
-1.97811e-05
0.00011474
-2.61466e-05
0.000129639
-3.31124e-05
0.00014289
-4.05664e-05
0.000154668
-4.83973e-05
0.000165198
-5.64973e-05
0.000174739
-6.47656e-05
0.000183585
-7.31121e-05
0.000192048
-8.14632e-05
0.000200458
-8.97673e-05
0.000209157
-9.80022e-05
0.000218492
-0.000106182
0.000228808
-0.000114363
0.000240441
-0.000122645
0.000253659
0.000268737
-0.000131172
-6.05648e-07
1.38734e-05
-2.31734e-06
3.88074e-05
-5.06715e-06
6.19787e-05
-8.77572e-06
8.32794e-05
-1.33534e-05
0.00010265
-1.87017e-05
0.000120088
-2.47149e-05
0.000135652
-3.12817e-05
0.000149456
-3.82872e-05
0.000161674
-4.56148e-05
0.000172525
-5.31496e-05
0.000182274
-6.07806e-05
0.000191216
-6.8406e-05
0.000199673
-7.59378e-05
0.00020799
-8.33089e-05
0.000216528
-9.04816e-05
0.000225664
-9.74559e-05
0.000235782
-0.000104279
0.000247264
-0.000111048
0.000260428
0.000275599
-0.00011791
-5.67216e-07
1.44407e-05
-2.17518e-06
4.04153e-05
-4.76216e-06
6.45657e-05
-8.25347e-06
8.67708e-05
-1.25628e-05
0.000106959
-1.75933e-05
0.000125119
-2.32397e-05
0.000141298
-2.9389e-05
0.000155606
-3.5923e-05
0.000168208
-4.27195e-05
0.000179322
-4.96553e-05
0.00018921
-5.6609e-05
0.000198169
-6.3465e-05
0.000206529
-7.01198e-05
0.000214645
-7.64887e-05
0.000222897
-8.25163e-05
0.000231692
-8.8187e-05
0.000241453
-9.35379e-05
0.000252615
-9.86628e-05
0.000265553
0.000280651
-0.000103715
-5.28819e-07
1.49695e-05
-2.03247e-06
4.1919e-05
-4.45471e-06
6.6988e-05
-7.72496e-06
9.0041e-05
-1.17595e-05
0.000110994
-1.64631e-05
0.000129822
-2.17299e-05
0.000146565
-2.74453e-05
0.000161321
-3.3487e-05
0.000174249
-3.97268e-05
0.000185562
-4.60325e-05
0.000195516
-5.22712e-05
0.000204408
-5.83127e-05
0.000212571
-6.40358e-05
0.000220368
-6.93365e-05
0.000228198
-7.41393e-05
0.000236495
-7.84106e-05
0.000245725
-8.21758e-05
0.00025638
-8.5527e-05
0.000268905
0.000283748
-8.8625e-05
-4.90789e-07
1.54603e-05
-1.89034e-06
4.33185e-05
-4.14713e-06
6.92448e-05
-7.19391e-06
9.30878e-05
-1.09491e-05
0.000114749
-1.53182e-05
0.000134191
-2.01946e-05
0.000151441
-2.54615e-05
0.000166588
-3.09921e-05
0.00017978
-3.66517e-05
0.000191221
-4.22987e-05
0.000201163
-4.77876e-05
0.000209897
-5.29723e-05
0.000217755
-5.77124e-05
0.000225108
-6.18822e-05
0.000232368
-6.53834e-05
0.000239996
-6.81621e-05
0.000248503
-7.02298e-05
0.000258448
-7.16782e-05
0.000270353
0.000284748
-7.26775e-05
-4.53455e-07
1.59137e-05
-1.74992e-06
4.4615e-05
-3.84168e-06
7.13365e-05
-6.66402e-06
9.59101e-05
-1.01368e-05
0.000118222
-1.41654e-05
0.00013822
-1.86425e-05
0.000155919
-2.34481e-05
0.000171394
-2.84509e-05
0.000184783
-3.3509e-05
0.000196279
-3.84709e-05
0.000206125
-4.31777e-05
0.000214604
-4.74662e-05
0.000222044
-5.11751e-05
0.000228817
-5.41545e-05
0.000235347
-5.62804e-05
0.000242122
-5.74753e-05
0.000249698
-5.77351e-05
0.000258708
-5.7151e-05
0.000269769
0.000283501
-5.59046e-05
-4.17132e-07
1.63309e-05
-1.61231e-06
4.58102e-05
-3.54057e-06
7.32648e-05
-6.13883e-06
9.85084e-05
-9.32748e-06
0.00012141
-1.30116e-05
0.000141904
-1.70819e-05
0.000159989
-2.14152e-05
0.000175727
-2.58752e-05
0.000189243
-3.03124e-05
0.000200717
-3.45649e-05
0.000210377
-3.84595e-05
0.000218498
-4.1815e-05
0.000225399
-4.44473e-05
0.000231449
-4.61797e-05
0.00023708
-4.68594e-05
0.000242801
-4.63815e-05
0.00024922
-4.47237e-05
0.00025705
-4.19769e-05
0.000267022
0.000279857
-3.83328e-05
-3.82124e-07
1.6713e-05
-1.47854e-06
4.69066e-05
-3.24589e-06
7.50321e-05
-5.62168e-06
0.000100884
-8.52603e-06
0.000124315
-1.18628e-05
0.000145241
-1.55204e-05
0.000163646
-1.9372e-05
0.000179578
-2.32757e-05
0.000193147
-2.70742e-05
0.000204515
-3.05945e-05
0.000213897
-3.36488e-05
0.000221553
-3.60366e-05
0.000227787
-3.75492e-05
0.000232962
-3.79808e-05
0.000237511
-3.71455e-05
0.000241966
-3.4907e-05
0.000246982
-3.12214e-05
0.000253364
-2.61862e-05
0.000261987
0.000273655
-1.99845e-05
-3.48713e-07
1.70617e-05
-1.34957e-06
4.79074e-05
-2.95955e-06
7.66421e-05
-5.11564e-06
0.00010304
-7.73674e-06
0.000126936
-1.07247e-05
0.000148229
-1.3965e-05
0.000166887
-1.73266e-05
0.00018294
-2.06616e-05
0.000196482
-2.38046e-05
0.000207658
-2.65712e-05
0.000216664
-2.87584e-05
0.00022374
-3.01451e-05
0.000229174
-3.04968e-05
0.000233314
-2.95752e-05
0.00023659
-2.71576e-05
0.000239549
-2.30705e-05
0.000242894
-1.72405e-05
0.000247534
-9.78231e-06
0.000254529
0.000265107
-1.23395e-06
-3.17157e-07
1.73789e-05
-1.22628e-06
4.88166e-05
-2.68329e-06
7.80991e-05
-4.62346e-06
0.00010498
-6.96342e-06
0.000129276
-9.60214e-06
0.000150868
-1.24214e-05
0.000169706
-1.52855e-05
0.000185804
-1.80403e-05
0.000199236
-2.05115e-05
0.000210129
-2.25033e-05
0.000218656
-2.37967e-05
0.000225033
-2.41496e-05
0.000229527
-2.32997e-05
0.000232464
-2.09735e-05
0.000234264
-1.69066e-05
0.000235482
-1.08815e-05
0.000236869
-2.78898e-06
0.000239442
7.30745e-06
0.000244432
0.000253423
1.89915e-05
-2.87685e-07
1.76665e-05
-1.10942e-06
4.96383e-05
-2.41861e-06
7.94083e-05
-4.14747e-06
0.000106709
-6.20923e-06
0.000131337
-8.49905e-06
0.000153158
-1.08943e-05
0.000172101
-1.32539e-05
0.000188164
-1.54168e-05
0.000201399
-1.71998e-05
0.000211912
-1.83951e-05
0.000219851
-1.87675e-05
0.000225406
-1.8053e-05
0.000228812
-1.596e-05
0.000230371
-1.21772e-05
0.000230481
-6.39352e-06
0.000229698
1.66046e-06
0.000228815
1.21366e-05
0.000228966
2.49574e-05
0.000231611
0.00023866
3.97209e-05
-2.60492e-07
1.7927e-05
-9.99655e-07
5.03775e-05
-2.16674e-06
8.05754e-05
-3.68954e-06
0.000108232
-5.47665e-06
0.000133124
-7.41835e-06
0.000155099
-9.3867e-06
0.000174069
-1.12345e-05
0.000190012
-1.27934e-05
0.000202958
-1.38707e-05
0.00021299
-1.42464e-05
0.000220227
-1.36685e-05
0.000224828
-1.18506e-05
0.000226994
-8.4706e-06
0.000226991
-3.17667e-06
0.000225187
4.39381e-06
0.000222128
1.45703e-05
0.000218639
2.75599e-05
0.000215976
4.33062e-05
0.000215865
0.000220628
6.13379e-05
-2.35736e-07
1.81628e-05
-8.97467e-07
5.10392e-05
-1.92862e-06
8.16065e-05
-3.25102e-06
0.000109555
-4.76731e-06
0.000134641
-6.36174e-06
0.000156694
-7.90007e-06
0.000175608
-9.22817e-06
0.00019134
-1.01695e-05
0.000203899
-1.05216e-05
0.000213342
-1.00514e-05
0.000219756
-8.49029e-06
0.000223267
-5.52862e-06
0.000224033
-8.12878e-07
0.000222275
6.05164e-06
0.000218322
1.5484e-05
0.000212695
2.78826e-05
0.00020624
4.3524e-05
0.000200335
6.23855e-05
0.000197004
0.000199083
8.39304e-05
-2.13534e-07
1.83763e-05
-8.03205e-07
5.16289e-05
-1.70482e-06
8.25081e-05
-2.83265e-06
0.000110682
-4.08193e-06
0.00013589
-5.32961e-06
0.000157941
-6.43399e-06
0.000176712
-7.23299e-06
0.000192139
-7.5411e-06
0.000204208
-7.14514e-06
0.000212946
-5.79875e-06
0.00021841
-3.21579e-06
0.000220684
9.3673e-07
0.00021988
7.04463e-06
0.000216167
1.55474e-05
0.00020982
2.69248e-05
0.000201318
4.16537e-05
0.000191511
6.00957e-05
0.000181893
8.22801e-05
0.000174819
0.000173749
0.000107614
-1.93954e-07
1.85703e-05
-7.17044e-07
5.2152e-05
-1.49557e-06
8.32867e-05
-2.43455e-06
0.000111621
-3.42025e-06
0.000136876
-4.32091e-06
0.000158842
-4.98605e-06
0.000177377
-5.24441e-06
0.000192397
-4.90041e-06
0.000203864
-3.72918e-06
0.000211774
-1.47017e-06
0.000216151
2.18082e-06
0.000217033
7.58069e-06
0.00021448
1.51481e-05
0.0002086
2.53686e-05
0.000199599
3.87867e-05
0.0001879
5.5966e-05
0.000174332
7.7371e-05
0.000160488
0.000103106
0.000149084
0.000144314
0.000132541
-1.77019e-07
1.87473e-05
-6.38973e-07
5.26139e-05
-1.30069e-06
8.39484e-05
-2.05613e-06
0.000112377
-2.78094e-06
0.000137601
-3.33303e-06
0.000159394
-3.55166e-06
0.000177596
-3.25494e-06
0.0001921
-2.23578e-06
0.000202844
-2.56295e-07
0.000209795
2.95944e-06
0.000212935
7.73461e-06
0.000212257
1.44507e-05
0.000207764
2.35596e-05
0.000199491
3.55938e-05
0.000187565
5.1165e-05
0.000172328
7.09316e-05
0.000154566
9.54786e-05
0.000135941
0.000125014
0.000119548
0.000110427
0.000158902
-1.62698e-07
1.891e-05
-5.68786e-07
5.302e-05
-1.11958e-06
8.44992e-05
-1.69607e-06
0.000112953
-2.16149e-06
0.000138066
-2.36171e-06
0.000159594
-2.12398e-06
0.000177358
-1.25401e-06
0.00019123
4.68567e-07
0.000201122
3.29639e-06
0.000206967
7.52243e-06
0.000208709
1.34903e-05
0.00020629
2.1607e-05
0.000199647
3.23583e-05
0.000188739
4.63234e-05
0.0001736
6.41828e-05
0.000154469
8.66952e-05
0.000132053
0.000114584
0.000108052
0.000148192
8.59398e-05
7.16963e-05
0.000186923
-1.50903e-07
1.90609e-05
-5.06067e-07
5.33752e-05
-9.51171e-07
8.49443e-05
-1.35226e-06
0.000113354
-1.55823e-06
0.000138272
-1.40098e-06
0.000159437
-6.93769e-07
0.000176651
7.72158e-07
0.000189764
3.23263e-06
0.000198661
6.95733e-06
0.000203242
1.22585e-05
0.000203408
1.95023e-05
0.000199046
2.91228e-05
0.000190027
4.164e-05
0.000176222
5.76803e-05
0.00015756
7.79916e-05
0.000134158
0.000103437
0.000106608
0.000134891
7.65975e-05
0.000172868
4.79628e-05
2.7698e-05
0.000216867
-1.41489e-07
1.92024e-05
-4.50181e-07
5.36839e-05
-7.93935e-07
8.5288e-05
-1.02177e-06
0.000113582
-9.6621e-07
0.000138216
-4.43049e-07
0.000158914
7.50671e-07
0.000175457
2.8406e-06
0.000187675
6.0807e-06
0.000195421
1.07606e-05
0.000198563
1.72147e-05
0.000196954
2.58345e-05
0.000190426
3.70836e-05
0.000178778
5.15176e-05
0.000161788
6.98088e-05
0.000139268
9.27714e-05
0.000111195
0.00012137
7.80092e-05
0.000156644
4.13239e-05
0.000199308
5.29893e-06
-2.20232e-05
0.000249029
-1.34247e-07
1.93366e-05
-4.00258e-07
5.39499e-05
-6.45836e-07
8.55336e-05
-7.00825e-07
0.000113637
-3.79162e-07
0.000137895
5.21725e-07
0.000158013
2.22355e-06
0.000173755
4.97168e-06
0.000184926
9.04136e-06
0.000191352
1.47456e-05
0.000192858
2.24449e-05
0.000189255
3.25598e-05
0.000180311
4.55866e-05
0.000165751
6.21185e-05
0.000145256
8.28735e-05
0.000118513
0.000108728
8.53409e-05
0.000140743
4.59939e-05
0.000180123
1.94411e-06
0.000227813
-4.23912e-05
-7.79394e-05
0.000283729
-1.28903e-07
1.94655e-05
-3.55189e-07
5.41762e-05
-5.04322e-07
8.56827e-05
-3.84738e-07
0.000113518
2.10518e-07
0.000137299
1.50488e-06
0.000156719
3.74164e-06
0.000171519
7.18907e-06
0.000181479
1.21474e-05
0.000186393
1.89571e-05
0.000186049
2.80096e-05
0.000180202
3.97591e-05
0.000168562
5.4739e-05
0.000150771
7.35831e-05
0.000126412
9.70552e-05
9.50411e-05
0.000126088
5.63077e-05
0.00016183
1.0252e-05
0.000205641
-4.1867e-05
0.000258717
-9.54666e-05
-0.000140523
0.000321301
-1.25116e-07
1.95906e-05
-3.13613e-07
5.43647e-05
-3.66305e-07
8.57354e-05
-6.78943e-08
0.000113219
8.1181e-07
0.00013642
2.51991e-06
0.000155011
5.32428e-06
0.000168714
9.51972e-06
0.000177284
1.54356e-05
0.000180477
2.3445e-05
0.000178039
3.39751e-05
0.000169672
4.75201e-05
0.000155017
6.4656e-05
0.000133635
8.60613e-05
0.000105007
0.000112546
6.85562e-05
0.000145095
2.37592e-05
0.000184925
-2.95783e-05
0.000233534
-9.04758e-05
0.00029237
-0.000154303
-0.000210224
0.000362071
-1.22471e-07
1.97131e-05
-2.73912e-07
5.45161e-05
-2.28157e-07
8.56897e-05
2.56142e-07
0.000112735
1.4351e-06
0.000135241
3.58221e-06
0.000152863
6.99337e-06
0.000165303
1.19938e-05
0.000172283
1.89468e-05
0.000173524
2.82633e-05
0.000168723
4.04129e-05
0.000157522
5.5936e-05
0.000139494
7.54583e-05
0.000114113
9.97083e-05
8.07568e-05
0.000129544
3.87204e-05
0.000165994
-1.26911e-05
0.000210328
-7.3912e-05
0.000264143
-0.000144291
0.00032913
-0.000219289
-0.000287436
0.000406341
-1.20482e-07
1.98336e-05
-2.34204e-07
5.46298e-05
-8.56759e-08
8.55411e-05
5.94902e-07
0.000112054
2.09219e-06
0.000133744
4.70917e-06
0.000150246
8.77335e-06
0.000161239
1.46448e-05
0.000166412
2.27256e-05
0.000165444
3.34707e-05
0.000157978
4.73988e-05
0.000143594
6.51043e-05
0.000121788
8.72698e-05
9.19474e-05
0.000114681
5.33461e-05
0.000148245
5.15611e-06
0.00018903
-5.34763e-05
0.000238332
-0.000123214
0.0002978
-0.000203759
0.000369335
-0.000290824
-0.000372458
0.000454357
-1.18593e-07
1.99522e-05
-1.92351e-07
5.47036e-05
6.58518e-08
8.52829e-05
9.56735e-07
0.000111163
2.79622e-06
0.000131904
5.92004e-06
0.000147123
1.06911e-05
0.000156468
1.75088e-05
0.000159594
2.68198e-05
0.000156133
3.91291e-05
0.000145668
5.5012e-05
0.000127712
7.51246e-05
0.000101675
0.000100215
6.68574e-05
0.000131131
2.24301e-05
0.000168835
-3.25481e-05
0.000214427
-9.90683e-05
0.000269205
-0.000177993
0.000334806
-0.000269359
0.000413287
-0.000369305
-0.000465452
0.000506281
-1.16169e-07
2.00683e-05
-1.45955e-07
5.47334e-05
2.31697e-07
8.49053e-05
1.35092e-06
0.000110044
3.56172e-06
0.000129693
7.23591e-06
0.000143448
1.27759e-05
0.000150928
2.06252e-05
0.000151745
3.12805e-05
0.000145477
4.53038e-05
0.000131645
6.3334e-05
0.000109681
8.60971e-05
7.89122e-05
0.000114414
3.85407e-05
0.000149203
-1.23591e-05
0.000191484
-7.48289e-05
0.000242383
-0.000149967
0.000303175
-0.000238785
0.000375403
-0.000341588
0.000461226
-0.000455129
-0.000566386
0.00056216
-1.12507e-07
2.01808e-05
-9.23703e-08
5.47132e-05
4.17657e-07
8.43953e-05
1.78758e-06
0.000108674
4.40443e-06
0.000127076
8.67957e-06
0.000139173
1.5059e-05
0.000144549
2.40355e-05
0.000142768
3.61615e-05
0.000133351
5.20622e-05
0.000115744
7.24476e-05
8.92959e-05
9.8121e-05
5.32388e-05
0.000129983
6.67853e-06
0.000169029
-5.14052e-05
0.000216338
-0.000122137
0.000273055
-0.000206685
0.000340409
-0.000306139
0.000419765
-0.000420944
0.000513305
-0.000548669
-0.000674974
0.000621893
-1.06837e-07
2.02877e-05
-2.85992e-08
5.4635e-05
6.29971e-07
8.37367e-05
2.27762e-06
0.000107027
5.34125e-06
0.000124013
1.02753e-05
0.000134239
1.75738e-05
0.00013725
2.77834e-05
0.000132558
4.15183e-05
0.000119616
5.94732e-05
9.77894e-05
8.24355e-05
6.63336e-05
0.000111292
2.43822e-05
0.00014703
-2.90589e-05
0.000190723
-9.50986e-05
0.00024351
-0.000174924
0.000306553
-0.000269727
0.000381006
-0.000380592
0.000467973
-0.00050791
0.000569576
-0.000650272
-0.000790617
0.000685219
-9.83645e-08
2.03861e-05
4.80287e-08
5.44886e-05
8.75243e-07
8.29095e-05
2.83259e-06
0.000105069
6.39003e-06
0.000120455
1.20488e-05
0.00012858
2.03549e-05
0.000128944
3.19144e-05
0.000120999
4.7408e-05
0.000104123
6.7606e-05
7.75914e-05
9.33783e-05
4.05613e-05
0.0001257
-7.93972e-06
0.000165647
-6.90057e-05
0.000214374
-0.000143826
0.000273077
-0.000233627
0.000342923
-0.000339573
0.000424975
-0.000462644
0.000520007
-0.000602942
0.000629981
-0.000760246
-0.000912355
0.00075172
-8.61956e-08
2.04722e-05
1.41074e-07
5.42613e-05
1.16047e-06
8.18901e-05
3.46458e-06
0.000102765
7.56936e-06
0.000116351
1.40264e-05
0.000122123
2.34382e-05
0.000119532
3.64744e-05
0.000107963
5.38878e-05
8.67094e-05
7.65284e-05
5.49509e-05
0.000105353
1.17368e-05
0.000141426
-4.40134e-05
0.000185913
-0.000113492
0.000240045
-0.000197958
0.000305068
-0.00029865
0.000382145
-0.00041665
0.000472226
-0.000552726
0.000575728
-0.000706444
0.000694299
-0.000878817
-0.00103898
0.000820924
-6.94247e-08
2.05417e-05
2.53805e-07
5.39381e-05
1.49283e-06
8.06511e-05
4.18601e-06
0.000100072
8.89829e-06
0.000111638
1.62352e-05
0.000114786
2.68598e-05
0.000108908
4.15097e-05
9.33129e-05
6.10138e-05
6.72053e-05
8.63053e-05
2.96594e-05
0.000118429
-2.03869e-05
0.000158539
-8.41236e-05
0.000207882
-0.000162835
0.000267758
-0.000257834
0.000339452
-0.000370344
0.000424116
-0.000501314
0.000522585
-0.000651194
0.000634935
-0.000818794
0.000762065
-0.00100595
-0.00116951
0.000892592
-4.71344e-08
2.05888e-05
3.89583e-07
5.35014e-05
1.87961e-06
7.9161e-05
5.00946e-06
9.69421e-05
1.0396e-05
0.000106252
1.87023e-05
0.00010648
3.06555e-05
9.69543e-05
4.70653e-05
7.69031e-05
6.88397e-05
4.54309e-05
9.69966e-05
1.50249e-06
0.000132668
-5.60581e-05
0.00017709
-0.000128546
0.000231582
-0.000217327
0.000297494
-0.000323745
0.00037613
-0.000448981
0.000468629
-0.000593813
0.000575773
-0.000758339
0.000697535
-0.000940556
0.000833006
-0.00114142
-0.00130347
0.000966964
-1.84325e-08
2.06072e-05
5.51791e-07
5.29312e-05
2.32807e-06
7.73848e-05
5.9474e-06
9.33228e-05
1.20815e-05
0.000100118
2.1454e-05
9.71076e-05
3.486e-05
8.35483e-05
5.3184e-05
5.85791e-05
7.7415e-05
2.12e-05
0.000108655
-2.97374e-05
0.000148117
-9.55205e-05
0.000197112
-0.000177541
0.000257008
-0.000277223
0.000329177
-0.000395914
0.00041491
-0.000534714
0.000515307
-0.000694211
0.000631192
-0.000874223
0.000763095
-0.00107246
0.000909022
-0.00128735
-0.00143816
0.00104372
1.76157e-08
2.05896e-05
7.43537e-07
5.22052e-05
2.84504e-06
7.52833e-05
7.01169e-06
8.91561e-05
1.39727e-05
9.31566e-05
2.45155e-05
8.65648e-05
3.95058e-05
6.8558e-05
5.9905e-05
3.81799e-05
8.6783e-05
-5.67801e-06
0.000121323
-6.42769e-05
0.00016481
-0.000139008
0.00021861
-0.000231341
0.000284116
-0.000342729
0.000362678
-0.000474476
0.000455512
-0.000627548
0.000563609
-0.000802307
0.000687698
-0.000998313
0.000828662
-0.00121342
0.000988228
-0.00144691
-0.00165633
0.0012064
6.18915e-08
2.05277e-05
9.68412e-07
5.12987e-05
3.43784e-06
7.28138e-05
8.21448e-06
8.43795e-05
1.60876e-05
8.52836e-05
2.79109e-05
7.47415e-05
4.46229e-05
5.1846e-05
6.72628e-05
1.554e-05
9.69795e-05
-3.53948e-05
0.00013503
-0.000102327
0.00018276
-0.000186738
0.000241566
-0.000290146
0.000312826
-0.00041399
0.000397816
-0.000559466
0.000497597
-0.000727329
0.000612924
-0.000917633
0.000744204
-0.00112959
0.000892113
-0.00136133
0.00105673
-0.00161153
-0.00185347
0.00125387
1.1523e-07
2.04125e-05
1.22919e-06
5.01848e-05
4.11255e-06
6.99305e-05
9.56617e-06
7.89258e-05
1.84415e-05
7.64082e-05
3.16609e-05
6.15221e-05
5.02368e-05
3.32701e-05
7.52853e-05
-9.50844e-06
0.00010803
-6.81397e-05
0.000149792
-0.00014409
0.000201959
-0.000238905
0.000265927
-0.000354114
0.000343018
-0.000491081
0.000434367
-0.000650815
0.000540793
-0.000833755
0.000662689
-0.00103953
0.000799926
-0.00126683
0.000952306
-0.00151371
0.00111803
-0.00177725
-0.00203906
0.00130361
1.78362e-07
2.02341e-05
1.52861e-06
4.88345e-05
4.87493e-06
6.65842e-05
1.10764e-05
7.27244e-05
2.10486e-05
6.64361e-05
3.57837e-05
4.6787e-05
5.63682e-05
1.26856e-05
8.39929e-05
-3.71331e-05
0.000119949
-0.000104096
0.000165609
-0.000189749
0.000222375
-0.000295672
0.000291612
-0.000423351
0.000374531
-0.000574
0.00047206
-0.000748344
0.000584693
-0.000946387
0.00071236
-0.0011672
0.000854292
-0.00140876
0.00100932
-0.00166874
0.0011746
-0.00194253
-0.002216
0.00135154
2.51965e-07
1.99822e-05
1.86912e-06
4.72173e-05
5.73008e-06
6.27232e-05
1.27535e-05
6.57009e-05
2.39205e-05
5.52691e-05
4.02936e-05
3.04139e-05
6.30324e-05
-1.00533e-05
9.33975e-05
-6.74982e-05
0.000132738
-0.000143437
0.000182458
-0.000239468
0.00024395
-0.000357164
0.000318501
-0.000497902
0.00040716
-0.000662659
0.000510579
-0.000851764
0.000628853
-0.00106466
0.000761378
-0.00129972
0.000906724
-0.00155411
0.00106282
-0.00182483
0.00122615
-0.00210587
-0.00238537
0.00139552
3.36622e-07
1.96456e-05
2.25282e-06
4.53012e-05
6.68233e-06
5.82937e-05
1.46045e-05
5.77788e-05
2.70664e-05
4.28072e-05
4.5201e-05
1.22792e-05
7.02381e-05
-3.50903e-05
0.000103501
-0.000100761
0.000146383
-0.000186319
0.000200298
-0.000293383
0.000266595
-0.000423461
0.000346439
-0.000577746
0.000440656
-0.000756876
0.000549561
-0.000960669
0.000672786
-0.00118789
0.000809158
-0.00143609
0.000956602
-0.00170155
0.00111228
-0.00198051
0.00127227
-0.00226586
-0.00254728
0.00143418
4.3283e-07
1.92127e-05
2.68143e-06
4.30526e-05
7.73514e-06
5.324e-05
1.66345e-05
4.88794e-05
3.04929e-05
2.89488e-05
5.05119e-05
-7.73982e-06
7.79868e-05
-6.25652e-05
0.000114294
-0.000137068
0.000160855
-0.00023288
0.000219066
-0.000351595
0.000290195
-0.00049459
0.000375234
-0.000662785
0.000474731
-0.000856373
0.000588602
-0.00107454
0.000715975
-0.00131526
0.000855095
-0.00157521
0.0010033
-0.00184976
0.00115716
-0.00213437
0.00131255
-0.00242125
-0.0027014
0.00146667
5.40976e-07
1.86717e-05
3.15634e-06
4.04372e-05
8.89114e-06
4.75052e-05
1.88472e-05
3.89234e-05
3.42035e-05
1.35925e-05
5.62273e-05
-2.97636e-05
8.62728e-05
-9.26106e-05
0.000125757
-0.000176553
0.000176109
-0.000283231
0.000238677
-0.000414163
0.000314604
-0.000570517
0.00040466
-0.000752841
0.000509056
-0.000960769
0.000627264
-0.00119275
0.000757881
-0.00144587
0.00089859
-0.00171592
0.00104623
-0.0019974
0.00119696
-0.0022851
0.00134665
-0.00257093
-0.00284724
0.0014925
6.61361e-07
1.80104e-05
3.67851e-06
3.742e-05
1.0152e-05
4.10317e-05
2.12445e-05
2.78308e-05
3.81987e-05
-3.3617e-06
6.23433e-05
-5.39082e-05
9.50824e-05
-0.00012535
0.000137859
-0.000219329
0.000192083
-0.000337455
0.000259022
-0.000481102
0.000339648
-0.000651143
0.000434457
-0.00084765
0.000543274
-0.00106959
0.000665089
-0.00131456
0.000797964
-0.00157875
0.000939071
-0.00185703
0.00108486
-0.00214318
0.00123127
-0.00243152
0.00137432
-0.00271399
-0.0029844
0.00151148
7.94205e-07
1.72162e-05
4.24859e-06
3.39657e-05
1.15186e-05
3.37617e-05
2.38266e-05
1.55229e-05
4.2476e-05
-2.20111e-05
6.88508e-05
-8.02831e-05
0.000104394
-0.000160893
0.000150555
-0.00026549
0.000208698
-0.000395599
0.00027997
-0.000552374
0.000365127
-0.000736301
0.00046434
-0.000946863
0.000577004
-0.00118225
0.000701607
-0.00143917
0.000835702
-0.00171284
0.000976019
-0.00199735
0.00111874
-0.00228591
0.00125979
-0.00257256
0.00139548
-0.00284968
-0.00311259
0.00152367
9.39639e-07
1.62765e-05
4.86681e-06
3.00385e-05
1.29908e-05
2.56377e-05
2.65915e-05
1.92212e-06
4.70293e-05
-4.24489e-05
7.57355e-05
-0.000108989
0.000114178
-0.000199335
0.00016379
-0.000315102
0.00022586
-0.000457668
0.000301372
-0.000627886
0.000390819
-0.000825748
0.000494
-0.00105004
0.000609852
-0.0012981
0.000736359
-0.00156567
0.000870608
-0.00184709
0.00100899
-0.00213572
0.00114755
-0.00242447
0.00128236
-0.00270737
0.00141017
-0.00297749
-0.00323171
0.00152928
1.09773e-06
1.51788e-05
5.53311e-06
2.56031e-05
1.45676e-05
1.66032e-05
2.9536e-05
-1.30463e-05
5.18498e-05
-6.47628e-05
8.29777e-05
-0.000140117
0.000124396
-0.000240753
0.000177497
-0.000368204
0.000243457
-0.000523629
0.000323058
-0.000707487
0.000416481
-0.000919171
0.000523117
-0.00115668
0.000641424
-0.00141641
0.000768907
-0.00169316
0.00090225
-0.00198044
0.00103762
-0.00227109
0.00117108
-0.00255793
0.00129896
-0.00283525
0.00141856
-0.00309708
-0.00334182
0.00152868
1.26847e-06
1.39103e-05
6.24709e-06
2.06245e-05
1.62473e-05
6.603e-06
3.26547e-05
-2.94537e-05
5.69253e-05
-8.90333e-05
9.05526e-05
-0.000173744
0.000135002
-0.000285202
0.000191598
-0.000424799
0.000261367
-0.000593398
0.000344843
-0.000790963
0.000441858
-0.00101619
0.000551363
-0.00126618
0.000671338
-0.00153638
0.000798848
-0.00182067
0.000930264
-0.00211185
0.00106165
-0.00240247
0.00118921
-0.0026855
0.0013097
-0.00295574
0.00142097
-0.00320835
-0.00344317
0.00152232
1.45183e-06
1.24585e-05
7.00807e-06
1.50682e-05
1.80271e-05
-4.41603e-06
3.59407e-05
-4.73673e-05
6.22402e-05
-0.000115333
9.84301e-05
-0.000209934
0.000145942
-0.000332714
0.000206003
-0.000484859
0.00027945
-0.000666846
0.000366529
-0.000878043
0.000466685
-0.00111634
0.000578412
-0.00137791
0.000699232
-0.0016572
0.000825829
-0.00194726
0.000954365
-0.00224039
0.00108092
-0.00252903
0.00120198
-0.00280657
0.00131478
-0.00306854
0.00141777
-0.00331134
-0.00353613
0.00151073
1.64769e-06
1.08108e-05
7.81505e-06
8.90088e-06
1.99036e-05
-1.65046e-05
3.93851e-05
-6.68488e-05
6.7776e-05
-0.000143724
0.000106575
-0.000248733
0.000157156
-0.000383296
0.000220613
-0.000548316
0.000297558
-0.000743791
0.000387909
-0.000968393
0.000490693
-0.00121913
0.000603951
-0.00149117
0.000724778
-0.00177803
0.000849557
-0.00207204
0.000974351
-0.00236518
0.00109538
-0.00265006
0.00120951
-0.0029207
0.00131451
-0.00317354
0.00140941
-0.00340624
-0.00362117
0.00149445
1.8559e-06
8.95493e-06
8.66675e-06
2.09002e-06
2.18726e-05
-2.97105e-05
4.29774e-05
-8.79536e-05
7.35108e-05
-0.000174257
0.000114947
-0.000290169
0.000168575
-0.000436924
0.000235321
-0.000615063
0.000315534
-0.000824004
0.000408769
-0.00106163
0.000513621
-0.00132398
0.000627686
-0.00160524
0.00074769
-0.00189803
0.000869806
-0.00219416
0.000990109
-0.00248549
0.00110508
-0.00276502
0.00121201
-0.00302763
0.00130925
-0.00327078
0.00139639
-0.00349338
-0.00369881
0.00147404
2.07624e-06
6.87869e-06
9.56153e-06
-5.39527e-06
2.39287e-05
-4.40776e-05
4.67053e-05
-0.00011073
7.94197e-05
-0.000206971
0.0001235
-0.00033425
0.000180122
-0.000493546
0.000250011
-0.000684951
0.000333213
-0.000907207
0.000428895
-0.00115731
0.000535214
-0.0014303
0.000649353
-0.00171937
0.000767733
-0.00201641
0.000886418
-0.00231284
0.00100161
-0.00260068
0.00111012
-0.00287354
0.00120975
-0.00312727
0.00129941
-0.00336043
0.00137919
-0.00357316
-0.00376965
0.00145003
2.30842e-06
4.57028e-06
1.04974e-05
-1.35843e-05
2.60658e-05
-5.9646e-05
5.05543e-05
-0.000135219
8.54743e-05
-0.000241891
0.000132185
-0.00038096
0.000191718
-0.000553079
0.000264561
-0.000757794
0.000350429
-0.000993075
0.000448078
-0.00125496
0.000555237
-0.00153746
0.000668719
-0.00183286
0.000784725
-0.00213242
0.000899309
-0.00242743
0.00100889
-0.00271026
0.00111071
-0.00297535
0.00120308
-0.00321964
0.00128544
-0.00344279
0.00135833
-0.00364605
-0.00383426
0.00142293
2.55206e-06
2.01822e-06
1.1472e-05
-2.25042e-05
2.82768e-05
-7.64508e-05
5.45083e-05
-0.00016145
9.16432e-05
-0.000279026
0.000140946
-0.000430263
0.000203275
-0.000615408
0.000278846
-0.000833366
0.000367013
-0.00108124
0.000466116
-0.00135406
0.000573476
-0.00164482
0.000685595
-0.00194498
0.000798541
-0.00224537
0.000908458
-0.00253734
0.00101208
-0.00281388
0.00110709
-0.00307037
0.00119234
-0.00330489
0.00126777
-0.00351821
0.00133426
-0.00371255
-0.0038932
0.0013932
2.80671e-06
-7.88492e-07
1.24825e-05
-3.21801e-05
3.05534e-05
-9.45216e-05
5.85491e-05
-0.000189446
9.78918e-05
-0.000318369
0.000149726
-0.000482098
0.000214703
-0.000680384
0.000292737
-0.0009114
0.000382802
-0.00117131
0.000482821
-0.00145408
0.000589746
-0.00175174
0.000699834
-0.00205506
0.000809113
-0.00235465
0.000913911
-0.00264214