/*--------------------------------*- C++ -*----------------------------------*\
  =========                 |
  \\      /  F ield         | OpenFOAM: The Open Source CFD Toolbox
   \\    /   O peration     | Website:  https://openfoam.org
    \\  /    A nd           | Version:  7
     \\/     M anipulation  |
\*---------------------------------------------------------------------------*/
FoamFile
{
    version     2.0;
    format      ascii;
    class       volVectorField;
    location    "65";
    object      U;
}
// * * * * * * * * * * * * * * * * * * * * * * * * * * * * * * * * * * * * * //

dimensions      [0 1 -1 0 0 0 0];

internalField   nonuniform List<vector> 
34000
(
(-0.000290015 0.00438388 -8.49201e-22)
(-0.00179102 0.0118197 -4.56551e-21)
(-0.0048205 0.0181886 5.57783e-22)
(-0.00883948 0.0235504 -9.73939e-22)
(-0.0136422 0.0279803 1.48811e-21)
(-0.0190375 0.0315708 -1.09795e-20)
(-0.0248447 0.0344277 1.8891e-21)
(-0.0309092 0.0366658 -7.44872e-21)
(-0.0370996 0.0384038 -1.60353e-20)
(-0.0433072 0.0397591 1.37278e-20)
(-0.0494452 0.040842 4.08859e-21)
(-0.0554489 0.0417511 -4.91326e-21)
(-0.0612744 0.0425705 6.04293e-21)
(-0.0668986 0.0433677 8.27982e-21)
(-0.0723175 0.0441935 -5.23835e-21)
(-0.0775449 0.045083 -7.08802e-21)
(-0.0826102 0.0460569 -1.70264e-20)
(-0.0875573 0.0471237 -1.32146e-21)
(-0.0924321 0.0482799 -2.9033e-21)
(-0.0972801 0.0495128 -5.72501e-21)
(-0.000382398 0.00487655 -4.15635e-21)
(-0.00201002 0.0131175 3.47212e-21)
(-0.00509891 0.0201359 -4.08547e-21)
(-0.00913047 0.0260117 -9.19293e-21)
(-0.0139079 0.0308335 7.52902e-21)
(-0.0192479 0.0347076 4.57783e-20)
(-0.0249765 0.0377533 -2.82431e-20)
(-0.0309448 0.0400986 4.79725e-21)
(-0.0370258 0.0418755 2.31079e-20)
(-0.043114 0.043214 -1.81856e-24)
(-0.0491251 0.044237 1.37606e-20)
(-0.0549959 0.0450553 -1.82703e-20)
(-0.0606834 0.0457648 1.91704e-20)
(-0.0661644 0.0464444 -1.65244e-20)
(-0.0714346 0.0471553 -6.44451e-21)
(-0.0765071 0.0479421 3.24727e-20)
(-0.0814109 0.0488337 -1.02319e-20)
(-0.0861895 0.0498446 1.58462e-21)
(-0.0908887 0.0509741 -1.92549e-20)
(-0.0955498 0.0522135 -2.09107e-21)
(-0.000492771 0.00535048 -3.22166e-20)
(-0.00227429 0.0143691 4.18142e-21)
(-0.00544071 0.022018 6.41975e-21)
(-0.00949551 0.0283949 2.8255e-20)
(-0.0142516 0.033601 -3.29383e-20)
(-0.019534 0.0377548 -5.13667e-20)
(-0.0251762 0.0409881 4.68491e-20)
(-0.0310353 0.0434414 -1.28367e-20)
(-0.0369891 0.045259 -6.44302e-21)
(-0.0429357 0.0465829 -3.27325e-20)
(-0.0487934 0.0475482 8.98135e-21)
(-0.0545007 0.0482775 3.22037e-20)
(-0.0600153 0.0488784 -6.59702e-21)
(-0.0653142 0.0494407 2.65352e-20)
(-0.0703927 0.0500365 -2.19609e-20)
(-0.0752636 0.0507197 -6.64255e-21)
(-0.0799552 0.0515278 5.23619e-20)
(-0.0845118 0.0524818 -3.26052e-21)
(-0.0889789 0.0535845 8.24009e-20)
(-0.0933903 0.0548318 -1.96357e-20)
(-0.000620087 0.00580394 5.27356e-20)
(-0.00258147 0.0155701 -2.36415e-20)
(-0.00584294 0.0238282 -1.645e-20)
(-0.00993151 0.0306919 -1.2499e-20)
(-0.0146703 0.0362731 2.31716e-20)
(-0.0198933 0.0407016 -4.40114e-21)
(-0.0254419 0.0441206 -7.83917e-20)
(-0.0311793 0.0466819 -8.32075e-21)
(-0.0369887 0.0485412 -1.72707e-20)
(-0.042772 0.0498523 -2.76832e-21)
(-0.0484504 0.0507615 -3.02948e-20)
(-0.0539638 0.0514032 3.43938e-20)
(-0.0592711 0.0518959 -5.09872e-20)
(-0.0643492 0.0523408 -1.56078e-21)
(-0.0691934 0.0528204 1.3959e-20)
(-0.0738158 0.0533986 -1.0855e-19)
(-0.0782447 0.0541216 -8.76717e-20)
(-0.0825258 0.0550175 4.7619e-20)
(-0.0867038 0.0560935 -6.38588e-20)
(-0.0908026 0.057351 1.53791e-21)
(-0.000763214 0.00623536 -7.05028e-21)
(-0.00292897 0.0167163 9.34389e-20)
(-0.00630234 0.0255603 4.38512e-20)
(-0.010435 0.0328946 -2.85743e-21)
(-0.0151608 0.0388406 1.17922e-20)
(-0.020323 0.0435378 1.76918e-21)
(-0.025771 0.0471394 4.01436e-20)
(-0.0313751 0.0498079 4.76148e-20)
(-0.0370235 0.0517096 2.02669e-20)
(-0.0426224 0.053009 7.17711e-20)
(-0.0480959 0.0538633 -8.28263e-20)
(-0.0533858 0.0544179 -1.74837e-20)
(-0.0584516 0.0548024 3.68846e-20)
(-0.0632707 0.0551289 -6.43889e-20)
(-0.067838 0.0554905 2.9434e-20)
(-0.0721653 0.0559616 6.82753e-20)
(-0.0762809 0.0565975 1.6353e-20)
(-0.0802325 0.057434 2.36643e-20)
(-0.0840645 0.0584833 -3.78602e-20)
(-0.0877873 0.059754 4.14454e-21)
(-0.000920942 0.00664338 -3.45555e-20)
(-0.00331403 0.0178041 2.20939e-20)
(-0.00681544 0.0272088 -3.58852e-20)
(-0.0110024 0.034996 1.045e-20)
(-0.0157196 0.0412949 2.92321e-20)
(-0.0208199 0.0462535 1.33326e-20)
(-0.0261612 0.050034 2.52613e-20)
(-0.0316207 0.0528082 -1.77273e-20)
(-0.0370922 0.0547521 -1.09725e-19)
(-0.0424863 0.0560402 -9.83499e-20)
(-0.0477299 0.0568401 -6.40227e-20)
(-0.0527669 0.0573075 2.42744e-20)
(-0.0575577 0.057583 -1.38782e-20)
(-0.0620797 0.0577894 1.05978e-19)
(-0.0663277 0.0580307 -3.82072e-20)
(-0.0703132 0.0583917 3.12686e-20)
(-0.0740647 0.0589378 4.55056e-20)
(-0.0776327 0.0597131 -2.56018e-20)
(-0.0810614 0.0607361 2.24449e-19)
(-0.0843447 0.0620238 -8.43308e-20)
(-0.00109201 0.00702683 4.19442e-20)
(-0.00373374 0.0188303 -5.28204e-20)
(-0.00737854 0.0287687 -8.1042e-20)
(-0.0116298 0.0369895 -2.13631e-20)
(-0.016343 0.0436282 9.42998e-21)
(-0.0213807 0.0488397 1.45646e-20)
(-0.0266096 0.0527942 4.8821e-20)
(-0.0319138 0.0556716 1.08405e-20)
(-0.0371932 0.0576568 3.6045e-21)
(-0.0423625 0.0589334 1.76635e-19)
(-0.047352 0.0596787 1.32958e-19)
(-0.0521073 0.0600584 -7.98682e-20)
(-0.0565898 0.0602234 -1.17872e-20)
(-0.0607771 0.0603071 -3.18671e-20)
(-0.0646635 0.0604247 3.15701e-20)
(-0.0682605 0.060672 -1.67444e-19)
(-0.0715969 0.0611249 -3.51441e-20)
(-0.0747268 0.061837 -5.27197e-20)
(-0.0776946 0.0628339 -1.27774e-19)
(-0.0804743 0.0641434 6.96753e-20)
(-0.0012751 0.00738477 7.0303e-21)
(-0.00418508 0.0197923 -2.57964e-20)
(-0.0079878 0.0302357 7.31569e-20)
(-0.0123129 0.0388693 -4.51048e-20)
(-0.0170268 0.0458332 -2.52802e-20)
(-0.0220016 0.051288 4.0307e-20)
(-0.0271129 0.0554105 -6.83156e-20)
(-0.032252 0.0583879 -9.33233e-21)
(-0.0373245 0.0604126 1.29991e-19)
(-0.0422498 0.0616769 -8.33006e-20)
(-0.0469614 0.0623666 -3.43351e-20)
(-0.0514068 0.0626572 4.05889e-20)
(-0.0555483 0.0627093 -1.07268e-20)
(-0.0593634 0.0626671 -5.57339e-21)
(-0.0628462 0.0626568 4.61467e-20)
(-0.0660078 0.0627856 -1.23051e-19)
(-0.0688778 0.0631412 4.29e-20)
(-0.0715144 0.0637875 -3.2735e-20)
(-0.0739633 0.0647589 -7.37415e-20)
(-0.0761751 0.0660961 2.65093e-20)
(-0.0014689 0.00771649 -1.96734e-20)
(-0.00466498 0.0206878 1.41874e-19)
(-0.00863926 0.0316063 -3.15444e-20)
(-0.0130475 0.0406304 1.93655e-20)
(-0.0177668 0.0479036 1.40395e-19)
(-0.0226789 0.0535909 -9.5208e-20)
(-0.0276678 0.0578743 -4.69588e-20)
(-0.0326323 0.0609472 -8.18475e-20)
(-0.037484 0.063009 -8.97963e-20)
(-0.0421467 0.0642591 -5.93993e-20)
(-0.0465571 0.0648917 -8.05368e-20)
(-0.0506649 0.0650909 1.46828e-19)
(-0.054433 0.0650271 -1.62736e-20)
(-0.0578387 0.0648547 -3.4448e-20)
(-0.0608757 0.0647112 -1.80475e-19)
(-0.063555 0.0647161 1.0144e-19)
(-0.0659068 0.0649693 2.51721e-20)
(-0.0679944 0.0655466 6.37853e-20)
(-0.0698656 0.066493 4.34166e-20)
(-0.0714444 0.0678653 -1.16595e-19)
(-0.00167208 0.00802152 -6.11733e-20)
(-0.00517032 0.0215154 8.29712e-20)
(-0.0093289 0.0328775 4.67981e-20)
(-0.0138293 0.0422686 2.12913e-20)
(-0.0185588 0.0498339 1.78831e-20)
(-0.0234083 0.0557414 -6.39259e-20)
(-0.0282706 0.0601776 1.38648e-19)
(-0.0330517 0.0633407 7.77835e-21)
(-0.0376689 0.0654359 1.29056e-19)
(-0.0420509 0.0666693 -7.55093e-20)
(-0.0461376 0.0672425 1.21839e-19)
(-0.0498804 0.0673475 -1.21046e-19)
(-0.0532429 0.0671637 -1.09317e-19)
(-0.0562024 0.066856 9.36392e-20)
(-0.0587517 0.0665731 3.33196e-19)
(-0.0609014 0.0664472 -1.84624e-19)
(-0.0626825 0.0665919 1.52291e-19)
(-0.0641645 0.0670965 3.5308e-20)
(-0.0653985 0.0680184 -1.32921e-19)
(-0.0662778 0.0694346 1.1175e-19)
(-0.00188331 0.0082996 1.1125e-19)
(-0.00569799 0.0222738 -6.36965e-20)
(-0.0100527 0.0340471 2.17192e-20)
(-0.0146537 0.0437803 8.18762e-20)
(-0.019398 0.0516191 -7.56239e-20)
(-0.0241854 0.0577336 1.4882e-19)
(-0.0289172 0.0623131 -2.71071e-20)
(-0.0335063 0.0655599 3.38574e-21)
(-0.0378761 0.0676842 -1.78361e-19)
(-0.0419597 0.0688976 1.13139e-19)
(-0.0457004 0.0694081 2.62018e-20)
(-0.0490513 0.0694152 -3.46611e-20)
(-0.0519766 0.0691068 4.35959e-20)
(-0.054453 0.0686576 -1.73014e-19)
(-0.0564724 0.0682279 -9.6732e-20)
(-0.0580448 0.0679631 2.04769e-19)
(-0.059202 0.0679921 -1.1495e-19)
(-0.0600205 0.0684192 -1.65046e-19)
(-0.0605568 0.0693172 3.07457e-19)
(-0.0606684 0.0707878 -3.24279e-22)
(-0.00210134 0.00855074 9.32798e-20)
(-0.00624494 0.0229626 -1.17251e-19)
(-0.0108065 0.0351137 -1.22751e-19)
(-0.0155161 0.045163 -5.87676e-20)
(-0.0202798 0.0532556 -8.53393e-20)
(-0.0250057 0.0595622 -4.84172e-20)
(-0.0296032 0.0642744 -2.05251e-19)
(-0.0339921 0.0675975 2.53184e-20)
(-0.0381017 0.0697454 -8.77433e-20)
(-0.0418698 0.0709345 3.08395e-19)
(-0.0452425 0.0713784 -1.79897e-19)
(-0.0481749 0.0712832 1.10832e-19)
(-0.0506313 0.0708447 -3.40467e-20)
(-0.0525877 0.0702469 1.88156e-19)
(-0.0540348 0.0696619 1.55418e-20)
(-0.0549816 0.0692489 -1.62898e-19)
(-0.0554607 0.0691534 -2.9433e-20)
(-0.0555564 0.0694972 7.12136e-21)
(-0.0553328 0.0703717 -1.24992e-20)
(-0.0546059 0.0719089 2.09441e-19)
(-0.00232492 0.00877514 -1.16149e-19)
(-0.00680819 0.0235818 -1.12115e-19)
(-0.0115864 0.0360765 4.66884e-20)
(-0.0164121 0.0464148 1.16989e-19)
(-0.0211994 0.0547401 -8.48784e-21)
(-0.0258643 0.061223 -8.10366e-20)
(-0.0303237 0.066056 1.80752e-19)
(-0.0345045 0.0694467 -2.04056e-20)
(-0.0383414 0.0716118 2.21247e-19)
(-0.0417766 0.0727716 -2.46967e-19)
(-0.0447596 0.0731443 6.53559e-20)
(-0.0472468 0.0729417 7.77259e-20)
(-0.0492027 0.0723667 -2.36225e-21)
(-0.0506021 0.0716124 -1.32535e-21)
(-0.051434 0.0708623 -1.49822e-19)
(-0.0517062 0.0702903 2.03416e-20)
(-0.0514513 0.07006 2.02416e-19)
(-0.0507628 0.0703136 2.61764e-19)
(-0.0497158 0.0711642 -3.12045e-19)
(-0.0480753 0.0727814 -2.00977e-19)
(-0.00255291 0.00897326 4.86812e-20)
(-0.00738489 0.0241319 7.48416e-20)
(-0.0123885 0.0369355 9.13008e-20)
(-0.0173371 0.0475347 -1.54687e-19)
(-0.0221517 0.0560705 1.62841e-19)
(-0.0267558 0.0627124 1.55513e-19)
(-0.0310735 0.0676532 -6.09629e-20)
(-0.035038 0.0711016 2.67625e-19)
(-0.0385895 0.0732766 -2.71955e-19)
(-0.0416748 0.0744013 1.21012e-19)
(-0.0442461 0.0746975 1.23608e-19)
(-0.0462614 0.0743818 -9.63e-21)
(-0.0476849 0.0736633 1.61e-21)
(-0.0484897 0.0727437 1.64005e-20)
(-0.0486627 0.0718176 -1.17321e-19)
(-0.0482098 0.0710743 1.1685e-19)
(-0.0471637 0.0706973 -6.04196e-20)
(-0.0456271 0.070852 -1.36267e-19)
(-0.043691 0.0716774 1.76958e-19)
(-0.0410557 0.073388 3.71321e-20)
(-0.00278424 0.00914574 -2.80481e-20)
(-0.00797234 0.0246139 3.52519e-20)
(-0.013209 0.0376912 -7.63967e-20)
(-0.0182864 0.0485225 -1.14312e-19)
(-0.0231317 0.0572454 -1.17986e-19)
(-0.0276748 0.0640278 -1.06649e-19)
(-0.0318466 0.069062 1.7412e-19)
(-0.0355864 0.0725574 -8.85038e-20)
(-0.0388397 0.074734 7.08457e-20)
(-0.0415575 0.0758169 7.84242e-21)
(-0.0436948 0.0760306 -1.94012e-20)
(-0.0452108 0.0755955 4.85915e-20)
(-0.0460692 0.0747262 -9.51059e-20)
(-0.0462412 0.0736317 4.99179e-20)
(-0.0457106 0.0725177 1.61762e-19)
(-0.0444806 0.0715893 -2.3726e-19)
(-0.0425832 0.0710517 -1.52448e-19)
(-0.0401318 0.0710974 2.01201e-19)
(-0.0372399 0.071896 -1.18416e-19)
(-0.0335216 0.0737217 -1.84544e-19)
(-0.00301795 0.00929341 1.03511e-19)
(-0.00856799 0.0250293 -1.05982e-19)
(-0.0140443 0.038345 8.60864e-20)
(-0.0192554 0.0493787 1.38299e-19)
(-0.024134 0.0582641 -2.55033e-20)
(-0.0286154 0.0651673 -9.14192e-20)
(-0.0326366 0.0702795 -1.71202e-19)
(-0.0361425 0.0738098 -1.3057e-19)
(-0.0390841 0.0759788 -2.63507e-19)
(-0.0414161 0.0770126 2.68332e-20)
(-0.0430963 0.0771374 -2.36264e-20)
(-0.0440848 0.0765765 -1.8863e-19)
(-0.0443445 0.0755484 1.63955e-19)
(-0.043844 0.074269 2.01561e-19)
(-0.0425633 0.0729544 -1.02806e-20)
(-0.040502 0.0718255 1.24331e-19)
(-0.0376903 0.0711116 -6.30528e-20)
(-0.0342522 0.071036 1.01187e-20)
(-0.0303329 0.0718086 1.79117e-19)
(-0.0254554 0.0738099 4.31748e-19)
(-0.00325317 0.0094173 -4.49695e-20)
(-0.00916952 0.0253799 -3.14802e-20)
(-0.0148907 0.0388986 8.87185e-20)
(-0.0202398 0.0501043 -1.23807e-19)
(-0.0251532 0.059127 -3.22329e-20)
(-0.0295711 0.06613 1.92143e-19)
(-0.033436 0.0713035 -4.54853e-20)
(-0.0366982 0.0748556 -1.31855e-19)
(-0.0393134 0.0770069 2.14552e-19)
(-0.0412401 0.0779837 -5.77405e-20)
(-0.0424388 0.0780129 4.22495e-20)
(-0.0428702 0.0773194 2.29986e-19)
(-0.0424959 0.0761247 -3.20307e-19)
(-0.0412813 0.0746502 -8.78982e-20)
(-0.0392017 0.0731216 -1.73517e-19)
(-0.0362518 0.0717756 3.53327e-19)
(-0.0324588 0.0708673 1.10361e-20)
(-0.0279551 0.0706553 1.96253e-19)
(-0.0229095 0.0713992 -7.11745e-20)
(-0.0168174 0.073607 -4.09042e-19)
(-0.00348917 0.00951856 -1.04386e-19)
(-0.00977478 0.0256679 1.51005e-19)
(-0.015745 0.0393544 2.06162e-21)
(-0.0212349 0.0507012 -1.45072e-21)
(-0.0261835 0.0598346 1.57813e-19)
(-0.030535 0.0669156 1.13803e-19)
(-0.0342367 0.0721324 -4.28343e-21)
(-0.0372439 0.0756924 3.41477e-19)
(-0.0395166 0.0778151 1.31043e-19)
(-0.041017 0.0787265 -2.4134e-19)
(-0.0417079 0.0786532 1.14716e-20)
(-0.0415503 0.0778205 -8.33029e-21)
(-0.0405043 0.0764517 3.39136e-19)
(-0.0385314 0.0747721 -3.80287e-19)
(-0.0356009 0.0730158 1.05255e-19)
(-0.0317014 0.0714351 3.97617e-21)
(-0.0268555 0.070312 -2.7091e-19)
(-0.0212044 0.0699446 -2.82366e-19)
(-0.0149352 0.0706504 -3.4195e-20)
(-0.0075122 0.0730651 4.15499e-19)
(-0.00372533 0.00959849 3.37597e-20)
(-0.0103818 0.025896 -1.07529e-19)
(-0.0166039 0.0397151 1.03792e-19)
(-0.0222361 0.0511717 -1.55393e-19)
(-0.0272189 0.0603887 1.93049e-19)
(-0.0314995 0.0675245 -3.23687e-19)
(-0.0350295 0.0727658 -7.99657e-20)
(-0.0377685 0.0763185 -1.78533e-19)
(-0.0396806 0.0784011 -8.42768e-20)
(-0.0407314 0.0792383 1.50431e-19)
(-0.0408855 0.0790557 3.07363e-19)
(-0.0401043 0.0780776 -3.45213e-19)
(-0.0383457 0.0765277 -1.2942e-19)
(-0.0355665 0.0746338 4.7036e-19)
(-0.0317292 0.0726367 -1.71144e-19)
(-0.0268143 0.0708032 -2.47184e-19)
(-0.0208377 0.069443 3.14469e-19)
(-0.0139487 0.0688991 6.64893e-20)
(-0.00635827 0.0695592 6.35387e-20)
(0.00252722 0.0722051 -2.67578e-19)
(-0.00396116 0.00965847 1.3171e-20)
(-0.010989 0.026067 -5.60533e-20)
(-0.0174643 0.0399838 1.81965e-19)
(-0.0232388 0.0515186 -2.35373e-19)
(-0.0282532 0.060791 -1.9462e-19)
(-0.0324565 0.0679576 1.23204e-19)
(-0.0358041 0.0732035 3.41782e-19)
(-0.0382594 0.0767331 -2.15935e-19)
(-0.0397901 0.0787636 5.21962e-20)
(-0.040365 0.0795176 -1.04016e-19)
(-0.0399501 0.0792189 -4.20495e-19)
(-0.0385068 0.0780899 2.55011e-19)
(-0.0359903 0.0763532 2.06207e-19)
(-0.032352 0.0742372 -3.66393e-19)
(-0.0275464 0.0719873 8.60015e-20)
(-0.0215443 0.0698833 3.43946e-19)
(-0.0143518 0.0682627 1.35312e-19)
(-0.00612457 0.0675174 4.77571e-20)
(0.00289581 0.0681177 -2.80784e-19)
(0.0133855 0.0710331 -1.37512e-19)
(-0.0041963 0.00969997 -9.14523e-20)
(-0.0115948 0.0261837 -1.67817e-19)
(-0.0183234 0.0401641 -9.68025e-20)
(-0.0242384 0.0517451 1.28139e-19)
(-0.0292794 0.0610443 -7.45936e-21)
(-0.0333969 0.0682167 2.86804e-19)
(-0.0365489 0.0734463 -2.71084e-20)
(-0.038702 0.0769362 3.21662e-20)
(-0.0398273 0.0789018 2.06052e-19)
(-0.0398961 0.0795636 2.61177e-19)
(-0.0388757 0.0791427 -1.20511e-20)
(-0.0367268 0.0778586 -5.79908e-20)
(-0.0334016 0.075931 -3.40451e-19)
(-0.0288453 0.0735871 2.55753e-19)
(-0.0230031 0.0710746 -2.26229e-20)
(-0.015834 0.0686838 -1.5373e-19)
(-0.00733164 0.0667792 -7.72133e-19)
(0.00234513 0.0658046 2.74477e-19)
(0.0129181 0.0663248 1.48748e-20)
(0.0251723 0.0695493 -1.71039e-19)
(-0.00443051 0.0097245 8.4333e-20)
(-0.0121978 0.0262494 2.1927e-19)
(-0.0191782 0.0402596 -1.66742e-19)
(-0.0252298 0.0518547 -8.07508e-20)
(-0.0302904 0.0611513 6.74902e-20)
(-0.0343107 0.0683038 -1.63109e-19)
(-0.0372506 0.0734954 -3.02782e-19)
(-0.0390796 0.0769283 1.79306e-19)
(-0.0397714 0.0788161 -2.06198e-20)
(-0.0392993 0.0793768 -4.12546e-19)
(-0.0376315 0.0788282 7.9268e-20)
(-0.0347275 0.077386 4.46489e-20)
(-0.0305358 0.0752658 -7.78771e-20)
(-0.0249947 0.0726913 2.06148e-19)
(-0.0180388 0.0699098 4.02495e-19)
(-0.00961343 0.0672189 -2.62815e-19)
(0.000303483 0.0650077 2.14108e-19)
(0.0115539 0.0637739 5.21149e-20)
(0.023817 0.0641872 3.01116e-19)
(0.0380204 0.0677589 1.36108e-19)
(-0.00466366 0.00973356 -9.25261e-20)
(-0.012797 0.0262671 -1.09139e-20)
(-0.0200258 0.0402739 2.3623e-19)
(-0.0262081 0.0518511 2.34254e-19)
(-0.0312783 0.0611154 -4.80416e-20)
(-0.0351867 0.0682215 -3.04048e-20)
(-0.0378945 0.0733527 3.04555e-19)
(-0.0393731 0.0767107 -2.36635e-19)
(-0.0395985 0.0785074 7.21455e-20)
(-0.0385452 0.0789584 2.99456e-19)
(-0.0361816 0.0782777 2.87475e-19)
(-0.0324654 0.0766764 1.12112e-19)
(-0.0273408 0.0743646 4.91597e-19)
(-0.0207383 0.0715606 -6.7885e-20)
(-0.0125809 0.0685085 -5.23266e-19)
(-0.00279837 0.0655089 2.58059e-19)
(0.0086507 0.0629717 -1.38052e-19)
(0.0216138 0.0614481 -3.22751e-19)
(0.0357205 0.0617216 -2.29461e-19)
(0.0520861 0.065676 -2.32278e-19)
(-0.00489573 0.00972865 5.91619e-20)
(-0.0133912 0.0262401 1.23692e-19)
(-0.0208633 0.0402111 -8.61023e-20)
(-0.0271677 0.0517382 -1.07008e-19)
(-0.0322345 0.0609399 -1.11024e-19)
(-0.0360126 0.0679726 -3.00315e-20)
(-0.0384639 0.0730205 -3.14122e-19)
(-0.039561 0.0762853 1.61315e-19)
(-0.0392811 0.0779776 -1.48645e-19)
(-0.0375996 0.0783106 -2.51352e-19)
(-0.0344841 0.0774946 8.91086e-21)
(-0.0298897 0.0757353 -6.39073e-19)
(-0.0237556 0.0732365 -4.96873e-19)
(-0.0160035 0.0702091 1.57304e-19)
(-0.00654372 0.0668906 7.99227e-20)
(0.00471112 0.0635804 -1.71707e-19)
(0.017825 0.0607036 6.68137e-19)
(0.0326568 0.0588616 -1.05244e-19)
(0.0487781 0.0589557 2.87526e-19)
(0.0675505 0.0633246 2.60023e-19)
(-0.00512676 0.00971122 -8.11559e-20)
(-0.0139795 0.0261714 -2.68852e-19)
(-0.0216878 0.0400747 8.53636e-20)
(-0.0281027 0.0515197 4.78965e-21)
(-0.0331494 0.0606285 3.63303e-19)
(-0.0367747 0.0675603 -2.16825e-19)
(-0.0389401 0.0725015 1.18833e-19)
(-0.0396188 0.0756544 1.696e-19)
(-0.0387883 0.0772291 -1.33708e-20)
(-0.0364237 0.0774365 1.04976e-19)
(-0.0324912 0.0764833 3.19264e-19)
(-0.0269421 0.0745697 6.68998e-19)
(-0.0197095 0.0718923 5.37996e-20)
(-0.0107058 0.0686532 -2.97621e-19)
(0.00017262 0.0650805 5.41829e-20)
(0.0130315 0.0614668 5.28799e-19)
(0.0279605 0.0582455 -3.60076e-19)
(0.0448359 0.0560616 1.66281e-21)
(0.0631608 0.0559318 2.79849e-19)
(0.0846189 0.0607422 -1.74109e-19)
(-0.00535687 0.00968262 -7.76729e-20)
(-0.0145609 0.0260638 3.17622e-19)
(-0.022496 0.0398684 -2.42457e-19)
(-0.0290067 0.0511996 -4.95345e-20)
(-0.0340127 0.0601848 -8.3551e-20)
(-0.0374576 0.0669881 -2.17106e-19)
(-0.0393021 0.0717989 2.16497e-19)
(-0.0395188 0.0748212 -7.14925e-20)
(-0.0380848 0.0762652 -1.27791e-19)
(-0.0349737 0.0763402 2.09396e-19)
(-0.0301485 0.0752494 -2.43279e-19)
(-0.0235562 0.0731879 -7.86096e-20)
(-0.0151223 0.0703448 -8.80328e-21)
(-0.00474878 0.0669122 2.08822e-19)
(0.00768241 0.0631061 -1.89269e-19)
(0.0222964 0.0592075 -3.5891e-19)
(0.0392103 0.0556492 -1.10274e-19)
(0.0583255 0.0531093 -1.60262e-19)
(0.0790607 0.0527083 -4.91026e-19)
(0.103519 0.0579823 -1.47713e-19)
(-0.00558622 0.00964411 1.10179e-19)
(-0.0151345 0.02592 -1.39396e-19)
(-0.0232843 0.0395956 -1.74575e-19)
(-0.0298727 0.0507815 -1.65107e-19)
(-0.0348126 0.0596127 5.50208e-20)
(-0.0380443 0.0662595 3.10134e-20)
(-0.0395265 0.0709161 7.72303e-20)
(-0.0392305 0.0737892 -2.00631e-19)
(-0.0371313 0.0750898 1.55373e-19)
(-0.0331999 0.0750264 -4.65471e-19)
(-0.027395 0.0737995 -2.33945e-19)
(-0.0196572 0.0715994 3.75121e-21)
(-0.00990326 0.068608 2.07713e-19)
(0.00197614 0.0650071 -1.36482e-19)
(0.0161144 0.0609988 3.49076e-19)
(0.032656 0.0568474 -8.57555e-20)
(0.0517467 0.0529755 1.11975e-19)
(0.0733197 0.0500806 4.2393e-19)
(0.0966893 0.0493624 5.62185e-20)
(0.124498 0.0551184 2.73735e-19)
(-0.00581497 0.00959679 -2.3266e-19)
(-0.0156991 0.0257424 1.87483e-19)
(-0.0240489 0.0392595 2.10598e-19)
(-0.0306926 0.0502689 -1.22452e-19)
(-0.0355362 0.0589157 2.09266e-19)
(-0.0385157 0.0653784 2.02009e-19)
(-0.0395871 0.0698571 -3.66636e-20)
(-0.0387192 0.0725626 -6.91728e-20)
(-0.0358839 0.0737078 -1.88445e-19)
(-0.0310475 0.0735011 8.85351e-20)
(-0.0241628 0.0721413 8.64948e-21)
(-0.015162 0.069815 -2.31711e-19)
(-0.003952 0.0666976 1.72625e-19)
(0.00958937 0.0629611 -1.35679e-19)
(0.0256111 0.0587925 -2.47589e-19)
(0.0442764 0.0544356 -3.23931e-19)
(0.0657588 0.050293 7.96765e-20)
(0.0900303 0.047065 1.10933e-19)
(0.116273 0.0459903 -1.07028e-19)
(0.147812 0.0522462 4.52279e-19)
(-0.00604325 0.0095416 -1.8364e-19)
(-0.0162533 0.0255331 -1.72511e-19)
(-0.0247852 0.0388627 1.36279e-19)
(-0.0314575 0.049665 7.93261e-20)
(-0.0361689 0.0580975 3.23682e-20)
(-0.0388506 0.0643487 -5.93018e-20)
(-0.039455 0.0686263 -4.1946e-20)
(-0.037947 0.0711463 9.58165e-20)
(-0.0342939 0.0721248 -9.01855e-20)
(-0.0284556 0.0717713 7.25016e-19)
(-0.0203767 0.070284 5.2892e-20)
(-0.00997937 0.0678469 -8.13601e-20)
(0.00284172 0.0646306 -5.37291e-19)
(0.0182224 0.0607983 1.04101e-19)
(0.0363274 0.0565226 -2.66562e-19)
(0.0573372 0.052024 1.77007e-19)
(0.0814499 0.047676 1.62718e-19)
(0.108682 0.044164 -6.2183e-19)
(0.138048 0.042707 -1.94437e-19)
(0.17372 0.0494867 -6.75562e-19)
(-0.00627113 0.00947927 8.88147e-20)
(-0.0167956 0.0252935 1.78491e-19)
(-0.0254881 0.0384075 -3.21494e-19)
(-0.0321574 0.0489728 -2.46234e-19)
(-0.0366946 0.0571617 1.2478e-19)
(-0.0390255 0.0631746 1.17567e-19)
(-0.0390979 0.0672285 -2.43961e-19)
(-0.0368718 0.0695461 -2.19453e-20)
(-0.0323078 0.0703477 1.30772e-20)
(-0.0253575 0.0698453 -2.18324e-19)
(-0.0159549 0.068238 3.17357e-19)
(-0.00400983 0.0657088 1.90329e-21)
(0.0105971 0.0624254 4.02612e-19)
(0.0280166 0.0585444 2.73766e-19)
(0.0484287 0.0542256 4.60292e-20)
(0.0720283 0.0496659 5.80547e-19)
(0.0990326 0.0452019 -5.28597e-19)
(0.129506 0.0414876 2.45692e-19)
(0.162251 0.0396446 1.92985e-19)
(0.202465 0.0469874 1.67185e-19)
(-0.00649857 0.00941033 4.27364e-19)
(-0.0173238 0.0250249 -3.01804e-19)
(-0.0261516 0.0378959 7.33355e-20)
(-0.0327809 0.0481949 2.38916e-19)
(-0.037095 0.0561115 -2.57662e-19)
(-0.0390141 0.0618603 1.27696e-20)
(-0.0384805 0.0656691 1.96038e-19)
(-0.0354474 0.0677686 3.60538e-19)
(-0.0298671 0.0683847 4.88408e-19)
(-0.0216805 0.0677332 -4.68192e-19)
(-0.0108086 0.0660157 -2.79604e-19)
(0.0028536 0.0634164 1.32875e-19)
(0.0194415 0.0601023 -3.82625e-19)
(0.0391215 0.0562263 2.60555e-20)
(0.0620881 0.0519388 1.49395e-19)
(0.0885465 0.0474142 1.14746e-19)
(0.118724 0.0429484 3.56387e-19)
(0.152732 0.03915 7.52931e-20)
(0.189112 0.0369477 -2.71019e-19)
(0.23426 0.044922 2.93099e-19)
(-0.00672539 0.00933504 -4.05157e-19)
(-0.0178353 0.0247279 3.00495e-19)
(-0.0267686 0.0373291 7.30237e-20)
(-0.033315 0.0473334 -2.36816e-19)
(-0.03735 0.0549502 1.00062e-19)
(-0.0387877 0.0604104 -4.83903e-20)
(-0.0375638 0.0639541 -3.66075e-20)
(-0.0336233 0.0658214 -3.04296e-19)
(-0.0269081 0.0662453 -4.80492e-19)
(-0.017346 0.0654469 4.49655e-19)
(-0.00484255 0.0636319 -1.62072e-19)
(0.0107248 0.0609877 5.09166e-21)
(0.0295092 0.0576836 9.20262e-20)
(0.0516931 0.0538726 1.9566e-19)
(0.0774835 0.0496996 -2.38669e-20)
(0.10709 0.0453209 -5.54157e-20)
(0.140738 0.0409907 -2.86512e-19)
(0.178577 0.0372647 -1.92533e-19)
(0.218845 0.0347685 -1.82904e-19)
(0.269263 0.0434887 2.94738e-19)
(-0.00695118 0.00925342 3.24739e-19)
(-0.0183269 0.0244027 -8.47724e-20)
(-0.0273312 0.0367079 2.88409e-19)
(-0.0337451 0.0463901 6.99508e-20)
(-0.037437 0.0536812 -1.54279e-19)
(-0.0383144 0.0588297 2.49849e-20)
(-0.0363052 0.0620902 -3.29021e-19)
(-0.0313447 0.0637135 1.49712e-19)
(-0.0233622 0.063941 8.101e-20)
(-0.0122699 0.0630006 -2.98716e-20)
(0.00204475 0.0611039 -3.40928e-20)
(0.0197239 0.0584439 4.02911e-20)
(0.0409397 0.0551951 -1.8399e-19)
(0.0658908 0.0515143 -4.29564e-19)
(0.0947932 0.0475467 2.18014e-19)
(0.127853 0.0434362 -1.09631e-19)
(0.165278 0.0393994 -2.71644e-20)
(0.207239 0.035939 4.65698e-19)
(0.251633 0.0332615 4.89682e-19)
(0.307555 0.0429071 -7.53581e-19)
(-0.00717529 0.00916523 -8.29303e-20)
(-0.0187946 0.0240489 -9.12614e-20)
(-0.0278298 0.0360327 -1.80754e-19)
(-0.0340549 0.0453666 1.32503e-19)
(-0.0373313 0.0523073 2.40461e-19)
(-0.0375593 0.0571235 -3.11076e-19)
(-0.0346584 0.0600851 4.97227e-19)
(-0.0285524 0.0614553 -9.72519e-20)
(-0.0191557 0.0614853 1.42325e-20)
(-0.00636254 0.0604113 -3.37381e-19)
(0.0099601 0.0584524 -2.57771e-20)
(0.0299757 0.0558097 -2.78731e-19)
(0.0538762 0.0526657 3.74366e-19)
(0.0818749 0.0491854 2.46725e-19)
(0.114192 0.04552 -4.83088e-19)
(0.15102 0.0418087 -4.12416e-19)
(0.192532 0.038239 9.55164e-20)
(0.23888 0.0352686 5.57893e-19)
(0.287626 0.0325787 2.58622e-19)
(0.349108 0.0434125 1.41123e-19)
(-0.00739679 0.00906993 2.5708e-20)
(-0.0192335 0.0236656 8.84959e-20)
(-0.0282536 0.035303 1.06563e-19)
(-0.0342259 0.0442638 -8.90681e-20)
(-0.0370052 0.0508317 2.23074e-19)
(-0.0364845 0.0552972 2.99008e-19)
(-0.0325735 0.0579473 4.71794e-21)
(-0.0251829 0.0590587 -3.86234e-19)
(-0.0142101 0.0588939 -3.08866e-19)
(0.000470658 0.0576987 3.23757e-19)
(0.0190149 0.0557018 -4.33741e-19)
(0.0416085 0.053114 -4.87866e-19)
(0.068463 0.050129 -4.8831e-20)
(0.0998031 0.0469239 -2.54344e-20)
(0.135847 0.0436615 1.70902e-19)
(0.176759 0.0404852 1.12455e-19)
(0.222659 0.0375674 1.46381e-19)
(0.273623 0.0353315 -6.89552e-19)
(0.326939 0.0328639 -1.91464e-19)
(0.393768 0.0452397 5.04349e-19)
(-0.00761436 0.00896671 -1.53976e-19)
(-0.0196378 0.0232512 1.50775e-19)
(-0.0285903 0.0345181 -1.11242e-19)
(-0.0342377 0.0430825 -5.52728e-20)
(-0.0364286 0.0492575 -1.50629e-19)
(-0.0350486 0.0533569 -1.14204e-19)
(-0.0299966 0.0556864 -2.04228e-19)
(-0.0211684 0.0565375 3.3766e-19)
(-0.00844272 0.0561851 1.3424e-19)
(0.00832833 0.0548862 -3.29708e-19)
(0.0293238 0.0528806 5.16792e-19)
(0.0547522 0.0503907 2.65507e-19)
(0.0848424 0.0476238 -2.00889e-19)
(0.119826 0.0447722 -2.82314e-19)
(0.159909 0.0420163 -3.63842e-20)
(0.205214 0.0395117 2.91414e-19)
(0.255785 0.0374355 -1.95484e-19)
(0.311537 0.0361829 7.45962e-20)
(0.369648 0.0342474 1.68906e-19)
(0.441242 0.0485945 4.25646e-19)
(-0.00782631 0.00885452 -1.57788e-20)
(-0.0200006 0.0228038 -3.72396e-19)
(-0.0288258 0.0336767 9.0798e-20)
(-0.0340673 0.0418232 2.01792e-19)
(-0.0355685 0.0475878 -3.72418e-20)
(-0.0332071 0.0513093 -2.44419e-19)
(-0.0268702 0.0533132 2.69412e-19)
(-0.0164374 0.0539072 3.08487e-19)
(-0.00176693 0.0533798 1.18104e-19)
(0.0173123 0.0520006 5.86443e-19)
(0.0410033 0.0500215 -2.72806e-19)
(0.0695356 0.0476785 1.30821e-19)
(0.103152 0.0451939 -1.35106e-19)
(0.142082 0.0427779 3.25801e-19)
(0.186511 0.040632 -2.86737e-20)
(0.236496 0.0389326 -7.56405e-20)
(0.291989 0.0378872 -1.2081e-19)
(0.352625 0.0378506 1.90738e-19)
(0.41577 0.0368682 -4.82511e-19)
(0.491039 0.0536906 -6.54803e-19)
(-0.00803048 0.00873202 -8.93228e-20)
(-0.0203138 0.0223211 -3.3136e-20)
(-0.0289442 0.032777 -3.00925e-19)
(-0.0336899 0.0404861 1.84214e-19)
(-0.0343895 0.0458259 -1.88076e-19)
(-0.0309125 0.0491617 -1.90968e-19)
(-0.0231337 0.0508399 -1.72591e-20)
(-0.010915 0.0511855 -3.11277e-19)
(0.0059068 0.0505018 -4.93726e-19)
(0.0275265 0.0490722 1.35078e-19)
(0.0541697 0.047162 1.51394e-19)
(0.0860839 0.0450215 1.82654e-19)
(0.123518 0.0428887 4.67035e-19)
(0.166693 0.0409927 -4.59815e-20)
(0.215753 0.0395584 -1.0144e-19)
(0.270675 0.0387885 -1.43127e-20)
(0.331303 0.0389526 2.56294e-19)
(0.396842 0.0403272 4.56923e-19)
(0.465235 0.0409568 -1.28657e-19)
(0.54227 0.0609305 4.74345e-19)
(-0.00822424 0.00859767 2.80056e-19)
(-0.0205681 0.0218 -4.54706e-20)
(-0.0289279 0.0318169 2.65762e-19)
(-0.033078 0.0390712 -2.72472e-19)
(-0.0328529 0.0439754 4.02257e-19)
(-0.0281142 0.046922 3.36502e-19)
(-0.0187232 0.0482797 -2.76468e-19)
(-0.00452348 0.0483919 -5.14368e-19)
(0.01467 0.0475778 8.52647e-19)
(0.0390749 0.0461353 2.10516e-19)
(0.0689368 0.0443439 -1.64079e-19)
(0.104515 0.0424686 -1.62171e-19)
(0.146056 0.0407628 -8.07639e-20)
(0.193754 0.039473 -1.2672e-19)
(0.2477 0.0388455 -4.20193e-19)
(0.307771 0.0391103 -1.14772e-19)
(0.3737 0.0406251 9.47008e-21)
(0.444167 0.0435359 -3.13929e-19)
(0.518088 0.046843 1.56147e-19)
(0.593763 0.07062 -3.381e-19)
(-0.00840444 0.00844973 -4.47507e-19)
(-0.0207528 0.0212375 3.0117e-19)
(-0.0287574 0.030794 -4.48634e-19)
(-0.0322019 0.0375789 -2.44343e-19)
(-0.0309179 0.04204 9.11134e-20)
(-0.0247589 0.044599 -3.63739e-19)
(-0.0135722 0.0456475 5.69858e-19)
(0.00281695 0.0455482 9.76529e-21)
(0.0246151 0.0446371 -3.16942e-19)
(0.0520603 0.0432275 -2.76929e-19)
(0.0854129 0.0416135 -4.94513e-19)
(0.124935 0.0400738 -6.04848e-21)
(0.170856 0.0388758 1.81817e-20)
(0.223328 0.0382789 -1.14124e-19)
(0.282363 0.0385438 5.0671e-19)
(0.347722 0.0399162 3.13719e-19)
(0.419043 0.0428409 7.8285e-20)
(0.494578 0.0472848 -3.37635e-19)
(0.574853 0.054499 -1.81232e-20)
(0.646469 0.0804535 -5.55495e-19)
(-0.00856744 0.00828632 1.58955e-19)
(-0.0208561 0.0206302 -3.01337e-19)
(-0.0284113 0.0297061 3.87453e-19)
(-0.0310298 0.0360091 5.44621e-19)
(-0.0285411 0.0400242 -1.7723e-19)
(-0.0207907 0.0422025 2.29602e-20)
(-0.00761234 0.0429596 -4.80605e-19)
(0.0111871 0.0426782 -1.19543e-19)
(0.0358337 0.041712 -3.72011e-19)
(0.0665817 0.0403901 4.84984e-19)
(0.103698 0.0390207 4.49408e-19)
(0.147436 0.0378955 -7.99395e-20)
(0.197989 0.0372918 -6.01458e-20)
(0.255439 0.0374749 -5.28759e-21)
(0.319694 0.0387076 9.10003e-20)
(0.390365 0.041225 -1.64025e-19)
(0.466991 0.0455141 -1.90929e-19)
(0.547588 0.0512919 4.06234e-19)
(0.63515 0.0626149 -1.31315e-19)
(0.707338 0.0832008 1.59317e-20)
(-0.008709 0.00810544 4.19923e-20)
(-0.0208647 0.0199746 6.08686e-20)
(-0.0278664 0.0285505 -2.02886e-19)
(-0.0295276 0.0343625 -5.61469e-19)
(-0.0256768 0.037933 9.09992e-20)
(-0.016152 0.0397434 2.75514e-19)
(-0.000773747 0.0402338 1.25709e-19)
(0.020668 0.0398079 5.39349e-19)
(0.0484153 0.0388374 -3.38703e-19)
(0.0827323 0.0376672 -4.40132e-19)
(0.123882 0.0366193 -8.05813e-20)
(0.17209 0.0359956 2.0059e-19)
(0.227491 0.0360785 4.39259e-20)
(0.290067 0.0371304 2.36996e-19)
(0.359579 0.0393999 -2.90151e-19)
(0.435451 0.0430804 5.81672e-20)