/*--------------------------------*- C++ -*----------------------------------*\
  =========                 |
  \\      /  F ield         | OpenFOAM: The Open Source CFD Toolbox
   \\    /   O peration     | Website:  https://openfoam.org
    \\  /    A nd           | Version:  7
     \\/     M anipulation  |
\*---------------------------------------------------------------------------*/
FoamFile
{
    version     2.0;
    format      ascii;
    class       surfaceScalarField;
    location    "30";
    object      phi;
}
// * * * * * * * * * * * * * * * * * * * * * * * * * * * * * * * * * * * * * //

dimensions      [0 3 -1 0 0 0 0];

internalField   nonuniform List<scalar> 
42332
(
-5.18094e-07
5.27044e-07
-8.94915e-09
-1.97189e-06
1.47864e-06
-2.4848e-08
-4.29681e-06
2.36429e-06
-3.93664e-08
-7.42911e-06
3.18483e-06
-5.2532e-08
-1.13061e-05
3.94136e-06
-6.43898e-08
-1.58665e-05
4.63547e-06
-7.50064e-08
-2.10513e-05
5.26924e-06
-8.44671e-08
-2.68037e-05
5.8453e-06
-9.28752e-08
-3.30702e-05
6.36684e-06
-1.00349e-07
-3.98009e-05
6.83769e-06
-1.0702e-07
-4.69502e-05
7.26233e-06
-1.13027e-07
-5.44776e-05
7.64593e-06
-1.18511e-07
-6.23484e-05
7.99435e-06
-1.23611e-07
-7.05341e-05
8.31418e-06
-1.2846e-07
-7.90137e-05
8.61276e-06
-1.33178e-07
-8.77739e-05
8.89815e-06
-1.3787e-07
-9.68104e-05
9.17905e-06
-1.42623e-07
-0.000106128
9.4648e-06
-1.47504e-07
-0.00011574
9.76509e-06
-1.52558e-07
-0.000125672
1.00898e-05
-1.57809e-07
-0.000135957
1.04485e-05
-1.63257e-07
-0.000146639
1.08504e-05
-1.68881e-07
-0.000157767
1.13032e-05
-1.74636e-07
-0.000169399
1.18122e-05
-1.80452e-07
1.23862e-05
-1.86223e-07
-0.000181599
-5.16794e-07
1.04384e-06
-1.96705e-06
2.92889e-06
-4.28638e-06
4.68363e-06
-7.41121e-06
6.30966e-06
-1.12789e-05
7.80906e-06
-1.58284e-05
9.18492e-06
-2.10004e-05
1.04413e-05
-2.67383e-05
1.15832e-05
-3.29884e-05
1.26169e-05
-3.97006e-05
1.355e-05
-4.68293e-05
1.43911e-05
-5.43338e-05
1.51504e-05
-6.21788e-05
1.58394e-05
-7.03358e-05
1.64712e-05
-7.87833e-05
1.70602e-05
-8.75076e-05
1.76225e-05
-9.65039e-05
1.81753e-05
-0.000105776
1.87373e-05
-0.000115339
1.93277e-05
-0.000125216
1.99664e-05
-0.00013544
2.06727e-05
-0.000146054
2.14648e-05
-0.00015711
2.23587e-05
-0.000168662
2.33645e-05
2.45004e-05
-0.000180776
-5.14224e-07
1.55806e-06
-1.95747e-06
4.37214e-06
-4.26577e-06
6.99192e-06
-7.3758e-06
9.41969e-06
-1.12251e-05
1.16584e-05
-1.57528e-05
1.37125e-05
-2.08995e-05
1.5588e-05
-2.66086e-05
1.72922e-05
-3.28261e-05
1.88345e-05
-3.95018e-05
2.02257e-05
-4.65897e-05
2.14789e-05
-5.40484e-05
2.26091e-05
-6.18424e-05
2.36334e-05
-6.99423e-05
2.45711e-05
-7.83258e-05
2.54438e-05
-8.69787e-05
2.62753e-05
-9.5895e-05
2.70916e-05
-0.000105078
2.79204e-05
-0.000114541
2.87909e-05
-0.000124308
2.97327e-05
-0.00013441
3.07751e-05
-0.000144891
3.19456e-05
-0.0001558
3.32683e-05
-0.000167194
3.47585e-05
3.64436e-05
-0.000179137
-5.10407e-07
2.06847e-06
-1.94325e-06
5.80499e-06
-4.23513e-06
9.2838e-06
-7.32315e-06
1.25077e-05
-1.11452e-05
1.54804e-05
-1.56403e-05
1.82077e-05
-2.07494e-05
2.06971e-05
-2.64155e-05
2.29583e-05
-3.25845e-05
2.50035e-05
-3.92057e-05
2.6847e-05
-4.62326e-05
2.85058e-05
-5.36231e-05
2.99996e-05
-6.13408e-05
3.13511e-05
-6.93554e-05
3.25857e-05
-7.76434e-05
3.37319e-05
-8.61894e-05
3.48213e-05
-9.49861e-05
3.58883e-05
-0.000104036
3.697e-05
-0.00011335
3.81052e-05
-0.000122951
3.93339e-05
-0.000132871
4.06951e-05
-0.000143152
4.22262e-05
-0.000153843
4.39593e-05
-0.000165
4.59155e-05
4.81306e-05
-0.000176687
-5.05378e-07
2.57385e-06
-1.9245e-06
7.22411e-06
-4.19471e-06
1.1554e-05
-7.25366e-06
1.55667e-05
-1.10396e-05
1.92663e-05
-1.54917e-05
2.26598e-05
-2.05509e-05
2.57563e-05
-2.61601e-05
2.85675e-05
-3.22649e-05
3.11082e-05
-3.88139e-05
3.3396e-05
-4.57599e-05
3.54517e-05
-5.306e-05
3.72997e-05
-6.06765e-05
3.89676e-05
-6.85779e-05
4.0487e-05
-7.67393e-05
4.18932e-05
-8.51433e-05
4.32253e-05
-9.37811e-05
4.45261e-05
-0.000102653
4.5842e-05
-0.00011177
4.72217e-05
-0.000121151
4.87153e-05
-0.000130828
5.03724e-05
-0.000140842
5.22401e-05
-0.000151242
5.43594e-05
-0.000162084
5.67568e-05
5.9477e-05
-0.00017343
-4.99181e-07
3.07303e-06
-1.90137e-06
8.62629e-06
-4.14482e-06
1.37975e-05
-7.16785e-06
1.85897e-05
-1.09091e-05
2.30075e-05
-1.5308e-05
2.70587e-05
-2.03055e-05
3.07538e-05
-2.58442e-05
3.41062e-05
-3.18692e-05
3.71332e-05
-3.83286e-05
3.98554e-05
-4.51742e-05
4.22974e-05
-5.2362e-05
4.44875e-05
-5.98529e-05
4.64585e-05
-6.76136e-05
4.82478e-05
-7.56174e-05
4.9897e-05
-8.38449e-05
5.14527e-05
-9.2285e-05
5.29662e-05
-0.000100936
5.44929e-05
-0.000109806
5.60915e-05
-0.000118913
5.78227e-05
-0.000128287
5.97468e-05
-0.000137969
6.19213e-05
-0.000148006
6.43964e-05
-0.000158453
6.72042e-05
7.03986e-05
-0.000169375
-4.91871e-07
3.5649e-06
-1.87406e-06
1.00085e-05
-4.08586e-06
1.60093e-05
-7.06634e-06
2.15702e-05
-1.07546e-05
2.66958e-05
-1.50904e-05
3.13945e-05
-2.00145e-05
3.56779e-05
-2.54694e-05
3.95611e-05
-3.13996e-05
4.30635e-05
-3.77525e-05
4.62083e-05
-4.44786e-05
4.90235e-05
-5.15327e-05
5.15415e-05
-5.88739e-05
5.37998e-05
-6.6467e-05
5.58409e-05
-7.42829e-05
5.77129e-05
-8.22997e-05
5.94695e-05
-9.05038e-05
6.11702e-05
-9.88905e-05
6.28796e-05
-0.000107465
6.46664e-05
-0.000116245
6.66022e-05
-0.000125257
6.87585e-05
-0.000134539
7.12038e-05
-0.000144141
7.39981e-05
-0.000154117
7.718e-05
8.08119e-05
-0.00016453
-4.83511e-07
4.04841e-06
-1.84278e-06
1.13677e-05
-4.01827e-06
1.81848e-05
-6.94988e-06
2.45018e-05
-1.05772e-05
3.03232e-05
-1.48403e-05
3.56576e-05
-1.968e-05
4.05175e-05
-2.50382e-05
4.49193e-05
-3.08589e-05
4.88842e-05
-3.70887e-05
5.2438e-05
-4.36767e-05
5.56116e-05
-5.05761e-05
5.84409e-05
-5.77442e-05
6.09678e-05
-6.51432e-05
6.32399e-05
-7.27415e-05
6.53112e-05
-8.05143e-05
6.72423e-05
-8.84445e-05
6.91005e-05
-9.65245e-05
7.09596e-05
-0.000104757
7.28986e-05
-0.000113155
7.50003e-05
-0.000121744
7.73479e-05
-0.000130562
8.00219e-05
-0.000139657
8.30927e-05
-0.000149083
8.66062e-05
9.06337e-05
-0.000158905
-4.74172e-07
4.52258e-06
-1.80779e-06
1.27014e-05
-3.94257e-06
2.03195e-05
-6.81929e-06
2.73785e-05
-1.03782e-05
3.38821e-05
-1.45594e-05
3.98389e-05
-1.93037e-05
4.52618e-05
-2.45528e-05
5.01684e-05
-3.025e-05
5.45814e-05
-3.63405e-05
5.85286e-05
-4.27724e-05
6.20434e-05
-4.94968e-05
6.51653e-05
-5.64688e-05
6.79398e-05
-6.36481e-05
7.04192e-05
-7.09998e-05
7.26629e-05
-7.84957e-05
7.47381e-05
-8.61151e-05
7.67199e-05
-9.38465e-05
7.8691e-05
-0.000101689
8.07408e-05
-0.000109652
8.29638e-05
-0.00011776
8.54557e-05
-0.000126048
8.83098e-05
-0.000134564
9.16084e-05
-0.000143363
9.54053e-05
9.97814e-05
-0.000152511
-4.63933e-07
4.98651e-06
-1.76936e-06
1.40068e-05
-3.8593e-06
2.24095e-05
-6.67548e-06
3.01947e-05
-1.01587e-05
3.73653e-05
-1.42493e-05
4.39295e-05
-1.88881e-05
4.99005e-05
-2.40162e-05
5.52965e-05
-2.9576e-05
6.01413e-05
-3.55119e-05
6.44644e-05
-4.17701e-05
6.83016e-05
-4.82998e-05
7.1695e-05
-5.50536e-05
7.46935e-05
-6.1988e-05
7.73536e-05
-6.90648e-05
7.97397e-05
-7.62517e-05
8.19251e-05
-8.3524e-05
8.39922e-05
-9.08657e-05
8.60327e-05
-9.82714e-05
8.81465e-05
-0.000105748
9.04402e-05
-0.000113315
9.30229e-05
-0.000121007
9.6002e-05
-0.000128872
9.94731e-05
-0.000136966
0.0001035
0.000108172
-0.000145357
-4.52878e-07
5.43939e-06
-1.72778e-06
1.52817e-05
-3.76908e-06
2.44508e-05
-6.51943e-06
3.2945e-05
-9.92019e-06
4.0766e-05
-1.3912e-05
4.79214e-05
-1.84353e-05
5.44239e-05
-2.3431e-05
6.02922e-05
-2.88405e-05
6.55508e-05
-3.46068e-05
7.02307e-05
-4.06744e-05
7.43693e-05
-4.69903e-05
7.80109e-05
-5.35042e-05
8.12075e-05
-6.01695e-05
8.40189e-05
-6.69438e-05
8.65141e-05
-7.37906e-05
8.87719e-05
-8.06803e-05
9.08819e-05
-8.75918e-05
9.29442e-05
-9.45148e-05
9.50695e-05
-0.000101452
9.73771e-05
-0.000108419
9.99904e-05
-0.00011545
0.000103033
-0.000122591
0.000106614
-0.000129902
0.000110811
0.000115723
-0.000137453
-4.41097e-07
5.88049e-06
-1.68336e-06
1.6524e-05
-3.67253e-06
2.64399e-05
-6.35216e-06
3.56247e-05
-9.66417e-06
4.4078e-05
-1.35494e-05
5.18066e-05
-1.7948e-05
5.88225e-05
-2.28003e-05
6.51445e-05
-2.80469e-05
7.07974e-05
-3.36293e-05
7.5813e-05
-3.949e-05
8.023e-05
-4.55736e-05
8.40946e-05
-5.18269e-05
8.74607e-05
-5.81994e-05
9.03913e-05
-6.46445e-05
9.29592e-05
-7.11208e-05
9.52482e-05
-7.75931e-05
9.73541e-05
-8.40347e-05
9.93858e-05
-9.04296e-05
0.000101464
-9.67752e-05
0.000103723
-0.000103084
0.0001063
-0.000109387
0.000109335
-0.000115732
0.000112959
-0.000122181
0.000117259
0.000122351
-0.000128809
-4.28681e-07
6.30917e-06
-1.63643e-06
1.77317e-05
-3.5703e-06
2.83738e-05
-6.17474e-06
3.82291e-05
-9.39213e-06
4.72954e-05
-1.31634e-05
5.55779e-05
-1.74286e-05
6.30877e-05
-2.21273e-05
6.98431e-05
-2.7199e-05
7.58691e-05
-3.25835e-05
8.11976e-05
-3.82217e-05
8.58682e-05
-4.40553e-05
8.99281e-05
-5.00277e-05
9.34331e-05
-5.60845e-05
9.64482e-05
-6.21745e-05
9.90492e-05
-6.82506e-05
0.000101324
-7.42716e-05
0.000103375
-8.02043e-05
0.000105318
-8.60263e-05
0.000107286
-9.17289e-05
0.000109425
-9.73205e-05
0.000111891
-0.000102829
0.000114844
-0.000108303
0.000118434
-0.000113809
0.000122765
0.000127971
-0.000119429
-4.15726e-07
6.72489e-06
-1.58732e-06
1.89033e-05
-3.46306e-06
3.02496e-05
-5.98823e-06
4.07543e-05
-9.10562e-06
5.04128e-05
-1.27562e-05
5.92285e-05
-1.68797e-05
6.72112e-05
-2.14149e-05
7.43783e-05
-2.63001e-05
8.07543e-05
-3.14737e-05
8.63712e-05
-3.68742e-05
9.12686e-05
-4.24405e-05
9.54944e-05
-4.81124e-05
9.91051e-05
-5.38314e-05
0.000102167
-5.9541e-05
0.000104759
-6.5188e-05
0.000106971
-7.07245e-05
0.000108912
-7.61101e-05
0.000110704
-8.13148e-05
0.000112491
-8.63231e-05
0.000114434
-9.1138e-05
0.000116706
-9.57846e-05
0.000119491
-0.000100313
0.000122962
-0.000104793
0.000127245
0.000132495
-0.000109317
-4.02326e-07
7.12722e-06
-1.53634e-06
2.00373e-05
-3.35148e-06
3.20647e-05
-5.7937e-06
4.31965e-05
-8.80616e-06
5.34253e-05
-1.23298e-05
6.27521e-05
-1.63037e-05
7.11852e-05
-2.06661e-05
7.87407e-05
-2.5354e-05
8.54422e-05
-3.03039e-05
9.13211e-05
-3.54519e-05
9.64167e-05
-4.07342e-05
0.000100777
-4.60867e-05
0.000104458
-5.14463e-05
0.000107527
-5.67508e-05
0.000110063
-6.19405e-05
0.000112161
-6.69601e-05
0.000113931
-7.17608e-05
0.000115505
-7.63043e-05
0.000117035
-8.05671e-05
0.000118696
-8.45456e-05
0.000120684
-8.82614e-05
0.000123206
-9.17654e-05
0.000126466
-9.51349e-05
0.000130615
0.000135832
-9.84725e-05
-3.88575e-07
7.5158e-06
-1.48383e-06
2.11326e-05
-3.2362e-06
3.38171e-05
-5.59223e-06
4.55525e-05
-8.49523e-06
5.63283e-05
-1.1886e-05
6.61428e-05
-1.57031e-05
7.50024e-05
-1.98838e-05
8.29214e-05
-2.43637e-05
8.99221e-05
-2.90776e-05
9.60349e-05
-3.3959e-05
0.000101298
-3.8941e-05
0.000105759
-4.39555e-05
0.000109472
-4.89344e-05
0.000112506
-5.38097e-05
0.000114939
-5.85145e-05
0.000116866
-6.29851e-05
0.000118402
-6.71638e-05
0.000119683
-7.10025e-05
0.000120873
-7.44684e-05
0.000122162
-7.75502e-05
0.000123766
-8.0265e-05
0.000125921
-8.26646e-05
0.000128865
-8.48342e-05
0.000132784
0.000137888
-8.68901e-05
-3.74567e-07
7.89036e-06
-1.43011e-06
2.21881e-05
-3.11788e-06
3.55048e-05
-5.38482e-06
4.78194e-05
-8.17429e-06
5.91177e-05
-1.14267e-05
6.93952e-05
-1.50802e-05
7.86558e-05
-1.90707e-05
8.69118e-05
-2.33325e-05
9.41839e-05
-2.77983e-05
0.000100501
-3.23992e-05
0.000105899
-3.70647e-05
0.000110424
-4.17229e-05
0.00011413
-4.63002e-05
0.000117083
-5.07224e-05
0.000119361
-5.49149e-05
0.000121058
-5.8805e-05
0.000122292
-6.23247e-05
0.000123203
-6.54151e-05
0.000123964
-6.80326e-05
0.00012478
-7.01564e-05
0.00012589
-7.17979e-05
0.000127563
-7.30098e-05
0.000130077
-7.38861e-05
0.000133661
0.00013856
-7.4558e-05
-3.60389e-07
8.25075e-06
-1.37548e-06
2.32032e-05
-2.99711e-06
3.71265e-05
-5.17244e-06
4.99948e-05
-7.84467e-06
6.179e-05
-1.09538e-05
7.25043e-05
-1.4437e-05
8.2139e-05
-1.82291e-05
9.0704e-05
-2.22628e-05
9.82176e-05
-2.64687e-05
0.000104707
-3.07752e-05
0.000110206
-3.51084e-05
0.000114757
-3.93919e-05
0.000118414
-4.35469e-05
0.000121238
-4.74921e-05
0.000123306
-5.11449e-05
0.000124711
-5.44228e-05
0.00012557
-5.72467e-05
0.000126027
-5.95452e-05
0.000126262
-6.1262e-05
0.000126497
-6.23654e-05
0.000126993
-6.28593e-05
0.000128057
-6.27964e-05
0.000130014
-6.22803e-05
0.000133145
0.000137738
-6.14577e-05
-3.46128e-07
8.59688e-06
-1.32023e-06
2.41773e-05
-2.87448e-06
3.86807e-05
-4.95598e-06
5.20763e-05
-7.5076e-06
6.43416e-05
-1.04686e-05
7.54654e-05
-1.37753e-05
8.54457e-05
-1.73611e-05
9.42898e-05
-2.1157e-05
0.000102014
-2.50912e-05
0.000108641
-2.90895e-05
0.000114204
-3.30742e-05
0.000118742
-3.69645e-05
0.000122304
-4.06758e-05
0.000124949
-4.41199e-05
0.00012675
-4.72054e-05
0.000127797
-4.98393e-05
0.000128204
-5.19299e-05
0.000128118
-5.33923e-05
0.000127725
-5.41556e-05
0.00012726
-5.41746e-05
0.000127012
-5.34438e-05
0.000127326
-5.20146e-05
0.000128585
-5.00013e-05
0.000131131
0.000135301
-4.75643e-05
-3.3186e-07
8.92874e-06
-1.26463e-06
2.51101e-05
-2.7505e-06
4.01666e-05
-4.73627e-06
5.4062e-05
-7.1642e-06
6.67695e-05
-9.97267e-06
7.82738e-05
-1.30967e-05
8.85697e-05
-1.64683e-05
9.76614e-05
-2.00165e-05
0.000105562
-2.36673e-05
0.000112292
-2.73431e-05
0.00011788
-3.09629e-05
0.000122362
-3.44409e-05
0.000125782
-3.76868e-05
0.000128195
-4.06048e-05
0.000129668
-4.30944e-05
0.000130286
-4.50514e-05
0.000130161
-4.63708e-05
0.000129437
-4.69519e-05
0.000128306
-4.67073e-05
0.000127015
-4.5576e-05
0.000125881
-4.35405e-05
0.00012529
-4.06495e-05
0.000125694
-3.70286e-05
0.00012751
0.000131118
-3.28457e-05
-3.17661e-07
9.2464e-06
-1.20891e-06
2.60013e-05
-2.62564e-06
4.15833e-05
-4.51401e-06
5.59504e-05
-6.81539e-06
6.90709e-05
-9.46701e-06
8.09255e-05
-1.24025e-05
9.15052e-05
-1.5552e-05
0.000100811
-1.88426e-05
0.000108852
-2.21975e-05
0.000115647
-2.55363e-05
0.000121218
-2.87739e-05
0.000125599
-3.18197e-05
0.000128828
-3.45771e-05
0.000130953
-3.69429e-05
0.000132034
-3.88068e-05
0.00013215
-4.00527e-05
0.000131407
-4.0561e-05
0.000129945
-4.0214e-05
0.000127959
-3.89054e-05
0.000125707
-3.65552e-05
0.000123531
-3.31311e-05
0.000121866
-2.86775e-05
0.000121241
-2.33434e-05
0.000122176
0.000125047
-1.72727e-05
-3.03594e-07
9.54999e-06
-1.15329e-06
2.6851e-05
-2.5003e-06
4.29303e-05
-4.28981e-06
5.77399e-05
-6.46195e-06
7.12431e-05
-8.9525e-06
8.3416e-05
-1.16934e-05
9.42461e-05
-1.46128e-05
0.00010373
-1.76354e-05
0.000111875
-2.06818e-05
0.000118693
-2.36682e-05
0.000124205
-2.65052e-05
0.000128436
-2.90974e-05
0.00013142
-3.13418e-05
0.000133197
-3.31273e-05
0.000133819
-3.43336e-05
0.000133356
-3.48319e-05
0.000131905
-3.44871e-05
0.0001296
-3.31627e-05
0.000126634
-3.0731e-05
0.000123275
-2.70896e-05
0.00011989
-2.21874e-05
0.000116964
-1.60554e-05
0.000115109
-8.87783e-06
0.000114999
0.000117444
-1.27506e-06
-2.89716e-07
9.83971e-06
-1.09796e-06
2.76593e-05
-2.37483e-06
4.42072e-05
-4.06415e-06
5.94292e-05
-6.10445e-06
7.32834e-05
-8.42973e-06
8.57413e-05
-1.09699e-05
9.67862e-05
-1.36509e-05
0.000106411
-1.63947e-05
0.000114619
-1.9119e-05
0.000121417
-2.17363e-05
0.000126822
-2.4153e-05
0.000130853
-2.62684e-05
0.000133536
-2.79731e-05
0.000134902
-2.91477e-05
0.000134994
-2.96614e-05
0.00013387
-2.93726e-05
0.000131616
-2.81293e-05
0.000128357
-2.57749e-05
0.00012428
-2.21574e-05
0.000119658
-1.71481e-05
0.00011488
-1.06715e-05
0.000110487
-2.74408e-06
0.000107181
6.50512e-06
0.000105749
0.000107315
1.6634e-05
-2.76077e-07
1.01158e-05
-1.04307e-06
2.84263e-05
-2.24949e-06
4.54136e-05
-3.83737e-06
6.10171e-05
-5.74325e-06
7.51892e-05
-7.89895e-06
8.7897e-05
-1.0232e-05
9.91192e-05
-1.26657e-05
0.000108845
-1.51192e-05
0.000117072
-1.75067e-05
0.000123805
-1.97369e-05
0.000129052
-2.17118e-05
0.000132828
-2.3325e-05
0.000135149
-2.44603e-05
0.000136037
-2.49898e-05
0.000135523
-2.47725e-05
0.000133653
-2.36526e-05
0.000130496
-2.14612e-05
0.000126166
-1.80196e-05
0.000120838
-1.31491e-05
0.000114787
-6.69065e-06
0.000108422
1.46169e-06
0.000102335
1.13084e-05
9.73345e-05
2.26749e-05
9.43828e-05
9.47987e-05
3.51915e-05
-2.62715e-07
1.03785e-05
-9.88723e-07
2.91523e-05
-2.12446e-06
4.65494e-05
-3.60968e-06
6.25023e-05
-5.37849e-06
7.6958e-05
-7.3601e-06
8.98786e-05
-9.47923e-06
0.000101238
-1.16562e-05
0.000111022
-1.38069e-05
0.000119223
-1.58417e-05
0.00012584
-1.76651e-05
0.000130876
-1.91741e-05
0.000134337
-2.02566e-05
0.000136231
-2.07894e-05
0.00013657
-2.06358e-05
0.00013537
-1.96438e-05
0.000132661
-1.76437e-05
0.000128496
-1.44486e-05
0.000122971
-9.8566e-06
0.000116246
-3.66002e-06
0.00010859
4.33478e-06
0.000100427
1.42703e-05
9.23994e-05
2.61732e-05
8.54316e-05
3.98726e-05
8.06834e-05
7.97453e-05
5.4926e-05
-2.49661e-07
1.06282e-05
-9.35001e-07
2.98376e-05
-1.99985e-06
4.76142e-05
-3.38115e-06
6.38836e-05
-5.01009e-06
7.8587e-05
-6.81278e-06
9.16813e-05
-8.71071e-06
0.000103136
-1.06207e-05
0.000112932
-1.24548e-05
0.000121057
-1.41194e-05
0.000127504
-1.55141e-05
0.00013227
-1.65306e-05
0.000135353
-1.70506e-05
0.000136751
-1.69434e-05
0.000136463
-1.60633e-05
0.00013449
-1.42471e-05
0.000130845
-1.1311e-05
0.00012556
-7.04937e-06
0.000118709
-1.23623e-06
0.000110433
6.3671e-06
0.000100987
1.59927e-05
9.08015e-05
2.78262e-05
8.05659e-05
4.19314e-05
7.13264e-05
5.81452e-05
6.44697e-05
6.1935e-05
7.59554e-05
-2.36933e-07
1.08651e-05
-8.81941e-07
3.04826e-05
-1.87565e-06
4.86079e-05
-3.15167e-06
6.51596e-05
-4.63769e-06
8.0073e-05
-6.25623e-06
9.32998e-05
-7.92498e-06
0.000104805
-9.55679e-06
0.000114564
-1.10593e-05
0.000122559
-1.23342e-05
0.000128779
-1.32758e-05
0.000133212
-1.377e-05
0.000135848
-1.36916e-05
0.000136673
-1.29019e-05
0.000135673
-1.12461e-05
0.000132834
-8.54909e-06
0.000128148
-4.61277e-06
0.000121624
7.87219e-07
0.000113309
7.90158e-06
0.000103319
1.70016e-05
9.18871e-05
2.83614e-05
7.94417e-05
4.22162e-05
6.67111e-05
5.86773e-05
5.48654e-05
7.75994e-05
4.55475e-05
4.11299e-05
9.84046e-05
-2.2454e-07
1.10896e-05
-8.29538e-07
3.10876e-05
-1.7518e-06
4.95302e-05
-2.92098e-06
6.63288e-05
-4.26071e-06
8.14127e-05
-5.68932e-06
9.47284e-05
-7.1201e-06
0.000106236
-8.4613e-06
0.000115905
-9.61559e-06
0.000123714
-1.04792e-05
0.000129643
-1.09407e-05
0.000133674
-1.08791e-05
0.000135786
-1.01617e-05
0.000135955
-8.64154e-06
0.000134153
-6.15351e-06
0.000130346
-2.51085e-06
0.000124505
2.49937e-06
0.000116614
9.12027e-06
0.000106688
1.76274e-05
9.48116e-05
2.83256e-05
8.11889e-05
4.15335e-05
6.62338e-05
5.75423e-05
5.07023e-05
7.65219e-05
3.58858e-05
9.83586e-05
2.37109e-05
1.7071e-05
0.000122418
-2.12481e-07
1.13021e-05
-7.77744e-07
3.16529e-05
-1.62812e-06
5.03805e-05
-2.68866e-06
6.73894e-05
-3.87831e-06
8.26024e-05
-5.11054e-06
9.59607e-05
-6.29364e-06
0.000107419
-7.33052e-06
0.000116942
-8.11815e-06
0.000124501
-8.5466e-06
0.000130071
-8.4976e-06
0.000133625
-7.8427e-06
0.000135131
-6.44091e-06
0.000134554
-4.13569e-06
0.000131848
-7.51362e-07
0.000126961
3.91132e-06
0.000119842
1.00802e-05
0.000110445
1.80171e-05
9.87513e-05
2.80222e-05
8.48065e-05
4.04337e-05
6.87774e-05
5.56164e-05
5.10511e-05
7.39228e-05
3.23959e-05
9.55929e-05
1.42157e-05
0.000120561
-1.2569e-06
-1.05183e-05
0.00014815
-2.0074e-07
1.15029e-05
-7.26466e-07
3.21786e-05
-1.50433e-06
5.11584e-05
-2.4541e-06
6.83391e-05
-3.48935e-06
8.36376e-05
-4.51801e-06
9.69893e-05
-5.44262e-06
0.000108344
-6.15998e-06
0.000117659
-6.56053e-06
0.000124902
-6.52726e-06
0.000130038
-5.93412e-06
0.000133031
-4.64411e-06
0.000133841
-2.50678e-06
0.000132416
6.44877e-07
0.000128696
4.99821e-06
0.000122608
1.07656e-05
0.000114075
1.81903e-05
0.00010302
2.75525e-05
8.93891e-05
3.91762e-05
7.31828e-05
5.34323e-05
5.45213e-05
7.07316e-05
3.37517e-05
9.14915e-05
1.1636e-05
0.000116033
-1.0326e-05
0.000144357
-2.95809e-05
-4.1928e-05
0.000175767
-1.89294e-07
1.16922e-05
-6.75564e-07
3.26649e-05
-1.38004e-06
5.18629e-05
-2.21651e-06
6.91756e-05
-3.09243e-06
8.45135e-05
-3.90945e-06
9.78064e-05
-4.56352e-06
0.000108998
-4.94453e-06
0.00011804
-4.93543e-06
0.000124893
-4.41105e-06
0.000129513
-3.23645e-06
0.000131857
-1.26484e-06
0.00013187
1.665e-06
0.000129487
5.73188e-06
0.000124629
1.11361e-05
0.000117204
1.81041e-05
0.000107107
2.68951e-05
9.42292e-05
3.78076e-05
7.84766e-05
5.11882e-05
5.98022e-05
6.74385e-05
3.8271e-05
8.70136e-05
1.41766e-05
0.000110397
-1.17473e-05
0.000138
-3.79292e-05
0.000169911
-6.14916e-05
-7.74568e-05
0.00020544
-1.78102e-07
1.18703e-05
-6.24846e-07
3.31116e-05
-1.25478e-06
5.24928e-05
-1.97493e-06
6.98958e-05
-2.68586e-06
8.52245e-05
-3.28214e-06
9.84026e-05
-3.65231e-06
0.000109368
-3.67833e-06
0.000118066
-3.23464e-06
0.000124449
-2.18677e-06
0.000128466
-3.89562e-07
0.00013006
2.31502e-06
0.000129165
6.10049e-06
0.000125701
1.11591e-05
0.00011957
1.77055e-05
0.000110658
2.59818e-05
9.88304e-05
3.62637e-05
8.39473e-05
4.88681e-05
6.58722e-05
6.41628e-05
4.45074e-05
8.25772e-05
1.98567e-05
0.000104607
-7.85315e-06
0.000130799
-3.79395e-05
0.000161662
-6.8792e-05
0.000197391
-9.72206e-05
-0.000117405
0.000237339
-1.67111e-07
1.20374e-05
-5.74065e-07
3.35186e-05
-1.12792e-06
5.30467e-05
-1.72815e-06
7.0496e-05
-2.26762e-06
8.57639e-05
-2.63296e-06
9.8768e-05
-2.70435e-06
0.000109439
-2.35482e-06
0.000117717
-1.44913e-06
0.000123543
1.57801e-07
0.000126859
2.6228e-06
0.000127595
6.11674e-06
0.000125671
1.08273e-05
0.000120991
1.69618e-05
0.000113436
2.47514e-05
0.000102868
3.44555e-05
8.91264e-05
4.63674e-05
7.20354e-05
6.08224e-05
5.14172e-05
7.82083e-05
2.71215e-05
9.89783e-05
-9.13314e-07
0.000123663
-3.25374e-05
0.000152866
-6.71427e-05
0.000187194
-0.00010312
0.000226969
-0.000136996
-0.000162065
0.000271629
-1.56252e-07
1.21936e-05
-5.22917e-07
3.38852e-05
-9.98735e-07
5.35225e-05
-1.47479e-06
7.0972e-05
-1.8354e-06
8.61246e-05
-1.95834e-06
9.88909e-05
-1.71444e-06
0.000109195
-9.66697e-07
0.000116969
4.31054e-07
0.000122146
2.63591e-06
0.000124654
5.81799e-06
0.000124413
1.01628e-05
0.000121326
1.58741e-05
0.000115279
2.31767e-05
0.000106133
3.23202e-05
9.37244e-05
4.3583e-05
7.78635e-05
5.72779e-05
5.83405e-05
7.37592e-05
3.49359e-05
9.3433e-05
7.44764e-06
0.000116772
-2.42523e-05
0.000144333
-6.00981e-05
0.000176767
-9.9577e-05
0.000214773
-0.000141126
0.000258814
-0.000181037
-0.000211708
0.000308457
-1.4544e-07
1.23391e-05
-4.71036e-07
3.42108e-05
-8.66347e-07
5.39178e-05
-1.21322e-06
7.13189e-05
-1.38652e-06
8.62979e-05
-1.25423e-06
9.87586e-05
-6.76767e-07
0.000108618
4.94065e-07
0.000115798
2.41671e-06
0.000120223
5.2618e-06
0.000121809
9.21447e-06
0.00012046
1.44769e-05
0.000116064
2.12708e-05
0.000108485
2.98411e-05
9.75631e-05
4.0458e-05
8.31075e-05
5.34217e-05
6.48998e-05
6.90661e-05
4.26961e-05
8.77651e-05
1.62369e-05
0.000109942
-1.47294e-05
0.000136085
-5.03948e-05
0.000166766
-9.07791e-05
0.000202669
-0.00013548
0.00024457
-0.000183028
0.000293081
-0.000229548
-0.00026657
0.000347944
-1.34571e-07
1.24736e-05
-4.17988e-07
3.44943e-05
-7.29745e-07
5.42296e-05
-9.41562e-07
7.15307e-05
-9.17961e-07
8.62743e-05
-5.16089e-07
9.83568e-05
4.15105e-07
0.000107687
2.03628e-06
0.000114177
4.51956e-06
0.00011774
8.05073e-06
0.000118278
1.28317e-05
0.000115679
1.90834e-05
0.000109812
2.70481e-05
0.000100521
3.69928e-05
8.76184e-05
4.92113e-05
7.08889e-05
6.40279e-05
5.00833e-05
8.17997e-05
2.49243e-05
0.000102922
-4.88518e-06
0.000127834
-3.96413e-05
0.000157033
-7.9594e-05
0.000191098
-0.000124844
0.000230724
-0.000175106
0.000276741
-0.000229045
0.000329906
-0.000282713
-0.000326834
0.000390169
-1.23523e-07
1.25971e-05
-3.63267e-07
3.4734e-05
-5.87764e-07
5.44541e-05
-6.57706e-07
7.16007e-05
-4.26303e-07
8.60429e-05
2.6113e-07
9.76693e-05
1.56828e-06
0.000106379
3.66957e-06
0.000112076
6.75225e-06
0.000114657
1.1019e-05
0.000114011
1.66903e-05
0.000110008
2.4008e-05
0.000102494
3.32372e-05
9.12913e-05
4.46696e-05
7.61861e-05
5.86253e-05
5.69332e-05
7.54551e-05
3.32535e-05
9.55421e-05
4.83727e-06
0.000119304
-2.86466e-05
0.000147195
-6.75325e-05
0.000179719
-0.000112118
0.000217447
-0.000162573
0.000261064
-0.000218723
0.000311419
-0.0002794
0.000369395
-0.000340689
-0.000392603
0.000435164
-1.12151e-07
1.27093e-05
-3.06293e-07
3.49281e-05
-4.39081e-07
5.45868e-05
-3.5926e-07
7.15209e-05
9.22515e-08
8.55914e-05
1.08301e-06
9.66786e-05
2.79055e-06
0.000104672
5.40437e-06
0.000109462
9.12839e-06
0.000110933
1.41838e-05
0.000108955
2.08118e-05
0.000103379
2.9277e-05
9.40292e-05
3.98699e-05
8.06985e-05
5.29092e-05
6.31468e-05
6.87438e-05
4.10985e-05
8.7754e-05
1.42433e-05
0.000110351
-1.77594e-05
0.000136975
-5.52709e-05
0.000168098
-9.86557e-05
0.000204225
-0.000148245
0.000245908
-0.000204256
0.000293795
-0.000266609
0.000348706
-0.000334311
0.000411621
-0.000403604
-0.000463877
0.000482895
-1.0029e-07
1.28096e-05
-2.46406e-07
3.50743e-05
-2.82207e-07
5.46226e-05
-4.35544e-08
7.12822e-05
6.41882e-07
8.49059e-05
1.95568e-06
9.53648e-05
4.09039e-06
0.000102537
7.25195e-06
0.0001063
1.16625e-05
0.000106523
1.75634e-05
0.000103055
2.52187e-05
9.57242e-05
3.49176e-05
8.43303e-05
4.69781e-05
6.8638e-05
6.17485e-05
4.83764e-05
7.96089e-05
2.32381e-05
0.000100971
-7.1186e-06
0.000126275
-4.30639e-05
0.000155989
-8.49847e-05
0.000190599
-0.000133266
0.000230608
-0.000188254
0.000276542
-0.00025019
0.000328982
-0.000319049
0.000388667
-0.000393997
0.000456617
-0.000471554
-0.000540519
0.000533259
-8.77508e-08
1.28973e-05
-1.82867e-07
3.51694e-05
-1.15491e-07
5.45553e-05
2.92326e-07
7.08744e-05
1.22722e-06
8.3971e-05
2.88582e-06
9.37062e-05
5.47696e-06
9.9946e-05
9.22443e-06
0.000102553
1.43701e-05
0.000101377
2.11773e-05
9.62473e-05
2.99343e-05
8.69672e-05
4.09575e-05
7.33071e-05
5.45941e-05
5.50014e-05
7.12239e-05
3.17466e-05
9.12599e-05
3.20213e-06
0.000115147
-3.10056e-05
0.000143357
-7.12745e-05
0.000176385
-0.000118012
0.000214731
-0.000171612
0.000258897
-0.00023242
0.000309372
-0.000300665
0.000366649
-0.000376326
0.000431324
-0.000458671
0.000504383
-0.000544612
-0.000622218
0.000586082
-7.43214e-08
1.29717e-05
-1.14854e-07
3.52099e-05
6.28937e-08
5.43775e-05
6.51617e-07
7.02857e-05
1.85326e-06
8.27694e-05
3.88064e-06
9.16788e-05
6.96013e-06
9.68666e-05
1.13347e-05
9.81784e-05
1.72675e-05
9.54441e-05
2.50455e-05
8.84693e-05
3.4983e-05
7.70297e-05
4.7425e-05
6.08651e-05
6.27498e-05
3.96766e-05
8.137e-05
1.31263e-05
0.000103733
-1.91609e-05
0.000130318
-5.75901e-05
0.000161628
-0.000102585
0.000198184
-0.000154568
0.000240505
-0.000213933
0.000289086
-0.000281001
0.000344378
-0.000355957
0.00040677
-0.000438718
0.000476658
-0.000528559
0.000554895
-0.000622849
-0.000708457
0.000641133
-5.97662e-08
1.30314e-05
-4.14532e-08
3.51916e-05
2.54912e-07
5.40812e-05
1.03779e-06
6.95028e-05
2.52539e-06
8.12818e-05
4.94787e-06
8.92563e-05
8.55036e-06
9.32641e-05
1.35964e-05
9.31324e-05
2.03719e-05
8.86685e-05
2.91889e-05
7.96523e-05
4.03894e-05
6.58292e-05
5.43485e-05
4.6906e-05
7.14765e-05
2.25487e-05
9.222e-05
-7.61721e-06
0.000117061
-4.40015e-05
0.000146511
-8.70403e-05
0.000181106
-0.00013718
0.000221391
-0.000194853
0.000267901
-0.000260442
0.000321129
-0.000334229
0.000381487
-0.000416315
0.000449254
-0.000506485
0.000524592
-0.000603898
0.000608104
-0.000706361
-0.000798556
0.000698202
-4.38334e-08
1.30753e-05
3.82701e-08
3.51095e-05
4.62713e-07
5.36567e-05
1.45456e-06
6.85109e-05
3.24936e-06
7.9487e-05
6.0957e-06
8.64099e-05
1.02587e-05
8.91011e-05
1.60238e-05
8.73672e-05
2.37011e-05
8.09913e-05
3.36292e-05
6.97243e-05
4.61788e-05
5.32796e-05
6.17561e-05
3.13287e-05
8.08044e-05
3.50034e-06
0.000103804
-3.06168e-05
0.00013127
-7.14674e-05
0.000163746
-0.000119517
0.000201797
-0.00017523
0.000245988
-0.000239045
0.00029687
-0.000311323
0.000354934
-0.000392294
0.000420569
-0.00048195
0.000493962
-0.000579878
0.000575029
-0.000684965
0.000663889
-0.000795221
-0.000891983
0.000757317
-2.6243e-08
1.31015e-05
1.25372e-07
3.49579e-05
6.88558e-07
5.30935e-05
1.90588e-06
6.72936e-05
4.03121e-06
7.73617e-05
7.3327e-06
8.31085e-05
1.20967e-05
8.43371e-05
1.86318e-05
8.08321e-05
2.72734e-05
7.23496e-05
3.83879e-05
5.86098e-05
5.2376e-05
3.92915e-05
6.96754e-05
1.40292e-05
9.0762e-05
-1.75863e-05
0.000116149
-5.60036e-05
0.000146382
-0.0001017
0.000182033
-0.000155168
0.000223689
-0.000216886
0.000271932
-0.000287288
0.000327321
-0.000366712
0.000390352
-0.000455325
0.000461418
-0.000553015
0.000540705
-0.000659165
0.000628006
-0.000772266
0.000722363
-0.000889577
-0.000988627
0.000819007
-6.69848e-09
1.31082e-05
2.2098e-07
3.47302e-05
9.34834e-07
5.23797e-05
2.39586e-06
6.58326e-05
4.87724e-06
7.48803e-05
8.66775e-06
7.93179e-05
1.40761e-05
7.89288e-05
2.14352e-05
7.3473e-05
3.11072e-05
6.26777e-05
4.34868e-05
4.62301e-05
5.90054e-05
2.37729e-05
7.81323e-05
-5.09759e-06
0.000101375
-4.08289e-05
0.000129276
-8.39051e-05
0.00016241
-0.000134834
0.000201369
-0.000194127
0.000246754
-0.000262271
0.000299153
-0.000339687
0.00035912
-0.000426679
0.000427155
-0.00052336
0.000503678
-0.000629538
0.000589037
-0.000744524
0.000683452
-0.000866681
0.000785562
-0.000991688
-0.00108663
0.000883562
1.50199e-08
1.30932e-05
3.26057e-07
3.44192e-05
1.20379e-06
5.15019e-05
2.92851e-06
6.41079e-05
5.79364e-06
7.20151e-05
1.01096e-05
7.50019e-05
1.62086e-05
7.28299e-05
2.44491e-05
6.52325e-05
3.52205e-05
5.19063e-05
4.8947e-05
3.25036e-05
6.60903e-05
6.62962e-06
8.71505e-05
-2.61578e-05
0.000112665
-6.63432e-05
0.000143203
-0.000114443
0.000179359
-0.00017099
0.000221739
-0.000236507
0.000270945
-0.000311477
0.000327552
-0.000396295
0.000392094
-0.000491221
0.000465041
-0.000596308
0.000546821
-0.000711317
0.000637905
-0.000835608
0.000739094
-0.000967871
0.000853729
-0.00110632
-0.00124051
0.00100762
3.93977e-08
1.30538e-05
4.421e-07
3.40165e-05
1.49838e-06
5.04457e-05
3.50864e-06
6.20976e-05
6.78748e-06
6.87363e-05
1.1668e-05
7.01214e-05
1.85068e-05
6.59911e-05
2.76887e-05
5.60506e-05
3.96313e-05
3.99636e-05
5.47884e-05
1.73465e-05
7.36517e-05
-1.22336e-05
9.67505e-05
-4.92566e-05
0.000124648
-9.42412e-05
0.000157937
-0.000147732
0.000197222
-0.000210276
0.000243112
-0.000282397
0.000296193
-0.000364557
0.000357008
-0.00045711
0.000426036
-0.000560248
0.000503675
-0.000673948
0.00059027
-0.000797911
0.000686215
-0.000931554
0.000792289
-0.00107394
0.000910414
-0.00122445
-0.00137864
0.00104854
6.66701e-08
1.29871e-05
5.70131e-07
3.3513e-05
1.82092e-06
4.91949e-05
4.14032e-06
5.97782e-05