/*--------------------------------*- C++ -*----------------------------------*\
  =========                 |
  \\      /  F ield         | OpenFOAM: The Open Source CFD Toolbox
   \\    /   O peration     | Website:  https://openfoam.org
    \\  /    A nd           | Version:  7
     \\/     M anipulation  |
\*---------------------------------------------------------------------------*/
FoamFile
{
    version     2.0;
    format      ascii;
    class       volScalarField;
    location    "85";
    object      p;
}
// * * * * * * * * * * * * * * * * * * * * * * * * * * * * * * * * * * * * * //

dimensions      [0 2 -2 0 0 0 0];

internalField   nonuniform List<scalar> 
8500
(
0.0127312
0.0157645
0.0242099
0.0192567
0.027901
0.035729
0.0236649
0.0320618
0.0400874
0.0472569
0.0372132
0.0449243
0.0523056
0.0587604
0.0425493
0.050817
0.0578323
0.0645469
0.0702187
0.0480612
0.0569607
0.0644616
0.070783
0.0768121
0.0815685
0.0633231
0.0714128
0.0781396
0.0837894
0.0890729
0.0925531
0.0699005
0.0786213
0.0858914
0.0918546
0.0968693
0.101229
0.102806
0.0860757
0.0939362
0.100385
0.10561
0.109998
0.113152
0.112658
0.0937366
0.102253
0.109248
0.114878
0.119384
0.123073
0.124743
0.124335
0.101546
0.110815
0.11841
0.124534
0.12935
0.133125
0.136068
0.13681
0.136773
0.119569
0.127854
0.134523
0.139774
0.143777
0.146804
0.148987
0.149015
0.148926
0.128444
0.137531
0.144829
0.150567
0.154945
0.158133
0.160403
0.16184
0.161243
0.160903
0.147371
0.155406
0.161712
0.166519
0.170022
0.172396
0.173904
0.174607
0.173407
0.172702
0.166183
0.173165
0.17848
0.182356
0.184985
0.186543
0.187287
0.187262
0.18546
0.184313
0.177078
0.184852
0.190781
0.195107
0.198052
0.199809
0.200552
0.200532
0.199783
0.197373
0.195734
0.196688
0.203349
0.208228
0.211566
0.213585
0.214472
0.214403
0.21362
0.212149
0.209126
0.20696
0.208582
0.216091
0.221643
0.225478
0.227834
0.22893
0.228954
0.228075
0.226532
0.224342
0.220702
0.217986
0.228914
0.235257
0.239706
0.242504
0.243885
0.244066
0.243231
0.241549
0.239249
0.236344
0.232086
0.228804
0.241748
0.248967
0.254153
0.25751
0.259279
0.259695
0.25897
0.257284
0.254805
0.251755
0.248141
0.243267
0.239409
0.262695
0.268709
0.27275
0.275026
0.275779
0.27524
0.273618
0.271091
0.267825
0.264032
0.259715
0.254231
0.249792
0.283283
0.288108
0.291017
0.292227
0.291977
0.290496
0.28799
0.284634
0.28059
0.276064
0.271054
0.264966
0.259943
0.297854
0.303479
0.30713
0.308926
0.309086
0.307848
0.30544
0.302064
0.297891
0.293082
0.287834
0.282142
0.27546
0.269853
0.318824
0.323247
0.325744
0.326446
0.325574
0.323368
0.320049
0.315819
0.310845
0.305283
0.299326
0.292965
0.2857
0.279513
0.339311
0.342555
0.34392
0.343549
0.341667
0.338511
0.334301
0.329234
0.323475
0.317178
0.310525
0.303509
0.295674
0.288912
0.355404
0.359281
0.36137
0.361628
0.360208
0.357339
0.353255
0.348175
0.34229
0.335765
0.328748
0.321417
0.313762
0.30537
0.29804
0.375972
0.378699
0.37966
0.378838
0.376396
0.372564
0.367576
0.361648
0.354968
0.347695
0.339978
0.331985
0.323708
0.314775
0.306886
0.395925
0.397531
0.397394
0.395521
0.392086
0.387319
0.381453
0.3747
0.367247
0.359249
0.350851
0.342215
0.333336
0.323878
0.31544
0.415229
0.415744
0.414542
0.411651
0.407253
0.40158
0.394863
0.387312
0.37911
0.37041
0.361353
0.352094
0.342631
0.332666
0.323693
0.432959
0.433848
0.433308
0.431076
0.4272
0.421872
0.415324
0.407786
0.399464
0.390539
0.381161
0.371468
0.361608
0.351582
0.341127
0.331633
0.451865
0.45175
0.450191
0.446966
0.442143
0.435919
0.428529
0.4202
0.411137
0.401516
0.391486
0.381181
0.370743
0.360177
0.349252
0.339251
0.469986
0.468904
0.466366
0.462187
0.456455
0.449372
0.441174
0.432088
0.422314
0.412026
0.40137
0.390479
0.379487
0.368403
0.357028
0.346539
0.487287
0.485278
0.481804
0.476714
0.470112
0.462208
0.45324
0.44343
0.432977
0.422052
0.4108
0.399348
0.387827
0.37625
0.364446
0.353486
0.503739
0.500845
0.496478
0.49052
0.483092
0.474408
0.464706
0.454208
0.44311
0.43158
0.41976
0.407775
0.395752
0.383705
0.371494
0.360084
0.522084
0.51931
0.515578
0.510364
0.503584
0.495373
0.485951
0.475555
0.464406
0.452697
0.440594
0.428237
0.415749
0.403249
0.39076
0.378164
0.366325
0.537486
0.533974
0.529449
0.523438
0.515884
0.506935
0.496818
0.485769
0.474007
0.461723
0.449082
0.436219
0.423257
0.41031
0.397404
0.384446
0.372201
0.551909
0.547704
0.542436
0.535677
0.527398
0.51776
0.506992
0.495332
0.482997
0.470176
0.45703
0.443695
0.430289
0.416923
0.403628
0.390331
0.377705
0.565327
0.560475
0.554515
0.547061
0.538108
0.527829
0.516457
0.504229
0.491361
0.478041
0.464426
0.450653
0.436835
0.42308
0.409423
0.395812
0.382829
0.577715
0.572265
0.565666
0.55757
0.547996
0.537126
0.525197
0.512446
0.499087
0.485306
0.471261
0.457082
0.442884
0.428771
0.414781
0.400881
0.387567
0.58905
0.583053
0.575869
0.567187
0.557045
0.545636
0.533198
0.51997
0.506163
0.491961
0.477522
0.462974
0.448429
0.433988
0.419694
0.405531
0.391912
0.599312
0.59282
0.585108
0.575896
0.565241
0.553345
0.540448
0.526788
0.512577
0.497996
0.483201
0.468319
0.453462
0.438725
0.424157
0.409755
0.395861
0.608483
0.601549
0.593365
0.583681
0.572571
0.56024
0.546935
0.532891
0.51832
0.503402
0.488289
0.473111
0.457975
0.442974
0.428162
0.413548
0.399407
0.616546
0.609224
0.600627
0.590531
0.579021
0.566311
0.552649
0.538269
0.523383
0.508169
0.49278
0.477342
0.461961
0.44673
0.431704
0.416904
0.402547
0.630263
0.623486
0.615832
0.606883
0.596433
0.584582
0.571548
0.55758
0.542914
0.527758
0.512292
0.496666
0.481005
0.465416
0.449987
0.434778
0.41982
0.405275
0.6363
0.629291
0.621363
0.612121
0.601379
0.589245
0.575943
0.561722
0.546818
0.53144
0.515764
0.499941
0.484097
0.468334
0.452742
0.437381
0.422291
0.40759
0.641144
0.633952
0.625806
0.616333
0.60536
0.593003
0.579489
0.565068
0.549976
0.534422
0.518581
0.502602
0.486612
0.470712
0.45499
0.439508
0.424314
0.409489
0.644787
0.63746
0.629154
0.619512
0.60837
0.595849
0.58218
0.567613
0.552384
0.5367
0.520737
0.504645
0.488547
0.472547
0.456728
0.441158
0.425887
0.410969
0.647223
0.63981
0.631403
0.621653
0.610404
0.59778
0.584013
0.569354
0.554038
0.538271
0.522232
0.506067
0.489901
0.473835
0.457955
0.442329
0.427008
0.412031
0.648447
0.640998
0.632548
0.622754
0.61146
0.598794
0.584986
0.570288
0.554935
0.539135
0.523062
0.506866
0.49067
0.474577
0.45867
0.443018
0.427676
0.412673
0.648459
0.641023
0.632589
0.622813
0.611538
0.598889
0.585097
0.570415
0.555076
0.539288
0.523228
0.507042
0.490856
0.474771
0.458872
0.443226
0.42789
0.412892
0.647259
0.639885
0.631527
0.621831
0.610636
0.598066
0.584348
0.569735
0.554461
0.538733
0.522729
0.506596
0.490458
0.474418
0.45856
0.442953
0.427651
0.412688
0.644851
0.637589
0.629364
0.619811
0.608759
0.596327
0.58274
0.56825
0.553091
0.537471
0.521567
0.505528
0.489477
0.473519
0.457737
0.442199
0.426958
0.412064
0.64124
0.634139
0.626106
0.616757
0.60591
0.593676
0.580277
0.565963
0.55097
0.535505
0.519746
0.503841
0.487916
0.472075
0.456404
0.440968
0.425816
0.411022
0.636435
0.629542
0.621759
0.612676
0.602095
0.590118
0.576964
0.56288
0.548102
0.532839
0.517267
0.501539
0.485779
0.470091
0.454564
0.439261
0.424224
0.409562
0.630445
0.623809
0.616332
0.607576
0.597322
0.585661
0.572807
0.559006
0.544493
0.529477
0.514138
0.498626
0.483068
0.467569
0.45222
0.437081
0.422188
0.407689
0.616952
0.609836
0.601466
0.5916
0.580314
0.567815
0.554348
0.540149
0.525427
0.510362
0.495107
0.479789
0.464515
0.449377
0.434433
0.419709
0.405405
0.608983
0.602284
0.59436
0.58494
0.574085
0.561997
0.548916
0.535078
0.520695
0.505947
0.490989
0.475948
0.460933
0.446039
0.43132
0.416793
0.402713
0.599919
0.593691
0.58627
0.577355
0.566988
0.555363
0.542719
0.529291
0.51529
0.500901
0.486279
0.471551
0.456831
0.442213
0.427749
0.413445
0.399618
0.589779
0.584074
0.577212
0.568858
0.559035
0.547926
0.535768
0.522796
0.509223
0.495234
0.480985
0.466607
0.452214
0.437904
0.423726
0.40967
0.396124
0.578583
0.573451
0.567203
0.559466
0.550241
0.5397
0.528077
0.515606
0.502503
0.488954
0.475116
0.461124
0.447091
0.433121
0.419257
0.405474
0.392238
0.566352
0.561844
0.556263
0.549197
0.540622
0.530699
0.519658
0.507734
0.495143
0.482072
0.468684
0.455111
0.441471
0.427871
0.414349
0.400864
0.387964
0.553112
0.549274
0.544412
0.53807
0.530196
0.52094
0.510527
0.499193
0.487155
0.474602
0.461698
0.448578
0.435362
0.422162
0.409011
0.395849
0.38331
0.538889
0.535766
0.531672
0.526104
0.518981
0.51044
0.500701
0.489999
0.478553
0.466555
0.45417
0.441537
0.428776
0.416004
0.40325
0.390435
0.378282
0.52371
0.521345
0.518068
0.513323
0.506999
0.499219
0.490197
0.480168
0.469352
0.457945
0.446114
0.433998
0.421722
0.409407
0.397077
0.384631
0.372888
0.506041
0.503625
0.499749
0.494271
0.487295
0.479032
0.469716
0.459569
0.448788
0.437542
0.425974
0.414212
0.402381
0.390502
0.378446
0.367135
0.489882
0.48837
0.485409
0.48082
0.474692
0.467228
0.458663
0.449219
0.439097
0.428469
0.41748
0.406259
0.394938
0.383533
0.371891
0.361031
0.472899
0.472332
0.470327
0.46667
0.46143
0.454805
0.447026
0.438321
0.428891
0.41891
0.408527
0.397875
0.387089
0.376183
0.364975
0.354586
0.455124
0.455541
0.454533
0.451847
0.447534
0.441783
0.434827
0.426893
0.418185
0.408881
0.399132
0.389073
0.378847
0.368462
0.357709
0.347808
0.436593
0.438028
0.438054
0.436377
0.433028
0.428188
0.422087
0.414955
0.406998
0.398399
0.389309
0.379868
0.370224
0.360383
0.350103
0.340708
0.419827
0.420922
0.42029
0.417938
0.414041
0.408827
0.402526
0.395349
0.38748
0.379074
0.370274
0.361234
0.351958
0.342169
0.333294
0.400971
0.403167
0.403612
0.402291
0.399368
0.395069
0.389628
0.383256
0.376142
0.368443
0.360305
0.35189
0.343198
0.333918
0.325577
0.381496
0.384822
0.386375
0.386114
0.384194
0.380838
0.376282
0.37074
0.364404
0.357434
0.349979
0.342207
0.334118
0.325364
0.317567
0.365922
0.36861
0.369436
0.368545
0.366158
0.362511
0.357822
0.352284
0.346063
0.339309
0.332198
0.324731
0.316517
0.309274
0.346499
0.350347
0.352287
0.352449
0.351054
0.348338
0.344522
0.339803
0.334349
0.328314
0.32188
0.315049
0.30739
0.30071
0.326591
0.331621
0.334695
0.335933
0.335551
0.333786
0.330862
0.32698
0.322309
0.317009
0.311268
0.305087
0.297996
0.291885
0.306233
0.312464
0.316693
0.319026
0.319676
0.31888
0.316865
0.313835
0.309964
0.305411
0.300376
0.29486
0.288347
0.282809
0.292911
0.298312
0.301758
0.303455
0.303644
0.302554
0.30039
0.297331
0.29354
0.28922
0.28438
0.278457
0.273494
0.272997
0.279584
0.284156
0.286917
0.288104
0.287951
0.286667
0.284431
0.281411
0.277818
0.273663
0.268337
0.263949
0.252758
0.260542
0.266253
0.270088
0.272286
0.273081
0.272686
0.271284
0.269044
0.266185
0.262724
0.258001
0.254184
0.24122
0.248079
0.252998
0.256215
0.257967
0.25847
0.25791
0.256457
0.254339
0.251576
0.247461
0.244209
0.22165
0.229664
0.235674
0.239918
0.242635
0.244042
0.24433
0.24367
0.242296
0.240237
0.23673
0.234032
0.21104
0.218147
0.223423
0.227108
0.229425
0.230565
0.230701
0.230074
0.228722
0.225821
0.223661
0.19224
0.200444
0.206755
0.211413
0.214642
0.216636
0.217571
0.217693
0.217047
0.214749
0.213102
0.182597
0.189943
0.195573
0.199716
0.202566
0.2043
0.205171
0.205233
0.20353
0.202362
0.164634
0.173013
0.179616
0.184672
0.188378
0.19091
0.192527
0.1933
0.192185
0.191446
0.146585
0.155994
0.163566
0.169533
0.174094
0.177422
0.179782
0.18127
0.180744
0.180357
0.138913
0.14745
0.154324
0.159736
0.163858
0.166955
0.169169
0.169252
0.169107
0.131292
0.139068
0.145329
0.150241
0.154066
0.157016
0.157795
0.157706
0.115119
0.12379
0.130895
0.136597
0.141131
0.144804
0.14648
0.146063
0.108512
0.116456
0.122949
0.12818
0.132531
0.135636
0.135236
0.0932581
0.102032
0.109317
0.115261
0.120216
0.124471
0.126044
0.0876436
0.0957168
0.102395
0.107958
0.113088
0.116463
0.0733106
0.0821593
0.0895783
0.0957822
0.101618
0.106209
0.0686593
0.0768095
0.0836735
0.0901575
0.095622
0.0640967
0.0716204
0.0787334
0.0849417
0.0596261
0.0673452
0.0742295
0.0477025
0.0560017
0.063506
0.0447205
0.052803
0.0421511
0.108038
0.0974308
0.0869449
0.0765265
0.0657333
0.0548053
0.0438927
0.0329924
0.0221156
0.0112921
0.00054201
0.102798
0.0920266
0.0809444
0.0707482
0.060396
0.0498703
0.0394083
0.0290217
0.0186859
0.00841745
-0.00176614
0.0963004
0.0855447
0.0743119
0.0644024
0.0545946
0.0445862
0.0346297
0.0247841
0.0150077
0.00530005
-0.00432157
0.0894348
0.0790238
0.068077
0.0585764
0.0493257
0.0398611
0.030411
0.0210813
0.0118348
0.00265767
-0.00643548
0.0826626
0.0727357
0.0622292
0.0531575
0.0444157
0.0354705
0.0265133
0.0176768
0.00893567
0.00026652
-0.00832096
0.0762046
0.0667758
0.0567646
0.048123
0.0398531
0.0314031
0.0229272
0.014567
0.00630872
-0.00187519
-0.00998045
0.0700983
0.0611461
0.051655
0.0434482
0.0356262
0.0276499
0.0196417
0.0117413
0.00394445
-0.00377723
-0.0114236
0.0643472
0.0558536
0.0468901
0.0391191
0.0317261
0.0242013
0.0166435
0.00918493
0.00182792
-0.00545457
-0.0126652
0.0589585
0.0509088
0.0424667
0.0351245
0.0281421
0.0210467
0.0139196
0.00688373
-5.47337e-05
-0.00692059
-0.0137182
0.0539344
0.0463128
0.0383771
0.0314515
0.0248612
0.0181734
0.0114567
0.00482369
-0.00171711
-0.00818818
-0.0145949
0.0492694
0.0420591
0.0346103
0.0280857
0.0218691
0.015568
0.00924124
0.00299132
-0.00317224
-0.00926962
-0.0153066
0.0449532
0.0381369
0.0311533
0.0250128
0.0191518
0.0132171
0.00726012
0.00137361
-0.00443262
-0.0101766
-0.0158643
0.0409731
0.0345339
0.0279928
0.0222184
0.0166952
0.0111072
0.00550039
-4.19767e-05
-0.0055102
-0.0109204
-0.0162783
0.0373157
0.0312365
0.0251146
0.0196883
0.0144854
0.00922525
0.00394937
-0.00126758
-0.00641644
-0.0115116
-0.0165583
0.0339664
0.0282304
0.0225048
0.0174084
0.0125088
0.00755819
0.00259478
-0.00231486
-0.00716229
-0.0119602
-0.0167138
0.0309105
0.0255013
0.0201492
0.0153648
0.010752
0.00609344
0.00142469
-0.00319506
-0.00775822
-0.0122761
-0.0167533
0.0281333
0.0230346
0.0180339
0.0135441
0.00920212
0.00481877
0.00042762
-0.00391894
-0.00821425
-0.0124683
-0.0166853
0.0256201
0.020816
0.0161452
0.0119329
0.00784653
0.00372238
-0.000407486
-0.00449681
-0.00853991
-0.0125456
-0.0165177
0.0233562
0.0188315
0.0144697
0.0105186
0.00667313
0.00279289
-0.00109125
-0.00493856
-0.00874434
-0.0125164
-0.016258
0.0213274
0.0170673
0.0129946
0.0092889
0.00567022
0.00201935
-0.00163386
-0.00525363
-0.00883622
-0.0123885
-0.0159134
0.0195199
0.0155099
0.0117073
0.00823177
0.00482656
0.00139124
-0.00204508
-0.00545107
-0.00882386
-0.0121696
-0.0154907
0.01792
0.0141463
0.0105957
0.00733584
0.00413133
0.000898489
-0.00233426
-0.0055395
-0.0087152
-0.0118668
-0.0149964
0.0165146
0.0129639
0.0096481
0.00659009
0.00357416
0.000531421
-0.00251034
-0.00552718
-0.00851781
-0.0114871
-0.0144368
0.0152909
0.0119506
0.00885325
0.005984
0.00314513
0.000280776
-0.00258191
-0.00542202
-0.00823894
-0.011037
-0.0138177
0.0142367
0.0110947
0.00820035
0.00550743
0.00283473
0.000137684
-0.00255716
-0.00523156
-0.00788551
-0.0105229
-0.0131448
0.0133402
0.0103847
0.00767905
0.00515072
0.00263383
9.36534e-05
-0.00244394
-0.00496306
-0.00746417
-0.00995076
-0.0124238
0.0125901
0.00981008
0.00727941
0.00490457
0.00253372
0.000140548
-0.0022498
-0.00462345
-0.00698128
-0.00932645
-0.0116597
0.0119753
0.00936028
0.0069919
0.00476011
0.00252605
0.000270575
-0.00198193
-0.00421938
-0.00644296
-0.00865555
-0.0108577
0.0114855
0.00902541
0.0068074
0.00470882
0.00260281
0.000476268
-0.00164727
-0.00375724
-0.00585509
-0.00794343
-0.0100227
0.0111106
0.00879595
0.00671716
0.00474257
0.00275636
0.00075047
-0.00125245
-0.00324316
-0.0052233
-0.00719525
-0.00915927
0.0108411
0.00866278
0.00671282
0.00485355
0.00297935
0.00108632
-0.000803848
-0.00268304
-0.00455304
-0.00641601
-0.00827212
0.0106677
0.00861721
0.00678638
0.00503428
0.00326475
0.00147723
-0.000307578
-0.00208254
-0.00384954
-0.00561052
0.0105817
0.00865089
0.00693016
0.00527763
0.00360583
0.00191689
0.00023048
-0.00144713
-0.00311783
-0.00478343
0.0105748
0.00875588
0.00713684
0.00557673
0.00399613
0.00239925
0.000804679
-0.000782035
-0.00236279
-0.00393921
0.0106388
0.00892456
0.00739939
0.00592502
0.00442947
0.00291849
0.0014096
-9.23102e-05
-0.00158908
-0.0030822
0.0107661
0.00914968
0.0077111
0.00631622
0.00489992
0.00346904
0.00204002
0.000617193
-0.000801217
-0.00221656
0.0109495
0.00942428
0.00806556
0.00674432
0.00540179
0.00404556
0.00269094
0.0013418
-3.54856e-06
-0.00134634
0.0111819
0.00974177
0.00845662
0.00720355
0.00592965
0.00464292
0.00335756
0.00207703
0.000799737
-0.000475416
0.0114567
0.0100958
0.00887841
0.00768841
0.00647828
0.00525619
0.00403524
0.00281854
0.0016046
0.000392441
0.0117675
0.0104804
0.00932535
0.00819363
0.0070427
0.00588067
0.00471957
0.00356219
0.00240716
0.0012536
0.0121084
0.0108898
0.00979206
0.00871414
0.0076181
0.00651181
0.00540627
0.00430395
0.00320365
0.00210456
0.0124735
0.0113185
0.0102734
0.00924514
0.00819992
0.00714529
0.00609124
0.00503999
0.00399044
0.00294192
0.0128575
0.0117614
0.0107646
0.00978198
0.00878375
0.00777694
0.00677054
0.00576657
0.00476405
0.00376239
0.013255
0.0122134
0.0112608
0.0103202
0.00936538
0.00840273
0.00744038
0.00648011
0.00552108
0.00456278
0.0136611
0.0126697
0.0117577
0.0108557
0.00994075
0.00901882
0.00809708
0.00717713
0.00625824
0.00533998
0.0140711
0.013126
0.0122509
0.0113842
0.010506
0.00962148
0.0087371
0.00785425
0.00697233
0.00609097
0.0144805
0.0135778
0.0127363
0.0119019
0.0110572
0.0102071
0.00935699
0.0085082
0.00766022
0.00681276
0.0148849
0.014021
0.01321
0.012405
0.011591
0.0107722
0.00995341
0.00913576
0.00831885
0.00750243
0.0152802
0.0144515
0.0136682
0.0128897
0.0121036
0.0113133
0.0105231
0.00973378
0.00894517
0.00815705
0.0156624
0.0148656
0.0141071
0.0133526
0.0125916
0.0118272
0.0110627
0.0102991
0.00953616
0.00877372
0.0160276
0.0152596
0.0145231
0.0137901
0.0130516
0.0123104
0.0115691
0.0108287
0.0100888
0.00934949
0.0163723
0.0156297
0.0149128
0.0141987
0.0134803
0.0127597
0.0120391
0.0113192
0.0106
0.00988138
0.0166926
0.0159724
0.0152725
0.0145751
0.0138743
0.0131718
0.0124694
0.0117677
0.0110667
0.0103663
0.0169852
0.0162842
0.015599
0.0149158
0.0142301
0.0135433
0.0128566
0.0121707
0.0114855
0.010801
0.0172464
0.0165616
0.0158886
0.0152173
0.0145445
0.0138708
0.0131975
0.012525
0.0118532
0.0111823
0.0174727
0.0168011
0.0161378
0.0154761
0.0148135
0.0141506
0.0134882
0.0128266
0.0121659
0.0115061
0.0176609
0.0169993
0.0163434
0.0156889
0.0150343
0.0143797
0.0137258
0.0130727
0.0124207
0.0117698
0.0178068
0.0171518
0.0165005
0.0158508
0.0152013
0.0145523
0.0139042
0.013257
0.012611
0.0119663
0.0179084
0.0172572
0.0166083
0.015961
0.0153147
0.0146691
0.0140245
0.0133812
0.0127393
0.0120988
0.0179588
0.0173067
0.0166564
0.0160077
0.0153603
0.014714
0.0140689
0.0134253
0.0127833
0.012143
0.13926
0.139795
0.140859
0.142373
0.144314
0.146644
0.14934
0.152374
0.155718
0.159343
0.163212
0.167282
0.171502
0.175803
0.180113
0.184329
0.188347
0.192021
0.195212
0.197712
0.199356
0.199847
0.199025
0.196452
0.192077
0.18514
0.176058
0.163029
0.148125
0.124465
0.138844
0.139365
0.140403
0.141878
0.143765
0.146029
0.148642
0.151576
0.154801
0.158284
0.161987
0.165862
0.169854
0.173891
0.177896
0.181763
0.185383
0.188607
0.191293
0.193232
0.194258
0.19408
0.19254
0.189217
0.184067
0.176371
0.166516
0.152887
0.1372
0.115383
0.138409
0.138916
0.139924
0.141356
0.143186
0.145376
0.1479
0.150725
0.153821
0.157152
0.160678
0.164347
0.168101
0.171866
0.175561
0.179077
0.182304
0.185091
0.187297
0.188715
0.189186
0.188426
0.186293
0.182381
0.176674
0.16849
0.15824
0.144486
0.128932
0.108801
0.137954
0.138446
0.139423
0.140809
0.142578
0.144691
0.147121
0.149833
0.152794
0.155967
0.159309
0.162764
0.166272
0.169756
0.173132
0.176289
0.179116
0.18146
0.183183
0.184081
0.184001
0.182671
0.179963
0.175493
0.169267
0.160658
0.150081
0.136321
0.12092
0.101722
0.137479
0.137954
0.138898
0.140238
0.141944
0.143978
0.14631
0.148905
0.151729
0.154739
0.157892
0.161129
0.164387
0.167586
0.17064
0.173435
0.17586
0.177763
0.179007
0.179394
0.178776
0.176894
0.173633
0.168637
0.161925
0.152939
0.142077
0.128337
0.113033
0.0944957
0.136981
0.13744
0.138351
0.139642
0.141282
0.143235
0.145466
0.147941
0.150623
0.153468
0.156427
0.159442
0.162447
0.165359
0.168089
0.170523
0.17255
0.174018
0.174794
0.174684
0.173551
0.171147
0.167371
0.161897
0.154754
0.145458
0.134377
0.120699
0.105539
0.0876218
0.136462
0.136904
0.137779
0.13902
0.140593
0.142461
0.144589
0.146941
0.149477
0.152151
0.154915
0.157704
0.160452
0.163074
0.16548
0.167555
0.169187
0.170229
0.170548
0.169961
0.168337
0.165444
0.161195
0.155294
0.14778
0.138241
0.12701
0.113444
0.098495
0.0811785
0.13592
0.136344
0.137184
0.138372
0.139876
0.141656
0.143678
0.145903
0.148289
0.15079
0.153353
0.155914
0.158403
0.160734
0.162815
0.164533
0.165776
0.1664
0.166277
0.165232
0.163142
0.159795
0.155112
0.148836
0.141006
0.131282
0.119965
0.106554
0.0918607
0.0751214
0.135354
0.13576
0.136563
0.137697
0.139129
0.14082
0.142732
0.144826
0.14706
0.149384
0.151744
0.154073
0.156301
0.15834
0.160098
0.161462
0.162323
0.162539
0.16199
0.160508
0.157979
0.154211
0.149136
0.14253
0.134437
0.124583
0.113235
0.100013
0.0856073
0.0694288
0.134765
0.135152
0.135916
0.136995
0.138353
0.139951
0.141751
0.143712
0.145791
0.147934
0.150088
0.152184
0.154149
0.155896
0.157333
0.158348
0.158834
0.158655
0.157695
0.155797
0.152858
0.148705
0.143278
0.136389
0.128083
0.118147
0.106818
0.0938131
0.0797225
0.0640965
0.134152
0.134519
0.135244
0.136265
0.137547
0.13905
0.140736
0.142561
0.14448
0.146441
0.148386
0.150246
0.151949
0.153405
0.154524
0.155196
0.155316
0.154754
0.153402
0.151113
0.147792
0.143287
0.137548
0.130421
0.121951
0.111976
0.100709
0.087949
0.0741974
0.0591189
0.133513
0.13386
0.134544
0.135507
0.136711
0.138117
0.139685
0.141371
0.143129
0.144904
0.146639
0.148263
0.149703
0.15087
0.151675
0.152011
0.151776
0.150846
0.14912
0.146463
0.142791
0.137969
0.131958
0.124635
0.116044
0.106072
0.094907
0.0824138
0.0690214
0.0544861
0.132849
0.133176
0.133818
0.13472
0.135844
0.13715
0.138598
0.140143
0.141737
0.143326
0.144849
0.146236
0.147414
0.148295
0.148792
0.148799
0.14822
0.146939
0.144858
0.141859
0.137865
0.132761
0.126517
0.119036
0.110367
0.100434
0.0894058
0.0772001
0.0641833
0.0501866
0.132159
0.132465
0.133064
0.133904
0.134946
0.136151
0.137477
0.138878
0.140307
0.141706
0.143017
0.144168
0.145086
0.145685
0.145878
0.145566
0.144656
0.143039
0.140627
0.137311
0.133024
0.127672
0.121231
0.113632
0.104923
0.0950622
0.0842007
0.0722997
0.0596713
0.0462078
0.131443
0.131727
0.132283
0.133059
0.134018
0.135118
0.13632
0.137576
0.138837
0.140047
0.141145
0.142061
0.142721
0.143042
0.14294
0.142319
0.141092
0.139157
0.136433
0.132826
0.128277
0.12271
0.116108
0.108426
0.0997131
0.0899539
0.0792858
0.067704
0.0554738
0.0425369
0.130701
0.130962
0.131473
0.132184
0.133058
0.134053
0.135129
0.136238
0.137331
0.13835
0.139236
0.139918
0.140324
0.140373
0.139983
0.139064
0.137534
0.135299
0.132287
0.128415
0.123633
0.117883
0.111155
0.103423
0.0947375
0.0851067
0.0746548
0.0634038
0.0515787
0.0391606
0.129931
0.130169
0.130635
0.13128
0.132067
0.132955
0.133903
0.134864
0.135788
0.136617
0.137291
0.137741
0.137897
0.13768
0.137012
0.135808
0.133989
0.131474
0.128196
0.124085
0.1191
0.113197
0.106375
0.0986235
0.0899958
0.080517
0.0703006
0.0593896
0.0479736
0.0360654
0.129134
0.129349
0.129768
0.130346
0.131044
0.131825
0.132644
0.133456
0.13421
0.134848
0.135313
0.135535
0.135446
0.13497
0.134033
0.132556
0.130466
0.12769
0.124169
0.119844
0.114685
0.108658
0.101772
0.0940302
0.0854865
0.0761804
0.0662156
0.0556513
0.0446462
0.0332376
0.12831
0.128501
0.128873
0.129382
0.129992
0.130662
0.131352
0.132014
0.132598
0.133048
0.133304
0.133302
0.132973
0.132247
0.131052
0.129315
0.126971
0.123954
0.120212
0.1157
0.110393
0.104272
0.0973497
0.0896435
0.0812074
0.0720919
0.062392
0.0521786
0.0415839
0.0306637
0.127458
0.127626
0.127949
0.128389
0.128908
0.129469
0.130028
0.13054
0.130955
0.131217
0.131268
0.131046
0.130485
0.129516
0.128075
0.126093
0.123511
0.120272
0.116334
0.111658
0.10623
0.100041
0.0931098
0.0854628
0.0771552
0.0682457
0.0588211
0.0489611
0.0387743
0.0283303
0.126579
0.126722
0.126997
0.127367
0.127795
0.128244
0.128673
0.129035
0.129282
0.129358
0.129208
0.128771
0.127984
0.126783
0.125107
0.122894
0.120093
0.116653
0.11254
0.107726
0.102201
0.0959696
0.0890532
0.081487
0.0733262
0.0646354
0.0554943
0.0459881
0.0362049
0.0262242
0.125673
0.125791
0.126017
0.126316
0.126653
0.12699
0.127288
0.127501
0.127581
0.127475
0.127127
0.12648
0.125475
0.124052
0.122154
0.119727
0.116723
0.113102
0.108836
0.103906
0.0983108
0.0920595
0.0851802
0.077714
0.0697159
0.0612544
0.0524025
0.0432486
0.0338634
0.0243326
0.124739
0.124833
0.125009
0.125237
0.125481
0.125708
0.125875
0.12594
0.125855
0.125569
0.125028
0.124179
0.122964
0.121329
0.119222
0.116595
0.113408
0.109626
0.105229
0.100206
0.0945612
0.0883122
0.0814902
0.074141
0.0663191
0.0580953
0.0495364
0.0407321
0.0317377
0.0226427
0.123779
0.123847
0.123974
0.12413
0.124283
0.124397
0.124435
0.124353
0.124106
0.123643
0.122915
0.12187
0.120455
0.11862
0.116318
0.113506
0.110152
0.106229
0.101722
0.0966272
0.0909551
0.0847286
0.077982
0.0707647
0.0631304
0.0551506
0.0468865
0.0384275
0.029816
0.0211424
0.122793
0.122835
0.122912
0.122996
0.123057
0.123061
0.12297
0.122743
0.122336
0.121702
0.120792
0.119558
0.117952
0.115928
0.113445
0.110466
0.106963
0.102917
0.0983197
0.0931739
0.0874941
0.0813084
0.0746535
0.0675811
0.0601436
0.0524125
0.0444433
0.0363244
0.0280865
0.0198198
0.12178
0.121798
0.121824
0.121837
0.121806
0.121699
0.121481
0.121112
0.120548
0.119747
0.118662
0.117248
0.115461
0.113261
0.11061
0.107478
0.103844
0.0996946
0.0950263
0.0898484
0.0841793
0.0780511
0.0715022
0.0645856
0.0573523
0.0498727
0.0421973
0.0344119
0.0265378
0.0186633
0.120743
0.120735
0.120712
0.120652
0.12053
0.120315
0.119971
0.119462
0.118746
0.117783
0.11653
0.114944
0.112987
0.110621
0.107817
0.104549
0.100801
0.0965655
0.0918447
0.0866525
0.081011
0.0749553
0.0685249
0.0617733
0.05475
0.0475232
0.0401389
0.0326798
0.025159
0.0176619
0.119681
0.119648
0.119575
0.119445
0.119232
0.118909
0.118442
0.117796
0.116933
0.115813
0.114398
0.11265
0.110533
0.108016
0.105072
0.101683
0.0978375
0.0935333
0.0887773
0.0835874
0.0779889
0.072019
0.0657179
0.0591389
0.0523294
0.0453555
0.0382586
0.0311177
0.0239392
0.0168047
0.118596
0.118537
0.118416
0.118215
0.117913
0.117484
0.116897
0.116117
0.115111
0.113841
0.112272
0.110371
0.108105
0.105448
0.102379
0.0988846
0.0949576
0.0906011
0.085826
0.0806539
0.0751122
0.0692399
0.0630772
0.0566767
0.0500836
0.0433611
0.0365469
0.0297156
0.0228679
0.0160814
0.117489
0.117405
0.117235
0.116965
0.116575
0.116042
0.115337
0.114428
0.113283
0.11187
0.110156
0.10811
0.105707
0.102923
0.099743
0.0961575
0.0921645
0.0877713
0.0829923
0.0778518
0.0723795
0.0666149
0.0605981
0.0543805
0.048005
0.0415318
0.0349945
0.0284637
0.0219352
0.015482
0.116362
0.116253
0.116034
0.115696
0.11522
0.114585
0.113765
0.112731
0.111455
0.109904
0.108053
0.105873
0.103343
0.100445
0.0971675
0.0935054
0.0894611
0.0850458
0.0802768
0.0751808
0.0697887
0.0641406
0.0582759
0.0522443
0.0460864
0.039859
0.0335923
0.0273523
0.0211311
0.014997
0.115215
0.115082
0.114816
0.11441
0.11385
0.113116
0.112185
0.111031
0.109627
0.107948
0.105967
0.103664
0.101018
0.0980186
0.0946564
0.0909315
0.08685
0.0824261
0.0776799
0.0726398
0.0673377
0.0618134
0.0561054
0.0502616
0.0443202
0.0383344
0.0323312
0.0263723
0.0204463
0.014617
0.114051
0.113893
0.113581
0.11311
0.112468
0.111638
0.110599
0.10933
0.107806
0.106004
0.103904
0.101486
0.0987366
0.0956469
0.0922131
0.0884387
0.0843331
0.0799133
0.0752015
0.0702275
0.0650235
0.059629
0.0540813
0.0484259
0.0426988
0.0369496
0.0312025
0.0255144
0.0198718
0.0143334
0.112871
0.11269
0.112333
0.111797
0.111075
0.110152
0.109011
0.107632
0.105994
0.104077
0.101865
0.0993436
0.0965014
0.0933338
0.0898408
0.0860294
0.0819119
0.0775078
0.072841
0.0679419
0.0628431
0.0575831
0.0521978
0.0467306
0.0412148
0.0356966
0.0301975
0.02477
0.0193986
0.0141376
0.111678
0.111474
0.111073
0.110475
0.109676
0.108664
0.107424
0.10594
0.104194
0.102171
0.099857
0.0972411
0.0943168
0.0910826
0.0875422
0.0837056
0.0795877
0.0752099
0.0705973
0.0657809
0.060793
0.055671
0.0504494
0.0451689
0.0398607
0.0345674
0.0293079
0.0241305
0.0190185
0.0140214
0.110474
0.110248
0.109804
0.109146
0.108272
0.107174
0.10584
0.104257
0.102411
0.10029
0.0978822
0.095182
0.092186
0.0888964
0.0853199
0.0814691
0.0773612
0.0730192
0.068469
0.0637419
0.0588694
0.0538879
0.0488301
0.0437342
0.038629
0.0335539
0.0285255
0.0235878
0.0187232
0.013977
0.109261
0.109014
0.108528
0.107812
0.106867
0.105688
0.104265
0.102589
0.100649
0.0984366
0.0959447
0.0931698
0.0901126
0.086778
0.0831759
0.0793211
0.0752328
0.070935
0.0664544
0.0618219
0.0570685
0.0522288
0.047334
0.0424198
0.0375126
0.0326487
0.0278423
0.0231339
0.0185051
0.0139971
0.108043
0.107774
0.107249
0.106478
0.105465
0.104207
0.102701
0.100938
0.0989114
0.096616
0.0940482
0.0912082
0.0880994
0.0847299
0.0811121
0.0772627
0.0732026
0.0689565
0.0645514
0.0600178
0.0553859
0.0506885
0.0459552
0.041219
0.0365043
0.031844
0.0272509
0.0227612
0.0183567
0.0140744
0.106822
0.106533
0.10597
0.105146
0.104068
0.102737
0.101152
0.099308
0.0972019
0.0948314
0.0921965
0.0893003
0.0861493
0.0827544
0.0791299
0.0752946
0.0712702
0.0670823
0.0627577
0.0583264
0.0538174
0.0492619
0.0446877
0.0401253
0.035597
0.0311328
0.0267437
0.0224624
0.0182708
0.0142022
0.105602
0.105294
0.104695
0.10382
0.10268
0.101281
0.0996219
0.0977034
0.0955247
0.0930868
0.090393
0.0874493
0.0842651
0.0808534
0.0772306
0.073417
0.0694351
0.0653108
0.0610708
0.056744
0.0523585
0.0479438
0.0435255
0.0391322
0.0347839
0.0305079
0.0263135
0.0222305
0.0182406
0.0143739
0.104386
0.104059
0.103426
0.102503
0.101306
0.0998419
0.098115
0.0961279
0.0938835
0.0913858
0.0886411
0.0856582
0.082449
0.0790287
0.0754153
0.0716301
0.0676965
0.0636402
0.0594878
0.0552671
0.0510048
0.0467288
0.042463
0.0382334
0.0340583
0.0299624
0.0259537
0.0220586
0.0182595
0.0145833
0.103178
0.102834
0.102168
0.1012
0.0999489
0.0984249