/*--------------------------------*- C++ -*----------------------------------*\
  =========                 |
  \\      /  F ield         | OpenFOAM: The Open Source CFD Toolbox
   \\    /   O peration     | Website:  https://openfoam.org
    \\  /    A nd           | Version:  7
     \\/     M anipulation  |
\*---------------------------------------------------------------------------*/
FoamFile
{
    version     2.0;
    format      ascii;
    class       surfaceScalarField;
    location    "85";
    object      phi;
}
// * * * * * * * * * * * * * * * * * * * * * * * * * * * * * * * * * * * * * //

dimensions      [0 3 -1 0 0 0 0];

internalField   nonuniform List<scalar> 
16730
(
-0.00367748
-0.000604891
-0.000582209
-0.00352781
-0.00362576
-0.000633929
-0.000556876
-0.00338557
-0.000609183
-0.00347551
-0.00357245
-0.000662492
-0.000529924
-0.00325238
-0.000581842
-0.00333365
-0.000635653
-0.0034217
-0.00351754
-0.000690565
-0.000553132
-0.00320107
-0.000606324
-0.00328046
-0.000661606
-0.00336641
-0.00346103
-0.000718113
-0.000523407
-0.0030762
-0.000575915
-0.00314856
-0.000630328
-0.00322604
-0.000687038
-0.0033097
-0.00340293
-0.000745136
-0.000492475
-0.00295755
-0.000544604
-0.00302407
-0.000598284
-0.00309488
-0.000653872
-0.00317046
-0.000711965
-0.00325161
-0.00334318
-0.000771713
-0.000512083
-0.00290561
-0.000565411
-0.00297074
-0.000620257
-0.00304004
-0.000676992
-0.00311372
-0.000736394
-0.00319221
-0.00328177
-0.000797812
-0.000478168
-0.00279256
-0.000531299
-0.00285248
-0.000585823
-0.00291622
-0.000641855
-0.002984
-0.000699759
-0.00305582
-0.000760251
-0.00313172
-0.00321869
-0.000823326
-0.000495804
-0.0027396
-0.00055011
-0.00279817
-0.000605829
-0.0028605
-0.000663084
-0.00292675
-0.000722223
-0.00299668
-0.000784034
-0.00306991
-0.00315546
-0.000847264
-0.000458934
-0.00263179
-0.000513038
-0.0026855
-0.000568499
-0.00274271
-0.000625403
-0.0028036
-0.000683903
-0.00286825
-0.000744076
-0.00293651
-0.000804942
-0.00300904
-0.00308887
-0.00087153
-0.000420743
-0.00252865
-0.000474658
-0.00257787
-0.000529875
-0.00263028
-0.000586465
-0.00268612
-0.000644525
-0.00274554
-0.000704194
-0.00280858
-0.000765484
-0.00287522
-0.000828347
-0.00294618
-0.00302191
-0.000895314
-0.000435006
-0.00247491
-0.000489999
-0.00252288
-0.000546304
-0.00257397
-0.000603996
-0.00262843
-0.000663173
-0.00268636
-0.000723956
-0.0027478
-0.000786394
-0.00281278
-0.000850722
-0.00288185
-0.00295452
-0.000918113
-0.000394126
-0.00237596
-0.00044891
-0.00242013
-0.000504956
-0.00246683
-0.000562322
-0.00251661
-0.000621086
-0.00256967
-0.000681345
-0.0026261
-0.000743208
-0.00268593
-0.000806757
-0.00274923
-0.000872256
-0.00281635
-0.00288649
-0.000940282
-0.000406644
-0.0023214
-0.000462452
-0.00236432
-0.000519526
-0.00240976
-0.000577926
-0.00245821
-0.000637733
-0.00250986
-0.000699041
-0.00256479
-0.00076195
-0.00262302
-0.00082656
-0.00268462
-0.000893091
-0.00274982
-0.00281774
-0.000961841
-0.000418822
-0.00226584
-0.00047563
-0.00230751
-0.000533706
-0.00235168
-0.000593114
-0.0023988
-0.000653935
-0.00244904
-0.00071626
-0.00250247
-0.000780185
-0.0025591
-0.00084581
-0.00261899
-0.000913308
-0.00268232
-0.00274821
-0.000982837
-0.000374122
-0.00217023
-0.000430662
-0.0022093
-0.000488443
-0.00224973
-0.000547495
-0.00229263
-0.000607884
-0.00233841
-0.00066969
-0.00238723
-0.000733004
-0.00243915
-0.000797914
-0.00249419
-0.000864518
-0.00255239
-0.000932949
-0.00261389
-0.00267786
-0.0010033
-0.00038467
-0.00211402
-0.000442161
-0.00215181
-0.000500889
-0.00219101
-0.000560892
-0.00223263
-0.000622235
-0.00227707
-0.000684999
-0.00232447
-0.000749273
-0.00237488
-0.000815141
-0.00242832
-0.000882694
-0.00248484
-0.00095204
-0.00254454
-0.00260666
-0.00102324
-0.000337752
-0.0020195
-0.000394904
-0.00205687
-0.000453318
-0.0020934
-0.000512969
-0.00213135
-0.000573895
-0.0021717
-0.000636166
-0.0022148
-0.000699862
-0.00226077
-0.000765068
-0.00230967
-0.000831869
-0.00236152
-0.000900346
-0.00241636
-0.000970594
-0.00247429
-0.0025346
-0.00104266
-0.000346762
-0.00196284
-0.000404821
-0.00199881
-0.000464133
-0.00203408
-0.00052468
-0.00207081
-0.000586503
-0.00210988
-0.000649676
-0.00215162
-0.000714277
-0.00219617
-0.000780391
-0.00224356
-0.000848099
-0.00229381
-0.00091748
-0.00234698
-0.000988618
-0.00240315
-0.00246166
-0.00106156
-0.000297917
-0.00186587
-0.000355483
-0.00190527
-0.000414423
-0.00193987
-0.000474606
-0.0019739
-0.000536021
-0.00200939
-0.000598717
-0.00204718
-0.000662765
-0.00208758
-0.000728245
-0.00213069
-0.000795242
-0.00217656
-0.000863833
-0.00222522
-0.000934097
-0.00227672
-0.00100611
-0.00233114
-0.00238784
-0.00107993
-0.000305475
-0.00180911
-0.000363915
-0.00184683
-0.000423707
-0.00188007
-0.000484735
-0.00191287
-0.000546993
-0.00194713
-0.000610534
-0.00198364
-0.000675432
-0.00202268
-0.000741766
-0.00206435
-0.000809619
-0.00210871
-0.000879072
-0.00215577
-0.000950199
-0.00220559
-0.00102308
-0.00225826
-0.00231316
-0.00109776
-0.000312773
-0.00175146
-0.000372057
-0.00178755
-0.000432674
-0.00181946
-0.000494519
-0.00185103
-0.000557594
-0.00188406
-0.000621955
-0.00191928
-0.000687675
-0.00195696
-0.000754837
-0.00199719
-0.000823524
-0.00204002
-0.000893814
-0.00208548
-0.000965783
-0.00213362
-0.00103951
-0.00218453
-0.00223762
-0.00111505
-0.000261315
-0.00164777
-0.000319811
-0.00169297
-0.000379909
-0.00172745
-0.000441324
-0.00175804
-0.000503959
-0.00178839
-0.000567824
-0.00182019
-0.000632977
-0.00185413
-0.000699495
-0.00189044
-0.000767459
-0.00192923
-0.000836953
-0.00197053
-0.000908057
-0.00201437
-0.000980848
-0.00206083
-0.00105541
-0.00210997
-0.00216124
-0.00113179
-0.000267275
-0.0015906
-0.000326588
-0.00163365
-0.000387471
-0.00166656
-0.000449655
-0.00169586
-0.000513053
-0.001725
-0.000577681
-0.00175557
-0.000643601
-0.00178821
-0.000710889
-0.00182315
-0.00077963
-0.00186049
-0.000849906
-0.00190025
-0.0009218
-0.00194248
-0.00099539
-0.00198724
-0.00107076
-0.0020346
-0.00208403
-0.00114797
-0.000273005
-0.0015326
-0.000333103
-0.00157355
-0.000394743
-0.00160493
-0.000457667
-0.00163294
-0.000521801
-0.00166086
-0.000587166
-0.0016902
-0.000653825
-0.00172155
-0.000721857
-0.00175512
-0.000791348
-0.001791
-0.000862382
-0.00182922
-0.000935041
-0.00186982
-0.00100941
-0.00191288
-0.00108556
-0.00195844
-0.00200601
-0.00116358
-0.000219706
-0.00141598
-0.000278506
-0.0014738
-0.000339358
-0.0015127
-0.000401724
-0.00154256
-0.00046536
-0.0015693
-0.000530202
-0.00159602
-0.000596276
-0.00162413
-0.000663647
-0.00165418
-0.000732397
-0.00168637
-0.000802612
-0.00172078
-0.000874376
-0.00175746
-0.000947775
-0.00179642
-0.00102289
-0.00183776
-0.00109982
-0.00188151
-0.00192722
-0.00117861
-0.000224211
-0.00135938
-0.000283777
-0.00141424
-0.000345351
-0.00145113
-0.000408413
-0.0014795
-0.000472733
-0.00150498
-0.000538255
-0.0015305
-0.000605011
-0.00155737
-0.000673067
-0.00158612
-0.000742508
-0.00161693
-0.000813419
-0.00164987
-0.000885888
-0.00168499
-0.000960001
-0.00172231
-0.00103584
-0.00176192
-0.00111351
-0.00180385
-0.00184767
-0.00119306
-0.000228521
-0.00130199
-0.000288817
-0.00135394
-0.000351082
-0.00138886
-0.00041481
-0.00141577
-0.000479786
-0.00144
-0.000545961
-0.00146432
-0.000613369
-0.00148996
-0.000682084
-0.00151741
-0.000752187
-0.00154683
-0.000823768
-0.00157829
-0.000896915
-0.00161184
-0.000971715
-0.00164751
-0.00104826
-0.00168537
-0.00112664
-0.00172547
-0.00176738
-0.00120692
-0.000232634
-0.00124386
-0.000293627
-0.00129295
-0.000356551
-0.00132594
-0.000420916
-0.0013514
-0.000486518
-0.0013744
-0.000553317
-0.00139752
-0.000621351
-0.00142193
-0.000690695
-0.00144806
-0.000761434
-0.00147609
-0.000833656
-0.00150607
-0.000907453
-0.00153804
-0.000982914
-0.00157205
-0.00106013
-0.00160816
-0.00113919
-0.00164641
-0.00168639
-0.00122018
-0.000177703
-0.00111147
-0.000236551
-0.00118501
-0.000298206
-0.00123129
-0.000361757
-0.00126239
-0.000426729
-0.00128643
-0.000492928
-0.0013082
-0.000560323
-0.00133013
-0.000628955
-0.0013533
-0.0006989
-0.00137812
-0.000770246
-0.00140474
-0.000843083
-0.00143323
-0.000917502
-0.00146362
-0.000993594
-0.00149595
-0.00107145
-0.0015303
-0.00115118
-0.00156668
-0.00160473
-0.00123284
-0.000180748
-0.0010562
-0.00024027
-0.00112549
-0.000302554
-0.00116901
-0.0003667
-0.00119824
-0.000432249
-0.00122088
-0.000499017
-0.00124143
-0.000566978
-0.00126217
-0.000636179
-0.00128409
-0.000706698
-0.0013076
-0.000778622
-0.00133282
-0.000852044
-0.00135981
-0.000927057
-0.00138861
-0.00100375
-0.00141926
-0.00108223
-0.00145182
-0.00116258
-0.00148633
-0.00152242
-0.00124489
-0.000183632
-0.00100025
-0.000243792
-0.00106533
-0.00030667
-0.00110613
-0.00037138
-0.00113353
-0.000437475
-0.00115479
-0.000504783
-0.00117413
-0.000573282
-0.00119367
-0.000643023
-0.00121435
-0.000714086
-0.00123654
-0.00078656
-0.00126034
-0.000860539
-0.00128583
-0.000936116
-0.00131303
-0.00101339
-0.00134199
-0.00109245
-0.00137276
-0.0011734
-0.00140538
-0.0014395
-0.00125632
-0.000186355
-0.00094365
-0.000247116
-0.00100457
-0.000310555
-0.00104269
-0.000375797
-0.00106829
-0.000442408
-0.00108818
-0.000510226
-0.00110631
-0.000579234
-0.00112466
-0.000649486
-0.0011441
-0.000721064
-0.00116496
-0.000794059
-0.00118735
-0.000868564
-0.00121133
-0.000944677
-0.00123692
-0.00102249
-0.00126417
-0.00110211
-0.00129315
-0.00118363
-0.00132386
-0.00135599
-0.00126714
-0.000188917
-0.000886447
-0.000250242
-0.000943241
-0.000314207
-0.000978727
-0.00037995
-0.00100255
-0.000447047
-0.00102108
-0.000515344
-0.00103801
-0.000584832
-0.00105517
-0.000655567
-0.00107337
-0.00072763
-0.00109289
-0.000801116
-0.00111386
-0.000876119
-0.00113632
-0.000952736
-0.0011603
-0.00103107
-0.00118584
-0.00111121
-0.001213
-0.00119327
-0.0012418
-0.00127193
-0.00127733
-0.000133546
-0.000744233
-0.000191316
-0.000828677
-0.000253169
-0.000881388
-0.000317627
-0.000914269
-0.000383838
-0.000936335
-0.000451391
-0.000953529
-0.000520139
-0.000969263
-0.000590077
-0.000985236
-0.000661263
-0.00100218
-0.000733783
-0.00102037
-0.00080773
-0.00103992
-0.000883201
-0.00106085
-0.000960293
-0.00108321
-0.00103911
-0.00110703
-0.00111974
-0.00113237
-0.00120231
-0.00115923
-0.00118735
-0.00128689
-0.000135255
-0.000692253
-0.000193553
-0.000770379
-0.000255897
-0.000819043
-0.000320814
-0.000849352
-0.000387463
-0.000869686
-0.00045544
-0.000885551
-0.000524609
-0.000900095
-0.000594966
-0.000914878
-0.000666576
-0.000930571
-0.000739522
-0.000947427
-0.0008139
-0.000965538
-0.000889808
-0.000984944
-0.000967344
-0.00100568
-0.00104661
-0.00102776
-0.00112771
-0.00105127
-0.00121075
-0.00107619
-0.00110228
-0.00129581
-0.000136841
-0.000639762
-0.000195627
-0.000711593
-0.000258427
-0.000756244
-0.000323769
-0.00078401
-0.000390822
-0.000802633
-0.000459194
-0.000817179
-0.000528753
-0.000830536
-0.000599501
-0.00084413
-0.000671503
-0.000858569
-0.000744845
-0.000874084
-0.000819624
-0.000890759
-0.000895938
-0.00090863
-0.000973888
-0.000927726
-0.00105357
-0.000948076
-0.0011351
-0.000969738
-0.00121859
-0.000992711
-0.00101677
-0.0013041
-0.000138303
-0.000586802
-0.000197538
-0.000652358
-0.000260756
-0.000693026
-0.00032649
-0.000718276
-0.000393917
-0.000735206
-0.000462652
-0.000748444
-0.00053257
-0.000760618
-0.000603679
-0.000773021
-0.000676043
-0.000786205
-0.000749751
-0.000800376
-0.000824901
-0.000815609
-0.00090159
-0.000831941
-0.000979922
-0.000849394
-0.00106
-0.000867999
-0.00114193
-0.00088781
-0.00122581
-0.000908823
-0.00093083
-0.00131175
-0.00013964
-0.000533412
-0.000199286
-0.000592712
-0.000262886
-0.000629426
-0.000328978
-0.000652185
-0.000396746
-0.000667438
-0.000465814
-0.000679376
-0.000536062
-0.00069037
-0.0006075
-0.000701583
-0.000680196
-0.000713509
-0.00075424
-0.000726332
-0.000829728
-0.000740121
-0.000906762
-0.000754907
-0.000985444
-0.000770713
-0.00106588
-0.000787566
-0.00114817
-0.000805516
-0.00123243
-0.00082456
-0.000844509
-0.00131875
-0.000140852
-0.000479634
-0.00020087
-0.000532695
-0.000264816
-0.000565479
-0.000331232
-0.00058577
-0.000399309
-0.000599361
-0.000468679
-0.000610006
-0.000539226
-0.000619823
-0.000610963
-0.000629845
-0.000683961
-0.000640511
-0.000758309
-0.000651984
-0.000834106
-0.000664324
-0.000911452
-0.00067756
-0.000990452
-0.000691713
-0.00107121
-0.000706808
-0.00115384
-0.000722891
-0.00123844
-0.000739958
-0.000757839
-0.00132511
-0.000141939
-0.000425509
-0.000202289
-0.000472344
-0.000266546
-0.000501222
-0.000333252
-0.000519064
-0.000401607
-0.000531006
-0.000471247
-0.000540366
-0.000542062
-0.000549008
-0.000614069
-0.000557839
-0.000687337
-0.000567243
-0.000761958
-0.000577363
-0.000838032
-0.00058825
-0.00091566
-0.000599932
-0.000994946
-0.000612427
-0.001076
-0.000625759
-0.00115892
-0.000639967
-0.00124383
-0.000655049
-0.000670854
-0.00133081
-0.0001429
-0.000371075
-0.000203545
-0.0004117
-0.000268076
-0.000436691
-0.000335038
-0.000452101
-0.000403638
-0.000462406
-0.000473518
-0.000470486
-0.000544571
-0.000477955
-0.000616815
-0.000485595
-0.000690323
-0.000493735
-0.000765187
-0.000502499
-0.000841506
-0.000511931
-0.000919383
-0.000522055
-0.000998922
-0.000532888
-0.00108023
-0.00054445
-0.00116342
-0.000556778
-0.0012486
-0.000569868
-0.000583591
-0.00133586
-0.000143735
-0.000316375
-0.000204635
-0.0003508
-0.000269404
-0.000371922
-0.00033659
-0.000384915
-0.000405403
-0.000393593
-0.000475491
-0.000400398
-0.000546751
-0.000406695
-0.000619203
-0.000413143
-0.000692919
-0.000420018
-0.000767994
-0.000427424
-0.000844527
-0.000435398
-0.000922621
-0.000443961
-0.00100238
-0.000453128
-0.00108392
-0.000462916
-0.00116734
-0.000473358
-0.00125275
-0.000484451
-0.000496083
-0.00134026
-8.95172e-05
-0.000217167
-0.000144444
-0.000261448
-0.000205561
-0.000289684
-0.000270532
-0.000306951
-0.000337907
-0.00031754
-0.000406902
-0.000324598
-0.000477167
-0.000330133
-0.000548602
-0.00033526
-0.00062123
-0.000340515
-0.000695124
-0.000346124
-0.000770379
-0.00035217
-0.000847094
-0.000358684
-0.000925373
-0.000365682
-0.00100532
-0.000373179
-0.00108705
-0.000381189
-0.00117066
-0.000389741
-0.00125628
-0.000398831
-0.000408367
-0.001344
-8.99139e-05
-0.000171598
-0.000145027
-0.000206334
-0.000206322
-0.000228389
-0.000271459
-0.000241813
-0.00033899
-0.000250009
-0.000408134
-0.000255455
-0.000478544
-0.000259723
-0.000550124
-0.00026368
-0.000622897
-0.000267743
-0.000696938
-0.000272083
-0.00077234
-0.000276767
-0.000849205
-0.000281819
-0.000927637
-0.000287251
-0.00100774
-0.000293075
-0.00108963
-0.000299304
-0.00117341
-0.000305961
-0.00125919
-0.000313044
-0.000320479
-0.00134708
-9.02247e-05
-0.000125888
-0.000145484
-0.000151075
-0.000206918
-0.000166955
-0.000272185
-0.000176546
-0.000339838
-0.000182356
-0.000409099
-0.000186195
-0.000479624
-0.000189198
-0.000551317
-0.000191986
-0.000624204
-0.000194856
-0.00069836
-0.000197928
-0.000773878
-0.000201248
-0.000850862
-0.000204835
-0.000929413
-0.000208699
-0.00100964
-0.000212848
-0.00109165
-0.000217293
-0.00117556
-0.000222052
-0.00126148
-0.000227125
-0.000232455
-0.0013495
-9.04495e-05
-8.0076e-05
-0.000145814
-9.57103e-05
-0.000207349
-0.00010542
-0.000272711
-0.000111185
-0.000340452
-0.000114615
-0.000409796
-0.00011685
-0.000480404
-0.00011859
-0.00055218
-0.00012021
-0.00062515
-0.000121886
-0.000699389
-0.000123689
-0.000774993
-0.000125645
-0.000852062
-0.000127766
-0.000930701
-0.00013006
-0.00101102
-0.000132532
-0.00109312
-0.000135191
-0.00117712
-0.00013805
-0.00126314
-0.000141109
-0.000144328
-0.00135126
-9.05882e-05
-3.42005e-05
-0.000146018
-4.02805e-05
-0.000207615
-4.38229e-05
-0.000273034
-4.57654e-05
-0.00034083
-4.68195e-05
-0.000410227
-4.74528e-05
-0.000480886
-4.79307e-05
-0.000552714
-4.8383e-05
-0.000625735
-4.88649e-05
-0.000700026
-4.93973e-05
-0.000775683
-4.99885e-05
-0.000852806
-5.06432e-05
-0.0009315
-5.13656e-05
-0.00101187
-5.216e-05
-0.00109403
-5.30316e-05
-0.00117809
-5.39885e-05
-0.00126417
-5.50322e-05
-5.61384e-05
-0.00135236
-9.06406e-05
1.16989e-05
-0.000146095
1.5174e-05
-0.000207716
1.77976e-05
-0.000273157
1.96759e-05
-0.000340973
2.09969e-05
-0.000410391
2.19644e-05
-0.00048107
2.27484e-05
-0.000552917
2.34642e-05
-0.000625958
2.41766e-05
-0.00070027
2.49148e-05
-0.000775948
2.56892e-05
-0.000853093
2.65016e-05
-0.000931809
2.7351e-05
-0.0010122
2.82352e-05
-0.00109439
2.91516e-05
-0.00117847
3.00969e-05
-0.00126457
3.10681e-05
3.20659e-05
-0.00135278
-9.06068e-05
5.7583e-05
-0.000146045
7.06127e-05
-0.000207651
7.94029e-05
-0.000273078
8.51031e-05
-0.000340882
8.88005e-05
-0.000410287
9.13695e-05
-0.000480954
9.34158e-05
-0.00055279
9.53002e-05
-0.000625821
9.7207e-05
-0.000700122
9.9216e-05
-0.000775789
0.000101356
-0.000852923
0.000103636
-0.000931629
0.000106057
-0.00101201
0.00010862
-0.00109419
0.000111325
-0.00117826
0.000114172
-0.00126435
0.000117158
0.000120263
-0.00135255
-9.04867e-05
0.000103413
-0.000145869
0.000125995
-0.000207421
0.000140955
-0.000272798
0.00015048
-0.000340555
0.000156557
-0.000409916
0.00016073
-0.00048054
0.00016404
-0.000552333
0.000167094
-0.000625322
0.000170195
-0.000699581
0.000173475
-0.000775205
0.000176981
-0.000852297
0.000180728
-0.00093096
0.000184721
-0.0010113
0.000188962
-0.00109343
0.000193454
-0.00117746
0.000198204
-0.00126351
0.000203204
0.000208418
-0.00135166
-9.02801e-05
0.000149148
-0.000145566
0.000181281
-0.000207025
0.000202414
-0.000272316
0.000215772
-0.000339993
0.000224234
-0.000409277
0.000230014
-0.000479827
0.00023459
-0.000551547
0.000238813
-0.000624461
0.00024311
-0.000698646
0.00024766
-0.000774197
0.000252531
-0.000851213
0.000257744
-0.000929801
0.000263308
-0.00101007
0.000269227
-0.00109212
0.000275506
-0.00117607
0.000282156
-0.00126204
0.00028917
0.000296491
-0.00135011
-8.99872e-05
0.000194751
-0.000145136
0.000236429
-0.000206464
0.000263742
-0.000271633
0.000280941
-0.000339196
0.000291796
-0.000408371
0.00029919
-0.000478815
0.000305034
-0.00055043
0.000310428
-0.000623239
0.00031592
-0.000697319
0.00032174
-0.000772764
0.000327975
-0.000849674
0.000334654
-0.000928153
0.000341788
-0.00100831
0.000349383
-0.00109025
0.000357447
-0.00117409
0.000365995
-0.00125994
0.00037502
0.000384447
-0.00134789
-8.9608e-05
0.000240181
-0.000144579
0.0002914
-0.000205737
0.0003249
-0.000270749
0.000345952
-0.000338163
0.000359211
-0.000407197
0.000368224
-0.000477504
0.00037534
-0.000548983
0.000381907
-0.000621656
0.000388593
-0.0006956
0.000395683
-0.000770907
0.000403282
-0.000847677
0.000411425
-0.000926017
0.000420127
-0.00100603
0.000429396
-0.00108783
0.000439243
-0.00117152
0.000449687
-0.00125722
0.00046072
0.000472249
-0.00134502
-8.91426e-05
-0.000143895
0.000346152
-0.000204845
0.000385851
-0.000269662
0.00041077
-0.000336895
0.000426444
-0.000405757
0.000437085
-0.000475894
0.000445478
-0.000547206
0.000453219
-0.000619713
0.0004611
-0.000693488
0.000469459
-0.000768625
0.00047842
-0.000845225
0.000488025
-0.000923391
0.000498293
-0.00100323
0.000509234
-0.00108485
0.00052086
-0.00116836
0.000533196
-0.00125387
0.000546233
0.00055986
-0.00134148
-0.000143085
0.000400646
-0.000203788
0.000446554
-0.000268375
0.000475357
-0.000335393
0.000493462
-0.000404048
0.000505741
-0.000473986
0.000515415
-0.000545099
0.000524332
-0.000617408
0.000533409
-0.000690984
0.000543035
-0.000765921
0.000553356
-0.000842318
0.000564422
-0.000920279
0.000576254
-0.000999908
0.000588863
-0.00108131
0.000602265
-0.00116461
0.00061649
-0.0012499
0.000631526
0.000647245
-0.00133729
-0.000142148
0.00045484
-0.000202565
0.000506971
-0.000266886
0.000539678
-0.000333655
0.000560231
-0.000402073
0.000574159
-0.000471779
0.000585121
-0.000542663
0.000595217
-0.000614743
0.000605488
-0.000688089
0.000616381
-0.000762793
0.000628061
-0.000838956
0.000640585
-0.000916679
0.000653977
-0.000996068
0.000668251
-0.00107723
0.000683426
-0.00116027
0.000699533
-0.00124531
0.000716564
0.000734369
-0.00133243
-0.000141085
0.000508694
-0.000201177
0.000567063
-0.000265196
0.000603697
-0.000331682
0.000626717
-0.000399831
0.000642308
-0.000469274
0.000654564
-0.000539898
0.000665841
-0.000611717
0.000677307
-0.000684802
0.000689466
-0.000759243
0.000702502
-0.00083514
0.000716482
-0.000912594
0.000731431
-0.000991709
0.000747366
-0.00107259
0.000764307
-0.00115535
0.000782292
-0.0012401
0.000801311
0.000821195
-0.00132692
-0.000139897
0.000562167
-0.000199625
0.000626791
-0.000263305
0.000667377
-0.000329474
0.000692886
-0.000397321
0.000710154
-0.00046647
0.000723714
-0.000536804
0.000736174
-0.000608332
0.000748836
-0.000681125
0.000762258
-0.000755272
0.000776649
-0.000830871
0.000792081
-0.000908023
0.000808583
-0.000986832
0.000826175
-0.0010674
0.000844878
-0.00114984
0.000864734
-0.00123427
0.000885733
0.000907689
-0.00132076
-0.000138583
0.000615219
-0.000197908
0.000686116
-0.000261213
0.000730682
-0.000327032
0.000758705
-0.000394545
0.000777667
-0.000463369
0.000792538
-0.000533381
0.000806186
-0.000604588
0.000820044
-0.000677058
0.000834728
-0.000750879
0.00085047
-0.00082615
0.000867351
-0.000902969
0.000885403
-0.00098144
0.000904646
-0.00106167
0.000925105
-0.00114376
0.000946825
-0.00122782
0.000969797
0.000993815
-0.00131395
-0.000137144
0.000667809
-0.000196027
0.000745
-0.000258921
0.000793575
-0.000324355
0.000824139
-0.000391502
0.000844814
-0.00045997
0.000861006
-0.00052963
0.000875846
-0.000600485
0.000890899
-0.000672602
0.000906844
-0.000746067
0.000923935
-0.000820977
0.000942261
-0.000897432
0.000961858
-0.000975534
0.000982748
-0.00105538
0.00100496
-0.00113709
0.00102853
-0.00122076
0.00105347
0.00107954
-0.00130649
-0.00013558
0.000719897
-0.000193982
0.000803402
-0.000256428
0.00085602
-0.000321444
0.000889155
-0.000388192
0.000911562
-0.000456274
0.000929087
-0.000525551
0.000945123
-0.000596024
0.000961373
-0.000667757
0.000978577
-0.000740835
0.000997014
-0.000815355
0.00101678
-0.000891414
0.00103792
-0.000969115
0.00106045
-0.00104856
0.0010844
-0.00112985
0.00110982
-0.00121309
0.00113671
0.00116483
-0.00129838
-0.000133891
0.000771442
-0.000191773
0.000861284
-0.000253734
0.000917982
-0.000318298
0.000953719
-0.000384616
0.000977881
-0.00045228
0.000996751
-0.000521144
0.00101399
-0.000591206
0.00103143
-0.000662524
0.0010499
-0.000735185
0.00106968
-0.000809284
0.00109088
-0.000884917
0.00111355
-0.000962185
0.00113772
-0.00104119
0.0011634
-0.00112203
0.00119066
-0.00120482
0.0012195
0.00124965
-0.00128963
-0.000132077
-0.0001894
0.000918607
-0.00025084
0.000979422
-0.000314918
0.0010178
-0.000380774
0.00104374
-0.000447989
0.00106397
-0.000516411
0.00108241
-0.00058603
0.00110105
-0.000656904
0.00112077
-0.000729118
0.00114189
-0.000802765
0.00116453
-0.000877942
0.00118873
-0.000954746
0.00121452
-0.00103328
0.00124193
-0.00111364
0.00127102
-0.00119593
0.0013018
0.00133396
-0.00128025
-0.000186863
0.00097533
-0.000247746
0.0010403
-0.000311304
0.00108135
-0.000376666
0.0011091
-0.000443402
0.0011307
-0.00051135
0.00115036
-0.000580497
0.0011702
-0.000650898
0.00119117
-0.000722635
0.00121363
-0.000795801
0.00123769
-0.00087049
0.00126342
-0.0009468
0.00129083
-0.00102483
0.00131996
-0.00110468
0.00135087
-0.00118645
0.00138357
0.00141774
-0.00127023
-0.000184164
0.00103141
-0.000244452
0.00110059
-0.000307455
0.00114436
-0.000372292
0.00117394
-0.000438518
0.00119693
-0.000505964
0.0012178
-0.000574609
0.00123885
-0.000644507
0.00126107
-0.000715737
0.00128486
-0.000788391
0.00131035
-0.000862563
0.00133759
-0.000938349
0.00136662
-0.00101584
0.00139746
-0.00109515
0.00143018
-0.00117637
0.00146479
0.00150095
-0.00125958
-0.000181301
0.00108682
-0.000240958
0.00116025
-0.000303373
0.00120677
-0.000367653
0.00123822
-0.000433338
0.00126261
-0.000500251
0.00128472
-0.000568366
0.00130696
-0.000637731
0.00133043
-0.000708426
0.00135555
-0.000780539
0.00138246
-0.000854164
0.00141121
-0.000929396
0.00144185
-0.00100633
0.00147439
-0.00108506
0.00150891
-0.00116569
0.00154542
0.00158356
-0.0012483
-0.000178277
0.00114151
-0.000237265
0.00121924
-0.000299058
0.00126857
-0.000362748
0.00130191
-0.000427863
0.00132773
-0.000494214
0.00135107
-0.000561769
0.00137452
-0.000630572
0.00139924
-0.000700702
0.00142568
-0.000772245
0.001454
-0.000845294
0.00148426
-0.000919942
0.0015165
-0.000996282
0.00155073
-0.00107441
0.00158704
-0.00115442
0.00162543
0.00166554
-0.0012364
-0.000175091
-0.000233373
0.00127752
-0.000294509
0.0013297
-0.000357577
0.00136497
-0.000422092
0.00139224
-0.000487851
0.00141683
-0.000554817
0.00144148
-0.00062303
0.00146745
-0.000692566
0.00149522
-0.000763511
0.00152495
-0.000835955
0.00155671
-0.000909991
0.00159053
-0.000985709
0.00162645
-0.0010632
0.00166453
-0.00114257
0.0017048
0.00174685
-0.00122389
-0.000229282
0.00133506
-0.000289727
0.00139015
-0.000352142
0.00142739
-0.000416025
0.00145613
-0.000481164
0.00148196
-0.000547512
0.00150783
-0.000615107
0.00153505
-0.00068402
0.00156413
-0.000754338
0.00159526
-0.000826149
0.00162852
-0.000899544
0.00166393
-0.000974612
0.00170152
-0.00105144
0.00174136
-0.00113014
0.00178349
0.00182748
-0.00121076
-0.000224992
0.00139182
-0.000284711
0.00144987
-0.000346441
0.00148912
-0.000409663
0.00151935
-0.000474153
0.00154645
-0.000539855
0.00157353
-0.000606803
0.00160199
-0.000675066
0.00163239
-0.000744728
0.00166493
-0.000815878
0.00169967
-0.000888604
0.00173665
-0.000962994
0.00177591
-0.00103914
0.0018175
-0.00111712
0.00186148
0.00190738
-0.00119703
-0.000220504
-0.000279463
0.00150883
-0.000340476
0.00155013
-0.000403007
0.00158188
-0.000466818
0.00161026
-0.000531846
0.00163856
-0.000598118
0.00166827
-0.000665703
0.00169998
-0.000734682
0.00173391
-0.000805143
0.00177013
-0.000877173
0.00180868
-0.000950858
0.00184959
-0.00102628
0.00189293
-0.00110354
0.00193873
0.00198654
-0.0011827
-0.000273982
0.00156699
-0.000334246
0.0016104
-0.000396056
0.00164369
-0.000459159
0.00167337
-0.000523485
0.00170289
-0.000589055
0.00173384
-0.000655934
0.00176686
-0.000724203
0.00180217
-0.000793948
0.00183987
-0.000865254
0.00187999
-0.000938207
0.00192254
-0.00101289
0.00196761
-0.00108939
0.00201523
0.00206492
-0.00116777
-0.000268268
0.00162432
-0.000327751
0.00166988
-0.00038881
0.00170475
-0.000451178
0.00173574
-0.000514773
0.00176648
-0.000579613
0.00179868
-0.000645759
0.001833
-0.000713291
0.00186971
-0.000782293
0.00190887
-0.000852849
0.00195054
-0.000925044
0.00199474
-0.000998957
0.00204152
-0.00107468
0.00209095
0.00214251
-0.00115226
-0.000262322
0.00168079
-0.000320992
0.00172855
-0.00038127
0.00176503
-0.000442874
0.00179734
-0.000505711
0.00182932
-0.000569793
0.00186276
-0.000635179
0.00189839
-0.000701947
0.00193647
-0.000770179
0.00197711
-0.000839961
0.00202033
-0.000911372
0.00206615
-0.000984492
0.00211464
-0.00105941
0.00216586
0.00221928
-0.00113617
-0.000256144
-0.000313968
0.00178637
-0.000373436
0.0018245
-0.000434248
0.00185815
-0.0004963
0.00189137
-0.000559597
0.00192605
-0.000624196
0.00196299
-0.000690173
0.00200245
-0.00075761
0.00204454
-0.00082659
0.00208931
-0.000897194
0.00213675
-0.000969497
0.00218695
-0.00104358
0.00223995
0.0022952
-0.00111951
-0.000306681
0.00184332
-0.000365308
0.00188312
-0.000425299
0.00191814
-0.000486538
0.00195261
-0.000549024
0.00198854
-0.00061281
0.00202677
-0.00067797
0.00206761
-0.000744586
0.00211116
-0.000812739
0.00215746
-0.000882511
0.00220653
-0.000953975
0.00225841
-0.00102721
0.00231319
0.00237026
-0.00110228
-0.000299129
0.00189935
-0.000356887
0.00194088
-0.000416029
0.00197728
-0.000476428
0.00201301
-0.000538076
0.00205019
-0.000601022
0.00208972
-0.000665339
0.00213193
-0.000731107
0.00217693
-0.00079841
0.00222476
-0.000867325
0.00227544
-0.00093793
0.00232902
-0.0010103
0.00238556
0.00244445
-0.00108449
-0.000291314
-0.000348171
0.00199774
-0.000406437
0.00203555
-0.000465969
0.00207254
-0.000526753
0.00211097
-0.000588833
0.0021518
-0.00065228
0.00219537
-0.000717176
0.00224182
-0.000783602
0.00229119
-0.000851639
0.00234348
-0.000921362
0.00239874
-0.000992851
0.00245705
0.00251775
-0.00106615
-0.000339163
0.00205367
-0.000396524
0.00209291
-0.000455163
0.00213118
-0.000515055
0.00217087
-0.000576243
0.00221299
-0.000638795
0.00225793
-0.000702792
0.00230582
-0.000768317
0.00235671
-0.000835451
0.00241061
-0.000904272
0.00246756
-0.000974864
0.00252764
0.00259015
-0.00104727
-0.000329861
-0.000386289
0.00214934
-0.000444008
0.0021889
-0.000502984
0.00222984
-0.000563253
0.00227326
-0.000624884
0.00231956
-0.000687956
0.00236889
-0.000752555
0.00242131
-0.000818762
0.00247682
-0.000886661
0.00253546
-0.000956343
0.00259732
0.00266166
-0.00102785
-0.000375734
0.00220481
-0.000432506
0.00224567
-0.000490539
0.00228787
-0.000549863
0.00233258
-0.000610547
0.00238024
-0.000672668
0.00243101
-0.000736314
0.00248496
-0.000801571
0.00254208
-0.000868525
0.00260241
-0.000937284
0.00266608
0.00273228
-0.00100791
-0.000364859
-0.000420658
0.00230147
-0.000477721
0.00234494
-0.000536075
0.00239094
-0.000595785
0.00243995
-0.000656929
0.00249216
-0.000719595
0.00254762
-0.000783875
0.00260636
-0.00084986
0.0026684
-0.000917681
0.0027339
0.00280203
-0.000987428
-0.000408463
0.00235627
-0.000464531
0.002401
-0.000521889
0.00244829
-0.000580598
0.00249866
-0.000640737
0.0025523
-0.000702397
0.00260928
-0.00076567
0.00266963
-0.000830656
0.00273338
-0.000897519
0.00280077
0.00287093
-0.000966417
-0.000395923
0.00241004
-0.000450971
0.00245605
-0.000507307
0.00250463
-0.000564988
0.00255634
-0.000624094
0.0026114
-0.000684717
0.00266991
-0.000746955
0.00273187
-0.000810903
0.00279733
-0.000876774
0.00286664
0.00293901
-0.000944858
-0.000383039
-0.000437041
0.00251005
-0.000492328
0.00255992
-0.000548956
0.00261297
-0.000607
0.00266945
-0.000666555
0.00272946
-0.000727725
0.00279304
-0.00079059
0.0028602
-0.000855401
0.00293145
0.00300633
-0.00092272
-0.000422742
-0.000476956
0.00261413
-0.000532504
0.00266852
-0.000589457
0.0027264
-0.000647911
0.00278792
-0.00070798
0.00285311
-0.000769711
0.00292193
-0.000833324
0.00299506
0.00307296
-0.000899951
-0.000461193
0.00266725
-0.000515634
0.00272296
-0.000571468
0.00278223
-0.000628785
0.00284523
-0.000687719
0.00291204
-0.000748277
0.00298249