/*--------------------------------*- C++ -*----------------------------------*\
  =========                 |
  \\      /  F ield         | OpenFOAM: The Open Source CFD Toolbox
   \\    /   O peration     | Website:  https://openfoam.org
    \\  /    A nd           | Version:  7
     \\/     M anipulation  |
\*---------------------------------------------------------------------------*/
FoamFile
{
    version     2.0;
    format      ascii;
    class       volVectorField;
    location    "85";
    object      U;
}
// * * * * * * * * * * * * * * * * * * * * * * * * * * * * * * * * * * * * * //

dimensions      [0 1 -1 0 0 0 0];

internalField   nonuniform List<vector> 
8500
(
(1.05287 0.356583 1.34895e-21)
(1.04155 0.374341 -3.26162e-21)
(1.04215 0.356725 3.40506e-20)
(1.02848 0.39429 -1.62226e-20)
(1.02994 0.374235 5.40256e-20)
(1.03132 0.356513 -6.18749e-20)
(1.01463 0.416115 -1.85387e-20)
(1.01618 0.393972 8.21368e-20)
(1.01822 0.373763 -4.14126e-20)
(1.02039 0.355935 1.21895e-20)
(1.00168 0.415554 3.70053e-20)
(1.00381 0.393278 5.94202e-20)
(1.00639 0.372919 -1.77668e-19)
(1.00937 0.354971 4.11476e-20)
(0.98657 0.438289 5.95914e-20)
(0.988703 0.41458 -7.41764e-20)
(0.991402 0.392205 4.23483e-20)
(0.994483 0.371693 2.06352e-19)
(0.998267 0.353591 1.30984e-19)
(0.970246 0.462193 -2.4625e-20)
(0.972853 0.436979 -9.80719e-20)
(0.975715 0.413186 -3.86685e-20)
(0.978983 0.390749 -1.25875e-19)
(0.982505 0.370071 7.67797e-20)
(0.98709 0.351755 -1.56174e-19)
(0.955673 0.460487 -2.43321e-20)
(0.959119 0.435207 -1.94057e-20)
(0.962735 0.411365 7.43681e-20)
(0.966569 0.388906 1.53724e-19)
(0.970495 0.368044 -2.59218e-19)
(0.975972 0.349431 1.82275e-19)
(0.936824 0.485131 -4.44977e-21)
(0.941077 0.458283 -4.33033e-21)
(0.945379 0.432968 1.39088e-19)
(0.949772 0.409105 -5.44023e-20)
(0.95417 0.386658 -1.12837e-19)
(0.958561 0.365587 -5.44792e-21)
(0.965177 0.346635 -2.63762e-19)
(0.921298 0.482436 -7.60425e-20)
(0.926472 0.455578 4.41889e-20)
(0.931643 0.430257 1.22223e-19)
(0.936819 0.406402 4.00969e-20)
(0.941809 0.383984 -2.26053e-19)
(0.946893 0.362624 -8.18502e-21)
(0.954734 0.343309 8.07956e-20)
(0.899583 0.507667 -4.50815e-20)
(0.905776 0.479203 -1.25852e-20)
(0.911876 0.452371 -1.34311e-19)
(0.917918 0.427075 -7.09026e-20)
(0.923872 0.403257 -7.99843e-20)
(0.929533 0.38089 2.7014e-19)
(0.935673 0.359161 -6.41522e-20)
(0.943821 0.338226 2.44448e-19)
(0.875709 0.533934 -1.40275e-19)
(0.883095 0.503838 6.358e-20)
(0.890278 0.475431 1.05294e-19)
(0.897307 0.448662 4.27669e-20)
(0.904215 0.423428 1.21415e-19)
(0.91095 0.399674 6.06061e-20)
(0.917375 0.377377 -1.51366e-20)
(0.924556 0.355684 1.37193e-19)
(0.932929 0.334682 2.35862e-20)
(0.858208 0.529435 -6.8425e-20)
(0.866651 0.499427 -2.0258e-19)
(0.874828 0.47112 -1.2434e-20)
(0.882785 0.444451 -9.1598e-20)
(0.890553 0.419316 1.44729e-19)
(0.89807 0.39566 -2.25662e-19)
(0.905254 0.373441 -5.76712e-20)
(0.913205 0.351786 -8.8629e-20)
(0.921721 0.330734 -3.24503e-19)
(0.830813 0.555835 -2.15587e-20)
(0.840773 0.52431 -1.02271e-20)
(0.850277 0.494436 -3.67221e-20)
(0.859446 0.466269 -7.25663e-20)
(0.86833 0.43974 -1.06023e-19)
(0.876955 0.414743 5.90715e-20)
(0.88526 0.391219 1.82924e-19)
(0.893199 0.369114 -1.01078e-19)
(0.90183 0.347566 1.33446e-19)
(0.910615 0.32667 3.80718e-19)
(0.812351 0.549921 -3.27912e-19)
(0.823432 0.518558 -1.627e-19)
(0.833995 0.488864 4.15452e-20)
(0.844156 0.460879 6.09658e-20)
(0.853963 0.43453 2.18201e-19)
(0.863444 0.409708 -3.08066e-19)
(0.872536 0.386354 9.16767e-20)
(0.881222 0.364399 5.46589e-20)
(0.890497 0.343014 -7.85137e-20)
(0.899642 0.322377 -2.86798e-19)
(0.794009 0.543331 1.73545e-19)
(0.80621 0.512183 2.85594e-19)
(0.81783 0.482714 2.36834e-19)
(0.828981 0.454953 1.7645e-19)
(0.839708 0.428823 -3.82267e-19)
(0.85004 0.404214 -4.55069e-21)
(0.859919 0.381066 -1.04342e-19)
(0.869342 0.359299 4.07339e-19)
(0.879253 0.338128 -1.64267e-20)
(0.888817 0.317803 -2.03268e-19)
(0.76158 0.568361 -2.47539e-19)
(0.775815 0.53607 5.50191e-21)
(0.789133 0.505185 9.78681e-20)
(0.801807 0.475986 -1.54695e-19)
(0.813942 0.448492 -1.94536e-19)
(0.825584 0.422621 4.96204e-19)
(0.836764 0.398263 2.0154e-19)
(0.847427 0.375358 -2.10731e-19)
(0.857583 0.353816 -2.42112e-19)
(0.868128 0.332905 -2.75135e-19)
(0.878155 0.312925 -2.62271e-20)
(0.742402 0.560143 1.33705e-19)
(0.757797 0.52814 5.31029e-20)
(0.772229 0.497569 -2.70478e-19)
(0.78595 0.468686 2.88506e-19)
(0.799062 0.4415 1.78794e-19)
(0.811614 0.415926 -6.90754e-20)
(0.823636 0.391857 -1.36203e-19)
(0.83508 0.36923 1.19486e-19)
(0.845966 0.34795 -2.10438e-19)
(0.857147 0.327338 -2.94748e-19)
(0.867668 0.307727 2.838e-19)
(0.705318 0.583527 4.277e-19)
(0.723433 0.551206 -2.16481e-19)
(0.739984 0.519547 2.68061e-19)
(0.755522 0.489338 -3.11337e-19)
(0.770283 0.460816 4.11379e-20)
(0.784365 0.43398 -1.24859e-19)
(0.797819 0.408743 9.22827e-20)
(0.810678 0.385 8.79294e-20)
(0.822897 0.362685 -5.46794e-20)
(0.834509 0.341702 5.26165e-19)
(0.846328 0.321421 -7.22681e-20)
(0.857364 0.302197 -2.43524e-19)
(0.685426 0.573537 -3.11142e-19)
(0.704704 0.541558 4.53465e-19)
(0.722404 0.510297 -4.73727e-20)
(0.739039 0.4805 1.29632e-19)
(0.75483 0.452383 1.60512e-19)
(0.769872 0.425937 6.49011e-20)
(0.78422 0.401076 -4.43877e-19)
(0.797907 0.377693 1.01652e-19)
(0.810897 0.355725 9.44349e-20)
(0.823231 0.335073 -3.18868e-19)
(0.835686 0.315153 1.18914e-19)
(0.847252 0.296331 4.65007e-20)
(0.642785 0.593395 -4.65259e-20)
(0.66581 0.562783 -6.07804e-21)
(0.686245 0.531206 7.54001e-20)
(0.705085 0.500397 -1.2617e-19)
(0.722805 0.47106 -1.8483e-20)
(0.739614 0.443391 -4.99072e-19)
(0.755607 0.417377 -3.86824e-19)
(0.770837 0.392929 -6.60119e-20)
(0.785345 0.369943 -5.56222e-20)
(0.799097 0.348354 -6.25655e-20)
(0.812147 0.328063 -1.28677e-19)
(0.825236 0.308533 -1.50114e-19)
(0.837343 0.290126 -2.01896e-19)
(0.622379 0.581539 -9.14694e-20)
(0.646502 0.551275 -4.27705e-20)
(0.668086 0.520161 -4.41619e-19)
(0.688054 0.489856 -4.2179e-19)
(0.706846 0.461026 7.79532e-20)
(0.72466 0.433849 6.91511e-19)
(0.741589 0.408306 1.02813e-19)
(0.757691 0.384308 2.81068e-19)
(0.773009 0.361753 -4.41723e-19)
(0.787515 0.340575 -1.05198e-19)
(0.801273 0.320677 5.27137e-19)
(0.814991 0.301562 2.34678e-19)
(0.827644 0.283584 9.72613e-19)
(0.602318 0.568875 -5.90862e-20)
(0.627534 0.539024 3.03325e-19)
(0.650258 0.508431 -1.92064e-19)
(0.671338 0.478683 1.40383e-19)
(0.691186 0.450406 3.24845e-19)
(0.70999 0.423764 -2.22583e-19)
(0.727841 0.398732 5.66164e-20)
(0.744802 0.37522 2.80397e-19)
(0.760918 0.35313 3.54742e-19)
(0.776168 0.332394 -1.87274e-19)
(0.790626 0.312917 -1.07003e-19)
(0.804964 0.294241 1.65002e-19)
(0.818166 0.276706 -4.81838e-19)
(0.552406 0.580998 6.85268e-20)
(0.582636 0.555417 1.93576e-19)
(0.60894 0.526045 -2.8947e-19)
(0.632788 0.496031 6.91797e-19)
(0.654964 0.466889 2.92467e-19)
(0.67585 0.439212 -9.77101e-20)
(0.695626 0.413146 -3.09207e-20)
(0.714384 0.388662 1.33374e-19)
(0.732189 0.365672 -3.72591e-19)
(0.749089 0.344079 3.11055e-20)
(0.765072 0.323816 -2.44335e-19)
(0.780218 0.304787 -1.0871e-19)
(0.795168 0.286576 -4.85613e-19)
(0.808917 0.269498 -2.11905e-19)
(0.532214 0.56643 -2.42967e-19)
(0.56337 0.54118 1.32528e-19)
(0.59075 0.512351 -8.10032e-20)
(0.615705 0.482971 -2.51634e-19)
(0.638958 0.454486 2.77869e-19)
(0.660863 0.427453 2.99225e-19)
(0.681592 0.402003 -6.78725e-22)
(0.701239 0.378106 -6.92053e-20)
(0.71987 0.355673 -3.94575e-20)
(0.73754 0.334609 2.96483e-19)
(0.754243 0.314847 2.65742e-19)
(0.770065 0.296295 7.49817e-20)
(0.785614 0.278569 5.12976e-19)
(0.799908 0.261964 1.68301e-19)
(0.512473 0.551033 -8.9509e-20)
(0.544551 0.526183 -1.51381e-19)
(0.572995 0.497957 -5.81808e-20)
(0.599038 0.469267 -9.02947e-21)
(0.623345 0.441487 -6.05335e-19)
(0.646246 0.415141 -7.75117e-19)
(0.667908 0.390348 -1.20768e-19)
(0.688424 0.367074 2.74083e-19)
(0.707865 0.345231 -1.08705e-19)
(0.726288 0.324727 -5.56424e-19)
(0.743696 0.305496 5.26762e-19)
(0.76018 0.287447 7.63352e-20)
(0.776315 0.270229 -2.14628e-19)
(0.791148 0.25411 3.39888e-19)
(0.454852 0.55097 1.02866e-19)
(0.49322 0.534826 3.5965e-19)
(0.526215 0.510442 -1.26074e-19)
(0.555704 0.482882 1.93091e-19)
(0.582813 0.454933 3.71175e-19)
(0.60815 0.427906 2.04649e-19)
(0.632025 0.402289 8.67193e-19)
(0.654596 0.378192 4.01661e-19)
(0.67596 0.355576 -3.29045e-20)
(0.696191 0.334357 -2.15619e-20)
(0.71535 0.314443 7.08473e-20)
(0.733445 0.29577 -5.83828e-19)
(0.750576 0.278249 -3.14467e-19)
(0.767284 0.261561 1.35953e-19)
(0.782648 0.245945 -4.72502e-19)
(0.435519 0.533824 7.78258e-20)
(0.474491 0.517832 -4.60259e-19)
(0.508392 0.49398 3.51089e-19)
(0.538907 0.467142 -1.63587e-19)
(0.567056 0.439987 -3.80877e-19)
(0.593397 0.413758 -9.30085e-20)
(0.618219 0.388912 -3.58214e-19)
(0.641677 0.365548 -7.53438e-19)
(0.663866 0.343625 6.536e-20)
(0.684866 0.323061 6.07211e-19)
(0.704741 0.303767 -2.67403e-19)
(0.723507 0.285679 3.27073e-19)
(0.741267 0.268711 4.44001e-19)
(0.758531 0.252573 2.86985e-19)
(0.774418 0.237475 2.20134e-19)
(0.416741 0.515848 2.80347e-19)
(0.456321 0.500074 4.899e-19)
(0.491114 0.476815 -5.98127e-19)
(0.522632 0.450757 4.7601e-19)
(0.551794 0.424446 3.82789e-19)
(0.579111 0.399058 -1.11719e-19)
(0.604853 0.375024 -5.93836e-20)
(0.62917 0.352429 2.19863e-19)
(0.652161 0.331233 -3.81946e-19)
(0.673907 0.311355 -5.14625e-19)
(0.694477 0.29271 1.96627e-19)
(0.713894 0.275233 -2.01766e-19)
(0.732266 0.258842 -2.40708e-19)
(0.750069 0.243275 -2.10774e-19)
(0.766467 0.22871 2.14971e-20)
(0.398556 0.497071 -4.86275e-19)
(0.438743 0.481576 -3.8304e-20)
(0.474411 0.458972 2.85192e-20)
(0.506905 0.433747 -4.95161e-20)
(0.53705 0.408328 -4.81373e-19)
(0.565313 0.383825 -2.19017e-20)
(0.591945 0.36064 -7.9695e-20)
(0.617095 0.338851 4.85473e-19)
(0.640861 0.318414 -1.52364e-19)
(0.66333 0.299252 -4.39157e-20)
(0.684573 0.281282 2.60221e-19)
(0.704621 0.264442 7.63866e-19)
(0.723584 0.248651 -7.73961e-20)
(0.741908 0.233674 -9.32625e-20)
(0.758806 0.219659 1.60239e-19)
(0.334273 0.479009 3.49678e-19)
(0.381001 0.477519 -2.07679e-19)
(0.421789 0.462363 -3.37077e-19)
(0.458313 0.440473 3.34833e-19)
(0.491754 0.416134 -1.12627e-19)
(0.52285 0.391653 3.16423e-19)
(0.552026 0.368076 1.45732e-19)
(0.579518 0.345778 -8.61466e-20)
(0.60547 0.324828 -3.3013e-19)
(0.629985 0.305182 4.12834e-19)
(0.653151 0.286765 -1.04499e-19)
(0.675044 0.269497 -4.5751e-19)
(0.695701 0.253317 -1.57235e-19)
(0.715235 0.23815 -5.00226e-20)
(0.73406 0.223781 7.92669e-19)
(0.751443 0.210332 -5.13068e-19)
(0.317268 0.458982 -2.59132e-19)
(0.364108 0.457221 5.14083e-19)
(0.405491 0.442464 9.31453e-20)
(0.442846 0.421342 2.55182e-19)
(0.477203 0.397941 1.90807e-19)
(0.509216 0.374442 -5.25054e-19)
(0.539271 0.351831 -2.7715e-19)
(0.56759 0.330455 5.17919e-19)
(0.594314 0.310377 -1.68273e-20)
(0.619549 0.291552 -4.27689e-19)
(0.643386 0.273908 1.10036e-19)
(0.665904 0.257368 5.34829e-19)
(0.687147 0.241872 -4.35851e-19)
(0.707229 0.227349 -1.78187e-19)
(0.726536 0.213606 -1.56622e-19)
(0.74439 0.20074 3.51593e-19)
(0.300946 0.438193 -3.51706e-19)
(0.347913 0.436209 -1.534e-19)
(0.389878 0.421905 -6.51492e-20)
(0.428038 0.401607 -5.09325e-19)
(0.463277 0.37919 -3.90038e-19)
(0.496171 0.356716 5.2132e-19)
(0.527068 0.335109 2.90943e-19)
(0.55618 0.31469 -2.2898e-19)
(0.583645 0.295515 -2.67173e-19)
(0.60957 0.27754 2.90913e-19)
(0.634049 0.260695 -1.66162e-19)
(0.657166 0.244907 2.40868e-19)
(0.678971 0.230118 1.16093e-19)
(0.699578 0.21626 4.54549e-19)
(0.719346 0.203162 9.1883e-20)
(0.737653 0.190892 -4.16028e-19)
(0.285341 0.416676 -7.24124e-20)
(0.332445 0.414514 -2.06536e-19)
(0.374979 0.400717 1.81553e-19)
(0.413914 0.381293 6.77712e-20)
(0.449999 0.359907 -2.0399e-19)
(0.483735 0.338498 1.37258e-19)
(0.515438 0.31793 -3.66266e-19)
(0.545306 0.298502 -8.18782e-20)
(0.573478 0.28026 3.3862e-19)
(0.600061 0.263163 1.21393e-19)
(0.625154 0.247143 1.91402e-19)
(0.648843 0.23213 -3.64308e-19)
(0.671184 0.218069 -1.41348e-19)
(0.692293 0.204896 -4.78144e-20)
(0.7125 0.192458 6.73297e-20)
(0.731244 0.1808 3.82823e-19)
(0.270486 0.394464 -1.61949e-19)
(0.317736 0.392168 3.57065e-19)
(0.36082 0.378929 5.71871e-19)
(0.400499 0.360428 1.64114e-19)
(0.43739 0.340117 2.24094e-19)
(0.471929 0.319812 -2.8523e-21)
(0.504398 0.300318 1.07982e-19)
(0.534986 0.281911 3.81628e-19)
(0.563829 0.264631 -5.61626e-20)
(0.591039 0.248438 -6.90882e-19)
(0.616715 0.233266 6.0578e-21)
(0.640948 0.219051 3.91028e-20)
(0.663799 0.205739 3.6458e-20)
(0.685385 0.193269 -2.26118e-19)
(0.706008 0.181508 -2.10184e-19)
(0.725169 0.170477 -4.12311e-19)
(0.204831 0.355972 -1.08806e-19)
(0.256413 0.371595 2.16311e-19)
(0.303814 0.369207 2.13642e-19)
(0.347428 0.356574 -2.12811e-19)
(0.387815 0.339042 2.5947e-20)
(0.425473 0.319846 -1.40927e-19)
(0.460772 0.300681 3.55282e-20)
(0.493966 0.282294 -4.30999e-21)
(0.525235 0.264937 -1.70697e-19)
(0.554714 0.248647 -7.69645e-20)
(0.582516 0.233382 4.59388e-19)
(0.608745 0.219083 -3.46716e-19)
(0.633492 0.205686 2.33282e-19)
(0.656826 0.193142 9.54307e-20)
(0.678862 0.181394 -2.20311e-20)
(0.699879 0.170323 7.2038e-21)
(0.719436 0.159934 2.27216e-19)
(0.192049 0.33371 3.02319e-19)
(0.243152 0.348105 -1.67755e-19)
(0.290705 0.345664 -2.96738e-19)
(0.334826 0.333683 -1.8057e-19)
(0.375886 0.317163 -3.52279e-19)
(0.414267 0.299122 2.9004e-19)
(0.450282 0.281132 -2.38535e-19)
(0.484159 0.263882 5.13297e-20)
(0.516069 0.247603 3.63767e-20)
(0.546147 0.232327 -1.58442e-19)
(0.574507 0.218015 1.85307e-19)
(0.601255 0.204609 2.81235e-19)
(0.626487 0.192051 -2.51507e-19)
(0.650275 0.180293 -2.88827e-19)
(0.672735 0.169284 5.56148e-19)
(0.694122 0.158918 -5.02862e-19)
(0.714055 0.149184 1.84633e-19)
(0.180063 0.31085 -2.52527e-19)
(0.230729 0.324033 5.37593e-20)
(0.278436 0.321577 1.17771e-19)
(0.323038 0.310289 -4.13737e-19)
(0.36473 0.294823 6.77279e-20)
(0.40379 0.277972 -2.83194e-19)
(0.440476 0.261189 2.42333e-19)
(0.474993 0.245105 5.79305e-20)
(0.507503 0.229931 -2.65473e-19)
(0.538141 0.215693 -6.04261e-20)
(0.567023 0.202355 1.44462e-19)
(0.594257 0.189863 6.85756e-20)
(0.619943 0.178163 -2.03061e-20)
(0.644156 0.167208 1.67943e-20)
(0.667013 0.156953 -4.89603e-19)
(0.688745 0.147305 3.50552e-19)
(0.709031 0.13824 3.27483e-19)
(0.168901 0.287432 2.30918e-19)
(0.219172 0.299419 1.58245e-19)
(0.267029 0.296982 3.01327e-19)
(0.312083 0.286428 4.19465e-20)
(0.354367 0.272053 2.94062e-20)
(0.39406 0.256427 -2.1576e-21)
(0.431371 0.24088 -3.09853e-19)
(0.466482 0.225989 1.63541e-19)
(0.49955 0.211943 -2.65152e-19)
(0.530709 0.198766 1.75909e-19)
(0.560076 0.186422 -2.84194e-19)
(0.587762 0.174863 -1.67916e-19)
(0.613869 0.164038 3.41762e-19)
(0.638479 0.153903 3.05134e-20)
(0.661704 0.144417 7.73284e-20)
(0.683757 0.135499 3.1649e-20)
(0.704372 0.127115 -3.6082e-19)
(0.158589 0.263498 -1.54786e-19)
(0.208503 0.274303 9.83602e-20)
(0.256506 0.271918 -2.22244e-19)
(0.301983 0.262134 1.70023e-19)
(0.344814 0.248885 2.41746e-20)
(0.385093 0.234514 1.44969e-19)
(0.42298 0.220231 -5.49773e-21)
(0.45864 0.206557 -1.43957e-19)
(0.492223 0.193663 1.42613e-19)
(0.523862 0.181567 -3.70159e-19)
(0.553676 0.170237 5.19777e-19)
(0.58178 0.159628 2.00168e-19)
(0.608276 0.149694 -4.21647e-19)
(0.63325 0.140393 4.26757e-20)
(0.656815 0.13169 2.78005e-19)
(0.679163 0.123514 -3.95755e-19)
(0.700084 0.115822 -1.94148e-21)
(0.14915 0.239089 1.01771e-19)
(0.198745 0.248726 -8.38152e-20)
(0.246888 0.246422 -4.20197e-20)
(0.292754 0.237443 -8.53391e-20)
(0.336089 0.225351 -1.09357e-19)
(0.376904 0.212265 -3.05468e-19)
(0.415318 0.199271 1.34102e-19)
(0.45148 0.186837 -1.88313e-19)
(0.485533 0.175115 3.48019e-19)
(0.517611 0.164119 2.36562e-19)
(0.547835 0.15382 -4.19573e-19)
(0.576319 0.144177 -4.24476e-19)
(0.60317 0.135148 2.03661e-19)
(0.628478 0.126697 -2.28609e-19)
(0.652353 0.118789 -2.83704e-20)
(0.674972 0.111364 2.26734e-19)
(0.696173 0.104376 -4.22461e-19)
(0.140606 0.21425 -1.63705e-19)
(0.189919 0.222731 -2.35958e-19)
(0.238191 0.220536 3.47884e-19)
(0.284414 0.212391 4.8432e-20)
(0.328206 0.201486 1.7601e-19)
(0.369506 0.189709 1.86678e-19)
(0.408398 0.178028 -4.44273e-20)
(0.445013 0.166855 2.64305e-19)
(0.479491 0.156322 -1.56802e-19)
(0.511966 0.146444 -2.04521e-19)
(0.542559 0.137193 3.28083e-19)
(0.571389 0.128531 3.75271e-19)
(0.598561 0.120421 -4.33538e-19)
(0.624171 0.112829 5.9814e-20)
(0.648327 0.105728 -4.01038e-20)
(0.671188 0.0990649 -1.41907e-19)
(0.692645 0.0927893 5.66155e-20)
(0.132975 0.189025 1.80161e-19)
(0.182041 0.196361 1.30721e-19)
(0.230434 0.194298 -1.87985e-19)
(0.276977 0.187016 8.87349e-20)
(0.321177 0.177323 1.00761e-19)
(0.362911 0.166879 -3.18619e-19)
(0.402229 0.156531 1.57054e-19)
(0.439249 0.146637 1.78485e-20)
(0.474107 0.137311 1.52274e-19)
(0.506935 0.128566 -1.98537e-19)
(0.537859 0.120375 2.50389e-20)
(0.566996 0.112707 -1.57956e-20)
(0.594455 0.105528 2.19752e-20)
(0.620334 0.0988093 1.35343e-19)
(0.64474 0.0925247 2.43665e-20)
(0.667819 0.086631 -3.02562e-20)
(0.689503 0.0810776 3.63387e-21)
(0.126276 0.163458 -2.70657e-20)
(0.175128 0.169658 1.60579e-19)
(0.22363 0.16775 -2.03899e-19)
(0.270456 0.161354 5.11409e-20)
(0.315016 0.152897 -1.82027e-19)
(0.357131 0.143807 4.42905e-22)
(0.396823 0.134809 -2.95365e-19)
(0.434198 0.12621 -2.16274e-19)
(0.469388 0.118107 1.1653e-19)
(0.502527 0.110508 3.09147e-20)
(0.53374 0.103391 -8.24947e-20)
(0.563147 0.0967284 1.11149e-19)
(0.590858 0.0904912 8.17318e-20)
(0.616973 0.0846538 1.37781e-19)
(0.641599 0.0791948 6.82124e-20)
(0.664868 0.0740781 1.57633e-19)
(0.686753 0.0692549 6.40053e-20)
(0.0741037 0.121699 2.62346e-19)
(0.120522 0.137594 -1.0296e-19)
(0.169195 0.142669 -4.74676e-20)
(0.217793 0.140933 -9.07825e-20)
(0.264862 0.135444 8.81164e-21)
(0.309733 0.128242 6.48184e-20)
(0.352175 0.120524 2.01863e-19)
(0.392187 0.112892 2.48756e-19)
(0.429867 0.105603 9.70774e-20)
(0.465343 0.0987343 -2.34919e-20)
(0.498749 0.0922932 -5.1021e-20)
(0.53021 0.0862611 -1.29353e-19)
(0.559849 0.0806141 1.57605e-20)
(0.587776 0.0753278 -1.5408e-20)
(0.614094 0.0703808 -1.12773e-19)
(0.638908 0.0657553 -1.16779e-20)
(0.66234 0.0614218 -2.27759e-19)
(0.684398 0.0573358 4.43788e-21)
(0.069829 0.0987463 -1.07346e-19)
(0.115728 0.111481 -5.68582e-21)
(0.164253 0.115436 -1.22558e-20)
(0.212933 0.113889 6.06448e-20)
(0.260207 0.109325 -1.91101e-19)
(0.305336 0.103395 -7.52863e-20)
(0.348051 0.0970625 -1.29238e-19)
(0.38833 0.0908109 5.17477e-21)
(0.426264 0.0848425 4.35823e-20)
(0.461978 0.0792197 9.81518e-20)
(0.495605 0.0739467 -1.95398e-20)
(0.527274 0.0690085 8.68622e-20)
(0.557106 0.0643854 -4.27982e-20)
(0.585213 0.0600579 -1.56001e-19)
(0.6117 0.0560084 -1.66061e-20)
(0.636671 0.0522229 -3.63694e-20)
(0.660239 0.0486782 1.73973e-19)
(0.682441 0.0453354 -2.98908e-20)
(0.0664168 0.0755995 -2.51134e-20)
(0.111904 0.0851641 5.54611e-20)
(0.160313 0.0880059 4.3432e-20)
(0.20906 0.0866597 1.24216e-20)
(0.256497 0.0830348 1.47497e-19)
(0.301833 0.0783908 -4.00628e-20)
(0.344765 0.0734564 3.59139e-20)
(0.385258 0.0685953 4.29177e-20)
(0.423394 0.0639577 2.99878e-20)
(0.459298 0.0595894 -8.19204e-20)
(0.493102 0.0554926 1.08527e-19)
(0.524936 0.0516556 8.22049e-20)
(0.554922 0.0480634 -3.2527e-20)
(0.583173 0.0447009 1.32962e-19)
(0.609795 0.0415549 2.09775e-19)
(0.634891 0.0386147 -3.09819e-20)
(0.658568 0.0358632 7.9032e-20)
(0.680887 0.0332685 -3.5942e-20)
(0.0638754 0.0523039 1.7047e-20)
(0.109057 0.0586908 -8.7748e-20)
(0.157383 0.0604237 4.55014e-20)
(0.20618 0.0592882 1.34456e-19)
(0.25374 0.0566134 -1.08616e-19)
(0.29923 0.0532654 -6.31819e-21)
(0.342324 0.0497386 2.83033e-20)
(0.382976 0.0462761 6.34393e-20)
(0.421262 0.0429769 5.9915e-21)
(0.457307 0.0398697 -2.05998e-20)
(0.491243 0.0369553 -3.36185e-20)
(0.5232 0.0342253 -3.57737e-20)
(0.553301 0.0316692 1.37686e-20)
(0.581659 0.0292768 1.39395e-20)
(0.608382 0.0270387 -7.06491e-20)
(0.633572 0.024948 -6.96234e-21)
(0.65733 0.0229928 -1.70604e-19)
(0.679735 0.0211493 7.15739e-20)
(0.062211 0.0289044 -8.09745e-21)
(0.107195 0.0321083 3.71917e-20)
(0.155467 0.0327353 -2.18239e-20)
(0.204299 0.0318172 -6.89022e-20)
(0.25194 0.0301001 3.35196e-20)
(0.297531 0.0280551 -7.83753e-22)
(0.340731 0.0259423 -9.77912e-20)
(0.381486 0.0238843 5.96743e-20)
(0.419871 0.0219285 -4.04658e-20)
(0.456008 0.0200872 3.22691e-20)
(0.490031 0.0183596 -2.66793e-20)
(0.522069 0.0167406 1.41174e-20)
(0.552245 0.0152244 2.57598e-20)
(0.580673 0.0138053 -7.5937e-20)
(0.607463 0.0124783 7.19902e-21)
(0.632715 0.0112398 -3.43871e-21)
(0.656525 0.0100831 4.33228e-20)
(0.678987 0.00899202 9.72508e-22)
(0.0614274 0.00544639 5.58818e-21)
(0.106321 0.00546405 7.00333e-21)
(0.154571 0.00498679 -1.39434e-20)
(0.20342 0.00428961 2.68982e-20)
(0.2511 0.00353425 -1.06621e-20)
(0.296738 0.00279639 3.33926e-20)
(0.339989 0.0021011 3.07561e-20)
(0.380792 0.00145078 -3.8508e-20)
(0.419223 0.000841306 -1.42665e-20)
(0.455404 0.000268674 1.95417e-20)
(0.489468 -0.000269726 -1.37644e-20)
(0.521544 -0.000775502 -1.77158e-20)
(0.551756 -0.00124978 1.57328e-21)
(0.580218 -0.00169352 1.84236e-20)
(0.607039 -0.00210747 3.61475e-20)
(0.63232 -0.00249191 2.70927e-21)
(0.656155 -0.00284831 4.05162e-21)
(0.678641 -0.00318285 1.795e-20)
(0.0615264 -0.0180247 4.44688e-21)
(0.106438 -0.0211942 8.29403e-21)
(0.154695 -0.0227758 -7.02231e-21)
(0.203545 -0.0232515 2.54408e-20)
(0.251222 -0.0230444 -1.41525e-20)
(0.296854 -0.0224744 3.68611e-20)
(0.340098 -0.0217513 2.26756e-20)
(0.380895 -0.0209933 -3.05248e-20)
(0.41932 -0.0202558 -1.12202e-20)
(0.455495 -0.0195592 1.39811e-20)
(0.489554 -0.0189078 -1.16665e-20)
(0.521626 -0.0182998 -2.27942e-20)
(0.551834 -0.0177317 6.06194e-21)
(0.580293 -0.0171996 1.63953e-20)
(0.607111 -0.0167001 3.71326e-20)
(0.63239 -0.0162299 3.19472e-21)
(0.656223 -0.0157853 2.82856e-21)
(0.678707 -0.0153609 1.91378e-20)
(0.0625073 -0.0414633 3.02074e-20)
(0.107543 -0.047819 2.32576e-20)
(0.155839 -0.0505064 -1.88854e-20)
(0.204673 -0.0507631 -1.12709e-19)
(0.252305 -0.0495962 6.84679e-20)
(0.297878 -0.0477207 -1.13551e-20)
(0.341059 -0.0455815 -5.3513e-20)
(0.381794 -0.0434169 1.52863e-23)
(0.420161 -0.041334 -2.97213e-20)
(0.456282 -0.0393697 3.89147e-20)
(0.49029 -0.0375299 -3.91681e-20)
(0.522315 -0.0358093 3.31345e-20)
(0.552479 -0.0341998 1.25213e-20)
(0.580898 -0.032693 -6.03716e-20)
(0.607679 -0.031281 1.819e-20)
(0.632924 -0.0299572 -2.97585e-21)
(0.656726 -0.0287127 3.20561e-20)
(0.67918 -0.0275322 3.31002e-21)
(0.0643675 -0.0648241 -4.56698e-20)
(0.109636 -0.0743626 -7.13649e-20)
(0.158001 -0.0781588 8.21714e-20)
(0.206803 -0.0782022 1.26013e-19)
(0.254346 -0.0760815 -1.12903e-19)
(0.299807 -0.0729063 2.98535e-20)
(0.342869 -0.0693558 1.45387e-20)
(0.383488 -0.065789 7.28126e-20)
(0.421744 -0.0623645 -1.96994e-20)
(0.457761 -0.059136 -6.80832e-20)
(0.491674 -0.056111 1.39675e-20)
(0.523609 -0.0532808 -5.2571e-20)
(0.553691 -0.0506327 4.19986e-20)
(0.582033 -0.0481537 1.19583e-20)
(0.608742 -0.0458316 -9.40734e-20)
(0.63392 -0.0436563 5.61778e-21)
(0.657665 -0.0416137 -1.37815e-19)
(0.680058 -0.0396798 3.11016e-20)
(0.067102 -0.0880618 2.30734e-20)
(0.112709 -0.100778 3.12811e-20)
(0.161175 -0.105687 -5.7688e-20)
(0.209929 -0.105526 1.07821e-20)
(0.257343 -0.102461 1.88009e-19)
(0.302639 -0.0979947 1.92131e-20)
(0.345526 -0.0930407 3.90367e-20)
(0.385973 -0.0880785 5.38518e-21)
(0.424067 -0.0833187 6.55869e-20)
(0.459932 -0.0788315 -7.2898e-20)
(0.493703 -0.0746263 1.03487e-19)
(0.525508 -0.0706913 3.07206e-21)
(0.555467 -0.067009 -2.618e-20)
(0.583696 -0.0635618 2.00445e-19)
(0.610299 -0.0603332 1.56143e-19)
(0.635378 -0.0573098 -8.10948e-20)
(0.659037 -0.054472 1.07382e-19)
(0.68134 -0.0517874 -2.3686e-21)
(0.0707035 -0.111131 -1.62238e-19)
(0.116758 -0.127017 7.13777e-21)
(0.165355 -0.133046 -2.92418e-20)
(0.214045 -0.132691 -4.73713e-21)
(0.26129 -0.128695 -9.54134e-20)
(0.306368 -0.12295 -1.1065e-19)
(0.349025 -0.116603 -4.62239e-20)
(0.389246 -0.110255 -1.59262e-19)
(0.427126 -0.104168 1.78478e-19)
(0.462791 -0.0984297 3.66826e-20)
(0.496375 -0.0930514 -7.43523e-20)
(0.528006 -0.0880179 1.26922e-19)
(0.557805 -0.0833074 -5.52316e-20)
(0.585883 -0.0788973 -1.25522e-19)
(0.612346 -0.0747674 -2.95988e-20)
(0.637295 -0.0709005 -3.96435e-20)
(0.660841 -0.0672714 6.36812e-20)
(0.683025 -0.0638403 -4.60926e-21)
(0.0751629 -0.133988 1.02447e-20)
(0.121771 -0.153034 -2.52266e-20)
(0.170532 -0.160189 -7.10283e-20)
(0.219144 -0.159656 -3.29439e-20)
(0.266178 -0.154745 -5.90727e-20)
(0.310988 -0.147736 4.16106e-20)
(0.35336 -0.14001 2.46999e-19)
(0.393301 -0.132287 2.14982e-19)
(0.430915 -0.124884 1.35249e-19)
(0.466332 -0.117904 -5.04656e-20)
(0.499686 -0.111362 2.81417e-20)
(0.531102 -0.105238 -2.07634e-19)
(0.5607 -0.0995066 7.21653e-20)
(0.588593 -0.0941407 -5.7267e-20)
(0.614881 -0.0891158 -8.10285e-20)
(0.639669 -0.0844112 4.31844e-20)
(0.663074 -0.0799957 -3.68037e-19)
(0.685111 -0.0758234 1.33004e-19)
(0.127737 -0.178782 5.13834e-20)
(0.176695 -0.187072 -2.24373e-20)
(0.225215 -0.186379 -3.40989e-20)
(0.272001 -0.180572 -1.12454e-19)
(0.316491 -0.172317 -2.37235e-20)
(0.358523 -0.163228 -1.03763e-20)
(0.398132 -0.154145 -3.85101e-19)
(0.43543 -0.145438 -2.8129e-19)
(0.470551 -0.137229 1.64409e-19)
(0.503629 -0.129533 2.40305e-20)
(0.534789 -0.122329 6.18266e-20)
(0.564149 -0.115586 -5.92495e-20)
(0.591819 -0.109272 3.02327e-19)
(0.6179 -0.10336 5.9191e-20)
(0.642495 -0.0978251 8.82335e-20)
(0.665732 -0.092629 2.0713e-19)
(0.687594 -0.087722 -1.10735e-19)
(0.134643 -0.204214 6.64318e-20)
(0.183832 -0.213651 5.95215e-20)
(0.232248 -0.212817 -9.12799e-20)
(0.278746 -0.206137 1.57493e-19)
(0.322867 -0.196659 2.2361e-20)
(0.364506 -0.186225 -2.85842e-19)
(0.40373 -0.175799 1.79905e-19)
(0.440662 -0.165804 7.18469e-20)
(0.47544 -0.156378 -8.3459e-20)
(0.508199 -0.147541 2.24444e-20)
(0.539061 -0.139268 1.04351e-20)
(0.568145 -0.131524 -8.55497e-20)
(0.595558 -0.124273 2.17678e-19)
(0.621398 -0.117483 -7.6566e-20)
(0.64577 -0.111125 5.5351e-20)
(0.668812 -0.105156 1.18022e-19)
(0.69047 -0.0995212 -4.37132e-20)
(0.142472 -0.229286 -9.08055e-20)
(0.191927 -0.23988 -3.27357e-19)
(0.240227 -0.23893 2.20546e-19)
(0.286402 -0.231403 1.05926e-19)
(0.330105 -0.220725 1.8176e-19)
(0.3713 -0.208969 1.95959e-19)
(0.410085 -0.19722 1.24526e-19)
(0.446602 -0.185953 1.64155e-19)
(0.480992 -0.175327 -2.95589e-19)
(0.513388 -0.165363 3.29304e-20)
(0.543913 -0.156034 6.44164e-20)
(0.572683 -0.147301 3.32012e-19)
(0.599804 -0.139124 -1.8071e-19)
(0.62537 -0.131466 -4.54642e-20)
(0.649488 -0.124295 -1.04768e-19)
(0.672309 -0.11756 -6.83066e-20)
(0.693737 -0.111206 1.77849e-19)
(0.151207 -0.253954 2.36309e-21)
(0.200963 -0.265717 -3.6446e-20)
(0.249139 -0.264677 1.42821e-19)
(0.294955 -0.256333 -3.08431e-19)
(0.338192 -0.244482 -1.76009e-20)
(0.378891 -0.231428 -2.74826e-19)
(0.417189 -0.218377 1.55554e-19)
(0.453241 -0.205858 -2.49713e-19)
(0.487197 -0.194049 2.40561e-19)
(0.519188 -0.182974 2.13879e-19)
(0.549336 -0.172605 -1.74747e-19)
(0.577756 -0.162897 -6.0494e-19)
(0.60455 -0.153805 3.2312e-19)
(0.62981 -0.145291 -2.59851e-19)
(0.653644 -0.137319 -5.67949e-20)
(0.676218 -0.129826 2.10472e-19)
(0.697389 -0.122763 -1.72345e-19)
(0.160826 -0.278172 -1.37093e-19)
(0.210921 -0.291119 1.72883e-19)
(0.258965 -0.290017 -3.29329e-19)
(0.304388 -0.280888 6.08638e-20)
(0.347115 -0.267897 -6.68186e-21)
(0.387268 -0.253572 3.77886e-19)
(0.425028 -0.239242 -2.34909e-19)
(0.460569 -0.225492 -4.98472e-20)
(0.494045 -0.21252 6.50995e-20)
(0.525589 -0.200353 -8.20249e-20)
(0.555322 -0.188959 3.17866e-19)
(0.583355 -0.178291 1.75861e-19)
(0.60979 -0.1683 -3.5369e-19)
(0.634712 -0.158943 1.91651e-19)
(0.658232 -0.15018 2.6371e-19)
(0.680533 -0.14194 -4.81913e-19)
(0.701421 -0.134178 1.68589e-21)
(0.171309 -0.301899 1.35488e-19)
(0.22178 -0.316045 1.8752e-19)
(0.269686 -0.314913 1.07316e-19)
(0.314686 -0.305034 4.36718e-19)
(0.356858 -0.290935 -5.53133e-20)
(0.396417 -0.275369 1.78249e-19)
(0.43359 -0.259787 -6.22146e-19)
(0.468573 -0.244831 3.54847e-19)
(0.501526 -0.230716 -2.18628e-19)
(0.532583 -0.217476 6.4056e-20)
(0.561862 -0.205076 -3.44287e-19)
(0.589472 -0.193465 -2.73204e-20)
(0.615514 -0.182589 2.77753e-19)
(0.640068 -0.172403 4.65351e-20)
(0.663245 -0.162862 -1.3502e-20)
(0.685248 -0.153886 2.28318e-20)
(0.705828 -0.145436 -3.0781e-19)
(0.182629 -0.325091 -1.88844e-19)
(0.233518 -0.340452 1.55443e-20)
(0.281282 -0.339324 1.68828e-19)
(0.325829 -0.328735 -3.79934e-19)
(0.367404 -0.313565 4.00339e-20)
(0.406321 -0.29679 -4.4621e-19)
(0.44286 -0.279985 4.93505e-19)
(0.47724 -0.263847 -1.29403e-19)
(0.509627 -0.248614 -1.46533e-19)
(0.540156 -0.234322 4.20239e-21)
(0.568944 -0.220935 1.68011e-21)
(0.596098 -0.208398 2.59606e-19)
(0.621714 -0.196655 -3.79327e-20)
(0.645869 -0.185655 -3.29565e-19)
(0.668676 -0.175351 -4.08445e-19)
(0.690355 -0.16565 4.75608e-19)
(0.710604 -0.156524 2.99656e-19)
(0.194761 -0.347709 2.19106e-19)
(0.246108 -0.364301 -3.38468e-19)
(0.29373 -0.363214 -3.21164e-19)
(0.337797 -0.351956 1.28388e-19)
(0.378734 -0.335754 -5.36476e-19)
(0.416964 -0.317806 5.38434e-19)
(0.452824 -0.299808 -2.34735e-19)
(0.486555 -0.282516 -2.36872e-19)
(0.518335 -0.266189 2.10351e-20)
(0.548298 -0.250869 -6.28401e-22)
(0.576559 -0.236516 -2.97735e-20)
(0.603222 -0.223074 1.99899e-19)
(0.628381 -0.21048 -1.89889e-19)
(0.652108 -0.198684 9.78791e-20)
(0.674516 -0.187631 2.12126e-19)
(0.695847 -0.177218 -2.65923e-19)
(0.715742 -0.167429 -5.45583e-20)
(0.207676 -0.369711 -3.13355e-20)
(0.259525 -0.387552 2.39017e-19)
(0.307005 -0.386546 2.14489e-19)
(0.350568 -0.374663 -3.37379e-19)
(0.39083 -0.357471 1.81752e-19)
(0.428329 -0.338388 -1.39854e-19)
(0.463464 -0.319231 -9.65025e-21)
(0.496505 -0.300814 3.54215e-20)
(0.527637 -0.28342 -8.45915e-20)
(0.556996 -0.267096 1.6807e-19)
(0.584694 -0.251801 -9.13452e-20)
(0.610834 -0.237473 -2.71483e-19)
(0.635505 -0.224049 3.86572e-19)
(0.658776 -0.211472 2.39986e-19)
(0.680758 -0.199688 -3.07675e-19)
(0.701717 -0.188577 1.78475e-19)
(0.721235 -0.178137 2.60482e-19)
(0.273739 -0.410168 4.61697e-20)
(0.321082 -0.409283 1.70422e-19)
(0.364119 -0.396823 3.37542e-19)
(0.403669 -0.378687 2.54286e-19)
(0.440396 -0.358508 4.90386e-19)
(0.474764 -0.338227 -4.47407e-20)