/*--------------------------------*- C++ -*----------------------------------*\
  =========                 |
  \\      /  F ield         | OpenFOAM: The Open Source CFD Toolbox
   \\    /   O peration     | Website:  https://openfoam.org
    \\  /    A nd           | Version:  7
     \\/     M anipulation  |
\*---------------------------------------------------------------------------*/
FoamFile
{
    version     2.0;
    format      ascii;
    class       surfaceScalarField;
    location    "95";
    object      phi;
}
// * * * * * * * * * * * * * * * * * * * * * * * * * * * * * * * * * * * * * //

dimensions      [0 3 -1 0 0 0 0];

internalField   nonuniform List<scalar> 
16730
(
-0.00363732
-0.000600394
-0.00057811
-0.00348777
-0.00358584
-0.000629599
-0.000553138
-0.00334551
-0.00060524
-0.00343566
-0.00353275
-0.000658329
-0.0005265
-0.00321231
-0.000578241
-0.00329377
-0.000631863
-0.00338204
-0.00347804
-0.000686568
-0.000549825
-0.00316117
-0.000602855
-0.00324074
-0.000657967
-0.00332693
-0.00342173
-0.000714283
-0.000520379
-0.00303635
-0.000572722
-0.00310883
-0.000626986
-0.00318648
-0.000683545
-0.00327037
-0.0033638
-0.000741474
-0.000489724
-0.00291779
-0.000541679
-0.00298439
-0.000595201
-0.00305531
-0.00065065
-0.00313103
-0.00070861
-0.00321241
-0.00330419
-0.000768213
-0.000509429
-0.00286603
-0.000562588
-0.00293124
-0.000617279
-0.00300062
-0.000673881
-0.00307443
-0.000733165
-0.00315313
-0.0032429
-0.00079446
-0.000475783
-0.0027531
-0.000528741
-0.00281308
-0.000583101
-0.00287688
-0.000638981
-0.00294474
-0.000696751
-0.00301666
-0.000757128
-0.00309275
-0.00317991
-0.000820119
-0.000493508
-0.00270031
-0.000547649
-0.00275893
-0.000603208
-0.00282132
-0.000660313
-0.00288763
-0.000719312
-0.00295766
-0.000781
-0.00303106
-0.00311662
-0.000844292
-0.000456892
-0.00259261
-0.000510832
-0.00264637
-0.000566134
-0.00270363
-0.000622883
-0.00276457
-0.000681236
-0.00282928
-0.000741276
-0.00289762
-0.00080209
-0.00297025
-0.00305007
-0.000868635
-0.000418944
-0.00248959
-0.000472698
-0.00253886
-0.000527758
-0.00259131
-0.000584195
-0.0026472
-0.000642107
-0.00270666
-0.000701633
-0.00276975
-0.000762797
-0.00283645
-0.000825574
-0.00290747
-0.00298321
-0.000892432
-0.000433282
-0.00243601
-0.000488122
-0.00248402
-0.000544276
-0.00253515
-0.00060182
-0.00258965
-0.000660855
-0.00264762
-0.000721501
-0.00270911
-0.000783814
-0.00277414
-0.000848034
-0.00284325
-0.00291595
-0.000915301
-0.000392628
-0.00233718
-0.000447261
-0.00238138
-0.00050316
-0.00242812
-0.000560382
-0.00247793
-0.000619005
-0.00253103
-0.000679127
-0.0025875
-0.000740857
-0.00264738
-0.000804283
-0.00271072
-0.000869665
-0.00277787
-0.00284805
-0.000937563
-0.000405213
-0.00228277
-0.000460877
-0.00232572
-0.00051781
-0.00237119
-0.000576073
-0.00241967
-0.000635745
-0.00247135
-0.000696922
-0.00252632
-0.000759705
-0.00258459
-0.000824193
-0.00264623
-0.000890606
-0.00271145
-0.00277942
-0.000959231
-0.000417459
-0.00222734
-0.000474129
-0.00226905
-0.000532071
-0.00231325
-0.000591347
-0.00236039
-0.00065204
-0.00241066
-0.00071424
-0.00246412
-0.000778044
-0.00252079
-0.000843552
-0.00258072
-0.000910934
-0.00264407
-0.00271001
-0.000980345
-0.000372961
-0.00213185
-0.000429366
-0.00217094
-0.000487015
-0.0022114
-0.00054594
-0.00225432
-0.000606204
-0.00230013
-0.000667888
-0.00234898
-0.000731082
-0.00240093
-0.000795878
-0.00245599
-0.000862369
-0.00251423
-0.00093069
-0.00257575
-0.00263977
-0.00100093
-0.000383569
-0.00207576
-0.000440931
-0.00211358
-0.000499535
-0.00215279
-0.000559416
-0.00219444
-0.00062064
-0.0022389
-0.00068329
-0.00228633
-0.00074745
-0.00233677
-0.000813209
-0.00239023
-0.000880656
-0.00244678
-0.000949898
-0.00250651
-0.00256867
-0.001021
-0.000336836
-0.00198137
-0.000393862
-0.00201874
-0.000452155
-0.00205528
-0.000511687
-0.00209326
-0.000572498
-0.00213363
-0.000634657
-0.00217675
-0.000698244
-0.00222274
-0.000763344
-0.00227167
-0.000830041
-0.00232354
-0.000898419
-0.0023784
-0.000968571
-0.00243636
-0.0024967
-0.00104054
-0.000345898
-0.00192484
-0.000403839
-0.0019608
-0.000463036
-0.00199609
-0.000523471
-0.00203283
-0.000585186
-0.00207191
-0.000648252
-0.00211368
-0.000712751
-0.00215824
-0.000778765
-0.00220565
-0.000846376
-0.00225593
-0.000915664
-0.00230912
-0.000986713
-0.00236531
-0.00242385
-0.00105957
-0.000297221
-0.00182808
-0.000354671
-0.00186739
-0.000413499
-0.00190197
-0.000473574
-0.00193601
-0.000534884
-0.00197152
-0.000597478
-0.00200932
-0.000661426
-0.00204973
-0.00072681
-0.00209286
-0.000793712
-0.00213875
-0.000862214
-0.00218742
-0.000932392
-0.00223894
-0.00100433
-0.00229337
-0.00235011
-0.00107806
-0.000304824
-0.00177143
-0.000363154
-0.00180906
-0.000422842
-0.00184228
-0.000483768
-0.00187509
-0.000545928
-0.00190936
-0.000609373
-0.00194588
-0.000674177
-0.00198493
-0.000740421
-0.00202662
-0.000808187
-0.00207098
-0.000877556
-0.00211806
-0.000948603
-0.00216789
-0.00102141
-0.00222057
-0.0022755
-0.00109602
-0.000312166
-0.0017139
-0.000371348
-0.00174987
-0.000431867
-0.00178176
-0.000493617
-0.00181334
-0.0005566
-0.00184637
-0.000620871
-0.0018816
-0.000686504
-0.00191929
-0.000753582
-0.00195954
-0.000822187
-0.00200238
-0.0008924
-0.00204784
-0.000964296
-0.00209599
-0.00103796
-0.0021469
-0.00220002
-0.00111344
-0.000260852
-0.00161063
-0.000319248
-0.0016555
-0.000379252
-0.00168987
-0.000440574
-0.00172044
-0.000503121
-0.00175079
-0.000566901
-0.00178259
-0.00063197
-0.00181653
-0.000698407
-0.00185286
-0.000766293
-0.00189165
-0.000835713
-0.00193296
-0.000906745
-0.00197681
-0.000979469
-0.00202327
-0.00105397
-0.00207241
-0.00212369
-0.0011303
-0.000266849
-0.00155356
-0.000326069
-0.00159628
-0.000386865
-0.00162907
-0.000448963
-0.00165834
-0.000512279
-0.00168747
-0.000576828
-0.00171805
-0.000642671
-0.00175069
-0.000709884
-0.00178564
-0.000778553
-0.00182298
-0.000848761
-0.00186275
-0.00092059
-0.00190498
-0.000994119
-0.00194974
-0.00106943
-0.00199709
-0.00204653
-0.00114659
-0.000272616
-0.00149565
-0.000332629
-0.00153627
-0.000394187
-0.00156752
-0.000457033
-0.00159549
-0.000521091
-0.00162341
-0.000586383
-0.00165275
-0.00065297
-0.0016841
-0.000720935
-0.00171768
-0.000790359
-0.00175356
-0.00086133
-0.00179178
-0.00093393
-0.00183238
-0.00100824
-0.00187543
-0.00108435
-0.00192098
-0.00196856
-0.00116232
-0.000219433
-0.00137993
-0.000278153
-0.00143693
-0.000338928
-0.00147549
-0.000401218
-0.00150523
-0.000464783
-0.00153193
-0.000529556
-0.00155864
-0.000595562
-0.00158675
-0.000662869
-0.0016168
-0.000731556
-0.00164899
-0.000801711
-0.0016834
-0.000873418
-0.00172007
-0.000946764
-0.00175904
-0.00102183
-0.00180036
-0.00109871
-0.0018441
-0.0018898
-0.00117747
-0.000223968
-0.0013234
-0.00028346
-0.00137744
-0.000344964
-0.00141399
-0.000407958
-0.00144223
-0.000472213
-0.00146767
-0.000537672
-0.00149318
-0.000604367
-0.00152005
-0.000672364
-0.0015488
-0.000741748
-0.00157961
-0.000812605
-0.00161255
-0.000885023
-0.00164766
-0.000959089
-0.00168497
-0.00103489
-0.00172456
-0.00111251
-0.00176648
-0.00181027
-0.00119204
-0.000228307
-0.00126607
-0.000288537
-0.00131721
-0.000350739
-0.00135179
-0.000414406
-0.00137856
-0.000479323
-0.00140276
-0.00054544
-0.00142706
-0.000612794
-0.0014527
-0.000681456
-0.00148014
-0.000751508
-0.00150955
-0.000823041
-0.00154101
-0.000896142
-0.00157456
-0.000970901
-0.00161021
-0.00104741
-0.00164806
-0.00112575
-0.00168813
-0.00173002
-0.00120601
-0.000232449
-0.001208
-0.000293384
-0.00125627
-0.000356251
-0.00128892
-0.000420561
-0.00131425
-0.000486111
-0.00133721
-0.000552859
-0.00136032
-0.000620845
-0.00138471
-0.000690142
-0.00141084
-0.000760835
-0.00143886
-0.000833015
-0.00146883
-0.000906772
-0.0015008
-0.000982196
-0.00153479
-0.00105938
-0.00157088
-0.00113842
-0.00160909
-0.00164905
-0.00121938
-0.000177598
-0.00107733
-0.000236395
-0.0011492
-0.000297999
-0.00119467
-0.0003615
-0.00122542
-0.000426424
-0.00124933
-0.000492578
-0.00127105
-0.000559928
-0.00129297
-0.000628517
-0.00131612
-0.000698421
-0.00134094
-0.000769728
-0.00136756
-0.000842527
-0.00139604
-0.000916911
-0.00142641
-0.000992973
-0.00145873
-0.0010708
-0.00149305
-0.0011505
-0.00152939
-0.00156741
-0.00123215
-0.000180665
-0.0010221
-0.000240144
-0.00108972
-0.000302383
-0.00113243
-0.000366487
-0.00116131
-0.000431994
-0.00118382
-0.000498722
-0.00120433
-0.000566645
-0.00122504
-0.00063581
-0.00124696
-0.000706293
-0.00127045
-0.000778183
-0.00129566
-0.000851574
-0.00132264
-0.000926557
-0.00135143
-0.00100323
-0.00138206
-0.00108168
-0.00141459
-0.00116201
-0.00144906
-0.00148511
-0.00124431
-0.000183571
-0.00096618
-0.000243695
-0.0010296
-0.000306536
-0.00106959
-0.00037121
-0.00109664
-0.00043727
-0.00111776
-0.000504544
-0.00113705
-0.000573012
-0.00115658
-0.000642722
-0.00117725
-0.000713755
-0.00119942
-0.000786201
-0.00122322
-0.000860153
-0.00124869
-0.000935706
-0.00127588
-0.00101296
-0.00130481
-0.001092
-0.00133555
-0.00117294
-0.00136812
-0.0014022
-0.00125585
-0.000186317
-0.000909608
-0.000247048
-0.000968864
-0.000310457
-0.00100618
-0.00037567
-0.00103143
-0.000442253
-0.00105118
-0.000510043
-0.00106926
-0.000579025
-0.00108759
-0.000649253
-0.00110702
-0.000720807
-0.00112787
-0.000793779
-0.00115025
-0.000868263
-0.00117421
-0.000944356
-0.00119978
-0.00102215
-0.00122701
-0.00110176
-0.00125595
-0.00118327
-0.00128661
-0.00131869
-0.00126677
-0.0001889
-0.000852423
-0.000250204
-0.00090756
-0.000314146
-0.000942239
-0.000379866
-0.000965707
-0.000446941
-0.000984106
-0.000515218
-0.00100098
-0.000584685
-0.00101813
-0.000655401
-0.00103631
-0.000727446
-0.00105582
-0.000800915
-0.00107678
-0.000875902
-0.00109922
-0.000952505
-0.00112318
-0.00103082
-0.00114869
-0.00111096
-0.00117581
-0.00119301
-0.00120456
-0.00123464
-0.00127707
-0.000133563
-0.000713263
-0.000191322
-0.000794664
-0.00025316
-0.000845722
-0.000317602
-0.000877797
-0.000383798
-0.000899511
-0.000451335
-0.000916568
-0.000520068
-0.000932251
-0.000589992
-0.000948203
-0.000661165
-0.000965134
-0.000733673
-0.000983315
-0.000807608
-0.00100284
-0.000883068
-0.00102376
-0.000960151
-0.0010461
-0.00103896
-0.00106988
-0.00111959
-0.00109518
-0.00120215
-0.00112199
-0.00115006
-0.00128673
-0.000135288
-0.00066128
-0.000193581
-0.000736371
-0.000255918
-0.000783385
-0.000320826
-0.000812889
-0.000387465
-0.000832872
-0.000455434
-0.000848599
-0.000524594
-0.000863091
-0.000594944
-0.000877852
-0.000666545
-0.000893532
-0.000739485
-0.000910375
-0.000813857
-0.000928471
-0.000889759
-0.000947859
-0.000967291
-0.000968566
-0.00104655
-0.000990621
-0.00112765
-0.00101408
-0.00121069
-0.00103895
-0.00106499
-0.00129576
-0.00013689
-0.000608782
-0.000195678
-0.000677582
-0.000258477
-0.000720587
-0.000323817
-0.000747549
-0.000390868
-0.000765821
-0.000459237
-0.00078023
-0.000528794
-0.000793535
-0.00059954
-0.000807106
-0.00067154
-0.000821532
-0.000744881
-0.000837034
-0.000819659
-0.000853693
-0.000895973
-0.000871545
-0.000973923
-0.000890616
-0.00105361
-0.000910933
-0.00113514
-0.00093255
-0.00121863
-0.000955465
-0.00097946
-0.00130416
-0.000138367
-0.000555808
-0.000197612
-0.000618338
-0.000260837
-0.000657362
-0.000326575
-0.000681811
-0.000394006
-0.00069839
-0.000462745
-0.00071149
-0.000532668
-0.000723613
-0.00060378
-0.000735994
-0.000676148
-0.000749164
-0.000749861
-0.000763321
-0.000825014
-0.00077854
-0.000901708
-0.000794851
-0.000980045
-0.000812279
-0.00106013
-0.000830851
-0.00114206
-0.000850615
-0.00122596
-0.000871568
-0.000893513
-0.00131191
-0.000139721
-0.000502398
-0.000199383
-0.000558675
-0.000262997
-0.000593749
-0.0003291
-0.000615708
-0.000396879
-0.000630611
-0.000465957
-0.000642412
-0.000536215
-0.000653354
-0.000607664
-0.000664545
-0.00068037
-0.000676458
-0.000754423
-0.000689268
-0.000829921
-0.000703042
-0.000906964
-0.000717808
-0.000985655
-0.000733588
-0.0010661
-0.000750407
-0.0011484
-0.00076831
-0.00123268
-0.000787294
-0.000807178
-0.00131901
-0.000140949
-0.000448593
-0.00020099
-0.000498635
-0.000264957
-0.000529781
-0.000331391
-0.000549274
-0.000399486
-0.000562517
-0.000468873
-0.000573025
-0.000539436
-0.000582791
-0.00061119
-0.000592792
-0.000684203
-0.000603444
-0.000758566
-0.000614905
-0.000834378
-0.00062723
-0.000911739
-0.000640447
-0.000990753
-0.000654574
-0.00107152
-0.000669635
-0.00115417
-0.00068567
-0.00123878
-0.000702675
-0.000720491
-0.00132547
-0.000142052
-0.000394434
-0.000202433
-0.000438254
-0.000266717
-0.000465497
-0.000333449
-0.000482542
-0.000401828
-0.000494138
-0.000471491
-0.000503361
-0.00054233
-0.000511953
-0.000614358
-0.000520763
-0.000687647
-0.000530155
-0.00076229
-0.000540263
-0.000838383
-0.000551137
-0.00091603
-0.0005628
-0.000995335
-0.000575269
-0.0010764
-0.000588566
-0.00115935
-0.000602727
-0.00124427
-0.000617747
-0.000633487
-0.00133128
-0.00014303
-0.000339961
-0.000203711
-0.000377572
-0.000268277
-0.000400931
-0.000335273
-0.000415547
-0.000403904
-0.000425506
-0.000473813
-0.000433452
-0.000544895
-0.000440871
-0.000617168
-0.000448491
-0.000690703
-0.00045662
-0.000765593
-0.000465373
-0.000841937
-0.000474792
-0.000919838
-0.000484899
-0.000999401
-0.000495707
-0.00108073
-0.000507235
-0.00116394
-0.000519516
-0.00124915
-0.000532544
-0.000546201
-0.00133643
-0.000143881
-0.000285215
-0.000204826
-0.000316628
-0.000269637
-0.00033612
-0.000336863
-0.000348322
-0.000405714
-0.000356655
-0.000475838
-0.000363327
-0.000547133
-0.000369576
-0.000619619
-0.000376005
-0.000693368
-0.00038287
-0.000768475
-0.000390266
-0.000845038
-0.000398229
-0.000923161
-0.000406775
-0.00100295
-0.000415918
-0.00108451
-0.000425674
-0.00116796
-0.00043607
-0.0012534
-0.000447101
-0.000458668
-0.00134093
-8.96275e-05
-0.000191004
-0.000144608
-0.000230235
-0.000205776
-0.000255459
-0.000270796
-0.000271099
-0.000338218
-0.000280899
-0.000407258
-0.000287616
-0.000477566
-0.000293019
-0.000549043
-0.000298099
-0.000621711
-0.000303337
-0.000695644
-0.000308937
-0.000770935
-0.000314975
-0.000847686
-0.000321479
-0.000925999
-0.000328462
-0.00100598
-0.000335937
-0.00108774
-0.000343916
-0.00117138
-0.000352423
-0.00125703
-0.000361453
-0.000370924
-0.00134478
-9.00347e-05
-0.00014538
-0.000145208
-0.000175061
-0.000206561
-0.000194106
-0.000271755
-0.000205905
-0.00033934
-0.000213315
-0.000408535
-0.000218421
-0.000478996
-0.000222559
-0.000550624
-0.000226471
-0.000623443
-0.000230518
-0.000697528
-0.000234852
-0.000772973
-0.00023953
-0.000849879
-0.000244573
-0.000928349
-0.000249992
-0.00100849
-0.000255796
-0.00109041
-0.000261996
-0.00117422
-0.00026861
-0.00126004
-0.000275634
-0.000283004
-0.00134796
-9.03561e-05
-9.96081e-05
-0.000145682
-0.000119736
-0.000207182
-0.000132605
-0.000272513
-0.000140574
-0.000340227
-0.000145601
-0.000409546
-0.000149102
-0.000480128
-0.000151977
-0.000551876
-0.000154723
-0.000624815
-0.000157579
-0.000699021
-0.000160646
-0.000774588
-0.000163963
-0.000851617
-0.000167543
-0.000930213
-0.000171396
-0.00101048
-0.000175528
-0.00109253
-0.000179946
-0.00117648
-0.000184664
-0.00126243
-0.00018968
-0.000194942
-0.00135049
-9.05917e-05
-5.37285e-05
-0.00014603
-6.42977e-05
-0.000207638
-7.09969e-05
-0.000273071
-7.51416e-05
-0.000340881
-7.7791e-05
-0.000410291
-7.96918e-05
-0.000480962
-8.13064e-05
-0.000552799
-8.28861e-05
-0.000625827
-8.45507e-05
-0.000700123
-8.63505e-05
-0.00077578
-8.83052e-05
-0.000852901
-9.04229e-05
-0.000931589
-9.27085e-05
-0.00101195
-9.51663e-05
-0.0010941
-9.78012e-05
-0.00117814
-0.000100622
-0.00126419
-0.000103628
-0.000106777
-0.00135236
-9.07413e-05
-7.78002e-06
-0.000146251
-8.78761e-06
-0.00020793
-9.31874e-06
-0.000273428
-9.6434e-06
-0.000341299
-9.91953e-06
-0.000410769
-1.0222e-05
-0.000481498
-1.05773e-05
-0.000553393
-1.09915e-05
-0.000626479
-1.14646e-05
-0.000700833
-1.19967e-05
-0.000776549
-1.25891e-05
-0.000853729
-1.32431e-05
-0.000932477
-1.39606e-05
-0.0010129
-1.47438e-05
-0.00109511
-1.5595e-05
-0.00117921
-1.65186e-05
-0.00126532
-1.75144e-05
-1.85737e-05
-0.00135353
-9.08049e-05
3.81983e-05
-0.000146347
4.67542e-05
-0.000208056
5.23905e-05
-0.000273584
5.58845e-05
-0.000341483
5.79802e-05
-0.000410981
5.92752e-05
-0.000481736
6.01785e-05
-0.000553658
6.09298e-05
-0.00062677
6.16482e-05
-0.000701151
6.23838e-05
-0.000776894
6.3154e-05
-0.000854101
6.39639e-05
-0.000932876
6.48146e-05
-0.00101333
6.57064e-05
-0.00109556
6.66391e-05
-0.00117969
6.76132e-05
-0.00126583
6.8627e-05
6.96674e-05
-0.00135407
-9.07825e-05
8.41673e-05
-0.000146316
0.000102287
-0.000208017
0.000114092
-0.000273539
0.000121406
-0.000341433
0.000125875
-0.000410926
0.000128767
-0.000481677
0.00013093
-0.000553594
0.000132846
-0.000626702
0.000134756
-0.000701078
0.00013676
-0.000776816
0.000138892
-0.000854018
0.000141166
-0.000932788
0.000143585
-0.00101323
0.000146151
-0.00109546
0.000148868
-0.00117959
0.00015174
-0.00126572
0.000154763
0.000157909
-0.00135397
-9.06739e-05
0.000130088
-0.000146158
0.000157771
-0.000207814
0.000175748
-0.000273294
0.000186886
-0.000341149
0.00019373
-0.000410604
0.000198223
-0.000481319
0.000201645
-0.0005532
0.000204727
-0.000626273
0.000207829
-0.000700612
0.000211099
-0.000776314
0.000214594
-0.000853479
0.000218331
-0.000932211
0.000222317
-0.00101262
0.000226557
-0.00109481
0.000231057
-0.00117889
0.000235826
-0.00126499
0.000240859
0.000246109
-0.00135319
-9.04792e-05
0.000175921
-0.000145874
0.000213166
-0.000207446
0.00023732
-0.000272847
0.000252287
-0.00034063
0.000261513
-0.000410016
0.000267609
-0.000480664
0.000272293
-0.000552478
0.000276542
-0.000625483
0.000280834
-0.000699755
0.000285371
-0.000775389
0.000290227
-0.000852485
0.000295426
-0.000931147
0.000300979
-0.00101148
0.000306892
-0.0010936
0.000313173
-0.00117761
0.000319837
-0.00126363
0.000326878
0.00033423
-0.00135175
-9.01984e-05
0.000221626
-0.000145464
0.000268431
-0.000206912
0.000298768
-0.0002722
0.000317575
-0.000339876
0.000329189
-0.000409161
0.000336894
-0.00047971
0.000342842
-0.000551427
0.000348258
-0.000624334
0.000353741
-0.000698507
0.000359545
-0.000774041
0.000365761
-0.000851035
0.000372421
-0.000929595
0.000379539
-0.00100982
0.000387122
-0.00109183
0.000395183
-0.00117574
0.000403739
-0.00126164
0.000412785
0.000422236
-0.00134965
-8.98315e-05
0.000267166
-0.000144927
0.000323527
-0.000206214
0.000360055
-0.000271352
0.000382713
-0.000338889
0.000396726
-0.00040804
0.000406045
-0.000478459
0.000413261
-0.000550046
0.000419845
-0.000622824
0.000426519
-0.000696868
0.000433588
-0.00077227
0.000441163
-0.000849131
0.000449282
-0.000927555
0.000457963
-0.00100765
0.000467215
-0.00108952
0.000477052
-0.00117328
0.000487498
-0.00125904
0.000498545
0.000510092
-0.00134689
-8.93787e-05
-0.000144263
0.000378411
-0.000205351
0.000421142
-0.000270303
0.000447665
-0.000337666
0.00046409
-0.000406653
0.000475031
-0.00047691
0.000483518
-0.000548337
0.000491272
-0.000620955
0.000499137
-0.000694837
0.00050747
-0.000770076
0.000516402
-0.000846773
0.000525979
-0.00092503
0.00053622
-0.00100495
0.000547137
-0.00108665
0.000558748
-0.00117023
0.000571079
-0.00125581
0.000584124
0.00059776
-0.00134347
-0.000143474
0.000433045
-0.000204323
0.000481991
-0.000269054
0.000512396
-0.00033621
0.000531246
-0.000404999
0.00054382
-0.000475064
0.000553584
-0.0005463
0.000562508
-0.000618727
0.000571564
-0.000692416
0.000581159
-0.000767461
0.000591447
-0.000843961
0.000602479
-0.000922018
0.000614277
-0.00100174
0.000626857
-0.00108323
0.000640236
-0.0011666
0.000654448
-0.00125196
0.000669485
0.000685205
-0.0013394
-0.000142559
0.000487388
-0.00020313
0.000542562
-0.000267604
0.00057687
-0.00033452
0.000598162
-0.000403079
0.000612379
-0.00047292
0.000623425
-0.000543935
0.000633523
-0.000616139
0.000643768
-0.000689605
0.000654626
-0.000764425
0.000666266
-0.000840696
0.00067875
-0.000918522
0.000692103
-0.000998006
0.000706341
-0.00107925
0.000721485
-0.00116238
0.000737572
-0.00124749
0.000754594
0.000772391
-0.00133467
-0.000141518
0.000541399
-0.000201774
0.000602818
-0.000265954
0.00064105
-0.000332595
0.000664804
-0.000400893
0.000680677
-0.000470479
0.000693011
-0.000541241
0.000704285
-0.000613193
0.00071572
-0.000686405
0.000727837
-0.000760968
0.000740829
-0.000836979
0.000754762
-0.000914542
0.000769665
-0.000993758
0.000785557
-0.00107473
0.00080246
-0.00115758
0.000820416
-0.0012424
0.000839418
0.000859284
-0.00132929
-0.000140352
0.000595038
-0.000200253
0.000662718
-0.000264103
0.0007049
-0.000330437
0.000731137
-0.000398441
0.000748681
-0.000467742
0.000762312
-0.000538221
0.000774764
-0.000609889
0.000787389
-0.000682816
0.000800764
-0.000757091
0.000815104
-0.000832812
0.000830482
-0.000910079
0.000846932
-0.000988995
0.000864473
-0.00106966
0.00088313
-0.0011522
0.000902948
-0.0012367
0.000923921
0.000945848
-0.00132326
-0.000139061
0.000648264
-0.000198568
0.000722226
-0.000262053
0.000768385
-0.000328045
0.00079713
-0.000395724
0.000816361
-0.000464708
0.000831296
-0.000534873
0.000844929
-0.000606228
0.000858744
-0.000678839
0.000873375
-0.000752796
0.00088906
-0.000828194
0.000905881
-0.000905134
0.000923872
-0.000983718
0.000943057
-0.00106405
0.000963461
-0.00114624
0.000985134
-0.00123038
0.00100807
0.00103205
-0.00131658
-0.000137645
0.000701038
-0.00019672
0.000781301
-0.000259803
0.000831468
-0.00032542
0.000862747
-0.000392742
0.000883682
-0.000461378
0.000899932
-0.000531199
0.00091475
-0.00060221
0.000929754
-0.000674475
0.00094564
-0.000748082
0.000962667
-0.000823128
0.000980926
-0.00089971
0.00100045
-0.00097793
0.00102128
-0.00105789
0.00104342
-0.0011397
0.00106694
-0.00122346
0.00109183
0.00111785
-0.00130926
-0.000136105
0.000753318
-0.000194708
0.000839904
-0.000257353
0.000894112
-0.000322562
0.000927955
-0.000389494
0.000950615
-0.000457752
0.00096819
-0.000527199
0.000984196
-0.000597835
0.00100039
-0.000669724
0.00101753
-0.000742952
0.0010359
-0.000817613
0.00105559
-0.000893807
0.00107665
-0.000971633
0.0010991
-0.00105119
0.00112298
-0.00113259
0.00114834
-0.00121593
0.00117517
0.00120322
-0.0013013
-0.00013444
0.000805065
-0.000192534
0.000897998
-0.000254704
0.000956283
-0.00031947
0.000992721
-0.000385982
0.00101713
-0.00045383
0.00103604
-0.000522873
0.00105324
-0.000593105
0.00107062
-0.000664587
0.00108901
-0.000737406
0.00110871
-0.000811653
0.00112984
-0.000887427
0.00115242
-0.000964827
0.0011765
-0.00104395
0.0012021
-0.0011249
0.00122929
-0.00120779
0.00125806
0.00128813
-0.0012927
-0.000132652
-0.000190196
0.000955542
-0.000251856
0.00101794
-0.000316145
0.00105701
-0.000382205
0.00108319
-0.000449614
0.00110345
-0.000518221
0.00112185
-0.000588019
0.00114042
-0.000659066
0.00116006
-0.000731445
0.00118109
-0.000805248
0.00120364
-0.000880572
0.00122775
-0.000957515
0.00125344
-0.00103617
0.00128076
-0.00111665
0.00130977
-0.00119905
0.00134046
0.00137253
-0.00128346
-0.000187695
0.0010125
-0.000248808
0.00107906
-0.000312588
0.00112079
-0.000378163
0.00114876
-0.000445102
0.00117039
-0.000513245
0.00118999
-0.00058258
0.00120976
-0.000653161
0.00123064
-0.00072507
0.001253
-0.000798399
0.00127697
-0.000873243
0.00130259
-0.000949699
0.0013299
-0.00102786
0.00135893
-0.00110783
0.00138974
-0.00118972
0.00142234
0.00145641
-0.00127359
-0.000185033
0.00106883
-0.000245562
0.00113958
-0.000308798
0.00118403
-0.000373857
0.00121382
-0.000440295
0.00123682
-0.000507945
0.00125764
-0.000576787
0.0012786
-0.000646873
0.00130073
-0.000718283
0.00132441
-0.000791109
0.00134979
-0.000865443
0.00137692
-0.000941381
0.00140584
-0.00101902
0.00143656
-0.00109845
0.00146917
-0.00117979
0.00150367
0.00153972
-0.0012631
-0.000182208
0.00112449
-0.000242117
0.00119949
-0.000304776
0.00124668
-0.000369287
0.00127833
-0.000435195
0.00130273
-0.000502321
0.00132476
-0.00057064
0.00134692
-0.000640202
0.00137029
-0.000711085
0.00139529
-0.000783378
0.00142209
-0.000857173
0.00145072
-0.000932564
0.00148123
-0.00100965
0.00151365
-0.00108851
0.00154804
-0.00116927
0.00158443
0.00162244
-0.00125198
-0.000179222
0.00117944
-0.000238474
0.00125875
-0.000300521
0.00130873
-0.000364454
0.00134226
-0.0004298
0.00136808
-0.000496374
0.00139134
-0.000564142
0.00141469
-0.000633151
0.0014393
-0.000703477
0.00146562
-0.000775208
0.00149382
-0.000848435
0.00152395
-0.000923251
0.00155604
-0.000999746
0.00159014
-0.00107802
0.00162631
-0.00115816
0.00166457
0.00170453
-0.00124025
-0.000176076
-0.000234633
0.0013173
-0.000296035
0.00137013
-0.000359356
0.00140559
-0.000424112
0.00143284
-0.000490104
0.00145733
-0.000557292
0.00148188
-0.00062572
0.00150772
-0.000695461
0.00153536
-0.000766602
0.00156496
-0.000839232
0.00159658
-0.000913443
0.00163026
-0.000989324
0.00166602
-0.00106697
0.00170395
-0.00114647
0.00174407
0.00178597
-0.00122791
-0.000230595
0.00137513
-0.000291317
0.00143086
-0.000353996
0.00146826
-0.000418131
0.00149697
-0.000483511
0.00152271
-0.000550092
0.00154846
-0.00061791
0.00157554
-0.000687037
0.00160449
-0.000757559
0.00163548
-0.000829565
0.00166858
-0.000903142
0.00170383
-0.000978382
0.00174126
-0.00105537
0.00178094
-0.00113421
0.00182291
0.00186672
-0.00121496
-0.000226359
0.00143219
-0.000286367
0.00149086
-0.000348372
0.00153027
-0.000411857
0.00156045
-0.000476597
0.00158745
-0.000542541
0.0016144
-0.000609721
0.00164272
-0.000678207
0.00167298
-0.000748083
0.00170536
-0.000819436
0.00173994
-0.000892353
0.00177675
-0.000966922
0.00181583
-0.00104323
0.00185725
-0.00112137
0.00190105
0.00194676
-0.00120141
-0.000221926
-0.000281186
0.00155012
-0.000342485
0.00159157
-0.000405289
0.00162326
-0.000469362
0.00165152
-0.000534641
0.00167968
-0.000601155
0.00170924
-0.000668973
0.00174079
-0.000738174
0.00177456
-0.000808847
0.00181061
-0.000881077
0.00184898
-0.000954948
0.0018897
-0.00103055
0.00193285
-0.00110796
0.00197846
0.00202606
-0.00118726
-0.000275773
0.0016086
-0.000336335
0.00165213
-0.00039843
0.00168535
-0.000461805
0.0017149
-0.000526392
0.00174427
-0.000592213
0.00177506
-0.000659334
0.00180791
-0.000727835
0.00184306
-0.0007978
0.00188057
-0.000869316
0.0019205
-0.000942464
0.00196285
-0.00101733
0.00200771
-0.001094
0.00205513
0.00210459
-0.00117253
-0.00027013
0.00166626
-0.000329923
0.00171192
-0.000391278
0.00174671
-0.000453928
0.00177755
-0.000517795
0.00180813
-0.000582896
0.00184016
-0.000649293
0.00187431
-0.000717066
0.00191083
-0.000786298
0.0019498
-0.000857072
0.00199127
-0.000929472
0.00203525
-0.00100358
0.00208182
-0.00107947
0.00213102
0.00218234
-0.00115721
-0.000264256
0.00172307
-0.000323248
0.00177092
-0.000383834
0.00180729
-0.000445731
0.00183945
-0.00050885
0.00187125
-0.000573204
0.00190451
-0.000638851
0.00193996
-0.000705869
0.00197785
-0.000774341
0.00201828
-0.000844349
0.00206128
-0.000915975
0.00210688
-0.000989295
0.00215514
-0.00106439
0.00220612
0.00225927
-0.00114132
-0.000258152
-0.000316311
0.00182908
-0.000376098
0.00186708
-0.000437214
0.00190056
-0.000499558
0.0019336
-0.000563137
0.00196809
-0.000628008
0.00200483
-0.000694245
0.00204409
-0.000761931
0.00208596
-0.000831148
0.0021305
-0.000901975
0.0021777
-0.000974488
0.00222765
-0.00104877
0.0022804
0.00233537
-0.00112487
-0.000309112
0.00188637
-0.000368071
0.00192604
-0.000428377
0.00196087
-0.00048992
0.00199514
-0.000552698
0.00203087
-0.000616765
0.0020689
-0.000682196
0.00210952
-0.00074907
0.00215284
-0.00081747
0.0021989
-0.000887475
0.00224771
-0.000959159
0.00229933
-0.0010326
0.00235384
0.00241062
-0.00110785
-0.000301651
0.00194277
-0.000359752
0.00198414
-0.000419221
0.00202034
-0.000479935
0.00205585
-0.000541886
0.00209282
-0.000605124
0.00213213
-0.000669721
0.00217411
-0.000735759
0.00221887
-0.000803318
0.00226645
-0.000872477
0.00231687
-0.000943311
0.00237017
-0.0010159
0.00242643
0.002485
-0.00109028
-0.000293928
-0.000351142
0.00204135
-0.000409747
0.00207894
-0.000469605
0.00211571
-0.000530702
0.00215392
-0.000593084
0.00219452
-0.000656823
0.00223785
-0.000721998
0.00228405
-0.000788691
0.00233315
-0.000856982
0.00238516
-0.000926945
0.00244013
-0.00099866
0.00249815
0.00255851
-0.00107217
-0.000342241
0.00209765
-0.000399953
0.00213665
-0.000458929
0.00217469
-0.000519147
0.00221414
-0.000580648
0.00225602
-0.000643502
0.00230071
-0.000707789
0.00234834
-0.000773591
0.00239895
-0.00084099
0.00245256
-0.000910062
0.0025092
-0.000980891
0.00256897
0.00263114
-0.00105352
-0.000333049
-0.000389841
0.00219345
-0.000447909
0.00223275
-0.000507221
0.00227345
-0.000567814
0.00231661
-0.000629758
0.00236265
-0.000693131
0.00241171
-0.000758018
0.00246384
-0.000824501
0.00251904
-0.000892661
0.00257736
-0.000962592
0.00263891
0.00270288
-0.00103434
-0.000379412
0.00224929
-0.000436544
0.00228989
-0.000494924
0.00233183
-0.000554585
0.00237627
-0.000615592
0.00242366
-0.000678025
0.00247414
-0.00074197
0.00252778
-0.000807513
0.00258458
-0.000874739
0.00264459
-0.000943759
0.00270793
0.00277375
-0.00101463
-0.000368664
-0.000424836
0.00234606
-0.000482258
0.00238925
-0.00054096
0.00243497
-0.000601004
0.0024837
-0.00066247
0.00253561
-0.000725447
0.00259076
-0.000790023
0.00264916
-0.000856291
0.00271086
-0.000924385
0.00277602
0.00284376
-0.000994396
-0.000412785
0.00240124
-0.000469224
0.00244569
-0.00052694
0.00249269
-0.000585995
0.00254276
-0.000646468
0.00259608
-0.000708448
0.00265274
-0.000772029
0.00271274
-0.000837308
0.00277614
-0.000904454
0.00284316
0.00291294
-0.000973629
-0.000400391
0.00245541
-0.000455822
0.00250112
-0.000512528
0.0025494
-0.000570567
0.0026008
-0.000630018
0.00265553
-0.000690972
0.00271369
-0.000753528
0.0027753
-0.000817778
0.00284039
-0.000883938
0.00290933
0.00298131
-0.000952313
-0.000387656
-0.000442053
0.00255552
-0.000497723
0.00260506
-0.00055472
0.00265779
-0.00061312
0.00271393
-0.000673018
0.00277359
-0.000734516
0.00283679
-0.000797689
0.00290356
-0.000862793
0.00297443
0.00304893
-0.00093041
-0.00042792
-0.000482529
0.00265967
-0.000538457
0.00271372
-0.000595778
0.00277125
-0.000654585
0.0028324
-0.000714992
0.0028972
-0.000777037
0.00296561
-0.000840935
0.00303833
0.00311585
-0.000907858
-0.000466946
0.0027132
-0.00052178
0.00276856
-0.000577993
0.00282747
-0.000635675
0.00289008
-0.000694958
0.00295648
-0.000755835