/*--------------------------------*- C++ -*----------------------------------*\
  =========                 |
  \\      /  F ield         | OpenFOAM: The Open Source CFD Toolbox
   \\    /   O peration     | Website:  https://openfoam.org
    \\  /    A nd           | Version:  7
     \\/     M anipulation  |
\*---------------------------------------------------------------------------*/
FoamFile
{
    version     2.0;
    format      ascii;
    class       volScalarField;
    location    "20";
    object      p;
}
// * * * * * * * * * * * * * * * * * * * * * * * * * * * * * * * * * * * * * //

dimensions      [0 2 -2 0 0 0 0];

internalField   nonuniform List<scalar> 
8500
(
-0.263589
-0.26397
-0.264374
-0.264807
-0.265272
-0.265774
-0.266318
-0.266908
-0.267549
-0.268242
-0.268986
-0.269779
-0.27061
-0.271466
-0.272322
-0.273144
-0.273884
-0.274481
-0.274853
-0.274901
-0.274504
-0.27352
-0.271786
-0.269126
-0.265343
-0.26026
-0.25368
-0.245461
-0.23546
-0.223661
-0.210003
-0.194693
-0.177755
-0.159682
-0.14057
-0.121074
-0.10158
-0.0821712
-0.0646992
-0.0463617
-0.0339813
-0.01644
-0.0130881
0.00558393
-0.00547576
0.0176675
-0.263597
-0.263978
-0.264382
-0.264814
-0.265278
-0.26578
-0.266324
-0.266914
-0.267555
-0.268248
-0.268994
-0.269787
-0.27062
-0.271477
-0.272335
-0.27316
-0.273903
-0.274503
-0.27488
-0.274932
-0.27454
-0.273561
-0.271834
-0.269179
-0.265403
-0.260324
-0.253749
-0.245534
-0.235537
-0.223739
-0.210082
-0.194772
-0.177833
-0.159758
-0.140642
-0.121143
-0.101644
-0.0822332
-0.0647545
-0.046417
-0.0340288
-0.0164894
-0.0131291
0.00553868
-0.00550476
0.0176269
-0.263614
-0.263994
-0.264397
-0.264828
-0.265292
-0.265793
-0.266336
-0.266926
-0.267567
-0.268261
-0.269007
-0.269802
-0.270638
-0.271498
-0.27236
-0.273189
-0.273938
-0.274545
-0.27493
-0.274991
-0.274609
-0.273641
-0.271925
-0.269282
-0.265517
-0.260449
-0.253884
-0.245679
-0.235688
-0.223895
-0.210241
-0.194931
-0.177989
-0.159911
-0.140787
-0.121284
-0.101773
-0.0823593
-0.0648671
-0.0465292
-0.0341255
-0.0165895
-0.0132119
0.00544753
-0.00556285
0.0175455
-0.26364
-0.264018
-0.264419
-0.264849
-0.265311
-0.265811
-0.266354
-0.266944
-0.267585
-0.268279
-0.269026
-0.269824
-0.270662
-0.271527
-0.272394
-0.273231
-0.273989
-0.274606
-0.275002
-0.275077
-0.27471
-0.273758
-0.272058
-0.269432
-0.265685
-0.260634
-0.254084
-0.245892
-0.235912
-0.224127
-0.210476
-0.195167
-0.178221
-0.160139
-0.141005
-0.121495
-0.101968
-0.0825482
-0.0650365
-0.0466971
-0.034271
-0.0167397
-0.0133361
0.00531103
-0.00564912
0.0174242
-0.263673
-0.264049
-0.264448
-0.264876
-0.265337
-0.265835
-0.266376
-0.266965
-0.267606
-0.268301
-0.26905
-0.26985
-0.270693
-0.271563
-0.272438
-0.273284
-0.274053
-0.274683
-0.275095
-0.275187
-0.274839
-0.273908
-0.272231
-0.269628
-0.265904
-0.260874
-0.254345
-0.24617
-0.236205
-0.224431
-0.210784
-0.195478
-0.178527
-0.16044
-0.141292
-0.121773
-0.102225
-0.0827986
-0.0652615
-0.0469195
-0.0344645
-0.016939
-0.0135009
0.00513
-0.00576223
0.0172636
-0.263713
-0.264086
-0.264483
-0.264908
-0.265367
-0.265863
-0.266403
-0.266991
-0.267632
-0.268327
-0.269078
-0.269882
-0.270729
-0.271606
-0.272489
-0.273346
-0.274129
-0.274775
-0.275205
-0.275319
-0.274995
-0.27409
-0.27244
-0.269864
-0.266169
-0.261167
-0.254662
-0.24651
-0.236562
-0.224802
-0.211163
-0.19586
-0.178903
-0.16081
-0.141645
-0.122116
-0.102543
-0.0831082
-0.0655397
-0.0471956
-0.0347049
-0.0171861
-0.0137052
0.00490547
-0.00590047
0.0170652
-0.263759
-0.264129
-0.264523
-0.264945
-0.265401
-0.265895
-0.266433
-0.26702
-0.26766
-0.268356
-0.269109
-0.269916
-0.270769
-0.271653
-0.272547
-0.273416
-0.274214
-0.27488
-0.275332
-0.27547
-0.275174
-0.274298
-0.272681
-0.270138
-0.266477
-0.261507
-0.255032
-0.246907
-0.23698
-0.225236
-0.211606
-0.196307
-0.179345
-0.161245
-0.142062
-0.122521
-0.102919
-0.0834745
-0.0658695
-0.0475234
-0.0349909
-0.0174796
-0.0139478
0.00463873
-0.00606184
0.0168301
-0.26381
-0.264177
-0.264567
-0.264986
-0.265438
-0.265929
-0.266465
-0.26705
-0.267689
-0.268386
-0.269141
-0.269952
-0.270811
-0.271703
-0.272608
-0.273492
-0.274308
-0.274994
-0.275471
-0.275637
-0.275372
-0.274531
-0.272949
-0.270445
-0.266821
-0.261888
-0.255448
-0.247353
-0.237452
-0.225727
-0.212108
-0.196814
-0.179847
-0.161741
-0.142537
-0.122984
-0.10335
-0.0838948
-0.0662494
-0.0479001
-0.0353209
-0.0178179
-0.0142271
0.00433123
-0.0062441
0.0165602
-0.263865
-0.264227
-0.264614
-0.265029
-0.265477
-0.265965
-0.266498
-0.267081
-0.26772
-0.268417
-0.269174
-0.269988
-0.270853
-0.271755
-0.272672
-0.273571
-0.274406
-0.275115
-0.275619
-0.275816
-0.275585
-0.274782
-0.273241
-0.270778
-0.267197
-0.262306
-0.255904
-0.247844
-0.237971
-0.226269
-0.212663
-0.197377
-0.180404
-0.162292
-0.143067
-0.123502
-0.103833
-0.0843659
-0.0666767
-0.0483235
-0.0356934
-0.018199
-0.0145414
0.00398459
-0.00644483
0.0162571
-0.263923
-0.264281
-0.264662
-0.265073
-0.265517
-0.266001
-0.266531
-0.267112
-0.267749
-0.268446
-0.269204
-0.270023
-0.270894
-0.271805
-0.272735
-0.27365
-0.274506
-0.27524
-0.275772
-0.276003
-0.27581
-0.275047
-0.27355
-0.271134
-0.267599
-0.262753
-0.256394
-0.248373
-0.238532
-0.226856
-0.213264
-0.197987
-0.181011
-0.162894
-0.143647
-0.124068
-0.104364
-0.0848842
-0.0671488
-0.048791
-0.0361063
-0.0186208
-0.014889
0.00360056
-0.00666154
0.0159228
-0.264335
-0.264711
-0.265117
-0.265557
-0.266036
-0.266562
-0.26714
-0.267776
-0.268472
-0.269233
-0.270055
-0.270932
-0.271853
-0.272796
-0.273728
-0.274605
-0.275365
-0.275928
-0.276194
-0.276041
-0.275322
-0.273871
-0.271505
-0.268019
-0.263223
-0.25691
-0.248932
-0.239126
-0.227479
-0.213905
-0.19864
-0.181661
-0.16354
-0.144271
-0.12468
-0.104938
-0.0854464
-0.0676631
-0.0493
-0.0365577
-0.0190813
-0.0152677
0.003181
-0.00689169
0.0155594
-0.264389
-0.26476
-0.26516
-0.265595
-0.26607
-0.266591
-0.267166
-0.267799
-0.268495
-0.269256
-0.270082
-0.270966
-0.271896
-0.272852
-0.273802
-0.2747
-0.275487
-0.276082
-0.276385
-0.276274
-0.275601
-0.2742
-0.271882
-0.268453
-0.263709
-0.257447
-0.249514
-0.239747
-0.228132
-0.214578
-0.199328
-0.182348
-0.164225
-0.144935
-0.125332
-0.105553
-0.0860487
-0.0682165
-0.0498476
-0.0370453
-0.0195782
-0.0156756
0.00272785
-0.00713279
0.015169
-0.264441
-0.264806
-0.265201
-0.26563
-0.266099
-0.266616
-0.267187
-0.267817
-0.268512
-0.269274
-0.270103
-0.270993
-0.271933
-0.272901
-0.273869
-0.27479
-0.275604
-0.276232
-0.276573
-0.276504
-0.275879
-0.274529
-0.272261
-0.268893
-0.264205
-0.257996
-0.250113
-0.240387
-0.228807
-0.215277
-0.200044
-0.183065
-0.164942
-0.145632
-0.126019
-0.106203
-0.0866872
-0.0688061
-0.0504307
-0.0375668
-0.0201092
-0.0161104
0.00224312
-0.00738243
0.0147539
-0.264491
-0.26485
-0.265238
-0.265661
-0.266125
-0.266637
-0.267203
-0.26783
-0.268523
-0.269285
-0.270117
-0.271012
-0.27196
-0.272942
-0.273927
-0.27487
-0.275711
-0.276372
-0.276752
-0.276728
-0.276152
-0.274854
-0.272654
-0.269334
-0.264705
-0.258551
-0.25072
-0.24104
-0.229499
-0.215995
-0.200782
-0.183807
-0.165687
-0.146359
-0.126737
-0.106886
-0.0873581
-0.0694288
-0.0510466
-0.0381199
-0.0206719
-0.0165698
0.00172885
-0.00763834
0.0143161
-0.264536
-0.264889
-0.265271
-0.265687
-0.266145
-0.266651
-0.267212
-0.267836
-0.268526
-0.269288
-0.270121
-0.271021
-0.271978
-0.272972
-0.273973
-0.274938
-0.275807
-0.276502
-0.276921
-0.276941
-0.276415
-0.275171
-0.27303
-0.26977
-0.265201
-0.259106
-0.25133
-0.241698
-0.230199
-0.216725
-0.201535
-0.184567
-0.166452
-0.147109
-0.127481
-0.107597
-0.0880576
-0.0700816
-0.0516921
-0.0387022
-0.0212638
-0.0170515
0.00118711
-0.00789837
0.0138579
-0.264577
-0.264923
-0.265297
-0.265707
-0.266158
-0.266658
-0.267214
-0.267833
-0.268521
-0.269281
-0.270116
-0.27102
-0.271984
-0.27299
-0.274007
-0.274993
-0.275889
-0.276616
-0.277074
-0.277139
-0.276664
-0.275473
-0.27339
-0.270194
-0.265688
-0.259654
-0.251936
-0.242355
-0.230901
-0.21746
-0.202297
-0.185339
-0.167233
-0.147878
-0.128246
-0.108331
-0.0887819
-0.0707613
-0.0523642
-0.0393111
-0.0218827
-0.0175532
0.000619983
-0.00816057
0.0133814
-0.264611
-0.26495
-0.265317
-0.26572
-0.266164
-0.266658
-0.267208
-0.267822
-0.268506
-0.269264
-0.270099
-0.271006
-0.271977
-0.272993
-0.274026
-0.275032
-0.275954
-0.276713
-0.27721
-0.277319
-0.276895
-0.275759
-0.273736
-0.270603
-0.266161
-0.260189
-0.252532
-0.243004
-0.231598
-0.218194
-0.203061
-0.186118
-0.168024
-0.148661
-0.129027
-0.109085
-0.0895273
-0.0714648
-0.0530601
-0.039944
-0.0225261
-0.0180725
2.95541e-05
-0.00842317
0.0128888
-0.264637
-0.264969
-0.26533
-0.265725
-0.266162
-0.266648
-0.267192
-0.2678
-0.26848
-0.269236
-0.27007
-0.27098
-0.271956
-0.272981
-0.274028
-0.275054
-0.276001
-0.276791
-0.277324
-0.277478
-0.277103
-0.276022
-0.27406
-0.27099
-0.266613
-0.260705
-0.253111
-0.24364
-0.232285
-0.218921
-0.203822
-0.186898
-0.16882
-0.149453
-0.12982
-0.109855
-0.0902901
-0.0721891
-0.0537767
-0.0405985
-0.0231917
-0.0186072
-0.000582097
-0.0086846
0.0123821
-0.264656
-0.26498
-0.265333
-0.265721
-0.266151
-0.26663
-0.267166
-0.267769
-0.268443
-0.269196
-0.270028
-0.270939
-0.271919
-0.272953
-0.274013
-0.275056
-0.276027
-0.276847
-0.277416
-0.277612
-0.277287
-0.276254
-0.274358
-0.271352
-0.267041
-0.261199
-0.253668
-0.244256
-0.232956
-0.219636
-0.204575
-0.187674
-0.169615
-0.150249
-0.130621
-0.110637
-0.0910668
-0.0729311
-0.0545112
-0.0412719
-0.0238771
-0.019155
-0.00121291
-0.00894344
0.0118633
-0.264665
-0.264982
-0.265328
-0.265708
-0.26613
-0.266601
-0.26713
-0.267726
-0.268395
-0.269143
-0.269973
-0.270884
-0.271867
-0.272908
-0.273978
-0.275039
-0.276031
-0.276879
-0.277483
-0.27772
-0.277443
-0.276451
-0.274627
-0.271684
-0.267439
-0.261664
-0.2542
-0.244849
-0.233606
-0.220333
-0.205315
-0.18844
-0.170406
-0.151045
-0.131425
-0.111428
-0.0918539
-0.0736877
-0.0552608
-0.0419616
-0.02458
-0.0197136
-0.00186083
-0.00919849
0.0113342
-0.264663
-0.264974
-0.265312
-0.265684
-0.266098
-0.266561
-0.267083
-0.267671
-0.268334
-0.269077
-0.269904
-0.270813
-0.271799
-0.272845
-0.273925
-0.274999
-0.276012
-0.276886
-0.277523
-0.2778
-0.277569
-0.276678
-0.274864
-0.271984
-0.267805
-0.262097
-0.2547
-0.245413
-0.23423
-0.221008
-0.206036
-0.189193
-0.171187
-0.151837
-0.132229
-0.112224
-0.092648
-0.0744561
-0.0560228
-0.0426652
-0.0252981
-0.020281
-0.00252386
-0.0094487
0.0107967
-0.264954
-0.265285
-0.265649
-0.266055
-0.266511
-0.267024
-0.267605
-0.26826
-0.268997
-0.26982
-0.270727
-0.271713
-0.272763
-0.273851
-0.274938
-0.275969
-0.276867
-0.277534
-0.277849
-0.277662
-0.27681
-0.275065
-0.272247
-0.268135
-0.262494
-0.255166
-0.245944
-0.234824
-0.221657
-0.206734
-0.189927
-0.171955
-0.152621
-0.133029
-0.113022
-0.0934461
-0.0752333
-0.0567944
-0.0433801
-0.0260292
-0.0208549
-0.0032
-0.00969315
0.0102523
-0.264922
-0.265246
-0.265603
-0.266001
-0.266448
-0.266954
-0.267526
-0.268174
-0.268904
-0.269722
-0.270625
-0.27161
-0.272662
-0.273756
-0.274854
-0.275901
-0.276821
-0.277517
-0.277866
-0.277722
-0.276912
-0.27523
-0.272472
-0.268425
-0.262852
-0.255593
-0.246439
-0.235384
-0.222274
-0.207405
-0.19064
-0.172706
-0.153394
-0.133821
-0.113818
-0.094245
-0.0760166
-0.0575731
-0.0441039
-0.0267712
-0.0214335
-0.00388731
-0.00993111
0.00970263
-0.264878
-0.265194
-0.265544
-0.265934
-0.266373
-0.26687
-0.267435
-0.268074
-0.268797
-0.269608
-0.270508
-0.27149
-0.272543
-0.273641
-0.274748
-0.275807
-0.276747
-0.277469
-0.277851
-0.277746
-0.276982
-0.275355
-0.272656
-0.268674
-0.263169
-0.25598
-0.246894
-0.235907
-0.222858
-0.208046
-0.191328
-0.173435
-0.154152
-0.134603
-0.114609
-0.0950419
-0.0768032
-0.0583565
-0.0448342
-0.0275218
-0.0220148
-0.00458387
-0.0101619
0.00914919
-0.264819
-0.265129
-0.265472
-0.265854
-0.266285
-0.266774
-0.26733
-0.267961
-0.268676
-0.26948
-0.270374
-0.271352
-0.272404
-0.273504
-0.274617
-0.275688
-0.276645
-0.27739
-0.277802
-0.277734
-0.277014
-0.275439
-0.272798
-0.268879
-0.263441
-0.256322
-0.247306
-0.236389
-0.223404
-0.208654
-0.191987
-0.174141
-0.154892
-0.13537
-0.115394
-0.0958339
-0.0775906
-0.0591421
-0.0455687
-0.0282791
-0.022597
-0.00528784
-0.0103851
0.00859328
-0.264746
-0.26505
-0.265386
-0.265761
-0.266184
-0.266664
-0.267211
-0.267834
-0.26854
-0.269336
-0.270223
-0.271197
-0.272246
-0.273346
-0.274464
-0.275544
-0.276514
-0.277279
-0.277719
-0.277686
-0.277006
-0.275481
-0.272895
-0.269038
-0.263666
-0.256618
-0.247673
-0.236827
-0.22391
-0.209225
-0.192614
-0.17482
-0.155611
-0.136121
-0.116168
-0.0966187
-0.0783762
-0.0599277
-0.0463051
-0.0290411
-0.0231784
-0.00599739
-0.0106002
0.00803614
-0.264658
-0.264956
-0.265285
-0.265654
-0.266069
-0.266541
-0.267079
-0.267692
-0.26839
-0.269177
-0.270056
-0.271023
-0.272068
-0.273167
-0.274286
-0.275373
-0.276354
-0.277138
-0.277601
-0.277599
-0.276958
-0.27548
-0.272948
-0.269151
-0.263844
-0.256866
-0.247992
-0.237221
-0.224373
-0.209757
-0.193207
-0.175469
-0.156306
-0.136852
-0.116929
-0.0973936
-0.0791577
-0.0607111
-0.0470413
-0.0298057
-0.0237575
-0.00671078
-0.010807
0.00747888
-0.264552
-0.264845
-0.265169
-0.265531
-0.265938
-0.266402
-0.266931
-0.267536
-0.268224
-0.269001
-0.269872
-0.270832
-0.27187
-0.272966
-0.274085
-0.275175
-0.276166
-0.276964
-0.277449
-0.277475
-0.276869
-0.275435
-0.272954
-0.269215
-0.263973
-0.257064
-0.248263
-0.237566
-0.224792
-0.210248
-0.193764
-0.176085
-0.156976
-0.137562
-0.117675
-0.0981564
-0.0799328
-0.0614903
-0.0477754
-0.0305712
-0.0243327
-0.0074263
-0.0110051
0.00692252
-0.264717
-0.265036
-0.265391
-0.265792
-0.266248
-0.266769
-0.267363
-0.268042
-0.268809
-0.26967
-0.270621
-0.271653
-0.272743
-0.27386
-0.274952
-0.275948
-0.276758
-0.27726
-0.277312
-0.276738
-0.275345
-0.272913
-0.26923
-0.264051
-0.257212
-0.248483
-0.237863
-0.225164
-0.210696
-0.194282
-0.176668
-0.157618
-0.138248
-0.118405
-0.0989051
-0.0806993
-0.0622632
-0.0485052
-0.0313357
-0.0249027
-0.00814231
-0.0111944
0.00636795
-0.264571
-0.264885
-0.265235
-0.265629
-0.266077
-0.266589
-0.267175
-0.267843
-0.2686
-0.269451
-0.270392
-0.271415
-0.272498
-0.273611
-0.274702
-0.2757
-0.27652
-0.277037
-0.27711
-0.276566
-0.275211
-0.272824
-0.269196
-0.264078
-0.257307
-0.248652
-0.238109
-0.225489
-0.211098
-0.19476
-0.177214
-0.158229
-0.138907
-0.119115
-0.0996376
-0.0814553
-0.0630281
-0.0492292
-0.0320975
-0.0254662
-0.00885724
-0.0113747
0.00581598
-0.264404
-0.264714
-0.265059
-0.265448
-0.265889
-0.266393
-0.266969
-0.267627
-0.268374
-0.269213
-0.270143
-0.271156
-0.272231
-0.273337
-0.274425
-0.275423
-0.276249
-0.276778
-0.27687
-0.276351
-0.275031
-0.272687
-0.26911
-0.264052
-0.257349
-0.248767
-0.238303
-0.225764
-0.211455
-0.195196
-0.177723
-0.158809
-0.139539
-0.119803
-0.100352
-0.0821989
-0.0637832
-0.0499454
-0.032855
-0.0260221
-0.00956959
-0.0115461
0.00526729
-0.264215
-0.264523
-0.264864
-0.265247
-0.265682
-0.266178
-0.266745
-0.267393
-0.268128
-0.268956
-0.269875
-0.270876
-0.27194
-0.273039
-0.27412
-0.27512
-0.275945
-0.276483
-0.27659
-0.276095
-0.274806
-0.272502
-0.268975
-0.263974
-0.257338
-0.24883
-0.238445
-0.225989
-0.211764
-0.195589
-0.178192
-0.159356
-0.140142
-0.12047
-0.101047
-0.0829284
-0.0645269
-0.0506524
-0.0336066
-0.0265694
-0.0102779
-0.0117085
0.00472249
-0.264003
-0.264309
-0.264647
-0.265026
-0.265454
-0.265943
-0.266501
-0.267139
-0.267863
-0.268679
-0.269585
-0.270574
-0.271626
-0.272714
-0.273788
-0.274791
-0.27561
-0.276152
-0.276271
-0.275795
-0.274534
-0.272268
-0.268788
-0.263844
-0.257273
-0.248838
-0.238534
-0.226163
-0.212024
-0.195939
-0.178622
-0.159869
-0.140715
-0.121112
-0.101722
-0.0836423
-0.0652579
-0.0513489
-0.0343509
-0.0271072
-0.0109808
-0.0118619
0.00418208
-0.263765
-0.26407
-0.264406
-0.264781
-0.265205
-0.265686
-0.266236
-0.266864
-0.267577
-0.26838
-0.269273
-0.270248
-0.271287
-0.272364
-0.273429
-0.274408
-0.27524
-0.275784
-0.275912
-0.275452
-0.274217
-0.271985
-0.268549
-0.26366
-0.257154
-0.248792
-0.23857
-0.226286
-0.212237
-0.196244
-0.17901
-0.160347
-0.141256
-0.121728
-0.102374
-0.0843392
-0.0659748
-0.0520335
-0.0350866
-0.0276347
-0.0116771
-0.0120063
0.00364643
-0.263804
-0.264139
-0.264512
-0.264931
-0.265406
-0.265948
-0.266566
-0.267268
-0.268059
-0.268938
-0.269899
-0.270923
-0.271986
-0.273043
-0.274017
-0.274837
-0.27538
-0.275513
-0.275067
-0.273854
-0.271653
-0.26826
-0.263423
-0.256981
-0.248692
-0.238552
-0.226357
-0.212399
-0.196503
-0.179357
-0.160788
-0.141763
-0.122318
-0.103002
-0.085017
-0.0666758
-0.0527043
-0.0358121
-0.0281508
-0.0123656
-0.0121416
0.00311576
-0.263511
-0.263846
-0.264217
-0.264632
-0.265103
-0.265637
-0.266246
-0.266937
-0.267714
-0.268579
-0.269525
-0.270534
-0.271582
-0.272615
-0.273591
-0.274399
-0.274939
-0.275075
-0.274639
-0.273445
-0.271273
-0.267919
-0.263133
-0.256752
-0.248536
-0.238478
-0.226373
-0.212509
-0.196713
-0.179657
-0.161187
-0.142234
-0.122876
-0.103603
-0.0856725
-0.0673584
-0.053359
-0.0365256
-0.0286541
-0.0130449
-0.0122676
0.00259049
-0.263189
-0.263525
-0.263895
-0.264308
-0.264774
-0.265301
-0.265901
-0.26658
-0.267345
-0.268196
-0.269126
-0.270117
-0.271151
-0.27217
-0.273127
-0.273925
-0.274459
-0.274595
-0.274166
-0.272988
-0.270842
-0.267525
-0.262787
-0.256468
-0.248324
-0.238348
-0.226336
-0.212568
-0.196876
-0.179914
-0.161549
-0.14267
-0.123406
-0.104179
-0.0863083
-0.0680234
-0.054
-0.037226
-0.0291472
-0.0137123
-0.0123872
0.00207183
-0.26283
-0.263167
-0.263537
-0.263947
-0.264408
-0.264929
-0.265519
-0.266187
-0.266938
-0.267773
-0.268685
-0.26966
-0.270671
-0.271677
-0.272615
-0.273402
-0.273928
-0.274062
-0.273638
-0.272476
-0.270356
-0.267078
-0.262391
-0.256137
-0.24807
-0.238183
-0.22627
-0.212604
-0.197022
-0.180159
-0.161905
-0.143102
-0.123936
-0.104753
-0.0869464
-0.0686852
-0.0546426
-0.0379187
-0.0296403
-0.0143667
-0.0125069
0.00156057
-0.262407
-0.262748
-0.263121
-0.263532
-0.26399
-0.264506
-0.265089
-0.265746
-0.266485
-0.267304
-0.2682
-0.269157
-0.270148
-0.271137
-0.272059
-0.272833
-0.273351
-0.273484
-0.273068
-0.271924
-0.269834
-0.266599
-0.261968
-0.255785
-0.247802
-0.238011
-0.226203
-0.212645
-0.197179
-0.180418
-0.162278
-0.143551
-0.124483
-0.105341
-0.0875962
-0.0693554
-0.0552881
-0.0386139
-0.0301279
-0.0150191
-0.0126159
0.00104861
-0.261951
-0.262309
-0.262695
-0.263117
-0.263583
-0.264104
-0.264689
-0.265346
-0.26608
-0.266893
-0.267781
-0.268715
-0.269701
-0.270674
-0.271581
-0.27234
-0.272846
-0.272969
-0.272548
-0.271405
-0.269325
-0.266108
-0.261509
-0.255366
-0.24744
-0.237713
-0.225987
-0.212513
-0.197151
-0.180478
-0.162453
-0.143809
-0.124847
-0.105776
-0.0880907
-0.0699315
-0.0558081
-0.0392798
-0.0305127
-0.0156943
-0.0126414
0.000512201
-0.261823
-0.262223
-0.262656
-0.263132
-0.263659
-0.264247
-0.264903
-0.265634
-0.266442
-0.267331
-0.268246
-0.269199
-0.270143
-0.271017
-0.271738
-0.2722
-0.272276
-0.271805
-0.27061
-0.268481
-0.26522
-0.260588
-0.254423
-0.246503
-0.236794
-0.225134
-0.211731
-0.196506
-0.179959
-0.162129
-0.143653
-0.124897
-0.106038
-0.0884651
-0.0706023
-0.0563345
-0.0402762
-0.0309025
-0.0168361
-0.0125168
-0.000394003
-0.260532
-0.260962
-0.261421
-0.261916
-0.262456
-0.263049
-0.263702
-0.264417
-0.265194
-0.26602
-0.266911
-0.267804
-0.268668
-0.269446
-0.270057
-0.270397
-0.27034
-0.269732
-0.268402
-0.266148
-0.262779
-0.258069
-0.251864
-0.243956
-0.23431
-0.222789
-0.209569
-0.194619
-0.17836
-0.160913
-0.142789
-0.124442
-0.105962
-0.0886879
-0.071232
-0.0569604
-0.0414068
-0.0314955
-0.018138
-0.0125495
-0.00139375
-0.258842
-0.259313
-0.259806
-0.260329
-0.26089
-0.261494
-0.262147
-0.262851
-0.263603
-0.264399
-0.265227
-0.266045
-0.266817
-0.267485
-0.26797
-0.268169
-0.267963
-0.267199
-0.265716
-0.26332
-0.259831
-0.255036
-0.248787
-0.240896
-0.231325
-0.219959
-0.206951
-0.192305
-0.176378
-0.159346
-0.141626
-0.12372
-0.105666
-0.0887251
-0.071702
-0.0574767
-0.0424017
-0.0320564
-0.0192902
-0.012664
-0.00220998
-0.256698
-0.257222
-0.257762
-0.258323
-0.258911
-0.259534
-0.260193
-0.26089
-0.261622
-0.262381
-0.263147
-0.26389
-0.264568
-0.265124
-0.265479
-0.265535
-0.265174
-0.264252
-0.262614
-0.260077
-0.256469
-0.251593
-0.245309
-0.237446
-0.227965
-0.216773
-0.203999
-0.189678
-0.174113
-0.157517
-0.140239
-0.122793
-0.105202
-0.0886085
-0.072043
-0.0578889
-0.043283
-0.0325694
-0.0203206
-0.0128195
-0.00288162
-0.25401
-0.254601
-0.255198
-0.255807
-0.256433
-0.257081
-0.257752
-0.258446
-0.259159
-0.25988
-0.260589
-0.261257
-0.26184
-0.26228
-0.262504
-0.262414
-0.261898
-0.260818
-0.259028
-0.256353
-0.252635
-0.247688
-0.241382
-0.233564
-0.224194
-0.213198
-0.200687
-0.186718
-0.17155
-0.155417
-0.138617
-0.121651
-0.104558
-0.0883327
-0.0722419
-0.0581931
-0.0440374
-0.0330318
-0.0212222
-0.0130038
-0.00342999
-0.250735
-0.251403
-0.252067
-0.252733
-0.253404
-0.254083
-0.254771
-0.255467
-0.256164
-0.25685
-0.257503
-0.258095
-0.258583
-0.258909
-0.259002
-0.258767
-0.258099
-0.256865
-0.254928
-0.252125
-0.248308
-0.243306
-0.236998
-0.229246
-0.220012
-0.20924
-0.197024
-0.183434
-0.168697
-0.153052
-0.136766
-0.120302
-0.103734
-0.0878992
-0.0722929
-0.0583875
-0.0446579
-0.0334392
-0.0219942
-0.0132048
-0.00387301
-0.246876
-0.247626
-0.248362
-0.24909
-0.24981
-0.250525
-0.251234
-0.251934
-0.252617
-0.25327
-0.253871
-0.254389
-0.254783
-0.254998
-0.254963
-0.254588
-0.253774
-0.252395
-0.250322
-0.247406
-0.243507
-0.23847
-0.232183
-0.224523
-0.215454
-0.204933
-0.193041
-0.179857
-0.165583
-0.150449
-0.134703
-0.118761
-0.102738
-0.0873148
-0.0721968
-0.0584721
-0.0451434
-0.0337867
-0.022641
-0.01341
-0.00422723
-0.24248
-0.24331
-0.244119
-0.244908
-0.245677
-0.246428
-0.247159
-0.247864
-0.248534
-0.249155
-0.249706
-0.250152
-0.250456
-0.250564
-0.250407
-0.249901
-0.24895
-0.247438
-0.245246
-0.242234
-0.238274
-0.233225
-0.226984
-0.219442
-0.210566
-0.200321
-0.188783
-0.176028
-0.162242
-0.147637
-0.132453
-0.117047
-0.101582
-0.0865886
-0.0719572
-0.0584482
-0.0454958
-0.0340695
-0.0231696
-0.0136079
-0.00450725
-0.237623
-0.238529
-0.239404
-0.24025
-0.241065
-0.241849
-0.242598
-0.243305
-0.243962
-0.244552
-0.245052
-0.245429
-0.245648
-0.245654
-0.245383
-0.244755
-0.24368
-0.242052
-0.239757
-0.236669
-0.232671
-0.227633
-0.221464
-0.214065
-0.205407
-0.195463
-0.1843
-0.171993
-0.158714
-0.144651
-0.130041
-0.115182
-0.100279
-0.0857313
-0.0715805
-0.0583183
-0.0457194
-0.034284
-0.0235881
-0.0137892
-0.00472552
-0.232401
-0.233373
-0.234306
-0.235201
-0.236054
-0.236865
-0.237627
-0.238334
-0.238973
-0.23953
-0.239982
-0.240291
-0.240428
-0.240339
-0.239963
-0.239224
-0.238039
-0.236309
-0.233931
-0.230788
-0.226773
-0.221771
-0.215696
-0.208463
-0.200045
-0.190419
-0.17965
-0.167802
-0.15504
-0.141526
-0.127496
-0.113188
-0.0988466
-0.0847544
-0.0710751
-0.0580859
-0.0458204
-0.0344277
-0.023905
-0.0139463
-0.0048924
-0.226906
-0.227933
-0.228915
-0.22985
-0.230734
-0.231563
-0.232333
-0.233033
-0.233653
-0.234174
-0.234575
-0.234823
-0.234881
-0.234703
-0.23423
-0.233392
-0.232112
-0.230297
-0.227854
-0.224675
-0.220665
-0.215717
-0.209757
-0.202708
-0.194546
-0.185252
-0.174886
-0.163504
-0.151263
-0.138298
-0.124844
-0.111087
-0.0973003
-0.0836698
-0.0704505
-0.0577552
-0.0458063
-0.0344992
-0.024129
-0.0140741
-0.0050164
-0.221218
-0.222293
-0.223314
-0.22428
-0.225186
-0.226028
-0.226799
-0.227489
-0.228084
-0.228568
-0.228918
-0.229108
-0.229095
-0.228834
-0.228273
-0.227348
-0.225985
-0.224101
-0.221609
-0.218413
-0.214425
-0.209551
-0.203722
-0.19687
-0.188976
-0.18002
-0.17006
-0.159144
-0.14742
-0.134998
-0.122112
-0.108901
-0.0956562
-0.0824888
-0.0697167
-0.0573309
-0.0456851
-0.0344986
-0.0242685
-0.0141692
-0.00510447
-0.215403
-0.216517
-0.21757
-0.21856
-0.219482
-0.220331
-0.221098
-0.221774
-0.222344
-0.222791
-0.223094
-0.223225
-0.223144
-0.222808
-0.22217
-0.221169
-0.219737
-0.217799
-0.215275
-0.212077
-0.208127
-0.20334
-0.197655
-0.191009
-0.183388
-0.174772
-0.165217
-0.154759
-0.143543
-0.131653
-0.119321
-0.106646
-0.093929
-0.081222
-0.0688838
-0.0568182
-0.0454648
-0.0344268
-0.0243311
-0.0142297
-0.00516231
-0.209509
-0.210655
-0.211734
-0.212743
-0.213676
-0.214527
-0.215288
-0.215948
-0.216492
-0.216904
-0.217161
-0.217236
-0.217094
-0.216692
-0.215987
-0.214921
-0.213434
-0.211455
-0.208913
-0.205728
-0.201829
-0.19714
-0.191607
-0.185172
-0.177826
-0.169547
-0.16039
-0.150381
-0.139659
-0.128287
-0.116491
-0.104338
-0.0921318
-0.079879
-0.0679612
-0.0562222
-0.0451534
-0.0342858
-0.0243237
-0.0142551
-0.00519455
-0.20357
-0.204743
-0.205843
-0.206867
-0.207808
-0.20866
-0.209413
-0.210056
-0.210575
-0.210953
-0.211167
-0.211193
-0.210996
-0.210537
-0.209775
-0.208656
-0.207126
-0.20512
-0.202572
-0.199412
-0.195575
-0.190992
-0.185617
-0.179396
-0.172323
-0.164375
-0.155605
-0.146032
-0.135787
-0.124916
-0.113636
-0.101989
-0.0902757
-0.0784683
-0.0669578
-0.0555485
-0.0447582
-0.0340782
-0.0242527
-0.0142458
-0.00520501
-0.197609
-0.198806
-0.199925
-0.200961
-0.201908
-0.202758
-0.203502
-0.204129
-0.204625
-0.204972
-0.205149
-0.205131
-0.204887
-0.20438
-0.20357
-0.20241
-0.200849
-0.198827
-0.196286
-0.193161
-0.189396
-0.184926
-0.179712
-0.173705
-0.1669
-0.159275
-0.150881
-0.141728
-0.131941
-0.121553
-0.110768
-0.0996102
-0.0883701
-0.0769976
-0.0658815
-0.0548025
-0.0442865
-0.0338074
-0.0241238
-0.014203
-0.00519683
-0.191645
-0.192863
-0.193997
-0.195043
-0.195994
-0.196843
-0.197579
-0.198192
-0.198666
-0.198986
-0.199131
-0.199076
-0.198792
-0.198246
-0.197399
-0.196209
-0.194627
-0.192601
-0.190077
-0.186997
-0.18331
-0.178959
-0.173909
-0.168114
-0.161572
-0.154261
-0.146228
-0.13748
-0.128132
-0.118206
-0.107896
-0.0972082
-0.0864232
-0.0754736
-0.0647398
-0.0539894
-0.0437446
-0.0334769
-0.023942
-0.0141281
-0.00517258
-0.185691
-0.186926
-0.188074
-0.189129
-0.190084
-0.19093
-0.19166
-0.192259
-0.192716
-0.193013
-0.19313
-0.193045
-0.192729
-0.192152
-0.191278
-0.190067
-0.188476
-0.186456
-0.183959
-0.180933
-0.177331
-0.173103
-0.168217
-0.162631
-0.156346
-0.149338
-0.141654
-0.133294
-0.124366
-0.114882
-0.105025
-0.0947897
-0.0844415
-0.0739024
-0.0635394
-0.0531147
-0.0431387
-0.0330906
-0.0237121
-0.014023
-0.00513443
-0.179759
-0.18101
-0.182169
-0.18323
-0.184188
-0.185033
-0.185756
-0.186345
-0.186787
-0.187065
-0.18716
-0.187051
-0.186711
-0.186111
-0.185219
-0.183997
-0.182406
-0.180401
-0.177941
-0.174975
-0.171464
-0.167362
-0.16264
-0.157261
-0.151226
-0.144512
-0.137162
-0.129174
-0.120647
-0.111586
-0.102162
-0.0923601
-0.0824312
-0.0722895
-0.0622864
-0.0521837
-0.0424746
-0.0326527
-0.0234384
-0.0138899
-0.00508417
-0.17386
-0.175123
-0.176291
-0.177358
-0.178318
-0.179162
-0.17988
-0.18046
-0.18089
-0.181153
-0.181231
-0.181103
-0.180746
-0.180132
-0.17923
-0.178005
-0.176423
-0.174443
-0.172026
-0.169128
-0.165713
-0.161738
-0.15718
-0.152005
-0.146212
-0.139782
-0.132754
-0.125121
-0.116977
-0.108321
-0.0993103
-0.0899239
-0.0803974
-0.0706405
-0.0609868
-0.0512014
-0.0417577
-0.0321673
-0.0231249
-0.0137309
-0.00502331
-0.168004
-0.169276
-0.170451
-0.171522
-0.172484
-0.173326
-0.17404
-0.174613
-0.175033
-0.175285
-0.175351
-0.175211
-0.174843
-0.174221
-0.173316
-0.172098
-0.170533
-0.168585
-0.166218
-0.163393
-0.160077
-0.156232
-0.151838
-0.146862
-0.141306
-0.135149
-0.128429
-0.121137
-0.113359
-0.105089
-0.0964732
-0.0874851
-0.0783452
-0.0689603
-0.0596462
-0.0501732
-0.0409935
-0.0316385
-0.0227756
-0.0135482
-0.00495316
-0.162201
-0.163479
-0.164658
-0.165733
-0.166695
-0.167536
-0.168246
-0.168814
-0.169227
-0.169471
-0.169529
-0.169382
-0.169008
-0.168385
-0.167485
-0.166279
-0.164739
-0.162829
-0.160518
-0.157771
-0.154558
-0.150844
-0.146612
-0.141831
-0.136505
-0.130612
-0.124188
-0.117222
-0.109794
-0.101892
-0.0936542
-0.0850478
-0.0762791
-0.0672539
-0.0582699
-0.0491041
-0.0401868
-0.0310706
-0.0223939
-0.0133439
-0.00487484
-0.156461
-0.157742
-0.158924
-0.159999
-0.160961
-0.1618
-0.162507
-0.163071
-0.16348
-0.163718
-0.163772
-0.163622
-0.163248
-0.162629
-0.16174
-0.160554
-0.159043
-0.157178
-0.154929
-0.152263
-0.149155
-0.145573
-0.141501
-0.136912
-0.131808
-0.12617
-0.120031
-0.113377
-0.106282
-0.0987336
-0.0908561
-0.0826155
-0.0742037
-0.0655261
-0.0568631
-0.0479991
-0.0393426
-0.0304676
-0.0219835
-0.0131202
-0.00478936
-0.150794
-0.152075
-0.153257
-0.154331
-0.155291
-0.156128
-0.156832
-0.157393
-0.157799
-0.158035
-0.158087
-0.157938
-0.157569
-0.156959
-0.156086
-0.154925
-0.15345
-0.151634
-0.149451
-0.14687
-0.143869
-0.140419
-0.136505
-0.132103
-0.127215
-0.121823
-0.115956
-0.109602
-0.102826
-0.0956145
-0.088082
-0.080192
-0.0721232
-0.0637818
-0.0554309
-0.0468633
-0.0384657
-0.0298336
-0.0215475
-0.0128792
-0.00469763
-0.145209
-0.146487
-0.147666
-0.148737
-0.149694
-0.150528
-0.15123
-0.151788
-0.152192
-0.152428
-0.152482
-0.152338
-0.151977
-0.151381
-0.150528
-0.149396
-0.147962
-0.146199
-0.144085
-0.141592
-0.138699
-0.13538
-0.131622
-0.127403
-0.122725
-0.11757
-0.111965
-0.105897
-0.0994267
-0.092537
-0.0853346
-0.0777809
-0.070042
-0.0620254
-0.0539782
-0.0457013
-0.0375607
-0.0291726
-0.0210893
-0.012623
-0.00460047
-0.139715
-0.140987
-0.14216
-0.143227
-0.14418
-0.14501
-0.145708
-0.146265
-0.146669
-0.146906
-0.146964
-0.146827
-0.146478
-0.145899
-0.145071
-0.143972
-0.142582
-0.140876
-0.138834
-0.13643
-0.133646
-0.130457
-0.126853
-0.122812
-0.118337
-0.11341
-0.108057
-0.102263
-0.096085
-0.0895034
-0.0826168
-0.0753857
-0.0679642
-0.0602617
-0.0525098
-0.0445179
-0.0366319
-0.0284884
-0.0206117
-0.0123533
-0.00449863
-0.134321
-0.135584
-0.136749
-0.137808
-0.138755
-0.139581
-0.140276
-0.140831
-0.141235
-0.141475
-0.141539
-0.141411
-0.141077
-0.140518
-0.139718
-0.138656
-0.137312
-0.135667
-0.133698
-0.131385
-0.128709
-0.12565
-0.122196
-0.118329
-0.11405
-0.109344
-0.104232
-0.0987016
-0.0928026
-0.0865158
-0.0799316
-0.0730098
-0.0658938
-0.0584949
-0.0510303
-0.0433176
-0.0356836
-0.0277846
-0.0201178
-0.0120722
-0.00439285
-0.129034
-0.130285
-0.131439
-0.132489
-0.133429
-0.134249
-0.13494
-0.135494
-0.135898
-0.136142
-0.136213
-0.136097
-0.135779
-0.135243
-0.134473
-0.13345