/*--------------------------------*- C++ -*----------------------------------*\
  =========                 |
  \\      /  F ield         | OpenFOAM: The Open Source CFD Toolbox
   \\    /   O peration     | Website:  https://openfoam.org
    \\  /    A nd           | Version:  7
     \\/     M anipulation  |
\*---------------------------------------------------------------------------*/
FoamFile
{
    version     2.0;
    format      ascii;
    class       volScalarField;
    location    "10";
    object      p;
}
// * * * * * * * * * * * * * * * * * * * * * * * * * * * * * * * * * * * * * //

dimensions      [0 2 -2 0 0 0 0];

internalField   nonuniform List<scalar> 
3275
(
-0.243888
-0.232977
-0.221666
-0.210064
-0.198275
-0.186403
-0.174539
-0.16277
-0.151169
-0.139804
-0.128728
-0.117992
-0.107622
-0.0976691
-0.0881076
-0.0790363
-0.070294
-0.0621835
-0.0541458
-0.0471408
-0.0394659
-0.0339747
-0.0258342
-0.0229851
-0.01244
-0.0151148
0.00231328
-0.0128085
0.0216335
-0.244007
-0.233088
-0.22177
-0.21016
-0.198366
-0.186488
-0.17462
-0.162845
-0.15124
-0.13987
-0.128789
-0.118049
-0.107675
-0.0977178
-0.0881525
-0.0790777
-0.0703322
-0.0622185
-0.0541783
-0.0471704
-0.0394939
-0.0339993
-0.0258591
-0.0230042
-0.0124641
-0.0151262
0.00228599
-0.0128057
0.0215943
-0.244245
-0.233309
-0.221975
-0.210353
-0.198548
-0.186659
-0.17478
-0.162996
-0.15138
-0.140001
-0.128911
-0.118162
-0.10778
-0.097815
-0.0882422
-0.0791603
-0.0704083
-0.0622885
-0.0542432
-0.0472294
-0.0395498
-0.0340483
-0.025909
-0.0230424
-0.0125123
-0.0151488
0.00223154
-0.0128001
0.021516
-0.244597
-0.233636
-0.222281
-0.21064
-0.198817
-0.186913
-0.175019
-0.16322
-0.15159
-0.140197
-0.129094
-0.118332
-0.107937
-0.0979603
-0.0883763
-0.0792838
-0.0705222
-0.0623931
-0.0543401
-0.0473177
-0.0396334
-0.0341216
-0.0259834
-0.0230994
-0.0125842
-0.0151825
0.00215019
-0.0127916
0.0213989
-0.245059
-0.234065
-0.222683
-0.211017
-0.199173
-0.187248
-0.175334
-0.163516
-0.151869
-0.140457
-0.129336
-0.118557
-0.108146
-0.0981531
-0.0885542
-0.0794478
-0.0706734
-0.062532
-0.0544688
-0.0474348
-0.0397442
-0.0342188
-0.0260822
-0.0231749
-0.0126795
-0.0152271
0.00204232
-0.0127802
0.0212436
-0.245625
-0.234592
-0.223176
-0.211482
-0.199611
-0.187662
-0.175724
-0.163884
-0.152213
-0.14078
-0.129637
-0.118837
-0.108405
-0.0983928
-0.0887754
-0.0796515
-0.0708613
-0.0627045
-0.0546286
-0.0475803
-0.0398819
-0.0343395
-0.0262048
-0.0232686
-0.0127979
-0.0152825
0.00190844
-0.0127659
0.0210506
-0.246286
-0.235209
-0.223756
-0.212029
-0.200128
-0.188151
-0.176187
-0.164319
-0.152623
-0.141163
-0.129995
-0.119169
-0.108713
-0.0986783
-0.089039
-0.0798944
-0.0710851
-0.0629101
-0.0548191
-0.0477535
-0.0400458
-0.0344831
-0.0263507
-0.02338
-0.0129387
-0.0153481
0.00174915
-0.0127484
0.0208207
-0.247035
-0.235909
-0.224415
-0.212653
-0.20072
-0.188712
-0.176718
-0.164821
-0.153094
-0.141606
-0.130408
-0.119554
-0.10907
-0.0990085
-0.0893439
-0.0801754
-0.0713442
-0.0631479
-0.0550393
-0.0479538
-0.0402354
-0.034649
-0.0265193
-0.0235085
-0.0131013
-0.0154237
0.00156519
-0.0127276
0.0205549
-0.247862
-0.236684
-0.225147
-0.213348
-0.201381
-0.18934
-0.177314
-0.165385
-0.153626
-0.142105
-0.130875
-0.119989
-0.109474
-0.0993823
-0.0896891
-0.0804935
-0.0716374
-0.063417
-0.0552886
-0.0481803
-0.0404497
-0.0348365
-0.0267098
-0.0236536
-0.0132849
-0.0155089
0.00135738
-0.0127036
0.0202541
-0.248757
-0.237525
-0.225944
-0.214107
-0.202105
-0.190031
-0.177971
-0.166008
-0.154215
-0.142658
-0.131393
-0.120472
-0.109923
-0.0997982
-0.0900734
-0.0808475
-0.0719638
-0.0637165
-0.0555659
-0.0484322
-0.0406879
-0.0350447
-0.0269214
-0.0238146
-0.0134888
-0.0156031
0.00112663
-0.0126761
0.0199196
-0.249708
-0.238423
-0.226799
-0.214924
-0.202888
-0.19078
-0.178686
-0.166688
-0.154858
-0.143264
-0.131961
-0.121002
-0.110416
-0.100255
-0.0904952
-0.0812363
-0.0723222
-0.0640452
-0.0558701
-0.0487084
-0.0409491
-0.0352728
-0.0271533
-0.0239907
-0.013712
-0.0157059
0.000873932
-0.012645
0.0195526
-0.250704
-0.239367
-0.227702
-0.215792
-0.203723
-0.191582
-0.179454
-0.167419
-0.155552
-0.143919
-0.132575
-0.121577
-0.11095
-0.10075
-0.0909532
-0.0816584
-0.0727112
-0.064402
-0.0562003
-0.0490079
-0.0412323
-0.0355198
-0.0274044
-0.0241812
-0.0139536
-0.0158167
0.000600358
-0.0126101
0.0191545
-0.251736
-0.240349
-0.228646
-0.216704
-0.204605
-0.192432
-0.18027
-0.168199
-0.156293
-0.14462
-0.133235
-0.122193
-0.111524
-0.101283
-0.0914457
-0.0821123
-0.0731296
-0.0647855
-0.0565552
-0.0493296
-0.0415365
-0.0357848
-0.0276739
-0.0243852
-0.0142127
-0.0159349
0.000307028
-0.0125713
0.0187268
-0.24136
-0.229623
-0.217653
-0.205526
-0.193324
-0.18113
-0.169024
-0.157079
-0.145364
-0.133935
-0.12285
-0.112136
-0.101851
-0.0919711
-0.0825966
-0.073576
-0.0651945
-0.0569336
-0.0496723
-0.0418604
-0.0360666
-0.0279605
-0.0246018
-0.0144881
-0.0160601
-4.88808e-06
-0.0125286
0.018271
-0.242389
-0.230625
-0.218632
-0.206482
-0.194254
-0.18203
-0.169889
-0.157905
-0.146148
-0.134675
-0.123544
-0.112784
-0.102452
-0.0925275
-0.0831096
-0.0740488
-0.0656276
-0.0573341
-0.0500348
-0.042203
-0.0363643
-0.0282634
-0.0248302
-0.0147789
-0.0161915
-0.00033418
-0.0124817
0.0177886
-0.243428
-0.231644
-0.219634
-0.207465
-0.195215
-0.182964
-0.17079
-0.158769
-0.14697
-0.135452
-0.124272
-0.113465
-0.103085
-0.0931133
-0.0836496
-0.0745466
-0.0660834
-0.0577555
-0.0504158
-0.042563
-0.0366768
-0.0285813
-0.0250694
-0.0150838
-0.0163286
-0.00067961
-0.0124306
0.0172814
-0.24447
-0.232673
-0.220653
-0.208471
-0.196204
-0.183928
-0.171724
-0.159666
-0.147825
-0.136261
-0.125034
-0.114177
-0.103747
-0.0937266
-0.084215
-0.0750677
-0.0665603
-0.0581964
-0.0508141
-0.0429392
-0.0370028
-0.0289132
-0.0253186
-0.0154018
-0.0164708
-0.00103992
-0.0123752
0.0167511
-0.245507
-0.233706
-0.221682
-0.209495
-0.197214
-0.184918
-0.172686
-0.160593
-0.148711
-0.137102
-0.125826
-0.114918
-0.104436
-0.0943655
-0.0848042
-0.0756107
-0.067057
-0.0586555
-0.0512284
-0.0433306
-0.0373414
-0.0292579
-0.0255769
-0.0157319
-0.0166176
-0.00141384
-0.0123154
0.0161993
-0.246531
-0.234736
-0.222718
-0.21053
-0.198242
-0.18593
-0.173673
-0.161547
-0.149625
-0.137971
-0.126645
-0.115685
-0.105151
-0.0950284
-0.0854155
-0.0761742
-0.0675721
-0.0591315
-0.0516575
-0.0437358
-0.0376915
-0.0296144
-0.0258434
-0.0160728
-0.0167684
-0.00180013
-0.0122512
0.0156277
-0.247537
-0.235757
-0.223753
-0.211572
-0.199283
-0.186959
-0.174681
-0.162524
-0.150564
-0.138864
-0.127489
-0.116477
-0.105889
-0.095713
-0.0860468
-0.0767561
-0.0681039
-0.0596226
-0.0520998
-0.0441535
-0.0380517
-0.0299815
-0.026117
-0.0164235
-0.0169224
-0.0021976
-0.0121824
0.0150381
-0.236762
-0.224778
-0.212612
-0.200327
-0.187996
-0.1757
-0.163515
-0.151518
-0.139775
-0.128352
-0.117287
-0.106645
-0.0964143
-0.0866937
-0.0773525
-0.0686487
-0.0601261
-0.0525527
-0.0445815
-0.03842
-0.0303575
-0.0263963
-0.0167828
-0.0170788
-0.00260499
-0.0121089
0.014432
-0.237749
-0.225795
-0.213649
-0.201374
-0.189041
-0.17673
-0.16452
-0.152489
-0.140703
-0.129231
-0.118114
-0.107417
-0.0971314
-0.0873554
-0.0779626
-0.069206
-0.0606409
-0.0530156
-0.0450188
-0.0387961
-0.0307413
-0.0266812
-0.0171491
-0.0172382
-0.00302029
-0.012032
0.0138116
-0.238754
-0.226839
-0.214722
-0.202463
-0.190134
-0.177813
-0.16558
-0.153515
-0.141686
-0.130163
-0.118991
-0.108235
-0.0978905
-0.0880549
-0.0786062
-0.0697926
-0.061181
-0.0535002
-0.0454741
-0.0391879
-0.0311372
-0.0269772
-0.0175232
-0.0174049
-0.00344101
-0.0119557
0.0131795
-0.239758
-0.227904
-0.215835
-0.203609
-0.191296
-0.178974
-0.166725
-0.154629
-0.142757
-0.131182
-0.119951
-0.109131
-0.0987211
-0.0888189
-0.0793073
-0.0704292
-0.0617642
-0.0540211
-0.0459599
-0.0396039
-0.0315533
-0.0272877
-0.01791
-0.0175776
-0.00387129
-0.0118749
0.0125339
-0.240427
-0.228641
-0.216629
-0.204446
-0.192163
-0.179857
-0.167609
-0.155503
-0.14361
-0.132005
-0.120737
-0.109875
-0.0994203
-0.0894693
-0.079914
-0.0709843
-0.0622845
-0.0544842
-0.0464089
-0.0399766
-0.0319555
-0.0275596
-0.0183053
-0.0177079
-0.00433267
-0.0117423
0.0118611
-0.241098
-0.229256
-0.217185
-0.204945
-0.192611
-0.180261
-0.167979
-0.155845
-0.143932
-0.132313
-0.121038
-0.11017
-0.0997182
-0.0897646
-0.0802211
-0.0712833
-0.0626101
-0.0547806
-0.046763
-0.0402492
-0.0323554
-0.0277636
-0.0187869
-0.0177611
-0.00496748
-0.011474
0.0109665
-0.239063
-0.227522
-0.215728
-0.203744
-0.191644
-0.179508
-0.167418
-0.155454
-0.143691
-0.1322
-0.121034
-0.110258
-0.0998833
-0.0899878
-0.0804991
-0.0715891
-0.0629609
-0.0551245
-0.0471637
-0.0405882
-0.0328039
-0.0280428
-0.0193119
-0.0178859
-0.00565233
-0.0112366
0.0099223
-0.236011
-0.224857
-0.213424
-0.201778
-0.189993
-0.178148
-0.166322
-0.154596
-0.143045
-0.13174
-0.120737
-0.110098
-0.0998428
-0.0900421
-0.0806383
-0.0717844
-0.063221
-0.0554007
-0.0475059
-0.0408914
-0.0332132
-0.028312
-0.019806
-0.0180235
-0.00630739
-0.0110307
0.00887572
-0.221954
-0.210899
-0.199609
-0.188155
-0.176615
-0.165071
-0.1536
-0.142278
-0.131175
-0.12035
-0.109863
-0.0997394
-0.0900459
-0.0807377
-0.07195
-0.0634595
-0.0556629
-0.0478396
-0.0411914
-0.0336227
-0.0285834
-0.0203062
-0.0181628
-0.00697564
-0.0108163
0.00779787
-0.218727
-0.208087
-0.197185
-0.186093
-0.17489
-0.163653
-0.152462
-0.141391
-0.130511
-0.119882
-0.109564
-0.0995864
-0.0900126
-0.0808103
-0.072098
-0.0636867
-0.0559206
-0.0481719
-0.0414945
-0.034036
-0.0288611
-0.0208131
-0.0183055
-0.00765602
-0.0105932
0.00669278
-0.215063
-0.204885
-0.194416
-0.183729
-0.1729
-0.162008
-0.151129
-0.14034
-0.12971
-0.119301
-0.109173
-0.0993607
-0.0899231
-0.0808399
-0.0722151
-0.0638914
-0.0561647
-0.0484942
-0.0417949
-0.0344458
-0.0291418
-0.0213192
-0.0184519
-0.00833911
-0.0103674
0.00557278
-0.210925
-0.201256
-0.191267
-0.181028
-0.170614
-0.160104
-0.149574
-0.139098
-0.128748
-0.118586
-0.108673
-0.0990459
-0.089763
-0.0808139
-0.0722905
-0.0640639
-0.056387
-0.0487991
-0.0420865
-0.0348461
-0.0294215
-0.0218188
-0.0186005
-0.00901803
-0.0101427
0.00444977
-0.206294
-0.197182
-0.187717
-0.177969
-0.168013
-0.157923
-0.147778
-0.13765
-0.12761
-0.117723
-0.108049
-0.0986296
-0.089521
-0.0807225
-0.0723152
-0.0641966
-0.0565808
-0.0490806
-0.0423643
-0.0352318
-0.0296968
-0.0223072
-0.0187498
-0.00968678
-0.00992218
0.00333587
-0.201157
-0.192646
-0.183749
-0.174535
-0.165076
-0.155447
-0.145722
-0.135976
-0.126279
-0.116695
-0.107287
-0.098099
-0.0891858
-0.0805553
-0.0722803
-0.0642813
-0.0567389
-0.0493324
-0.0426229
-0.0355979
-0.0299636
-0.0227793
-0.0188979
-0.0103391
-0.00970912
0.00224416
-0.19551
-0.18764
-0.179352
-0.170712
-0.16179
-0.152659
-0.143392
-0.134061
-0.124739
-0.115489
-0.106374
-0.0974414
-0.0887455
-0.0803018
-0.072176
-0.0643096
-0.0568538
-0.0495478
-0.0428563
-0.0359387
-0.0302178
-0.0232301
-0.019043
-0.0109685
-0.00950706
0.00118832
-0.189368
-0.182173
-0.174528
-0.166498
-0.158149
-0.149551
-0.140776
-0.131895
-0.122978
-0.114092
-0.105297
-0.0966449
-0.0881889
-0.0799515
-0.0719929
-0.0642729
-0.0569176
-0.0497197
-0.0430586
-0.0362486
-0.030455
-0.0236546
-0.0191831
-0.0115686
-0.00931944
0.000182144
-0.182763
-0.176266
-0.169293
-0.161901
-0.154155
-0.146122
-0.13787
-0.129469
-0.120989
-0.112494
-0.104047
-0.0956993
-0.0875062
-0.079495
-0.0717221
-0.064163
-0.056923
-0.0498417
-0.0432237
-0.0365224
-0.0306708
-0.0240481
-0.0193163
-0.0121334
-0.0091495
-0.000761121
-0.175743
-0.169959
-0.163675
-0.156943
-0.149824
-0.14238
-0.134678
-0.126784
-0.118767
-0.11069
-0.102615
-0.0945972
-0.0866893
-0.0789244
-0.0713557
-0.0639726
-0.0568631
-0.0499075
-0.0433461
-0.0367551
-0.0308611
-0.0244063
-0.0194405
-0.0126573
-0.009
-0.00162936
-0.168369
-0.163302
-0.157715
-0.151655
-0.145178
-0.138343
-0.131211
-0.123847
-0.116315
-0.10868
-0.101001
-0.0933343
-0.0857328
-0.0782336
-0.0708874
-0.0636955
-0.0567318
-0.0499117
-0.0434206
-0.0369423
-0.031022
-0.0247253
-0.0195542
-0.0131356
-0.00887312
-0.00241224
-0.160715
-0.156358
-0.151465
-0.146081
-0.140253
-0.134036
-0.127488
-0.12067
-0.113643
-0.106468
-0.0992057
-0.0919099
-0.0846344
-0.0774192
-0.0703131
-0.0633274
-0.0565245
-0.04985
-0.043443
-0.0370803
-0.0311503
-0.0250023
-0.0196555
-0.0135643
-0.0087702
-0.00310187
-0.152863
-0.149197
-0.144987
-0.14027
-0.13509
-0.129495
-0.123538
-0.117275
-0.110765
-0.104066
-0.0972353
-0.0903275
-0.0833951
-0.0764804
-0.0696307
-0.0628655
-0.0562381
-0.0497194
-0.0434101
-0.0371665
-0.0312434
-0.025235
-0.0197434
-0.0139408
-0.00869161
-0.00369333
-0.144895
-0.141894
-0.138345
-0.134281
-0.129737
-0.124759
-0.119392
-0.113688
-0.107702
-0.101488
-0.0951012
-0.0885947
-0.0820197
-0.0754199
-0.0688411
-0.0623095
-0.0558712
-0.0495183
-0.0433199
-0.0371993
-0.0312994
-0.0254221
-0.0198165
-0.0142635
-0.00863662
-0.00418496
-0.136893
-0.134522
-0.131606
-0.128171
-0.124247
-0.119872
-0.115088
-0.10994
-0.104479
-0.0987545
-0.0928189
-0.0867229
-0.0805161
-0.0742428
-0.0679474
-0.0616612
-0.0554244
-0.0492466
-0.0431717
-0.0371781
-0.0313173
-0.0255631
-0.0198743
-0.0145322
-0.00860359
-0.0045783
-0.128935
-0.127154
-0.124836
-0.122001
-0.118673
-0.114883
-0.110667
-0.106067
-0.101125
-0.0958895
-0.0904074
-0.084727
-0.0788957
-0.0729576
-0.0669555
-0.0609245
-0.0549002
-0.048906
-0.0429662
-0.0371035
-0.0312971
-0.0256587
-0.019916
-0.014748
-0.00859008
-0.00487798
-0.121091
-0.119857
-0.118098
-0.115828
-0.113066
-0.109837
-0.106172
-0.102104
-0.0976723
-0.0929193
-0.0878885
-0.0826247
-0.0771726
-0.0715753
-0.0658737
-0.0601055
-0.0543028
-0.0484995
-0.0427053
-0.0369773
-0.0312394
-0.0257103
-0.0199414
-0.0149132
-0.00859288
-0.00509138
-0.113426
-0.112691
-0.111449
-0.109707
-0.107479
-0.104783
-0.101643
-0.0980888
-0.0941529
-0.0898723
-0.0852863
-0.0804361
-0.0753631
-0.0701088
-0.0647122
-0.0592122
-0.0536381
-0.0480318
-0.0423921
-0.036802
-0.0311457
-0.0257199
-0.0199504
-0.0150311
-0.00860833
-0.00522809
-0.105994
-0.105713
-0.104943
-0.103689
-0.101959
-0.099764
-0.0971232
-0.0940596
-0.0906007
-0.0867782
-0.0826267
-0.0781831
-0.0734857
-0.0685734
-0.0634832
-0.0582543
-0.0529138
-0.0475087
-0.0420309
-0.0365815
-0.0310179
-0.0256906
-0.0199429
-0.0151059
-0.00863251
-0.00529918
-0.0988467
-0.0989704
-0.0986299
-0.097823
-0.0965522
-0.0948246
-0.0926526
-0.0900537
-0.0870499
-0.0836676
-0.0799364
-0.0758892
-0.0715602
-0.0669858
-0.0622005
-0.057243
-0.0521385
-0.0469373
-0.041627
-0.03632
-0.0308588
-0.0256257
-0.0199192
-0.0151422
-0.00866152
-0.00531646
-0.0920261
-0.0925092
-0.0925535
-0.0921521
-0.0913023
-0.0900062
-0.0882708
-0.0861082
-0.0835348
-0.0805716
-0.0772436
-0.0735789
-0.0696081
-0.0653644
-0.0608795
-0.056191
-0.0513227
-0.0463259
-0.0411866
-0.036023
-0.0306717
-0.0255292
-0.0198798
-0.0151453
-0.00869181
-0.00529168
-0.0855711
-0.0863696
-0.0867557
-0.0867184
-0.0862506
-0.0853495
-0.0840171
-0.0822601
-0.0800898
-0.0775221
-0.074577
-0.0712782
-0.0676522
-0.0637288
-0.059537
-0.0551125
-0.0504777
-0.0456839
-0.0407169
-0.0356964
-0.0304603
-0.0254054
-0.0198255
-0.0151206
-0.00872033
-0.00523592
-0.0795168
-0.080589
-0.0812756
-0.0815621
-0.0814373
-0.0808942
-0.07993
-0.0785465
-0.0767502
-0.0745519
-0.0719668
-0.0690143
-0.0657166
-0.0621002
-0.0581912
-0.0540229
-0.0496164
-0.0450219
-0.0402262
-0.0353472
-0.0302294
-0.0252593
-0.0197576
-0.0150732
-0.00874475
-0.00515905
-0.0738959
-0.0752027
-0.0761505
-0.0767217
-0.0769017
-0.0766795
-0.0760481
-0.0750049
-0.0735516
-0.0716945
-0.0694443
-0.0668157
-0.0638272
-0.0605016
-0.056862
-0.0529392
-0.048753
-0.0443517
-0.0397238
-0.0349831
-0.0299841
-0.0250961
-0.019678
-0.0150085
-0.00876361
-0.00506942
-0.0687393
-0.0702447
-0.0714169
-0.0722354
-0.0726829
-0.0727448
-0.0724106
-0.0716735
-0.0705311
-0.0689851
-0.0670421
-0.0647126
-0.0620114
-0.0589573
-0.0555709
-0.05188
-0.0479034
-0.0436865
-0.0392204
-0.0346128
-0.0297308
-0.0249216
-0.0195894
-0.0149315
-0.00877631
-0.00497375
-0.0640778
-0.0657491
-0.0671111
-0.0681415
-0.0688203
-0.0691303
-0.0690576
-0.0685918
-0.0677266
-0.0664601
-0.0647947
-0.0627371
-0.0602982
-0.0574937
-0.0543411
-0.0508656
-0.0470846
-0.0430408
-0.0387275
-0.034246
-0.0294764
-0.0247421
-0.0194948
-0.0148471
-0.0087831
-0.00487716
-0.0599433
-0.0617507
-0.0632706
-0.0644793
-0.0653548
-0.0658774
-0.0660305
-0.0658007
-0.0651783
-0.0641579
-0.0627383
-0.0609228
-0.0587188
-0.0561388
-0.0531977
-0.0499178
-0.0463154
-0.0424303
-0.0382582
-0.0338934
-0.029229
-0.0245644
-0.0193986
-0.0147599
-0.00878506
-0.00478339
-0.0563701
-0.0582867
-0.0599351
-0.0612905
-0.0623292
-0.0630297
-0.0633731
-0.0633435
-0.0629283
-0.062119
-0.0609114
-0.0593057
-0.0573063
-0.0549228
-0.0521675
-0.0490603
-0.0456163
-0.0418725
-0.0378266
-0.0335666
-0.0289976
-0.024396
-0.0193053
-0.0146747
-0.00878386
-0.00469509
-0.0533972
-0.0553986
-0.0571482
-0.0586201
-0.0597898
-0.0606341
-0.0611322
-0.0612663
-0.0610214
-0.0603866
-0.059355
-0.0579242
-0.056096
-0.0538776
-0.0512791
-0.0483182
-0.045009
-0.0413857
-0.0374481
-0.0332781
-0.0287918
-0.0242445
-0.0192204
-0.0145961
-0.00878137
-0.00461403
-0.05107
-0.053134
-0.0549591
-0.0565189
-0.0577878
-0.0587418
-0.0593588
-0.059619
-0.059506
-0.059007
-0.0581128
-0.0568191
-0.0551256
-0.0530375
-0.0505631
-0.0477184
-0.0445165
-0.0409896
-0.0371389
-0.0330412
-0.0286219
-0.0241184
-0.0191495
-0.0145293
-0.00877983
-0.00454056
-0.049444
-0.0515497
-0.0534256
-0.0550449
-0.0563815
-0.0574106
-0.0581092
-0.0584566
-0.0584351
-0.0580303
-0.057232
-0.0560341
-0.0544351
-0.0524385
-0.0500517
-0.047289
-0.0441632
-0.0407045
-0.0369159
-0.0328694
-0.0284989
-0.0240254
-0.0190995
-0.0144777
-0.0087865
-0.00447163
-0.0485877
-0.0507149
-0.0526169
-0.0542669
-0.0556387
-0.0567069
-0.057448
-0.057841
-0.0578673
-0.057512
-0.0567641
-0.0556167
-0.0540675
-0.0521193
-0.0497788
-0.0470596
-0.0439742
-0.0405516
-0.0367966
-0.0327761
-0.0284344
-0.0239717
-0.0190796
-0.0144388
-0.00881723
-0.00440531
-0.0462624
-0.0485877
-0.0507149
-0.0526169
-0.054267
-0.0556387
-0.0567069
-0.0574481
-0.057841
-0.0578673
-0.0575121
-0.0567641
-0.0556167
-0.0540675
-0.0521193
-0.0497788
-0.0470596
-0.0439742
-0.0405516
-0.0367967
-0.0327761
-0.0284344
-0.0239717
-0.0190796
-0.0144388
-0.00881725
-0.00440532
-0.0471354
-0.049444
-0.0515497
-0.0534256
-0.0550449
-0.0563815
-0.0574106
-0.0581092
-0.0584566
-0.0584351
-0.0580303
-0.057232
-0.0560341
-0.0544351
-0.0524386
-0.0500517
-0.0472891
-0.0441632
-0.0407046
-0.0369159
-0.0328694
-0.0284989
-0.0240255
-0.0190996
-0.0144777
-0.00878651
-0.00447164
-0.0487939
-0.05107
-0.053134
-0.0549591
-0.0565189
-0.0577879
-0.0587419
-0.0593588
-0.059619
-0.0595061
-0.059007
-0.0581129
-0.0568191
-0.0551257
-0.0530375
-0.0505632
-0.0477184
-0.0445165
-0.0409896
-0.037139
-0.0330412
-0.028622
-0.0241184
-0.0191495
-0.0145293
-0.00877984
-0.00454057
-0.0511707
-0.0533972
-0.0553986
-0.0571482
-0.0586202
-0.0597898
-0.0606341
-0.0611323
-0.0612663
-0.0610214
-0.0603866
-0.0593551
-0.0579242
-0.0560961
-0.0538776
-0.0512792
-0.0483183
-0.045009
-0.0413857
-0.0374482
-0.0332781
-0.0287918
-0.0242445
-0.0192204
-0.0145962
-0.00878138
-0.00461404
-0.0542117
-0.0563702
-0.0582867
-0.0599351
-0.0612905
-0.0623292
-0.0630298
-0.0633732
-0.0633435
-0.0629283
-0.0621191
-0.0609115
-0.0593057
-0.0573063
-0.0549228
-0.0521675
-0.0490603
-0.0456163
-0.0418725
-0.0378267
-0.0335666
-0.0289976
-0.024396
-0.0193053
-0.0146747
-0.00878388
-0.0046951
-0.0578741
-0.0599433
-0.0617507
-0.0632706
-0.0644793
-0.0653548
-0.0658775
-0.0660305
-0.0658007
-0.0651783
-0.064158
-0.0627383
-0.0609228
-0.0587188
-0.0561388
-0.0531977
-0.0499178
-0.0463155
-0.0424304
-0.0382582
-0.0338934
-0.0292291
-0.0245645
-0.0193986
-0.01476
-0.00878508
-0.0047834
-0.0621217
-0.0640778
-0.0657491
-0.0671111
-0.0681415
-0.0688203
-0.0691304
-0.0690576
-0.0685918
-0.0677266
-0.0664602
-0.0647947
-0.0627371
-0.0602982
-0.0574937
-0.0543411
-0.0508656
-0.0470846
-0.0430408
-0.0387275
-0.0342461
-0.0294764
-0.0247421
-0.0194949
-0.0148471
-0.00878312
-0.00487717
-0.0669235
-0.0687393
-0.0702448
-0.0714169
-0.0722355
-0.0726829
-0.0727448
-0.0724106
-0.0716736
-0.0705311
-0.0689852
-0.0670421
-0.0647127
-0.0620114
-0.0589574
-0.0555709
-0.05188
-0.0479034
-0.0436865
-0.0392204
-0.0346129
-0.0297308
-0.0249216
-0.0195894
-0.0149316
-0.00877632
-0.00497376
-0.0722512
-0.0738959
-0.0752027
-0.0761506
-0.0767217
-0.0769017
-0.0766795
-0.0760481
-0.0750049
-0.0735517
-0.0716946
-0.0694443
-0.0668157
-0.0638273
-0.0605016
-0.056862
-0.0529392
-0.0487531
-0.0443518
-0.0397239
-0.0349831
-0.0299842
-0.0250961
-0.0196781
-0.0150086
-0.00876363
-0.00506944
-0.0780778
-0.0795169
-0.080589
-0.0812756
-0.0815621
-0.0814373
-0.0808942
-0.07993
-0.0785465
-0.0767502
-0.0745519
-0.0719668
-0.0690143
-0.0657167
-0.0621003
-0.0581912
-0.0540229
-0.0496164
-0.0450219
-0.0402262
-0.0353472
-0.0302294
-0.0252593
-0.0197576
-0.0150733
-0.00874477
-0.00515907
-0.0843756
-0.0855711
-0.0863696
-0.0867558
-0.0867184
-0.0862506
-0.0853495
-0.0840171
-0.0822601
-0.0800898
-0.0775222
-0.074577
-0.0712782
-0.0676522
-0.0637288
-0.059537
-0.0551125
-0.0504777
-0.045684
-0.0407169
-0.0356965
-0.0304604
-0.0254055
-0.0198255
-0.0151206
-0.00872035
-0.00523594
-0.0911158
-0.0920261
-0.0925093
-0.0925535
-0.0921521
-0.0913023
-0.0900062
-0.0882709
-0.0861082
-0.0835348
-0.0805716
-0.0772436
-0.0735789
-0.0696081
-0.0653644
-0.0608796
-0.0561911
-0.0513227
-0.046326
-0.0411866
-0.036023
-0.0306717
-0.0255292
-0.0198798
-0.0151454
-0.00869183
-0.0052917
-0.0982665
-0.0988468
-0.0989704
-0.0986299
-0.097823
-0.0965522
-0.0948246
-0.0926526
-0.0900537
-0.0870499
-0.0836676
-0.0799364
-0.0758892
-0.0715602
-0.0669859
-0.0622006
-0.057243
-0.0521386
-0.0469374
-0.0416271
-0.0363201
-0.0308589
-0.0256258
-0.0199192
-0.0151422
-0.00866155
-0.00531648
-0.105792
-0.105994
-0.105713
-0.104943
-0.103689
-0.101959
-0.099764
-0.0971232
-0.0940596
-0.0906007
-0.0867782
-0.0826267
-0.0781831
-0.0734857
-0.0685734
-0.0634832
-0.0582543
-0.0529138
-0.0475087
-0.042031
-0.0365815
-0.031018
-0.0256907
-0.0199429
-0.0151059
-0.00863253
-0.0052992
-0.11365
-0.113426
-0.112691
-0.111449
-0.109707
-0.107479
-0.104783
-0.101643
-0.0980888
-0.0941529
-0.0898723
-0.0852863
-0.0804361
-0.0753631
-0.0701088
-0.0647122
-0.0592122
-0.0536382
-0.0480319
-0.0423922
-0.0368021
-0.0311458
-0.02572
-0.0199504
-0.0150312
-0.00860836
-0.00522811
-0.121793
-0.121091
-0.119857
-0.118098
-0.115828
-0.113066
-0.109837
-0.106172
-0.102104
-0.0976723
-0.0929193
-0.0878885
-0.0826247
-0.0771726
-0.0715753
-0.0658737
-0.0601055
-0.0543028
-0.0484996
-0.0427054
-0.0369774
-0.0312395
-0.0257104
-0.0199415
-0.0149133
-0.00859291
-0.0050914
-0.130164
-0.128935
-0.127154
-0.124836
-0.122001
-0.118673
-0.114883
-0.110667
-0.106067
-0.101125
-0.0958894
-0.0904074
-0.084727
-0.0788957
-0.0729577
-0.0669556
-0.0609245
-0.0549003
-0.048906
-0.0429663
-0.0371036
-0.0312972
-0.0256588
-0.0199161
-0.0147481
-0.00859011
-0.004878
-0.138699
-0.136893
-0.134522
-0.131606
-0.128171
-0.124247
-0.119872
-0.115088
-0.10994
-0.104479
-0.0987544
-0.0928189
-0.0867229
-0.0805161
-0.0742428
-0.0679474
-0.0616612
-0.0554245
-0.0492467
-0.0431718
-0.0371782
-0.0313174
-0.0255632
-0.0198744
-0.0145323
-0.00860363
-0.00457833
-0.147323
-0.144895
-0.141894
-0.138345
-0.134281
-0.129737
-0.124758
-0.119392
-0.113688
-0.107702
-0.101488
-0.0951012
-0.0885947
-0.0820197
-0.0754199
-0.0688411
-0.0623096
-0.0558713
-0.0495183
-0.04332
-0.0371994
-0.0312995
-0.0254222
-0.0198166
-0.0142636
-0.00863665
-0.00418499
-0.155954
-0.152863
-0.149197
-0.144987
-0.14027
-0.13509
-0.129495
-0.123538
-0.117275
-0.110765
-0.104066
-0.0972352
-0.0903275
-0.0833951
-0.0764805
-0.0696308
-0.0628656
-0.0562381
-0.0497195
-0.0434102
-0.0371666
-0.0312435
-0.0252351
-0.0197434
-0.0139409
-0.00869165
-0.00369336
-0.164502
-0.160715
-0.156358
-0.151465
-0.146081
-0.140253
-0.134036
-0.127488
-0.12067
-0.113643
-0.106468
-0.0992056
-0.0919099
-0.0846344
-0.0774192
-0.0703131
-0.0633274
-0.0565246
-0.0498501
-0.0434431
-0.0370804
-0.0311504
-0.0250024
-0.0196556
-0.0135644
-0.00877025
-0.0031019
-0.172874
-0.168369
-0.163302
-0.157715
-0.151655
-0.145178
-0.138343
-0.131211
-0.123846
-0.116315
-0.10868
-0.101001
-0.0933343
-0.0857328
-0.0782336
-0.0708874
-0.0636956
-0.0567319
-0.0499118
-0.0434207
-0.0369424
-0.0310222
-0.0247255
-0.0195543
-0.0131356
-0.00887317
-0.00241227
-0.180979
-0.175743
-0.169959
-0.163674
-0.156943
-0.149824
-0.14238
-0.134678
-0.126784
-0.118767
-0.11069
-0.102615
-0.0945972
-0.0866892
-0.0789244
-0.0713557
-0.0639726
-0.0568632
-0.0499076
-0.0433462
-0.0367552
-0.0308612
-0.0244064
-0.0194407
-0.0126574
-0.00900005
-0.00162939
-0.188733
-0.182763
-0.176266
-0.169293
-0.161901
-0.154155
-0.146122
-0.13787
-0.129469
-0.120989
-0.112494
-0.104046
-0.0956993
-0.0875062
-0.079495
-0.0717221
-0.064163
-0.0569231
-0.0498418
-0.0432239
-0.0365226
-0.030671
-0.0240482
-0.0193164
-0.0121335
-0.00914955
-0.000761156
-0.19606
-0.189368
-0.182172
-0.174528
-0.166498
-0.158149
-0.149551
-0.140775
-0.131895
-0.122978
-0.114092
-0.105297
-0.0966448
-0.0881889
-0.0799515
-0.071993
-0.064273
-0.0569177
-0.0497198
-0.0430587
-0.0362488
-0.0304551
-0.0236548
-0.0191832
-0.0115687
-0.0093195
0.000182109
-0.202901
-0.19551
-0.18764
-0.179352
-0.170712
-0.16179
-0.152659
-0.143391
-0.134061
-0.124739
-0.115489
-0.106374
-0.0974413
-0.0887455
-0.0803018
-0.072176
-0.0643097
-0.0568538
-0.0495479
-0.0428564
-0.0359388
-0.0302179
-0.0232302
-0.0190431
-0.0109686
-0.00950711
0.00118829
-0.209217
-0.201157
-0.192646
-0.183748
-0.174535
-0.165076
-0.155447
-0.145722
-0.135976
-0.126279
-0.116695
-0.107287
-0.0980989
-0.0891858
-0.0805553
-0.0722803
-0.0642814
-0.056739
-0.0493326
-0.042623
-0.035598
-0.0299637
-0.0227794
-0.018898
-0.0103392
-0.00970918
0.00224413
-0.214985
-0.206294
-0.197182
-0.187717
-0.177969
-0.168013
-0.157923
-0.147778
-0.137649
-0.12761
-0.117723
-0.108049
-0.0986295
-0.089521
-0.0807225
-0.0723152
-0.0641966
-0.0565808
-0.0490807
-0.0423644
-0.035232
-0.0296969
-0.0223073
-0.0187499
-0.00968688
-0.00992224
0.00333584
-0.220203
-0.210925
-0.201256
-0.191267
-0.181027
-0.170614
-0.160104
-0.149574
-0.139098
-0.128748
-0.118586
-0.108673
-0.0990458
-0.0897629
-0.0808139
-0.0722905
-0.0640639
-0.0563871
-0.0487992
-0.0420866
-0.0348462
-0.0294217
-0.021819
-0.0186006
-0.00901813
-0.0101428
0.00444973
-0.22488
-0.215063
-0.204885
-0.194416
-0.183729
-0.1729
-0.162008
-0.151129
-0.14034
-0.12971
-0.119301
-0.109173
-0.0993606
-0.089923
-0.0808399
-0.0722151
-0.0638914
-0.0561648
-0.0484943
-0.041795
-0.0344459
-0.0291419
-0.0213194
-0.018452
-0.00833922
-0.0103675
0.00557274
-0.229035
-0.218727
-0.208087
-0.197184
-0.186093
-0.17489
-0.163653
-0.152462
-0.141391
-0.130511
-0.119882
-0.109564
-0.0995863
-0.0900125
-0.0808102
-0.072098
-0.0636867
-0.0559207
-0.048172
-0.0414946
-0.0340361
-0.0288612
-0.0208132
-0.0183056
-0.00765613
-0.0105933
0.00669274
-0.232705
-0.221954
-0.210899
-0.199608
-0.188154
-0.176615
-0.165071
-0.1536
-0.142277
-0.131175
-0.12035
-0.109863
-0.0997393
-0.0900458
-0.0807377
-0.07195
-0.0634595
-0.055663
-0.0478397
-0.0411915
-0.0336228
-0.0285836
-0.0203063
-0.0181629
-0.00697575
-0.0108164
0.00779783
-0.236011
-0.224857
-0.213424
-0.201778
-0.189993
-0.178147
-0.166322
-0.154596
-0.143045
-0.13174
-0.120737
-0.110098
-0.0998427
-0.090042
-0.0806382
-0.0717843
-0.063221
-0.0554007
-0.047506
-0.0408916
-0.0332134
-0.0283121
-0.0198061
-0.0180236
-0.00630749
-0.0110307
0.00887568
-0.239063
-0.227522
-0.215728
-0.203744
-0.191644
-0.179508
-0.167418
-0.155454
-0.14369
-0.132199
-0.121034
-0.110257
-0.0998832
-0.0899877
-0.080499
-0.0715891
-0.062961
-0.0551245
-0.0471638
-0.0405884
-0.0328041
-0.028043
-0.019312
-0.017886
-0.00565243
-0.0112367
0.00992227
-0.241098
-0.229256
-0.217185
-0.204945
-0.192611
-0.180261
-0.167979
-0.155845
-0.143932
-0.132313
-0.121038
-0.11017
-0.099718
-0.0897646
-0.080221
-0.0712833
-0.0626101
-0.0547807
-0.046763
-0.0402493
-0.0323555
-0.0277637
-0.0187871
-0.0177612
-0.00496758
-0.011474
0.0109665
-0.240427
-0.228641
-0.216629
-0.204446
-0.192162
-0.179856
-0.167609
-0.155502
-0.14361
-0.132004
-0.120737
-0.109874
-0.0994202
-0.0894693
-0.0799139
-0.0709843
-0.0622845
-0.0544843
-0.046409
-0.0399767
-0.0319556
-0.0275597
-0.0183054
-0.017708
-0.00433277
-0.0117423
0.0118611
-0.239758
-0.227903
-0.215835
-0.203609
-0.191296
-0.178974
-0.166725
-0.154628
-0.142757
-0.131182
-0.119951
-0.109131
-0.0987211
-0.0888189
-0.0793072
-0.0704292
-0.0617642
-0.0540211
-0.04596
-0.039604
-0.0315534
-0.0272878
-0.0179101
-0.0175777
-0.00387139
-0.0118749
0.0125338
-0.238754
-0.226839
-0.214722
-0.202463
-0.190134
-0.177813
-0.16558
-0.153515
-0.141686
-0.130163
-0.118991
-0.108235
-0.0978904
-0.0880548
-0.0786062
-0.0697926
-0.061181
-0.0535003
-0.0454742
-0.039188
-0.0311373
-0.0269774
-0.0175233
-0.017405
-0.00344111
-0.0119558
0.0131795
-0.237749
-0.225795
-0.213649
-0.201373
-0.189041
-0.17673
-0.16452
-0.152489
-0.140703
-0.129231
-0.118114
-0.107417
-0.0971313
-0.0873553
-0.0779626
-0.069206
-0.060641
-0.0530156
-0.0450189
-0.0387962
-0.0307414
-0.0266813
-0.0171493
-0.0172383
-0.00302039
-0.012032
0.0138116
-0.236761
-0.224778
-0.212612
-0.200327
-0.187996
-0.1757
-0.163515
-0.151518
-0.139775
-0.128351
-0.117287
-0.106645
-0.0964142
-0.0866937
-0.0773525
-0.0686487
-0.0601261
-0.0525527
-0.0445816
-0.0384201
-0.0303576
-0.0263964
-0.0167829
-0.0170789
-0.00260509
-0.0121089
0.0144319
-0.247537
-0.235757
-0.223753
-0.211572
-0.199283
-0.186959
-0.17468
-0.162524
-0.150563
-0.138864
-0.127489
-0.116477
-0.105889
-0.0957129
-0.0860468
-0.076756
-0.0681038
-0.0596227
-0.0520998
-0.0441536
-0.0380518
-0.0299816
-0.0261171
-0.0164237
-0.0169225
-0.00219769
-0.0121825
0.015038
-0.246531
-0.234736
-0.222718
-0.21053
-0.198242
-0.18593
-0.173673
-0.161547
-0.149625
-0.13797
-0.126645
-0.115685
-0.105151
-0.0950284
-0.0854154
-0.0761741
-0.0675721
-0.0591315
-0.0516575
-0.0437359
-0.0376915
-0.0296145
-0.0258435
-0.0160729
-0.0167684
-0.00180022
-0.0122513
0.0156277
-0.245507
-0.233706
-0.221682
-0.209495
-0.197214