/*--------------------------------*- C++ -*----------------------------------*\
  =========                 |
  \\      /  F ield         | OpenFOAM: The Open Source CFD Toolbox
   \\    /   O peration     | Website:  https://openfoam.org
    \\  /    A nd           | Version:  7
     \\/     M anipulation  |
\*---------------------------------------------------------------------------*/
FoamFile
{
    version     2.0;
    format      ascii;
    class       surfaceScalarField;
    location    "10";
    object      phi;
}
// * * * * * * * * * * * * * * * * * * * * * * * * * * * * * * * * * * * * * //

dimensions      [0 3 -1 0 0 0 0];

internalField   nonuniform List<scalar> 
6401
(
-5.25363e-05
-2.60343e-05
-1.60878e-09
-2.1045e-05
-3.14896e-05
-1.65929e-09
1.55606e-05
-3.6604e-05
-1.66896e-09
5.6869e-05
-4.13068e-05
-1.62248e-09
0.000102435
-4.55643e-05
-1.50589e-09
0.000151805
-4.93687e-05
-1.30949e-09
0.000204535
-5.27297e-05
-1.02718e-09
0.000260204
-5.56676e-05
-6.54699e-10
0.000318412
-5.82085e-05
-1.93333e-10
0.000378794
-6.03815e-05
3.55392e-10
0.000441009
-6.22166e-05
9.83028e-10
0.000504752
-6.37449e-05
1.67976e-09
0.000569746
-6.4996e-05
2.42686e-09
0.000635746
-6.60038e-05
3.20197e-09
0.000702537
-6.67942e-05
3.9736e-09
0.000769945
-6.7413e-05
4.7035e-09
0.000837807
-6.7867e-05
5.34477e-09
0.000906048
-6.82476e-05
5.84558e-09
0.000974521
-6.84789e-05
6.14826e-09
0.00104334
-6.88213e-05
6.19343e-09
0.00111221
-6.88809e-05
5.93148e-09
0.00118173
-6.95223e-05
5.30717e-09
0.00125095
-6.9223e-05
4.31705e-09
0.00132187
-7.09234e-05
2.90654e-09
0.00139119
-6.93286e-05
1.22184e-09
0.00146528
-7.4083e-05
-9.15583e-10
0.00153378
-6.84976e-05
-2.89299e-09
0.00161403
-8.02423e-05
-5.49423e-09
-7.00136e-05
-7.20297e-09
-4.61537e-05
-5.21138e-05
-1.46648e-05
-6.29784e-05
2.18946e-05
-7.31634e-05
6.3117e-05
-8.25292e-05
0.000108563
-9.10097e-05
0.000157784
-9.85898e-05
0.000210343
-0.000105289
0.000265822
-0.000111147
0.000323828
-0.000116215
0.000383999
-0.000120552
0.000445998
-0.000124216
0.000509523
-0.00012727
0.000574298
-0.000129771
0.000640083
-0.000131788
0.00070666
-0.000133372
0.000773861
-0.000134614
0.000841521
-0.000135527
0.000909568
-0.000136295
0.000977854
-0.000136765
0.00104649
-0.000137458
0.0011152
-0.000137586
0.00118455
-0.000138879
0.00125362
-0.00013829
0.0013244
-0.000141703
0.0013936
-0.000138527
0.00146756
-0.000148046
0.00153596
-0.000136898
0.0016161
-0.000160379
-0.000139983
-3.34413e-05
-7.82776e-05
-1.95946e-06
-9.44602e-05
3.45054e-05
-0.000109628
7.55545e-05
-0.000123578
0.000120759
-0.000136214
0.000169682
-0.000147513
0.000221898
-0.000157505
0.000276999
-0.000166248
0.000334603
-0.000173819
0.000394354
-0.000180303
0.000455923
-0.000185786
0.000519013
-0.00019036
0.000583354
-0.000194112
0.000648709
-0.000197143
0.000714864
-0.000199527
0.000781652
-0.000201402
0.000848912
-0.000202787
0.000916572
-0.000203955
0.000984487
-0.000204679
0.00105277
-0.00020574
0.00112114
-0.000205953
0.00119017
-0.000207916
0.00125894
-0.000207058
0.00132944
-0.000212204
0.00139838
-0.000207469
0.00147211
-0.00022177
0.00154031
-0.000205102
0.00162023
-0.000240297
-0.000209853
-1.45039e-05
-0.000104561
1.69609e-05
-0.000125925
5.32793e-05
-0.000145947
9.4065e-05
-0.000164364
0.000138905
-0.000181054
0.000187381
-0.000195989
0.000239083
-0.000209207
0.00029362
-0.000220785
0.000350623
-0.000230822
0.000409748
-0.000239427
0.000470677
-0.000246715
0.000533121
-0.000252804
0.000596817
-0.000257808
0.000661532
-0.000261858
0.00072706
-0.000265054
0.000793236
-0.000267578
0.000859901
-0.000269452
0.000926989
-0.000271043
0.000994353
-0.000272043
0.00106211
-0.000273496
0.00112998
-0.00027382
0.00119854
-0.000276483
0.00126687
-0.000275382
0.00133696
-0.000282292
0.00140552
-0.000276032
0.00147889
-0.000295141
0.0015468
-0.000273014
0.0016264
-0.000319891
-0.000279576
1.05032e-05
-0.000130991
4.1934e-05
-0.000157356
7.80478e-05
-0.00018206
0.000118476
-0.000204792
0.000162826
-0.000225404
0.000210705
-0.000243867
0.000261724
-0.000260226
0.000315512
-0.000274574
0.00037172
-0.000287029
0.000430018
-0.000297726
0.000490102
-0.0003068
0.000551695
-0.000314396
0.00061454
-0.000320654
0.000678416
-0.000325733
0.000743118
-0.000329757
0.00080849
-0.00033295
0.000874376
-0.000335338
0.000940712
-0.000337379
0.00100735
-0.000338685
0.00107442
-0.000340565
0.00114164
-0.000341033
0.00120959
-0.000344433
0.00127733
-0.000343127
0.00134688
-0.000351842
0.00141495
-0.000344103
0.00148786
-0.000368052
0.0015554
-0.000340549
0.00163457
-0.000399063
-0.00034911
4.13758e-05
-0.000157584
7.2746e-05
-0.000188726
0.000108589
-0.000217903
0.000148559
-0.000244762
0.000192292
-0.000269138
0.000239422
-0.000290997
0.00028959
-0.000310394
0.00034245
-0.000327433
0.000397673
-0.000342252
0.00045495
-0.000355003
0.000513992
-0.000365842
0.000574536
-0.000374939
0.000636336
-0.000382454
0.000699179
-0.000388576
0.00076287
-0.000393448
0.000827256
-0.000397336
0.000892187
-0.000400269
0.000957603
-0.000402796
0.00102336
-0.000404445
0.00108959
-0.000406793
0.00115601
-0.000407448
0.0012232
-0.000411632
0.00129024
-0.000410167
0.00135914
-0.000420736
0.00142661
-0.000411574
0.00149896
-0.000440405
0.00156604
-0.000407629
0.00164471
-0.000477726
-0.000418421
7.78642e-05
-0.000184341
0.000109134
-0.000219996
0.000144631
-0.0002534
0.000184036
-0.000284167
0.00022702
-0.000312121
0.000273251
-0.000337227
0.000322401
-0.000359544
0.000374155
-0.000379188
0.000428211
-0.000396308
0.00048428
-0.000411072
0.000542094
-0.000423656
0.000601401
-0.000434247
0.000661972
-0.000443025
0.000723603
-0.000450207
0.000786106
-0.000455951
0.000849337
-0.000460567
0.00091315
-0.000464082
0.000977492
-0.000467137
0.00104222
-0.000469175
0.00110747
-0.000472041
0.00117295
-0.000472932
0.00123928
-0.000477956
0.0013055
-0.000476386
0.00137363
-0.000488871
0.00144041
-0.000478352
0.00151212
-0.000512112
0.00157867
-0.000474185
0.00165675
-0.0005558
-0.000487479
0.000119676
-0.000211247
0.000150791
-0.000251112
0.000185853
-0.000288462
0.000224579
-0.000322893
0.000266677
-0.00035422
0.000311856
-0.000382406
0.000359826
-0.000407514
0.000410304
-0.000429666
0.000463017
-0.000449021
0.000517702
-0.000465757
0.000574109
-0.000480063
0.000632007
-0.000492144
0.000691178
-0.000502196
0.00075143
-0.000510459
0.000812585
-0.000517106
0.000874506
-0.000522488
0.000937053
-0.000526629
0.00100018
-0.000530263
0.00106375
-0.000532742
0.00112789
-0.000536184
0.00119232
-0.000537368
0.00125767
-0.000543296
0.00132296
-0.000541686
0.00139025
-0.000556154
0.00145625
-0.000544357
0.00152724
-0.000583099
0.00159322
-0.000540163
0.00167064
-0.000633219
-0.000556264
0.000166477
-0.000238265
0.000197366
-0.000282
0.000231892
-0.000322989
0.000269814
-0.000360815
0.000310886
-0.000395292
0.000354861
-0.000426381
0.00040149
-0.000454143
0.000450528
-0.000478704
0.000501732
-0.000500224
0.000554866
-0.000518891
0.000609704
-0.000534901
0.000666031
-0.000548471
0.000723646
-0.000559811
0.000782368
-0.000569181
0.000842031
-0.000576769
0.000902504
-0.000582962
0.000963654
-0.00058778
0.00102544
-0.000592049
0.00108773
-0.000595028
0.00115065
-0.000599112
0.00121394
-0.000600655
0.00127821
-0.000607562
0.0013425
-0.000605981
0.00140886
-0.00062251
0.00147402
-0.00060952
0.00154423
-0.000653305
0.00160958
-0.000605518
0.0016863
-0.000709932
-0.000624767
0.0002179
-0.000265332
0.000248468
-0.000312569
0.000282342
-0.000356862
0.000319327
-0.0003978
0.000359227
-0.000435193
0.000401846
-0.000468999
0.000446978
-0.000499276
0.000494419
-0.000526144
0.000543958
-0.000549764
0.000595389
-0.000570322
0.000648507
-0.00058802
0.000703119
-0.000603083
0.000759038
-0.000615731
0.000816098
-0.000626241
0.000874141
-0.000634811
0.000933046
-0.000641867
0.000992686
-0.00064742
0.00105303
-0.000652389
0.00111393
-0.000655936
0.00117556
-0.000660735
0.00123761
-0.000662711
0.00130073
-0.000670675
0.00136395
-0.000669204
0.00142932
-0.000687879
0.00149359
-0.000673794
0.00156297
-0.000722685
0.00162768
-0.000670226
0.00170365
-0.000785902
-0.000692988
0.000273539
-0.00029236
0.000303672
-0.000342702
0.00033676
-0.00038995
0.000372663
-0.000433703
0.000411243
-0.000473772
0.000452353
-0.000510109
0.000495839
-0.000542761
0.000541534
-0.000571839
0.000589264
-0.000597494
0.000638852
-0.000619909
0.000690118
-0.000639286
0.000742887
-0.000655852
0.00079699
-0.000669833
0.000852272
-0.000681523
0.000908587
-0.000691126
0.000965825
-0.000699104
0.00102386
-0.000705457
0.00108267
-0.000711197
0.00114212
-0.000715387
0.00120237
-0.000720982
0.00126313
-0.00072347
0.00132503
-0.000732582
0.00138714
-0.000731306
0.00145148
-0.00075222
0.00151483
-0.000737145
0.00158335
-0.00079121
0.0016474
-0.000734274
0.00172261
-0.000861107
-0.000760938
0.000332962
-0.000319228
0.000362519
-0.000372259
0.00039467
-0.000422101
0.000429337
-0.000468371
0.000466442
-0.000510878
0.000505895
-0.000549562
0.00054759
-0.000584456
0.000591401
-0.000615651
0.000637192
-0.000643285
0.000684813
-0.000667531
0.00073411
-0.000688583
0.000784927
-0.00070667
0.000837112
-0.000722018
0.000890523
-0.000734934
0.000945024
-0.000745628
0.00100051
-0.000754594
0.00105687
-0.000761818
0.00111409
-0.000768409
0.00117202
-0.000773322
0.00123084
-0.000779802
0.00129026
-0.00078289
0.00135092
-0.000793245
0.00141188
-0.000792257
0.00147517
-0.000815509
0.00153758
-0.000799559
0.00160524
-0.000858871
0.00166863
-0.000797669
0.00174307
-0.000935544
-0.000828642
0.000395704
0.000424518
-0.000401072
0.000455564
-0.000453147
0.000488831
-0.000501638
0.000524306
-0.000546352
0.000561956
-0.000587212
0.000601722
-0.000624222
0.000643524
-0.000657453
0.000687259
-0.000687019
0.000732806
-0.000713078
0.000780036
-0.000735812
0.000828812
-0.000755446
0.000878998
-0.000772204
0.000930465
-0.000786401
0.000983087
-0.00079825
0.00103677
-0.000808277
0.00109141
-0.000816453
0.00114698
-0.000823981
0.00120336
-0.000829706
0.00126073
-0.000837166
0.00131878
-0.000840947
0.00137818
-0.000852647
0.00143798
-0.000852049
0.00150021
-0.000877745
0.00156169
-0.000861042
0.0016285
-0.000925674
0.00169126
-0.000860433
0.00176495
-0.00100923
-0.000896136
0.000489152
-0.000428949
0.000518908
-0.000482902
0.000550604
-0.000533334
0.000584292
-0.00058004
0.000619996
-0.000622916
0.000657708
-0.000661934
0.000697388
-0.000697132
0.000738966
-0.000728597
0.000782351
-0.000756463
0.000827435
-0.000780897
0.000874102
-0.000802113
0.000922229
-0.000820331
0.000971701
-0.000835873
0.0010224
-0.00084895
0.00107424
-0.000860121
0.00112713
-0.000869335
0.00118104
-0.000877892
0.00123585
-0.000884523
0.00129175
-0.000893065
0.00134845
-0.000897639
0.00140659
-0.000910795
0.00146524
-0.000910692
0.00152644
-0.000938943
0.00158701
-0.000921618
0.00165298
-0.000991646
0.00171516
-0.000922609
0.00178813
-0.0010822
-0.000963469
0.000555879
-0.000455669
0.000584143
-0.000511167
0.000614089
-0.000563281
0.000645835
-0.000611786
0.000679459
-0.000656541
0.000715002
-0.000697477
0.000752462
-0.000734592
0.0007918
-0.000767936
0.000832954
-0.000797617
0.000875836
-0.000823778
0.000920347
-0.000846624
0.000966379
-0.000866363
0.00101383
-0.000883323
0.00106259
-0.000897708
0.00111258
-0.000910111
0.0011637
-0.000920457
0.00121595
-0.000930144
0.00126921
-0.000937783
0.00132366
-0.000947515
0.00137901
-0.000952987
0.00143593
-0.000967714
0.00149345
-0.000968218
0.00155365
-0.000999142
0.00161337
-0.000981333
0.00167855
-0.00105683
0.0017402
-0.000984256
0.0018125
-0.00115449
-0.0010307
0.00062413
-0.000480987
0.00065069
-0.000537726
0.000678705
-0.000591296
0.000708357
-0.000641438
0.000739778
-0.000687962
0.000773051
-0.00073075
0.000808208
-0.000769749
0.000845244
-0.000804972
0.000884118
-0.00083649
0.000924761
-0.000864422
0.000967092
-0.000888955
0.00101101
-0.000910285
0.00105644
-0.000928744
0.00110326
-0.000944527
0.0011514
-0.000958259
0.00120078
-0.000969837
0.0012514
-0.000980762
0.00130313
-0.000989515
0.00135617
-0.00100055
0.00141022
-0.00100703
0.00146595
-0.00102345
0.00152242
-0.00102468
0.00158167
-0.0010584
0.00164059
-0.00104025
0.00170505
-0.0011213
0.00176625
-0.00104545
0.00183795
-0.0012262
-0.00109792
0.000693318
-0.000504636
0.000717951
-0.00056236
0.000743856
-0.000617201
0.000771271
-0.000668852
0.000800377
-0.000717067
0.000831293
-0.000761666
0.000864087
-0.000802543
0.000898777
-0.000839662
0.000935343
-0.000873056
0.000973735
-0.000902814
0.00101389
-0.000929104
0.00105571
-0.000952109
0.00109912
-0.000972156
0.00114403
-0.000989435
0.00119037
-0.0010046
0.00123805
-0.00101752
0.00128708
-0.00102979
0.00133733
-0.00103977
0.00138901
-0.00105223
0.00144182
-0.00105984
0.00149644
-0.00107807
0.00155192
-0.00108015
0.00161031
-0.00111679
0.00166851
-0.00109845
0.00173234
-0.00118513
0.00179318
-0.00110629
0.00186437
-0.00129739
-0.00116519
0.000762832
-0.000526336
0.000785316
-0.000584844
0.000808936
-0.000640821
0.000833983
-0.000693899
0.000860677
-0.000743761
0.000889172
-0.000790161
0.00091956
-0.000832932
0.000951882
-0.000871984
0.000986136
-0.00090731
0.00102229
-0.000938965
0.00106028
-0.000967095
0.00110003
-0.000991864
0.00114148
-0.0010136
0.00118452
-0.00103248
0.00122911
-0.00104919
0.00127515
-0.00106356
0.00132266
-0.0010773
0.00137152
-0.00108863
0.00142192
-0.00110263
0.00147357
-0.00111149
0.00152717
-0.00113167
0.00158174
-0.00113473
0.00163936
-0.00117441
0.00169696
-0.00115605
0.00176025
-0.00124842
0.00182085
-0.00116689
0.00189164
-0.00136819
-0.00123264
0.000832048
-0.000545798
0.000852162
-0.000604958
0.000873335
-0.000661994
0.000895899
-0.000716462
0.000920105
-0.000767967
0.000946133
-0.000816189
0.000974096
-0.000860895
0.00100405
-0.00090194
0.00103601
-0.000939271
0.00106996
-0.000972909
0.00110583
-0.00100297
0.00114358
-0.00102961
0.00118312
-0.00105314
0.00122438
-0.00107374
0.00126729
-0.0010921
0.00131178
-0.00110805
0.00135786
-0.00112338
0.00140541
-0.00113617
0.00145463
-0.00115186
0.00150523
-0.00116209
0.00155791
-0.00118435
0.0016117
-0.00118851
0.00166866
-0.00123137
0.00172576
-0.00121315
0.00178864
-0.00131129
0.00184912
-0.00122738
0.00191964
-0.00143871
-0.00130037
0.000900326
0.000917863
-0.000622495
0.000936445
-0.000680576
0.000956431
-0.000736448
0.000978096
-0.000789632
0.00100163
-0.000839728
0.00102718
-0.000886437
0.00105479
-0.000929555
0.0010845
-0.000968983
0.0011163
-0.0010047
0.00115013
-0.00103681
0.00118594
-0.00106542
0.00122367
-0.00109087
0.00126323
-0.0011133
0.00130457
-0.00113345
0.00134761
-0.00115108
0.00139237
-0.00116814
0.00143872
-0.00118253
0.00148689
-0.00120002
0.00153655
-0.00121176
0.00158844
-0.00123624
0.00164157
-0.00124164
0.00169801
-0.00128782
0.00175476
-0.0012699
0.00181735
-0.00137388
0.00187787
-0.0012879
0.00194826
-0.0015091
-0.0013685
0.000981791
-0.000637271
0.000997664
-0.000696449
0.001015
-0.00075379
0.0010341
-0.000808726
0.00105515
-0.000860783
0.00107831
-0.000909588
0.00110363
-0.00095488
0.00113116
-0.000996511
0.00116088
-0.00103442
0.00119276
-0.00106869
0.00122674
-0.0010994
0.00126276
-0.00112689
0.00130074
-0.00115127
0.00134063
-0.00117334
0.00138234
-0.0011928
0.00142591
-0.00121171
0.0014712
-0.00122782
0.00151844
-0.00124727
0.00156732
-0.00126063
0.00161856
-0.00128748
0.00167118
-0.00129426
0.00172724
-0.00134388
0.00178379
-0.00132645
0.00184625
-0.00143634
0.00190697
-0.00134862
0.00197738
-0.00157951
-0.00143718
0.00104332
-0.000649131
0.00105639
-0.000709524
0.00107105
-0.000768448
0.00108758
-0.000825254
0.00110618
-0.000879385
0.001127
-0.000930404
0.00115011
-0.000977991
0.00117554
-0.00102195
0.0012033
-0.00106218
0.00123334
-0.00109873
0.00126561
-0.00113167
0.00130005
-0.00116133
0.00133658
-0.0011878
0.00137516
-0.00121191
0.00141569
-0.00123333
0.00145821
-0.00125423
0.0015026
-0.0012722
0.00154907
-0.00129374
0.00159731
-0.00130887
0.00164805
-0.00133822
0.00170033
-0.00134653
0.00175618
-0.00139974
0.0018127
-0.00138297
0.00187519
-0.00149883
0.00193628
-0.00140971
0.00200688
-0.00165011
-0.00150654
0.00110181
-0.000657963
0.00111204
-0.000719749
0.00112401
-0.00078042
0.001138
-0.000839245
0.00115421
-0.000895596
0.00117278
-0.00094897
0.00119377
-0.000998989
0.00121724
-0.00104541
0.00124315
-0.0010881
0.00127149
-0.00112707
0.0013022
-0.00116238
0.00133521
-0.00119434
0.00137045
-0.00122304
0.00140787
-0.00124933
0.00144738
-0.00127285
0.00148903
-0.00129587
0.00153267
-0.00131584
0.00157854
-0.00133961
0.00162631
-0.00135665
0.00167674
-0.00138865
0.00172884
-0.00139863
0.00178466
-0.00145556
0.00184133
-0.00143964
0.00190404
-0.00156153
0.00196568
-0.00147135
0.00203666
-0.00172109
-0.00157675
0.00115674
-0.000663695
0.0011641
-0.000727112
0.00117341
-0.000789734
0.00118493
-0.000850761
0.00119883
-0.000909501
0.00121525
-0.00096539
0.00123426
-0.001018
0.00125589
-0.00106703
0.00128011
-0.00111232
0.0013069
-0.00115386
0.0013362
-0.00119168
0.00136795
-0.00122608
0.00140207
-0.00125715
0.00143851
-0.00128577
0.00147718
-0.00131152
0.00151812
-0.00133681
0.00156119
-0.00135891
0.00160664
-0.00138506
0.00165414
-0.00140414
0.00170444
-0.00143895
0.00175655
-0.00145075
0.00181253
-0.00151154
0.00186955
-0.00149666
0.00193266
-0.00162464
0.00199506
-0.00153375
0.00206661
-0.00179264
-0.00164797
0.00120769
-0.000666336
0.00121224
-0.000731663
0.00121898
-0.00079647
0.00122812
-0.000859905
0.00123984
-0.00092122
0.00125425
-0.000979797
0.0012714
-0.00103515
0.00129133
-0.00108696
0.00131402
-0.00113501
0.00133942
-0.00117926
0.00136747
-0.00121973
0.00139812
-0.00125673
0.00143128
-0.00129031
0.00146691
-0.0013214
0.00150491
-0.00134952
0.00154532
-0.00137722
0.00158802
-0.00140161
0.00163322
-0.00143026
0.00168064
-0.00145156
0.00173098
-0.00148929
0.00178334
-0.00150311
0.00183961
-0.00156782
0.00189727
-0.00155432
0.00196085
-0.00168822
0.00202442
-0.00159732
0.00209643
-0.00186466
-0.00172058
0.00267113
-0.000661645
0.00266776
-0.000728292
0.00266592
-0.000794639
0.00266587
-0.000859852
0.00266783
-0.000923179
0.00267202
-0.000983984
0.00267862
-0.00104175
0.00268777
-0.00109611
0.00269959
-0.00114683
0.00271413
-0.00119381
0.00273145
-0.00123705
0.00275153
-0.00127682
0.00277439
-0.00131317
0.00279996
-0.00134697
0.00282825
-0.00137781
0.00285917
-0.00140814
0.00289277
-0.00143521
0.00292889
-0.00146639
0.00296775
-0.00149042
0.00300909
-0.00153063
0.0030533
-0.00154731
0.0031001
-0.00161462
0.00314985
-0.00160407
0.00320264
-0.00174101
0.00325842
-0.00165311
0.00331705
-0.00192328
-0.00178343
0.00303041
-0.000647192
0.0030181
-0.000715981
0.00300797
-0.000784511
0.00300014
-0.000852019
0.00299474
-0.000917785
0.00299194
-0.000981175
0.00299185
-0.00104167
0.0029946
-0.00109887
0.00300028
-0.0011525
0.00300893
-0.00120246
0.00302057
-0.0012487
0.00303521
-0.00129145
0.00305282
-0.00133078
0.00307335
-0.0013675
0.0030968
-0.00140126
0.00312304
-0.00143437
0.00315216
-0.00146433
0.00318391
-0.00149814
0.00321861
-0.00152512
0.00325577
-0.00156779
0.00329614
-0.00158768
0.00333879
-0.00165726
0.00338514
-0.00165042
0.00343343
-0.0017893
0.00348652
-0.0017062
0.00353972
-0.00197648
-0.00184353
0.0034264
0.0034041
-0.000693678
0.00338465
-0.000765064
0.00336805
-0.000835417
0.00335434
-0.000904078
0.00334361
-0.000970446
0.00333595
-0.001034
0.00333143
-0.00109434
0.00333011
-0.00115118
0.00333202
-0.00120437
0.00333719
-0.00125386
0.00334558
-0.00129985
0.00335718
-0.00134239
0.00337192
-0.00138224
0.00338978
-0.00141913
0.00341063
-0.00145522
0.00343454
-0.00148824
0.00346125
-0.00152484
0.00349108
-0.00155496
0.00352345
-0.00160016
0.00355925
-0.00162348
0.00359722
-0.00169523
0.0036393
-0.0016925
0.00368274
-0.00183274
0.00373202
-0.00175548
0.00377978
-0.00202424
-0.00189978
0.00382527
-0.000660741
0.00379578
-0.000735582
0.00376966
-0.000809292
0.00374687
-0.00088129
0.00372744
-0.000951017
0.00371142
-0.00101798
0.00369884
-0.00108177
0.00368976
-0.00114209
0.00368417
-0.00119879
0.00368209
-0.00125178
0.00368349
-0.00130124
0.00368833
-0.00134723
0.00369654
-0.00139044
0.00370809
-0.00143068
0.00372283
-0.00146996
0.00374084
-0.00150625
0.00376181
-0.00154581
0.00378609
-0.00157923
0.003813
-0.00162707
0.00384354
-0.00165402
0.00387617
-0.00172786
0.00391331
-0.00172964
0.00395122
-0.00187064
0.003996
-0.00180026
0.00403761
-0.00206586
-0.00195147
0.00427999
-0.000617058
0.00424018
-0.000695775
0.00420413
-0.000773237
0.00417176
-0.00084893
0.00414309
-0.000922343
0.00411812
-0.000993005
0.00409687
-0.00106052
0.00407938
-0.00112459
0.00406564
-0.00118505
0.00405565
-0.00124179
0.00404937
-0.00129497
0.00404677
-0.00134463
0.00404777
-0.00139144
0.00405233
-0.00143524
0.00406029
-0.00147792
0.00407171
-0.00151768
0.00408627
-0.00156037
0.00410432
-0.00159728
0.0041251
-0.00164786
0.00414972
-0.00167864
0.00417634
-0.00175448
0.00420786
-0.00176116
0.00423956
-0.00190234
0.00427914
-0.00183985
0.00431392
-0.00210064
-0.00199787
0.00476541
-0.000563133
0.00471551
-0.000645877
0.00466956
-0.000727284
0.00462751
-0.000806881
0.00458936
-0.000884191
0.00455512
-0.000958765
0.00452481
-0.00103022
0.00449847
-0.00109825
0.00447608
-0.00116266
0.00445766
-0.00122337
0.00444316
-0.00128047
0.00443255
-0.00133403
0.00442575
-0.00138463
0.00442271
-0.0014322
0.00442327
-0.00147848
0.00442749
-0.0015219
0.00443501
-0.00156789
0.0044462
-0.00160847
0.00446022
-0.00166188
0.00447826
-0.00169668
0.00449823
-0.00177445
0.00452346
-0.00178639
0.00454829
-0.00192717
0.00458198
-0.00187353
0.00460927
-0.00212794
-0.00203824
0.00527742
-0.000500099
0.00521824
-0.000586697
0.00516294
-0.000671977
0.00511153
-0.000755475
0.00506406
-0.000836725
0.00502059
-0.000915286
0.00498114
-0.000990773
0.00494576
-0.00106287
0.00491448
-0.00113139
0.00488731
-0.00119619
0.00486422
-0.00125738
0.00484518
-0.00131499
0.00483012
-0.00136957
0.00481901
-0.00142109
0.00481166
-0.00147114
0.00480815
-0.00151838
0.00480808
-0.00156782
0.00481184
-0.00161222
0.00481852
-0.00166857
0.00482939
-0.00170755
0.00484211
-0.00178717
0.00486042
-0.0018047
0.00487776
-0.00194451
0.00490485
-0.00190062
0.00492406
-0.00214715
-0.00207185
0.00581079
-0.000429667
0.00574371
-0.000519611
0.00568013
-0.000608399
0.0056202
-0.000695542
0.00556403
-0.00078056
0.00551174
-0.000862999
0.00546343
-0.000942462
0.00541918
-0.00101862
0.00537904
-0.00109125
0.00534306
-0.00116021
0.00531124
-0.00122555
0.00528356
-0.00128732
0.00525998
-0.00134599
0.00524047
-0.00140157
0.00522485
-0.00145553
0.00521319
-0.00150671
0.00520511
-0.00155974
0.00520096
-0.00160807
0.00519983
-0.00166743
0.005203
-0.00171072
0.00520794
-0.00179211
0.00521875
-0.00181551
0.00522805
-0.00195382
0.0052479
-0.00192047
0.00525848
-0.00215773
-0.00209798
0.0063594
-0.000354003
0.00628628
-0.000446488
0.00621602
-0.000538133
0.00614887
-0.000628402
0.00608509
-0.000716776
0.00602487
-0.000802775
0.00596838
-0.000885972
0.00591577
-0.00096601
0.00586715
-0.00104263
0.00582261
-0.00111567
0.0057822
-0.00118514
0.00574594
-0.00125106
0.0057138
-0.00131385
0.00568577
-0.00137354
0.00566171
-0.00143146
0.00564166
-0.00148667
0.00562528
-0.00154336
0.0056129
-0.00159569
0.00560357
-0.0016581
0.00559863
-0.00170578
0.00559536
-0.00178885
0.00559817
-0.00181832
0.00559897
-0.00195461
0.00561098
-0.00193248
0.00561251
-0.00215926
-0.00211597
0.00691662
-0.00027557
0.0068397
-0.000369569
0.00676474
-0.000463178
0.00669215
-0.000555809
0.00662227
-0.000646896
0.00655541
-0.000735916
0.00649184
-0.000822401
0.00643178
-0.000905956
0.00637543
-0.000986284
0.00632294
-0.00106318
0.0062744
-0.0011366
0.00622989
-0.00120655
0.00618941
-0.00127337
0.006153
-0.00133713
0.00612053
-0.001399
0.00609208
-0.00145822
0.00606729
-0.00151857
0.00604651
-0.00157491
0.00602877
-0.00164036
0.00601544
-0.00169245
0.00600367
-0.00177707
0.00599811
-0.00181276
0.00599005
-0.00194656
0.0059937
-0.00193613
0.00598587
-0.00215143
-0.00212522
0.0074757
-0.000196943
0.00739743
-0.000291297
0.00732006
-0.00038581
0.0072441
-0.000479847
0.00717001
-0.000572801
0.00709819
-0.0006641
0.00702902
-0.00075323
0.00696281
-0.000839751
0.00689984
-0.000923314
0.00684033
-0.00100367
0.00678446
-0.00108072
0.00673235
-0.00115443
0.00668406
-0.00122509
0.00663967
-0.00129274
0.0065991
-0.00135843
0.00656244
-0.00142155
0.00652936
-0.00148549
0.00650021
-0.00154576
0.00647403
-0.00161419
0.0064522
-0.00167062
0.00643177
-0.00175664
0.0064176
-0.00179858
0.00640049
-0.00192945
0.00639537
-0.00193101
0.006378
-0.00213406
-0.00212523
0.00803034
-0.00012063
0.00795318
-0.000214143
0.00787579
-0.000308415
0.00779873
-0.000402785
0.00772254
-0.000496611
0.00764772
-0.000589284
0.00757474
-0.000680245
0.00750399
-0.000769004
0.00743584
-0.000855164
0.00737059
-0.000938423
0.00730849
-0.00101862
0.00724974
-0.00109569
0.00719447
-0.00116982
0.00714279
-0.00124106
0.00709469
-0.00131033
0.00705026
-0.00137713
0.00700925
-0.00144448
0.00697198
-0.00150849
0.00693754
-0.00157974
0.00690729
-0.00164037
0.00687824
-0.0017276
0.00685537
-0.0017757
0.00682917
-0.00190325
0.00681502
-0.00191687
0.0067881
-0.00210713
-0.00211562
0.00857507
-4.88984e-05
0.00850135
-0.000140424
0.00842625
-0.000233312
0.00835036
-0.0003269
0.00827428
-0.000420531
0.00819857
-0.000513569
0.00812375
-0.000605422
0.0080503
-0.000695556
0.00797866
-0.000783526
0.00790921
-0.000868977
0.00784228
-0.000951693
0.00777814
-0.00103154
0.00771698
-0.00110866
0.00765897
-0.00118305
0.00760416
-0.00125552
0.00755269
-0.00132565
0.00750432
-0.00139611
0.00745943
-0.0014636
0.00741711
-0.00153742
0.00737874
-0.001602
0.0073413
-0.00169016
0.00730983
-0.00174423
0.00727468
-0.00186811
0.00725139
-0.00189358
0.00721507
-0.00207081
-0.00209615
0.00910576
1.63694e-05
0.00903748
-7.21401e-05
0.00896675
-0.000162582
0.00889416
-0.000254314
0.00882031
-0.000346682
0.00874579
-0.000439044
0.00867115
-0.000530786
0.00859694
-0.000621345
0.00852365
-0.000710233
0.00845172
-0.00079705
0.00838155
-0.000881521
0.00831347
-0.000963464
0.00824775
-0.00104293
0.00818461
-0.00111991
0.00812416
-0.00119507
0.00806657
-0.00126807
0.00801169
-0.00134123
0.00795988
-0.00141178
0.00791029
-0.00148784
0.00786429
-0.001556
0.0078189
-0.00164477
0.00777912
-0.00170445
0.00773537
-0.00182435
0.00770299
-0.0018612
0.0076576
-0.00202541
-0.00206674
0.00961991
7.37804e-05
0.00955862
-1.08498e-05
0.00949396
-9.79251e-05
0.00942648
-0.000186832
0.00935674
-0.000276943
0.00928532
-0.000367624
0.00921279
-0.000458258
0.00913971
-0.000548266
0.00906661
-0.000637131
0.00899398
-0.000724415
0.00892225
-0.000809795
0.00885182
-0.000893038
0.00878302
-0.000974126
0.00871611
-0.00105301
0.00865127
-0.00113022
0.00858871
-0.00120551
0.00852833
-0.00128085
0.00847051
-0.00135395
0.00841446
-0.00143179
0.00836153
-0.00150306
0.00830882
-0.00159207
0.00826122
-0.00165685
0.00820938
-0.00177251
0.00816816
-0.00181999
0.00811418
-0.00197144
-0.00202749
0.0101168
0.0001225
0.0100635
4.24023e-05
0.0100062
-4.05622e-05
0.00994517
-0.000125835
0.00988105
-0.000212822
0.00981434
-0.000300915
0.00974559
-0.000389511
0.00967535
-0.000478028
0.00960416
-0.000565937
0.00953252
-0.000652774
0.0094609
-0.000738176
0.00938973
-0.000821869
0.00931938
-0.000903769
0.00925016
-0.000983792
0.00918229
-0.00106235
0.00911602
-0.00113924
0.0090513
-0.00121614
0.00898853
-0.00129118
0.008927
-0.00137026
0.00886799
-0.00144406
0.00880877
-0.00153284
0.008754
-0.00160208
0.00869476
-0.00171328
0.00864514
-0.00177036
0.00858322
-0.00190952
-0.00197868
0.0105974
0.000162237
0.0105527
8.7118e-05
0.0105033
8.80349e-06
0.0104497
-7.2212e-05
0.0103923
-0.000155374
0.0103315
-0.000240117
0.0102678
-0.00032586
0.0102018
-0.000412039
0.010134
-0.000498121
0.0100649
-0.000583632
0.00999488
-0.000668183
0.00992448
-0.000751465
0.00985405
-0.000833342
0.00978395
-0.000913693
0.00971443
-0.000992827
0.00964576
-0.00107058
0.00957795
-0.00114833
0.00951139
-0.00122462
0.00944545
-0.00130432
0.00938136
-0.00137996
0.00931655
-0.00146803
0.00925541
-0.00154095
0.00918961
-0.00164748
0.00913216
-0.0017129
0.00906306
-0.00184042
-0.00192075
0.0110644
0.000193191
0.0110282
0.000123297
0.0109871
4.99683e-05
0.0109412
-2.63536e-05
0.010891
-0.000105176
0.0108369
-0.000185971
0.0107792
-0.000268199
0.0107185
-0.000351317
0.0106552
-0.000434809
0.0105897
-0.000518198
0.0105226
-0.000601082
0.0104543
-0.000683131
0.0103851
-0.000764164
0.0103155
-0.000844032
0.0102456
-0.000922949
0.0101758
-0.00100078
0.0101061
-0.00107864
0.0100369
-0.00115544
0.00996771
-0.00123509
0.00989958
-0.00131184
0.0098302
-0.00139864
0.00976358
-0.00147433
0.00969215
-0.00157605
0.0096276
-0.00164835
0.00955216
-0.00176499
-0.00185432
0.0115215
0.000215937
0.0114935
0.000151344
0.0114603
8.31644e-05
0.0114222
1.17881e-05
0.0113793
-6.23514e-05
0.0113321
-0.000138775
0.0112809
-0.000216984
0.0112261
-0.00029647
0.011168
-0.000376738
0.0111071
-0.000457323
0.0110439
-0.000537819
0.0109786
-0.000617887
0.0109118
-0.00069731
0.0108437
-0.000775922
0.0107746
-0.00085385
0.0107048
-0.000930988
0.0106343
-0.00100822
0.0105636
-0.00108475
0.0104922
-0.00116367
0.0104211
-0.00124071
0.0103482
-0.00132571
0.010277
-0.00140319
0.0102009
-0.00149995
0.0101301
-0.00157751
0.0100492
-0.00168411
-0.00178011
0.0119732
0.000231291
0.0119526
0.000171941
0.0119268
0.000108936
0.011896
4.26082e-05
0.0118603
-2.66581e-05
0.01182
-9.84405e-05
0.0117753
-0.00017228
0.0117265
-0.000247708
0.0116741
-0.000324258
0.0116182
-0.000401484
0.0115594
-0.000478987
0.0114979
-0.000556424
0.0114342
-0.000633558
0.0113685
-0.000710206
0.011301
-0.000786427
0.0112322
-0.000862136
0.011162
-0.000938007
0.0110907
-0.00101353
0.0110181
-0.00109102
0.0109449
-0.00116755
0.0108694
-0.00125018
0.0107946
-0.00132842
0.0107148
-0.00142012
0.0106386
-0.00150124
0.0105531
-0.00159864
-0.00169894
0.0124242
0.000240166
0.0124102
0.000185919
0.0123911
0.000128012
0.012367
6.67284e-05
0.0123379
2.40712e-06
0.0123041
-6.45905e-05
0.0122656
-0.000133838
0.0122228
-0.000204913
0.012176
-0.00027738
0.0121253
-0.000350818
0.0120712
-0.00042484
0.0120138
-0.000499106
0.0119536
-0.000573368
0.0118909
-0.000647432
0.0118257
-0.000721302
0.0117585
-0.000794911
0.0116893
-0.000868752
0.0116183
-0.000942541
0.0115452
-0.00101795
0.0114708
-0.00109318
0.0113936
-0.00117293
0.011316
-0.00125088