/*--------------------------------*- C++ -*----------------------------------*\
  =========                 |
  \\      /  F ield         | OpenFOAM: The Open Source CFD Toolbox
   \\    /   O peration     | Website:  https://openfoam.org
    \\  /    A nd           | Version:  7
     \\/     M anipulation  |
\*---------------------------------------------------------------------------*/
FoamFile
{
    version     2.0;
    format      ascii;
    class       surfaceScalarField;
    location    "20";
    object      phi;
}
// * * * * * * * * * * * * * * * * * * * * * * * * * * * * * * * * * * * * * //

dimensions      [0 3 -1 0 0 0 0];

internalField   nonuniform List<scalar> 
6370
(
-1.51253e-06
1.51253e-06
4.639e-12
-5.44584e-06
3.93329e-06
1.27241e-11
-1.13882e-05
5.94233e-06
2.02015e-11
-1.89411e-05
7.55293e-06
2.70374e-11
-2.77196e-05
8.77841e-06
3.31787e-11
-3.73572e-05
9.63761e-06
3.87334e-11
-4.75124e-05
1.01551e-05
4.35946e-11
-5.78757e-05
1.03633e-05
4.77511e-11
-6.81805e-05
1.03048e-05
5.11586e-11
-7.82154e-05
1.00349e-05
5.37292e-11
-8.78384e-05
9.62299e-06
5.53569e-11
-9.6992e-05
9.15346e-06
5.58556e-11
-0.000105712
8.72e-06
5.51874e-11
-0.00011412
8.4082e-06
5.31766e-11
8.35543e-06
4.92926e-11
-0.000122476
-1.49517e-06
3.0077e-06
-5.37793e-06
7.81605e-06
-1.12353e-05
1.17997e-05
-1.86669e-05
1.49845e-05
-2.72848e-05
1.73963e-05
-3.67193e-05
1.90721e-05
-4.66242e-05
2.00601e-05
-5.6685e-05
2.0424e-05
-6.66288e-05
2.02485e-05
-7.62371e-05
1.96432e-05
-8.53606e-05
1.87465e-05
-9.39348e-05
1.77277e-05
-0.00010199
1.67755e-05
-0.000109646
1.60637e-05
1.58699e-05
-0.00011716
-1.4606e-06
4.4683e-06
-5.2427e-06
1.15981e-05
-1.09308e-05
1.74878e-05
-1.81204e-05
2.21741e-05
-2.64183e-05
2.56943e-05
-3.54479e-05
2.81016e-05
-4.48542e-05
2.94664e-05
-5.4312e-05
2.98819e-05
-6.35361e-05
2.94725e-05
-7.22938e-05
2.84009e-05
-8.04214e-05
2.68741e-05
-8.78401e-05
2.51464e-05
-9.45695e-05
2.35049e-05
-0.000100722
2.22162e-05
2.17035e-05
-0.000106556
-1.40919e-06
5.87749e-06
-5.04132e-06
1.52303e-05
-1.0477e-05
2.29234e-05
-1.73058e-05
2.90029e-05
-2.51266e-05
3.3515e-05
-3.35521e-05
3.65272e-05
-4.22146e-05
3.81289e-05
-5.07731e-05
3.84404e-05
-5.89235e-05
3.76229e-05
-6.64124e-05
3.58898e-05
-7.30534e-05
3.35151e-05
-7.87466e-05
3.08396e-05
-8.34945e-05
2.82528e-05
-8.74e-05
2.61217e-05
2.5022e-05
-9.07186e-05
-1.34141e-06
7.21889e-06
-4.77548e-06
1.86644e-05
-9.87747e-06
2.80254e-05
-1.62291e-05
3.53546e-05
-2.34185e-05
4.07044e-05
-3.10449e-05
4.41536e-05
-3.87234e-05
4.58074e-05
-4.6092e-05
4.5809e-05
-5.28219e-05
4.43528e-05
-5.86314e-05
4.16993e-05
-6.33042e-05
3.81879e-05
-6.67113e-05
3.42467e-05
-6.88322e-05
3.03738e-05
-6.97569e-05
2.70464e-05
2.50014e-05
-6.97363e-05
-1.25786e-06
8.47675e-06
-4.44723e-06
2.18537e-05
-9.13653e-06
3.27147e-05
-1.48975e-05
4.11156e-05
-2.13054e-05
4.71122e-05
-2.79424e-05
5.07906e-05
-3.44027e-05
5.22677e-05
-4.02986e-05
5.17048e-05
-4.52702e-05
4.93245e-05
-4.90006e-05
4.54297e-05
-5.12352e-05
4.04225e-05
-5.18079e-05
3.48194e-05
-5.06689e-05
2.92347e-05
-4.7895e-05
2.42725e-05
2.08288e-05
-4.37225e-05
-1.15923e-06
9.63599e-06
-4.05894e-06
2.47534e-05
-8.25905e-06
3.69148e-05
-1.33196e-05
4.61761e-05
-1.88001e-05
5.25927e-05
-2.42633e-05
5.62539e-05
-2.92787e-05
5.72831e-05
-3.3428e-05
5.5854e-05
-3.63146e-05
5.22111e-05
-3.75788e-05
4.6694e-05
-3.69195e-05
3.97631e-05
-3.41243e-05
3.20242e-05
-2.91051e-05
2.42156e-05
-2.19328e-05
1.71002e-05
1.17985e-05
-1.29025e-05
-1.04624e-06
1.06822e-05
-3.61308e-06
2.73203e-05
-7.25026e-06
4.0552e-05
-1.15041e-05
5.04299e-05
-1.59164e-05
5.70051e-05
-2.00278e-05
6.03653e-05
-2.33796e-05
6.06348e-05
-2.55185e-05
5.7993e-05
-2.60059e-05
5.26985e-05
-2.4432e-05
4.51201e-05
-2.04401e-05
3.57712e-05
-1.37615e-05
2.53456e-05
-4.25656e-06
1.47107e-05
8.05806e-06
4.78557e-06
-2.91241e-06
2.2769e-05
-9.19598e-07
1.16018e-05
-3.11211e-06
2.95128e-05
-6.11534e-06
4.35552e-05
-9.46001e-06
5.37745e-05
-1.26685e-05
6.02136e-05
-1.52565e-05
6.29533e-05
-1.67343e-05
6.21127e-05
-1.66103e-05
5.7869e-05
-1.43981e-05
5.04862e-05
-9.63106e-06
4.03531e-05
-1.88759e-06
2.80277e-05
9.16818e-06
1.42899e-05
2.37304e-05
1.4841e-07
4.17901e-05
-1.3274e-05
-2.41716e-05
6.30492e-05
-7.79943e-07
1.23818e-05
-2.55832e-06
3.12912e-05
-4.85916e-06
4.58561e-05
-7.19592e-06
5.61113e-05
-9.06955e-06
6.20872e-05
-9.96906e-06
6.38528e-05
-9.37138e-06
6.1515e-05
-6.74296e-06
5.52405e-05
-1.54542e-06
4.52887e-05
6.75129e-06
3.20564e-05
1.8643e-05
1.6136e-05
3.45455e-05
-1.61264e-06
5.47243e-05
-2.00304e-05
7.92173e-05
-3.77671e-05
-5.26419e-05
0.000107688
-6.27832e-07
1.30096e-05
-1.9537e-06
3.2617e-05
-3.486e-06
4.73884e-05
-4.71931e-06
5.73446e-05
-5.1316e-06
6.24995e-05
-4.18357e-06
6.29047e-05
-1.31689e-06
5.86483e-05
4.04623e-06
4.98774e-05
1.24999e-05
3.68351e-05
2.46433e-05
1.99129e-05
4.10559e-05
-2.766e-07
6.22466e-05
-2.28033e-05
8.85699e-05
-4.63537e-05
0.000120121
-6.93177e-05
-8.9052e-05
0.000156531
-4.63679e-07
1.34733e-05
-1.29978e-06
3.34531e-05
-1.99927e-06
4.80879e-05
-2.03633e-06
5.73817e-05
-8.64605e-07
6.13278e-05
2.08476e-06
5.99554e-05
7.40656e-06
5.33265e-05
1.57244e-05
4.15596e-05
2.76903e-05
2.48691e-05
4.39776e-05
3.62561e-06
6.52573e-05
-2.15563e-05
9.21458e-05
-4.96918e-05
0.000125107
-7.93148e-05
0.000164312
-0.000108523
-0.000134114
0.000209374
-2.87743e-07
1.3761e-05
-5.97611e-07
3.3763e-05
-4.01419e-07
4.78917e-05
8.4846e-07
5.61318e-05
3.72391e-06
5.84524e-05
8.82422e-06
5.48551e-05
1.67812e-05
4.53695e-05
2.82648e-05
3.00761e-05
4.39859e-05
9.14796e-06
6.46944e-05
-1.70828e-05
9.11599e-05
-4.80218e-05
0.000124121
-8.26525e-05
0.000164173
-0.000119367
0.000211593
-0.000155943
-0.000188509
0.000265988
-1.0013e-07
1.38612e-05
1.52251e-07
3.35106e-05
1.30607e-06
4.67379e-05
3.9322e-06
5.35057e-05
8.62906e-06
5.37555e-05
1.6027e-05
4.74572e-05
2.67949e-05
3.46016e-05
4.16482e-05
1.52228e-05
6.13561e-05
-1.056e-05
8.67449e-05
-4.24716e-05
0.000118687
-7.9964e-05
0.000158056
-0.000122021
0.000205606
-0.000166918
0.000261761
-0.000212098
-0.000252895
0.000326146
9.92658e-08
1.37619e-05
9.49696e-07
3.26602e-05
3.12269e-06
4.45649e-05
7.21356e-06
4.94148e-05
1.38483e-05
4.71207e-05
2.36889e-05
3.76166e-05
3.74409e-05
2.08496e-05
5.58637e-05
-3.20001e-06
7.97817e-05
-3.4478e-05
0.000110095
-7.27846e-05
0.000147778
-0.000117647
0.000193849
-0.000168092
0.000249251
-0.00022232
0.000314606
-0.000277452
-0.00032791
0.000389621
3.10542e-07
1.34514e-05
1.79502e-06
3.11757e-05
5.04852e-06
4.13114e-05
1.06922e-05
4.37711e-05
1.9381e-05
3.8432e-05
3.18088e-05
2.51888e-05
4.87175e-05
3.9409e-06
7.0908e-05
-2.53905e-05
9.92552e-05
-6.28252e-05
0.000134726
-0.000108255
0.000178391
-0.000161313
0.000231416
-0.000221117
0.000294962
-0.000285866
0.00036991
-0.0003524
-0.000414144
0.000456144
5.33971e-07
1.29174e-05
2.68853e-06
2.90211e-05
7.08377e-06
3.69161e-05
1.43682e-05
3.64866e-05
2.52269e-05
2.75734e-05
4.03868e-05
1.00288e-05
6.06259e-05
-1.62982e-05
8.6784e-05
-5.15487e-05
0.00011978
-9.58215e-05
0.000160637
-0.000149112
0.000210509
-0.000211185
0.000270702
-0.00028131
0.00034261
-0.000357774
0.000427458
-0.000437248
-0.000512124
0.000525438
7.69738e-07
1.21476e-05
3.63043e-06
2.61604e-05
9.22829e-06
3.13183e-05
1.82408e-05
2.74741e-05
3.13848e-05
1.44293e-05
4.94222e-05
-8.00858e-06
7.31672e-05
-4.00432e-05
0.000103497
-8.18783e-05
0.000141368
-0.000133693
0.000187845
-0.000195589
0.000244144
-0.000267484
0.000311686
-0.000348852
0.000392103
-0.000438191
0.00048704
-0.000532185
-0.000622288
0.000597204
1.01792e-06
1.11297e-05
4.62041e-06
2.2558e-05
1.14808e-05
2.44579e-05
2.23071e-05
1.66478e-05
3.78505e-05
-1.11411e-06
5.891e-05
-2.9068e-05
8.63379e-05
-6.74711e-05
0.000121048
-0.000116589
0.00016403
-0.000176674
0.000216375
-0.000247934
0.000279332
-0.000330441
0.000354394
-0.000423914
0.000443403
-0.0005272
0.00054848
-0.000637262
-0.000744941
0.000671133
1.27836e-06
9.85137e-06
5.65732e-06
1.8179e-05
1.3838e-05
1.62772e-05
2.65609e-05
3.9249e-06
4.46141e-05
-1.91673e-05
6.88369e-05
-5.32908e-05
0.000100124
-9.87578e-05
0.000139427
-0.000155893
0.000187769
-0.000225016
0.000246255
-0.00030642
0.000316134
-0.000400319
0.000398911
-0.000506692
0.000496556
-0.000624845
0.000611675
-0.000752381
-0.000880181
0.000746914
1.5506e-06
8.30077e-06
6.73886e-06
1.29907e-05
1.62942e-05
6.7219e-06
3.09913e-05
-1.07722e-05
5.16578e-05
-3.98338e-05
7.91776e-05
-8.08106e-05
0.000114492
-0.000134072
0.000158601
-0.000200001
0.00021256
-0.000278975
0.00027749
-0.00037135
0.000354614
-0.000477443
0.000445375
-0.000597453
0.00055174
-0.00073121
0.00067667
-0.000877311
-0.00102779
0.00082428
1.8338e-06
6.46697e-06
7.86138e-06
6.96315e-06
1.88406e-05
-4.25727e-06
3.55814e-05
-2.7513e-05
5.89538e-05
-6.32062e-05
8.98904e-05
-0.000111747
0.000129387
-0.000173569
0.000178499
-0.000249113
0.000238332
-0.000338808
0.000310036
-0.000443054
0.000394803
-0.00056221
0.000493957
-0.000696608
0.000609282
-0.000846535
0.00074377
-0.0010118
-0.00118716
0.000903137
2.12671e-06
4.34026e-06
9.01978e-06
7.00836e-08
2.14649e-05
-1.67024e-05
4.0308e-05
-4.63561e-05
6.64629e-05
-8.93612e-05
0.000100915
-0.000146199
0.00014472
-0.000217374
0.000199003
-0.000303396
0.000264943
-0.000404749
0.000343753
-0.000521864
0.000436642
-0.000655098
0.000544816
-0.000804781
0.000669686
-0.000971405
0.00081363
-0.00115574
-0.00135753
0.000984007
2.42775e-06
1.91251e-06
1.02076e-05
-7.70972e-06
2.41519e-05
-3.06467e-05
4.51418e-05
-6.7346e-05
7.41349e-05
-0.000118354
0.00011217
-0.000184234
0.000160368
-0.000265572
0.000219935
-0.000362963
0.000292151
-0.000476965
0.000378355
-0.000608067
0.000479888
-0.000756632
0.000598035
-0.000922928
0.000733886
-0.00110726
0.000887941
-0.0013098
-0.00153813
0.00106854
2.73498e-06
-8.22471e-07
1.14173e-05
-1.6392e-05
2.68838e-05
-4.61132e-05
5.00485e-05
-9.05107e-05
8.19098e-05
-0.000150216
0.000123557
-0.000225881
0.000176176
-0.000318191
0.000241055
-0.000427842
0.000319597
-0.000555507
0.000413324
-0.000701795
0.000523901
-0.000867209
0.000653174
-0.0010522
0.000803074
-0.00125716
0.000973021
-0.00147975
-0.00172255
0.00115744
3.04644e-06
-3.86891e-06
1.26409e-05
-2.59865e-05
2.96417e-05
-6.3114e-05
5.49912e-05
-0.00011586
8.97228e-05
-0.000184947
0.000134968
-0.000271126
0.000191967
-0.00037519
0.000262078
-0.000497954
0.00034681
-0.000640239
0.000447874
-0.000802859
0.000567318
-0.000986653
0.00070784
-0.00119272
0.000873707
-0.00142302
0.00107561
-0.00168164
-0.00199691
0.00134997
3.36e-06
-7.22891e-06
1.38702e-05
-3.64967e-05
3.24059e-05
-8.16497e-05
5.99315e-05
-0.000143386
9.75063e-05
-0.000222522
0.000146291
-0.000319911
0.000207557
-0.000436455
0.000282702
-0.000573099
0.000373285
-0.000730821
0.000481094
-0.000910668
0.000608308
-0.00111387
0.000757801
-0.00134222
0.000933852
-0.00159907
0.00114382
-0.00189161
-0.00224281
0.00138971
3.67384e-06
-1.09028e-05
1.50977e-05
-4.79205e-05
3.51584e-05
-0.00010171
6.48345e-05
-0.000173062
0.000105199
-0.000262887
0.000157424
-0.000372136
0.000222785
-0.000501817
0.000302675
-0.000652988
0.000398622
-0.000826769
0.000512345
-0.00102439
0.000645843
-0.00124736
0.000801508
-0.00149788
0.000982169
-0.00177974
0.00119064
-0.00210009
-0.00247454
0.00142238
3.98639e-06
-1.48891e-05
1.63167e-05
-6.02508e-05
3.78832e-05
-0.000123277
6.9669e-05
-0.000204848
0.000112748
-0.000305965
0.000168282
-0.00042767
0.000237523
-0.000571058
0.000321809
-0.000737274
0.00042257
-0.000927529
0.000541333
-0.00114316
0.00067973
-0.00138576
0.00083942
-0.00165757
0.00102175
-0.00196207
0.00122675
-0.00230508
-0.00269649
0.0014487
4.29641e-06
-1.91856e-05
1.75217e-05
-7.34761e-05
4.05667e-05
-0.000146322
7.4409e-05
-0.00023869
0.000120108
-0.000351664
0.000178798
-0.00048636
0.000251675
-0.000643935
0.000339986
-0.000825585
0.000445004
-0.00103255
0.000567995
-0.00126615
0.000710152
-0.00152792
0.000872403
-0.00181982
0.00105496
-0.00214463
0.00125637
-0.00250649
-0.00291112
0.00147099
4.60295e-06
-2.37885e-05
1.87083e-05
-8.75815e-05
4.31978e-05
-0.000170811
7.90331e-05
-0.000274525
0.000127245
-0.000399877
0.00018892
-0.000548035
0.000265176
-0.000720191
0.000357134
-0.000917543
0.000465876
-0.00114129
0.000592375
-0.00139265
0.000737379
-0.00167292
0.000901185
-0.00198363
0.0010832
-0.00232664
0.0012812
-0.00270449
-0.00311996
0.00149004
4.90531e-06
-2.86938e-05
1.98729e-05
-0.000102549
4.57673e-05
-0.000196706
8.35234e-05
-0.000312281
0.00013413
-0.000450483
0.000198608
-0.000612513
0.000277977
-0.000799559
0.000373209
-0.00101278
0.000485173
-0.00125325
0.000614541
-0.00152201
0.000761648
-0.00182003
0.000926268
-0.00214825
0.00110725
-0.00250762
0.00130198
-0.00289923
-0.00332376
0.00150578
5.20292e-06
-3.38967e-05
2.10122e-05
-0.000118358
4.82668e-05
-0.00022396
8.78644e-05
-0.000351879
0.000140739
-0.000503358
0.00020783
-0.000679603
0.000290039
-0.000881769
0.000388177
-0.00111091
0.000502887
-0.00136796
0.000634545
-0.00165367
0.000783113
-0.0019686
0.000947941
-0.00231308
0.00112747
-0.00268715
0.00131892
-0.00309067
-0.00352275
0.00151791
5.4952e-06
-3.93919e-05
2.21232e-05
-0.000134986
5.06884e-05
-0.000252526
9.20407e-05
-0.000393231
0.000147047
-0.000558364
0.00021655
-0.000749107
0.000301323
-0.000966542
0.000402
-0.00121159
0.000518995
-0.00148496
0.000652398
-0.00178707
0.000801839
-0.00211804
0.000966313
-0.00247755
0.00114397
-0.00286481
0.00133191
-0.00327861
-0.00371684
0.001526
5.78144e-06
2.32022e-05
5.30233e-05
-0.000282347
9.60362e-05
-0.000436244
0.000153028
-0.000615355
0.000224735
-0.000820814
0.000311786
-0.00105359
0.000414631
-0.00131444
0.000533454
-0.00160378
0.000668072
-0.00192169
0.000817811
-0.00226778
0.00098137
-0.00264111
0.00115667
-0.00304012
0.00134075
-0.00346268
-0.00390573
0.00152963
5.52617e-05
9.98326e-05
-0.000480815
0.000158654
-0.000674177
0.000232343
-0.000894503
0.000321376
-0.00114263
0.000426009
-0.00141907
0.000546198
-0.00172397
0.000681495
-0.00205699
0.000830954
-0.00241724
0.000993016
-0.00280317
0.00116542
-0.00321252
0.00134515
-0.00364241
-0.00408897
0.00152839
0.000103409
0.000163892
0.000239329
-0.00096994
0.000330032
-0.00123333
0.000436061
-0.0015251
0.000557141
-0.00184505
0.000692574
-0.00219242
0.000841158
-0.00256582
0.00100111
-0.00296313
0.00117003
-0.00338144
0.00134486
-0.00381724
-0.00426603
0.00152192
0.000245642
0.000337688
0.000444703
-0.00163211
0.000566184
-0.00196653
0.000701192
-0.00232743
0.000848291
-0.00271292
0.0010055
-0.00312034
0.0011703
-0.00354624
0.00133963
-0.00398657
-0.00443634
0.00150994
0.000451844
0.000573222
0.000707231
-0.00246144
0.00085222
-0.00285791
0.00100604
-0.00327416
0.00116607
-0.00370627
0.00132928
-0.00414977
-0.00459932
0.00149226
0.000710571
0.000852819
0.0010026
-0.00342394
0.00115722
-0.00386089
0.00131369
-0.00430624
-0.00475442
0.00146878
0.000995069
0.00114365
0.0012928
-0.00445539
-0.0049011
0.00143948
0.00126662
0.00140442
0.00126662
0.00445539
0.0049011
0.00140442
0.00084998
0.00300015
0.000995069
0.00342394
0.00114365
0.00386089
0.0012928
0.00430624
0.00475442
0.00143948
0.000578146
0.00208791
0.000710571
0.00246144
0.000852819
0.00285791
0.0010026
0.00327416
0.00115722
0.00370627
0.00131369
0.00414977
0.00459932
0.00146878
0.000451844
0.00163211
0.000573222
0.00196653
0.000707231
0.00232743
0.00085222
0.00271292
0.00100604
0.00312034
0.00116607
0.00354624
0.00132928
0.00398657
0.00443634
0.00149226
0.000245642
0.00096994
0.000337688
0.00123333
0.000444703
0.0015251
0.000566184
0.00184505
0.000701192
0.00219242
0.000848291
0.00256582
0.0010055
0.00296313
0.0011703
0.00338144
0.00133963
0.00381724
0.00426603
0.00150994
0.000103409
0.000480815
0.000163892
0.000674177
0.000239329
0.000894503
0.000330032
0.00114263
0.000436061
0.00141907
0.000557141
0.00172397
0.000692574
0.00205699
0.000841158
0.00241724
0.00100111
0.00280317
0.00117003
0.00321252
0.00134486
0.00364241
0.00408897
0.00152192
5.52617e-05
0.000282347
9.98326e-05
0.000436244
0.000158654
0.000615355
0.000232343
0.000820814
0.000321376
0.00105359
0.000426009
0.00131444
0.000546198
0.00160378
0.000681496
0.00192169
0.000830954
0.00226778
0.000993016
0.00264111
0.00116542
0.00304012
0.00134515
0.00346268
0.00390573
0.00152839
5.78144e-06
3.93919e-05
2.32022e-05
0.000134986
5.30233e-05
0.000252526
9.60362e-05
0.000393231
0.000153028
0.000558364
0.000224735
0.000749107
0.000311786
0.000966542
0.000414631
0.00121159
0.000533454
0.00148496
0.000668072
0.00178707
0.000817811
0.00211804
0.00098137
0.00247755
0.00115667
0.00286481
0.00134075
0.00327861
0.00371684
0.00152963
5.4952e-06
3.38967e-05
2.21232e-05
0.000118358
5.06884e-05
0.00022396
9.20407e-05
0.000351879
0.000147047
0.000503358
0.00021655
0.000679603
0.000301323
0.000881769
0.000402
0.00111091
0.000518995
0.00136796
0.000652398
0.00165367
0.000801839
0.0019686
0.000966313
0.00231308
0.00114397
0.00268715
0.00133191
0.00309067
0.00352275
0.001526
5.20292e-06
2.86938e-05
2.10122e-05
0.000102549
4.82668e-05
0.000196706
8.78644e-05
0.000312281
0.000140739
0.000450484
0.00020783
0.000612513
0.000290039
0.000799559
0.000388177
0.00101278
0.000502887
0.00125325
0.000634545
0.00152201
0.000783113
0.00182003
0.000947941
0.00214825
0.00112747
0.00250762
0.00131892
0.00289923
0.00332376
0.00151791
4.90531e-06
2.37885e-05
1.98729e-05
8.75815e-05
4.57673e-05
0.000170811
8.35234e-05
0.000274525
0.00013413
0.000399877
0.000198608
0.000548035
0.000277977
0.000720191
0.000373209
0.000917543
0.000485173
0.00114129
0.000614541
0.00139265
0.000761648
0.00167292
0.000926268
0.00198363
0.00110725
0.00232664
0.00130198
0.00270449
0.00311996
0.00150578
4.60295e-06
1.91856e-05
1.87083e-05
7.34761e-05
4.31978e-05
0.000146322
7.90331e-05
0.00023869
0.000127245
0.000351664
0.00018892
0.00048636
0.000265176
0.000643935
0.000357134
0.000825585
0.000465876
0.00103255
0.000592375
0.00126615
0.000737379
0.00152792
0.000901185
0.00181982
0.0010832
0.00214463
0.0012812
0.00250649
0.00291112
0.00149004
4.29641e-06
1.48891e-05
1.75217e-05
6.02508e-05
4.05667e-05
0.000123277
7.4409e-05
0.000204848
0.000120108
0.000305965
0.000178798
0.00042767
0.000251675
0.000571058
0.000339986
0.000737274
0.000445004
0.000927529
0.000567995
0.00114316
0.000710152
0.00138576
0.000872403
0.00165757
0.00105496
0.00196207
0.00125637
0.00230508
0.00269649
0.00147099
3.98639e-06
1.09028e-05
1.63167e-05
4.79205e-05
3.78832e-05
0.00010171
6.9669e-05
0.000173062
0.000112748
0.000262887
0.000168282
0.000372136
0.000237523
0.000501817
0.000321809
0.000652988
0.00042257
0.000826769
0.000541333
0.00102439
0.00067973
0.00124736
0.00083942
0.00149788
0.00102175
0.00177974
0.00122675
0.00210009
0.00247454
0.0014487
3.67384e-06
7.22891e-06
1.50977e-05
3.64967e-05
3.51584e-05
8.16497e-05
6.48345e-05
0.000143386
0.000105199
0.000222522
0.000157424
0.000319911
0.000222786
0.000436456
0.000302675
0.000573099
0.000398622
0.000730821
0.000512345
0.000910668
0.000645843
0.00111387
0.000801508
0.00134222
0.000982169
0.00159907
0.00119064
0.00189161
0.00224281
0.00142238
3.36e-06
3.86891e-06
1.38702e-05
2.59865e-05
3.24059e-05
6.3114e-05
5.99315e-05
0.00011586
9.75063e-05
0.000184947
0.000146291
0.000271126
0.000207557
0.00037519
0.000282702
0.000497954
0.000373285
0.000640239
0.000481095
0.000802859
0.000608308
0.000986653
0.000757801
0.00119272
0.000933852
0.00142302
0.00114382
0.00168164
0.00199691
0.00138971
3.04644e-06
8.22472e-07
1.26409e-05
1.6392e-05
2.96417e-05
4.61132e-05
5.49912e-05
9.05107e-05
8.97228e-05
0.000150216
0.000134968
0.000225881
0.000191967
0.000318191
0.000262078
0.000427842
0.00034681
0.000555507
0.000447874
0.000701795
0.000567318
0.000867209
0.00070784
0.0010522
0.000873707
0.00125716
0.00107561
0.00147975
0.00172255
0.00134997
2.73498e-06
-1.91251e-06
1.14173e-05
7.70973e-06
2.68838e-05
3.06467e-05
5.00485e-05
6.73461e-05
8.19098e-05
0.000118354
0.000123557
0.000184234
0.000176176
0.000265572
0.000241055
0.000362963
0.000319597
0.000476965
0.000413324
0.000608067
0.000523901
0.000756632
0.000653174
0.000922928
0.000803074
0.00110726
0.000973021
0.0013098
0.00153813
0.00115744
2.42775e-06
-4.34026e-06
1.02076e-05
-7.00822e-08
2.41519e-05
1.67024e-05
4.51418e-05
4.63561e-05
7.41349e-05
8.93612e-05
0.00011217
0.000146199
0.000160368
0.000217374
0.000219935
0.000303396
0.000292151
0.000404749
0.000378355
0.000521864
0.000479888
0.000655098
0.000598035
0.000804781
0.000733886
0.000971405
0.000887941
0.00115574
0.00135753
0.00106854
2.12671e-06
-6.46697e-06
9.01978e-06
-6.96315e-06
2.14649e-05
4.25727e-06
4.0308e-05
2.7513e-05
6.64629e-05
6.32063e-05
0.000100915
0.000111747
0.00014472
0.000173569
0.000199003
0.000249113
0.000264943
0.000338808
0.000343753
0.000443054
0.000436642
0.00056221
0.000544816
0.000696608
0.000669686
0.000846535
0.00081363
0.0010118
0.00118716
0.000984007
1.8338e-06
-8.30077e-06
7.86139e-06
-1.29907e-05
1.88406e-05
-6.7219e-06
3.55814e-05
1.07722e-05
5.89538e-05
3.98338e-05
8.98904e-05
8.08106e-05
0.000129387
0.000134072
0.000178499
0.000200001
0.000238332
0.000278975
0.000310036
0.00037135
0.000394803
0.000477443
0.000493957
0.000597453
0.000609282
0.00073121
0.00074377
0.000877311
0.00102779
0.000903137
1.5506e-06
-9.85137e-06
6.73886e-06
-1.8179e-05
1.62942e-05
-1.62772e-05
3.09913e-05
-3.92491e-06
5.16578e-05
1.91673e-05
7.91776e-05
5.32908e-05
0.000114492
9.87578e-05
0.000158601
0.000155893
0.00021256
0.000225016
0.00027749
0.00030642
0.000354614
0.000400319
0.000445375
0.000506692
0.00055174
0.000624845
0.00067667
0.000752381
0.000880181
0.00082428
1.27836e-06
-1.11297e-05
5.65732e-06
-2.2558e-05
1.3838e-05
-2.44579e-05
2.65609e-05
-1.66478e-05
4.46141e-05
1.1141e-06
6.88369e-05
2.9068e-05
0.000100124
6.74711e-05
0.000139428
0.000116589
0.000187769
0.000176674
0.000246255
0.000247934
0.000316134
0.000330441
0.000398911
0.000423914
0.000496556
0.0005272
0.000611675
0.000637262
0.000744941
0.000746915
1.01792e-06
-1.21476e-05
4.62041e-06
-2.61605e-05
1.14808e-05
-3.13183e-05
2.23071e-05
-2.74742e-05
3.78505e-05
-1.44293e-05
5.891e-05
8.00856e-06
8.63379e-05
4.00431e-05
0.000121048
8.18783e-05
0.00016403
0.000133693
0.000216375
0.000195589
0.000279332
0.000267484
0.000354394
0.000348852
0.000443403
0.000438191
0.00054848
0.000532185
0.000622288
0.000671133
7.69739e-07
-1.29174e-05
3.63044e-06
-2.90212e-05
9.2283e-06
-3.69161e-05
1.82408e-05
-3.64866e-05
3.13848e-05
-2.75734e-05
4.94223e-05
-1.00289e-05
7.31673e-05
1.62981e-05
0.000103497
5.15487e-05
0.000141368
9.58215e-05
0.000187845
0.000149112
0.000244144
0.000211185
0.000311686
0.00028131
0.000392103
0.000357774
0.00048704
0.000437248
0.000512124
0.000597204
5.33971e-07
-1.34514e-05
2.68853e-06
-3.11757e-05
7.08378e-06
-4.13114e-05
1.43682e-05
-4.37711e-05
2.52269e-05
-3.8432e-05
4.03868e-05
-2.51888e-05
6.06259e-05
-3.94092e-06
8.6784e-05
2.53905e-05
0.00011978
6.28252e-05
0.000160637
0.000108255
0.00021051
0.000161313
0.000270702
0.000221117
0.00034261
0.000285866
0.000427458
0.0003524
0.000414144
0.000525438
3.10542e-07
-1.37619e-05
1.79502e-06
-3.26602e-05
5.04852e-06
-4.45649e-05
1.06922e-05
-4.94148e-05
1.9381e-05
-4.71208e-05
3.18088e-05
-3.76166e-05
4.87175e-05
-2.08496e-05
7.0908e-05
3.19998e-06
9.92553e-05
3.44779e-05
0.000134726
7.27846e-05
0.000178391
0.000117647
0.000231416
0.000168092
0.000294962
0.00022232
0.00036991
0.000277452
0.00032791
0.000456144
9.92664e-08
-1.38612e-05
9.49698e-07
-3.35106e-05
3.1227e-06
-4.67379e-05
7.21357e-06
-5.35057e-05
1.38483e-05
-5.37555e-05
2.36889e-05
-4.74572e-05
3.74409e-05
-3.46016e-05
5.58637e-05
-1.52228e-05
7.97817e-05
1.05599e-05
0.000110095
4.24716e-05
0.000147778
7.9964e-05
0.000193849
0.000122021
0.000249251
0.000166918
0.000314606
0.000212098
0.000252895
0.000389621
-1.0013e-07
-1.3761e-05
1.52253e-07
-3.3763e-05
1.30608e-06
-4.78917e-05
3.93221e-06
-5.61318e-05
8.62907e-06
-5.84524e-05
1.6027e-05
-5.48551e-05
2.67949e-05
-4.53695e-05
4.16482e-05
-3.00761e-05
6.13562e-05
-9.148e-06
8.67449e-05
1.70828e-05
0.000118687
4.80217e-05
0.000158056
8.26525e-05
0.000205606
0.000119367
0.000261761
0.000155943
0.000188509
0.000326146
-2.87743e-07
-1.34733e-05
-5.97609e-07
-3.34531e-05
-4.01415e-07
-4.80879e-05
8.48468e-07
-5.73817e-05
3.72393e-06
-6.13278e-05
8.82424e-06
-5.99554e-05
1.67813e-05
-5.33266e-05
2.82648e-05
-4.15597e-05
4.3986e-05
-2.48692e-05
6.46944e-05
-3.62566e-06
9.11599e-05
2.15562e-05
0.000124121
4.96918e-05
0.000164173
7.93147e-05
0.000211593
0.000108523
0.000134114
0.000265988
-4.63679e-07
-1.30096e-05
-1.29977e-06
-3.2617e-05
-1.99926e-06
-4.73884e-05
-2.03633e-06
-5.73447e-05
-8.64593e-07
-6.24996e-05
2.08478e-06
-6.29048e-05
7.40659e-06
-5.86484e-05
1.57244e-05
-4.98775e-05
2.76904e-05
-3.68351e-05
4.39777e-05
-1.99129e-05
6.52573e-05
2.76544e-07
9.21459e-05
2.28032e-05
0.000125107
4.63537e-05
0.000164312
6.93176e-05
8.9052e-05
0.000209374
-6.27832e-07
-1.23818e-05
-1.9537e-06
-3.12912e-05
-3.48599e-06
-4.58561e-05
-4.7193e-06
-5.61113e-05
-5.13159e-06
-6.20873e-05
-4.18355e-06
-6.38528e-05
-1.31687e-06
-6.15151e-05
4.04625e-06
-5.52406e-05
1.24999e-05
-4.52888e-05
2.46434e-05
-3.20564e-05
4.1056e-05
-1.61361e-05
6.22466e-05
1.61258e-06
8.857e-05
2.00303e-05
0.000120121
3.7767e-05
5.26418e-05
0.000156531
-7.79943e-07
-1.16018e-05
-2.55832e-06
-2.95128e-05
-4.85916e-06
-4.35553e-05
-7.19592e-06
-5.37746e-05
-9.06954e-06
-6.02137e-05
-9.96904e-06
-6.29533e-05
-9.37136e-06
-6.21127e-05
-6.74294e-06
-5.7869e-05
-1.54539e-06
-5.04863e-05
6.75133e-06
-4.03531e-05
1.86431e-05
-2.80278e-05
3.45456e-05
-1.42899e-05
5.47244e-05
-1.48474e-07
7.92174e-05
1.3274e-05
2.41715e-05
0.000107688
-9.19597e-07
-1.06822e-05
-3.11211e-06
-2.73203e-05
-6.11534e-06
-4.0552e-05
-9.46001e-06
-5.04299e-05
-1.26685e-05
-5.70052e-05
-1.52565e-05
-6.03653e-05
-1.67343e-05
-6.06349e-05
-1.66103e-05
-5.79931e-05
-1.4398e-05
-5.26986e-05
-9.63103e-06
-4.51202e-05
-1.88755e-06
-3.57713e-05
9.16824e-06
-2.53457e-05
2.37305e-05
-1.47107e-05
4.17901e-05
-4.78563e-06
2.91235e-06
6.30493e-05
-1.04624e-06
-9.636e-06
-3.61308e-06
-2.47535e-05
-7.25026e-06
-3.69149e-05
-1.1504e-05
-4.61761e-05
-1.59164e-05
-5.25928e-05
-2.00278e-05
-5.62539e-05
-2.33796e-05
-5.72832e-05
-2.55185e-05
-5.58541e-05
-2.60059e-05
-5.22112e-05
-2.4432e-05
-4.66941e-05
-2.044e-05
-3.97632e-05
-1.37614e-05
-3.20243e-05
-4.2565e-06
-2.42157e-05
8.05812e-06
-1.71003e-05
-1.17986e-05
2.27691e-05
-1.15923e-06
-8.47676e-06
-4.05894e-06
-2.18538e-05
-8.25905e-06
-3.27147e-05
-1.33196e-05
-4.11156e-05
-1.88001e-05
-4.71123e-05
-2.42633e-05
-5.07907e-05
-2.92787e-05
-5.22678e-05
-3.34279e-05
-5.17049e-05
-3.63145e-05
-4.93246e-05
-3.75788e-05
-4.54298e-05
-3.69194e-05
-4.04226e-05
-3.41243e-05
-3.48195e-05
-2.91051e-05
-2.92348e-05
-2.19328e-05
-2.42726e-05
-2.08289e-05
-1.29025e-05
-1.25786e-06
-7.2189e-06
-4.44723e-06
-1.86644e-05
-9.13652e-06
-2.80255e-05
-1.48975e-05
-3.53546e-05
-2.13053e-05
-4.07045e-05
-2.79424e-05
-4.41536e-05
-3.44027e-05
-4.58075e-05
-4.02986e-05
-4.58091e-05
-4.52702e-05
-4.43529e-05
-4.90006e-05
-4.16994e-05
-5.12352e-05
-3.8188e-05
-5.18079e-05
-3.42468e-05
-5.06689e-05
-3.03739e-05
-4.7895e-05
-2.70465e-05
-2.50014e-05
-4.37224e-05
-1.34141e-06
-5.8775e-06
-4.77548e-06
-1.52303e-05
-9.87747e-06
-2.29235e-05
-1.62291e-05
-2.9003e-05
-2.34185e-05
-3.35151e-05
-3.10449e-05
-3.65272e-05
-3.87233e-05
-3.8129e-05
-4.60919e-05
-3.84405e-05
-5.28219e-05
-3.7623e-05
-5.86314e-05
-3.58899e-05
-6.33042e-05
-3.35152e-05
-6.67113e-05
-3.08397e-05
-6.88322e-05
-2.82529e-05
-6.97569e-05
-2.61218e-05
-2.50221e-05
-6.97362e-05
-1.40919e-06
-4.46831e-06
-5.04132e-06
-1.15982e-05
-1.0477e-05
-1.74878e-05
-1.73058e-05
-2.21742e-05
-2.51266e-05
-2.56944e-05
-3.35521e-05
-2.81017e-05
-4.22146e-05
-2.94664e-05
-5.07731e-05
-2.9882e-05
-5.89235e-05
-2.94726e-05
-6.64124e-05
-2.84011e-05
-7.30534e-05
-2.68742e-05
-7.87465e-05
-2.51465e-05
-8.34945e-05
-2.3505e-05
-8.74e-05
-2.22163e-05
-2.17036e-05
-9.07185e-05
-1.4606e-06
-3.0077e-06
-5.2427e-06
-7.81608e-06
-1.09308e-05
-1.17997e-05
-1.81204e-05
-1.49845e-05
-2.64183e-05
-1.73964e-05
-3.54479e-05
-1.90722e-05
-4.48542e-05
-2.00601e-05
-5.4312e-05
-2.04241e-05
-6.3536e-05
-2.02486e-05
-7.22938e-05
-1.96433e-05
-8.04214e-05
-1.87467e-05
-8.78401e-05
-1.77278e-05
-9.45695e-05
-1.67756e-05
-0.000100722
-1.60638e-05
-1.587e-05
-0.000106556
-1.49517e-06
-1.51254e-06
-5.37793e-06
-3.93332e-06
-1.12353e-05
-5.94237e-06
-1.86669e-05
-7.55298e-06
-2.72848e-05
-8.77848e-06
-3.67193e-05
-9.63768e-06
-4.66242e-05
-1.01552e-05
-5.6685e-05
-1.03633e-05
-6.66288e-05
-1.03049e-05
-7.6237e-05
-1.0035e-05
-8.53606e-05
-9.6231e-06
-9.39348e-05
-9.15357e-06
-0.00010199
-8.72011e-06
-0.000109646
-8.4083e-06
-8.35553e-06
-0.00011716
-1.51253e-06
-5.44584e-06
-1.13882e-05
-1.89411e-05
-2.77196e-05
-3.73572e-05
-4.75124e-05
-5.78757e-05
-6.81805e-05
-7.82154e-05
-8.78384e-05
-9.6992e-05
-0.000105712
-0.00011412
-0.000122476
-0.000126317
3.84158e-06
5.74085e-11
-0.000126618
3.00645e-07
3.90241e-11
-0.000122758
-3.86019e-06
9.63397e-12
-0.00011384
-8.91768e-06
-2.79146e-11
-9.94196e-05
-1.44205e-05
-7.53914e-11
-2.00789e-05
-1.33598e-10
-0.00012083
7.51157e-06
-0.000120926
3.9664e-07
-0.000116887
-7.89949e-06
-0.000107813
-1.79919e-05
-9.32695e-05
-2.89637e-05
-4.02391e-05
-0.000109888
1.08442e-05
-0.000109578
8.65344e-08
-0.000105187
-1.2291e-05
-9.58002e-05
-2.73784e-05
-8.10141e-05
-4.37498e-05
-6.05593e-05
-9.35257e-05
1.36514e-05
-9.26767e-05
-7.62481e-07
-8.77344e-05
-1.72333e-05
-7.78866e-05
-3.72262e-05
-6.27425e-05
-5.88939e-05
-8.11128e-05
-7.18749e-05
1.57901e-05
-7.02904e-05
-2.34702e-06
-6.46446e-05
-2.28791e-05
-5.41944e-05
-4.76763e-05
-3.85859e-05
-7.45024e-05
-0.000101965
-4.50548e-05
1.71224e-05
-4.2557e-05
-4.84481e-06
-3.60644e-05
-2.93718e-05
-2.48836e-05
-5.88571e-05
-8.71569e-06
-9.06703e-05
-0.000123169
-1.31002e-05
1.732e-05
-9.65001e-06
-8.29495e-06
-2.15975e-06
-3.6862e-05
9.85106e-06
-7.08679e-05
2.6657e-05
-0.000107476
-0.000144766
2.35761e-05
1.65129e-05
2.82304e-05
-1.29492e-05
3.68124e-05
-4.54441e-05
4.97779e-05
-8.38334e-05
6.72883e-05
-0.000124987
-0.000166778
6.4872e-05
1.46901e-05
7.08665e-05
-1.89437e-05
8.06625e-05
-5.52401e-05
9.46467e-05
-9.78175e-05
0.000112902
-0.000143242
-0.000189205
0.000110677
1.17007e-05
0.000118038