/*--------------------------------*- C++ -*----------------------------------*\
  =========                 |
  \\      /  F ield         | OpenFOAM: The Open Source CFD Toolbox
   \\    /   O peration     | Website:  https://openfoam.org
    \\  /    A nd           | Version:  7
     \\/     M anipulation  |
\*---------------------------------------------------------------------------*/
FoamFile
{
    version     2.0;
    format      ascii;
    class       volVectorField;
    location    "20";
    object      U;
}
// * * * * * * * * * * * * * * * * * * * * * * * * * * * * * * * * * * * * * //

dimensions      [0 1 -1 0 0 0 0];

internalField   nonuniform List<vector> 
3275
(
(-0.00031981 0.000324199 5.09834e-21)
(-0.00179112 0.000786915 -9.52808e-22)
(-0.00462522 0.00109956 -1.30125e-21)
(-0.0081762 0.00128999 -1.1398e-21)
(-0.0121119 0.00137932 2.24668e-21)
(-0.0161864 0.00138655 -4.35911e-21)
(-0.0201854 0.0013294 -4.76627e-21)
(-0.0239428 0.0012243 7.21379e-22)
(-0.0273389 0.00108667 6.6001e-21)
(-0.030297 0.00093107 -1.45783e-20)
(-0.0327819 0.000771255 4.88036e-21)
(-0.0347987 0.000620018 5.04719e-21)
(-0.0363908 0.000488366 1.69285e-21)
(-0.0376173 0.000383864 1.93413e-21)
(-0.0385724 0.000317369 4.26927e-21)
(-0.000357475 0.00096801 -4.37755e-21)
(-0.00187039 0.00234891 1.25476e-20)
(-0.00470826 0.00328135 5.96729e-21)
(-0.00823267 0.00384851 2.59969e-21)
(-0.0121151 0.00411346 1.02056e-20)
(-0.0161123 0.00413302 4.81014e-22)
(-0.0200124 0.0039602 5.69829e-21)
(-0.0236515 0.00364414 -1.62299e-20)
(-0.0269116 0.00323097 5.09541e-21)
(-0.0297176 0.00276435 -1.13108e-20)
(-0.0320357 0.00228555 3.15944e-21)
(-0.0338727 0.00183304 1.45422e-20)
(-0.0352752 0.00143997 -3.89799e-21)
(-0.0363009 0.00112944 -3.51425e-21)
(-0.0370369 0.000934691 4.69491e-21)
(-0.000431836 0.00159812 -2.81674e-21)
(-0.00202644 0.00387552 -2.87302e-20)
(-0.00487071 0.00541137 1.16695e-20)
(-0.00834114 0.00634286 3.19476e-21)
(-0.0121163 0.00677435 -1.97761e-20)
(-0.0159585 0.00679992 1.51994e-20)
(-0.0196606 0.00650731 -9.60767e-21)
(-0.023063 0.00597799 3.6197e-20)
(-0.0260511 0.00528851 3.22448e-21)
(-0.0285528 0.00451143 2.22053e-20)
(-0.0305374 0.00371559 -2.38876e-20)
(-0.0320151 0.00296537 -3.51137e-20)
(-0.0330385 0.00231649 1.22948e-20)
(-0.0336629 0.00180877 -5.13147e-21)
(-0.033961 0.00149985 2.83585e-20)
(-0.000540973 0.00220562 1.19045e-20)
(-0.00225431 0.00534376 -6.20854e-21)
(-0.00510535 0.00745594 -2.28121e-20)
(-0.00849266 0.00873131 -4.3464e-20)
(-0.0121054 0.00931435 1.99414e-20)
(-0.0157139 0.00933547 7.8806e-21)
(-0.0191184 0.00891636 1.76642e-20)
(-0.0221653 0.00817007 -1.37743e-20)
(-0.0247453 0.00720302 1.10002e-20)
(-0.0267909 0.00611642 -3.99034e-20)
(-0.0282754 0.00500671 1.18741e-20)
(-0.0292145 0.00396461 4.22077e-20)
(-0.0296698 0.00306909 -5.15644e-20)
(-0.029693 0.0023786 1.3315e-20)
(-0.0293339 0.00197845 -4.78009e-20)
(-0.000682044 0.00278199 7.91984e-21)
(-0.00254664 0.00673147 4.76361e-21)
(-0.00540145 0.0093826 3.08424e-20)
(-0.00867389 0.0109736 -5.72448e-21)
(-0.0120671 0.0116875 7.63346e-21)
(-0.0153618 0.0116899 -8.56002e-21)
(-0.0183682 0.0111351 4.37277e-20)
(-0.0209405 0.0101668 2.24612e-20)
(-0.0229762 0.00892056 -3.6548e-20)
(-0.0244137 0.00752579 5.10071e-21)
(-0.0252322 0.00610656 1.0408e-20)
(-0.0254538 0.00478057 -5.8511e-20)
(-0.0251524 0.00365096 9.4993e-20)
(-0.0243762 0.00279744 1.96776e-20)
(-0.0231414 0.00233737 1.85482e-20)
(-0.000851329 0.00331916 -1.58861e-20)
(-0.00289376 0.00801768 4.69926e-20)
(-0.0057448 0.0111605 -4.45237e-20)
(-0.00886717 0.0130315 7.43565e-20)
(-0.011981 0.0138504 4.93474e-20)
(-0.0148802 0.013816 -6.76121e-21)
(-0.0173865 0.0131142 -9.23018e-20)
(-0.0193644 0.0119178 8.34055e-21)
(-0.0207194 0.0103905 3.27837e-21)
(-0.0213973 0.00868938 6.7406e-20)
(-0.021384 0.00696614 5.85609e-21)
(-0.0207099 0.00536621 7.00004e-20)
(-0.0194642 0.00401824 -1.31427e-19)
(-0.017692 0.003027 9.32978e-21)
(-0.0153633 0.00254793 1.78009e-21)
(-0.00104429 0.00380965 2.80652e-20)
(-0.00328377 0.00918282 3.65663e-20)
(-0.00611788 0.012761 -1.26371e-20)
(-0.00905056 0.0148694 -1.37792e-19)
(-0.011822 0.0157623 -4.45279e-20)
(-0.0142411 0.0156701 -7.99286e-21)
(-0.0161441 0.014808 3.26834e-20)
(-0.0174067 0.0133767 5.46777e-21)
(-0.0179444 0.0115665 -7.66097e-20)
(-0.0177113 0.00956143 -1.17107e-19)
(-0.016701 0.00754074 -9.88435e-20)
(-0.0149533 0.00567853 -1.1747e-19)
(-0.0125761 0.00413067 8.33561e-20)
(-0.00961338 0.00303272 -1.00692e-19)
(-0.00597609 0.00259221 -2.13015e-20)
(-0.00125561 0.00424664 -3.46729e-20)
(-0.0037027 0.010209 -3.25952e-20)
(-0.00649995 0.0141576 -1.43374e-20)
(-0.00919798 0.0164548 1.0234e-19)
(-0.0115597 0.0173865 -1.87146e-20)
(-0.0134115 0.0172126 8.97314e-20)
(-0.0146056 0.0161757 8.85016e-21)
(-0.0150311 0.0145021 -8.44767e-20)
(-0.0146143 0.0124076 6.48823e-20)
(-0.0133189 0.0101017 9.40765e-20)
(-0.0111469 0.00779109 -2.36228e-20)
(-0.00814876 0.00567958 9.82309e-20)
(-0.00445261 0.00395177 -3.47126e-20)
(-0.00010132 0.00278014 4.98538e-20)
(0.00504589 0.00244935 -9.18001e-20)
(-0.00147928 0.00462405 2.79613e-20)
(-0.00413459 0.0110801 -9.05985e-21)
(-0.0068672 0.0153268 2.3826e-20)
(-0.00927933 0.0177584 -4.26648e-20)
(-0.0111591 0.01869 -3.44346e-20)
(-0.0123526 0.0184086 7.64968e-21)
(-0.0127297 0.0171814 -2.54569e-20)
(-0.0121945 0.0152585 1.16542e-19)
(-0.0106856 0.0128789 -1.58474e-20)
(-0.00817667 0.0102764 1.06856e-19)
(-0.00467899 0.00768463 2.30582e-20)
(-0.000254714 0.00533784 5.1075e-20)
(0.00494514 0.00345166 4.9006e-20)
(0.010886 0.00224428 2.33214e-20)
(0.0177488 0.00208824 1.30007e-19)
(-0.00170867 0.00493654 -1.35298e-21)
(-0.00456165 0.0117821 -6.78736e-20)
(-0.00719287 0.0162479 4.72375e-20)
(-0.00926061 0.018755 -2.4315e-20)
(-0.0105806 0.0196447 9.21543e-20)
(-0.0110202 0.0192283 -4.86867e-20)
(-0.0104692 0.0177954 -4.86136e-20)
(-0.00884795 0.015617 4.20375e-20)
(-0.00610814 0.0129531 1.14373e-20)
(-0.00223464 0.0100598 -2.08113e-19)
(0.00275191 0.00719686 -1.60011e-20)
(0.00877732 0.0046298 3.03649e-20)
(0.0156653 0.00260847 9.20586e-20)
(0.0233891 0.00140665 -8.81375e-20)
(0.0321802 0.0014926 3.65809e-21)
(-0.00193652 0.00517956 -7.16128e-20)
(-0.00496438 0.0123027 3.80024e-20)
(-0.00744745 0.0169031 -1.00055e-19)
(-0.00910408 0.0194231 2.00454e-20)
(-0.00977973 0.0202271 -3.98297e-20)
(-0.00936495 0.0196479 -2.49484e-20)
(-0.0077709 0.0179945 -1.30971e-19)
(-0.00493566 0.0155562 7.09534e-20)
(-0.00082524 0.012611 -5.3853e-20)
(0.00456397 0.009435 3.99292e-20)
(0.0112017 0.00631269 -4.17893e-20)
(0.0190019 0.0035411 -9.11149e-20)
(0.0277615 0.0014071 -8.82285e-20)
(0.0374598 0.00025072 8.01955e-20)
(0.0483902 0.000662247 1.90825e-20)
(-0.00215508 0.00534932 1.11194e-19)
(-0.00532167 0.0126321 3.43513e-20)
(-0.00759877 0.0172782 1.77392e-21)
(-0.00876839 0.0197458 2.54096e-20)
(-0.00870771 0.0204191 8.51017e-20)
(-0.0073321 0.0196497 -9.48842e-20)
(-0.00457573 0.0177629 1.49451e-19)
(-0.000395748 0.0150629 -4.7823e-20)
(0.00522656 0.0118427 -1.51172e-20)
(0.0122827 0.00839547 4.8745e-20)
(0.0207329 0.00502797 -1.80385e-20)
(0.0304798 0.00206845 6.68116e-20)
(0.0412926 -0.000156927 -6.63129e-21)
(0.0531564 -0.00122948 1.64171e-20)
(0.0664363 -0.000403562 1.68528e-19)
(-0.00235604 0.00544278 -9.58918e-20)
(-0.00561092 0.0127623 -1.92025e-20)
(-0.00761221 0.017362 4.82442e-20)
(-0.00820888 0.0197102 -1.04304e-19)
(-0.00731158 0.0202079 -2.64266e-20)
(-0.00486207 0.0192225 1.54398e-20)
(-0.000819053 0.0170921 -1.25781e-19)
(0.00483993 0.0141326 -3.35257e-20)
(0.0121173 0.0106484 -1.61628e-20)
(0.0209918 0.00694595 7.99878e-20)
(0.0314144 0.00335108 2.81582e-20)
(0.0432775 0.000221646 -1.5151e-19)
(0.0563226 -0.00207551 -5.80863e-20)
(0.0705415 -0.0030294 7.47298e-20)
(0.0863802 -0.00169988 -1.4549e-19)
(-0.00253069 0.00545763 6.58245e-20)
(-0.00580814 0.0126874 1.02589e-19)
(-0.00745088 0.0171468 -2.99541e-20)
(-0.00737774 0.0193084 8.40749e-20)
(-0.00553447 0.0195866 -2.32151e-20)
(-0.00189064 0.0183617 -1.92295e-19)
(0.00356908 0.0159815 1.34913e-19)
(0.0108454 0.0127699 2.01526e-19)
(0.0199232 0.00903889 4.72469e-20)
(0.030768 0.00510357 -2.01284e-19)
(0.0433215 0.00130441 -8.00619e-20)
(0.0574673 -0.00197448 -1.17857e-19)
(0.0729205 -0.00432589 2.29181e-19)
(0.0896819 -0.00513233 -1.92399e-19)
(0.108291 -0.0032114 2.01688e-19)
(-0.00266981 0.00539225 -4.79382e-20)
(-0.00588809 0.0124037 -5.41053e-20)
(-0.00707584 0.0166281 7.299e-21)
(-0.00622442 0.0185366 -6.07893e-20)
(-0.00331609 0.0185536 5.33573e-20)
(0.00165052 0.0170694 -1.30549e-20)
(0.00866342 0.0144383 -6.14079e-20)
(0.0177002 0.0109887 -7.26642e-20)
(0.0287268 0.00703581 -1.23847e-19)
(0.0416943 0.00289846 -7.00309e-20)
(0.0565354 -0.00107433 2.32657e-20)
(0.0731265 -0.00447789 -1.06063e-19)
(0.0911589 -0.006868 -3.54818e-20)
(0.110648 -0.00750737 -1.53228e-19)
(0.132242 -0.00491499 -6.72785e-20)
(-0.00276379 0.00524573 -6.68317e-20)
(-0.00582437 0.0119094 -9.68792e-20)
(-0.0064464 0.015805 -1.01858e-19)
(-0.00469603 0.0173956 4.89377e-20)
(-0.000593249 0.017113 2.54823e-19)
(0.00583319 0.0153543 -2.52918e-21)
(0.0145427 0.0124773 8.40134e-20)
(0.0254883 0.00881169 1.04603e-19)
(0.0386156 0.00467164 -1.50993e-19)
(0.0538596 0.000373965 5.27059e-20)
(0.0711431 -0.00373115 1.83672e-19)
(0.0903371 -0.00722724 1.34182e-19)
(0.111113 -0.00964119 -2.15083e-20)
(0.133509 -0.0101062 -4.12413e-20)
(0.158307 -0.0067792 -5.74937e-21)
(-0.00280263 0.00501783 5.51264e-20)
(-0.00558964 0.0112049 1.57592e-20)
(-0.00552044 0.0146797 1.39553e-19)
(-0.00273789 0.015891 -1.50012e-19)
(0.00269938 0.0152743 -1.36876e-19)
(0.0107317 0.0132314 -1.25456e-20)
(0.0212888 0.0101208 1.00675e-19)
(0.0342977 0.0062701 8.12568e-20)
(0.0496816 0.00198886 3.68084e-19)
(0.0673575 -0.00241388 2.02337e-19)
(0.0872366 -0.00659552 1.50033e-19)
(0.109186 -0.0101401 9.81279e-20)
(0.13286 -0.0125603 -1.43924e-19)
(0.158334 -0.0128577 1.65634e-19)
(0.186557 -0.00875824 -1.13176e-19)
(-0.002776 0.00470901 -8.08388e-20)
(-0.00515581 0.0102928 9.65968e-20)
(-0.0042549 0.013258 3.05738e-20)
(-0.000294244 0.0140325 6.73856e-20)
(0.0066283 0.0130526 2.22059e-19)
(0.0164215 0.0107219 1.59694e-20)
(0.0289849 0.0073973 8.54373e-20)
(0.044218 0.00340235 -1.20723e-19)
(0.0620196 -0.000961454 -3.45742e-19)
(0.0822856 -0.00539795 -1.33824e-20)
(0.104913 -0.00958135 -6.04024e-20)
(0.129762 -0.0131119 -2.87326e-19)
(0.15648 -0.0155116 1.71447e-19)
(0.185189 -0.0156615 -1.27265e-19)
(0.217059 -0.0107884 2.63423e-19)
(-0.00267328 0.00432051 1.19174e-19)
(-0.0044943 0.00917783 -4.39157e-20)
(-0.00260626 0.0115493 -1.36913e-19)
(0.00269093 0.0118347 7.498e-20)
(0.01126 0.0104678 -1.63052e-19)
(0.0229782 0.00785231 -1.0547e-19)
(0.0377141 0.00434134 -7.95348e-20)
(0.0553389 0.000252669 -3.53827e-20)
(0.075725 -0.00412193 2.04899e-19)
(0.0987435 -0.00850292 2.45388e-20)
(0.124272 -0.0125898 -1.75875e-19)
(0.152163 -0.0160168 1.86178e-20)
(0.182053 -0.0183488 5.39941e-20)
(0.214137 -0.0183777 6.2868e-20)
(0.249875 -0.0127797 -1.16211e-19)
(-0.00248372 0.00385441 -9.75497e-20)
(-0.00357645 0.00786722 -8.34477e-20)
(-0.00053126 0.0095664 1.13116e-19)
(0.00627291 0.00931641 -1.84978e-19)
(0.0166597 0.00754535 2.01294e-19)
(0.0304751 0.00465448 1.29093e-20)
(0.0475569 0.000991992 7.18163e-20)
(0.0677474 -0.00313077 8.26988e-22)
(0.0908907 -0.00743202 -1.00078e-19)
(0.11683 -0.01165 8.91571e-20)
(0.145417 -0.0155148 4.13871e-20)
(0.176488 -0.0187121 9.23858e-20)
(0.209669 -0.0208911 1.26321e-19)
(0.245241 -0.0208162 -1.26616e-19)
(0.285056 -0.0146024 5.35435e-20)
(-0.00219652 0.00331372 1.06571e-19)
(-0.00237388 0.00637075 9.98705e-21)
(0.0020124 0.00732625 6.75355e-21)
(0.0105051 0.0065015 1.16719e-19)
(0.0228895 0.00431546 -2.03378e-19)
(0.0389812 0.00116506 -1.2476e-19)
(0.0585881 -0.00260775 1.91099e-19)
(0.0815237 -0.00669784 -2.51946e-19)
(0.107603 -0.0108318 5.12027e-20)
(0.136639 -0.0147631 -1.85953e-19)
(0.16845 -0.0182526 -1.67522e-19)
(0.202845 -0.021048 -9.66562e-20)
(0.239431 -0.0229285 2.1408e-19)
(0.278583 -0.0227282 3.8577e-20)
(0.322659 -0.0160736 -1.38231e-19)
(-0.00180106 0.00270253 3.48398e-20)
(-0.000859027 0.00470101 -2.14017e-19)
(0.00506523 0.00484972 7.48317e-20)
(0.0154378 0.00341858 1.05208e-19)
(0.0300071 0.000813728 2.52862e-20)
(0.0485594 -0.00257451 1.7486e-19)
(0.070874 -0.00641161 -1.07436e-19)
(0.0967373 -0.0103981 1.74889e-19)
(0.125936 -0.0142657 7.71617e-20)
(0.158251 -0.0177769 2.46351e-20)
(0.193465 -0.0207142 2.8265e-19)
(0.231345 -0.0228855 5.79623e-21)
(0.271462 -0.024235 -6.2363e-20)
(0.314268 -0.0237931 2.55581e-19)
(0.362763 -0.0169001 -2.41742e-19)
(-0.00128707 0.00202606 6.43061e-20)
(0.000994368 0.00287363 -8.81162e-20)
(0.00866512 0.00216208 -6.48241e-20)
(0.0211172 0.000101564 -2.22634e-19)
(0.0380636 -0.00291869 -1.27792e-19)
(0.0592631 -0.00651767 -7.729e-20)
(0.0844685 -0.01037 -1.57693e-19)
(0.113442 -0.0141816 -1.95246e-19)
(0.145944 -0.017686 1.40364e-20)
(0.181729 -0.0206448 1.13269e-19)
(0.22054 -0.0228433 5.33045e-20)
(0.262095 -0.0241248 -2.9008e-20)
(0.305899 -0.0245881 -2.60645e-21)
(0.35241 -0.0235359 -1.52256e-19)
(0.405366 -0.0164178 2.15755e-19)
(-0.000644819 0.00129081 5.66806e-20)
(0.00321072 0.000907396 -9.46745e-20)
(0.0128465 -0.000706794 8.96291e-20)
(0.0275839 -0.00341002 1.62364e-19)
(0.0471022 -0.0068345 8.7168e-21)
(0.0711348 -0.010612 -5.38662e-20)
(0.09941 -0.014429 1.38264e-19)
(0.131668 -0.0179984 9.24214e-20)
(0.167652 -0.0210533 -2.83007e-19)
(0.207096 -0.0233456 -2.99324e-19)
(0.249722 -0.0246394 1.15415e-19)
(0.295204 -0.0247604 -6.48561e-20)
(0.342977 -0.0238377 3.37659e-20)
(0.39326 -0.0212686 -1.83925e-19)
(0.450189 -0.0132388 1.17984e-19)
(0.000134614 0.000504543 2.38764e-19)
(0.00581212 -0.00117558 2.2809e-19)
(0.0176398 -0.00372219 6.24832e-20)
(0.0348723 -0.00707063 5.53499e-20)
(0.0571573 -0.0108796 1.0556e-19)
(0.0842038 -0.0147979 -9.09807e-21)
(0.115718 -0.0185284 1.29644e-19)
(0.151422 -0.0217949 1.26927e-19)
(0.191048 -0.0243334 4.41589e-20)
(0.234326 -0.0258852 1.07203e-19)
(0.280988 -0.0261808 -3.8805e-20)
(0.330748 -0.0249731 1.3381e-19)
(0.383155 -0.0221721 -4.38989e-20)
(0.438131 -0.0168107 1.84909e-19)
(0.498603 -0.00678632 -2.75948e-19)
(0.00105923 -0.00032365 -6.09505e-20)
(0.00881792 -0.0033499 -2.82589e-19)
(0.0230706 -0.00684452 -1.65052e-20)
(0.0430098 -0.0108285 -9.60811e-20)
(0.0682529 -0.0149923 -8.02464e-21)
(0.0984855 -0.0190072 -9.04835e-20)
(0.133392 -0.0225984 -5.55487e-20)
(0.172678 -0.025508 -2.12846e-19)
(0.216068 -0.0274855 1.56931e-19)
(0.263302 -0.0282765 1.93932e-19)
(0.31416 -0.0276026 -2.13636e-19)
(0.368505 -0.0251619 -2.55631e-20)
(0.426462 -0.0205332 -8.13653e-20)
(0.489092 -0.0123895 -1.74713e-19)
(0.561136 -0.00218873 3.52682e-19)
(0.00213594 -0.00118346 -1.29285e-19)
(0.0122444 -0.00558697 -1.63316e-19)
(0.0291596 -0.0100294 1.40712e-19)
(0.0520165 -0.0146253 1.79165e-19)
(0.0804032 -0.019103 -1.57659e-19)
(0.113981 -0.0231616 -2.59069e-20)
(0.152412 -0.0265562 -6.45946e-20)
(0.195383 -0.029057 -1.14562e-20)
(0.242606 -0.0304421 -1.77776e-20)
(0.293828 -0.0304897 -2.53338e-19)
(0.348862 -0.0289701 1.40778e-19)
(0.407686 -0.0256608 -1.70819e-19)
(0.470764 -0.0202526 2.52034e-20)
(0.53944 -0.0124708 2.79865e-19)
(0.615577 -0.00747224 -2.27072e-19)
(0.00337049 -0.00206346 -1.34744e-21)
(0.0161048 -0.00785523 8.27284e-20)
(0.0359221 -0.0132277 -2.41343e-19)
(0.0619051 -0.0183969 -2.37393e-19)
(0.0936127 -0.023134 2.10556e-19)
(0.130681 -0.0271726 4.01634e-20)
(0.172744 -0.0303044 8.49241e-20)
(0.219464 -0.0323382 1.26275e-19)
(0.270531 -0.0330954 -1.78471e-19)
(0.325674 -0.0324112 -2.80237e-19)
(0.384698 -0.0301459 1.89451e-19)
(0.447571 -0.0262304 3.3067e-19)
(0.514733 -0.0206132 -1.73758e-19)
(0.58711 -0.0138325 5.25469e-20)
(0.663769 -0.012054 -2.8646e-19)
(0.00476745 -0.00295127 1.17968e-19)
(0.0204087 -0.0101206 5.97153e-20)
(0.0433684 -0.0163865 4.30484e-19)
(0.0726813 -0.0220734 1.0076e-19)
(0.107877 -0.0270009 -2.68995e-19)
(0.148562 -0.0309423 2.15584e-19)
(0.194341 -0.033733 1.41587e-19)
(0.244839 -0.0352283 5.80765e-20)
(0.299709 -0.0353039 3.12267e-19)
(0.358636 -0.0338652 3.05396e-19)
(0.421365 -0.0308742 -1.32561e-19)
(0.487756 -0.0264127 -5.97669e-20)
(0.55802 -0.0206306 2.27082e-19)
(0.632484 -0.0144175 -9.26662e-21)
(0.708627 -0.0138219 3.56894e-19)
(0.00633022 -0.00383376 -6.54297e-20)
(0.0251627 -0.0123469 3.87007e-20)
(0.0515034 -0.0194497 -1.12289e-20)
(0.0843435 -0.0255807 -2.28469e-19)
(0.123182 -0.0306134 5.40139e-20)
(0.167595 -0.0343658 4.35776e-22)
(0.217147 -0.0367226 -1.56511e-19)
(0.271421 -0.0375917 -2.84464e-19)
(0.330014 -0.036909 -1.596e-19)
(0.392542 -0.0346542 1.89698e-19)
(0.458654 -0.0308857 -2.21135e-19)
(0.528053 -0.0258057 -8.90573e-20)
(0.60066 -0.0196894 6.36352e-21)
(0.676283 -0.0135347 4.93139e-20)
(0.751716 -0.0129918 2.01109e-19)
(0.00806104 -0.00469724 -1.07735e-19)
(0.03037 -0.0144965 -3.44101e-19)
(0.0603267 -0.0223584 -6.14907e-20)
(0.0968834 -0.0288418 2.85052e-19)
(0.139508 -0.0338779 2.70483e-19)
(0.187739 -0.0373344 -1.6124e-19)
(0.2411 -0.0391497 1.12946e-19)
(0.299118 -0.0392887 1.51642e-19)
(0.361323 -0.0377502 2.15697e-19)
(0.427246 -0.0345866 -3.54242e-19)
(0.496414 -0.0299414 7.28539e-20)
(0.568358 -0.0241061 -1.55605e-19)
(0.642726 -0.0174254 -1.10975e-19)
(0.718934 -0.0108968 -3.25267e-19)
(0.793555 -0.00972374 -5.79463e-19)
(0.00996106 -0.00552768 8.05688e-20)
(0.0360305 -0.0165306 4.02539e-19)
(0.0698328 -0.0250526 -6.65886e-20)
(0.110285 -0.0317777 -2.76958e-19)
(0.156824 -0.0366994 -1.44982e-19)
(0.208948 -0.0397385 -4.45198e-20)
(0.26613 -0.0408915 -6.03371e-21)
(0.327836 -0.0401828 -4.00607e-20)
(0.393519 -0.0376754 -2.78584e-19)
(0.462611 -0.0334912 -8.56021e-20)
(0.534513 -0.0278466 1.87744e-19)
(0.608586 -0.0210987 -6.23581e-20)
(0.684239 -0.0136284 1.32097e-19)
(0.760614 -0.00639078 3.93605e-20)
(0.834289 -0.00416596 5.88934e-19)
(0.0120303 -0.00631078 6.23632e-20)
(0.0421405 -0.0184098 -2.44055e-19)
(0.0800104 -0.0274716 -7.72956e-20)
(0.124527 -0.0343094 2.20265e-19)
(0.175092 -0.0389831 -1.01555e-19)
(0.231163 -0.0414706 2.13261e-19)
(0.292157 -0.0418294 5.27866e-20)
(0.357472 -0.0401462 9.48648e-22)
(0.426478 -0.0365481 3.07588e-19)
(0.498503 -0.0312238 -9.30738e-20)
(0.57282 -0.0244535 2.57691e-19)
(0.648635 -0.016644 1.96829e-19)
(0.725162 -0.00819745 -9.10411e-20)
(0.801347 -1.92003e-05 -6.79275e-20)
(0.873899 0.00349626 -1.457e-19)
(0.0142678 -0.00703215 2.46741e-20)
(0.0486933 -0.0200947 1.80076e-19)
(0.0908429 -0.0295548 6.24143e-20)
(0.139578 -0.0363589 -2.26334e-19)
(0.194265 -0.0406369 2.74412e-19)
(0.254317 -0.0424276 -3.17519e-20)
(0.319091 -0.0418526 -9.59288e-20)
(0.387915 -0.039063 1.90393e-19)
(0.460069 -0.0342513 -2.34426e-19)
(0.534777 -0.02767 -4.56286e-20)
(0.611192 -0.0196582 -1.17022e-19)
(0.688383 -0.0106643 -2.30911e-19)
(0.765403 -0.00110734 4.03969e-20)
(0.841067 0.00814922 -1.66962e-20)
(0.912273 0.0130656 8.83994e-20)
(0.0166712 -0.00767739 7.32264e-21)
(0.0556782 -0.0215462 9.199e-20)
(0.102308 -0.0312426 -1.33508e-19)
(0.1554 -0.0378501 3.67929e-20)
(0.214287 -0.0415725 -2.10323e-19)
(0.278332 -0.0425127 -2.54011e-19)
(0.346834 -0.04086 -5.31252e-20)
(0.419042 -0.0368324 -1.52177e-19)
(0.49415 -0.0306885 -5.76365e-20)
(0.57128 -0.0227447 -2.2887e-20)
(0.649473 -0.013396 1.93378e-19)
(0.727678 -0.00312938 -1.24088e-19)
(0.804827 0.00761661 -2.5381e-20)
(0.879647 0.0180096 -6.68284e-20)
(0.949255 0.0243429 7.33859e-20)
(0.114377 -0.032477 3.8601e-20)
(0.171948 -0.0387103 -1.21865e-20)
(0.235091 -0.0417068 -4.43594e-20)
(0.30312 -0.0416375 2.77197e-20)
(0.375271 -0.0387623 5.29404e-20)
(0.450719 -0.0333693 2.61448e-20)
(0.528568 -0.0257849 1.20949e-19)
(0.607844 -0.0163901 3.9535e-20)
(0.687487 -0.00563545 -1.5087e-20)
(0.766351 0.00595356 7.86407e-20)
(0.843272 0.0179146 1.2131e-19)
(0.91693 0.0294358 -4.35313e-20)
(0.984672 0.0371293 2.23294e-21)
(0.189166 -0.0388707 1.10234e-19)
(0.2566 -0.0409631 6.17285e-20)
(0.328581 -0.0397224 9.34947e-20)
(0.404281 -0.0354828 9.21191e-20)
(0.4828 -0.0286052 7.40524e-20)
(0.563157 -0.0194866 1.00511e-19)
(0.64429 -0.00857377 1.3775e-19)
(0.725051 0.00362633 1.71372e-20)
(0.804218 0.0165485 4.49773e-21)
(0.880561 0.0297023 -2.39105e-19)
(0.952743 0.0422892 -8.54625e-21)
(1.01835 0.0512293 3.99987e-21)
(0.354604 -0.0366982 -2.94229e-20)
(0.433728 -0.0309581 -1.01757e-20)
(0.515127 -0.0224887 6.02082e-20)
(0.597742 -0.0117599 -2.46194e-19)
(0.680429 0.000713636 -1.35077e-21)
(0.76197 0.0143678 2.20767e-19)
(0.841086 0.0285964 7.32796e-20)
(0.91651 0.0428779 7.4319e-20)
(0.986914 0.0564235 7.15789e-20)
(1.05013 0.0664521 1.20023e-20)
(0.547534 -0.0149849 -9.44202e-20)
(0.632138 -0.00259065 1.09046e-19)
(0.716067 0.0114606 5.59377e-20)
(0.798045 0.0265465 -1.23296e-20)
(0.876762 0.0420197 7.93131e-20)
(0.950936 0.057327 1.31763e-20)
(1.01928 0.0716885 -9.19379e-20)
(1.07986 0.0826139 -1.14553e-19)
(0.751005 0.0236365 -2.25565e-19)
(0.833079 0.0401018 -1.42347e-19)
(0.911056 0.0567261 -1.14392e-19)
(0.983668 0.0729257 1.74475e-19)
(1.04969 0.0879328 -1.33217e-19)
(1.10743 0.0995389 9.48006e-20)
(0.943787 0.072611 -1.36488e-19)
(1.01455 0.0895439 5.90325e-20)
(1.07801 0.105006 4.72479e-20)
(1.13274 0.117061 -2.20408e-20)
(1.10414 0.122759 3.72088e-20)
(1.15572 0.135024 -1.20832e-11)
(1.10414 -0.122759 -1.05879e-19)
(1.15572 -0.135024 3.67262e-20)
(0.866878 -0.0549577 7.37116e-20)
(0.943787 -0.072611 -1.12592e-19)
(1.01455 -0.0895439 -1.27969e-19)
(1.07801 -0.105006 1.01089e-19)
(1.13274 -0.117061 -3.97611e-21)
(0.666156 -0.00801731 -9.79824e-20)
(0.751005 -0.0236364 7.47777e-20)
(0.833079 -0.0401018 -1.99272e-19)
(0.911056 -0.0567261 -1.18029e-19)
(0.983668 -0.0729257 2.90343e-21)
(1.04969 -0.0879328 5.0904e-21)
(1.10743 -0.0995389 -1.45488e-20)
(0.547534 0.0149849 -1.31888e-19)
(0.632138 0.00259065 1.67608e-19)
(0.716067 -0.0114606 7.33513e-20)
(0.798045 -0.0265465 -1.6545e-19)
(0.876762 -0.0420197 2.06818e-19)
(0.950936 -0.057327 7.21458e-21)
(1.01928 -0.0716885 -1.99361e-20)
(1.07986 -0.0826138 -1.89676e-19)
(0.354604 0.0366982 6.06529e-21)
(0.433728 0.0309581 -1.79146e-19)
(0.515127 0.0224887 1.23685e-19)
(0.597742 0.0117599 -1.2772e-19)
(0.680429 -0.000713632 -1.03106e-19)
(0.76197 -0.0143678 2.14691e-19)
(0.841086 -0.0285964 1.25929e-19)
(0.91651 -0.0428779 6.79487e-20)
(0.986914 -0.0564235 1.03751e-19)
(1.05013 -0.0664521 7.17078e-20)
(0.189166 0.0388708 1.84925e-19)
(0.2566 0.0409631 1.9396e-19)
(0.328581 0.0397224 1.72067e-19)
(0.404281 0.0354828 7.23988e-20)
(0.4828 0.0286052 5.13665e-20)
(0.563157 0.0194866 8.7091e-20)
(0.64429 0.00857378 2.52714e-19)
(0.725051 -0.00362633 -1.51326e-19)
(0.804218 -0.0165485 2.94589e-20)
(0.880561 -0.0297023 -1.64325e-19)
(0.952743 -0.0422892 3.16789e-20)
(1.01835 -0.0512293 -5.36395e-20)
(0.114377 0.032477 -1.83166e-19)
(0.171948 0.0387103 -2.2056e-19)
(0.235091 0.0417068 1.14475e-19)
(0.30312 0.0416375 -7.50737e-20)
(0.375271 0.0387623 -3.88161e-21)
(0.450719 0.0333693 1.6487e-20)
(0.528568 0.0257849 8.50969e-20)
(0.607844 0.0163901 1.52459e-19)
(0.687487 0.00563546 9.30478e-20)
(0.766351 -0.00595356 9.84706e-21)
(0.843272 -0.0179146 1.45299e-19)
(0.91693 -0.0294358 8.07548e-20)
(0.984672 -0.0371293 -1.0238e-19)
(0.0166712 0.00767739 -3.96094e-20)
(0.0556782 0.0215462 -9.20225e-20)
(0.102308 0.0312426 3.71696e-20)
(0.1554 0.0378501 1.32634e-19)
(0.214287 0.0415725 -2.47005e-19)
(0.278332 0.0425127 -2.62865e-19)
(0.346834 0.04086 -1.09106e-19)
(0.419042 0.0368324 -1.31547e-19)
(0.49415 0.0306885 -1.01616e-19)
(0.57128 0.0227447 -6.73674e-20)
(0.649473 0.013396 1.47163e-19)
(0.727678 0.00312938 -4.75454e-20)
(0.804827 -0.00761661 -7.83076e-20)
(0.879647 -0.0180096 4.78846e-20)
(0.949255 -0.0243429 9.03692e-20)
(0.0142678 0.00703215 2.71391e-20)
(0.0486933 0.0200947 8.58276e-20)
(0.0908429 0.0295548 1.28282e-19)
(0.139578 0.0363589 -1.97712e-19)
(0.194265 0.0406369 8.45788e-20)
(0.254317 0.0424276 2.79527e-19)
(0.319091 0.0418526 -1.25899e-19)
(0.387915 0.039063 -2.17886e-20)
(0.460069 0.0342513 -2.08492e-20)
(0.534777 0.02767 8.20677e-20)
(0.611192 0.0196582 -1.81323e-19)
(0.688383 0.0106643 -4.55648e-19)
(0.765403 0.00110735 1.67279e-19)
(0.841067 -0.00814921 4.82308e-22)
(0.912273 -0.0130656 -4.19652e-20)
(0.0120303 0.00631078 5.68521e-20)
(0.0421405 0.0184098 -2.92894e-19)
(0.0800104 0.0274716 -3.74335e-20)
(0.124527 0.0343095 2.0639e-19)
(0.175092 0.0389831 -5.00709e-21)
(0.231163 0.0414706 1.51702e-19)
(0.292157 0.0418294 1.38645e-19)
(0.357472 0.0401462 -8.01472e-20)
(0.426478 0.0365482 2.72767e-19)
(0.498503 0.0312238 -1.15039e-19)
(0.57282 0.0244535 1.94229e-19)
(0.648635 0.016644 4.48658e-19)
(0.725162 0.00819745 -4.0696e-19)
(0.801347 1.9204e-05 2.4295e-19)
(0.873899 -0.00349626 -1.36694e-19)
(0.00996107 0.00552768 1.47235e-19)
(0.0360305 0.0165306 2.69437e-19)
(0.0698328 0.0250526 7.23236e-20)
(0.110285 0.0317777 -2.82835e-19)
(0.156824 0.0366994 -2.50386e-19)
(0.208948 0.0397385 4.01522e-20)
(0.26613 0.0408915 -6.30866e-20)
(0.327836 0.0401828 -3.07762e-20)
(0.393519 0.0376754 -4.46798e-19)
(0.462611 0.0334912 9.79388e-20)
(0.534513 0.0278466 7.9592e-20)
(0.608586 0.0210987 -2.29408e-20)
(0.684239 0.0136284 1.45281e-19)
(0.760614 0.00639078 2.14724e-19)
(0.834289 0.00416597 4.13111e-19)
(0.00806104 0.00469725 -8.14688e-20)
(0.03037 0.0144965 -4.23669e-19)
(0.0603267 0.0223584 1.6242e-19)
(0.0968834 0.0288418 2.21976e-19)
(0.139508 0.033878 2.06313e-19)
(0.187739 0.0373344 -1.83925e-19)
(0.2411 0.0391497 -3.75599e-21)
(0.299118 0.0392887 2.94045e-19)
(0.361323 0.0377502 -2.09375e-20)
(0.427246 0.0345866 2.80322e-20)
(0.496414 0.0299414 -1.66005e-19)
(0.568358 0.0241061 -1.02434e-19)
(0.642726 0.0174254 -2.44744e-19)
(0.718934 0.0108968 -3.33522e-19)
(0.793555 0.00972374 -3.44362e-19)
(0.00633022 0.00383376 -8.14624e-20)
(0.0251627 0.0123469 1.97902e-19)
(0.0515034 0.0194497 -2.03096e-19)
(0.0843435 0.0255807 -1.36885e-19)
(0.123182 0.0306134 -2.83435e-20)
(0.167595 0.0343658 -2.08981e-20)
(0.217147 0.0367226 -1.36161e-19)
(0.271421 0.0375917 -2.96357e-19)
(0.330014 0.036909 7.65309e-20)
(0.392542 0.0346542 -4.60199e-20)
(0.458654 0.0308857 -1.67357e-19)
(0.528053 0.0258057 1.07863e-19)
(0.60066 0.0196894 -3.25622e-20)
(0.676283 0.0135347 -4.23685e-20)
(0.751716 0.0129918 7.82264e-20)
(0.00476745 0.00295127 -4.14925e-20)
(0.0204087 0.0101206 2.44909e-19)
(0.0433684 0.0163865 2.04549e-19)
(0.0726813 0.0220734 1.57803e-19)
(0.107877 0.0270009 -2.80394e-20)
(0.148562 0.0309423 4.75283e-20)
(0.194341 0.033733 4.28305e-20)
(0.244839 0.0352283 2.37382e-19)
(0.299709 0.0353039 3.146e-19)
(0.358636 0.0338652 9.92894e-20)
(0.421365 0.0308742 4.40037e-20)
(0.487756 0.0264127 -1.12472e-19)
(0.55802 0.0206306 3.75567e-19)
(0.632484 0.0144175 -4.52509e-21)
(0.708627 0.0138219 3.02675e-19)
(0.00337049 0.00206346 1.96892e-20)
(0.0161048 0.00785524 -7.76822e-21)
(0.0359221 0.0132277 -3.09313e-19)
(0.0619052 0.0183969 -1.1668e-19)
(0.0936127 0.023134 2.21935e-19)
(0.130681 0.0271726 7.88865e-20)
(0.172744 0.0303044 9.07351e-20)
(0.219464 0.0323382 2.06707e-19)
(0.270531 0.0330954 -4.11125e-19)
(0.325674 0.0324113 5.66208e-21)
(0.384698 0.0301459 -5.57146e-20)
(0.447571 0.0262304 2.44854e-19)
(0.514733 0.0206132 -1.9851e-19)
(0.58711 0.0138325 1.69463e-19)
(0.663769 0.012054 -2.667e-19)
(0.00213594 0.00118347 -1.54562e-19)
(0.0122444 0.00558697 9.62177e-20)
(0.0291596 0.0100294 1.82202e-19)
(0.0520165 0.0146253 -8.26226e-20)
(0.0804032 0.019103 -9.33553e-20)
(0.113981 0.0231616 1.32506e-19)
(0.152412 0.0265562 -7.35252e-20)
(0.195383 0.029057 -1.69166e-19)
(0.242606 0.0304421 -9.61062e-20)
(0.293828 0.0304897 -5.22683e-20)
(0.348863 0.0289701 -3.78981e-21)
(0.407686 0.0256609 -3.90694e-20)
(0.470764 0.0202526 -3.32755e-20)
(0.53944 0.0124708 1.06113e-19)
(0.615577 0.00747224 -2.39622e-19)
(0.00105923 0.000323651 -5.97092e-20)
(0.00881792 0.0033499 -1.36928e-19)
(0.0230706 0.00684453 -2.46541e-19)
(0.0430098 0.0108285 1.18729e-19)
(0.0682529 0.0149923 -1.89176e-19)
(0.0984855 0.0190072 -7.01096e-20)
(0.133392 0.0225984 -5.78162e-20)
(0.172678 0.025508 -1.28135e-19)
(0.216068 0.0274855 2.11715e-19)
(0.263302 0.0282765 1.41229e-20)
(0.31416 0.0276026 4.05328e-20)
(0.368505 0.0251619 -2.42564e-19)
(0.426462 0.0205332 4.82088e-20)
(0.489092 0.0123895 -1.94613e-19)
(0.561136 0.00218873 2.96746e-19)
(0.000134614 -0.000504543 3.27787e-19)
(0.00581212 0.00117558 8.91695e-20)
(0.0176398 0.00372219 1.95767e-19)
(0.0348723 0.00707063 -7.50176e-20)
(0.0571573 0.0108796 9.09891e-20)
(0.0842038 0.0147979 1.62384e-19)
(0.115718 0.0185284 -1.87456e-20)
(0.151422 0.0217949 2.10526e-19)
(0.191048 0.0243334 9.82727e-20)
(0.234326 0.0258852 1.64614e-19)
(0.280988 0.0261808 -2.31401e-19)
(0.330748 0.0249731 1.28673e-19)
(0.383155 0.0221721 8.22773e-20)
(0.438131 0.0168107 1.6247e-19)
(0.498603 0.00678633 -3.26691e-19)
(-0.000644818 -0.00129081 -1.41128e-19)
(0.00321072 -0.000907396 1.50077e-19)
(0.0128465 0.000706794 -4.51963e-20)
(0.0275839 0.00341002 8.32502e-20)
(0.0471023 0.0068345 1.48782e-19)
(0.0711348 0.010612 2.1574e-20)
(0.09941 0.014429 -1.08878e-20)
(0.131668 0.0179984 7.65142e-20)
(0.167652 0.0210533 -1.09984e-19)
(0.207096 0.0233456 -3.43823e-19)
(0.249722 0.0246394 1.92207e-19)
(0.295204 0.0247604 -1.44874e-19)
(0.342977 0.0238377 -2.23246e-20)
(0.39326 0.0212686 -1.73269e-19)
(0.45019 0.0132388 2.64617e-19)
(-0.00128707 -0.00202606 -8.52057e-20)
(0.000994368 -0.00287363 1.26685e-20)
(0.00866512 -0.00216208 -1.27402e-19)
(0.0211172 -0.000101565 -1.12012e-19)
(0.0380636 0.00291869 -1.94947e-19)
(0.0592631 0.00651767 -3.966e-20)
(0.0844685 0.01037 -8.10283e-20)
(0.113442 0.0141816 -1.19597e-19)
(0.145944 0.017686 4.1161e-20)
(0.181729 0.0206448 1.46719e-19)
(0.22054 0.0228433 -1.77055e-19)
(0.262095 0.0241248 -1.08339e-19)
(0.305899 0.0245881 -2.2121e-20)
(0.35241 0.0235359 -4.33492e-20)
(0.405366 0.0164178 2.31439e-19)
(-0.00180106 -0.00270253 -1.03267e-19)
(-0.000859027 -0.00470101 -5.28186e-20)
(0.00506523 -0.00484972 4.39999e-20)
(0.0154378 -0.00341858 -8.81569e-21)
(0.0300071 -0.000813731 2.41229e-19)
(0.0485594 0.00257451 -4.91036e-20)
(0.070874 0.00641161 -1.27531e-19)
(0.0967373 0.0103981 7.96837e-20)
(0.125936 0.0142657 2.06527e-19)