/*--------------------------------*- C++ -*----------------------------------*\
  =========                 |
  \\      /  F ield         | OpenFOAM: The Open Source CFD Toolbox
   \\    /   O peration     | Website:  https://openfoam.org
    \\  /    A nd           | Version:  7
     \\/     M anipulation  |
\*---------------------------------------------------------------------------*/
FoamFile
{
    version     2.0;
    format      ascii;
    class       volScalarField;
    location    "100";
    object      p;
}
// * * * * * * * * * * * * * * * * * * * * * * * * * * * * * * * * * * * * * //

dimensions      [0 2 -2 0 0 0 0];

internalField   nonuniform List<scalar> 
8500
(
-0.486119
-0.489816
-0.487965
-0.493758
-0.491667
-0.489292
-0.497943
-0.495591
-0.493038
-0.502365
-0.499734
-0.496992
-0.493743
-0.507021
-0.504095
-0.501153
-0.497723
-0.49393
-0.511906
-0.50867
-0.505518
-0.501898
-0.497934
-0.493772
-0.517016
-0.513457
-0.510087
-0.506269
-0.502124
-0.497795
-0.493348
-0.522346
-0.518453
-0.514857
-0.510834
-0.5065
-0.501991
-0.497358
-0.492608
-0.527891
-0.523653
-0.519826
-0.515591
-0.511059
-0.50636
-0.501522
-0.496527
-0.491307
-0.533644
-0.529054
-0.52499
-0.520539
-0.515801
-0.510897
-0.505833
-0.500564
-0.494992
-0.488974
-0.5396
-0.534649
-0.530346
-0.525673
-0.520721
-0.515598
-0.510285
-0.504708
-0.498739
-0.492217
-0.484972
-0.545751
-0.540433
-0.535887
-0.530989
-0.525815
-0.520457
-0.51487
-0.508947
-0.502535
-0.495453
-0.487533
-0.478653
-0.468765
-0.552087
-0.546397
-0.541607
-0.53648
-0.531075
-0.525465
-0.519574
-0.513265
-0.506358
-0.498663
-0.490016
-0.480322
-0.469575
-0.457857
-0.558598
-0.552533
-0.547498
-0.542139
-0.536492
-0.53061
-0.524383
-0.517644
-0.510191
-0.501826
-0.492402
-0.481856
-0.47023
-0.457653
-0.444318
-0.56527
-0.558827
-0.553548
-0.547954
-0.542054
-0.535878
-0.529281
-0.522064
-0.514008
-0.504918
-0.494669
-0.48324
-0.47072
-0.457287
-0.443172
-0.428614
-0.413819
-0.57209
-0.565269
-0.559746
-0.553912
-0.547748
-0.541253
-0.534246
-0.526501
-0.517788
-0.507918
-0.496798
-0.484457
-0.471034
-0.456754
-0.441878
-0.426663
-0.411318
-0.396059
-0.57904
-0.571841
-0.566075
-0.559999
-0.553555
-0.546715
-0.539257
-0.530932
-0.521502
-0.510799
-0.49877
-0.485493
-0.471164
-0.456048
-0.440434
-0.424588
-0.408721
-0.393029
-0.377426
-0.362785
-0.5861
-0.578525
-0.57252
-0.566195
-0.559457
-0.55224
-0.544287
-0.535327
-0.525125
-0.513539
-0.500563
-0.486334
-0.471099
-0.455162
-0.438834
-0.422385
-0.406022
-0.389921
-0.37401
-0.359078
-0.593248
-0.585302
-0.579059
-0.572482
-0.565431
-0.557804
-0.549308
-0.539658
-0.528627
-0.516111
-0.502158
-0.486965
-0.47083
-0.454091
-0.437073
-0.420047
-0.403213
-0.386725
-0.370524
-0.355314
-0.600459
-0.592149
-0.585671
-0.578834
-0.57145
-0.563377
-0.554291
-0.543893
-0.53198
-0.51849
-0.503536
-0.487373
-0.470347
-0.452826
-0.435145
-0.417569
-0.400288
-0.383434
-0.366959
-0.351483
-0.607707
-0.599039
-0.592329
-0.585226
-0.577486
-0.568929
-0.5592
-0.548
-0.535153
-0.520653
-0.504677
-0.487543
-0.469641
-0.451361
-0.433043
-0.414944
-0.397238
-0.380038
-0.363304
-0.347574
-0.614961
-0.605945
-0.599007
-0.591628
-0.583508
-0.574427
-0.564003
-0.551945
-0.538116
-0.522573
-0.505564
-0.487463
-0.468702
-0.449689
-0.43076
-0.412163
-0.394056
-0.376529
-0.359551
-0.343579
-0.622188
-0.612837
-0.605672
-0.598008
-0.589482
-0.579833
-0.568661
-0.555693
-0.540839
-0.524228
-0.506176
-0.487119
-0.467521
-0.4478
-0.428288
-0.409218
-0.390731
-0.372896
-0.35569
-0.339487
-0.629355
-0.619681
-0.612293
-0.604332
-0.59537
-0.585109
-0.573138
-0.559208
-0.543292
-0.525592
-0.506498
-0.486499
-0.466086
-0.445685
-0.425619
-0.406101
-0.387256
-0.369132
-0.351711
-0.33529
-0.636423
-0.626441
-0.618834
-0.610562
-0.601134
-0.590217
-0.577395
-0.562457
-0.545445
-0.526642
-0.506511
-0.485588
-0.464388
-0.443337
-0.422744
-0.402803
-0.383621
-0.365226
-0.347605
-0.330979
-0.643354
-0.633081
-0.625255
-0.616659
-0.606734
-0.595114
-0.581392
-0.565404
-0.547269
-0.527356
-0.506198
-0.484375
-0.462417
-0.440746
-0.419653
-0.399315
-0.379816
-0.361168
-0.343362
-0.326544
-0.650106
-0.63956
-0.631518
-0.622583
-0.612126
-0.599758
-0.585089
-0.568013
-0.548736
-0.527713
-0.505543
-0.482846
-0.460161
-0.437901
-0.416338
-0.395627
-0.375833
-0.356951
-0.338975
-0.321978
-0.656636
-0.645837
-0.637581
-0.628288
-0.617266
-0.604107
-0.588446
-0.570251
-0.549818
-0.527691
-0.504531
-0.480989
-0.457611
-0.434793
-0.412789
-0.391729
-0.371661
-0.352565
-0.334434
-0.317271
-0.6629
-0.651869
-0.643398
-0.633731
-0.622109
-0.608116
-0.591424
-0.572084
-0.550489
-0.527269
-0.503146
-0.478793
-0.454755
-0.431413
-0.408996
-0.387613
-0.367292
-0.348
-0.32973
-0.312417
-0.668851
-0.65761
-0.648926
-0.638866
-0.62661
-0.611742
-0.593985
-0.57348
-0.550723
-0.52643
-0.501372
-0.476244
-0.451583
-0.42775
-0.404949
-0.383268
-0.362717
-0.343249
-0.324855
-0.307407
-0.674444
-0.663015
-0.654118
-0.643645
-0.630723
-0.614941
-0.59609
-0.574408
-0.550497
-0.525154
-0.499196
-0.473331
-0.448085
-0.423794
-0.400639
-0.378686
-0.357926
-0.338302
-0.319802
-0.302235
-0.679631
-0.668038
-0.658926
-0.648022
-0.6344
-0.617672
-0.597703
-0.574839
-0.549788
-0.523424
-0.496605
-0.470043
-0.444249
-0.419536
-0.396057
-0.373857
-0.352912
-0.333153
-0.314562
-0.296893
-0.684364
-0.672631
-0.663304
-0.651949
-0.637597
-0.619893
-0.598788
-0.574744
-0.548573
-0.521223
-0.493584
-0.466369
-0.440067
-0.414965
-0.391193
-0.368774
-0.347665
-0.327792
-0.309129
-0.291375
-0.688596
-0.676747
-0.667203
-0.655378
-0.640269
-0.621564
-0.599312
-0.574096
-0.546833
-0.518537
-0.490122
-0.462297
-0.435527
-0.410073
-0.386039
-0.363426
-0.342178
-0.322213
-0.303496
-0.285675
-0.692278
-0.680338
-0.670577
-0.658264
-0.642372
-0.622646
-0.599244
-0.572872
-0.54455
-0.51535
-0.486207
-0.457817
-0.430622
-0.404852
-0.380585
-0.357807
-0.336445
-0.31641
-0.297656
-0.279788
-0.695364
-0.683359
-0.673377
-0.660559
-0.643862
-0.623101
-0.598553
-0.571048
-0.541705
-0.51165
-0.481829
-0.452921
-0.425341
-0.399292
-0.374826
-0.35191
-0.330457
-0.310375
-0.291604
-0.273709
-0.697807
-0.685762
-0.675559
-0.662219
-0.644701
-0.622897
-0.597211
-0.568604
-0.538284
-0.507424
-0.476976
-0.447599
-0.419678
-0.393385
-0.368752
-0.345726
-0.324209
-0.304103
-0.285335
-0.267432
-0.699564
-0.687503
-0.677077
-0.663203
-0.644849
-0.622
-0.595195
-0.56552
-0.534272
-0.502662
-0.47164
-0.441843
-0.413623
-0.387125
-0.362357
-0.339251
-0.317695
-0.297589
-0.278844
-0.260954
-0.70059
-0.68854
-0.677889
-0.663469
-0.644269
-0.62038
-0.592479
-0.561779
-0.529656
-0.497354
-0.465813
-0.435645
-0.40717
-0.380505
-0.355635
-0.332478
-0.310909
-0.290828
-0.272126
-0.25427
-0.700846
-0.688829
-0.677953
-0.662978
-0.642929
-0.618011
-0.589045
-0.557366
-0.524426
-0.49149
-0.459488
-0.428999
-0.400313
-0.373519
-0.348581
-0.325402
-0.303847
-0.283815
-0.265178
-0.247378
-0.700291
-0.688332
-0.677232
-0.661695
-0.640797
-0.614867
-0.584873
-0.552269
-0.518573
-0.485064
-0.452657
-0.421899
-0.393047
-0.366162
-0.34119
-0.318019
-0.296506
-0.276547
-0.257996
-0.240276
-0.698889
-0.687011
-0.675687
-0.659586
-0.637845
-0.610927
-0.579948
-0.546476
-0.512087
-0.47807
-0.445317
-0.414341
-0.385367
-0.35843
-0.333458
-0.310325
-0.288881
-0.26902
-0.25058
-0.232966
-0.696605
-0.684833
-0.673286
-0.656621
-0.634049
-0.606171
-0.574256
-0.539979
-0.504964
-0.470503
-0.437462
-0.40632
-0.377269
-0.350319
-0.325381
-0.302318
-0.280969
-0.261232
-0.242925
-0.225438
-0.69341
-0.681764
-0.669999
-0.652772
-0.629385
-0.600586
-0.567789
-0.53277
-0.497199
-0.46236
-0.429091
-0.397834
-0.368751
-0.341828
-0.316959
-0.293995
-0.27277
-0.253182
-0.235027
-0.217664
-0.689273
-0.677776
-0.665796
-0.648016
-0.623836
-0.594156
-0.560536
-0.524846
-0.488788
-0.453638
-0.4202
-0.388882
-0.359812
-0.332955
-0.308189
-0.285356
-0.264283
-0.24487
-0.226879
-0.209606
-0.684172
-0.672845
-0.660656
-0.642332
-0.617386
-0.586873
-0.552493
-0.516204
-0.479732
-0.444338
-0.410791
-0.379462
-0.350451
-0.323699
-0.299072
-0.276402
-0.255509
-0.236298
-0.218489
-0.201299
-0.678083
-0.666946
-0.654556
-0.635704
-0.610024
-0.578729
-0.543657
-0.506843
-0.470031
-0.43446
-0.400864
-0.369576
-0.340668
-0.314061
-0.289609
-0.267132
-0.246449
-0.227463
-0.209859
-0.192902
-0.670989
-0.660063
-0.647479
-0.628117
-0.60174
-0.56972
-0.534028
-0.496764
-0.459686
-0.424006
-0.39042
-0.359225
-0.330466
-0.304044
-0.2798
-0.25755
-0.237106
-0.218375
-0.200991
-0.18431
-0.662876
-0.652179
-0.639413
-0.619562
-0.59253
-0.559846
-0.523606
-0.485972
-0.448702
-0.412981
-0.379464
-0.348414
-0.319847
-0.293649
-0.26965
-0.247657
-0.227481
-0.209031
-0.191897
-0.175502
-0.653732
-0.643283
-0.630347
-0.610032
-0.582392
-0.549108
-0.512397
-0.474471
-0.437084
-0.401389
-0.368
-0.337145
-0.308815
-0.28288
-0.259161
-0.237457
-0.217578
-0.199434
-0.182576
-0.166476
-0.64355
-0.633367
-0.620275
-0.599526
-0.571326
-0.537511
-0.500408
-0.462269
-0.42484
-0.389237
-0.356034
-0.325424
-0.297375
-0.271743
-0.248338
-0.226954
-0.207401
-0.189589
-0.17303
-0.15724
-0.632328
-0.622427
-0.609195
-0.588044
-0.559337
-0.525063
-0.487646
-0.449376
-0.411979
-0.376534
-0.343573
-0.313259
-0.285535
-0.260243
-0.237186
-0.216153
-0.196954
-0.179499
-0.163261
-0.147797
-0.620064
-0.610464
-0.597108
-0.575589
-0.546434
-0.511773
-0.474125
-0.435802
-0.398511
-0.363289
-0.330627
-0.300656
-0.2733
-0.248387
-0.225713
-0.205062
-0.186244
-0.169171
-0.153274
-0.138155
-0.606764
-0.597479
-0.58402
-0.562172
-0.532627
-0.497654
-0.459856
-0.42156
-0.384448
-0.349512
-0.317206
-0.287627
-0.26068
-0.236183
-0.213925
-0.193686
-0.175276
-0.158611
-0.143074
-0.128319
-0.592435
-0.583481
-0.569938
-0.547802
-0.51793
-0.482722
-0.444856
-0.406667
-0.369804
-0.335218
-0.303319
-0.27418
-0.247685
-0.223641
-0.201831
-0.182034
-0.16406
-0.147825
-0.132668
-0.118295
-0.577088
-0.56848
-0.554875
-0.532493
-0.502359
-0.466995
-0.429142
-0.391137
-0.354594
-0.320418
-0.288981
-0.260327
-0.234324
-0.210769
-0.189442
-0.170115
-0.152603
-0.136821
-0.122064
-0.108091
-0.560738
-0.55249
-0.538847
-0.516265
-0.485934
-0.450491
-0.412734
-0.37499
-0.338835
-0.305128
-0.274205
-0.246081
-0.22061
-0.197581
-0.176767
-0.15794
-0.140915
-0.125609
-0.11127
-0.0977144
-0.543404
-0.535529
-0.521872
-0.499137
-0.468676
-0.433235
-0.395653
-0.358244
-0.322545
-0.289366
-0.259006
-0.231456
-0.206556
-0.184086
-0.163817
-0.145518
-0.129006
-0.114199
-0.100297
-0.0871746
-0.525106
-0.517617
-0.503973
-0.481133
-0.45061
-0.415251
-0.377923
-0.340921
-0.305742
-0.273147
-0.243399
-0.216467
-0.192175
-0.170299
-0.150606
-0.132862
-0.116889
-0.102602
-0.089154
-0.0764818
-0.50587
-0.49878
-0.485175
-0.462279
-0.431765
-0.396566
-0.359566
-0.323046
-0.288449
-0.256492
-0.227403
-0.201128
-0.177482
-0.156234
-0.137146
-0.119985
-0.104574
-0.0908291
-0.0778542
-0.065648
-0.485724
-0.479044
-0.465505
-0.442606
-0.412175
-0.377196
-0.34061
-0.304641
-0.270687
-0.23942
-0.211035
-0.185459
-0.162494
-0.141904
-0.123451
-0.106899
-0.0920762
-0.0788942
-0.0664106
-0.0546873
-0.464697
-0.458439
-0.444995
-0.422149
-0.39188
-0.357167
-0.321081
-0.285732
-0.252479
-0.221952
-0.194315
-0.169474
-0.147225
-0.127325
-0.109536
-0.0936194
-0.0794087
-0.066811
-0.054838
-0.0436161
-0.442824
-0.437
-0.423679
-0.400938
-0.370859
-0.336559
-0.301014
-0.266346
-0.23385
-0.204111
-0.177263
-0.153195
-0.131693
-0.112514
-0.0954155
-0.0801603
-0.0665863
-0.0545943
-0.0431529
-0.032454
-0.420139
-0.414762
-0.401594
-0.379008
-0.349193
-0.315366
-0.280437
-0.246512
-0.214826
-0.18592
-0.159899
-0.136639
-0.115916
-0.0974856
-0.0811047
-0.0665365
-0.0536239
-0.0422596
-0.0313727
-0.396681
-0.391764
-0.378778
-0.356385
-0.326927
-0.293626
-0.259384
-0.226259
-0.195432
-0.167403
-0.142247
-0.119826
-0.0999123
-0.0822576
-0.0666195
-0.052763
-0.0405366
-0.0298223
-0.372489
-0.368046
-0.355266
-0.333127
-0.304085
-0.271378
-0.237886
-0.205618
-0.175698
-0.148584
-0.124329
-0.102778
-0.0837006
-0.0668469
-0.0519755
-0.0388545
-0.0273392
-0.347602
-0.343654
-0.331101
-0.309276
-0.280708
-0.24866
-0.215979
-0.184619
-0.15565
-0.129491
-0.106167
-0.0855162
-0.0673001
-0.0512709
-0.0371881
-0.0248252
-0.322058
-0.318643
-0.306337
-0.284872
-0.256839
-0.225511
-0.193698
-0.163296
-0.13532
-0.110149
-0.0877877
-0.0680618
-0.0507308
-0.0355471
-0.0222727
-0.0106886
-0.295918
-0.293054
-0.28102
-0.259959
-0.23252
-0.201971
-0.17108
-0.141682
-0.114736
-0.0905858
-0.0692147
-0.0504379
-0.0340129
-0.0196934
-0.00724437
-0.269273
-0.2669
-0.255196
-0.234585
-0.207795
-0.178081
-0.148162
-0.119809
-0.0939302
-0.0708304
-0.0504741
-0.0326678
-0.0171674
-0.00372789
-0.242149
-0.240246
-0.228912
-0.208797
-0.182709
-0.153883
-0.124983
-0.097715
-0.0729342
-0.0509116
-0.0315924
-0.0147757
-0.000215901
0.0123309
-0.214577
-0.21316
-0.202218
-0.182643
-0.157308
-0.129418
-0.10158
-0.0754334
-0.0517803
-0.0308589
-0.0125969
0.00321358
0.0168193
-0.186612
-0.185694
-0.175167
-0.156173
-0.131638
-0.104732
-0.0779945
-0.053001
-0.0305017
-0.0107026
0.00648468
0.0212744
0.0339145
-0.158313
-0.157902
-0.147812
-0.129439
-0.105748
-0.0798658
-0.0542657
-0.0304543
-0.00913177
0.00952636
0.0256237
0.0393803
-0.129733
-0.129836
-0.120204
-0.102489
-0.0796845
-0.0548651
-0.030434
-0.00783024
0.0122954
0.0297966
0.0447912
-0.10093
-0.101551
-0.0923991
-0.0753764
-0.0534958
-0.0297738
-0.0065403
0.0148337
0.0337455
0.0500766
0.0639578
-0.0719619
-0.0731034
-0.0644508
-0.0481526
-0.0272305
-0.00463674
0.0173745
0.0375
0.0551839
0.0703343
-0.0428853
-0.0445492
-0.0364142
-0.0208698
-0.000937056
0.0205014
0.0412693
0.0601311
0.0765761
0.0905377
-0.013758
-0.0159447
-0.0083443
0.00641988
0.0253358
0.0455957
0.0651031
0.0826891
0.0978873
0.0153622
0.0126533
0.0197039
0.0336643
0.0515397
0.0706017
0.0888348
0.105136
0.119083
0.0444177
0.0411882
0.0476755
0.0608114
0.0776261
0.0954746
0.112424
0.127436
0.140128
0.0733511
0.0696035
0.0755158
0.0878095
0.103547
0.12017
0.135829
0.149549
0.102105
0.097843
0.10317
0.114607
0.129255
0.144645
0.159011
0.171441
0.130623
0.125851
0.130585
0.141154
0.154703
0.168856
0.181929
0.158849
0.153572
0.157708
0.1674
0.179844
0.192759
0.204544
0.186726
0.180951
0.184485
0.193294
0.204632
0.216312
0.226817
0.214201
0.207936
0.210864
0.218789
0.229022
0.239475
0.24122
0.234472
0.236796
0.243837
0.25297
0.262206
0.26773
0.260508
0.26223
0.268391
0.276433
0.284466
0.293679
0.285993
0.287117
0.292405
0.299368
0.319016
0.310879
0.311411
0.315834
0.321735
0.343694
0.335116
0.335064
0.338636
0.343492
0.367663
0.358657
0.358031
0.360768
0.364601
0.390879
0.381459
0.380271
0.38219
0.413295
0.403476
0.40174
0.402862
0.434871
0.424667
0.422399
0.422748
0.455564
0.444992
0.442209
0.44181
0.475335
0.464412
0.461133
0.460015
0.494148
0.482892
0.479137
0.511967
0.500395
0.496188
0.528758
0.51689
0.512254
0.544491
0.532346
0.527306
0.559137
0.546736
0.541318
0.572669
0.560032
0.554264
0.585062
0.572211
0.566121
0.596296
0.583251
0.57687
0.606349
0.593133
0.586491
0.615204
0.601841
0.622847
0.609359
0.629266
0.615675
0.634449
0.620779
0.63839
0.624665
0.641084
0.627326
0.642528
0.628762
0.642721
0.628971
0.641668
0.627956
0.639372
0.625722
0.635841
0.622277
0.631085
0.61763
0.625117
0.611794
0.604752
0.617951
0.604783
0.597941
0.609606
0.596613
0.590002
0.600099
0.587305
0.580955
0.589454
0.57688
0.57082
0.577695
0.565362
0.559619
0.564849
0.552777
0.547378
0.550943
0.539153
0.534124
0.53601
0.52452
0.519885
0.520083
0.508911
0.504693
0.502088
0.503196
0.492361
0.48858
0.4866
0.485386
0.474905
0.471581
0.470256
0.466693
0.456582
0.453734
0.453088
0.447158
0.437432
0.435075
0.435134
0.426822
0.417497
0.415646
0.41643
0.417907
0.40573
0.39682
0.395488
0.397016
0.399402
0.383929
0.375446
0.374643
0.376931
0.380248
0.361464
0.353422
0.353157
0.356218
0.360485
0.364477
0.338386
0.330795
0.331075
0.33492
0.340153
0.345208
0.314743
0.307614
0.308444
0.313081
0.319292
0.325428
0.290587
0.283929
0.285313
0.290746
0.297944
0.305175
0.26597
0.259793
0.261731
0.267961
0.276153
0.284489
0.291697
0.240946
0.235256
0.237748
0.244774
0.253962
0.263411
0.271776
0.215568
0.210373
0.213415
0.221234
0.231416
0.241981
0.25151
0.189891
0.185196
0.188784
0.197388
0.208561
0.220241
0.23094
0.239892
0.16397
0.15978
0.163908
0.173287
0.185441
0.198233
0.210102
0.220226
0.137861
0.134181
0.13884
0.14898
0.162104
0.176001
0.189037
0.200334
0.209571
0.11162
0.108452
0.113632
0.124518
0.138597
0.153587
0.167784
0.180251
0.190631
0.0853037
0.0826506
0.0883393
0.0999522
0.114967
0.131036
0.146384
0.160016
0.171535
0.180908
0.0589683
0.0568307
0.0630148
0.0753329
0.0912616
0.10839
0.124876
0.139664
0.152318
0.162781
0.0326699
0.031048
0.0377123
0.0507113
0.0675279
0.0856938
0.1033
0.119233
0.133013
0.144561
0.00646464
0.00535746
0.0124853
0.0261383
0.0438137
0.0629912
0.0816978
0.0987597
0.113655
0.126279
0.136748
-0.0195917
-0.0201865
-0.0126128
0.00166472
0.0201664
0.040326
0.0601086
0.0782809
0.0942771
0.107967
0.119453
0.128934
-0.0454437
-0.0455297
-0.0375292
-0.0226591
-0.00336669
0.0177417
0.0385725
0.0578335
0.0749139
0.0896559
0.102148
0.112585
-0.0710359
-0.0706186
-0.0622112
-0.0467828
-0.0267387
-0.00471836
0.0171295
0.0374538
0.0555984
0.0713768
0.0848626
0.0962437
0.105741
-0.0963162
-0.0954029
-0.0866082
-0.0706577
-0.0499035
-0.0270113
-0.00418127
0.017178
0.0363639
0.0531602
0.0676242
0.0799373
0.0903179
-0.121228
-0.119832
-0.11067
-0.0942351
-0.0728155
-0.0490949
-0.0253209
-0.00295845
0.017243
0.0350359
0.0504608
0.0636914
0.0749443
0.0844363
-0.145718
-0.143856
-0.134346
-0.117467
-0.0954295
-0.0709274
-0.046251
-0.0229204
-0.00173229
0.0170337
0.0333996
0.047531
0.0596425
0.0699515
-0.169764
-0.167404
-0.157589
-0.140308
-0.117701
-0.0924679
-0.0669342
-0.0426736
-0.0205305
-0.000817926
0.0164668
0.0314803
0.0444345
0.0555475
0.0650277
-0.193334
-0.190424
-0.180354
-0.162712
-0.139588
-0.113676
-0.0873335
-0.0621843
-0.0391208
-0.0184907
-0.000311736
0.0155627
0.0293413
0.0412425
0.0514772
0.0602402
-0.21633
-0.212909
-0.202599
-0.184633
-0.161049
-0.134514
-0.107413
-0.0814196
-0.0574733
-0.0359572
-0.0169111
-0.000199165
0.0143833
0.0270545
0.0380268
0.0475013
0.0556049
-0.23871
-0.234808
-0.22428
-0.206028
-0.182041
-0.154942
-0.127138
-0.100348
-0.0755589
-0.0531911
-0.033307
-0.0157832
-0.000419655
0.013001
0.0246917
0.0348577
0.0436321
-0.260439
-0.256072
-0.245334
-0.226874
-0.202527
-0.174924
-0.146474
-0.118937
-0.0933493
-0.0701664
-0.049476
-0.031168
-0.0150482
-0.000900883
0.0114871
0.0223231
0.0317455
0.0398518
-0.28148
-0.27666
-0.265741
-0.24711
-0.222468
-0.194424
-0.165388
-0.137159
-0.110817
-0.0868585
-0.0653956
-0.0463331
-0.0294837
-0.014634
-0.00157168
0.00991157
0.0199587
0.0286581
0.0369108
-0.301796
-0.296536
-0.285463
-0.266695
-0.241834
-0.213408
-0.183849
-0.154983
-0.127936
-0.103243
-0.0810438
-0.0612584
-0.0437078
-0.0281817
-0.0144693
-0.00236218
0.00828637
0.0175581
0.0263186
0.0345033
-0.321352
-0.315664
-0.304463
-0.285606
-0.260578
-0.231848
-0.201825
-0.172382
-0.144682
-0.119298
-0.0963997
-0.0759248
-0.0577029
-0.0415277
-0.0271904
-0.0144835
-0.0032566
0.00656698
0.0158144
0.0244741
-0.340117
-0.334012
-0.322708
-0.30381
-0.278673
-0.249708
-0.219289
-0.18933
-0.161029
-0.135
-0.111443
-0.0903138
-0.0714519
-0.0546562
-0.0397201
-0.0264377
-0.0146556
-0.00430016
0.00541506
0.0145305
-0.358061
-0.351551
-0.340169
-0.321275
-0.296092
-0.266953
-0.236218
-0.205802
-0.176955
-0.150329
-0.126155
-0.104408
-0.0849385
-0.0675517
-0.0520439
-0.0382109
-0.0258963
-0.015029
-0.00486388
0.00469057
-0.375158
-0.368255
-0.356818
-0.337973
-0.312806
-0.283563
-0.252578
-0.221773
-0.192437
-0.165265
-0.140517
-0.11819
-0.0981471
-0.0801998
-0.0641479
-0.0497893
-0.0369654
-0.0256061
-0.0150082
-0.00503014
-0.391383
-0.384099
-0.372632
-0.353879
-0.328788
-0.299514
-0.268348
-0.237222
-0.207457
-0.17979
-0.154512
-0.131644
-0.111063
-0.0925864
-0.0760186
-0.0611601
-0.0478501
-0.0360189
-0.0250051
-0.0146184
-0.406716
-0.399066
-0.38759
-0.368971
-0.344016
-0.314781
-0.283506
-0.252126
-0.221995
-0.193885
-0.168125
-0.144757
-0.123672
-0.104698
-0.0876436
-0.0723112
-0.0585385
-0.0462558
-0.0348431
-0.0240627
-0.42114
-0.413138
-0.401675
-0.383228
-0.358467
-0.329342
-0.298031
-0.266467
-0.236032
-0.207536
-0.18134
-0.157513
-0.135962
-0.116524
-0.0990113
-0.0832312
-0.0690197
-0.0563062
-0.0445116
-0.033353
-0.43464
-0.426302
-0.414871
-0.396635
-0.372126
-0.343178
-0.311906
-0.280229
-0.249553
-0.220725
-0.194143
-0.1699
-0.147921
-0.128051
-0.110111
-0.0939098
-0.0792835
-0.0661604
-0.0540014
-0.0424805
-0.447207
-0.438548
-0.427167
-0.409179
-0.384975
-0.356273
-0.325112
-0.293394
-0.262542
-0.233442
-0.206522
-0.181906
-0.159537
-0.13927
-0.120932
-0.104337
-0.089321
-0.0758098
-0.063304
-0.0514369
-0.458834
-0.44987
-0.438558
-0.420849
-0.397003
-0.368613
-0.337637
-0.305948
-0.274988
-0.245672
-0.218466
-0.193522
-0.170801
-0.150171
-0.131466
-0.114506
-0.0991238
-0.0852468
-0.0724119
-0.0602148
-0.469516
-0.460266
-0.449038
-0.43164
-0.4082
-0.380187
-0.349466
-0.31788
-0.286877
-0.257405
-0.229965
-0.204737
-0.181703
-0.160746
-0.141706
-0.124407
-0.108685
-0.0944646
-0.0813187
-0.0688069
-0.479255
-0.469736
-0.458607
-0.441547
-0.41856
-0.390985
-0.360591
-0.329178
-0.2982
-0.268632
-0.241011
-0.215544
-0.192238
-0.170988
-0.151643
-0.134034
-0.117998
-0.103458
-0.0900193
-0.0772059
-0.488055
-0.478286
-0.467268
-0.450571
-0.42808
-0.401001
-0.371003
-0.339834
-0.308948
-0.279346
-0.251595
-0.225936
-0.202398
-0.18089
-0.161273
-0.143382
-0.127057
-0.112221
-0.0985107
-0.0854037
-0.495923
-0.485923
-0.475028
-0.458717
-0.436759
-0.410233
-0.380697
-0.349842
-0.319116
-0.289538
-0.261712
-0.235907
-0.212177
-0.190448
-0.170589
-0.152445
-0.135857
-0.120751
-0.106792
-0.0933915
-0.502871
-0.49266
-0.481899
-0.46599
-0.444602
-0.41868
-0.389669
-0.359197
-0.328696
-0.299205
-0.271357
-0.245453
-0.221571
-0.199656
-0.179589
-0.16122
-0.144396
-0.129042
-0.114867
-0.101168
-0.508912
-0.498512
-0.487892
-0.472403
-0.451614
-0.426344
-0.397918
-0.367897
-0.337687
-0.308343
-0.280526
-0.25457
-0.230578
-0.208513
-0.188268
-0.169704
-0.152669
-0.137091
-0.122724
-0.108768
-0.514065
-0.503498
-0.493027
-0.477969
-0.457805
-0.43323
-0.405448
-0.37594
-0.346086
-0.31695
-0.289218
-0.263257
-0.239195
-0.217015
-0.196624
-0.177893
-0.160675
-0.144895
-0.130369
-0.116412
-0.518351
-0.507638
-0.497324
-0.482705
-0.463189
-0.439347
-0.41226
-0.383328
-0.353894
-0.325025
-0.297432
-0.271512
-0.247421
-0.225162
-0.204657
-0.185787
-0.168412
-0.152452
-0.137757
-0.123729
-0.521795
-0.51096
-0.500807
-0.486633
-0.467781
-0.444705
-0.418364
-0.390065
-0.361112
-0.332569
-0.305169
-0.279336
-0.255256
-0.232953
-0.212365
-0.193383
-0.175875
-0.159758
-0.14489
-0.130718
-0.524424
-0.51349
-0.503502
-0.489777
-0.471601
-0.44932
-0.423767
-0.396157
-0.367744
-0.339584
-0.312429
-0.286731
-0.262702
-0.24039
-0.219749
-0.200681
-0.183065
-0.166812
-0.151792
-0.137471
-0.526269
-0.515259
-0.50544
-0.492164
-0.474672
-0.453207
-0.428481
-0.401611
-0.373795
-0.346075
-0.319216
-0.293698
-0.26976
-0.247475
-0.226811
-0.207684
-0.189981
-0.173616
-0.158471
-0.144027
-0.527361
-0.516301
-0.506654
-0.493823
-0.477019
-0.456387
-0.432522
-0.406438
-0.379272
-0.352046
-0.325534
-0.300242
-0.276435
-0.254209
-0.233552
-0.214394
-0.196628
-0.180172
-0.164925
-0.150385
-0.527736
-0.51665
-0.507178
-0.494788
-0.478669
-0.458882
-0.435905
-0.410649
-0.384184
-0.357503
-0.331389
-0.306366
-0.282729
-0.260597
-0.239977
-0.220812
-0.203007
-0.186483
-0.171152
-0.156538
-0.527432
-0.516346
-0.507049
-0.495093
-0.479655
-0.460718
-0.43865
-0.414259
-0.38854
-0.362456
-0.336787
-0.312078
-0.288648
-0.266643
-0.246089
-0.226943
-0.209123
-0.192549
-0.177153
-0.162483
-0.526488
-0.515426
-0.506306
-0.494775
-0.480008
-0.461921
-0.440779
-0.417283
-0.392353
-0.366912
-0.341736
-0.317383
-0.294199
-0.272353
-0.251893
-0.232792
-0.214977
-0.198375
-0.182932
-0.168223
-0.524943
-0.513932
-0.504991
-0.493873
-0.479765
-0.462523
-0.442315
-0.41974
-0.395637
-0.370883
-0.346243
-0.322289
-0.299387
-0.277733
-0.257395
-0.238361
-0.220574
-0.203964
-0.18849
-0.17376
-0.522841
-0.511905
-0.503144
-0.492429
-0.478962
-0.462555
-0.443285
-0.421651
-0.398407
-0.374381
-0.350319
-0.326803
-0.304221
-0.282789
-0.2626
-0.243658
-0.22592
-0.20932
-0.193831
-0.179097
-0.520224
-0.509388
-0.500808
-0.490482
-0.477639
-0.462051
-0.443716
-0.423036
-0.400679
-0.377417
-0.353975
-0.330936
-0.308708
-0.28753
-0.267515
-0.248688
-0.231018
-0.214448
-0.198959
-0.184235
-0.517134
-0.506424
-0.498027
-0.488077
-0.475835
-0.461047
-0.44364
-0.42392
-0.402473
-0.380008
-0.357222
-0.334698
-0.312856
-0.291962
-0.272148
-0.253458
-0.235875
-0.219352
-0.203877
-0.189179
-0.513616
-0.503055
-0.494844
-0.485256
-0.473593
-0.459581
-0.443086
-0.424329
-0.403808
-0.382167
-0.360072
-0.338097
-0.316676
-0.296094
-0.276506
-0.257974
-0.240498
-0.224037
-0.208591
-0.193931
-0.509714
-0.499327
-0.491302
-0.482063
-0.470953
-0.457691
-0.44209
-0.42429
-0.404705
-0.383913
-0.362539
-0.341146
-0.320178
-0.299936
-0.280597
-0.262244
-0.244891
-0.22851
-0.213104
-0.198496
-0.505471
-0.49528
-0.487444
-0.47854
-0.467959
-0.455416
-0.440684
-0.423831
-0.405187
-0.385262
-0.364636
-0.343857
-0.32337
-0.303496
-0.28443
-0.266275
-0.249063
-0.232776
-0.217423
-0.202878
-0.50093
-0.490956
-0.483313
-0.474731
-0.464652
-0.452797
-0.438906
-0.422983
-0.405279
-0.386234
-0.36638
-0.346242
-0.326265
-0.306784
-0.288014
-0.270076
-0.25302
-0.236841
-0.221552
-0.207081
-0.496133
-0.486397
-0.478949
-0.470677
-0.461074
-0.449873
-0.436791
-0.421776
-0.405005
-0.386848
-0.367785
-0.348313
-0.328873
-0.309809
-0.291357
-0.273654
-0.25677
-0.240712
-0.225498
-0.21111
-0.491121
-0.481641
-0.474392
-0.466419
-0.457267
-0.446685
-0.434377
-0.420242
-0.404392
-0.387126
-0.368868
-0.350084
-0.331205
-0.312583
-0.294469
-0.277019
-0.260321
-0.244397
-0.229266
-0.214969
-0.485932
-0.476727
-0.46968
-0.461995
-0.453268
-0.443271
-0.4317
-0.418415
-0.403467
-0.387088
-0.369646
-0.351568
-0.333274
-0.315116
-0.297358
-0.280179
-0.26368
-0.247901
-0.232863
-0.218665
-0.480606
-0.471691
-0.46485
-0.457443
-0.449119
-0.43967
-0.428796
-0.416328
-0.402259
-0.386759
-0.370137
-0.352781
-0.33509
-0.317416
-0.300036
-0.283142
-0.266855
-0.251232
-0.236294
-0.222201
-0.475176
-0.466566
-0.459936
-0.452799
-0.444854
-0.43592
-0.425704
-0.414013
-0.400796
-0.386161
-0.370359
-0.353736
-0.336666
-0.319496
-0.30251
-0.285917
-0.269855
-0.254397
-0.239566
-0.225584
-0.469679
-0.461386
-0.45497
-0.448096
-0.440509
-0.432056
-0.422457
-0.411505
-0.399108
-0.385319
-0.370333
-0.35445
-0.338014
-0.321365
-0.304791
-0.288513
-0.272686
-0.257404
-0.242686
-0.228819
-0.464145
-0.45618
-0.449982
-0.443364
-0.436116
-0.428113
-0.419091
-0.408835
-0.397223
-0.384257
-0.370078
-0.354936
-0.339147
-0.323034
-0.306887
-0.290938
-0.275358
-0.260259
-0.24566
-0.231911
-0.458604
-0.450975
-0.444999
-0.438633
-0.431706
-0.424123
-0.415639
-0.406037
-0.395171
-0.383
-0.369613
-0.355212
-0.340077
-0.324513
-0.308807
-0.293201
-0.277878
-0.26297
-0.248495
-0.234865
-0.453083
-0.445798
-0.440047
-0.433927
-0.427306
-0.420115
-0.412131
-0.403142
-0.392982
-0.381575
-0.36896
-0.355294
-0.340817
-0.325812
-0.310561
-0.29531
-0.280253
-0.265543
-0.251195
-0.237689
-0.447608
-0.44067
-0.435148
-0.42927
-0.422942
-0.416118
-0.408598
-0.400179
-0.390684
-0.380005
-0.36814
-0.355198
-0.34138
-0.326942
-0.312156
-0.297271
-0.28249
-0.267986
-0.253769
-0.240386
-0.442201
-0.435613
-0.430321
-0.424684
-0.418636
-0.412155
-0.405067
-0.397177
-0.388304
-0.378317
-0.367175
-0.354942
-0.341778
-0.327913
-0.313602
-0.299093
-0.284597
-0.270305
-0.256222
-0.242963
-0.436882
-0.430645
-0.425585
-0.420186
-0.414408
-0.40825
-0.401561
-0.394162
-0.38587
-0.376535
-0.366085
-0.354541
-0.342026
-0.328735
-0.314906
-0.300783
-0.28658
-0.272506
-0.258559
-0.245426
-0.431669
-0.425781
-0.420954
-0.415791
-0.410275
-0.404422
-0.398105
-0.391159
-0.383406
-0.374684
-0.364891
-0.354015
-0.342136
-0.329418
-0.316077
-0.302347
-0.288445
-0.274594
-0.260786
-0.24778
-0.426576
-0.421035
-0.416442
-0.411513
-0.406251
-0.400687
-0.394717
-0.388191
-0.380936
-0.372786
-0.363616
-0.35338
-0.342122
-0.329972
-0.31712
-0.303791
-0.290197
-0.276577
-0.421618
-0.416418
-0.412059
-0.407363
-0.402348
-0.397061
-0.391414
-0.385276
-0.378483
-0.370863
-0.362279
-0.352654
-0.341998
-0.330407
-0.318045
-0.305121
-0.291842
-0.416804
-0.411939
-0.407813
-0.403348
-0.398577
-0.393554
-0.388212
-0.382433
-0.376064
-0.368937
-0.360899
-0.351853
-0.341776
-0.330732
-0.318857
-0.412143
-0.407606
-0.403711
-0.399476
-0.394944
-0.390176
-0.385121
-0.379676
-0.373699
-0.367025
-0.359495
-0.350994
-0.341471
-0.330958
-0.407639
-0.403421
-0.399757
-0.395751
-0.391454
-0.386934
-0.382151
-0.377017
-0.371402
-0.365144
-0.358085
-0.350092
-0.403298
-0.39939
-0.395952
-0.392174
-0.38811
-0.383831
-0.379309
-0.374466
-0.369184
-0.36331
-0.356683
-0.399121
-0.395512
-0.392298
-0.388746
-0.384912
-0.38087
-0.376598
-0.37203
-0.367057
-0.361534
-0.395106
-0.391787
-0.388794
-0.385466
-0.381861
-0.378051
-0.37402
-0.369712
-0.365026
-0.391253
-0.388212
-0.385437
-0.382331
-0.378953
-0.375372
-0.371576
-0.367516
-0.387557
-0.384785
-0.382223
-0.379337
-0.376185
-0.37283
-0.369263
-0.384012
-0.381499
-0.379146
-0.376479
-0.37355
-0.370419
-0.380611
-0.378349
-0.376203
-0.373751
-0.371044
-0.377348
-0.375329
-0.373385
-0.371146
-0.374214
-0.372432
-0.370685
-0.371201
-0.369649
-0.368299
-0.366975
-0.365501
-0.270634
-0.275939
-0.281102
-0.28613
-0.291028
-0.295803
-0.30046
-0.305008
-0.309452
-0.3138
-0.318061
-0.32224
-0.326347
-0.330389
-0.334374
-0.338311
-0.24868
-0.25366
-0.258536
-0.263312
-0.267992
-0.272582
-0.277087
-0.281512
-0.285863
-0.290145
-0.294365
-0.29853
-0.302645
-0.306717
-0.310754
-0.314762
-0.22891
-0.233568
-0.238148
-0.242654
-0.247089
-0.251459
-0.255767
-0.260018
-0.264216
-0.268367
-0.272476
-0.276548
-0.280589
-0.284604
-0.288599
-0.292581
-0.21116
-0.215497
-0.219776
-0.223999