/*--------------------------------*- C++ -*----------------------------------*\
  =========                 |
  \\      /  F ield         | OpenFOAM: The Open Source CFD Toolbox
   \\    /   O peration     | Website:  https://openfoam.org
    \\  /    A nd           | Version:  7
     \\/     M anipulation  |
\*---------------------------------------------------------------------------*/
FoamFile
{
    version     2.0;
    format      ascii;
    class       volVectorField;
    location    "100";
    object      U;
}
// * * * * * * * * * * * * * * * * * * * * * * * * * * * * * * * * * * * * * //

dimensions      [0 1 -1 0 0 0 0];

internalField   nonuniform List<vector> 
8500
(
(-0.00931203 0.00716084 1.51488e-19)
(-0.0091024 0.00677192 1.27363e-19)
(-0.016147 0.0141245 -1.67868e-19)
(-0.00879457 0.00633845 8.01867e-19)
(-0.0143691 0.0127864 -4.75923e-19)
(-0.00790449 0.0156249 -2.06798e-21)
(-0.00837843 0.00585995 -4.17045e-19)
(-0.0122608 0.0113664 4.30877e-21)
(-0.00323074 0.0134602 3.44738e-19)
(-0.00784378 0.00533723 -1.4616e-19)
(-0.00979773 0.00986663 8.7612e-20)
(0.00204594 0.0112349 1.27154e-19)
(0.027411 0.010256 -3.76421e-19)
(-0.00718171 0.00477241 7.5026e-19)
(-0.0069563 0.00829286 -1.89101e-19)
(0.00795691 0.0089579 -2.7503e-19)
(0.0371779 0.00752463 1.41323e-19)
(0.0807059 0.00507461 6.71106e-19)
(-0.00638358 0.00416878 -3.38125e-19)
(-0.00371493 0.00665396 5.18403e-20)
(0.0145303 0.00664314 -3.82201e-19)
(0.0478658 0.00482388 -5.40921e-19)
(0.0961947 0.00229145 -2.33099e-19)
(0.15932 -4.32431e-05 -1.30818e-19)
(-0.00544134 0.00353071 -3.29557e-19)
(-5.35254e-05 0.00496182 7.27084e-19)
(0.0217931 0.00430921 4.54666e-19)
(0.0594984 0.00217935 2.03631e-19)
(0.112858 -0.000326865 -7.36078e-20)
(0.181508 -0.00229634 -4.84015e-19)
(0.264744 -0.00302022 6.78968e-20)
(-0.00434737 0.00286338 5.86198e-20)
(0.00404675 0.00323108 -1.1014e-19)
(0.0297682 0.00197915 8.10115e-20)
(0.0720974 -0.000378437 -1.95508e-19)
(0.130701 -0.00274241 4.15098e-19)
(0.205027 -0.00420801 7.53776e-19)
(0.294088 -0.00409039 2.33847e-19)
(0.396244 -0.00190879 1.46926e-19)
(-0.00309446 0.00217273 -1.97273e-19)
(0.00860309 0.00147864 -4.60378e-19)
(0.0384764 -0.000320202 -3.48908e-19)
(0.0856778 -0.00281379 1.09137e-19)
(0.149726 -0.00491282 -5.91583e-19)
(0.229846 -0.00573095 -7.39139e-19)
(0.324735 -0.00462238 -9.967e-20)
(0.432336 -0.00116947 -2.31741e-19)
(0.549655 0.00476696 -2.37741e-20)
(-0.00167574 0.00146536 -1.5201e-19)
(0.013631 -0.000276587 -1.18692e-19)
(0.047935 -0.00255891 5.37039e-19)
(0.10025 -0.00508722 -3.32963e-19)
(0.169924 -0.00679131 8.62402e-19)
(0.255927 -0.00681534 3.6469e-19)
(0.356598 -0.00456783 -2.40508e-19)
(0.46943 0.000285894 -4.13073e-19)
(0.590915 0.00776966 -6.61154e-19)
(0.716579 0.0175675 7.03039e-19)
(-8.47283e-05 0.000748421 2.98777e-19)
(0.0191444 -0.00201393 4.87517e-19)
(0.0581576 -0.00470435 1.96228e-20)
(0.115818 -0.00715615 3.05448e-19)
(0.191279 -0.00832841 -7.40037e-19)
(0.283217 -0.0074093 1.79391e-19)
(0.389578 -0.00387924 -1.17421e-19)
(0.507369 0.00249352 -2.30977e-20)
(0.632557 0.0115966 -2.2504e-19)
(0.760196 0.0229565 -4.9642e-19)
(0.884819 0.0357783 2.46439e-19)
(0.00168465 2.9592e-05 -5.3755e-20)
(0.0251552 -0.00371122 -7.35035e-19)
(0.069154 -0.00672172 -5.67673e-19)
(0.13238 -0.00897565 -3.62605e-20)
(0.213762 -0.0094729 1.29514e-19)
(0.311652 -0.00746081 -2.51244e-19)
(0.423562 -0.00251076 -1.21009e-21)
(0.545986 0.00548473 8.43904e-20)
(0.674366 0.016258 1.24809e-19)
(0.803322 0.0291656 7.05719e-19)
(0.927157 0.0432577 2.93136e-19)
(1.04056 0.0574168 1.79648e-19)
(1.13933 0.0705378 -2.40102e-19)
(0.003638 -0.000682958 9.52173e-20)
(0.031673 -0.00534497 3.89564e-19)
(0.0809294 -0.00857446 2.44364e-19)
(0.149926 -0.0104992 -4.48424e-19)
(0.237339 -0.0101729 9.66752e-20)
(0.341156 -0.00691882 5.91011e-19)
(0.458423 -0.000419937 3.24401e-19)
(0.585101 0.00928544 4.33991e-20)
(0.71612 0.0217566 3.98687e-19)
(0.845721 0.0361726 -8.13635e-19)
(0.968071 0.0514344 -2.29138e-19)
(1.07803 0.0663353 -9.815e-20)
(1.17182 0.0797571 5.80133e-19)
(1.24748 0.0908374 -3.84431e-19)
(0.00578042 -0.0013806 -8.88025e-20)
(0.0387054 -0.00689057 -5.51081e-20)
(0.0934845 -0.0102248 -1.42637e-19)
(0.16844 -0.0116795 4.70877e-19)
(0.261962 -0.0103768 3.16023e-19)
(0.371641 -0.00573446 -1.01596e-19)
(0.494023 0.00243126 -1.82169e-20)
(0.624529 0.013915 4.02077e-19)
(0.757602 0.028088 -6.13657e-19)
(0.887173 0.0439484 3.76195e-19)
(1.00737 0.0602598 3.86009e-19)
(1.11333 0.0757495 1.02849e-19)
(1.20181 0.089314 -2.06546e-19)
(1.27149 0.100172 2.9982e-19)
(1.32288 0.107936 2.48058e-19)
(0.00811631 -0.00205426 -1.37632e-19)
(0.0462571 -0.00832246 6.0857e-20)
(0.106815 -0.0116338 4.02142e-19)
(0.187896 -0.012469 6.72231e-21)
(0.287575 -0.0100341 -6.84219e-19)
(0.403007 -0.00386203 -4.71172e-19)
(0.530215 0.00607551 -4.04231e-19)
(0.66408 0.0193859 -2.13073e-19)
(0.798599 0.0352404 8.11811e-19)
(0.927474 0.0524585 -3.6379e-20)
(1.04491 0.0696829 1.09714e-19)
(1.1464 0.0856018 1.79627e-19)
(1.22932 0.0991538 -6.02224e-19)
(1.293 0.109662 -4.81966e-19)
(1.33858 0.116867 1.29497e-19)
(1.36842 0.120873 -2.5315e-20)
(1.38555 0.122073 -5.12209e-19)
(0.0106494 -0.00269446 1.75229e-19)
(0.0543302 -0.0096143 2.235e-19)
(0.120911 -0.0127625 -4.15406e-19)
(0.208262 -0.0128204 -2.26473e-20)
(0.31411 -0.00909654 8.02768e-19)
(0.435144 -0.00125989 5.04435e-19)
(0.566844 0.0105394 -2.03131e-19)
(0.703563 0.0257032 3.00096e-19)
(0.838908 0.0431952 -3.21624e-19)
(0.966441 0.0616636 -3.25411e-19)
(1.08054 0.0796517 3.32134e-19)
(1.17719 0.0958367 -6.73035e-19)
(1.25437 0.109227 8.52916e-20)
(1.31212 0.119267 3.25182e-19)
(1.35212 0.125837 -1.77493e-19)
(1.37715 0.129165 2.54469e-19)
(1.39041 0.129731 -3.07824e-19)
(1.39502 0.128 5.10867e-20)
(0.0133824 -0.00329132 2.05111e-19)
(0.0629235 -0.0107392 -6.80237e-19)
(0.135757 -0.0135713 1.09456e-19)
(0.229498 -0.0126876 -1.14529e-19)
(0.341491 -0.0075183 -2.83092e-19)
(0.467932 0.00210885 -2.26833e-19)
(0.603747 0.0158431 2.0469e-19)
(0.742788 0.0328649 -9.40292e-19)
(0.878335 0.0519275 -2.20222e-19)
(1.00391 0.0715207 1.42975e-19)
(1.11419 0.0901136 -1.81506e-19)
(1.20567 0.106402 5.2022e-19)
(1.27704 0.119491 3.6561e-19)
(1.32897 0.128959 1.27058e-19)
(1.36368 0.134828 7.04723e-19)
(1.38424 0.137449 -6.96916e-19)
(1.39401 0.137375 4.29795e-19)
(1.39607 0.135133 6.08138e-19)
(1.39305 0.131681 -4.34113e-19)
(1.38654 0.125744 1.21825e-19)
(0.0163171 -0.0038346 1.62279e-20)
(0.0720327 -0.0116696 -7.36467e-21)
(0.151332 -0.0140212 4.97777e-19)
(0.251554 -0.012026 -7.16428e-20)
(0.369632 -0.00525708 -3.16036e-20)
(0.501242 0.00627573 5.39067e-19)
(0.640759 0.0219998 6.21271e-19)
(0.781569 0.0408619 1.71458e-19)
(0.916705 0.061407 3.68271e-19)
(1.03975 0.0819843 -2.41952e-19)
(1.14576 0.101017 -2.05973e-19)
(1.23186 0.117251 -4.6374e-21)
(1.29739 0.129905 -2.53166e-19)
(1.34369 0.13871 -9.44294e-21)
(1.3734 0.143828 -4.95386e-19)
(1.38988 0.145721 1.95953e-19)
(1.39652 0.145009 4.59466e-19)
(1.39634 0.142265 -2.32004e-19)
(1.39179 0.138394 2.67296e-19)
(1.38433 0.132265 4.81649e-19)
(0.0194542 -0.00431373 6.26857e-20)
(0.0816497 -0.0123782 -1.74228e-19)
(0.167609 -0.0140736 -1.02715e-20)
(0.274374 -0.010793 5.23177e-21)
(0.398439 -0.00227449 -3.53131e-19)
(0.534941 0.0112665 -5.04808e-20)
(0.677715 0.029016 -6.40546e-19)
(0.819729 0.0496786 6.67365e-19)
(0.953857 0.0715985 3.44825e-19)
(1.07385 0.0930072 3.11478e-20)
(1.17523 0.112313 -3.26891e-21)
(1.25578 0.128337 -1.81573e-19)
(1.31554 0.140438 1.07073e-19)
(1.35641 0.148501 2.93982e-19)
(1.38146 0.152827 -5.12015e-19)
(1.3942 0.153981 3.90956e-19)
(1.39806 0.152637 -4.72872e-19)
(1.39593 0.149402 -2.13409e-20)
(1.39008 0.145124 1.95676e-21)
(1.38182 0.138807 2.16872e-19)
(0.0227933 -0.00471792 -1.37487e-19)
(0.0917629 -0.012837 -1.57045e-19)
(0.184554 -0.0136909 2.2606e-19)
(0.297894 -0.00894865 -1.00808e-19)
(0.427809 0.00146346 -3.17349e-20)
(0.568889 0.0171009 -3.13153e-19)
(0.714448 0.0368914 3.5153e-19)
(0.8571 0.0592933 -6.32746e-19)
(0.989649 0.0824634 5.76774e-20)
(1.10612 0.104542 9.82147e-20)
(1.20257 0.123952 -5.37065e-20)
(1.27749 0.139622 3.84127e-20)
(1.33158 0.151062 -4.48313e-19)
(1.36729 0.158317 -3.43333e-19)
(1.38799 0.161821 2.8903e-19)
(1.39736 0.162231 -9.33533e-20)
(1.39874 0.160264 -5.61859e-19)
(1.39493 0.15655 -1.07638e-19)
(1.38798 0.151874 -4.73265e-19)
(1.37906 0.145371 -5.87546e-19)
(0.0263323 -0.00503615 -3.24906e-20)
(0.102357 -0.0130189 2.32402e-19)
(0.20213 -0.0128368 1.68922e-19)
(0.322042 -0.00645577 4.97621e-19)
(0.457634 0.00598599 -1.75065e-20)
(0.602944 0.0237925 2.67869e-19)
(0.750798 0.0456191 -5.69276e-19)
(0.893523 0.0696793 2.01083e-19)
(1.02396 0.0939601 -1.69516e-19)
(1.13649 0.11654 2.45413e-19)
(1.22779 0.135891 6.10176e-20)
(1.29705 0.15107 1.43955e-19)
(1.34563 0.161753 4.16105e-19)
(1.37645 0.168145 5.1935e-20)
(1.39315 0.170807 -2.60527e-19)
(1.39947 0.170474 4.32804e-19)
(1.39868 0.167895 1.5341e-19)
(1.39342 0.163713 -7.29089e-20)
(1.38553 0.158648 4.44495e-19)
(1.37606 0.151962 2.95834e-19)
(0.0300681 -0.00525732 1.06257e-19)
(0.113413 -0.0128966 1.20229e-19)
(0.22029 -0.0114767 -2.99046e-19)
(0.346741 -0.0032807 -6.91433e-20)
(0.487801 0.0113172 8.91347e-20)
(0.636963 0.0313485 -5.24642e-20)
(0.786607 0.0551861 3.22519e-19)
(0.928857 0.0808048 -1.02544e-19)
(1.05668 0.106045 -1.2664e-19)
(1.16492 0.128955 -4.33651e-19)
(1.25091 0.148087 -2.77452e-19)
(1.31455 0.162649 -2.58053e-19)
(1.35782 0.172491 -2.10804e-19)
(1.38404 0.177978 8.11173e-20)
(1.39707 0.179784 -1.5875e-19)
(1.40065 0.178713 1.91484e-20)
(1.39796 0.175534 3.05385e-19)
(1.39145 0.170895 3.25875e-19)
(1.38278 0.165449 2.37725e-20)
(1.37286 0.158578 2.07059e-19)
(0.0339959 -0.00537031 5.44455e-20)
(0.124907 -0.0124439 2.04549e-19)
(0.238986 -0.00957812 1.62931e-19)
(0.371907 0.000606512 -2.72286e-19)
(0.518192 0.0174758 2.52957e-19)
(0.670803 0.03977 -8.22799e-20)
(0.821726 0.0655735 -1.76643e-19)
(0.96297 0.0926344 4.2598e-19)
(1.08773 0.118673 -1.07563e-19)
(1.19138 0.141742 -3.70003e-21)
(1.27196 0.160503 2.97897e-19)
(1.33007 0.174332 -2.68809e-19)
(1.36825 0.183262 1.18703e-19)
(1.39018 0.187809 -3.0053e-19)
(1.39986 0.188753 5.0983e-19)
(1.40101 0.186951 -3.88487e-19)
(1.39666 0.183186 -2.35703e-19)
(1.38908 0.178098 -2.50602e-21)
(1.37975 0.172278 -3.50535e-19)
(1.36946 0.16522 -4.17238e-21)
(0.0381096 -0.00536406 -2.45824e-19)
(0.136813 -0.0116355 -9.14334e-20)
(0.258161 -0.00711089 -3.02726e-19)
(0.397452 0.00523169 -1.68023e-19)
(0.548686 0.024475 -8.73599e-20)
(0.704323 0.049052 -4.18768e-20)
(0.856016 0.0767575 1.95073e-19)
(0.995748 0.105129 -1.07403e-19)
(1.11704 0.131799 -5.24009e-20)
(1.21587 0.154857 1.33643e-19)
(1.291 0.173102 -1.81716e-19)
(1.3437 0.186095 2.33295e-19)
(1.37704 0.194052 2.25645e-19)
(1.39499 0.197634 5.07847e-20)
(1.40164 0.197714 -1.45032e-19)
(1.40062 0.195192 -3.45827e-20)
(1.39483 0.190853 -2.02311e-19)
(1.38635 0.185324 -8.66869e-20)
(1.37647 0.179133 1.43469e-19)
(1.36588 0.171886 -2.48579e-19)
(0.0424015 -0.00522773 8.1104e-20)
(0.149099 -0.0104471 -1.38937e-19)
(0.277754 -0.00404761 2.37109e-19)
(0.423282 0.0106163 1.11698e-19)
(0.579162 0.0323224 -1.61614e-19)
(0.737385 0.0591837 2.0047e-19)
(0.889344 0.0887092 5.04012e-20)
(1.02709 0.118248 -9.17544e-20)
(1.14456 0.145376 2.47487e-19)
(1.23839 0.168258 7.42873e-20)
(1.30808 0.185852 1.42308e-19)
(1.35555 0.197917 -1.47631e-19)
(1.38432 0.204851 -9.89574e-20)
(1.39859 0.20745 2.11632e-19)
(1.4025 0.20667 -6.09434e-20)
(1.39957 0.203438 3.52475e-19)
(1.39254 0.198537 1.87953e-19)
(1.38329 0.192574 -3.16477e-20)
(1.37296 0.186015 1.05074e-19)
(1.36212 0.178573 4.05211e-19)
(0.0468623 -0.00495077 -4.0246e-20)
(0.161732 -0.00885614 2.25889e-20)
(0.297703 -0.000363928 -2.15992e-19)
(0.4493 0.0167771 1.39886e-19)
(0.609498 0.0410199 1.31774e-19)
(0.769857 0.0701487 -1.89303e-19)
(0.921592 0.101396 8.80123e-20)
(1.05692 0.131948 -1.72742e-19)
(1.17027 0.159362 -2.47849e-19)
(1.25898 0.181906 9.03738e-20)
(1.32327 0.198724 1.67859e-20)
(1.3657 0.209781 1.43112e-19)
(1.39018 0.215651 9.75073e-20)
(1.40108 0.217257 -6.65493e-20)
(1.40252 0.215622 -1.4034e-20)
(1.39792 0.211692 -5.36233e-20)
(1.38982 0.206238 -2.82637e-19)
(1.37992 0.199847 2.35574e-20)
(1.36923 0.19292 -1.90628e-19)
(1.35819 0.185278 1.93386e-21)
(0.0514814 -0.00452305 -4.50356e-20)
(0.174674 -0.0068417 -5.8078e-20)
(0.317937 0.00396111 2.28245e-19)
(0.475408 0.0237262 -2.86568e-20)
(0.639571 0.050564 1.27003e-21)
(0.801613 0.0819254 -1.28393e-19)
(0.95265 0.11478 -2.29241e-20)
(1.08516 0.146185 9.26725e-20)
(1.19413 0.17371 3.19677e-19)
(1.27765 0.195763 -1.03432e-19)
(1.33666 0.211692 1.79666e-20)
(1.37426 0.22167 5.7316e-20)
(1.39473 0.226444 -1.12815e-19)
(1.40255 0.227051 -7.34913e-20)
(1.40179 0.224569 1.97469e-20)
(1.39572 0.219954 7.02294e-20)
(1.38671 0.213958 1.80629e-19)
(1.37628 0.20714 -4.86036e-21)
(1.36528 0.199845 7.0319e-20)
(1.35408 0.191997 4.9179e-20)
(0.0562466 -0.00393495 7.84312e-20)
(0.187884 -0.00438492 1.62174e-19)
(0.338384 0.00894486 1.12684e-19)
(0.501505 0.0314705 -6.22478e-20)
(0.669264 0.0609453 2.32888e-19)
(0.832534 0.0944873 1.39045e-19)
(0.982423 0.128823 -2.10237e-19)
(1.11175 0.160912 -7.40288e-20)
(1.21616 0.188378 1.23687e-21)
(1.29446 0.209795 -6.27285e-20)
(1.34831 0.224731 -1.83045e-19)
(1.38133 0.233571 3.06845e-20)
(1.39806 0.237225 3.48726e-22)
(1.40308 0.236833 -1.97576e-19)
(1.40036 0.233514 9.14975e-20)
(1.39302 0.228224 -4.97666e-20)
(1.38323 0.221693 -2.2259e-19)
(1.37236 0.21445 1.08986e-19)
(1.36113 0.206786 -2.33952e-19)
(1.3498 0.198725 -1.43108e-19)
(0.0611443 -0.00317753 -2.75391e-20)
(0.201318 -0.00146913 -6.97123e-20)
(0.35897 0.0146008 -1.17274e-19)
(0.527489 0.0400119 -5.70871e-21)
(0.698459 0.0721494 -1.10322e-20)
(0.862509 0.107803 -1.31359e-19)
(1.01082 0.143483 3.05027e-20)
(1.13666 0.176084 2.88959e-20)
(1.23634 0.203323 -6.04603e-20)
(1.30944 0.223969 5.01061e-21)
(1.3583 0.23782 9.64214e-20)
(1.38698 0.245471 -1.28839e-20)
(1.40026 0.247989 7.50563e-20)
(1.40274 0.246599 3.38029e-20)
(1.3983 0.242454 -1.88793e-19)
(1.38986 0.236501 1.45487e-20)
(1.37942 0.229442 1.18032e-19)
(1.36819 0.221773 -2.85519e-20)
(1.35677 0.213739 5.29245e-21)
(1.34535 0.205455 -2.02282e-20)
(0.0661598 -0.00224257 -2.51956e-20)
(0.21493 0.00191982 -2.47495e-20)
(0.379618 0.0209384 -4.42954e-20)
(0.553258 0.0493474 -2.94586e-20)
(0.727046 0.0841566 -7.75102e-20)
(0.891435 0.121839 9.07228e-20)
(1.03778 0.158714 1.81397e-19)
(1.15986 0.191656 6.3882e-20)
(1.2547 0.218506 3.3025e-20)
(1.32267 0.238254 -7.94556e-20)
(1.36671 0.250937 -8.10412e-22)
(1.39131 0.257359 5.25771e-20)
(1.40142 0.258729 -6.82883e-20)
(1.40162 0.256348 2.6488e-20)
(1.39565 0.251388 8.97401e-20)
(1.38626 0.244781 -3.1514e-20)
(1.37528 0.237199 -5.6465e-20)
(1.36377 0.229103 -5.29895e-20)
(1.35221 0.220696 1.91491e-19)
(1.34073 0.212182 6.8632e-20)
(0.0712769 -0.00112272 -4.49472e-20)
(0.228671 0.00579346 5.47049e-20)
(0.40025 0.0279629 -1.2562e-20)
(0.578713 0.0594687 3.99406e-20)
(0.754917 0.0969425 -3.61409e-20)
(0.919219 0.136556 -2.23162e-20)
(1.06324 0.174471 -8.81456e-20)
(1.18132 0.20758 1.04526e-20)
(1.27127 0.233887 2.54571e-20)
(1.33419 0.25262 5.76166e-20)
(1.37362 0.264065 -2.26778e-20)
(1.3944 0.269225 -1.80141e-20)
(1.4016 0.269441 1.67274e-20)
(1.39976 0.266077 -2.98252e-20)
(1.39245 0.260314 6.86611e-20)
(1.38227 0.253061 4.61228e-20)
(1.37084 0.24496 -8.0522e-21)
(1.3591 0.236436 -5.32596e-21)
(1.34744 0.227651 -5.16175e-20)
(1.33592 0.218898 -6.6075e-20)
(0.0764785 0.000188435 9.68022e-21)
(0.242491 0.0101605 -1.70851e-20)
(0.420785 0.0356754 1.17732e-20)
(0.603756 0.0703628 -1.63256e-20)
(0.781971 0.110478 -6.31827e-20)
(0.945776 0.151911 2.95118e-20)
(1.08713 0.190706 1.45075e-20)
(1.20103 0.223812 -6.95491e-20)
(1.28607 0.249428 -4.42278e-20)
(1.34406 0.267041 -4.26729e-21)
(1.3791 0.277186 -6.28805e-20)
(1.39633 0.281059 6.56622e-20)
(1.40088 0.28012 -1.23487e-22)
(1.39721 0.275782 -8.96123e-21)
(1.38875 0.269226 -1.73524e-20)
(1.37788 0.261337 8.63259e-21)
(1.3661 0.252719 6.05478e-21)
(1.35419 0.243763 -2.47006e-21)
(1.34247 0.234597 -1.89993e-20)
(1.33093 0.225596 2.37119e-20)
(0.0817463 0.00169627 3.2316e-21)
(0.256338 0.0150267 1.12537e-20)
(0.441145 0.0440724 6.32977e-21)
(0.628289 0.0820115 -2.97042e-21)
(0.808113 0.12473 4.17031e-20)
(0.971031 0.167862 -9.38869e-21)
(1.10943 0.20737 1.50478e-20)
(1.21901 0.240306 3.36048e-20)
(1.29914 0.265093 -6.11752e-21)
(1.35235 0.28149 1.5382e-21)
(1.38323 0.290282 1.72725e-20)
(1.39716 0.29285 -9.30941e-21)
(1.3993 0.290759 1.22501e-20)
(1.39402 0.285458 2.22349e-21)
(1.38456 0.278121 -2.37331e-20)
(1.37313 0.269601 1.15605e-21)
(1.36106 0.260468 3.15989e-20)
(1.34904 0.251077 -6.70764e-21)
(1.33729 0.241527 1.00304e-20)
(1.32576 0.232268 -1.15115e-20)
(0.0870616 0.00340507 1.32318e-21)
(0.27016 0.0203948 1.65995e-20)
(0.461251 0.0531464 9.0467e-21)
(0.652222 0.0943924 -1.84884e-21)
(0.833255 0.13966 3.85043e-20)
(0.994919 0.18436 -1.09647e-20)
(1.13011 0.224416 2.07105e-20)
(1.23525 0.257019 2.80634e-20)
(1.31052 0.280846 -5.84551e-21)
(1.35912 0.295942 1.32567e-21)
(1.38608 0.303338 1.96313e-20)
(1.39695 0.304589 -8.00373e-21)
(1.39693 0.301351 8.02324e-21)
(1.39023 0.295099 -1.9982e-21)
(1.37991 0.286992 -1.94383e-20)
(1.36802 0.277847 -5.73551e-22)
(1.35574 0.2682 3.14712e-20)
(1.34364 0.25837 -6.26894e-21)
(1.33191 0.248431 1.18914e-20)
(1.32039 0.238906 -1.3054e-20)
(0.0924047 0.00531798 1.15647e-20)
(0.283903 0.0262645 -2.13341e-20)
(0.481025 0.0628854 1.09501e-20)
(0.675465 0.107478 -8.89699e-21)
(0.857316 0.155229 -6.09798e-20)
(1.01738 0.201357 2.49696e-20)
(1.14913 0.241793 1.1554e-20)
(1.24977 0.273906 -7.92524e-20)
(1.32026 0.296654 -3.35768e-20)
(1.36444 0.310373 -2.67451e-23)
(1.3877 0.316339 -5.29399e-20)
(1.39578 0.316265 4.4719e-20)
(1.39381 0.311888 -1.01739e-20)
(1.38587 0.304698 6.48077e-21)
(1.37483 0.29583 -2.56502e-20)
(1.36257 0.286066 1.96547e-20)
(1.35013 0.275905 1.27983e-20)
(1.33801 0.265631 -2.2392e-21)
(1.32631 0.255301 -2.57051e-20)
(1.31484 0.245501 2.40218e-20)
(0.0977549 0.00743691 -2.49805e-20)
(0.297513 0.0326322 -1.14747e-20)
(0.500389 0.0732734 -1.68763e-20)
(0.697934 0.121238 5.82958e-20)
(0.880221 0.171392 2.46259e-22)
(1.03837 0.218803 -3.14103e-20)
(1.1665 0.259452 -1.28967e-19)
(1.2626 0.290926 1.26288e-20)
(1.3284 0.312484 1.47744e-20)
(1.36835 0.32476 6.64764e-20)
(1.38817 0.329268 9.94501e-21)
(1.39369 0.327869 -5.72065e-20)
(1.38999 0.322364 5.44769e-20)
(1.38096 0.314248 -2.2201e-20)
(1.36933 0.304629 8.49689e-20)
(1.35678 0.294249 -7.71532e-21)
(1.34425 0.283573 4.59518e-21)
(1.33213 0.272853 3.93258e-21)
(1.32049 0.262126 -6.88438e-20)
(1.30909 0.252044 -4.24392e-20)
(0.103092 0.00976248 -9.44879e-21)
(0.310935 0.0394912 -5.52003e-20)
(0.519269 0.0842899 4.38845e-20)
(0.719549 0.135636 -5.60507e-20)
(0.901904 0.188101 -1.01596e-19)
(1.05785 0.236645 8.92543e-20)
(1.18219 0.277343 1.47929e-19)
(1.27375 0.308036 5.32748e-20)
(1.335 0.328302 3.72811e-20)
(1.37092 0.339081 -1.07915e-19)
(1.38753 0.342111 8.33337e-20)
(1.39073 0.339389 9.83475e-21)
(1.38549 0.332767 -1.07728e-19)
(1.37554 0.323739 4.23683e-20)
(1.36341 0.313377 1.53072e-19)
(1.35065 0.302386 -1.06094e-19)
(1.33808 0.291195 -3.07477e-20)
(1.32601 0.280023 -3.01101e-20)
(1.31446 0.268899 1.40315e-19)
(1.30314 0.258526 8.21413e-20)
(0.108393 0.012294 6.53934e-20)
(0.324118 0.0468316 -1.11985e-19)
(0.537595 0.0959109 -1.6411e-19)
(0.740236 0.150633 7.44279e-21)
(0.922305 0.205308 -3.006e-20)
(1.07579 0.25483 -1.22567e-19)
(1.19622 0.295416 -2.074e-20)
(1.28326 0.325194 6.37727e-20)
(1.3401 0.34408 -1.03461e-19)
(1.3722 0.353313 8.52994e-20)
(1.38585 0.354851 1.00125e-19)
(1.38695 0.350812 -6.35021e-20)
(1.38036 0.343089 2.61113e-20)
(1.36962 0.333161 1.34574e-19)
(1.3571 0.322066 -1.81268e-19)
(1.3442 0.310466 3.22631e-20)
(1.33163 0.29876 8.88036e-20)
(1.31964 0.287133 -2.72401e-20)
(1.3082 0.275607 -2.88099e-20)
(1.29698 0.264938 -4.91145e-21)
(0.113639 0.0150295 9.64082e-20)
(0.337009 0.0546404 1.80389e-19)
(0.555295 0.108108 9.63542e-20)
(0.759927 0.166187 -1.1544e-19)
(0.941373 0.222962 3.03046e-19)
(1.09216 0.273305 4.69524e-20)
(1.2086 0.313623 -1.30543e-19)
(1.29116 0.342361 -9.47568e-20)
(1.34374 0.359785 -7.66684e-20)
(1.37226 0.367435 2.55686e-20)
(1.38318 0.367474 -8.76262e-20)
(1.38239 0.362127 3.0241e-21)
(1.37461 0.353317 -6.07629e-20)
(1.36323 0.342503 -8.3715e-20)
(1.35041 0.330683 -1.44909e-20)
(1.33742 0.318478 -9.19015e-21)
(1.3249 0.306255 -1.64335e-19)
(1.31302 0.294169 1.2588e-19)
(1.30173 0.28224 -1.93434e-19)
(1.29063 0.271268 -1.15883e-19)
(0.118808 0.0179658 -1.16967e-19)
(0.349556 0.0629016 -4.84345e-20)
(0.572307 0.120851 2.16884e-19)
(0.778559 0.182253 5.5438e-20)
(0.959062 0.241007 -1.90782e-19)
(1.10695 0.292015 -1.11408e-19)
(1.21932 0.331915 -3.74104e-20)
(1.29749 0.359498 2.43175e-19)
(1.34599 0.375389 1.75197e-19)
(1.37114 0.381425 -6.07947e-20)
(1.37955 0.379963 -3.58192e-20)
(1.37708 0.373321 9.04763e-20)
(1.36828 0.36344 -1.0024e-19)
(1.35636 0.351753 4.67095e-20)
(1.34333 0.339215 2.08769e-20)
(1.33032 0.326409 -2.61709e-20)
(1.31788 0.313668 2.01016e-19)
(1.30615 0.301122 -8.57614e-20)
(1.29502 0.288787 1.75163e-19)
(1.28407 0.277509 -6.41509e-20)
(0.123879 0.0210981 -6.57441e-20)
(0.361711 0.0715963 -1.22236e-19)
(0.588567 0.134103 -1.9495e-19)
(0.796074 0.198782 1.18385e-19)
(0.975336 0.25939 6.54015e-20)
(1.12014 0.310907 -9.40049e-20)
(1.22842 0.350244 1.57138e-19)
(1.30229 0.376564 -2.44205e-19)
(1.34689 0.390862 -2.61936e-19)
(1.36889 0.395261 1.59385e-19)
(1.37502 0.392301 6.01849e-20)
(1.37105 0.38438 -6.74539e-20)
(1.36139 0.373445 1.03009e-19)
(1.34905 0.360899 8.2243e-20)
(1.33588 0.347652 -6.11057e-20)
(1.3229 0.334246 -2.12923e-20)
(1.31059 0.320988 -1.54116e-19)
(1.29902 0.307979 3.23976e-20)
(1.28809 0.295238 -1.35249e-19)
(1.2773 0.283647 -2.32008e-20)
(0.128831 0.0244208 5.46662e-20)
(0.373426 0.0807028 -9.59921e-20)
(0.604018 0.147828 1.76249e-19)
(0.812423 0.215725 3.00018e-19)
(0.990163 0.278054 -4.33749e-19)
(1.13173 0.329925 3.84241e-19)
(1.23592 0.368562 1.03983e-19)
(1.30559 0.393524 -1.51934e-19)
(1.34648 0.406175 1.80996e-19)
(1.36557 0.408923 1.08208e-19)
(1.36962 0.404472 1.35604e-19)
(1.36435 0.395289 -2.36823e-19)
(1.35396 0.383319 -4.99878e-20)
(1.3413 0.369926 1.19842e-19)
(1.32806 0.355977 4.59959e-20)
(1.31516 0.341976 2.16505e-19)
(1.30301 0.328201 2.75141e-19)
(1.29165 0.314727 -6.8358e-20)
(1.28093 0.301579 1.209e-19)
(1.27033 0.289674 1.4022e-19)
(0.133644 0.0279266 -1.5776e-20)
(0.384656 0.0901969 -2.22911e-19)
(0.618607 0.161984 -3.07989e-19)
(0.82756 0.233028 -4.04471e-19)
(1.00352 0.296942 -3.98705e-20)
(1.14173 0.349014 1.50556e-19)
(1.24183 0.386822 -2.88699e-20)
(1.30744 0.410338 5.10466e-20)
(1.34482 0.421301 -7.99733e-20)
(1.3612 0.422387 1.35834e-19)
(1.3634 0.416458 -2.08566e-19)
(1.35698 0.406033 2.75566e-19)
(1.34601 0.393046 1.59917e-19)
(1.33312 0.378821 7.45996e-20)
(1.31987 0.364179 -1.1171e-19)
(1.30711 0.349586 -1.19657e-19)
(1.29514 0.335295 -1.16304e-19)
(1.28402 0.321355 8.55883e-21)
(1.27354 0.307797 1.59473e-19)
(1.26316 0.295576 -1.71236e-19)
(0.138298 0.0316072 -2.8273e-20)
(0.395358 0.100052 1.73598e-19)
(0.632285 0.176528 2.19821e-19)
(0.841446 0.250638 -3.46516e-20)
(1.01539 0.315996 1.04047e-19)
(1.15014 0.368121 2.83633e-20)
(1.24619 0.404979 -1.53707e-19)
(1.30788 0.426971 1.22915e-19)
(1.34195 0.43621 1.16275e-19)
(1.35585 0.435634 -2.04175e-19)
(1.35638 0.428242 3.32647e-19)
(1.34899 0.416596 -2.80266e-19)
(1.33754 0.402611 1.6379e-19)
(1.32451 0.387568 -2.41318e-19)
(1.31133 0.372242 3.60029e-19)
(1.29873 0.357061 -2.30904e-19)
(1.287 0.342256 -6.88802e-20)
(1.27613 0.32785 -9.38519e-20)
(1.26592 0.313881 -2.00531e-19)
(1.25576 0.301347 2.59515e-21)
(0.142775 0.0354533 2.02863e-19)
(0.405491 0.110238 2.17317e-19)
(0.645008 0.191415 -3.1589e-19)
(0.854049 0.268498 -1.93705e-19)
(1.02576 0.335158 2.88778e-19)
(1.15698 0.387192 -1.15768e-19)
(1.24903 0.422986 1.71077e-19)
(1.30696 0.443387 7.42755e-20)
(1.33792 0.450876 -1.74328e-19)
(1.34954 0.448641 -4.37097e-19)
(1.3486 0.439805 -7.80324e-20)
(1.34039 0.426961 -1.6742e-19)
(1.32859 0.411999 -2.50586e-19)
(1.3155 0.396153 2.04486e-20)
(1.30243 0.38015 -2.53446e-20)
(1.29004 0.364388 -2.67652e-20)
(1.27857 0.349071 2.15356e-19)
(1.26798 0.3342 1.57839e-19)
(1.25807 0.319823 1.63654e-20)
(1.24812 0.306979 9.59465e-20)
(0.147056 0.0394542 -4.89548e-20)
(0.415018 0.120725 3.85991e-19)
(0.656737 0.206597 1.50912e-19)
(0.865341 0.286552 3.08787e-19)
(1.03462 0.35437 1.01207e-19)
(1.16225 0.406173 3.87729e-20)
(1.25038 0.4408 -2.49523e-19)
(1.30471 0.45955 -8.12046e-20)
(1.33277 0.465272 3.99365e-20)
(1.34232 0.461386 3.25287e-19)
(1.34009 0.451129 -1.07389e-19)
(1.3312 0.437112 1.34016e-19)
(1.31915 0.421194 2.89789e-19)
(1.30608 0.404559 6.67939e-20)
(1.29318 0.38789 -5.84208e-20)
(1.28104 0.371551 8.06756e-20)
(1.26985 0.355727 1.57209e-19)
(1.25958 0.340395 7.42147e-20)
(1.24997 0.325625 1.88965e-19)
(1.24023 0.312464 1.49903e-19)
(0.151124 0.0435983 -1.2788e-19)
(0.423905 0.13148 -1.97735e-19)
(0.667437 0.222025 1.26544e-19)
(0.875302 0.304742 4.28907e-20)
(1.04198 0.373573 8.61741e-20)
(1.16599 0.425012 -3.53131e-19)
(1.25029 0.458376 1.2937e-19)
(1.30117 0.475426 -2.81957e-19)
(1.32654 0.479369 -1.58581e-19)
(1.33423 0.473848 1.86698e-19)
(1.33088 0.462195 -1.98151e-20)
(1.32145 0.447031 1.25318e-20)
(1.30925 0.430178 -3.5369e-19)
(1.29627 0.41277 -1.45082e-19)
(1.28359 0.395445 1.23089e-19)
(1.27173 0.378537 -2.16245e-19)
(1.26086 0.362209 -1.17491e-19)
(1.25093 0.346421 -1.18967e-19)
(1.24165 0.331284 -2.13855e-19)
(1.23217 0.317789 -5.10496e-19)
(0.154963 0.0478732 7.45277e-20)
(0.43212 0.142467 -9.3062e-20)
(0.677078 0.237649 -5.13231e-19)
(0.883915 0.32301 2.78895e-19)
(1.04784 0.39271 -3.49785e-19)
(1.16821 0.443657 -5.03524e-20)
(1.24878 0.475672 -4.89012e-19)
(1.29641 0.490982 5.25769e-19)
(1.31928 0.493142 3.0313e-19)
(1.3253 0.486004 -1.75325e-20)
(1.321 0.472983 1.11609e-19)
(1.31115 0.4567 -1.42762e-19)
(1.29889 0.438934 -1.20917e-20)
(1.28607 0.420769 6.71612e-20)
(1.27365 0.4028 -7.11726e-20)
(1.26211 0.38533 1.3802e-19)
(1.25159 0.368505 -1.88126e-19)
(1.24202 0.352265 -1.69314e-19)
(1.2331 0.336764 9.64415e-20)
(1.22395 0.322949 1.35796e-19)
(0.158557 0.0522652 1.70562e-19)
(0.439636 0.15365 1.73035e-19)
(0.685635 0.253417 1.3451e-19)
(0.891171 0.341297 -3.33863e-21)
(1.0522 0.411723 -9.12274e-20)
(1.16895 0.462058 6.20864e-19)
(1.2459 0.492646 3.54802e-19)
(1.29044 0.506183 2.4399e-19)
(1.31103 0.506564 3.50451e-19)
(1.31556 0.497832 4.45946e-20)
(1.31046 0.483473 -2.99561e-19)
(1.30032 0.4661 -3.40471e-20)
(1.2881 0.447445 -6.81164e-20)
(1.27549 0.42854 -2.23766e-19)
(1.26338 0.409938 -8.62504e-20)
(1.2522 0.391915 -1.20831e-19)
(1.24204 0.374599 3.84735e-19)
(1.23287 0.357915 -6.04322e-21)
(1.22433 0.342052 1.13997e-19)
(1.21553 0.327922 9.44813e-20)
(0.161893 0.0567602 -5.73968e-20)
(0.446427 0.164993 -1.00642e-19)
(0.693088 0.269276 -2.20348e-19)
(0.897064 0.359544 -3.72818e-20)
(1.05509 0.430556 -3.73862e-19)
(1.16822 0.480165 -2.70138e-19)
(1.24168 0.509258 9.0739e-20)
(1.28333 0.520998 -6.67655e-19)
(1.30182 0.519608 -3.65873e-19)
(1.30505 0.50931 9.05275e-20)
(1.2993 0.493647 -4.93551e-20)
(1.28899 0.475213 2.77105e-19)
(1.27687 0.455693 3.84761e-19)
(1.26453 0.436066 9.84892e-20)
(1.25278 0.416844 2.73948e-19)
(1.24198 0.398277 -1.47456e-19)
(1.23223 0.380477 2.09097e-19)
(1.22347 0.363356 1.18054e-19)
(1.21534 0.347137 1.05801e-19)
(1.20691 0.332699 -2.08573e-19)
(0.164958 0.0613432 8.64142e-20)
(0.452473 0.176455 -1.06616e-20)
(0.699422 0.285173 -3.42676e-19)
(0.901594 0.377694 -1.50297e-22)
(1.05652 0.449152 8.41459e-19)
(1.16608 0.497928 1.70666e-19)
(1.23618 0.525467 1.30473e-19)
(1.27511 0.535395 3.88176e-19)
(1.29169 0.532249 -3.18037e-19)
(1.2938 0.520416 -3.46497e-19)
(1.28755 0.503483 -5.53337e-21)
(1.27715 0.484021 -2.56262e-19)
(1.26523 0.463661 -1.443e-19)
(1.25322 0.44333 3.97186e-19)
(1.24186 0.423502 -1.05348e-19)
(1.23147 0.404401 5.30948e-21)
(1.22214 0.386126 -1.50813e-19)
(1.21383 0.368576 -2.38084e-19)
(1.20613 0.352008 1.70103e-20)
(1.1981 0.337269 2.42223e-19)
(0.16774 0.0659985 -4.15697e-19)
(0.457754 0.187999 2.61425e-19)
(0.704625 0.301055 5.89721e-19)
(0.904767 0.395688 1.87568e-19)
(1.05651 0.467456 -9.94047e-19)
(1.16255 0.515301 -4.15343e-19)
(1.22943 0.541234 -3.30065e-19)
(1.26583 0.549342 -1.221e-19)
(1.2807 0.544462 4.20285e-19)
(1.28184 0.531128 4.48646e-20)
(1.27521 0.512963 -9.35335e-20)
(1.26485 0.492503 1.67575e-19)
(1.25318 0.471329 2.54775e-20)
(1.24155 0.450315 -4.77761e-19)
(1.23062 0.429895 1.4914e-19)
(1.22067 0.410272 2.01946e-19)
(1.2118 0.391531 1.01165e-19)
(1.20395 0.373561 1.37573e-19)
(1.1967 0.356654 -2.51234e-19)
(1.18909 0.341623 -1.285e-19)
(0.170229 0.0707101 -2.88276e-20)
(0.462256 0.199583 1.32315e-19)
(0.708692 0.316869 6.7599e-20)
(0.90659 0.41347 2.01331e-19)
(1.05508 0.485415 5.55902e-19)
(1.15766 0.532238 -3.67993e-19)
(1.22147 0.556523 -2.41726e-20)
(1.25552 0.562809 3.64079e-19)
(1.26886 0.55622 -4.49974e-19)
(1.2692 0.541424 1.49022e-19)
(1.26233 0.522065 3.92571e-19)
(1.25208 0.500643 9.07485e-20)
(1.24075 0.478681 -2.05609e-19)
(1.22955 0.457004 3.49551e-19)
(1.21907 0.436008 -4.17916e-19)
(1.20959 0.415877 1.70605e-20)
(1.20119 0.39668 -1.01663e-19)
(1.19383 0.3783 1.89832e-19)
(1.18706 0.361065 1.69653e-19)
(1.17989 0.345751 1.61424e-19)
(0.172417 0.0754612 5.39956e-20)
(0.465968 0.211167 2.1294e-19)
(0.711619 0.33256 2.13012e-19)
(0.907078 0.430981 -1.35211e-19)
(1.05228 0.502977 1.24065e-20)
(1.15147 0.548694 3.4206e-19)
(1.21236 0.571296 6.16625e-19)
(1.24424 0.575766 -6.25763e-20)
(1.25622 0.5675 6.0734e-20)
(1.25591 0.551283 -1.88444e-19)
(1.24891 0.530769 -4.05454e-19)
(1.23887 0.50842 6.64427e-20)
(1.22793 0.485698 2.39604e-19)
(1.2172 0.463379 -4.92653e-20)
(1.20723 0.441826 -4.67168e-20)
(1.19824 0.4212 -1.7242e-19)
(1.19033 0.401559 -3.18497e-20)
(1.18348 0.38278 -6.95316e-20)
(1.17721 0.365228 -5.99856e-20)
(1.1705 0.349644 -1.57005e-19)
(0.174295 0.0802349 -1.87922e-19)
(0.468882 0.22271 -4.88526e-19)