/*--------------------------------*- C++ -*----------------------------------*\
  =========                 |
  \\      /  F ield         | OpenFOAM: The Open Source CFD Toolbox
   \\    /   O peration     | Website:  https://openfoam.org
    \\  /    A nd           | Version:  7
     \\/     M anipulation  |
\*---------------------------------------------------------------------------*/
FoamFile
{
    version     2.0;
    format      ascii;
    class       volVectorField;
    location    "45";
    object      U;
}
// * * * * * * * * * * * * * * * * * * * * * * * * * * * * * * * * * * * * * //

dimensions      [0 1 -1 0 0 0 0];

internalField   nonuniform List<vector> 
9950
(
(-0.00117942 0.000898911 -1.12277e-20)
(-0.00690409 0.00205742 2.12595e-21)
(-0.0175995 0.00273966 5.66814e-21)
(-0.0301173 0.00306814 -3.01419e-21)
(-0.0435198 0.00313439 1.66657e-21)
(-0.0568471 0.0030272 1.82792e-20)
(-0.0695131 0.0028261 -2.19543e-21)
(-0.0812589 0.00260327 -2.68054e-22)
(-0.0921582 0.00242236 -1.83043e-21)
(-0.102332 0.00232149 5.98614e-21)
(-0.00128019 0.00262156 3.084e-20)
(-0.0071079 0.00600985 3.54569e-21)
(-0.0178171 0.00801094 1.4032e-21)
(-0.0302898 0.00897916 2.81599e-20)
(-0.0435984 0.00917811 -4.71434e-20)
(-0.0567908 0.00886559 -1.53333e-20)
(-0.0692831 0.00827488 1.17507e-20)
(-0.0808157 0.00762067 1.37566e-21)
(-0.0914676 0.00709532 1.69301e-20)
(-0.101322 0.00681621 -2.80078e-20)
(-0.00147922 0.00431678 -3.91286e-20)
(-0.00751102 0.00990425 2.98217e-20)
(-0.0182478 0.013209 -2.00722e-20)
(-0.0306312 0.0148099 -5.7793e-20)
(-0.0437533 0.0151385 2.8287e-20)
(-0.0566767 0.0146182 -4.24691e-20)
(-0.0688225 0.0136336 -3.38711e-20)
(-0.0799281 0.0125415 5.95681e-21)
(-0.0900853 0.0116665 -3.21591e-21)
(-0.0992971 0.0112088 2.72183e-20)
(-0.00177332 0.00596716 5.42233e-20)
(-0.00810781 0.0137034 -8.02732e-20)
(-0.0188863 0.0182864 -5.66728e-21)
(-0.031137 0.0205082 9.1127e-21)
(-0.0439806 0.0209612 9.807e-21)
(-0.0565019 0.0202288 7.15088e-20)
(-0.0681284 0.018843 4.84116e-20)
(-0.0785922 0.0173017 4.68382e-20)
(-0.0880065 0.0160678 -5.43182e-21)
(-0.0962422 0.0154304 9.18165e-22)
(-0.00215788 0.00755638 -8.72628e-20)
(-0.00888996 0.0173719 6.04799e-20)
(-0.0197241 0.0231977 -6.7652e-20)
(-0.0317998 0.0260232 3.25822e-20)
(-0.0442744 0.0265931 4.6587e-20)
(-0.0562613 0.0256423 -7.17566e-20)
(-0.0671961 0.0238448 3.89674e-20)
(-0.076801 0.0218381 -1.44254e-19)
(-0.0852227 0.0202312 -8.07764e-20)
(-0.092134 0.0194114 7.6931e-21)
(-0.00262702 0.00906957 5.27686e-20)
(-0.00984673 0.0208769 4.98879e-20)
(-0.0207502 0.0278996 5.06864e-20)
(-0.0326094 0.0313064 -6.22077e-21)
(-0.0446257 0.0319829 5.08154e-20)
(-0.0559465 0.0308056 7.78196e-21)
(-0.066017 0.0285828 5.92137e-20)
(-0.0745419 0.0260888 8.26805e-20)
(-0.0817196 0.0240889 1.32212e-19)
(-0.0869344 0.0230811 -3.06773e-20)
(-0.0031738 0.0104937 -2.6657e-21)
(-0.0109651 0.0241882 -2.0272e-20)
(-0.0219508 0.0323519 5.44522e-20)
(-0.0335526 0.0363119 4.18952e-20)
(-0.0450217 0.0370818 1.40348e-22)
(-0.0555449 0.0356681 -1.14173e-19)
(-0.0645772 0.033003 -6.06e-20)
(-0.071795 0.0299938 1.59492e-20)
(-0.0774746 0.0275735 -7.10196e-21)
(-0.0805864 0.0263675 -2.00427e-19)
(-0.00379042 0.0118175 1.07135e-19)
(-0.01223 0.0272793 -1.34771e-19)
(-0.0233092 0.0365178 6.73678e-20)
(-0.0346122 0.0409968 -6.91594e-21)
(-0.045445 0.041844 9.25444e-20)
(-0.0550375 0.0401822 1.45261e-19)
(-0.0628547 0.037055 1.28059e-21)
(-0.068529 0.0334969 -1.60215e-22)
(-0.0724529 0.0306188 -1.8569e-19)
(-0.0730068 0.029197 2.5305e-19)
(-0.00446851 0.0130323 -9.97835e-20)
(-0.0136247 0.0301271 1.20627e-19)
(-0.0248057 0.0403643 -1.30158e-20)
(-0.0357669 0.0453215 6.90378e-20)
(-0.0458719 0.046227 -1.94545e-19)
(-0.054397 0.0443042 1.6014e-20)
(-0.0608168 0.040693 9.33091e-20)
(-0.0646968 0.0365468 -8.76696e-20)
(-0.0666024 0.0331605 2.68541e-19)
(-0.0640786 0.0314959 1.05007e-19)
(-0.00519938 0.0141311 -4.13349e-20)
(-0.0151309 0.0327127 -1.41944e-21)
(-0.0264177 0.043862 -1.54434e-21)
(-0.0369902 0.0492504 -1.71667e-19)
(-0.0462711 0.0501919 -3.09806e-20)
(-0.0535849 0.0479947 -1.55052e-19)
(-0.0584153 0.043877 -2.01372e-19)
(-0.0602296 0.0391003 4.22579e-20)
(-0.0598463 0.0351388 -7.59846e-20)
(-0.0536418 0.0331952 -1.75626e-19)
(-0.00597424 0.0151096 1.22289e-19)
(-0.016729 0.0350205 1.09623e-19)
(-0.0281191 0.0469858 1.58615e-19)
(-0.0382495 0.0527512 -2.01472e-19)
(-0.0466019 0.0537036 6.99579e-20)
(-0.0525487 0.0512196 -1.27823e-20)
(-0.0555819 0.0465744 1.53262e-20)
(-0.0550297 0.0411251 7.26371e-20)
(-0.0520727 0.0365011 1.94727e-19)
(-0.0414925 0.0342592 3.8944e-20)
(-0.00678441 0.0159652 -2.08114e-19)
(-0.0183983 0.0370389 5.49644e-22)
(-0.0298806 0.0497144 -6.53441e-20)
(-0.0395056 0.0557956 1.23028e-19)
(-0.0468118 0.0567312 2.23765e-20)
(-0.0512179 0.0539501 -7.04208e-21)
(-0.0522223 0.0487609 1.6323e-19)
(-0.048961 0.0426018 -1.44826e-19)
(-0.0431042 0.0371933 -1.27317e-19)
(-0.0274001 0.0347396 -2.23759e-19)
(-0.00762157 0.0166974 2.42289e-19)
(-0.0201173 0.0387598 -1.84146e-19)
(-0.0316687 0.05203 -2.73887e-19)
(-0.0407111 0.0583587 1.82787e-20)
(-0.0468348 0.0592474 -1.0388e-19)
(-0.0495006 0.056163 1.36454e-19)
(-0.0482104 0.0504224 -2.8507e-19)
(-0.0418475 0.0435274 -9.85614e-20)
(-0.0326416 0.0371346 -1.24426e-19)
(-0.0110784 0.0347133 1.70175e-19)
(-0.00847784 0.0173075 8.65082e-20)
(-0.0218632 0.0401778 2.2958e-19)
(-0.0334458 0.0539185 1.74872e-19)
(-0.0418095 0.0604191 7.63777e-20)
(-0.0465889 0.0612288 -7.62582e-20)
(-0.0472792 0.0578411 1.77974e-19)
(-0.0433812 0.0515572 4.38632e-19)
(-0.0334911 0.043934 1.86104e-19)
(-0.0202929 0.0363014 2.47532e-20)
(0.00800634 0.0341193 3.2617e-20)
(-0.00934594 0.0177979 -1.60961e-19)
(-0.0236125 0.0412906 -3.57119e-19)
(-0.0351696 0.0553685 -1.01617e-19)
(-0.0427338 0.0619582 1.07268e-19)
(-0.0459737 0.0626549 2.18618e-19)
(-0.0444056 0.0589717 1.02258e-19)
(-0.0375134 0.0521748 -3.90072e-19)
(-0.0236325 0.0438863 7.98745e-21)
(-0.0056956 0.0348269 3.51997e-19)
(0.0306587 0.0329317 1.50726e-19)
(-0.0102192 0.0181725 2.07323e-19)
(-0.0253403 0.042098 1.7953e-19)
(-0.0367923 0.0563718 -1.57887e-19)
(-0.0434055 0.0629603 -6.09604e-20)
(-0.0448681 0.0635082 -8.9232e-20)
(-0.0407001 0.0595456 -2.91667e-19)
(-0.0303257 0.0522901 4.60936e-19)
(-0.0118724 0.04342 -1.2799e-19)
(0.0115774 0.0328741 -2.79888e-19)
(0.0576308 0.0313751 1.53423e-19)
(-0.0110914 0.0184358 -4.58319e-19)
(-0.0270203 0.0426013 2.24241e-19)
(-0.0382597 0.0569224 2.11172e-19)
(-0.043733 0.0634129 6.21871e-20)
(-0.0431288 0.0637742 6.60234e-20)
(-0.0359499 0.0595565 -1.7889e-19)
(-0.0215067 0.0519292 -1.70437e-19)
(0.00227825 0.0425885 -5.73933e-20)
(0.0321882 0.0305334 1.53823e-19)
(0.0896844 0.0298746 -1.4804e-19)
(-0.011957 0.018593 3.73403e-19)
(-0.0286241 0.0428037 -2.3506e-20)
(-0.0395104 0.0570171 5.81918e-20)
(-0.0436099 0.0633067 -3.02639e-20)
(-0.0405874 0.0634424 1.38211e-19)
(-0.0298997 0.059003 -4.8765e-20)
(-0.0106901 0.0511295 -2.8541e-19)
(0.0193232 0.0415117 1.95341e-19)
(0.0569602 0.0279107 -6.60017e-21)
(0.127606 0.0289571 -4.4683e-19)
(-0.0128104 0.0186493 -9.73596e-20)
(-0.0301203 0.0427092 -9.06109e-20)
(-0.0404744 0.0566554 -1.58826e-19)
(-0.0429137 0.0626369 -9.06312e-20)
(-0.0370493 0.0625075 -1.76644e-19)
(-0.0222548 0.0578875 -1.73048e-19)
(0.00256079 0.0499258 2.15713e-19)
(0.039815 0.0403136 -3.19053e-19)
(0.0868272 0.0252023 1.26946e-19)
(0.172033 0.0292358 4.64748e-19)
(-0.0136458 0.0186096 -3.5083e-20)
(-0.0314737 0.0423223 -6.12299e-20)
(-0.0410712 0.0558395 1.73225e-19)
(-0.0415033 0.0614054 1.74157e-19)
(-0.0322911 0.0609727 -3.53867e-21)
(-0.012682 0.0562225 -5.32717e-20)
(0.0187366 0.048365 1.65451e-19)
(0.0643539 0.0391007 -4.8289e-20)
(0.122826 0.0227088 -8.17877e-20)
(0.223227 0.0313264 1.13905e-19)
(-0.0144569 0.0184784 1.45741e-19)
(-0.0326436 0.0416476 7.96898e-20)
(-0.0412089 0.0545772 -3.06231e-20)
(-0.0392162 0.0596215 -2.72529e-20)
(-0.0260583 0.0588535 1.16251e-19)
(-0.000807202 0.0540354 4.77214e-19)
(0.0383725 0.0465147 -1.55864e-19)
(0.0935676 0.0379595 5.44232e-20)
(0.166039 0.0208792 -2.00325e-19)
(0.280819 0.0357003 -5.68503e-19)
(-0.0152357 0.0182589 1.18062e-20)
(-0.0335813 0.0406898 -2.95446e-19)
(-0.0407817 0.0528818 -9.71905e-20)
(-0.0358669 0.0573048 -1.19709e-19)
(-0.0180626 0.0561836 -3.87788e-19)
(0.0137853 0.0513777 -5.70566e-20)
(0.0620365 0.0444728 1.14324e-19)
(0.128098 0.0369533 -3.25119e-19)
(0.217443 0.0203908 1.99393e-19)
(0.343532 0.0426368 1.57111e-19)
(-0.0159732 0.0179534 2.85168e-19)
(-0.034232 0.039457 5.29913e-20)
(-0.0396643 0.0507684 -8.10363e-22)
(-0.0312449 0.0544881 9.42134e-20)
(-0.0079812 0.0530191 3.5643e-19)
(0.0315514 0.0483345 9.46386e-20)
(0.0903117 0.0423784 -1.13212e-19)
(0.168618 0.0361287 4.47619e-20)
(0.277657 0.0222288 1.60931e-19)
(0.408951 0.0523263 -1.82622e-19)
(-0.016656 0.017563 -1.42212e-19)
(-0.0345319 0.0379558 9.58648e-20)
(-0.0377147 0.0482581 1.06612e-19)
(-0.0251111 0.0512205 -2.51929e-19)
(0.00454238 0.0494437 -1.20292e-19)
(0.0529804 0.045034 -1.87153e-19)
(0.123765 0.0404122 -1.47027e-19)
(0.215865 0.035564 -1.38742e-19)
(0.346718 0.0275886 3.82233e-19)
(0.474227 0.0640577 5.13068e-19)
(-0.017265 0.0170846 -1.53456e-19)
(-0.0344036 0.0361917 -7.09303e-20)
(-0.0347735 0.0453824 3.09658e-20)
(-0.0172006 0.0475678 1.15043e-20)
(0.0198938 0.0455716 2.19959e-19)
(0.078578 0.0416528 2.41982e-19)
(0.162892 0.038789 2.77803e-19)
(0.270531 0.0355132 7.51736e-20)
(0.423734 0.0371819 -5.83549e-19)
(0.539519 0.0729194 -4.05328e-20)
(-0.0177757 0.0165155 4.81574e-19)
(-0.0337559 0.0341723 8.59777e-20)
(-0.030661 0.042179 -7.59876e-20)
(-0.00722375 0.0436134 -1.15343e-21)
(0.038479 0.041549 -2.51227e-19)
(0.10884 0.038419 1.96942e-19)
(0.208064 0.0377629 -2.47612e-19)
(0.332875 0.0365744 -3.96557e-20)
(0.505698 0.0496619 5.25408e-19)
(0.612224 0.0708162 6.37102e-20)
(-0.0181606 0.0158526 -5.40012e-19)
(-0.0324833 0.0319045 -1.18156e-19)
(-0.0251774 0.0386931 2.56419e-19)
(0.00512891 0.039459 -5.50853e-20)
(0.060711 0.0375539 1.54202e-19)
(0.144221 0.0356107 -2.61746e-19)
(0.259523 0.0376525 1.79425e-19)
(0.402447 0.0395716 2.08248e-19)
(0.587506 0.0606209 -4.54544e-19)
(0.713418 0.0684015 -1.20403e-19)
(-0.0183853 0.0150901 5.34184e-20)
(-0.0304678 0.0293974 -1.12627e-19)
(-0.0181063 0.0349787 -2.40422e-19)
(0.0201794 0.0352239 1.17695e-19)
(0.0869908 0.0337924 1.30158e-19)
(0.185084 0.033542 -5.3743e-20)
(0.317315 0.0388188 1.08336e-19)
(0.478011 0.0450416 -1.14201e-19)
(0.670671 0.0710945 -1.19301e-19)
(0.812609 0.0779037 1.95757e-19)
(-0.0184077 0.0142209 8.32254e-20)
(-0.0275792 0.0266644 -1.03298e-19)
(-0.00921858 0.0310994 1.85098e-19)
(0.0382512 0.0310445 -1.1007e-19)
(0.117683 0.0304941 -5.64642e-19)
(0.231653 0.0325454 3.74019e-20)
(0.38118 0.0416344 -5.82813e-20)
(0.557838 0.0530771 5.86782e-19)
(0.754243 0.0824915 -1.71677e-19)
(0.902889 0.0917272 -5.89985e-19)
(-0.0181791 0.0132392 -4.18003e-20)
(-0.0236756 0.0237237 1.73414e-19)
(0.00172253 0.0271296 4.79165e-20)
(0.0596563 0.027074 3.26945e-19)
(0.153086 0.0279068 2.6609e-19)
(0.28395 0.0329511 -4.34909e-19)
(0.450436 0.0464222 1.46646e-19)
(0.639922 0.063452 -4.48945e-19)
(0.83573 0.0951235 2.92911e-19)
(0.983674 0.106799 5.68306e-19)
(-0.017645 0.012141 6.38207e-20)
(-0.0186056 0.0206005 -4.05259e-19)
(0.0149551 0.0231564 -1.35519e-19)
(0.0846792 0.023482 -1.30168e-19)
(0.193398 0.0262906 -1.3748e-19)
(0.341746 0.0350647 5.87246e-19)
(0.523939 0.0533904 -1.43825e-19)
(0.722059 0.0757958 -6.22351e-20)
(0.912734 0.108753 5.27746e-20)
(1.05358 0.122086 -1.19248e-19)
(-0.0167455 0.0109256 -2.36077e-19)
(-0.0122119 0.01733 4.04969e-19)
(0.0307108 0.0192819 -1.00029e-19)
(0.11356 0.0204548 1.24407e-19)
(0.238678 0.0259107 1.98221e-19)
(0.404516 0.0391395 -2.47002e-19)
(0.600146 0.0625816 -3.0824e-19)
(0.802045 0.0896693 2.69887e-19)
(0.983316 0.122959 -2.77844e-19)
(1.11249 0.136896 -4.2939e-19)
(-0.0154164 0.00959681 -8.79119e-20)
(-0.00433456 0.0139595 -3.41037e-19)
(0.0492063 0.0156253 2.98705e-19)
(0.146475 0.0181951 -1.89293e-20)
(0.288819 0.0270281 7.83312e-20)
(0.471418 0.0453469 8.22504e-20)
(0.677254 0.07386 2.57597e-19)
(0.87791 0.104605 -1.38373e-19)
(1.04623 0.137305 3.05956e-19)
(1.1609 0.150852 -6.26794e-20)
(-0.0135904 0.00816413 2.34765e-19)
(0.00518484 0.0105509 3.27815e-19)
(0.0706337 0.0123247 -2.01665e-19)
(0.183519 0.0169204 -5.30141e-20)
(0.343511 0.0298851 -6.32228e-20)
(0.541318 0.0537504 1.47478e-19)
(0.753393 0.0869429 -8.30107e-20)
(0.948099 0.120154 4.36801e-21)
(1.10089 0.15143 7.24446e-20)
(1.19976 0.163782 2.06885e-19)
(-0.0111983 0.00664378 1.98026e-19)
(0.0164982 0.00718222 -1.76063e-19)
(0.0951495 0.00953745 2.20551e-19)
(0.224682 0.0168582 -2.06305e-19)
(0.402225 0.0346848 -4.126e-19)
(0.612863 0.0642928 -1.0419e-19)
(0.826823 0.101461 2.43887e-19)
(1.01156 0.135925 -1.61131e-19)
(1.14728 0.165075 -1.423e-19)
(1.23024 0.17566 1.24502e-19)
(-0.00817086 0.00505955 2.16152e-19)
(0.0297456 0.00394914 -1.1331e-19)
(0.122864 0.00743976 5.90086e-20)
(0.269832 0.0182388 8.99545e-20)
(0.46422 0.0415687 1.78323e-19)
(0.684588 0.0768057 -5.82149e-20)
(0.896085 0.11702 -1.93009e-20)
(1.06774 0.151607 3.33939e-19)
(1.18581 0.178085 -1.2243e-19)
(1.25356 0.186543 -1.31044e-19)
(-0.00444011 0.00344326 -4.70119e-20)
(0.0450496 0.000965014 2.15457e-21)
(0.15383 0.00622399 1.83997e-19)
(0.318699 0.0212825 -8.34963e-20)
(0.528564 0.0505974 -2.2118e-19)
(0.755049 0.0910374 5.59721e-20)
(0.960088 0.133252 -4.90406e-19)
(1.1165 0.166976 -2.10888e-19)
(1.21711 0.19039 1.23155e-21)
(1.2709 0.196545 -3.78179e-20)
(5.84713e-05 0.00183506 -3.0583e-19)
(0.0625088 -0.00163977 9.63014e-20)
(0.188028 0.00609439 -4.40007e-19)
(0.37087 0.0261847 3.47412e-20)
(0.594192 0.0617425 1.80574e-19)
(0.822941 0.106692 -3.79814e-20)
(1.01813 0.149842 4.05237e-19)
(1.15804 0.181884 3.66482e-19)
(1.24198 0.201985 1.09374e-19)
(1.28333 0.205801 -1.87433e-19)
(0.00538411 0.0002833 1.14187e-19)
(0.0821916 -0.00371937 1.80986e-19)
(0.225362 0.00726062 2.50043e-19)
(0.425787 0.0330989 1.24141e-19)
(0.659981 0.0748936 -1.13938e-19)
(0.887175 0.123466 -3.06676e-20)
(1.06984 0.166539 5.98231e-20)
(1.19279 0.196251 -1.00147e-19)
(1.26126 0.212915 7.28751e-20)
(1.2918 0.214454 1.74187e-19)
(0.0115885 -0.00115576 1.25689e-19)
(0.10413 -0.00511509 4.67462e-20)
(0.265644 0.00992921 9.03718e-20)
(0.482769 0.0421223 -4.73771e-20)
(0.724828 0.0898766 -4.22923e-20)
(0.946929 0.141075 2.24962e-19)
(1.11517 0.183155 -2.13199e-19)
(1.22132 0.210049 -8.51768e-20)
(1.27576 0.22325 1.01531e-20)
(1.29709 0.222639 8.0929e-20)
(0.0187133 -0.00241864 -8.8185e-20)
(0.128313 -0.00565885 3.30743e-20)
(0.308597 0.0142933 4.1918e-20)
(0.541041 0.053288 -8.88318e-20)
(0.787719 0.106478 2.91609e-19)
(1.00164 0.159268 -2.37092e-19)
(1.15427 0.19956 3.7056e-20)
(1.24426 0.223288 -7.21787e-20)
(1.28622 0.233077 -7.30094e-20)
(1.29984 0.230478 9.78711e-20)
(0.0267885 -0.00343554 -7.82991e-20)
(0.154684 -0.00517759 -1.06527e-19)
(0.353851 0.0205218 2.88439e-20)
(0.599778 0.0665654 1.97254e-19)
(0.847781 0.12447 -2.05114e-19)
(1.05099 0.177835 1.28174e-19)
(1.18744 0.21567 4.95462e-20)
(1.26227 0.236004 7.55874e-20)
(1.29332 0.242487 -2.36628e-19)
(1.30059 0.238076 -7.14118e-12)
(0.0358295 -0.00413158 -1.2911e-20)
(0.183134 -0.00349841 3.97892e-20)
(0.400956 0.0287485 -1.20749e-19)
(0.658149 0.0818679 -1.63046e-19)
(0.904312 0.143623 1.87269e-19)
(1.09487 0.196606 -2.23514e-19)
(1.21511 0.23144 8.41525e-21)
(1.27596 0.24825 3.49038e-20)
(1.29762 0.25157 1.80418e-19)
(1.29972 0.245517 -1.67665e-12)
(0.0458356 -0.00442819 -8.54196e-21)
(0.213502 -0.000454524 4.2786e-20)
(0.449389 0.0390646 -9.65484e-20)
(0.715356 0.099065 1.3691e-19)
(0.956784 0.163724 4.93923e-21)
(1.13331 0.215448 1.11405e-19)
(1.23774 0.246853 -1.05008e-19)
(1.28593 0.260087 1.10447e-21)
(1.29962 0.260406 -1.00273e-19)
(1.29755 0.252867 -3.49279e-20)
(0.0567885 -0.00424485 1.01527e-20)
(0.245573 0.00410846 -3.23661e-20)
(0.498583 0.0515135 -1.34787e-20)
(0.770674 0.117996 -3.2894e-20)
(1.00484 0.184576 -1.01877e-19)
(1.16649 0.234258 -8.55454e-21)
(1.25579 0.261911 1.10067e-19)
(1.29269 0.271576 -7.25166e-20)
(1.29969 0.269062 1.04468e-19)
(1.29431 0.260171 -8.49241e-20)
(0.0686505 -0.00350095 -4.27575e-20)
(0.279083 0.0103261 -8.04168e-20)
(0.54794 0.0660906 1.29137e-19)
(0.823468 0.138483 -9.51483e-21)
(1.04825 0.206005 -3.09285e-21)
(1.19464 0.25296 4.95904e-20)
(1.26973 0.276629 -3.30983e-20)
(1.29669 0.282776 1.11133e-19)
(1.29816 0.277596 -1.36936e-20)
(1.29017 0.267463 7.6939e-20)
(0.0813646 -0.00211787 1.07663e-20)
(0.313724 0.0183091 1.56256e-20)
(0.596861 0.0827458 -3.77109e-20)
(0.87321 0.160337 -8.79215e-20)
(1.08693 0.227854 -2.32773e-20)
(1.21807 0.271497 -2.00188e-20)
(1.28001 0.291028 3.54678e-20)
(1.29832 0.293738 -5.2577e-20)
(1.29528 0.286049 1.97207e-20)
(1.28524 0.274757 -1.28162e-20)
(0.0948538 -2.12715e-05 6.29376e-21)
(0.349148 0.0281381 6.98972e-20)
(0.644765 0.101389 3.7735e-20)
(0.919478 0.183368 3.40025e-20)
(1.1209 0.249987 -8.86368e-21)
(1.23708 0.289826 -2.56466e-20)
(1.28703 0.305131 -4.26597e-20)
(1.2979 0.304503 -9.84386e-21)
(1.29122 0.294449 -5.25426e-20)
(1.27961 0.282058 -1.56404e-20)
(0.109022 0.00285659 -3.50963e-20)
(0.384981 0.0398603 -1.80265e-20)
(0.691104 0.121895 -3.50825e-20)
(0.961954 0.20739 5.29127e-21)
(1.15021 0.272281 6.26754e-20)
(1.25201 0.307914 3.05401e-20)
(1.29114 0.318959 -2.10904e-20)
(1.2957 0.315103 -3.64468e-21)
(1.28614 0.302813 1.80454e-20)
(1.27333 0.28936 1.01923e-20)
(0.123754 0.00657452 2.4725e-20)
(0.420827 0.0534866 -5.67043e-21)
(0.735381 0.144113 2.14511e-20)
(1.00042 0.232216 8.18926e-21)
(1.17502 0.294626 -1.26261e-20)
(1.26317 0.325734 -2.03172e-20)
(1.29267 0.332528 4.23578e-21)
(1.29194 0.325558 1.50218e-21)
(1.28014 0.311143 2.19576e-20)
(1.26644 0.296648 -2.92651e-21)
(0.138921 0.0111802 2.28174e-20)
(0.456287 0.0689917 -5.60173e-21)
(0.777159 0.167868 2.26272e-20)
(1.03472 0.257668 6.58282e-21)
(1.19549 0.316921 -1.31961e-20)
(1.27086 0.343261 -1.93859e-20)
(1.29189 0.345848 5.48316e-21)
(1.28679 0.335877 -3.26535e-22)
(1.2733 0.319432 2.08884e-20)
(1.25897 0.3039 -1.84779e-21)
(0.154378 0.0167081 -5.79089e-20)
(0.490962 0.0863146 -1.6183e-20)
(0.816063 0.192972 -3.21435e-20)
(1.06479 0.283572 -9.42876e-22)
(1.21181 0.339075 6.87203e-20)
(1.27539 0.360472 1.26369e-20)
(1.28904 0.358921 -6.32984e-21)
(1.28037 0.346057 -1.36985e-21)
(1.26566 0.327663 6.51273e-21)
(1.25094 0.311087 1.29323e-20)
(0.169969 0.0231782 5.41918e-21)
(0.524467 0.105361 8.04165e-20)
(0.851782 0.219222 3.88808e-20)
(1.09063 0.309759 2.83674e-20)
(1.22419 0.360999 -6.06347e-21)
(1.27699 0.377339 -1.5011e-20)
(1.2843 0.37174 -4.92604e-20)
(1.27281 0.356087 2.95525e-21)
(1.25727 0.335812 -3.41937e-20)
(1.24233 0.31818 -7.18762e-21)
(0.18553 0.030594 -1.79442e-20)
(0.556437 0.126004 6.10338e-20)
(0.884068 0.246407 -4.81968e-20)
(1.11225 0.336066 -1.07435e-19)
(1.23285 0.382609 1.96709e-20)
(1.2759 0.393831 -4.41235e-20)
(1.27784 0.38429 2.94608e-20)
(1.26418 0.365945 -3.08425e-20)
(1.24815 0.343845 1.09235e-20)
(1.23318 0.325141 -6.97901e-22)
(0.200893 0.0389428 2.95281e-20)
(0.586537 0.148093 -1.61205e-19)
(0.912735 0.274314 1.30717e-19)
(1.12973 0.362331 6.19922e-20)
(1.238 0.403823 -6.43478e-20)
(1.27235 0.409914 8.07787e-20)
(1.26981 0.396547 -3.1641e-20)
(1.25453 0.375603 9.21262e-20)
(1.23833 0.351725 -1.33057e-20)
(1.22348 0.331933 1.69604e-20)
(0.215888 0.0481949 8.73568e-20)
(0.614463 0.17145 -1.03143e-19)
(0.937652 0.302722 -9.31665e-20)
(1.14317 0.3884 1.58755e-20)
(1.23983 0.424558 -6.48677e-20)
(1.26651 0.425548 -3.06665e-20)
(1.26032 0.408479 9.50909e-20)
(1.24393 0.385022 -5.04954e-20)
(1.2278 0.359403 4.48627e-20)
(1.21324 0.338511 -2.11985e-20)
(0.230348 0.0583042 4.68271e-20)
(0.639953 0.195881 1.10929e-19)
(0.958735 0.331414 -1.60887e-19)
(1.15269 0.414121 1.11462e-19)
(1.23856 0.444734 6.4514e-21)
(1.25855 0.440688 1.1085e-19)
(1.24947 0.420049 -7.12169e-20)
(1.2324 0.394159 -2.33404e-20)
(1.21659 0.366829 -3.90155e-20)
(1.20246 0.344825 6.0494e-21)
(0.244112 0.0692084 1.69851e-19)
(0.66278 0.221173 -8.03142e-20)
(0.97595 0.360171 -6.56708e-20)
(1.15844 0.439347 -2.05044e-19)
(1.23437 0.464268 1.28652e-19)
(1.24862 0.455284 -1.33774e-19)
(1.23733 0.431213 3.75533e-21)
(1.21999 0.40297 -1.20009e-20)
(1.20468 0.373955 6.07525e-20)
(1.19104 0.350829 1.05605e-22)
(0.257025 0.0808309 -1.85551e-19)
(0.682761 0.247105 -1.62122e-19)
(0.989299 0.388778 3.3798e-20)
(1.16055 0.463933 1.94169e-19)
(1.22745 0.483077 -1.94737e-19)
(1.23687 0.469282 1.07293e-19)
(1.22399 0.441922 8.79745e-20)
(1.20672 0.411409 5.94652e-21)
(1.19209 0.380765 -6.24099e-20)
(1.17888 0.356509 5.6023e-21)
(0.268943 0.0930814 8.53417e-20)
(0.699751 0.273444 5.96521e-21)
(0.998821 0.417022 5.71146e-20)
(1.1592 0.487739 -7.97131e-20)
(1.21796 0.501077 1.65573e-19)
(1.22341 0.482622 -1.16945e-19)
(1.2095 0.452119 5.54697e-22)
(1.19263 0.419421 -2.14483e-21)
(1.17886 0.387261 -1.45444e-20)
(1.16605 0.361873 7.73407e-21)
(0.279738 0.105858 6.12269e-20)
(0.71365 0.299955 6.82658e-20)
(1.00458 0.444695 2.04263e-19)
(1.15455 0.51063 -6.97291e-20)
(1.20608 0.518186 -7.10815e-20)
(1.20836 0.495243 1.60321e-19)
(1.19393 0.461746 -7.84136e-20)
(1.17773 0.426938 -2.12205e-20)
(1.16497 0.393393 1.62038e-20)
(1.1528 0.366788 3.2745e-21)
(0.289294 0.119049 9.97279e-20)
(0.724392 0.326401 2.47784e-19)
(1.00668 0.471596 9.5494e-20)
(1.14678 0.532474 1.37104e-19)
(1.19197 0.534318 -1.46783e-20)
(1.19181 0.50708 1.76545e-20)
(1.17734 0.470743 -8.43897e-21)
(1.16208 0.43391 -1.96571e-21)
(1.15042 0.399048 7.71299e-21)
(1.13918 0.371283 -3.67635e-20)
(0.297512 0.132534 -2.99237e-19)
(0.731951 0.352547 4.96529e-21)
(1.00522 0.49753 -4.25451e-19)
(1.13605 0.553144 3.82658e-20)
(1.17578 0.549392 8.02249e-20)
(1.17388 0.518065 1.37485e-20)
(1.15978 0.479044 6.97031e-20)
(1.14572 0.440297 3.31528e-20)
(1.13521 0.404161 -1.20919e-20)
(1.12513 0.375268 1.71505e-20)
(0.304311 0.146187 -6.85878e-20)
(0.736332 0.378161 2.1554e-20)
(1.00035 0.52231 3.88955e-20)
(1.12255 0.572517 3.39034e-20)
(1.15766 0.563323 -9.47855e-20)
(1.15466 0.528128 -4.44438e-20)
(1.14133 0.486585 -5.97348e-20)
(1.12866 0.44604 8.04847e-21)
(1.11941 0.40869 -2.47421e-20)
(1.11063 0.378693 2.62126e-20)
(0.309628 0.159876 1.97891e-19)
(0.737571 0.40302 -3.18155e-19)
(0.99221 0.545758 1.30538e-19)
(1.10647 0.590479 4.9158e-20)
(1.13775 0.576027 1.26715e-19)
(1.13424 0.5372 -3.78379e-20)
(1.12203 0.493302 2.00119e-20)
(1.11092 0.451082 -2.96783e-20)
(1.10307 0.412588 2.52785e-21)
(1.0957 0.381507 6.772e-20)
(0.31342 0.173469 1.46478e-19)
(0.735734 0.426907 -1.29519e-19)
(0.98098 0.567706 8.85346e-20)
(1.08798 0.606919 -1.24357e-19)
(1.11619 0.587426 -1.30294e-19)
(1.11273 0.545209 -7.34515e-21)
(1.10194 0.499133 2.46868e-21)
(1.09257 0.455367 2.69454e-20)
(1.0862 0.415806 8.30491e-20)
(1.08036 0.383671 -1.17345e-19)
(0.315659 0.186834 1.51619e-19)
(0.730913 0.449617 4.22315e-19)
(0.966851 0.588004 -1.53794e-19)
(1.06725 0.621728 -9.79426e-20)
(1.09312 0.597443 3.78969e-20)
(1.09021 0.552086 1.98686e-21)
(1.08113 0.504016 3.15646e-20)
(1.07364 0.458841 -2.02111e-20)
(1.06884 0.418299 -8.18653e-21)
(1.06465 0.385143 -1.26693e-19)
(0.316337 0.199837 -1.02832e-19)
(0.723234 0.470948 -2.78294e-19)
(0.950027 0.60652 1.00628e-19)
(1.04443 0.634796 6.48135e-20)
(1.06869 0.606 3.659e-20)
(1.06677 0.557766 -1.61497e-20)
(1.05966 0.507893 -1.03578e-19)
(1.05419 0.461457 1.17499e-19)
(1.05104 0.420019 -1.42982e-19)
(1.04863 0.385884 -7.92503e-20)
(0.315468 0.212351 -2.43067e-19)
(0.712853 0.490717 3.28118e-19)
(0.930649 0.623106 -1.23367e-19)
(1.01972 0.646051 5.92423e-20)
(1.04304 0.613015 9.3579e-21)
(1.04251 0.562189 6.85279e-20)
(1.0376 0.510706 6.26112e-21)
(1.03428 0.463165 -1.31879e-19)
(1.03285 0.420923 1.8516e-19)
(1.03234 0.385848 3.99892e-19)
(0.313091 0.224252 1.80608e-20)
(0.699952 0.508797 -1.86077e-19)
(0.908797 0.637564 -8.42639e-20)
(0.993356 0.655424 -2.0986e-20)
(1.01631 0.618429 -1.2428e-20)
(1.01753 0.565293 -1.4905e-19)
(1.01502 0.512405 9.19714e-20)
(1.01397 0.463922 -8.4009e-20)
(1.01432 0.420962 -1.60799e-20)
(1.01585 0.384974 1.28945e-19)
(0.309263 0.235402 -7.33915e-20)
(0.68468 0.525097 1.49369e-19)
(0.884676 0.649788 1.25902e-20)
(0.965541 0.662788 1.57714e-21)
(0.988632 0.622197 -1.14187e-19)
(0.991924 0.567027 1.6919e-19)
(0.992009 0.512941 1.87199e-20)
(0.993309 0.463688 2.08596e-19)
(0.995494 0.420083 -1.78995e-19)
(0.999204 0.38319 -4.98681e-19)
(0.304022 0.245637 2.12154e-20)
(0.667093 0.539411 -3.69209e-20)
(0.858688 0.659829 -1.06358e-21)
(0.936461 0.668055 1.68903e-20)
(0.960149 0.624262 1.70703e-19)
(0.9658 0.567344 -8.98412e-20)
(0.968635 0.512271 9.0756e-20)
(0.972358 0.462425 -3.95858e-19)
(0.976426 0.418242 1.15438e-19)
(0.98254 0.380435 5.53294e-19)
(0.297375 0.254823 8.13066e-21)
(0.647364 0.551518 -4.07316e-20)
(0.831088 0.667579 1.46448e-20)
(0.906276 0.671219 -5.90034e-20)
(0.930995 0.624578 -2.04986e-20)
(0.939256 0.566199 7.05313e-20)
(0.944971 0.510356 -1.55648e-19)
(0.951152 0.46009 1.58706e-19)
(0.957222 0.415394 1.03405e-19)
(0.966273 0.376718 -1.92397e-19)
(0.289456 0.262861 -2.52231e-20)
(0.625756 0.561302 5.86649e-21)
(0.802017 0.672923 -3.99399e-21)
(0.875159 0.672239 -1.23882e-20)
(0.901306 0.623105 -1.13366e-19)
(0.912392 0.563558 1.81896e-19)
(0.921078 0.507161 -7.02116e-20)
(0.929728 0.456625 -1.66651e-19)
(0.938103 0.41145 4.00821e-19)
(0.9509 0.372134 2.88933e-19)
(0.280406 0.269753 -2.18066e-20)
(0.602476 0.5687 -4.79836e-20)
(0.771689 0.67577 4.33041e-21)
(0.843294 0.671078 2.44293e-20)
(0.87122 0.619815 1.34465e-19)
(0.885308 0.559394 -6.34267e-20)
(0.897013 0.502667 2.12527e-19)
(0.908172 0.451994 1.48391e-19)
(0.919346 0.40627 -7.25317e-19)
(0.936097 0.366425 -4.30941e-20)
(0.270281 0.275395 1.90182e-21)
(0.57776 0.573654 8.91941e-20)
(0.740323 0.676068 -3.67507e-20)
(0.810862 0.667707 -6.3803e-20)
(0.840876 0.614684 -1.87374e-19)
(0.858106 0.55369 -2.56484e-19)
(0.872861 0.496869 -1.9968e-19)
(0.886644 0.446241 -1.67143e-19)
(0.901119 0.400007 7.42538e-19)
(0.920051 0.357164 1.04431e-19)
(0.259181 0.279706 9.58942e-20)
(0.551834 0.576107 -1.71772e-20)
(0.708141 0.673786 -8.90257e-20)
(0.778043 0.662104 1.83668e-19)
(0.810411 0.607697 2.30276e-19)
(0.830892 0.546431 1.45032e-19)
(0.848739 0.489747 1.19863e-19)
(0.865312 0.439372 2.70696e-19)
(0.88282 0.393537 -5.59088e-19)
(0.902248 0.351722 -9.52145e-19)
(0.247226 0.282623 -1.37282e-19)
(0.524919 0.576013 -1.55406e-19)
(0.675362 0.668908 2.08781e-20)
(0.745018 0.654261 -1.40606e-19)
(0.779962 0.598847 -4.06109e-19)
(0.803774 0.537606 -7.06372e-20)
(0.824758 0.48128 2.89674e-19)
(0.8442 0.431298 -4.09918e-19)
(0.864423 0.385815 -9.43449e-20)
(0.884723 0.344224 2.92073e-19)
(0.234541 0.284097 1.38739e-19)
(0.497234 0.57334 2.11256e-19)
(0.642203 0.66143 1.96654e-19)
(0.711963 0.64418 1.18024e-19)
(0.749666 0.588135 4.48616e-19)
(0.776866 0.527212 2.01281e-19)
(0.80101 0.47147 -7.93834e-20)
(0.82333 0.422073 2.29419e-19)
(0.84607 0.377193 -2.01164e-19)
(0.867578 0.336358 -2.80557e-19)
(0.221255 0.284089 -4.0263e-21)
(0.469 0.568074 -6.15628e-20)
(0.608878 0.651362 7.37708e-20)
(0.679053 0.631874 2.53621e-20)
(0.719658 0.575569 -2.71385e-19)
(0.750276 0.515255 -5.56047e-19)
(0.777584 0.46032 -2.42512e-20)
(0.802755 0.41169 -1.53404e-19)
(0.827887 0.367584 5.13123e-19)
(0.850823 0.327691 9.26526e-19)
(0.2075 0.282572 6.37829e-20)
(0.440436 0.560215 -6.33566e-20)
(0.575599 0.638724 -1.88754e-19)
(0.646458 0.617366 -1.90281e-19)
(0.690072 0.561167 -2.34278e-19)
(0.724116 0.501746 2.92336e-19)
(0.754569 0.447841 -2.49216e-19)
(0.782548 0.400167 -1.22977e-19)
(0.809998 0.357025 1.01651e-19)
(0.83451 0.318227 -1.93903e-19)
(0.193409 0.279533 2.10468e-19)
(0.41176 0.549781 9.415e-20)
(0.54257 0.623553 1.98321e-19)
(0.614345 0.600688 3.18069e-19)
(0.66104 0.544954 4.48529e-19)
(0.698492 0.486705 -1.65664e-20)
(0.732053 0.434049 -4.31466e-19)
(0.762785 0.38752 5.23048e-19)
(0.792495 0.345519 5.00393e-20)
(0.818675 0.307934 -9.66649e-19)
(0.179115 0.274968 -7.25518e-19)
(0.383185 0.536804 5.17476e-20)
(0.509991 0.605895 -1.41447e-19)
(0.582877 0.581883 1.01667e-19)
(0.632689 0.526965 -1.8029e-19)
(0.673511 0.47016 4.91294e-20)
(0.710125 0.418968 5.05564e-19)
(0.743546 0.373769 -2.71751e-19)
(0.775458 0.333077 1.36299e-19)
(0.80336 0.296808 7.21182e-19)
(0.164751 0.268887 1.02211e-18)
(0.354918 0.521329 -6.566e-19)
(0.478057 0.585808 -2.26726e-19)
(0.55221 0.561005 -3.46766e-19)
(0.605147 0.507242 1.00325e-19)
(0.649277 0.452143 2.9406e-19)
(0.68887 0.402625 4.7883e-19)
(0.724906 0.358939 -1.43595e-19)
(0.758959 0.319713 -3.68043e-19)
(0.788607 0.284856 6.01911e-19)
(0.150447 0.261309 -3.52579e-19)
(0.327162 0.503418 -1.83533e-19)
(0.446956 0.563362 2.50683e-19)
(0.522497 0.538115 1.61471e-19)
(0.578534 0.485834 1.49669e-19)
(0.625889 0.432697 6.76001e-19)
(0.668374 0.385057 -9.76846e-19)
(0.706941 0.343059 2.98622e-19)
(0.743064 0.305446 7.81929e-19)
(0.774461 0.272092 -6.16907e-19)
(0.136332 0.252266 3.98658e-19)
(0.300113 0.483146 1.10992e-18)
(0.416866 0.538641 1.20603e-19)
(0.493883 0.513285 -5.41859e-19)
(0.552967 0.462802 -5.40216e-19)
(0.603445 0.411869 -8.96646e-20)
(0.648719 0.366303 7.44427e-19)
(0.689721 0.326164 -6.35548e-20)
(0.727835 0.290302 -5.78236e-19)
(0.760963 0.258543 -4.40459e-19)
(0.12253 0.241799 2.61793e-20)
(0.273958 0.4606 -8.35727e-19)
(0.38796 0.511735 -4.99916e-19)
(0.466509 0.486594 1.27185e-19)
(0.528559 0.438209 4.55434e-20)
(0.582038 0.389714 -5.67373e-19)
(0.629985 0.346409 -1.0289e-18)
(0.673315 0.30829 -6.75304e-19)
(0.713331 0.274311 2.89713e-19)
(0.748153 0.244238 -2.26035e-19)
(0.109161 0.229958 -3.82634e-19)
(0.248875 0.43588 5.00605e-19)
(0.360401 0.482748 3.54436e-19)
(0.440505 0.458133 2.3467e-19)
(0.505418 0.412129 4.04203e-19)
(0.561759 0.366293 -5.82383e-19)
(0.612248 0.325429 9.62852e-19)
(0.657788 0.289483 1.77617e-19)
(0.699608 0.257508 2.82657e-19)
(0.736073 0.229212 -4.03048e-19)
(0.0963419 0.216805 7.11354e-19)
(0.225035 0.409098 -4.00042e-20)
(0.334343 0.451793 5.69149e-19)
(0.415998 0.427997 -4.1667e-19)
(0.483644 0.384643 -2.61132e-19)
(0.542693 0.341672 4.67779e-20)