/*--------------------------------*- C++ -*----------------------------------*\
  =========                 |
  \\      /  F ield         | OpenFOAM: The Open Source CFD Toolbox
   \\    /   O peration     | Website:  https://openfoam.org
    \\  /    A nd           | Version:  7
     \\/     M anipulation  |
\*---------------------------------------------------------------------------*/
FoamFile
{
    version     2.0;
    format      ascii;
    class       surfaceScalarField;
    location    "50";
    object      phi;
}
// * * * * * * * * * * * * * * * * * * * * * * * * * * * * * * * * * * * * * //

dimensions      [0 3 -1 0 0 0 0];

internalField   nonuniform List<scalar> 
16608
(
1.85905e-05
4.61449e-07
1.8129e-05
4.0757e-05
5.61811e-07
1.75672e-05
3.12281e-06
3.8196e-05
4.5152e-05
6.72621e-07
1.68946e-05
3.60825e-06
3.52604e-05
3.89639e-05
7.94357e-07
1.61002e-05
4.13577e-06
3.1919e-05
1.10669e-05
3.20328e-05
1.54581e-05
9.27421e-07
1.51728e-05
4.70652e-06
2.81399e-05
1.24322e-05
2.43071e-05
2.52645e-05
2.62573e-06
-3.81008e-05
1.07213e-06
1.41007e-05
5.3213e-06
2.38907e-05
1.38933e-05
1.57351e-05
2.80005e-05
-1.14815e-05
4.89267e-05
-5.90269e-05
-0.000128293
1.22872e-06
1.28719e-05
5.98053e-06
1.91389e-05
1.545e-05
6.26564e-06
3.08986e-05
-2.69302e-05
5.36532e-05
-8.17815e-05
8.50797e-05
-0.000159719
-0.000262183
1.39733e-06
1.14746e-05
6.68424e-06
1.3852e-05
1.71012e-05
-4.15134e-06
3.39547e-05
-4.37836e-05
5.86069e-05
-0.000106434
9.24381e-05
-0.000193551
0.000136775
-0.00030652
-0.000446439
1.57803e-06
9.89658e-06
7.43205e-06
7.99798e-06
1.88449e-05
-1.55642e-05
3.71624e-05
-6.21011e-05
6.37731e-05
-0.000133044
0.000100057
-0.000229835
0.000147296
-0.000353759
0.000206542
-0.000505684
-0.000685721
1.77075e-06
8.12583e-06
8.22314e-06
1.54559e-06
2.0678e-05
-2.80191e-05
4.05134e-05
-8.19365e-05
6.9134e-05
-0.000161665
0.000107903
-0.000268603
0.000158032
-0.000403889
0.000220434
-0.000568085
0.000295529
-0.000760816
-0.000980407
1.97538e-06
6.15045e-06
9.0563e-06
-5.53533e-06
2.25961e-05
-4.15588e-05
4.39975e-05
-0.000103338
7.4668e-05
-0.000192336
0.000115935
-0.00030987
0.000168917
-0.000456871
0.000234351
-0.000633519
0.0003124
-0.000838865
0.000402461
-0.00107047
-0.0013242
2.19167e-06
3.95878e-06
9.92983e-06
-1.32735e-05
2.4594e-05
-5.6223e-05
4.76019e-05
-0.000126346
8.035e-05
-0.000225084
0.000124109
-0.00035363
0.000179875
-0.000512637
0.000248182
-0.000701826
0.000328899
-0.000919581
0.000421057
-0.00116263
0.00052277
-0.00142591
0.000631288
-0.00170278
-0.00198553
2.41928e-06
1.53951e-06
1.08416e-05
-2.16958e-05
2.66652e-05
-7.20466e-05
5.13121e-05
-0.000150993
8.61515e-05
-0.000259923
0.000132375
-0.000399853
0.00019083
-0.000571091
0.000261812
-0.000772808
0.00034487
-0.00100264
0.00043866
-0.00125642
0.000540908
-0.00152816
0.000648549
-0.00181042
0.000758033
-0.00209502
-0.00237398
2.65775e-06
-1.11824e-06
1.1789e-05
-3.08271e-05
2.88022e-05
-8.90598e-05
5.51114e-05
-0.000177302
9.20408e-05
-0.000296853
0.00014068
-0.000448492
0.000201695
-0.000632106
0.000275118
-0.000846232
0.000360158
-0.00108768
0.000455085
-0.00135134
0.000557269
-0.00163034
0.000663383
-0.00191653
0.000769788
-0.00220142
0.000872989
-0.00247718
-0.00273763
2.90651e-06
-4.02476e-06
1.27689e-05
-4.06895e-05
3.09963e-05
-0.000107287
5.89809e-05
-0.000205287
9.79831e-05
-0.000335855
0.000148964
-0.000499474
0.000212384
-0.000695525
0.000287982
-0.00092183
0.00037461
-0.00117431
0.000470164
-0.0014469
0.000571691
-0.00173187
0.00067567
-0.00202051
0.000778452
-0.00230421
0.000876736
-0.00257547
0.000967976
-0.00282887
0.00105064
-0.00306155
-0.00327315
3.16489e-06
-7.18964e-06
1.37778e-05
-5.13024e-05
3.32376e-05
-0.000126747
6.29001e-05
-0.000234949
0.000103941
-0.000376896
0.000157169
-0.000552702
0.000222807
-0.000761163
0.000300282
-0.000999306
0.000388082
-0.00126211
0.000483746
-0.00154256
0.000584042
-0.00183216
0.00068533
-0.0021218
0.000784031
-0.00240291
0.000877104
-0.00266854
0.000962399
-0.00291417
0.00103883
-0.00313797
0.00110633
-0.00334065
-0.0035249
3.43206e-06
-1.06217e-05
1.48115e-05
-6.26819e-05
3.55154e-05
-0.000147451
6.68464e-05
-0.00026628
0.000109874
-0.000419923
0.000165229
-0.000608056
0.000232873
-0.000828807
0.000311902
-0.00107834
0.000400441
-0.00135065
0.000495699
-0.00163782
0.000594223
-0.00193069
0.000692324
-0.0022199
0.000786572
-0.00249715
0.00087424
-0.00275621
0.000953594
-0.00299352
0.00102398
-0.00320836
0.00108571
-0.00340238
0.00113981
-0.00357901
0.00118777
-0.00374237
-0.00389765
3.70707e-06
-1.43288e-05
1.58656e-05
-7.48404e-05
3.78177e-05
-0.000169403
7.07959e-05
-0.000299258
0.000115741
-0.000464869
0.00017308
-0.000665395
0.000242493
-0.00089822
0.000322732
-0.00115857
0.000411568
-0.00143948
0.000505916
-0.00173217
0.000602167
-0.00202694
0.000696655
-0.00231439
0.000786164
-0.00258666
0.000868321
-0.00283836
0.000941818
-0.00306702
0.00100641
-0.00327295
0.00106272
-0.00345869
0.001112
-0.00362829
0.0011558
-0.00378616
-0.00393743
0.00119558
3.98887e-06
-1.83176e-05
1.69351e-05
-8.77866e-05
4.01318e-05
-0.0001926
7.4723e-05
-0.000333849
0.000121499
-0.000511645
0.000180659
-0.000724554
0.00025158
-0.000969141
0.000332668
-0.00123966
0.000421358
-0.00152817
0.000514317
-0.00182513
0.000607841
-0.00212046
0.00069836
-0.00240491
0.000782926
-0.00267123
0.00085955
-0.00291499
0.000927338
-0.00313481
0.000986412
-0.00333202
0.00103768
-0.00350996
0.00108252
-0.00367313
0.00112252
-0.00382616
-0.003974
0.00115909
4.27625e-06
-2.25939e-05
1.80143e-05
-0.000101525
4.24439e-05
-0.000217029
7.86013e-05
-0.000370007
0.000127104
-0.000560147
0.000187899
-0.00078535
0.00026005
-0.00104129
0.000341617
-0.00132123
0.000429725
-0.00161628
0.000520844
-0.00191625
0.000611242
-0.00221086
0.000697509
-0.00249118
0.000777007
-0.00275073
0.000848143
-0.00298613
0.000910421
-0.00319709
0.000964289
-0.00338589
0.00101087
-0.00355654
0.00105165
-0.00371391
0.00108818
-0.00386269
-0.00400763
0.00112181
4.56789e-06
-2.71618e-05
1.90976e-05
-0.000116054
4.47397e-05
-0.000242671
8.24033e-05
-0.000407671
0.00013251
-0.000610254
0.00019474
-0.00084758
0.000267827
-0.00111438
0.000349497
-0.0014029
0.000436601
-0.00170338
0.000525466
-0.00200511
0.000612397
-0.00229779
0.000694197
-0.00257298
0.000768573
-0.0028251
0.000834326
-0.00305188
0.000891328
-0.00325409
0.00094031
-0.00343487
0.000982559
-0.00359879
0.00101961
-0.00375095
0.00105297
-0.00389605
-0.00403855
0.00108388
4.86234e-06
-3.20241e-05
2.01787e-05
-0.000131371
4.70041e-05
-0.000269497
8.61012e-05
-0.000446768
0.000137675
-0.000661829
0.000201119
-0.000911024
0.000274839
-0.0011881
0.00035624
-0.0014843
0.000441938
-0.00178908
0.000528177
-0.00209135
0.000611358
-0.00238097
0.000688545
-0.00265016
0.000757805
-0.00289436
0.000818326
-0.0031124
0.000870312
-0.00330607
0.000914727
-0.00347929
0.000952977
-0.00363704
0.000986599
-0.00378457
0.00101704
-0.0039265
-0.00406695
0.00104544
5.15806e-06
-3.71822e-05
2.1251e-05
-0.000147464
4.92219e-05
-0.000297468
8.96669e-05
-0.000487213
0.000142556
-0.000714718
0.000206983
-0.00097545
0.000281024
-0.00126214
0.00036179
-0.00156507
0.000445708
-0.001873
0.000528994
-0.00217464
0.0006082
-0.00246018
0.000680686
-0.00272265
0.000744891
-0.00295857
0.000800367
-0.00316788
0.000847611
-0.00335332
0.000887773
-0.00351945
0.000922332
-0.0036716
0.000952804
-0.00381504
0.000980548
-0.00395424
-0.00409299
0.00100659
5.45339e-06
-4.26356e-05
2.23077e-05
-0.000164318
5.13773e-05
-0.000326537
9.30728e-05
-0.000528908
0.000147111
-0.000768756
0.000212278
-0.00104062
0.000286328
-0.00133619
0.000366108
-0.00164485
0.0004479
-0.00195479
0.000527952
-0.00225469
0.000603015
-0.00253524
0.00067077
-0.00279041
0.000730024
-0.00301782
0.000780666
-0.00321852
0.000823447
-0.0033961
0.000859656
-0.00355566
0.000890808
-0.00370275
0.00091837
-0.00384261
0.000943603
-0.00397947
-0.00411681
0.00096742
5.74661e-06
-4.83822e-05
2.33419e-05
-0.000181913
5.34546e-05
-0.00035665
9.62917e-05
-0.000571745
0.000151302
-0.000823766
0.000216958
-0.00110627
0.000290709
-0.00140994
0.000369165
-0.0017233
0.000448522
-0.00203415
0.000525107
-0.00233127
0.000595911
-0.00260605
0.000658953
-0.00285345
0.000713394
-0.00307226
0.000759431
-0.00326455
0.000798023
-0.00343469
0.000830563
-0.0035882
0.000858564
-0.00373076
0.000883426
-0.00386747
0.000906302
-0.00400235
-0.0041385
0.000927999
6.03591e-06
-5.44181e-05
2.43466e-05
-0.000200224
5.54383e-05
-0.000387741
9.92977e-05
-0.000615605
0.000155093
-0.000879561
0.000220984
-0.00117216
0.000294131
-0.00148309
0.000370951
-0.00180012
0.000447598
-0.0021108
0.000520529
-0.0024042
0.000587007
-0.00267252
0.000645392
-0.00291183
0.000695186
-0.00312206
0.000736855
-0.00330622
0.000771527
-0.00346936
0.000800658
-0.00361733
0.000825736
-0.00375583
0.000848078
-0.00388981
0.00086873
-0.004023
-0.00415816
0.000888391
6.31945e-06
-6.07375e-05
2.53145e-05
-0.000219219
5.73132e-05
-0.00041974
0.000102066
-0.000660357
0.000158452
-0.000935947
0.000224322
-0.00123803
0.000296572
-0.00155534
0.000371466
-0.00187502
0.000445166
-0.0021845
0.000514302
-0.00247334
0.00057643
-0.00273465
0.00063025
-0.00296565
0.000675579
-0.00316738
0.000713119
-0.00334376
0.000744127
-0.00350037
0.000770088
-0.00364329
0.000792444
-0.00377819
0.00081242
-0.00390979
0.000830953
-0.00404153
-0.00417586
0.000848645
6.59534e-06
-6.73329e-05
2.62388e-05
-0.000238863
5.90646e-05
-0.000452566
0.000104574
-0.000705866
0.000161349
-0.000992723
0.000226945
-0.00130363
0.000298019
-0.00162641
0.000370724
-0.00194772
0.000441278
-0.00225505
0.000506519
-0.00253858
0.000564309
-0.00279244
0.000613682
-0.00301503
0.000654742
-0.00320844
0.000688388
-0.00337741
0.000715972
-0.00352796
0.000738979
-0.0036663
0.000758789
-0.003798
0.000776528
-0.00392753
0.000793029
-0.00405803
-0.00419163
0.000808805
6.86172e-06
-7.41946e-05
2.71126e-05
-0.000259114
6.06786e-05
-0.000486132
0.0001068
-0.000751987
0.000163762
-0.00104969
0.000228835
-0.0013687
0.000298468
-0.00169604
0.00036875
-0.00201801
0.000435995
-0.0023223
0.000497278
-0.00259986
0.000550777
-0.00284594
0.000595842
-0.00306009
0.000632835
-0.00324544
0.000662815
-0.00340739
0.000687197
-0.00355234
0.000707443
-0.00368654
0.000724858
-0.00381541
0.000740468
-0.00394314
0.000755008
-0.00407257
-0.00420553
0.000768908
7.1167e-06
-8.13113e-05
2.79292e-05
-0.000279926
6.21422e-05
-0.000520345
0.000108726
-0.000798571
0.000165671
-0.00110663
0.000229978
-0.00143301
0.000297926
-0.00176399
0.00036558
-0.00208566
0.000429389
-0.0023861
0.000486687
-0.00265716
0.000535966
-0.00289522
0.000576877
-0.003101
0.000610004
-0.00327856
0.000636536
-0.00343392
0.000657918
-0.00357372
0.000675575
-0.0037042
0.000690724
-0.00383056
0.000704296
-0.00395671
0.00071693
-0.00408521
-0.00421759
0.000728985
7.35844e-06
-8.86697e-05
2.86823e-05
-0.00030125
6.34435e-05
-0.000555106
0.000110335
-0.000845463
0.000167059
-0.00116335
0.000230369
-0.00149632
0.000296408
-0.00183003
0.000361258
-0.00215051
0.000421535
-0.00244638
0.000474851
-0.00271048
0.000520005
-0.00294037
0.000556923
-0.00313792
0.000586384
-0.00330802
0.000609673
-0.00345721
0.000628241
-0.00359229
0.000643457
-0.00371941
0.000656451
-0.00384356
0.000668058
-0.00396831
0.000678832
-0.00409598
-0.00422782
0.000689064
7.58516e-06
-9.62549e-05
2.93661e-05
-0.000323031
6.45718e-05
-0.000590312
0.000111616
-0.000892507
0.000167917
-0.00121966
0.00023001
-0.00155841
0.000293937
-0.00189396
0.000355834
-0.00221241
0.000412517
-0.00250307
0.000461878
-0.00275984
0.000503019
-0.00298151
0.000536113
-0.00317101
0.000562101
-0.00333401
0.000582336
-0.00347744
0.000598256
-0.00360821
0.000611161
-0.00373232
0.000622093
-0.00385449
0.000631794
-0.00397801
0.000640743
-0.00410493
-0.00423625
0.000649171
7.79516e-06
-0.00010405
2.9975e-05
-0.000345211
6.55176e-05
-0.000625854
0.000112556
-0.000939545
0.00016824
-0.00127534
0.000228909
-0.00161908
0.000290542
-0.00195559
0.000349367
-0.00227123
0.000402419
-0.00255612
0.000447877
-0.0028053
0.000485127
-0.00301876
0.000514565
-0.00320045
0.000537266
-0.00335671
0.000554622
-0.0034948
0.000568041
-0.00362163
0.000578749
-0.00374303
0.000587696
-0.00386344
0.000595541
-0.00398586
0.000602691
-0.00411208
-0.00424289
0.000609328
7.98766e-06
-0.000112038
3.05059e-05
-0.000367729
6.62757e-05
-0.000661624
0.000113151
-0.00098642
0.000168029
-0.00133022
0.000227083
-0.00167813
0.000286265
-0.00201477
0.000341925
-0.00232689
0.000391334
-0.00260553
0.000432958
-0.00284692
0.000466449
-0.00305225
0.000492399
-0.0032264
0.000511987
-0.0033763
0.000526624
-0.00350944
0.000537673
-0.00363268
0.00054628
-0.00375164
0.000553307
-0.00387046
0.000559334
-0.00399189
0.000564706
-0.00411745
-0.00424774
0.000569562
8.15961e-06
-0.000120197
3.09511e-05
-0.00039052
6.68346e-05
-0.000697508
0.000113391
-0.00103298
0.000167281
-0.00138411
0.000224542
-0.0017354
0.000281135
-0.00207136
0.00033356
-0.00237932
0.000379335
-0.0026513
0.000417209
-0.00288479
0.000447077
-0.00308212
0.000469702
-0.00324903
0.000486342
-0.00339294
0.000498405
-0.0035215
0.000507198
-0.00364147
0.000513786
-0.00375822
0.000518946
-0.00387562
0.000523186
-0.00399613
0.000526797
-0.00412107
-0.00425082
0.000529879
8.31042e-06
-0.000128508
3.13084e-05
-0.000413518
6.71917e-05
-0.000733391
0.000113275
-0.00107906
0.000166005
-0.00143684
0.000221314
-0.00179071
0.000275203
-0.00212525
0.000324345
-0.00242846
0.000366516
-0.00269347
0.000400733
-0.00291901
0.000427118
-0.00310851
0.000446575
-0.00326848
0.000460418
-0.00340679
0.000470037
-0.00353112
0.000476676
-0.00364811
0.000481314
-0.00376286
0.000484651
-0.00387896
0.000487129
-0.0039986
0.00048899
-0.00412293
-0.00425214
0.000490304
8.43886e-06
-0.000136947
3.15747e-05
-0.000436654
6.73436e-05
-0.00076916
0.000112805
-0.00112452
0.000164213
-0.00148825
0.000217427
-0.00184392
0.000268517
-0.00217634
0.000314349
-0.00247429
0.000352959
-0.00273208
0.000383622
-0.00294967
0.000406662
-0.00313155
0.000423102
-0.00328492
0.000434288
-0.00341797
0.00044158
-0.00353841
0.00044615
-0.00365268
0.000448898
-0.00376561
0.000450447
-0.00388051
0.000451182
-0.00399934
0.000451304
-0.00412305
-0.00425169
0.000450854
8.54384e-06
-0.00014549
3.17476e-05
-0.000459858
6.72885e-05
-0.000804701
0.000111983
-0.00116922
0.000161919
-0.00153818
0.000212911
-0.00189491
0.000261126
-0.00222456
0.00030364
-0.0025168
0.000338746
-0.00276719
0.000365964
-0.00297689
0.000385795
-0.00315138
0.000399359
-0.00329849
0.000408017
-0.00342663
0.000413084
-0.00354348
0.000415661
-0.00365525
0.000416567
-0.00376652
0.000416357
-0.0038803
0.000415365
-0.00399835
0.000413754
-0.00412144
-0.00424948
0.000411546
8.62443e-06
-0.000154115
3.18252e-05
-0.000483059
6.70258e-05
-0.000839901
0.000110816
-0.00121301
0.000159139
-0.00158651
0.000207798
-0.00194357
0.000253082
-0.00226984
0.000292285
-0.00255601
0.000323955
-0.00279886
0.000347838
-0.00300078
0.000364594
-0.00316814
0.000375414
-0.00330931
0.00038166
-0.00343288
0.000384595
-0.00354641
0.000385243
-0.0036559
0.000384349
-0.00376562
0.000382404
-0.00387836
0.000379695
-0.00399564
0.000376358
-0.0041181
-0.00424552
0.000372394
8.67988e-06
-0.000162795
3.18063e-05
-0.000506185
6.65567e-05
-0.000874652
0.00010931
-0.00125576
0.000155894
-0.00163309
0.000202126
-0.0019898
0.000244437
-0.00231215
0.00028035
-0.00259192
0.000308659
-0.00282717
0.00032932
-0.00302144
0.000343129
-0.00318194
0.00035133
-0.00331751
0.000355269
-0.00343681
0.000356152
-0.0035473
0.000354926
-0.00365468
0.000352266
-0.00376296
0.000348604
-0.00387469
0.000344189
-0.00399122
0.00033913
-0.00411304
-0.0042398
0.000333415
8.7096e-06
-0.000171504
3.16905e-05
-0.000529166
6.58833e-05
-0.000908844
0.000107476
-0.00129735
0.000152206
-0.00167782
0.000195931
-0.00203353
0.000235244
-0.00235147
0.000267898
-0.00262457
0.000292928
-0.0028522
0.00031048
-0.00303899
0.000321464
-0.00319293
0.00032716
-0.0033232
0.000328887
-0.00343854
0.000327789
-0.0035462
0.000324738
-0.00365163
0.00032034
-0.00375856
0.000314977
-0.00386933
0.000308862
-0.00398511
0.000302085
-0.00410627
-0.00423234
0.000294622
8.71318e-06
-0.000180218
3.14779e-05
-0.000551931
6.50094e-05
-0.000942376
0.000105325
-0.00133767
0.000148097
-0.00172059
0.00018925
-0.00207468
0.000225553
-0.00238777
0.000254992
-0.00265401
0.000276829
-0.00287403
0.000291382
-0.00305354
0.000299657
-0.0032012
0.000302954
-0.0033265
0.000302555
-0.00343814
0.000299537
-0.00354318
0.000294701
-0.00364679
0.000288589
-0.00375245
0.000281537
-0.00386228
0.000273729
-0.0039773
0.000265236
-0.00409777
-0.00422313
0.00025603
8.69035e-06
-0.000188908
3.11691e-05
-0.00057441
6.39395e-05
-0.000975146
0.000102869
-0.0013766
0.000143592
-0.00176131
0.000182121
-0.00211321
0.000215415
-0.00242106
0.00024169
-0.00268029
0.000260422
-0.00289277
0.000272085
-0.0030652
0.000277761
-0.00320688
0.000278754
-0.0033275
0.000276306
-0.00343569
0.000271423
-0.0035383
0.000264837
-0.0036402
0.000257031
-0.00374465
0.000248299
-0.00385355
0.000238802
-0.0039678
0.000228597
-0.00408757
-0.00421219
0.000217652
8.64102e-06
-0.000197549
3.07656e-05
-0.000596534
6.26796e-05
-0.00100706
0.000100123
-0.00141404
0.000138718
-0.00179991
0.000174585
-0.00214908
0.000204879
-0.00245136
0.000228047
-0.00270346
0.000243766
-0.00290848
0.000252643
-0.00307408
0.000255821
-0.00321006
0.000254601
-0.00332627
0.000250171
-0.00343126
0.000243471
-0.0035316
0.000235164
-0.0036319
0.000225681
-0.00373516
0.000215278
-0.00384314
0.000204094
-0.00395662
0.000192179
-0.00407565
-0.00419951
0.000179499
8.56527e-06
-0.000206114
3.0269e-05
-0.000618238
6.12362e-05
-0.00103803
9.71025e-05
-0.00144991
0.0001335
-0.00183631
0.000166677
-0.00218225
0.000193994
-0.00247868
0.000214117
-0.00272358
0.000226911
-0.00292128
0.000233104
-0.00308027
0.000233882
-0.00321083
0.000230528
-0.00332292
0.000224177
-0.00342491
0.000215701
-0.00352312
0.000205701
-0.0036219
0.000194554
-0.00372402
0.000182486
-0.00383108
0.000169619
-0.00394375
0.000155995
-0.00406203
-0.0041851
0.000141584
8.46331e-06
-0.000214577
2.96817e-05
-0.000639456
5.96169e-05
-0.00106796
9.38228e-05
-0.00148411
0.000127965
-0.00187045
0.000158436
-0.00221273
0.000182803
-0.00250304
0.000199948
-0.00274073
0.000209908
-0.00293124
0.000213512
-0.00308388
0.000211979
-0.0032093
0.000206565
-0.00331751
0.000198348
-0.0034167
0.000188134
-0.00351291
0.000176462
-0.00361022
0.000163664
-0.00371122
0.000149937
-0.00381735
0.000135386
-0.0039292
0.000120055
-0.0040467
-0.00416896
0.000103916
8.33549e-06
-0.000222913
2.90063e-05
-0.000660127
5.78297e-05
-0.00109679
9.03008e-05
-0.00151658
0.000122141
-0.00190229
0.000149898
-0.00224048
0.00017135
-0.00252449
0.000185587
-0.00275496
0.000192801
-0.00293845
0.000193909
-0.00308499
0.000190147
-0.00320554
0.00018274
-0.0033101
0.000172706
-0.00340666
0.000160786
-0.00350099
0.000147462
-0.0035969
0.000133025
-0.00369678
0.000117642
-0.00380197
0.00010141
-0.00391297
8.43702e-05
-0.00402966
-0.00415107
6.6488e-05
8.18231e-06
-0.000231095
2.82461e-05
-0.000680191
5.58834e-05
-0.00112442
8.65534e-05
-0.00154725
0.000116053
-0.00193179
0.000141099
-0.00226553
0.000159677
-0.00254307
0.000171076
-0.00276636
0.00017563
-0.002943
0.000174329
-0.00308369
0.000168415
-0.00319962
0.000159076
-0.00330076
0.00014727
-0.00339486
0.000133672
-0.00348739
0.000118715
-0.00358194
0.000102648
-0.00368072
8.56191e-05
-0.00378494
6.77122e-05
-0.00389506
4.89548e-05
-0.0040109
-0.00413136
2.92449e-05
8.00438e-06
-0.0002391
2.74044e-05
-0.000699591
5.37871e-05
-0.00115081
8.2598e-05
-0.00157607
0.000109728
-0.00195892
0.000132071
-0.00228787
0.000147822
-0.00255882
0.000156455
-0.00277499
0.000158433
-0.00294498
0.000154805
-0.00308006
0.000146811
-0.00319163
0.000135595
-0.00328955
0.000122055
-0.00338132
0.000106808
-0.00347214
9.02326e-05
-0.00356537
7.25479e-05
-0.00366303
5.38802e-05
-0.00376627
3.43156e-05
-0.00387549
1.38551e-05
-0.00399044
-0.00410963
-7.87615e-06
7.80241e-06
-0.000246902
2.6485e-05
-0.000718273
5.15502e-05
-0.00117587
7.84518e-05
-0.00160297
0.000103192
-0.00198366
0.000122848
-0.00230753
0.000135821
-0.0025718
0.00014176
-0.00278093
0.000141244
-0.00294447
0.000135366
-0.00307418
0.000125358
-0.00318162
0.000112316
-0.0032765
9.70784e-05
-0.00336608
8.02041e-05
-0.00345527
6.20274e-05
-0.00354719
4.27343e-05
-0.00364374
2.2434e-05
-0.00374597
1.19852e-06
-0.00385426
-2.09211e-05
-0.00396832
-0.00408661
-4.39436e-05
7.57722e-06
-0.000254479
2.54917e-05
-0.000736188
4.91824e-05
-0.00119956
7.4132e-05
-0.00162792
9.6469e-05
-0.00200599
0.00011346
-0.00232452
0.000123708
-0.00258204
0.000127025
-0.00278425
0.000124093
-0.00294153
0.000116039
-0.00306613
0.000104077
-0.00316966
8.92554e-05
-0.00326168
7.23525e-05
-0.00334918
5.38735e-05
-0.00343679
3.41097e-05
-0.00352743
1.32178e-05
-0.00362285
-8.70755e-06
-0.00372404
-3.15874e-05
-0.00383138
-5.53952e-05
-0.00394451
-0.00406193
-8.00764e-05
7.32972e-06
-0.000261809
2.44289e-05
-0.000753287
4.66936e-05
-0.00122183
6.96556e-05
-0.00165088
8.95834e-05
-0.00202592
0.000103938
-0.00233887
0.000111515
-0.00258962
0.000112282
-0.00278502
0.000107008
-0.00293626
9.68472e-05
-0.00305597
8.29876e-05
-0.0031558
6.64282e-05
-0.00324512
4.78899e-05
-0.00333064
2.78266e-05
-0.00341673
6.48941e-06
-0.00350609
-1.59913e-05
-0.00360037
-3.95353e-05
-0.0037005
-6.40686e-05
-0.00380685
-8.95386e-05
-0.00391904
-0.00403555
-0.00011592
7.06086e-06
-0.00026887
2.33007e-05
-0.000769527
4.40936e-05
-0.00124262
6.50393e-05
-0.00167182
8.25583e-05
-0.00204344
9.43067e-05
-0.00235062
9.92702e-05
-0.00259459
9.75571e-05
-0.0027833
9.00139e-05
-0.00292872
7.78105e-05
-0.00304376
6.21058e-05
-0.0031401
4.38474e-05
-0.00322686
2.37018e-05
-0.00331049
2.07233e-06
-0.0033951
-2.08233e-05
-0.00348319
-4.48829e-05
-0.00357631
-7.00398e-05
-0.00367534
-9.62204e-05
-0.00378067
-0.000123356
-0.00389191
-0.00400747
-0.000151432
6.77171e-06
-0.000275642
2.21116e-05
-0.000784867
4.13922e-05
-0.0012619
6.02993e-05
-0.00169073
7.54156e-05
-0.00205856
8.4594e-05
-0.0023598
8.70014e-05
-0.00259699
8.28771e-05
-0.00277918
7.31337e-05
-0.00291897
5.89482e-05
-0.00302958
4.14466e-05
-0.00312259
2.15249e-05
-0.00320694
-2.06833e-07
-0.00328876
-2.33786e-05
-0.00337192
-4.78195e-05
-0.00345875
-7.34473e-05
-0.00355068
-0.000100209
-0.00364858
-0.000128032
-0.00375284
-0.000156835
-0.00386311
-0.00397771
-0.000186594
6.46334e-06
-0.000282105
2.0866e-05
-0.00079927
3.85992e-05
-0.00127963
5.54513e-05
-0.00170758
6.81764e-05
-0.00207128
7.48234e-05
-0.00236645
7.47333e-05
-0.0025969
6.82652e-05
-0.00277271
5.63872e-05
-0.0029071
4.02765e-05
-0.00301347
2.1023e-05
-0.00310334
-5.29207e-07
-0.00318539
-2.3814e-05
-0.00326548
-4.85182e-05
-0.00334722
-7.44903e-05
-0.00343278
-0.000101675
-0.00352349
-0.000130033
-0.00362022
-0.000159494
-0.00372338
-0.000189961
-0.00383264
-0.00394628
-0.000221394
6.13688e-06
-0.000288242
1.95685e-05
-0.000812701
3.57241e-05
-0.00129579
5.05106e-05
-0.00172237
6.08606e-05
-0.00208163
6.50176e-05
-0.0023706
6.24888e-05
-0.00259437
5.37425e-05
-0.00276396
3.97926e-05
-0.00289315
2.18103e-05
-0.00299548
8.4671e-07
-0.00308238
-2.23024e-05
-0.00316224
-4.71243e-05
-0.00324065
-7.33391e-05
-0.00332101
-0.000100827
-0.00340529
-0.000129555
-0.00349477
-0.0001595
-0.00359028
-0.000190592
-0.00369229
-0.000222721
-0.00380051
-0.00391318
-0.00025582
5.7935e-06
-0.000294035
1.82235e-05
-0.000825131
3.27764e-05
-0.00131034
4.54918e-05
-0.00173509
5.3487e-05
-0.00208963
5.51977e-05
-0.00237231
5.02889e-05
-0.00258947
3.9328e-05
-0.002753
2.33662e-05
-0.00287718
3.56263e-06
-0.00297568
-1.90712e-05
-0.00305974
-4.37902e-05
-0.00313752
-7.01258e-05
-0.00321432
-9.78338e-05
-0.0032933
-0.000126823
-0.0033763
-0.00015708
-0.00346451
-0.000188598
-0.00355876
-0.000221314
-0.00365957
-0.000255101
-0.00376672
-0.00387842
-0.00028986
5.43438e-06
-0.00029947
1.68355e-05
-0.000836532
2.97652e-05
-0.00132327
4.04088e-05
-0.00174573
4.60731e-05
-0.00209529
4.5383e-05
-0.00237162
3.81529e-05
-0.00258224
2.50392e-05
-0.00273989
7.12233e-06
-0.00285927
-1.44549e-05
-0.0029541
-3.87226e-05
-0.00303548
-6.49837e-05
-0.00311126
-9.28118e-05
-0.00318649
-0.000121996
-0.00326411
-0.000152468
-0.00334583
-0.000184239
-0.00343274
-0.000217318
-0.00352568
-0.000251649
-0.00362524
-0.000287091
-0.00373128
-0.00384201
-0.000323503
5.06073e-06
-0.00030453
1.54089e-05
-0.00084688
2.66994e-05
-0.00133456
3.52749e-05
-0.0017543
3.86357e-05
-0.00209865
3.55916e-05
-0.00236858
2.60981e-05
-0.00257274
1.08915e-05
-0.00272468
-8.92597e-06
-0.00283945
-3.2232e-05
-0.0029308
-5.80989e-05
-0.00300961
-8.5876e-05
-0.00308348
-0.000115176
-0.00315719
-0.000145818
-0.00323347
-0.000177758
-0.00331389
-0.000211024
-0.00339947
-0.000245647
-0.00349106
-0.000281582
-0.00358931
-0.000318674
-0.00369419
-0.00380395
-0.000356735
4.67375e-06
-0.000309204
1.39481e-05
-0.000856155
2.35875e-05
-0.0013442
3.01029e-05
-0.00176082
3.11902e-05
-0.00209974
2.58402e-05
-0.00236323
1.41405e-05
-0.00256104
-3.10059e-06
-0.00270744
-2.47672e-05
-0.00281778
-4.97596e-05
-0.00290581
-7.7193e-05
-0.00298217
-0.000106461
-0.00305422
-0.000137214
-0.00312644
-0.000169297
-0.00320139
-0.000202685
-0.0032805
-0.000237428
-0.00336473
-0.000273576
-0.00345491
-0.000311101
-0.00355178
-0.000349839
-0.00365545
-0.00376424
-0.000389546
4.2747e-06
-0.000313479
1.24574e-05
-0.000864338
2.04379e-05
-0.00135218
2.49046e-05
-0.00176529
2.37512e-05
-0.00209859
1.61442e-05
-0.00235562
2.29661e-06
-0.00254719
-1.69256e-05
-0.00268822
-4.03911e-05
-0.00279432
-6.70295e-05
-0.00287917
-9.59983e-05
-0.00295321
-0.000126734
-0.00302348
-0.00015892
-0.00309425
-0.000192425
-0.00316788
-0.000227244
-0.00324568
-0.000263442
-0.00332853
-0.000301094
-0.00341726
-0.000340192
-0.00351268
-0.00038057
-0.00361507
-0.00372289
-0.000421921
3.86484e-06
-0.000317344
1.0941e-05
-0.000871414
1.72583e-05
-0.0013585
1.96915e-05
-0.00176772
1.63323e-05
-0.00209523
6.51766e-06
-0.00234581
-9.42605e-06
-0.00253125
-3.05714e-05
-0.00266708
-5.57886e-05
-0.0027691
-8.40347e-05
-0.00285092
-0.000114509
-0.00292273
-0.000146689
-0.0029913
-0.000180289
-0.00306065
-0.0002152
-0.00313297
-0.00025143
-0.00320945
-0.00028906
-0.0032909
-0.00032819
-0.00337813
-0.000368842
-0.00347203
-0.000410852
-0.00357306
-0.0036799
-0.000453846
3.44549e-06
-0.000320789
9.40293e-06
-0.000877371
1.40566e-05
-0.00136315
1.44744e-05
-0.00176814
8.94583e-06
-0.0020897
-3.02528e-06
-0.00233384
-2.101e-05
-0.00251327
-4.40279e-05
-0.00264406
-7.09514e-05
-0.00274218
-0.000100768
-0.0028211
-0.00013272
-0.00289078
-0.000166322
-0.0029577
-0.000201318
-0.00302565
-0.000237617
-0.00309667
-0.000275239
-0.00317183
-0.000314278
-0.00325186
-0.000354858
-0.00333755
-0.000397036
-0.00342986
-0.000440669
-0.00352943
3.0181e-06
-0.000323807
7.8472e-06
-0.0008822
1.08397e-05
-0.00136615
9.26374e-06
-0.00176656
1.61037e-06
-0.00208205
-1.2478e-05
-0.00231975
-3.24468e-05
-0.0024933
-5.72861e-05
-0.00261922
-8.58723e-05
-0.00271359
-0.000117225
-0.00278975
-0.000150627
-0.00285738
-0.00018563
-0.0029227
-0.000222004
-0.00298928
-0.000259674
-0.003059
-0.000298668
-0.00313284
-0.000339091
-0.00321144
-0.000381091
-0.00329555
-0.000424764
-0.00338618
2.5838e-06
-0.000326391
6.27766e-06
-0.000885894
7.61503e-06
-0.00136748
4.06773e-06
-0.00176301
-5.68344e-06
-0.00207229
-2.18247e-05
-0.00230361
-4.37262e-05
-0.0024714
-7.03379e-05
-0.00259261
-0.000100545
-0.00268338
-0.0001334
-0.0027569
-0.000168225
-0.00282255
-0.000204608
-0.00288631
-0.000242342
-0.00295155
-0.000281366
-0.00301998
-0.000321714
-0.00309249
-0.000363498
-0.00316966
-0.000406883
-0.00325216
2.14363e-06
-0.000328535
4.69792e-06
-0.000888449
4.3891e-06
-0.00136717
-1.09558e-06
-0.00175753
-1.29059e-05
-0.00206048
-3.10568e-05
-0.00228546
-5.48394e-05
-0.00244761
-8.31758e-05
-0.00256427
-0.000114963
-0.0026516
-0.000149288
-0.00272257
-0.000185511
-0.00278633
-0.000223253
-0.00284857
-0.00026233
-0.00291247
-0.000302693
-0.00297962
-0.000344378
-0.00305081
-0.000387499
-0.00312653
1.69873e-06
-0.000330233
3.11164e-06
-0.000889861
1.16972e-06
-0.00136523
-6.24611e-06
-0.00175011
-2.00557e-05
-0.00204667
-4.01653e-05
-0.00226535
-6.57786e-05
-0.002422
-9.57932e-05
-0.00253426
-0.000129121
-0.00261827
-0.000164884
-0.00268681
-0.00020248
-0.00274873
-0.000241561
-0.00280949
-0.000281965
-0.00287206
-0.000323651
-0.00293793
-0.000366658
-0.0030078
-0.0030821
1.24988e-06
-0.000331483
1.521e-06
-0.000890133
-2.04604e-06
-0.00136166
-1.13469e-05
-0.00174081
-2.71227e-05
-0.0020309
-4.91419e-05
-0.00224333
-7.65363e-05
-0.00239461
-0.000108184
-0.00250261
-0.000143015
-0.00258344
-0.000180185
-0.00264964
-0.00021913
-0.00270979
-0.00025953
-0.00276909
-0.000301243
-0.00283035
-0.000344238
-0.00289494
-0.000388554
-0.00296348
7.96559e-07
-0.00033228
-7.18902e-08
-0.000889264
-5.24598e-06
-0.00135649
-1.6401e-05
-0.00172966
-3.40993e-05
-0.0020132
-5.79792e-05
-0.00221945
-8.71059e-05
-0.00236548
-0.000120343
-0.00246937
-0.00015664
-0.00254714
-0.000195188
-0.00261109
-0.000235456
-0.00266952
-0.000277154
-0.00272739
-0.00032016
-0.00278735
-0.00036445
-0.00285065
3.2327e-07
-0.000332603
-1.66413e-06
-0.000887277
-8.42362e-06
-0.00134973
-2.14014e-05
-0.00171668
-4.09784e-05
-0.00199362
-6.66703e-05
-0.00219376
-9.74816e-05
-0.00233467
-0.000132266
-0.00243459
-0.000169993
-0.00250941
-0.000209887
-0.0025712
-0.000251455
-0.00262795
-0.000294432
-0.00268442
-0.000338712
-0.00274307
-0.00280507
-1.56286e-07
-0.000332447
-3.25237e-06
-0.000884181
-1.15754e-05
-0.00134141
-2.63418e-05
-0.00170191
-4.77532e-05
-0.00197221
-7.52089e-05
-0.0021663
-0.000107658
-0.00230222
-0.000143947
-0.0023983
-0.000183068
-0.00247029
-0.000224281
-0.00252998
-0.000267124
-0.00258511
-0.000311358
-0.00264018
-0.000356895
-0.00269753
-5.88286e-07
-0.000331859
-4.82679e-06
-0.000879942
-1.46966e-05
-0.00133154
-3.12164e-05
-0.00168539
-5.44177e-05
-0.00194901
-8.35893e-05
-0.00213713
-0.00011763
-0.00226818
-0.000155383
-0.00236054
-0.000195864
-0.00242981
-0.000238366
-0.00248748
-0.000282459
-0.00254102
-0.000327928
-0.00259471
-0.00265075
-1.04049e-06
-0.000330818
-6.39116e-06
-0.000874591
-1.77831e-05
-0.00132015