/*--------------------------------*- C++ -*----------------------------------*\
  =========                 |
  \\      /  F ield         | OpenFOAM: The Open Source CFD Toolbox
   \\    /   O peration     | Website:  https://openfoam.org
    \\  /    A nd           | Version:  7
     \\/     M anipulation  |
\*---------------------------------------------------------------------------*/
FoamFile
{
    version     2.0;
    format      ascii;
    class       volScalarField;
    location    "10";
    object      p;
}
// * * * * * * * * * * * * * * * * * * * * * * * * * * * * * * * * * * * * * //

dimensions      [0 2 -2 0 0 0 0];

internalField   nonuniform List<scalar> 
5110
(
-0.314485
-0.319356
-0.321495
-0.32239
-0.322307
-0.321273
-0.319397
-0.316777
-0.313503
-0.309672
-0.305324
-0.300525
-0.315125
-0.319907
-0.321986
-0.322827
-0.322692
-0.32161
-0.31969
-0.317027
-0.313714
-0.309852
-0.305467
-0.300598
-0.3164
-0.321007
-0.322966
-0.323697
-0.323459
-0.322281
-0.320271
-0.317524
-0.314132
-0.310207
-0.305748
-0.300738
-0.318303
-0.32265
-0.324428
-0.324995
-0.324603
-0.323281
-0.321136
-0.318262
-0.314751
-0.310729
-0.306161
-0.300933
-0.320823
-0.324825
-0.326365
-0.326715
-0.326117
-0.324603
-0.322277
-0.319232
-0.315561
-0.311407
-0.306692
-0.301153
-0.323946
-0.327524
-0.328767
-0.328846
-0.327991
-0.326236
-0.323684
-0.320425
-0.31655
-0.312228
-0.307342
-0.301345
-0.327657
-0.330731
-0.331621
-0.331378
-0.330214
-0.328171
-0.325346
-0.321826
-0.317704
-0.313182
-0.308121
-0.301514
-0.331937
-0.334434
-0.334916
-0.334298
-0.332776
-0.330396
-0.327252
-0.323425
-0.31901
-0.314236
-0.308833
-0.301834
-0.336769
-0.338615
-0.338636
-0.337592
-0.335662
-0.332898
-0.329389
-0.325209
-0.320454
-0.315387
-0.309623
-0.302043
-0.342133
-0.34326
-0.342767
-0.341248
-0.338862
-0.335668
-0.331747
-0.327168
-0.322025
-0.316619
-0.310451
-0.30213
-0.348011
-0.348352
-0.347293
-0.345252
-0.342363
-0.338693
-0.334317
-0.329294
-0.323711
-0.317915
-0.311284
-0.302077
-0.354384
-0.353874
-0.352198
-0.34959
-0.346154
-0.341966
-0.337093
-0.331581
-0.32551
-0.319268
-0.312105
-0.301848
-0.361235
-0.359805
-0.357474
-0.35425
-0.350225
-0.34548
-0.34007
-0.33403
-0.327421
-0.320677
-0.312905
-0.301406
-0.368543
-0.366134
-0.363098
-0.359219
-0.354567
-0.349228
-0.343249
-0.336643
-0.329453
-0.322149
-0.313682
-0.300712
-0.376292
-0.372841
-0.369057
-0.364485
-0.35917
-0.353208
-0.346632
-0.339432
-0.331622
-0.323702
-0.314443
-0.29973
-0.384461
-0.379909
-0.375335
-0.370036
-0.364028
-0.357418
-0.350224
-0.342411
-0.333953
-0.325366
-0.315207
-0.298429
-0.393028
-0.387316
-0.381915
-0.375859
-0.369134
-0.361858
-0.354035
-0.345601
-0.336483
-0.327192
-0.316027
-0.296813
-0.401967
-0.39504
-0.38878
-0.38194
-0.374479
-0.366527
-0.358074
-0.349028
-0.339261
-0.329258
-0.317007
-0.294972
-0.411249
-0.403057
-0.395909
-0.388264
-0.380055
-0.371424
-0.362351
-0.352719
-0.342345
-0.331661
-0.318258
-0.292977
-0.420839
-0.41134
-0.403279
-0.394815
-0.385849
-0.376545
-0.366876
-0.356707
-0.345813
-0.334511
-0.319706
-0.290377
-0.430698
-0.419855
-0.410865
-0.401572
-0.391849
-0.381883
-0.371652
-0.361031
-0.349805
-0.338086
-0.321606
-0.287274
-0.440781
-0.428569
-0.418639
-0.408512
-0.398034
-0.387421
-0.37667
-0.365712
-0.35446
-0.342958
-0.326949
-0.294299
-0.451041
-0.437444
-0.426568
-0.415608
-0.404378
-0.393128
-0.381884
-0.370666
-0.359601
-0.348987
-0.338978
-0.339795
-0.461424
-0.446438
-0.434618
-0.422828
-0.41085
-0.398965
-0.38722
-0.375706
-0.364693
-0.3545
-0.346677
-0.354167
-0.471878
-0.455506
-0.44275
-0.430138
-0.417418
-0.404893
-0.39262
-0.380722
-0.369516
-0.359165
-0.351167
-0.358332
-0.482343
-0.4646
-0.450923
-0.437503
-0.424047
-0.410877
-0.398046
-0.385679
-0.374086
-0.36328
-0.354529
-0.360111
-0.492761
-0.473668
-0.459092
-0.444882
-0.4307
-0.416881
-0.403461
-0.39055
-0.378417
-0.366951
-0.357179
-0.360381
-0.503067
-0.482655
-0.467205
-0.452228
-0.437335
-0.422861
-0.408822
-0.395296
-0.382489
-0.370179
-0.359164
-0.35959
-0.491499
-0.475208
-0.45949
-0.4439
-0.428768
-0.414079
-0.399868
-0.38627
-0.372965
-0.360558
-0.358087
-0.483037
-0.466609
-0.450338
-0.434544
-0.419172
-0.40421
-0.389718
-0.375302
-0.361417
-0.356045
-0.456583
-0.440121
-0.424033
-0.408257
-0.392782
-0.377165
-0.361754
-0.353542
-0.445424
-0.428588
-0.411938
-0.395404
-0.378517
-0.361559
-0.350606
-0.432751
-0.415172
-0.397514
-0.379307
-0.360802
-0.347232
-0.399039
-0.379478
-0.35944
-0.343394
-0.378963
-0.357419
-0.339049
-0.334144
-0.334144
-0.378964
-0.357419
-0.339049
-0.399039
-0.379478
-0.35944
-0.343394
-0.432751
-0.415172
-0.397514
-0.379307
-0.360802
-0.347232
-0.445424
-0.428588
-0.411938
-0.395404
-0.378517
-0.361559
-0.350606
-0.473517
-0.456584
-0.440121
-0.424033
-0.408258
-0.392782
-0.377166
-0.361754
-0.353542
-0.483037
-0.466609
-0.450338
-0.434544
-0.419172
-0.40421
-0.389718
-0.375302
-0.361417
-0.356045
-0.491499
-0.475208
-0.45949
-0.4439
-0.428768
-0.414079
-0.399868
-0.38627
-0.372965
-0.360559
-0.358087
-0.503067
-0.482655
-0.467205
-0.452228
-0.437335
-0.422861
-0.408822
-0.395296
-0.382489
-0.370179
-0.359164
-0.35959
-0.492761
-0.473669
-0.459092
-0.444882
-0.430701
-0.416881
-0.403461
-0.39055
-0.378417
-0.366951
-0.357179
-0.360381
-0.482343
-0.4646
-0.450923
-0.437503
-0.424047
-0.410877
-0.398046
-0.385679
-0.374086
-0.363281
-0.354529
-0.360112
-0.471878
-0.455506
-0.44275
-0.430139
-0.417418
-0.404893
-0.39262
-0.380722
-0.369516
-0.359165
-0.351167
-0.358332
-0.461424
-0.446438
-0.434618
-0.422828
-0.41085
-0.398965
-0.38722
-0.375706
-0.364693
-0.3545
-0.346677
-0.354167
-0.451041
-0.437445
-0.426568
-0.415608
-0.404378
-0.393129
-0.381884
-0.370666
-0.359601
-0.348987
-0.338978
-0.339795
-0.440781
-0.42857
-0.418639
-0.408513
-0.398034
-0.387421
-0.37667
-0.365712
-0.35446
-0.342958
-0.326949
-0.294299
-0.430698
-0.419855
-0.410865
-0.401573
-0.391849
-0.381883
-0.371653
-0.361031
-0.349805
-0.338086
-0.321606
-0.287274
-0.420839
-0.41134
-0.403279
-0.394815
-0.38585
-0.376545
-0.366876
-0.356707
-0.345813
-0.334511
-0.319706
-0.290377
-0.411249
-0.403058
-0.395909
-0.388264
-0.380055
-0.371424
-0.362351
-0.352719
-0.342345
-0.331661
-0.318258
-0.292977
-0.401967
-0.39504
-0.38878
-0.38194
-0.374479
-0.366527
-0.358074
-0.349028
-0.339261
-0.329258
-0.317007
-0.294972
-0.393028
-0.387316
-0.381915
-0.375859
-0.369134
-0.361858
-0.354035
-0.345601
-0.336483
-0.327192
-0.316027
-0.296813
-0.384461
-0.379909
-0.375335
-0.370036
-0.364028
-0.357419
-0.350224
-0.342411
-0.333953
-0.325366
-0.315207
-0.298429
-0.376292
-0.372842
-0.369057
-0.364485
-0.35917
-0.353208
-0.346632
-0.339432
-0.331622
-0.323702
-0.314443
-0.29973
-0.368543
-0.366134
-0.363098
-0.359219
-0.354567
-0.349228
-0.343249
-0.336643
-0.329453
-0.322149
-0.313682
-0.300712
-0.361235
-0.359805
-0.357474
-0.35425
-0.350225
-0.34548
-0.34007
-0.33403
-0.327421
-0.320677
-0.312905
-0.301406
-0.354384
-0.353874
-0.352198
-0.34959
-0.346155
-0.341966
-0.337093
-0.331581
-0.32551
-0.319268
-0.312105
-0.301848
-0.348011
-0.348352
-0.347293
-0.345252
-0.342364
-0.338693
-0.334317
-0.329294
-0.323711
-0.317915
-0.311284
-0.302077
-0.342133
-0.34326
-0.342767
-0.341248
-0.338862
-0.335668
-0.331747
-0.327168
-0.322025
-0.316619
-0.310451
-0.30213
-0.336769
-0.338615
-0.338636
-0.337592
-0.335663
-0.332898
-0.329389
-0.325209
-0.320454
-0.315387
-0.309623
-0.302043
-0.331937
-0.334434
-0.334916
-0.334298
-0.332776
-0.330396
-0.327252
-0.323425
-0.31901
-0.314236
-0.308834
-0.301834
-0.327657
-0.330731
-0.331621
-0.331378
-0.330214
-0.328171
-0.325346
-0.321826
-0.317704
-0.313182
-0.308121
-0.301514
-0.323946
-0.327524
-0.328767
-0.328847
-0.327991
-0.326236
-0.323684
-0.320425
-0.31655
-0.312228
-0.307342
-0.301345
-0.320823
-0.324825
-0.326365
-0.326715
-0.326117
-0.324603
-0.322277
-0.319232
-0.315561
-0.311407
-0.306692
-0.301153
-0.318303
-0.32265
-0.324428
-0.324995
-0.324603
-0.323281
-0.321136
-0.318262
-0.314751
-0.310729
-0.306161
-0.300933
-0.3164
-0.321007
-0.322966
-0.323697
-0.323459
-0.322281
-0.320271
-0.317524
-0.314132
-0.310207
-0.305748
-0.300738
-0.315125
-0.319907
-0.321986
-0.322827
-0.322692
-0.32161
-0.31969
-0.317027
-0.313714
-0.309852
-0.305467
-0.300598
-0.314485
-0.319356
-0.321495
-0.32239
-0.322307
-0.321273
-0.319397
-0.316777
-0.313503
-0.309672
-0.305324
-0.300525
-0.295577
-0.287754
-0.279561
-0.270201
-0.259973
-0.248957
-0.23727
-0.225053
-0.212444
-0.199585
-0.186609
-0.173639
-0.160787
-0.148149
-0.135811
-0.123837
-0.112295
-0.101202
-0.0906401
-0.0805264
-0.071064
-0.0618805
-0.0536498
-0.0451181
-0.0384501
-0.0298275
-0.0256968
-0.01518
-0.0162383
0.000440527
-0.0124529
0.0202173
-0.295977
-0.287993
-0.279782
-0.270398
-0.26015
-0.249118
-0.237418
-0.225189
-0.212571
-0.199703
-0.186719
-0.173742
-0.160883
-0.148238
-0.135894
-0.123914
-0.112365
-0.101267
-0.0906994
-0.0805807
-0.0711135
-0.0619259
-0.053691
-0.0451565
-0.038484
-0.0298609
-0.0257232
-0.0152112
-0.0162551
0.000406785
-0.0124526
0.0201703
-0.296773
-0.288461
-0.280222
-0.270788
-0.2605
-0.249437
-0.237711
-0.22546
-0.212823
-0.199939
-0.186939
-0.173948
-0.161075
-0.148417
-0.136059
-0.124066
-0.112506
-0.101396
-0.0908177
-0.080689
-0.0712123
-0.0620165
-0.0537732
-0.045233
-0.0385516
-0.0299274
-0.025776
-0.0152734
-0.0162884
0.00033951
-0.0124518
0.0200766
-0.297958
-0.289148
-0.280872
-0.271365
-0.261016
-0.249909
-0.238144
-0.225861
-0.213197
-0.200288
-0.187267
-0.174254
-0.161361
-0.148683
-0.136306
-0.124294
-0.112716
-0.101589
-0.0909944
-0.0808507
-0.0713599
-0.0621518
-0.0538959
-0.0453473
-0.0386525
-0.0300267
-0.0258548
-0.0153661
-0.0163381
0.000239117
-0.0124504
0.0199366
-0.299537
-0.290037
-0.281723
-0.272119
-0.26169
-0.250524
-0.238709
-0.226387
-0.213687
-0.200748
-0.187698
-0.174658
-0.161738
-0.149035
-0.136632
-0.124596
-0.112994
-0.101845
-0.0912287
-0.0810651
-0.0715556
-0.0623312
-0.0540586
-0.0454987
-0.0387861
-0.0301582
-0.0259591
-0.0154889
-0.0164038
0.000106222
-0.0124484
0.0197511
-0.301525
-0.291097
-0.282758
-0.273035
-0.262509
-0.251272
-0.239398
-0.227028
-0.214288
-0.201312
-0.188228
-0.175156
-0.162204
-0.14947
-0.137037
-0.124971
-0.113339
-0.102162
-0.0915194
-0.0813311
-0.0717984
-0.0625538
-0.0542603
-0.0456864
-0.0389518
-0.0303212
-0.0260883
-0.0156409
-0.016485
-5.83675e-05
-0.0124455
0.019521
-0.303804
-0.292369
-0.283955
-0.2741
-0.263459
-0.252139
-0.240199
-0.227775
-0.21499
-0.201974
-0.188852
-0.175743
-0.162756
-0.149985
-0.137516
-0.125415
-0.113749
-0.102539
-0.091865
-0.0816475
-0.0720871
-0.0628184
-0.0545001
-0.0459095
-0.0391485
-0.0305147
-0.0262415
-0.0158213
-0.0165812
-0.000253669
-0.0124414
0.0192475
-0.306292
-0.293861
-0.285301
-0.275294
-0.264522
-0.253112
-0.2411
-0.228619
-0.215786
-0.202726
-0.189564
-0.176416
-0.163388
-0.150577
-0.138068
-0.125927
-0.114222
-0.102974
-0.092264
-0.0820128
-0.0724204
-0.0631238
-0.0547767
-0.0461667
-0.0393751
-0.0307376
-0.0264179
-0.016029
-0.0166918
-0.000478534
-0.0124359
0.018932
-0.309089
-0.295488
-0.28677
-0.276597
-0.265681
-0.254174
-0.242087
-0.229547
-0.216665
-0.203562
-0.190357
-0.177167
-0.164096
-0.151242
-0.138689
-0.126503
-0.114755
-0.103465
-0.0927144
-0.0824252
-0.0727967
-0.0634685
-0.0550888
-0.0464569
-0.0396306
-0.0309888
-0.0266164
-0.0162628
-0.0168159
-0.000731671
-0.0124287
0.018576
-0.312158
-0.297238
-0.288341
-0.277988
-0.266917
-0.255308
-0.243144
-0.230547
-0.217617
-0.204471
-0.191224
-0.177991
-0.164876
-0.151975
-0.139375
-0.127142
-0.115346
-0.104009
-0.0932141
-0.0828829
-0.0732142
-0.063851
-0.0554348
-0.0467785
-0.0399135
-0.0312668
-0.0268359
-0.0165213
-0.0169527
-0.00101166
-0.0124194
0.0181813
-0.315459
-0.2991
-0.289988
-0.279444
-0.268209
-0.256496
-0.244258
-0.231606
-0.218631
-0.205445
-0.192158
-0.178882
-0.165722
-0.152773
-0.140123
-0.127838
-0.115992
-0.104605
-0.0937609
-0.0833838
-0.0736711
-0.0642694
-0.0558132
-0.0471299
-0.0402223
-0.0315704
-0.0270752
-0.0168032
-0.0171015
-0.00131697
-0.0124077
0.0177497
-0.318939
-0.301055
-0.291685
-0.28094
-0.269537
-0.257721
-0.245413
-0.232712
-0.219698
-0.206475
-0.19315
-0.179833
-0.166627
-0.15363
-0.140928
-0.12859
-0.116689
-0.105248
-0.0943522
-0.0839257
-0.0741653
-0.0647219
-0.056222
-0.0475096
-0.0405557
-0.0318978
-0.027333
-0.017107
-0.0172613
-0.00164598
-0.0123932
0.0172833
-0.322557
-0.303087
-0.293404
-0.282451
-0.270881
-0.258967
-0.246596
-0.233853
-0.220806
-0.207551
-0.194193
-0.180837
-0.167588
-0.154541
-0.141786
-0.129393
-0.117435
-0.105937
-0.0949856
-0.0845062
-0.0746946
-0.0652065
-0.0566596
-0.0479158
-0.0409118
-0.0322476
-0.0276079
-0.017431
-0.0174312
-0.00199701
-0.0123757
0.0167842
-0.326245
-0.30518
-0.295118
-0.283952
-0.272221
-0.260215
-0.247791
-0.235016
-0.221945
-0.208666
-0.195279
-0.181888
-0.168597
-0.155502
-0.142693
-0.130243
-0.118225
-0.106669
-0.0956583
-0.0851229
-0.0752568
-0.0657211
-0.0571239
-0.0483467
-0.0412891
-0.032618
-0.0278986
-0.0177738
-0.0176101
-0.00236831
-0.0123548
0.0162546
-0.329911
-0.307316
-0.2968
-0.285417
-0.27354
-0.261453
-0.248987
-0.236191
-0.223105
-0.20981
-0.196401
-0.182979
-0.169649
-0.156507
-0.143645
-0.131136
-0.119058
-0.10744
-0.0963676
-0.0857734
-0.0758498
-0.0662637
-0.0576131
-0.0488004
-0.0416859
-0.0330075
-0.0282038
-0.0181336
-0.0177973
-0.00275812
-0.0123302
0.0156968
-0.333424
-0.309475
-0.298425
-0.286818
-0.274818
-0.262666
-0.250172
-0.237368
-0.224278
-0.210976
-0.197552
-0.184105
-0.170739
-0.157551
-0.144637
-0.132069
-0.119929
-0.108247
-0.0971111
-0.0864554
-0.0764714
-0.0668323
-0.0581252
-0.0492752
-0.0421006
-0.0334144
-0.028522
-0.0185088
-0.0179917
-0.00316467
-0.0123017
0.0151132
-0.336594
-0.311621
-0.299967
-0.288128
-0.276036
-0.263839
-0.251334
-0.238536
-0.225455
-0.212156
-0.198724
-0.185258
-0.17186
-0.15863
-0.145663
-0.133038
-0.120835
-0.109087
-0.0978851
-0.0871658
-0.0771186
-0.0674243
-0.058658
-0.0497689
-0.0425311
-0.0338367
-0.0288516
-0.0188978
-0.0181923
-0.00358624
-0.0122689
0.0145059
-0.339109
-0.313667
-0.301396
-0.289316
-0.277176
-0.26496
-0.252462
-0.239683
-0.226622
-0.213336
-0.199905
-0.186426
-0.173001
-0.159732
-0.146716
-0.134033
-0.121766
-0.109953
-0.0986835
-0.0878989
-0.0777866
-0.0680355
-0.0592076
-0.0502784
-0.0429747
-0.0342722
-0.0291906
-0.0192987
-0.0183977
-0.00402101
-0.0122314
0.0138774
-0.340521
-0.31555
-0.302732
-0.290381
-0.278234
-0.26603
-0.253555
-0.240809
-0.22778
-0.214516
-0.201093
-0.187607
-0.174161
-0.160856
-0.147793
-0.135053
-0.122723
-0.110843
-0.0995051
-0.0886536
-0.0784743
-0.0686646
-0.059773
-0.0508023
-0.0434305
-0.0347195
-0.0295386
-0.0197098
-0.0186082
-0.00446661
-0.0121904
0.0132302
-0.340495
-0.317334
-0.30405
-0.291367
-0.279242
-0.267081
-0.25465
-0.241954
-0.22897
-0.215739
-0.202334
-0.188849
-0.175386
-0.162048
-0.148937
-0.136138
-0.123742
-0.111791
-0.100379
-0.0894554
-0.0792035
-0.0693295
-0.0603692
-0.0513518
-0.0439082
-0.035184
-0.0299018
-0.020132
-0.0188283
-0.0049207
-0.0121496
0.0125673
-0.337989
-0.318295
-0.3051
-0.292144
-0.280106
-0.268052
-0.255706
-0.243089
-0.230177
-0.217003
-0.203636
-0.190167
-0.176698
-0.163333
-0.150178
-0.137321
-0.124855
-0.112827
-0.101334
-0.0903296
-0.0799963
-0.0700496
-0.0610119
-0.0519403
-0.0444171
-0.0356741
-0.0302838
-0.0205702
-0.0190568
-0.00538646
-0.0121043
0.0118881
-0.326298
-0.315653
-0.305065
-0.292182
-0.280385
-0.268533
-0.256317
-0.243802
-0.230979
-0.217878
-0.204567
-0.191135
-0.177684
-0.16432
-0.151148
-0.138261
-0.125754
-0.113677
-0.102129
-0.0910702
-0.0806755
-0.0706797
-0.0615763
-0.0524746
-0.044871
-0.0361397
-0.0306217
-0.0210104
-0.019242
-0.00587827
-0.0120102
0.0111844
-0.291856
-0.308528
-0.304782
-0.29235
-0.280806
-0.269122
-0.256945
-0.244412
-0.23155
-0.218403
-0.205045
-0.191572
-0.178087
-0.164697
-0.151506
-0.138607
-0.126093
-0.114016
-0.102465
-0.0914152
-0.0810155
-0.0710416
-0.0619159
-0.0528633
-0.0451908
-0.0365712
-0.030878
-0.021517
-0.0193533
-0.00652512
-0.0117998
0.0102762
-0.280219
-0.299773
-0.299309
-0.287695
-0.276871
-0.265862
-0.254187
-0.242068
-0.229579
-0.21677
-0.203722
-0.19053
-0.177299
-0.164134
-0.15114
-0.138411
-0.126038
-0.114081
-0.102626
-0.091657
-0.0813103
-0.0713946
-0.0622807
-0.0532861
-0.0455694
-0.0370487
-0.0312074
-0.0220689
-0.0195339
-0.0072294
-0.0116125
0.00921338
-0.275287
-0.291744
-0.292392
-0.28163
-0.271502
-0.261211
-0.250134
-0.238533
-0.226521
-0.214156
-0.20152
-0.188709
-0.175826
-0.162975
-0.150261
-0.137777
-0.125617
-0.113841
-0.102534
-0.0916936
-0.0814414
-0.071616
-0.0625455
-0.0536274
-0.0458934
-0.0374758
-0.0315159
-0.0225871
-0.019719
-0.00790916
-0.0114457
0.00813741
-0.271427
-0.28377
-0.285064
-0.275293
-0.265779
-0.256159
-0.2457
-0.234644
-0.223137
-0.211243
-0.199046
-0.186643
-0.174134
-0.161623
-0.149213
-0.136999
-0.125072
-0.113499
-0.102361
-0.0916652
-0.081523
-0.0718009
-0.0627854
-0.0539526
-0.0462091
-0.0379002
-0.031825
-0.0231114
-0.0199052
-0.00860414
-0.0112678
0.00702423
-0.267239
-0.275625
-0.277101
-0.268384
-0.25949
-0.250536
-0.240738
-0.230281
-0.219332
-0.20796
-0.196249
-0.184296
-0.172201
-0.160067
-0.147995
-0.13608
-0.124415
-0.113067
-0.102119
-0.0915855
-0.0815686
-0.0719612
-0.0630113
-0.0542701
-0.0465242
-0.0383264
-0.0321394
-0.0236424
-0.0200945
-0.00931272
-0.0110787
0.00587955
-0.262064
-0.267104
-0.268319
-0.26066
-0.252448
-0.244181
-0.235096
-0.225304
-0.214976
-0.204188
-0.193024
-0.181577
-0.169948
-0.158237
-0.146546
-0.13497
-0.123601
-0.11251
-0.101778
-0.0914294
-0.0815575
-0.0720796
-0.0632093
-0.0545677
-0.0468295
-0.0387445
-0.0324537
-0.024171
-0.0202853
-0.0100245
-0.0108838
0.00471773
-0.255467
-0.257954
-0.258652
-0.252041
-0.244602
-0.237057
-0.228734
-0.219669
-0.210025
-0.199885
-0.189326
-0.178444
-0.167334
-0.156097
-0.144834
-0.133638
-0.122603
-0.111803
-0.101316
-0.0911778
-0.081473
-0.0721418
-0.0633671
-0.0548346
-0.0471161
-0.0391463
-0.032762
-0.0246899
-0.020475
-0.0107309
-0.0106869
0.00355356
-0.247188
-0.247975
-0.248091
-0.242506
-0.235935
-0.22916
-0.22164
-0.21336
-0.204461
-0.195027
-0.185134
-0.174871
-0.164335
-0.153622
-0.142833
-0.132062
-0.1214
-0.110925
-0.100717
-0.0908153
-0.0813017
-0.0721359
-0.0634745
-0.0550617
-0.0473765
-0.0395246
-0.0330588
-0.0251925
-0.020661
-0.0114244
-0.0104916
0.00240258
-0.237164
-0.237054
-0.236664
-0.232075
-0.226455
-0.220502
-0.213824
-0.206377
-0.198277
-0.189604
-0.18043
-0.170841
-0.16093
-0.150792
-0.140524
-0.13022
-0.119973
-0.10986
-0.0999627
-0.0903267
-0.0810297
-0.0720497
-0.0635206
-0.0552396
-0.0476024
-0.039872
-0.0333383
-0.0256723
-0.0208404
-0.0120968
-0.0103018
0.00128154
-0.225511
-0.22517
-0.224452
-0.220827
-0.216214
-0.211129
-0.205324
-0.198747
-0.191487
-0.18362
-0.175213
-0.166346
-0.157107
-0.147591
-0.137889
-0.128097
-0.118304
-0.108591
-0.0990375
-0.089697
-0.0806434
-0.0718709
-0.0634945
-0.0553585
-0.0477854
-0.0401806
-0.0335945
-0.0261226
-0.0210103
-0.0127401
-0.0101217
0.000207806
-0.212481
-0.212405
-0.211589
-0.20889
-0.205304
-0.201123
-0.196206
-0.190524
-0.184132
-0.177104
-0.169499
-0.161394
-0.152869
-0.144015
-0.134922
-0.12568
-0.11638
-0.107103
-0.0979277
-0.0889126
-0.0801299
-0.0715875
-0.0633852
-0.0554087
-0.0479168
-0.0404428
-0.033821
-0.0265368
-0.0211679
-0.0133462
-0.0099554
-0.00080143
-0.198434
-0.198934
-0.19825
-0.196436
-0.193862
-0.190594
-0.186569
-0.181778
-0.176275
-0.170105
-0.163327
-0.15601
-0.148231
-0.140073
-0.131623
-0.122968
-0.114196
-0.105388
-0.0966232
-0.0879632
-0.0794785
-0.0711895
-0.063183
-0.0553815
-0.0479888
-0.0406517
-0.0340122
-0.026909
-0.0213104
-0.0139078
-0.00980685
-0.00173016
-0.183777
-0.185
-0.184643
-0.183663
-0.18205
-0.179681
-0.176534
-0.172629
-0.168002
-0.162692
-0.156749
-0.150236
-0.143223
-0.135785
-0.128005
-0.119966
-0.111752
-0.103444
-0.0951191
-0.0868418
-0.0786815
-0.0706686
-0.0628799
-0.0552694
-0.0479941
-0.040801
-0.0341626
-0.0272339
-0.0214355
-0.0144182
-0.00967926
-0.00256451
-0.168918
-0.170878
-0.170984
-0.170776
-0.170046
-0.168536
-0.166234
-0.163184
-0.159412
-0.154949
-0.149837
-0.144129
-0.137889
-0.131185
-0.124093
-0.116691
-0.109059
-0.101275
-0.0934159
-0.0855464
-0.0777347
-0.0700198
-0.0624702
-0.0550666
-0.0479273
-0.0408857
-0.0342679
-0.0275073
-0.0215412
-0.0148721
-0.00957496
-0.00329377
-0.154219
-0.156844
-0.157479
-0.157971
-0.15803
-0.157314
-0.155809
-0.153568
-0.150615
-0.146972
-0.142671
-0.137757
-0.132285
-0.126317
-0.11992
-0.113168
-0.106134
-0.0988938
-0.0915203
-0.0840798
-0.0766383
-0.0692413
-0.0619506
-0.0547697
-0.0477844
-0.0409022
-0.0343248
-0.0277261
-0.0216262
-0.0152657
-0.00949504
-0.00391127
-0.139968
-0.143139
-0.144313
-0.145421
-0.146165
-0.146165
-0.145394
-0.143906
-0.141724
-0.13886
-0.135337
-0.131193
-0.126473
-0.121232
-0.115529
-0.109429
-0.103002
-0.0963174
-0.0894451
-0.0824503
-0.0753969
-0.0683352
-0.0613214
-0.0543778
-0.0475636
-0.0408489
-0.0343313
-0.0278887
-0.0216894
-0.0155966
-0.00943915
-0.00441486
-0.126376
-0.129958
-0.131633
-0.13327
-0.134594
-0.135223
-0.135113
-0.134314
-0.132845
-0.130709
-0.127923
-0.124516
-0.120522
-0.115989
-0.110967
-0.105515
-0.0996947
-0.0935706
-0.0872083
-0.0806708
-0.0740192
-0.067307
-0.0605857
-0.0538923
-0.0472652
-0.0407257
-0.0342868
-0.0279947
-0.0217304
-0.0158647
-0.00940567
-0.00480681
-0.113576
-0.117441
-0.119554
-0.121631
-0.123435
-0.124603
-0.125077
-0.124897
-0.124076
-0.122613
-0.120514
-0.1178
-0.114499
-0.110647
-0.106287
-0.101469
-0.0962478
-0.0906825
-0.0848328
-0.0787587
-0.0725181
-0.0661661
-0.0597496
-0.0533177
-0.0468917
-0.0405343
-0.0341921
-0.0280449
-0.0217491
-0.0160713
-0.0093919
-0.0050936
-0.101642
-0.105678
-0.108153
-0.110585
-0.112778
-0.114398
-0.115377
-0.115744
-0.115506
-0.114654
-0.113189
-0.111121
-0.108471
-0.105265
-0.10154
-0.0973358
-0.0927004
-0.0876854
-0.082345
-0.0767353
-0.0709101
-0.0649248
-0.0588224
-0.0526603
-0.0464476
-0.0402781
-0.0340491
-0.0280418
-0.0217458
-0.0162194
-0.00939414
-0.00528533
-0.0906016
-0.0947219
-0.0974815
-0.100191
-0.102691
-0.104682
-0.106091
-0.106934
-0.10721
-0.106908
-0.106018
-0.104545
-0.102501
-0.0999036
-0.0967801
-0.0931636
-0.0890934
-0.0846143
-0.0797742
-0.0746244
-0.0692144
-0.0635983
-0.0578156
-0.0519292
-0.0459392
-0.0399621
-0.0338608
-0.0279886
-0.0217208
-0.0163135
-0.00940806
-0.00539481
-0.0804567
-0.0845936
-0.0875681
-0.0904878
-0.0932234
-0.0955121
-0.0972798
-0.0985299
-0.0992561
-0.0994401
-0.0990683
-0.0981369
-0.0966497
-0.0946177
-0.0920591
-0.0889989
-0.0854688
-0.081506
-0.077152
-0.0724526
-0.0674528
-0.0622042
-0.056743
-0.0511351
-0.0453746
-0.0395928
-0.0336315
-0.0278898
-0.0216751
-0.0163592
-0.00942906
-0.00543641
-0.0711921
-0.075297
-0.0784263
-0.0814985
-0.0844095
-0.0869325
-0.0889939
-0.0905873
-0.0917004
-0.0923105
-0.0923987
-0.0919544
-0.0909744
-0.0894622
-0.0874279
-0.084889
-0.0818691
-0.0783984
-0.0745115
-0.0702484
-0.0656492
-0.0607623
-0.0556206
-0.0502907
-0.0447634
-0.0391779
-0.033366
-0.0277507
-0.0216096
-0.0163628
-0.00945271
-0.00542495
-0.062786
-0.0668255
-0.0700603
-0.0732377
-0.076274
-0.0789764
-0.0812738
-0.0831521
-0.0845936
-0.085572
-0.0860639
-0.0860529
-0.0855293
-0.0844896
-0.0829368
-0.0808808
-0.0783379
-0.0753308
-0.0718876
-0.0680424
-0.0638298
-0.0592946
-0.0544663
-0.0494106
-0.0441168
-0.0387265
-0.0330704
-0.0275774
-0.0215258
-0.0163312
-0.00947513
-0.00537458
-0.0552148
-0.0591675
-0.0624689
-0.0657139
-0.0688349
-0.0716704
-0.0741536
-0.0762645
-0.0779807
-0.0792733
-0.080115
-0.0804847
-0.0803668
-0.0797517
-0.0786359
-0.077022
-0.0749195
-0.0723441
-0.0693173
-0.065867
-0.0620229
-0.057825
-0.0533002
-0.0485112
-0.0434476
-0.038249
-0.0327517
-0.0273768
-0.0214259
-0.0162714
-0.00949333
-0.005298
-0.0484571
-0.0523109
-0.0556493
-0.0589326
-0.0621062
-0.065037
-0.0676633
-0.0699606
-0.0719032
-0.0734599
-0.0746007
-0.0753003
-0.0755384
-0.0752999
-0.0745753
-0.073361
-0.0716597
-0.0694807
-0.0668392
-0.0637571
-0.0602589
-0.05638
-0.0521443
-0.047611
-0.0427705
-0.0377574
-0.0324182
-0.0271566
-0.0213128
-0.0161903
-0.00950545
-0.00520591
-0.0424959
-0.046246
-0.0495997
-0.0528997
-0.0561014
-0.059097
-0.0618307
-0.0642746
-0.0664007
-0.0681761
-0.0695687
-0.07055
-0.0710957
-0.0711861
-0.0708063
-0.0699475
-0.0686061
-0.0667853
-0.0644943
-0.0617497
-0.0585708
-0.0549883
-0.0510231
-0.0467303
-0.0421018
-0.037265
-0.0320794
-0.0269255
-0.0211905
-0.0160949
-0.00951086
-0.00510679
-0.0373205
-0.0409683
-0.044322
-0.0476234
-0.0508355
-0.0538724
-0.0566842
-0.0592411
-0.061513
-0.0634661
-0.0650669
-0.0662845
-0.0670913
-0.0674635
-0.0673813
-0.0668334
-0.0658083
-0.0643047
-0.0623265
-0.0598847
-0.0569943
-0.0536811
-0.0499634
-0.0458918
-0.0414599
-0.036787
-0.0317465
-0.0266929
-0.0210641
-0.0159921
-0.00951018
-0.00500703
-0.0329277
-0.0364799
-0.0398242
-0.0431173
-0.0463278
-0.0493886
-0.0522554
-0.0548971
-0.0572823
-0.0593766
-0.0611456
-0.0625567
-0.06358
-0.0641886
-0.0643601
-0.0640737
-0.0633191
-0.0620889
-0.060382
-0.0582047
-0.0555676
-0.0524923
-0.0489945
-0.0451202
-0.0408652
-0.03634
-0.031432
-0.0264692
-0.0209401
-0.0158884
-0.00950509
-0.00491121
-0.0293271
-0.0327942
-0.0361241
-0.0394038
-0.0426058
-0.0456782
-0.048582
-0.0512853
-0.0537557
-0.0559586
-0.0578592
-0.0594236
-0.0606199
-0.0614189
-0.0617946
-0.0617251
-0.0611942
-0.0601911
-0.0587107
-0.0567554
-0.0543319
-0.0514583
-0.0481479
-0.0444426
-0.0403398
-0.0359421
-0.0311498
-0.0262658
-0.0208255
-0.0157908
-0.00949787
-0.00482246
-0.0265365
-0.0299349
-0.0332497
-0.0365155
-0.0397067
-0.0427836
-0.045711
-0.0484569
-0.0509885
-0.053271
-0.0552692
-0.0569487
-0.0582761
-0.0592203
-0.0597534
-0.0598511
-0.0594941
-0.0586684
-0.0573659
-0.0555856
-0.0533314
-0.0506182
-0.0474575
-0.0438877
-0.0399075
-0.0356128
-0.0309148
-0.0260946
-0.0207286
-0.0157065
-0.00949159
-0.00474209
-0.0246059
-0.0279522
-0.0312535
-0.0345069
-0.0376879
-0.0407647
-0.0437055
-0.0464782
-0.0490493
-0.0513844
-0.0534481
-0.0552053
-0.0566219
-0.0576658
-0.0583075
-0.0585209
-0.0582848
-0.057583
-0.0564052
-0.054748
-0.0526133
-0.0500136
-0.0469593
-0.0434859
-0.0395937
-0.0353723
-0.030743
-0.0259675
-0.0206587
-0.015641
-0.00949428
-0.00466803
-0.0235784
-0.0269015
-0.0301972
-0.0334451
-0.0366214
-0.0396985
-0.0426462
-0.0454324
-0.0480239
-0.0503859
-0.0524833
-0.0542807
-0.0557438
-0.0568397
-0.0575381
-0.0578122
-0.0576397
-0.0570032
-0.0558913
-0.0542993
-0.0522281
-0.0496887
-0.0466913
-0.043269
-0.0394247
-0.035241
-0.0306519
-0.0258943
-0.020628
-0.0155938
-0.00952186
-0.00459968
-0.297628
-0.301405
-0.304688
-0.307581
-0.310194
-0.312642
-0.315044
-0.317524
-0.320226
-0.323317
-0.326812
-0.331267
-0.342108
-0.35998
-0.280989
-0.286103
-0.290888
-0.295438
-0.299857
-0.304258
-0.308762
-0.313505
-0.318661
-0.324413
-0.330701
-0.337996
-0.35107
-0.364985
-0.264657
-0.270681
-0.276423
-0.281949
-0.28733
-0.292647
-0.297986
-0.303445
-0.30915
-0.315222
-0.321533
-0.328496
-0.340395
-0.352355
-0.247008
-0.253488
-0.259734
-0.265797
-0.271735
-0.277615
-0.283508
-0.289498
-0.295698
-0.302206
-0.308918
-0.316245
-0.327927
-0.339276
-0.229615
-0.236401
-0.24301
-0.249488
-0.255882
-0.262247
-0.268643
-0.27514
-0.281826
-0.288775
-0.295878
-0.303487
-0.314726
-0.325338
-0.212701
-0.219633
-0.226437
-0.233146
-0.2398
-0.246443
-0.253123
-0.259893
-0.266823
-0.273966
-0.28123
-0.28892
-0.299639
-0.309723
-0.196259
-0.203183
-0.210013
-0.216778
-0.223507
-0.230238
-0.23701
-0.243866
-0.250865
-0.258048
-0.265343
-0.273016
-0.283191
-0.292781
-0.180395
-0.187194
-0.193926
-0.200612
-0.207278
-0.213953
-0.220671
-0.227468
-0.23439
-0.241472
-0.24866
-0.256182
-0.265726
-0.274747
-0.165186
-0.171775
-0.178313
-0.184818
-0.191311
-0.197815
-0.204357
-0.210968
-0.217685
-0.224536
-0.231484
-0.238724
-0.247556
-0.255925
-0.150674
-0.156991
-0.163266
-0.169515
-0.175754
-0.182001
-0.188278
-0.194608
-0.201024
-0.207546
-0.214152
-0.221002
-0.229064
-0.236717
-0.136884
-0.142888
-0.148856
-0.1548
-0.160731
-0.166664
-0.172615
-0.178604
-0.184654
-0.190782
-0.196975
-0.203362
-0.210632
-0.21754
-0.123831
-0.129498
-0.135133
-0.140742
-0.146334
-0.151921
-0.157514
-0.163126
-0.168777
-0.174477
-0.180222
-0.186108
-0.192604
-0.198783
-0.111519
-0.116841
-0.12213
-0.127391
-0.132632
-0.137859
-0.14308
-0.148305
-0.153547
-0.158813
-0.164103
-0.169486
-0.175259
-0.180765
-0.099947
-0.104923
-0.109867
-0.114781
-0.11967
-0.124537
-0.12939
-0.134233
-0.139075
-0.143921
-0.148771
-0.153674
-0.158801
-0.163712
-0.0891093
-0.0937485
-0.0983545
-0.102929
-0.107475
-0.111995
-0.116492
-0.120969
-0.125432
-0.129883
-0.134324
-0.138784
-0.143352
-0.147754
-0.0789946
-0.0833102
-0.0875925
-0.0918423
-0.096061
-0.10025
-0.10441
-0.108544
-0.112654
-0.116742
-0.120809
-0.124872
-0.128966
-0.132939
-0.069588
-0.0735973
-0.0775733
-0.0815164
-0.0854269
-0.0893053
-0.0931522
-0.0969683
-0.100755
-0.104512
-0.108242
-0.111951
-0.115646
-0.119259
-0.0608707
-0.064593
-0.0682826
-0.0719392
-0.0755626
-0.0791528
-0.0827098
-0.0862337
-0.0897245
-0.0931827
-0.0966094
-0.100006
-0.103363
-0.10667
-0.0528219
-0.0562777
-0.0597015
-0.0630926
-0.0664506
-0.0697751
-0.0730657
-0.0763221
-0.0795441
-0.0827318
-0.085886
-0.0890046
-0.092072
-0.0951128
-0.0454174
-0.0486276
-0.0518066
-0.0549535
-0.0580677
-0.0611486
-0.0641957
-0.0672084
-0.0701862
-0.0731293
-0.076038
-0.0789085
-0.0817241
-0.0845296
-0.0386346
-0.0416198
-0.0445746
-0.047498
-0.0503894
-0.0532481
-0.0560732
-0.0588644
-0.0616209
-0.0643427
-0.0670301
-0.0696783
-0.0722719
-0.074866
-0.0324486
-0.035229
-0.0379799
-0.0407002
-0.0433892
-0.0460462
-0.0486703
-0.0512608
-0.0538173
-0.0563396
-0.0588277
-0.0612765
-0.0636729
-0.0660758
-0.0294337
-0.0320001
-0.0345368
-0.037043
-0.0395178
-0.0419606
-0.0443705
-0.0467471
-0.04909
-0.0513992
-0.0536697
-0.0558907
-0.0581204
-0.0242122
-0.026613
-0.028985
-0.0313273
-0.0336391
-0.0359196
-0.0381681
-0.0403839
-0.0425669
-0.0447166
-0.0468286
-0.0488943
-0.0509679
-0.0195474
-0.0218009
-0.0240265
-0.0262232
-0.0283903
-0.0305269
-0.0326323
-0.034706
-0.0367475
-0.0387565
-0.0407289