/*--------------------------------*- C++ -*----------------------------------*\
  =========                 |
  \\      /  F ield         | OpenFOAM: The Open Source CFD Toolbox
   \\    /   O peration     | Website:  https://openfoam.org
    \\  /    A nd           | Version:  7
     \\/     M anipulation  |
\*---------------------------------------------------------------------------*/
FoamFile
{
    version     2.0;
    format      ascii;
    class       surfaceScalarField;
    location    "10";
    object      phi;
}
// * * * * * * * * * * * * * * * * * * * * * * * * * * * * * * * * * * * * * //

dimensions      [0 3 -1 0 0 0 0];

internalField   nonuniform List<scalar> 
10040
(
-2.69537e-06
2.69537e-06
1.85703e-12
-9.46109e-06
6.76572e-06
6.3711e-13
-1.9417e-05
9.95592e-06
-5.03317e-12
-3.17106e-05
1.22936e-05
-1.47508e-11
-4.55262e-05
1.38155e-05
-2.80469e-11
-6.01079e-05
1.45818e-05
-4.46969e-11
-7.47884e-05
1.46806e-05
-6.45372e-11
-8.90273e-05
1.42389e-05
-8.7318e-11
-0.000102462
1.34345e-05
-1.13602e-10
-0.00011496
1.24988e-05
-1.43801e-10
-0.000126634
1.16741e-05
-1.77839e-10
1.13013e-05
-2.16229e-10
-0.000137935
-2.65493e-06
5.35031e-06
-9.3034e-06
1.34142e-05
-1.90606e-05
1.97131e-05
-3.1067e-05
2.43e-05
-4.44966e-05
2.72452e-05
-5.85808e-05
2.8666e-05
-7.26356e-05
2.87353e-05
-8.61007e-05
2.7704e-05
-9.85913e-05
2.5925e-05
-0.000109955
2.38627e-05
-0.000120288
2.20072e-05
2.10431e-05
-0.00013003
-2.57457e-06
7.92488e-06
-8.98978e-06
1.98294e-05
-1.83515e-05
2.90749e-05
-2.97858e-05
3.57343e-05
-4.24472e-05
3.99066e-05
-5.55408e-05
4.17597e-05
-6.83496e-05
4.15442e-05
-8.02737e-05
3.96281e-05
-9.08842e-05
3.65355e-05
-9.9987e-05
3.29655e-05
-0.000107647
2.96673e-05
2.76748e-05
-0.000114279
-2.45531e-06
1.03802e-05
-8.52365e-06
2.58977e-05
-1.72968e-05
3.7848e-05
-2.78794e-05
4.63169e-05
-3.93966e-05
5.14238e-05
-5.10151e-05
5.33781e-05
-6.19685e-05
5.24976e-05
-7.15975e-05
4.9257e-05
-7.94066e-05
4.43446e-05
-8.51378e-05
3.86967e-05
-8.88094e-05
3.33389e-05
2.96619e-05
-9.07964e-05
-2.29858e-06
1.26788e-05
-7.90982e-06
3.1509e-05
-1.59064e-05
4.58445e-05
-2.53647e-05
5.57752e-05
-3.53717e-05
6.14308e-05
-4.50429e-05
6.30493e-05
-5.35472e-05
6.10019e-05
-6.01459e-05
5.58558e-05
-6.42542e-05
4.84528e-05
-6.55273e-05
3.99699e-05
-6.39249e-05
3.17364e-05
2.54926e-05
-5.97556e-05
-2.10613e-06
1.47849e-05
-7.15418e-06
3.6557e-05
-1.41926e-05
5.28829e-05
-2.2263e-05
6.38457e-05
-3.04053e-05
6.9573e-05
-3.76728e-05
7.03169e-05
-4.31545e-05
6.64836e-05
-4.60127e-05
5.8714e-05
-4.55484e-05
4.79886e-05
-4.13018e-05
3.57233e-05
-3.31886e-05
2.36232e-05
1.37808e-05
-2.14768e-05
-1.87987e-06
1.66648e-05
-6.2632e-06
4.09404e-05
-1.2169e-05
5.87887e-05
-1.85978e-05
7.02746e-05
-2.45346e-05
7.55097e-05
-2.89602e-05
7.47425e-05
-3.08696e-05
6.8393e-05
-2.93074e-05
5.71517e-05
-2.34363e-05
4.21176e-05
-1.2633e-05
2.492e-05
3.47011e-06
7.52009e-06
-6.6748e-06
2.39258e-05
-1.62173e-06
1.82865e-05
-5.24352e-06
4.45621e-05
-9.84951e-06
6.33947e-05
-1.43936e-05
7.48187e-05
-1.77985e-05
7.89147e-05
-1.89638e-05
7.59078e-05
-1.67779e-05
6.62071e-05
-1.01505e-05
5.05243e-05
1.91827e-06
3.00488e-05
2.02061e-05
6.63213e-06
4.50624e-05
-1.73362e-05
-3.78844e-05
7.6272e-05
-1.33351e-06
1.962e-05
-4.10138e-06
4.733e-05
-7.24759e-06
6.65409e-05
-9.67393e-06
7.7245e-05
-1.02352e-05
7.94759e-05
-7.74171e-06
7.34143e-05
-9.65434e-07
5.94309e-05
1.13349e-05
3.8224e-05
3.03461e-05
1.10376e-05
5.70518e-05
-2.00736e-05
9.20095e-05
-5.22939e-05
-8.08643e-05
0.000134989
-1.01675e-06
2.06368e-05
-2.84225e-06
4.91555e-05
-4.37501e-06
6.80736e-05
-4.46003e-06
7.733e-05
-1.87915e-06
7.6895e-05
4.65185e-06
6.68833e-05
1.64856e-05
4.75971e-05
3.50274e-05
1.96822e-05
6.16742e-05
-1.56092e-05
9.76568e-05
-5.60562e-05
0.000143765
-9.84024e-05
-0.000136926
0.000199827
-6.72515e-07
2.13093e-05
-1.47052e-06
4.99535e-05
-1.24116e-06
6.78443e-05
1.23069e-06
7.48582e-05
7.24031e-06
7.08854e-05
1.81703e-05
5.59533e-05
3.55023e-05
3.02652e-05
6.0814e-05
-5.62961e-06
9.57321e-05
-5.05273e-05
0.000141773
-0.000102097
0.000200016
-0.000156646
-0.000207319
0.000270409
-3.01369e-07
2.16107e-05
1.44531e-08
4.96377e-05
2.14732e-06
6.57114e-05
7.38529e-06
6.96202e-05
1.71013e-05
6.11694e-05
3.27775e-05
4.02771e-05
5.60252e-05
7.01746e-06
8.85975e-05
-3.82019e-05
0.000132363
-9.42926e-05
0.00018916
-0.000158894
0.000260433
-0.000227919
-0.000293221
0.000346335
9.6099e-08
2.15146e-05
1.60191e-06
4.81319e-05
5.78548e-06
6.15278e-05
1.39958e-05
6.14099e-05
2.76896e-05
4.74756e-05
4.84492e-05
1.95175e-05
7.80125e-05
-2.25458e-05
0.000118303
-7.84923e-05
0.000171433
-0.000147423
0.000239594
-0.000227055
0.00032468
-0.000313004
-0.000395727
0.000427186
5.20112e-07
2.09944e-05
3.30098e-06
4.5351e-05
9.67265e-06
5.51562e-05
2.10581e-05
5.00244e-05
3.8998e-05
2.95357e-05
6.51732e-05
-6.65767e-06
0.000101441
-5.88139e-05
0.000149883
-0.000126934
0.000212843
-0.000210382
0.000292878
-0.000307091
0.000392421
-0.000412548
-0.000515817
0.000512511
9.71583e-07
2.00229e-05
5.10837e-06
4.12142e-05
1.3808e-05
4.64565e-05
2.85706e-05
3.52618e-05
5.10238e-05
7.08251e-06
8.29463e-05
-3.85802e-05
0.000126307
-0.000102174
0.000183321
-0.000183949
0.000256534
-0.000283595
0.000348857
-0.000399414
0.000463339
-0.000527029
-0.000654306
0.000601827
1.45072e-06
1.85721e-05
7.02439e-06
3.56406e-05
1.81903e-05
3.52907e-05
3.65304e-05
1.69217e-05
6.3764e-05
-2.01511e-05
0.000101768
-7.65846e-05
0.000152615
-0.00015302
0.000218628
-0.000249962
0.0003025
-0.000367468
0.000407441
-0.000504355
0.000537152
-0.000656741
-0.000811779
0.000694625
1.95769e-06
1.66144e-05
9.04797e-06
2.85503e-05
2.28155e-05
2.15232e-05
4.49299e-05
-5.19275e-06
7.72087e-05
-5.24299e-05
0.000121633
-0.000121009
0.000180371
-0.000211758
0.000255832
-0.000325423
0.000350787
-0.000462423
0.000468633
-0.000622201
0.000613668
-0.000801775
-0.000988492
0.00079038
2.49205e-06
1.41224e-05
1.11757e-05
1.98667e-05
2.76742e-05
5.02468e-06
5.37514e-05
-3.12699e-05
9.13319e-05
-9.00105e-05
0.00014251
-0.000172187
0.00020956
-0.000278808
0.000294957
-0.00041082
0.000401483
-0.000568948
0.000532561
-0.000753279
0.000692861
-0.000962075
-0.00118423
0.000888596
3.05241e-06
1.107e-05
1.34006e-05
9.51843e-06
3.27491e-05
-1.43238e-05
6.29621e-05
-6.14829e-05
0.000106082
-0.000133131
0.000164334
-0.000230438
0.000240114
-0.000354589
0.00033598
-0.000506686
0.000454678
-0.000687646
0.000599474
-0.000898076
0.00077497
-0.00113757
-0.00139821
0.000988954
3.63626e-06
7.43372e-06
1.57119e-05
-2.55722e-06
3.80133e-05
-3.66252e-05
7.25099e-05
-9.59795e-05
0.000121373
-0.000181993
0.000186976
-0.000296042
0.000271879
-0.000439492
0.000378772
-0.000613578
0.00051041
-0.000819285
0.000669756
-0.00105742
0.00086056
-0.00132837
-0.00162945
0.0010918
4.2399e-06
3.19382e-06
1.80942e-05
-1.64115e-05
4.34294e-05
-6.19605e-05
8.23211e-05
-0.000134871
0.000137074
-0.000236747
0.000210232
-0.000369199
0.000304564
-0.000533823
0.000423013
-0.000732028
0.000568585
-0.000964856
0.000744139
-0.00123298
0.00095126
-0.0015355
-0.00187691
0.00119873
4.85861e-06
-1.66479e-06
2.05284e-05
-3.20813e-05
4.89508e-05
-9.03828e-05
9.23013e-05
-0.000178222
0.000153015
-0.00029746
0.000233805
-0.00044999
0.000337689
-0.000637707
0.000468011
-0.00086235
0.000628508
-0.00112535
0.000823319
-0.00142779
0.00105368
-0.00176585
-0.00213352
0.00131028
5.48719e-06
-7.15198e-06
2.29935e-05
-4.95876e-05
5.4525e-05
-0.000121914
0.000102343
-0.00022604
0.00016899
-0.000364107
0.000257323
-0.000538323
0.000370573
-0.000750957
0.000512488
-0.00100426
0.000687709
-0.00130057
0.000902895
-0.00164297
0.0011731
-0.00203605
-0.00251305
0.00155263
6.12016e-06
-1.32721e-05
2.54674e-05
-6.89348e-05
6.00976e-05
-0.000156545
0.000112334
-0.000278276
0.000184787
-0.00043656
0.000280388
-0.000633924
0.000402453
-0.000873022
0.000554847
-0.00115666
0.000742373
-0.0014881
0.000971702
-0.0018723
0.00125429
-0.00231864
-0.00285771
0.00159895
6.75279e-06
-2.00249e-05
2.79303e-05
-9.01123e-05
6.56195e-05
-0.000194234
0.000122173
-0.00033483
0.00020022
-0.000514607
0.000302674
-0.000736377
0.000432767
-0.00100312
0.000594131
-0.00131802
0.000790949
-0.00168492
0.00102807
-0.00210943
0.00131091
-0.00260147
-0.00318385
0.00163705
7.38125e-06
-2.74062e-05
3.03656e-05
-0.000113097
7.10489e-05
-0.000234917
0.000131779
-0.00039556
0.000215145
-0.000597973
0.000323955
-0.000845187
0.000461206
-0.00114037
0.000630052
-0.00148687
0.000833688
-0.00188856
0.00107491
-0.00235065
0.0013549
-0.00288146
-0.00349635
0.00166739
8.00268e-06
-3.54089e-05
3.27599e-05
-0.000137854
7.63526e-05
-0.00027851
0.000141087
-0.000460295
0.000229459
-0.000686345
0.000344091
-0.000959819
0.00048764
-0.00128392
0.000662645
-0.00166187
0.000871239
-0.00209715
0.00111446
-0.00259387
0.00139083
-0.00315783
-0.00379815
0.00169264
8.61505e-06
3.51028e-05
-0.000164342
8.15039e-05
-0.000324911
0.000150048
-0.000528839
0.000243087
-0.000779384
0.000362996
-0.00107973
0.000512016
-0.00143294
0.000692024
-0.00184188
0.000904133
-0.00230926
0.00114796
-0.0028377
0.00142041
-0.00343027
-0.00409108
0.00171334
3.73853e-05
8.64803e-05
-0.000374006
0.000158619
-0.000600978
0.000255969
-0.000876733
0.000380602
-0.00120436
0.000534303
-0.00158664
0.000718271
-0.00202585
0.000932694
-0.00252368
0.00117607
-0.00308107
0.00144423
-0.00369844
-0.00437587
0.00172902
9.126e-05
0.000166762
0.000268045
-0.000978016
0.000396843
-0.00133316
0.00055445
-0.00174424
0.000741399
-0.0022128
0.00095704
-0.00273932
0.00119896
-0.003323
0.0014623
-0.00396178
-0.00465251
0.00173894
0.000279251
0.000411636
-0.00146555
0.000572372
-0.00190498
0.000761339
-0.00240177
0.00097713
-0.00295511
0.00121659
-0.00356245
0.00147433
-0.00421952
-0.0049205
0.00174233
0.000424881
0.000587948
-0.00206805
0.000777959
-0.00259178
0.00099281
-0.00316996
0.00122871
-0.00379836
0.00147991
-0.00447072
-0.00517907
0.00173848
0.000601027
0.000791079
0.00100387
-0.00338275
0.00123507
-0.00402956
0.00147865
-0.0047143
-0.00542726
0.00172683
0.00101007
0.00123538
-0.00425486
0.0014702
-0.00494912
-0.00566403
0.00170697
0.00122941
0.00145431
-0.00588837
0.00167866
0.00164181
0.00588837
0.00164181
0.00122941
0.00425486
0.00145431
0.00494912
0.00566403
0.00167866
0.00101007
0.00338276
0.00123538
0.00402956
0.0014702
0.0047143
0.00542726
0.00170697
0.000601027
0.00206805
0.000791079
0.00259178
0.00100387
0.00316996
0.00123507
0.00379836
0.00147865
0.00447072
0.00517907
0.00172683
0.000424881
0.00146555
0.000587948
0.00190498
0.000777959
0.00240177
0.00099281
0.00295511
0.00122871
0.00356245
0.00147991
0.00421952
0.0049205
0.00173848
0.000174432
0.00067648
0.000279251
0.000978016
0.000411636
0.00133316
0.000572372
0.00174424
0.000761339
0.0022128
0.00097713
0.00273932
0.00121659
0.003323
0.00147433
0.00396178
0.00465251
0.00174233
9.126e-05
0.000374006
0.000166762
0.000600978
0.000268045
0.000876733
0.000396843
0.00120436
0.00055445
0.00158664
0.000741399
0.00202585
0.00095704
0.00252368
0.00119896
0.00308107
0.0014623
0.00369844
0.00437587
0.00173894
3.73854e-05
0.000164342
8.64803e-05
0.000324911
0.000158619
0.000528839
0.000255969
0.000779384
0.000380603
0.00107973
0.000534303
0.00143294
0.000718271
0.00184188
0.000932694
0.00230926
0.00117607
0.0028377
0.00144423
0.00343027
0.00409108
0.00172902
8.61505e-06
3.54089e-05
3.51028e-05
0.000137854
8.15039e-05
0.00027851
0.000150048
0.000460295
0.000243087
0.000686345
0.000362996
0.000959819
0.000512016
0.00128392
0.000692024
0.00166187
0.000904134
0.00209715
0.00114796
0.00259387
0.00142041
0.00315783
0.00379815
0.00171334
8.00268e-06
2.74062e-05
3.27599e-05
0.000113097
7.63526e-05
0.000234917
0.000141087
0.00039556
0.000229459
0.000597973
0.000344091
0.000845187
0.00048764
0.00114037
0.000662645
0.00148687
0.000871239
0.00188856
0.00111446
0.00235065
0.00139083
0.00288146
0.00349635
0.00169264
7.38125e-06
2.0025e-05
3.03656e-05
9.01124e-05
7.10489e-05
0.000194234
0.000131779
0.00033483
0.000215145
0.000514607
0.000323955
0.000736378
0.000461206
0.00100312
0.000630052
0.00131802
0.000833688
0.00168492
0.00107491
0.00210943
0.0013549
0.00260147
0.00318385
0.00166739
6.7528e-06
1.32722e-05
2.79303e-05
6.89349e-05
6.56195e-05
0.000156545
0.000122173
0.000278276
0.00020022
0.000436561
0.000302674
0.000633924
0.000432767
0.000873022
0.000594131
0.00115666
0.000790949
0.0014881
0.00102807
0.0018723
0.00131091
0.00231864
0.00285771
0.00163705
6.12016e-06
7.15202e-06
2.54674e-05
4.95877e-05
6.00976e-05
0.000121914
0.000112334
0.00022604
0.000184787
0.000364107
0.000280388
0.000538323
0.000402453
0.000750957
0.000554847
0.00100426
0.000742373
0.00130057
0.000971702
0.00164297
0.00125429
0.00203605
0.00251305
0.00159895
5.48719e-06
1.66482e-06
2.29935e-05
3.20814e-05
5.4525e-05
9.03829e-05
0.000102343
0.000178222
0.00016899
0.00029746
0.000257323
0.00044999
0.000370573
0.000637708
0.000512488
0.00086235
0.000687709
0.00112535
0.000902895
0.00142779
0.0011731
0.00176585
0.00213352
0.00155263
4.85861e-06
-3.19379e-06
2.05284e-05
1.64116e-05
4.89508e-05
6.19606e-05
9.23013e-05
0.000134871
0.000153015
0.000236747
0.000233805
0.000369199
0.00033769
0.000533824
0.000468011
0.000732028
0.000628508
0.000964857
0.000823319
0.00123298
0.00105368
0.0015355
0.00187691
0.00131028
4.2399e-06
-7.43369e-06
1.80942e-05
2.55729e-06
4.34295e-05
3.66253e-05
8.23211e-05
9.59796e-05
0.000137074
0.000181994
0.000210232
0.000296042
0.000304564
0.000439492
0.000423013
0.000613579
0.000568585
0.000819285
0.000744139
0.00105742
0.00095126
0.00132837
0.00162945
0.00119873
3.63626e-06
-1.107e-05
1.57119e-05
-9.51837e-06
3.80133e-05
1.43239e-05
7.25099e-05
6.1483e-05
0.000121373
0.000133131
0.000186976
0.000230439
0.000271879
0.000354589
0.000378772
0.000506686
0.00051041
0.000687647
0.000669756
0.000898076
0.00086056
0.00113757
0.00139821
0.0010918
3.05241e-06
-1.41224e-05
1.34007e-05
-1.98666e-05
3.27491e-05
-5.02459e-06
6.29621e-05
3.12701e-05
0.000106082
9.00106e-05
0.000164334
0.000172187
0.000240114
0.000278808
0.00033598
0.00041082
0.000454678
0.000568949
0.000599474
0.00075328
0.00077497
0.000962075
0.00118423
0.000988954
2.49205e-06
-1.66144e-05
1.11757e-05
-2.85502e-05
2.76742e-05
-2.15231e-05
5.37514e-05
5.19287e-06
9.1332e-05
5.243e-05
0.00014251
0.000121009
0.00020956
0.000211759
0.000294957
0.000325423
0.000401483
0.000462423
0.000532561
0.000622201
0.000692861
0.000801775
0.000988492
0.000888596
1.9577e-06
-1.85721e-05
9.04797e-06
-3.56405e-05
2.28155e-05
-3.52906e-05
4.49299e-05
-1.69216e-05
7.72087e-05
2.01512e-05
0.000121633
7.65848e-05
0.000180371
0.00015302
0.000255832
0.000249962
0.000350787
0.000367468
0.000468633
0.000504355
0.000613668
0.000656741
0.000811779
0.00079038
1.45072e-06
-2.00228e-05
7.02439e-06
-4.12142e-05
1.81903e-05
-4.64565e-05
3.65304e-05
-3.52617e-05
6.37641e-05
-7.08238e-06
0.000101769
3.85803e-05
0.000152615
0.000102174
0.000218628
0.000183949
0.0003025
0.000283596
0.000407441
0.000399414
0.000537152
0.00052703
0.000654306
0.000694625
9.71585e-07
-2.09944e-05
5.10838e-06
-4.5351e-05
1.3808e-05
-5.51561e-05
2.85706e-05
-5.00243e-05
5.10238e-05
-2.95356e-05
8.29463e-05
6.65782e-06
0.000126307
5.88141e-05
0.000183321
0.000126934
0.000256534
0.000210383
0.000348857
0.000307091
0.000463339
0.000412548
0.000515817
0.000601827
5.20114e-07
-2.15145e-05
3.30099e-06
-4.81318e-05
9.67266e-06
-6.15278e-05
2.10582e-05
-6.14098e-05
3.8998e-05
-4.74755e-05
6.51732e-05
-1.95174e-05
0.000101441
2.2546e-05
0.000149883
7.84926e-05
0.000212843
0.000147423
0.000292878
0.000227056
0.000392421
0.000313005
0.000395728
0.000512511
9.61007e-08
-2.16106e-05
1.60192e-06
-4.96377e-05
5.78549e-06
-6.57114e-05
1.39958e-05
-6.96202e-05
2.76896e-05
-6.11693e-05
4.84492e-05
-4.0277e-05
7.80125e-05
-7.01729e-06
0.000118303
3.82021e-05
0.000171433
9.42929e-05
0.000239594
0.000158894
0.00032468
0.000227919
0.000293221
0.000427186
-3.01368e-07
-2.13093e-05
1.44581e-08
-4.99535e-05
2.14733e-06
-6.78442e-05
7.38531e-06
-7.48581e-05
1.71013e-05
-7.08853e-05
3.27775e-05
-5.59532e-05
5.60252e-05
-3.0265e-05
8.85975e-05
5.62981e-06
0.000132363
5.05275e-05
0.00018916
0.000102097
0.000260433
0.000156646
0.000207319
0.000346335
-6.72513e-07
-2.06368e-05
-1.47052e-06
-4.91555e-05
-1.24115e-06
-6.80736e-05
1.2307e-06
-7.733e-05
7.24034e-06
-7.68949e-05
1.81703e-05
-6.68832e-05
3.55023e-05
-4.7597e-05
6.08141e-05
-1.9682e-05
9.57321e-05
1.56095e-05
0.000141773
5.60565e-05
0.000200016
9.84028e-05
0.000136926
0.000270409
-1.01675e-06
-1.962e-05
-2.84224e-06
-4.733e-05
-4.375e-06
-6.65408e-05
-4.46001e-06
-7.7245e-05
-1.87913e-06
-7.94758e-05
4.65188e-06
-7.34142e-05
1.64856e-05
-5.94307e-05
3.50274e-05
-3.82238e-05
6.16743e-05
-1.10374e-05
9.76569e-05
2.00739e-05
0.000143765
5.22943e-05
8.08647e-05
0.000199827
-1.33351e-06
-1.82865e-05
-4.10138e-06
-4.45621e-05
-7.24758e-06
-6.33946e-05
-9.67392e-06
-7.48186e-05
-1.02351e-05
-7.89146e-05
-7.74168e-06
-7.59076e-05
-9.65403e-07
-6.6207e-05
1.13349e-05
-5.05241e-05
3.03461e-05
-3.00486e-05
5.70518e-05
-6.63183e-06
9.20096e-05
1.73366e-05
3.78848e-05
0.000134989
-1.62173e-06
-1.66648e-05
-5.24352e-06
-4.09403e-05
-9.8495e-06
-5.87886e-05
-1.43936e-05
-7.02745e-05
-1.77985e-05
-7.55097e-05
-1.89638e-05
-7.47424e-05
-1.67779e-05
-6.83928e-05
-1.01504e-05
-5.71515e-05
1.91831e-06
-4.21173e-05
2.02061e-05
-2.49197e-05
4.50624e-05
-7.51973e-06
6.67523e-06
7.6272e-05
-1.87987e-06
-1.47849e-05
-6.2632e-06
-3.6557e-05
-1.21689e-05
-5.28829e-05
-1.85978e-05
-6.38457e-05
-2.45346e-05
-6.95729e-05
-2.89602e-05
-7.03168e-05
-3.08696e-05
-6.64835e-05
-2.93073e-05
-5.87138e-05
-2.34363e-05
-4.79884e-05
-1.2633e-05
-3.5723e-05
3.47014e-06
-2.36229e-05
-1.37804e-05
2.39258e-05
-2.10613e-06
-1.26788e-05
-7.15417e-06
-3.1509e-05
-1.41926e-05
-4.58445e-05
-2.2263e-05
-5.57752e-05
-3.04052e-05
-6.14307e-05
-3.76728e-05
-6.30492e-05
-4.31545e-05
-6.10018e-05
-4.60126e-05
-5.58556e-05
-4.55484e-05
-4.84526e-05
-4.13017e-05
-3.99696e-05
-3.31886e-05
-3.17361e-05
-2.54922e-05
-2.14768e-05
-2.29858e-06
-1.03802e-05
-7.90982e-06
-2.58977e-05
-1.59064e-05
-3.7848e-05
-2.53647e-05
-4.63168e-05
-3.53716e-05
-5.14238e-05
-4.50429e-05
-5.3378e-05
-5.35472e-05
-5.24974e-05
-6.01459e-05
-4.92569e-05
-6.42541e-05
-4.43444e-05
-6.55273e-05
-3.86965e-05
-6.39249e-05
-3.33385e-05
-2.96615e-05
-5.97556e-05
-2.45531e-06
-7.92488e-06
-8.52364e-06
-1.98294e-05
-1.72968e-05
-2.90749e-05
-2.78793e-05
-3.57342e-05
-3.93966e-05
-3.99065e-05
-5.10151e-05
-4.17596e-05
-6.19685e-05
-4.1544e-05
-7.15974e-05
-3.96279e-05
-7.94065e-05
-3.65353e-05
-8.51378e-05
-3.29652e-05
-8.88094e-05
-2.96669e-05
-2.76744e-05
-9.07964e-05
-2.57457e-06
-5.35031e-06
-8.98978e-06
-1.34142e-05
-1.83515e-05
-1.97131e-05
-2.97858e-05
-2.42999e-05
-4.24472e-05
-2.72451e-05
-5.55408e-05
-2.86659e-05
-6.83496e-05
-2.87352e-05
-8.02737e-05
-2.77038e-05
-9.08842e-05
-2.59248e-05
-9.99869e-05
-2.38624e-05
-0.000107647
-2.20069e-05
-2.10427e-05
-0.000114279
-2.65493e-06
-2.69538e-06
-9.3034e-06
-6.76572e-06
-1.90606e-05
-9.95591e-06
-3.1067e-05
-1.22936e-05
-4.44966e-05
-1.38155e-05
-5.85808e-05
-1.45817e-05
-7.26356e-05
-1.46804e-05
-8.61007e-05
-1.42388e-05
-9.85912e-05
-1.34342e-05
-0.000109955
-1.24985e-05
-0.000120288
-1.16738e-05
-1.13009e-05
-0.00013003
-2.69537e-06
-9.46109e-06
-1.9417e-05
-3.17106e-05
-4.55262e-05
-6.01079e-05
-7.47884e-05
-8.90273e-05
-0.000102462
-0.00011496
-0.000126634
-0.000137935
-0.000142358
4.42338e-06
-3.05602e-10
-0.000141876
-4.82026e-07
-3.45874e-10
-0.00013551
-6.36558e-06
-4.30215e-10
-0.000122074
-1.34352e-05
-5.05169e-10
-0.000100996
-2.10778e-05
-5.81316e-10
-7.21585e-05
-2.88367e-05
-6.57625e-10
-3.5762e-05
-3.63957e-05
-7.30496e-10
7.75821e-06
-4.35194e-05
-7.94262e-10
5.7825e-05
-5.0066e-05
-8.43489e-10
0.000113789
-5.5963e-05
-8.72889e-10
0.000174979
-6.1189e-05
-8.74735e-10
0.000240736
-6.57563e-05
-8.45264e-10
0.000310433
-6.96967e-05
-7.76938e-10
0.000383487
-7.30527e-05
-6.66091e-10
0.000459359
-7.58719e-05
-5.10525e-10
0.000537562
-7.82028e-05
-3.08325e-10
0.000617659
-8.00971e-05
-6.20962e-11
0.00069926
-8.16012e-05
2.23239e-10
0.000782036
-8.2776e-05
5.39355e-10
0.000865688
-8.36532e-05
8.71818e-10
0.000950023
-8.43354e-05
1.20351e-09
0.0010348
-8.47783e-05
1.50876e-09
0.00112005
-8.52563e-05
1.76164e-09
0.00120544
-8.53904e-05
1.92849e-09
0.00129157
-8.61339e-05
1.97277e-09
0.00137735
-8.57824e-05
1.87237e-09
0.00146519
-8.78379e-05
1.57812e-09
0.00155098
-8.57937e-05
1.12601e-09
0.00164288
-9.18927e-05
4.16307e-10
0.00172748
-8.46051e-05
-3.06804e-10
0.00182723
-9.97518e-05
-1.36459e-09
-8.71237e-05
-2.21838e-09
-0.000134167
8.56021e-06
-0.00013337
-1.27917e-06
-0.000126709
-1.30264e-05
-0.000113028
-2.71163e-05
-9.1768e-05
-4.23379e-05
-6.28244e-05
-5.77802e-05
-2.64017e-05
-7.28185e-05
1.70665e-05
-8.69876e-05
6.70096e-05
-0.000100009
0.000122788
-0.000111741
0.000183741
-0.000122142
0.000249221
-0.000131236
0.000318611
-0.000139087
0.000391337
-0.000145778
0.000466868
-0.000151403
0.000544722
-0.000156057
0.000624468
-0.000159843
0.000705721
-0.000162854
0.000788153
-0.000165209
0.000871471
-0.000166971
0.00095548
-0.000168345
0.00103994
-0.000169243
0.0011249
-0.000170212
0.00121
-0.000170494
0.00129587
-0.000171998
0.0013814
-0.000171311
0.001469
-0.00017544
0.00155458
-0.000171372
0.00164627
-0.000183584
0.00173071
-0.000169047
0.00183028
-0.000199323
-0.000174166
-0.000117853
1.2134e-05
-0.000116429
-2.70225e-06
-0.000109187
-2.02688e-05
-9.50215e-05
-4.12819e-05
-7.34042e-05
-6.39552e-05
-4.42539e-05
-8.69305e-05
-7.78367e-06
-0.000109289
3.55759e-05
-0.000130347
8.52683e-05
-0.000149701
0.000140673
-0.000167146
0.000201152
-0.000182621
0.000266079
-0.000196163
0.000334857
-0.000207866
0.000406929
-0.00021785
0.000481781
-0.000226254
0.000558942
-0.000233218
0.000637991
-0.000238893
0.000718551
-0.000243414
0.000800303
-0.00024696
0.000882956
-0.000249624
0.000966323
-0.000251712
0.00105017
-0.000253088
0.00113453
-0.000254576
0.00121907
-0.000255035
0.00130441
-0.00025733
0.00138943
-0.00025634
0.00147657
-0.000262578
0.00156173
-0.000256525
0.00165302
-0.00027488
0.00173714
-0.000253168
0.00183635
-0.000298533
-0.000261042
-9.35444e-05
1.4882e-05
-9.11989e-05
-5.04772e-06
-8.31016e-05
-2.83661e-05
-6.82246e-05
-5.61588e-05
-4.60863e-05
-8.60936e-05
-1.664e-05
-0.000116377
1.98878e-05
-0.000145817
6.30738e-05
-0.000173533
0.000112382
-0.00019901
0.000167222
-0.000221985
0.000226988
-0.000242387
0.000291087
-0.000260263
0.000358953
-0.000275731
0.000430052
-0.000288949
0.000503893
-0.000300095
0.000580024
-0.00030935
0.00065804
-0.000316909
0.000737574
-0.000322948
0.000818318
-0.000327704
0.000899988
-0.000331294
0.000982404
-0.000334128
0.00106533
-0.000336018
0.00114882
-0.000338067
0.00123253
-0.000338745
0.00131708
-0.00034188
0.00140138
-0.000340633
0.00148783
-0.000349032
0.00157236
-0.000341055
0.00166307
-0.000365592
0.00174672
-0.000336817
0.00184541
-0.000397216
-0.00034768
-6.14277e-05
1.65541e-05
-5.78884e-05
-8.58701e-06
-4.8684e-05
-3.75705e-05
-3.28867e-05
-7.19561e-05
-1.0081e-05
-0.000108899
1.97316e-05
-0.000146189
5.63114e-05
-0.000182396
9.92454e-05
-0.000216467
0.000148027
-0.000247791
0.000202105
-0.000276064
0.00026092
-0.000301201
0.000323919
-0.000323262
0.000390575
-0.000342387
0.00046039
-0.000358765
0.000532901
-0.000372606
0.000607679
-0.000384128
0.000684338
-0.000393568
0.000762527
-0.000401137
0.000841951
-0.000407127
0.000922336
-0.000411679
0.00100351
-0.000415301
0.00108524
-0.000417754
0.0011676
-0.000420418
0.00125022
-0.000421371
0.00133375
-0.00042541
0.00141709
-0.000423971
0.00150266
-0.0004346
0.00158638
-0.000424775
0.00167634
-0.00045555
0.00175938
-0.000419859
0.00185738
-0.000495216
-0.000434014
-2.16395e-05
1.67167e-05
-1.67673e-05
-1.34592e-05
-6.22466e-06
-4.81132e-05
1.06701e-05
-8.88509e-05
3.42607e-05
-0.00013249
6.44881e-05
-0.000176417
0.000101093
-0.000219001
0.000143679
-0.000259053
0.000191778
-0.000295891
0.000244891
-0.000329177
0.000302512
-0.000358822
0.000364142
-0.000384892
0.000429302
-0.000407547
0.000497534
-0.000426996
0.000568408
-0.00044348
0.000641525
-0.000457246
0.000716523
-0.000468565
0.000793068
-0.000477683
0.00087088
-0.000484939
0.000949697
-0.000490496
0.00102936
-0.000494961
0.00110964
-0.000498037
0.00119061
-0.000501385
0.00127192
-0.000502685
0.00135422
-0.000507706
0.0014364
-0.000506152
0.0015209
-0.000519098
0.00160364
-0.000507522
0.00169269
-0.0005446
0.00177501
-0.000502175
0.00187219
-0.000592396
-0.000519991
2.5357e-05
1.52855e-05
3.1823e-05
-1.99252e-05
4.38865e-05
-6.01767e-05
6.20474e-05
-0.000107012
8.65178e-05
-0.00015696
0.000117177
-0.000207076
0.000153751
-0.000255576
0.00019587
-0.000301171
0.000243116
-0.000343136
0.000295052
-0.000381113
0.000351237
-0.000415008
0.000411235
-0.00044489
0.00047462
-0.000470932
0.000540982
-0.000493358
0.000609931
-0.000512429
0.000681101
-0.000528415
0.000754154
-0.000541618
0.000828779
-0.000552308
0.000904712
-0.000560873
0.000981706
-0.00056749
0.00105961
-0.000572863
0.00113821
-0.000576635
0.00121757
-0.00058075
0.00129737
-0.000582479
0.00137824
-0.000588577
0.00145909
-0.000587001
0.00154235
-0.000602364
0.00162398
-0.000589153
0.00171199
-0.00063261
0.00179349
-0.000583668
0.00188973
-0.000688642
-0.000605574
7.91047e-05
1.24527e-05
8.74926e-05
-2.8313e-05
0.000101264
-7.39483e-05
0.000120802
-0.00012655
0.000146201
-0.000182359
0.000177269
-0.000238144
0.000213724
-0.000292031
0.000255231
-0.000342678
0.000301434
-0.00038934
0.000351971
-0.000431651
0.000406477
-0.000469513
0.000464585
-0.000502997
0.000525929
-0.000532276
0.000590153
-0.000557582
0.00065691
-0.000579186
0.000725868
-0.000597374
0.00079672
-0.000612469
0.000869177
-0.000624764
0.000942993
-0.000634689
0.00101794
-0.000642432
0.00109387
-0.000648793
0.00117058
-0.000653346
0.00124815
-0.000658323
0.00132625
-0.000660579
0.00140553
-0.000667863
0.0014849
-0.000666371
0.00156681
-0.000684267
0.00164721
-0.000669552
0.00173407
-0.000719475
0.00181467
-0.000664265
0.00190989
-0.000783863
-0.000690744
0.000139522
7.91981e-06
0.000149856
-3.86464e-05
0.000165446
-8.95386e-05
0.000186434
-0.000147537
0.000212763
-0.000208688
0.000244171
-0.000269552
0.000280377
-0.000328237
0.000321095
-0.000383396
0.000366047
-0.000434291
0.000414955
-0.000480559
0.000467537
-0.000522096
0.000523504
-0.000558964
0.000582556
-0.000591329
0.000644393
-0.000619419
0.000708714
-0.000643507
0.000775225
-0.000663884
0.000843648
-0.000680892
0.000913719
-0.000694836
0.000985213
-0.000706184
0.00105791
-0.000715129
0.00113169
-0.000722568
0.00120634
-0.000728001
0.00128197
-0.000733949
0.00135823
-0.000736842
0.0014358
-0.000745433
0.00151357
-0.000744147
0.00159401
-0.000764705
0.0016731
-0.000748635
0.00175874
-0.000805118
0.00183839
-0.000743921
0.00193253
-0.000877998
-0.0007755
0.00020613
1.61625e-06
0.000218469
-5.09852e-05
0.000235945
-0.000107014
0.000258398
-0.000169991
0.000285601
-0.000235891
0.000317226
-0.000301178
0.000353008
-0.000364019
0.000392728
-0.000423115
0.000436197
-0.00047776
0.000483235
-0.000527597
0.000533651
-0.000572512
0.000587237
-0.00061255
0.000643763
-0.000647855
0.000702987
-0.000678642
0.000764655
-0.000705175
0.000828512
-0.000727742
0.000894311
-0.000746692
0.000961814
-0.000762339
0.00103082
-0.000775184
0.00110111
-0.000785423
0.00117258
-0.000794043
0.00124505
-0.000800466
0.00131861
-0.000807507
0.00139293
-0.00081116
0.00146869
-0.000821195
0.00154479
-0.000820247
0.00162369
-0.000843609
0.00170141
-0.000826349
0.00178578
-0.000889492
0.00186448
-0.00082262
0.0019575
-0.000971016
-0.000859863
0.000278511
-6.48528e-06
0.000292873
-6.53479e-05
0.000312246
-0.000126387
0.000336118
-0.000193863
0.000364069
-0.000263842
0.000395724
-0.000332833
0.000430855
-0.00039915
0.000469329
-0.000461589
0.000511063
-0.000519494
0.000555983
-0.000572517
0.000603994
-0.000620524
0.000654972
-0.000663527
0.000708757
-0.000701641
0.000765167
-0.000735052
0.000823995
-0.000764003
0.000885026
-0.000788772
0.000948043
-0.000809709
0.00101283
-0.000827127
0.00107921
-0.000841559
0.00114698
-0.000853193
0.00121604
-0.000863111
0.00128623
-0.000870647
0.00135764
-0.000878916
0.00142994
-0.000883464
0.00150384
-0.000895091
0.00157822
-0.000894626
0.00165555
-0.000920948
0.00173188
-0.000902676
0.00181498
-0.000972587
0.00189273
-0.000900377
0.00198463
-0.00106292
-0.000943877
0.000356243
-1.63925e-05
0.0003726
-8.17053e-05
0.000393818
-0.000147605
0.000418982
-0.000219027
0.000447476
-0.000292335
0.000478901
-0.000364259
0.000513098
-0.000433347
0.000550043
-0.000498533
0.00058977
-0.000559222
0.000632318
-0.000615065
0.000677691
-0.000665897
0.000725849
-0.000711684
0.000776703
-0.000752496
0.000830126
-0.000788475
0.000885961
-0.000819838
0.000944028
-0.000846839
0.00100414
-0.000869821
0.00106611
-0.000889095
0.00112976
-0.000905216
0.00119493
-0.000918361
0.00126153
-0.000929706
0.00132937
-0.000938491
0.00139859
-0.000948135
0.00146885
-0.000953724
0.00154086
-0.000967103
0.00161351
-0.000967278
0.00168929
-0.000996724
0.00176425
-0.000977634
0.00184608
-0.00105442
0.00192295
-0.000977242
0.00201377
-0.00115374
-0.00102761
0.000438892
-2.80978e-05
0.000457178
-9.99914e-05
0.000480112
-0.000170539
0.000506353
-0.000245267
0.000535089
-0.000321071
0.000565947
-0.000395117
0.000598871
-0.00046627
0.000633965
-0.000533628
0.000671397
-0.000596654
0.000711317
-0.000654986
0.00075383
-0.000708409
0.000798975
-0.000756829
0.000846733
-0.000800253
0.00089703
-0.000838772
0.000949753
-0.00087256
0.00100476
-0.000901842
0.00106188
-0.000926948
0.00112096
-0.000948175
0.00118185
-0.000966102
0.00124438
-0.000980889
0.00130847
-0.000993803
0.00137397
-0.00100398
0.00144099
-0.00101516
0.00150922
-0.00102195
0.00157936
-0.00103725
0.00165032
-0.00103823
0.00172457
-0.00107098
0.00179822
-0.00105128
0.00187885
-0.00113505
0.0019549
-0.0010533
0.00204471
-0.00124354
-0.00111115
0.000526025
-4.16116e-05
0.000546141
-0.000120108
0.000570573
-0.000194972
0.000597559
-0.000272254
0.000626133
-0.000349645
0.000656002
-0.000424986
0.000687254
-0.000497523
0.000720148
-0.000566522
0.000754983
-0.000631488
0.000792024
-0.000692027
0.000831469
-0.000747854
0.000873435
-0.000798795
0.000917962
-0.00084478