/*--------------------------------*- C++ -*----------------------------------*\
  =========                 |
  \\      /  F ield         | OpenFOAM: The Open Source CFD Toolbox
   \\    /   O peration     | Website:  https://openfoam.org
    \\  /    A nd           | Version:  7
     \\/     M anipulation  |
\*---------------------------------------------------------------------------*/
FoamFile
{
    version     2.0;
    format      ascii;
    class       volScalarField;
    location    "25";
    object      p;
}
// * * * * * * * * * * * * * * * * * * * * * * * * * * * * * * * * * * * * * //

dimensions      [0 2 -2 0 0 0 0];

internalField   nonuniform List<scalar> 
8500
(
0.0461106
0.0497353
0.0565772
0.0537375
0.0607846
0.0670979
0.0584161
0.0653823
0.0718998
0.077643
0.0707307
0.0771019
0.0830639
0.0881818
0.0761416
0.0831211
0.0888848
0.0942683
0.0986933
0.0816138
0.0892682
0.095573
0.100727
0.105511
0.109113
0.0955202
0.102459
0.108079
0.112639
0.116763
0.119201
0.10187
0.10949
0.115701
0.12064
0.124635
0.127929
0.128637
0.116651
0.123504
0.128982
0.133261
0.136695
0.138909
0.137731
0.123907
0.131466
0.137543
0.142288
0.145921
0.148731
0.149619
0.148505
0.131204
0.139562
0.146292
0.151585
0.155597
0.158572
0.160715
0.160784
0.160035
0.147744
0.155213
0.161105
0.16561
0.168887
0.171187
0.172647
0.172079
0.171303
0.155951
0.164264
0.170835
0.175883
0.179595
0.182133
0.183747
0.184533
0.183402
0.182409
0.17338
0.180734
0.186403
0.190602
0.193516
0.195312
0.196233
0.196353
0.194674
0.193354
0.190739
0.197129
0.201891
0.205237
0.207352
0.208402
0.208626
0.208082
0.205853
0.204131
0.200777
0.207998
0.213422
0.217274
0.219766
0.22108
0.221382
0.220906
0.219699
0.216911
0.21474
0.218933
0.225128
0.229584
0.232527
0.234165
0.234678
0.234232
0.233054
0.231183
0.227829
0.225175
0.229861
0.23693
0.2421
0.24559
0.247625
0.24841
0.248124
0.246931
0.245051
0.242517
0.238591
0.235432
0.248748
0.254737
0.258885
0.261412
0.262542
0.262479
0.261397
0.259459
0.256879
0.253683
0.249184
0.245504
0.260531
0.267409
0.272322
0.275454
0.277025
0.277256
0.276349
0.274476
0.271797
0.268521
0.264666
0.259594
0.255382
0.280053
0.28581
0.289656
0.291778
0.2924
0.29174
0.289997
0.28734
0.283927
0.27996
0.275451
0.269809
0.265059
0.299273
0.303918
0.306706
0.307831
0.307514
0.305973
0.303402
0.29997
0.29583
0.291178
0.286023
0.279817
0.274525
0.312714
0.318155
0.321701
0.323445
0.323584
0.32234
0.319929
0.316542
0.312345
0.307488
0.302161
0.296368
0.289605
0.28377
0.33235
0.336665
0.339127
0.339841
0.339009
0.336854
0.333587
0.329397
0.324446
0.318884
0.312891
0.30647
0.29916
0.292784
0.351562
0.354768
0.356164
0.355867
0.354082
0.351031
0.346923
0.341944
0.336254
0.329999
0.323353
0.316317
0.30847
0.301557
0.366498
0.370315
0.372432
0.372782
0.371494
0.368775
0.364846
0.359915
0.354165
0.347751
0.340818
0.333531
0.325894
0.317523
0.310078
0.385839
0.388572
0.389624
0.388951
0.386694
0.383063
0.378278
0.372543
0.366039
0.358919
0.351323
0.343412
0.335187
0.326305
0.318335
0.404628
0.406301
0.406313
0.404643
0.401441
0.396921
0.391302
0.384785
0.377547
0.369739
0.361498
0.352979
0.344184
0.334805
0.32632
0.422827
0.423467
0.422467
0.419827
0.415709
0.410326
0.403897
0.39662
0.38867
0.380194
0.371328
0.362219
0.352871
0.34301
0.334021
0.439425
0.440401
0.440039
0.438057
0.434479
0.429472
0.423254
0.416041
0.408029
0.39939
0.390268
0.380797
0.371117
0.361235
0.35091
0.341428
0.457294
0.457316
0.455984
0.453054
0.44857
0.442707
0.435683
0.427714
0.418993
0.409689
0.399946
0.38989
0.37966
0.369264
0.358492
0.348531
0.474438
0.473541
0.471274
0.467432
0.462075
0.455389
0.447591
0.438895
0.429493
0.419552
0.40921
0.398594
0.387835
0.376946
0.365744
0.355321
0.490825
0.489043
0.485879
0.481162
0.474971
0.467496
0.458957
0.449566
0.439513
0.42896
0.418046
0.406895
0.39563
0.384269
0.372658
0.361788
0.506421
0.503793
0.499773
0.494221
0.487234
0.479007
0.469762
0.459708
0.449034
0.437899
0.426441
0.414778
0.403032
0.391223
0.379221
0.367924
0.523758
0.521197
0.517763
0.512929
0.506584
0.498841
0.489901
0.479986
0.469304
0.458041
0.446355
0.434379
0.422233
0.41003
0.397796
0.385425
0.37372
0.538391
0.535122
0.530926
0.525322
0.518229
0.509772
0.500159
0.489612
0.478338
0.466519
0.454312
0.441849
0.429246
0.416613
0.403978
0.39126
0.379167
0.552105
0.54817
0.543257
0.536929
0.529133
0.520008
0.509763
0.498623
0.486792
0.474453
0.461758
0.448838
0.435807
0.42277
0.40976
0.396716
0.384258
0.564874
0.560315
0.554732
0.547729
0.539278
0.529528
0.518696
0.507003
0.494655
0.48183
0.46868
0.455335
0.441905
0.428492
0.415134
0.401786
0.388986
0.57667
0.571532
0.565329
0.557702
0.548644
0.538318
0.526941
0.514737
0.50191
0.488637
0.475067
0.461329
0.44753
0.433769
0.420089
0.406462
0.393344
0.587471
0.581802
0.575029
0.566828
0.557214
0.546359
0.534484
0.521813
0.508547
0.494863
0.480908
0.46681
0.452673
0.438595
0.42462
0.410736
0.397326
0.597255
0.591102
0.583812
0.575091
0.564973
0.553639
0.541312
0.528216
0.514553
0.500497
0.486194
0.471769
0.457326
0.44296
0.428718
0.414602
0.400927
0.606001
0.599415
0.591661
0.582475
0.571906
0.560143
0.547412
0.533937
0.519919
0.505529
0.490915
0.476198
0.461482
0.446857
0.432377
0.418054
0.40414
0.613693
0.606725
0.598563
0.588966
0.578001
0.56586
0.552774
0.538965
0.524634
0.509952
0.495063
0.480089
0.465133
0.450282
0.435591
0.421086
0.406962
0.626819
0.620315
0.613017
0.604503
0.594553
0.583246
0.57078
0.557387
0.543292
0.528691
0.513756
0.498631
0.483437
0.468273
0.453227
0.438356
0.423694
0.409389
0.632589
0.625854
0.618279
0.60947
0.599225
0.587631
0.574893
0.561245
0.546909
0.532083
0.516937
0.501615
0.486235
0.470898
0.455689
0.440667
0.425874
0.411416
0.63722
0.630298
0.622502
0.613456
0.602973
0.591149
0.578193
0.564339
0.54981
0.534803
0.519488
0.504007
0.488479
0.473004
0.457663
0.44252
0.427621
0.413042
0.640701
0.633639
0.625676
0.616451
0.60579
0.593794
0.580673
0.566664
0.55199
0.536848
0.521406
0.505805
0.490166
0.474585
0.459146
0.443913
0.428935
0.414263
0.643026
0.63587
0.627795
0.618452
0.607671
0.595559
0.582329
0.568217
0.553446
0.538213
0.522685
0.507006
0.491292
0.475642
0.460137
0.444842
0.429811
0.415078
0.64419
0.636987
0.628856
0.619453
0.608612
0.596443
0.583158
0.568994
0.554175
0.538896
0.523326
0.507606
0.491855
0.47617
0.460632
0.445307
0.43025
0.415486
0.64419
0.636987
0.628856
0.619453
0.608612
0.596443
0.583158
0.568994
0.554175
0.538896
0.523326
0.507606
0.491855
0.47617
0.460632
0.445307
0.43025
0.415486
0.643026
0.63587
0.627795
0.618452
0.607671
0.595559
0.582329
0.568217
0.553446
0.538213
0.522686
0.507006
0.491292
0.475642
0.460137
0.444842
0.429811
0.415078
0.640702
0.633639
0.625676
0.616451
0.60579
0.593794
0.580673
0.566665
0.55199
0.536848
0.521406
0.505805
0.490166
0.474585
0.459146
0.443913
0.428935
0.414263
0.63722
0.630298
0.622502
0.613456
0.602973
0.591149
0.578193
0.564339
0.54981
0.534803
0.519488
0.504007
0.488479
0.473004
0.457663
0.44252
0.427621
0.413042
0.63259
0.625854
0.61828
0.60947
0.599225
0.587631
0.574893
0.561245
0.546909
0.532083
0.516937
0.501615
0.486235
0.470898
0.455689
0.440667
0.425874
0.411416
0.626819
0.620315
0.613017
0.604503
0.594553
0.583246
0.57078
0.557388
0.543292
0.528691
0.513757
0.498632
0.483437
0.468273
0.453227
0.438356
0.423694
0.409389
0.613693
0.606725
0.598563
0.588967
0.578001
0.56586
0.552774
0.538966
0.524634
0.509952
0.495063
0.480089
0.465133
0.450282
0.435591
0.421086
0.406962
0.606001
0.599415
0.591661
0.582475
0.571907
0.560143
0.547412
0.533938
0.519919
0.505529
0.490915
0.476198
0.461482
0.446857
0.432377
0.418054
0.40414
0.597255
0.591102
0.583812
0.575091
0.564974
0.553639
0.541312
0.528217
0.514554
0.500497
0.486194
0.471769
0.457326
0.44296
0.428718
0.414602
0.400927
0.587471
0.581802
0.575029
0.566828
0.557215
0.546359
0.534484
0.521813
0.508547
0.494863
0.480909
0.46681
0.452673
0.438595
0.42462
0.410736
0.397326
0.57667
0.571533
0.56533
0.557702
0.548644
0.538318
0.526941
0.514738
0.50191
0.488637
0.475068
0.461329
0.44753
0.43377
0.420089
0.406462
0.393344
0.564874
0.560315
0.554733
0.54773
0.539278
0.529529
0.518696
0.507003
0.494655
0.48183
0.46868
0.455335
0.441905
0.428492
0.415134
0.401786
0.388986
0.552106
0.54817
0.543258
0.53693
0.529134
0.520008
0.509764
0.498623
0.486793
0.474453
0.461758
0.448838
0.435807
0.42277
0.409761
0.396716
0.384258
0.538391
0.535122
0.530927
0.525322
0.518229
0.509773
0.50016
0.489612
0.478338
0.466519
0.454312
0.441849
0.429246
0.416613
0.403978
0.39126
0.379167
0.523758
0.521197
0.517764
0.512929
0.506585
0.498842
0.489901
0.479986
0.469305
0.458041
0.446355
0.434379
0.422233
0.41003
0.397796
0.385425
0.37372
0.506422
0.503794
0.499773
0.494222
0.487234
0.479007
0.469762
0.459709
0.449034
0.4379
0.426441
0.414778
0.403032
0.391223
0.379222
0.367924
0.490825
0.489044
0.48588
0.481163
0.474971
0.467496
0.458957
0.449567
0.439513
0.42896
0.418046
0.406895
0.39563
0.38427
0.372658
0.361789
0.474439
0.473541
0.471275
0.467432
0.462076
0.455389
0.447591
0.438896
0.429494
0.419552
0.40921
0.398594
0.387836
0.376946
0.365745
0.355321
0.457294
0.457317
0.455985
0.453055
0.44857
0.442707
0.435683
0.427714
0.418993
0.40969
0.399946
0.389891
0.37966
0.369264
0.358492
0.348531
0.439425
0.440401
0.440039
0.438057
0.434479
0.429473
0.423255
0.416041
0.408029
0.39939
0.390269
0.380797
0.371117
0.361235
0.35091
0.341428
0.422827
0.423468
0.422467
0.419828
0.415709
0.410327
0.403897
0.39662
0.38867
0.380194
0.371328
0.362219
0.352871
0.343011
0.334021
0.404628
0.406302
0.406313
0.404643
0.401442
0.396922
0.391302
0.384785
0.377547
0.369739
0.361498
0.352979
0.344184
0.334805
0.32632
0.38584
0.388573
0.389625
0.388952
0.386694
0.383063
0.378278
0.372543
0.366039
0.358919
0.351323
0.343412
0.335187
0.326305
0.318336
0.370315
0.372433
0.372783
0.371494
0.368775
0.364847
0.359916
0.354165
0.347752
0.340818
0.333532
0.325894
0.317523
0.310078
0.351563
0.354769
0.356164
0.355867
0.354082
0.351031
0.346923
0.341945
0.336255
0.329999
0.323353
0.316317
0.30847
0.301557
0.33235
0.336665
0.339127
0.339841
0.33901
0.336854
0.333587
0.329397
0.324446
0.318884
0.312891
0.30647
0.29916
0.292785
0.312715
0.318155
0.321701
0.323445
0.323584
0.322341
0.319929
0.316543
0.312345
0.307488
0.302161
0.296368
0.289605
0.283771
0.299273
0.303918
0.306707
0.307831
0.307514
0.305973
0.303402
0.29997
0.29583
0.291179
0.286023
0.279817
0.274525
0.280053
0.28581
0.289656
0.291779
0.292401
0.291741
0.289997
0.287341
0.283927
0.27996
0.275452
0.26981
0.265059
0.260531
0.267409
0.272323
0.275454
0.277025
0.277256
0.276349
0.274476
0.271798
0.268521
0.264667
0.259594
0.255382
0.248748
0.254737
0.258885
0.261413
0.262543
0.262479
0.261397
0.259459
0.256879
0.253683
0.249184
0.245504
0.229861
0.236931
0.2421
0.245591
0.247625
0.24841
0.248124
0.246931
0.245051
0.242517
0.238591
0.235432
0.218934
0.225128
0.229585
0.232527
0.234165
0.234678
0.234232
0.233054
0.231183
0.227829
0.225175
0.200778
0.207998
0.213422
0.217274
0.219766
0.221081
0.221383
0.220906
0.219699
0.216911
0.21474
0.190739
0.19713
0.201891
0.205237
0.207353
0.208402
0.208626
0.208082
0.205853
0.204131
0.173381
0.180735
0.186403
0.190602
0.193516
0.195312
0.196233
0.196353
0.194674
0.193354
0.155951
0.164264
0.170836
0.175883
0.179595
0.182133
0.183747
0.184533
0.183402
0.182409
0.147745
0.155213
0.161105
0.16561
0.168887
0.171187
0.172647
0.172079
0.171303
0.139562
0.146292
0.151585
0.155597
0.158572
0.160715
0.160784
0.160035
0.123907
0.131466
0.137543
0.142288
0.145921
0.148731
0.149619
0.148505
0.116651
0.123504
0.128982
0.133261
0.136695
0.138909
0.137731
0.10187
0.10949
0.115701
0.12064
0.124635
0.127929
0.128638
0.0955202
0.102459
0.108079
0.112639
0.116763
0.119201
0.0816138
0.0892682
0.0955731
0.100727
0.105511
0.109113
0.0761416
0.0831211
0.0888848
0.0942683
0.0986934
0.0707307
0.0771019
0.0830639
0.0881818
0.0653822
0.0718998
0.077643
0.0537375
0.0607846
0.0670979
0.0497353
0.0565771
0.0461106
0.133262
0.123545
0.113779
0.104168
0.0942471
0.0842035
0.0741843
0.0641924
0.0542367
0.0443443
0.0345341
0.127971
0.118138
0.107793
0.0983606
0.0888383
0.0791545
0.0695336
0.0599962
0.0505194
0.041117
0.0318055
0.121483
0.111666
0.10117
0.0919798
0.0829444
0.0737243
0.0645524
0.0554944
0.0465132
0.0376063
0.0287897
0.114636
0.105128
0.094882
0.0860521
0.077515
0.0687816
0.0600599
0.0514585
0.0429451
0.0345051
0.0261517
0.107835
0.0987637
0.0889072
0.0804573
0.0723744
0.064104
0.0558192
0.047653
0.0395841
0.0315897
0.0236781
0.101286
0.0926636
0.0832451
0.0751751
0.0675116
0.0596807
0.0518207
0.0440732
0.0364277
0.0288574
0.0213657
0.0950237
0.0868288
0.0778695
0.0701822
0.0629155
0.0555037
0.0480552
0.0407106
0.0334684
0.0263008
0.0192073
0.0890491
0.0812639
0.0727697
0.0654648
0.0585769
0.0515635
0.0445101
0.0375516
0.0306925
0.0239063
0.0171896
0.0833673
0.0759773
0.0679421
0.0610129
0.0544862
0.0478503
0.0411738
0.0345833
0.0280877
0.021662
0.0153014
0.0779801
0.07097
0.0633798
0.0568142
0.0506313
0.0443528
0.0380342
0.0317934
0.025642
0.0195569
0.0135323
0.072882
0.0662355
0.0590723
0.0528559
0.0469994
0.0410588
0.0350793
0.0291701
0.0233441
0.0175805
0.0118727
0.0680634
0.0617639
0.0550079
0.0491249
0.043578
0.0379566
0.0322979
0.0267023
0.0211837
0.015723
0.0103137
0.0635128
0.057544
0.0511745
0.0456086
0.0403547
0.0350346
0.0296787
0.0243793
0.0191507
0.0139755
0.00884726
0.0592176
0.0535635
0.0475598
0.0422946
0.0373177
0.0322816
0.0272113
0.0221913
0.0172359
0.0123296
0.00746585
0.0551652
0.0498099
0.0441515
0.0391708
0.0344554
0.0296868
0.0248855
0.0201289
0.0154308
0.0107775
0.00616261
0.0513426
0.0462707
0.0409376
0.0362256
0.0317568
0.0272399
0.0226919
0.0181832
0.0137274
0.00931218
0.0049313
0.0477374
0.0429338
0.0379067
0.0334479
0.0292115
0.0249314
0.0206217
0.0163463
0.0121184
0.00792697
0.0037662
0.044337
0.0397872
0.0350475
0.0308273
0.0268096
0.0227521
0.0186664
0.0146104
0.0105969
0.00661593
0.00266213
0.0411297
0.0368196
0.0323495
0.0283538
0.024542
0.0206936
0.0168183
0.0129686
0.00915662
0.00537359
0.00161441
0.038104
0.0340202
0.0298028
0.0260181
0.0223998
0.0187479
0.0150702
0.0114144
0.00779193
0.00419495
0.000618786
0.0352491
0.0313787
0.0273979
0.0238113
0.020375
0.0169075
0.0134155
0.00994195
0.00649755
0.00307551
-0.00032854
0.0325546
0.0288854
0.0251259
0.0217252
0.01846
0.0151657
0.011848
0.00854566
0.0052687
0.00201115
-0.00123099
0.0300108
0.0265311
0.0229785
0.0197523
0.0166478
0.0135162
0.010362
0.00722058
0.00410103
0.000998165
-0.00209165
0.0276086
0.0243072
0.0209481
0.0178854
0.0149319
0.0119529
0.00895243
0.00596213
0.00299057
3.32073e-05
-0.00291327
0.0253392
0.0222056
0.0190273
0.016118
0.0133063
0.0104707
0.00761442
0.00476613
0.00193374
-0.000886749
-0.00369832
0.0231947
0.020219
0.0172095
0.0144439
0.0117654
0.00906441
0.00634362
0.00362879
0.000927267
-0.00176442
-0.00444897
0.0211676
0.0183403
0.0154885
0.0128577
0.0103043
0.00772963
0.00513603
0.00254664
-3.17871e-05
-0.00260226
-0.0051672
0.0192508
0.016563
0.0138586
0.0113539
0.00891816
0.00646216
0.00398802
0.00151654
-0.000946095
-0.00340247
-0.00585474
0.0174379
0.0148812
0.0123144
0.00992807
0.00760272
0.00525818
0.00289625
0.000535604
-0.00181807
-0.00416702
-0.00651315
0.0157229
0.0132894
0.0108511
0.00857564
0.00635403
0.00411419
0.00185767
-0.000398763
-0.00264991
-0.0048977
-0.00714382
0.0141002
0.0117824
0.00946416
0.00729262
0.00516847
0.00302698
0.000869509
-0.00128894
-0.0034436
-0.00559612
-0.00774799
0.0125647
0.0103556
0.00814948
0.00607532
0.00404274
0.00199364
-7.07814e-05
-0.00213709
-0.00420094
-0.00626373
0.0111116
0.00900462
0.00690323
0.00492034
0.00297377
0.00101147
-0.000965518
-0.00294518
-0.00492356
-0.00690184
0.00973664
0.00772548
0.00572192
0.00382455
0.00195879
7.80264e-05
-0.00181682
-0.00371501
-0.00561295
-0.00751163
0.00843574
0.00651451
0.00460234
0.0027851
0.00099523
-0.000808946
-0.00262662
-0.00444821
-0.00627045
-0.00809417
0.0072052
0.00536834
0.00354152
0.00179936
8.07475e-05
-0.00165151
-0.00339669
-0.00514628
-0.0068973
-0.00865044
0.00604163
0.0042839
0.00253675
0.000864912
-0.000786813
-0.00245155
-0.00412867
-0.00581059
-0.00749462
-0.00918132
0.00494188
0.00325832
0.00158555
-2.04638e-05
-0.00160943
-0.0032108
-0.00482404
-0.00644239
-0.00806345
-0.00968764
0.00390309
0.002289
0.000685619
-0.000858803
-0.00238892
-0.00393087
-0.00548417
-0.00704285
-0.00860473
-0.0101702
0.00292261
0.00137355
-0.000165141
-0.00165197
-0.00312695
-0.00461322
-0.00611033
-0.00761303
-0.00911934
-0.0106295
0.00199803
0.000509768
-0.000968652
-0.00240169
-0.00382505
-0.00525918
-0.00670368
-0.00815391
-0.00960809
-0.0110664
0.00112715
-0.000304333
-0.00172667
-0.0031095
-0.00448462
-0.00586998
-0.00726526
-0.00866637
-0.0100717
-0.0114814
0.000307969
-0.00107057
-0.00244079
-0.00377685
-0.00510692
-0.00644675
-0.00779605
-0.00915123
-0.0105109
-0.0118751
-0.000461328
-0.0017906
-0.00311246
-0.00440501
-0.00569311
-0.00699049
-0.00829691
-0.00960923
-0.0109262
-0.0122478
-0.00118236
-0.00246588
-0.00374297
-0.00499515
-0.00624422
-0.00750212
-0.00876864
-0.0100411
-0.0113182
-0.0126002
-0.00185658
-0.00309774
-0.00433348
-0.00554829
-0.00676118
-0.00798246
-0.00921196
-0.0104473
-0.0116875
-0.0129325
-0.00248525
-0.00368732
-0.00488501
-0.00606536
-0.00724481
-0.00843224
-0.00962748
-0.0108285
-0.0120344
-0.0132451
-0.00306945
-0.00423562
-0.00539843
-0.00654712
-0.00769582
-0.00885208
-0.0100158
-0.0111851
-0.0123594
-0.0135385
-0.0036101
-0.00474346
-0.00587448
-0.00699425
-0.00811479
-0.00924251
-0.0103773
-0.0115176
-0.0126628
-0.0138128
-0.00410791
-0.00521151
-0.00631373
-0.00740725
-0.00850222
-0.00960397
-0.0107124
-0.0118262
-0.0129449
-0.0140682
-0.0045634
-0.00564025
-0.0067166
-0.00778652
-0.00885843
-0.00993675
-0.0110214
-0.0121113
-0.0132059
-0.0143051
-0.00497689
-0.00602996
-0.00708336
-0.00813229
-0.00918365
-0.0102411
-0.0113044
-0.0123729
-0.0134459
-0.0145235
-0.00534846
-0.00638072
-0.00741404
-0.00844459
-0.00947792
-0.0105169
-0.0115616
-0.0126111
-0.013665
-0.0147233
-0.00567795
-0.00669241
-0.00770856
-0.00872335
-0.00974119
-0.0107644
-0.0117928
-0.0128259
-0.0138633
-0.0149048
-0.00596488
-0.00696457
-0.00796644
-0.00896813
-0.00997304
-0.0109829
-0.0119977
-0.0130169
-0.0140402
-0.0150676
-0.00620863
-0.00719669
-0.00818731
-0.00917866
-0.0101733
-0.0111726
-0.0121764
-0.0131844
-0.0141963
-0.015212
-0.00640775
-0.00738726
-0.0083696
-0.00935332
-0.0103403
-0.0113316
-0.0123271
-0.0133264
-0.0143294
-0.0153359
-0.0065616
-0.00753621
-0.00851368
-0.00949291
-0.0104754
-0.0114617
-0.012452
-0.0134458
-0.014443
-0.0154435
-0.00666589
-0.00763832
-0.00861366
-0.00959088
-0.010571
-0.0115547
-0.0125418
-0.0135322
-0.0145257
-0.0155221
-0.00672315
-0.00769859
-0.00867699
-0.00965728
-0.0106403
-0.0116265
-0.0126158
-0.0136081
-0.0146031
-0.0156007
0.136085
0.136706
0.137946
0.139711
0.141971
0.144685
0.147822
0.151352
0.155245
0.159465
0.163975
0.168727
0.173669
0.178729
0.183832
0.188877
0.193758
0.19833
0.202455
0.205931
0.208592
0.210158
0.210467
0.209108
0.206028
0.200517
0.192971
0.181706
0.168721
0.14752
0.135694
0.136301
0.137513
0.139238
0.141446
0.144092
0.147147
0.150577
0.154351
0.15843
0.162775
0.167334
0.172051
0.176852
0.181656
0.186359
0.190851
0.194984
0.198618
0.201548
0.203612
0.20453
0.204149
0.202069
0.198249
0.192014
0.18374
0.171905
0.158213
0.1387
0.135282
0.135875
0.137058
0.138739
0.140888
0.14346
0.146425
0.149746
0.15339
0.157318
0.161485
0.165839
0.170319
0.174849
0.179346
0.183702
0.187807
0.191509
0.194672
0.197093
0.198615
0.198967
0.19801
0.195361
0.191005
0.184301
0.175656
0.163695
0.150142
0.132185
0.134849
0.135427
0.136578
0.138213
0.1403
0.142794
0.145663
0.148869
0.152378
0.156146
0.160129
0.164268
0.168503
0.172753
0.176933
0.180933
0.18464
0.187907
0.190594
0.192504
0.193487
0.193282
0.191765
0.188573
0.183716
0.176598
0.167643
0.155663
0.142254
0.125166
0.134394
0.134956
0.136073
0.137661
0.139683
0.142097
0.144867
0.147955
0.151324
0.154928
0.158721
0.162641
0.166625
0.17059
0.174449
0.17809
0.181399
0.184229
0.186444
0.187849
0.188304
0.187557
0.1855
0.181793
0.176463
0.168974
0.15974
0.147766
0.134437
0.117962
0.133916
0.134461
0.135544
0.137082
0.139038
0.141368
0.144036
0.147002
0.150227
0.153663
0.157261
0.160958
0.164687
0.168364
0.1719
0.175181
0.178094
0.180492
0.182243
0.183159
0.183104
0.181843
0.17928
0.175101
0.169348
0.161548
0.152093
0.140159
0.126948
0.111045
0.133415
0.133942
0.134989
0.136475
0.138362
0.140606
0.143168
0.146008
0.149085
0.152349
0.155748
0.159217
0.162688
0.166074
0.169285
0.172206
0.174726
0.176699
0.177997
0.178438
0.177897
0.176152
0.173119
0.168516
0.162392
0.154342
0.144728
0.13288
0.119843
0.10449
0.132889
0.133398
0.134408
0.135841
0.137656
0.13981
0.142263
0.144974
0.147898
0.150985
0.154181
0.157419
0.160628
0.163721
0.166606
0.169168
0.171299
0.172854
0.17371
0.173694
0.172689
0.170489
0.167024
0.162042
0.155597
0.147351
0.137633
0.125907
0.113083
0.0982533
0.132338
0.132829
0.133801
0.135177
0.136918
0.13898
0.141321
0.143898
0.146666
0.149573
0.152561
0.155564
0.158509
0.161306
0.163865
0.166071
0.167817
0.168962
0.16939
0.168935
0.16749
0.164867
0.161005
0.155686
0.148969
0.140573
0.1308
0.119226
0.10664
0.0923135
0.131762
0.132233
0.133165
0.134484
0.136149
0.138114
0.14034
0.14278
0.145388
0.148111
0.150889
0.153654
0.156331
0.158832
0.161065
0.162919
0.164286
0.165032
0.165045
0.164171
0.162311
0.159295
0.155073
0.149459
0.142513
0.134012
0.124226
0.112827
0.100501
0.0866659
0.131159
0.13161
0.132501
0.13376
0.135346
0.137214
0.139321
0.14162
0.144065
0.1466
0.149164
0.151688
0.154098
0.156302
0.158212
0.159716
0.160712
0.16107
0.160684
0.159411
0.157161
0.153784
0.149238
0.143369
0.136236
0.127667
0.117907
0.106706
0.0946584
0.0813053
0.13053
0.13096
0.131808
0.133006
0.134511
0.136277
0.138262
0.140418
0.142696
0.14504
0.147388
0.14967
0.15181
0.153719
0.155307
0.156468
0.1571
0.157083
0.156314
0.154664
0.15205
0.148343
0.143508
0.137421
0.130141
0.121541
0.11184
0.100854
0.0891016
0.0762226
0.129872
0.130281
0.131086
0.13222
0.133641
0.135304
0.137164
0.139174
0.141282
0.143432
0.145562
0.147599
0.14947
0.151085
0.152356
0.153179
0.153458
0.153078
0.151945
0.149939
0.146989
0.142981
0.137892
0.131622
0.124233
0.115632
0.106021
0.0952654
0.0838201
0.071407
0.129187
0.129573
0.130333
0.131402
0.132738
0.134294
0.136027
0.137887
0.139823
0.141777
0.143686
0.145479
0.14708
0.148404
0.149362
0.149855
0.149792
0.149063
0.147583
0.145244
0.141984
0.137706
0.132395
0.125977
0.118511
0.10994
0.100443
0.0899319
0.0788031
0.0668473
0.128472
0.128836
0.129549
0.130552
0.1318
0.133248
0.13485
0.136559
0.13832
0.140076
0.141763
0.143311
0.144645
0.145679
0.14633
0.146502
0.146107
0.145045
0.143237
0.140589
0.137044
0.132526
0.127026
0.120489
0.112979
0.104461
0.095101
0.0848455
0.0740398
0.0625322
0.127728
0.128069
0.128735
0.129669
0.130827
0.132164
0.133634
0.135188
0.136773
0.138329
0.139795
0.141098
0.142166
0.142915
0.143265
0.143124
0.142411
0.141032
0.138916
0.13598
0.132178
0.127448
0.121787
0.115162
0.107635
0.0991941
0.08999
0.079998
0.0695195
0.05845
0.126955
0.127271
0.127889
0.128753
0.129819
0.131043
0.132379
0.133776
0.135183
0.136539
0.137782
0.138842
0.139646
0.140116
0.140172
0.139729
0.13871
0.13703
0.134626
0.131426
0.127392
0.122477
0.116685
0.109998
0.10248
0.0941354
0.0851031
0.0753811
0.0652314
0.0545891
0.126151
0.126443
0.127011
0.127804
0.128776
0.129885
0.131085
0.132324
0.133551
0.134706
0.135727
0.136545
0.137091
0.137286
0.137056
0.136322
0.13501
0.133047
0.130374
0.126933
0.122692
0.117618
0.111722
0.104999
0.0975114
0.0892813
0.080434
0.070986
0.061165
0.0509382
0.125317
0.125583
0.126101
0.126821
0.127698
0.128691
0.129752
0.130832
0.131879
0.132832
0.133632
0.134212
0.134502
0.134429
0.133923
0.132908
0.131319
0.129089
0.126168
0.122508
0.118085
0.112877
0.106901
0.100164
0.0927285
0.0846275
0.0759757
0.0668042
0.0573098
0.0474861
0.124453
0.124693
0.125159
0.125805
0.126586
0.12746
0.128382
0.129302
0.130167
0.13092
0.131501
0.131844
0.131884
0.13155
0.130776
0.129494
0.127642
0.125164
0.122015
0.118157
0.113575
0.108257
0.102224
0.095494
0.0881286
0.0801693
0.0717214
0.0628269
0.0536554
0.0442219
0.123557
0.123771
0.124185
0.124755
0.125438
0.126193
0.126975
0.127733
0.128418
0.128971
0.129335
0.129446
0.129241
0.128654
0.127623
0.126085
0.123986
0.121277
0.11792
0.113886
0.109168
0.103762
0.097693
0.0909885
0.0837087
0.0759017
0.0676638
0.0590454
0.0501919
0.0411353
0.12263
0.122818
0.123179
0.123672
0.124257
0.124891
0.125532
0.126129
0.126633
0.126988
0.127138
0.127021
0.126578
0.125746
0.124468
0.122688
0.120358
0.117434
0.113889
0.1097
0.104866
0.0993928
0.0933084
0.0866461
0.0794654
0.0718194
0.0637959
0.0554513
0.0469097
0.0382162
0.121673
0.121834
0.122141
0.122557
0.123042
0.123555
0.124054
0.12449
0.124815
0.124974
0.124912
0.124573
0.123898
0.12283
0.121317
0.119308
0.116762
0.113642
0.109927
0.105604
0.100674
0.0951528
0.0890703
0.082465
0.075395
0.0679168
0.0601103
0.0520361
0.0437993
0.0354552
0.120685
0.120818
0.121072
0.121409
0.121794
0.122185
0.122542
0.122818
0.122965
0.12293
0.122662
0.122105
0.121206
0.119912
0.118176
0.115952
0.113204
0.109906
0.10604
0.1016
0.096595
0.091043
0.0849783
0.078443
0.0714936
0.0641882
0.0565999
0.0487917
0.0408518
0.0328433
0.119667
0.119772
0.119971
0.12023
0.120513
0.120783
0.120999
0.121115
0.121086
0.120861
0.12039
0.119622
0.118507
0.116997
0.115048
0.112623
0.109691
0.106231
0.102232
0.0976939
0.0926301
0.087064
0.0810316
0.0745776
0.0677567
0.060628
0.0532577
0.0457101
0.0380588
0.0303719
0.118619
0.118696
0.11884
0.11902
0.119202
0.119351
0.119425
0.119384
0.11918
0.118768
0.1181
0.117128
0.115805
0.114089
0.111941
0.109328
0.106227
0.102621
0.0985063
0.0938874
0.0887816
0.0832163
0.0772289
0.0708659
0.06418
0.0572302
0.0500766
0.0427836
0.0354119
0.0280331
0.117541
0.117591
0.117679
0.11778
0.117861
0.117888
0.117823
0.117625
0.117251
0.116656
0.115796
0.114626
0.113105
0.111193
0.108858
0.106072
0.102817
0.0990818
0.0948673
0.0901835
0.0850508
0.0794996
0.0735685
0.0673047
0.0607588
0.0539891
0.0470498
0.0400049
0.0329036
0.0258194
0.116435
0.116457
0.11649
0.116512
0.116492
0.116398
0.116195
0.115843
0.115301
0.114528
0.113482
0.112123
0.110412
0.108315
0.105805
0.10286
0.0994651
0.0956162
0.0913178
0.0865841
0.0814384
0.0759135
0.0700484
0.0638906
0.0574885
0.0508989
0.0441709
0.037367
0.0305265
0.0237237
0.115302
0.115295
0.115273
0.115216
0.115096
0.114883
0.114543
0.114039
0.113334
0.112387
0.111162
0.10962
0.107729
0.10546
0.102787
0.0996959
0.0961762
0.0922283
0.0878605
0.0830909
0.0779448
0.072457
0.0666663
0.0606201
0.0543642
0.0479539
0.0414332
0.0348629
0.0282736
0.0217395
0.114141
0.114106
0.11403
0.113894
0.113675
0.113344
0.112869
0.112217
0.111352
0.110238
0.108839
0.107124
0.105063
0.102631
0.0998088
0.0965847
0.0929541
0.0889212
0.0844979
0.0797052
0.0745702
0.0691289
0.0634198
0.0574895
0.0513814
0.0451486
0.0388308
0.0324864
0.0261386
0.0198605
0.112956
0.112893
0.112762
0.112548
0.112231
0.111783
0.111177
0.11038
0.109359
0.108083
0.106519
0.104639
0.102418
0.0998341
0.0968742
0.0935305
0.0898024
0.0856979
0.0812319
0.0764278
0.0713143
0.0659277
0.0603061
0.054495
0.0485352
0.0424776
0.0363577
0.0302313
0.0241154
0.0180812
0.111747
0.111656
0.111471
0.11118
0.110766
0.110204
0.109468
0.10853
0.107359
0.105927
0.104205
0.102169
0.0997969
0.0970734
0.0939879
0.0905371
0.0867243
0.0825608
0.078064
0.0732594
0.0681764
0.0628517
0.0573225
0.0516328
0.0458211
0.0399357
0.0340081
0.0280918
0.0221981
0.0163961
0.110516
0.110397
0.110159
0.109792
0.109282
0.108608
0.107747
0.106671
0.105356
0.103774
0.101902
0.0997181
0.097206
0.0943535
0.0911541
0.0876084
0.0837231
0.0795123
0.0749957
0.0702001
0.0651557
0.059899
0.054466
0.0488991
0.0432345
0.0375176
0.0317769
0.0260625
0.0203816
0.0148004
0.109265
0.109119
0.108828
0.108387
0.107783
0.107
0.106016
0.104808
0.103353
0.101628
0.0996134
0.0972916
0.0946492
0.0916784
0.0883766
0.0847476
0.0808013
0.0765542
0.0720279
0.0672501
0.0622513
0.0570675
0.0517336
0.0462902
0.0407709
0.0352187
0.0296587
0.0241384
0.0186608
0.0132895
0.107996
0.107823
0.10748
0.106966
0.106271
0.105382
0.104279
0.102943
0.101354
0.0994937
0.0973446
0.0948935
0.0921309
0.0890525
0.0856591
0.081958
0.0779615
0.0736883
0.0691613
0.064409
0.0594619
0.0543552
0.0491225
0.0438023
0.0384261
0.0330342
0.0276488
0.0223145
0.0170311
0.0118591
0.106711
0.106512
0.106119
0.105533
0.10475
0.103757
0.102539
0.10108
0.0993642
0.0973751
0.0950997
0.0925284
0.0896553
0.0864796
0.0830053
0.0792426
0.0752059
0.0709159
0.0663965
0.0616765
0.0567861
0.0517598
0.0466294
0.0414318
0.036196
0.0309597
0.0257426
0.0205864
0.0154882
0.0105053
0.105414
0.105189
0.104747
0.104092
0.103222
0.102128
0.1008
0.0992245
0.0973871
0.0952766
0.0928832
0.0902006
0.0872266
0.0839636
0.0804186
0.076604
0.0725366
0.0682383
0.0637337
0.0590519
0.0542226
0.0492789
0.0442516
0.0391752
0.0340766
0.028991
0.0239358
0.0189498
0.0140281
0.00922456
0.104107
0.103857
0.103367
0.102644
0.101691
0.100501
0.0990675
0.0973795
0.0954274
0.0932028
0.0906994
0.0879145
0.0848489
0.0815082
0.077902
0.0740449
0.0699554
0.0656564
0.0611732
0.0565346
0.0517697
0.0469105
0.041986
0.0370289
0.0320641
0.0271241
0.0222244
0.0174009
0.0126471
0.0080135
0.102793
0.102519
0.101982
0.101195
0.100161
0.0988787
0.097344
0.0955498
0.0934895
0.0911581
0.088553
0.0856744
0.0825263
0.079117
0.0754586
0.0715676
0.0674639
0.0631711
0.0587149
0.0541237
0.0494259
0.0446522
0.03983
0.0349899
0.030155
0.0253553
0.0206046
0.0159359
0.0113418
0.00686906
0.101477
0.101178
0.100597
0.0997468
0.0986354
0.0972653
0.0956345
0.0937398
0.0915779
0.0891473
0.0864483
0.0834844
0.0802626
0.0767935
0.0730913
0.0691744
0.0650635
0.0607831
0.0563587
0.0518184
0.0471897
0.0425017
0.0377806
0.0330548
0.0283457
0.0236811
0.0190728
0.0145516
0.010109
0.00578842
0.100161
0.0998396
0.0992156
0.0983049
0.0971197
0.0956654
0.0939436
0.0919543
0.0896975
0.0871748
0.0843898
0.0813489
0.0780616
0.0745409
0.0708029
0.0668672
0.0627557
0.058493
0.0541046
0.0496179
0.0450595
0.0404571
0.0358354
0.0312209