/*--------------------------------*- C++ -*----------------------------------*\
  =========                 |
  \\      /  F ield         | OpenFOAM: The Open Source CFD Toolbox
   \\    /   O peration     | Website:  https://openfoam.org
    \\  /    A nd           | Version:  7
     \\/     M anipulation  |
\*---------------------------------------------------------------------------*/
FoamFile
{
    version     2.0;
    format      ascii;
    class       surfaceScalarField;
    location    "45";
    object      phi;
}
// * * * * * * * * * * * * * * * * * * * * * * * * * * * * * * * * * * * * * //

dimensions      [0 3 -1 0 0 0 0];

internalField   nonuniform List<scalar> 
42332
(
-5.13709e-07
5.3566e-07
-2.19506e-08
-1.95556e-06
1.51903e-06
-7.7182e-08
-4.26178e-06
2.45036e-06
-1.44138e-07
-7.36937e-06
3.32896e-06
-2.21373e-07
-1.12163e-05
4.15433e-06
-3.07414e-07
-1.57419e-05
4.92653e-06
-4.00865e-07
-2.08877e-05
5.64623e-06
-5.00453e-07
-2.65974e-05
6.31481e-06
-6.051e-07
-3.28179e-05
6.93448e-06
-7.13985e-07
-3.94997e-05
7.50835e-06
-8.26587e-07
-4.65975e-05
8.04052e-06
-9.42722e-07
-5.40711e-05
8.53613e-06
-1.06256e-06
-6.18858e-05
9.00135e-06
-1.1866e-06
-7.00135e-05
9.44343e-06
-1.31572e-06
-7.84331e-05
9.87065e-06
-1.45104e-06
-8.71314e-05
1.02923e-05
-1.594e-06
-9.61038e-05
1.07186e-05
-1.74623e-06
-0.000105355
1.11604e-05
-1.90958e-06
-0.000114898
1.16294e-05
-2.08604e-06
-0.000124758
1.21374e-05
-2.27773e-06
-0.000134967
1.2696e-05
-2.48691e-06
-0.000145567
1.33166e-05
-2.71596e-06
-0.000156609
1.40095e-05
-2.96735e-06
-0.000168148
1.47821e-05
-3.24361e-06
1.56465e-05
-3.54781e-06
-0.000180247
-5.12213e-07
1.04787e-06
-1.94998e-06
2.9568e-06
-4.24976e-06
4.75015e-06
-7.34873e-06
6.42793e-06
-1.11849e-05
7.99055e-06
-1.56979e-05
9.4395e-06
-2.0829e-05
1.07773e-05
-2.65221e-05
1.20079e-05
-3.27238e-05
1.31362e-05
-3.93846e-05
1.41691e-05
-4.6459e-05
1.51149e-05
-5.39066e-05
1.59837e-05
-6.16923e-05
1.67871e-05
-6.97878e-05
1.75389e-05
-7.81714e-05
1.82543e-05
-8.68297e-05
1.89505e-05
-9.57573e-05
1.96463e-05
-0.000104958
2.03616e-05
-0.000114447
2.11175e-05
-0.000124245
2.19357e-05
-0.000134386
2.28374e-05
-0.000144913
2.3843e-05
-0.000155874
2.49704e-05
-0.000167324
2.62324e-05
2.76496e-05
-0.000179327
-5.09476e-07
1.55735e-06
-1.93978e-06
4.3871e-06
-4.22778e-06
7.03815e-06
-7.31095e-06
9.5111e-06
-1.11276e-05
1.18072e-05
-1.56173e-05
1.39292e-05
-2.07214e-05
1.58815e-05
-2.63838e-05
1.76702e-05
-3.25509e-05
1.93033e-05
-3.91729e-05
2.07911e-05
-4.6204e-05
2.2146e-05
-5.36032e-05
2.33829e-05
-6.1335e-05
2.4519e-05
-6.93703e-05
2.55741e-05
-7.76867e-05
2.65708e-05
-8.62699e-05
2.75337e-05
-9.51137e-05
2.84901e-05
-0.000104221
2.94692e-05
-0.000113605
3.05016e-05
-0.000123289
3.16188e-05
-0.000133303
3.28517e-05
-0.00014369
3.42297e-05
-0.000154498
3.5779e-05
-0.000165783
3.75171e-05
3.94737e-05
-0.000177607
-5.05523e-07
2.06287e-06
-1.92503e-06
5.80661e-06
-4.19601e-06
9.30912e-06
-7.25634e-06
1.25714e-05
-1.10446e-05
1.55954e-05
-1.55006e-05
1.83852e-05
-2.05656e-05
2.09466e-05
-2.61834e-05
2.3288e-05
-3.23003e-05
2.54202e-05
-3.88658e-05
2.73567e-05
-4.58338e-05
2.9114e-05
-5.31626e-05
3.07116e-05
-6.08157e-05
3.21721e-05
-6.87631e-05
3.35215e-05
-7.69813e-05
3.4789e-05
-8.54546e-05
3.6007e-05
-9.41757e-05
3.72112e-05
-0.000103146
3.84399e-05
-0.000112378
3.97333e-05
-0.000121892
4.11329e-05
-0.00013172
4.26794e-05
-0.000141902
4.44117e-05
-0.000152487
4.6364e-05
-0.000163529
4.85592e-05
5.10356e-05
-0.000175091
-5.0039e-07
2.56326e-06
-1.90588e-06
7.2121e-06
-4.1547e-06
1.15579e-05
-7.18531e-06
1.5602e-05
-1.09366e-05
1.93468e-05
-1.53486e-05
2.27971e-05
-2.03627e-05
2.59607e-05
-2.59223e-05
2.88476e-05
-3.19734e-05
3.14713e-05
-3.84652e-05
3.38485e-05
-4.53506e-05
3.59994e-05
-5.2587e-05
3.79481e-05
-6.01371e-05
3.97222e-05
-6.79692e-05
4.13536e-05
-7.60585e-05
4.28782e-05
-8.43875e-05
4.43361e-05
-9.29473e-05
4.5771e-05
-0.000101738
4.72305e-05
-0.000110769
4.87645e-05
-0.000120061
5.04244e-05
-0.000129643
5.22613e-05
-0.000139555
5.43239e-05
-0.000149845
5.66547e-05
-0.000160568
5.92821e-05
6.22529e-05
-0.000171786
-4.94122e-07
3.05738e-06
-1.88247e-06
8.60045e-06
-4.10419e-06
1.37797e-05
-7.09838e-06
1.85962e-05
-1.08044e-05
2.30528e-05
-1.51624e-05
2.71552e-05
-2.01139e-05
3.09121e-05
-2.56019e-05
3.43356e-05
-3.15722e-05
3.74415e-05
-3.79732e-05
4.02494e-05
-4.47569e-05
4.27831e-05
-5.18796e-05
4.50708e-05
-5.93025e-05
4.71451e-05
-6.69924e-05
4.90435e-05
-7.49225e-05
5.08083e-05
-8.30734e-05
5.24869e-05
-9.14338e-05
5.41314e-05
-0.000100002
5.57982e-05
-0.000108784
5.75472e-05
-0.0001178
5.94402e-05
-0.000127077
6.15387e-05
-0.000136655
6.39016e-05
-0.000146581
6.65803e-05
-0.000156908
6.96092e-05
7.30433e-05
-0.000167698
-4.86775e-07
3.54416e-06
-1.85501e-06
9.96868e-06
-4.04487e-06
1.59695e-05
-6.99621e-06
2.15476e-05
-1.06489e-05
2.67055e-05
-1.49433e-05
3.14496e-05
-1.98208e-05
3.57896e-05
-2.52244e-05
3.97392e-05
-3.1099e-05
4.33162e-05
-3.73926e-05
4.65429e-05
-4.40559e-05
4.94465e-05
-5.10439e-05
5.20588e-05
-5.83161e-05
5.44173e-05
-6.58373e-05
5.65647e-05
-7.35785e-05
5.85495e-05
-8.15178e-05
6.04262e-05
-8.96412e-05
6.22548e-05
-9.79439e-05
6.41009e-05
-0.000106431
6.60343e-05
-0.000115118
6.81275e-05
-0.000124032
7.04529e-05
-0.000133211
7.30802e-05
-0.000142701
7.60706e-05
-0.000152557
7.94644e-05
8.33255e-05
-0.000162839
-4.78412e-07
4.02257e-06
-1.8237e-06
1.1314e-05
-3.97719e-06
1.8123e-05
-6.87954e-06
2.44499e-05
-1.04711e-05
3.02971e-05
-1.46926e-05
3.5671e-05
-1.94853e-05
4.05823e-05
-2.47918e-05
4.50457e-05
-3.05566e-05
4.9081e-05
-3.67265e-05
5.27128e-05
-4.32512e-05
5.59712e-05
-5.00841e-05
5.88917e-05
-5.71826e-05
6.15158e-05
-6.45092e-05
6.38914e-05
-7.20324e-05
6.60727e-05
-7.97272e-05
6.8121e-05
-8.75766e-05
7.01042e-05
-9.55726e-05
7.20969e-05
-0.000103717
7.41789e-05
-0.000112023
7.64338e-05
-0.000120516
7.89455e-05
-0.000129231
8.17955e-05
-0.000138216
8.50552e-05
-0.000147523
8.8772e-05
9.30183e-05
-0.000157216
-4.69106e-07
4.49168e-06
-1.78881e-06
1.26337e-05
-3.90166e-06
2.02359e-05
-6.7492e-06
2.72975e-05
-1.02723e-05
3.38202e-05
-1.4412e-05
3.98106e-05
-1.91093e-05
4.52796e-05
-2.43067e-05
5.02431e-05
-2.99478e-05
5.47221e-05
-3.59784e-05
5.87435e-05
-4.23469e-05
6.23396e-05
-4.90046e-05
6.55494e-05
-5.5907e-05
6.84182e-05
-6.3014e-05
7.09983e-05
-7.02907e-05
7.33494e-05
-7.77089e-05
7.55392e-05
-8.5248e-05
7.76433e-05
-9.28962e-05
7.97451e-05
-0.000100652
8.19347e-05
-0.000108525
8.43071e-05
-0.000116538
8.69586e-05
-0.000124726
8.99831e-05
-0.000133135
9.34639e-05
-0.000141819
9.74559e-05
0.000102041
-0.000150841
-4.58935e-07
4.95061e-06
-1.75061e-06
1.39253e-05
-3.81885e-06
2.23041e-05
-6.6061e-06
3.00847e-05
-1.00538e-05
3.7268e-05
-1.41031e-05
4.38599e-05
-1.86952e-05
4.98717e-05
-2.37718e-05
5.53197e-05
-2.92759e-05
6.02263e-05
-3.51522e-05
6.46197e-05
-4.13472e-05
6.85347e-05
-4.78107e-05
7.20129e-05
-5.44952e-05
7.51028e-05
-6.13578e-05
7.78609e-05
-6.83604e-05
8.03519e-05
-7.54707e-05
8.26495e-05
-8.26639e-05
8.48366e-05
-8.9924e-05
8.70052e-05
-9.72453e-05
8.92561e-05
-0.000104634
9.16959e-05
-0.00011211
9.44343e-05
-0.000119706
9.75789e-05
-0.000127468
0.000101226
-0.000135452
0.00010544
0.000110313
-0.000143724
-4.47983e-07
5.3986e-06
-1.70938e-06
1.51867e-05
-3.72934e-06
2.43241e-05
-6.45121e-06
3.28066e-05
-9.81701e-06
4.06338e-05
-1.3768e-05
4.78109e-05
-1.82452e-05
5.43489e-05
-2.319e-05
6.02645e-05
-2.85444e-05
6.55806e-05
-3.42517e-05
7.0327e-05
-4.02569e-05
7.45399e-05
-4.65073e-05
7.82633e-05
-5.2953e-05
8.15484e-05
-5.95475e-05
8.44554e-05
-6.62489e-05
8.70533e-05
-7.30207e-05
8.94213e-05
-7.98332e-05
9.16491e-05
-8.66656e-05
9.38376e-05
-9.35073e-05
9.60978e-05
-0.00010036
9.85489e-05
-0.000107241
0.000101315
-0.000114181
0.000104519
-0.000121226
0.000108271
-0.000128434
0.000112648
0.000117753
-0.000135874
-4.36337e-07
5.83493e-06
-1.66545e-06
1.64159e-05
-3.63377e-06
2.62924e-05
-6.28556e-06
3.54584e-05
-9.56333e-06
4.39115e-05
-1.34085e-05
5.16561e-05
-1.77619e-05
5.87023e-05
-2.25643e-05
6.50669e-05
-2.77567e-05
7.07731e-05
-3.32811e-05
7.58514e-05
-3.90806e-05
8.03394e-05
-4.51e-05
8.42827e-05
-5.12864e-05
8.77349e-05
-5.75898e-05
9.07588e-05
-6.39639e-05
9.34274e-05
-7.03673e-05
9.58247e-05
-7.67652e-05
9.8047e-05
-8.31309e-05
0.000100203
-8.94485e-05
0.000102415
-9.57149e-05
0.000104815
-0.000101943
0.000107543
-0.000108161
0.000110737
-0.000114418
0.000114528
-0.000120773
0.000119003
0.00012428
-0.000127299
-4.2409e-07
6.25902e-06
-1.61912e-06
1.76109e-05
-3.53279e-06
2.82061e-05
-6.11019e-06
3.80358e-05
-9.2943e-06
4.70956e-05
-1.30266e-05
5.53884e-05
-1.72477e-05
6.29234e-05
-2.18977e-05
6.97168e-05
-2.69165e-05
7.57919e-05
-3.22446e-05
8.11794e-05
-3.7823e-05
8.59179e-05
-4.35941e-05
9.00537e-05
-4.95015e-05
9.36423e-05
-5.54914e-05
9.67487e-05
-6.15128e-05
9.94487e-05
-6.75189e-05
0.000101831
-7.34688e-05
0.000103997
-7.93297e-05
0.000106064
-8.50791e-05
0.000108165
-9.07084e-05
0.000110445
-9.62256e-05
0.00011306
-0.000101658
0.000116169
-0.000107053
0.000119923
-0.000112476
0.000124426
0.00012981
-0.000118006
-4.11335e-07
6.67036e-06
-1.57072e-06
1.87703e-05
-3.42704e-06
3.00624e-05
-5.92615e-06
4.05349e-05
-9.01142e-06
5.01809e-05
-1.26244e-05
5.90014e-05
-1.67052e-05
6.70043e-05
-2.11932e-05
7.42048e-05
-2.60273e-05
8.0626e-05
-3.11463e-05
8.62984e-05
-3.64889e-05
9.12605e-05
-4.19948e-05
9.55596e-05
-4.76042e-05
9.92517e-05
-5.32589e-05
0.000102403
-5.89028e-05
0.000105093
-6.44833e-05
0.000107411
-6.99529e-05
0.000109467
-7.52714e-05
0.000111383
-8.04092e-05
0.000113303
-8.5351e-05
0.000115386
-9.00994e-05
0.000117808
-9.46791e-05
0.000120749
-9.9139e-05
0.000124383
-0.000103548
0.000128835
0.000134258
-0.000107997
-3.98165e-07
7.06852e-06
-1.52057e-06
1.98927e-05
-3.31719e-06
3.1859e-05
-5.73452e-06
4.29522e-05
-8.71622e-06
5.31626e-05
-1.22037e-05
6.24889e-05
-1.61368e-05
7.09373e-05
-2.04539e-05
7.85219e-05
-2.50926e-05
8.52647e-05
-2.999e-05
9.11957e-05
-3.50827e-05
9.63532e-05
-4.03071e-05
0.000100784
-4.55999e-05
0.000104545
-5.08983e-05
0.000107702
-5.61407e-05
0.000110335
-6.1268e-05
0.000112539
-6.62253e-05
0.000114424
-7.09645e-05
0.000116122
-7.54476e-05
0.000117786
-7.96515e-05
0.00011959
-8.35727e-05
0.000121729
-8.72324e-05
0.000124409
-9.06807e-05
0.000127831
-9.39934e-05
0.000132148
0.000137536
-9.72713e-05
-3.84672e-07
7.4532e-06
-1.46899e-06
2.0977e-05
-3.20387e-06
3.35939e-05
-5.53632e-06
4.52847e-05
-8.41015e-06
5.60364e-05
-1.17666e-05
6.58453e-05
-1.55448e-05
7.47155e-05
-1.96824e-05
8.26595e-05
-2.41156e-05
8.96979e-05
-2.87795e-05
9.58596e-05
-3.36083e-05
0.000101182
-3.85354e-05
0.000105711
-4.34935e-05
0.000109503
-4.84149e-05
0.000112623
-5.32322e-05
0.000115152
-5.78792e-05
0.000117186
-6.22929e-05
0.000118838
-6.64163e-05
0.000120245
-7.02019e-05
0.000121571
-7.36176e-05
0.000123006
-7.66522e-05
0.000124764
-7.93229e-05
0.00012708
-8.16808e-05
0.000130189
-8.38095e-05
0.000134277
0.00013955
-8.58233e-05
-3.70948e-07
7.82414e-06
-1.4163e-06
2.20224e-05
-3.08772e-06
3.52653e-05
-5.33256e-06
4.75295e-05
-8.09462e-06
5.87985e-05
-1.13148e-05
6.90655e-05
-1.49316e-05
7.83323e-05
-1.88814e-05
8.66094e-05
-2.30992e-05
9.39156e-05
-2.75179e-05
0.000100278
-3.20694e-05
0.000105733
-3.66836e-05
0.000110325
-4.12891e-05
0.000114108
-4.58131e-05
0.000117147
-5.01819e-05
0.000119521
-5.43218e-05
0.000121325
-5.81609e-05
0.000122677
-6.16322e-05
0.000123717
-6.46777e-05
0.000124617
-6.72544e-05
0.000125583
-6.93423e-05
0.000126852
-7.0953e-05
0.00012869
-7.21386e-05
0.000131375
-7.29916e-05
0.00013513
0.0001402
-7.36411e-05
-3.57078e-07
8.18122e-06
-1.3628e-06
2.30281e-05
-2.96932e-06
3.68718e-05
-5.12416e-06
4.96844e-05
-7.77093e-06
6.14453e-05
-1.085e-05
7.21446e-05
-1.4299e-05
8.17814e-05
-1.80533e-05
9.03637e-05
-2.2046e-05
9.79083e-05
-2.62082e-05
0.000104441
-3.04688e-05
0.000109994
-3.47545e-05
0.000114611
-3.89896e-05
0.000118343
-4.30959e-05
0.000121253
-4.69929e-05
0.000123418
-5.05989e-05
0.000124932
-5.38325e-05
0.00012591
-5.66155e-05
0.000126499
-5.88778e-05
0.000126879
-6.05643e-05
0.000127269
-6.16441e-05
0.000127932
-6.21216e-05
0.000129168
-6.20492e-05
0.000131302
-6.15293e-05
0.00013461
0.000139376
-6.0706e-05
-3.43145e-07
8.52437e-06
-1.30875e-06
2.39937e-05
-2.84923e-06
3.84123e-05
-4.91201e-06
5.17471e-05
-7.44029e-06
6.39735e-05
-1.03737e-05
7.5078e-05
-1.3649e-05
8.50566e-05
-1.72e-05
9.39147e-05
-2.09581e-05
0.000101666
-2.48523e-05
0.000108335
-2.88087e-05
0.00011395
-3.27502e-05
0.000118553
-3.65968e-05
0.00012219
-4.02646e-05
0.000124921
-4.36662e-05
0.00012682
-4.67113e-05
0.000127977
-4.9308e-05
0.000128507
-5.1366e-05
0.000128558
-5.28017e-05
0.000128315
-5.35459e-05
0.000128013
-5.35545e-05
0.00012794
-5.28229e-05
0.000128436
-5.14026e-05
0.000129882
-4.94065e-05
0.000132614
0.000136963
-4.69929e-05
-3.29226e-07
8.85359e-06
-1.25442e-06
2.49189e-05
-2.72796e-06
3.98858e-05
-4.69688e-06
5.37161e-05
-7.10375e-06
6.63804e-05
-9.88728e-06
7.78616e-05
-1.29829e-05
8.81522e-05
-1.6323e-05
9.72548e-05
-1.98372e-05
0.000105181
-2.34518e-05
0.000111949
-2.70901e-05
0.000117589
-3.06714e-05
0.000122134
-3.41109e-05
0.000125629
-3.73189e-05
0.000128129
-4.02007e-05
0.000129702
-4.26569e-05
0.000130433
-4.45845e-05
0.000130435
-4.58801e-05
0.000129853
-4.64448e-05
0.000128879
-4.6193e-05
0.000127762
-4.50655e-05
0.000126813
-4.30459e-05
0.000126417
-4.01836e-05
0.00012702
-3.66027e-05
0.000129033
0.00013283
-3.24696e-05
-3.15389e-07
9.16898e-06
-1.20003e-06
2.58035e-05
-2.60594e-06
4.12917e-05
-4.47946e-06
5.55896e-05
-6.76219e-06
6.86631e-05
-9.39169e-06
8.0491e-05
-1.23019e-05
9.10625e-05
-1.54236e-05
0.000100376
-1.8684e-05
0.000108441
-2.20072e-05
0.000115273
-2.53132e-05
0.000120895
-2.85175e-05
0.000125338
-3.15303e-05
0.000128642
-3.42561e-05
0.000130855
-3.65925e-05
0.000132038
-3.84305e-05
0.000132271
-3.96555e-05
0.00013166
-4.01495e-05
0.000130347
-3.97971e-05
0.000128527
-3.8494e-05
0.000126458
-3.61625e-05
0.000124481
-3.27722e-05
0.000123026
-2.83683e-05
0.000122616
-2.30984e-05
0.000123763
0.000126838
-1.71064e-05
-3.01698e-07
9.47068e-06
-1.14581e-06
2.66476e-05
-2.48357e-06
4.26295e-05
-4.2603e-06
5.73663e-05
-6.41635e-06
7.08192e-05
-8.88777e-06
8.29625e-05
-1.16068e-05
9.37815e-05
-1.45022e-05
0.000103272
-1.74989e-05
0.000111438
-2.05182e-05
0.000118292
-2.34768e-05
0.000123853
-2.62861e-05
0.000128148
-2.88515e-05
0.000131208
-3.1071e-05
0.000133074
-3.28345e-05
0.000133801
-3.4023e-05
0.000133459
-3.45095e-05
0.000132146
-3.41607e-05
0.000129998
-3.28425e-05
0.000127209
-3.04298e-05
0.000124046
-2.6823e-05
0.000120875
-2.19734e-05
0.000118177
-1.59135e-05
0.000116556
-8.82595e-06
0.000116675
0.000119328
-1.31624e-06
-2.88206e-07
9.75888e-06
-1.0919e-06
2.74513e-05
-2.36116e-06
4.38988e-05
-4.03986e-06
5.9045e-05
-6.06673e-06
7.28461e-05
-8.376e-06
8.52717e-05
-1.08979e-05
9.63034e-05
-1.35588e-05
0.000105933
-1.62813e-05
0.00011416
-1.89834e-05
0.000120994
-2.15784e-05
0.000126448
-2.39735e-05
0.000130543
-2.60688e-05
0.000133303
-2.77558e-05
0.000134761
-2.89163e-05
0.000134962
-2.94211e-05
0.000133964
-2.91302e-05
0.000131855
-2.78939e-05
0.000128762
-2.55581e-05
0.000124873
-2.19739e-05
0.000120462
-1.70159e-05
0.000115917
-1.06117e-05
0.000111773
-2.77986e-06
0.000108724
6.35056e-06
0.000107545
0.000109338
1.634e-05
-2.74958e-07
1.00338e-05
-1.03846e-06
2.82148e-05
-2.23894e-06
4.50992e-05
-3.81843e-06
6.06245e-05
-5.71364e-06
7.47413e-05
-7.85659e-06
8.74147e-05
-1.01751e-05
9.86219e-05
-1.2593e-05
0.000108351
-1.50299e-05
0.000116597
-1.74006e-05
0.000123365
-1.96144e-05
0.000128662
-2.1574e-05
0.000132502
-2.31741e-05
0.000134903
-2.42995e-05
0.000135887
-2.48236e-05
0.000135486
-2.46068e-05
0.000133747
-2.34954e-05
0.000130744
-2.13227e-05
0.000126589
-1.79128e-05
0.000121463
-1.30907e-05
0.000115639
-6.70105e-06
0.000109527
1.35807e-06
0.000103714
1.10842e-05
9.89979e-05
2.23025e-05
9.63266e-05
9.69939e-05
3.4647e-05
-2.6199e-07
1.02958e-05
-9.85584e-07
2.89384e-05
-2.11708e-06
4.62307e-05
-3.59619e-06
6.21036e-05
-5.35715e-06
7.65022e-05
-7.32938e-06
8.93869e-05
-9.43792e-06
0.00010073
-1.16035e-05
0.000110516
-1.37425e-05
0.000118736
-1.5766e-05
0.000125388
-1.75792e-05
0.000130475
-1.90799e-05
0.000134003
-2.01569e-05
0.00013598
-2.06881e-05
0.000136418
-2.05384e-05
0.000135336
-1.95571e-05
0.000132766
-1.75768e-05
0.000128763
-1.44129e-05
0.000123425
-9.8667e-06
0.000116917
-3.73434e-06
0.000109507
4.17331e-06
0.000101619
1.3994e-05
9.38928e-05
2.57503e-05
8.72415e-05
3.92705e-05
8.28064e-05
8.21482e-05
5.41162e-05
-2.49328e-07
1.05452e-05
-9.33333e-07
2.96224e-05
-1.99564e-06
4.7293e-05
-3.37315e-06
6.34811e-05
-4.99713e-06
7.81262e-05
-6.79389e-06
9.11837e-05
-8.68524e-06
0.000102622
-1.05885e-05
0.00011242
-1.24161e-05
0.000120564
-1.40752e-05
0.000127047
-1.54662e-05
0.000131866
-1.64817e-05
0.000135018
-1.70042e-05
0.000136503
-1.69044e-05
0.000136318
-1.60382e-05
0.00013447
-1.42437e-05
0.000130972
-1.13394e-05
0.000125859
-7.12244e-06
0.000119208
-1.37005e-06
0.000111164
6.15227e-06
0.000101985
1.56715e-05
9.20999e-05
2.73677e-05
8.21966e-05
4.12995e-05
7.33098e-05
5.73017e-05
6.68042e-05
6.45834e-05
7.48665e-05
-2.36987e-07
1.07821e-05
-8.81732e-07
3.02672e-05
-1.87462e-06
4.82859e-05
-3.14917e-06
6.47557e-05
-4.63315e-06
7.96102e-05
-6.24927e-06
9.27998e-05
-7.91556e-06
0.000104288
-9.54532e-06
0.000114049
-1.10468e-05
0.000122065
-1.23223e-05
0.000128323
-1.32671e-05
0.000132811
-1.37678e-05
0.000135519
-1.37006e-05
0.000136435
-1.29279e-05
0.000135546
-1.12964e-05
0.000132838
-8.63293e-06
0.000128308
-4.74152e-06
0.000121968
5.99423e-07
0.000113868
7.63709e-06
0.000104127
1.66384e-05
9.29834e-05
2.78717e-05
8.08666e-05
4.15659e-05
6.85024e-05
5.78258e-05
5.70499e-05
7.65029e-05
4.81271e-05
4.4063e-05
9.70233e-05
-2.24974e-07
1.10071e-05
-8.30765e-07
3.08729e-05
-1.7539e-06
4.92091e-05
-2.92394e-06
6.59257e-05
-4.26456e-06
8.09508e-05
-5.6943e-06
9.42295e-05
-7.12682e-06
0.000105721
-8.47083e-06
0.000115393
-9.62962e-06
0.000123224
-1.05002e-05
0.000129193
-1.09719e-05
0.000133283
-1.0925e-05
0.000135472
-1.02278e-05
0.000135738
-8.73474e-06
0.000134053
-6.28239e-06
0.000130386
-2.68586e-06
0.000124712
2.26546e-06
0.000117016
8.81185e-06
0.000107321
1.72252e-05
9.57134e-05
2.78058e-05
8.24029e-05
4.08662e-05
6.78062e-05
5.66903e-05
5.26783e-05
7.54403e-05
3.82998e-05
9.69976e-05
2.65698e-05
2.03298e-05
0.000120731
-2.13281e-07
1.12204e-05
-7.8037e-07
3.144e-05
-1.63329e-06
5.0062e-05
-2.69699e-06
6.69894e-05
-3.89046e-06
8.21443e-05
-5.12741e-06
9.54665e-05
-6.31648e-06
0.00010691
-7.36111e-06
0.000116438
-8.15894e-06
0.000124022
-8.60085e-06
0.000129635
-8.56954e-06
0.000133251
-7.93769e-06
0.00013484
-6.56559e-06
0.000134366
-4.2982e-06
0.000131785
-9.61579e-07
0.000127049
3.6415e-06
0.000120109
9.7365e-06
0.000110921
1.75823e-05
9.94754e-05
2.74753e-05
8.58204e-05
3.97491e-05
7.01291e-05
5.47621e-05
5.27932e-05
7.28589e-05
3.45815e-05
9.42705e-05
1.68882e-05
0.000118924
1.91618e-06
-6.89184e-06
0.000146146
-2.01893e-07
1.14223e-05
-7.30442e-07
3.19686e-05
-1.51248e-06
5.0844e-05
-2.46768e-06
6.79446e-05
-3.50966e-06
8.31863e-05
-4.5466e-06
9.65034e-05
-5.48144e-06
0.000107845
-6.21156e-06
0.000117168
-6.62813e-06
0.000124438
-6.615e-06
0.000129622
-6.04721e-06
0.000132684
-4.78897e-06
0.000133582
-2.69126e-06
0.000132268
4.11292e-07
0.000128683
4.7042e-06
0.000122757
1.03977e-05
0.000114415
1.77325e-05
0.000103587
2.69858e-05
9.02221e-05
3.84779e-05
7.43283e-05
5.25748e-05
5.60322e-05
6.96811e-05
3.56869e-05
9.02057e-05
1.40569e-05
0.000114459
-7.36555e-06
0.000142434
-2.60588e-05
-3.78914e-05
0.000173434
-1.90779e-07
1.16131e-05
-6.8083e-07
3.24586e-05
-1.39107e-06
5.15543e-05
-2.23517e-06
6.87887e-05
-3.12068e-06
8.40718e-05
-3.94952e-06
9.73323e-05
-4.6181e-06
0.000108513
-5.01691e-06
0.000117567
-5.0297e-06
0.000124451
-4.5323e-06
0.000129125
-3.39091e-06
0.000131542
-1.4601e-06
0.000131651
1.4198e-06
0.000129388
5.4258e-06
0.000124677
1.07562e-05
0.000117426
1.76352e-05
0.000107536
2.63192e-05
9.49027e-05
3.71038e-05
7.94374e-05
5.03319e-05
6.11003e-05
6.64002e-05
3.99639e-05
8.57577e-05
1.63294e-05
0.000108879
-9.0644e-06
0.000136165
-3.46512e-05
0.000167692
-5.75857e-05
-7.29679e-05
0.000202768
-1.79898e-07
1.1793e-05
-6.3133e-07
3.29101e-05
-1.26854e-06
5.21915e-05
-1.99847e-06
6.95186e-05
-2.72179e-06
8.47951e-05
-3.33339e-06
9.79439e-05
-3.7223e-06
0.000108902
-3.77117e-06
0.000117616
-3.35532e-06
0.000124035
-2.34135e-06
0.000128111
-5.85382e-07
0.000129786
2.06913e-06
0.000128997
5.79398e-06
0.000125664
1.07794e-05
0.000119691
1.7238e-05
0.000110968
2.54094e-05
9.93646e-05
3.55664e-05
8.47457e-05
4.80228e-05
6.69811e-05
6.31427e-05
4.59803e-05
8.13508e-05
2.17558e-05
0.000103137
-5.45659e-06
0.000129039
-3.49669e-05
0.000159555
-6.51666e-05
0.000194866
-9.2897e-05
-0.000112422
0.000234321
-1.69193e-07
1.19622e-05
-5.81688e-07
3.33226e-05
-1.14426e-06
5.27541e-05
-1.75633e-06
7.01307e-05
-2.31092e-06
8.53497e-05
-2.69501e-06
9.8328e-05
-2.78933e-06
0.000108996
-2.46768e-06
0.000117294
-1.59579e-06
0.000123163
-2.975e-08
0.000126545
2.38585e-06
0.000127371
5.82025e-06
0.000125562
1.04592e-05
0.000121025
1.6508e-05
0.000113642
2.41953e-05
0.00010328
3.37778e-05
8.97821e-05
4.5546e-05
7.29776e-05
5.98318e-05
5.26953e-05
7.70193e-05
2.87928e-05
9.75574e-05
1.21776e-06
0.00012197
-2.98697e-05
0.000150855
-6.38518e-05
0.000184806
-9.91177e-05
0.000224131
-0.000132222
-0.00015655
0.000268259
-1.58594e-07
1.21208e-05
-5.31593e-07
3.36956e-05
-1.01749e-06
5.324e-05
-1.50736e-06
7.06206e-05
-1.88571e-06
8.5728e-05
-2.03074e-06
9.8473e-05
-1.8139e-06
0.00010878
-1.09904e-06
0.000116579
2.58966e-07
0.000121805
2.4159e-06
0.000124388
5.54034e-06
0.000124246
9.81601e-06
0.000121287
1.54445e-05
0.000115396
2.26484e-05
0.000106439
3.16747e-05
9.4254e-05
4.27988e-05
7.8658e-05
5.63305e-05
5.9446e-05
7.26205e-05
3.64053e-05
9.20713e-05
9.34195e-06
0.000115151
-2.18624e-05
0.000142412
-5.71307e-05
0.000174499
-9.59383e-05
0.000212098
-0.000136717
0.000255658
-0.000175782
-0.000205624
0.000304732
-1.48014e-07
1.22688e-05
-4.8067e-07
3.40282e-05
-8.87332e-07
5.36466e-05
-1.24988e-06
7.09831e-05
-1.44347e-06
8.59216e-05
-1.33651e-06
9.8366e-05
-7.90154e-07
0.000108233
3.42875e-07
0.000115446
2.21985e-06
0.000119928
5.00999e-06
0.000121598
8.89673e-06
0.00012036
1.40802e-05
0.000116103
2.07801e-05
0.000108696
2.92385e-05
9.79801e-05
3.9723e-05
8.37695e-05
5.25304e-05
6.58505e-05
6.79915e-05
4.39849e-05
8.64764e-05
1.79203e-05
0.000108405
-1.25867e-05
0.000134261
-4.77182e-05
0.000164612
-8.74823e-05
0.000200137
-0.000131463
0.000241602
-0.000178182
0.000289603
-0.000223783
-0.000259888
0.000343866
-1.37348e-07
1.24061e-05
-4.28485e-07
3.43194e-05
-7.52774e-07
5.39709e-05
-9.82039e-07
7.12124e-05
-9.81128e-07
8.59207e-05
-6.07737e-07
9.79926e-05
2.88401e-07
0.000107337
1.86692e-06
0.000113868
4.29867e-06
0.000117497
7.76787e-06
0.000118128
1.24747e-05
0.000115653
1.86377e-05
0.00010994
2.64969e-05
0.000100837
3.63163e-05
8.81607e-05
4.8387e-05
7.16989e-05
6.30295e-05
5.1208e-05
8.05976e-05
2.64168e-05
0.000101483
-2.96463e-06
0.00012612
-3.72243e-05
0.000155004
-7.66024e-05
0.00018871
-0.000121188
0.000227927
-0.000170681
0.000273479
-0.000223734
0.000326108
-0.000276411
-0.000319527
0.000385747
-1.26474e-07
1.25326e-05
-3.74531e-07
3.45674e-05
-6.12647e-07
5.4209e-05
-7.01695e-07
7.13015e-05
-4.9529e-07
8.57143e-05
1.60637e-07
9.73367e-05
1.42889e-06
0.000106069
3.48275e-06
0.000111814
6.5081e-06
0.000114471
1.07059e-05
0.000113931
1.62948e-05
0.000110064
2.3514e-05
0.000102721
3.26262e-05
9.17247e-05
4.392e-05
7.68669e-05
5.77123e-05
5.79066e-05
7.43503e-05
3.457e-05
9.42132e-05
6.55389e-06
0.000117714
-2.64659e-05
0.000145306
-6.48156e-05
0.000177487
-0.000108783
0.000214826
-0.000158527
0.000258004
-0.000213859
0.000307866
-0.000273595
0.000365283
-0.000333828
-0.000384653
0.000430409
-1.15248e-07
1.26478e-05
-3.18229e-07
3.47704e-05
-4.65634e-07
5.43564e-05
-4.06465e-07
7.12423e-05
1.78811e-08
8.52899e-05
9.74185e-07
9.63804e-05
2.63908e-06
0.000104404
5.2008e-06
0.000109252
8.86177e-06
0.00011081
1.38413e-05
0.000108951
2.03786e-05
0.000103527
2.87356e-05
9.4364e-05
3.92e-05
8.12603e-05
5.20874e-05
6.39795e-05
6.77433e-05
4.22507e-05
8.65439e-05
1.57694e-05
0.000108896
-1.57986e-05
0.000135238
-5.28075e-05
0.000166036
-9.56137e-05
0.000201792
-0.000144539
0.000243058
-0.000199792
0.000290477
-0.000261279
0.00034487
-0.000327989
0.000407207
-0.000396164
-0.000455274
0.000477828
-1.03505e-07
1.27513e-05
-2.58925e-07
3.49258e-05
-3.10254e-07
5.44078e-05
-9.37126e-08
7.10257e-05
5.62453e-07
8.46338e-05
1.83901e-06
9.51039e-05
3.92743e-06
0.000102315
7.03232e-06
0.000106147
1.13742e-05
0.000106469
1.71924e-05
0.000103133
2.47487e-05
9.59704e-05
3.43298e-05
8.47829e-05
4.62504e-05
6.93396e-05
6.08557e-05
4.93742e-05
7.85221e-05
2.45844e-05
9.96571e-05
-5.36565e-06
0.000124698
-4.08394e-05
0.000154107
-8.22168e-05
0.000188368
-0.000129875
0.000227981
-0.000184152
0.000273471
-0.000245282
0.000325417
-0.000313225
0.000384562
-0.000387133
0.000451919
-0.000463521
-0.000531265
0.00052791
-9.106e-08
1.28424e-05
-1.95887e-07
3.50306e-05
-1.44871e-07
5.43567e-05
2.39482e-07
7.06414e-05
1.14311e-06
8.37302e-05
2.76175e-06
9.34852e-05
5.30306e-06
9.97742e-05
8.98934e-06
0.000102461
1.40607e-05
0.000101397
2.07785e-05
9.64151e-05
2.94284e-05
8.73204e-05
4.03241e-05
7.38872e-05
5.38095e-05
5.58541e-05
7.02612e-05
3.29225e-05
9.00882e-05
4.75732e-06
0.000113732
-2.9009e-05
0.00014166
-6.87676e-05
0.000174362
-0.000114919
0.000212338
-0.000167851
0.000256085
-0.0002279
0.000306092
-0.000295289
0.000362855
-0.000369988
0.000426972
-0.00045125
0.000499427
-0.000535977
-0.000612326
0.000580488
-7.77028e-08
1.29201e-05
-1.283e-07
3.50812e-05
3.23345e-08
5.41961e-05
5.96304e-07
7.00774e-05
1.76478e-06
8.25617e-05
3.74957e-06
9.15004e-05
6.77573e-06
9.6748e-05
1.10847e-05
9.81519e-05
1.69377e-05
9.55442e-05
2.46195e-05
8.87333e-05
3.44418e-05
7.74981e-05
4.67467e-05
6.15823e-05
6.19092e-05
4.06917e-05
8.03385e-05
1.44932e-05
0.000102478
-1.73822e-05
0.000128803
-5.53336e-05
0.000159813
-9.9778e-05
0.000196026
-0.000151132
0.000237956
-0.000209781
0.000286099
-0.000276043
0.000340906
-0.000350095
0.000402766
-0.000431849
0.000472086
-0.00052057
0.000549718
-0.000613609
-0.000697949
0.000635341
-6.32018e-08
1.29833e-05
-5.52774e-08
3.50733e-05
2.23269e-07
5.39176e-05
9.80185e-07
6.93205e-05
2.43278e-06
8.11091e-05
4.8101e-06
8.91231e-05
8.35584e-06
9.32023e-05
1.33319e-05
9.31759e-05
2.00221e-05
8.8854e-05
2.87362e-05
8.00192e-05
3.98135e-05
6.64209e-05
5.36259e-05
4.77699e-05
7.05806e-05
2.37369e-05
9.11206e-05
-6.04675e-06
0.000115724
-4.19853e-05
0.000144899
-8.45087e-05
0.000179178
-0.000134057
0.000219103
-0.000191057
0.000265206
-0.000255885
0.000317981
-0.000328818
0.000377841
-0.000409955
0.000445069
-0.000499076
0.000519837
-0.000595338
0.00060275
-0.000696522
-0.000787468
0.000692269
-4.73067e-08
1.30306e-05
2.41479e-08
3.50019e-05
4.30087e-07
5.35116e-05
1.3948e-06
6.83558e-05
3.15281e-06
7.93511e-05
5.95145e-06
8.63245e-05
1.00543e-05
8.90994e-05
1.57451e-05
8.74851e-05
2.33316e-05
8.12674e-05
3.315e-05
7.02008e-05
4.55684e-05
5.40025e-05
6.09897e-05
3.23485e-05
7.98539e-05
4.87277e-06
0.000102638
-2.88305e-05
0.000129853
-6.92002e-05
0.000162039
-0.000116696
0.000199759
-0.000171776
0.000243576
-0.000234874
0.000294038
-0.000306347
0.000351641
-0.00038642
0.000416773
-0.000475087
0.000489628
-0.000571932
0.000570134
-0.000675844
0.000658415
-0.000784804
-0.00088036
0.000751308
-2.97489e-08
1.30604e-05
1.10937e-07
3.48612e-05
6.54998e-07
5.29676e-05
1.84405e-06
6.71667e-05
3.93081e-06
7.72643e-05
7.18208e-06
8.30732e-05
1.18825e-05
8.4399e-05
1.83388e-05
8.10288e-05
2.68842e-05
7.2722e-05
3.78824e-05
5.92026e-05
5.17312e-05
4.01537e-05
6.88653e-05
1.52144e-05
8.97572e-05
-1.60191e-05
0.000114916
-5.39897e-05
0.000144886
-9.91695e-05
0.000180234
-0.000152044
0.000221546
-0.000213088
0.000269404
-0.000282731
0.000324364
-0.000361308
0.00038693
-0.000448986
0.000457496
-0.000545652
0.000536259
-0.000650695
0.000623021
-0.000762606
0.000716838
-0.00087862
-0.000976523
0.000813001
-1.02315e-08
1.30706e-05
2.06264e-07
3.46447e-05
9.00361e-07
5.22735e-05
2.33198e-06
6.57351e-05
4.77302e-06
7.48233e-05
8.51077e-06
7.93355e-05
1.38521e-05
7.90576e-05
2.11281e-05
7.37528e-05
3.06983e-05
6.31518e-05
4.29549e-05
4.6946e-05
5.83263e-05
2.47823e-05
7.72785e-05
-3.73778e-06
0.000100316
-3.90564e-05
0.000127978
-8.16522e-05
0.000160836
-0.000132027
0.000199481
-0.000190689
0.000244511
-0.000258118
0.000296515
-0.000334736
0.000356051
-0.000420844
0.000423622
-0.000516557
0.000499658
-0.000621688
0.000584518
-0.000735555
0.000678438
-0.000856526
0.000780074
-0.000980256
-0.00107409
0.00087764
1.1459e-08
1.30591e-05
3.11054e-07
3.43451e-05
1.16839e-06
5.14161e-05
2.86254e-06
6.4041e-05
5.68553e-06
7.20003e-05
9.94621e-06
7.50748e-05
1.59748e-05
7.3029e-05
2.41276e-05
6.56e-05
3.47916e-05
5.24878e-05
4.83883e-05
3.33493e-05
6.53764e-05
7.79426e-06
8.62528e-05
-2.46143e-05
0.000111552
-6.43554e-05
0.00014184
-0.00011194
0.00017771
-0.000167897
0.000219765
-0.000232744
0.000268607
-0.000306961
0.000324815
-0.000390944
0.000388925
-0.000484954
0.000461418
-0.00058905
0.000542731
-0.000703001
0.000633354
-0.000826178
0.000734112
-0.000957284
0.000848401
-0.00109454
-0.00122773
0.00100204
3.58018e-08
1.30233e-05
4.26784e-07
3.39541e-05
1.462e-06
5.03809e-05
3.44049e-06
6.20625e-05
6.67534e-06
6.87654e-05
1.14979e-05
7.02522e-05
1.82627e-05
6.62642e-05
2.73524e-05
5.65103e-05
3.91821e-05
4.06582e-05
5.42025e-05
1.83288e-05
7.29026e-05
-1.09058e-05
9.58086e-05
-4.75203e-05
0.000123481
-9.20282e-05
0.00015651
-0.000144969
0.000195499
-0.000206886
0.000241055
-0.0002783
0.000293767
-0.000359672
0.000354181
-0.000451358
0.000422783
-0.000553555
0.000499982
-0.00066625
0.000586138
-0.000789156
0.000681668
-0.000921708
0.000787377
-0.00106299
0.000905241
-0.00121241
-0.0013657
0.00104322
6.30278e-08
1.29603e-05
5.54462e-07
3.34627e-05
1.78347e-06
4.91519e-05
4.06985e-06
5.97761e-05
7.74857e-06