/*--------------------------------*- C++ -*----------------------------------*\
  =========                 |
  \\      /  F ield         | OpenFOAM: The Open Source CFD Toolbox
   \\    /   O peration     | Website:  https://openfoam.org
    \\  /    A nd           | Version:  7
     \\/     M anipulation  |
\*---------------------------------------------------------------------------*/
FoamFile
{
    version     2.0;
    format      ascii;
    class       volVectorField;
    location    "75";
    object      U;
}
// * * * * * * * * * * * * * * * * * * * * * * * * * * * * * * * * * * * * * //

dimensions      [0 1 -1 0 0 0 0];

internalField   nonuniform List<vector> 
14800
(
(-0.000407195 -0.00752049 1.19584e-20)
(-0.00285953 -0.0202918 -2.03638e-21)
(-0.00800608 -0.0312419 -2.65598e-21)
(-0.0147452 -0.0403404 -2.23444e-21)
(-0.0225645 -0.0476851 4.23319e-21)
(-0.0310605 -0.0534973 -7.91723e-21)
(-0.0398668 -0.0580831 -8.37551e-21)
(-0.0486917 -0.0617913 1.23038e-21)
(-0.0573186 -0.0649675 1.09324e-20)
(-0.0656039 -0.0679129 -2.35131e-20)
(-0.0734772 -0.0708588 7.67004e-21)
(-0.0809404 -0.0739569 7.7977e-21)
(-0.0880613 -0.0772863 2.5839e-21)
(-0.0949475 -0.0808659 2.87175e-21)
(-0.101768 -0.0846591 6.14585e-21)
(-0.000266397 -0.00631969 -1.02451e-20)
(-0.00257756 -0.0172836 2.65199e-20)
(-0.00776639 -0.0269161 1.21094e-20)
(-0.0146525 -0.0350997 5.0478e-21)
(-0.0226871 -0.0418695 1.91962e-20)
(-0.0314402 -0.0473881 8.99269e-22)
(-0.0405228 -0.0519048 1.00224e-20)
(-0.0496272 -0.0557136 -2.75655e-20)
(-0.0585261 -0.059107 8.42291e-21)
(-0.0670707 -0.0623351 -1.81531e-20)
(-0.0751903 -0.0655798 4.97942e-21)
(-0.0828911 -0.0689475 2.24044e-20)
(-0.0902495 -0.0724788 -5.79905e-21)
(-0.0973769 -0.0761659 -5.18419e-21)
(-0.104452 -0.079947 6.65574e-21)
(-0.000202382 -0.00504412 -6.52591e-21)
(-0.00247268 -0.0141053 -6.06096e-20)
(-0.00775074 -0.0223666 2.35926e-20)
(-0.0147912 -0.0296113 6.14608e-21)
(-0.023016 -0.0358027 -3.70747e-20)
(-0.0319732 -0.0410374 2.7576e-20)
(-0.0412558 -0.0455016 -1.68241e-20)
(-0.050542 -0.0494304 6.15144e-20)
(-0.0595954 -0.0530599 5.36819e-21)
(-0.0682619 -0.0565867 3.58253e-20)
(-0.0764694 -0.060142 -3.72926e-20)
(-0.0842284 -0.063785 -5.37296e-20)
(-0.0916241 -0.0675174 1.83563e-20)
(-0.0987697 -0.0713043 -7.62949e-21)
(-0.105853 -0.0750622 4.04676e-20)
(-0.00022014 -0.00370853 2.76867e-20)
(-0.00255439 -0.0107917 -1.29633e-20)
(-0.00796816 -0.017641 -4.60077e-20)
(-0.0151673 -0.0239306 -8.43439e-20)
(-0.0235524 -0.0295443 3.73627e-20)
(-0.032656 -0.0345067 1.42064e-20)
(-0.0420569 -0.0389361 3.08527e-20)
(-0.0514228 -0.0430051 -2.34182e-20)
(-0.0605088 -0.0468912 1.819e-20)
(-0.0691555 -0.0507357 -6.39223e-20)
(-0.0772886 -0.0546172 1.84131e-20)
(-0.0849216 -0.0585463 6.43338e-20)
(-0.0921497 -0.0624832 -7.71494e-20)
(-0.0990858 -0.0663637 1.96418e-20)
(-0.105925 -0.0700834 -6.81348e-20)
(-0.000323062 -0.00232906 1.82103e-20)
(-0.00282866 -0.00738067 1.00503e-20)
(-0.00842329 -0.0127903 6.18478e-20)
(-0.015782 -0.0181159 -1.09933e-20)
(-0.0242931 -0.0231562 1.42935e-20)
(-0.0334801 -0.0278588 -1.54621e-20)
(-0.0429129 -0.0322712 7.60619e-20)
(-0.0522513 -0.0365005 3.79975e-20)
(-0.0612435 -0.0406646 -6.00736e-20)
(-0.0697241 -0.0448482 8.24731e-21)
(-0.0776154 -0.049076 1.62914e-20)
(-0.0849323 -0.053307 -8.92138e-20)
(-0.0917806 -0.057456 1.41394e-19)
(-0.0982719 -0.0614246 2.8723e-20)
(-0.10461 -0.0650846 2.62982e-20)
(-0.000512788 -0.000922836 -3.63277e-20)
(-0.00329758 -0.00391193 9.75642e-20)
(-0.00911592 -0.00786767 -8.90041e-20)
(-0.0166311 -0.0122275 1.428e-19)
(-0.0252292 -0.0167015 9.15787e-20)
(-0.0344316 -0.0211576 -1.20996e-20)
(-0.0438046 -0.0255696 -1.60524e-19)
(-0.0530031 -0.0299787 1.39451e-20)
(-0.0617696 -0.0344422 5.52684e-21)
(-0.0699324 -0.0389883 1.07847e-19)
(-0.0774078 -0.0435863 8.99318e-21)
(-0.08421 -0.0481402 1.06077e-19)
(-0.0904562 -0.0525138 -1.95646e-19)
(-0.0962553 -0.0565652 1.3354e-20)
(-0.101818 -0.0601348 2.3233e-21)
(-0.000789098 0.000492328 6.3583e-20)
(-0.00395915 -0.000426704 7.50284e-20)
(-0.0100406 -0.00292785 -2.48361e-20)
(-0.0177048 -0.00632723 -2.63815e-19)
(-0.0263458 -0.0102447 -8.22583e-20)
(-0.03549 -0.0144669 -1.40633e-20)
(-0.0447055 -0.0188935 5.67336e-20)
(-0.0536456 -0.0234998 9.28563e-21)
(-0.0620481 -0.0282834 -1.24971e-19)
(-0.0697338 -0.0332165 -1.86462e-19)
(-0.0766105 -0.0382124 -1.53896e-19)
(-0.0826882 -0.0431162 -1.78309e-19)
(-0.0880954 -0.0477321 1.23648e-19)
(-0.0929367 -0.0518619 -1.46082e-19)
(-0.0974264 -0.0552982 -3.03042e-20)
(-0.00114986 0.00189827 -7.80595e-20)
(-0.00480706 0.00303305 -6.74804e-20)
(-0.0111864 0.00197349 -2.79876e-20)
(-0.0189871 -0.000477616 1.94963e-19)
(-0.027621 -0.00385031 -3.41352e-20)
(-0.0366271 -0.00785028 1.59789e-19)
(-0.0455805 -0.0123041 1.52644e-20)
(-0.0541361 -0.0171221 -1.41336e-19)
(-0.0620277 -0.0222445 1.05809e-19)
(-0.0690675 -0.0275891 1.49255e-19)
(-0.0751509 -0.0330136 -3.68728e-20)
(-0.0802793 -0.0383004 1.48486e-19)
(-0.0845906 -0.0431835 -5.11368e-20)
(-0.0881838 -0.0473894 7.23367e-20)
(-0.0912621 -0.0506359 -1.29246e-19)
(-0.00159098 0.00327679 6.29163e-20)
(-0.00583066 0.00642528 -1.93839e-20)
(-0.0125366 0.00678054 4.69074e-20)
(-0.020455 0.00525874 -8.05614e-20)
(-0.0290255 0.00241712 -6.27376e-20)
(-0.0378062 -0.00137099 1.34702e-20)
(-0.0463844 -0.00586094 -4.41346e-20)
(-0.0544197 -0.0109012 1.9465e-19)
(-0.0616426 -0.0163775 -2.55831e-20)
(-0.0678548 -0.0221568 1.69329e-19)
(-0.0729349 -0.0280427 3.61154e-20)
(-0.0768688 -0.0337517 7.73134e-20)
(-0.0798018 -0.0389357 7.25157e-20)
(-0.0818241 -0.0432206 3.35475e-20)
(-0.083095 -0.0462077 1.82366e-19)
(-0.00210649 0.00461002 -3.14949e-21)
(-0.00701495 0.00970846 -1.36929e-19)
(-0.0140687 0.011438 9.19091e-20)
(-0.0220791 0.0108196 -4.51855e-20)
(-0.030522 0.00849347 1.67998e-19)
(-0.0389811 0.00490855 -8.59747e-20)
(-0.0470608 0.000377382 -8.40355e-20)
(-0.0544276 -0.00489027 6.92599e-20)
(-0.0608092 -0.0107301 1.87602e-20)
(-0.0659948 -0.0169635 -3.28364e-19)
(-0.0698414 -0.0233435 -2.47927e-20)
(-0.0723103 -0.0295195 4.51005e-20)
(-0.0735497 -0.0350487 1.35408e-19)
(-0.0736403 -0.0394258 -1.26704e-19)
(-0.0726271 -0.0420747 5.18943e-21)
(-0.00268858 0.00588067 -1.56351e-19)
(-0.00834073 0.0128422 7.62778e-20)
(-0.0157547 0.0158917 -1.92833e-19)
(-0.0238229 0.0161437 3.7779e-20)
(-0.032065 0.0143153 -7.17113e-20)
(-0.0400957 0.0109265 -4.39245e-20)
(-0.0475403 0.0063536 -2.23432e-19)
(-0.0540745 0.000859969 1.17573e-19)
(-0.0594233 -0.00534573 -8.64111e-20)
(-0.0633611 -0.0120456 6.30884e-20)
(-0.0657176 -0.0189489 -6.43733e-20)
(-0.0664188 -0.0256399 -1.36933e-19)
(-0.0656093 -0.0315701 -1.29582e-19)
(-0.0633668 -0.0360702 1.15531e-19)
(-0.0594845 -0.0383043 2.54564e-20)
(-0.00332774 0.00707242 2.40992e-19)
(-0.00978485 0.0157879 6.80317e-20)
(-0.0175609 0.0200892 4.16867e-21)
(-0.025643 0.021171 4.703e-20)
(-0.0336005 0.0198198 1.53704e-19)
(-0.0410831 0.0166215 -1.65473e-19)
(-0.0477401 0.012011 2.535e-19)
(-0.0532577 0.0063004 -7.89736e-20)
(-0.0573579 -0.000263544 -2.43406e-20)
(-0.0597976 -0.00743169 7.62702e-20)
(-0.060374 -0.014879 -2.79803e-20)
(-0.0589648 -0.0221306 1.00008e-19)
(-0.0557028 -0.0285264 -9.90331e-21)
(-0.0506903 -0.0332049 2.30315e-20)
(-0.0432138 -0.0349668 2.35543e-19)
(-0.00401301 0.00817023 -2.05991e-19)
(-0.0113206 0.0185093 -3.70816e-20)
(-0.0194488 0.0239804 9.14334e-20)
(-0.0274897 0.0258432 -1.91676e-19)
(-0.0350663 0.0249452 -4.73678e-20)
(-0.0418659 0.0219323 2.60942e-20)
(-0.0475632 0.0172929 -2.12345e-19)
(-0.0518556 0.0113825 -5.40074e-20)
(-0.0544606 0.00447996 -2.5219e-20)
(-0.0551154 -0.00314331 1.2589e-19)
(-0.0535789 -0.0111398 4.41079e-20)
(-0.0496672 -0.0189866 -2.26984e-19)
(-0.0434902 -0.0259124 -8.53439e-20)
(-0.0352529 -0.0308483 1.06816e-19)
(-0.0233138 -0.032073 -2.03817e-19)
(-0.0047322 0.0091607 1.3963e-19)
(-0.0129183 0.0209734 1.99871e-19)
(-0.0213753 0.0275186 -5.64571e-20)
(-0.0293071 0.0301043 1.54136e-19)
(-0.0363922 0.0296309 -4.02656e-20)
(-0.0423559 0.0267977 -3.31759e-19)
(-0.0468986 0.0221416 2.27185e-19)
(-0.0497275 0.016057 3.30892e-19)
(-0.0505537 0.00884909 7.61218e-20)
(-0.0490911 0.000802966 -3.1479e-19)
(-0.0450561 -0.00772496 -1.22029e-19)
(-0.0381875 -0.0161795 -1.76393e-19)
(-0.0285483 -0.0236965 3.35284e-19)
(-0.0165884 -0.0290119 -2.76436e-19)
(0.000651928 -0.029425 2.80411e-19)
(-0.00547226 0.0100324 -1.01191e-19)
(-0.0145456 0.0231507 -1.03741e-19)
(-0.0232932 0.0306603 1.3098e-20)
(-0.0310339 0.0339012 -1.10966e-19)
(-0.0375004 0.0338177 9.54685e-20)
(-0.0424548 0.0311563 -2.10231e-20)
(-0.0456211 0.0264979 -1.0232e-19)
(-0.0467137 0.0202722 -1.18646e-19)
(-0.0454339 0.0128064 -1.97243e-19)
(-0.041468 0.00439219 -1.08763e-19)
(-0.0344853 -0.0046189 3.61512e-20)
(-0.0241388 -0.0136634 -1.58513e-19)
(-0.0103932 -0.0218356 -5.13385e-20)
(0.00606272 -0.0277805 -2.19763e-19)
(0.0291842 -0.0268917 -9.32943e-20)
(-0.00621963 0.0107763 -1.38036e-19)
(-0.0161686 0.0250162 -1.82623e-19)
(-0.0251526 0.0333672 -1.88667e-19)
(-0.0326038 0.0371846 8.72917e-20)
(-0.0383061 0.0374484 4.46628e-19)
(-0.0420543 0.034947 -3.74424e-21)
(-0.0435924 0.0303011 1.3994e-19)
(-0.0426371 0.0239732 1.699e-19)
(-0.0388744 0.0163105 -2.39486e-19)
(-0.0319584 0.00760746 8.31133e-20)
(-0.0215083 -0.00180035 2.81695e-19)
(-0.00710122 -0.0113711 2.0156e-19)
(0.0113757 -0.0202187 -3.18669e-20)
(0.0333482 -0.026843 -5.93949e-20)
(0.0634169 -0.0246743 -6.59371e-21)
(-0.00696073 0.0113857 1.13782e-19)
(-0.0177523 0.0265498 3.17121e-20)
(-0.0269006 0.0356059 2.55971e-19)
(-0.033946 0.0399098 -2.67643e-19)
(-0.0387174 0.0404695 -2.37819e-19)
(-0.0410369 0.0381102 -2.20448e-20)
(-0.0406616 0.0334895 1.65271e-19)
(-0.0373037 0.0271015 1.3015e-19)
(-0.0306269 0.0193144 5.83576e-19)
(-0.020247 0.0104256 3.1472e-19)
(-0.00572992 0.000750392 2.28892e-19)
(0.0134235 -0.00921017 1.46844e-19)
(0.0373834 -0.0186215 -2.10238e-19)
(0.0656052 -0.0258709 2.37364e-19)
(0.104165 -0.0227548 -1.59272e-19)
(-0.00768234 0.0118572 -1.63417e-19)
(-0.0192613 0.0277372 1.81869e-19)
(-0.0284826 0.0373496 5.53048e-20)
(-0.0349855 0.042038 1.18958e-19)
(-0.038636 0.0428322 3.82369e-19)
(-0.0392749 0.0405898 2.64934e-20)
(-0.0366648 0.0360027 1.40175e-19)
(-0.0305041 0.0295973 -1.94583e-19)
(-0.0204249 0.0217657 -5.46829e-19)
(-0.00599758 0.0128136 -2.14425e-20)
(0.0132662 0.00303838 -9.22872e-20)
(0.0379405 -0.00710919 -4.29396e-19)
(0.0682595 -0.0168898 2.50854e-19)
(0.10349 -0.02478 -1.81762e-19)
(0.151967 -0.0205959 3.66618e-19)
(-0.008372 0.0121897 2.39776e-19)
(-0.0206603 0.0285696 -8.05241e-20)
(-0.0298419 0.0385786 -2.47154e-19)
(-0.0356426 0.043538 1.29504e-19)
(-0.0379554 0.044495 -2.80647e-19)
(-0.0366305 0.0423359 -1.76777e-19)
(-0.031425 0.0377857 -1.31135e-19)
(-0.0220131 0.0314037 -5.7833e-20)
(-0.00798533 0.0236114 3.22751e-19)
(0.0111406 0.014732 4.05967e-20)
(0.0359065 0.00505607 -2.65618e-19)
(0.0669486 -0.00501039 2.8074e-20)
(0.104563 -0.014853 7.91428e-20)
(0.147631 -0.0233391 9.06e-20)
(0.207277 -0.0176906 -1.62938e-19)
(-0.00901826 0.0123853 -1.92415e-19)
(-0.0219143 0.0290444 -1.53106e-19)
(-0.0309197 0.0392812 2.01091e-19)
(-0.0358323 0.0443879 -3.22623e-19)
(-0.0365605 0.0454265 3.42469e-19)
(-0.0329527 0.0433096 2.1987e-20)
(-0.0247492 0.0387939 1.16572e-19)
(-0.0115881 0.0324739 4.2088e-22)
(0.00699172 0.0248064 -1.56376e-19)
(0.0315306 0.0161445 1.35654e-19)
(0.0626177 0.00678985 6.0245e-20)
(0.100927 -0.00287463 1.35494e-19)
(0.146781 -0.0123581 1.83941e-19)
(0.198551 -0.0212468 -1.81308e-19)
(0.27023 -0.013524 7.75711e-20)
(-0.00961078 0.0124485 2.09769e-19)
(-0.0229884 0.0291649 1.76271e-20)
(-0.0316546 0.0394539 1.2128e-20)
(-0.0354626 0.0445762 2.02386e-19)
(-0.0343245 0.0456083 -3.43592e-19)
(-0.0280749 0.043487 -2.06017e-19)
(-0.0164247 0.0390006 3.08136e-19)
(0.00103511 0.0327811 -3.98118e-19)
(0.0248257 0.0253268 8.21996e-20)
(0.0555463 0.0170338 -2.84429e-19)
(0.0938195 0.00823599 -2.51897e-19)
(0.140316 -0.000670358 -1.43445e-19)
(0.195291 -0.00929387 3.08558e-19)
(0.256674 -0.0182043 5.4614e-20)
(0.340391 -0.00757832 -1.91692e-19)
(-0.0101402 0.0123858 6.88589e-20)
(-0.0238473 0.0289392 -3.82538e-19)
(-0.0319801 0.0391013 1.30882e-19)
(-0.0344331 0.0441048 1.7942e-19)
(-0.0311067 0.0450382 4.20205e-20)
(-0.0218109 0.0428648 2.87022e-19)
(-0.0062152 0.0384045 -1.71312e-19)
(0.0161467 0.032329 2.77688e-19)
(0.0458596 0.0251843 1.21686e-19)
(0.0835739 0.0174212 3.69073e-20)
(0.129918 0.00942721 4.21761e-19)
(0.185498 0.00165595 7.02071e-21)
(0.250308 -0.00558911 -9.28435e-20)
(0.322277 -0.0138596 3.65727e-19)
(0.416862 0.000729496 -3.45301e-19)
(-0.0105981 0.0122052 1.25217e-19)
(-0.0244546 0.0283803 -1.52911e-19)
(-0.0318249 0.0382387 -1.10745e-19)
(-0.0326307 0.0429878 -3.76698e-19)
(-0.0267488 0.0437321 -2.11375e-19)
(-0.013951 0.0414642 -1.23891e-19)
(0.0061443 0.0370362 -2.5025e-19)
(0.034067 0.0311618 -3.05276e-19)
(0.0704617 0.02444 1.92953e-20)
(0.11601 0.0173851 1.66588e-19)
(0.171296 0.0104563 7.77254e-20)
(0.236783 0.00420878 -4.16452e-20)
(0.311869 -0.00119544 -2.32444e-21)
(0.395305 -0.00766571 -2.16224e-19)
(0.497148 0.0117218 3.03787e-19)
(-0.0109758 0.0119153 1.09649e-19)
(-0.024771 0.0275056 -1.64379e-19)
(-0.0311103 0.0368887 1.54228e-19)
(-0.0299293 0.0412526 2.73592e-19)
(-0.0210716 0.0417274 1.51465e-20)
(-0.00425926 0.0393356 -8.65557e-20)
(0.0209488 0.0349642 2.1861e-19)
(0.0551452 0.0293718 1.44593e-19)
(0.0990197 0.0232136 -4.30255e-19)
(0.153245 0.0170717 -4.49441e-19)
(0.218292 0.0114839 1.66703e-19)
(0.29438 0.0071382 -9.43609e-20)
(0.379944 0.00391746 4.63266e-20)
(0.475519 0.00123511 -2.59035e-19)
(0.578068 0.0253282 1.74653e-19)
(-0.0112636 0.011525 4.46294e-19)
(-0.0247527 0.0263344 3.96951e-19)
(-0.029747 0.0350801 1.06354e-19)
(-0.0261873 0.0389424 9.1569e-20)
(-0.0138745 0.0390833 1.72498e-19)
(0.00752732 0.0365602 -1.36486e-20)
(0.0385212 0.0322984 2.02338e-19)
(0.0797524 0.0271037 1.94318e-19)
(0.131922 0.0216881 6.7326e-20)
(0.195628 0.0166972 1.57743e-19)
(0.27112 0.0127324 -5.84818e-20)
(0.358257 0.0106064 1.92006e-19)
(0.454376 0.00976389 -6.35674e-20)
(0.562537 0.013245 2.56276e-19)
(0.658132 0.037405 -3.80428e-19)
(-0.0114503 0.0110418 -1.1464e-19)
(-0.0243497 0.0248867 -4.87881e-19)
(-0.0276343 0.0328497 -2.8083e-20)
(-0.0212457 0.0361139 -1.59276e-19)
(-0.00493487 0.0358814 -1.37547e-20)
(0.0216958 0.033251 -1.41504e-19)
(0.0592054 0.0291905 -8.49343e-20)
(0.108265 0.0245549 -3.23809e-19)
(0.169528 0.0201089 2.33646e-19)
(0.243412 0.0165468 2.83111e-19)
(0.329779 0.0144902 -3.07168e-19)
(0.427931 0.0148073 -3.58678e-20)
(0.534213 0.0164217 -1.13513e-19)
(0.653873 0.0267153 -2.28877e-19)
(0.742133 0.0397122 4.62523e-19)
(-0.0115217 0.0104724 -2.36234e-19)
(-0.023504 0.0231839 -2.77468e-19)
(-0.0246587 0.0302404 2.33272e-19)
(-0.014928 0.0328367 2.92251e-19)
(0.00598965 0.0322247 -2.52331e-19)
(0.0385508 0.0295517 -4.06501e-20)
(0.0833519 0.0258325 -1.00082e-19)
(0.141042 0.0219711 -1.67423e-20)
(0.21213 0.018776 -2.64021e-20)
(0.2967 0.0169644 -3.68567e-19)
(0.394011 0.0171189 2.0022e-19)
(0.502501 0.0200487 -2.34206e-19)
(0.6175 0.0241002 3.24469e-20)
(0.742457 0.0373814 3.61534e-19)
(0.836701 0.0389997 -2.84395e-19)
(-0.0114598 0.00982146 -1.9855e-21)
(-0.0221485 0.0212472 1.41576e-19)
(-0.0206935 0.0273 -3.99699e-19)
(-0.00704245 0.0291927 -3.85772e-19)
(0.0191559 0.0282363 3.36143e-19)
(0.0584038 0.0256341 6.41927e-20)
(0.111298 0.022451 1.30453e-19)
(0.178388 0.0196365 1.88763e-19)
(0.259906 0.0180262 -2.61157e-19)
(0.355396 0.0183219 -4.0229e-19)
(0.463262 0.0210007 2.65117e-19)
(0.580766 0.0266807 4.54234e-19)
(0.702215 0.0333003 -2.31457e-19)
(0.828127 0.0479917 6.36175e-20)
(0.925018 0.0483295 -3.40752e-19)
(-0.0112418 0.0090924 2.14726e-19)
(-0.0202061 0.0190982 1.01738e-19)
(-0.015599 0.0240814 7.12298e-19)
(0.00261529 0.0252751 1.65063e-19)
(0.0348271 0.0240574 -4.2624e-19)
(0.0815575 0.021694 3.34208e-19)
(0.143343 0.0193 2.1595e-19)
(0.220521 0.0178599 8.59012e-20)
(0.312866 0.0182079 4.54507e-19)
(0.419147 0.020977 4.36065e-19)
(0.536651 0.026462 -1.8477e-19)
(0.661241 0.034964 -8.15932e-20)
(0.786227 0.0441876 2.98174e-19)
(0.909548 0.0597323 -1.19892e-20)
(1.00401 0.0611594 4.27189e-19)
(-0.0108402 0.00828747 -1.16442e-19)
(-0.0175897 0.016759 6.38327e-20)
(-0.00922496 0.0206427 -1.92714e-20)
(0.0142564 0.0211876 -3.66672e-19)
(0.0532626 0.0198451 8.60781e-20)
(0.108287 0.0179464 1.49911e-21)
(0.179718 0.016651 -2.35611e-19)
(0.267526 0.0169575 -4.19691e-19)
(0.370811 0.0196542 -2.32088e-19)
(0.487302 0.0252325 2.67488e-19)
(0.612954 0.0337177 -3.03751e-19)
(0.742166 0.0449861 -1.19214e-19)
(0.867429 0.056601 6.07184e-21)
(0.984888 0.0725636 5.96304e-20)
(1.07375 0.0754321 2.36006e-19)
(-0.0102219 0.00740849 -1.91769e-19)
(-0.0142029 0.0142541 -5.73869e-19)
(-0.00141321 0.0170477 -1.01307e-19)
(0.0280922 0.0170441 4.54666e-19)
(0.0747047 0.01577 4.22674e-19)
(0.138821 0.0146198 -2.4706e-19)
(0.220554 0.0147828 1.70223e-19)
(0.319317 0.0172358 2.23884e-19)
(0.433287 0.0226573 3.09605e-19)
(0.558906 0.0313057 -4.96282e-19)
(0.690667 0.0428447 1.01225e-19)
(0.821634 0.0566582 -2.05317e-19)
(0.943857 0.0702139 -1.44025e-19)
(1.05271 0.086152 -3.98614e-19)
(1.13325 0.0901315 -6.70118e-19)
(-0.00934928 0.00645783 1.43441e-19)
(-0.00994179 0.011611 6.69921e-19)
(0.00799807 0.0133674 -1.08968e-19)
(0.0443263 0.012969 -4.43463e-19)
(0.0993648 0.012014 -2.26975e-19)
(0.173316 0.0119506 -6.73689e-20)
(0.265856 0.0139703 -9.32512e-21)
(0.375614 0.0189739 -5.88171e-20)
(0.499583 0.0274454 -3.97535e-19)
(0.632731 0.0393065 -1.17723e-19)
(0.768101 0.0537789 2.56212e-19)
(0.897769 0.0697426 -8.03061e-20)
(1.01389 0.0846233 1.6614e-19)
(1.11205 0.100068 5.04558e-20)
(1.1825 0.104554 6.75421e-19)
(-0.00818049 0.00543954 1.11406e-19)
(-0.00469718 0.00886311 -4.04902e-19)
(0.0191692 0.00968162 -1.25224e-19)
(0.0631447 0.00909707 3.51854e-19)
(0.127409 0.00876847 -1.58115e-19)
(0.211841 0.0101775 3.251e-19)
(0.315481 0.0144735 7.82628e-20)
(0.435922 0.0224067 1.00834e-21)
(0.568743 0.0341644 4.37319e-19)
(0.707349 0.0492289 -1.27362e-19)
(0.843536 0.0663313 3.46673e-19)
(0.968918 0.0839023 2.55279e-19)
(1.07637 0.0994147 -1.14817e-19)
(1.16252 0.113908 -8.05129e-20)
(1.22204 0.118286 -1.66582e-19)
(-0.0066706 0.00436047 4.38342e-20)
(0.00164204 0.00605142 2.99782e-19)
(0.0322532 0.00608051 1.02541e-19)
(0.0847069 0.00557418 -3.60904e-19)
(0.158944 0.00623199 4.28443e-19)
(0.254356 0.00953457 -4.81064e-20)
(0.36912 0.0165262 -1.43998e-19)
(0.49954 0.0277109 2.7618e-19)
(0.639611 0.0428675 -3.32059e-19)
(0.78124 0.0609562 -6.2021e-20)
(0.915369 0.0802204 -1.5654e-19)
(1.03379 0.0987594 -2.97912e-19)
(1.13069 0.114216 5.10401e-20)
(1.20428 0.127356 -1.90541e-20)
(1.25281 0.131117 1.0063e-19)
(-0.00477282 0.00323135 1.28721e-20)
(0.00918541 0.00322641 1.54001e-19)
(0.0473893 0.00266648 -2.16655e-19)
(0.109136 0.00255741 5.77304e-20)
(0.194003 0.00460745 -3.29271e-19)
(0.300703 0.0102451 -3.87576e-19)
(0.426299 0.0203252 -7.93615e-20)
(0.565583 0.0349938 -2.20723e-19)
(0.710903 0.0535137 -8.13174e-20)
(0.852915 0.0742797 -3.00281e-20)
(0.982251 0.0951135 2.56041e-19)
(1.09154 0.113948 -1.57217e-19)
(1.17674 0.128732 -3.10365e-20)
(1.23789 0.140208 -7.82923e-20)
(1.276 0.142992 8.02347e-20)
(-0.00244 0.00206772 5.95264e-20)
(0.0180369 0.000449779 7.54144e-20)
(0.064696 -0.000444859 1.71913e-19)
(0.136507 0.000214367 -2.0274e-20)
(0.232536 0.00409862 -6.98258e-20)
(0.350593 0.0125138 4.16971e-20)
(0.486384 0.026021 7.90963e-20)
(0.633024 0.0442875 3.85081e-20)
(0.781301 0.0659756 1.70767e-19)
(0.921032 0.0889275 5.50809e-20)
(1.04317 0.110669 -2.02797e-20)
(1.14178 0.129154 1.00634e-19)
(1.21483 0.142759 1.47631e-19)
(1.26417 0.152364 -4.91226e-20)
(1.29285 0.153959 2.18703e-21)
(0.000373872 0.000890529 -3.16102e-20)
(0.0282906 -0.00220457 -3.3383e-19)
(0.0842648 -0.00312431 -4.00052e-19)
(0.166843 -0.00127839 1.77908e-19)
(0.274402 0.00490532 9.77636e-20)
(0.403613 0.0165192 1.43413e-19)
(0.548604 0.0337094 1.37444e-19)
(0.700754 0.0555493 1.076e-19)
(0.849539 0.0800569 1.41367e-19)
(0.984484 0.104598 1.87464e-19)
(1.09751 0.126571 2.21712e-20)
(1.18451 0.144134 5.48379e-21)
(1.24557 0.156179 -2.87797e-19)
(1.2841 0.16381 -1.05136e-20)
(1.30456 0.164125 3.87843e-21)
(0.00371215 -0.000273437 9.03451e-20)
(0.0400266 -0.00465021 3.27783e-19)
(0.106153 -0.00522984 2.06185e-19)
(0.200102 -0.00173833 1.43982e-19)
(0.319362 0.00721758 6.03074e-20)
(0.459229 0.0224057 -1.31537e-19)
(0.612087 0.0434276 -1.56866e-20)
(0.767653 0.0686688 8.78061e-20)
(0.91449 0.0955149 -3.45874e-19)
(1.04246 0.120989 -1.92924e-21)
(1.14499 0.142553 2.86865e-19)
(1.22006 0.158722 9.14455e-20)
(1.26972 0.168953 9.01313e-20)
(1.29866 0.174592 8.18278e-20)
(1.31217 0.173628 1.0794e-20)
(0.00761389 -0.00139147 -1.32065e-19)
(0.0533065 -0.00678856 1.5719e-19)
(0.130379 -0.00660851 -1.1699e-19)
(0.236175 -0.000981292 -1.81203e-19)
(0.367082 0.0112087 1.22524e-19)
(0.516804 0.030277 -2.37308e-19)
(0.675903 0.0551532 1.19756e-19)
(0.832651 0.0834806 -1.27508e-19)
(0.975228 0.112085 1.53284e-19)
(1.09445 0.137826 7.56769e-20)
(1.18565 0.158409 -1.70022e-20)
(1.24897 0.172824 9.68655e-20)
(1.28815 0.181098 1.6533e-20)
(1.30881 0.184792 -1.03371e-19)
(1.31658 0.18261 -1.23663e-19)
(0.0121124 -0.00242513 1.30309e-19)
(0.0681697 -0.00851018 9.14124e-21)
(0.156915 -0.00709948 4.52507e-20)
(0.27488 0.00117306 -1.21861e-19)
(0.417136 0.017028 2.75896e-19)
(0.575621 0.0401903 -9.90737e-20)
(0.73911 0.0688085 -2.52283e-19)
(0.894792 0.0997806 -1.41349e-19)
(1.03106 0.129506 -2.83597e-19)
(1.14023 0.154873 -3.04208e-19)
(1.21979 0.173997 -1.83429e-19)
(1.27191 0.186406 -1.42069e-19)
(1.30172 0.192668 2.03835e-19)
(1.31537 0.194512 -1.50128e-19)
(1.31852 0.191206 1.03241e-19)
(0.0172335 -0.00333073 -1.95203e-19)
(0.0846295 -0.0096967 1.53685e-19)
(0.185684 -0.00653816 -1.20223e-19)
(0.315964 0.00489483 1.3419e-19)
(0.469019 0.0247943 -9.18463e-20)
(0.634916 0.0521551 1.25397e-19)
(0.800804 0.0842683 3.80843e-19)
(0.953273 0.117344 1.97106e-19)
(1.08153 0.14753 1.34394e-19)
(1.17982 0.171945 1.57849e-19)
(1.24786 0.189228 3.39459e-20)
(1.28961 0.199479 -8.61832e-20)
(1.31122 0.203744 6.86362e-20)
(1.31907 0.203855 5.20495e-20)
(1.31856 0.199531 -2.36183e-20)
(0.0229946 -0.00406 -1.30386e-20)
(0.10267 -0.0102235 -1.59228e-19)
(0.216558 -0.00476108 4.19894e-20)
(0.359104 0.0103373 -1.10336e-19)
(0.522161 0.0345899 9.52664e-20)
(0.693907 0.0661332 4.51155e-20)
(0.860161 0.101371 1.88967e-20)
(1.00747 0.135942 6.061e-20)
(1.12643 0.165946 5.01179e-21)
(1.21344 0.188903 1.19705e-19)
(1.2704 0.204064 -1.21896e-19)
(1.30278 0.212085 -1.26879e-19)
(1.31736 0.214411 -5.39272e-20)
(1.32048 0.212919 3.78772e-20)
(1.31713 0.20768 -1.29232e-11)
(0.0294026 -0.00456105 4.24556e-20)
(0.122244 -0.00996277 -1.70036e-20)
(0.249357 -0.00161127 9.09598e-20)
(0.403914 0.0176305 6.77426e-20)
(0.575946 0.0464571 -2.2515e-19)
(0.751831 0.082043 9.25474e-20)
(0.91647 0.119932 -1.99745e-19)
(1.05695 0.155355 -2.15502e-19)
(1.1657 0.184572 -1.19345e-19)
(1.24144 0.205654 -2.34002e-19)
(1.28803 0.2185 1.17839e-20)
(1.31209 0.224281 7.05009e-20)
(1.32075 0.224759 8.71976e-20)
(1.32008 0.221788 -1.09826e-19)
(1.31455 0.215725 -5.51676e-12)
(0.0364534 -0.00477945 6.79734e-20)
(0.14327 -0.00878726 -1.98079e-19)
(0.28385 0.00305617 -1.73845e-19)
(0.449957 0.0268755 2.62056e-20)
(0.629737 0.0603968 1.14162e-19)
(0.807975 0.0997661 -1.96995e-20)
(0.969146 0.139751 -2.14814e-20)
(1.10145 0.175379 9.23015e-20)
(1.19947 0.203267 2.206e-19)
(1.26424 0.222143 1.44755e-19)
(1.30131 0.232557 -7.19658e-21)
(1.31814 0.236135 7.13781e-20)
(1.32189 0.234865 -5.74903e-20)
(1.31823 0.230533 -2.99405e-20)
(1.31104 0.223721 3.65233e-20)
(0.0441307 -0.00465958 -2.00605e-19)
(0.165635 -0.00657397 2.17468e-19)
(0.319757 0.00936869 -9.28001e-20)
(0.496752 0.0381404 4.92807e-21)
(0.682898 0.0763691 1.06407e-19)
(0.861696 0.119155 -9.14927e-20)
(1.01775 0.16063 2.0166e-19)
(1.14086 0.195835 6.71086e-20)
(1.22798 0.221921 -1.50034e-19)
(1.28232 0.238342 2.36931e-20)
(1.31083 0.246269 6.42533e-20)
(1.32144 0.247711 -6.08952e-20)
(1.32119 0.244798 1.23496e-19)
(1.3152 0.239207 -3.0783e-20)
(1.30677 0.231701 -2.24384e-20)
(0.0524053 -0.00414603 1.74292e-19)
(0.189192 -0.0032081 -4.51204e-20)
(0.356761 0.0174314 5.68413e-20)
(0.543794 0.051457 -1.1212e-19)
(0.734813 0.0942966 6.56113e-20)
(0.912442 0.140042 3.12987e-21)
(1.06196 0.182373 -1.44595e-19)
(1.17521 0.216567 -1.89705e-19)
(1.25154 0.240454 5.30161e-20)
(1.29616 0.254243 -2.26549e-20)
(1.31707 0.259679 -7.95997e-20)
(1.32245 0.25907 -4.1256e-21)
(1.31896 0.254611 3.43266e-20)
(1.31119 0.247846 -3.94628e-20)
(1.30183 0.239686 7.02208e-20)
(0.0612349 -0.00318518 -1.66296e-19)
(0.213761 0.00141306 -4.8113e-20)
(0.394505 0.027323 6.12758e-20)
(0.590564 0.0668203 8.96345e-20)
(0.784909 0.114069 -3.79947e-20)
(0.959758 0.162245 -3.73606e-20)
(1.10161 0.204796 6.20656e-20)
(1.2046 0.237446 1.35349e-19)
(1.2705 0.25881 -6.10108e-20)
(1.30621 0.269854 -2.05271e-20)
(1.32049 0.272828 -4.13951e-20)
(1.32151 0.27026 -1.57881e-20)
(1.31545 0.264342 4.69392e-20)
(1.30632 0.256473 4.49767e-20)
(1.2963 0.247682 1.11209e-20)
(0.0705645 -0.00172669 -1.06799e-20)
(0.239137 0.00737663 8.83395e-20)
(0.432609 0.0390925 -7.74041e-20)
(0.636551 0.0841883 -1.47129e-20)
(0.832667 0.135547 3.96844e-20)
(1.00329 0.185576 7.14525e-20)
(1.1366 0.227727 -6.61638e-20)
(1.22924 0.258359 -6.60645e-20)
(1.28523 0.276949 7.88837e-21)
(1.31289 0.285188 5.20485e-20)
(1.32147 0.285753 7.88626e-21)
(1.3189 0.281319 -1.20381e-20)
(1.31084 0.274017 -3.2479e-20)
(1.30071 0.265098 7.19816e-21)
(1.29021 0.255685 -2.23185e-20)
(0.0803261 0.000274843 4.57093e-20)
(0.265087 0.0147509 -5.04654e-20)
(0.470678 0.0527571 6.4668e-20)
(0.681257 0.103484 -4.92759e-20)
(0.877635 0.15857 2.89953e-20)
(1.04278 0.209846 -2.6276e-20)
(1.16695 0.251009 1.90412e-20)
(1.24935 0.279216 6.72588e-20)
(1.2961 0.294843 -3.64375e-21)
(1.3166 0.300257 9.96974e-22)
(1.32033 0.298485 3.45862e-20)
(1.31485 0.292272 3.53262e-21)
(1.30525 0.283648 3.17348e-20)
(1.29442 0.27372 -3.6675e-20)
(1.28357 0.263682 -1.5521e-20)
(0.0904406 0.00285846 -4.97052e-21)
(0.291362 0.0235825 1.55733e-20)
(0.508309 0.0683014 -3.97166e-20)
(0.724218 0.124599 1.67031e-21)
(0.91943 0.18296 -1.06559e-20)
(1.07806 0.234866 2.54622e-21)
(1.19274 0.274498 -1.65867e-20)
(1.26522 0.299938 7.46964e-21)
(1.30345 0.31247 2.81613e-21)
(1.31767 0.315075 -1.70143e-21)
(1.31733 0.311043 5.47432e-21)
(1.30954 0.30313 4.1227e-21)
(1.29879 0.293233 -1.0231e-21)
(1.28747 0.282327 6.94227e-21)
(1.27642 0.271653 -4.93624e-21)
(0.100819 0.0060555 -2.03417e-20)
(0.317696 0.033895 1.25284e-20)
(0.545103 0.085677 -2.47331e-20)
(0.765004 0.147396 2.41878e-22)
(0.957742 0.208526 -1.11094e-20)
(1.10903 0.260454 1.12035e-21)
(1.21409 0.298063 -1.72025e-20)
(1.27711 0.320458 7.5871e-21)
(1.30761 0.329813 -4.1515e-22)
(1.31638 0.329647 1.17496e-21)
(1.31268 0.323436 9.0609e-21)
(1.30309 0.313893 1.1497e-21)
(1.29151 0.302762 1.39974e-21)
(1.2799 0.290898 3.49764e-21)
(1.26874 0.279575 -2.22089e-21)
(0.111363 0.00988845 1.9164e-20)
(0.343816 0.0456867 -4.80575e-20)
(0.580673 0.104804 6.76257e-20)
(0.803238 0.171713 -3.5119e-20)
(0.992332 0.235069 -6.51292e-21)
(1.13567 0.286433 -2.106e-20)
(1.23118 0.321583 5.54635e-20)
(1.28531 0.340714 1.85348e-20)
(1.30887 0.346853 1.52955e-20)
(1.31298 0.343973 -2.22824e-21)
(1.30656 0.335663 2.87134e-20)
(1.29559 0.324552 9.49919e-21)
(1.28346 0.312215 4.26396e-21)
(1.27171 0.299407 -1.40469e-20)
(1.26053 0.287416 -3.20392e-21)
(0.121968 0.0143699 4.65575e-20)
(0.369445 0.0589308 4.42907e-20)
(0.614651 0.125574 -7.11231e-20)
(0.838586 0.197366 -1.04144e-20)
(1.02302 0.262386 5.79087e-20)
(1.15801 0.31263 1.05876e-21)
(1.24418 0.344946 -1.11004e-20)
(1.29007 0.36065 -7.37825e-20)
(1.3075 0.363566 -5.2325e-21)
(1.30768 0.358041 4.54898e-20)
(1.29909 0.347711 -8.64628e-22)
(1.28712 0.335083 1.35099e-20)
(1.27466 0.321563 -3.33182e-20)
(1.26291 0.307821 2.16266e-20)
(1.2518 0.295144 -6.41035e-21)
(0.132524 0.0195019 -1.21684e-19)
(0.394308 0.0735746 -1.41071e-19)
(0.646698 0.147848 8.18233e-20)
(0.870772 0.224158 8.89358e-20)
(1.04971 0.290271 -1.16164e-20)
(1.17612 0.338882 -2.05373e-20)
(1.25331 0.368046 2.7106e-20)
(1.29165 0.380211 1.1208e-19)
(1.30373 0.379928 3.56119e-21)
(1.30065 0.371835 -1.9522e-20)
(1.29038 0.359558 -1.78251e-20)
(1.27773 0.34546 -4.70463e-20)
(1.26513 0.330773 4.69436e-20)
(1.2535 0.316102 -1.029e-20)
(1.24253 0.302724 4.53917e-20)
(0.142919 0.0252755 2.41431e-19)
(0.418141 0.0895413 -1.80183e-20)
(0.676506 0.171466 1.04271e-20)
(0.89957 0.251875 1.64879e-20)
(1.07232 0.318517 -2.39679e-20)
(1.1901 0.36503 2.22157e-20)
(1.25877 0.390783 -1.61734e-19)
(1.29029 0.39934 -9.94199e-20)
(1.29776 0.395904 -3.0291e-20)
(1.29203 0.385328 -7.10357e-21)
(1.28051 0.371173 -4.216e-20)
(1.26745 0.355643 1.24376e-20)
(1.25489 0.339805 -2.71507e-20)
(1.24348 0.324207 1.3086e-21)
(1.23275 0.310118 1.12294e-20)
(0.153039 0.0316707 -2.06234e-19)
(0.440692 0.106731 1.5246e-19)
(0.703802 0.196247 3.72956e-20)
(0.924808 0.280298 2.56277e-20)
(1.09084 0.346921 -3.94064e-21)
(1.20009 0.39092 9.26035e-20)
(1.26078 0.413058 1.31189e-19)
(1.28621 0.417979 -1.48501e-20)
(1.28976 0.411458 -4.76736e-20)
(1.28193 0.398483 -2.20863e-20)
(1.26953 0.382518 7.51871e-20)
(1.25631 0.365591 -2.35507e-20)
(1.24393 0.348611 -2.34401e-21)
(1.23287 0.332083 2.22961e-20)
(1.22247 0.317284 -4.65978e-21)
(0.162775 0.0386564 2.2242e-19)
(0.461728 0.125021 -2.65694e-19)
(0.728354 0.221989 -7.56183e-20)
(0.946361 0.309198 1.11675e-19)
(1.10531 0.37528 -6.13942e-20)
(1.20623 0.416405 -1.26485e-19)
(1.25953 0.434777 5.85547e-20)
(1.27959 0.436069 1.40368e-19)
(1.27988 0.426543 1.52614e-19)
(1.27044 0.41126 1.42203e-19)
(1.25751 0.393547 -5.00762e-21)
(1.24432 0.375255 2.08402e-20)
(1.23226 0.357137 -6.43701e-20)
(1.22164 0.339673 1.13051e-20)
(1.21163 0.324182 5.69471e-21)
(0.172019 0.0461912 1.43347e-19)
(0.481034 0.144271 -6.64782e-21)
(0.749969 0.24848 2.767e-19)
(0.96415 0.338345 -3.11611e-19)
(1.11579 0.403399 4.89214e-20)
(1.20868 0.441341 8.5891e-21)