/*--------------------------------*- C++ -*----------------------------------*\
  =========                 |
  \\      /  F ield         | OpenFOAM: The Open Source CFD Toolbox
   \\    /   O peration     | Website:  https://openfoam.org
    \\  /    A nd           | Version:  7
     \\/     M anipulation  |
\*---------------------------------------------------------------------------*/
FoamFile
{
    version     2.0;
    format      ascii;
    class       volVectorField;
    location    "60";
    object      U;
}
// * * * * * * * * * * * * * * * * * * * * * * * * * * * * * * * * * * * * * //

dimensions      [0 1 -1 0 0 0 0];

internalField   nonuniform List<vector> 
8500
(
(-0.00852114 0.00657526 4.48935e-20)
(-0.00846073 0.00628676 3.81522e-20)
(-0.0183281 0.0147655 -5.04952e-20)
(-0.00834964 0.00597588 2.44894e-19)
(-0.0174971 0.0138357 -1.45074e-19)
(-0.0191813 0.0191429 -1.47251e-21)
(-0.00818172 0.00564236 -1.27758e-19)
(-0.0164718 0.012855 2.55764e-22)
(-0.0167576 0.0176568 1.04801e-19)
(-0.00795038 0.00528618 -4.58758e-20)
(-0.0152339 0.0118258 2.62337e-20)
(-0.013949 0.0161233 3.94269e-20)
(-0.00421748 0.018727 -1.14342e-19)
(-0.00764871 0.00490758 2.35159e-19)
(-0.0137646 0.0107513 -5.96385e-20)
(-0.0107261 0.0145509 -8.49548e-20)
(0.0013034 0.0168458 4.41596e-20)
(0.0223541 0.0183739 2.05059e-19)
(-0.00726946 0.00450719 -1.05583e-19)
(-0.0120441 0.00963556 1.54424e-20)
(-0.00705926 0.0129496 -1.20307e-19)
(0.00747637 0.0149727 -1.67586e-19)
(0.0315701 0.0164671 -7.13333e-20)
(0.0652349 0.0181091 -3.94726e-20)
(-0.00680512 0.00408599 -1.04881e-19)
(-0.0100528 0.00848399 2.30539e-19)
(-0.00291901 0.0113308 1.42411e-19)
(0.0143377 0.0131269 6.35284e-20)
(0.0416954 0.0146559 -2.30484e-20)
(0.0791271 0.0166089 -1.49209e-19)
(0.12656 0.0195788 2.03707e-20)
(-0.00624799 0.00364542 1.87635e-20)
(-0.00777066 0.00730301 -3.3886e-20)
(0.00172373 0.00970794 2.53495e-20)
(0.021922 0.0113295 -6.14172e-20)
(0.0527654 0.0129699 1.29734e-19)
(0.0941748 0.0153309 2.32593e-19)
(0.145996 0.0190051 7.18763e-20)
(0.207922 0.0244894 4.49991e-20)
(-0.00559023 0.00318743 -6.41843e-20)
(-0.00517773 0.0061004 -1.48428e-19)
(0.00689723 0.00809609 -1.12951e-19)
(0.0302617 0.00960408 3.49103e-20)
(0.0648114 0.0114408 -1.8695e-19)
(0.110401 0.0143142 -2.30439e-19)
(0.166773 0.0188101 -3.01099e-20)
(0.233471 0.0254032 -7.02943e-20)
(0.309709 0.034427 -6.43122e-21)
(-0.00482396 0.00271446 -5.03196e-20)
(-0.00225439 0.00488527 -3.95573e-20)
(0.0126286 0.00651234 1.73522e-19)
(0.0393868 0.00797605 -1.07001e-19)
(0.0778597 0.0101024 2.74107e-19)
(0.127819 0.0135996 1.14419e-19)
(0.188883 0.0190384 -7.47136e-20)
(0.260412 0.0268608 -1.26845e-19)
(0.341377 0.037343 -1.99978e-19)
(0.430244 0.0505572 2.10829e-19)
(-0.00394129 0.00222952 9.92412e-20)
(0.00101847 0.00366818 1.60634e-19)
(0.0189434 0.00497575 6.9777e-21)
(0.0493237 0.0064732 9.82379e-20)
(0.0919306 0.00899054 -2.36705e-19)
(0.146434 0.0132289 5.71594e-20)
(0.212302 0.0197346 -3.75658e-20)
(0.288684 0.028904 -7.5575e-21)
(0.37427 0.0409408 -6.94553e-20)
(0.467194 0.0558141 -1.5003e-19)
(0.564992 0.0732282 7.30047e-20)
(-0.00293442 0.00173622 -1.77927e-20)
(0.00465923 0.00246116 -2.44772e-19)
(0.0258651 0.00350731 -1.87543e-19)
(0.060095 0.00512537 -1.20468e-20)
(0.107038 0.00814259 4.18944e-20)
(0.166242 0.0132448 -8.04386e-20)
(0.236997 0.0209423 -1.0406e-21)
(0.318207 0.0315718 2.58274e-20)
(0.408255 0.0452471 3.79895e-20)
(0.504915 0.061817 2.15463e-19)
(0.605359 0.080842 8.84972e-20)
(0.706277 0.101603 5.35933e-20)
(0.804139 0.123159 -7.05826e-20)
(-0.00179574 0.00123876 3.25864e-20)
(0.00868524 0.00127772 1.30514e-19)
(0.0334149 0.00212999 8.02258e-20)
(0.071719 0.00396435 -1.49436e-19)
(0.123189 0.00759754 3.16057e-20)
(0.187227 0.0136902 1.90513e-19)
(0.262917 0.0227036 1.0332e-19)
(0.348886 0.0348988 1.31561e-20)
(0.443177 0.0502817 1.23903e-19)
(0.543194 0.0685639 -2.49892e-19)
(0.645751 0.08915 -6.9732e-20)
(0.747266 0.111168 -2.94358e-20)
(0.844082 0.133553 1.72867e-19)
(0.932863 0.155173 -1.13047e-19)
(-0.000517959 0.000741928 -3.04088e-20)
(0.0131126 0.000132821 -1.88651e-20)
(0.0416111 0.000868605 -4.86143e-20)
(0.0842087 0.00302373 1.56042e-19)
(0.140382 0.00739544 1.0524e-19)
(0.209364 0.0146078 -3.25909e-20)
(0.289999 0.0250584 -5.34933e-21)
(0.380607 0.0389149 1.27305e-19)
(0.47887 0.0560573 -1.93074e-19)
(0.58181 0.0760438 1.16274e-19)
(0.685907 0.0981148 1.18005e-19)
(0.787358 0.121248 3.14152e-20)
(0.882458 0.144272 -6.13444e-20)
(0.968027 0.166013 8.85822e-20)
(1.04178 0.185455 7.1943e-20)
(0.000906019 0.000251098 -4.84591e-20)
(0.0179558 -0.000957157 2.1014e-20)
(0.0504687 -0.000250282 1.37089e-19)
(0.0975719 0.00233863 2.0646e-21)
(0.158608 0.00757702 -2.27334e-19)
(0.232613 0.0160393 -1.55646e-19)
(0.318163 0.0280433 -1.31049e-19)
(0.413242 0.0436446 -6.7949e-20)
(0.51515 0.0625788 2.56783e-19)
(0.620534 0.0842369 -1.13404e-20)
(0.72557 0.107691 3.40738e-20)
(0.826298 0.131777 5.50285e-20)
(0.919053 0.155239 -1.81543e-19)
(1.0009 0.176891 -1.43006e-19)
(1.06995 0.19578 3.78338e-20)
(1.1255 0.21128 -6.87788e-21)
(1.16798 0.223168 -1.42768e-19)
(0.00248276 -0.000227679 6.11763e-20)
(0.0232277 -0.00197437 7.88103e-20)
(0.0599991 -0.0011985 -1.42833e-19)
(0.11181 0.00194538 -7.89863e-21)
(0.177848 0.00818328 2.70533e-19)
(0.256925 0.0180254 1.66506e-19)
(0.347319 0.0316917 -6.727e-20)
(0.44665 0.0491066 9.80671e-20)
(0.551826 0.0698434 -1.02251e-19)
(0.659133 0.0931151 -1.029e-19)
(0.764491 0.117826 1.04209e-19)
(0.863857 0.142685 -2.07506e-19)
(0.953694 0.166378 2.51769e-20)
(1.03139 0.187739 9.65611e-20)
(1.09551 0.205905 -5.21803e-20)
(1.14585 0.22039 7.27512e-20)
(1.1833 0.231117 -8.68132e-20)
(1.20947 0.238235 1.37043e-20)
(0.00421818 -0.000687787 7.25434e-20)
(0.0289389 -0.00289977 -2.39057e-19)
(0.0702096 -0.00194651 3.79108e-20)
(0.126918 0.00188123 -3.9816e-20)
(0.198074 0.00925491 -9.46401e-20)
(0.282239 0.0206043 -7.68213e-20)
(0.377361 0.0360324 6.72934e-20)
(0.480676 0.0553128 -3.07858e-19)
(0.588699 0.0778405 -7.21333e-20)
(0.697379 0.102643 4.46275e-20)
(0.80244 0.128463 -5.66648e-20)
(0.899836 0.153903 1.61628e-19)
(0.986244 0.177619 1.11811e-19)
(1.05944 0.198499 3.85406e-20)
(1.11849 0.215794 2.07253e-19)
(1.16369 0.22917 -2.00077e-19)
(1.19634 0.238702 1.20984e-19)
(1.21835 0.244678 1.64462e-19)
(1.23198 0.247944 -1.13313e-19)
(1.23922 0.247957 3.14479e-20)
(0.00611767 -0.00112208 6.11496e-21)
(0.0350978 -0.00371311 -2.42375e-21)
(0.0811031 -0.0024636 1.75521e-19)
(0.142884 0.00218392 -2.57096e-20)
(0.219249 0.0108318 -1.01175e-20)
(0.30848 0.0238116 1.82357e-19)
(0.40817 0.0410894 2.08539e-19)
(0.515156 0.0622685 5.49871e-20)
(0.625565 0.086552 1.1919e-19)
(0.73505 0.11278 -7.84813e-20)
(0.839204 0.139542 -6.50969e-20)
(0.934066 0.165363 -7.07961e-22)
(1.01661 0.188899 -7.75067e-20)
(1.08506 0.20912 -2.85402e-21)
(1.13899 0.225418 -1.46339e-19)
(1.17918 0.237618 5.59952e-20)
(1.2073 0.24594 1.27214e-19)
(1.2255 0.250801 -6.23444e-20)
(1.23611 0.253077 6.98237e-20)
(1.24114 0.25238 1.19101e-19)
(0.00818587 -0.00152286 2.3373e-20)
(0.0417102 -0.0043931 -6.28751e-20)
(0.0926777 -0.00271819 -3.65141e-21)
(0.159688 0.00289124 9.42495e-22)
(0.241327 0.0129524 -1.22615e-19)
(0.335566 0.0276797 -1.67557e-20)
(0.439621 0.0468815 -2.15912e-19)
(0.54992 0.0699724 2.23272e-19)
(0.662223 0.095953 1.14262e-19)
(0.771935 0.123477 9.38757e-21)
(0.874596 0.151003 -1.08123e-21)
(0.966413 0.176999 -5.66073e-20)
(1.04473 0.200159 3.36131e-20)
(1.10826 0.219565 8.90483e-20)
(1.1571 0.234761 -1.51765e-19)
(1.19247 0.245739 1.12913e-19)
(1.21637 0.252855 -1.31317e-19)
(1.23112 0.256638 -5.59702e-21)
(1.23907 0.257983 -1.05789e-22)
(1.24219 0.256626 5.27156e-20)
(0.0104266 -0.00188194 -5.04094e-20)
(0.0487789 -0.00491755 -5.81914e-20)
(0.104926 -0.00267812 8.12981e-20)
(0.177305 0.00404063 -3.63182e-20)
(0.264251 0.0156534 -1.14978e-20)
(0.363401 0.0322369 -1.08366e-19)
(0.471574 0.0534213 1.20317e-19)
(0.584792 0.0784159 -2.131e-19)
(0.698474 0.106012 2.04032e-20)
(0.807839 0.134685 3.2123e-20)
(0.908452 0.162782 -1.71713e-20)
(0.996776 0.18875 1.28145e-20)
(1.07058 0.211352 -1.39885e-19)
(1.12911 0.229803 -1.04114e-19)
(1.17295 0.243816 8.62864e-20)
(1.20375 0.253545 -2.69996e-20)
(1.22374 0.259473 -1.55548e-19)
(1.23539 0.262224 -2.73761e-20)
(1.24101 0.262699 -1.1937e-19)
(1.2425 0.260732 -1.42007e-19)
(0.0128425 -0.00219068 -1.21946e-20)
(0.056304 -0.00526358 8.49626e-20)
(0.117837 -0.00231099 6.2389e-20)
(0.1957 0.00566863 1.79221e-19)
(0.287955 0.0189687 -6.8594e-21)
(0.391881 0.0375073 9.30317e-20)
(0.503886 0.0607158 -1.97353e-19)
(0.619595 0.0875843 6.81453e-20)
(0.734126 0.116693 -5.6887e-20)
(0.842582 0.146351 8.20652e-20)
(0.940637 0.174821 1.96137e-20)
(1.02509 0.200563 4.66768e-20)
(1.09418 0.222436 1.30371e-19)
(1.14769 0.239815 1.5648e-20)
(1.18669 0.252585 -7.71897e-20)
(1.21318 0.261055 1.24149e-19)
(1.2296 0.265826 4.15163e-20)
(1.23848 0.267595 -1.91045e-20)
(1.24209 0.267258 1.12362e-19)
(1.2422 0.264728 7.12698e-20)
(0.0154356 -0.00244006 4.02489e-20)
(0.0642819 -0.00540781 4.48691e-20)
(0.131391 -0.00158449 -1.09744e-19)
(0.21483 0.00781048 -2.43649e-20)
(0.312365 0.0229293 3.19668e-20)
(0.420893 0.0435099 -1.8817e-20)
(0.536407 0.0687658 1.12092e-19)
(0.654153 0.0974565 -3.57e-20)
(0.769 0.127953 -4.29294e-20)
(0.876007 0.158419 -1.45171e-19)
(0.971043 0.187061 -9.21243e-20)
(1.0513 0.212386 -8.25303e-20)
(1.11555 0.23338 -6.63603e-20)
(1.1641 0.249588 2.49622e-20)
(1.19846 0.261073 -4.69909e-20)
(1.22093 0.268291 5.75794e-21)
(1.23411 0.271942 8.40968e-20)
(1.24055 0.272784 8.55192e-20)
(1.24242 0.27169 5.09262e-21)
(1.24137 0.268643 4.81322e-20)
(0.0182065 -0.00262075 2.12391e-20)
(0.072706 -0.00532658 7.77115e-20)
(0.145566 -0.000466794 6.05637e-20)
(0.234648 0.0104996 -9.97838e-20)
(0.337398 0.0275627 9.25005e-20)
(0.450318 0.0502587 -2.99993e-20)
(0.568985 0.0775657 -6.2647e-20)
(0.688294 0.108006 1.48797e-19)
(0.802927 0.139749 -3.73165e-20)
(0.907978 0.170835 -1.99538e-21)
(0.99959 0.19945 9.81956e-20)
(1.07541 0.224178 -8.80685e-20)
(1.13476 0.244158 3.6984e-20)
(1.17845 0.259118 -9.28605e-20)
(1.2084 0.269292 1.51087e-19)
(1.22716 0.275277 -1.11298e-19)
(1.23744 0.277852 -6.43135e-20)
(1.24173 0.27782 -6.59233e-22)
(1.24211 0.276022 -8.63065e-20)
(1.24009 0.272499 -1.31577e-21)
(0.0211545 -0.00272317 -9.46651e-20)
(0.081566 -0.00499617 -3.36286e-20)
(0.160332 0.00107307 -1.13993e-19)
(0.255096 0.0137671 -6.31414e-20)
(0.362964 0.0328923 -3.15627e-20)
(0.48003 0.0577623 -1.55613e-20)
(0.601464 0.0871043 6.91217e-20)
(0.721853 0.1192 -3.74082e-20)
(0.835754 0.152032 -1.84482e-20)
(0.938379 0.183545 4.52084e-20)
(1.02622 0.211936 -6.11876e-20)
(1.09744 0.235902 7.6247e-20)
(1.15189 0.254752 7.20729e-20)
(1.19087 0.268403 1.5842e-20)
(1.21667 0.27726 -4.26968e-20)
(1.23203 0.282038 -9.51037e-21)
(1.23971 0.283585 -5.49428e-20)
(1.24213 0.282731 -2.21335e-20)
(1.24124 0.280278 3.57957e-20)
(1.23842 0.276315 -5.48848e-20)
(0.0242779 -0.00273759 3.18695e-20)
(0.0908479 -0.00439311 -5.31426e-20)
(0.175655 0.00306485 9.00537e-20)
(0.276112 0.0176413 4.14002e-20)
(0.388966 0.0389374 -5.98995e-20)
(0.509899 0.0660235 7.36423e-20)
(0.633693 0.0973645 1.81379e-20)
(0.754672 0.131004 -3.20627e-20)
(0.867344 0.164755 8.70437e-20)
(0.96712 0.196497 2.52227e-20)
(1.05091 0.224477 4.77075e-20)
(1.1174 0.247528 -4.88156e-20)
(1.16701 0.26515 -3.19045e-20)
(1.20148 0.277451 6.47633e-20)
(1.22342 0.284993 -1.84336e-20)
(1.23569 0.288598 9.96858e-20)
(1.24105 0.289167 5.06755e-20)
(1.24186 0.287541 -7.4087e-21)
(1.2399 0.284476 2.50465e-20)
(1.23641 0.280106 8.9738e-20)
(0.0275736 -0.00265423 -1.56871e-20)
(0.100534 -0.00349437 8.89526e-21)
(0.191494 0.00553663 -8.35915e-20)
(0.297625 0.0221475 5.30246e-20)
(0.415302 0.0457122 4.88997e-20)
(0.539794 0.0750397 -6.97348e-20)
(0.665522 0.108324 3.22906e-20)
(0.786606 0.143377 -6.24165e-20)
(0.897578 0.177867 -8.80632e-20)
(0.994129 0.209641 3.13708e-20)
(1.07364 0.237031 5.91015e-21)
(1.13536 0.259032 4.68656e-20)
(1.18023 0.275346 3.04702e-20)
(1.21042 0.286269 -2.08538e-20)
(1.22877 0.292511 -4.15394e-21)
(1.23825 0.294984 -1.52787e-20)
(1.24158 0.294624 -7.49641e-20)
(1.241 0.292272 6.65251e-21)
(1.23814 0.288633 -4.42016e-20)
(1.2341 0.283883 2.56632e-22)
(0.0310369 -0.00246332 -1.81284e-20)
(0.110603 -0.00227767 -2.29593e-20)
(0.207804 0.00851455 8.86967e-20)
(0.31956 0.0273074 -1.06624e-20)
(0.441864 0.0532264 1.72118e-22)
(0.569581 0.0848028 -4.82323e-20)
(0.696807 0.119955 -8.38058e-21)
(0.817519 0.156277 3.34343e-20)
(0.926356 0.191318 1.14238e-19)
(1.01936 0.222932 -3.63343e-20)
(1.09442 0.249563 5.93273e-21)
(1.15137 0.270396 1.8719e-20)
(1.19166 0.285338 -3.62859e-20)
(1.21781 0.29487 -2.25618e-20)
(1.23286 0.299833 6.37932e-21)
(1.23983 0.301216 1.97521e-20)
(1.24138 0.299975 4.75611e-20)
(1.23961 0.296941 -1.14098e-21)
(1.236 0.29276 1.57738e-20)
(1.23152 0.287653 9.73075e-21)
(0.0346618 -0.00215527 3.16724e-20)
(0.12103 -0.000721749 6.47725e-20)
(0.224535 0.0120224 4.46976e-20)
(0.341836 0.0331388 -2.41909e-20)
(0.468543 0.0614844 8.93082e-20)
(0.599128 0.0952991 5.25229e-20)
(0.72741 0.132227 -7.86734e-20)
(0.84729 0.16966 -2.73564e-20)
(0.953593 0.205061 4.40946e-22)
(1.04277 0.236325 -2.2437e-20)
(1.11329 0.262044 -6.28656e-20)
(1.16552 0.281605 1.04984e-20)
(1.2014 0.295127 1.17198e-22)
(1.22376 0.303266 -6.05317e-20)
(1.2358 0.306981 2.68185e-20)
(1.24054 0.307317 -1.39775e-20)
(1.24054 0.30524 -5.76839e-20)
(1.23776 0.301562 2.67e-20)
(1.23353 0.296869 -5.18696e-20)
(1.22869 0.291423 -2.89698e-20)
(0.0384411 -0.00172071 -1.10336e-20)
(0.131786 0.00119338 -2.76173e-20)
(0.241631 0.0160811 -4.63166e-20)
(0.364368 0.0396555 -2.21678e-21)
(0.495225 0.0704855 -3.71366e-21)
(0.628306 0.10651 -5.02792e-20)
(0.757201 0.145103 1.1062e-20)
(0.875811 0.183479 1.04819e-20)
(0.979224 0.219048 -2.20417e-20)
(1.06437 0.249782 1.75087e-21)
(1.13027 0.274447 3.34141e-20)
(1.17788 0.29265 -4.24132e-21)
(1.20955 0.304718 2.37879e-20)
(1.2284 0.311471 1.04059e-20)
(1.23771 0.313971 -5.42903e-20)
(1.24047 0.313304 4.35843e-21)
(1.23914 0.310435 3.08161e-20)
(1.2355 0.306146 -6.68735e-21)
(1.23076 0.300964 1.87475e-21)
(1.22562 0.295194 -3.69573e-21)
(0.0423658 -0.00115062 -1.02792e-20)
(0.14284 0.00348616 -1.00516e-20)
(0.259031 0.0207089 -1.77392e-20)
(0.387068 0.0468666 -1.16181e-20)
(0.521797 0.0802238 -2.99405e-20)
(0.656989 0.118412 3.49858e-20)
(0.78606 0.158546 6.89742e-20)
(0.90299 0.197687 2.38475e-20)
(1.0032 0.233232 1.20051e-20)
(1.08414 0.263265 -2.86107e-20)
(1.14543 0.28675 -2.99828e-22)
(1.18855 0.303523 1.7652e-20)
(1.21624 0.314116 -2.20909e-20)
(1.23184 0.319499 7.71975e-21)
(1.23868 0.32082 2.61228e-20)
(1.2397 0.319195 -8.43205e-21)
(1.23721 0.315572 -1.43972e-20)
(1.23287 0.310702 -1.24579e-20)
(1.22772 0.305051 4.02688e-20)
(1.22234 0.298968 1.27599e-20)
(0.0464257 -0.000436488 -1.87089e-20)
(0.154156 0.00617324 2.25055e-20)
(0.276674 0.0259205 -5.20752e-21)
(0.409844 0.0547769 1.58898e-20)
(0.548145 0.0906884 -1.41681e-20)
(0.685053 0.130977 -8.65025e-21)
(0.813877 0.172513 -3.38457e-20)
(0.928747 0.212238 3.97553e-21)
(1.02549 0.247571 9.32716e-21)
(1.1021 0.276743 2.04848e-20)
(1.15881 0.298936 -7.8918e-21)
(1.1976 0.314222 -6.10283e-21)
(1.22155 0.323328 5.276e-21)
(1.23416 0.327364 -8.93202e-21)
(1.2388 0.327545 1.97451e-20)
(1.23829 0.325002 1.2511e-20)
(1.23483 0.320662 -1.92077e-21)
(1.22989 0.315235 -1.19431e-21)
(1.22441 0.309132 -1.09678e-20)
(1.21885 0.302744 -1.22333e-20)
(0.0506093 0.000429655 4.05872e-21)
(0.165696 0.00926921 -7.09206e-21)
(0.294492 0.0317271 4.78492e-21)
(0.432602 0.0633864 -6.58946e-21)
(0.574159 0.101863 -2.52495e-20)
(0.712386 0.144172 1.1643e-20)
(0.840553 0.186961 5.50518e-21)
(0.953018 0.227085 -2.64205e-20)
(1.04606 0.262023 -1.64002e-20)
(1.11829 0.290184 -1.52977e-21)
(1.17049 0.31099 -2.18354e-20)
(1.20513 0.324743 2.19479e-20)
(1.22558 0.332363 -1.2938e-22)
(1.23548 0.335078 -2.74693e-21)
(1.23814 0.334159 -5.10691e-21)
(1.23631 0.330737 2.29309e-21)
(1.23201 0.325711 1.67681e-21)
(1.2266 0.319749 -4.34531e-22)
(1.22085 0.313207 -3.72566e-21)
(1.21515 0.306519 4.05628e-21)
(0.0549035 0.00145508 1.38246e-21)
(0.177419 0.0127864 4.70971e-21)
(0.312416 0.0381362 2.61105e-21)
(0.455249 0.0726906 -1.2161e-21)
(0.599728 0.113728 1.67452e-20)
(0.738877 0.157962 -3.72256e-21)
(0.865998 0.201845 5.83761e-21)
(0.975749 0.242181 1.28516e-20)
(1.06492 0.276549 -2.27876e-21)
(1.13273 0.303564 5.85113e-22)
(1.18054 0.322897 6.05046e-21)
(1.21123 0.335087 -3.1003e-21)
(1.22843 0.341228 3.8475e-21)
(1.23586 0.342653 7.18444e-22)
(1.23678 0.340672 -6.61838e-21)
(1.2338 0.336407 3.67579e-22)
(1.22881 0.330724 7.54414e-21)
(1.223 0.324244 -1.35885e-21)
(1.21706 0.317275 1.97847e-21)
(1.21125 0.310291 -1.98127e-21)
(0.0592946 0.0026463 5.86525e-22)
(0.189282 0.0167349 7.04342e-21)
(0.330374 0.0451516 3.75271e-21)
(0.477688 0.0826799 -7.94376e-22)
(0.624746 0.126256 1.57005e-20)
(0.764427 0.172308 -4.45869e-21)
(0.890137 0.217117 8.15888e-21)
(0.996902 0.25748 1.08127e-20)
(1.08207 0.291111 -2.21109e-21)
(1.14547 0.316857 4.86451e-22)
(1.18902 0.334649 6.82091e-21)
(1.21597 0.345254 -2.72157e-21)
(1.23018 0.349929 2.40587e-21)
(1.23538 0.350097 -5.51348e-22)
(1.23477 0.347093 -5.16618e-21)
(1.23081 0.342019 -1.32352e-22)
(1.22524 0.335703 7.15766e-21)
(1.21913 0.328721 -1.22758e-21)
(1.21303 0.321331 2.14783e-21)
(1.20714 0.314054 -1.95984e-21)
(0.0637672 0.00400895 5.03775e-21)
(0.201239 0.0211218 -9.09236e-21)
(0.348293 0.0527729 4.64755e-21)
(0.499828 0.0933403 -3.71388e-21)
(0.649113 0.139419 -2.49879e-20)
(0.788943 0.187167 1.00548e-20)
(0.912904 0.232732 4.66681e-21)
(1.01645 0.272939 -3.06737e-20)
(1.09752 0.305676 -1.2618e-20)
(1.15657 0.330043 -2.08359e-23)
(1.19601 0.346237 -1.84562e-20)
(1.21946 0.355245 1.47214e-20)
(1.23091 0.358474 -3.0711e-21)
(1.23411 0.35742 1.93249e-21)
(1.23216 0.353428 -6.57927e-21)
(1.22737 0.347576 4.75042e-21)
(1.22133 0.340649 2.54007e-21)
(1.21498 0.333176 -5.53124e-22)
(1.20878 0.325374 -4.29038e-21)
(1.20285 0.317802 3.35453e-21)
(0.0683049 0.0055477 -1.0996e-20)
(0.213243 0.0259518 -4.9555e-21)
(0.366099 0.0609956 -7.05163e-21)
(0.521575 0.104653 2.45393e-20)
(0.67273 0.153183 -3.89969e-24)
(0.812341 0.202495 -1.28326e-20)
(0.934243 0.24864 -5.13828e-20)
(1.03438 0.288514 4.98519e-21)
(1.1113 0.320211 5.74439e-21)
(1.16606 0.343102 2.43347e-20)
(1.20158 0.357652 3.56666e-21)
(1.22175 0.36506 -1.87146e-20)
(1.23069 0.366868 1.68002e-20)
(1.23211 0.364627 -6.46049e-21)
(1.22899 0.359683 2.21041e-20)
(1.22351 0.35308 -2.19289e-21)
(1.21709 0.345561 8.39053e-22)
(1.21056 0.337606 7.20749e-22)
(1.20431 0.329395 -1.0105e-20)
(1.19835 0.321529 -4.9578e-21)
(0.0728903 0.00726616 -4.27742e-21)
(0.225245 0.0312266 -2.39092e-20)
(0.383718 0.0698112 1.86956e-20)
(0.54284 0.116595 -2.37645e-20)
(0.695506 0.16751 -4.26087e-20)
(0.834547 0.218245 3.65123e-20)
(0.954109 0.264793 5.92995e-20)
(1.05067 0.304163 2.09076e-20)
(1.12343 0.334684 1.42411e-20)
(1.17402 0.356015 -3.88184e-20)
(1.2058 0.368888 2.88743e-20)
(1.22293 0.374702 3.01061e-21)
(1.22959 0.375115 -3.24014e-20)
(1.22943 0.371722 1.23628e-20)
(1.22531 0.365858 3.85467e-20)
(1.21925 0.358531 -2.45058e-20)
(1.21254 0.350434 -5.96227e-21)
(1.20589 0.342006 -4.90956e-21)
(1.19962 0.333391 2.0284e-20)
(1.19365 0.325229 9.4708e-21)
(0.0775056 0.00916684 2.87727e-20)
(0.237196 0.0369447 -4.92221e-20)
(0.401076 0.0792071 -7.09096e-20)
(0.563535 0.12914 3.13963e-21)
(0.717359 0.182361 -1.29519e-20)
(0.855493 0.23437 -5.03904e-20)
(0.97247 0.281144 -8.07924e-21)
(1.06534 0.319845 2.51396e-20)
(1.13395 0.349067 -3.88152e-20)
(1.18049 0.368767 3.09403e-20)
(1.20874 0.379938 3.38976e-20)
(1.22306 0.384168 -2.06183e-20)
(1.22766 0.383217 8.33388e-21)
(1.22612 0.378707 3.66446e-20)
(1.22114 0.371955 -4.60169e-20)
(1.21461 0.363924 6.64744e-21)
(1.20768 0.355265 1.59907e-20)
(1.20097 0.346368 -4.29765e-21)
(1.19471 0.337352 -5.04981e-21)
(1.18876 0.328894 -9.54785e-22)
(0.082132 0.0112511 4.30794e-20)
(0.249046 0.043102 7.90314e-20)
(0.4181 0.0891666 4.14264e-20)
(0.583576 0.142255 -4.93951e-20)
(0.738208 0.19769 1.27676e-19)
(0.875124 0.250819 1.962e-20)
(0.989298 0.297645 -5.23852e-20)
(1.07839 0.335521 -3.69416e-20)
(1.14289 0.363332 -2.82666e-20)
(1.18555 0.38134 9.79614e-21)
(1.21047 0.390796 -3.0065e-20)
(1.2222 0.393459 4.24377e-22)
(1.22496 0.391176 -1.78052e-20)
(1.22221 0.385583 -2.28752e-20)
(1.21652 0.377971 -3.50539e-21)
(1.20961 0.369257 -1.51036e-21)
(1.20253 0.360047 -2.97832e-20)
(1.19579 0.350687 1.82276e-20)
(1.18958 0.341273 -2.26329e-20)
(1.18367 0.332515 -9.17082e-21)
(0.0867503 0.013519 -5.2453e-20)
(0.260744 0.0496911 -2.1363e-20)
(0.434718 0.0996693 9.45821e-20)
(0.602886 0.155905 2.35557e-20)
(0.757984 0.213453 -8.05233e-20)
(0.893392 0.267541 -4.58081e-20)
(1.00458 0.314248 -1.46775e-20)
(1.08985 0.351154 9.53353e-20)
(1.15031 0.377454 6.59288e-20)
(1.18923 0.393722 -2.11217e-20)
(1.21105 0.401455 -1.1248e-20)
(1.22042 0.402573 2.90733e-20)
(1.22154 0.39899 -2.7429e-20)
(1.21774 0.392348 1.22893e-20)
(1.21146 0.383903 3.79842e-21)
(1.20426 0.374524 -5.40322e-21)
(1.19709 0.364772 3.37361e-20)
(1.19037 0.354953 -1.17406e-20)
(1.18422 0.345142 1.81699e-20)
(1.17838 0.336084 -2.20976e-21)
(0.0913411 0.0159696 -2.98431e-20)
(0.27224 0.0567016 -5.42457e-20)
(0.450862 0.110691 -8.5042e-20)
(0.621389 0.170053 5.13435e-20)
(0.776622 0.2296 2.83423e-20)
(0.910255 0.284487 -3.88153e-20)
(1.0183 0.330907 6.3659e-20)
(1.09972 0.366706 -9.54817e-20)
(1.15624 0.391408 -9.75761e-20)
(1.19161 0.405897 5.69646e-20)
(1.21054 0.411909 1.98117e-20)
(1.21776 0.411506 -2.08927e-20)
(1.21743 0.406658 3.14315e-20)
(1.21274 0.398999 2.16749e-20)
(1.20598 0.389746 -1.34754e-20)
(1.19858 0.379718 -3.40989e-21)
(1.19136 0.369433 -2.40701e-20)
(1.1847 0.359157 2.4077e-21)
(1.17865 0.348953 -1.0784e-20)
(1.17289 0.339592 3.87079e-22)
(0.0958845 0.0186004 2.4739e-20)
(0.283485 0.0641202 -4.29213e-20)
(0.466464 0.122203 7.76275e-20)
(0.639016 0.184656 1.30201e-19)
(0.794066 0.24608 -1.84805e-19)
(0.925683 0.301603 1.60315e-19)
(1.03047 0.347576 4.16263e-20)
(1.10804 0.382142 -5.93615e-20)
(1.16074 0.405169 6.77351e-20)
(1.19274 0.417851 3.72807e-20)
(1.20899 0.422151 4.30787e-20)
(1.21429 0.420255 -7.13087e-20)
(1.21268 0.414176 -1.19746e-20)
(1.20724 0.405532 2.9624e-20)
(1.2001 0.395493 1.06899e-20)
(1.19256 0.38483 3.72455e-20)
(1.18536 0.37402 3.79135e-20)
(1.17879 0.363291 -8.06565e-21)
(1.17286 0.352694 8.13692e-21)
(1.1672 0.34303 2.23287e-21)
(0.100361 0.0214079 -7.52836e-21)
(0.294431 0.0719307 -1.00296e-19)
(0.481461 0.134175 -1.35994e-19)
(0.655704 0.19967 -1.75525e-19)
(0.810266 0.262843 -1.65845e-20)
(0.939652 0.318837 6.27983e-20)
(1.04108 0.364209 -1.16033e-20)
(1.11484 0.397427 2.03488e-20)
(1.16385 0.418714 -3.00885e-20)
(1.19268 0.42957 4.65034e-20)
(1.20647 0.432171 -6.74595e-20)
(1.21003 0.428814 8.05209e-20)
(1.20731 0.421539 4.20357e-20)
(1.20126 0.411938 1.49702e-20)
(1.19383 0.401135 -2.1902e-20)
(1.18622 0.389852 -2.18241e-20)
(1.17907 0.378523 -1.43624e-20)
(1.17263 0.367343 8.37752e-22)
(1.16686 0.356357 3.56677e-21)
(1.16131 0.346389 -1.21144e-21)
(0.10475 0.0243872 -1.28126e-20)
(0.305029 0.0801142 7.79973e-20)
(0.495793 0.146573 9.76223e-20)
(0.671393 0.215048 -1.52085e-20)
(0.825181 0.279835 4.40164e-20)
(0.952145 0.336139 1.13511e-20)
(1.05015 0.380764 -6.28312e-20)
(1.12015 0.412528 4.80738e-20)
(1.16562 0.43202 4.31825e-20)
(1.19148 0.44104 -6.98999e-20)
(1.20301 0.441961 1.05578e-19)
(1.20503 0.437176 -7.91412e-20)
(1.20137 0.428739 4.17637e-20)
(1.19481 0.418212 -5.28258e-20)
(1.18718 0.406665 6.6194e-20)
(1.17956 0.394772 -3.23323e-20)
(1.17251 0.382931 -5.94245e-21)
(1.16622 0.371304 -4.58498e-21)
(1.16063 0.359929 -1.84209e-21)
(1.15523 0.349658 1.78076e-21)
(0.109033 0.0275322 9.27441e-20)
(0.315236 0.0886488 9.76958e-20)
(0.509403 0.159358 -1.39958e-19)
(0.686032 0.23074 -8.43039e-20)
(0.838775 0.297001 1.23449e-19)
(0.963152 0.353456 -4.8574e-20)
(1.05769 0.397195 6.883e-20)
(1.12401 0.427413 2.86461e-20)
(1.16609 0.445067 -6.30407e-20)
(1.18918 0.452248 -1.4569e-19)
(1.19867 0.451513 -2.57001e-20)
(1.19933 0.445335 -4.62762e-20)
(1.19487 0.43577 -6.28932e-20)
(1.18793 0.424343 4.71076e-21)
(1.18017 0.412072 -8.09717e-21)
(1.1726 0.399581 -1.90062e-21)
(1.16568 0.387234 1.77465e-20)
(1.15957 0.375161 5.36099e-21)
(1.15418 0.363401 3.86669e-21)
(1.14894 0.352828 -5.27732e-21)
(0.11319 0.0308355 -2.23423e-20)
(0.325006 0.0975104 1.73201e-19)
(0.522239 0.172491 6.65863e-20)
(0.699573 0.246696 1.34896e-19)
(0.85102 0.314286 4.35962e-20)
(0.972671 0.370736 1.69631e-20)
(1.06373 0.41346 -9.88322e-20)
(1.12646 0.442049 -3.02197e-20)
(1.16533 0.45783 1.59271e-20)
(1.18584 0.463178 1.06946e-19)
(1.19349 0.460815 -3.33846e-20)
(1.19296 0.453279 3.90865e-20)
(1.18784 0.442622 6.68244e-20)
(1.18061 0.430322 1.34863e-20)
(1.17281 0.417344 -1.13595e-20)
(1.16532 0.404267 9.5043e-21)
(1.15857 0.39142 7.40017e-21)
(1.15267 0.378905 -4.28788e-21)
(1.14751 0.366761 -9.65541e-21)
(1.14247 0.355888 -1.99037e-20)
(0.117203 0.0342888 -5.83892e-20)
(0.3343 0.106672 -8.88911e-20)
(0.534251 0.185929 5.62794e-20)
(0.711978 0.262862 1.87806e-20)
(0.861896 0.331635 3.59393e-20)
(0.980703 0.387929 -1.46659e-19)
(1.0683 0.429518 5.13373e-20)
(1.12755 0.456406 -1.05629e-19)
(1.16337 0.470291 -5.49937e-20)
(1.18152 0.473815 5.94221e-20)
(1.18751 0.469856 -6.98861e-21)
(1.18596 0.461001 2.5889e-21)
(1.18031 0.449285 -7.83272e-20)
(1.17288 0.436138 -2.59702e-20)
(1.16509 0.422471 1.12856e-20)
(1.15774 0.408817 -1.69943e-20)
(1.15119 0.395476 -5.03042e-21)
(1.14554 0.382522 -3.45881e-21)
(1.14062 0.369995 1.40392e-20)
(1.1358 0.358828 7.20209e-20)
(0.121054 0.0378824 3.39502e-20)
(0.343079 0.116106 -4.22263e-20)
(0.545398 0.199628 -2.26534e-19)
(0.72321 0.279185 1.21636e-19)
(0.871386 0.348993 -1.48004e-19)
(0.987258 0.404985 -2.00274e-20)
(1.07141 0.445329 -1.91255e-19)
(1.1273 0.470454 1.93614e-19)
(1.16026 0.482426 1.04478e-19)
(1.17624 0.484145 -7.40971e-21)
(1.18076 0.478624 2.97979e-20)
(1.17835 0.468488 -3.40901e-20)
(1.17229 0.455746 -1.6169e-21)
(1.16475 0.441778 1.39515e-20)
(1.15703 0.427439 -9.57096e-21)
(1.14986 0.41322 5.88224e-21)
(1.14355 0.399392 4.20546e-21)
(1.13815 0.386002 8.65669e-21)
(1.13351 0.373092 -6.56567e-21)
(1.12891 0.361638 -1.92104e-20)
(0.124726 0.0416056 7.73135e-20)
(0.351305 0.12578 7.6358e-20)
(0.555639 0.213541 5.88427e-20)
(0.733242 0.295609 -1.71034e-21)
(0.879481 0.366303 -3.7526e-20)
(0.992347 0.421854 2.5184e-19)
(1.0731 0.460851 1.39548e-19)
(1.12578 0.484162 8.83327e-20)
(1.15606 0.494215 1.16842e-19)
(1.17006 0.494152 1.09594e-20)
(1.17329 0.487106 -8.05936e-20)
(1.17016 0.475728 -4.20776e-21)
(1.16379 0.461995 -1.04156e-20)
(1.15623 0.44723 -2.7405e-20)
(1.14864 0.432236 -3.54324e-21)
(1.14169 0.417464 -5.40323e-21)
(1.13564 0.403156 -3.58223e-21)
(1.13053 0.389336 2.54828e-21)
(1.12618 0.376052 -2.03321e-20)
(1.12177 0.364311 -2.2382e-20)
(0.128202 0.0454469 -2.55909e-20)
(0.358947 0.135663 -4.44294e-20)
(0.56494 0.22762 -9.75906e-20)
(0.74205 0.312079 -1.66912e-20)
(0.88618 0.38351 -1.54476e-19)
(0.99599 0.438487 -1.08889e-19)
(1.07341 0.476048 3.49812e-20)
(1.12301 0.497503 -2.36915e-19)
(1.1508 0.505637 -1.20386e-19)
(1.16301 0.50382 2.66191e-20)
(1.16512 0.49529 -7.2544e-21)
(1.16141 0.482709 6.06791e-20)
(1.15485 0.468018 6.40962e-20)
(1.14733 0.452481 1.2665e-20)
(1.13993 0.436849 1.69944e-20)
(1.13323 0.421534 1.78557e-21)
(1.12746 0.406755 -2.27492e-20)
(1.12268 0.392515 -1.67447e-20)
(1.11864 0.378887 -2.52753e-20)
(1.11443 0.366838 6.1254e-20)
(0.131467 0.0493936 3.80307e-20)
(0.365974 0.145719 -4.30471e-21)
(0.573271 0.241817 -1.49098e-19)
(0.749619 0.328539 -8.1201e-22)
(0.891483 0.400561 3.47881e-19)
(0.998208 0.454837 6.70415e-20)
(1.07237 0.49088 4.85779e-20)
(1.11905 0.510448 1.33732e-19)
(1.14453 0.516671 -1.01886e-19)
(1.15514 0.513133 -9.82394e-20)
(1.1563 0.50316 3.88942e-21)
(1.15213 0.489418 -4.38681e-20)
(1.14547 0.473801 -1.95923e-20)
(1.13806 0.457516 3.27473e-20)
(1.13089 0.441263 -6.10641e-21)
(1.12448 0.425417 6.72862e-21)
(1.11904 0.410174 1.37891e-20)
(1.11459 0.395518 4.7532e-20)
(1.11089 0.381568 -1.05575e-20)
(1.10696 0.369228 -8.66064e-20)
(0.134507 0.0534323 -1.85676e-19)
(0.372359 0.155914 1.16027e-19)
(0.580609 0.256081 2.5506e-19)
(0.755935 0.344933 7.77615e-20)
(0.895399 0.4174 -4.05934e-19)
(0.999026 0.470858 -1.62711e-19)
(1.07003 0.505312 -1.20199e-19)
(1.11394 0.52297 -4.10359e-20)
(1.1373 0.527297 1.26194e-19)
(1.14648 0.522074 1.53785e-20)
(1.14684 0.510702 -1.39269e-20)
(1.14235 0.495839 3.74675e-20)
(1.13568 0.47933 2.84838e-21)
(1.12844 0.462322 -3.02262e-20)
(1.12155 0.445465 -6.9219e-21)
(1.11545 0.429101 -1.91047e-20)
(1.11035 0.413403 -2.22834e-20)
(1.10627 0.398339 -3.06508e-20)
(1.10292 0.384067 8.26089e-20)
(1.09933 0.371453 5.35158e-20)
(0.137309 0.0575489 -1.20757e-20)
(0.378079 0.16621 5.80515e-20)
(0.586932 0.270361 2.73553e-20)
(0.760994 0.361205 8.1663e-20)
(0.897939 0.433974 2.25329e-19)
(0.998474 0.486503 -1.39427e-19)
(1.06642 0.519307 -4.36051e-21)
(1.10772 0.535041 1.19477e-19)
(1.12914 0.537494 -1.28747e-19)
(1.13708 0.530626 3.82787e-20)
(1.13678 0.517901 7.84178e-20)
(1.13207 0.501958 1.52385e-20)
(1.12547 0.48459 -9.72793e-21)
(1.11848 0.466884 6.38689e-21)
(1.1119 0.449441 2.1548e-20)
(1.10616 0.432571 -1.28525e-20)
(1.10142 0.416427 1.67298e-20)
(1.09773 0.400967 -6.55021e-20)
(1.09476 0.386377 -6.31016e-20)
(1.09152 0.373497 -8.13352e-20)
(0.13986 0.0617286 2.39913e-20)
(0.383112 0.17657 9.10158e-20)
(0.592226 0.284605 8.92241e-20)
(0.764795 0.377299 -5.80687e-20)
(0.89912 0.450231 4.01304e-21)
(0.996585 0.50173 1.29205e-19)
(1.06158 0.53283 2.13351e-19)
(1.10044 0.546635 -2.37834e-20)
(1.1201 0.547241 1.90764e-20)
(1.12696 0.538773 -4.02785e-20)
(1.12614 0.524741 -7.16212e-20)
(1.12133 0.50776 9.08596e-21)
(1.11488 0.489566 1.56583e-20)
(1.10818 0.471188 -1.82086e-21)
(1.10196 0.453177 1.87789e-20)
(1.09659 0.435815 2.7722e-20)
(1.09225 0.419236 1.1454e-20)
(1.08896 0.403387 1.48325e-20)
(1.08639 0.388489 2.19936e-20)
(1.08353 0.375351 9.72311e-20)