/*--------------------------------*- C++ -*----------------------------------*\
  =========                 |
  \\      /  F ield         | OpenFOAM: The Open Source CFD Toolbox
   \\    /   O peration     | Website:  https://openfoam.org
    \\  /    A nd           | Version:  7
     \\/     M anipulation  |
\*---------------------------------------------------------------------------*/
FoamFile
{
    version     2.0;
    format      ascii;
    class       volVectorField;
    location    "85";
    object      U;
}
// * * * * * * * * * * * * * * * * * * * * * * * * * * * * * * * * * * * * * //

dimensions      [0 1 -1 0 0 0 0];

internalField   nonuniform List<vector> 
12100
(
(-0.000370167 0.000361291 1.10475e-21)
(-0.00204218 0.000863656 4.48326e-22)
(-0.00522402 0.00119054 -4.99339e-21)
(-0.00915059 0.00137653 2.80716e-21)
(-0.0134367 0.00144778 -3.27002e-21)
(-0.017797 0.00142788 -5.5617e-21)
(-0.0219889 0.00133878 -1.75538e-21)
(-0.025832 0.00120083 7.5518e-22)
(-0.0292051 0.00103314 6.02061e-21)
(-0.0320418 0.000853757 -5.36112e-21)
(-0.0343299 0.000679598 -1.52538e-21)
(-0.03611 0.000525597 -6.87786e-21)
(-0.0374485 0.000402383 -6.15089e-21)
(-0.0384522 0.000323942 3.11745e-21)
(-0.000413622 0.00107832 -5.28712e-21)
(-0.00213088 0.00257679 -2.18837e-20)
(-0.00531157 0.00355105 3.44303e-22)
(-0.00920019 0.00410433 9.78985e-21)
(-0.013416 0.00431474 8.64284e-21)
(-0.0176773 0.00425282 -1.19113e-20)
(-0.0217444 0.00398419 -1.31241e-20)
(-0.0254395 0.00356974 9.16173e-21)
(-0.0286435 0.00306668 5.80415e-21)
(-0.0312921 0.00252912 -4.30478e-21)
(-0.0333752 0.00200788 -8.23226e-22)
(-0.034937 0.00154792 2.40589e-20)
(-0.0360431 0.0011816 3.13773e-20)
(-0.0367901 0.000951797 1.08087e-20)
(-0.000499317 0.0017788 -1.66203e-21)
(-0.00230519 0.00424763 2.95853e-20)
(-0.00548219 0.00585022 -1.92939e-20)
(-0.00929391 0.00675673 1.0644e-20)
(-0.0133686 0.00709636 1.42092e-21)
(-0.0174312 0.0069858 -5.03008e-22)
(-0.0212484 0.00653371 -5.40289e-21)
(-0.0246474 0.00584098 -3.50526e-20)
(-0.0275134 0.00500258 -5.80213e-22)
(-0.0297859 0.00410858 3.07311e-20)
(-0.0314591 0.00324395 -1.76915e-20)
(-0.0325846 0.00248413 5.74376e-20)
(-0.0332263 0.00188457 -4.65939e-20)
(-0.0334599 0.0015197 -6.07478e-20)
(-0.00062484 0.002452 1.05694e-20)
(-0.00255893 0.00584872 -1.11846e-20)
(-0.00572699 0.00804821 2.43558e-20)
(-0.0094208 0.00928478 -3.10863e-20)
(-0.0132819 0.0097372 -4.04534e-20)
(-0.0170454 0.00956715 6.57748e-20)
(-0.020487 0.00892517 1.96072e-20)
(-0.0234416 0.0079513 2.60288e-21)
(-0.0258007 0.00677767 2.91565e-20)
(-0.0275094 0.00553013 -3.73282e-20)
(-0.0285682 0.00432817 -5.83996e-20)
(-0.0290399 0.00327843 3.15194e-20)
(-0.0289864 0.00246164 -1.6081e-20)
(-0.0284501 0.0019882 4.74093e-20)
(-0.000786627 0.00308767 -5.10465e-20)
(-0.00288295 0.00735371 3.54906e-20)
(-0.00603269 0.0101067 -1.61462e-20)
(-0.00956452 0.0116414 5.8835e-20)
(-0.0131374 0.0121841 -4.49106e-20)
(-0.0164997 0.0119397 -8.25023e-20)
(-0.0194392 0.0110991 -1.9456e-20)
(-0.0218007 0.00984031 2.09171e-20)
(-0.023484 0.00833169 -7.28959e-20)
(-0.0244416 0.00673466 3.87909e-21)
(-0.0246822 0.00520367 1.05774e-20)
(-0.0242834 0.0038776 -8.14479e-20)
(-0.0233059 0.00286518 2.57992e-20)
(-0.0217416 0.00231912 4.7595e-20)
(-0.000980016 0.00367616 2.04414e-20)
(-0.00326524 0.00873776 -2.53646e-21)
(-0.00638181 0.0119896 7.11547e-22)
(-0.00970341 0.0137822 -8.91981e-21)
(-0.0129103 0.0143868 7.81638e-20)
(-0.0157673 0.0140496 8.03182e-20)
(-0.0180769 0.0129998 1.7338e-20)
(-0.0196961 0.0114516 -2.10578e-20)
(-0.0205348 0.00960852 4.15375e-20)
(-0.0205545 0.00766716 5.31911e-20)
(-0.0197736 0.0058176 -2.18019e-20)
(-0.0182889 0.00423221 2.59199e-20)
(-0.0161617 0.0030523 -1.53917e-20)
(-0.0133091 0.0024834 -1.04305e-19)
(-0.00119933 0.0042086 1.88306e-20)
(-0.00369102 0.00997783 -4.50629e-20)
(-0.00675271 0.0136634 3.91769e-20)
(-0.0098106 0.015666 -7.20532e-20)
(-0.0125699 0.0162991 1.2101e-20)
(-0.0148147 0.0158474 -1.25412e-19)
(-0.016365 0.0145762 8.91254e-20)
(-0.0170919 0.0127338 -3.4416e-21)
(-0.0169171 0.0105574 1.03368e-19)
(-0.0158124 0.00827805 -1.83101e-20)
(-0.0138075 0.00612221 1.39263e-19)
(-0.0110218 0.0042976 3.87363e-22)
(-0.00752119 0.00298743 6.71819e-21)
(-0.00313157 0.00248017 3.04141e-20)
(-0.00143793 0.00467695 -5.77458e-20)
(-0.00414296 0.011053 4.00404e-20)
(-0.00711983 0.0150975 -6.65223e-20)
(-0.00985411 0.0172555 -2.15265e-21)
(-0.0120794 0.0178792 -2.42722e-20)
(-0.0136017 0.0172889 1.50509e-19)
(-0.014261 0.0157832 -1.38068e-19)
(-0.0139445 0.0136419 7.78308e-20)
(-0.0125872 0.0111341 5.45203e-20)
(-0.0101722 0.00852437 -9.18491e-20)
(-0.00674168 0.00607597 -3.29357e-20)
(-0.00243856 0.00403423 -7.48382e-20)
(0.00267269 0.00263311 -5.22152e-20)
(0.00881066 0.00225973 9.85845e-20)
(-0.00168833 0.00507412 4.07435e-20)
(-0.00460128 0.0119447 -4.17186e-20)
(-0.0074538 0.0162649 2.53039e-20)
(-0.00979701 0.0185178 -1.52621e-20)
(-0.011396 0.0190904 7.56192e-20)
(-0.0120814 0.0183357 -5.32352e-20)
(-0.0117152 0.0165822 1.38216e-20)
(-0.0102028 0.0141385 -2.01431e-20)
(-0.00749379 0.0113026 -6.00296e-20)
(-0.00358321 0.00837143 1.91492e-20)
(0.00147334 0.00564534 5.50873e-20)
(0.00750653 0.0034094 3.57894e-20)
(0.0144567 0.0019551 1.47392e-19)
(0.0225943 0.00177771 1.09328e-20)
(-0.00194226 0.00539396 -2.86823e-20)
(-0.00504395 0.0126368 3.00288e-21)
(-0.00772165 0.0171424 -7.36691e-21)
(-0.0095976 0.0194247 -9.96634e-21)
(-0.0104713 0.0199021 -1.634e-19)
(-0.0102002 0.0189565 5.16923e-20)
(-0.00867082 0.0169426 -5.25069e-20)
(-0.00580813 0.0141944 2.06892e-20)
(-0.00157754 0.0110361 4.1422e-20)
(0.00401319 0.00779451 -3.77016e-20)
(0.0108948 0.00480699 -2.31289e-19)
(0.0188692 0.00240093 9.15232e-20)
(0.0278803 0.000936671 -1.80753e-19)
(0.0382707 0.00104207 4.65716e-20)
(-0.0021907 0.00563132 -2.59457e-20)
(-0.00544682 0.0131158 7.26784e-20)
(-0.007887 0.0177104 -3.23669e-20)
(-0.00920958 0.0199533 8.70858e-20)
(-0.00925107 0.0202897 1.10185e-19)
(-0.00789811 0.019127 1.48239e-20)
(-0.0050636 0.0168422 -1.31547e-19)
(-0.000693905 0.0137905 -2.69025e-20)
(0.00522868 0.0103186 -5.80824e-20)
(0.0126834 0.00678048 1.32791e-19)
(0.0215874 0.00354936 1.22776e-19)
(0.0317125 0.000996921 -3.63229e-19)
(0.043005 -0.00043476 2.75791e-19)
(0.0558968 5.21631e-05 -1.69536e-19)
(-0.00242401 0.00578201 1.56787e-20)
(-0.00578379 0.0133707 2.16758e-20)
(-0.00791024 0.0179538 -1.22012e-19)
(-0.00858227 0.0200859 1.11781e-19)
(-0.00767582 0.0202355 -1.59496e-19)
(-0.00510873 0.018831 6.34136e-20)
(-0.00082235 0.0162677 7.53106e-20)
(0.00521398 0.0129179 2.01749e-20)
(0.013 0.0091462 -1.2381e-19)
(0.0225015 0.00532951 -2.48522e-19)
(0.0336232 0.00187482 1.49373e-19)
(0.046106 -0.00080118 8.34774e-20)
(0.0598989 -0.002161 -2.03941e-20)
(0.0755392 -0.00119215 1.19143e-20)
(-0.0026319 0.00584277 -1.31004e-21)
(-0.00602693 0.0133932 6.4567e-20)
(-0.00774878 0.0178613 1.92751e-19)
(-0.00766093 0.0198106 -8.86911e-20)
(-0.00568095 0.0197283 -1.24307e-19)
(-0.00175979 0.0180604 -1.30838e-20)
(0.0041309 0.0152159 1.17687e-19)
(0.0119971 0.0115793 -6.14759e-20)
(0.0218193 0.00752799 2.75102e-19)
(0.0335497 0.00345671 1.79576e-19)
(0.0470813 -0.000198054 -2.883e-20)
(0.0621251 -0.0029758 1.09527e-19)
(0.0786343 -0.00422988 -2.54575e-19)
(0.0972674 -0.00267963 7.88546e-20)
(-0.00280352 0.00581122 -3.64125e-20)
(-0.00614666 0.0131777 -1.22395e-19)
(-0.00735731 0.017426 -8.7707e-20)
(-0.00638717 0.0191209 -1.86498e-20)
(-0.00319727 0.0187643 6.03005e-20)
(0.00222652 0.0168156 7.46713e-20)
(0.00988042 0.0136932 1.30891e-20)
(0.0197439 0.00978896 1.72609e-19)
(0.0317769 0.00548715 -1.61696e-19)
(0.0459172 0.00119364 2.54551e-19)
(0.0620474 -0.00263216 -1.33829e-19)
(0.0798507 -0.00549039 6.63603e-20)
(0.099289 -0.00661263 1.70579e-19)
(0.121165 -0.00438576 1.46661e-19)
(-0.00292743 0.00568595 3.54938e-20)
(-0.00611185 0.0127212 -4.92902e-20)
(-0.00668818 0.0166452 2.35174e-19)
(-0.00469937 0.0180161 -4.76282e-21)
(-0.000151657 0.0173465 -9.74656e-20)
(0.0069327 0.0151053 -1.09081e-19)
(0.016516 0.011716 2.75734e-20)
(0.0285494 0.007573 -3.32541e-19)
(0.0429702 0.00306115 2.54175e-20)
(0.0597005 -0.00141065 -3.2819e-19)
(0.0786136 -0.00536964 9.72163e-20)
(0.0993679 -0.00828613 8.51715e-20)
(0.121942 -0.00926168 -5.03965e-20)
(0.147312 -0.00627985 -2.74658e-19)
(-0.00299177 0.00546635 6.48247e-20)
(-0.00589012 0.0120232 3.94652e-20)
(-0.00569174 0.0155203 -2.0351e-19)
(-0.00253342 0.0165012 2.16827e-20)
(0.00353212 0.0154849 1.10967e-19)
(0.0124449 0.0129462 1.23551e-19)
(0.0241319 0.00931017 9.75916e-20)
(0.0385136 0.00496872 2.51816e-19)
(0.0555022 0.000301337 -1.43588e-20)
(0.0750024 -0.0042893 -1.74782e-20)
(0.0968775 -0.00833003 -8.12568e-20)
(0.120765 -0.0112778 -4.83582e-20)
(0.146671 -0.0121043 -1.05012e-19)
(0.175788 -0.00831327 9.2846e-20)
(-0.00298419 0.00515269 -9.70093e-20)
(-0.00544804 0.0110859 -4.32037e-20)
(-0.00431695 0.0140571 1.46094e-19)
(0.000176516 0.0145868 -4.69853e-20)
(0.00793224 0.013196 -2.50103e-20)
(0.0188517 0.0103628 -7.78941e-20)
(0.032825 0.00650994 5.4317e-20)
(0.0497401 0.00202339 -1.72887e-19)
(0.069481 -0.00272842 -1.07978e-19)
(0.0919309 -0.00735847 2.88288e-19)
(0.116942 -0.0114093 -7.94583e-20)
(0.144134 -0.0143496 -2.01955e-19)
(0.173555 -0.0150358 3.05102e-20)
(0.206667 -0.0104167 8.74018e-20)
(-0.00289194 0.00474617 -9.52746e-20)
(-0.00475148 0.00991439 1.23111e-19)
(-0.00251202 0.0122659 1.80401e-19)
(0.00349689 0.0122889 -1.70128e-19)
(0.0131274 0.0105031 4.92548e-20)
(0.026242 0.00738648 -1.67477e-19)
(0.042693 0.00335702 -1.24298e-19)
(0.0623338 -0.00120771 -7.90763e-20)
(0.0850167 -0.00595442 1.12757e-19)
(0.110598 -0.0105201 3.81679e-21)
(0.138915 -0.0144809 -9.31664e-20)
(0.16957 -0.0173516 1.285e-19)
(0.202667 -0.0179095 7.45297e-20)
(0.240018 -0.0124917 1.14491e-19)
(-0.00270206 0.00424904 3.00029e-20)
(-0.00376605 0.00851664 1.22639e-19)
(-0.000225224 0.0101611 -2.80656e-19)
(0.00749357 0.00962927 1.48572e-19)
(0.019195 0.00743534 -2.05526e-19)
(0.0347029 0.00405471 -4.7552e-20)
(0.0538312 -0.00010111 2.75426e-20)
(0.0763976 -0.00466407 9.22081e-20)
(0.102219 -0.00929746 -2.68311e-20)
(0.131119 -0.0136675 5.5769e-20)
(0.162911 -0.0174001 1.25742e-19)
(0.197173 -0.0200985 9.22779e-20)
(0.234083 -0.0205261 -1.27223e-19)
(0.275899 -0.0143978 1.64549e-19)
(-0.00240152 0.00366469 -1.70163e-20)
(-0.00245763 0.00690378 -8.58674e-20)
(0.00259412 0.0077621 2.38876e-19)
(0.0122304 0.00663534 3.38263e-20)
(0.0262092 0.00402802 1.00671e-19)
(0.0443167 0.000410666 1.75638e-19)
(0.0663293 -0.00381282 -2.17162e-19)
(0.092028 -0.00828329 -5.98695e-20)
(0.121192 -0.0126787 2.10652e-19)
(0.153606 -0.016694 -1.88482e-19)
(0.189046 -0.0200145 3.56046e-21)
(0.22706 -0.0223757 4.50664e-20)
(0.267896 -0.0226272 5.73793e-20)
(0.314369 -0.0159387 1.46977e-20)
(-0.00197741 0.00299778 -2.83752e-20)
(-0.000792961 0.00509039 1.60077e-19)
(0.0059946 0.00509318 -1.00227e-19)
(0.0177675 0.00334038 1.20936e-19)
(0.0342387 0.000322501 8.01234e-20)
(0.0551582 -0.00349734 1.40242e-19)
(0.0802663 -0.00772369 -3.97834e-20)
(0.109309 -0.0120044 2.40999e-20)
(0.142027 -0.0160265 -6.65178e-20)
(0.178162 -0.0195051 8.70308e-20)
(0.21744 -0.022181 6.72712e-20)
(0.25936 -0.0239534 1.33239e-19)
(0.304221 -0.0238822 -1.48972e-19)
(0.355507 -0.0168045 -1.48329e-19)
(-0.00141725 0.00225441 1.77244e-19)
(0.00125962 0.00309472 -2.43818e-19)
(0.0100217 0.00218385 9.17839e-20)
(0.0241598 -0.000216072 -2.47509e-19)
(0.0433441 -0.00363349 1.6386e-19)
(0.0672906 -0.00761573 -1.63324e-19)
(0.0957064 -0.0117771 3.41087e-20)
(0.128305 -0.0157704 -1.47724e-19)
(0.164795 -0.0192839 -2.92002e-20)
(0.204871 -0.0220346 1.47933e-19)
(0.248203 -0.0237937 -6.83286e-20)
(0.294214 -0.0246083 -1.22688e-19)
(0.343177 -0.0238091 -6.21644e-20)
(0.399294 -0.016306 -2.21609e-19)
(-0.000709206 0.00144223 -6.40578e-20)
(0.00372953 0.000938939 1.67085e-19)
(0.0147164 -0.00093073 -3.69363e-19)
(0.0314554 -0.00398778 -2.31057e-20)
(0.053576 -0.00778515 -4.97421e-20)
(0.0807627 -0.0118848 -9.02432e-21)
(0.112693 -0.0159136 -1.64992e-19)
(0.149054 -0.0195294 1.00475e-19)
(0.189528 -0.0224143 9.85162e-20)
(0.233784 -0.024266 -3.26636e-19)
(0.281441 -0.0248358 2.36083e-19)
(0.331847 -0.0241924 -2.89435e-19)
(0.385021 -0.0217271 2.27359e-19)
(0.445426 -0.0130508 6.37774e-20)
(0.000157576 0.000570493 -1.17154e-19)
(0.00664331 -0.00135068 2.18631e-20)
(0.0201149 -0.00420951 1.8174e-19)
(0.0396943 -0.00792122 9.40896e-20)
(0.064973 -0.0120696 -6.90986e-20)
(0.0956058 -0.0162369 -2.27669e-19)
(0.131244 -0.020068 2.56711e-19)
(0.171554 -0.0232305 -3.14129e-20)
(0.216209 -0.0254018 -2.0768e-19)
(0.26488 -0.0262513 9.00852e-20)
(0.317216 -0.0254628 -9.65429e-20)
(0.372686 -0.0228841 4.70411e-19)
(0.431039 -0.0174767 1.71715e-19)
(0.495268 -0.00657401 -3.52771e-20)
(0.0011928 -0.000349894 -5.11808e-20)
(0.0100241 -0.00374377 2.00478e-19)
(0.0262471 -0.00760538 5.10211e-20)
(0.0489075 -0.0119552 4.70196e-20)
(0.0775604 -0.0164149 1.06357e-19)
(0.111832 -0.020594 2.44737e-19)
(0.151348 -0.0241644 -1.7216e-19)
(0.195759 -0.0268143 5.0927e-19)
(0.244737 -0.0282329 1.70369e-19)
(0.29799 -0.0280885 -9.19787e-20)
(0.355301 -0.0260219 -3.15563e-20)
(0.416705 -0.0215599 -1.86458e-19)
(0.483153 -0.0132367 -2.9234e-19)
(0.559308 -0.00215599 -3.5204e-19)
(0.00240478 -0.00130648 -1.07588e-19)
(0.0138911 -0.00620595 -9.32988e-20)
(0.0331366 -0.0110652 4.57305e-21)
(0.0591167 -0.0160203 7.0192e-20)
(0.0913508 -0.0207387 6.07185e-20)
(0.129435 -0.0248651 -8.62412e-21)
(0.172968 -0.0281091 -1.1605e-19)
(0.221579 -0.0301956 -2.3399e-19)
(0.274934 -0.0308537 1.04196e-19)
(0.332765 -0.0298072 -1.23022e-19)
(0.394952 -0.0267871 -1.26664e-19)
(0.461863 -0.0214372 6.24813e-20)
(0.534805 -0.0133336 5.00812e-20)
(0.615505 -0.00772076 5.08144e-19)
(0.00380039 -0.0022854 5.40437e-20)
(0.0182596 -0.00869917 2.07657e-19)
(0.0408007 -0.01453 -2.48909e-19)
(0.0703343 -0.0200397 4.0341e-20)
(0.106344 -0.0249486 1.40717e-20)
(0.148393 -0.0289453 -5.87418e-20)
(0.196045 -0.0317874 -1.55636e-19)
(0.248898 -0.0332526 6.343e-20)
(0.306591 -0.0331344 -1.14711e-19)
(0.368831 -0.0312546 1.90322e-19)
(0.435479 -0.0275093 -2.41653e-19)
(0.506873 -0.021813 3.3691e-20)
(0.583924 -0.0145858 3.03131e-19)
(0.665459 -0.012385 -6.95768e-19)
(0.005385 -0.0032716 -2.54821e-19)
(0.0231407 -0.0111822 6.46908e-20)
(0.0492497 -0.017936 -9.15553e-20)
(0.0825635 -0.0239297 -5.8143e-20)
(0.122528 -0.0289434 -8.34474e-20)
(0.16867 -0.0327171 7.84649e-20)
(0.22051 -0.0350664 1.18531e-19)
(0.277596 -0.0358328 -7.77736e-20)
(0.339511 -0.0348896 -2.35905e-19)
(0.405892 -0.0321703 8.33773e-20)
(0.476478 -0.0277365 -8.96864e-20)
(0.551361 -0.0217245 6.73075e-20)
(0.63084 -0.0149445 6.15568e-20)
(0.712054 -0.0139946 4.54587e-19)
(0.00716252 -0.00424912 1.77091e-19)
(0.0285413 -0.0136113 -2.19532e-19)
(0.0584876 -0.0212155 2.07225e-19)
(0.0957992 -0.0276011 -1.60387e-20)
(0.139883 -0.0326148 1.09543e-19)
(0.190222 -0.0360548 -2.53196e-19)
(0.246283 -0.0378018 9.06798e-21)
(0.30755 -0.0377688 -4.0795e-20)
(0.373527 -0.0359145 1.13917e-19)
(0.443735 -0.0322815 -5.90425e-20)
(0.51774 -0.0270693 3.68873e-19)
(0.595324 -0.0205612 -2.54089e-19)
(0.676227 -0.0137113 3.3771e-19)
(0.756838 -0.0127857 -3.41065e-19)
(0.00913546 -0.00520132 -9.98978e-20)
(0.0344643 -0.0159408 3.41711e-19)
(0.0685119 -0.0242978 9.98871e-21)
(0.110027 -0.0309614 -1.44936e-19)
(0.158376 -0.035851 1.02884e-19)
(0.212991 -0.0388286 1.46285e-19)
(0.273278 -0.0398456 -5.63126e-19)
(0.338642 -0.0388913 3.31646e-19)
(0.408484 -0.0360104 -6.22358e-20)
(0.482192 -0.0313451 1.72024e-19)
(0.559135 -0.025203 -3.18874e-19)
(0.638794 -0.0179592 -1.10707e-19)
(0.720474 -0.0105954 -2.03014e-19)
(0.800308 -0.00894359 -2.08913e-19)
(0.0113049 -0.00611113 1.85408e-19)
(0.0409083 -0.0181239 -3.56401e-21)
(0.0793132 -0.0271107 -1.42275e-19)
(0.125225 -0.0339167 3.74948e-20)
(0.177966 -0.038539 1.03367e-19)
(0.236914 -0.040909 2.11318e-19)
(0.301402 -0.0410533 2.32663e-19)
(0.370749 -0.03904 -3.80712e-20)
(0.444238 -0.0349984 -9.75673e-20)
(0.521111 -0.029161 -2.66102e-19)
(0.600547 -0.0219199 2.36182e-19)
(0.681756 -0.0137075 -2.37254e-19)
(0.763722 -0.00548605 -4.63177e-20)
(0.842578 -0.002645 5.2936e-19)
(0.0136706 -0.00696122 -4.58018e-20)
(0.0478677 -0.0201133 -1.34331e-19)
(0.0908755 -0.0295816 -1.97534e-20)
(0.141362 -0.036373 -5.31439e-20)
(0.198601 -0.0405676 -1.13391e-19)
(0.261912 -0.0421708 -2.33768e-19)
(0.330552 -0.0412883 2.82343e-19)
(0.403738 -0.0380694 -1.21293e-19)
(0.480637 -0.032727 6.10084e-20)
(0.560339 -0.0255758 5.65541e-20)
(0.641844 -0.0170777 1.99806e-20)
(0.724133 -0.00770596 6.31739e-20)
(0.805961 0.00160747 4.03787e-20)
(0.883597 0.00589467 3.60314e-20)
(0.0162308 -0.00773419 -1.29249e-19)
(0.0553326 -0.0218617 -2.43382e-19)
(0.103176 -0.0316386 3.29319e-19)
(0.158395 -0.0382385 -8.87462e-20)
(0.220218 -0.0418297 1.20448e-19)
(0.287898 -0.0424961 1.61434e-19)
(0.36061 -0.0404266 -2.11588e-19)
(0.43747 -0.0358539 2.06791e-19)
(0.51752 -0.0290742 9.287e-20)
(0.599707 -0.0204807 1.59848e-19)
(0.682868 -0.0105968 -3.39061e-19)
(0.7658 6.77636e-05 3.2435e-19)
(0.847092 0.0106057 -1.7244e-19)
(0.923223 0.0164485 -5.63029e-19)
(0.0189823 -0.00841263 5.59482e-20)
(0.0632884 -0.0233223 -8.47899e-20)
(0.116183 -0.0332112 -4.18108e-20)
(0.176274 -0.0394249 -7.55489e-20)
(0.242741 -0.0422243 1.38802e-20)
(0.314769 -0.0417768 1.56878e-19)
(0.391447 -0.0383585 -1.05785e-19)
(0.471788 -0.0322889 1.14932e-19)
(0.554712 -0.0239481 -4.39381e-20)
(0.63903 -0.0138069 2.59855e-19)
(0.723439 -0.00244735 1.16171e-19)
(0.806589 0.00958279 -2.04007e-19)
(0.886957 0.0213904 4.20251e-21)
(0.961271 0.028789 4.39808e-19)
(0.0219204 -0.00897928 -1.09104e-20)
(0.0717158 -0.0244491 1.01132e-19)
(0.129859 -0.0342317 5.53443e-21)
(0.194938 -0.0398483 -1.92136e-19)
(0.266083 -0.0416579 -1.58568e-19)
(0.34241 -0.0399162 -2.70229e-19)
(0.42292 -0.0349911 8.67137e-20)
(0.506523 -0.027292 -6.82335e-20)
(0.592022 -0.0172858 -1.19674e-19)
(0.678107 -0.00552081 1.93401e-19)
(0.763355 0.00736133 -1.39055e-19)
(0.846305 0.0207712 3.09236e-20)
(0.92537 0.0338203 4.56161e-20)
(0.997546 0.0426913 -9.44116e-20)
(0.0250384 -0.00941705 -3.06651e-20)
(0.0805904 -0.0251975 -1.67517e-19)
(0.144158 -0.0346351 -2.60335e-19)
(0.214316 -0.0394306 -2.83186e-20)
(0.290144 -0.0400461 7.49692e-21)
(0.370692 -0.0368304 -2.12616e-20)
(0.454872 -0.0302483 1.09178e-19)
(0.541493 -0.020803 -1.80338e-19)
(0.629249 -0.00905081 -7.87936e-20)
(0.716724 0.00438035 -1.26959e-19)
(0.802401 0.0187884 -3.01167e-19)
(0.884741 0.0335384 -1.43189e-19)
(0.962135 0.0477403 8.85118e-20)
(1.03186 0.0579352 4.39662e-20)
(0.028328 -0.00970922 1.98829e-20)
(0.0898826 -0.0255247 4.04466e-20)
(0.159024 -0.0343607 1.00084e-19)
(0.234324 -0.0381005 3.705e-19)
(0.314814 -0.0373142 -2.0301e-19)
(0.399473 -0.0324493 -5.62633e-20)
(0.487132 -0.0240719 -4.2294e-20)
(0.576502 -0.0127833 6.89892e-20)
(0.66618 0.000767924 1.3119e-19)
(0.75466 0.0158728 4.37748e-20)
(0.840356 0.0317677 1.00215e-19)
(0.921687 0.0477705 1.43605e-19)
(0.997058 0.0629871 -6.4422e-20)
(1.06403 0.0743079 1.07071e-19)
(0.0317785 -0.00983949 4.12242e-20)
(0.0995571 -0.0253898 -1.34268e-19)
(0.174396 -0.0333521 5.04228e-21)
(0.25487 -0.035794 -2.28342e-19)
(0.339968 -0.0333986 -4.05241e-20)
(0.428601 -0.0267172 1.30134e-19)
(0.519519 -0.0164217 5.57526e-20)
(0.611346 -0.00321538 -1.02503e-20)
(0.702595 0.0121585 2.6054e-20)
(0.791688 0.0289093 1.27688e-19)
(0.876999 0.0462122 1.10616e-19)
(0.956939 0.063339 -1.87298e-19)
(1.02996 0.0793934 2.47436e-19)
(1.09391 0.0916056 -8.95398e-20)
(0.0353774 -0.00979218 -4.01344e-20)
(0.109573 -0.0247548 1.50152e-19)
(0.190202 -0.0315582 -1.20022e-19)
(0.275853 -0.0324556 1.29898e-19)
(0.365473 -0.0282472 1.87169e-19)
(0.457911 -0.0195932 1.52301e-19)
(0.551843 -0.00727538 -1.26588e-19)
(0.645815 0.00789802 1.84961e-19)
(0.738271 0.0250879 -4.1045e-20)
(0.827585 0.0434224 1.7473e-20)
(0.912118 0.0620184 1.57498e-19)
(0.990304 0.0801054 4.82179e-20)
(1.06068 0.0967909 6.14733e-20)
(1.12138 0.109635 7.44152e-20)
(0.0391097 -0.00955243 -2.1176e-20)
(0.119884 -0.0235845 -6.16172e-22)
(0.206363 -0.0289339 9.56227e-20)
(0.297159 -0.0280386 -4.05114e-20)
(0.391185 -0.0218202 -7.44019e-20)
(0.487231 -0.0110517 -4.55586e-20)
(0.583906 0.00337161 7.41642e-20)
(0.679695 0.0205349 -2.24889e-20)
(0.772987 0.0395033 2.16955e-19)
(0.862134 0.0593267 6.27681e-20)
(0.945511 0.0790688 4.40347e-20)
(1.02161 0.0979238 -1.42533e-19)
(1.08908 0.115012 -2.43661e-22)
(1.14635 0.128215 5.58646e-20)
(0.0429583 -0.00910636 4.67044e-20)
(0.130438 -0.0218474 -7.69785e-20)
(0.222792 -0.0254406 6.00483e-20)
(0.318669 -0.0225062 -3.53495e-20)
(0.416952 -0.0140904 6.35972e-20)
(0.51638 -0.00108273 -1.08501e-19)
(0.615508 0.0155063 1.14975e-19)
(0.71277 0.0346548 1.01584e-19)
(0.806525 0.0553343 -2.37969e-19)
(0.895126 0.0765217 3.8065e-20)
(0.976991 0.0972352 1.7275e-19)
(1.0507 0.116644 6.28691e-20)
(1.11505 0.133894 1.49747e-19)
(1.16875 0.147176 1.00382e-19)
(0.0469035 -0.00844138 -3.30594e-20)
(0.141178 -0.019516 1.29181e-19)
(0.239395 -0.0210468 3.40991e-20)
(0.340254 -0.0158319 -1.00964e-20)
(0.442614 -0.00504416 -3.55625e-20)
(0.545173 0.0103083 -1.82565e-20)
(0.646445 0.0290988 -1.33406e-19)
(0.744829 0.0501999 -1.36163e-19)
(0.838677 0.0724944 1.53603e-20)
(0.926367 0.0948938 1.35687e-19)
(1.00639 0.116381 -1.72357e-19)
(1.07745 0.136113 -1.83332e-20)
(1.13851 0.153276 -1.8587e-20)
(1.18855 0.166361 -5.90984e-20)
(0.0509238 -0.0075464 -4.75806e-20)
(0.15204 -0.0165679 -7.89381e-20)
(0.256072 -0.0157292 -1.33235e-19)
(0.361778 -0.00800038 -1.73784e-20)
(0.468006 0.00531863 1.0562e-19)
(0.573423 0.0231 9.12666e-21)
(0.676514 0.0441023 4.86401e-20)
(0.775666 0.0670963 9.52024e-20)
(0.869243 0.0908829 -1.21299e-20)
(0.955679 0.114319 -1.23374e-19)
(1.03357 0.136364 2.71878e-20)
(1.10175 0.15618 8.77777e-20)
(1.15939 0.173006 6.22214e-20)
(1.20574 0.185629 -6.56167e-21)
(0.0549951 -0.0064121 -4.85893e-20)
(0.162958 -0.0129855 2.49626e-20)
(0.272716 -0.00947316 3.90938e-20)
(0.383102 0.000992223 9.54413e-21)
(0.492961 0.016984 -4.15134e-20)
(0.600941 0.0372557 8.70804e-21)
(0.705517 0.0604543 -1.28928e-20)
(0.805082 0.085255 -1.3142e-19)
(0.898039 0.110386 1.08794e-19)
(0.982903 0.134662 5.32362e-20)
(1.0584 0.157038 3.89895e-20)
(1.12353 0.176692 -6.10788e-20)
(1.17767 0.192939 1.27429e-20)
(1.22034 0.204847 -3.20603e-20)
(0.0590918 -0.00503116 3.46284e-20)
(0.17386 -0.00875742 2.14492e-20)
(0.289216 -0.002273 -1.09144e-19)
(0.404082 0.0111376 5.68726e-20)
(0.517309 0.029924 2.74502e-20)
(0.627542 0.0527234 -8.56083e-21)
(0.733262 0.0780771 -6.53428e-20)
(0.832891 0.104573 1.30508e-19)
(0.924897 0.13088 -2.79717e-20)
(1.0079 0.155785 4.92646e-21)
(1.08078 0.178254 -7.14201e-20)
(1.14273 0.197503 4.90965e-20)
(1.19333 0.212937 4.88456e-21)
(1.23239 0.223899 -2.01372e-20)
(0.0631862 -0.00339857 -1.46106e-20)
(0.184671 -0.00387832 -4.93894e-20)
(0.305459 0.00586707 6.56198e-20)
(0.424571 0.0224152 -2.52039e-20)
(0.54088 0.0440961 -2.06427e-20)
(0.653042 0.0694363 -3.2042e-20)
(0.759564 0.0968789 3.72699e-20)
(0.858919 0.124936 -5.96738e-20)
(0.949665 0.152231 -1.60017e-20)
(1.03055 0.177542 -2.38893e-20)
(1.10064 0.199864 3.77402e-20)
(1.15932 0.218469 -4.38953e-20)
(1.20641 0.23287 6.32736e-20)
(1.24194 0.242676 -2.41364e-21)
(0.0672492 -0.00151177 -8.59406e-21)
(0.195313 0.00165025 3.68627e-20)
(0.321326 0.0149327 -2.82115e-20)
(0.444422 0.0347916 2.67342e-20)
(0.563506 0.0594442 -2.03264e-20)
(0.677264 0.0873132 2.04228e-20)
(0.784249 0.116754 -9.54171e-21)
(0.883007 0.146218 2.01979e-20)
(0.97221 0.174299 -2.56938e-20)
(1.05077 0.199785 1.37767e-20)
(1.11792 0.221719 3.50183e-20)
(1.17329 0.239453 9.49794e-21)
(1.21692 0.252617 -2.07671e-20)
(1.24907 0.261084 -2.41272e-20)
(0.0712505 0.000629088 6.69041e-21)
(0.205707 0.00781968 4.10642e-21)
(0.3367 0.0248993 -9.08215e-21)
(0.463488 0.0482209 7.23598e-22)
(0.585026 0.0758981 -1.36573e-21)
(0.700042 0.106259 -1.16151e-20)
(0.807156 0.137586 -4.28859e-21)
(0.905014 0.168284 9.11066e-21)
(0.992421 0.196936 1.69907e-20)
(1.06846 0.222363 -7.21818e-21)
(1.13259 0.243676 -6.91681e-21)
(1.18465 0.260321 -1.57402e-20)
(1.22492 0.272067 -4.43905e-21)
(1.25386 0.279036 1.02136e-20)
(0.0751592 0.00302103 6.51792e-21)
(0.215771 0.014614 7.9936e-21)
(0.351463 0.0357315 -1.43947e-20)
(0.481628 0.0626445 4.56927e-21)
(0.605281 0.0933745 -5.14654e-21)
(0.721215 0.126168 -1.39126e-20)
(0.828138 0.159247 2.14022e-21)
(0.924813 0.19099 1.00475e-20)
(1.01021 0.219992 6.8343e-21)
(1.08359 0.245126 2.56193e-22)
(1.14464 0.265593 -6.51557e-21)
(1.19344 0.280949 -1.48001e-20)
(1.23047 0.291115 -3.72744e-21)
(1.2564 0.296455 4.42958e-21)
(0.0789439 0.00565815 -4.18016e-21)
(0.225427 0.0220098 2.35974e-20)
(0.3655 0.0473834 -3.05577e-22)
(0.498702 0.0779919 8.87873e-21)
(0.624124 0.111777 -1.28874e-20)
(0.740639 0.146919 3.76343e-20)
(0.847063 0.181599 -2.89526e-20)
(0.9423 0.214187 2.16067e-20)
(1.02549 0.243314 -1.46281e-20)
(1.09612 0.267924 1.72138e-20)
(1.15409 0.287331 2.31673e-20)
(1.1997 0.301217 6.56006e-21)
(1.23366 0.309664 -1.83534e-20)
(1.25679 0.31327 -2.21253e-20)
(0.0825723 0.00853146 1.62859e-20)
(0.234592 0.029976 -5.00838e-20)
(0.378697 0.0597988 6.92501e-20)
(0.514577 0.0941802 -5.23924e-20)
(0.641414 0.130999 -1.54978e-21)
(0.75818 0.168384 -3.98981e-20)
(0.863816 0.204496 4.42483e-20)
(0.957387 0.237722 -5.43451e-20)
(1.03822 0.266746 9.21638e-22)
(1.10603 0.290612 -3.39309e-20)
(1.16094 0.30876 1.68133e-20)
(1.20349 0.321013 -1.41066e-20)
(1.23457 0.327626 2.32918e-20)
(1.25515 0.329419 1.91968e-20)
(0.086013 0.0116289 2.07279e-20)
(0.24319 0.038474 -3.4733e-20)
(0.390946 0.0729111 -1.30736e-20)
(0.529129 0.111116 2.27936e-20)
(0.657025 0.150921 5.78875e-20)
(0.77372 0.190425 -5.05194e-20)
(0.8783 0.227788 -2.53716e-20)
(0.970006 0.261436 5.96708e-20)
(1.04837 0.290135 -3.05611e-20)
(1.11334 0.313044 -7.75704e-21)
(1.16526 0.329751 -7.85273e-21)
(1.20489 0.340232 2.5762e-20)
(1.23329 0.344918 1.13574e-20)
(1.25157 0.344845 -1.93179e-20)
(0.0892353 0.0149352 3.3141e-20)
(0.251145 0.0474578 2.25204e-20)
(0.402144 0.086644 2.41693e-20)
(0.542241 0.128694 -1.76379e-20)
(0.67084 0.171415 -2.13694e-20)
(0.787156 0.212894 3.25071e-20)
(0.890435 0.251317 -4.3265e-20)
(0.980108 0.285172 -8.60666e-20)
(1.05593 0.313327 7.82226e-20)
(1.11806 0.335081 4.16808e-20)
(1.16708 0.350184 4.78372e-20)
(1.20397 0.358775 -8.29045e-20)
(1.22993 0.361464 3.44166e-20)
(1.24616 0.359496 -6.89444e-21)
(0.0922095 0.0184322 -3.30271e-20)
(0.258386 0.0568743 -2.02747e-20)
(0.412195 0.100912 -7.14631e-20)
(0.553809 0.146801 -7.56242e-20)
(0.682758 0.192344 5.72152e-20)
(0.798402 0.23564 9.86784e-21)
(0.90016 0.274923 7.96698e-20)
(0.987664 0.308768 1.09324e-19)
(1.06089 0.336172 -6.98321e-20)
(1.12023 0.356588 -4.95481e-20)
(1.16649 0.369943 1.41601e-20)
(1.20082 0.376548 4.36358e-20)
(1.22459 0.377195 6.3137e-21)
(1.23904 0.373322 2.00731e-20)
(0.0949072 0.0220988 -2.75415e-20)
(0.264848 0.0666639 6.55224e-20)
(0.421013 0.115622 4.10162e-20)
(0.56374 0.165315 9.61189e-20)
(0.692694 0.213565 -9.4669e-20)
(0.807391 0.258504 9.73665e-21)
(0.907434 0.298443 -9.88103e-20)
(0.992664 0.332068 -1.35055e-19)
(1.06328 0.358522 6.70455e-20)
(1.1199 0.377436 1.65987e-20)
(1.16354 0.388921 -7.38916e-20)
(1.19554 0.393466 2.60692e-20)
(1.21737 0.392043 -7.68816e-20)
(1.23031 0.386281 2.18165e-20)
(0.0973023 0.0259113 -6.34197e-21)
(0.270469 0.0767606 -5.56154e-20)
(0.42852 0.130673 1.31258e-19)
(0.571953 0.184106 -3.89155e-20)
(0.700577 0.234926 2.74144e-20)
(0.814072 0.281326 -1.01929e-19)
(0.912233 0.321715 1.47429e-19)
(0.995113 0.354915 2.88315e-20)
(1.06314 0.380236 -9.43855e-20)
(1.11714 0.3975 -7.50833e-21)
(1.15834 0.407014 5.42591e-20)
(1.18823 0.409447 4.39019e-20)
(1.20838 0.405949 -7.18459e-20)
(1.22009 0.39833 5.68091e-21)
(0.0993707 0.0298431 3.19998e-20)
(0.275195 0.0870932 5.28646e-20)
(0.434649 0.145956 -3.43756e-20)
(0.578382 0.203038 5.73203e-20)
(0.706353 0.256275 -1.19575e-19)
(0.818413 0.303943 1.7013e-22)
(0.914552 0.344576 3.91897e-20)
(0.995036 0.377155 1.89808e-20)
(1.06051 0.401176 1.7316e-19)
(1.11202 0.416662 -5.22831e-20)
(1.15097 0.424126 -1.192e-19)
(1.17899 0.424416 -2.1469e-20)
(1.19773 0.418851 3.04109e-20)
(1.20847 0.409429 -4.04871e-21)
(0.101091 0.0338657 3.6134e-20)
(0.27898 0.0975853 3.35896e-20)
(0.439344 0.161358 -3.3864e-20)
(0.582976 0.221971 9.13857e-21)
(0.709986 0.277454 1.06745e-19)
(0.820399 0.326193 1.30732e-19)
(0.914403 0.366868 -5.78936e-20)
(0.992473 0.398641 7.06316e-20)
(1.05547 0.421211 -1.06583e-19)
(1.10463 0.434814 -2.26029e-21)
(1.14153 0.440169 6.20581e-20)
(1.16793 0.438302 -5.27603e-21)
(1.18552 0.430696 5.04507e-20)
(1.19552 0.419541 2.82073e-20)
(0.102444 0.0379482 -7.83827e-21)
(0.281786 0.108157 -8.20034e-20)
(0.442561 0.176762 3.19945e-20)
(0.585699 0.240762 -1.54773e-19)
(0.711456 0.298306 -4.92835e-20)
(0.820035 0.347912 -1.50088e-20)
(0.911816 0.388433 1.07949e-19)
(0.987481 0.41923 -1.44432e-19)
(1.04809 0.440216 4.11754e-20)
(1.09507 0.451851 3.35522e-20)
(1.13013 0.455059 2.71716e-20)
(1.15514 0.451044 7.6392e-21)
(1.17183 0.441441 7.70491e-21)
(1.18131 0.428625 -1.39835e-20)
(0.103415 0.0420584 -5.06546e-20)
(0.28358 0.118723 5.07606e-20)
(0.444269 0.192046 1.0953e-19)
(0.586528 0.259266 1.44357e-19)
(0.710761 0.318671 -1.3522e-19)
(0.817342 0.368941 -4.82224e-21)
(0.90684 0.40912 -1.4409e-19)
(0.98013 0.438785 6.29085e-20)
(1.03846 0.458076 6.77598e-20)
(1.08342 0.467676 -2.49198e-20)
(1.11686 0.468721 4.25675e-20)
(1.14074 0.462587 2.44711e-20)
(1.15679 0.451072 -6.45846e-22)
(1.16602 0.4366 -5.67439e-21)
(0.103993 0.0461624 3.41532e-20)
(0.284344 0.1292 -8.74456e-20)
(0.44445 0.207088 -2.00535e-19)
(0.58546 0.277335 -4.5455e-20)
(0.707916 0.338394 2.00079e-19)
(0.812359 0.389124 -3.78508e-20)
(0.899536 0.428783 6.99256e-21)
(0.970505 0.457176 9.08541e-21)
(1.02668 0.474679 -4.07139e-20)
(1.06981 0.482203 -7.34813e-20)
(1.10185 0.481084 -2.96021e-20)
(1.12483 0.472869 -3.75473e-20)
(1.14049 0.459516 -6.94986e-21)
(1.14977 0.443512 -1.27432e-20)
(0.104167 0.0502254 -2.53391e-20)
(0.284062 0.139498 1.00763e-19)