/*--------------------------------*- C++ -*----------------------------------*\
  =========                 |
  \\      /  F ield         | OpenFOAM: The Open Source CFD Toolbox
   \\    /   O peration     | Website:  https://openfoam.org
    \\  /    A nd           | Version:  7
     \\/     M anipulation  |
\*---------------------------------------------------------------------------*/
FoamFile
{
    version     2.0;
    format      ascii;
    class       volScalarField;
    location    "85";
    object      p;
}
// * * * * * * * * * * * * * * * * * * * * * * * * * * * * * * * * * * * * * //

dimensions      [0 2 -2 0 0 0 0];

internalField   nonuniform List<scalar> 
8500
(
-0.427402
-0.430389
-0.428349
-0.43351
-0.431304
-0.429201
-0.436774
-0.43439
-0.432125
-0.440193
-0.437613
-0.43518
-0.432441
-0.443774
-0.440983
-0.438374
-0.435447
-0.432309
-0.447524
-0.444506
-0.441713
-0.438594
-0.435253
-0.43181
-0.451448
-0.448186
-0.445202
-0.441887
-0.438339
-0.43468
-0.430948
-0.455549
-0.452026
-0.448845
-0.445328
-0.441571
-0.43769
-0.433715
-0.429627
-0.459828
-0.456029
-0.452644
-0.44892
-0.444949
-0.440842
-0.436614
-0.432235
-0.427615
-0.464284
-0.460195
-0.456599
-0.452665
-0.448475
-0.444134
-0.439644
-0.434956
-0.429966
-0.424522
-0.468914
-0.464521
-0.460709
-0.45656
-0.452146
-0.447564
-0.442798
-0.437781
-0.432395
-0.426475
-0.419842
-0.473714
-0.469006
-0.464973
-0.460605
-0.455961
-0.451128
-0.44607
-0.440703
-0.434889
-0.428459
-0.421234
-0.413064
-0.403857
-0.478678
-0.473644
-0.469386
-0.464794
-0.459915
-0.45482
-0.449453
-0.443708
-0.437435
-0.430456
-0.422602
-0.413744
-0.403823
-0.392864
-0.483798
-0.478428
-0.473942
-0.469124
-0.464001
-0.458631
-0.452934
-0.446784
-0.440016
-0.432449
-0.423928
-0.414352
-0.403699
-0.392035
-0.379495
-0.489063
-0.483351
-0.478634
-0.473585
-0.468211
-0.462551
-0.456502
-0.449914
-0.442612
-0.434418
-0.425194
-0.414872
-0.403472
-0.391102
-0.37793
-0.364162
-0.349992
-0.494461
-0.488402
-0.483452
-0.478168
-0.472535
-0.466569
-0.46014
-0.453081
-0.445205
-0.436342
-0.426379
-0.415287
-0.403129
-0.390053
-0.37626
-0.361972
-0.347391
-0.332744
-0.499978
-0.493568
-0.488384
-0.482863
-0.476959
-0.470668
-0.463831
-0.456262
-0.447771
-0.438199
-0.427465
-0.41558
-0.402656
-0.388879
-0.374478
-0.359688
-0.344713
-0.329764
-0.314792
-0.300654
-0.505598
-0.498835
-0.493418
-0.487655
-0.481469
-0.474831
-0.467554
-0.459437
-0.450286
-0.439966
-0.428429
-0.415734
-0.40204
-0.387571
-0.372577
-0.357302
-0.341949
-0.326712
-0.311553
-0.297243
-0.511302
-0.504186
-0.498537
-0.492528
-0.486047
-0.479038
-0.471288
-0.462579
-0.452726
-0.441618
-0.429251
-0.415734
-0.40127
-0.386118
-0.370548
-0.354806
-0.339093
-0.32358
-0.308242
-0.293764
-0.517069
-0.509603
-0.503723
-0.497462
-0.490672
-0.483267
-0.475005
-0.465662
-0.455064
-0.443132
-0.429911
-0.415561
-0.400331
-0.38451
-0.368382
-0.352193
-0.336134
-0.320359
-0.304849
-0.29021
-0.522876
-0.515064
-0.508955
-0.502438
-0.495322
-0.487491
-0.47868
-0.468659
-0.457273
-0.444483
-0.430388
-0.415201
-0.399213
-0.382738
-0.366071
-0.349453
-0.333064
-0.317039
-0.301365
-0.28657
-0.528698
-0.520547
-0.514211
-0.507431
-0.499971
-0.491684
-0.482283
-0.471538
-0.459323
-0.445647
-0.430662
-0.414637
-0.397901
-0.380791
-0.363605
-0.346577
-0.329875
-0.313612
-0.297781
-0.282835
-0.534506
-0.526024
-0.519464
-0.512414
-0.50459
-0.495814
-0.485781
-0.47427
-0.461187
-0.446597
-0.430713
-0.413853
-0.396385
-0.378659
-0.360974
-0.343556
-0.326556
-0.310068
-0.294088
-0.278997
-0.54027
-0.531468
-0.524687
-0.517359
-0.50915
-0.49985
-0.489143
-0.476821
-0.462836
-0.447312
-0.430521
-0.412835
-0.394651
-0.376331
-0.35817
-0.34038
-0.323098
-0.306397
-0.290277
-0.275047
-0.545959
-0.536848
-0.529849
-0.522235
-0.513617
-0.503758
-0.492333
-0.47916
-0.464241
-0.447765
-0.430068
-0.411568
-0.392687
-0.373796
-0.355182
-0.33704
-0.319491
-0.30259
-0.286339
-0.270976
-0.551538
-0.542133
-0.534919
-0.527007
-0.517956
-0.5075
-0.495315
-0.481253
-0.465374
-0.447935
-0.429335
-0.410036
-0.390482
-0.371045
-0.351999
-0.333525
-0.315726
-0.298638
-0.282265
-0.266777
-0.55697
-0.547286
-0.53986
-0.531641
-0.522129
-0.51104
-0.498055
-0.483067
-0.466205
-0.447797
-0.428304
-0.408227
-0.388024
-0.368065
-0.348612
-0.329827
-0.311793
-0.294531
-0.278046
-0.262442
-0.562218
-0.552272
-0.544637
-0.536098
-0.526099
-0.514339
-0.500514
-0.48457
-0.466708
-0.447331
-0.426959
-0.406125
-0.385301
-0.364848
-0.345011
-0.325934
-0.307683
-0.290262
-0.273675
-0.257963
-0.567241
-0.557052
-0.549211
-0.540338
-0.529825
-0.517357
-0.502656
-0.48573
-0.466856
-0.446515
-0.425281
-0.403718
-0.382301
-0.361381
-0.341186
-0.321838
-0.303386
-0.28582
-0.269142
-0.253333
-0.571999
-0.561587
-0.553541
-0.544321
-0.533265
-0.520054
-0.504444
-0.486513
-0.466623
-0.445329
-0.423256
-0.400992
-0.379012
-0.357655
-0.337126
-0.317528
-0.298893
-0.281197
-0.264441
-0.248546
-0.576449
-0.565835
-0.557586
-0.548004
-0.536378
-0.52239
-0.505842
-0.48689
-0.465984
-0.443753
-0.420868
-0.397935
-0.375425
-0.353658
-0.332821
-0.312996
-0.294196
-0.276387
-0.259564
-0.243593
-0.580547
-0.569753
-0.561303
-0.551345
-0.53912
-0.524324
-0.506814
-0.486831
-0.464916
-0.441768
-0.418102
-0.394534
-0.371527
-0.349382
-0.328263
-0.308232
-0.289286
-0.271379
-0.254504
-0.238471
-0.58425
-0.5733
-0.56465
-0.554299
-0.54145
-0.525818
-0.507325
-0.486307
-0.463395
-0.439358
-0.414944
-0.390777
-0.367308
-0.344816
-0.323441
-0.303227
-0.284154
-0.266168
-0.249253
-0.233172
-0.587514
-0.576431
-0.567581
-0.556824
-0.543326
-0.526832
-0.507343
-0.485291
-0.461402
-0.436505
-0.411381
-0.386654
-0.362758
-0.33995
-0.318347
-0.297973
-0.278794
-0.260746
-0.243807
-0.227691
-0.590293
-0.579101
-0.570054
-0.558874
-0.544704
-0.527329
-0.506835
-0.483758
-0.458915
-0.433195
-0.407401
-0.382154
-0.357868
-0.334776
-0.312972
-0.292463
-0.273197
-0.255107
-0.238158
-0.222024
-0.592545
-0.581269
-0.572023
-0.560407
-0.545545
-0.527273
-0.505771
-0.481685
-0.455918
-0.429413
-0.402992
-0.377266
-0.352628
-0.329285
-0.307309
-0.286688
-0.267358
-0.249244
-0.232302
-0.216165
-0.594224
-0.582889
-0.573446
-0.561381
-0.545809
-0.526629
-0.504123
-0.479048
-0.452392
-0.425146
-0.398143
-0.371981
-0.34703
-0.323469
-0.30135
-0.280642
-0.26127
-0.243153
-0.226234
-0.210111
-0.59529
-0.583921
-0.57428
-0.561754
-0.545459
-0.525364
-0.501865
-0.475828
-0.448323
-0.420383
-0.392845
-0.366291
-0.341065
-0.317321
-0.295087
-0.274319
-0.254927
-0.236827
-0.219949
-0.203858
-0.5957
-0.584321
-0.574485
-0.561488
-0.544458
-0.523449
-0.498973
-0.472007
-0.443698
-0.415112
-0.387088
-0.360188
-0.334727
-0.310833
-0.288516
-0.267713
-0.248325
-0.230263
-0.213444
-0.197403
-0.595414
-0.584051
-0.574019
-0.560543
-0.542774
-0.520856
-0.495425
-0.467567
-0.438503
-0.409325
-0.380866
-0.353665
-0.328009
-0.304001
-0.281629
-0.260819
-0.241458
-0.223457
-0.206715
-0.190743
-0.594394
-0.583072
-0.572846
-0.558884
-0.540373
-0.517558
-0.491201
-0.462496
-0.432728
-0.403012
-0.37417
-0.346715
-0.320905
-0.296818
-0.274424
-0.253632
-0.234324
-0.216405
-0.199759
-0.183876
-0.592605
-0.581347
-0.570929
-0.556479
-0.537228
-0.513533
-0.486284
-0.45678
-0.426365
-0.396167
-0.366995
-0.339333
-0.313411
-0.289281
-0.266894
-0.24615
-0.226918
-0.209104
-0.192575
-0.176803
-0.590012
-0.578842
-0.568236
-0.553295
-0.533312
-0.50876
-0.48066
-0.45041
-0.419406
-0.388785
-0.359337
-0.331516
-0.305522
-0.281385
-0.259038
-0.238368
-0.219238
-0.201551
-0.18516
-0.169526
-0.586584
-0.575526
-0.564734
-0.549306
-0.528603
-0.503222
-0.474315
-0.443377
-0.411845
-0.380862
-0.351192
-0.32326
-0.297236
-0.273128
-0.250854
-0.230287
-0.211283
-0.193742
-0.177508
-0.162037
-0.582293
-0.571369
-0.560396
-0.544486
-0.52308
-0.496904
-0.467242
-0.435674
-0.403679
-0.372394
-0.342557
-0.314563
-0.288552
-0.26451
-0.242339
-0.221904
-0.20305
-0.185678
-0.169618
-0.154296
-0.577113
-0.566345
-0.555198
-0.538814
-0.516727
-0.489795
-0.459431
-0.427299
-0.394906
-0.36338
-0.333433
-0.305424
-0.279467
-0.255528
-0.233493
-0.213219
-0.194544
-0.177372
-0.161516
-0.146258
-0.571021
-0.560431
-0.549116
-0.532271
-0.509528
-0.481885
-0.450879
-0.418249
-0.385524
-0.353821
-0.323818
-0.295843
-0.269983
-0.246183
-0.224318
-0.204234
-0.185765
-0.168833
-0.153244
-0.138007
-0.564
-0.553608
-0.542134
-0.524842
-0.501475
-0.473169
-0.441583
-0.408523
-0.375536
-0.343717
-0.313715
-0.285822
-0.260101
-0.236477
-0.214814
-0.194949
-0.176714
-0.160034
-0.144616
-0.129717
-0.556031
-0.545858
-0.534235
-0.516514
-0.492559
-0.463644
-0.431543
-0.398125
-0.364943
-0.333072
-0.303125
-0.275364
-0.249823
-0.226411
-0.204983
-0.185367
-0.167393
-0.150984
-0.135787
-0.121211
-0.547104
-0.537169
-0.525408
-0.507281
-0.482776
-0.453309
-0.420762
-0.387057
-0.353751
-0.321891
-0.292054
-0.264471
-0.239152
-0.21599
-0.194829
-0.175491
-0.157805
-0.141689
-0.126753
-0.112489
-0.53721
-0.527532
-0.515646
-0.497137
-0.472126
-0.442167
-0.409245
-0.375327
-0.341966
-0.310178
-0.280507
-0.253149
-0.228094
-0.205218
-0.184357
-0.165326
-0.147953
-0.132155
-0.117508
-0.103558
-0.526343
-0.51694
-0.504943
-0.48608
-0.460611
-0.430223
-0.396999
-0.362942
-0.329594
-0.297942
-0.26849
-0.241405
-0.216653
-0.1941
-0.173571
-0.154876
-0.137843
-0.122388
-0.108053
-0.0944277
-0.514502
-0.505391
-0.493299
-0.474114
-0.448237
-0.417486
-0.384034
-0.349911
-0.316647
-0.285191
-0.256011
-0.229245
-0.204838
-0.182643
-0.162477
-0.144148
-0.127481
-0.112393
-0.0983892
-0.0851048
-0.501688
-0.492887
-0.480717
-0.461243
-0.435011
-0.403966
-0.370361
-0.336248
-0.303135
-0.271936
-0.24308
-0.216679
-0.192656
-0.170854
-0.151084
-0.133148
-0.116872
-0.102176
-0.0885229
-0.0755961
-0.487908
-0.479432
-0.467204
-0.447477
-0.420946
-0.389677
-0.355995
-0.321965
-0.289071
-0.258187
-0.229708
-0.203715
-0.180117
-0.158743
-0.139399
-0.121884
-0.106026
-0.0917422
-0.0784597
-0.0659083
-0.473171
-0.465036
-0.452768
-0.432828
-0.406056
-0.374634
-0.340951
-0.307077
-0.274468
-0.243958
-0.215906
-0.190366
-0.167229
-0.146318
-0.127431
-0.110366
-0.0949485
-0.0811008
-0.0682069
-0.0560484
-0.457489
-0.449709
-0.437424
-0.417311
-0.390359
-0.358856
-0.325247
-0.291602
-0.259343
-0.229264
-0.201687
-0.176643
-0.154006
-0.13359
-0.115191
-0.098601
-0.0836502
-0.0702598
-0.0577724
-0.0460243
-0.440878
-0.433468
-0.421188
-0.400945
-0.373874
-0.342363
-0.308905
-0.275558
-0.243713
-0.21412
-0.187066
-0.162559
-0.140459
-0.120572
-0.10269
-0.0866014
-0.0721407
-0.0592284
-0.0471653
-0.0358441
-0.423358
-0.416331
-0.40408
-0.383751
-0.356623
-0.325179
-0.291946
-0.258964
-0.227596
-0.198542
-0.172059
-0.148129
-0.126602
-0.107276
-0.0899385
-0.074378
-0.0604307
-0.048017
-0.0363952
-0.0255171
-0.404952
-0.39832
-0.386123
-0.365753
-0.338633
-0.307328
-0.274389
-0.241847
-0.211013
-0.18255
-0.156681
-0.133369
-0.112449
-0.0937147
-0.0769506
-0.0619431
-0.0485319
-0.0366367
-0.025473
-0.0150535
-0.385685
-0.379461
-0.367343
-0.346979
-0.319932
-0.288834
-0.256263
-0.224226
-0.193984
-0.166162
-0.140951
-0.118294
-0.0980155
-0.079903
-0.0637394
-0.0493097
-0.036457
-0.0250995
-0.0144105
-0.00446467
-0.365586
-0.359781
-0.347767
-0.32746
-0.300551
-0.269724
-0.237596
-0.206126
-0.176532
-0.1494
-0.124888
-0.102922
-0.0833171
-0.065856
-0.0503193
-0.0364913
-0.0242192
-0.0134182
-0.00322036
0.00623605
-0.344686
-0.339312
-0.32743
-0.307228
-0.280508
-0.250038
-0.218415
-0.187573
-0.158682
-0.132284
-0.108511
-0.0872711
-0.0683711
-0.0515894
-0.0367053
-0.0235025
-0.0118327
-0.00160668
0.00808307
0.0170332
-0.323019
-0.318087
-0.306365
-0.286321
-0.259841
-0.229801
-0.198751
-0.168595
-0.140457
-0.114837
-0.0918413
-0.0713607
-0.0531951
-0.0371197
-0.0229127
-0.0103582
0.00068797
0.0103206
0.0194845
-0.30062
-0.296145
-0.284608
-0.26475
-0.238609
-0.209049
-0.178634
-0.149221
-0.121883
-0.0970834
-0.0749002
-0.0552104
-0.0378072
-0.0224637
-0.00895751
0.00292657
0.0133274
0.0223484
-0.277528
-0.273522
-0.262194
-0.242579
-0.216829
-0.187816
-0.158097
-0.12948
-0.102988
-0.0790473
-0.0577102
-0.0388407
-0.0222264
-0.00763898
0.00514424
0.0163362
0.0260703
-0.25378
-0.250264
-0.239164
-0.219849
-0.194542
-0.166138
-0.137172
-0.109402
-0.0838002
-0.0607542
-0.0402945
-0.0222728
-0.00647208
0.0073369
0.0193764
0.0298555
-0.229413
-0.226421
-0.215568
-0.196595
-0.17179
-0.144055
-0.115896
-0.0890194
-0.0643473
-0.0422303
-0.0226771
-0.00552875
0.00943578
0.0224459
0.0337225
0.0434694
-0.204484
-0.202034
-0.191452
-0.172863
-0.148613
-0.121603
-0.0943035
-0.0683646
-0.0446592
-0.0235026
-0.00488277
0.0113691
0.0254768
0.0376697
0.0481664
-0.179083
-0.177115
-0.166857
-0.148697
-0.125055
-0.0988232
-0.0724309
-0.0474709
-0.0247666
-0.00459895
0.0130632
0.0283974
0.0416301
0.0529896
-0.153229
-0.151732
-0.141832
-0.124143
-0.101159
-0.075756
-0.0503157
-0.0263725
-0.00470037
0.0144522
0.0311347
0.0455326
0.0578742
0.0683868
-0.126957
-0.125945
-0.116426
-0.0992483
-0.0769698
-0.0524428
-0.0279959
-0.00510393
0.0155076
0.0336218
0.0493051
0.0627505
0.0741869
-0.100321
-0.0998072
-0.0906889
-0.0740616
-0.0525338
-0.0289259
-0.00551023
0.0162993
0.0358249
0.05288
0.0675473
0.0800255
0.0905449
-0.0733783
-0.0733691
-0.0646719
-0.048632
-0.0278967
-0.00524791
0.0171022
0.0378014
0.0562187
0.0721969
0.0858334
0.0973318
-0.0461811
-0.0466819
-0.0384264
-0.0230088
-0.00310512
0.0185481
0.0398018
0.0593661
0.0766558
0.0915418
0.104135
-0.0187855
-0.0197999
-0.0120057
0.00275731
0.0217937
0.0424184
0.0625486
0.0809566
0.0971025
0.110884
0.122423
0.00875249
0.00722221
0.014537
0.0286156
0.0467522
0.0663192
0.0853023
0.102536
0.117525
0.130191
0.0363767
0.0343296
0.041148
0.054515
0.0717229
0.0902065
0.108023
0.124068
0.137889
0.149432
0.0640307
0.0614668
0.0677734
0.0804043
0.0966579
0.114036
0.130669
0.145515
0.158162
0.0916579
0.0885783
0.0943592
0.106232
0.121509
0.137765
0.153202
0.16684
0.178307
0.119202
0.115609
0.120852
0.131948
0.14623
0.161348
0.17558
0.188006
0.198292
0.146606
0.142502
0.147197
0.1575
0.170773
0.184743
0.197764
0.208977
0.173814
0.169203
0.173341
0.182839
0.19509
0.207905
0.219714
0.229715
0.20077
0.195658
0.199232
0.207914
0.219136
0.230793
0.241392
0.227419
0.221811
0.224817
0.232676
0.242865
0.253364
0.262757
0.253706
0.247609
0.250044
0.257076
0.266231
0.275577
0.283772
0.279577
0.272999
0.274862
0.281066
0.289189
0.29739
0.30498
0.297929
0.299222
0.304599
0.311698
0.318764
0.329862
0.322348
0.323073
0.327629
0.333712
0.339659
0.354173
0.346206
0.346368
0.350111
0.355192
0.377862
0.369455
0.369061
0.372
0.376096
0.400882
0.392046
0.391105
0.393255
0.396384
0.423185
0.413933
0.412457
0.413834
0.416019
0.444727
0.435074
0.433073
0.433697
0.465463
0.455423
0.452914
0.452805
0.485351
0.47494
0.471939
0.471121
0.504352
0.493586
0.49011
0.48861
0.522426
0.511323
0.507393
0.505239
0.539538
0.528115
0.523751
0.555652
0.543928
0.539153
0.570736
0.55873
0.553569
0.58476
0.572492
0.56697
0.597695
0.585187
0.57933
0.609517
0.596788
0.590624
0.620201
0.607273
0.600831
0.629726
0.616621
0.609931
0.638072
0.624813
0.617906
0.645225
0.631833
0.651169
0.637668
0.655892
0.642306
0.659387
0.645737
0.661645
0.647956
0.662663
0.648959
0.66244
0.648744
0.660976
0.647311
0.658275
0.644665
0.654342
0.640811
0.649186
0.635757
0.642818
0.629514
0.635252
0.622095
0.615343
0.626502
0.613516
0.607004
0.616589
0.603795
0.597553
0.605532
0.592951
0.587009
0.593353
0.581008
0.575393
0.58008
0.56799
0.56273
0.565739
0.553925
0.549045
0.55036
0.538841
0.534366
0.533975
0.522771
0.518724
0.516619
0.505746
0.502149
0.500497
0.498327
0.487804
0.484676
0.483702
0.479137
0.468981
0.466342
0.466071
0.45909
0.449316
0.447182
0.447639
0.438227
0.428851
0.427236
0.428445
0.416592
0.407628
0.406547
0.408525
0.411464
0.39423
0.385692
0.385155
0.387921
0.391823
0.371188
0.363088
0.363105
0.366672
0.371559
0.347515
0.339865
0.340443
0.344822
0.350711
0.356452
0.323259
0.31607
0.317215
0.322416
0.329319
0.336179
0.298472
0.291754
0.29347
0.299497
0.307425
0.31542
0.273206
0.266969
0.269257
0.276112
0.285073
0.294213
0.247514
0.241765
0.244625
0.252309
0.262305
0.2726
0.281776
0.221451
0.216198
0.219627
0.228136
0.239167
0.250621
0.261004
0.195071
0.19032
0.194314
0.203641
0.215704
0.228319
0.239913
0.168431
0.164186
0.168739
0.178875
0.191963
0.205735
0.218543
0.229528
0.141585
0.137852
0.142955
0.153888
0.167989
0.182912
0.196934
0.209132
0.114592
0.111374
0.117018
0.128731
0.143831
0.159896
0.175124
0.188536
0.199761
0.0875077
0.0848075
0.0909796
0.103455
0.119537
0.136728
0.153156
0.167776
0.18018
0.06039
0.0582089
0.0648959
0.0781119
0.0951535
0.113454
0.131068
0.14689
0.160468
0.171751
0.0332959
0.0316345
0.0388212
0.0527538
0.0707297
0.0901187
0.108903
0.125915
0.140661
0.153065
0.00628289
0.00514046
0.0128102
0.0274324
0.0463138
0.0667656
0.0867002
0.104888
0.120792
0.134309
-0.0205922
-0.0212173
-0.0130827
0.00219938
0.0219541
0.0434398
0.0645016
0.0838478
0.100895
0.115516
0.127826
-0.0472727
-0.0473834
-0.0388034
-0.0228935
-0.00230116
0.0201856
0.0423477
0.0628308
0.0810056
0.0967177
0.110067
0.121262
-0.0737021
-0.0733032
-0.064298
-0.0477951
-0.026404
-0.00295257
0.0202791
0.0418745
0.0611574
0.0779449
0.0923221
0.104491
-0.0998237
-0.0989222
-0.089513
-0.0724543
-0.0503066
-0.0259307
-0.0016639
0.0210159
0.0413845
0.0592289
0.0746191
0.0877501
0.0988545
-0.125584
-0.12419
-0.114397
-0.0968215
-0.0739623
-0.0487054
-0.0234414
0.000291399
0.0217203
0.0406007
0.0569862
0.0710648
0.0830668
-0.150925
-0.149054
-0.138899
-0.120847
-0.0973245
-0.0712336
-0.0450139
-0.0202628
0.00219781
0.0220908
0.0394516
0.0544609
0.0673468
0.0783397
-0.175806
-0.173454
-0.162967
-0.144483
-0.120347
-0.0934729
-0.0663427
-0.0406113
-0.0171504
0.00372872
0.0220427
0.0379637
0.0517175
0.0635346
-0.200214
-0.197317
-0.186555
-0.167682
-0.142986
-0.115382
-0.0873894
-0.0607191
-0.0362926
-0.0144563
0.0047862
0.0215975
0.0362008
0.0488266
0.059697
-0.22406
-0.220627
-0.209617
-0.190398
-0.165197
-0.13692
-0.108117
-0.0805521
-0.0551976
-0.0324357
-0.0122919
0.00538619
0.0208182
0.0342347
0.045859
0.0558981
-0.24728
-0.243349
-0.232107
-0.212585
-0.186937
-0.158046
-0.128488
-0.100077
-0.073835
-0.0501819
-0.0291662
-0.0106472
0.00559053
0.0197771
0.0321365
0.042881
0.0521432
-0.269836
-0.265428
-0.253975
-0.234204
-0.208165
-0.178723
-0.148468
-0.119261
-0.0921752
-0.067668
-0.0458123
-0.0264803
-0.00946183
0.00547209
0.0185458
0.0299744
0.0398969
-0.29169
-0.286817
-0.275176
-0.255214
-0.22884
-0.198913
-0.168022
-0.138074
-0.11019
-0.0848677
-0.0622062
-0.0420913
-0.0243191
-0.00866245
0.00510262
0.0171932
0.0277531
0.0368854
-0.312803
-0.307479
-0.295675
-0.275559
-0.248934
-0.218579
-0.187117
-0.156483
-0.12785
-0.101756
-0.078325
-0.0574593
-0.0389621
-0.0226089
-0.00817681
0.0045521
0.0157266
0.0254411
0.0346122
-0.333138
-0.327373
-0.315436
-0.295214
-0.268401
-0.237684
-0.205721
-0.174461
-0.145131
-0.118308
-0.0941464
-0.0725638
-0.0533721
-0.0363502
-0.0212766
-0.0079335
0.00383229
0.0141092
0.0237766
0.032713
-0.352658
-0.346466
-0.334421
-0.314143
-0.287191
-0.25621
-0.223803
-0.191977
-0.162005
-0.134501
-0.109649
-0.0873854
-0.0675312
-0.0498696
-0.0341811
-0.0202486
-0.00791489
0.00290452
0.0130491
0.0224613
-0.371333
-0.364723
-0.352598
-0.332314
-0.305289
-0.274106
-0.241334
-0.209006
-0.178449
-0.150313
-0.124813
-0.101905
-0.081422
-0.0631509
-0.0468751
-0.0323787
-0.0195005
-0.0081588
0.00244458
0.012314
-0.389133
-0.382117
-0.369937
-0.349694
-0.322665
-0.291346
-0.25829
-0.225518
-0.19444
-0.165721
-0.139618
-0.116106
-0.0950279
-0.0761788
-0.0593442
-0.0443097
-0.0309108
-0.0190673
-0.00802313
0.00228609
-0.406029
-0.39862
-0.38641
-0.366256
-0.339287
-0.307905
-0.274624
-0.241507
-0.209956
-0.180707
-0.154046
-0.129969
-0.108333
-0.0889385
-0.0715742
-0.0560282
-0.0421328
-0.0298085
-0.0183415
-0.00760934
-0.421999
-0.41421
-0.401993
-0.381972
-0.355128
-0.323759
-0.290333
-0.25693
-0.224973
-0.195251
-0.16808
-0.14348
-0.121323
-0.101416
-0.0835521
-0.0675216
-0.0531542
-0.0403706
-0.0284991
-0.0173612
-0.437022
-0.428866
-0.416665
-0.396821
-0.370164
-0.338885
-0.305392
-0.27177
-0.239475
-0.209335
-0.181703
-0.156624
-0.133984
-0.113598
-0.0952654
-0.0787781
-0.0639638
-0.0507429
-0.0384855
-0.0269595
-0.45108
-0.442572
-0.430409
-0.410784
-0.384375
-0.353258
-0.319777
-0.286009
-0.253442
-0.222943
-0.194901
-0.169386
-0.146302
-0.125473
-0.106703
-0.0897867
-0.0745511
-0.0609155
-0.0482914
-0.0363954
-0.46416
-0.455315
-0.44321
-0.423843
-0.397742
-0.366861
-0.333469
-0.299631
-0.266858
-0.23606
-0.207659
-0.181754
-0.158266
-0.137029
-0.117853
-0.100537
-0.0849065
-0.0708794
-0.057908
-0.045661
-0.476252
-0.467086
-0.455057
-0.435986
-0.41025
-0.379676
-0.34645
-0.312617
-0.27971
-0.248673
-0.219965
-0.193717
-0.169865
-0.148256
-0.128707
-0.111021
-0.0950213
-0.0806265
-0.0673278
-0.0547488
-0.48735
-0.477878
-0.465944
-0.447202
-0.421887
-0.391689
-0.358707
-0.324955
-0.291982
-0.260768
-0.231808
-0.205263
-0.181088
-0.159146
-0.139256
-0.121229
-0.104888
-0.0901495
-0.0765439
-0.0636521
-0.49745
-0.487691
-0.475867
-0.457486
-0.432642
-0.402889
-0.370226
-0.336632
-0.303663
-0.272334
-0.243178
-0.216383
-0.191929
-0.169688
-0.149492
-0.131154
-0.114499
-0.0994422
-0.0855504
-0.0723643
-0.506555
-0.496526
-0.484826
-0.466834
-0.44251
-0.413266
-0.380997
-0.347636
-0.314744
-0.283364
-0.254066
-0.22707
-0.202378
-0.179878
-0.159409
-0.14079
-0.123849
-0.108499
-0.0943427
-0.080879
-0.514668
-0.504388
-0.492825
-0.475248
-0.451487
-0.422815
-0.391012
-0.357959
-0.325214
-0.293848
-0.264464
-0.237316
-0.21243
-0.189708
-0.169
-0.150131
-0.132932
-0.117315
-0.102918
-0.0891895
-0.521799
-0.511287
-0.499872
-0.482731
-0.459575
-0.431532
-0.400266
-0.367595
-0.335069
-0.30378
-0.274367
-0.247117
-0.222078
-0.199173
-0.17826
-0.159173
-0.141743
-0.125886
-0.111275
-0.0972895
-0.52796
-0.517237
-0.505979
-0.489292
-0.466776
-0.439417
-0.408756
-0.376539
-0.344301
-0.313154
-0.28377
-0.256467
-0.23132
-0.20827
-0.187187
-0.167912
-0.150281
-0.134207
-0.119414
-0.10518
-0.533166
-0.522252
-0.51116
-0.494943
-0.473098
-0.446474
-0.41648
-0.384788
-0.352909
-0.321969
-0.29267
-0.265363
-0.240152
-0.216995
-0.195776
-0.176345
-0.158541
-0.142275
-0.127305
-0.112911
-0.537438
-0.526355
-0.515435
-0.499699
-0.478552
-0.452706
-0.42344
-0.392342
-0.36089
-0.33022
-0.301064
-0.273804
-0.248572
-0.225347
-0.204026
-0.184469
-0.166521
-0.150091
-0.134979
-0.120548
-0.540798
-0.529569
-0.518826
-0.503578
-0.483151
-0.458124
-0.429642
-0.399202
-0.368245
-0.337909
-0.308952
-0.281788
-0.256579
-0.233325
-0.211936
-0.192284
-0.174221
-0.157653
-0.142408
-0.127893
-0.543273
-0.53192
-0.521358
-0.506604
-0.486913
-0.462739
-0.435093
-0.405372
-0.374975
-0.345035
-0.316334
-0.289317
-0.264174
-0.240928
-0.219505
-0.199789
-0.181637
-0.164956
-0.149589
-0.134966
-0.544892
-0.533439
-0.523061
-0.508802
-0.489859
-0.466566
-0.439801
-0.410859
-0.381083
-0.351601
-0.323212
-0.296391
-0.271358
-0.248157
-0.226734
-0.206983
-0.18877
-0.172001
-0.156533
-0.141815
-0.545688
-0.534158
-0.523967
-0.5102
-0.492012
-0.469623
-0.44378
-0.41567
-0.386576
-0.357611
-0.329589
-0.303013
-0.278132
-0.255016
-0.233626
-0.213869
-0.195621
-0.178788
-0.163245
-0.148457
-0.545695
-0.534115
-0.524111
-0.510832
-0.493399
-0.471932
-0.447044
-0.419815
-0.391461
-0.363071
-0.33547
-0.309188
-0.284502
-0.261506
-0.240181
-0.220448
-0.202192
-0.185319
-0.169725
-0.154892
-0.544952
-0.533345
-0.523531
-0.510732
-0.494051
-0.473514
-0.449612
-0.423308
-0.395745
-0.367986
-0.340859
-0.314919
-0.290469
-0.267631
-0.246405
-0.226724
-0.208486
-0.191599
-0.175973
-0.161118
-0.543498
-0.53189
-0.522265
-0.509936
-0.494
-0.474399
-0.451502
-0.426162
-0.399441
-0.372365
-0.345764
-0.320212
-0.296041
-0.273396
-0.2523
-0.232701
-0.214506
-0.197628
-0.181992
-0.167134
-0.541374
-0.529793
-0.520356
-0.508486
-0.493281
-0.474614
-0.452739
-0.428395
-0.402559
-0.376217
-0.350192
-0.325074
-0.301222
-0.278807
-0.257872
-0.238382
-0.220256
-0.20341
-0.187784
-0.172945
-0.538625
-0.527095
-0.517847
-0.506423
-0.491934
-0.474191
-0.453347
-0.430025
-0.405115
-0.379553
-0.354152
-0.329513
-0.30602
-0.283869
-0.263126
-0.243773
-0.22574
-0.208949
-0.193352
-0.178552
-0.535296
-0.523843
-0.514783
-0.50379
-0.489996
-0.473166
-0.453354
-0.431073
-0.407124
-0.382386
-0.357652
-0.333536
-0.310441
-0.288589
-0.268069
-0.248878
-0.230963
-0.214249
-0.198701
-0.183959
-0.531431
-0.520082
-0.511211
-0.500631
-0.487511
-0.471574
-0.452789
-0.431563
-0.408603
-0.384727
-0.360705
-0.337153
-0.314494
-0.292975
-0.272706
-0.253705
-0.23593
-0.219316
-0.203835
-0.189168
-0.527078
-0.515857
-0.507175
-0.496994
-0.484521
-0.469453
-0.451684
-0.43152
-0.409571
-0.386592
-0.363321
-0.340373
-0.318187
-0.297034
-0.277046
-0.258259
-0.240648
-0.224153
-0.208757
-0.194185
-0.522283
-0.511216
-0.502723
-0.492924
-0.48107
-0.466844
-0.450073
-0.430969
-0.410049
-0.387996
-0.365513
-0.343207
-0.32153
-0.300775
-0.281095
-0.262547
-0.245122
-0.228767
-0.213473
-0.199012
-0.517094
-0.506205
-0.497903
-0.488467
-0.477204
-0.463787
-0.447991
-0.42994
-0.410058
-0.388956
-0.367294
-0.345665
-0.324532
-0.304206
-0.284862
-0.266578
-0.249358
-0.233164
-0.217988
-0.203654
-0.511556
-0.500869
-0.492759
-0.483672
-0.472968
-0.460326
-0.445476
-0.428463
-0.409624
-0.389491
-0.368678
-0.34776
-0.327203
-0.307336
-0.288355
-0.270357
-0.253365
-0.237349
-0.222308
-0.208117
-0.505717
-0.495254
-0.487338
-0.478583
-0.468408
-0.456503
-0.442564
-0.42657
-0.408769
-0.389619
-0.36968
-0.349503
-0.329553
-0.310174
-0.291582
-0.273894
-0.257148
-0.24133
-0.226439
-0.212405
-0.49962
-0.489403
-0.481684
-0.473246
-0.463569
-0.45236
-0.439296
-0.424293
-0.407522
-0.389362
-0.370315
-0.350906
-0.331593
-0.31273
-0.294553
-0.277195
-0.260716
-0.245112
-0.230386
-0.216523
-0.49331
-0.483359
-0.47584
-0.467704
-0.458495
-0.447943
-0.435711
-0.421667
-0.405909
-0.388739
-0.370601
-0.351983
-0.333334
-0.315013
-0.297274
-0.28027
-0.264076
-0.248703
-0.234156
-0.220478
-0.486828
-0.477163
-0.469846
-0.462001
-0.453231
-0.443292
-0.431849
-0.418727
-0.403958
-0.387774
-0.370554
-0.352746
-0.334785
-0.317033
-0.299757
-0.283126
-0.267235
-0.25211
-0.237756
-0.224274
-0.480216
-0.470853
-0.463743
-0.456176
-0.447816
-0.438451
-0.427749
-0.415508
-0.401701
-0.38649
-0.370191
-0.353211
-0.33596
-0.318799
-0.302008
-0.285771
-0.270201
-0.25534
-0.241192
-0.227918
-0.473512
-0.464466
-0.457567
-0.450269
-0.442293
-0.43346
-0.423452
-0.412047
-0.399167
-0.384911
-0.369533
-0.353389
-0.336867
-0.320321
-0.304036
-0.288213
-0.272981
-0.2584
-0.24447
-0.231416
-0.466753
-0.458037
-0.451353
-0.444315
-0.436698
-0.428358
-0.418997
-0.408378
-0.396387
-0.383062
-0.368597
-0.353297
-0.33752
-0.321608
-0.30585
-0.290461
-0.275583
-0.261296
-0.247598
-0.234773
-0.459972
-0.451599
-0.445134
-0.438348
-0.431067
-0.423183
-0.41442
-0.404538
-0.393392
-0.380969
-0.367403
-0.35295
-0.337929
-0.322668
-0.307457
-0.29252
-0.278014
-0.264036
-0.250581
-0.237996
-0.453202
-0.445181
-0.438939
-0.432399
-0.425434
-0.417971
-0.409758
-0.400563
-0.390215
-0.378659
-0.365973
-0.352361
-0.338105
-0.323512
-0.308866
-0.294399
-0.28028
-0.266626
-0.253426
-0.24109
-0.446471
-0.43881
-0.432795
-0.426497
-0.41983
-0.412753
-0.405046
-0.396486
-0.386887
-0.376158
-0.364327
-0.351548
-0.338061
-0.324147
-0.310083
-0.296104
-0.282389
-0.269072
-0.256139
-0.244061
-0.439807
-0.432511
-0.426727
-0.420666
-0.414281
-0.407561
-0.400317
-0.392339
-0.383438
-0.373493
-0.362488
-0.350526
-0.337807
-0.324582
-0.311115
-0.297641
-0.284346
-0.271381
-0.258726
-0.246916
-0.433233
-0.426307
-0.420756
-0.414929
-0.408812
-0.402421
-0.395599
-0.388155
-0.3799
-0.37069
-0.360476
-0.349313
-0.337356
-0.324827
-0.31197
-0.299016
-0.286156
-0.273558
-0.261193
-0.24966
-0.426771
-0.420216
-0.414902
-0.409307
-0.403445
-0.39736
-0.390922
-0.383963
-0.3763
-0.367778
-0.358315
-0.347925
-0.336721
-0.324889
-0.312652
-0.300234
-0.287825
-0.275607
-0.263545
-0.252299
-0.420439
-0.414255
-0.40918
-0.403815
-0.3982
-0.392397
-0.386309
-0.37979
-0.372668
-0.364782
-0.356026
-0.346379
-0.335913
-0.324777
-0.313168
-0.301299
-0.289356
-0.277535
-0.265787
-0.254839
-0.414254
-0.40844
-0.403605
-0.398469
-0.393091
-0.387552
-0.381783
-0.375661
-0.369029
-0.361727
-0.353632
-0.344694
-0.334945
-0.324498
-0.313524
-0.302216
-0.290754
-0.279345
-0.40823
-0.402781
-0.398188
-0.39328
-0.388132
-0.382841
-0.377362
-0.371597
-0.365407
-0.358637
-0.351156
-0.342887
-0.33383
-0.324063
-0.313723
-0.302987
-0.292021
-0.402377
-0.39729
-0.392939
-0.388257
-0.383333
-0.378276
-0.373063
-0.367619
-0.361824
-0.355536
-0.348618
-0.340977
-0.332583
-0.323479
-0.313773
-0.396704
-0.391974
-0.387863
-0.383407
-0.378703
-0.373868
-0.368898
-0.363742
-0.358301
-0.352444
-0.346039
-0.338981
-0.331216
-0.322756
-0.39122
-0.386839
-0.382967
-0.378735
-0.374246
-0.369622
-0.364878
-0.359981
-0.354854
-0.349381
-0.34344
-0.336918
-0.385928
-0.381889
-0.378254
-0.374244
-0.369966
-0.365545
-0.36101
-0.356346
-0.351497
-0.346365
-0.340837
-0.380833
-0.377127
-0.373726
-0.369936
-0.365864
-0.361639
-0.357298
-0.352846
-0.348242
-0.343409
-0.375936
-0.372554
-0.369384
-0.36581
-0.361941
-0.357904
-0.353746
-0.349485
-0.345098
-0.371238
-0.368172
-0.365226
-0.361866
-0.358196
-0.35434
-0.350354
-0.346266
-0.36674
-0.363979
-0.361253
-0.358101
-0.354624
-0.350943
-0.34712
-0.362442
-0.359975
-0.357463
-0.354512
-0.351224
-0.347712
-0.358342
-0.356159
-0.353853
-0.351098
-0.347991
-0.354441
-0.352529
-0.350421
-0.347855
-0.350737
-0.349085
-0.347166
-0.347231
-0.345825
-0.343923
-0.342749
-0.340812
-0.217577
-0.222697
-0.227665
-0.232485
-0.237161
-0.2417
-0.246106
-0.250386
-0.254544
-0.258589
-0.262524
-0.266358
-0.270095
-0.273742
-0.277306
-0.280792
-0.202676
-0.207555
-0.212305
-0.216932
-0.221438
-0.225828
-0.230107
-0.234278
-0.238347
-0.242318
-0.246197
-0.249988
-0.253698
-0.25733
-0.260891
-0.264386
-0.188826
-0.193457
-0.197981
-0.202402
-0.206723
-0.210947
-0.215078
-0.219119
-0.223076
-0.226951
-0.230749
-0.234475
-0.238133
-0.241728
-0.245264
-0.248747
-0.175971