/*--------------------------------*- C++ -*----------------------------------*\
  =========                 |
  \\      /  F ield         | OpenFOAM: The Open Source CFD Toolbox
   \\    /   O peration     | Website:  https://openfoam.org
    \\  /    A nd           | Version:  7
     \\/     M anipulation  |
\*---------------------------------------------------------------------------*/
FoamFile
{
    version     2.0;
    format      ascii;
    class       volVectorField;
    location    "85";
    object      U;
}
// * * * * * * * * * * * * * * * * * * * * * * * * * * * * * * * * * * * * * //

dimensions      [0 1 -1 0 0 0 0];

internalField   nonuniform List<vector> 
8500
(
(-0.00719192 0.00578765 1.33255e-19)
(-0.00677001 0.0052633 1.11945e-19)
(-0.0109892 0.0111518 -1.47431e-19)
(-0.00628665 0.00473162 7.03833e-19)
(-0.00903039 0.00962436 -4.17408e-19)
(-0.00149242 0.0120086 -1.57772e-21)
(-0.00573413 0.00419163 -3.65995e-19)
(-0.00683017 0.00808366 4.04305e-21)
(0.00293104 0.00969173 3.0222e-19)
(-0.00510403 0.00364242 -1.27913e-19)
(-0.00436699 0.00653225 7.69603e-20)
(0.00783132 0.00738894 1.11212e-19)
(0.0312469 0.00652347 -3.29917e-19)
(-0.00438738 0.00308343 6.56529e-19)
(-0.00161844 0.00497329 -1.65199e-19)
(0.0132405 0.00511111 -2.40634e-19)
(0.0399045 0.00379664 1.23417e-19)
(0.0784036 0.00177271 5.8735e-19)
(-0.00357483 0.00251449 -2.95974e-19)
(0.00143817 0.00341083 4.56563e-20)
(0.0191905 0.00286995 -3.33664e-19)
(0.0493456 0.00117069 -4.72787e-19)
(0.0918922 -0.000919569 -2.03928e-19)
(0.146722 -0.00272569 -1.14553e-19)
(-0.00265682 0.00193602 -2.87888e-19)
(0.00482561 0.00185011 6.34625e-19)
(0.0257116 0.000678497 3.97127e-19)
(0.0596034 -0.00133187 1.77768e-19)
(0.106432 -0.00339321 -6.41948e-20)
(0.165997 -0.00482146 -4.22412e-19)
(0.237847 -0.00505353 5.94086e-20)
(-0.00162375 0.0013491 5.11707e-20)
(0.00856611 0.000297809 -9.64271e-20)
(0.0328327 -0.0014486 7.07744e-20)
(0.0707062 -0.00368707 -1.70526e-19)
(0.122045 -0.00561489 3.61876e-19)
(0.186528 -0.00654522 6.57364e-19)
(0.263523 -0.00593111 2.03611e-19)
(0.351933 -0.00335365 1.27634e-19)
(-0.000466168 0.000755579 -1.7179e-19)
(0.0126811 -0.00123775 -4.01004e-19)
(0.0405803 -0.00349477 -3.03462e-19)
(0.0826787 -0.00586925 9.49441e-20)
(0.138742 -0.00755018 -5.14886e-19)
(0.208306 -0.00785583 -6.43497e-19)
(0.290519 -0.00626572 -8.7193e-20)
(0.383985 -0.00241206 -2.02151e-19)
(0.486603 0.00387076 -2.14877e-20)
(0.000825129 0.000158151 -1.32179e-19)
(0.0171909 -0.00274641 -1.03005e-19)
(0.0489783 -0.00544128 4.67283e-19)
(0.0955402 -0.00785077 -2.89435e-19)
(0.15653 -0.00916346 7.49886e-19)
(0.231309 -0.0087122 3.17275e-19)
(0.318773 -0.00601535 -2.09036e-19)
(0.41719 -0.000771371 -3.58946e-19)
(0.524055 0.00708675 -5.74582e-19)
(0.636056 0.0173535 6.10401e-19)
(0.00225893 -0.00043965 2.59616e-19)
(0.0221141 -0.00421609 4.23538e-19)
(0.0580472 -0.00726711 1.68823e-20)
(0.109304 -0.00960189 2.65513e-19)
(0.175404 -0.0104178 -6.42788e-19)
(0.255504 -0.00907343 1.55658e-19)
(0.34821 -0.00514015 -1.01505e-19)
(0.45142 0.00160037 -1.98135e-20)
(0.562199 0.0110989 -1.94667e-19)
(0.676813 0.0230069 -4.30172e-19)
(0.79093 0.0366849 2.13563e-19)
(0.00384349 -0.00103343 -4.6739e-20)
(0.0274678 -0.00563282 -6.37884e-19)
(0.067804 -0.0089489 -4.92454e-19)
(0.123979 -0.0110908 -3.12758e-20)
(0.195352 -0.0112751 1.12412e-19)
(0.280845 -0.00889903 -2.17721e-19)
(0.378739 -0.00360292 -6.41643e-22)
(0.486528 0.00473017 7.33756e-20)
(0.600838 0.0159169 1.08382e-19)
(0.717521 0.0294526 6.10385e-19)
(0.831953 0.0445413 2.53355e-19)
(0.939516 0.0601862 1.55167e-19)
(1.03616 0.0753299 -2.06912e-19)
(0.00558646 -0.00161796 8.25013e-20)
(0.0332666 -0.0069807 3.37831e-19)
(0.0782614 -0.0104611 2.12047e-19)
(0.139564 -0.0122836 -3.88183e-19)
(0.216352 -0.0116963 8.36936e-20)
(0.307274 -0.00814925 5.11517e-19)
(0.410255 -0.00136948 2.80614e-19)
(0.522358 0.00863953 3.78862e-20)
(0.639764 0.0215432 3.44343e-19)
(0.75794 0.0366701 -7.02588e-19)
(0.872033 0.0530689 -1.97531e-19)
(0.977424 0.0696287 -8.46472e-20)
(1.07031 0.0852411 4.98671e-19)
(1.14817 0.0989641 -3.29854e-19)
(0.00749478 -0.00218718 -7.69806e-20)
(0.0395229 -0.00824207 -4.77401e-20)
(0.089428 -0.011776 -1.23265e-19)
(0.156056 -0.0131451 4.07839e-19)
(0.238371 -0.0116418 2.73008e-19)
(0.334723 -0.00678561 -8.80005e-20)
(0.442641 0.00159082 -1.61107e-20)
(0.558744 0.0133441 3.4709e-19)
(0.678767 0.0279727 -5.29192e-19)
(0.797836 0.0446316 3.24234e-19)
(0.910946 0.06222 3.32385e-19)
(1.01357 0.0795314 8.82768e-20)
(1.10224 0.0954335 -1.7787e-19)
(1.17494 0.109031 2.56896e-19)
(1.23122 0.119768 2.12649e-19)
(0.00957455 -0.0027343 -1.19013e-19)
(0.0462465 -0.00939755 5.25188e-20)
(0.101307 -0.0128641 3.47703e-19)
(0.173439 -0.0136382 5.97422e-21)
(0.261369 -0.0110718 -5.91137e-19)
(0.363109 -0.00477146 -4.06517e-19)
(0.475771 0.00530452 -3.48749e-19)
(0.595508 0.0188536 -1.8373e-19)
(0.717636 0.0351934 6.99241e-19)
(0.83699 0.0533031 -3.15024e-20)
(0.948492 0.0719432 9.39504e-20)
(1.04781 0.0898343 1.53676e-19)
(1.13188 0.105848 -5.16222e-19)
(1.19926 0.119163 -4.11963e-19)
(1.25005 0.129337 1.10813e-19)
(1.28566 0.136303 -2.17264e-20)
(1.30838 0.140328 -4.3305e-19)
(0.011831 -0.0032518 1.51598e-19)
(0.0534442 -0.0104263 1.9291e-19)
(0.113897 -0.0136944 -3.5886e-19)
(0.191694 -0.0137255 -1.94444e-20)
(0.285294 -0.00994731 6.92494e-19)
(0.392342 -0.00207263 4.35111e-19)
(0.509504 0.00979358 -1.7482e-19)
(0.632472 0.0251712 2.58123e-19)
(0.756165 0.0431868 -2.76596e-19)
(0.875193 0.0626452 -2.79455e-19)
(0.9845 0.0821845 2.847e-19)
(1.08003 0.100479 -5.77253e-19)
(1.15921 0.116432 7.30454e-20)
(1.22117 0.129319 2.77806e-19)
(1.26658 0.138827 -1.50901e-19)
(1.2973 0.145022 2.15391e-19)
(1.31588 0.148272 -2.60089e-19)
(1.32505 0.149003 4.30431e-20)
(0.0142684 -0.00373153 1.77128e-19)
(0.0611197 -0.0113062 -5.87208e-19)
(0.127192 -0.0142345 9.45861e-20)
(0.210793 -0.0133688 -9.86145e-20)
(0.310086 -0.00823006 -2.44283e-19)
(0.422319 0.00134202 -1.95016e-19)
(0.543697 0.0150749 1.76147e-19)
(0.669452 0.0322941 -8.08095e-19)
(0.794152 0.051928 -1.88823e-19)
(0.912257 0.0726143 1.2285e-19)
(1.01882 0.0928892 -1.5596e-19)
(1.11016 0.111408 4.45179e-19)
(1.18424 0.127137 3.12365e-19)
(1.24077 0.139466 1.08208e-19)
(1.28096 0.148222 5.99062e-19)
(1.30707 0.153601 -5.90447e-19)
(1.32186 0.156069 3.63209e-19)
(1.32813 0.156127 5.10283e-19)
(1.32847 0.154743 -3.62182e-19)
(1.32461 0.150811 1.01424e-19)
(0.0168899 -0.00416475 1.39914e-20)
(0.0692735 -0.0120139 -6.24759e-21)
(0.141178 -0.0144512 4.29031e-19)
(0.230698 -0.0125301 -6.15379e-20)
(0.335674 -0.0058837 -2.7432e-20)
(0.452929 0.00549997 4.63645e-19)
(0.578196 0.0211601 5.33446e-19)
(0.706267 0.0402132 1.47503e-19)
(0.831409 0.0613868 3.16042e-19)
(0.948014 0.0831638 -2.07076e-19)
(1.05135 0.104003 -1.76329e-19)
(1.13815 0.122571 -4.3012e-21)
(1.20698 0.137921 -2.16259e-19)
(1.25815 0.149578 -8.2749e-21)
(1.29334 0.157511 -4.20865e-19)
(1.31515 0.162045 1.65827e-19)
(1.3265 0.163729 3.86337e-19)
(1.3302 0.163131 -1.94415e-19)
(1.32872 0.16118 2.22972e-19)
(1.32369 0.156922 3.98581e-19)
(0.0196977 -0.00454226 5.39574e-20)
(0.0779027 -0.0125255 -1.49981e-19)
(0.155838 -0.0143112 -8.90276e-21)
(0.251367 -0.0111721 4.58178e-21)
(0.361979 -0.00287417 -3.03596e-19)
(0.484054 0.0104245 -4.35171e-20)
(0.612847 0.028055 -5.49789e-19)
(0.742738 0.0489133 5.72087e-19)
(0.867757 0.0715283 2.95222e-19)
(0.982318 0.094245 2.68976e-20)
(1.08198 0.115472 -2.7059e-21)
(1.16399 0.133918 -1.55153e-19)
(1.22751 0.148748 9.11495e-20)
(1.27342 0.159633 2.49691e-19)
(1.30386 0.166689 -4.33912e-19)
(1.32169 0.170359 3.30431e-19)
(1.32994 0.171267 -3.97906e-19)
(1.33138 0.170032 -1.78084e-20)
(1.32834 0.16754 1.33303e-21)
(1.32234 0.162971 1.79118e-19)
(0.0226926 -0.00485442 -1.18444e-19)
(0.0870007 -0.0128164 -1.34962e-19)
(0.171146 -0.0137806 1.94409e-19)
(0.272747 -0.00925884 -8.65717e-20)
(0.388915 0.000829662 -2.70855e-20)
(0.515569 0.0161342 -2.68559e-19)
(0.647491 0.0357597 3.01252e-19)
(0.778691 0.0583739 -5.41897e-19)
(0.903034 0.0823139 4.91093e-20)
(1.01504 0.105808 8.41078e-20)
(1.11066 0.127246 -4.57104e-20)
(1.18768 0.145406 3.27211e-20)
(1.24589 0.159588 -3.8144e-19)
(1.28671 0.169616 -2.91506e-19)
(1.31268 0.175754 2.4511e-19)
(1.32686 0.178552 -7.88427e-20)
(1.33233 0.178699 -4.71665e-19)
(1.33179 0.176848 -8.93364e-20)
(1.32743 0.173838 -3.92726e-19)
(1.32061 0.16897 -4.84733e-19)
(0.0258742 -0.0050913 -2.79491e-20)
(0.0965572 -0.0128615 1.99976e-19)
(0.187074 -0.0128266 1.45037e-19)
(0.29478 -0.00675598 4.27146e-19)
(0.416388 0.00525543 -1.49572e-20)
(0.547342 0.0226428 2.29591e-19)
(0.681971 0.0442688 -4.87337e-19)
(0.813962 0.0685693 1.72027e-19)
(0.937094 0.0937018 -1.451e-19)
(1.04609 0.117804 2.09366e-19)
(1.13734 0.139276 5.21698e-20)
(1.20926 0.156997 1.22374e-19)
(1.26222 0.170415 3.53856e-19)
(1.29815 0.179519 4.39875e-20)
(1.31993 0.184709 -2.19972e-19)
(1.33078 0.186636 3.64378e-19)
(1.33378 0.186038 1.28474e-19)
(1.33154 0.183594 -6.06411e-20)
(1.32604 0.180088 3.68865e-19)
(1.31855 0.174933 2.43919e-19)
(0.0292409 -0.00524271 9.13117e-20)
(0.106558 -0.012636 1.03238e-19)
(0.203586 -0.0114169 -2.56797e-19)
(0.317401 -0.00363161 -5.95104e-20)
(0.444295 0.0104268 7.63728e-20)
(0.57924 0.0299584 -4.48122e-20)
(0.716132 0.0535709 2.75917e-19)
(0.848395 0.0794692 -8.75788e-20)
(0.969808 0.105648 -1.08135e-19)
(1.07538 0.130183 -3.69984e-19)
(1.16202 0.151519 -2.36129e-19)
(1.22877 0.168657 -2.19627e-19)
(1.27658 0.181211 -1.78784e-19)
(1.30786 0.189334 6.86296e-20)
(1.32576 0.193559 -1.33587e-19)
(1.3336 0.194621 1.59738e-20)
(1.33442 0.193299 2.5566e-19)
(1.33069 0.190283 2.71436e-19)
(1.32425 0.1863 1.9343e-20)
(1.31621 0.180868 1.70055e-19)
(0.0327895 -0.00529835 4.66778e-20)
(0.116986 -0.0121153 1.75379e-19)
(0.22064 -0.00952055 1.39662e-19)
(0.340536 0.000143389 -2.33383e-19)
(0.472533 0.0163631 2.16413e-19)
(0.611128 0.0380841 -7.02652e-20)
(0.749824 0.0636495 -1.50787e-19)
(0.881848 0.0910393 3.63518e-19)
(1.00107 0.118107 -9.17278e-20)
(1.10286 0.142899 -3.04522e-21)
(1.18471 0.163932 2.53573e-19)
(1.24627 0.180356 -2.28414e-19)
(1.28909 0.19196 1.00706e-19)
(1.31597 0.19906 -2.54124e-19)
(1.33029 0.20231 4.2967e-19)
(1.33542 0.20252 -3.26255e-19)
(1.33433 0.200494 -1.9707e-19)
(1.32933 0.196927 -2.14971e-21)
(1.3221 0.192485 -2.8989e-19)
(1.3136 0.186782 -3.54167e-21)
(0.0365157 -0.00524791 -2.11042e-19)
(0.127819 -0.0112753 -7.8541e-20)
(0.23819 -0.00710851 -2.59392e-19)
(0.364108 0.00459486 -1.43772e-19)
(0.500989 0.0230789 -7.49242e-20)
(0.642869 0.0470172 -3.57079e-20)
(0.782901 0.0744829 1.66602e-19)
(0.914189 0.103242 -9.17637e-20)
(1.03077 0.131034 -4.46138e-20)
(1.12849 0.155905 1.13877e-19)
(1.20541 0.176478 -1.54395e-19)
(1.26184 0.192069 1.98066e-19)
(1.29986 0.202651 1.91058e-19)
(1.32261 0.208695 4.31788e-20)
(1.33366 0.210969 -1.22076e-19)
(1.33636 0.210342 -2.86755e-20)
(1.33359 0.207635 -1.68776e-19)
(1.32752 0.203535 -7.19335e-20)
(1.31962 0.198648 1.18761e-19)
(1.31075 0.19268 -2.03083e-19)
(0.0404134 -0.00508113 6.95531e-20)
(0.139031 -0.0100927 -1.19133e-19)
(0.256183 -0.00415378 2.03056e-19)
(0.388033 0.00974496 9.56815e-20)
(0.52955 0.0305838 -1.3811e-19)
(0.67433 0.0567496 1.71037e-19)
(0.815226 0.0860448 4.30537e-20)
(0.945302 0.116037 -7.82146e-20)
(1.05886 0.144381 2.10649e-19)
(1.15224 0.169157 6.3183e-20)
(1.22416 0.189123 1.20905e-19)
(1.27556 0.203777 -1.25117e-19)
(1.30898 0.213276 -8.38814e-20)
(1.32789 0.218243 1.78394e-19)
(1.33596 0.219545 -5.13274e-20)
(1.33651 0.218099 2.95011e-19)
(1.33228 0.214731 1.56579e-19)
(1.32529 0.210115 -2.60362e-20)
(1.31685 0.204795 8.65182e-20)
(1.30769 0.198566 3.31043e-19)
(0.0444753 -0.00478797 -3.45129e-20)
(0.150595 -0.0085456 1.9327e-20)
(0.274563 -0.000631903 -1.84776e-19)
(0.412225 0.0156119 1.19531e-19)
(0.558102 0.0388822 1.12501e-19)
(0.705378 0.067268 -1.6159e-19)
(0.84667 0.0983046 7.49578e-20)
(0.975085 0.129383 -1.47013e-19)
(1.08527 0.158103 -2.10792e-19)
(1.17412 0.182616 7.67302e-20)
(1.24103 0.201836 1.42327e-20)
(1.28751 0.21546 1.21234e-19)
(1.31658 0.223828 8.20285e-20)
(1.33193 0.227705 -5.61398e-20)
(1.33729 0.228045 -1.17807e-20)
(1.33594 0.2258 -4.48748e-20)
(1.33046 0.221791 -2.34883e-19)
(1.3227 0.216674 1.97024e-20)
(1.3138 0.21093 -1.56641e-19)
(1.30441 0.204441 1.51063e-21)
(0.0486925 -0.00435867 -3.85681e-20)
(0.162477 -0.00661324 -4.96745e-20)
(0.293269 0.00347871 1.9516e-19)
(0.436591 0.0222094 -2.44951e-20)
(0.586527 0.0479735 1.12633e-21)
(0.735885 0.078554 -1.09461e-19)
(0.877115 0.111228 -1.96079e-20)
(1.00345 0.143235 7.88584e-20)
(1.10995 0.172155 2.71618e-19)
(1.19414 0.196242 -8.78437e-20)
(1.25605 0.214592 1.51252e-20)
(1.29779 0.227105 4.84876e-20)
(1.32275 0.234304 -9.52841e-20)
(1.33482 0.237085 -6.17985e-20)
(1.33775 0.236476 1.66772e-20)
(1.33473 0.233451 5.85592e-20)
(1.32817 0.228821 1.49856e-19)
(1.31976 0.223213 -3.98084e-21)
(1.31051 0.217054 5.75569e-20)
(1.30093 0.210305 3.97767e-20)
(0.0530549 -0.0037839 6.71641e-20)
(0.174641 -0.0042767 1.38664e-19)
(0.312236 0.00819646 9.61857e-20)
(0.461039 0.0295469 -5.31673e-20)
(0.61471 0.0578517 1.98474e-19)
(0.76573 0.0905844 1.18365e-19)
(0.906452 0.124778 -1.78841e-19)
(1.03032 0.157548 -6.29035e-20)
(1.13288 0.186493 9.42841e-22)
(1.21232 0.21 -5.32159e-20)
(1.26931 0.227365 -1.54856e-19)
(1.30649 0.238699 2.59645e-20)
(1.32759 0.244701 2.74165e-22)
(1.33666 0.246388 -1.65701e-19)
(1.33742 0.244845 7.64578e-20)
(1.33293 0.241059 -4.14778e-20)
(1.32546 0.235824 -1.84249e-19)
(1.31652 0.229737 8.98065e-20)
(1.30697 0.223167 -1.91352e-19)
(1.29725 0.216156 -1.15964e-19)
(0.0575508 -0.00305485 -2.35617e-20)
(0.187049 -0.00151895 -5.95835e-20)
(0.331395 0.0135363 -1.00142e-19)
(0.485471 0.037629 -4.86805e-21)
(0.642537 0.0685058 -9.48279e-21)
(0.794797 0.103332 -1.11753e-19)
(0.934585 0.138914 2.59835e-20)
(1.05564 0.172278 2.45527e-20)
(1.15406 0.201075 -5.13162e-20)
(1.22869 0.223856 4.22782e-21)
(1.28086 0.240134 8.15797e-20)
(1.31369 0.250232 -1.08343e-20)
(1.3312 0.255018 6.30098e-20)
(1.33754 0.255615 2.84116e-20)
(1.33636 0.253156 -1.57305e-19)
(1.3306 0.248629 1.21529e-20)
(1.32236 0.242804 9.76866e-20)
(1.31298 0.236245 -2.34727e-20)
(1.3032 0.229268 4.55334e-21)
(1.29338 0.221992 -1.62638e-20)
(0.0621671 -0.00216333 -2.156e-20)
(0.199659 0.00167486 -2.11416e-20)
(0.350676 0.0195096 -3.7774e-20)
(0.509792 0.0464556 -2.50627e-20)
(0.669897 0.0799196 -6.60037e-20)
(0.822976 0.116764 7.71545e-20)
(0.961426 0.153593 1.54069e-19)
(1.07936 0.187379 5.4178e-20)
(1.17347 0.21586 2.79655e-20)
(1.24329 0.23778 -6.72327e-20)
(1.29077 0.25288 -7.1829e-22)
(1.31948 0.261696 4.43083e-20)
(1.33367 0.265254 -5.73629e-20)
(1.33753 0.264771 2.20761e-20)
(1.33464 0.261414 7.48744e-20)
(1.32778 0.256163 -2.6083e-20)
(1.31889 0.249762 -4.65695e-20)
(1.30916 0.242735 -4.3473e-20)
(1.29921 0.235354 1.55842e-19)
(1.28931 0.227809 5.52333e-20)
(0.0668897 -0.00110191 -3.84086e-20)
(0.212427 0.00531721 4.6692e-20)
(0.370004 0.0261236 -1.07204e-20)
(0.533904 0.0560217 3.40021e-20)
(0.696681 0.0920722 -3.07544e-20)
(0.850167 0.130845 -1.89525e-20)
(0.986903 0.168772 -7.48147e-20)
(1.10144 0.202805 8.81329e-21)
(1.19113 0.23081 2.15035e-20)
(1.25618 0.251743 4.8691e-20)
(1.29913 0.265585 -1.91766e-20)
(1.32395 0.273082 -1.51304e-20)
(1.33507 0.275408 1.40342e-20)
(1.3367 0.273857 -2.48713e-20)
(1.3323 0.26962 5.70561e-20)
(1.32451 0.263663 3.82105e-20)
(1.31508 0.256695 -6.57277e-21)
(1.30507 0.249207 -4.35015e-21)
(1.295 0.241422 -4.20362e-20)
(1.28505 0.233604 -5.3131e-20)
(0.0717031 0.000136022 8.27285e-21)
(0.225307 0.009418 -1.45716e-20)
(0.389306 0.0333819 1.00324e-20)
(0.557712 0.0663175 -1.38928e-20)
(0.722786 0.104938 -5.36872e-20)
(0.876277 0.145537 2.50528e-20)
(1.01095 0.184403 1.23263e-20)
(1.12187 0.218512 -5.89161e-20)
(1.20705 0.245885 -3.74228e-20)
(1.2674 0.265717 -3.59987e-21)
(1.30601 0.278234 -5.29442e-20)
(1.32717 0.284385 5.51355e-20)
(1.33549 0.285478 -1.10202e-22)
(1.33511 0.282875 -7.45954e-21)
(1.3294 0.277776 -1.44816e-20)
(1.32081 0.271128 7.14489e-21)
(1.31094 0.263604 5.04075e-21)
(1.30072 0.255655 -1.98657e-21)
(1.29057 0.247467 -1.53769e-20)
(1.2806 0.23937 1.89627e-20)
(0.0765907 0.00155614 2.76115e-21)
(0.238249 0.0139844 9.59724e-21)
(0.408505 0.0412836 5.38874e-21)
(0.581121 0.0773285 -2.5249e-21)
(0.748114 0.118488 3.54287e-20)
(0.901223 0.160798 -7.97247e-21)
(1.03351 0.200442 1.27604e-20)
(1.14062 0.234455 2.84468e-20)
(1.22126 0.261051 -5.16769e-21)
(1.27701 0.279679 1.30202e-21)
(1.31147 0.290813 1.45374e-20)
(1.32923 0.295597 -7.80889e-21)
(1.33497 0.295463 1.02265e-20)
(1.33281 0.291823 1.86681e-21)
(1.32596 0.285882 -1.96478e-20)
(1.3167 0.278555 9.7264e-22)
(1.30649 0.270483 2.58664e-20)
(1.29611 0.262076 -5.43156e-21)
(1.28592 0.253484 8.11211e-21)
(1.27594 0.245102 -9.20529e-21)
(0.0815355 0.00316315 1.13125e-21)
(0.251206 0.0190209 1.41381e-20)
(0.427526 0.0498241 7.68931e-21)
(0.604038 0.0890356 -1.57844e-21)
(0.772572 0.132687 3.26585e-20)
(0.92493 0.176583 -9.29454e-21)
(1.05456 0.216839 1.7517e-20)
(1.1577 0.25059 2.37096e-20)
(1.2338 0.276273 -4.93448e-21)
(1.28507 0.293604 1.11614e-21)
(1.31558 0.303307 1.64627e-20)
(1.33018 0.306713 -6.69752e-21)
(1.3336 0.30536 6.65333e-21)
(1.32986 0.300701 -1.65577e-21)
(1.32203 0.293934 -1.59789e-20)
(1.31222 0.285943 -4.73503e-22)
(1.30173 0.277328 2.56261e-20)
(1.29125 0.268463 -5.06241e-21)
(1.28105 0.259466 9.55808e-21)
(1.27109 0.250794 -1.03496e-20)
(0.0865191 0.00496067 9.85659e-21)
(0.264126 0.0245288 -1.81594e-20)
(0.446292 0.0589944 9.30518e-21)
(0.626376 0.101415 -7.55104e-21)
(0.796075 0.147498 -5.17174e-20)
(0.947333 0.192847 2.1147e-20)
(1.07404 0.233547 9.74413e-21)
(1.1731 0.266876 -6.69075e-20)
(1.24469 0.291517 -2.82691e-20)
(1.29164 0.30747 -2.45997e-23)
(1.31842 0.315704 -4.43524e-20)
(1.33011 0.317725 3.7299e-20)
(1.33142 0.315165 -8.44711e-21)
(1.32629 0.309506 5.35473e-21)
(1.31763 0.30193 -2.09756e-20)
(1.30737 0.293284 1.60304e-20)
(1.29668 0.284132 1.03014e-20)
(1.28614 0.274809 -1.83224e-21)
(1.27596 0.265406 -2.05558e-20)
(1.26605 0.256439 1.89742e-20)
(0.0915222 0.0069512 -2.12963e-20)
(0.276957 0.0305066 -9.76753e-21)
(0.464729 0.0687813 -1.43225e-20)
(0.648048 0.11444 4.94627e-20)
(0.818543 0.162881 2.29451e-22)
(0.968373 0.20954 -2.65873e-20)
(1.09194 0.250518 -1.0896e-19)
(1.18685 0.283269 1.07183e-20)
(1.25399 0.306753 1.25011e-20)
(1.29677 0.321256 5.57873e-20)
(1.32005 0.327992 8.39649e-21)
(1.32905 0.328626 -4.76684e-20)
(1.32849 0.324875 4.5136e-20)
(1.32215 0.318234 -1.83275e-20)
(1.31277 0.309864 6.96392e-20)
(1.30216 0.300575 -6.40134e-21)
(1.29133 0.29089 3.65364e-21)
(1.28078 0.281107 3.15766e-21)
(1.27065 0.271297 -5.46496e-20)
(1.2608 0.262028 -3.32407e-20)
(0.0965253 0.00913599 -8.03019e-21)
(0.289649 0.0369496 -4.69128e-20)
(0.482763 0.0791676 3.72392e-20)
(0.668972 0.128077 -4.7559e-20)
(0.839903 0.178791 -8.59681e-20)
(0.988003 0.226613 7.54263e-20)
(1.10824 0.267703 1.24857e-19)
(1.19896 0.29973 4.4915e-20)
(1.26172 0.321949 3.13631e-20)
(1.30052 0.334942 -9.03819e-20)
(1.32053 0.340157 6.96141e-20)
(1.32708 0.33941 8.11161e-21)
(1.32483 0.334483 -8.90066e-20)
(1.31745 0.32688 3.49291e-20)
(1.30749 0.317731 1.24847e-19)
(1.29661 0.307806 -8.61502e-20)
(1.2857 0.297591 -2.4731e-20)
(1.27518 0.287348 -2.39806e-20)
(1.26513 0.27713 1.11267e-19)
(1.25534 0.267554 6.42545e-20)
(0.101508 0.0115151 5.56386e-20)
(0.302148 0.04385 -9.5104e-20)
(0.500322 0.0901323 -1.39154e-19)
(0.689072 0.142292 6.3049e-21)
(0.860089 0.195182 -2.5319e-20)
(1.00618 0.244016 -1.03533e-19)
(1.12294 0.285055 -1.75691e-20)
(1.20944 0.316218 5.36357e-20)
(1.26795 0.337076 -8.67387e-20)
(1.30296 0.348507 7.13673e-20)
(1.31992 0.352187 8.32534e-20)
(1.32424 0.350067 -5.26935e-20)
(1.32051 0.343983 2.16633e-20)
(1.31223 0.335436 1.10151e-19)
(1.3018 0.325523 -1.47872e-19)
(1.29072 0.31497 2.60024e-20)
(1.27978 0.304228 7.09774e-20)
(1.26932 0.293524 -2.15923e-20)
(1.25937 0.282897 -2.30902e-20)
(1.24969 0.273009 -3.94635e-21)
(0.106451 0.0140873 8.19584e-20)
(0.314405 0.0511971 1.53106e-19)
(0.517337 0.10165 8.17225e-20)
(0.708276 0.157045 -9.76571e-20)
(0.879044 0.212005 2.56133e-19)
(1.02288 0.261695 3.9659e-20)
(1.13603 0.302525 -1.09912e-19)
(1.21834 0.332695 -7.96146e-20)
(1.27272 0.352104 -6.39947e-20)
(1.30413 0.361932 2.1441e-20)
(1.31827 0.364069 -7.29031e-20)
(1.32058 0.360589 2.39192e-21)
(1.31554 0.353368 -4.99187e-20)
(1.3065 0.343895 -6.85234e-20)
(1.2957 0.33323 -1.17291e-20)
(1.2845 0.322058 -7.28712e-21)
(1.27358 0.310791 -1.31255e-19)
(1.26322 0.299624 9.95641e-20)
(1.2534 0.288587 -1.51758e-19)
(1.24382 0.278383 -8.93925e-20)
(0.111334 0.0168501 -9.93949e-20)
(0.32637 0.0589771 -4.11023e-20)
(0.533742 0.113694 1.83581e-19)
(0.726517 0.172294 4.69021e-20)
(0.896717 0.229208 -1.61118e-19)
(1.03807 0.2796 -9.37973e-20)
(1.14753 0.320066 -3.12806e-20)
(1.22567 0.349121 2.03918e-19)
(1.27607 0.367007 1.46474e-19)
(1.30409 0.375199 -5.04511e-20)
(1.31563 0.375791 -2.94713e-20)
(1.31613 0.370965 7.46396e-20)
(1.30996 0.362628 -8.17141e-20)
(1.3003 0.352249 3.80866e-20)
(1.28922 0.340845 1.6645e-20)
(1.27795 0.329059 -2.09769e-20)
(1.2671 0.317269 1.59717e-19)
(1.25686 0.305639 -6.75948e-20)
(1.2472 0.294192 1.36816e-19)
(1.23776 0.283668 -4.86678e-20)
(0.116135 0.0197997 -5.5789e-20)
(0.337993 0.0671733 -1.03523e-19)
(0.549474 0.12623 -1.64912e-19)
(0.743736 0.187994 1.00023e-19)
(0.913063 0.24674 5.51569e-20)
(1.05173 0.297676 -7.88775e-20)
(1.15743 0.337632 1.3202e-19)
(1.23148 0.36546 -2.04554e-19)
(1.27805 0.381757 -2.18488e-19)
(1.30289 0.388287 1.32525e-19)
(1.31206 0.387338 4.97498e-20)
(1.31094 0.381186 -5.56345e-20)
(1.3038 0.371754 8.47537e-20)
(1.29363 0.360486 6.69022e-20)
(1.28236 0.348355 -4.91305e-20)
(1.27108 0.335962 -1.68104e-20)
(1.26034 0.323652 -1.21829e-19)
(1.25026 0.311558 2.50261e-20)
(1.24077 0.2997 -1.04588e-19)
(1.23148 0.288855 -1.72186e-20)
(0.120835 0.0229313 4.63921e-20)
(0.349226 0.0757662 -8.11224e-20)
(0.564475 0.139224 1.48865e-19)
(0.759876 0.204097 2.52912e-19)
(0.928046 0.264546 -3.65289e-19)
(1.06386 0.315872 3.23114e-19)
(1.16576 0.355176 8.70149e-20)
(1.23579 0.381676 -1.2686e-19)
(1.27871 0.396327 1.50791e-19)
(1.30058 0.401179 8.94363e-20)
(1.30759 0.398698 1.11356e-19)
(1.30505 0.391239 -1.93983e-19)
(1.29708 0.380735 -4.01748e-20)
(1.28651 0.368596 9.6752e-20)
(1.27512 0.35575 3.70614e-20)
(1.2639 0.342755 1.71443e-19)
(1.25329 0.329927 2.16038e-19)
(1.2434 0.317371 -5.33865e-20)
(1.23411 0.305101 9.32286e-20)
(1.225 0.293932 1.05698e-19)
(0.125414 0.0262384 -1.33502e-20)
(0.360025 0.0847337 -1.88231e-19)
(0.578687 0.152638 -2.59972e-19)
(0.774888 0.220553 -3.4093e-19)
(0.941635 0.282571 -3.31752e-20)
(1.07445 0.334133 1.26232e-19)
(1.17253 0.372652 -2.4353e-20)
(1.23866 0.397731 4.29289e-20)
(1.2781 0.410691 -6.65921e-20)
(1.29722 0.413854 1.11892e-19)
(1.30226 0.409854 -1.71493e-19)
(1.29848 0.401112 2.24598e-19)
(1.28982 0.389559 1.29513e-19)
(1.27895 0.376566 5.91883e-20)
(1.26752 0.363017 -8.87693e-20)
(1.25639 0.349428 -9.51546e-20)
(1.24597 0.336084 -9.08424e-20)
(1.23629 0.323065 6.68818e-21)
(1.22723 0.310384 1.2097e-19)
(1.21832 0.298891 -1.28477e-19)
(0.129853 0.0297137 -2.37221e-20)
(0.370346 0.0940511 1.46912e-19)
(0.592062 0.166432 1.85432e-19)
(0.78873 0.237311 -2.90552e-20)
(0.953806 0.30076 8.75249e-20)
(1.08349 0.352408 2.34995e-20)
(1.17778 0.390016 -1.28706e-19)
(1.24012 0.413593 1.02508e-19)
(1.27626 0.424822 9.63786e-20)
(1.29284 0.426294 -1.68422e-19)
(1.29611 0.420793 2.72143e-19)
(1.29125 0.410792 -2.27609e-19)
(1.28204 0.398213 1.31845e-19)
(1.27097 0.384385 -1.9287e-19)
(1.25956 0.370143 2.84885e-19)
(1.24858 0.355965 -1.8064e-19)
(1.23836 0.34211 -5.29525e-20)
(1.22893 0.328629 -7.14756e-20)
(1.22012 0.315535 -1.51215e-19)
(1.21143 0.303718 2.42602e-21)
(0.134133 0.0333485 1.71469e-19)
(0.380149 0.103691 1.83303e-19)
(0.604551 0.180562 -2.65734e-19)
(0.801363 0.254317 -1.62389e-19)
(0.964543 0.319055 2.4214e-19)
(1.09101 0.370643 -9.70249e-20)
(1.18153 0.407224 1.42411e-19)
(1.2402 0.429226 6.16002e-20)
(1.27324 0.438696 -1.43911e-19)
(1.28748 0.43848 -3.58349e-19)
(1.28919 0.431498 -6.42953e-20)
(1.28341 0.420265 -1.35119e-19)
(1.27376 0.406684 -2.0151e-19)
(1.26258 0.392038 1.64191e-20)
(1.25124 0.377115 -2.11065e-20)
(1.24045 0.362356 -2.02512e-20)
(1.23048 0.347993 1.65533e-19)
(1.22131 0.334053 1.19624e-19)
(1.21277 0.32054 1.33332e-20)
(1.20433 0.308404 7.03827e-20)
(0.138235 0.0371331 -4.13051e-20)
(0.389393 0.113625 3.24581e-19)
(0.616113 0.194983 1.27012e-19)
(0.812756 0.271515 2.59196e-19)
(0.973835 0.337401 8.4619e-20)
(1.09701 0.388787 3.23412e-20)
(1.1838 0.424232 -2.0744e-19)
(1.23896 0.444597 -6.72199e-20)
(1.26909 0.452287 3.34863e-20)
(1.2812 0.450392 2.66228e-19)
(1.28152 0.441953 -8.76077e-20)
(1.27497 0.429517 1.08886e-19)
(1.265 0.414957 2.30918e-19)
(1.25378 0.399511 5.28588e-20)
(1.24258 0.38392 -4.63572e-20)
(1.23202 0.368587 6.25226e-20)
(1.22232 0.353723 1.19086e-19)
(1.21344 0.339329 5.44152e-20)
(1.2052 0.325398 1.39418e-19)
(1.19697 0.312942 1.06801e-19)
(0.142143 0.0410567 -1.07573e-19)
(0.398045 0.123822 -1.66559e-19)
(0.62671 0.209648 1.06217e-19)
(0.822885 0.288852 3.57905e-20)
(0.981675 0.35574 7.16069e-20)
(1.1015 0.406789 -2.94277e-19)
(1.18464 0.440999 1.07351e-19)
(1.23643 0.459672 -2.32447e-19)
(1.26385 0.46557 -1.29526e-19)
(1.27402 0.46201 1.51732e-19)
(1.27313 0.452142 -1.63652e-20)
(1.26596 0.438531 1.00597e-20)
(1.25577 0.423018 -2.80842e-19)
(1.24459 0.40679 -1.13731e-19)
(1.23358 0.390542 9.40809e-20)
(1.22328 0.374644 -1.65075e-19)
(1.21388 0.359283 -8.88797e-20)
(1.20534 0.344443 -8.97757e-20)
(1.19744 0.330129 -1.56711e-19)
(1.18936 0.317328 -3.62447e-19)
(0.145839 0.0451076 6.27969e-20)
(0.406071 0.134248 -7.83196e-20)
(0.63631 0.224509 -4.29576e-19)
(0.831727 0.306269 2.32918e-19)
(0.988063 0.374016 -2.91418e-19)
(1.10451 0.424598 -4.14423e-20)
(1.18407 0.457483 -4.03974e-19)
(1.23267 0.47442 4.3231e-19)
(1.25757 0.47852 2.47951e-19)
(1.26599 0.473314 -1.49775e-20)
(1.26406 0.462048 8.93327e-20)
(1.25639 0.447292 -1.13258e-19)
(1.24608 0.43085 -9.16058e-21)
(1.23502 0.41386 5.31711e-20)
(1.22424 0.396967 -5.52513e-20)
(1.21424 0.380511 1.04009e-19)
(1.20518 0.364658 -1.38715e-19)
(1.197 0.349363 -1.24215e-19)
(1.18944 0.334713 7.06467e-20)
(1.18161 0.321577 9.63916e-20)
(0.149309 0.049273 1.43052e-19)
(0.413442 0.144868 1.44484e-19)
(0.644883 0.239516 1.12281e-19)
(0.83927 0.32371 -3.15287e-21)
(0.993005 0.392173 -7.52765e-20)
(1.10605 0.442164 5.13907e-19)
(1.18215 0.473642 2.93265e-19)
(1.2277 0.488809 1.99217e-19)
(1.25028 0.491113 2.84556e-19)
(1.25714 0.484285 3.51312e-20)
(1.25433 0.471653 -2.39424e-19)
(1.24629 0.455783 -2.57228e-20)
(1.23595 0.438439 -5.24932e-20)
(1.22506 0.420704 -1.71771e-19)
(1.21457 0.40318 -6.454e-20)
(1.2049 0.386177 -9.10825e-20)
(1.1962 0.369837 2.85146e-19)
(1.1884 0.354101 -3.75795e-21)
(1.18118 0.339097 8.02347e-20)
(1.17371 0.325653 6.47019e-20)
(0.152538 0.0535393 -4.80289e-20)
(0.42013 0.155647 -8.37945e-20)
(0.652408 0.254617 -1.84104e-19)
(0.845503 0.341117 -3.13725e-20)
(0.996511 0.410155 -3.08883e-19)
(1.10617 0.459439 -2.2349e-19)
(1.17889 0.489439 7.44363e-20)
(1.22158 0.502808 -5.44671e-19)
(1.24202 0.503323 -2.96874e-19)
(1.24751 0.494903 7.23264e-20)
(1.24397 0.480938 -3.76322e-20)
(1.23568 0.463989 2.18145e-19)
(1.2254 0.445768 2.98482e-19)
(1.21474 0.427308 7.58074e-20)
(1.20457 0.409167 2.06368e-19)
(1.19528 0.391625 -1.08586e-19)
(1.18696 0.374808 1.49418e-19)
(1.17956 0.358641 8.36735e-20)
(1.17272 0.343287 7.2567e-20)
(1.16562 0.329536 -1.3963e-19)
(0.155514 0.0578924 7.16501e-20)
(0.426114 0.166548 -8.37964e-21)
(0.658865 0.269762 -2.84675e-19)
(0.850423 0.358435 -4.50028e-22)
(0.998594 0.427907 6.95452e-19)
(1.10488 0.476375 1.39813e-19)
(1.17435 0.504833 1.06388e-19)
(1.21435 0.516387 3.15314e-19)
(1.23284 0.515128 -2.56312e-19)
(1.23713 0.505146 -2.76779e-19)
(1.23301 0.489887 -2.80976e-21)
(1.22457 0.471891 -1.98196e-19)
(1.21443 0.452821 -1.10851e-19)
(1.20406 0.433656 2.99589e-19)
(1.19426 0.414912 -7.92277e-20)
(1.18536 0.396843 5.75321e-21)
(1.17746 0.379557 -1.0858e-19)
(1.17049 0.362969 -1.65e-19)
(1.16406 0.347271 9.91867e-21)
(1.15733 0.333218 1.58196e-19)
(0.158223 0.062317 -3.46135e-19)
(0.431373 0.177532 2.17586e-19)
(0.66424 0.284898 4.88851e-19)
(0.854031 0.375605 1.54466e-19)
(0.999273 0.445376 -8.18323e-19)
(1.10222 0.492926 -3.4084e-19)
(1.16857 0.519788 -2.68488e-19)
(1.20604 0.529516 -9.84682e-20)
(1.22278 0.526503 3.36004e-19)
(1.22604 0.514995 3.64855e-20)
(1.22146 0.49848 -7.13957e-20)
(1.21299 0.479472 1.31691e-19)
(1.20305 0.459581 1.93649e-20)
(1.19303 0.439731 -3.57553e-19)
(1.18363 0.4204 1.07706e-19)
(1.17516 0.401816 1.44001e-19)
(1.1677 0.384072 6.91135e-20)
(1.16118 0.367071 9.45612e-20)
(1.15518 0.351039 -1.66231e-19)
(1.14885 0.336691 -8.18624e-20)
(0.160655 0.0667978 -2.36309e-20)
(0.43589 0.18856 1.09678e-19)
(0.668524 0.299973 5.51088e-20)
(0.856332 0.392572 1.64631e-19)
(0.99857 0.462509 4.56925e-19)
(1.09823 0.509047 -2.9963e-19)
(1.16159 0.534268 -1.81493e-20)
(1.19672 0.542166 2.9256e-19)
(1.21188 0.537425 -3.57706e-19)
(1.21426 0.52443 1.17354e-19)
(1.20936 0.5067 3.04317e-19)
(1.20095 0.486715 6.99193e-20)
(1.19129 0.46603 -1.51992e-19)
(1.18167 0.445518 2.57027e-19)
(1.17271 0.425616 -3.00672e-19)
(1.16469 0.40653 9.08319e-21)
(1.15769 0.388338 -7.085e-20)
(1.15164 0.370936 1.23978e-19)
(1.14611 0.354579 1.10157e-19)
(1.14019 0.339948 9.89727e-20)
(0.162802 0.0713186 4.48388e-20)
(0.439653 0.199594 1.75235e-19)
(0.671712 0.314935 1.74587e-19)
(0.857336 0.40928 -1.12141e-19)
(0.996512 0.479253 9.97414e-21)
(1.09294 0.524693 2.78068e-19)
(1.15345 0.548235 4.96768e-19)
(1.18641 0.554309 -5.13457e-20)
(1.20016 0.547871 4.85953e-20)
(1.20182 0.533431 -1.4605e-19)
(1.19673 0.514527 -3.11341e-19)
(1.18846 0.493602 5.04971e-20)
(1.17916 0.472153 1.783e-19)
(1.16998 0.451001 -3.65636e-20)
(1.16149 0.430546 -2.89067e-20)
(1.15395 0.410971 -1.1973e-19)
(1.14744 0.392344 -2.06039e-20)
(1.14188 0.374551 -4.79155e-20)
(1.13683 0.357882 -3.91123e-20)
(1.13135 0.342977 -9.18732e-20)