/*--------------------------------*- C++ -*----------------------------------*\
  =========                 |
  \\      /  F ield         | OpenFOAM: The Open Source CFD Toolbox
   \\    /   O peration     | Website:  https://openfoam.org
    \\  /    A nd           | Version:  7
     \\/     M anipulation  |
\*---------------------------------------------------------------------------*/
FoamFile
{
    version     2.0;
    format      ascii;
    class       volVectorField;
    location    "35";
    object      U;
}
// * * * * * * * * * * * * * * * * * * * * * * * * * * * * * * * * * * * * * //

dimensions      [0 1 -1 0 0 0 0];

internalField   nonuniform List<vector> 
8500
(
(-0.00862923 0.00666229 7.31865e-20)
(-0.00854668 0.00635709 6.17707e-20)
(-0.0180831 0.0147239 -8.1542e-20)
(-0.00840797 0.00602723 3.91514e-19)
(-0.0171304 0.0137376 -2.32242e-19)
(-0.0178211 0.0187666 -1.46494e-21)
(-0.00820646 0.00567251 -2.03837e-19)
(-0.0159658 0.0126963 1.52041e-21)
(-0.0151108 0.0171922 1.68093e-19)
(-0.00793511 0.00529299 -7.20499e-20)
(-0.01457 0.0116026 4.24937e-20)
(-0.0119847 0.0155673 6.24187e-20)
(-0.000310054 0.0177617 -1.83494e-19)
(-0.00758659 0.00488912 3.69674e-19)
(-0.0129229 0.0104602 -9.33865e-20)
(-0.00841205 0.0139012 -1.34832e-19)
(0.0057695 0.015773 6.95505e-20)
(0.0296641 0.0168579 3.27703e-19)
(-0.00715327 0.00446171 -1.66379e-19)
(-0.0110042 0.00927391 2.50904e-20)
(-0.00436259 0.0122046 -1.88612e-19)
(0.0125455 0.013794 -2.65415e-19)
(0.0397351 0.0148478 -1.13872e-19)
(0.0772211 0.0160774 -6.35711e-20)
(-0.00662734 0.00401204 -1.63274e-19)
(-0.00879357 0.00804972 3.59778e-19)
(0.000193837 0.0104903 2.23976e-19)
(0.0200542 0.0118452 1.00146e-19)
(0.0507678 0.0129408 -3.62402e-20)
(0.0922996 0.0145019 -2.36882e-19)
(0.144544 0.0171446 3.29074e-20)
(-0.00600082 0.00354187 2.91035e-20)
(-0.0062704 0.006795 -5.39022e-20)
(0.00528662 0.0087728 3.98889e-20)
(0.0283298 0.00994949 -9.63807e-20)
(0.0627959 0.0111683 2.04183e-19)
(0.108585 0.0131631 3.68933e-19)
(0.165492 0.0165469 1.14207e-19)
(0.233107 0.0218244 7.16112e-20)
(-0.00526565 0.00305351 -9.8548e-20)
(-0.00341445 0.0055185 -2.2921e-19)
(0.0109441 0.00706881 -1.73939e-19)
(0.0374041 0.00813212 5.41466e-20)
(0.075848 0.00956412 -2.92117e-19)
(0.126095 0.0121022 -3.63025e-19)
(0.187816 0.0163486 -4.84262e-20)
(0.260417 0.0227803 -1.12663e-19)
(0.342905 0.0317141 -1.11584e-20)
(-0.00441375 0.00254981 -7.64432e-20)
(-0.000205862 0.00423042 -5.98442e-20)
(0.0171931 0.00539699 2.67553e-19)
(0.0473055 0.00642063 -1.6547e-19)
(0.0899473 0.00816415 4.26698e-19)
(0.144838 0.0113619 1.79524e-19)
(0.211497 0.016596 -1.17889e-19)
(0.289115 0.0243036 -2.01582e-19)
(0.376414 0.0347346 -3.2091e-19)
(0.471522 0.0479107 3.40336e-19)
(-0.0034371 0.00203419 1.50458e-19)
(0.00337451 0.0029425 2.44738e-19)
(0.0240587 0.00377809 1.01519e-20)
(0.0580587 0.00484485 1.51843e-19)
(0.10511 0.00700636 -3.66965e-19)
(0.164812 0.0109859 8.87873e-20)
(0.236502 0.0173349 -5.81554e-20)
(0.319124 0.0264363 -1.15296e-20)
(0.411078 0.0384564 -1.10018e-19)
(0.510119 0.0533018 -2.40994e-19)
(0.613354 0.0705926 1.18964e-19)
(-0.00232784 0.00151072 -2.7031e-20)
(0.0073449 0.00166798 -3.7053e-19)
(0.0315635 0.00223493 -2.85199e-19)
(0.0696842 0.00343674 -1.82288e-20)
(0.121346 0.0061304 6.45059e-20)
(0.186003 0.0110187 -1.24547e-19)
(0.262784 0.0186097 -9.63965e-22)
(0.350348 0.0292165 4.11286e-20)
(0.446743 0.0429038 6.06851e-20)
(0.549334 0.0594454 3.43896e-19)
(0.654846 0.0783079 1.42441e-19)
(0.759556 0.0986753 8.70622e-20)
(0.859628 0.119527 -1.16145e-19)
(-0.0010783 0.000984037 4.85353e-20)
(0.0117224 0.000421606 1.9685e-19)
(0.0397273 0.000792293 1.2245e-19)
(0.0821972 0.00223025 -2.25985e-19)
(0.138657 0.00557731 4.83272e-20)
(0.208389 0.0115048 2.93711e-19)
(0.290281 0.0204631 1.60425e-19)
(0.382674 0.0326783 2.10631e-20)
(0.483239 0.0480943 1.95479e-19)
(0.588939 0.0663356 -3.97511e-19)
(0.696137 0.0867055 -1.11794e-19)
(0.800869 0.108236 -4.7686e-20)
(0.899236 0.129794 2.8232e-19)
(0.987866 0.15023 -1.86738e-19)
(0.000318844 0.000459432 -4.52761e-20)
(0.0165224 -0.00078035 -2.80942e-20)
(0.0485671 -0.000523182 -7.25538e-20)
(0.0956077 0.00126103 2.36769e-19)
(0.157035 0.00538909 1.59131e-19)
(0.231934 0.0124883 -5.03918e-20)
(0.318916 0.0229352 -8.73883e-21)
(0.415975 0.0368501 1.98427e-19)
(0.520381 0.0540376 -3.02292e-19)
(0.628697 0.0739577 1.84364e-19)
(0.736961 0.0957445 1.88761e-19)
(0.841029 0.118285 5.04603e-20)
(0.937033 0.140356 -1.0022e-19)
(1.02184 0.160788 1.46057e-19)
(1.09343 0.178628 1.20084e-19)
(0.00187052 -5.72012e-05 -7.10129e-20)
(0.021759 -0.00192019 3.11346e-20)
(0.0580958 -0.00168312 2.04607e-19)
(0.109919 0.000566202 3.29538e-21)
(0.176465 0.00560823 -3.44212e-19)
(0.25659 0.014012 -2.3641e-19)
(0.348599 0.0260625 -2.01292e-19)
(0.450107 0.0417549 -1.05456e-19)
(0.557972 0.0607357 4.00862e-19)
(0.668371 0.0822882 -1.77965e-20)
(0.777061 0.105377 5.42098e-20)
(0.879797 0.128757 8.85553e-20)
(0.972833 0.151138 -2.94872e-19)
(1.05337 0.171366 -2.35678e-19)
(1.11986 0.188571 6.29508e-20)
(1.17204 0.20225 -1.19832e-20)
(1.21077 0.21231 -2.47825e-19)
(0.00358313 -0.000559355 9.00797e-20)
(0.0274439 -0.00297887 1.15389e-19)
(0.0683226 -0.00265762 -2.12114e-19)
(0.125129 0.000183934 -1.16218e-20)
(0.196921 0.00627719 4.06196e-19)
(0.282297 0.0161169 2.53018e-19)
(0.379223 0.0298776 -1.02039e-19)
(0.484914 0.0474089 1.49983e-19)
(0.595809 0.0681824 -1.59236e-19)
(0.707724 0.091296 -1.61078e-19)
(0.816194 0.115548 1.64429e-19)
(0.916962 0.139582 -3.31363e-19)
(1.00649 0.162072 4.15465e-20)
(1.0824 0.181905 1.59135e-19)
(1.14364 0.198324 -8.70011e-20)
(1.19047 0.210974 1.24083e-19)
(1.22423 0.219907 -1.49651e-19)
(1.24689 0.22537 2.4443e-20)
(0.00546249 -0.00103993 1.0604e-19)
(0.0335868 -0.00393604 -3.50685e-19)
(0.0792521 -0.0034155 5.60731e-20)
(0.141228 0.000153119 -5.87299e-20)
(0.218368 0.00743786 -1.42752e-19)
(0.308983 0.0188417 -1.14994e-19)
(0.410671 0.0344083 1.02524e-19)
(0.520229 0.0538219 -4.70489e-19)
(0.633682 0.076364 -1.1039e-19)
(0.746524 0.100943 7.04502e-20)
(0.85414 0.126202 -8.94347e-20)
(0.952348 0.150695 2.57446e-19)
(1.03791 0.173091 1.80489e-19)
(1.10892 0.192354 6.27928e-20)
(1.16485 0.207859 3.45488e-19)
(1.20648 0.219406 -3.39998e-19)
(1.23553 0.227192 2.08767e-19)
(1.25423 0.231593 2.93171e-19)
(1.26501 0.233523 -2.0778e-19)
(1.26992 0.232343 5.82235e-20)
(0.00751369 -0.00149128 8.63655e-21)
(0.0401945 -0.00477026 -3.6794e-21)
(0.0908844 -0.00392451 2.56949e-19)
(0.158198 0.000512921 -3.72569e-20)
(0.24076 0.00913095 -1.56492e-20)
(0.336564 0.0222217 2.73163e-19)
(0.442815 0.0396771 3.13954e-19)
(0.555876 0.0609965 8.50797e-20)
(0.671382 0.0852596 1.8373e-19)
(0.784553 0.111186 -1.21216e-19)
(0.890702 0.137279 -1.02373e-19)
(0.985811 0.162031 -1.68128e-21)
(1.06703 0.184139 -1.25026e-19)
(1.13295 0.202672 -4.53207e-21)
(1.1836 0.217154 -2.43331e-19)
(1.22023 0.227548 9.55396e-20)
(1.24488 0.234187 2.22875e-19)
(1.25999 0.237558 -1.11734e-19)
(1.26801 0.23859 1.27998e-19)
(1.27094 0.236789 2.28216e-19)
(0.00974098 -0.0019052 3.32015e-20)
(0.0472713 -0.00545907 -9.08856e-20)
(0.103214 -0.00415168 -5.32736e-21)
(0.176015 0.00130232 2.10479e-21)
(0.264043 0.0113954 -1.80968e-19)
(0.364946 0.0262886 -2.53662e-20)
(0.475513 0.0457006 -3.24282e-19)
(0.591678 0.0689283 3.37156e-19)
(0.708705 0.0948413 1.73848e-19)
(0.821606 0.121976 1.50544e-20)
(0.925707 0.148717 -1.72907e-21)
(1.01725 0.173528 -9.01174e-20)
(1.09382 0.195165 5.35119e-20)
(1.15455 0.212828 1.45617e-19)
(1.20002 0.226201 -2.52333e-19)
(1.23189 0.23541 1.91483e-19)
(1.25249 0.240914 -2.29462e-19)
(1.26437 0.243297 -1.02313e-20)
(1.26997 0.243486 6.93307e-22)
(1.27121 0.241109 1.02301e-19)
(0.0121477 -0.00227303 -7.22518e-20)
(0.0548184 -0.00597921 -8.2933e-20)
(0.116231 -0.00406363 1.17717e-19)
(0.194646 0.00255964 -5.25294e-20)
(0.288152 0.014268 -1.65825e-20)
(0.394025 0.0310698 -1.60297e-19)
(0.508621 0.0524897 1.792e-19)
(0.62745 0.0776064 -3.20722e-19)
(0.745452 0.105076 2.99646e-20)
(0.857497 0.133262 4.92775e-20)
(0.959014 0.160459 -2.70278e-20)
(1.04658 0.185131 1.95595e-20)
(1.11828 0.206127 -2.23788e-19)
(1.17382 0.222797 -1.70174e-19)
(1.21426 0.234997 1.42695e-19)
(1.24165 0.243007 -4.57753e-20)
(1.25854 0.247401 -2.72784e-19)
(1.26755 0.248841 -5.12799e-20)
(1.27104 0.248243 -2.24982e-19)
(1.27084 0.245334 -2.76756e-19)
(0.0147362 -0.00258569 -1.7265e-20)
(0.0628338 -0.00630682 1.21964e-19)
(0.129918 -0.00362691 8.90602e-20)
(0.214051 0.00432205 2.59264e-19)
(0.313014 0.0177824 -9.48918e-21)
(0.423685 0.0365879 1.3736e-19)
(0.541984 0.0600486 -2.91893e-19)
(0.663012 0.0870131 1.02276e-19)
(0.781434 0.115924 -8.58387e-20)
(0.892059 0.144992 1.24782e-19)
(0.990507 0.172446 3.05217e-20)
(1.07376 0.196789 7.28573e-20)
(1.14046 0.21699 2.08095e-19)
(1.19084 0.232566 2.57486e-20)
(1.22646 0.243546 -1.28748e-19)
(1.24968 0.250359 2.12077e-19)
(1.2632 0.253675 7.40748e-20)
(1.26967 0.254221 -3.49665e-20)
(1.27135 0.25289 2.11358e-19)
(1.26994 0.249488 1.39201e-19)
(0.0175076 -0.00283371 5.67159e-20)
(0.0713118 -0.00641762 6.37115e-20)
(0.144254 -0.00280838 -1.5719e-19)
(0.234182 0.00662509 -3.56585e-20)
(0.338545 0.0219689 4.63519e-20)
(0.453807 0.0428602 -2.73163e-20)
(0.575446 0.0683758 1.65615e-19)
(0.698186 0.0971249 -5.27899e-20)
(0.816477 0.127344 -6.45837e-20)
(0.92515 0.157111 -2.20542e-19)
(1.0201 0.184625 -1.41301e-19)
(1.09879 0.208459 -1.29788e-19)
(1.16041 0.227728 -1.05907e-19)
(1.20575 0.242126 4.05259e-20)
(1.23679 0.251858 -7.86019e-20)
(1.25615 0.257485 9.56479e-21)
(1.26664 0.259765 1.48203e-19)
(1.27087 0.259466 1.56287e-19)
(1.271 0.257451 1.08654e-20)
(1.26858 0.253595 9.65406e-20)
(0.020462 -0.00300736 2.94878e-20)
(0.0802434 -0.00628716 1.09334e-19)
(0.159211 -0.00157559 8.61627e-20)
(0.254983 0.00950218 -1.43024e-19)
(0.364655 0.0268542 1.32778e-19)
(0.484263 0.0498988 -4.31706e-20)
(0.608849 0.0774631 -9.16363e-20)
(0.7328 0.107913 2.19801e-19)
(0.85042 0.139289 -5.54237e-20)
(0.956649 0.169566 -2.3909e-21)
(1.04774 0.196945 1.51304e-19)
(1.12166 0.220102 -1.36586e-19)
(1.17821 0.238319 5.94059e-20)
(1.21867 0.251476 -1.50417e-19)
(1.24539 0.259945 2.52257e-19)
(1.26121 0.26441 -1.90525e-19)
(1.269 0.265696 -1.14134e-19)
(1.27128 0.264602 -1.2095e-21)
(1.27009 0.261948 -1.65556e-19)
(1.26682 0.257671 -2.14568e-21)
(0.023598 -0.00309669 -1.32285e-19)
(0.0896157 -0.00589111 -4.81038e-20)
(0.174755 0.000102815 -1.61102e-19)
(0.276392 0.0129841 -8.93296e-20)
(0.391248 0.0324604 -4.55639e-20)
(0.514919 0.05771 -2.21856e-20)
(0.642035 0.0872968 1.01116e-19)
(0.766691 0.119343 -5.52536e-20)
(0.88312 0.151713 -2.72198e-20)
(0.986458 0.182306 6.83497e-20)
(1.07338 0.209361 -9.32264e-20)
(1.14243 0.231687 1.1857e-19)
(1.19395 0.248749 1.1409e-19)
(1.22972 0.260619 2.54035e-20)
(1.25242 0.267823 -7.16578e-20)
(1.26502 0.271156 -1.68246e-20)
(1.27041 0.271493 -9.78649e-20)
(1.27101 0.269651 -4.1289e-20)
(1.26869 0.266399 6.79345e-20)
(1.26472 0.26173 -1.14313e-19)
(0.0269129 -0.00309165 4.40934e-20)
(0.0994122 -0.00520546 -7.4514e-20)
(0.190848 0.00225674 1.26717e-19)
(0.298339 0.0170987 5.89802e-20)
(0.418218 0.038805 -8.53848e-20)
(0.545643 0.0662944 1.05597e-19)
(0.674851 0.0978574 2.62766e-20)
(0.799706 0.131379 -4.7423e-20)
(0.914453 0.164567 1.28579e-19)
(1.0145 0.19528 3.8158e-20)
(1.09702 0.221832 7.29023e-20)
(1.16113 0.243188 -7.5496e-20)
(1.20773 0.259012 -5.01533e-20)
(1.23905 0.269561 1.05806e-19)
(1.25802 0.27551 -3.03676e-20)
(1.26772 0.277746 1.72387e-19)
(1.27098 0.277181 9.07416e-20)
(1.27013 0.274633 -1.47459e-20)
(1.26686 0.270819 4.91218e-20)
(1.26232 0.265783 1.86171e-19)
(0.0304028 -0.00298216 -2.17896e-20)
(0.109613 -0.00420685 1.22946e-20)
(0.207444 0.00491421 -1.16527e-19)
(0.320749 0.0218703 7.4708e-20)
(0.445458 0.0459008 6.96981e-20)
(0.576296 0.075647 -9.98032e-20)
(0.707146 0.10912 4.64306e-20)
(0.831705 0.143978 -9.06807e-20)
(0.944311 0.177802 -1.29435e-19)
(1.04073 0.208442 4.69278e-20)
(1.11866 0.23432 8.77983e-21)
(1.17783 0.254585 7.29525e-20)
(1.21967 0.2691 4.91784e-20)
(1.24678 0.278311 -3.35243e-20)
(1.26232 0.283024 -6.95482e-21)
(1.26941 0.284201 -2.62863e-20)
(1.27081 0.282778 -1.35845e-19)
(1.26872 0.279564 1.15201e-20)
(1.26466 0.27522 -8.8602e-20)
(1.25965 0.269837 7.04861e-22)
(0.0340621 -0.00275825 -2.47948e-20)
(0.120193 -0.00287279 -3.16761e-20)
(0.224494 0.00810102 1.23398e-19)
(0.343541 0.0273194 -1.51663e-20)
(0.472855 0.0537552 4.63393e-22)
(0.606744 0.0857572 -6.83581e-20)
(0.738779 0.121056 -1.19995e-20)
(0.862561 0.157099 4.86273e-20)
(0.972606 0.191369 1.6759e-19)
(1.06511 0.221747 -5.3918e-20)
(1.13833 0.246795 9.25332e-21)
(1.19261 0.26586 2.92335e-20)
(1.22987 0.279016 -5.73064e-20)
(1.25305 0.286881 -3.68285e-20)
(1.26544 0.290382 1.00559e-20)
(1.2702 0.290541 3.43087e-20)
(1.26999 0.288302 8.66189e-20)
(1.26684 0.284459 -2.25141e-21)
(1.26213 0.279611 3.23238e-20)
(1.25672 0.273898 2.18732e-20)
(0.0378838 -0.00241013 4.3254e-20)
(0.131124 -0.001182 8.89282e-20)
(0.241942 0.0118404 6.15794e-20)
(0.366629 0.0334626 -3.36566e-20)
(0.500295 0.0623706 1.25227e-19)
(0.636852 0.096609 7.43328e-20)
(0.769613 0.133632 -1.1204e-19)
(0.892161 0.170696 -3.93175e-20)
(0.999268 0.20522 7.58166e-22)
(1.08762 0.235156 -3.29798e-20)
(1.15608 0.259229 -9.50903e-20)
(1.20555 0.277003 1.59169e-20)
(1.23844 0.28876 1.85721e-22)
(1.25796 0.295282 -9.90555e-20)
(1.26751 0.297602 4.52552e-20)
(1.2702 0.296782 -2.43036e-20)
(1.26859 0.293768 -1.06242e-19)
(1.26454 0.289327 5.12331e-20)
(1.25929 0.283998 -1.07296e-19)
(1.25357 0.277968 -6.41423e-20)
(0.0418595 -0.00192832 -1.5124e-20)
(0.142376 0.000885366 -3.80634e-20)
(0.259729 0.0161525 -6.3939e-20)
(0.389922 0.0403118 -3.08763e-21)
(0.527661 0.071744 -5.54506e-21)
(0.66649 0.108181 -7.06921e-20)
(0.799524 0.14681 1.60066e-20)
(0.920406 0.184722 1.52323e-20)
(1.02425 0.219311 -3.20024e-20)
(1.10826 0.24863 2.63193e-21)
(1.17194 0.271599 5.026e-20)
(1.21675 0.288005 -6.62139e-21)
(1.2455 0.298337 3.80601e-20)
(1.26163 0.303528 1.69646e-20)
(1.26861 0.304698 -9.28537e-20)
(1.26948 0.302941 7.24356e-21)
(1.26666 0.299189 5.64383e-20)
(1.26186 0.294177 -1.32827e-20)
(1.25617 0.288385 2.83185e-21)
(1.25019 0.282048 -8.82121e-21)
(0.0459793 -0.00130379 -1.39712e-20)
(0.153914 0.00334744 -1.3693e-20)
(0.277791 0.0210546 -2.43344e-20)
(0.413329 0.0478745 -1.60721e-20)
(0.554836 0.0818671 -4.18465e-20)
(0.695532 0.120449 4.90106e-20)
(0.828396 0.16055 9.75669e-20)
(0.947214 0.199132 3.41788e-20)
(1.0475 0.233597 1.75206e-20)
(1.12706 0.262136 -4.20333e-20)
(1.18599 0.283884 -4.13244e-22)
(1.22629 0.298861 2.71694e-20)
(1.25114 0.307752 -3.4873e-20)
(1.26416 0.311631 1.30825e-20)
(1.26884 0.311686 4.43021e-20)
(1.26812 0.309029 -1.51645e-20)
(1.26427 0.304572 -2.6799e-20)
(1.25884 0.299014 -2.4614e-20)
(1.25279 0.292775 8.6461e-20)
(1.24661 0.286136 3.00363e-20)
(0.050232 -0.000528026 -2.52012e-20)
(0.1657 0.00622039 3.0481e-20)
(0.296062 0.02656 -7.02657e-21)
(0.436753 0.0561535 2.18815e-20)
(0.581707 0.0927267 -1.96648e-20)
(0.723858 0.133381 -1.21052e-20)
(0.856126 0.174811 -4.76614e-20)
(0.972515 0.213878 5.68678e-21)
(1.06901 0.248035 1.35921e-20)
(1.14403 0.275643 3.03688e-20)
(1.19828 0.296069 -1.18493e-20)
(1.23427 0.309567 -9.36008e-21)
(1.25548 0.317013 8.47016e-21)
(1.26566 0.319601 -1.48594e-20)
(1.26827 0.318578 3.37691e-20)
(1.26617 0.315058 2.22886e-20)
(1.26144 0.309926 -3.73816e-21)
(1.2555 0.30384 -2.44077e-21)
(1.24916 0.297166 -2.33651e-20)
(1.24282 0.290231 -2.88463e-20)
(0.0546048 0.000406847 5.44925e-21)
(0.177692 0.00951818 -9.56721e-21)
(0.31447 0.0326788 6.51905e-21)
(0.460099 0.0651467 -9.01293e-21)
(0.608159 0.104304 -3.47471e-20)
(0.751356 0.146943 1.6149e-20)
(0.882621 0.189547 7.79183e-21)
(0.996254 0.228914 -3.7549e-20)
(1.08877 0.262586 -2.36771e-20)
(1.15921 0.289123 -2.26029e-21)
(1.2089 0.308139 -3.2937e-20)
(1.24078 0.320121 3.39457e-20)
(1.2586 0.326124 -1.13172e-22)
(1.2662 0.327449 -4.50045e-21)
(1.26699 0.325383 -8.6012e-21)
(1.26368 0.321034 4.14675e-21)
(1.25822 0.315254 2.95318e-21)
(1.25186 0.308657 -1.06642e-21)
(1.24529 0.301557 -8.41547e-21)
(1.23883 0.294329 1.01437e-20)
(0.0590838 0.00150794 1.83981e-21)
(0.189847 0.0132524 6.33035e-21)
(0.332943 0.0394167 3.53418e-21)
(0.483269 0.0748474 -1.65353e-21)
(0.634084 0.116577 2.29926e-20)
(0.77792 0.161098 -5.14674e-21)
(0.907799 0.204713 8.18439e-21)
(1.01839 0.244195 1.82129e-20)
(1.10678 0.277212 -3.28719e-21)
(1.17265 0.30255 8.32672e-22)
(1.21791 0.320082 9.08127e-21)
(1.2459 0.330523 -4.80856e-21)
(1.26059 0.335093 6.20236e-21)
(1.26586 0.335184 1.13681e-21)
(1.26504 0.332111 -1.1559e-20)
(1.2607 0.326964 5.88912e-22)
(1.25463 0.320559 1.46966e-20)
(1.24793 0.313463 -2.987e-21)
(1.2412 0.305945 4.43998e-21)
(1.23464 0.298424 -4.92739e-21)
(0.063654 0.00278154 7.68743e-22)
(0.20212 0.017432 9.41225e-21)
(0.351408 0.0467759 5.06973e-21)
(0.506168 0.0852437 -1.05259e-21)
(0.659376 0.129517 2.14261e-20)
(0.803455 0.175806 -6.09661e-21)
(0.931592 0.220261 1.13831e-20)
(1.03889 0.259675 1.52959e-20)
(1.12305 0.291877 -3.16363e-21)
(1.18441 0.315903 7.10006e-22)
(1.22539 0.331888 1.03083e-20)
(1.24972 0.340772 -4.17071e-21)
(1.26154 0.343924 4.00098e-21)
(1.26472 0.342812 -9.69908e-22)
(1.26249 0.338766 -9.31787e-21)
(1.25727 0.33285 -2.66129e-22)
(1.25069 0.32584 1.44166e-20)
(1.24373 0.318257 -2.76508e-21)
(1.23687 0.310326 5.14395e-21)
(1.23026 0.302512 -5.4023e-21)
(0.0682993 0.00423299 6.65597e-21)
(0.214463 0.0220632 -1.21286e-20)
(0.369788 0.054754 6.21388e-21)
(0.5287 0.0963194 -5.00693e-21)
(0.683934 0.143093 -3.40187e-20)
(0.827872 0.191022 1.38368e-20)
(0.95394 0.236144 6.44505e-21)
(1.05774 0.275311 -4.33147e-20)
(1.13761 0.306548 -1.81655e-20)
(1.19452 0.329159 -2.02788e-23)
(1.23142 0.343549 -2.78469e-20)
(1.25233 0.350867 2.30384e-20)
(1.26151 0.352622 -5.08355e-21)
(1.26283 0.35034 3.22425e-21)
(1.25938 0.345353 -1.21503e-20)
(1.25341 0.338694 9.14741e-21)
(1.24643 0.331095 5.63712e-21)
(1.23927 0.323034 -1.04919e-21)
(1.23233 0.314694 -1.08999e-20)
(1.22568 0.306586 9.79421e-21)
(0.0730021 0.00586661 -1.44645e-20)
(0.226827 0.0271495 -6.57426e-21)
(0.388008 0.0633448 -9.50099e-21)
(0.550773 0.108054 3.29623e-20)
(0.707665 0.157269 5.43685e-23)
(0.851093 0.206701 -1.75368e-20)
(0.974797 0.252315 -7.13342e-20)
(1.07493 0.29106 6.92727e-21)
(1.15048 0.321193 8.08141e-21)
(1.20305 0.342301 3.56398e-20)
(1.23606 0.355055 5.27689e-21)
(1.25379 0.360809 -2.94077e-20)
(1.26059 0.36119 2.74255e-20)
(1.26024 0.357771 -1.09552e-20)
(1.25573 0.351873 4.04359e-20)
(1.24915 0.344495 -3.79156e-21)
(1.24185 0.336322 1.96706e-21)
(1.23454 0.327789 1.7017e-21)
(1.22757 0.319043 -2.83306e-20)
(1.22089 0.310639 -1.66913e-20)
(0.0777443 0.00768561 -5.56711e-21)
(0.239161 0.0326912 -3.16874e-20)
(0.405992 0.0725378 2.4976e-20)
(0.572296 0.120421 -3.18126e-20)
(0.730478 0.172006 -5.74702e-20)
(0.873048 0.222795 4.99546e-20)
(0.994125 0.268723 8.2134e-20)
(1.09045 0.30688 2.93336e-20)
(1.16171 0.335781 2.0322e-20)
(1.21007 0.35531 -5.74936e-20)
(1.23939 0.3664 4.3771e-20)
(1.25417 0.370597 4.94058e-21)
(1.25881 0.369631 -5.37599e-20)
(1.25701 0.365106 2.09226e-20)
(1.2516 0.358327 7.20359e-20)
(1.24451 0.350249 -4.86802e-20)
(1.23696 0.341516 -1.3462e-20)
(1.22957 0.332515 -1.26349e-20)
(1.22258 0.323366 5.75092e-20)
(1.21592 0.314663 3.21719e-20)
(0.0825071 0.00969203 3.78736e-20)
(0.251414 0.0386855 -6.48493e-20)
(0.423664 0.0823181 -9.41615e-20)
(0.593183 0.133391 4.21887e-21)
(0.752294 0.18726 -1.73117e-20)
(0.893677 0.239256 -6.87907e-20)
(1.0119 0.285322 -1.13302e-20)
(1.10433 0.322733 3.52491e-20)
(1.17132 0.350285 -5.60742e-20)
(1.21562 0.368169 4.56185e-20)
(1.24147 0.377576 5.21708e-20)
(1.25355 0.380228 -3.25707e-20)
(1.25625 0.377944 1.33104e-20)
(1.25318 0.372345 6.49004e-20)
(1.247 0.364711 -8.5505e-20)
(1.23951 0.355953 1.43299e-20)
(1.23178 0.346669 3.80718e-20)
(1.22434 0.337204 -1.12925e-20)
(1.21738 0.327655 -1.2361e-20)
(1.21074 0.31865 -2.1649e-21)
(0.0872711 0.0118867 5.63664e-20)
(0.263534 0.0451268 1.04283e-19)
(0.440952 0.0926673 5.51242e-20)
(0.613351 0.146932 -6.59912e-20)
(0.773037 0.202988 1.72001e-19)
(0.912928 0.256032 2.65561e-20)
(1.02809 0.302064 -7.26745e-20)
(1.11657 0.338578 -5.21537e-20)
(1.17937 0.364678 -4.13269e-20)
(1.21978 0.380862 1.3984e-20)
(1.24238 0.388576 -4.58929e-20)
(1.25198 0.389701 1.2236e-21)
(1.25295 0.386128 -3.00361e-20)
(1.24877 0.379486 -4.0415e-20)
(1.24196 0.371023 -6.72104e-21)
(1.23415 0.361601 -3.84101e-21)
(1.2263 0.351775 -7.04819e-20)
(1.21886 0.34185 5.13609e-20)
(1.21195 0.331901 -7.58005e-20)
(1.20536 0.322592 -4.26383e-20)
(0.0920164 0.0142693 -6.85425e-20)
(0.275471 0.0520061 -2.81115e-20)
(0.457783 0.103563 1.25199e-19)
(0.632724 0.161006 3.15756e-20)
(0.79264 0.219141 -1.08464e-19)
(0.930758 0.273072 -6.27149e-20)
(1.0427 0.318902 -2.07168e-20)
(1.12719 0.354378 1.34318e-19)
(1.18589 0.378932 9.51893e-20)
(1.2226 0.393375 -3.20168e-20)
(1.24217 0.399392 -1.81545e-20)
(1.24952 0.399011 4.62334e-20)
(1.24896 0.394181 -4.83687e-20)
(1.24383 0.386526 2.2265e-20)
(1.23649 0.377256 8.94239e-21)
(1.22845 0.367185 -1.15818e-20)
(1.22054 0.356825 8.45e-20)
(1.21314 0.346442 -3.45321e-20)
(1.20631 0.336095 6.72208e-20)
(1.19978 0.326479 -2.17532e-20)
(0.0967229 0.016838 -3.88297e-20)
(0.287174 0.0593117 -7.12639e-20)
(0.474089 0.114978 -1.12594e-19)
(0.651228 0.175572 6.82106e-20)
(0.811043 0.235669 3.77067e-20)
(0.947133 0.290324 -5.31501e-20)
(1.05572 0.335789 8.79868e-20)
(1.13623 0.370097 -1.34799e-19)
(1.19095 0.393023 -1.41805e-19)
(1.22414 0.405692 8.48677e-20)
(1.2409 0.410016 3.10372e-20)
(1.24621 0.408153 -3.40123e-20)
(1.2443 0.402098 5.16602e-20)
(1.23837 0.39346 3.91925e-20)
(1.23062 0.383404 -2.75412e-20)
(1.22242 0.372698 -8.81574e-21)
(1.2145 0.36181 -6.35872e-20)
(1.20717 0.35097 1.18082e-20)
(1.20044 0.340227 -4.96792e-20)
(1.194 0.330302 -7.02677e-21)
(0.10137 0.01959 3.22261e-20)
(0.298592 0.0670286 -5.62561e-20)
(0.489803 0.126883 1.02424e-19)
(0.668796 0.190586 1.73198e-19)
(0.828193 0.252521 -2.48269e-19)
(0.962027 0.307737 2.17964e-19)
(1.06716 0.352678 5.80322e-20)
(1.14371 0.385699 -8.39424e-20)
(1.19458 0.406928 9.821e-20)
(1.22445 0.417798 5.68101e-20)
(1.23862 0.420439 6.89956e-20)
(1.24211 0.417122 -1.1813e-19)
(1.23902 0.409874 -2.30533e-20)
(1.23243 0.40028 5.5855e-20)
(1.22436 0.389459 2.10497e-20)
(1.21606 0.378129 9.11407e-20)
(1.20818 0.36672 1.10316e-19)
(1.20095 0.355425 -2.66088e-20)
(1.19436 0.344288 4.36044e-20)
(1.18802 0.334051 4.59258e-20)
(0.105938 0.022521 -9.62238e-21)
(0.309677 0.0751391 -1.31183e-19)
(0.504862 0.139245 -1.79298e-19)
(0.685368 0.206004 -2.33505e-19)
(0.844046 0.269643 -2.27262e-20)
(0.975421 0.325258 8.55371e-20)
(1.07703 0.369526 -1.60834e-20)
(1.14967 0.401149 2.83933e-20)
(1.19684 0.420621 -4.35005e-20)
(1.22359 0.429677 7.11454e-20)
(1.23539 0.430651 -1.06839e-19)
(1.23725 0.425911 1.35909e-19)
(1.23315 0.417502 7.60327e-20)
(1.22601 0.406979 3.25859e-20)
(1.21772 0.395411 -4.85406e-20)
(1.20938 0.383468 -5.11877e-20)
(1.20158 0.371543 -4.55647e-20)
(1.19448 0.359796 3.26521e-21)
(1.18805 0.348266 5.28757e-20)
(1.18184 0.337717 -5.49117e-20)
(0.110407 0.0256254 -1.67553e-20)
(0.320382 0.0836227 1.01974e-19)
(0.519207 0.152027 1.28424e-19)
(0.700886 0.221775 -2.01688e-20)
(0.858563 0.286981 5.93949e-20)
(0.987303 0.342834 1.58964e-20)
(1.08533 0.386287 -8.65769e-20)
(1.15414 0.416414 6.79736e-20)
(1.19777 0.434081 6.29441e-20)
(1.22161 0.441316 -1.0693e-19)
(1.23126 0.440642 1.69133e-19)
(1.23167 0.434511 -1.36514e-19)
(1.22672 0.424973 7.69856e-20)
(1.21915 0.413546 -1.08197e-19)
(1.2107 0.40125 1.53671e-19)
(1.20239 0.388705 -9.24549e-20)
(1.1947 0.376269 -2.52621e-20)
(1.18777 0.364072 -3.23703e-20)
(1.18152 0.352151 -6.46048e-20)
(1.17546 0.341289 1.98104e-21)
(0.114757 0.0288967 1.20527e-19)
(0.330661 0.092456 1.27885e-19)
(0.532783 0.165191 -1.84561e-19)
(0.715302 0.237849 -1.12323e-19)
(0.871714 0.304479 1.65968e-19)
(0.997668 0.360413 -6.59697e-20)
(1.0921 0.402917 9.58461e-20)
(1.15717 0.431462 4.0865e-20)
(1.19743 0.447283 -9.33583e-20)
(1.21857 0.452699 -2.26496e-19)
(1.22626 0.450401 -4.02728e-20)
(1.22541 0.442912 -8.08426e-20)
(1.21974 0.432277 -1.1717e-19)
(1.21184 0.419973 9.31987e-21)
(1.20332 0.406964 -1.30419e-20)
(1.19508 0.393827 -9.45072e-21)
(1.18755 0.380885 7.85824e-20)
(1.18082 0.368241 5.2965e-20)
(1.17477 0.355931 7.66511e-21)
(1.16889 0.344755 2.69555e-20)
(0.118968 0.0323267 -2.90758e-20)
(0.340472 0.101613 2.27191e-19)
(0.545539 0.178694 8.79534e-20)
(0.728573 0.254174 1.79262e-19)
(0.883475 0.322083 5.84478e-20)
(1.00652 0.377944 2.25687e-20)
(1.09735 0.419376 -1.38857e-19)
(1.1588 0.446259 -4.40036e-20)
(1.19587 0.460207 2.22949e-20)
(1.2145 0.46381 1.67643e-19)
(1.22044 0.459917 -5.41709e-20)
(1.2185 0.451105 6.60294e-20)
(1.21225 0.439405 1.31658e-19)
(1.20412 0.426247 2.91687e-20)
(1.19559 0.412542 -2.53193e-20)
(1.18747 0.398822 3.11055e-20)
(1.18012 0.38538 5.36537e-20)
(1.17362 0.37229 2.05192e-20)
(1.1678 0.359591 5.34877e-20)
(1.16213 0.3481 3.4662e-20)
(0.123022 0.0359064 -7.60736e-20)
(0.349773 0.111067 -1.16426e-19)
(0.557428 0.192493 7.41523e-20)
(0.740661 0.270696 2.49928e-20)
(0.893827 0.339736 4.9106e-20)
(1.01386 0.395375 -2.00658e-19)
(1.10112 0.435619 7.20777e-20)
(1.15906 0.460776 -1.5329e-19)
(1.19312 0.472829 -8.34777e-20)
(1.20947 0.474633 9.49648e-20)
(1.21384 0.469176 -1.05168e-20)
(1.21096 0.459077 5.5297e-21)
(1.20426 0.446344 -1.58609e-19)
(1.19599 0.432356 -6.1179e-20)
(1.18751 0.417971 4.52028e-20)
(1.17955 0.403678 -7.78565e-20)
(1.17242 0.389742 -3.97733e-20)
(1.16617 0.376209 -3.93901e-20)
(1.16061 0.363118 -5.82457e-20)
(1.15516 0.35131 -1.15117e-19)
(0.126902 0.0396256 4.42377e-20)
(0.358527 0.120787 -5.51147e-20)
(0.568409 0.206541 -2.99912e-19)
(0.751534 0.287359 1.621e-19)
(0.902761 0.357382 -2.00491e-19)
(1.0197 0.412656 -2.81206e-20)
(1.10343 0.451608 -2.7084e-19)
(1.158 0.474981 2.83779e-19)
(1.18925 0.485129 1.59175e-19)
(1.2035 0.485152 -1.00942e-20)
(1.2065 0.478166 5.31616e-20)
(1.20284 0.466816 -6.54351e-20)
(1.19578 0.453081 -4.70508e-21)
(1.18746 0.438287 2.95602e-20)
(1.17909 0.423237 -2.80967e-20)
(1.17133 0.408382 4.64805e-20)
(1.16446 0.393958 -5.55867e-20)
(1.15848 0.379988 -4.7334e-20)
(1.1532 0.36651 2.61652e-20)
(1.14793 0.354393 3.06461e-20)
(0.130589 0.0434729 1.01141e-19)
(0.366699 0.13074 1.0116e-19)
(0.578445 0.220791 7.82791e-20)
(0.761168 0.304108 -2.0391e-21)
(0.910271 0.374964 -5.17067e-20)
(1.02406 0.429738 3.49431e-19)
(1.10433 0.467301 1.96998e-19)
(1.15567 0.488845 1.30739e-19)
(1.18429 0.497082 1.81493e-19)
(1.19664 0.49535 2.06047e-20)
(1.19844 0.486871 -1.42996e-19)
(1.19414 0.474309 -1.30397e-20)
(1.18685 0.459604 -2.74589e-20)
(1.17854 0.444026 -8.61644e-20)
(1.17033 0.428328 -2.87537e-20)
(1.16282 0.41292 -4.08459e-20)
(1.15622 0.398016 1.1701e-19)
(1.15055 0.383615 -1.68631e-22)
(1.14557 0.369776 2.28331e-20)
(1.14047 0.357386 1.54154e-20)
(0.134069 0.0474363 -3.37234e-20)
(0.374257 0.140893 -5.88728e-20)
(0.587504 0.235194 -1.29081e-19)
(0.769543 0.320885 -2.1915e-20)
(0.916356 0.392428 -2.12235e-19)
(1.02696 0.446572 -1.51621e-19)
(1.10384 0.48266 4.99522e-20)
(1.15211 0.502337 -3.54749e-19)
(1.1783 0.508669 -1.88485e-19)
(1.18894 0.50521 4.45805e-20)
(1.1897 0.495278 -1.96534e-20)
(1.1849 0.481541 1.2344e-19)
(1.17747 0.465897 1.5865e-19)
(1.16925 0.449559 3.83278e-20)
(1.16126 0.433228 9.49733e-20)
(1.15402 0.417279 -4.4232e-20)
(1.14773 0.401902 5.00855e-20)
(1.14239 0.387077 2.59713e-20)
(1.13772 0.372901 1.68381e-20)
(1.13287 0.360213 -2.62314e-20)
(0.137325 0.0515025 5.05868e-20)
(0.381171 0.151212 -6.08696e-21)
(0.595558 0.249699 -1.99178e-19)
(0.776644 0.337635 -5.3404e-22)
(0.921024 0.409718 4.77749e-19)
(1.02843 0.46311 9.47339e-20)
(1.102 0.497647 7.07384e-20)
(1.14737 0.515431 2.03702e-19)
(1.17131 0.519867 -1.61999e-19)
(1.18043 0.514715 -1.68411e-19)
(1.18032 0.503371 8.60661e-22)
(1.17513 0.488498 -1.06179e-19)
(1.16766 0.471947 -5.6658e-20)
(1.15959 0.454872 1.42266e-19)
(1.15186 0.437924 -3.62433e-20)
(1.14493 0.421445 6.02284e-21)
(1.13898 0.405603 -3.78949e-20)
(1.13399 0.390363 -4.33496e-20)
(1.12966 0.375854 -1.56444e-21)
(1.12512 0.36288 2.05404e-20)
(0.140344 0.0556575 -2.4509e-19)
(0.387416 0.161658 1.53546e-19)
(0.602585 0.264255 3.41903e-19)
(0.782465 0.354301 1.06657e-19)
(0.924284 0.426779 -5.61346e-19)
(1.02849 0.479305 -2.30258e-19)
(1.09886 0.512225 -1.77252e-19)
(1.14149 0.528096 -6.33868e-20)
(1.16337 0.530655 2.08608e-19)
(1.17115 0.523847 2.35192e-20)
(1.17031 0.511134 -3.7318e-20)
(1.16486 0.495165 7.50753e-20)
(1.15743 0.477738 9.60335e-21)
(1.14957 0.459948 -1.65037e-19)
(1.14215 0.4424 4.10513e-20)
(1.13556 0.425404 4.95994e-20)
(1.12997 0.409106 1.67633e-20)
(1.12536 0.393459 2.30134e-20)
(1.1214 0.378624 -2.51083e-20)
(1.1172 0.365368 -5.91387e-21)
(0.143113 0.0598868 -1.64689e-20)
(0.39297 0.172195 7.7322e-20)
(0.608568 0.278811 3.80358e-20)
(0.787001 0.370826 1.13354e-19)
(0.926152 0.443559 3.12885e-19)
(1.02718 0.495112 -2.00996e-19)
(1.09446 0.526358 -1.01235e-20)
(1.13451 0.540307 1.87128e-19)
(1.15452 0.541011 -2.19195e-19)
(1.16113 0.532588 6.97697e-20)
(1.15971 0.51855 1.69424e-19)
(1.15411 0.501525 3.73653e-20)
(1.1468 0.483254 -6.85416e-20)
(1.13922 0.464774 1.10358e-19)
(1.13213 0.446643 -1.13353e-19)
(1.12592 0.429141 -3.20483e-21)
(1.12072 0.412398 -2.04736e-20)
(1.1165 0.396354 1.63145e-20)
(1.11294 0.381199 1.20234e-20)
(1.10909 0.367668 -1.90193e-21)
(0.14562 0.064175 3.17726e-20)
(0.397814 0.182783 1.22879e-19)
(0.613493 0.293315 1.21725e-19)
(0.790255 0.387154 -7.81454e-20)
(0.926647 0.460005 6.3436e-21)
(1.02452 0.510486 1.86562e-19)
(1.08884 0.540011 3.23853e-19)
(1.12649 0.552035 -3.42904e-20)
(1.1448 0.550915 3.06719e-20)
(1.1504 0.54092 -8.29003e-20)
(1.14854 0.525605 -1.68776e-19)
(1.1429 0.507563 2.59734e-20)
(1.13578 0.48848 8.2696e-20)
(1.12853 0.469335 -1.61919e-20)
(1.12182 0.450638 -1.79874e-21)
(1.11601 0.432644 -3.47988e-20)
(1.11122 0.415466 -2.37871e-21)
(1.10743 0.399033 -1.204e-20)
(1.10427 0.383569 -4.5329e-21)
(1.10081 0.369773 1.33146e-20)
(0.147856 0.0685062 -1.08711e-19)