/*--------------------------------*- C++ -*----------------------------------*\
  =========                 |
  \\      /  F ield         | OpenFOAM: The Open Source CFD Toolbox
   \\    /   O peration     | Website:  https://openfoam.org
    \\  /    A nd           | Version:  7
     \\/     M anipulation  |
\*---------------------------------------------------------------------------*/
FoamFile
{
    version     2.0;
    format      ascii;
    class       volVectorField;
    location    "10";
    object      U;
}
// * * * * * * * * * * * * * * * * * * * * * * * * * * * * * * * * * * * * * //

dimensions      [0 1 -1 0 0 0 0];

internalField   nonuniform List<vector> 
8500
(
(-0.441156 0.00342075 -3.46111e-21)
(-0.459685 0.00322972 7.62604e-22)
(-0.477514 0.00300848 2.08393e-21)
(-0.49442 0.00275596 4.92064e-23)
(-0.510156 0.00247114 -3.9908e-21)
(-0.524455 0.00215317 4.60691e-21)
(-0.537027 0.00180123 -2.07642e-21)
(-0.547555 0.00141462 1.03649e-21)
(-0.555702 0.000992807 -2.04943e-21)
(-0.561101 0.000535594 1.80397e-21)
(-0.563347 4.45162e-05 -3.47589e-22)
(-0.562039 -0.000483804 -6.43634e-22)
(-0.556764 -0.0010421 -1.57057e-21)
(-0.547085 -0.00162672 1.91315e-21)
(-0.532601 -0.00222973 1.8341e-21)
(-0.512961 -0.00283956 -1.66856e-21)
(-0.487901 -0.00344167 -9.32235e-22)
(-0.457284 -0.00401763 9.88557e-23)
(-0.421132 -0.00454845 -1.9991e-22)
(-0.379654 -0.00501428 7.16379e-22)
(-0.333251 -0.00539916 -4.63417e-22)
(-0.282491 -0.00569154 3.27668e-22)
(-0.228086 -0.00588561 -4.08793e-22)
(-0.170829 -0.00598217 -5.12017e-23)
(-0.111556 -0.00598675 4.22317e-23)
(-0.0510895 -0.005909 -2.27694e-24)
(0.00978469 -0.00576108 2.40302e-24)
(0.070377 -0.00555507 1.22776e-22)
(0.130024 -0.00530567 -2.08004e-22)
(0.188286 -0.00502221 -2.20371e-22)
(0.244577 -0.00472106 9.74345e-23)
(0.298858 -0.00440423 -2.45645e-23)
(0.350399 -0.00409251 1.31276e-22)
(0.39987 -0.00377473 2.23686e-22)
(0.445888 -0.00348298 4.23568e-22)
(0.490485 -0.00318371 3.05684e-22)
(0.530608 -0.00293267 -2.84308e-22)
(0.570965 -0.00265935 3.69818e-22)
(0.604936 -0.00246238 -2.99499e-22)
(0.642369 -0.00221276 9.8129e-23)
(0.669713 -0.00207837 -1.52906e-22)
(0.706282 -0.00184461 -1.7298e-22)
(0.725972 -0.00177695 -4.30384e-23)
(0.764619 -0.00155519 2.36224e-22)
(0.774884 -0.0015478 3.39476e-25)
(0.819531 -0.00136599 2.16179e-23)
(-0.437999 0.0102651 -4.16459e-21)
(-0.456388 0.00969495 3.41645e-21)
(-0.474077 0.00903408 2.87266e-21)
(-0.490843 0.0082792 -2.09534e-23)
(-0.506441 0.00742728 -1.11093e-20)
(-0.520604 0.00647568 1.19856e-20)
(-0.533042 0.00542194 -8.14065e-21)
(-0.543443 0.00426388 -3.13289e-21)
(-0.551468 0.0029999 6.57061e-22)
(-0.556753 0.00162926 4.66326e-22)
(-0.558896 0.000155754 -9.51182e-21)
(-0.557497 -0.00142857 1.31244e-20)
(-0.552144 -0.00310415 -8.99201e-22)
(-0.542401 -0.0048595 -1.14084e-20)
(-0.52787 -0.0066708 2.83923e-21)
(-0.508202 -0.00850333 2.18741e-21)
(-0.483132 -0.0103134 -3.30635e-21)
(-0.452524 -0.0120456 1.81717e-21)
(-0.416401 -0.0136428 3.30078e-21)
(-0.374973 -0.0150451 -2.74e-21)
(-0.328642 -0.0162043 1.78906e-21)
(-0.277976 -0.0170857 -9.29543e-22)
(-0.223685 -0.0176715 2.63146e-22)
(-0.166564 -0.0179641 2.44598e-22)
(-0.107444 -0.01798 3.0502e-23)
(-0.0471451 -0.017748 -2.09275e-23)
(0.0135489 -0.0173047 -3.18571e-23)
(0.073952 -0.0166864 -8.03391e-24)
(0.133404 -0.0159371 -2.62389e-22)
(0.191469 -0.0150851 3.42383e-22)
(0.247561 -0.0141795 1.15192e-21)
(0.301647 -0.0132265 -7.22301e-23)
(0.352997 -0.0122884 -2.45904e-22)
(0.402281 -0.0113321 1.25853e-22)
(0.448122 -0.0104537 -1.73542e-22)
(0.492545 -0.00955302 4.06756e-22)
(0.532508 -0.00879686 2.5154e-22)
(0.572706 -0.00797444 -7.87669e-22)
(0.606539 -0.00738085 7.59656e-22)
(0.643826 -0.00663028 -7.76892e-23)
(0.671058 -0.0062248 5.13363e-22)
(0.707487 -0.00552276 5.5423e-22)
(0.727095 -0.0053179 -9.10907e-23)
(0.765601 -0.0046528 -6.78234e-22)
(0.775821 -0.00462923 -9.91677e-23)
(0.820311 -0.00408438 9.21138e-23)
(-0.431721 0.0170332 2.10394e-20)
(-0.449835 0.0160864 -1.53063e-20)
(-0.467247 0.0149886 -1.88024e-22)
(-0.483736 0.0137344 7.99882e-21)
(-0.49906 0.0123189 -1.75542e-21)
(-0.512953 0.0107376 -2.65692e-21)
(-0.525129 0.00898655 1.49263e-20)
(-0.535276 0.00706206 -4.45132e-21)
(-0.543061 0.00496144 7.1343e-21)
(-0.548122 0.00268344 6.41181e-22)
(-0.550061 0.000233674 -5.00515e-21)
(-0.548484 -0.00239919 -9.83036e-22)
(-0.542977 -0.00518476 1.42346e-20)
(-0.533112 -0.00810341 -2.44768e-21)
(-0.518491 -0.0111157 -5.48158e-21)
(-0.498768 -0.014164 9.87747e-22)
(-0.47368 -0.0171754 1.10561e-21)
(-0.443092 -0.0200576 -5.29726e-21)
(-0.40703 -0.0227153 6.17014e-21)
(-0.365703 -0.0250485 -4.73191e-21)
(-0.319516 -0.026977 -3.08669e-21)
(-0.269037 -0.0284426 1.80342e-21)
(-0.214975 -0.029416 2.74652e-21)
(-0.158121 -0.029901 -1.09015e-21)
(-0.099304 -0.0299255 9.86521e-23)
(-0.0393382 -0.0295374 -3.74548e-22)
(0.0209993 -0.0287977 -6.41603e-25)
(0.0810283 -0.0277668 1.78617e-22)
(0.140095 -0.0265183 9.33677e-22)
(0.197769 -0.0250989 -4.19038e-22)
(0.253472 -0.0235904 -1.26295e-22)
(0.30717 -0.0220032 -1.14101e-21)
(0.358142 -0.0204411 -1.82267e-22)
(0.407057 -0.0188488 -1.62904e-21)
(0.452547 -0.0173863 8.36868e-22)
(0.496626 -0.0158869 -1.55476e-21)
(0.536275 -0.0146281 6.81903e-22)
(0.576158 -0.0132595 8.93499e-22)
(0.609719 -0.0122713 -6.47441e-22)
(0.646716 -0.0110228 6.78726e-22)
(0.673724 -0.0103477 3.69828e-23)
(0.709879 -0.00918046 -1.06672e-21)
(0.729322 -0.00883908 3.36122e-22)
(0.767549 -0.00773396 6.2861e-22)
(0.777681 -0.00769395 9.34996e-23)
(0.82186 -0.00678932 -1.73857e-22)
(-0.4224 0.023676 5.86942e-21)
(-0.440105 0.0223565 3.82586e-21)
(-0.457108 0.0208264 1.56988e-20)
(-0.47319 0.0190781 -2.87821e-21)
(-0.488109 0.0171048 -1.56261e-20)
(-0.501606 0.0149005 1.6334e-20)
(-0.513395 0.0124595 -2.13482e-21)
(-0.523171 0.00977695 -1.41533e-20)
(-0.530604 0.00684893 -4.5361e-21)
(-0.535337 0.00367362 6.14915e-21)
(-0.536981 0.000257709 -3.62364e-21)
(-0.535143 -0.00341117 1.56921e-20)
(-0.529414 -0.00729463 -2.20932e-20)
(-0.519373 -0.0113643 6.77146e-21)
(-0.504625 -0.0155657 -7.56933e-21)
(-0.484827 -0.019818 4.41663e-21)
(-0.459718 -0.0240199 4.59538e-21)
(-0.429166 -0.0280418 -4.35189e-21)
(-0.393198 -0.0317506 -6.58213e-21)
(-0.352026 -0.0350058 3.21748e-21)
(-0.306056 -0.0376952 -6.83796e-22)
(-0.255856 -0.0397375 -3.18179e-21)
(-0.202134 -0.0410918 -9.54924e-22)
(-0.145677 -0.0417636 -4.99184e-23)
(-0.0873083 -0.0417923 -5.38689e-22)
(-0.0278335 -0.0412452 7.14591e-22)
(0.0319789 -0.0402075 -2.6228e-23)
(0.0914577 -0.0387638 -2.08121e-22)
(0.149958 -0.0370169 -3.26079e-22)
(0.207058 -0.0350319 1.02586e-22)
(0.262188 -0.0329232 -1.17004e-22)
(0.315317 -0.0307052 2.41222e-21)
(0.365736 -0.0285227 -3.9797e-22)
(0.414107 -0.0262987 -2.39814e-22)
(0.459082 -0.0242562 -1.69806e-21)
(0.502657 -0.0221628 -1.07519e-22)
(0.541842 -0.0204052 4.79313e-22)
(0.581262 -0.0184951 -6.64821e-22)
(0.614422 -0.0171159 7.68556e-22)
(0.650992 -0.0153741 -1.07976e-21)
(0.677672 -0.014432 -7.05641e-22)
(0.713421 -0.0128045 3.01519e-22)
(0.732623 -0.0123277 -1.44732e-21)
(0.770438 -0.0107881 -5.9061e-22)
(0.780439 -0.0107311 -4.1318e-22)
(0.824157 -0.00947209 1.28758e-22)
(-0.410146 0.0301466 -2.77116e-20)
(-0.427318 0.0284603 2.41619e-20)
(-0.443787 0.0265044 -6.66536e-21)
(-0.459337 0.0242694 2.65857e-21)
(-0.473732 0.0217466 -2.40462e-20)
(-0.486712 0.0189285 4.85295e-21)
(-0.498001 0.0158081 1.0912e-20)
(-0.507296 0.0123791 6.04297e-21)
(-0.514275 0.00863655 -3.46417e-21)
(-0.518586 0.00457798 6.1167e-21)
(-0.51985 0.000210301 -1.51104e-20)
(-0.51768 -0.00447758 1.70264e-21)
(-0.511671 -0.00944216 1.83485e-20)
(-0.501409 -0.014646 2.25032e-21)
(-0.486505 -0.0200198 3.37967e-21)
(-0.466618 -0.0254603 -1.71295e-20)
(-0.441493 -0.0308376 4.58111e-22)
(-0.410998 -0.0359854 1.0191e-20)
(-0.375164 -0.0407324 -3.04199e-21)
(-0.334202 -0.0448976 -2.03763e-21)
(-0.288523 -0.048337 5.76165e-21)
(-0.238694 -0.0509458 -5.01569e-21)
(-0.18542 -0.0526722 -1.16462e-21)
(-0.129484 -0.0535235 1.94766e-21)
(-0.0716999 -0.0535508 8.04538e-22)
(-0.0128651 -0.0528408 4.80771e-22)
(0.0462645 -0.0515033 3.21155e-22)
(0.105029 -0.0496466 -3.78604e-22)
(0.162796 -0.0474026 3.53291e-22)
(0.219152 -0.0448548 -4.68202e-22)
(0.273538 -0.0421495 3.85288e-22)
(0.325931 -0.0393052 -5.19915e-22)
(0.375632 -0.0365074 1.08689e-21)
(0.423301 -0.0336573 4.28989e-22)
(0.467608 -0.0310404 2.4013e-21)
(0.510529 -0.0283592 1.64979e-21)
(0.549114 -0.0261083 -2.94424e-21)
(0.587933 -0.0236632 -2.7118e-21)
(0.620572 -0.0218975 1.00836e-21)
(0.656587 -0.0196691 -1.93816e-21)
(0.68284 -0.0184631 1.69096e-21)
(0.71806 -0.0163824 -8.30403e-22)
(0.736948 -0.0157717 9.07026e-22)
(0.774226 -0.0138049 -1.36081e-22)
(0.784057 -0.0137304 6.29724e-23)
(0.827173 -0.0121243 1.27196e-22)
(-0.395101 0.0364018 -2.67057e-20)
(-0.411624 0.0343564 -1.23054e-20)
(-0.427444 0.0319832 4.98618e-20)
(-0.44235 0.0292709 -1.95895e-20)
(-0.456107 0.0262094 -9.72423e-21)
(-0.468465 0.0227895 5.04648e-20)
(-0.47915 0.0190031 -2.18587e-21)
(-0.487867 0.0148426 -3.3667e-20)
(-0.4943 0.0103019 4.87256e-20)
(-0.498107 0.00537807 -4.68443e-20)
(-0.498919 7.73716e-05 2.02449e-21)
(-0.496356 -0.00560834 -6.45259e-21)
(-0.490017 -0.0116328 1.11351e-20)
(-0.479501 -0.0179493 -5.96881e-21)
(-0.46442 -0.0244747 -2.10566e-21)
(-0.444442 -0.0310834 8.98691e-21)
(-0.419311 -0.0376175 1.31596e-20)
(-0.388901 -0.0438738 -1.54148e-21)
(-0.353243 -0.0496433 -7.32627e-21)
(-0.312551 -0.0547039 -8.14675e-21)
(-0.267238 -0.0588799 -1.24283e-21)
(-0.217869 -0.0620431 3.34311e-21)
(-0.165147 -0.0641312 7.27811e-21)
(-0.109849 -0.0651533 1.0032e-21)
(-0.0527795 -0.0651728 -3.27802e-21)
(0.00527743 -0.0642957 1.7805e-21)
(0.0635792 -0.0626564 -3.2706e-22)
(0.121479 -0.0603867 6.00137e-22)
(0.17836 -0.0576475 6.48205e-23)
(0.233818 -0.0545403 -3.96037e-23)
(0.287309 -0.051243 1.65512e-21)
(0.338814 -0.0477783 -3.58121e-21)
(0.387651 -0.0443714 -1.58018e-21)
(0.434473 -0.0409024 1.61651e-21)
(0.477974 -0.0377179 -2.57063e-21)
(0.520106 -0.0344566 1.53547e-21)
(0.557967 -0.0317191 1.61192e-21)
(0.59606 -0.0287469 3.99274e-21)
(0.628071 -0.0266004 -1.19996e-21)
(0.663414 -0.0238936 2.83023e-22)
(0.689151 -0.0224279 -1.62042e-21)
(0.72373 -0.0199024 4.52412e-22)
(0.742238 -0.0191596 1.06025e-21)
(0.778861 -0.0167751 7.79533e-22)
(0.788487 -0.0166821 1.25067e-22)
(0.83087 -0.0147381 -2.49068e-22)
(-0.377436 0.0424019 2.19609e-20)
(-0.393203 0.040007 3.33274e-20)
(-0.408271 0.0372272 1.06851e-20)
(-0.42243 0.0340496 -2.49156e-20)
(-0.435452 0.0304624 7.14257e-21)
(-0.447091 0.0264554 5.19773e-21)
(-0.457081 0.0220194 -2.64089e-20)
(-0.465135 0.0171455 6.32358e-22)
(-0.470946 0.0118268 5.09103e-20)
(-0.474179 0.00605929 -4.33416e-20)
(-0.474479 -0.000151473 8.41311e-23)
(-0.471473 -0.00680997 4.35208e-20)
(-0.464768 -0.0138689 -4.4752e-20)
(-0.453973 -0.0212724 5.52223e-21)
(-0.438707 -0.0289245 2.22191e-21)
(-0.418641 -0.0366776 3.04351e-20)
(-0.393524 -0.0443464 -4.39163e-20)
(-0.363232 -0.051691 2.49974e-20)
(-0.327797 -0.0584647 -2.73037e-21)
(-0.287437 -0.0644039 6.14213e-21)
(-0.242564 -0.0693014 -7.90798e-21)
(-0.193743 -0.0730056 -1.1665e-20)
(-0.141673 -0.0754439 1.37171e-21)
(-0.0871239 -0.0766272 -2.1365e-21)
(-0.0308874 -0.0766323 -5.85313e-22)
(0.0262653 -0.0755831 -1.00171e-22)
(0.0836082 -0.0736404 -3.32952e-22)
(0.14051 -0.0709583 -7.7551e-22)
(0.196368 -0.0677264 -4.23578e-22)
(0.250792 -0.0640641 -1.00056e-21)
(0.303254 -0.0601805 2.07219e-22)
(0.353738 -0.0561022 4.77974e-21)
(0.401581 -0.0520937 3.00705e-21)
(0.44743 -0.048014 4.61359e-22)
(0.490006 -0.0442699 2.19831e-21)
(0.531232 -0.0404377 1.49278e-22)
(0.568258 -0.0372212 -1.15236e-21)
(0.605516 -0.0337313 -4.1375e-22)
(0.636802 -0.0312106 -1.38311e-21)
(0.67137 -0.0280348 3.52963e-21)
(0.696511 -0.0263142 -1.31917e-21)
(0.730349 -0.0233541 -5.18727e-23)
(0.748418 -0.022481 -4.35608e-22)
(0.784283 -0.0196899 -1.84507e-22)
(0.793672 -0.0195773 1.88829e-22)
(0.835201 -0.017306 -1.42875e-23)
(-0.357346 0.0481118 -4.62689e-20)
(-0.372262 0.045379 -1.31475e-20)
(-0.386485 0.0422056 4.29357e-20)
(-0.399807 0.0385768 -4.46767e-20)
(-0.412008 0.0344797 3.88994e-20)
(-0.422846 0.0299031 -2.40983e-20)
(-0.432065 0.0248366 -2.97838e-20)
(-0.439384 0.0192706 -2.92005e-21)
(-0.444508 0.013197 2.92157e-20)
(-0.447112 0.0066111 -3.66651e-20)
(-0.446853 -0.000482881 2.70595e-20)
(-0.443367 -0.0080855 -1.35587e-20)
(-0.436271 -0.0161496 2.42532e-20)
(-0.425183 -0.0246107 -2.72758e-20)
(-0.40973 -0.0333608 8.40601e-21)
(-0.389588 -0.0422311 2.80532e-20)
(-0.36451 -0.0510096 -2.55921e-20)
(-0.334374 -0.0594196 -2.23923e-20)
(-0.299213 -0.0671771 1.2586e-20)
(-0.259246 -0.0739766 1.09857e-20)
(-0.214888 -0.0795791 8.89969e-21)
(-0.1667 -0.0838097 -3.67086e-21)
(-0.115378 -0.0865859 9.70301e-22)
(-0.0616803 -0.0879208 2.04981e-21)
(-0.00638663 -0.0879045 1.07899e-21)
(0.0497476 -0.0866789 -4.0937e-23)
(0.106014 -0.0844316 3.99033e-22)
(0.161798 -0.0813383 -1.00753e-23)
(0.216515 -0.0776172 2.47859e-22)
(0.269788 -0.073405 -5.6378e-22)
(0.321104 -0.0689417 -3.29339e-21)
(0.370454 -0.0642576 3.38523e-22)
(0.417194 -0.0596558 -5.36751e-21)
(0.461961 -0.0549749 6.61933e-22)
(0.50351 -0.0506803 -3.68003e-21)
(0.543728 -0.0462872 1.66079e-21)
(0.579828 -0.0426004 2.14258e-21)
(0.616156 -0.0386032 -7.07753e-22)
(0.646635 -0.0357157 -6.82167e-22)
(0.68034 -0.0320817 2.05211e-22)
(0.704817 -0.0301114 1.74646e-21)
(0.737825 -0.0267279 1.99251e-22)
(0.755405 -0.0257269 -2.35143e-21)
(0.790419 -0.0225414 5.1614e-22)
(0.799544 -0.0224079 2.78233e-24)
(0.840112 -0.0198215 -9.7128e-23)
(-0.335042 0.0535011 -1.1721e-20)
(-0.349026 0.0504443 -3.4166e-20)
(-0.362322 0.0468923 6.12664e-21)
(-0.374732 0.0428289 3.19186e-20)
(-0.386038 0.0382401 -1.42183e-20)
(-0.396008 0.0331137 1.73027e-21)
(-0.404391 0.0274388 -2.44546e-20)
(-0.410919 0.0212049 1.89127e-20)
(-0.415305 0.0144027 2.17684e-20)
(-0.417236 0.00702693 1.58702e-20)
(-0.416383 -0.00091991 -4.68428e-20)
(-0.412391 -0.00943469 6.1769e-20)
(-0.404888 -0.0184711 -3.02717e-20)
(-0.393503 -0.0279569 2.71531e-20)
(-0.377869 -0.0377732 -1.67173e-20)
(-0.35767 -0.0477304 2.86848e-20)
(-0.332659 -0.0575908 2.68856e-21)
(-0.30272 -0.0670413 1.02701e-20)
(-0.267885 -0.0757604 -1.64396e-20)
(-0.228374 -0.0834004 -1.89042e-20)
(-0.184604 -0.0896906 4.51714e-21)
(-0.137131 -0.0944324 6.39514e-21)
(-0.0866461 -0.0975343 5.52374e-21)
(-0.0338963 -0.0990113 -3.58252e-21)
(0.020354 -0.0989662 -1.91422e-21)
(0.0753664 -0.0975616 -2.43442e-21)
(0.130452 -0.0950089 6.0678e-22)
(0.185015 -0.0915064 3.25828e-22)
(0.238488 -0.0873003 1.25468e-21)
(0.290509 -0.0825445 -3.12508e-22)
(0.340581 -0.077509 4.59555e-21)
(0.388702 -0.072228 1.90894e-21)
(0.434246 -0.0670422 1.72836e-21)
(0.477844 -0.0617705 -2.8027e-21)
(0.518281 -0.0569353 3.21453e-21)
(0.557409 -0.0519923 -1.11871e-21)
(0.592504 -0.0478447 -4.1525e-22)
(0.627826 -0.0433516 2.63585e-22)
(0.657431 -0.0401052 -1.67197e-21)
(0.690199 -0.0360247 5.9925e-22)
(0.713955 -0.0338102 1.36597e-21)
(0.74606 -0.0300159 2.191e-21)
(0.763109 -0.0288891 3.24876e-21)
(0.797192 -0.0253229 8.84725e-22)
(0.806031 -0.025167 7.96588e-22)
(0.845546 -0.0222786 2.22587e-22)
(-0.323731 0.0551793 -1.71037e-20)
(-0.336035 0.0512662 9.07582e-21)
(-0.347468 0.0467871 -1.73478e-21)
(-0.357819 0.0417272 1.15524e-20)
(-0.366865 0.0360737 -1.24296e-20)
(-0.374364 0.029815 1.47695e-20)
(-0.380057 0.0229399 -7.16765e-21)
(-0.383667 0.0154383 1.87394e-21)
(-0.384894 0.00730391 -1.17211e-20)
(-0.383422 -0.00146238 2.17111e-20)
(-0.378909 -0.0108544 5.82726e-21)
(-0.370992 -0.0208273 -1.04888e-20)
(-0.359312 -0.031302 -5.13835e-20)
(-0.343508 -0.0421497 1.16539e-20)
(-0.323272 -0.0531612 -7.71982e-21)
(-0.29836 -0.0640734 1.56949e-20)
(-0.26866 -0.0745374 -2.42552e-20)
(-0.234202 -0.0841946 2.77066e-20)
(-0.195208 -0.0926542 -2.56913e-21)
(-0.152096 -0.0996141 -2.70654e-21)
(-0.105417 -0.104852 -5.19118e-21)
(-0.0558532 -0.108267 -6.03593e-22)
(-0.0041408 -0.109877 -3.70909e-21)
(0.048974 -0.109797 3.90758e-21)
(0.102771 -0.108211 9.0751e-22)
(0.156584 -0.105353 -2.25263e-22)
(0.209834 -0.101445 1.05756e-21)
(0.261976 -0.0967592 -5.64141e-22)
(0.31266 -0.091467 -5.51792e-22)
(0.361407 -0.0858679 -1.13882e-21)
(0.408221 -0.0799998 -2.19206e-21)
(0.452495 -0.0742404 -1.0972e-21)
(0.494852 -0.0683889 -2.524e-21)
(0.534108 -0.0630238 -3.09776e-21)
(0.572081 -0.0575428 3.85233e-21)
(0.606112 -0.0529443 -5.82374e-21)
(0.640366 -0.0479673 -6.15229e-22)
(0.669044 -0.0443705 5.5006e-21)
(0.700815 -0.039856 -3.89658e-21)
(0.723806 -0.0374031 -4.15426e-22)
(0.754949 -0.0332112 -3.15227e-21)
(0.771433 -0.0319609 -6.68931e-22)
(0.80452 -0.0280287 -7.35329e-22)
(0.813056 -0.0278485 -3.81833e-22)
(0.85144 -0.024672 -4.83602e-22)
(-0.296628 0.0595652 6.6979e-20)
(-0.307882 0.0553107 -8.82718e-20)
(-0.318286 0.0504373 -3.81563e-20)
(-0.327637 0.0449293 1.03829e-19)
(-0.335716 0.0387736 1.24475e-21)
(-0.342293 0.0319581 -4.32909e-20)
(-0.347118 0.0244711 3.36494e-20)
(-0.349927 0.0163016 -1.30212e-20)
(-0.350429 0.00744244 -2.80073e-20)
(-0.348325 -0.00210737 1.20995e-20)
(-0.343283 -0.0123394 -4.43612e-20)
(-0.33495 -0.0232105 6.62165e-20)
(-0.322981 -0.0346358 -2.2054e-20)
(-0.307022 -0.0464778 -1.8299e-21)
(-0.286772 -0.0585085 1.72162e-20)
(-0.26199 -0.0704406 -9.2231e-21)
(-0.232567 -0.0818896 -1.3229e-21)
(-0.198535 -0.0924601 -1.08177e-20)
(-0.160117 -0.101718 6.95909e-21)
(-0.117728 -0.109328 1.1595e-20)
(-0.0719169 -0.115046 -9.14558e-21)
(-0.0233542 -0.118765 9.1286e-21)
(0.0272379 -0.120496 -3.1347e-21)
(0.0791324 -0.120377 -6.27714e-21)
(0.131631 -0.118609 3.05223e-21)
(0.184087 -0.115448 -3.51114e-22)
(0.235947 -0.111138 -5.17463e-22)
(0.286682 -0.10598 2.12872e-21)
(0.335958 -0.100159 -3.72462e-21)
(0.383312 -0.0940065 2.29862e-21)
(0.428756 -0.087562 3.77788e-22)
(0.471701 -0.0812399 4.03994e-21)
(0.512762 -0.0748207 4.26087e-21)
(0.550787 -0.0689369 6.2078e-22)
(0.587554 -0.0629303 -1.20709e-21)
(0.620475 -0.0578915 7.48414e-21)
(0.653614 -0.0524433 2.41939e-21)
(0.681325 -0.0485049 -3.41973e-21)
(0.712055 -0.0435693 9.52589e-22)
(0.734248 -0.0408842 -1.8659e-21)
(0.764382 -0.0363086 3.12774e-21)
(0.780278 -0.034937 1.3608e-21)
(0.812316 -0.0306539 -1.31499e-21)
(0.820537 -0.0304475 -5.74512e-22)
(0.857728 -0.0269975 3.68992e-22)
(-0.267965 0.0635879 -2.00639e-20)
(-0.278127 0.0590139 -1.20354e-20)
(-0.287462 0.0537697 -1.7536e-20)
(-0.295775 0.047839 4.50477e-20)
(-0.302858 0.0412082 4.42001e-20)
(-0.308486 0.0338651 -7.16399e-20)
(-0.312423 0.0257976 1.09317e-19)
(-0.314413 0.0169938 -3.75327e-20)
(-0.31418 0.00744558 -3.82801e-20)
(-0.311437 -0.00284982 1.93004e-20)
(-0.305864 -0.0138826 8.46373e-21)
(-0.29712 -0.0256116 -8.24503e-21)
(-0.284871 -0.0379473 -2.78384e-20)
(-0.268771 -0.0507447 1.39845e-20)
(-0.248527 -0.0637579 1.91438e-20)
(-0.223904 -0.0766763 1.27816e-20)
(-0.194795 -0.0890805 -6.65772e-21)
(-0.161233 -0.100538 -4.15523e-21)
(-0.123441 -0.110571 -1.32902e-21)
(-0.0818388 -0.118814 -6.85579e-21)
(-0.0369638 -0.124998 1.98548e-21)
(0.0105246 -0.129007 -1.15905e-20)
(0.0599195 -0.130851 1.21627e-20)
(0.110515 -0.130691 -1.83895e-21)
(0.161638 -0.128739 -1.2533e-21)
(0.212665 -0.125278 -1.4755e-22)
(0.263064 -0.120572 4.74214e-23)
(0.312327 -0.114949 3.8843e-22)
(0.360136 -0.108611 -4.2829e-22)
(0.406044 -0.101915 -2.6759e-21)
(0.450068 -0.0949057 2.25799e-21)
(0.491638 -0.0880329 -4.27618e-21)
(0.53136 -0.0810587 -1.01132e-21)
(0.568116 -0.0746682 3.67412e-22)
(0.603642 -0.068149 -3.10171e-21)
(0.635421 -0.0626807 -1.01911e-20)
(0.667414 -0.0567744 -1.50627e-21)
(0.69413 -0.0525032 -3.98279e-21)
(0.723788 -0.0471602 -1.71552e-21)
(0.74516 -0.0442488 3.06234e-21)
(0.774252 -0.0393039 -1.05053e-21)
(0.789544 -0.0378131 -3.22555e-21)
(0.820496 -0.033195 2.12666e-21)
(0.828394 -0.0329601 3.00388e-22)
(0.864342 -0.0292515 5.23141e-23)
(-0.237995 0.0672371 6.6911e-21)
(-0.247029 0.0623678 6.8815e-20)
(-0.255265 0.0567785 -3.87031e-20)
(-0.262516 0.0504525 -1.34984e-20)
(-0.268581 0.0433758 -2.7452e-21)
(-0.273246 0.0355362 -2.28142e-20)
(-0.276282 0.0269213 1.05459e-19)
(-0.277446 0.0175184 -6.91218e-20)
(-0.276474 0.0073185 1.68891e-20)
(-0.27309 -0.00368315 -5.96521e-20)
(-0.266988 -0.0154761 1.20594e-20)
(-0.257838 -0.0280214 3.74179e-20)
(-0.245319 -0.0412261 -1.63202e-20)
(-0.229092 -0.0549386 -1.00735e-20)
(-0.208871 -0.0688962 1.66772e-20)
(-0.184429 -0.0827659 -1.57401e-20)
(-0.155663 -0.0960939 -8.77956e-22)
(-0.122609 -0.108411 1.52838e-20)
(-0.0854927 -0.119196 -1.03826e-20)
(-0.0447313 -0.128053 2.03937e-20)
(-0.000856225 -0.134689 -1.44016e-21)
(0.0454895 -0.138969 -1.74354e-21)
(0.0936155 -0.140925 -5.26564e-21)
(0.14284 -0.14072 -2.55249e-21)
(0.192517 -0.138586 1.4131e-21)
(0.242049 -0.13483 6.80037e-22)
(0.290926 -0.129736 1.27371e-22)
(0.338662 -0.123658 -9.88734e-22)
(0.384952 -0.116812 6.30364e-22)
(0.429369 -0.109585 1.74712e-21)
(0.471933 -0.102024 -1.65869e-21)
(0.512094 -0.0946133 -9.04955e-22)
(0.550449 -0.0870975 -4.57638e-22)
(0.585907 -0.0802127 9.6493e-22)
(0.620169 -0.0731945 -7.99855e-22)
(0.650785 -0.0673079 1.86627e-21)
(0.681612 -0.060957 1.14503e-21)
(0.707317 -0.0563623 3.5047e-21)
(0.735884 -0.0506254 2.02422e-21)
(0.756424 -0.0474939 -2.21883e-21)
(0.784453 -0.0421944 -2.98287e-21)
(0.799133 -0.0405865 2.78756e-21)
(0.828971 -0.0356493 -1.11809e-21)
(0.836544 -0.0353837 -6.92144e-22)
(0.871216 -0.0314313 -2.71675e-22)
(-0.206963 0.0705063 -7.03863e-21)
(-0.214844 0.065368 -6.1403e-21)
(-0.221961 0.0594613 -6.53469e-20)
(-0.228133 0.0527692 9.46609e-20)
(-0.233168 0.0452777 -7.30847e-20)
(-0.23686 0.0369742 1.39617e-19)
(-0.238991 0.0278465 -8.2532e-20)
(-0.239329 0.017881 6.89931e-20)
(-0.237618 0.00706779 -3.31496e-20)
(-0.233597 -0.00459987 -1.65168e-20)
(-0.226971 -0.0171116 -3.14725e-20)
(-0.217422 -0.0304309 7.95571e-20)
(-0.204639 -0.0444624 -5.56006e-21)
(-0.188293 -0.0590486 -2.21454e-20)
(-0.168109 -0.0739115 1.59731e-20)
(-0.143864 -0.0886962 -3.09952e-21)
(-0.115465 -0.102915 -3.52426e-20)
(-0.08295 -0.116064 -1.04954e-20)
(-0.046548 -0.127578 1.00135e-21)
(-0.00667755 -0.13703 -2.53174e-21)
(0.0361416 -0.144097 -5.49583e-21)
(0.0812811 -0.148639 7.91417e-21)
(0.12807 -0.150702 -1.56267e-22)
(0.175858 -0.15045 -2.58731e-21)
(0.224024 -0.148137 3.04947e-22)
(0.272001 -0.144091 1.95458e-22)
(0.319301 -0.138619 1.57047e-22)
(0.36546 -0.132096 8.91718e-22)
(0.41019 -0.124755 -7.48013e-22)
(0.453078 -0.11701 -1.5453e-21)
(0.494153 -0.108911 1.86306e-21)
(0.532879 -0.100977 2.87464e-21)
(0.569844 -0.0929333 -4.79012e-21)
(0.603989 -0.0855674 2.92443e-21)
(0.636973 -0.0780641 5.43101e-21)
(0.666415 -0.0717709 1.79994e-21)
(0.696067 -0.0649891 2.22458e-21)
(0.720755 -0.06008 3.12779e-21)
(0.748222 -0.0539632 2.29642e-21)
(0.767925 -0.0506177 3.1203e-22)
(0.794881 -0.0449785 4.18019e-21)
(0.808948 -0.0432553 -2.58351e-21)
(0.837659 -0.038015 -2.51379e-23)
(0.844907 -0.0377164 2.90891e-23)
(0.878282 -0.0335348 7.95987e-22)
(-0.175107 0.0733922 4.99572e-20)
(-0.181818 0.0680128 4.96472e-20)
(-0.187801 0.0618184 -1.35528e-20)
(-0.192886 0.0547914 -7.35015e-20)
(-0.196885 0.0469174 1.19361e-20)
(-0.199603 0.0381842 -5.12748e-20)
(-0.200831 0.0285793 9.64454e-20)
(-0.200345 0.0180886 -7.61891e-20)
(-0.197901 0.00670092 3.34448e-20)
(-0.193248 -0.00559215 3.76701e-20)
(-0.186103 -0.018781 -4.40597e-20)
(-0.176159 -0.0328317 2.73871e-21)
(-0.163118 -0.0476473 -7.54624e-20)
(-0.146657 -0.0630657 6.09977e-20)
(-0.126514 -0.0787941 5.85224e-20)
(-0.102476 -0.0944564 -5.6793e-20)
(-0.0744586 -0.109532 -2.06456e-20)
(-0.0425066 -0.123486 7.23718e-20)
(-0.00685221 -0.135702 -3.73594e-20)
(0.0320859 -0.145725 -2.56147e-20)
(0.0737973 -0.153204 -4.91945e-21)
(0.117671 -0.158006 3.88346e-21)
(0.163062 -0.160167 -1.98991e-21)
(0.209351 -0.159867 -2.55538e-21)
(0.255948 -0.157379 7.56179e-22)
(0.302314 -0.153052 1.11476e-21)
(0.347988 -0.14721 7.93815e-22)
(0.392526 -0.140256 -3.27881e-22)
(0.435659 -0.132434 3.16678e-21)
(0.476988 -0.124186 -8.51761e-22)
(0.516548 -0.115564 -1.38014e-21)
(0.553821 -0.10712 -1.08693e-21)
(0.589383 -0.0985639 7.09135e-22)
(0.622206 -0.0907305 -2.63016e-21)
(0.653906 -0.0827565 3.78817e-21)
(0.682172 -0.0760685 -3.69493e-21)
(0.710648 -0.0688697 -3.70659e-21)
(0.734319 -0.0636557 -4.21568e-21)
(0.760688 -0.0571731 -6.416e-22)
(0.779558 -0.0536195 2.22732e-21)
(0.805441 -0.0476553 -1.56112e-21)
(0.818899 -0.0458188 -2.65027e-22)
(0.846479 -0.0402914 -8.44927e-22)
(0.853407 -0.0399573 1.37077e-21)
(0.885478 -0.0355608 -1.11913e-22)
(-0.142652 0.075894 4.08177e-21)
(-0.148182 0.0703033 -4.34015e-20)
(-0.153026 0.0638524 -2.44385e-20)
(-0.157019 0.0565229 -2.53265e-20)
(-0.159983 0.0483004 -1.21837e-20)
(-0.16173 0.0391725 -2.75586e-20)
(-0.162059 0.0291268 8.30466e-22)
(-0.160756 0.0181486 8.89188e-21)
(-0.157585 0.00622565 -3.1603e-20)
(-0.152307 -0.0066523 6.06238e-20)
(-0.144648 -0.0204769 -4.64345e-20)
(-0.134311 -0.0352166 6.80916e-21)
(-0.12101 -0.0507738 3.89609e-20)
(-0.104434 -0.066983 -6.94973e-20)
(-0.0843308 -0.0835365 5.7066e-20)
(-0.060501 -0.100038 -3.30206e-20)
(-0.0328729 -0.11594 5.72596e-20)
(-0.00150037 -0.130664 -7.99284e-21)
(0.0333821 -0.143553 -1.56942e-20)
(0.0713512 -0.154121 -4.14374e-21)
(0.111908 -0.162003 4.68359e-20)
(0.154462 -0.167052 -2.19943e-20)
(0.198399 -0.169305 6.77135e-21)
(0.243132 -0.168959 -1.5402e-21)
(0.288105 -0.166301 -5.17364e-22)
(0.33281 -0.161702 3.3256e-22)
(0.376813 -0.155504 2.45253e-23)
(0.419692 -0.148131 -1.6698e-21)
(0.461196 -0.139844 -3.3139e-21)
(0.50094 -0.131107 8.66744e-22)
(0.538967 -0.121978 7.0654e-21)
(0.574772 -0.11304 -5.79633e-21)
(0.608923 -0.103988 3.04582e-21)
(0.64042 -0.0957011 9.19287e-21)
(0.670837 -0.0872713 -6.68252e-21)
(0.69793 -0.0802007 5.50713e-21)
(0.725236 -0.0725992 4.12037e-21)
(0.747898 -0.0670897 2.84655e-21)
(0.773178 -0.0602553 3.03001e-21)
(0.791224 -0.0564997 -2.85309e-21)
(0.816041 -0.0502253 -9.81304e-22)
(0.828901 -0.0482772 2.7673e-21)
(0.855355 -0.0424783 1.35629e-21)
(0.861971 -0.0421064 -9.17815e-22)
(0.892741 -0.0375087 -4.38938e-22)
(-0.109811 0.0780131 -1.15459e-19)
(-0.114154 0.0722423 1.11609e-19)
(-0.117856 0.0655675 -8.62782e-20)
(-0.120759 0.0579693 -3.57922e-20)
(-0.122692 0.049433 7.48655e-20)
(-0.123474 0.0399463 8.54892e-20)
(-0.122912 0.0294967 -1.17447e-19)
(-0.120799 0.018069 9.00699e-20)
(-0.116909 0.0056496 -7.69473e-20)
(-0.11101 -0.00777322 1.34202e-20)
(-0.102838 -0.0221928 6.55108e-20)
(-0.0921073 -0.0375797 4.63414e-21)
(-0.0785434 -0.0538363 -9.42215e-21)
(-0.0618451 -0.0707956 4.50897e-21)
(-0.0417731 -0.0881341 5.31183e-21)
(-0.0181463 -0.105437 4.36601e-22)
(0.00909362 -0.122135 8.94398e-21)
(0.0398781 -0.137578 -1.55377e-20)
(0.0739691 -0.151118 -4.67698e-21)
(0.110937 -0.162213 -1.11484e-20)
(0.150297 -0.17048 2.40203e-21)
(0.191484 -0.175764 -3.76749e-21)
(0.233915 -0.178105 -1.99669e-21)
(0.277039 -0.177713 7.74785e-22)
(0.320338 -0.174892 4.35375e-21)
(0.363336 -0.170032 -7.42383e-22)
(0.405628 -0.163491 4.80746e-22)
(0.446815 -0.155716 -3.35223e-22)
(0.48666 -0.146979 3.30288e-22)
(0.524798 -0.137772 6.45676e-22)
(0.561276 -0.128153 3.81456e-21)
(0.595604 -0.118737 -5.29581e-21)
(0.628341 -0.109204 1.66033e-21)
(0.658512 -0.100479 -6.085e-21)
(0.687651 -0.091609 1.57427e-22)
(0.71358 -0.0841684 -4.94981e-21)
(0.739727 -0.0761785 -4.83743e-21)
(0.761394 -0.0703831 2.67636e-21)
(0.785597 -0.063211 -2.58946e-21)
(0.802834 -0.0592595 -9.07905e-22)
(0.826601 -0.0526895 -1.65294e-21)
(0.838876 -0.0506315 -1.4207e-21)
(0.864219 -0.0445764 4.68443e-22)
(0.870532 -0.0441645 -1.02272e-21)
(0.900013 -0.0393786 1.32198e-22)
(-0.0767775 0.0797528 1.55894e-20)
(-0.0799338 0.0738342 1.88407e-20)
(-0.0824958 0.066969 -3.08251e-20)
(-0.0843122 0.0591368 1.02098e-19)
(-0.0852202 0.0503224 -1.08544e-19)
(-0.0850453 0.0405132 6.33795e-20)
(-0.0836002 0.0296967 -7.47937e-20)
(-0.0806867 0.0178571 3.79786e-20)
(-0.0760838 0.00497978 6.988e-21)
(-0.0695672 -0.00894868 -3.40615e-20)
(-0.0608822 -0.0239234 7.97846e-21)
(-0.0497513 -0.0399169 1.71984e-20)
(-0.0359143 -0.056833 4.93694e-21)
(-0.0190815 -0.0744996 -3.10795e-21)
(0.00097443 -0.0925848 -2.95355e-20)
(0.024409 -0.110647 -3.01586e-20)
(0.0512712 -0.1281 3.4826e-20)
(0.0814651 -0.14423 -3.35343e-20)
(0.114746 -0.158394 -4.03564e-21)
(0.150687 -0.169991 3.3504e-20)
(0.188815 -0.178623 2.12273e-20)
(0.22859 -0.18413 -1.97907e-20)
(0.269467 -0.186555 1.33332e-20)
(0.310935 -0.186121 -1.3272e-21)
(0.352514 -0.183144 -1.2315e-21)
(0.393764 -0.178035 8.29219e-22)
(0.434308 -0.171165 -7.57759e-22)
(0.473772 -0.163005 9.85318e-22)
(0.511936 -0.153836 -3.21238e-21)
(0.54845 -0.144176 -4.40919e-22)
(0.583366 -0.134085 -8.83915e-21)
(0.616211 -0.124209 2.72533e-21)
(0.647532 -0.114213 4.00712e-22)
(0.676382 -0.105065 3.29015e-21)
(0.704252 -0.0957706 4.18464e-21)
(0.729027 -0.087973 2.39717e-21)
(0.754032 -0.0796093 1.38199e-21)
(0.774719 -0.0735377 -4.33066e-21)
(0.797865 -0.066042 -4.4353e-21)
(0.814311 -0.0619006 3.70129e-21)
(0.837047 -0.0550493 -2.71409e-22)
(0.848754 -0.0528833 1.0201e-21)
(0.873005 -0.0465868 -1.59643e-21)
(0.879028 -0.0461328 1.84628e-21)
(0.907243 -0.041171 1.3858e-22)
(-0.0437271 0.0811176 1.92199e-20)
(-0.0456996 0.0750842 -9.27562e-21)
(-0.0471264 0.068063 3.05574e-20)
(-0.0478633 0.0600322 -4.66957e-21)
(-0.0477539 0.0509758 -5.33908e-20)
(-0.0466302 0.0408807 6.7262e-20)
(-0.0443106 0.0297342 -2.6048e-20)
(-0.0406028 0.0175201 1.30654e-20)
(-0.0352915 0.00422243 -8.40666e-20)
(-0.0281581 -0.0101736 5.33116e-20)
(-0.0189557 -0.0256651 -4.78581e-20)
(-0.00741576 -0.0422262 3.76598e-20)
(0.00670945 -0.0597663 2.40956e-21)
(0.0236941 -0.07809 1.94064e-20)
(0.0437542 -0.0968833 4.21632e-21)
(0.0670153 -0.115665 2.84256e-20)
(0.0935096 -0.133826 3.0401e-21)
(0.123115 -0.150623 -1.39202e-20)
(0.155574 -0.165372 1.39272e-20)
(0.190466 -0.177443 -8.62276e-21)
(0.227327 -0.186421 -8.7607e-21)
(0.26565 -0.19214 1.77224e-20)
(0.304931 -0.194645 -7.53054e-21)
(0.344699 -0.194172 -1.14369e-20)
(0.384519 -0.191049 -2.80486e-21)
(0.423984 -0.185703 -5.12399e-23)
(0.462749 -0.178522 -3.02347e-23)
(0.500463 -0.169994 -8.42857e-22)