/*--------------------------------*- C++ -*----------------------------------*\
  =========                 |
  \\      /  F ield         | OpenFOAM: The Open Source CFD Toolbox
   \\    /   O peration     | Website:  https://openfoam.org
    \\  /    A nd           | Version:  7
     \\/     M anipulation  |
\*---------------------------------------------------------------------------*/
FoamFile
{
    version     2.0;
    format      ascii;
    class       volVectorField;
    location    "95";
    object      U;
}
// * * * * * * * * * * * * * * * * * * * * * * * * * * * * * * * * * * * * * //

dimensions      [0 1 -1 0 0 0 0];

internalField   nonuniform List<vector> 
8500
(
(-0.0209804 -0.261884 -4.73137e-21)
(-0.00185135 -0.338501 1.06952e-21)
(0.0194831 -0.413223 2.51375e-21)
(0.042797 -0.482904 -3.88678e-23)
(0.0672959 -0.544443 -4.11071e-21)
(0.0916046 -0.595562 4.37046e-21)
(0.113948 -0.635406 -1.86379e-21)
(0.132597 -0.664599 8.14414e-22)
(0.146192 -0.684945 -1.42058e-21)
(0.154008 -0.698473 1.21434e-21)
(0.156325 -0.706588 -2.33767e-22)
(0.154755 -0.709158 -3.7816e-22)
(0.152489 -0.703826 -9.12663e-22)
(0.154068 -0.685966 1.13846e-21)
(0.164389 -0.649748 1.19427e-21)
(0.187018 -0.590294 -1.14784e-21)
(0.222719 -0.505894 -7.53391e-22)
(0.269346 -0.39879 4.60374e-23)
(0.323163 -0.273984 -2.89537e-22)
(0.380316 -0.137428 8.83793e-22)
(0.437876 0.00493778 -6.71614e-22)
(0.494114 0.146726 6.29709e-22)
(0.54789 0.28026 -1.03381e-21)
(0.597667 0.397102 -2.96643e-22)
(0.641468 0.490338 1.18536e-22)
(0.677379 0.556813 -3.61068e-23)
(0.704438 0.597689 -1.15611e-22)
(0.722479 0.617349 -6.79693e-22)
(0.732262 0.621836 6.30855e-22)
(0.734496 0.616955 3.96815e-22)
(0.730871 0.607122 -1.60074e-22)
(0.72127 0.596753 4.08642e-23)
(0.705187 0.591532 -1.66728e-22)
(0.679843 0.594585 -2.93216e-22)
(0.649446 0.596215 -6.24598e-22)
(0.618123 0.576042 -5.54748e-22)
(0.598806 0.507255 6.03047e-22)
(0.590228 0.387204 -9.62226e-22)
(0.601978 0.214984 9.28312e-22)
(0.618557 0.0371092 -3.30272e-22)
(0.654365 -0.15048 5.65367e-22)
(0.676415 -0.277293 6.24829e-22)
(0.717793 -0.390897 1.59441e-22)
(0.718982 -0.430836 -7.35695e-22)
(0.749182 -0.462949 -1.48223e-24)
(0.731546 -0.440862 -3.69604e-23)
(0.00851645 -0.268006 -5.91387e-21)
(0.0271862 -0.345232 4.42014e-21)
(0.0479167 -0.420545 3.15214e-21)
(0.0705044 -0.490645 -7.37554e-22)
(0.0941677 -0.552224 -1.1961e-20)
(0.117521 -0.602865 1.13687e-20)
(0.13879 -0.641682 -7.5966e-21)
(0.156237 -0.669401 -2.56571e-21)
(0.168478 -0.687999 3.83492e-22)
(0.17471 -0.699763 1.95372e-22)
(0.175033 -0.70643 -5.8284e-21)
(0.170796 -0.708254 7.74158e-21)
(0.16494 -0.70325 -5.27422e-22)
(0.161929 -0.686978 -6.68038e-21)
(0.166901 -0.653431 1.72636e-21)
(0.184 -0.597148 1.64052e-21)
(0.214673 -0.51566 -2.40631e-21)
(0.25724 -0.410647 1.48979e-21)
(0.30813 -0.28694 3.57268e-21)
(0.363468 -0.150631 -3.32814e-21)
(0.42018 -0.00794279 2.56236e-21)
(0.476326 0.134505 -1.76168e-21)
(0.530591 0.268981 7.82439e-22)
(0.581364 0.387109 9.74127e-22)
(0.626612 0.481986 1.79621e-22)
(0.664319 0.55033 -7.19886e-23)
(0.69336 0.593108 -5.53897e-22)
(0.713399 0.614535 -2.08085e-23)
(0.725063 0.620559 8.55489e-22)
(0.729005 0.616933 -6.91661e-22)
(0.726903 0.608133 -1.76504e-21)
(0.71855 0.598817 1.24028e-22)
(0.703451 0.594809 3.15871e-22)
(0.678994 0.598936 -1.83316e-22)
(0.649731 0.600861 2.693e-22)
(0.619865 0.579821 -7.45674e-22)
(0.602244 0.509228 -5.83403e-22)
(0.595159 0.387085 2.09988e-21)
(0.608132 0.213015 -2.36174e-21)
(0.625395 0.0337284 2.55805e-22)
(0.661574 -0.154308 -1.92084e-21)
(0.683337 -0.281237 -2.03673e-21)
(0.724401 -0.393611 3.45269e-22)
(0.724752 -0.432615 2.13702e-21)
(0.754198 -0.463771 3.47286e-22)
(0.735718 -0.439762 -1.60565e-22)
(0.03903 -0.273514 3.00585e-20)
(0.0572477 -0.351315 -2.08184e-20)
(0.0773694 -0.427229 4.04563e-22)
(0.0992134 -0.497767 9.99711e-21)
(0.121999 -0.559425 -1.68114e-21)
(0.144331 -0.609632 -2.33912e-21)
(0.164447 -0.647462 1.32755e-20)
(0.180627 -0.673736 -3.69285e-21)
(0.191489 -0.690587 5.14509e-21)
(0.196183 -0.700545 1.99162e-22)
(0.194651 -0.705652 -3.14302e-21)
(0.187974 -0.706551 -4.90577e-22)
(0.178797 -0.701662 8.14482e-21)
(0.171427 -0.686804 -1.36615e-21)
(0.171163 -0.655879 -3.26929e-21)
(0.182678 -0.602892 7.61083e-22)
(0.208137 -0.524585 9.52065e-22)
(0.246407 -0.421989 -4.72441e-21)
(0.294129 -0.299693 6.26854e-21)
(0.347428 -0.16389 -5.43754e-21)
(0.403107 -0.021071 -4.61617e-21)
(0.459018 0.121914 2.87851e-21)
(0.513671 0.257263 6.01261e-21)
(0.565358 0.376643 -2.84555e-21)
(0.611984 0.47315 4.22905e-22)
(0.651425 0.54338 -2.48704e-21)
(0.682406 0.588097 1.30545e-21)
(0.704415 0.611343 -7.43637e-22)
(0.717947 0.618961 -2.38719e-21)
(0.723602 0.616638 9.90113e-22)
(0.72303 0.608922 1.94901e-22)
(0.715935 0.600703 1.56228e-21)
(0.701839 0.597932 2.32644e-22)
(0.678307 0.603121 2.2639e-21)
(0.650229 0.605312 -1.3263e-21)
(0.621862 0.583404 2.87535e-21)
(0.605955 0.511045 -1.49595e-21)
(0.60037 0.38688 -2.44822e-21)
(0.614564 0.211023 2.05084e-21)
(0.632506 0.0303747 -2.48406e-21)
(0.66904 -0.158071 -1.68219e-22)
(0.690486 -0.2851 3.99584e-21)
(0.731199 -0.396234 -1.29007e-21)
(0.730689 -0.43429 -2.01938e-21)
(0.759359 -0.4645 -3.36454e-22)
(0.740005 -0.438613 2.96031e-22)
(0.0704317 -0.278404 9.32855e-21)
(0.0882276 -0.356755 5.61383e-21)
(0.10776 -0.433263 2.00435e-20)
(0.12886 -0.504256 -4.29016e-21)
(0.150737 -0.566028 -1.68617e-20)
(0.171989 -0.615844 1.69748e-20)
(0.190874 -0.652733 -2.15554e-21)
(0.205711 -0.6776 -1.14217e-20)
(0.215154 -0.692726 -2.65225e-21)
(0.218338 -0.700857 4.62384e-21)
(0.215069 -0.704317 -2.03886e-21)
(0.206167 -0.704125 8.98377e-21)
(0.19395 -0.699131 -1.24588e-20)
(0.182491 -0.685483 3.89933e-21)
(0.177154 -0.657087 -4.31232e-21)
(0.18308 -0.60748 2.83637e-21)
(0.20317 -0.532599 3.73252e-21)
(0.236916 -0.432745 -2.85194e-21)
(0.281235 -0.312178 -6.15515e-21)
(0.332273 -0.177153 4.26234e-21)
(0.386722 -0.0344068 -2.99065e-22)
(0.442247 0.108983 -5.27804e-21)
(0.497174 0.245128 -2.27079e-21)
(0.549684 0.365717 -3.80163e-22)
(0.597609 0.463841 -2.48204e-21)
(0.638719 0.535967 4.20416e-21)
(0.671589 0.582658 4.76749e-22)
(0.695535 0.607774 1.36844e-21)
(0.710922 0.617037 1.40561e-21)
(0.71829 0.616066 -4.95198e-23)
(0.719254 0.609482 1.31458e-22)
(0.713423 0.602405 -3.33388e-21)
(0.700352 0.600892 5.37645e-22)
(0.677783 0.607129 3.20704e-22)
(0.650936 0.609563 2.67745e-21)
(0.624107 0.586788 2.22231e-22)
(0.609935 0.512707 -1.22711e-21)
(0.605857 0.38659 1.78452e-21)
(0.621269 0.209013 -2.56756e-21)
(0.639886 0.0270505 3.94424e-21)
(0.676758 -0.161766 2.79846e-21)
(0.697859 -0.288876 -1.11064e-21)
(0.738184 -0.398763 5.64662e-21)
(0.736788 -0.435857 1.9381e-21)
(0.764659 -0.465133 1.51246e-21)
(0.744404 -0.437414 -2.20382e-22)
(0.102596 -0.282691 -4.04547e-20)
(0.120019 -0.361553 3.47797e-20)
(0.139003 -0.438641 -8.87435e-21)
(0.159375 -0.510104 2.89878e-21)
(0.180328 -0.572019 -2.63393e-20)
(0.200449 -0.621484 6.10938e-21)
(0.218026 -0.65748 1.04812e-20)
(0.23144 -0.680987 4.9989e-21)
(0.239412 -0.694428 -2.76927e-21)
(0.241091 -0.700734 3.72302e-21)
(0.236182 -0.702485 -9.1564e-21)
(0.225258 -0.701054 1.20963e-21)
(0.210284 -0.695734 1.02076e-20)
(0.195033 -0.683069 1.22562e-21)
(0.184835 -0.657064 1.94377e-21)
(0.18522 -0.610874 -1.08291e-20)
(0.19982 -0.539637 -4.04857e-22)
(0.22883 -0.442843 7.9359e-21)
(0.269516 -0.324331 -2.33116e-21)
(0.318072 -0.190367 -2.41049e-21)
(0.371093 -0.0479066 7.54227e-21)
(0.426069 0.0957421 -8.41063e-21)
(0.481142 0.232596 -3.37509e-21)
(0.534375 0.354348 4.18908e-21)
(0.583512 0.45407 1.80749e-21)
(0.62622 0.5281 1.12422e-21)
(0.660924 0.576795 -4.59329e-21)
(0.68677 0.603826 3.99773e-21)
(0.703993 0.614785 -9.57975e-22)
(0.713072 0.615214 9.47669e-22)
(0.715574 0.609809 -6.20068e-22)
(0.711015 0.603918 7.0374e-22)
(0.698987 0.60368 -1.44109e-21)
(0.677419 0.610952 -5.34892e-22)
(0.651849 0.613606 -3.81365e-21)
(0.626596 0.589971 -3.28194e-21)
(0.614176 0.514215 6.77881e-21)
(0.611613 0.386219 7.85521e-21)
(0.628241 0.206986 -3.49391e-21)
(0.647531 0.0237583 7.38291e-21)
(0.684725 -0.16539 -6.84458e-21)
(0.705453 -0.292562 3.32114e-21)
(0.745349 -0.401194 -3.52175e-21)
(0.743046 -0.437316 5.0256e-22)
(0.770096 -0.465668 -2.11238e-22)
(0.748911 -0.436165 -2.32163e-22)
(0.135394 -0.286389 -3.93396e-20)
(0.152512 -0.365719 -1.51355e-20)
(0.171006 -0.443369 6.80084e-20)
(0.190686 -0.515307 -2.41009e-20)
(0.210711 -0.577387 -9.13594e-21)
(0.229659 -0.626536 5.17397e-20)
(0.245855 -0.661687 -3.8924e-21)
(0.257766 -0.683891 -2.78118e-20)
(0.264204 -0.695697 3.51202e-20)
(0.264368 -0.700205 -3.1685e-20)
(0.257895 -0.700211 1.84269e-21)
(0.24513 -0.697416 -3.30448e-21)
(0.227679 -0.691558 6.06065e-21)
(0.208954 -0.679628 -3.18172e-21)
(0.194153 -0.655835 -1.21672e-21)
(0.189099 -0.613048 5.24784e-21)
(0.198128 -0.545638 9.00005e-21)
(0.222207 -0.452213 -2.79474e-22)
(0.259037 -0.336088 -6.02491e-21)
(0.30489 -0.203473 -9.08703e-21)
(0.35628 -0.0615247 -2.26898e-21)
(0.410536 0.0822272 4.12489e-21)
(0.46562 0.219693 1.39105e-20)
(0.519464 0.342552 3.21657e-21)
(0.56972 0.443849 -1.18023e-20)
(0.613946 0.519785 1.14393e-20)
(0.650423 0.570511 -1.96649e-22)
(0.678128 0.599501 -3.16114e-21)
(0.697166 0.612203 -4.18551e-22)
(0.70795 0.614079 -2.58954e-22)
(0.711992 0.6099 -2.51041e-21)
(0.70871 0.605236 5.09705e-21)
(0.697744 0.60629 2.19376e-21)
(0.677212 0.614583 -2.38533e-21)
(0.652964 0.617434 4.24032e-21)
(0.629324 0.592949 -3.10251e-21)
(0.618672 0.515569 -3.96882e-21)
(0.617632 0.385767 -1.19506e-20)
(0.635475 0.204944 3.84897e-21)
(0.655435 0.0205002 -1.0062e-21)
(0.692935 -0.168938 6.61799e-21)
(0.713261 -0.296154 -1.7096e-21)
(0.752691 -0.403524 -4.29152e-21)
(0.749456 -0.438663 -2.63705e-21)
(0.775663 -0.466101 -4.61189e-22)
(0.75352 -0.434864 4.43419e-22)
(0.168694 -0.289521 3.54981e-20)
(0.185593 -0.369272 4.89636e-20)
(0.203675 -0.447459 1.33026e-20)
(0.222713 -0.519867 -3.17453e-20)
(0.241822 -0.582124 8.64982e-21)
(0.259564 -0.630986 5.11975e-21)
(0.274314 -0.665339 -2.36005e-20)
(0.28464 -0.686299 2.28095e-21)
(0.289477 -0.696537 3.7052e-20)
(0.288101 -0.699293 -2.9119e-20)
(0.280116 -0.697544 1.02287e-21)
(0.265671 -0.693285 2.45545e-20)
(0.246012 -0.68669 -2.3536e-20)
(0.224144 -0.675238 2.88359e-21)
(0.205038 -0.65344 6.88339e-22)
(0.1947 -0.613992 1.75538e-20)
(0.198123 -0.550549 -2.74114e-20)
(0.217097 -0.460785 1.74073e-20)
(0.249852 -0.347381 -1.99376e-21)
(0.292787 -0.216415 7.0088e-21)
(0.342343 -0.0752142 -8.73525e-21)
(0.395701 0.0684753 -1.74236e-20)
(0.45065 0.206446 2.49204e-21)
(0.504984 0.330351 -4.6618e-21)
(0.556257 0.433192 -1.618e-21)
(0.601917 0.511032 3.93922e-24)
(0.640101 0.563811 -4.24863e-21)
(0.669618 0.594799 2.97593e-21)
(0.690447 0.609289 5.3405e-22)
(0.702927 0.612656 1.95372e-21)
(0.708506 0.609751 -4.4134e-22)
(0.706505 0.606353 -6.76887e-21)
(0.696621 0.608713 -4.204e-21)
(0.677162 0.618011 -7.29945e-22)
(0.654277 0.621043 -3.76431e-21)
(0.632284 0.595721 -5.55484e-22)
(0.623416 0.516771 2.57141e-21)
(0.623905 0.385236 1.00404e-21)
(0.642962 0.202891 4.98867e-21)
(0.66359 0.0172774 -1.38553e-20)
(0.701381 -0.172409 5.60924e-21)
(0.721281 -0.299647 2.91069e-22)
(0.760203 -0.405749 1.77325e-21)
(0.756014 -0.439897 6.51277e-22)
(0.781357 -0.466431 -7.08453e-22)
(0.758227 -0.433509 2.78685e-23)
(0.202368 -0.292117 -7.15931e-20)
(0.21915 -0.372236 -1.70883e-20)
(0.236915 -0.450928 5.98319e-20)
(0.255378 -0.523791 -5.59878e-20)
(0.273594 -0.586227 4.55712e-20)
(0.290106 -0.634822 -2.58563e-20)
(0.303348 -0.668419 -2.616e-20)
(0.312013 -0.688201 3.20337e-22)
(0.315179 -0.696947 2.23726e-20)
(0.312228 -0.698014 -2.33451e-20)
(0.302765 -0.694529 1.6818e-20)
(0.286775 -0.688734 -7.33078e-21)
(0.265161 -0.681221 1.26568e-20)
(0.240487 -0.669987 -1.36556e-20)
(0.217406 -0.649932 4.36331e-21)
(0.201993 -0.613706 1.58592e-20)
(0.199823 -0.554325 -1.458e-20)
(0.213544 -0.468493 -1.63485e-20)
(0.242013 -0.358143 8.92202e-21)
(0.281817 -0.229132 9.75388e-21)
(0.329336 -0.0889249 1.051e-20)
(0.381612 0.0545263 -4.89138e-21)
(0.436271 0.192886 1.11295e-21)
(0.490967 0.317766 4.22782e-21)
(0.543149 0.422115 3.55981e-21)
(0.590152 0.501852 -1.5607e-21)
(0.629971 0.556701 2.87554e-21)
(0.66125 0.589722 1.39532e-22)
(0.683841 0.606043 -8.77001e-22)
(0.698005 0.610945 1.12929e-21)
(0.705118 0.609359 5.19009e-21)
(0.7044 0.607264 -5.05146e-22)
(0.695614 0.610942 7.55754e-21)
(0.677263 0.621231 -1.18416e-21)
(0.655782 0.624426 6.39652e-21)
(0.635469 0.598285 -3.31157e-21)
(0.6284 0.517821 -5.45054e-21)
(0.630426 0.384628 2.03947e-21)
(0.650697 0.200827 2.34913e-21)
(0.671992 0.0140951 -9.81706e-22)
(0.710059 -0.175797 -7.44838e-21)
(0.729506 -0.303038 -7.61329e-22)
(0.767879 -0.407866 9.94651e-21)
(0.762714 -0.441015 -1.83972e-21)
(0.787171 -0.466654 -8.78512e-24)
(0.763027 -0.432099 1.87766e-22)
(0.236292 -0.294212 -1.96317e-20)
(0.253075 -0.374645 -5.08632e-20)
(0.27063 -0.4538 9.14669e-21)
(0.288598 -0.527092 3.94503e-20)
(0.305954 -0.589695 -1.84721e-20)
(0.321222 -0.638036 1.44918e-21)
(0.332903 -0.670916 -2.14208e-20)
(0.339833 -0.689584 1.76583e-20)
(0.341259 -0.696921 1.5956e-20)
(0.33669 -0.696382 8.89789e-21)
(0.325766 -0.6912 -2.75791e-20)
(0.308344 -0.683829 3.32288e-20)
(0.285006 -0.675241 -1.57119e-20)
(0.257859 -0.663967 1.3255e-20)
(0.231158 -0.645381 -8.50361e-21)
(0.21093 -0.612209 1.48632e-20)
(0.203234 -0.556931 2.57084e-21)
(0.211583 -0.475271 7.88493e-21)
(0.235565 -0.368305 -1.15069e-20)
(0.272027 -0.241563 -1.74068e-20)
(0.317307 -0.102603 4.58561e-21)
(0.368316 0.0404227 8.96994e-21)
(0.422524 0.179046 1.00076e-20)
(0.477445 0.304822 -6.96529e-21)
(0.530418 0.410637 -5.36535e-21)
(0.578668 0.492257 -1.31813e-20)
(0.620044 0.549189 7.80308e-21)
(0.653031 0.584274 -1.6616e-21)
(0.677352 0.602464 -3.06428e-21)
(0.693186 0.608942 7.17404e-22)
(0.701825 0.60872 -7.44866e-21)
(0.702393 0.607965 -2.77847e-21)
(0.694723 0.612971 -2.40272e-21)
(0.677512 0.624235 4.48834e-21)
(0.657474 0.627579 -5.69784e-21)
(0.638873 0.600638 2.0873e-21)
(0.633615 0.51872 8.30567e-22)
(0.637186 0.383945 -8.40764e-22)
(0.65867 0.198754 6.36438e-21)
(0.680632 0.0109666 -2.63454e-21)
(0.718959 -0.179102 -6.09669e-21)
(0.737931 -0.306322 -9.34337e-21)
(0.775713 -0.409872 -1.38672e-20)
(0.76955 -0.442014 -3.2631e-21)
(0.793101 -0.466769 -3.13399e-21)
(0.767916 -0.430633 -4.21458e-22)
(0.287262 -0.376537 -2.46444e-20)
(0.304728 -0.456105 1.44796e-20)
(0.322288 -0.529785 -2.88656e-22)
(0.338827 -0.592533 1.46967e-20)
(0.352842 -0.64062 -1.31162e-20)
(0.362916 -0.672816 1.25773e-20)
(0.368046 -0.690437 -8.28093e-21)
(0.367666 -0.696457 -1.05413e-22)
(0.361435 -0.694403 -7.79391e-21)
(0.349051 -0.68759 1.22836e-20)
(0.330285 -0.67863 2.00737e-21)
(0.305431 -0.668839 -5.86442e-21)
(0.276134 -0.657279 -2.44802e-20)
(0.246186 -0.639866 5.44902e-21)
(0.221447 -0.609533 -3.88701e-21)
(0.208348 -0.558343 8.57517e-21)
(0.211244 -0.481059 -1.50576e-20)
(0.230547 -0.3778 1.98373e-20)
(0.263459 -0.253647 -1.19801e-21)
(0.3063 -0.116196 -2.44136e-21)
(0.355855 0.0262085 -6.13071e-21)
(0.409444 0.164961 -9.62086e-22)
(0.464446 0.291546 -6.66967e-21)
(0.518088 0.398775 1.14526e-20)
(0.567481 0.482259 5.54453e-21)
(0.610335 0.541282 5.61136e-21)
(0.644969 0.578458 -1.1101e-20)
(0.670986 0.598552 2.08174e-21)
(0.688472 0.606647 7.89869e-22)
(0.698628 0.607832 1.53918e-21)
(0.70048 0.608451 3.13891e-21)
(0.693942 0.614792 1.51482e-21)
(0.677904 0.627016 3.95565e-21)
(0.659347 0.630496 5.66517e-21)
(0.642486 0.60278 -8.64032e-21)
(0.639054 0.519467 1.569e-20)
(0.644177 0.383187 2.32498e-21)
(0.666876 0.196674 -2.10304e-20)
(0.689502 0.00786514 1.64725e-20)
(0.728075 -0.182319 1.73531e-21)
(0.74655 -0.309496 1.36598e-20)
(0.783697 -0.411763 2.82272e-21)
(0.776516 -0.442894 2.59027e-21)
(0.799141 -0.466772 1.49233e-21)
(0.772888 -0.429109 9.51747e-22)
(0.321616 -0.377955 9.74003e-20)
(0.339121 -0.457876 -1.26978e-19)
(0.356369 -0.531892 -4.53051e-20)
(0.372137 -0.594748 1.23565e-19)
(0.384896 -0.642571 -3.13029e-21)
(0.393322 -0.674111 -4.19705e-20)
(0.396595 -0.690751 2.70992e-20)
(0.394349 -0.695546 -1.1138e-20)
(0.38641 -0.692084 -1.8194e-20)
(0.37256 -0.683723 6.67399e-21)
(0.352516 -0.673191 -2.28163e-20)
(0.326325 -0.662098 3.19077e-20)
(0.295183 -0.650025 -1.02318e-20)
(0.262371 -0.633479 -9.55752e-22)
(0.233465 -0.605727 8.2271e-21)
(0.21514 -0.55855 -3.71789e-21)
(0.212546 -0.485802 1.97408e-22)
(0.226994 -0.386557 -6.61576e-21)
(0.25615 -0.26532 6.12846e-21)
(0.296354 -0.129649 1.25062e-20)
(0.344266 0.0119302 -9.60621e-21)
(0.397066 0.150667 1.34407e-20)
(0.451999 0.277966 -3.52033e-21)
(0.506182 0.386552 -1.61537e-20)
(0.55661 0.471874 1.16202e-20)
(0.600853 0.532989 -1.24653e-21)
(0.637073 0.572278 2.01066e-21)
(0.664747 0.594309 -5.84661e-21)
(0.683863 0.604059 8.17065e-21)
(0.695524 0.606692 -3.8937e-21)
(0.69866 0.608717 -5.85208e-22)
(0.693269 0.6164 -5.86824e-21)
(0.678435 0.629567 -6.77581e-21)
(0.661393 0.633173 -1.21725e-21)
(0.6463 0.604709 2.41169e-21)
(0.644707 0.520065 -2.09462e-20)
(0.651389 0.382356 -8.36604e-21)
(0.675301 0.194589 1.31847e-20)
(0.698596 0.0047922 -3.96314e-21)
(0.737401 -0.185448 8.55305e-21)
(0.755355 -0.312556 -1.39041e-20)
(0.791826 -0.413536 -6.0813e-21)
(0.783605 -0.443651 4.91611e-21)
(0.805285 -0.466661 2.31739e-21)
(0.77794 -0.427527 -7.30964e-22)
(0.35605 -0.378946 -2.83732e-20)
(0.373727 -0.459151 -1.34337e-20)
(0.390761 -0.533437 -1.71677e-20)
(0.405805 -0.596348 5.74983e-20)
(0.417309 -0.643887 4.4843e-20)
(0.424053 -0.674793 -6.75838e-20)
(0.425417 -0.690514 8.86547e-20)
(0.421252 -0.694184 -3.30993e-20)
(0.411565 -0.689427 -2.71242e-20)
(0.396235 -0.679617 9.70414e-21)
(0.37496 -0.667555 3.12611e-21)
(0.347585 -0.655096 -4.53131e-21)
(0.314881 -0.642306 -1.22994e-20)
(0.279585 -0.626321 6.05892e-21)
(0.246891 -0.600854 8.41533e-21)
(0.223573 -0.557557 6.42594e-21)
(0.215498 -0.489452 -2.96435e-21)
(0.224935 -0.394511 -2.24827e-21)
(0.25013 -0.276517 -8.67266e-22)
(0.2875 -0.142907 -6.0618e-21)
(0.333583 -0.00236039 3.07828e-21)
(0.385419 0.136202 -1.5693e-20)
(0.44013 0.264111 2.16255e-20)
(0.494719 0.373989 -2.50641e-21)
(0.546069 0.461116 -5.49021e-21)
(0.591611 0.524321 -8.70204e-21)
(0.62935 0.56574 1.24863e-21)
(0.658638 0.589736 -1.45518e-21)
(0.67936 0.601177 7.30029e-22)
(0.692513 0.605299 4.09269e-21)
(0.69693 0.608759 -3.42543e-21)
(0.6927 0.617788 6.31071e-21)
(0.6791 0.631883 1.78754e-21)
(0.663606 0.635608 -5.28755e-22)
(0.650307 0.606424 6.91508e-21)
(0.650563 0.520513 2.87856e-20)
(0.658812 0.381453 5.37239e-21)
(0.683939 0.192499 1.62195e-20)
(0.707903 0.00177732 7.76774e-21)
(0.746927 -0.188485 -1.44346e-20)
(0.764341 -0.315499 4.58856e-21)
(0.800091 -0.415186 1.45401e-20)
(0.790812 -0.444284 -8.07784e-21)
(0.811526 -0.466434 -1.21577e-21)
(0.783064 -0.425885 -1.05359e-22)
(0.390492 -0.37956 1.41786e-20)
(0.408472 -0.459969 9.85714e-20)
(0.425387 -0.534444 -5.20646e-20)
(0.439755 -0.597345 -1.4823e-20)
(0.450004 -0.644569 -2.10505e-21)
(0.455036 -0.674855 -2.00317e-20)
(0.454447 -0.689722 8.42498e-20)
(0.448321 -0.692366 -5.32032e-20)
(0.436849 -0.686431 1.08441e-20)
(0.420022 -0.675286 -3.2146e-20)
(0.39755 -0.661762 7.57287e-21)
(0.369116 -0.647903 1.68669e-20)
(0.335105 -0.634222 -7.55129e-21)
(0.297699 -0.618498 -4.22706e-21)
(0.261616 -0.594991 7.11599e-21)
(0.233592 -0.555382 -6.76279e-21)
(0.2201 -0.491973 -6.23103e-22)
(0.224394 -0.401593 8.65929e-21)
(0.245428 -0.287171 -7.41685e-21)
(0.279768 -0.155911 1.73341e-20)
(0.323834 -0.0166169 -5.99245e-22)
(0.374532 0.121607 -1.74912e-21)
(0.428862 0.250014 -8.94316e-21)
(0.483719 0.361111 -7.98683e-21)
(0.535874 0.450005 2.95851e-21)
(0.582619 0.515288 4.36374e-21)
(0.621807 0.558849 4.90803e-21)
(0.652664 0.584836 3.86483e-21)
(0.674964 0.598002 -1.00679e-21)
(0.689592 0.603651 -2.69005e-21)
(0.695286 0.608573 2.51455e-21)
(0.69223 0.618951 1.44232e-21)
(0.679891 0.633959 9.61043e-22)
(0.665977 0.637796 -1.63947e-21)
(0.654497 0.607924 1.66517e-21)
(0.656614 0.520813 -5.27356e-21)
(0.666437 0.380478 -3.81338e-21)
(0.69278 0.190406 -1.41187e-20)
(0.717415 -0.00118957 -8.86479e-21)
(0.756644 -0.191427 1.05322e-20)
(0.773499 -0.31832 1.37272e-20)
(0.808485 -0.416712 -1.28156e-20)
(0.798129 -0.444792 4.20488e-21)
(0.817859 -0.466088 2.87068e-21)
(0.788258 -0.424181 5.72645e-22)
(0.424881 -0.379846 -1.20513e-20)
(0.443292 -0.46037 -8.98225e-21)
(0.460178 -0.53494 -8.30088e-20)
(0.47391 -0.597752 1.14469e-19)
(0.482901 -0.644618 -7.59798e-20)
(0.486195 -0.674294 1.30651e-19)
(0.483619 -0.688368 -7.13132e-20)
(0.475498 -0.690086 4.77864e-20)
(0.462212 -0.683098 -2.38014e-20)
(0.443875 -0.67074 -9.26227e-21)
(0.420224 -0.655841 -1.37318e-20)
(0.390829 -0.640582 3.59927e-20)
(0.355738 -0.625868 -2.56435e-21)
(0.31658 -0.610119 -8.66403e-21)
(0.277523 -0.588229 6.76253e-21)
(0.245127 -0.552063 -2.6437e-22)
(0.226338 -0.493338 -1.52373e-20)
(0.22539 -0.407743 -5.06053e-21)
(0.242066 -0.297216 1.50021e-21)
(0.273179 -0.168605 -1.72944e-21)
(0.315044 -0.0308027 -5.81593e-21)
(0.364429 0.106923 9.43376e-21)
(0.418219 0.235706 -3.35159e-22)
(0.473201 0.347942 -5.57161e-21)
(0.526038 0.438556 -1.86779e-21)
(0.573887 0.505903 -1.31601e-21)
(0.614449 0.551612 -1.74435e-21)
(0.646828 0.579611 -1.16313e-21)
(0.670676 0.594534 2.03257e-21)
(0.68676 0.601747 2.61827e-21)
(0.693724 0.608157 -2.80543e-21)
(0.691855 0.619885 -4.5135e-21)
(0.680805 0.635789 7.98356e-21)
(0.668498 0.639733 -5.36445e-21)
(0.65886 0.609207 -1.27698e-20)
(0.662847 0.520964 -5.33198e-21)
(0.674252 0.379433 -7.76305e-21)
(0.701814 0.18831 -1.30389e-20)
(0.727122 -0.00411018 -1.0572e-20)
(0.766544 -0.194273 -1.36762e-21)
(0.782821 -0.321016 -1.96297e-20)
(0.816999 -0.41811 1.19695e-20)
(0.805549 -0.445172 1.67172e-23)
(0.824277 -0.465623 -8.85639e-23)
(0.793514 -0.422416 -1.71494e-21)
(0.459174 -0.379856 7.87161e-20)
(0.478133 -0.460394 6.82038e-20)
(0.495066 -0.534951 -2.30086e-20)
(0.508192 -0.597581 -8.70591e-20)
(0.51592 -0.644037 1.76725e-20)
(0.517451 -0.673109 -4.13119e-20)
(0.512863 -0.686449 8.21302e-20)
(0.502724 -0.687344 -5.32137e-20)
(0.487606 -0.679428 2.39462e-20)
(0.467744 -0.665988 1.98793e-20)
(0.442927 -0.649818 -2.22763e-20)
(0.412649 -0.633186 3.6231e-22)
(0.37667 -0.617333 -2.96301e-20)
(0.336094 -0.601296 2.33883e-20)
(0.294484 -0.580668 2.21262e-20)
(0.25809 -0.54765 -2.13263e-20)
(0.234183 -0.493533 -9.5381e-21)
(0.227936 -0.412901 3.59999e-20)
(0.240066 -0.306584 -2.03202e-20)
(0.267752 -0.180928 -1.83053e-20)
(0.307233 -0.0448612 -4.85332e-21)
(0.355132 0.0921903 3.46982e-21)
(0.408219 0.221223 -2.48294e-21)
(0.463181 0.334508 -4.76944e-21)
(0.516574 0.42679 2.31845e-22)
(0.565424 0.496179 5.46613e-21)
(0.607285 0.544037 -3.92381e-21)
(0.641133 0.574065 1.81788e-21)
(0.666495 0.590774 -6.85565e-21)
(0.684013 0.599585 1.49948e-21)
(0.692242 0.607507 2.08021e-21)
(0.691569 0.620583 1.86233e-21)
(0.681833 0.637369 -9.11282e-22)
(0.671161 0.641419 5.27877e-21)
(0.663387 0.610274 -9.38748e-21)
(0.669253 0.520968 1.11375e-20)
(0.682247 0.378318 1.38474e-20)
(0.711031 0.186213 1.85918e-20)
(0.737016 -0.00698289 3.1432e-21)
(0.776616 -0.197022 -1.11405e-20)
(0.792299 -0.323585 7.29647e-21)
(0.825625 -0.419376 1.33271e-21)
(0.813064 -0.445423 3.38256e-21)
(0.830774 -0.465035 -5.81029e-21)
(0.798828 -0.420587 2.23407e-22)
(0.493338 -0.379638 -3.28797e-22)
(0.512948 -0.460079 -6.77541e-20)
(0.52999 -0.534501 -3.45371e-20)
(0.542527 -0.596843 -3.00386e-20)
(0.548979 -0.642831 -1.14589e-20)
(0.548726 -0.671299 -2.42673e-20)
(0.542106 -0.683965 3.02223e-21)
(0.529937 -0.684138 6.84526e-21)
(0.512978 -0.675421 -1.94691e-20)
(0.491586 -0.661033 3.11802e-20)
(0.465609 -0.643711 -2.29908e-20)
(0.434504 -0.625761 3.34555e-21)
(0.397801 -0.608697 1.43605e-20)
(0.356111 -0.592139 -2.50014e-20)
(0.312367 -0.572418 2.01731e-20)
(0.272381 -0.542211 -1.22638e-20)
(0.243595 -0.49256 2.16742e-20)
(0.232036 -0.417016 -2.38631e-21)
(0.239447 -0.315205 -7.32162e-21)
(0.263503 -0.192818 -3.82331e-21)
(0.300416 -0.058735 3.67769e-20)
(0.346657 0.0774533 -1.99912e-20)
(0.398879 0.206598 9.20665e-21)
(0.453674 0.320838 -1.85127e-21)
(0.507495 0.414727 4.20907e-23)
(0.557239 0.486128 2.2089e-21)
(0.600318 0.536132 -2.66041e-21)
(0.635581 0.568203 5.64813e-21)
(0.66242 0.586725 7.08863e-21)
(0.68135 0.597166 -1.61415e-21)
(0.690834 0.60662 -1.10726e-20)
(0.691368 0.621043 9.11992e-21)
(0.682968 0.638696 -4.83378e-21)
(0.673957 0.64285 -1.8946e-20)
(0.668066 0.611124 1.6186e-20)
(0.67582 0.520824 -1.6764e-20)
(0.69041 0.377133 -1.55854e-20)
(0.720419 0.184115 -1.2465e-20)
(0.747086 -0.00980689 -1.48293e-20)
(0.786851 -0.199671 1.44232e-20)
(0.801924 -0.326022 4.74151e-21)
(0.834354 -0.420507 -1.33625e-20)
(0.820668 -0.445544 -5.49265e-21)
(0.837341 -0.464323 3.91809e-21)
(0.804195 -0.418694 9.67065e-22)
(0.527357 -0.379237 -1.78092e-19)
(0.547703 -0.45946 1.59247e-19)
(0.564893 -0.533613 -1.17061e-19)
(0.576841 -0.595551 -3.87607e-20)
(0.581997 -0.641003 8.25364e-20)
(0.579938 -0.668868 7.53961e-20)
(0.571276 -0.680919 -9.79766e-20)
(0.557077 -0.68047 6.43235e-20)
(0.53828 -0.671079 -4.66557e-20)
(0.515358 -0.65588 1.02229e-20)
(0.488226 -0.637532 3.09543e-20)
(0.456334 -0.618342 1.27236e-21)
(0.419036 -0.600033 -3.77617e-21)
(0.376507 -0.582754 1.48291e-21)
(0.331032 -0.563592 1.53689e-21)
(0.287887 -0.535829 -4.12674e-22)
(0.254515 -0.490435 3.12449e-21)
(0.237687 -0.420045 -6.06927e-21)
(0.240224 -0.323013 -2.82501e-21)
(0.260446 -0.204211 -7.43669e-21)
(0.294605 -0.0723757 1.40122e-21)
(0.339018 0.0627551 -2.49505e-21)
(0.390214 0.191868 -2.54258e-21)
(0.444693 0.306959 7.71588e-22)
(0.49881 0.402388 1.07241e-20)
(0.549341 0.475766 -3.25366e-21)
(0.593556 0.527906 -1.08093e-21)
(0.630175 0.562029 3.19139e-21)
(0.658452 0.582388 -1.08027e-21)
(0.678767 0.594489 -1.58023e-21)
(0.689497 0.605494 -6.0781e-21)
(0.691246 0.621261 8.65562e-21)
(0.684205 0.639766 -2.94713e-21)
(0.676877 0.644024 1.27227e-20)
(0.672888 0.611756 -6.18638e-22)
(0.682536 0.520533 1.45203e-20)
(0.698731 0.375879 1.79548e-20)
(0.729968 0.182016 -1.22668e-20)
(0.757322 -0.0125815 1.26439e-20)
(0.797238 -0.202219 4.86775e-21)
(0.811687 -0.328325 8.20955e-21)
(0.843178 -0.421502 6.97071e-21)
(0.828352 -0.445534 -1.91475e-21)
(0.843973 -0.463485 4.47987e-21)
(0.809609 -0.416737 -3.12311e-22)
(0.561229 -0.378693 2.40489e-20)
(0.582367 -0.458566 2.64483e-20)
(0.59972 -0.532304 -3.8998e-20)
(0.61106 -0.593714 1.21633e-19)
(0.61489 -0.63856 -1.16665e-19)
(0.611006 -0.665819 6.11062e-20)
(0.600299 -0.677313 -5.82592e-20)
(0.584081 -0.676345 3.10945e-20)
(0.563459 -0.666405 6.09391e-21)
(0.539017 -0.650532 -1.51253e-20)
(0.510736 -0.631292 5.86801e-21)
(0.478084 -0.610958 7.30853e-21)
(0.440295 -0.591403 1.38522e-21)
(0.397163 -0.573239 -1.50874e-21)
(0.350342 -0.554309 -9.20097e-21)
(0.304484 -0.528598 -1.00201e-20)
(0.26687 -0.487195 1.17392e-20)
(0.244875 -0.421957 -1.27516e-20)
(0.242413 -0.329942 -3.38833e-21)
(0.258595 -0.215042 1.70418e-20)
(0.289811 -0.0857266 1.44575e-20)
(0.332226 0.0481401 -1.61321e-20)
(0.382236 0.177069 1.35992e-20)
(0.436249 0.292901 -1.01597e-21)
(0.490531 0.389795 -2.56943e-21)
(0.541737 0.465109 4.07317e-21)
(0.587001 0.519369 -1.70539e-21)
(0.624916 0.55555 -4.87116e-21)
(0.654589 0.577767 6.46576e-21)
(0.676262 0.591556 4.14311e-22)
(0.688226 0.604128 1.39518e-20)
(0.691196 0.621234 -4.2001e-21)
(0.685534 0.640575 -4.17498e-22)
(0.679911 0.64494 -6.90131e-21)
(0.677841 0.61217 -1.07549e-20)
(0.689391 0.520097 -7.6284e-21)
(0.707196 0.374556 -5.40391e-21)
(0.739668 0.179916 1.95824e-20)
(0.767714 -0.0153062 2.23746e-20)
(0.807768 -0.204664 -1.94691e-20)
(0.821579 -0.330491 1.51433e-21)
(0.852088 -0.422356 -5.09035e-21)
(0.836109 -0.445391 6.63622e-21)
(0.850661 -0.462519 -8.09926e-21)
(0.815064 -0.414714 -3.42298e-22)
(0.594961 -0.378041 3.2861e-20)
(0.616919 -0.457422 -1.14306e-20)
(0.63442 -0.530588 3.95582e-20)
(0.645111 -0.591339 -9.81405e-21)
(0.647576 -0.635507 -5.8032e-20)
(0.641849 -0.662158 6.12714e-20)
(0.629103 -0.673156 -2.54058e-20)
(0.610888 -0.671769 6.37922e-21)
(0.588468 -0.661403 -4.95152e-20)
(0.562523 -0.644992 2.94174e-20)
(0.533102 -0.624996 -2.02175e-20)
(0.499708 -0.60363 1.60352e-20)
(0.461505 -0.582858 1.48241e-21)
(0.417971 -0.563686 5.97891e-21)
(0.37016 -0.544686 1.03667e-21)
(0.322039 -0.520624 8.53856e-21)
(0.280571 -0.48289 1.2584e-21)
(0.253572 -0.422733 -4.39154e-21)
(0.246022 -0.33593 5.97939e-21)
(0.257963 -0.225244 -3.84715e-21)
(0.286041 -0.0987327 -6.01599e-21)
(0.326287 0.0336531 1.46889e-20)
(0.374952 0.162238 -3.97496e-21)
(0.428352 0.278692 -1.24444e-20)
(0.482664 0.376971 -6.47806e-21)
(0.534433 0.454172 -2.79833e-21)
(0.58066 0.510531 3.22746e-21)
(0.619807 0.548771 1.69365e-21)
(0.65083 0.572864 -8.19242e-21)
(0.67383 0.588366 5.41561e-21)
(0.687017 0.602519 -1.20866e-20)
(0.691213 0.620958 4.335e-21)
(0.686949 0.641123 -1.01657e-20)
(0.68305 0.645597 6.575e-21)
(0.682913 0.612367 -1.54195e-21)
(0.696371 0.519515 2.11395e-20)
(0.715794 0.373163 -6.06346e-21)
(0.749506 0.177816 -8.59891e-21)
(0.778251 -0.0179806 -2.08936e-20)
(0.818429 -0.207006 2.63967e-21)
(0.83159 -0.332517 -1.60008e-22)
(0.861073 -0.423067 8.41031e-21)
(0.84393 -0.445114 1.33109e-20)
(0.857399 -0.461425 -2.27971e-21)
(0.820556 -0.412625 -2.73518e-22)
(0.628568 -0.377308 6.12036e-20)
(0.651341 -0.456045 7.2215e-20)
(0.66894 -0.528475 -2.05859e-20)
(0.67892 -0.58843 -4.14454e-20)
(0.679972 -0.631847 -1.28981e-20)
(0.672385 -0.657892 5.62198e-21)
(0.657617 -0.668455 2.77831e-20)
(0.637438 -0.666751 -7.40907e-20)
(0.613256 -0.656081 -8.72951e-21)
(0.585835 -0.639263 2.27627e-20)
(0.555288 -0.618648 2.73e-20)
(0.521166 -0.596373 -7.54051e-21)
(0.482601 -0.574441 2.00279e-21)
(0.438831 -0.554178 -1.85732e-20)
(0.390353 -0.534837 -9.30469e-21)
(0.340412 -0.512022 8.88868e-21)
(0.295516 -0.477587 -5.86194e-21)
(0.263738 -0.422369 1.02808e-20)
(0.251058 -0.340921 1.56939e-20)
(0.258564 -0.23475 -1.42246e-20)
(0.283302 -0.111337 3.25842e-21)
(0.321206 0.019339 -4.73891e-21)
(0.36837 0.147412 2.14263e-20)
(0.421009 0.264364 -5.85058e-21)
(0.475218 0.363939 8.07556e-22)
(0.527436 0.442972 -1.21589e-20)