/*--------------------------------*- C++ -*----------------------------------*\
  =========                 |
  \\      /  F ield         | OpenFOAM: The Open Source CFD Toolbox
   \\    /   O peration     | Website:  https://openfoam.org
    \\  /    A nd           | Version:  7
     \\/     M anipulation  |
\*---------------------------------------------------------------------------*/
FoamFile
{
    version     2.0;
    format      ascii;
    class       volVectorField;
    location    "90";
    object      U;
}
// * * * * * * * * * * * * * * * * * * * * * * * * * * * * * * * * * * * * * //

dimensions      [0 1 -1 0 0 0 0];

internalField   nonuniform List<vector> 
8500
(
(0.334384 0.685088 -5.58255e-22)
(0.349596 0.694811 4.24837e-22)
(0.348334 0.697655 -9.60717e-22)
(0.333141 0.696678 2.07584e-22)
(0.314295 0.682284 4.94141e-22)
(0.309915 0.632142 -9.46189e-23)
(0.33585 0.525502 -3.10116e-22)
(0.392273 0.361291 5.06194e-22)
(0.467534 0.158826 -1.72254e-22)
(0.549951 -0.0539758 6.49309e-22)
(0.630508 -0.248571 -1.46386e-22)
(0.701303 -0.402503 6.1746e-23)
(0.7566 -0.50565 8.7805e-22)
(0.794281 -0.561622 -9.83588e-22)
(0.814763 -0.583162 -8.13682e-23)
(0.8208 -0.583527 4.58807e-22)
(0.817321 -0.57196 5.38014e-23)
(0.80503 -0.559737 7.39659e-23)
(0.779214 -0.560372 -1.61133e-22)
(0.738532 -0.568244 2.61219e-22)
(0.694718 -0.549084 -3.81903e-22)
(0.666993 -0.457726 5.14666e-22)
(0.667787 -0.285871 5.35434e-22)
(0.696566 -0.0641027 1.18446e-22)
(0.743168 0.147675 -2.93113e-22)
(0.792957 0.315116 -4.69515e-22)
(0.83359 0.418955 2.15708e-22)
(0.860755 0.47142 5.53717e-22)
(0.877341 0.483968 -4.56819e-22)
(0.877217 0.488252 -7.78531e-23)
(0.859281 0.506437 2.00632e-22)
(0.821047 0.516387 2.9528e-23)
(0.780677 0.492313 -2.71205e-22)
(0.749009 0.36932 7.66936e-23)
(0.737005 0.206218 1.62585e-22)
(0.748002 -0.0189339 -2.83417e-22)
(0.775247 -0.166233 -1.14617e-22)
(0.807356 -0.310842 -1.4506e-22)
(0.837848 -0.358396 7.47068e-23)
(0.832567 -0.409044 -6.42591e-24)
(0.817828 -0.440941 3.10576e-23)
(0.771067 -0.384833 3.25934e-24)
(0.731093 -0.37588 -8.25335e-25)
(0.721239 -0.0991125 -6.04792e-24)
(0.314709 0.68029 3.66785e-21)
(0.332127 0.693187 -4.32073e-21)
(0.333082 0.698879 2.88192e-21)
(0.320935 0.69939 -8.60402e-22)
(0.306987 0.683922 1.3324e-21)
(0.309519 0.629989 1.17945e-21)
(0.342712 0.518584 -3.07892e-21)
(0.404673 0.350835 1.3004e-21)
(0.483156 0.146773 -2.72455e-21)
(0.566846 -0.0660772 4.48268e-21)
(0.647172 -0.259539 -1.3039e-21)
(0.716551 -0.411425 -6.82002e-22)
(0.769591 -0.512062 -1.37897e-21)
(0.80468 -0.565509 1.78989e-21)
(0.822691 -0.584844 -2.75833e-22)
(0.826469 -0.583604 -3.35172e-22)
(0.821034 -0.570875 7.03037e-22)
(0.80735 -0.557287 -4.26343e-22)
(0.780691 -0.556238 5.27225e-22)
(0.739156 -0.56313 -4.01925e-22)
(0.693909 -0.544866 3.99365e-22)
(0.664222 -0.456209 -1.59252e-21)
(0.663206 -0.287601 8.20509e-23)
(0.690708 -0.0683309 -6.254e-22)
(0.736799 0.142397 6.11494e-22)
(0.786783 0.310287 4.06492e-22)
(0.828329 0.415387 -2.6208e-24)
(0.856911 0.469167 4.36118e-22)
(0.874944 0.48309 1.03704e-21)
(0.875977 0.489028 2.89772e-23)
(0.858852 0.50891 -5.18513e-23)
(0.821579 0.519797 2.34565e-22)
(0.78216 0.495403 6.29602e-22)
(0.751537 0.371204 6.72944e-23)
(0.740021 0.206347 9.70105e-22)
(0.751291 -0.0203318 1.89986e-22)
(0.778147 -0.168497 -1.54776e-22)
(0.809645 -0.313109 3.42732e-22)
(0.839541 -0.359358 -1.83859e-22)
(0.833835 -0.408272 4.67856e-24)
(0.818727 -0.438849 2.0661e-23)
(0.771648 -0.381868 2.64091e-24)
(0.731433 -0.374272 2.62294e-24)
(0.722169 -0.0987811 1.3612e-23)
(0.295451 0.675005 -3.89156e-21)
(0.315021 0.691126 3.97895e-21)
(0.318298 0.699603 3.91275e-22)
(0.309481 0.701401 -1.16897e-21)
(0.300787 0.684629 4.77301e-22)
(0.310418 0.62688 -7.72266e-22)
(0.35075 0.511007 -4.13671e-21)
(0.417973 0.340168 2.08323e-21)
(0.499411 0.134883 3.00213e-21)
(0.584171 -0.0777877 -3.08037e-21)
(0.664122 -0.270007 2.14346e-21)
(0.731979 -0.419822 -1.70209e-21)
(0.782687 -0.517982 1.11789e-21)
(0.815136 -0.568984 -2.64669e-21)
(0.830665 -0.586197 9.26871e-22)
(0.832205 -0.583423 1.20577e-22)
(0.824834 -0.569603 -8.73463e-22)
(0.809774 -0.554719 3.13942e-22)
(0.782311 -0.552007 2.05912e-22)
(0.739989 -0.557898 6.05059e-22)
(0.693375 -0.540526 -4.09552e-22)
(0.661746 -0.454637 1.88242e-21)
(0.658904 -0.289386 -4.61895e-23)
(0.685094 -0.0726966 4.9818e-22)
(0.730625 0.136944 -3.74283e-22)
(0.780753 0.305272 7.27972e-23)
(0.823182 0.411633 -9.90436e-22)
(0.853161 0.466747 7.23063e-22)
(0.87263 0.482081 -5.51385e-23)
(0.874822 0.489702 4.71026e-22)
(0.85853 0.511291 -4.09633e-22)
(0.822247 0.523125 -2.64127e-22)
(0.783792 0.498449 -3.54958e-22)
(0.75421 0.373098 -8.85102e-22)
(0.743184 0.206535 1.10587e-21)
(0.754724 -0.0216483 7.73222e-22)
(0.781191 -0.170673 -1.84167e-21)
(0.812051 -0.3153 -1.68012e-21)
(0.84134 -0.360273 3.32463e-22)
(0.835203 -0.407465 -5.6574e-22)
(0.819737 -0.436737 -2.37481e-23)
(0.772353 -0.378888 7.57374e-23)
(0.731894 -0.37268 -1.94172e-23)
(0.723199 -0.0984768 9.87862e-24)
(0.276635 0.669235 -5.57109e-21)
(0.298315 0.688604 1.08679e-20)
(0.30404 0.699781 -8.04288e-21)
(0.298844 0.702656 2.10359e-21)
(0.295731 0.684377 -2.25159e-21)
(0.312597 0.622837 -1.09739e-21)
(0.359908 0.502826 5.39643e-21)
(0.432109 0.329346 -3.94311e-21)
(0.516238 0.123197 2.44726e-21)
(0.601878 -0.0890812 -1.4263e-21)
(0.681321 -0.279963 6.20966e-21)
(0.747559 -0.427687 -3.04604e-21)
(0.79587 -0.523411 -7.14898e-21)
(0.82564 -0.57205 3.4378e-21)
(0.838679 -0.587231 -4.1257e-22)
(0.838006 -0.582993 1.12833e-21)
(0.828722 -0.568153 -1.66655e-21)
(0.812305 -0.552041 2.81427e-24)
(0.784074 -0.547692 -1.60639e-21)
(0.741032 -0.552556 -8.10417e-22)
(0.693119 -0.536064 8.65427e-22)
(0.659569 -0.453004 -8.15451e-22)
(0.654886 -0.291214 6.64277e-22)
(0.679727 -0.0771897 -1.12052e-21)
(0.724647 0.131323 -3.94295e-22)
(0.77487 0.300074 1.7888e-21)
(0.818151 0.407694 2.63516e-22)
(0.849505 0.46416 -1.13894e-21)
(0.870397 0.48094 -6.34699e-22)
(0.873751 0.49027 1.12885e-21)
(0.858314 0.513575 6.6904e-22)
(0.823048 0.526368 -9.50684e-22)
(0.785571 0.501451 1.0203e-21)
(0.757027 0.375003 2.3995e-21)
(0.746493 0.206782 -1.15267e-21)
(0.758301 -0.0228826 1.51912e-21)
(0.784379 -0.172758 2.73118e-21)
(0.814573 -0.317414 2.34342e-21)
(0.843245 -0.361141 -5.05712e-22)
(0.83667 -0.406622 4.3617e-22)
(0.820855 -0.434605 1.20768e-22)
(0.773181 -0.375896 -1.28347e-22)
(0.732474 -0.371103 -1.58977e-24)
(0.724326 -0.0981987 -4.5978e-23)
(0.258287 0.662977 -1.27727e-21)
(0.282053 0.685595 3.15814e-21)
(0.290369 0.699362 4.87208e-21)
(0.289084 0.703107 -3.03134e-21)
(0.291849 0.683147 6.41044e-21)
(0.31603 0.617888 -1.79475e-21)
(0.370125 0.494097 -9.63461e-21)
(0.44701 0.318423 4.97972e-21)
(0.533576 0.111752 -5.65872e-21)
(0.619918 -0.0999352 4.62312e-21)
(0.698733 -0.289393 -2.72053e-21)
(0.763266 -0.435016 4.42759e-21)
(0.809124 -0.52835 1.48877e-21)
(0.836181 -0.574713 -3.49231e-21)
(0.846729 -0.587951 3.69454e-21)
(0.843868 -0.58232 -2.87995e-21)
(0.832697 -0.566531 2.73024e-21)
(0.814941 -0.549261 9.44011e-22)
(0.785977 -0.543303 1.25785e-21)
(0.742284 -0.547115 4.90515e-23)
(0.693142 -0.531483 2.19547e-21)
(0.657697 -0.451302 -3.72265e-21)
(0.651155 -0.293074 1.14373e-21)
(0.674609 -0.0818 -1.28753e-21)
(0.718868 0.125541 2.55519e-21)
(0.769136 0.294698 -2.19968e-21)
(0.813235 0.403571 1.71509e-21)
(0.845942 0.461405 9.0649e-22)
(0.868245 0.479664 9.43474e-22)
(0.872764 0.490729 1.14368e-22)
(0.858202 0.515759 1.74228e-22)
(0.82398 0.529523 2.49986e-22)
(0.787494 0.504408 -2.41133e-21)
(0.759983 0.376919 -3.47512e-21)
(0.749946 0.20709 -8.68681e-22)
(0.762018 -0.0240335 -1.34217e-21)
(0.787711 -0.17475 -8.71369e-22)
(0.817213 -0.31945 1.20957e-21)
(0.845255 -0.361962 1.22501e-21)
(0.838236 -0.405745 4.88123e-22)
(0.822081 -0.432455 -4.54757e-23)
(0.774131 -0.37289 1.78247e-22)
(0.73317 -0.36954 5.11341e-23)
(0.725546 -0.0979462 4.52743e-23)
(0.240437 0.656226 -4.68782e-21)
(0.266282 0.682071 -9.11641e-21)
(0.277348 0.698302 -7.17469e-21)
(0.280259 0.702707 1.25287e-20)
(0.289162 0.680927 6.30676e-22)
(0.320683 0.612067 -9.53047e-21)
(0.381339 0.484879 2.12385e-20)
(0.462607 0.30745 -1.28389e-20)
(0.551359 0.100585 5.17755e-21)
(0.638242 -0.11033 -4.83757e-21)
(0.716324 -0.298289 8.2082e-21)
(0.779077 -0.441806 -1.2112e-21)
(0.822433 -0.532799 3.9863e-22)
(0.846752 -0.576975 1.20539e-21)
(0.854808 -0.588366 1.2099e-21)
(0.849791 -0.581412 1.94622e-22)
(0.83676 -0.564743 -1.03065e-21)
(0.817683 -0.546387 -1.73514e-21)
(0.788021 -0.538852 -2.62965e-21)
(0.743742 -0.541585 -2.23983e-21)
(0.693445 -0.526786 1.18643e-21)
(0.656134 -0.449524 4.25646e-21)
(0.647715 -0.294956 -4.52152e-21)
(0.669742 -0.086517 1.98884e-21)
(0.713288 0.119607 -1.10136e-21)
(0.763552 0.289147 4.12677e-21)
(0.808437 0.399265 2.33862e-21)
(0.842472 0.458482 -1.1486e-21)
(0.866173 0.478252 -4.17772e-21)
(0.871858 0.491074 -1.20654e-21)
(0.858193 0.517837 3.78009e-22)
(0.825043 0.532587 -4.36001e-22)
(0.789557 0.50732 1.95119e-21)
(0.763077 0.378848 5.82725e-22)
(0.75354 0.20746 -5.0359e-21)
(0.765876 -0.0251002 6.1551e-22)
(0.791187 -0.176649 -3.03488e-21)
(0.819969 -0.321406 6.24963e-22)
(0.84737 -0.362735 4.15359e-22)
(0.839899 -0.404834 4.42837e-22)
(0.823411 -0.430288 -2.23937e-22)
(0.775199 -0.369872 -2.28967e-22)
(0.733978 -0.36799 -9.03975e-23)
(0.726855 -0.0977185 -3.8245e-23)
(0.223119 0.648979 5.7765e-21)
(0.251056 0.678002 -7.76613e-21)
(0.265042 0.696553 1.3805e-20)
(0.272423 0.70142 -3.27554e-21)
(0.28768 0.677715 -1.6403e-20)
(0.326516 0.605415 2.78063e-21)
(0.39348 0.475229 1.33725e-20)
(0.478828 0.296476 -3.81619e-21)
(0.569526 0.089726 -2.01512e-20)
(0.656802 -0.120249 6.88043e-21)
(0.734059 -0.306643 -1.86426e-20)
(0.794964 -0.448057 4.30205e-21)
(0.83578 -0.536761 3.2585e-21)
(0.857341 -0.578844 9.19104e-21)
(0.862912 -0.588484 -6.31677e-21)
(0.85577 -0.580278 2.85239e-21)
(0.840911 -0.562796 1.9349e-21)
(0.82053 -0.543429 4.39945e-21)
(0.790202 -0.534351 -1.19689e-21)
(0.745403 -0.535978 2.03782e-21)
(0.694028 -0.521974 2.73199e-21)
(0.654882 -0.447663 -1.94412e-21)
(0.644568 -0.296847 -4.27848e-21)
(0.665128 -0.0913298 3.41239e-21)
(0.707909 0.113527 -3.03197e-21)
(0.758118 0.283425 9.81179e-22)
(0.803755 0.394779 -2.58232e-22)
(0.839095 0.455393 3.81643e-22)
(0.86418 0.476703 1.73381e-21)
(0.871034 0.491303 1.4195e-21)
(0.858287 0.519805 -1.9099e-21)
(0.826232 0.535558 -9.51803e-22)
(0.791756 0.510187 2.54729e-21)
(0.766303 0.380789 -1.96726e-21)
(0.757272 0.207893 2.2453e-21)
(0.76987 -0.026082 -1.57086e-21)
(0.794805 -0.178452 7.78255e-22)
(0.822842 -0.323282 -4.31539e-22)
(0.849588 -0.363461 -4.84531e-22)
(0.841659 -0.40389 5.02368e-22)
(0.824844 -0.428106 8.65115e-23)
(0.776385 -0.366842 -4.11277e-23)
(0.734896 -0.366453 -8.14868e-24)
(0.728252 -0.0975147 5.17986e-24)
(0.206373 0.641225 -7.0569e-21)
(0.236433 0.673357 -6.93822e-21)
(0.253517 0.694075 1.16376e-20)
(0.265623 0.699215 -7.44346e-21)
(0.287408 0.673518 -3.63379e-21)
(0.333482 0.597976 2.44628e-22)
(0.40648 0.465203 6.68777e-21)
(0.495597 0.285547 -1.17178e-20)
(0.588014 0.0792023 -9.80497e-21)
(0.675552 -0.129679 1.41263e-20)
(0.751905 -0.31445 1.13098e-20)
(0.810905 -0.453768 -4.31513e-21)
(0.849148 -0.540242 5.72124e-21)
(0.86794 -0.580325 -2.97378e-21)
(0.871035 -0.588312 3.95181e-21)
(0.861804 -0.578925 -6.17599e-21)
(0.845148 -0.560697 -3.65622e-21)
(0.823482 -0.540393 -6.06783e-22)
(0.792519 -0.529811 2.7367e-22)
(0.747264 -0.530304 -4.34745e-21)
(0.694891 -0.517052 -1.76502e-21)
(0.653945 -0.445712 2.39262e-21)
(0.641716 -0.298737 3.22966e-21)
(0.660766 -0.0962271 -3.00281e-21)
(0.70273 0.107311 -1.34685e-22)
(0.752836 0.277538 -4.13355e-21)
(0.79919 0.390114 -4.18205e-21)
(0.83581 0.452136 1.79722e-21)
(0.862264 0.475014 4.24753e-21)
(0.870289 0.491412 2.0997e-22)
(0.85848 0.52166 -6.44449e-22)
(0.827545 0.538432 2.70675e-22)
(0.79409 0.513008 -1.4769e-21)
(0.76966 0.382745 4.57907e-21)
(0.761139 0.20839 3.84617e-21)
(0.774 -0.0269784 1.22613e-21)
(0.798565 -0.18016 1.326e-22)
(0.825831 -0.325075 -5.45846e-21)
(0.851909 -0.364139 -3.97098e-22)
(0.843515 -0.402915 -2.25631e-21)
(0.826379 -0.425909 3.53685e-22)
(0.777686 -0.363801 8.38234e-23)
(0.735921 -0.364926 1.15576e-22)
(0.729731 -0.0973341 1.55709e-23)
(0.190245 0.632956 5.15727e-21)
(0.222475 0.668108 1.39319e-20)
(0.242839 0.690828 -8.30622e-21)
(0.259906 0.696068 5.46677e-21)
(0.288341 0.66835 -1.12582e-20)
(0.341531 0.589799 4.47067e-21)
(0.420263 0.454858 -7.83138e-21)
(0.512843 0.274705 1.12385e-20)
(0.606762 0.069038 -6.57978e-22)
(0.694447 -0.13861 1.14216e-20)
(0.769829 -0.321707 -7.89908e-21)
(0.826876 -0.458941 -1.09999e-20)
(0.862522 -0.543244 -1.18611e-20)
(0.87854 -0.581424 1.22014e-20)
(0.87917 -0.587858 -4.45254e-21)
(0.867888 -0.577362 8.03211e-21)
(0.849472 -0.558452 2.69772e-21)
(0.826537 -0.537286 -1.29483e-21)
(0.794968 -0.525243 1.94532e-22)
(0.749321 -0.524575 4.51094e-22)
(0.69603 -0.512024 -1.48038e-21)
(0.653323 -0.443665 -5.2364e-21)
(0.639161 -0.300612 3.40955e-21)
(0.656657 -0.101197 -1.66705e-21)
(0.697752 0.100966 -9.04918e-23)
(0.747706 0.271488 1.51677e-21)
(0.794743 0.385272 5.80812e-21)
(0.832615 0.448712 -1.58669e-21)
(0.860424 0.473185 -3.41084e-21)
(0.869621 0.491396 2.02629e-22)
(0.858773 0.523397 1.49585e-21)
(0.82898 0.541209 4.28661e-21)
(0.796553 0.515784 8.83013e-22)
(0.773143 0.384714 -5.26192e-21)
(0.76514 0.208951 -1.87372e-21)
(0.778263 -0.0277888 5.57256e-22)
(0.802465 -0.18177 4.6246e-21)
(0.828936 -0.326786 2.20917e-21)
(0.854331 -0.36477 5.74813e-23)
(0.845465 -0.401907 8.31568e-22)
(0.828011 -0.423699 -4.1021e-22)
(0.779099 -0.360749 -1.26555e-22)
(0.737048 -0.363409 1.51854e-22)
(0.73129 -0.0971758 -1.06185e-23)
(0.17479 0.624158 -1.92925e-20)
(0.209253 0.662222 2.37019e-21)
(0.233075 0.686779 1.33825e-21)
(0.255308 0.691967 1.08466e-20)
(0.290467 0.662234 -8.91615e-21)
(0.350606 0.580936 3.76493e-21)
(0.434758 0.444249 -8.66766e-21)
(0.530491 0.263989 -3.37316e-21)
(0.625709 0.0592531 -2.29948e-21)
(0.713443 -0.147035 2.04551e-20)
(0.7878 -0.328413 -1.02361e-21)
(0.842852 -0.463579 -1.03905e-20)
(0.875884 -0.545774 1.22631e-20)
(0.889131 -0.582149 -1.02633e-20)
(0.887313 -0.587132 -2.11429e-21)
(0.87402 -0.575598 -2.92559e-21)
(0.85388 -0.556068 -1.90212e-21)
(0.829694 -0.534117 2.16695e-21)
(0.797546 -0.520657 2.7795e-23)
(0.751567 -0.518802 -1.30624e-21)
(0.697442 -0.506893 6.00085e-21)
(0.653019 -0.441514 6.71019e-21)
(0.636903 -0.302459 3.53062e-21)
(0.6528 -0.106229 -6.13342e-21)
(0.692975 0.0945004 1.08594e-20)
(0.742728 0.265282 -9.41795e-21)
(0.790412 0.380256 -4.57697e-21)
(0.829511 0.445123 1.86472e-21)
(0.858659 0.471213 -1.40866e-21)
(0.86903 0.491254 -2.76459e-21)
(0.859162 0.525012 -3.49896e-21)
(0.830534 0.543884 -1.48141e-21)
(0.799143 0.518513 1.66678e-21)
(0.776749 0.386698 7.99377e-22)
(0.769269 0.209577 1.83521e-21)
(0.782655 -0.028513 -7.05147e-21)
(0.806505 -0.183283 -2.45184e-21)
(0.832155 -0.328411 -2.13329e-21)
(0.856854 -0.365353 -1.71641e-21)
(0.847507 -0.400869 -4.83484e-22)
(0.82974 -0.421476 -4.57155e-22)
(0.780623 -0.357687 3.98882e-22)
(0.738274 -0.361901 -3.45094e-22)
(0.732926 -0.097039 -6.37693e-23)
(0.160071 0.614821 1.27585e-20)
(0.196839 0.655673 1.29906e-20)
(0.224292 0.681899 -1.30068e-20)
(0.251864 0.686903 8.36e-21)
(0.293767 0.6552 4.61378e-22)
(0.360647 0.571441 1.75747e-21)
(0.449886 0.433429 1.02424e-20)
(0.54847 0.253435 -3.15405e-20)
(0.644799 0.0498642 3.2461e-20)
(0.732499 -0.154949 -3.67605e-20)
(0.805788 -0.334569 4.19143e-21)
(0.858813 -0.467686 1.85042e-20)
(0.889218 -0.547839 -7.69958e-21)
(0.899703 -0.582506 8.27085e-21)
(0.895457 -0.58614 4.15405e-21)
(0.880195 -0.573641 -4.86967e-21)
(0.858371 -0.55355 9.55271e-22)
(0.832951 -0.53089 -2.12329e-21)
(0.800249 -0.516064 9.00274e-22)
(0.753998 -0.512997 -8.09561e-22)
(0.699122 -0.501666 -4.48025e-21)
(0.653032 -0.439255 1.88323e-21)
(0.634944 -0.304267 -9.29632e-21)
(0.649195 -0.111309 -1.61621e-21)
(0.688397 0.087923 -7.43912e-21)
(0.737902 0.258923 7.59204e-21)
(0.786198 0.375067 1.48678e-22)
(0.826494 0.441368 1.62953e-21)
(0.856965 0.469098 1.56718e-21)
(0.868512 0.490981 3.00802e-22)
(0.859644 0.526502 4.24238e-21)
(0.832202 0.546456 1.15055e-21)
(0.801855 0.521195 -4.30401e-21)
(0.780474 0.388697 -4.21215e-22)
(0.773525 0.210268 -6.45983e-22)
(0.787175 -0.0291508 8.75905e-21)
(0.810682 -0.184696 8.33575e-22)
(0.835489 -0.329952 1.40623e-21)
(0.859475 -0.365888 2.95953e-21)
(0.849641 -0.3998 7.3441e-23)
(0.831562 -0.419243 1.05091e-22)
(0.782255 -0.354615 -2.73325e-23)
(0.739596 -0.360399 4.49541e-23)
(0.734635 -0.0969229 9.16168e-23)
(0.146162 0.60493 -1.46125e-20)
(0.185312 0.648435 -1.02332e-20)
(0.216553 0.676166 2.81116e-20)
(0.249599 0.68088 2.28839e-21)
(0.298217 0.647284 -1.94494e-20)
(0.371592 0.56137 2.13969e-20)
(0.465574 0.42245 4.88104e-21)
(0.566708 0.243076 -2.3292e-20)
(0.663976 0.0408835 8.89407e-21)
(0.751575 -0.16235 4.44999e-21)
(0.823763 -0.340177 -6.72287e-21)
(0.874735 -0.471267 -2.34989e-21)
(0.90251 -0.549444 1.22673e-20)
(0.910248 -0.582502 -2.81076e-21)
(0.903598 -0.584893 -3.21193e-21)
(0.886409 -0.571499 2.65351e-21)
(0.862943 -0.550906 -4.68045e-21)
(0.836307 -0.527613 2.34582e-21)
(0.803074 -0.511474 -5.77565e-22)
(0.756607 -0.507171 2.2444e-21)
(0.701065 -0.496348 3.2085e-22)
(0.653362 -0.43688 5.84162e-21)
(0.633284 -0.306022 4.08657e-21)
(0.645841 -0.116427 1.13601e-21)
(0.684018 0.0812425 -4.06519e-21)
(0.733228 0.252417 -7.51787e-22)
(0.782099 0.369708 -6.92182e-22)
(0.823565 0.437448 8.91586e-22)
(0.855342 0.466839 -2.60284e-21)
(0.868066 0.490575 2.19871e-21)
(0.860218 0.527862 -1.27152e-21)
(0.833981 0.548922 2.65886e-22)
(0.804685 0.52383 1.29274e-21)
(0.784314 0.39071 -1.42535e-21)
(0.777903 0.211025 7.05991e-21)
(0.791819 -0.0297022 -1.60392e-20)
(0.814996 -0.18601 6.62952e-22)
(0.838937 -0.331405 -2.78048e-21)
(0.862194 -0.366375 -1.34463e-22)
(0.851865 -0.398702 6.38998e-22)
(0.833476 -0.416999 2.08669e-22)
(0.783993 -0.351534 -5.97634e-23)
(0.741011 -0.358904 2.34945e-22)
(0.736414 -0.0968266 -1.25937e-22)
(0.133145 0.594473 2.11653e-20)
(0.174755 0.640485 1.221e-20)
(0.209921 0.669566 -4.18046e-21)
(0.248534 0.673908 -2.13892e-21)
(0.303784 0.638527 1.43152e-21)
(0.383376 0.550781 3.73353e-20)
(0.481746 0.411361 -1.6319e-20)
(0.585138 0.232941 9.91104e-21)
(0.68319 0.0323222 -1.21204e-20)
(0.770635 -0.169239 8.72718e-21)
(0.841699 -0.345241 1.46213e-20)
(0.890597 -0.474327 -3.3598e-20)
(0.915744 -0.550599 -3.10557e-21)
(0.920757 -0.582147 3.98762e-21)
(0.91173 -0.583397 4.93859e-21)
(0.892658 -0.569182 1.90232e-21)
(0.867595 -0.54814 1.14938e-21)
(0.839759 -0.52429 -9.08379e-22)
(0.806016 -0.506896 -1.10514e-21)
(0.759389 -0.501336 -3.77162e-21)
(0.703265 -0.490946 5.10027e-21)
(0.654007 -0.434386 -6.91858e-21)
(0.631925 -0.307711 -2.79166e-21)
(0.642738 -0.121568 3.80456e-21)
(0.679838 0.0744675 -4.40366e-22)
(0.728706 0.245768 5.77435e-21)
(0.778116 0.364183 -3.52757e-21)
(0.820721 0.433365 3.95073e-21)
(0.853786 0.464433 5.09198e-22)
(0.867689 0.490032 6.31919e-22)
(0.860881 0.52909 1.46665e-21)
(0.835868 0.55128 -1.96408e-21)
(0.807629 0.526416 -1.99439e-21)
(0.788266 0.392738 -5.34773e-22)
(0.7824 0.211849 1.0191e-20)
(0.796584 -0.0301671 1.39783e-20)
(0.819444 -0.187224 5.67504e-21)
(0.842496 -0.33277 4.2508e-21)
(0.865008 -0.366813 2.58569e-21)
(0.854178 -0.397574 1.0771e-22)
(0.835478 -0.414747 -4.27766e-22)
(0.785834 -0.348442 1.67345e-23)
(0.742515 -0.357414 6.33675e-23)
(0.738261 -0.0967493 1.26018e-22)
(0.121111 0.583441 -4.57984e-22)
(0.165252 0.631807 -1.43427e-20)
(0.204458 0.66209 1.75758e-20)
(0.248685 0.666007 1.10788e-20)
(0.310435 0.628978 1.36655e-21)
(0.395933 0.539733 -2.86279e-20)
(0.498327 0.40021 -5.40165e-21)
(0.603694 0.223054 1.59217e-21)
(0.702392 0.0241863 -1.94816e-20)
(0.789645 -0.17562 -6.55556e-21)
(0.85957 -0.349767 2.04882e-20)
(0.90638 -0.476874 -1.95473e-20)
(0.928904 -0.551311 1.98364e-20)
(0.93122 -0.581449 -1.14748e-20)
(0.919847 -0.581663 1.09264e-20)
(0.898938 -0.566697 -9.03249e-21)
(0.872324 -0.54526 3.71917e-21)
(0.843307 -0.520927 -1.80636e-21)
(0.80907 -0.502339 -5.90293e-22)
(0.762334 -0.495505 1.23596e-21)
(0.705713 -0.485466 -3.88775e-22)
(0.654966 -0.431767 -3.5675e-22)
(0.630866 -0.309321 1.94552e-21)
(0.639884 -0.126721 -1.02683e-20)
(0.675855 0.0676071 7.03534e-21)
(0.724334 0.238983 -1.1836e-21)
(0.774247 0.358493 6.07722e-21)
(0.817961 0.429119 2.96774e-21)
(0.852297 0.461881 1.63313e-21)
(0.867379 0.489349 -4.97611e-21)
(0.861629 0.530181 -1.00681e-21)
(0.837858 0.553528 2.38143e-21)
(0.810683 0.528954 4.52286e-21)
(0.792325 0.394781 2.24053e-21)
(0.787013 0.212738 -2.06514e-20)
(0.801466 -0.0305457 -9.96722e-21)
(0.824023 -0.188338 -7.18317e-21)
(0.846166 -0.334046 4.8799e-21)
(0.867916 -0.367202 -7.48217e-21)
(0.856577 -0.396417 8.11866e-22)
(0.837566 -0.412486 1.41389e-21)
(0.787777 -0.345342 -3.69246e-22)
(0.744105 -0.355926 -1.51244e-22)
(0.740171 -0.0966902 2.95928e-24)
(0.110161 0.571824 -2.22411e-20)
(0.156893 0.622389 2.18048e-20)
(0.20022 0.653741 -7.17932e-21)
(0.25006 0.657202 -1.30228e-20)
(0.31813 0.618689 1.99251e-21)
(0.409196 0.528283 2.63362e-20)
(0.515245 0.38904 -2.06353e-20)
(0.622316 0.213438 1.13942e-20)
(0.721539 0.0164761 2.05943e-20)
(0.808574 -0.181496 -2.96786e-21)
(0.877349 -0.353762 3.73201e-21)
(0.922062 -0.478915 -1.02786e-20)
(0.941975 -0.551589 -5.98802e-21)
(0.941628 -0.580416 6.82992e-22)
(0.927944 -0.579698 2.6687e-21)
(0.905244 -0.564054 7.18388e-21)
(0.877128 -0.542271 -1.64177e-21)
(0.846946 -0.517528 -3.98344e-21)
(0.812231 -0.497812 -1.21694e-21)
(0.765437 -0.489688 4.39437e-21)
(0.708403 -0.479916 -1.16171e-21)
(0.656236 -0.42902 -5.33599e-21)
(0.630109 -0.31084 6.93559e-21)
(0.637279 -0.131871 7.83597e-21)
(0.672068 0.0606705 1.47318e-21)
(0.720113 0.232067 2.10533e-21)
(0.770491 0.352642 4.82027e-22)
(0.815283 0.424712 -4.29567e-21)
(0.85087 0.459181 -2.17289e-21)
(0.867132 0.488525 3.33494e-21)
(0.862458 0.531133 3.30911e-21)
(0.839947 0.555663 1.15883e-21)
(0.813843 0.531442 -5.64904e-21)
(0.796486 0.396838 6.65815e-21)
(0.791737 0.213693 5.00141e-21)
(0.806462 -0.0308383 -3.77181e-21)
(0.828731 -0.18935 2.10219e-21)
(0.849946 -0.335231 -3.22611e-21)
(0.870917 -0.367542 3.89024e-21)
(0.85906 -0.395232 -9.12674e-22)
(0.839737 -0.410218 -7.24793e-22)
(0.789818 -0.342233 1.66901e-22)
(0.745777 -0.354441 -2.00564e-22)
(0.742141 -0.0966483 6.47687e-23)
(0.100403 0.559621 9.80242e-21)
(0.149766 0.612226 1.1153e-21)
(0.197259 0.644526 1.14873e-21)
(0.252661 0.647528 -9.5055e-22)
(0.326825 0.607715 -8.77281e-21)
(0.423099 0.51649 -8.25574e-21)
(0.532432 0.377893 -6.27569e-21)
(0.640946 0.204109 1.93688e-20)
(0.740592 0.00919523 7.64023e-21)
(0.827394 -0.186877 2.68271e-21)
(0.895015 -0.357232 -2.28366e-20)
(0.937625 -0.480459 2.98746e-20)
(0.954944 -0.551444 -9.79934e-21)
(0.951973 -0.579057 1.30055e-20)
(0.936016 -0.57751 -5.77804e-21)
(0.911572 -0.56126 -8.74126e-21)
(0.882003 -0.539179 1.03515e-21)
(0.850676 -0.514098 7.74361e-21)
(0.815495 -0.493321 -4.05219e-21)
(0.76869 -0.483897 2.84135e-21)
(0.711324 -0.474304 1.66915e-21)
(0.657811 -0.426142 5.35697e-21)
(0.629655 -0.312254 -8.97302e-22)
(0.634924 -0.137006 -9.21291e-21)
(0.668476 0.0536673 -7.06799e-21)
(0.716042 0.225024 -3.18122e-21)
(0.766846 0.346634 -7.30335e-21)
(0.812685 0.420146 2.67468e-21)
(0.849504 0.456332 1.50212e-21)
(0.866947 0.487555 -6.96271e-22)
(0.863367 0.531942 -2.8405e-21)
(0.842132 0.557684 -4.05945e-22)
(0.817104 0.533879 5.03579e-22)
(0.800747 0.39891 -4.33749e-21)
(0.796569 0.214714 -1.7261e-21)
(0.811568 -0.0310454 1.6798e-20)
(0.833566 -0.190262 -8.42962e-21)
(0.853834 -0.336325 3.52286e-21)
(0.874008 -0.367832 2.17598e-21)
(0.861627 -0.394019 -1.771e-21)
(0.841988 -0.407944 3.222e-22)
(0.791956 -0.339115 -9.05931e-24)
(0.747527 -0.352956 1.46226e-22)
(0.744169 -0.096623 -4.58245e-23)
(0.0919521 0.546832 2.22985e-20)
(0.143961 0.601321 -2.62611e-20)
(0.195624 0.634462 2.40511e-20)
(0.256487 0.637028 -1.27008e-20)
(0.336476 0.596116 1.62288e-20)
(0.437577 0.50441 -2.8299e-20)
(0.549819 0.366807 3.59071e-20)
(0.659532 0.195083 -2.11835e-20)
(0.759516 0.00234199 -2.15348e-21)
(0.846078 -0.191769 -7.82261e-21)
(0.912545 -0.360187 2.54496e-20)
(0.95305 -0.481514 -2.63927e-20)
(0.967796 -0.550884 -9.3287e-21)
(0.962246 -0.577381 -6.88528e-22)
(0.944058 -0.575108 1.11182e-20)
(0.917915 -0.558325 4.67912e-21)
(0.886946 -0.53599 -7.17712e-21)
(0.854493 -0.51064 -5.39512e-21)
(0.818856 -0.488875 -1.89893e-21)
(0.772085 -0.478144 -5.65495e-21)
(0.714469 -0.46864 5.58018e-21)
(0.659688 -0.423131 -1.20214e-21)
(0.629504 -0.313552 -3.06546e-21)
(0.632817 -0.142112 1.33669e-21)
(0.665079 0.0466072 4.38728e-21)
(0.712119 0.217862 4.83069e-21)
(0.763313 0.340471 2.52999e-21)
(0.810165 0.415421 -2.49619e-21)
(0.848196 0.453334 -1.41664e-21)
(0.86682 0.486437 -3.97073e-21)
(0.86435 0.532605 -3.73667e-21)
(0.844407 0.559587 4.28724e-21)
(0.820462 0.536266 2.2436e-21)
(0.805103 0.400995 1.91218e-21)
(0.801505 0.215801 2.07636e-21)
(0.816781 -0.0311673 -7.40175e-21)
(0.838525 -0.191072 2.38879e-21)
(0.857828 -0.337326 -4.82088e-21)
(0.877187 -0.368072 -7.39852e-21)
(0.864274 -0.392778 1.43647e-21)
(0.844317 -0.405664 -3.28507e-22)
(0.794188 -0.335989 2.01197e-22)
(0.749353 -0.35147 -1.59357e-22)
(0.746252 -0.0966132 -1.3897e-22)
(0.0849271 0.533465 2.21925e-20)
(0.139564 0.589683 -1.25052e-20)
(0.195358 0.623577 -2.49046e-21)
(0.261527 0.625748 6.32903e-21)
(0.347035 0.583952 -6.00816e-21)
(0.452564 0.492101 -3.23298e-20)
(0.567345 0.355819 1.60052e-20)
(0.678026 0.186371 -2.25571e-21)
(0.77828 -0.00409213 1.17272e-20)
(0.864606 -0.196182 -4.55815e-20)
(0.929918 -0.362636 1.15165e-20)
(0.968319 -0.48209 2.61574e-20)
(0.980518 -0.549922 -1.38689e-20)
(0.972439 -0.575399 3.34839e-21)
(0.952066 -0.572501 3.2671e-21)
(0.924271 -0.555257 -3.28531e-21)
(0.891955 -0.53271 4.19474e-21)
(0.858397 -0.507158 4.51897e-21)
(0.822309 -0.48448 2.21079e-21)
(0.775612 -0.47244 3.2287e-21)
(0.717825 -0.462933 -4.12752e-21)
(0.661861 -0.419987 -1.22122e-22)
(0.629657 -0.314722 -2.7427e-22)
(0.630961 -0.147174 2.48523e-21)
(0.661876 0.0395001 -3.47296e-21)
(0.708345 0.210586 -3.46052e-22)
(0.75989 0.334158 2.23021e-21)
(0.80772 0.410539 3.28196e-21)
(0.846943 0.450187 -2.92487e-21)
(0.866747 0.48517 3.46997e-22)
(0.865403 0.53312 5.03002e-21)
(0.846767 0.561371 -9.83822e-21)
(0.823911 0.538599 -3.89987e-22)
(0.809548 0.403093 -1.40715e-20)
(0.80654 0.216953 8.00257e-21)
(0.822096 -0.0312047 1.14033e-20)
(0.843604 -0.191782 3.75223e-21)
(0.861927 -0.338234 2.81391e-21)
(0.880452 -0.368261 9.22038e-21)
(0.867 -0.391509 -1.4368e-21)
(0.84672 -0.40338 -7.51346e-22)
(0.796512 -0.332854 -1.34932e-22)
(0.75125 -0.349981 1.30444e-22)
(0.748386 -0.0966183 -2.21597e-22)
(0.136661 0.577331 -1.51026e-20)
(0.196498 0.611903 1.25694e-20)
(0.26777 0.613742 6.71025e-21)
(0.358454 0.571288 1.62989e-20)
(0.467998 0.479617 4.65946e-21)
(0.584951 0.34496 1.38812e-20)
(0.696387 0.177981 -4.90926e-20)
(0.796859 -0.0101143 9.43654e-21)
(0.882956 -0.200129 8.40452e-21)
(0.947115 -0.36459 2.0999e-20)
(0.983416 -0.482198 1.1434e-20)
(0.993096 -0.548567 5.85686e-21)
(0.982543 -0.57312 1.01498e-20)
(0.960033 -0.569696 -1.93402e-20)
(0.930634 -0.552063 9.33585e-21)
(0.897025 -0.529345 2.62047e-21)
(0.862383 -0.503654 5.25077e-22)
(0.825849 -0.480142 2.48518e-21)
(0.779265 -0.466795 -4.00217e-21)
(0.721385 -0.457192 4.40443e-21)
(0.664321 -0.416709 -3.75943e-21)
(0.630115 -0.315752 -1.00522e-21)
(0.629356 -0.152179 4.15118e-21)
(0.658866 0.0323563 -3.49466e-21)
(0.704718 0.203203 3.9656e-21)
(0.756575 0.327699 -2.57693e-21)
(0.805349 0.405503 1.28266e-21)
(0.845743 0.44689 -1.00103e-23)
(0.866726 0.483751 6.03228e-21)
(0.866524 0.533483 6.57634e-23)
(0.84921 0.563035 6.26048e-21)
(0.827449 0.540879 2.74313e-21)
(0.81408 0.405203 -6.20407e-22)
(0.81167 0.218171 -1.0281e-21)
(0.827509 -0.0311583 -1.07167e-20)
(0.8488 -0.19239 3.06633e-21)
(0.866128 -0.339047 -1.60557e-21)
(0.883801 -0.368399 -4.44408e-21)
(0.869802 -0.390213 6.81115e-22)
(0.849195 -0.401092 3.51821e-22)
(0.798926 -0.329711 7.96934e-23)
(0.753215 -0.348489 -4.36538e-23)
(0.750568 -0.0966374 2.32191e-22)
(0.135331 0.564293 -9.72485e-21)
(0.199073 0.599482 1.40038e-20)
(0.275197 0.60107 -1.64528e-20)
(0.370683 0.558187 -4.57002e-22)
(0.483818 0.46701 2.35486e-20)
(0.602582 0.33426 -4.70352e-20)
(0.714579 0.169916 3.74639e-20)
(0.815233 -0.0157332 -3.18009e-20)
(0.901114 -0.20362 2.76529e-20)
(0.964118 -0.366058 -6.00718e-21)
(0.998323 -0.481848 2.52789e-21)
(1.00552 -0.546831 -2.03089e-20)
(0.99255 -0.570555 -1.42414e-20)
(0.967956 -0.566702 5.01419e-22)
(0.936999 -0.548753 -3.74739e-21)
(0.902153 -0.525901 -2.44685e-21)
(0.86645 -0.500131 1.03912e-21)
(0.829469 -0.475865 -3.20443e-21)
(0.783034 -0.46122 6.02903e-21)
(0.725136 -0.451428 -2.92321e-21)
(0.667062 -0.413299 -5.16385e-22)
(0.630878 -0.316632 -4.58267e-21)
(0.628004 -0.157112 -9.66094e-21)
(0.65605 0.0251867 -3.60594e-21)
(0.701239 0.195719 2.59559e-21)
(0.753367 0.321098 -8.02167e-22)
(0.80305 0.400315 1.44247e-21)
(0.844591 0.443443 3.44725e-21)
(0.866753 0.482177 -6.49749e-21)
(0.867706 0.533691 -5.64314e-21)
(0.851728 0.564574 -4.96412e-22)
(0.831068 0.543104 8.474e-21)
(0.818693 0.407325 1.28004e-20)
(0.816891 0.219453 1.16255e-21)
(0.833017 -0.0310287 7.6903e-21)
(0.85411 -0.192898 -1.4696e-22)
(0.87043 -0.339765 1.59309e-21)
(0.887233 -0.368486 -3.14457e-21)
(0.872679 -0.38889 2.50298e-21)
(0.851738 -0.3988 1.79482e-22)
(0.801426 -0.326559 -1.36592e-22)
(0.755245 -0.346991 1.15129e-22)
(0.752796 -0.0966697 4.81084e-22)
(0.135647 0.550604 4.04977e-21)
(0.203106 0.586364 2.01417e-22)
(0.283786 0.587794 -1.42282e-20)
(0.383673 0.544715 1.77497e-20)
(0.499968 0.454332 -3.83828e-21)
(0.62019 0.323746 1.50995e-20)
(0.732571 0.16218 4.93143e-21)
(0.833386 -0.0209597 -1.62497e-20)
(0.919063 -0.206668 -4.40477e-20)
(0.980909 -0.367051 1.85113e-21)
(1.01302 -0.481049 2.96997e-21)
(1.01777 -0.544725 6.65251e-21)
(1.00245 -0.567713 8.57954e-22)
(0.975831 -0.563527 2.58989e-21)
(0.943362 -0.545334 -3.24862e-21)
(0.907333 -0.522383 -2.03671e-21)