/*--------------------------------*- C++ -*----------------------------------*\
  =========                 |
  \\      /  F ield         | OpenFOAM: The Open Source CFD Toolbox
   \\    /   O peration     | Website:  https://openfoam.org
    \\  /    A nd           | Version:  7
     \\/     M anipulation  |
\*---------------------------------------------------------------------------*/
FoamFile
{
    version     2.0;
    format      ascii;
    class       volScalarField;
    location    "25";
    object      p;
}
// * * * * * * * * * * * * * * * * * * * * * * * * * * * * * * * * * * * * * //

dimensions      [0 2 -2 0 0 0 0];

internalField   nonuniform List<scalar> 
8500
(
-0.227556
-0.228626
-0.229275
-0.22983
-0.230314
-0.230731
-0.231099
-0.231429
-0.231731
-0.232012
-0.232276
-0.232527
-0.232765
-0.232993
-0.233211
-0.233422
-0.233628
-0.233833
-0.234038
-0.234246
-0.227604
-0.22867
-0.229317
-0.22987
-0.230353
-0.230768
-0.231134
-0.231463
-0.231764
-0.232043
-0.232306
-0.232554
-0.232791
-0.233017
-0.233234
-0.233443
-0.233647
-0.23385
-0.234053
-0.234258
-0.227698
-0.228757
-0.229401
-0.22995
-0.23043
-0.230842
-0.231205
-0.231531
-0.231828
-0.232105
-0.232364
-0.23261
-0.232843
-0.233066
-0.233279
-0.233484
-0.233685
-0.233885
-0.234084
-0.234282
-0.227838
-0.228889
-0.229526
-0.230071
-0.230545
-0.230953
-0.231311
-0.231632
-0.231925
-0.232196
-0.232451
-0.232692
-0.23292
-0.233137
-0.233345
-0.233545
-0.23374
-0.233936
-0.23413
-0.234317
-0.228025
-0.229063
-0.229693
-0.23023
-0.230698
-0.2311
-0.231451
-0.231766
-0.232053
-0.232318
-0.232566
-0.2328
-0.233022
-0.233232
-0.233432
-0.233625
-0.233813
-0.234002
-0.234188
-0.234363
-0.228256
-0.229279
-0.229899
-0.230428
-0.230888
-0.231282
-0.231626
-0.231933
-0.232211
-0.232469
-0.232709
-0.232934
-0.233147
-0.233348
-0.233539
-0.233723
-0.233901
-0.234082
-0.234259
-0.234416
-0.228532
-0.229537
-0.230146
-0.230665
-0.231115
-0.231499
-0.231833
-0.232131
-0.2324
-0.232647
-0.232878
-0.233093
-0.233295
-0.233485
-0.233665
-0.233837
-0.234004
-0.234175
-0.234341
-0.234477
-0.228851
-0.229835
-0.230431
-0.230938
-0.231377
-0.23175
-0.232073
-0.23236
-0.232618
-0.232854
-0.233072
-0.233275
-0.233464
-0.233641
-0.233808
-0.233965
-0.234119
-0.234278
-0.23443
-0.234542
-0.229211
-0.230172
-0.230755
-0.231248
-0.231674
-0.232034
-0.232345
-0.232618
-0.232863
-0.233086
-0.23329
-0.233479
-0.233654
-0.233815
-0.233966
-0.234107
-0.234244
-0.23439
-0.234527
-0.23461
-0.229612
-0.230549
-0.231115
-0.231593
-0.232004
-0.23235
-0.232646
-0.232905
-0.233135
-0.233343
-0.233531
-0.233704
-0.233861
-0.234005
-0.234137
-0.23426
-0.234378
-0.234508
-0.234627
-0.234677
-0.230053
-0.230962
-0.231511
-0.231973
-0.232368
-0.232697
-0.232978
-0.23322
-0.233433
-0.233623
-0.233794
-0.233948
-0.234086
-0.23421
-0.234321
-0.234422
-0.234518
-0.234629
-0.234728
-0.234741
-0.230531
-0.231411
-0.231941
-0.232386
-0.232763
-0.233075
-0.233337
-0.233561
-0.233756
-0.233927
-0.234077
-0.23421
-0.234327
-0.234427
-0.234514
-0.234591
-0.234662
-0.234751
-0.234828
-0.234798
-0.231045
-0.231895
-0.232405
-0.232831
-0.233188
-0.233481
-0.233724
-0.233928
-0.234101
-0.234251
-0.234379
-0.234489
-0.23458
-0.234655
-0.234715
-0.234764
-0.234807
-0.234872
-0.234923
-0.234844
-0.231594
-0.232412
-0.232902
-0.233306
-0.233643
-0.233915
-0.234136
-0.234318
-0.234469
-0.234595
-0.234698
-0.234782
-0.234846
-0.234892
-0.234922
-0.234939
-0.23495
-0.234987
-0.23501
-0.234875
-0.232176
-0.232962
-0.233429
-0.233812
-0.234127
-0.234376
-0.234574
-0.234731
-0.234857
-0.234957
-0.235033
-0.235089
-0.235123
-0.235137
-0.235133
-0.235114
-0.23509
-0.235094
-0.235086
-0.234887
-0.232791
-0.233543
-0.233987
-0.234347
-0.234638
-0.234862
-0.235035
-0.235166
-0.235265
-0.235336
-0.235383
-0.235407
-0.235409
-0.235387
-0.235346
-0.235288
-0.235222
-0.235191
-0.235149
-0.234874
-0.233436
-0.234155
-0.234574
-0.23491
-0.235175
-0.235373
-0.235519
-0.235622
-0.235691
-0.235731
-0.235746
-0.235736
-0.235702
-0.235642
-0.235559
-0.235457
-0.235346
-0.235273
-0.235195
-0.23483
-0.234111
-0.234795
-0.23519
-0.235499
-0.235738
-0.235908
-0.236024
-0.236097
-0.236134
-0.236141
-0.236122
-0.236075
-0.236002
-0.2359
-0.235772
-0.235621
-0.235459
-0.235339
-0.235223
-0.234747
-0.234815
-0.235464
-0.235833
-0.236115
-0.236325
-0.236466
-0.23655
-0.23659
-0.236594
-0.236565
-0.236508
-0.236423
-0.236307
-0.23616
-0.235982
-0.235778
-0.235558
-0.235386
-0.235228
-0.234591
-0.235547
-0.236161
-0.236503
-0.236757
-0.236937
-0.237046
-0.237097
-0.237102
-0.237068
-0.237002
-0.236906
-0.236778
-0.236617
-0.236421
-0.23619
-0.235928
-0.235644
-0.235412
-0.235206
-0.234322
-0.236306
-0.236885
-0.237199
-0.237424
-0.237572
-0.237647
-0.237663
-0.23763
-0.237558
-0.237452
-0.237313
-0.23714
-0.236932
-0.236683
-0.236395
-0.236069
-0.235715
-0.235413
-0.235156
-0.234202
-0.237093
-0.237636
-0.237922
-0.238116
-0.238231
-0.238269
-0.238247
-0.238175
-0.238062
-0.237912
-0.237729
-0.237509
-0.23725
-0.236947
-0.236597
-0.236202
-0.235771
-0.235391
-0.235049
-0.233987
-0.237907
-0.238414
-0.238671
-0.238833
-0.238912
-0.238913
-0.23885
-0.238736
-0.238579
-0.238384
-0.238154
-0.237885
-0.237572
-0.237211
-0.236796
-0.236327
-0.235812
-0.235346
-0.234915
-0.233675
-0.238748
-0.23922
-0.239447
-0.239575
-0.239616
-0.239577
-0.239471
-0.239312
-0.239109
-0.238867
-0.238587
-0.238266
-0.237899
-0.237477
-0.236993
-0.236446
-0.235839
-0.235278
-0.234753
-0.233284
-0.239617
-0.240053
-0.240249
-0.240341
-0.240343
-0.240261
-0.240111
-0.239904
-0.239652
-0.23936
-0.239028
-0.238654
-0.23823
-0.237745
-0.23719
-0.236561
-0.235855
-0.235187
-0.234563
-0.232812
-0.240514
-0.240915
-0.241079
-0.241134
-0.241094
-0.240967
-0.240768
-0.240512
-0.240208
-0.239863
-0.239478
-0.239048
-0.238565
-0.238016
-0.237388
-0.236672
-0.235862
-0.235076
-0.234344
-0.232252
-0.241442
-0.241807
-0.241937
-0.241953
-0.241869
-0.241694
-0.241444
-0.241135
-0.240777
-0.240377
-0.239936
-0.239449
-0.238906
-0.23829
-0.237588
-0.236783
-0.235863
-0.234947
-0.234101
-0.2316
-0.242401
-0.24273
-0.242825
-0.2428
-0.242669
-0.242443
-0.242139
-0.241774
-0.241359
-0.240901
-0.240402
-0.239856
-0.239251
-0.23857
-0.237791
-0.236897
-0.235861
-0.234805
-0.233838
-0.230852
-0.243393
-0.243686
-0.243744
-0.243675
-0.243495
-0.243214
-0.242854
-0.242429
-0.241954
-0.241436
-0.240877
-0.24027
-0.239603
-0.238854
-0.238
-0.237015
-0.235862
-0.234654
-0.233564
-0.230006
-0.244421
-0.244676
-0.244696
-0.244582
-0.244348
-0.24401
-0.243589
-0.243102
-0.242563
-0.241982
-0.24136
-0.240691
-0.23996
-0.239144
-0.238215
-0.237139
-0.235867
-0.234499
-0.233286
-0.229066
-0.245488
-0.245704
-0.245684
-0.24552
-0.245231
-0.244832
-0.244346
-0.243793
-0.243187
-0.24254
-0.241852
-0.241119
-0.240323
-0.23944
-0.238436
-0.237272
-0.235881
-0.234346
-0.233011
-0.228037
-0.246597
-0.246773
-0.246709
-0.246493
-0.246145
-0.245681
-0.245126
-0.244503
-0.243827
-0.24311
-0.242354
-0.241554
-0.240692
-0.239742
-0.238664
-0.237413
-0.235907
-0.234199
-0.232745
-0.226931
-0.24775
-0.247884
-0.247775
-0.247504
-0.247092
-0.246559
-0.245932
-0.245234
-0.244484
-0.243694
-0.242867
-0.241998
-0.241069
-0.24005
-0.2389
-0.237565
-0.235947
-0.234064
-0.232492
-0.225769
-0.248953
-0.249042
-0.248885
-0.248555
-0.248075
-0.247469
-0.246765
-0.245989
-0.24516
-0.244293
-0.243392
-0.24245
-0.241452
-0.240366
-0.239144
-0.237728
-0.236002
-0.233949
-0.232251
-0.224578
-0.25021
-0.250252
-0.250043
-0.249649
-0.249098
-0.248414
-0.247629
-0.246769
-0.245858
-0.244909
-0.24393
-0.242914
-0.241845
-0.240689
-0.239396
-0.237904
-0.236075
-0.233865
-0.232019
-0.223412
-0.251525
-0.251516
-0.251252
-0.250791
-0.250163
-0.249397
-0.248525
-0.247578
-0.246579
-0.245546
-0.244485
-0.243391
-0.242248
-0.241022
-0.23966
-0.238095
-0.236171
-0.233828
-0.23179
-0.222356
-0.252904
-0.252841
-0.252516
-0.251984
-0.251274
-0.25042
-0.249458
-0.248418
-0.247328
-0.246205
-0.245059
-0.243884
-0.242665
-0.241368
-0.239939
-0.238307
-0.236295
-0.233861
-0.231526
-0.221454
-0.254353
-0.25423
-0.253841
-0.253232
-0.252436
-0.251489
-0.25043
-0.249294
-0.248107
-0.246892
-0.245656
-0.244397
-0.2431
-0.241732
-0.240238
-0.23855
-0.236467
-0.234008
-0.231129
-0.220588
-0.255877
-0.255689
-0.255232
-0.25454
-0.253653
-0.252608
-0.251448
-0.250209
-0.248923
-0.247609
-0.246281
-0.244935
-0.243558
-0.242117
-0.240564
-0.238834
-0.236726
-0.234378
-0.230691
-0.220201
-0.257484
-0.257224
-0.256693
-0.255914
-0.254928
-0.253781
-0.252514
-0.251169
-0.249778
-0.248364
-0.246939
-0.245503
-0.244043
-0.24253
-0.240921
-0.239169
-0.237095
-0.23507
-0.230993
-0.224244
-0.259179
-0.258841
-0.25823
-0.257357
-0.256269
-0.255013
-0.253635
-0.252179
-0.250679
-0.24916
-0.247636
-0.246106
-0.244561
-0.242974
-0.241309
-0.239545
-0.237532
-0.235916
-0.23252
-0.239006
-0.26097
-0.260546
-0.259848
-0.258877
-0.257679
-0.256309
-0.254816
-0.253245
-0.251632
-0.250005
-0.248377
-0.246751
-0.245117
-0.243452
-0.241729
-0.239945
-0.237978
-0.236695
-0.233488
-0.242458
-0.262864
-0.262345
-0.261555
-0.260477
-0.259165
-0.257675
-0.256062
-0.254371
-0.252643
-0.250904
-0.24917
-0.247444
-0.245717
-0.243969
-0.242178
-0.240359
-0.238393
-0.237262
-0.234002
-0.242818
-0.264869
-0.264245
-0.263355
-0.262165
-0.260732
-0.259118
-0.257379
-0.255565
-0.253717
-0.251864
-0.250021
-0.248191
-0.246366
-0.244528
-0.242656
-0.240776
-0.238766
-0.23763
-0.234279
-0.242303
-0.26699
-0.266252
-0.265255
-0.263946
-0.262386
-0.260642
-0.258774
-0.256833
-0.254863
-0.252891
-0.250935
-0.248998
-0.247068
-0.24513
-0.243161
-0.241191
-0.23909
-0.237825
-0.234335
-0.241131
-0.269237
-0.268373
-0.267261
-0.265826
-0.264133
-0.262254
-0.260253
-0.258182
-0.256085
-0.253993
-0.251921
-0.249869
-0.247828
-0.245777
-0.243691
-0.241599
-0.23936
-0.237862
-0.234184
-0.23952
-0.270614
-0.26938
-0.267812
-0.265979
-0.263961
-0.261822
-0.259617
-0.257392
-0.255175
-0.252982
-0.250811
-0.248647
-0.246468
-0.244244
-0.241995
-0.239571
-0.23776
-0.233857
-0.237666
-0.271617
-0.269909
-0.267931
-0.265769
-0.263488
-0.261146
-0.258789
-0.256444
-0.254124
-0.251825
-0.249528
-0.247204
-0.244816
-0.242374
-0.239722
-0.237536
-0.233381
-0.235695
-0.272123
-0.269995
-0.267683
-0.265257
-0.262775
-0.260282
-0.257805
-0.255353
-0.252916
-0.25047
-0.24798
-0.245402
-0.242731
-0.239812
-0.237209
-0.23278
-0.233688
-0.274461
-0.272176
-0.26971
-0.267135
-0.26451
-0.261877
-0.259263
-0.256669
-0.254083
-0.251473
-0.248795
-0.245998
-0.243063
-0.23984
-0.236791
-0.232071
-0.231693
-0.27448
-0.271857
-0.269129
-0.266356
-0.26358
-0.260821
-0.258078
-0.255328
-0.252534
-0.249643
-0.246596
-0.243365
-0.239805
-0.236294
-0.23127
-0.229738
-0.274128
-0.271244
-0.26832
-0.265395
-0.262484
-0.259578
-0.256649
-0.253648
-0.250517
-0.24719
-0.243631
-0.239707
-0.235726
-0.230387
-0.227832
-0.273486
-0.270407
-0.267326
-0.264253
-0.261171
-0.258043
-0.254811
-0.251411
-0.247772
-0.243856
-0.239544
-0.23509
-0.229428
-0.225978
-0.272619
-0.269375
-0.266128
-0.262854
-0.259504
-0.256015
-0.252315
-0.248334
-0.244032
-0.239313
-0.234389
-0.228399
-0.224167
-0.271544
-0.26811
-0.264624
-0.261028
-0.257251
-0.25322
-0.248866
-0.244154
-0.239011
-0.233623
-0.227303
-0.22239
-0.270196
-0.266475
-0.262605
-0.258509
-0.254114
-0.249357
-0.244214
-0.238635
-0.232791
-0.226139
-0.220632
-0.2684
-0.264226
-0.259778
-0.254986
-0.249799
-0.244205
-0.238181
-0.231889
-0.224907
-0.21888
-0.265878
-0.261044
-0.255824
-0.25018
-0.244119
-0.237644
-0.230915
-0.223605
-0.217117
-0.256613
-0.250491
-0.24395
-0.237021
-0.229863
-0.22223
-0.215329
-0.250719
-0.243689
-0.236305
-0.22873
-0.220778
-0.213504
-0.24333
-0.235492
-0.227511
-0.219245
-0.211628
-0.2262
-0.217627
-0.209691
-0.215918
-0.207682
-0.215913
-0.207677
-0.226195
-0.217622
-0.209686
-0.243326
-0.235489
-0.227507
-0.21924
-0.211623
-0.250716
-0.243686
-0.236301
-0.228726
-0.220773
-0.213499
-0.262291
-0.256611
-0.250488
-0.243947
-0.237017
-0.229859
-0.222225
-0.215324
-0.265876
-0.261042
-0.255821
-0.250178
-0.244116
-0.237641
-0.230911
-0.2236
-0.217111
-0.268398
-0.264224
-0.259776
-0.254984
-0.249797
-0.244202
-0.238178
-0.231885
-0.224902
-0.218874
-0.270194
-0.266474
-0.262604
-0.258508
-0.254112
-0.249355
-0.244211
-0.238632
-0.232787
-0.226134
-0.220627
-0.271543
-0.268109
-0.264623
-0.261027
-0.25725
-0.253218
-0.248863
-0.244151
-0.239008
-0.233619
-0.227298
-0.222385
-0.272618
-0.269374
-0.266127
-0.262853
-0.259503
-0.256014
-0.252313
-0.248332
-0.24403
-0.23931
-0.234385
-0.228395
-0.224162
-0.273485
-0.270406
-0.267325
-0.264252
-0.26117
-0.258042
-0.25481
-0.251409
-0.247771
-0.243853
-0.239541
-0.235086
-0.229424
-0.225972
-0.274127
-0.271243
-0.26832
-0.265394
-0.262483
-0.259578
-0.256648
-0.253647
-0.250516
-0.247189
-0.243629
-0.239705
-0.235722
-0.230383
-0.227827
-0.274479
-0.271856
-0.269128
-0.266356
-0.26358
-0.26082
-0.258077
-0.255328
-0.252533
-0.249642
-0.246595
-0.243363
-0.239803
-0.236291
-0.231266
-0.229733
-0.274459
-0.272175
-0.269709
-0.267134
-0.264509
-0.261877
-0.259262
-0.256669
-0.254083
-0.251472
-0.248794
-0.245996
-0.243062
-0.239837
-0.236788
-0.232068
-0.231689
-0.273977
-0.272122
-0.269994
-0.267682
-0.265256
-0.262774
-0.260281
-0.257804
-0.255352
-0.252915
-0.25047
-0.24798
-0.245401
-0.24273
-0.239809
-0.237206
-0.232776
-0.233683
-0.271616
-0.269908
-0.26793
-0.265768
-0.263487
-0.261145
-0.258788
-0.256444
-0.254124
-0.251825
-0.249528
-0.247203
-0.244815
-0.242372
-0.23972
-0.237534
-0.233377
-0.23569
-0.270613
-0.269379
-0.267811
-0.265978
-0.26396
-0.261821
-0.259617
-0.257391
-0.255175
-0.252982
-0.250811
-0.248647
-0.246468
-0.244243
-0.241994
-0.239569
-0.237757
-0.233853
-0.237661
-0.269236
-0.268372
-0.26726
-0.265825
-0.264132
-0.262254
-0.260252
-0.258181
-0.256085
-0.253993
-0.251921
-0.249869
-0.247828
-0.245776
-0.243691
-0.241598
-0.239358
-0.23786
-0.234181
-0.239516
-0.266989
-0.266251
-0.265254
-0.263945
-0.262385
-0.260641
-0.258773
-0.256833
-0.254862
-0.252891
-0.250936
-0.248998
-0.247068
-0.24513
-0.24316
-0.241191
-0.239089
-0.237823
-0.234332
-0.241127
-0.264867
-0.264244
-0.263354
-0.262164
-0.260731
-0.259117
-0.257378
-0.255565
-0.253717
-0.251864
-0.250021
-0.248191
-0.246366
-0.244528
-0.242655
-0.240775
-0.238764
-0.237628
-0.234276
-0.242298
-0.262863
-0.262344
-0.261554
-0.260476
-0.259164
-0.257675
-0.256061
-0.254371
-0.252642
-0.250904
-0.24917
-0.247444
-0.245717
-0.243969
-0.242178
-0.240358
-0.238392
-0.237259
-0.233999
-0.242813
-0.260969
-0.260545
-0.259847
-0.258875
-0.257678
-0.256308
-0.254815
-0.253244
-0.251632
-0.250005
-0.248377
-0.246752
-0.245117
-0.243452
-0.241729
-0.239945
-0.237977
-0.236693
-0.233485
-0.242454
-0.259178
-0.25884
-0.258228
-0.257356
-0.256268
-0.255012
-0.253635
-0.252179
-0.250679
-0.24916
-0.247636
-0.246107
-0.244561
-0.242974
-0.241309
-0.239544
-0.237531
-0.235914
-0.232516
-0.239001
-0.257482
-0.257223
-0.256691
-0.255912
-0.254927
-0.25378
-0.252514
-0.251169
-0.249778
-0.248364
-0.246939
-0.245503
-0.244043
-0.24253
-0.240921
-0.239168
-0.237094
-0.235068
-0.23099
-0.224239
-0.255875
-0.255687
-0.25523
-0.254539
-0.253651
-0.252607
-0.251447
-0.250209
-0.248922
-0.247609
-0.246281
-0.244935
-0.243558
-0.242117
-0.240564
-0.238834
-0.236725
-0.234376
-0.230688
-0.220196
-0.254351
-0.254228
-0.25384
-0.253231
-0.252435
-0.251488
-0.25043
-0.249293
-0.248107
-0.246891
-0.245656
-0.244398
-0.243101
-0.241732
-0.240238
-0.238549
-0.236466
-0.234006
-0.231126
-0.220584
-0.252902
-0.252839
-0.252514
-0.251982
-0.251273
-0.250419
-0.249457
-0.248417
-0.247327
-0.246205
-0.245059
-0.243884
-0.242666
-0.241368
-0.239939
-0.238306
-0.236293
-0.233859
-0.231522
-0.221449
-0.251523
-0.251514
-0.25125
-0.250789
-0.250162
-0.249395
-0.248524
-0.247577
-0.246578
-0.245545
-0.244484
-0.243391
-0.242248
-0.241022
-0.23966
-0.238094
-0.236169
-0.233826
-0.231786
-0.222351
-0.250207
-0.25025
-0.250041
-0.249648
-0.249096
-0.248413
-0.247627
-0.246768
-0.245857
-0.244909
-0.24393
-0.242914
-0.241845
-0.240689
-0.239396
-0.237903
-0.236074
-0.233862
-0.232015
-0.223407
-0.248951
-0.24904
-0.248883
-0.248553
-0.248074
-0.247468
-0.246764
-0.245988
-0.245159
-0.244292
-0.243391
-0.24245
-0.241452
-0.240365
-0.239143
-0.237727
-0.236
-0.233946
-0.232247
-0.224573
-0.247748
-0.247882
-0.247773
-0.247502
-0.24709
-0.246558
-0.245931
-0.245233
-0.244483
-0.243693
-0.242866
-0.241997
-0.241068
-0.24005
-0.238899
-0.237564
-0.235945
-0.234061
-0.232488
-0.225763
-0.246594
-0.24677
-0.246707
-0.246491
-0.246143
-0.245679
-0.245125
-0.244501
-0.243826
-0.243109
-0.242354
-0.241553
-0.240692
-0.239741
-0.238663
-0.237412
-0.235905
-0.234196
-0.232741
-0.226926
-0.245485
-0.245701
-0.245681
-0.245518
-0.245229
-0.24483
-0.244344
-0.243791
-0.243186
-0.242539
-0.241851
-0.241118
-0.240322
-0.239439
-0.238434
-0.23727
-0.235879
-0.234342
-0.233006
-0.228031
-0.244418
-0.244673
-0.244693
-0.244579
-0.244346
-0.244008
-0.243587
-0.2431
-0.242562
-0.241981
-0.241359
-0.24069
-0.239959
-0.239143
-0.238213
-0.237137
-0.235864
-0.234495
-0.233281
-0.22906
-0.24339
-0.243682
-0.243741
-0.243673
-0.243492
-0.243212
-0.242851
-0.242427
-0.241953
-0.241435
-0.240876
-0.240269
-0.239601
-0.238853
-0.237998
-0.237012
-0.235859
-0.23465
-0.233559
-0.23
-0.242397
-0.242726
-0.242822
-0.242797
-0.242666
-0.24244
-0.242137
-0.241772
-0.241357
-0.2409
-0.240401
-0.239855
-0.23925
-0.238568
-0.237789
-0.236894
-0.235858
-0.234801
-0.233833
-0.230845
-0.241438
-0.241803
-0.241934
-0.24195
-0.241866
-0.241691
-0.241442
-0.241133
-0.240775
-0.240375
-0.239934
-0.239447
-0.238904
-0.238288
-0.237585
-0.236781
-0.235859
-0.234942
-0.234095
-0.231593
-0.24051
-0.240911
-0.241075
-0.241131
-0.241091
-0.240964
-0.240765
-0.240509
-0.240206
-0.239861
-0.239476
-0.239046
-0.238563
-0.238013
-0.237385
-0.236669
-0.235858
-0.235071
-0.234338
-0.232245
-0.239612
-0.240049
-0.240245
-0.240338
-0.24034
-0.240258
-0.240108
-0.239902
-0.23965
-0.239358
-0.239026
-0.238652
-0.238227
-0.237742
-0.237187
-0.236557
-0.235851
-0.235182
-0.234557
-0.232805
-0.238743
-0.239216
-0.239443
-0.239571
-0.239613
-0.239574
-0.239468
-0.23931
-0.239107
-0.238864
-0.238585
-0.238264
-0.237896
-0.237474
-0.23699
-0.236443
-0.235835
-0.235273
-0.234747
-0.233277
-0.237902
-0.23841
-0.238667
-0.238829
-0.238909
-0.23891
-0.238847
-0.238733
-0.238576
-0.238382
-0.238151
-0.237882
-0.23757
-0.237208
-0.236793
-0.236324
-0.235808
-0.235341
-0.234909
-0.233668
-0.237088
-0.237632
-0.237918
-0.238113
-0.238227
-0.238266
-0.238244
-0.238172
-0.238059
-0.23791
-0.237726
-0.237507
-0.237247
-0.236943
-0.236593
-0.236198
-0.235766
-0.235386
-0.235043
-0.23398
-0.236302
-0.23688
-0.237195
-0.237421
-0.237569
-0.237644
-0.237659
-0.237627
-0.237555
-0.237449
-0.23731
-0.237137
-0.236929
-0.23668
-0.236391
-0.236065
-0.23571
-0.235408
-0.23515
-0.234194
-0.235542
-0.236156
-0.236499
-0.236754
-0.236934
-0.237042
-0.237094
-0.237099
-0.237066
-0.237
-0.236903
-0.236775
-0.236614
-0.236418
-0.236186
-0.235924
-0.235639
-0.235406
-0.235199
-0.234314
-0.23481
-0.23546
-0.235829
-0.236112
-0.236322
-0.236462
-0.236547
-0.236587
-0.236591
-0.236563
-0.236505
-0.23642
-0.236304
-0.236156
-0.235978
-0.235774
-0.235553
-0.23538
-0.235221
-0.234583
-0.234107
-0.234791
-0.235186
-0.235496
-0.235734
-0.235905
-0.236021
-0.236094
-0.236131
-0.236139
-0.236119
-0.236072
-0.235998
-0.235896
-0.235768
-0.235617
-0.235454
-0.235333
-0.235216
-0.23474
-0.233432
-0.23415
-0.23457
-0.234906
-0.235172
-0.23537
-0.235515
-0.235619
-0.235688
-0.235728
-0.235743
-0.235733
-0.235698
-0.235639
-0.235555
-0.235453
-0.235341
-0.235267
-0.235188
-0.234823
-0.232786
-0.233539
-0.233983
-0.234343
-0.234634
-0.234859
-0.235032
-0.235163
-0.235262
-0.235333
-0.23538
-0.235404
-0.235405
-0.235384
-0.235342
-0.235284
-0.235217
-0.235185
-0.235142
-0.234866
-0.232172
-0.232958
-0.233426
-0.233809
-0.234124
-0.234373
-0.234571
-0.234728
-0.234854
-0.234954
-0.23503
-0.235086
-0.23512
-0.235134
-0.235129
-0.23511
-0.235085
-0.235089
-0.23508
-0.234879
-0.23159
-0.232409
-0.232898
-0.233303
-0.23364
-0.233912
-0.234133
-0.234315
-0.234466
-0.234592
-0.234695
-0.234779
-0.234843
-0.234889
-0.234918
-0.234935
-0.234946
-0.234981
-0.235004
-0.234868
-0.231041
-0.231891
-0.232402
-0.232827
-0.233185
-0.233478
-0.233721
-0.233925
-0.234099
-0.234248
-0.234376
-0.234486
-0.234577
-0.234652
-0.234712
-0.23476
-0.234802
-0.234866
-0.234917
-0.234837
-0.230527
-0.231408
-0.231938
-0.232383
-0.23276
-0.233072
-0.233334
-0.233559
-0.233753
-0.233924
-0.234075
-0.234207
-0.234324
-0.234424
-0.234511
-0.234587
-0.234658
-0.234746
-0.234822
-0.234791
-0.230049
-0.230959
-0.231508
-0.23197
-0.232365
-0.232695
-0.232975
-0.233218
-0.233431
-0.233621
-0.233792
-0.233946
-0.234084
-0.234207
-0.234318
-0.234418
-0.234514
-0.234624
-0.234723
-0.234735
-0.229609
-0.230546
-0.231112
-0.231591
-0.232002
-0.232348
-0.232644
-0.232903
-0.233133
-0.23334
-0.233529
-0.233701
-0.233859
-0.234003
-0.234134
-0.234257
-0.234374
-0.234503
-0.234622
-0.234671
-0.229208
-0.23017
-0.230752
-0.231246
-0.231671
-0.232032
-0.232342
-0.232616
-0.232861
-0.233083
-0.233288
-0.233477
-0.233651
-0.233813
-0.233963
-0.234104
-0.234241
-0.234386
-0.234522
-0.234605
-0.228848
-0.229832
-0.230429
-0.230936
-0.231375
-0.231748
-0.232071
-0.232358
-0.232616
-0.232852
-0.23307
-0.233273
-0.233462
-0.233639
-0.233805
-0.233963
-0.234115
-0.234274
-0.234426
-0.234537
-0.22853
-0.229534
-0.230144
-0.230663
-0.231113
-0.231497
-0.231832
-0.232129
-0.232398
-0.232646
-0.232876
-0.233091
-0.233293
-0.233483
-0.233663
-0.233834
-0.234001
-0.234172
-0.234337
-0.234473
-0.228254
-0.229277
-0.229898
-0.230427
-0.230887
-0.23128
-0.231624
-0.231931
-0.23221
-0.232467
-0.232707
-0.232933
-0.233145
-0.233346
-0.233537
-0.23372
-0.233899
-0.234079
-0.234256
-0.234413
-0.228023
-0.229061
-0.229691
-0.230229
-0.230697
-0.231098
-0.23145
-0.231765
-0.232052
-0.232317
-0.232565
-0.232799
-0.23302
-0.23323
-0.233431
-0.233623
-0.233811
-0.234
-0.234186
-0.23436
-0.227837
-0.228887
-0.229525
-0.230069
-0.230544
-0.230952
-0.23131
-0.231631
-0.231924
-0.232195
-0.23245
-0.232691
-0.232919
-0.233136
-0.233344
-0.233544
-0.233739
-0.233934
-0.234128
-0.234315
-0.227697
-0.228756
-0.2294
-0.22995
-0.230429
-0.230842
-0.231204
-0.23153
-0.231828
-0.232104
-0.232363
-0.232609
-0.232842
-0.233065
-0.233278
-0.233483
-0.233684
-0.233884
-0.234083
-0.23428
-0.227603
-0.228669
-0.229316
-0.229869
-0.230352
-0.230768
-0.231134
-0.231463
-0.231763
-0.232043
-0.232305
-0.232554
-0.232791
-0.233017
-0.233234
-0.233443
-0.233647
-0.23385
-0.234052
-0.234257
-0.227556
-0.228625
-0.229274
-0.229829
-0.230314
-0.230731
-0.231099
-0.231429
-0.231731
-0.232012
-0.232276
-0.232527
-0.232765
-0.232993
-0.233211
-0.233422
-0.233628
-0.233833
-0.234037
-0.234245
-0.234502
-0.234711
-0.234931
-0.235141
-0.235346
-0.235545
-0.235737
-0.23592
-0.236092
-0.236251
-0.236394
-0.236519
-0.236623
-0.236702
-0.234527
-0.234729
-0.23495
-0.235159
-0.235363
-0.235561
-0.235752
-0.235935
-0.236107
-0.236266
-0.236409
-0.236534
-0.236638
-0.236717
-0.234575
-0.234766
-0.234985
-0.235192
-0.235395
-0.235592
-0.235782
-0.235964
-0.236135
-0.236294
-0.236437
-0.236561
-0.236665
-0.236744
-0.234647
-0.23482
-0.235037
-0.235241
-0.235442
-0.235637
-0.235826
-0.236006
-0.236177
-0.236335
-0.236477
-0.236601
-0.236704
-0.236783
-0.234741
-0.234891
-0.235105
-0.235305
-0.235503
-0.235696
-0.235883
-0.236062
-0.236231
-0.236388
-0.236529
-0.236653
-0.236756
-0.236834
-0.234855
-0.234977
-0.235188
-0.235383
-0.235577
-0.235767
-0.235952
-0.236129
-0.236297
-0.236453
-0.236593
-0.236716
-0.236818
-0.236896
-0.234989
-0.235077
-0.235284
-0.235474
-0.235664
-0.235851
-0.236033
-0.236208
-0.236374
-0.236528
-0.236668
-0.236789
-0.23689
-0.236967
-0.235141
-0.235189
-0.235393
-0.235577
-0.235761
-0.235945
-0.236124
-0.236297
-0.236461
-0.236613
-0.236751
-0.236872
-0.236972
-0.237048
-0.235308
-0.235313
-0.235511
-0.235689
-0.235868
-0.236048
-0.236223
-0.236394
-0.236556
-0.236706
-0.236843
-0.236963
-0.237062
-0.237137
-0.23549
-0.235445
-0.235639
-0.23581
-0.235983
-0.236158
-0.23633
-0.236498
-0.236658
-0.236807
-0.236942
-0.23706
-0.237158
-0.237232
-0.235683
-0.235584
-0.235774
-0.235937
-0.236104
-0.236275
-0.236443
-0.236608
-0.236765
-0.236912
-0.237046
-0.237163
-0.237259
-0.237333
-0.237379
-0.235886
-0.235728
-0.235913
-0.236068
-0.236229
-0.236395
-0.23656
-0.236722
-0.236877
-0.237022
-0.237154
-0.237269
-0.237365
-0.237437
-0.237483
-0.236097
-0.235875
-0.236056
-0.236203
-0.236357
-0.236518
-0.23668
-0.236838
-0.236991
-0.237134
-0.237264
-0.237378
-0.237473
-0.237544
-0.237589
-0.236315
-0.236022
-0.236199
-0.236339
-0.236486
-0.236642
-0.2368
-0.236955
-0.237105
-0.237247
-0.237375
-0.237488
-0.237582
-0.237652
-0.237697
-0.236539
-0.236168
-0.236342
-0.236474
-0.236613
-0.236765
-0.236919
-0.237071
-0.237219
-0.237358
-0.237486
-0.237597
-0.23769
-0.23776
-0.237803
-0.236769
-0.236309
-0.236482
-0.236606
-0.236738
-0.236885
-0.237035
-0.237185
-0.23733
-0.237468
-0.237593
-0.237704
-0.237795
-0.237865
-0.237908
-0.237004
-0.236443
-0.236619
-0.236735
-0.236859
-0.237001
-0.237147
-0.237294
-0.237437
-0.237573
-0.237697
-0.237806
-0.237897
-0.237966
-0.238009
-0.237247
-0.23657
-0.23675
-0.236858
-0.236973
-0.237111
-0.237253
-0.237397
-0.237538
-0.237672
-0.237795
-0.237903
-0.237993
-0.238062
-0.238105
-0.237535
-0.236682
-0.236872
-0.236974
-0.237081
-0.237213
-0.237351
-0.237492
-0.237631
-0.237763
-0.237885
-0.237993
-0.238083
-0.238151
-0.238194
-0.237908
-0.23677
-0.236985
-0.237083
-0.237179
-0.237307
-0.23744
-0.237578
-0.237715
-0.237846
-0.237967
-0.238074
-0.238163
-0.238231
-0.238275
-0.238024
-0.236922
-0.23709
-0.237182
-0.237268
-0.23739
-0.237519
-0.237654
-0.237788
-0.237917
-0.238037
-0.238144
-0.238233
-0.238302
-0.238346
-0.238223
-0.237057
-0.237181
-0.237272
-0.237346
-0.237461
-0.237586
-0.237717
-0.237849
-0.237977
-0.238096
-0.238202
-0.238292
-0.238361
-0.238407
-0.238423
-0.238473
-0.237171
-0.237262
-0.237352
-0.237412
-0.237521
-0.23764
-0.237767
-0.237897
-0.238023
-0.238141
-0.238247
-0.238337
-0.238407
-0.238454
-0.238472
-0.238743
-0.237275
-0.237332
-0.237422
-0.237466
-0.237566
-0.23768
-0.237803
-0.237929
-0.238054
-0.238171
-0.238277
-0.238368
-0.238439
-0.238487
-0.238508
-0.239032
-0.237378
-0.237393
-0.237481
-0.237507
-0.237597
-0.237704
-0.237822
-0.237945
-0.238067
-0.238184
-0.23829
-0.238382
-0.238454
-0.238504
-0.238528
-0.239347
-0.237481
-0.237443
-0.23753
-0.237535
-0.237613
-0.237712
-0.237823
-0.237943
-0.238063
-0.238179
-0.238285
-0.238378
-0.238452
-0.238505
-0.238531
-0.23969
-0.237587
-0.237483
-0.237568
-0.237548
-0.237612
-0.237701
-0.237806
-0.237921
-0.238039
-0.238154
-0.23826
-0.238355
-0.238431
-0.238487
-0.238516
-0.240063
-0.237702
-0.237514
-0.237595
-0.237546
-0.237594
-0.237672
-0.237768
-0.237878
-0.237993
-0.238107
-0.238214
-0.23831
-0.23839
-0.238448
-0.238482
-0.240464
-0.237828
-0.237538
-0.23761
-0.237529
-0.237557
-0.237621
-0.237707
-0.237811
-0.237923
-0.238036
-0.238145
-0.238243
-0.238325
-0.238388
-0.238426
-0.238435
-0.24089
-0.237968
-0.237555
-0.237614
-0.237495
-0.237498
-0.237547
-0.237622
-0.23772
-0.237828
-0.237941
-0.23805
-0.238151
-0.238237
-0.238304
-0.238347
-0.238362
-0.241331
-0.238121
-0.237566
-0.237605
-0.237441
-0.237417
-0.237448
-0.237511
-0.2376
-0.237706
-0.237817
-0.237928
-0.238032
-0.238123
-0.238195
-0.238244
-0.238264
-0.241772
-0.238284
-0.23757
-0.23758
-0.237365
-0.237309
-0.23732
-0.237369
-0.237451
-0.237553
-0.237664
-0.237777
-0.237885
-0.237981
-0.238059
-0.238114
-0.238141
-0.242185
-0.238444
-0.237567
-0.237535
-0.237262
-0.237171
-0.237161
-0.237196
-0.23727
-0.237368
-0.237479
-0.237595
-0.237707
-0.237808
-0.237893
-0.237956
-0.237991
-0.242533
-0.238583
-0.237552
-0.237465
-0.237127
-0.236998
-0.236966
-0.236986
-0.237052
-0.237147
-0.23726
-0.237379
-0.237496
-0.237604
-0.237696
-0.237767
-0.23781
-0.242764
-0.238662
-0.23751
-0.237359
-0.236949
-0.236781
-0.236729
-0.236736
-0.236794
-0.236888
-0.237002
-0.237125
-0.237249
-0.237364
-0.237465
-0.237544
-0.237597
-0.237617
-0.242793
-0.238612
-0.237418
-0.237201
-0.236718
-0.236513
-0.236444
-0.23644
-0.236493
-0.236585
-0.236703
-0.236832
-0.236963
-0.237087
-0.237198
-0.237287
-0.237351
-0.237381
-0.242504
-0.23837
-0.237266
-0.236991
-0.236435
-0.236196
-0.236114
-0.236103
-0.236152
-0.236245
-0.236367
-0.236502
-0.236642
-0.236776
-0.236896
-0.236997
-0.237071
-0.237113
-0.241863
-0.237939
-0.237065
-0.236744
-0.236114
-0.235841
-0.235748
-0.235731
-0.235776
-0.235869
-0.235994
-0.236136
-0.236283
-0.236426
-0.236557
-0.236668
-0.236753
-0.236807
-0.240715
-0.236959
-0.236586
-0.23632
-0.235651
-0.235355
-0.235263
-0.235249
-0.235296
-0.235393
-0.235525
-0.235676
-0.235835
-0.235991
-0.236136
-0.236262
-0.236363
-0.236432
-0.23692
-0.23397
-0.235245
-0.235371
-0.234774
-0.234518
-0.234482
-0.234517
-0.234599
-0.234727
-0.23489
-0.235072
-0.235261
-0.235447
-0.23562
-0.235775
-0.235902
-0.235997
-0.222611
-0.227011
-0.232992
-0.234127
-0.233688
-0.233503
-0.233571
-0.23369
-0.233828
-0.233999
-0.2342
-0.234419
-0.234642
-0.234859
-0.235062
-0.235244
-0.235397
-0.235516
-0.235593
-0.220739
-0.223684
-0.230415
-0.232016
-0.231531
-0.231327
-0.231518
-0.231774
-0.232009
-0.232251
-0.232515
-0.232791
-0.233066
-0.233332
-0.233579
-0.233802
-0.233994
-0.234148
-0.234258
-0.220024
-0.221312
-0.227014
-0.228899
-0.228657
-0.228537
-0.228844
-0.229243
-0.229598
-0.229935
-0.230282
-0.230636
-0.230982
-0.231313
-0.231621
-0.2319
-0.232143
-0.232344
-0.232498
-0.218692
-0.2188
-0.222973
-0.224875
-0.225007
-0.22507
-0.22549
-0.226025
-0.226518
-0.226977
-0.227432
-0.227885
-0.228325
-0.228743
-0.229132
-0.229486
-0.229799
-0.230065
-0.230279
-0.215897
-0.215706
-0.218453
-0.220104
-0.220558
-0.220859
-0.221406
-0.222069
-0.222708
-0.223307
-0.22389
-0.224462
-0.225015
-0.225539
-0.226027
-0.226474
-0.226875
-0.227222
-0.227511
-0.211508
-0.211644
-0.213346
-0.214658
-0.215352
-0.215918
-0.21662
-0.217411
-0.218193