/*--------------------------------*- C++ -*----------------------------------*\
  =========                 |
  \\      /  F ield         | OpenFOAM: The Open Source CFD Toolbox
   \\    /   O peration     | Website:  https://openfoam.org
    \\  /    A nd           | Version:  7
     \\/     M anipulation  |
\*---------------------------------------------------------------------------*/
FoamFile
{
    version     2.0;
    format      ascii;
    class       volScalarField;
    location    "100";
    object      p;
}
// * * * * * * * * * * * * * * * * * * * * * * * * * * * * * * * * * * * * * //

dimensions      [0 2 -2 0 0 0 0];

internalField   nonuniform List<scalar> 
34000
(
-0.392816
-0.393603
-0.394042
-0.394357
-0.394623
-0.394923
-0.395349
-0.39598
-0.396878
-0.398087
-0.399641
-0.401566
-0.403895
-0.406663
-0.409917
-0.413712
-0.418118
-0.423213
-0.429073
-0.435791
-0.390553
-0.391572
-0.392132
-0.392539
-0.392875
-0.39322
-0.393669
-0.3943
-0.395171
-0.396322
-0.397783
-0.399576
-0.401727
-0.404267
-0.407232
-0.410673
-0.414648
-0.419227
-0.424472
-0.430475
-0.388294
-0.389542
-0.390221
-0.390717
-0.391119
-0.391507
-0.391978
-0.392605
-0.393444
-0.394532
-0.395894
-0.397546
-0.39951
-0.401807
-0.40447
-0.407536
-0.411057
-0.415089
-0.419682
-0.424919
-0.386058
-0.387529
-0.388324
-0.388907
-0.389373
-0.389803
-0.390292
-0.390913
-0.391718
-0.392738
-0.393995
-0.395501
-0.397268
-0.399313
-0.401659
-0.404335
-0.407381
-0.410844
-0.414752
-0.419181
-0.383865
-0.385553
-0.38646
-0.387126
-0.387655
-0.388124
-0.38863
-0.389242
-0.390009
-0.39096
-0.392108
-0.393461
-0.395026
-0.396811
-0.398831
-0.401104
-0.403659
-0.406533
-0.409732
-0.413318
-0.381734
-0.383632
-0.384645
-0.385392
-0.385981
-0.386488
-0.387009
-0.387611
-0.388339
-0.389217
-0.390254
-0.391452
-0.39281
-0.394329
-0.396014
-0.397874
-0.399927
-0.4022
-0.404669
-0.407388
-0.379687
-0.381784
-0.382899
-0.383723
-0.384369
-0.384912
-0.385447
-0.386038
-0.386726
-0.387531
-0.388455
-0.389495
-0.390643
-0.391892
-0.393237
-0.394679
-0.396222
-0.397884
-0.399613
-0.401447
-0.377741
-0.380026
-0.381238
-0.382135
-0.382836
-0.383413
-0.383961
-0.384541
-0.385188
-0.385918
-0.38673
-0.387611
-0.388548
-0.389525
-0.390529
-0.391547
-0.392578
-0.393627
-0.39461
-0.395551
-0.375917
-0.378377
-0.37968
-0.380645
-0.381398
-0.382008
-0.382568
-0.383136
-0.383743
-0.384399
-0.385098
-0.385821
-0.386547
-0.387252
-0.387914
-0.388509
-0.389026
-0.389464
-0.389701
-0.38975
-0.374232
-0.376854
-0.37824
-0.379269
-0.380071
-0.380713
-0.381284
-0.381839
-0.382407
-0.38299
-0.383577
-0.384143
-0.38466
-0.385095
-0.385416
-0.385591
-0.385597
-0.385428
-0.384927
-0.384091
-0.372703
-0.375471
-0.376933
-0.378022
-0.37887
-0.379541
-0.380123
-0.380666
-0.381195
-0.381706
-0.382183
-0.382596
-0.382906
-0.383073
-0.383058
-0.382816
-0.382318
-0.381552
-0.380324
-0.378617
-0.371345
-0.374244
-0.375774
-0.376917
-0.377807
-0.378506
-0.379098
-0.37963
-0.380121
-0.380563
-0.380933
-0.381194
-0.381301
-0.381206
-0.380858
-0.380207
-0.379212
-0.37786
-0.375923
-0.373364
-0.370173
-0.373185
-0.374775
-0.375966
-0.376896
-0.377621
-0.378222
-0.378744
-0.379197
-0.379573
-0.379839
-0.379953
-0.379862
-0.379509
-0.378836
-0.377781
-0.3763
-0.374377
-0.37175
-0.368362
-0.3692
-0.372306
-0.373947
-0.375182
-0.376147
-0.376895
-0.377506
-0.378017
-0.378436
-0.378746
-0.378913
-0.378884
-0.378601
-0.377997
-0.377006
-0.375557
-0.3736
-0.371122
-0.367827
-0.363635
-0.368435
-0.371616
-0.3733
-0.374571
-0.375568
-0.376338
-0.376957
-0.377458
-0.377845
-0.378094
-0.378164
-0.377999
-0.377529
-0.376682
-0.375381
-0.373548
-0.371127
-0.368111
-0.364171
-0.359202
-0.367888
-0.371124
-0.372841
-0.374143
-0.375166
-0.375956
-0.376583
-0.377076
-0.377431
-0.377623
-0.377602
-0.377305
-0.376656
-0.375574
-0.373972
-0.371766
-0.368893
-0.365355
-0.360796
-0.355073
-0.367565
-0.370836
-0.372575
-0.373901
-0.374947
-0.375755
-0.376389
-0.376873
-0.377201
-0.377338
-0.377232
-0.37681
-0.37599
-0.37468
-0.372788
-0.370219
-0.366907
-0.362864
-0.357709
-0.351253
-0.36747
-0.370754
-0.372507
-0.37385
-0.374914
-0.375737
-0.376377
-0.376855
-0.377156
-0.377244
-0.377057
-0.376518
-0.375535
-0.374008
-0.371835
-0.368915
-0.365176
-0.360644
-0.354916
-0.347741
-0.367606
-0.370881
-0.372637
-0.37399
-0.375068
-0.375902
-0.376548
-0.37702
-0.377298
-0.37734
-0.377079
-0.37643
-0.375293
-0.373559
-0.371118
-0.367857
-0.363703
-0.358696
-0.352418
-0.34453
-0.367971
-0.371217
-0.372964
-0.37432
-0.375406
-0.37625
-0.376901
-0.377367
-0.377625
-0.377626
-0.377297
-0.376545
-0.375264
-0.373335
-0.370636
-0.367048
-0.36249
-0.357021
-0.350212
-0.341606
-0.368563
-0.371758
-0.373487
-0.374837
-0.375926
-0.376776
-0.377431
-0.377892
-0.378133
-0.378097
-0.377706
-0.376861
-0.375446
-0.373332
-0.370389
-0.366487
-0.361536
-0.355616
-0.348296
-0.338951
-0.369377
-0.372499
-0.374199
-0.375537
-0.376623
-0.377476
-0.378132
-0.37859
-0.378814
-0.378746
-0.3783
-0.37737
-0.375831
-0.373546
-0.370372
-0.366168
-0.360835
-0.354474
-0.346663
-0.336543
-0.370405
-0.373433
-0.375094
-0.376411
-0.377489
-0.37834
-0.378996
-0.37945
-0.379661
-0.379564
-0.379068
-0.378061
-0.37641
-0.373965
-0.370575
-0.366085
-0.360382
-0.353588
-0.345308
-0.334359
-0.371639
-0.374553
-0.376163
-0.377451
-0.378514
-0.379359
-0.380013
-0.380461
-0.38066
-0.380538
-0.379999
-0.378923
-0.377168
-0.374577
-0.370985
-0.366224
-0.360164
-0.352944
-0.344224
-0.332366
-0.373065
-0.375846
-0.377396
-0.378646
-0.379687
-0.380522
-0.38117
-0.381612
-0.381798
-0.381653
-0.381075
-0.379936
-0.378089
-0.375364
-0.371585
-0.36657
-0.360167
-0.352527
-0.343399
-0.3305
-0.374672
-0.377302
-0.378781
-0.379985
-0.380997
-0.381815
-0.382453
-0.382886
-0.383059
-0.382892
-0.382278
-0.381083
-0.379151
-0.376304
-0.372352
-0.3671
-0.360371
-0.352321
-0.342832
-0.328649
-0.376444
-0.378908
-0.380305
-0.381455
-0.382429
-0.383224
-0.383847
-0.384266
-0.384424
-0.384235
-0.383586
-0.382339
-0.38033
-0.37737
-0.373259
-0.367789
-0.360753
-0.352308
-0.342546
-0.326921
-0.378366
-0.380648
-0.381955
-0.38304
-0.38397
-0.384734
-0.385334
-0.385736
-0.385875
-0.385661
-0.384977
-0.38368
-0.381597
-0.378534
-0.374276
-0.368603
-0.361284
-0.352441
-0.342309
-0.325767
-0.380422
-0.38251
-0.383716
-0.384729
-0.385603
-0.386329
-0.386899
-0.387276
-0.38739
-0.387147
-0.386426
-0.385077
-0.382924
-0.379762
-0.375368
-0.369509
-0.361932
-0.352723
-0.342162
-0.324737
-0.382595
-0.384477
-0.385575
-0.386505
-0.387316
-0.387992
-0.388524
-0.388867
-0.388949
-0.388672
-0.387908
-0.386505
-0.38428
-0.381021
-0.376498
-0.370467
-0.362653
-0.353103
-0.342208
-0.323737
-0.384868
-0.386537
-0.387518
-0.388356
-0.389092
-0.389709
-0.390192
-0.390492
-0.390533
-0.390211
-0.389398
-0.387935
-0.385634
-0.382279
-0.377631
-0.371438
-0.363408
-0.353535
-0.342397
-0.3228
-0.387225
-0.388674
-0.389531
-0.390267
-0.390918
-0.391465
-0.391887
-0.392133
-0.392121
-0.391745
-0.390873
-0.389341
-0.386958
-0.383503
-0.37873
-0.372384
-0.364157
-0.353982
-0.342668
-0.321941
-0.389651
-0.390876
-0.391601
-0.392227
-0.392782
-0.393246
-0.393595
-0.393773
-0.393696
-0.393254
-0.392311
-0.3907
-0.388226
-0.384665
-0.379766
-0.37327
-0.364863
-0.354409
-0.342966
-0.321164
-0.392132
-0.39313
-0.393718
-0.394225
-0.394672
-0.395041
-0.395303
-0.395399
-0.395243
-0.39472
-0.393696
-0.391993
-0.389417
-0.385741
-0.380711
-0.374068
-0.365492
-0.354789
-0.343237
-0.320472
-0.394656
-0.395428
-0.395873
-0.39625
-0.396578
-0.396839
-0.396999
-0.397
-0.39675
-0.396134
-0.395009
-0.393203
-0.390514
-0.386714
-0.381547
-0.374757
-0.366018
-0.355102
-0.34343
-0.319889
-0.397212
-0.397759
-0.398056
-0.398296
-0.398494
-0.398632
-0.398677
-0.398566
-0.398206
-0.397481
-0.396244
-0.394319
-0.391505
-0.38757
-0.382261
-0.375324
-0.366426
-0.355343
-0.343498
-0.31945
-0.399793
-0.400118
-0.400263
-0.400357
-0.400413
-0.400416
-0.40033
-0.400091
-0.399607
-0.398757
-0.397392
-0.395335
-0.392384
-0.388306
-0.382849
-0.375765
-0.366711
-0.355517
-0.343358
-0.319101
-0.402393
-0.402501
-0.402488
-0.402429
-0.402332
-0.402186
-0.401955
-0.401574
-0.40095
-0.399959
-0.398452
-0.39625
-0.393149
-0.388919
-0.383312
-0.376087
-0.36689
-0.35566
-0.342875
-0.318602
-0.405009
-0.404903
-0.404732
-0.404511
-0.404251
-0.403944
-0.403554
-0.403015
-0.402235
-0.401089
-0.399426
-0.397066
-0.393804
-0.389415
-0.383656
-0.376305
-0.367009
-0.355882
-0.342155
-0.318388
-0.40764
-0.407326
-0.406993
-0.406604
-0.406171
-0.40569
-0.405127
-0.404417
-0.403467
-0.402152
-0.400319
-0.397789
-0.394356
-0.3898
-0.383889
-0.376426
-0.367094
-0.356266
-0.342012
-0.322231
-0.410288
-0.409772
-0.409274
-0.40871
-0.408095
-0.40743
-0.406681
-0.405787
-0.404654
-0.403156
-0.401142
-0.398428
-0.394814
-0.390082
-0.384015
-0.376448
-0.367108
-0.356632
-0.342934
-0.335481
-0.412958
-0.412244
-0.411579
-0.410835
-0.410029
-0.409169
-0.408224
-0.407133
-0.405805
-0.404113
-0.401904
-0.398997
-0.395189
-0.390271
-0.384038
-0.376358
-0.366999
-0.356792
-0.343454
-0.338696
-0.415657
-0.414749
-0.413914
-0.412984
-0.411981
-0.410917
-0.409765
-0.408467
-0.406932
-0.405035
-0.40262
-0.399507
-0.395494
-0.390376
-0.383963
-0.376148
-0.366734
-0.356628
-0.343432
-0.338775
-0.418392
-0.417293
-0.416287
-0.415167
-0.413959
-0.412683
-0.411316
-0.409802
-0.40805
-0.405937
-0.403305
-0.399972
-0.39574
-0.390407
-0.383794
-0.375815
-0.366298
-0.356147
-0.342991
-0.337653
-0.421174
-0.419886
-0.418706
-0.417391
-0.415973
-0.414479
-0.412889
-0.41115
-0.409173
-0.406833
-0.403973
-0.400408
-0.39594
-0.390373
-0.383536
-0.375358
-0.365689
-0.35538
-0.342181
-0.335792
-0.424016
-0.422538
-0.421181
-0.419668
-0.418034
-0.416316
-0.414497
-0.412527
-0.410316
-0.40774
-0.404639
-0.400827
-0.396105
-0.390282
-0.383194
-0.374782
-0.364911
-0.354361
-0.341059
-0.333515
-0.426929
-0.425259
-0.423723
-0.422007
-0.420155
-0.418209
-0.416155
-0.413946
-0.411495
-0.408672
-0.405317
-0.401241
-0.396245
-0.390141
-0.382773
-0.37409
-0.363976
-0.353127
-0.339686
-0.331026
-0.429926
-0.42806
-0.426341
-0.424421
-0.422347
-0.420168
-0.417876
-0.415423
-0.412722
-0.409643
-0.406019
-0.401661
-0.396369
-0.389957
-0.382278
-0.37329
-0.362896
-0.351712
-0.338114
-0.328442
-0.433021
-0.430953
-0.429049
-0.42692
-0.424621
-0.422208
-0.419673
-0.416971
-0.414013
-0.410665
-0.406757
-0.402096
-0.396481
-0.389733
-0.381714
-0.372389
-0.361684
-0.350147
-0.336384
-0.32583
-0.436226
-0.433949
-0.431855
-0.429515
-0.426989
-0.424339
-0.421559
-0.418602
-0.415377
-0.411747
-0.407538
-0.402551
-0.396587
-0.389473
-0.381082
-0.371392
-0.360354
-0.348457
-0.334529
-0.323225
-0.439554
-0.437058
-0.43477
-0.432217
-0.429462
-0.426573
-0.423543
-0.420326
-0.416826
-0.412899
-0.408367
-0.403029
-0.396688
-0.389177
-0.380386
-0.370307
-0.358917
-0.346664
-0.332574
-0.320643
-0.443015
-0.44029
-0.437804
-0.435035
-0.432049
-0.428918
-0.425637
-0.422153
-0.418365
-0.414125
-0.409248
-0.403532
-0.396782
-0.388845
-0.379627
-0.369137
-0.357385
-0.344783
-0.330537
-0.318087
-0.44662
-0.443655
-0.440965
-0.437977
-0.434759
-0.431385
-0.427846
-0.424088
-0.42
-0.415429
-0.410181
-0.404057
-0.396868
-0.388474
-0.378804
-0.367887
-0.355766
-0.342826
-0.328431
-0.315553
-0.450377
-0.447158
-0.444261
-0.441052
-0.4376
-0.43398
-0.430179
-0.426136
-0.421733
-0.416808
-0.411164
-0.404601
-0.396941
-0.388061
-0.377916
-0.36656
-0.354066
-0.340802
-0.326262
-0.313035
-0.454292
-0.450807
-0.447697
-0.444265
-0.440576
-0.436707
-0.432639
-0.428299
-0.423564
-0.418261
-0.412191
-0.405157
-0.396993
-0.387602
-0.376963
-0.365158
-0.35229
-0.338716
-0.324036
-0.310521
-0.45837
-0.454605
-0.451278
-0.44762
-0.443693
-0.439572
-0.435227
-0.430579
-0.425491
-0.419783
-0.413255
-0.405715
-0.397018
-0.387089
-0.37594
-0.363681
-0.350441
-0.33657
-0.321755
-0.308
-0.462614
-0.458556
-0.455007
-0.45112
-0.446952
-0.442574
-0.437944
-0.432971
-0.427507
-0.421366
-0.414345
-0.406267
-0.397005
-0.386516
-0.374845
-0.362128
-0.348522
-0.334365
-0.319419
-0.305463
-0.467022
-0.462659
-0.458884
-0.454767
-0.450355
-0.445712
-0.440787
-0.435471
-0.429606
-0.422998
-0.415451
-0.406799
-0.396944
-0.385876
-0.373673
-0.360497
-0.346531
-0.332101
-0.317026
-0.302897
-0.471594
-0.466914
-0.46291
-0.458559
-0.453899
-0.448985
-0.44375
-0.43807
-0.431776
-0.424668
-0.416557
-0.407299
-0.396825
-0.38516
-0.372418
-0.358788
-0.344468
-0.329775
-0.314573
-0.300292
-0.476325
-0.471319
-0.467081
-0.462494
-0.457581
-0.452388
-0.446827
-0.440759
-0.434003
-0.426359
-0.417648
-0.407751
-0.396634
-0.38436
-0.371077
-0.356995
-0.342329
-0.327384
-0.312057
-0.297638
-0.48121
-0.475867
-0.471394
-0.466568
-0.461397
-0.455912
-0.450006
-0.443524
-0.436272
-0.428054
-0.418707
-0.40814
-0.396359
-0.383466
-0.369641
-0.355114
-0.340112
-0.324923
-0.309473
-0.294927
-0.486238
-0.480551
-0.475841
-0.470774
-0.465338
-0.459549
-0.453277
-0.44635
-0.438566
-0.429735
-0.419715
-0.40845
-0.395988
-0.38247
-0.368105
-0.353142
-0.337812
-0.322387
-0.306814
-0.292148
-0.4914
-0.485363
-0.480414
-0.475103
-0.469394
-0.463286
-0.456624
-0.449219
-0.440864
-0.43138
-0.420652
-0.408664
-0.395507
-0.38136
-0.366462
-0.351071
-0.335423
-0.319771
-0.304076
-0.289294
-0.496681
-0.490291
-0.485103
-0.479545
-0.473554
-0.467109
-0.46003
-0.45211
-0.443145
-0.432968
-0.421499
-0.408765
-0.394903
-0.380128
-0.364704
-0.348896
-0.332939
-0.317067
-0.301252
-0.286357
-0.502066
-0.49532
-0.489893
-0.484085
-0.477803
-0.471
-0.463473
-0.455002
-0.445383
-0.434475
-0.422234
-0.408736
-0.394162
-0.378764
-0.362823
-0.34661
-0.330354
-0.314268
-0.298335
-0.283328
-0.507537
-0.500435
-0.494771
-0.488708
-0.482122
-0.47494
-0.466932
-0.457869
-0.447555
-0.435877
-0.422837
-0.408561
-0.393272
-0.377257
-0.360811
-0.344205
-0.32766
-0.311368
-0.295317
-0.280201
-0.513073
-0.505617
-0.499717
-0.493396
-0.486492
-0.478905
-0.470382
-0.460685
-0.449634
-0.43715
-0.423287
-0.408221
-0.39222
-0.375596
-0.358658
-0.341673
-0.324849
-0.308358
-0.292193
-0.276968
-0.518651
-0.510846
-0.504711
-0.498127
-0.49089
-0.482871
-0.473795
-0.46342
-0.451591
-0.438269
-0.423563
-0.4077
-0.390991
-0.373772
-0.356357
-0.339005
-0.321914
-0.305231
-0.288954
-0.273621
-0.524246
-0.516097
-0.509731
-0.502878
-0.495291
-0.48681
-0.47714
-0.466046
-0.453398
-0.439209
-0.423643
-0.406982
-0.389574
-0.371774
-0.353897
-0.336193
-0.318845
-0.301978
-0.285593
-0.270154
-0.52983
-0.521346
-0.514751
-0.507623
-0.499666
-0.490691
-0.480388
-0.46853
-0.455026
-0.439944
-0.423507
-0.406051
-0.387956
-0.369591
-0.351269
-0.333229
-0.315635
-0.298591
-0.282101
-0.266559
-0.535372
-0.526563
-0.519743
-0.512332
-0.503984
-0.494482
-0.483503
-0.47084
-0.456446
-0.440449
-0.423136
-0.404891
-0.386123
-0.367211
-0.348463
-0.330101
-0.312273
-0.295062
-0.278472
-0.26283
-0.540841
-0.531719
-0.524677
-0.516974
-0.508213
-0.498149
-0.486453
-0.472944
-0.457628
-0.440701
-0.42251
-0.403485
-0.384063
-0.364625
-0.345469
-0.326801
-0.308751
-0.291381
-0.274698
-0.258959
-0.546202
-0.536781
-0.529521
-0.521516
-0.512317
-0.501654
-0.4892
-0.474808
-0.458544
-0.440675
-0.421609
-0.40182
-0.381763
-0.361821
-0.342277
-0.32332
-0.30506
-0.287542
-0.270772
-0.254941
-0.551418
-0.541714
-0.534238
-0.525922
-0.516259
-0.504961
-0.491708
-0.476398
-0.459165
-0.440347
-0.420415
-0.39988
-0.379212
-0.358788
-0.338877
-0.319647
-0.301191
-0.283535
-0.266685
-0.250768
-0.55645
-0.546482
-0.538793
-0.530153
-0.52
-0.508029
-0.493939
-0.477681
-0.459462
-0.439695
-0.418911
-0.397652
-0.376397
-0.355515
-0.335258
-0.315774
-0.297135
-0.279352
-0.26243
-0.246435
-0.561259
-0.551045
-0.543146
-0.534169
-0.523499
-0.51082
-0.495857
-0.478624
-0.459408
-0.438698
-0.417078
-0.395119
-0.373305
-0.351991
-0.33141
-0.31169
-0.292883
-0.274986
-0.258001
-0.241935
-0.565804
-0.555363
-0.547257
-0.53793
-0.526715
-0.513293
-0.497424
-0.479195
-0.458978
-0.437334
-0.414901
-0.392271
-0.369925
-0.348206
-0.327324
-0.307386
-0.288427
-0.270428
-0.25339
-0.237263
-0.57004
-0.559395
-0.551084
-0.541392
-0.529605
-0.515406
-0.498604
-0.479363
-0.458145
-0.435584
-0.412363
-0.389092
-0.366247
-0.34415
-0.32299
-0.302854
-0.283758
-0.265671
-0.248592
-0.232413
-0.573926
-0.563099
-0.554584
-0.544513
-0.532126
-0.51712
-0.49936
-0.479098
-0.456885
-0.433429
-0.40945
-0.385571
-0.362257
-0.339811
-0.318398
-0.298083
-0.278868
-0.260709
-0.2436
-0.227379
-0.577415
-0.56643
-0.557714
-0.547249
-0.534236
-0.518395
-0.499658
-0.478371
-0.455176
-0.43085
-0.406148
-0.381696
-0.357947
-0.33518
-0.313538
-0.293067
-0.27375
-0.255534
-0.238407
-0.222158
-0.580465
-0.569345
-0.560429
-0.549555
-0.535892
-0.519192
-0.499464
-0.477154
-0.452997
-0.427831
-0.402442
-0.377454
-0.353304
-0.330248
-0.308403
-0.287797
-0.268396
-0.25014
-0.233009
-0.216744
-0.58303
-0.5718
-0.562684
-0.551386
-0.537051
-0.519471
-0.498745
-0.475421
-0.450326
-0.424357
-0.398319
-0.372836
-0.348321
-0.325005
-0.302984
-0.282264
-0.2628
-0.244521
-0.2274
-0.211134
-0.585064
-0.57375
-0.564435
-0.5527
-0.537673
-0.519198
-0.497471
-0.473149
-0.447146
-0.420412
-0.393769
-0.36783
-0.342986
-0.319443
-0.297273
-0.276464
-0.256955
-0.238672
-0.221576
-0.205323
-0.586525
-0.575152
-0.565639
-0.553454
-0.537717
-0.518338
-0.495614
-0.470315
-0.443439
-0.415983
-0.38878
-0.362428
-0.337293
-0.313554
-0.291262
-0.270388
-0.250856
-0.232588
-0.215533
-0.199309
-0.587369
-0.575963
-0.566252
-0.553606
-0.537146
-0.516857
-0.493147
-0.466899
-0.439191
-0.411059
-0.383342
-0.35662
-0.331232
-0.307331
-0.284946
-0.26403
-0.244498
-0.226265
-0.209267
-0.193088
-0.587555
-0.576141
-0.566234
-0.553116
-0.535924
-0.514724
-0.490046
-0.462881
-0.434386
-0.405629
-0.377447
-0.350399
-0.324797
-0.300768
-0.278318
-0.257387
-0.237876
-0.219698
-0.202774
-0.186659
-0.587042
-0.575646
-0.565543
-0.551946
-0.534016
-0.511913
-0.486289
-0.458247
-0.429013
-0.399682
-0.371085
-0.343757
-0.317981
-0.293857
-0.271373
-0.250452
-0.230986
-0.212884
-0.196052
-0.180018
-0.585793
-0.574439
-0.564143
-0.550061
-0.531391
-0.508396
-0.481857
-0.452981
-0.42306
-0.393211
-0.364251
-0.336689
-0.310778
-0.286595
-0.264106
-0.243222
-0.223825
-0.205821
-0.1891
-0.173165
-0.58377
-0.572483
-0.561996
-0.547426
-0.52802
-0.504151
-0.476731
-0.447071
-0.41652
-0.386208
-0.356938
-0.329189
-0.303185
-0.278977
-0.256514
-0.235694
-0.21639
-0.198506
-0.181916
-0.166101
-0.58094
-0.569745
-0.55907
-0.544012
-0.523876
-0.499158
-0.470897
-0.440506
-0.409385
-0.378669
-0.349142
-0.321253
-0.295197
-0.271
-0.248594
-0.227866
-0.208679
-0.190938
-0.1745
-0.158829
-0.577272
-0.566191
-0.555332
-0.539789
-0.518937
-0.493398
-0.464343
-0.433279
-0.401648
-0.370589
-0.340859
-0.312879
-0.286811
-0.262661
-0.240344
-0.219735
-0.20069
-0.183115
-0.166851
-0.151341
-0.572736
-0.561794
-0.550756
-0.534732
-0.513183
-0.486858
-0.45706
-0.425384
-0.393308
-0.361965
-0.332088
-0.304063
-0.278026
-0.253959
-0.231763
-0.211302
-0.192424
-0.175037
-0.15896
-0.143596
-0.567308
-0.556526
-0.545316
-0.528821
-0.506596
-0.479525
-0.44904
-0.416816
-0.38436
-0.352796
-0.322827
-0.294807
-0.268842
-0.244894
-0.222851
-0.202566
-0.183882
-0.166709
-0.150827
-0.135567
-0.560965
-0.550366
-0.53899
-0.522037
-0.499164
-0.471392
-0.440278
-0.407573
-0.374805
-0.343083
-0.313077
-0.285109
-0.259258
-0.235466
-0.213608
-0.193529
-0.175066
-0.158131
-0.142474
-0.127435
-0.553688
-0.543292
-0.53176
-0.514365
-0.490874
-0.462452
-0.430773
-0.397656
-0.364645
-0.332826
-0.30284
-0.274971
-0.249276
-0.225677
-0.204037
-0.184192
-0.165977
-0.149304
-0.133881
-0.11912
-0.545461
-0.53529
-0.523612
-0.505793
-0.481722
-0.452702
-0.420525
-0.387068
-0.353881
-0.32203
-0.292117
-0.264397
-0.2389
-0.21553
-0.19414
-0.174559
-0.156618
-0.14023
-0.125069
-0.110595
-0.536273
-0.526346
-0.514533
-0.496313
-0.471702
-0.442143
-0.409537
-0.375812
-0.34252
-0.310698
-0.280915
-0.253391
-0.228132
-0.205028
-0.183921
-0.164633
-0.146993
-0.130914
-0.116037
-0.101862
-0.526115
-0.516451
-0.504517
-0.485921
-0.460814
-0.430777
-0.397814
-0.363895
-0.330567
-0.298837
-0.269237
-0.241957
-0.216978
-0.194176
-0.173384
-0.154418
-0.137107
-0.12136
-0.10679
-0.0929271
-0.514982
-0.505599
-0.493559
-0.474616
-0.449062
-0.418611
-0.385364
-0.351325
-0.318031
-0.286455
-0.257093
-0.230102
-0.205444
-0.18298
-0.162535
-0.143921
-0.126963
-0.111574
-0.0973304
-0.0837976
-0.502873
-0.493789
-0.481659
-0.462401
-0.436451
-0.405653
-0.372196
-0.338112
-0.304921
-0.273561
-0.244489
-0.217834
-0.193537
-0.171447
-0.151381
-0.133147
-0.116568
-0.10156
-0.0876634
-0.0744797
-0.489791
-0.481023
-0.46882
-0.449282
-0.42299
-0.391914
-0.358324
-0.324269
-0.291249
-0.260165
-0.231435
-0.205162
-0.181265
-0.159584
-0.139929
-0.122103
-0.10593
-0.0913258
-0.0777952
-0.0649801
-0.475742
-0.467306
-0.455051
-0.435269
-0.408691
-0.377409
-0.343761
-0.30981
-0.277029
-0.246279
-0.217943
-0.192096
-0.168639
-0.147401
-0.128188
-0.110797
-0.0950555
-0.080878
-0.0677328
-0.0553055
-0.460736
-0.452648
-0.44036
-0.420374
-0.39357
-0.362153
-0.328524
-0.29475
-0.262275
-0.231916
-0.204025
-0.178647
-0.155668
-0.134908
-0.116167
-0.0992391
-0.0839533
-0.0702246
-0.0574838
-0.0454636
-0.444786
-0.437061
-0.424762
-0.404613
-0.377644
-0.346165
-0.312632
-0.279107
-0.247001
-0.217093
-0.189695
-0.164828
-0.142365
-0.122116
-0.103876
-0.0874384
-0.0726328
-0.0593744
-0.0470566
-0.0354622
-0.42791
-0.420561
-0.408274
-0.388006
-0.360934
-0.329467
-0.296105
-0.2629
-0.231228
-0.201824
-0.174966
-0.150654
-0.128743
-0.109037
-0.0913275
-0.0754059
-0.061104
-0.048337
-0.0364604
-0.0253102
-0.410126
-0.403167
-0.390917
-0.370574
-0.343463
-0.312083
-0.278967
-0.246149
-0.214972
-0.186127
-0.159856
-0.136137
-0.114814
-0.0956833
-0.0785331
-0.063153
-0.0493779
-0.0371227
-0.0257051
-0.0150167
-0.39146
-0.384904
-0.372715
-0.352343
-0.325257
-0.294039
-0.261238
-0.228878
-0.198256
-0.17002
-0.144382
-0.121295
-0.100594
-0.0820694
-0.065506
-0.0506922
-0.0374664
-0.0257426
-0.0148013
-0.00459209
-0.371937
-0.365796
-0.353694
-0.333342
-0.306353
-0.275349
-0.242947
-0.211111
-0.181101
-0.153525
-0.128561
-0.106145
-0.0860994
-0.0682101
-0.0522601
-0.0380367
-0.025382
-0.0142085
-0.00376035
0.00595274
-0.351588
-0.345873
-0.333885
-0.313606
-0.286792
-0.256034
-0.224116
-0.192872
-0.16353
-0.136661
-0.112413
-0.0907033
-0.0713456
-0.0541207
-0.03881
-0.0252003
-0.0131379
-0.00253309
0.00740541
0.0166056
-0.330443
-0.325167
-0.313319
-0.293159
-0.266536
-0.23619
-0.204782
-0.174188
-0.145568
-0.119451
-0.095958
-0.0749898
-0.0563505
-0.0398176
-0.0251711
-0.0121978
-0.00074809
0.00927045
0.0186829
0.027353
-0.308537
-0.303712
-0.292034
-0.272038
-0.245683
-0.215795
-0.184974
-0.155087
-0.127239
-0.101918
-0.0792181
-0.0590239
-0.0411322
-0.0253177
-0.0113593
0.000955876
0.0117727
0.0211881
0.0300583
0.0381799
-0.285908
-0.281547
-0.270066
-0.250271
-0.224266
-0.194889
-0.164722
-0.135598
-0.108571
-0.0840869
-0.0622151
-0.042826
-0.0257097
-0.0106386
0.00260895
0.0142449
0.0244092
0.0332055
0.0415167
0.0490688
-0.262593
-0.258711
-0.247444
-0.227917
-0.202316
-0.17351
-0.14406
-0.115753
-0.0895902
-0.0659822
-0.044972
-0.0264172
-0.0101025
0.00420152
0.0167168
0.0276532
0.0371461
0.0453077
0.0530418
0.0599976
-0.23863
-0.235251
-0.22422
-0.205009
-0.17987
-0.151697
-0.123022
-0.0955805
-0.0703261
-0.0476301
-0.0275127
-0.00981962
0.00566923
0.0191842
0.030947
0.0411648
0.0499675
0.0574797
0.064615
0.0709355
-0.214055
-0.211221
-0.200443
-0.181589
-0.15697
-0.129489
-0.101642
-0.0751143
-0.0508078
-0.0290575
-0.00986174
0.00694437
0.0215848
0.0342905
0.0452824
0.0547633
0.0628578
0.0697067
0.0762187
0.0818511
-0.188946
-0.186647
-0.176155
-0.157702
-0.133658
-0.106924
-0.0799574
-0.0543872
-0.0310655
-0.0102919
0.00795558
0.0238516
0.0376231
0.0495012
0.0597055
0.0684325
0.0758009
0.0819767
0.0878435
0.0927233
-0.163378
-0.161552
-0.151402
-0.133394
-0.109977
-0.0840433
-0.058005
-0.033433
-0.01113
0.00863835
0.0259133
0.0408782
0.0537624
0.0647966
0.0741987
0.0821558
0.0887824
0.0942858
0.0994881
0.103488
-0.13736
-0.136013
-0.126233
-0.108711
-0.0859726
-0.0608885
-0.0358227
-0.0122865
0.00896683
0.0277043
0.0439849
0.0579998
0.0699805
0.080157
0.0887441
0.095917
0.101794
0.106644
0.111121
0.1139
-0.110937
-0.110086
-0.100696
-0.0837025
-0.0616892
-0.0375015
-0.0134491
0.00901722
0.0291929
0.0468763
0.0621432
0.0751917
0.0862546
0.0955617
0.103323
0.109702
0.114838
0.119066
0.122646
0.123625
-0.0841669
-0.0838216
-0.0748426
-0.0584165
-0.0371733
-0.0139251
0.00907653
0.0304422
0.0495153
0.0661243
0.0803606
0.0924283
0.102562
0.110989
0.117917
0.123499
0.127917
0.13153
0.133952
0.132977
-0.0571064
-0.0572732
-0.0487258
-0.0329033
-0.0124718
0.00979749
0.0317145
0.0519522
0.0699009
0.0854178
0.0986089
0.109684
0.118877
0.126417
0.132505
0.137293
0.141011
0.143943
0.144956
0.144048
-0.0298086
-0.0304924
-0.0223972
-0.00721297
0.0123682
0.0336225
0.0544247
0.0735105
0.0903159
0.104726
0.116859
0.126931
0.135177
0.141823
0.147066
0.151064
0.15407
0.15628
0.156414
0.155853
-0.00233002
-0.00353431
0.0040892
0.0186032
0.0372987
0.0575059
0.0771668
0.0950799
0.110726
0.124017
0.135083
0.144144
0.151436
0.157183
0.161578
0.164786
0.167065
0.16854
0.167989
0.167367
0.0252724
0.0235457
0.0306794
0.0444938
0.0622718
0.0814033
0.0999
0.116623
0.131098
0.143259
0.153251
0.161295
0.167628
0.172473
0.17602
0.178436
0.179979
0.180731
0.179575
0.178699
0.0529417
0.0506918
0.0573191
0.070407
0.0872392
0.10527
0.122584
0.138103
0.151396
0.162422
0.171334
0.178358
0.183729
0.187669
0.190367
0.191991
0.192793
0.192832
0.19109
0.189849
0.0806209
0.0778482
0.0839537
0.0962912
0.112153
0.129062
0.145177
0.159482
0.171587
0.181473
0.189303
0.195305
0.199714
0.202748
0.204597
0.205428
0.205487
0.204819
0.20249
0.200811
0.108253
0.104958
0.110529
0.122094
0.136964
0.152735
0.167639
0.180723
0.191636
0.20038
0.207128
0.212108
0.215556
0.217687
0.218687
0.218726
0.218042
0.21667
0.213748
0.211583
0.13578
0.131966
0.136989
0.147765
0.161625
0.176244
0.189929
0.201789
0.211509
0.219113
0.22478
0.228741
0.23123
0.232461
0.232616
0.231865
0.230439
0.228364
0.224843
0.22216
0.163145
0.158815
0.163281
0.173252
0.186088
0.199545
0.212007
0.222642
0.231172
0.237639
0.24223
0.245177
0.246713
0.247047
0.246362
0.244824
0.242658
0.239884
0.235761
0.232538
0.190292
0.18545
0.189351
0.198504
0.210306
0.222596
0.233834
0.243246
0.250591
0.255927
0.259449
0.261389
0.261978
0.261423
0.259903
0.257584
0.254682
0.251212
0.246487
0.242709
0.217163
0.211815
0.215144
0.223471
0.234232
0.245352
0.255369
0.263564
0.269732
0.273947
0.276409
0.277351
0.277002
0.275566
0.273219
0.270125
0.266493
0.262333
0.257008
0.252666
0.243704
0.237855
0.240609
0.248103
0.257819
0.267771
0.276573
0.283561
0.288562
0.291667
0.293081
0.293037
0.29176
0.289453
0.286289
0.282429
0.278075
0.273232
0.267312
0.262402
0.269859
0.263517
0.265692
0.27235
0.281023
0.289812
0.297407
0.303201
0.30705
0.309059
0.309438
0.308421
0.306229
0.303063
0.299094
0.294477
0.28941
0.283894
0.277386
0.271905
0.295573
0.288745
0.290343
0.296164
0.303797
0.311432
0.317835
0.322449
0.325162
0.326092
0.325453
0.323478
0.320386
0.316375
0.311612
0.306252
0.300483
0.294304
0.287218
0.281168
0.320793
0.313489
0.31451
0.319498
0.326098
0.332593
0.337818
0.341271
0.342867
0.342737
0.341099
0.338183
0.334208
0.329368
0.323827
0.317736
0.311278
0.304449
0.296796
0.29018
0.345467
0.337696
0.338144
0.342304
0.347884
0.353252
0.357321
0.359634
0.360135
0.358967
0.356349
0.352512
0.347673
0.342021
0.335718
0.328912
0.321779
0.314315
0.306107
0.29893
0.369543
0.361316
0.361197
0.364539
0.369111
0.373373
0.376307
0.377505
0.376935
0.374752
0.371178
0.366442
0.360759
0.354314
0.347267
0.339763
0.331971
0.323887
0.315138
0.307409
0.392971
0.3843
0.383622
0.386157
0.389739
0.392918
0.394742
0.394852
0.393239
0.390066
0.385561
0.37995
0.373444
0.366228
0.358457
0.350274
0.34184
0.333152
0.323878
0.315605
0.415703
0.4066
0.405372
0.407115
0.409728
0.411849
0.412593
0.411644
0.409016
0.404884
0.399473
0.393012
0.385709
0.377743
0.369269
0.360427
0.35137
0.342098
0.332315
0.323509
0.437691
0.42817
0.426404
0.427372
0.42904
0.430131
0.429827
0.427851
0.42424
0.419178
0.412892
0.405608
0.397532
0.388842
0.379688
0.370207
0.360548
0.350711
0.340436
0.331109
0.45889
0.448965
0.446674
0.446887
0.447638
0.447731
0.446411
0.443443
0.438884
0.432924
0.425794
0.417717
0.408895
0.399506
0.389696
0.3796
0.369359
0.358979
0.348229
0.338397
0.479254
0.46894
0.466141
0.465622
0.465484
0.464614
0.462317
0.458394
0.452923
0.4461
0.438157
0.429317
0.41978
0.409718
0.399278
0.388591
0.377792
0.366889
0.355685
0.345363
0.498743
0.488056
0.484765
0.483539
0.482546
0.48075
0.477514
0.472676
0.46633
0.458681
0.44996
0.44039
0.430167
0.419462
0.408419
0.397165
0.385831
0.374429
0.362791
0.351996
0.517315
0.506272
0.502507
0.500603
0.498789
0.496108
0.491975
0.486263
0.479083
0.470645
0.461183
0.450916
0.44004
0.428722
0.417104
0.40531
0.393467
0.381589
0.369537
0.358288
0.534931
0.52355
0.519333
0.516779
0.514183
0.510658
0.505673
0.499131
0.491159
0.481973
0.471807
0.460879
0.449382
0.437483
0.425318
0.413012
0.400685
0.388357
0.375912
0.36423
0.551555
0.539853
0.535206
0.532036
0.528698
0.524374
0.518582
0.511256
0.502536
0.492643
0.481813
0.470261
0.458178
0.445729
0.433049
0.42026
0.407476
0.394723
0.381908
0.369814
0.567152
0.555149
0.550095
0.546343
0.542305
0.53723
0.53068
0.522617
0.513194
0.502638
0.491183
0.479045
0.466413
0.453448
0.440285
0.427041
0.413829
0.400677
0.387516
0.375032
0.581689
0.569404
0.563968
0.55967
0.554979
0.549201
0.541943
0.533192
0.523114
0.511939
0.499902
0.487218
0.474073
0.460627
0.447012
0.433346
0.419733
0.40621
0.392725
0.379876
0.595136
0.582589
0.576798
0.571993
0.566693
0.560264
0.55235
0.542962
0.532278
0.52053
0.507955
0.494764
0.481145
0.467253
0.453221
0.439162
0.42518
0.411313
0.397529
0.38434
0.607463
0.594676
0.588557
0.583284
0.577426
0.570398
0.561882
0.55191
0.540669
0.528396
0.515326
0.501671
0.487616
0.473316
0.458901
0.444482
0.43016
0.415978
0.401919
0.388416
0.618646
0.605639
0.599221
0.593523
0.587156
0.579584
0.570521
0.560019
0.548272
0.535522