/*--------------------------------*- C++ -*----------------------------------*\
  =========                 |
  \\      /  F ield         | OpenFOAM: The Open Source CFD Toolbox
   \\    /   O peration     | Website:  https://openfoam.org
    \\  /    A nd           | Version:  7
     \\/     M anipulation  |
\*---------------------------------------------------------------------------*/
FoamFile
{
    version     2.0;
    format      ascii;
    class       volScalarField;
    location    "80";
    object      p;
}
// * * * * * * * * * * * * * * * * * * * * * * * * * * * * * * * * * * * * * //

dimensions      [0 2 -2 0 0 0 0];

internalField   nonuniform List<scalar> 
8500
(
-0.312225
-0.318732
-0.326354
-0.334948
-0.344214
-0.353684
-0.362705
-0.370459
-0.37601
-0.378365
-0.376559
-0.369787
-0.35753
-0.339773
-0.317083
-0.290697
-0.262182
-0.23337
-0.205817
-0.180862
-0.159433
-0.142203
-0.12968
-0.122384
-0.120864
-0.125419
-0.135474
-0.14915
-0.163295
-0.174218
-0.17855
-0.174109
-0.160314
-0.13864
-0.111772
-0.0834999
-0.0563895
-0.0330029
-0.0135146
0.000576607
0.0113123
0.0160744
0.0179774
0.0120726
0.010004
-0.0018726
-0.309715
-0.315042
-0.321426
-0.328762
-0.33679
-0.345085
-0.353041
-0.359882
-0.36471
-0.366569
-0.364531
-0.357823
-0.345961
-0.328921
-0.307256
-0.282138
-0.255026
-0.227674
-0.201549
-0.177953
-0.157789
-0.141741
-0.130349
-0.124183
-0.123823
-0.129541
-0.140672
-0.155207
-0.169894
-0.180996
-0.18515
-0.18021
-0.165668
-0.143087
-0.115262
-0.0860612
-0.0581294
-0.0340274
-0.0139279
0.000684578
0.0118732
0.0170315
0.0193635
0.0136593
0.0115777
-0.000868704
-0.307125
-0.311225
-0.316322
-0.322346
-0.329083
-0.336155
-0.343002
-0.348895
-0.352979
-0.354334
-0.352069
-0.345436
-0.333994
-0.317691
-0.297068
-0.273233
-0.247536
-0.221653
-0.196966
-0.174738
-0.155851
-0.141
-0.13076
-0.125748
-0.126572
-0.133469
-0.145677
-0.161062
-0.176277
-0.187545
-0.191517
-0.186084
-0.17081
-0.147343
-0.118584
-0.0884813
-0.0597531
-0.0349604
-0.0142721
0.000841748
0.0124634
0.0179983
0.0207364
0.0152225
0.0131107
0.000116488
-0.304488
-0.307317
-0.311081
-0.315745
-0.321142
-0.326943
-0.332639
-0.337551
-0.340867
-0.341708
-0.339221
-0.332676
-0.321645
-0.306113
-0.286538
-0.263995
-0.239717
-0.215307
-0.192062
-0.171209
-0.153608
-0.139968
-0.130901
-0.127069
-0.1291
-0.13719
-0.150476
-0.166697
-0.182424
-0.193848
-0.197637
-0.19172
-0.175729
-0.151401
-0.121736
-0.0907587
-0.0612607
-0.0358031
-0.0145496
0.00104532
0.0130801
0.018972
0.0220933
0.0167595
0.0146011
0.00108185
-0.301832
-0.303354
-0.305742
-0.309003
-0.313015
-0.3175
-0.322005
-0.325902
-0.328425
-0.328737
-0.326019
-0.31957
-0.308949
-0.294217
-0.275682
-0.254435
-0.231574
-0.208638
-0.186835
-0.167361
-0.151053
-0.138637
-0.130762
-0.128135
-0.131396
-0.140691
-0.155052
-0.172097
-0.188321
-0.199891
-0.203496
-0.197105
-0.180418
-0.155255
-0.124714
-0.0928926
-0.0626529
-0.0365573
-0.0147626
0.00129244
0.0137203
0.0199495
0.0234318
0.0182678
0.016047
0.00202634
-0.299188
-0.29937
-0.300347
-0.302165
-0.304751
-0.307881
-0.311155
-0.314002
-0.315706
-0.315471
-0.312513
-0.306157
-0.29599
-0.281981
-0.264521
-0.244567
-0.223117
-0.201647
-0.181283
-0.163187
-0.148178
-0.137
-0.130338
-0.12894
-0.133452
-0.143962
-0.159391
-0.177246
-0.193951
-0.205659
-0.209082
-0.20223
-0.184871
-0.1589
-0.127515
-0.0948824
-0.0639307
-0.0372247
-0.0149137
0.00158024
0.0143812
0.0209282
0.0247492
0.0197451
0.0174469
0.00294897
-0.296585
-0.295399
-0.294935
-0.295277
-0.296402
-0.298138
-0.300145
-0.301908
-0.302765
-0.301962
-0.29875
-0.292478
-0.28275
-0.269474
-0.253082
-0.234404
-0.214351
-0.194339
-0.175404
-0.158685
-0.14498
-0.135052
-0.129624
-0.129479
-0.135261
-0.14699
-0.163482
-0.182129
-0.199301
-0.211139
-0.214385
-0.207088
-0.18908
-0.162334
-0.130139
-0.0967279
-0.0650951
-0.0378075
-0.0150053
0.00190578
0.0150599
0.0219054
0.0260433
0.0211891
0.0187994
0.00384885
-0.294049
-0.291475
-0.289545
-0.288384
-0.288015
-0.288325
-0.289031
-0.289677
-0.289656
-0.288261
-0.284777
-0.278576
-0.269263
-0.256713
-0.241382
-0.223965
-0.205288
-0.186716
-0.169202
-0.153855
-0.141456
-0.132791
-0.128618
-0.129748
-0.136816
-0.149769
-0.167313
-0.186735
-0.204357
-0.216319
-0.219394
-0.21167
-0.19304
-0.165551
-0.132582
-0.0984295
-0.0661477
-0.0383078
-0.0150403
0.00226614
0.0157537
0.0228784
0.0273118
0.0225978
0.0201032
0.00472513
-0.291605
-0.287628
-0.284213
-0.281527
-0.279641
-0.278496
-0.277869
-0.277366
-0.276437
-0.274422
-0.270644
-0.264491
-0.25557
-0.243792
-0.229377
-0.213264
-0.195938
-0.178787
-0.162678
-0.148697
-0.137608
-0.130219
-0.127319
-0.129745
-0.138113
-0.152291
-0.170873
-0.191052
-0.209109
-0.22119
-0.224101
-0.215969
-0.196746
-0.16855
-0.134845
-0.0999877
-0.0670902
-0.0387279
-0.0150213
0.00265839
0.0164597
0.0238448
0.0285528
0.0239693
0.0213571
0.00557702
-0.289276
-0.283887
-0.278976
-0.274749
-0.271327
-0.268703
-0.266716
-0.265034
-0.263165
-0.260499
-0.256398
-0.250264
-0.241708
-0.230661
-0.217173
-0.202322
-0.186314
-0.17056
-0.155841
-0.143217
-0.13344
-0.127337
-0.12573
-0.129472
-0.13915
-0.154549
-0.174154
-0.19507
-0.213548
-0.225743
-0.228498
-0.21998
-0.200196
-0.171328
-0.136927
-0.101404
-0.0679246
-0.0390704
-0.014951
0.00307962
0.0171753
0.0248022
0.0297643
0.0253018
0.0225602
0.00640383
-0.280277
-0.273865
-0.268089
-0.263117
-0.258997
-0.255627
-0.252737
-0.249897
-0.246546
-0.242088
-0.235951
-0.227713
-0.217354
-0.204784
-0.191156
-0.176432
-0.162046
-0.148698
-0.137423
-0.128957
-0.124153
-0.123855
-0.12893
-0.139925
-0.156539
-0.17715
-0.198782
-0.217665
-0.22997
-0.232581
-0.2237
-0.203385
-0.173885
-0.138828
-0.102679
-0.0686531
-0.0393379
-0.0148323
0.00352691
0.0178978
0.0257482
0.0309445
0.0265939
0.0237117
0.0072049
-0.276823
-0.268909
-0.261583
-0.255055
-0.249427
-0.244656
-0.240532
-0.236689
-0.232619
-0.227766
-0.221653
-0.213628
-0.203919
-0.192214
-0.179785
-0.166312
-0.153259
-0.141262
-0.131323
-0.124171
-0.120675
-0.121703
-0.128123
-0.14044
-0.158258
-0.179854
-0.20218
-0.221454
-0.233867
-0.236345
-0.227125
-0.206314
-0.17622
-0.140549
-0.103814
-0.0692781
-0.0395332
-0.014668
0.00399741
0.0186247
0.0266807
0.0320919
0.0278442
0.0248109
0.00797968
-0.273543
-0.264137
-0.255264
-0.247182
-0.24004
-0.233855
-0.228476
-0.2236
-0.218774
-0.21348
-0.207252
-0.199488
-0.190391
-0.179583
-0.16814
-0.155975
-0.144216
-0.133549
-0.124934
-0.119093
-0.116914
-0.119281
-0.127058
-0.140695
-0.159705
-0.182263
-0.20526
-0.22491
-0.23743
-0.239786
-0.230252
-0.208979
-0.178333
-0.142091
-0.104812
-0.0698023
-0.0396591
-0.0144609
0.0044883
0.0193534
0.0275977
0.0332048
0.0290514
0.0258573
0.00872767
-0.270454
-0.259571
-0.249164
-0.239534
-0.230879
-0.223273
-0.216621
-0.210686
-0.205067
-0.199289
-0.192898
-0.18534
-0.176805
-0.166863
-0.156321
-0.145446
-0.134938
-0.125575
-0.11827
-0.11374
-0.112885
-0.116602
-0.125741
-0.140695
-0.160878
-0.184373
-0.208019
-0.228029
-0.240655
-0.242904
-0.233082
-0.211382
-0.180225
-0.143456
-0.105676
-0.0702284
-0.0397185
-0.014214
0.00499682
0.0200815
0.0284971
0.034282
0.0302145
0.0268506
0.00944844
-0.267568
-0.255231
-0.243309
-0.232146
-0.221986
-0.212957
-0.205021
-0.198002
-0.191555
-0.18525
-0.178656
-0.171229
-0.163198
-0.154048
-0.144406
-0.13475
-0.125449
-0.117365
-0.111354
-0.108129
-0.108604
-0.113679
-0.124183
-0.140444
-0.161779
-0.186184
-0.210453
-0.230812
-0.243542
-0.245697
-0.235613
-0.213524
-0.181896
-0.144645
-0.106407
-0.0705595
-0.0397145
-0.01393
0.00552026
0.0208066
0.0293772
0.0353223
0.0313326
0.0277905
0.0101416
-0.264895
-0.251133
-0.237723
-0.225048
-0.213398
-0.202951
-0.193723
-0.185601
-0.178294
-0.171419
-0.164581
-0.157203
-0.149615
-0.141184
-0.132422
-0.123916
-0.115778
-0.108943
-0.104208
-0.102284
-0.10409
-0.110527
-0.122393
-0.139948
-0.16241
-0.187697
-0.212565
-0.233256
-0.246092
-0.248167
-0.237848
-0.215404
-0.18335
-0.145661
-0.107008
-0.0707987
-0.0396501
-0.0136119
0.006056
0.0215267
0.0302362
0.0363246
0.0324051
0.028677
0.0108069
-0.26244
-0.247289
-0.232426
-0.218268
-0.205149
-0.193296
-0.182775
-0.173534
-0.165336
-0.157852
-0.150723
-0.143252
-0.136105
-0.128324
-0.120393
-0.112973
-0.105956
-0.100337
-0.0968588
-0.0962275
-0.0993635
-0.107162
-0.120383
-0.139213
-0.162775
-0.188912
-0.214354
-0.235364
-0.248305
-0.250316
-0.239788
-0.217027
-0.184589
-0.146507
-0.107484
-0.0709492
-0.0395285
-0.0132623
0.00660151
0.0222394
0.0310726
0.0372879
0.0334313
0.0295102
0.0114441
-0.260204
-0.24371
-0.227434
-0.211829
-0.19727
-0.184029
-0.17222
-0.161851
-0.152735
-0.1446
-0.137125
-0.129435
-0.122727
-0.115518
-0.108359
-0.101957
-0.0960192
-0.0915811
-0.0893369
-0.0899865
-0.0944475
-0.103602
-0.118166
-0.138248
-0.162879
-0.189834
-0.215823
-0.237139
-0.250186
-0.252146
-0.241437
-0.218394
-0.185615
-0.147186
-0.107836
-0.0710144
-0.0393528
-0.0128841
0.00715433
0.0229429
0.031885
0.0382115
0.0344108
0.0302903
0.012053
-0.258185
-0.240399
-0.22276
-0.205751
-0.189787
-0.175184
-0.162098
-0.150595
-0.140539
-0.131714
-0.123855
-0.117092
-0.109549
-0.102811
-0.0963677
-0.0909051
-0.086005
-0.0827092
-0.0816739
-0.0835897
-0.0893662
-0.0998657
-0.115756
-0.137063
-0.162728
-0.190467
-0.216976
-0.238584
-0.251738
-0.253661
-0.242797
-0.219509
-0.186433
-0.147702
-0.108069
-0.0709978
-0.0391261
-0.01248
0.0077121
0.023635
0.032672
0.0390947
0.0353435
0.0310176
0.0126335
-0.256379
-0.237358
-0.218414
-0.200051
-0.182724
-0.166788
-0.152444
-0.139808
-0.128796
-0.119243
-0.110915
-0.103748
-0.0965649
-0.0902505
-0.0844728
-0.0798586
-0.0759547
-0.0737593
-0.0739044
-0.0770672
-0.0841447
-0.0959737
-0.113166
-0.135666
-0.162328
-0.190816
-0.217819
-0.239705
-0.252966
-0.254868
-0.243873
-0.220376
-0.187047
-0.148059
-0.108186
-0.070903
-0.0388517
-0.0120526
0.00827258
0.0243142
0.0334323
0.039937
0.0362291
0.0316926
0.0131857
-0.254777
-0.234586
-0.214402
-0.19474
-0.176101
-0.15887
-0.14329
-0.129529
-0.117549
-0.107236
-0.09838
-0.0908233
-0.0838525
-0.0778828
-0.0727277
-0.0688631
-0.0659114
-0.0647716
-0.0660644
-0.0704506
-0.0788092
-0.0919459
-0.110412
-0.134068
-0.161688
-0.190887
-0.218358
-0.240508
-0.253878
-0.25577
-0.244671
-0.221001
-0.18746
-0.148261
-0.108191
-0.0707334
-0.0385327
-0.0116046
0.00883363
0.0249786
0.034165
0.0407378
0.0370678
0.0323159
0.0137097
-0.232079
-0.210727
-0.189828
-0.169933
-0.151449
-0.134665
-0.119791
-0.106837
-0.0957392
-0.0863162
-0.0783987
-0.0714679
-0.0657571
-0.0611858
-0.057969
-0.0559202
-0.0557876
-0.0581913
-0.0637722
-0.0733865
-0.0878031
-0.107509
-0.132281
-0.160817
-0.19069
-0.2186
-0.241001
-0.254479
-0.256376
-0.245196
-0.221389
-0.187679
-0.148313
-0.108089
-0.0704928
-0.0381723
-0.0111385
0.0093932
0.0256266
0.0348691
0.041497
0.0378597
0.0328882
0.0142056
-0.229829
-0.20739
-0.185322
-0.164233
-0.144545
-0.126594
-0.110623
-0.0966974
-0.0847951
-0.0747713
-0.0664669
-0.0594647
-0.0539173
-0.0499016
-0.0472305
-0.0460271
-0.0468501
-0.0503231
-0.0570646
-0.0679031
-0.0835659
-0.104472
-0.130316
-0.159722
-0.190232
-0.218554
-0.241193
-0.254779
-0.256691
-0.245455
-0.221544
-0.187708
-0.148219
-0.107883
-0.0701848
-0.0377735
-0.0106568
0.00994939
0.0262569
0.0355437
0.0422143
0.0386051
0.0334103
0.0146736
-0.227829
-0.204388
-0.181222
-0.159011
-0.138171
-0.119096
-0.102051
-0.0871608
-0.0744404
-0.063786
-0.0550604
-0.0478918
-0.0423924
-0.0389366
-0.0367036
-0.0362786
-0.0380021
-0.0424981
-0.0503606
-0.0623859
-0.0792551
-0.101317
-0.128186
-0.158416
-0.189522
-0.218229
-0.241091
-0.254785
-0.256725
-0.245454
-0.221474
-0.187552
-0.147985
-0.107579
-0.0698132
-0.0373395
-0.0101619
0.0105004
0.0268681
0.0361881
0.0428895
0.0393043
0.0338831
0.0151138
-0.226073
-0.201721
-0.17753
-0.154272
-0.132336
-0.112186
-0.0940952
-0.0782539
-0.0647069
-0.0533967
-0.0442157
-0.0367291
-0.0311827
-0.028373
-0.0264437
-0.0267208
-0.0292863
-0.0347539
-0.0436923
-0.0568608
-0.074891
-0.0980589
-0.125901
-0.156907
-0.18857
-0.217635
-0.240707
-0.254508
-0.256484
-0.245201
-0.221185
-0.187219
-0.147615
-0.107179
-0.0693816
-0.0368731
-0.00965604
0.0110445
0.0274588
0.0368017
0.0435228
0.039958
0.0343077
0.0155266
-0.224529
-0.199398
-0.174249
-0.150025
-0.127045
-0.105879
-0.086771
-0.0699981
-0.0556209
-0.0436358
-0.0339585
-0.0260803
-0.0203485
-0.0182688
-0.0164994
-0.0173983
-0.020744
-0.0271274
-0.0370908
-0.0513531
-0.0704931
-0.0947138
-0.123475
-0.155208
-0.187387
-0.216781
-0.240049
-0.253959
-0.255978
-0.244703
-0.220683
-0.186713
-0.147115
-0.10669
-0.0688936
-0.0363775
-0.00914146
0.0115802
0.0280282
0.037384
0.0441141
0.0405667
0.0346851
0.0159124
-0.223142
-0.197421
-0.171365
-0.146279
-0.122307
-0.100187
-0.0800904
-0.0624097
-0.0472043
-0.0345277
-0.0243315
-0.0174228
-0.0105339
-0.0081326
-0.006906
-0.00835394
-0.012415
-0.0196537
-0.0305861
-0.0458872
-0.0660806
-0.0912962
-0.12092
-0.153328
-0.185984
-0.21568
-0.239128
-0.253148
-0.255217
-0.243969
-0.219977
-0.186042
-0.146492
-0.106115
-0.068353
-0.0358554
-0.00862028
0.012106
0.028575
0.0379347
0.0446638
0.0411312
0.0350164
0.0162715
-0.222116
-0.195592
-0.168835
-0.143018
-0.118125
-0.095124
-0.0740644
-0.0555033
-0.0394751
-0.0260939
-0.0152843
-0.00771708
-0.00118263
0.00144694
0.00229202
0.000372611
-0.00433636
-0.0123662
-0.0242063
-0.0404859
-0.0616716
-0.0878206
-0.118249
-0.15128
-0.184372
-0.214342
-0.237956
-0.252084
-0.254207
-0.243007
-0.219073
-0.185212
-0.145749
-0.105459
-0.0677634
-0.0353097
-0.00809454
0.0126207
0.0290986
0.0384534
0.0451719
0.0416522
0.035303
0.0166045
-0.194119
-0.166766
-0.140111
-0.114472
-0.0906652
-0.0686973
-0.0492965
-0.0324464
-0.0183411
-0.00684586
0.00122426
0.00768599
0.0104569
0.0110623
0.00874384
0.00345744
-0.00529545
-0.0179777
-0.0351706
-0.0572833
-0.0843009
-0.115472
-0.149075
-0.182561
-0.212779
-0.236542
-0.250762
-0.252958
-0.241824
-0.217979
-0.184231
-0.144894
-0.104726
-0.0671283
-0.034743
-0.00756615
0.0131228
0.0295981
0.0389401
0.045639
0.0421306
0.035546
0.0169119
-0.192945
-0.165071
-0.137737
-0.111383
-0.0867055
-0.0639664
-0.0437902
-0.0261179
-0.0112853
0.000904397
0.00927864
0.0160618
0.0189204
0.0193717
0.0167265
0.0109354
0.00153046
-0.0119242
-0.0299612
-0.0529315
-0.0807504
-0.112602
-0.146723
-0.180565
-0.211002
-0.234898
-0.249178
-0.251478
-0.24043
-0.216703
-0.183104
-0.143931
-0.103922
-0.0664511
-0.034158
-0.00703691
0.0136115
0.0300729
0.0393946
0.0460654
0.0425675
0.0357469
0.0171942
-0.192049
-0.16373
-0.135816
-0.108844
-0.0834366
-0.0599199
-0.0388952
-0.0204789
-0.00498639
0.00774156
0.0168953
0.0238056
0.0268213
0.0271912
0.0242922
0.0180702
0.00808664
-0.00606729
-0.0248755
-0.0486312
-0.0771818
-0.109651
-0.144237
-0.178393
-0.209023
-0.233035
-0.247397
-0.249778
-0.238833
-0.215254
-0.181839
-0.142868
-0.10305
-0.0657353
-0.033557
-0.00650853
0.0140858
0.0305225
0.039817
0.0464516
0.0429638
0.035907
0.0174521
-0.191419
-0.162737
-0.134332
-0.106813
-0.0807438
-0.0565375
-0.034744
-0.0155886
0.00063016
0.013951
0.0237408
0.030917
0.0341412
0.0344974
0.0314168
0.0248384
0.0143514
-0.000426034
-0.0199297
-0.0443959
-0.0736068
-0.106629
-0.141627
-0.176058
-0.206852
-0.230964
-0.245401
-0.247866
-0.237041
-0.213639
-0.180443
-0.141709
-0.102116
-0.0649845
-0.0329429
-0.00598281
0.0145445
0.0309464
0.0402074
0.0467981
0.0433205
0.0360276
0.0176861
-0.191044
-0.162083
-0.133278
-0.105277
-0.0786137
-0.0537786
-0.0312707
-0.0114002
0.00552529
0.019454
0.0298401
0.0373992
0.0408643
0.0412714
0.0380805
0.0312202
0.0203065
0.00498322
-0.0151378
-0.0402379
-0.0700367
-0.103548
-0.138905
-0.17357
-0.204501
-0.228692
-0.243198
-0.245751
-0.235065
-0.211867
-0.178925
-0.140462
-0.101124
-0.0642027
-0.0323183
-0.0054616
0.0149867
0.0313441
0.0405658
0.0471056
0.0436389
0.0361101
0.0178971
-0.190915
-0.161759
-0.13264
-0.104226
-0.0770422
-0.0516253
-0.0284539
-0.00790194
0.00970382
0.024244
0.0352317
0.0432395
0.0469794
0.0474989
0.0442672
0.0371996
0.0259364
0.0101466
-0.0105121
-0.036168
-0.0664815
-0.100417
-0.13608
-0.170939
-0.201978
-0.22623
-0.240797
-0.243442
-0.232913
-0.209947
-0.177291
-0.139132
-0.10008
-0.0633923
-0.0316849
-0.00494586
0.0154121
0.0317157
0.0408928
0.0473747
0.0439201
0.0361561
0.0180856
-0.161733
-0.132383
-0.103626
-0.0759926
-0.0500458
-0.0262646
-0.00506764
0.0131938
0.0283433
0.0399285
0.0484317
0.0524825
0.0531709
0.0499658
0.0427641
0.0312287
0.0150524
-0.00606358
-0.0321963
-0.062951
-0.0972459
-0.133162
-0.168176
-0.199295
-0.223586
-0.238208
-0.240951
-0.230595
-0.207886
-0.175545
-0.13772
-0.0989802
-0.062551
-0.0310403
-0.00443375
0.0158224
0.0320624
0.0411895
0.0476065
0.0441655
0.0361672
0.0182526
-0.161934
-0.13243
-0.103402
-0.0753897
-0.0489731
-0.02464
-0.00284207
0.0160428
0.0317877
0.0439536
0.0530172
0.0573804
0.0582861
0.0551702
0.0479048
0.036173
0.0196895
-0.0018034
-0.0283347
-0.0594579
-0.094049
-0.130167
-0.165296
-0.196468
-0.220777
-0.235447
-0.23829
-0.22812
-0.205689
-0.173688
-0.136224
-0.0978228
-0.0616762
-0.0303825
-0.00392388
0.0162187
0.032385
0.0414568
0.0478018
0.0443762
0.0361446
0.0183985
-0.162383
-0.132803
-0.103577
-0.0752551
-0.0484289
-0.0235985
-0.00124197
0.0182357
0.0345623
0.0473028
0.0568445
0.061653
0.0628286
0.0598666
0.0526104
0.0407602
0.0240506
0.00226244
-0.0245883
-0.0560066
-0.0908297
-0.127097
-0.162299
-0.19349
-0.217793
-0.2325
-0.235448
-0.225485
-0.203362
-0.171737
-0.13467
-0.0966385
-0.0607963
-0.0297354
-0.00343321
0.016588
0.0326763
0.0416896
0.0479596
0.0445518
0.036088
0.0185238
-0.163491
-0.133911
-0.104547
-0.0759626
-0.048757
-0.0234478
-0.000536514
0.019543
0.0364759
0.0498153
0.0591501
0.0651987
0.0667212
0.0639999
0.0568484
0.0449793
0.028144
0.00615921
-0.0209163
-0.0525417
-0.0875176
-0.123865
-0.159084
-0.190254
-0.214527
-0.22928
-0.232374
-0.222683
-0.200947
-0.169774
-0.133158
-0.0955251
-0.0599949
-0.0291653
-0.00300864
0.0168966
0.0329165
0.0418755
0.0480769
0.0446933
0.0359953
0.0186292
-0.16532
-0.135804
-0.106346
-0.0775261
-0.0499515
-0.0241618
-0.000683569
0.0200163
0.0375784
0.051569
0.0618913
0.0680625
0.069976
0.0675658
0.0606027
0.0488114
0.0319568
0.0098865
-0.0173026
-0.0490291
-0.0840627
-0.120413
-0.155595
-0.186719
-0.210964
-0.225811
-0.229128
-0.219795
-0.198522
-0.167852
-0.13171
-0.0944794
-0.0592546
-0.0286468
-0.0026285
0.017169
0.0331212
0.0420319
0.0481609
0.0448121
0.0358775
0.0187183
-0.164793
-0.135383
-0.105926
-0.077008
-0.0492359
-0.0231648
0.000662165
0.0217524
0.03971
0.0541364
0.0651847
0.0712596
0.0733598
0.0710613
0.0641108
0.0522464
0.0352465
0.0129886
-0.0143947
-0.0462856
-0.081424
-0.117807
-0.152957
-0.184018
-0.208191
-0.22298
-0.226308
-0.217069
-0.195973
-0.16556
-0.129748
-0.0928788
-0.0580131
-0.0277052
-0.00194592
0.0176775
0.0334571
0.0422843
0.0482509
0.0449311
0.0357772
0.0187938
-0.129163
-0.0997949
-0.070929
-0.0431453
-0.0169928
0.00699377
0.028316
0.0465498
0.0613695
0.0733971
0.0788203
0.0808534
0.0783513
0.0709584
0.0584073
0.0404988
0.017178
-0.0113171
-0.0442327
-0.0801599
-0.116979
-0.152166
-0.18293
-0.206598
-0.220552
-0.222985
-0.213
-0.191392
-0.160828
-0.125278
-0.0889693
-0.0548441
-0.0252193
-0.000148108
0.0190355
0.0343139
0.0429165
0.048429
0.0451132
0.0356821
0.0188832
-0.120284
-0.0919677
-0.0640617
-0.0371181
-0.0116774
0.0117273
0.0325814
0.0504011
0.0646808
0.0742867
0.081787
0.083922
0.0812375
0.0735654
0.0606673
0.0423885
0.0187548
-0.00988915
-0.0426748
-0.0781034
-0.114035
-0.147985
-0.177274
-0.199439
-0.212061
-0.213486
-0.202958
-0.181453
-0.151683
-0.117469
-0.0827468
-0.050203
-0.0219084
0.00205753
0.0204785
0.0350528
0.043303
0.0483239
0.0449594
0.0352227
0.0187006
-0.112225
-0.085167
-0.0584329
-0.0325465
-0.00803326
0.014581
0.0347777
0.052056
0.0659217
0.0757916
0.0823651
0.0841635
0.0811755
0.073213
0.0600774
0.0416743
0.0181142
-0.0101671
-0.042225
-0.0765403
-0.11102
-0.143283
-0.170817
-0.19134
-0.202555
-0.202941
-0.192015
-0.170848
-0.142123
-0.109446
-0.0764402
-0.0455436
-0.0186331
0.00420308
0.0218094
0.0356784
0.0435153
0.0480685
0.044613
0.0346294
0.0183985
-0.105286
-0.0796358
-0.0542261
-0.0295502
-0.00611095
0.0155808
0.035014
0.0516986
0.0651293
0.0748602
0.080867
0.0824025
0.0792222
0.0711193
0.0579358
0.0396395
0.0164219
-0.011202
-0.0422344
-0.0751599
-0.107954
-0.138352
-0.164006
-0.182725
-0.192398
-0.191746
-0.180462
-0.15973
-0.132191
-0.101195
-0.0700279
-0.0408616
-0.0154035
0.00626722
0.0230166
0.0361766
0.0435604
0.0476637
0.0441047
0.0339379
0.0180024
-0.0993939
-0.0752806
-0.051333
-0.028011
-0.00579054
0.014839
0.03338
0.049371
0.0622529
0.0716534
0.0772978
0.0786566
0.0754208
0.0673743
0.0543908
0.0364896
0.013928
-0.0127188
-0.042421
-0.0736843
-0.104561
-0.132907
-0.156505
-0.173284
-0.181408
-0.179768
-0.168255
-0.148151
-0.121992
-0.0928317
-0.0636048
-0.0362246
-0.0122607
0.00822152
0.0240841
0.0365315
0.0434345
0.0471023
0.0434369
0.033152
0.0175103
-0.0944325
-0.0719339
-0.0495383
-0.0276709
-0.00677839
0.0126753
0.0302136
0.0453415
0.0576619
0.0666494
0.0719791
0.0732113
0.0700252
0.062204
0.0496469
0.0324145
0.0108145
-0.0145383
-0.0426039
-0.0719288
-0.100656
-0.126762
-0.148176
-0.162991
-0.169604
-0.167098
-0.155552
-0.136293
-0.111693
-0.0844804
-0.0572554
-0.0316887
-0.0092387
0.0100434
0.0250008
0.0367352
0.0431413
0.0463853
0.0426182
0.0322813
0.0169297
-0.0902559
-0.0694006
-0.0485987
-0.0282398
-0.00874013
0.00946517
0.0259376
0.0402022
0.0518238
0.0603406
0.0653768
0.0665304
0.0634869
0.0560362
0.0441005
0.0277728
0.00739591
-0.0163933
-0.0425653
-0.0697254
-0.0961209
-0.119861
-0.139037
-0.151921
-0.157121
-0.153927
-0.142569
-0.124355
-0.10145
-0.0762572
-0.0510587
-0.027306
-0.00636857
0.0117135
0.0257582
0.0367832
0.0426866
0.0455164
0.0416594
0.031337
0.0162718
-0.0867033
-0.0674792
-0.0482712
-0.0294348
-0.0113522
0.00557657
0.0209312
0.0342789
0.0451747
0.0531991
0.0579625
0.0590876
0.0562739
0.0493231
0.0381767
0.0229513
0.00401081
-0.0180034
-0.0420899
-0.0669281
-0.0908816
-0.112206
-0.129156
-0.140204
-0.144153
-0.140488
-0.129535
-0.112536
-0.0914204
-0.068271
-0.0450864
-0.0231224
-0.00367709
0.0132168
0.0263504
0.0366733
0.0420769
0.044502
0.0405728
0.0303294
0.0155477
-0.0836217
-0.0659843
-0.0483367
-0.0310014
-0.0143257
0.00132418
0.0155551
0.027955
0.038119
0.0456474
0.0501597
0.0513032
0.0487958
0.0424535
0.0322341
0.0182688
0.000928232
-0.0191578
-0.0410322
-0.063461
-0.084935
-0.103872
-0.118689
-0.128048
-0.130955
-0.127047
-0.116694
-0.101031
-0.0817443
-0.0606174
-0.0393993
-0.0191758
-0.00118603
0.0145417
0.0267743
0.0364057
0.0413203
0.0433504
0.0393712
0.0292674
0.0147684
-0.0808794
-0.0647609
-0.0486146
-0.0327308
-0.0174231
-0.00303044
0.0100881
0.0215541
0.0309949
0.0380355
0.042319
0.0435196
0.041377
0.0357243
0.0265323
0.0139381
-0.00169339
-0.019759
-0.0393611
-0.0593613
-0.0783911
-0.0950383
-0.107868
-0.115737
-0.117826
-0.113883
-0.104278
-0.0900151
-0.072542
-0.0533744
-0.034046
-0.0154959
0.00108811
0.0156808
0.0270294
0.035983
0.0404261
0.0420721
0.0380684
0.028159
0.0139457
-0.07837
-0.0636873
-0.0489656
-0.0344649
-0.0204687
-0.0072848
0.00475779
0.0153205
0.0240592
0.0306301
0.0347063
0.0359914
0.0342504
0.0293348
0.0212259
0.0100607
-0.00381273
-0.0198305
-0.0371667
-0.0547879
-0.0714709
-0.0859699
-0.0969974
-0.103592
-0.105072
-0.101258
-0.0924888
-0.0796286
-0.0639058
-0.0466002
-0.029062
-0.012104
0.00313422
0.0166302
0.0271184
0.0354097
0.0394045
0.0406793
0.0366787
0.0270108
0.0130918
-0.0760124
-0.062674
-0.0492899
-0.036092
-0.0233361
-0.0112997
-0.000277902
0.0094234
0.017492
0.0236174
0.0275052
0.0288902
0.0275643
0.023398
0.0163819
0.00664782
-0.00548043
-0.0194876
-0.0346272
-0.0499781
-0.0644571
-0.0769475
-0.0863998
-0.0919237
-0.0929644
-0.0893861
-0.0814798
-0.0699726
-0.0558984
-0.0403332
-0.0244702
-0.00901302
0.00494631
0.0173894
0.0270464
0.0346925
0.0382664
0.039186
0.0352169
0.0258291
0.0122205
-0.0737462
-0.061658
-0.0495199
-0.0375389
-0.0259436
-0.0149827
-0.00491965
0.00397028
0.0114074
0.0171144
0.0208294
0.0223186
0.0214003
0.0179644
0.012009
0.00365787
-0.00679377
-0.0188844
-0.0319501
-0.0451826
-0.0576331
-0.068335
-0.0763675
-0.0809874
-0.0817084
-0.0784174
-0.0713495
-0.0611065
-0.0485536
-0.0345929
-0.0202815
-0.00622853
0.00652315
0.0179611
0.0268207
0.0338401
0.0370235
0.037608
0.0336977
0.0246202
0.0113459
-0.0715281
-0.0605966
-0.0496126
-0.03876
-0.0282426
-0.0182815
-0.00911186
-0.000979039
0.00586825
0.0111844
0.0147388
0.0163273
0.0157935
0.0130451
0.00808637
0.00103173
-0.00785424
-0.0181644
-0.0293165
-0.0406096
-0.0512202
-0.0603192
-0.0671054
-0.0709521
-0.0714287
-0.0684328
-0.0621435
-0.0530522
-0.0418807
-0.0293829
-0.0164972
-0.00374981
0.00786775
0.0183506
0.0264507
0.0328627
0.0356879
0.0359622
0.0321349
0.0233904
0.0104826
-0.0693278
-0.0594623
-0.0495424
-0.039731
-0.0302089
-0.0211722
-0.0128298
-0.00539889
0.000900617
0.00585252
0.0092553
0.0109319
0.010749
0.00863008
0.00458413
-0.00128485
-0.0087423
-0.0174334
-0.0268529
-0.0363988
-0.0453606
-0.0530344
-0.058725
-0.0618996
-0.062175
-0.0594532
-0.0538629
-0.0458014
-0.0358687
-0.0246942
-0.0131104
-0.00157086
0.0089867
0.0185655
0.0259474
0.0317723
0.034272
0.0342663
0.0305411
0.0221474
0.00964508
-0.0671243
-0.058238
-0.0492959
-0.0404417
-0.0318351
-0.0236497
-0.0160697
-0.00928677
-0.00349437
0.0011182
0.00437571
0.00612543
0.0062544
0.00469935
0.00147256
-0.00333264
-0.00951022
-0.0167535
-0.0246278
-0.0326201
-0.0401185
-0.0465325
-0.0512574
-0.0538399
-0.053937
-0.0514542
-0.0464769
-0.0393239
-0.030493
-0.0205085
-0.0101078
0.000318404
0.00988959
0.0186151
0.0253227
0.0305826
0.0327884
0.0325376
0.028927
0.0208993
0.00884691
-0.0649022
-0.0569137
-0.0488678
-0.0408912
-0.0331245
-0.0257204
-0.018841
-0.0126548
-0.00733107
-0.00303496
8.1736e-05
0.00188769
0.00228737
0.00122864
-0.00127444
-0.00513915
-0.0101857
-0.0161513
-0.0226634
-0.0292879
-0.0355021
-0.0408028
-0.0446759
-0.0467325
-0.0466644
-0.0443815
-0.0399335
-0.0335756
-0.025719
-0.0168009
-0.00747196
0.00193124
0.0105883
0.0185107
0.0245893
0.0293082
0.0312504
0.0307927
0.0273019
0.0196548
0.00809958
-0.0626516
-0.0554846
-0.0482587
-0.041085
-0.0340869
-0.0273984
-0.0211617
-0.015524
-0.0106332
-0.00663276
-0.00365384
-0.00180916
-0.00117946
-0.00180782
-0.00367957
-0.00672231
-0.0107798
-0.0156288
-0.0209506
-0.0263793
-0.0314714
-0.0357965
-0.0389193
-0.0405076
-0.040284
-0.0381643
-0.0341697
-0.0285048
-0.0215072
-0.0135425
-0.00518198
0.0032832
0.0110965
0.0182648
0.0237601
0.027965
0.029671
0.0290457
0.0256745
0.0184225
0.00741151
-0.0603662
-0.0539498
-0.0474728
-0.0410325
-0.0347367
-0.0287026
-0.0230545
-0.0179207
-0.0134298
-0.00970627
-0.00686307
-0.00499689
-0.00417602
-0.00443628
-0.0057633
-0.00809438
-0.0112945
-0.0151748
-0.0194626
-0.0238529
-0.027968
-0.0314453
-0.0339099
-0.0350824
-0.0347131
-0.0327255
-0.0291181
-0.0240566
-0.0178153
-0.0107022
-0.00321508
0.0043915
0.011429
0.017891
0.0228482
0.0265693
0.0280635
0.0273077
0.0240532
0.0172101
0.00678741
-0.0580432
-0.0523115
-0.0465175
-0.0407459
-0.0350909
-0.0296546
-0.0245451
-0.0198741
-0.015753
-0.0122893
-0.00958047
-0.00770923
-0.00673346
-0.00668321
-0.00754502
-0.0092652
-0.0117278
-0.0147735
-0.0181702
-0.0216627
-0.0249317
-0.0276741
-0.0295653
-0.0303713
-0.0298677
-0.0279874
-0.0247115
-0.0201757
-0.0146005
-0.00824793
-0.00154727
0.00527448
0.0116015
0.0174039
0.0218667
0.0251373
0.0264401
0.0255865
0.0224469
0.0160238
0.00622774
-0.0556821
-0.0505742
-0.0454021
-0.0402396
-0.0351687
-0.0302779
-0.0256611
-0.0214151
-0.0176361
-0.0144171
-0.0118416
-0.00998066
-0.00888333
-0.00857512
-0.00904384
-0.0102441
-0.0120766
-0.0144086
-0.0170432
-0.0197627
-0.0223019
-0.0244113
-0.0258066
-0.0262922
-0.0256675
-0.0238761
-0.020885
-0.0168089
-0.0118206
-0.0061476
-0.000154014
0.00595121
0.0116297
0.0168186
0.0208281
0.0236845
0.0248126
0.0238882
0.0208657
0.0148678
0.00572844
-0.0532849
-0.0487443
-0.0441379
-0.0395297
-0.0349905
-0.0305972
-0.026431
-0.0225754
-0.0191134
-0.0161252
-0.0136823
-0.0118457
-0.0106572
-0.0101385
-0.010279
-0.0110408
-0.0123396
-0.0140647
-0.0160491
-0.018113
-0.0200279
-0.0215932
-0.0225607
-0.0227692
-0.0220381
-0.0203225
-0.017578
-0.0139053
-0.009435
-0.00436946
0.000989229
0.00644119
0.0115296
0.0161506
0.0197453
0.0222246
0.0231915
0.0222183
0.0193198
0.0137451
0.00528147
-0.0508553
-0.0468302
-0.0427376
-0.0386331
-0.0345777
-0.0306379
-0.0268836
-0.0233868
-0.0202191
-0.017449
-0.0151381
-0.0133386
-0.0120862
-0.0113997
-0.0112701
-0.011666
-0.0125163
-0.013729
-0.0151629
-0.0166722
-0.018059
-0.01916
-0.0197619
-0.0197337
-0.0189117
-0.0172631
-0.0147342
-0.0114171
-0.00740459
-0.00288264
0.00190668
0.00676399
0.0113169
0.0154151
0.0186302
0.0207693
0.021587
0.0205824
0.0178187
0.0126582
0.00487594
-0.0483986
-0.0448411
-0.0412148
-0.0375676
-0.0339522
-0.0304255
-0.0270479
-0.0238812
-0.0209867
-0.0184233
-0.0162438
-0.0144928
-0.0132008
-0.0123845
-0.0120363
-0.0121308
-0.0126079
-0.0133922
-0.0143644
-0.015406
-0.0163487
-0.0170583
-0.0173516
-0.017124
-0.0162271
-0.0146403
-0.0123015
-0.00929946
-0.00569246
-0.00165732
0.00262196
0.00693902
0.0110071
0.0146267
0.0174949
0.0193285
0.0200094
0.0189875
0.0163708
0.0116103
0.00449992
-0.0459215
-0.0427875
-0.0395839
-0.0363516
-0.0331358
-0.0299856
-0.0269525
-0.0240896
-0.0214493
-0.019082
-0.017033
-0.0153404
-0.0140306
-0.013118
-0.012597
-0.0124468
-0.0126175
-0.0130472
-0.0136355
-0.0142871
-0.0148589
-0.0152418
-0.0152779
-0.0148853
-0.0139295
-0.0124015
-0.0102324
-0.00751095
-0.0042638
-0.000664931
0.00315784
0.00698521
0.0106151
0.013799
0.0163506
0.0179105
0.0184683
0.0174416
0.0149833
0.0106053
0.00414266
-0.0434312
-0.0406804
-0.0378595
-0.0350033
-0.0321506
-0.0293433
-0.0266254
-0.0240422
-0.0216387
-0.0194578
-0.0175382
-0.0159126
-0.0146038
-0.0136247
-0.0129708
-0.0126259
-0.0125487
-0.0126886
-0.0129618
-0.0132918
-0.013557
-0.0136703
-0.0134949
-0.0129689
-0.0119695
-0.0104993
-0.00848337
-0.00601298
-0.00308598
0.000121729
0.00353615
0.00692082
0.0101555
0.0129445
0.0152081
0.0165234
0.0169732
0.015953
0.0136614
0.00964751
0.00379684
-0.0409358
-0.0385314
-0.0360565
-0.033541