/*--------------------------------*- C++ -*----------------------------------*\
  =========                 |
  \\      /  F ield         | OpenFOAM: The Open Source CFD Toolbox
   \\    /   O peration     | Website:  https://openfoam.org
    \\  /    A nd           | Version:  7
     \\/     M anipulation  |
\*---------------------------------------------------------------------------*/
FoamFile
{
    version     2.0;
    format      ascii;
    class       volScalarField;
    location    "25";
    object      p;
}
// * * * * * * * * * * * * * * * * * * * * * * * * * * * * * * * * * * * * * //

dimensions      [0 2 -2 0 0 0 0];

internalField   nonuniform List<scalar> 
8500
(
-0.282424
-0.281968
-0.281424
-0.280789
-0.280058
-0.279229
-0.278299
-0.277265
-0.276125
-0.274878
-0.27352
-0.272048
-0.270454
-0.268726
-0.266844
-0.264778
-0.262487
-0.259906
-0.25696
-0.253534
-0.249517
-0.244737
-0.239055
-0.232244
-0.224206
-0.214681
-0.203734
-0.191093
-0.177157
-0.161618
-0.145345
-0.127922
-0.110649
-0.0930232
-0.0763319
-0.0604833
-0.0456059
-0.0334284
-0.0208037
-0.0139122
-0.00305812
-0.0029002
0.00744956
-0.000949635
0.0106777
-0.282437
-0.281981
-0.281438
-0.280802
-0.280072
-0.279243
-0.278312
-0.277277
-0.276137
-0.274889
-0.273531
-0.272059
-0.270464
-0.268735
-0.266853
-0.264787
-0.262495
-0.259914
-0.25697
-0.253546
-0.249531
-0.244755
-0.239076
-0.232269
-0.224236
-0.214715
-0.203773
-0.191136
-0.177203
-0.161666
-0.145394
-0.12797
-0.110696
-0.0930678
-0.0763745
-0.0605217
-0.0456416
-0.0334595
-0.0208322
-0.0139362
-0.00308032
-0.00291766
0.00743246
-0.000959432
0.010665
-0.282461
-0.282005
-0.281461
-0.280826
-0.280095
-0.279266
-0.278335
-0.2773
-0.276159
-0.27491
-0.273552
-0.272078
-0.270483
-0.268754
-0.266871
-0.264806
-0.262516
-0.259937
-0.256996
-0.253577
-0.249568
-0.244798
-0.239127
-0.232329
-0.224303
-0.214791
-0.203856
-0.191225
-0.177296
-0.16176
-0.145489
-0.128063
-0.110786
-0.0931512
-0.0764536
-0.0605927
-0.0457078
-0.0335174
-0.0208857
-0.0139817
-0.00312282
-0.00295162
0.00739873
-0.000979004
0.0106394
-0.282496
-0.282039
-0.281496
-0.28086
-0.280129
-0.279299
-0.278367
-0.277331
-0.27619
-0.27494
-0.273581
-0.272107
-0.270511
-0.268782
-0.2669
-0.264836
-0.262549
-0.259975
-0.257039
-0.253626
-0.249627
-0.244867
-0.239208
-0.232421
-0.224408
-0.214907
-0.203982
-0.191358
-0.177435
-0.1619
-0.14563
-0.128198
-0.110917
-0.0932729
-0.0765688
-0.0606962
-0.0458042
-0.0336018
-0.020964
-0.0140485
-0.00318557
-0.003002
0.00734842
-0.00100821
0.010601
-0.282541
-0.282084
-0.28154
-0.280904
-0.280172
-0.279341
-0.278408
-0.277372
-0.276229
-0.274979
-0.273618
-0.272143
-0.270547
-0.268818
-0.266938
-0.264877
-0.262593
-0.260025
-0.257098
-0.253694
-0.249707
-0.244961
-0.239316
-0.232545
-0.224548
-0.215061
-0.204149
-0.191534
-0.177618
-0.162085
-0.145814
-0.128375
-0.111089
-0.0934322
-0.0767194
-0.0608315
-0.0459304
-0.0337126
-0.0210668
-0.0141366
-0.00326845
-0.00306868
0.00728162
-0.00104683
0.0105497
-0.282595
-0.282138
-0.281593
-0.280956
-0.280224
-0.279392
-0.278458
-0.277421
-0.276277
-0.275026
-0.273664
-0.272188
-0.270592
-0.268864
-0.266985
-0.264927
-0.262649
-0.260088
-0.257171
-0.25378
-0.249807
-0.245077
-0.239452
-0.2327
-0.224722
-0.215252
-0.204355
-0.191752
-0.177844
-0.162312
-0.146041
-0.128594
-0.1113
-0.0936279
-0.0769046
-0.0609981
-0.0460858
-0.0338493
-0.0211938
-0.0142457
-0.00337131
-0.00315149
0.0071984
-0.0010946
0.0104859
-0.2822
-0.281655
-0.281017
-0.280284
-0.279451
-0.278517
-0.277478
-0.276333
-0.27508
-0.273717
-0.272241
-0.270645
-0.268917
-0.267041
-0.264987
-0.262715
-0.260163
-0.257258
-0.253881
-0.249925
-0.245216
-0.239612
-0.232882
-0.224927
-0.215477
-0.204599
-0.192008
-0.17811
-0.162579
-0.146308
-0.128851
-0.111549
-0.093859
-0.0771233
-0.0611952
-0.0462699
-0.0340116
-0.0213448
-0.0143757
-0.003494
-0.00325022
0.00709887
-0.00115118
0.0104096
-0.282271
-0.281725
-0.281087
-0.280352
-0.279519
-0.278583
-0.277542
-0.276396
-0.275141
-0.273777
-0.2723
-0.270704
-0.268978
-0.267104
-0.265055
-0.262791
-0.260248
-0.257357
-0.253992
-0.250061
-0.245374
-0.239794
-0.23309
-0.225161
-0.215735
-0.204877
-0.192301
-0.178413
-0.162885
-0.146613
-0.129145
-0.111834
-0.0941241
-0.0773744
-0.0614221
-0.0464819
-0.0341991
-0.0215194
-0.0145262
-0.00363631
-0.00336465
0.00698318
-0.0012162
0.0103211
-0.282349
-0.281802
-0.281163
-0.280428
-0.279593
-0.278655
-0.277614
-0.276465
-0.27521
-0.273844
-0.272366
-0.27077
-0.269045
-0.267175
-0.265131
-0.262874
-0.260343
-0.257466
-0.254112
-0.250211
-0.245549
-0.239997
-0.233322
-0.225421
-0.216021
-0.205187
-0.192627
-0.178752
-0.163226
-0.146954
-0.129475
-0.112154
-0.0944216
-0.0776566
-0.0616778
-0.046721
-0.0344112
-0.021717
-0.014697
-0.003798
-0.00349449
0.00685148
-0.00128924
0.0102205
-0.282433
-0.281886
-0.281246
-0.280509
-0.279673
-0.278734
-0.277691
-0.276541
-0.275284
-0.273917
-0.272438
-0.270842
-0.269118
-0.267251
-0.265213
-0.262965
-0.260446
-0.257585
-0.25428
-0.250374
-0.245739
-0.240218
-0.233574
-0.225704
-0.216333
-0.205525
-0.192983
-0.179122
-0.1636
-0.147328
-0.129837
-0.112505
-0.0947499
-0.0779683
-0.0619613
-0.0469864
-0.0346474
-0.0219372
-0.0148878
-0.00397882
-0.00363945
0.00670395
-0.00136985
0.0101081
-0.282523
-0.281975
-0.281334
-0.280596
-0.279759
-0.278819
-0.277773
-0.276622
-0.275363
-0.273994
-0.272515
-0.270919
-0.269196
-0.267332
-0.2653
-0.263061
-0.260555
-0.257712
-0.254418
-0.250548
-0.245943
-0.240454
-0.233843
-0.226008
-0.216667
-0.205887
-0.193366
-0.179521
-0.164003
-0.147732
-0.130229
-0.112886
-0.0951074
-0.0783081
-0.0622715
-0.047277
-0.0349071
-0.0221795
-0.0150982
-0.00417849
-0.0037992
0.00654081
-0.00145754
0.00998428
-0.282617
-0.282068
-0.281426
-0.280688
-0.279849
-0.278907
-0.277861
-0.276707
-0.275446
-0.274076
-0.272595
-0.270999
-0.269278
-0.267418
-0.265392
-0.263163
-0.26067
-0.257845
-0.254569
-0.250731
-0.246156
-0.240702
-0.234127
-0.226328
-0.21702
-0.206271
-0.193772
-0.179944
-0.164432
-0.148163
-0.130649
-0.113295
-0.0954922
-0.0786745
-0.0626072
-0.0475919
-0.0351896
-0.0224433
-0.0153278
-0.00439668
-0.0039734
0.00636229
-0.00155183
0.00984925
-0.282715
-0.282165
-0.281522
-0.280783
-0.279943
-0.279
-0.277951
-0.276796
-0.275533
-0.274161
-0.272679
-0.271083
-0.269364
-0.267506
-0.265487
-0.263268
-0.260789
-0.257978
-0.254729
-0.25092
-0.246378
-0.24096
-0.234422
-0.226661
-0.217389
-0.206672
-0.194198
-0.18039
-0.164884
-0.148619
-0.131093
-0.11373
-0.0959024
-0.0790658
-0.0629674
-0.0479301
-0.0354942
-0.0227281
-0.0155763
-0.00463304
-0.00416165
0.00616864
-0.00165221
0.00970337
-0.282815
-0.282264
-0.281621
-0.280881
-0.28004
-0.279095
-0.278045
-0.276888
-0.275623
-0.274249
-0.272766
-0.27117
-0.269452
-0.267597
-0.265584
-0.263375
-0.26091
-0.258108
-0.254893
-0.251114
-0.246605
-0.241224
-0.234725
-0.227005
-0.21777
-0.207088
-0.19464
-0.180853
-0.165356
-0.149096
-0.131561
-0.114187
-0.0963361
-0.0794803
-0.0633507
-0.0482905
-0.0358204
-0.0230331
-0.0158431
-0.00488722
-0.00436356
0.00596016
-0.00175817
0.009547
-0.282915
-0.282365
-0.281721
-0.28098
-0.280138
-0.279192
-0.278141
-0.276981
-0.275715
-0.274339
-0.272855
-0.271258
-0.269541
-0.26769
-0.265683
-0.263484
-0.261032
-0.258276
-0.255059
-0.25131
-0.246835
-0.241493
-0.235034
-0.227356
-0.21816
-0.207514
-0.195095
-0.181331
-0.165845
-0.149591
-0.132048
-0.114665
-0.0967915
-0.0799165
-0.063756
-0.0486722
-0.0361672
-0.0233579
-0.0161279
-0.00515881
-0.00457871
0.00573716
-0.00186921
0.00938053
-0.283016
-0.282465
-0.281822
-0.28108
-0.280238
-0.279291
-0.278237
-0.277076
-0.275808
-0.274431
-0.272945
-0.271347
-0.269631
-0.267783
-0.265782
-0.263593
-0.261146
-0.258405
-0.255225
-0.251506
-0.247066
-0.241763
-0.235346
-0.227711
-0.218555
-0.207948
-0.195559
-0.181821
-0.166347
-0.150101
-0.132552
-0.115161
-0.0972666
-0.0803727
-0.0641821
-0.0490739
-0.036534
-0.0237016
-0.01643
-0.00544739
-0.00480665
0.00549998
-0.00198485
0.00920434
-0.283115
-0.282565
-0.281921
-0.28118
-0.280337
-0.279389
-0.278334
-0.277171
-0.275901
-0.274522
-0.273035
-0.271437
-0.269721
-0.267875
-0.265881
-0.2637
-0.26125
-0.25854
-0.255389
-0.2517
-0.247295
-0.242032
-0.235657
-0.228066
-0.218952
-0.208386
-0.196029
-0.182318
-0.16686
-0.150624
-0.133071
-0.115674
-0.0977597
-0.0808471
-0.0646276
-0.0494946
-0.0369199
-0.0240636
-0.0167491
-0.0057525
-0.00504692
0.00524899
-0.00210461
0.00901885
-0.283212
-0.282662
-0.282019
-0.281278
-0.280435
-0.279486
-0.27843
-0.277266
-0.275994
-0.274613
-0.273124
-0.271526
-0.269811
-0.267967
-0.265978
-0.263804
-0.261424
-0.258679
-0.255551
-0.251892
-0.247521
-0.242298
-0.235965
-0.22842
-0.219349
-0.208824
-0.196501
-0.182821
-0.16738
-0.151157
-0.133602
-0.1162
-0.0982688
-0.0813383
-0.0650914
-0.0499332
-0.0373242
-0.0244432
-0.0170844
-0.00607366
-0.00529903
0.00498458
-0.00222802
0.00882448
-0.283305
-0.282757
-0.282114
-0.281374
-0.28053
-0.279581
-0.278525
-0.277359
-0.276086
-0.274703
-0.273213
-0.271613
-0.269899
-0.268057
-0.266073
-0.263903
-0.261523
-0.258813
-0.255708
-0.252078
-0.247742
-0.242558
-0.236269
-0.228769
-0.219742
-0.209261
-0.196974
-0.183326
-0.167905
-0.151696
-0.134143
-0.116739
-0.0987923
-0.0818446
-0.0655722
-0.0503886
-0.037746
-0.0248397
-0.0174356
-0.00641038
-0.0055625
0.00470718
-0.00235465
0.00862169
-0.283393
-0.282846
-0.282205
-0.281465
-0.280623
-0.279674
-0.278617
-0.277451
-0.276175
-0.274791
-0.273299
-0.271699
-0.269985
-0.268144
-0.266162
-0.264014
-0.261627
-0.258943
-0.255859
-0.252258
-0.247955
-0.242811
-0.236565
-0.229111
-0.220129
-0.209693
-0.197444
-0.18383
-0.168432
-0.152241
-0.134691
-0.117286
-0.0993282
-0.0823645
-0.0660686
-0.0508598
-0.0381845
-0.0252523
-0.0178018
-0.00676211
-0.0058368
0.00441724
-0.00248408
0.00841092
-0.283476
-0.282931
-0.282291
-0.281553
-0.280711
-0.279763
-0.278706
-0.277538
-0.276262
-0.274877
-0.273383
-0.271781
-0.270068
-0.268228
-0.266245
-0.264112
-0.261733
-0.259066
-0.256003
-0.252429
-0.24816
-0.243055
-0.236851
-0.229444
-0.220508
-0.210118
-0.197908
-0.18433
-0.168958
-0.152787
-0.135245
-0.117842
-0.0998751
-0.0828964
-0.0665796
-0.0513456
-0.0386388
-0.0256803
-0.0181826
-0.00712831
-0.0061214
0.00411522
-0.00261592
0.00819262
-0.28355
-0.283008
-0.282371
-0.281634
-0.280794
-0.279847
-0.27879
-0.277622
-0.276345
-0.274958
-0.273463
-0.271861
-0.270148
-0.268302
-0.266342
-0.264198
-0.261833
-0.259182
-0.256139
-0.252592
-0.248355
-0.243289
-0.237126
-0.229765
-0.220876
-0.210532
-0.198365
-0.184826
-0.169482
-0.153334
-0.135803
-0.118403
-0.100431
-0.083439
-0.0671039
-0.051845
-0.039108
-0.0261229
-0.0185772
-0.00750839
-0.00641578
0.00380162
-0.00274979
0.00796727
-0.283617
-0.283077
-0.282443
-0.281709
-0.280871
-0.279925
-0.278869
-0.277701
-0.276424
-0.275036
-0.273539
-0.271936
-0.270223
-0.268365
-0.266422
-0.26428
-0.261927
-0.25929
-0.256266
-0.252745
-0.248538
-0.243509
-0.237389
-0.230074
-0.221231
-0.210936
-0.198811
-0.185313
-0.17
-0.153878
-0.136362
-0.118969
-0.100995
-0.0839908
-0.0676403
-0.052357
-0.0395912
-0.0265793
-0.0189849
-0.00790177
-0.00671937
0.00347696
-0.00288534
0.00773533
-0.283138
-0.282507
-0.281776
-0.28094
-0.279996
-0.278942
-0.277775
-0.276497
-0.275108
-0.273611
-0.272007
-0.270288
-0.26848
-0.26649
-0.264357
-0.262013
-0.259389
-0.256384
-0.252886
-0.248709
-0.243717
-0.237636
-0.230367
-0.221572
-0.211325
-0.199246
-0.18579
-0.170512
-0.154418
-0.136921
-0.119536
-0.101565
-0.0845504
-0.0681876
-0.0528804
-0.0400875
-0.0270487
-0.019405
-0.00830781
-0.00703162
0.00314176
-0.00302226
0.00749728
-0.283188
-0.282561
-0.281834
-0.281001
-0.28006
-0.279007
-0.277841
-0.276564
-0.275175
-0.273677
-0.27207
-0.270344
-0.268533
-0.266555
-0.264428
-0.26209
-0.259479
-0.25649
-0.253015
-0.248867
-0.243909
-0.237869
-0.230645
-0.221896
-0.211699
-0.199667
-0.186256
-0.171016
-0.154953
-0.137478
-0.120105
-0.102139
-0.0851166
-0.0687446
-0.0534143
-0.0405961
-0.0275304
-0.0198369
-0.00872588
-0.00735196
0.0027966
-0.00316024
0.00725357
-0.283226
-0.282604
-0.281882
-0.281053
-0.280115
-0.279064
-0.2779
-0.276623
-0.275235
-0.273736
-0.272124
-0.270426
-0.268583
-0.266613
-0.26449
-0.262159
-0.259559
-0.256585
-0.253131
-0.24901
-0.244085
-0.238084
-0.230905
-0.222203
-0.212057
-0.200072
-0.186709
-0.171508
-0.15548
-0.138031
-0.120673
-0.102717
-0.085688
-0.0693102
-0.0539575
-0.0411158
-0.0280236
-0.0202798
-0.00915532
-0.00767982
0.00244203
-0.00329901
0.00700469
-0.283252
-0.282636
-0.281918
-0.281094
-0.280159
-0.279112
-0.27795
-0.276675
-0.275287
-0.273785
-0.272178
-0.270465
-0.268632
-0.266664
-0.264544
-0.262218
-0.259628
-0.256667
-0.253233
-0.249137
-0.244245
-0.238281
-0.231146
-0.222491
-0.212396
-0.200461
-0.187146
-0.171989
-0.155998
-0.138579
-0.121239
-0.103297
-0.0862634
-0.0698832
-0.0545092
-0.0416459
-0.0285273
-0.0207328
-0.00959546
-0.00801461
0.00207864
-0.00343829
0.00675108
-0.283264
-0.282654
-0.281942
-0.281123
-0.280193
-0.27915
-0.27799
-0.276717
-0.27533
-0.273824
-0.272232
-0.270502
-0.268673
-0.266707
-0.264588
-0.262267
-0.259685
-0.256737
-0.253321
-0.249248
-0.244387
-0.238459
-0.231368
-0.22276
-0.212715
-0.200831
-0.187568
-0.172457
-0.156506
-0.139122
-0.121801
-0.103878
-0.0868418
-0.0704627
-0.0550684
-0.0421854
-0.0290408
-0.0211953
-0.0100456
-0.00835578
0.00170703
-0.00357786
0.00649322
-0.28326
-0.282657
-0.281952
-0.281139
-0.280215
-0.279176
-0.27802
-0.276749
-0.275363
-0.273866
-0.27226
-0.270536
-0.268706
-0.266739
-0.264622
-0.262305
-0.25973
-0.256793
-0.253393
-0.249343
-0.244511
-0.238618
-0.231569
-0.223007
-0.213014
-0.201183
-0.187972
-0.172911
-0.157002
-0.139656
-0.122359
-0.104459
-0.0874219
-0.0710474
-0.055634
-0.0427334
-0.0295634
-0.0216665
-0.0105051
-0.00870274
0.0013278
-0.00371749
0.00623153
-0.28324
-0.282645
-0.281947
-0.281141
-0.280223
-0.279189
-0.278037
-0.27677
-0.275381
-0.273898
-0.272281
-0.27056
-0.268728
-0.266762
-0.264646
-0.262331
-0.259762
-0.256835
-0.25345
-0.24942
-0.244616
-0.238757
-0.231748
-0.223233
-0.213292
-0.201514
-0.188357
-0.173349
-0.157485
-0.140183
-0.122911
-0.105038
-0.0880029
-0.0716364
-0.0562052
-0.0432889
-0.0300941
-0.0221456
-0.0109732
-0.00905492
0.000941562
-0.00385697
0.00596647
-0.283201
-0.282615
-0.281926
-0.281128
-0.280216
-0.279189
-0.278042
-0.276778
-0.275388
-0.273905
-0.272294
-0.270573
-0.26874
-0.266774
-0.264658
-0.262345
-0.259781
-0.256862
-0.253491
-0.249479
-0.244701
-0.238874
-0.231906
-0.223437
-0.213548
-0.201825
-0.188724
-0.173771
-0.157955
-0.140699
-0.123456
-0.105614
-0.0885835
-0.0722288
-0.0567811
-0.0438511
-0.0306322
-0.0226318
-0.0114493
-0.00941177
0.000548936
-0.00399612
0.00569845
-0.283143
-0.282567
-0.281887
-0.281098
-0.280194
-0.279173
-0.278032
-0.27677
-0.27541
-0.273902
-0.272295
-0.270575
-0.268741
-0.266774
-0.264658
-0.262346
-0.259786
-0.256873
-0.253514
-0.24952
-0.244766
-0.23897
-0.232042
-0.223618
-0.213781
-0.202114
-0.189071
-0.174176
-0.158411
-0.141205
-0.123994
-0.106187
-0.089163
-0.0728234
-0.0573607
-0.044419
-0.0311769
-0.0231244
-0.0119325
-0.00977273
0.000150539
-0.00413476
0.00542789
-0.282499
-0.281829
-0.281049
-0.280154
-0.279141
-0.278006
-0.276743
-0.275384
-0.273888
-0.272284
-0.270563
-0.268729
-0.266761
-0.264645
-0.262333
-0.259776
-0.256869
-0.25352
-0.249542
-0.24481
-0.239044
-0.232154
-0.223775
-0.213992
-0.202381
-0.189398
-0.174563
-0.158852
-0.1417
-0.124523
-0.106756
-0.0897406
-0.0734195
-0.0579432
-0.0449919
-0.0317274
-0.0236226
-0.0124223
-0.0101373
-0.000253013
-0.00427275
0.00515519
-0.282409
-0.281751
-0.280981
-0.280096
-0.279091
-0.277965
-0.276722
-0.275348
-0.273861
-0.272259
-0.270539
-0.268703
-0.266735
-0.264618
-0.262306
-0.25975
-0.256848
-0.253508
-0.249544
-0.244834
-0.239097
-0.232244
-0.22391
-0.214179
-0.202626
-0.189703
-0.174932
-0.159277
-0.142183
-0.125043
-0.10732
-0.0903154
-0.0740163
-0.0585279
-0.0455689
-0.032283
-0.0241258
-0.012918
-0.0105049
-0.000661106
-0.00440994
0.00488072
-0.282296
-0.28165
-0.280892
-0.280017
-0.279023
-0.277904
-0.276677
-0.2753
-0.273818
-0.272218
-0.2705
-0.268664
-0.266695
-0.264576
-0.262264
-0.259709
-0.25681
-0.253478
-0.249527
-0.244837
-0.239126
-0.23231
-0.22402
-0.214342
-0.202848
-0.189988
-0.175283
-0.159685
-0.142654
-0.125553
-0.107877
-0.0908861
-0.0746123
-0.0591137
-0.0461487
-0.0328426
-0.0246329
-0.0134187
-0.0108749
-0.00107312
-0.00454613
0.00460484
-0.282159
-0.281526
-0.280781
-0.279918
-0.278934
-0.27782
-0.276599
-0.275236
-0.273759
-0.272162
-0.270445
-0.26861
-0.266639
-0.26452
-0.262206
-0.259651
-0.256755
-0.253429
-0.249489
-0.244818
-0.239133
-0.232352
-0.224106
-0.21448
-0.203047
-0.190249
-0.175613
-0.160075
-0.143109
-0.126051
-0.108427
-0.0914511
-0.0752059
-0.0596989
-0.0467301
-0.0334052
-0.0251429
-0.0139235
-0.0112467
-0.0014884
-0.00468118
0.00432792
-0.281997
-0.281379
-0.280647
-0.279797
-0.278825
-0.277711
-0.276505
-0.275153
-0.273681
-0.272088
-0.270374
-0.268539
-0.266567
-0.264446
-0.262131
-0.259576
-0.256681
-0.25336
-0.24943
-0.244777
-0.239117
-0.232371
-0.224168
-0.214595
-0.203223
-0.19049
-0.175924
-0.16045
-0.143552
-0.126539
-0.10897
-0.0920124
-0.0757989
-0.060285
-0.0473141
-0.0339712
-0.0256563
-0.0144323
-0.0116205
-0.00190633
-0.00481533
0.00405038
-0.281806
-0.281203
-0.280487
-0.279651
-0.278693
-0.277603
-0.27639
-0.275049
-0.273583
-0.271995
-0.270283
-0.268449
-0.266477
-0.264354
-0.262037
-0.259481
-0.256587
-0.253271
-0.249351
-0.244715
-0.23908
-0.23237
-0.224212
-0.214695
-0.203386
-0.190722
-0.176231
-0.160822
-0.143998
-0.127032
-0.109521
-0.0925821
-0.076402
-0.0608804
-0.047908
-0.0345453
-0.0261773
-0.0149469
-0.0119983
-0.00232674
-0.00494958
0.00377266
-0.281569
-0.280985
-0.280287
-0.279468
-0.278526
-0.277468
-0.276249
-0.274921
-0.273464
-0.271882
-0.270175
-0.268343
-0.266372
-0.264248
-0.261929
-0.259373
-0.256479
-0.253169
-0.249258
-0.244639
-0.23903
-0.232356
-0.224245
-0.214785
-0.203543
-0.190949
-0.176536
-0.161196
-0.144447
-0.12753
-0.110079
-0.0931591
-0.0770136
-0.0614837
-0.0485096
-0.0351266
-0.0267038
-0.0154667
-0.0123783
-0.00274989
-0.00508256
0.00349433
-0.281293
-0.280734
-0.280059
-0.279261
-0.278337
-0.277283
-0.276093
-0.27478
-0.273335
-0.271763
-0.270063
-0.268235
-0.266266
-0.264143
-0.261823
-0.259265
-0.256371
-0.253061
-0.249154
-0.244544
-0.238951
-0.2323
-0.224222
-0.214802
-0.203613
-0.191075
-0.17673
-0.16145
-0.144776
-0.127909
-0.110525
-0.0936362
-0.0775351
-0.062016
-0.0490481
-0.0356673
-0.0271914
-0.0159711
-0.0127364
-0.00317337
-0.0052024
0.00321301
-0.281065
-0.280523
-0.279864
-0.279082
-0.278177
-0.277139
-0.275947
-0.274639
-0.273199
-0.271631
-0.269933
-0.268106
-0.266136
-0.264011
-0.261687
-0.259124
-0.256224
-0.252907
-0.248995
-0.24438
-0.238786
-0.232138
-0.224073
-0.21467
-0.203517
-0.191017
-0.176736
-0.161513
-0.144925
-0.128124
-0.110833
-0.0940069
-0.0779797
-0.0625136
-0.0495695
-0.0362387
-0.027702
-0.0165504
-0.0131264
-0.00368737
-0.00532302
0.00286656
-0.280458
-0.279937
-0.279296
-0.278531
-0.277636
-0.276606
-0.275439
-0.274144
-0.272713
-0.271152
-0.269458
-0.267631
-0.265657
-0.263523
-0.261186
-0.258604
-0.25568
-0.252338
-0.248398
-0.243757
-0.238144
-0.231485
-0.223427
-0.214048
-0.202949
-0.190516
-0.176345
-0.161231
-0.144797
-0.128125
-0.111
-0.0942941
-0.0784047
-0.0630331
-0.0501545
-0.0368962
-0.0283115
-0.0172367
-0.0136044
-0.00429112
-0.00548283
0.00246986
-0.279684
-0.279186
-0.278567
-0.27782
-0.276943
-0.275929
-0.274778
-0.273496
-0.272076
-0.270522
-0.268832
-0.267006
-0.265027
-0.262882
-0.260528
-0.257923
-0.254971
-0.251595
-0.24762
-0.242945
-0.237304
-0.230628
-0.222574
-0.213216
-0.202173
-0.189817
-0.175766
-0.160778
-0.144516
-0.127994
-0.11106
-0.0944957
-0.0787662
-0.0635079
-0.0507119
-0.0375385
-0.0289166
-0.0179231
-0.0140883
-0.00489654
-0.00565033
0.00207919
-0.278792
-0.278323
-0.27773
-0.277008
-0.276152
-0.27516
-0.274027
-0.272759
-0.271353
-0.269809
-0.268125
-0.2663
-0.264317
-0.262163
-0.259792
-0.257164
-0.254183
-0.250773
-0.246762
-0.242052
-0.236384
-0.229691
-0.221641
-0.212308
-0.201326
-0.189049
-0.175126
-0.16027
-0.14419
-0.127826
-0.11109
-0.0946783
-0.0791153
-0.063979
-0.0512685
-0.0381875
-0.0295263
-0.0186201
-0.014576
-0.00550995
-0.00581901
0.00169174
-0.27776
-0.277326
-0.276765
-0.276072
-0.275245
-0.274277
-0.273167
-0.271919
-0.270529
-0.268998
-0.267323
-0.265501
-0.263516
-0.261352
-0.258965
-0.256314
-0.253304
-0.249859
-0.245813
-0.241068
-0.235374
-0.228665
-0.220623
-0.211317
-0.200401
-0.188211
-0.174424
-0.159707
-0.143818
-0.127623
-0.111095
-0.0948441
-0.0794543
-0.0644487
-0.051826
-0.0388443
-0.0301411
-0.0193278
-0.0150674
-0.00613057
-0.0059889
0.00130869
-0.276562
-0.27617
-0.275648
-0.274992
-0.274197
-0.273259
-0.272177
-0.270953
-0.269583
-0.268068
-0.266404
-0.264588
-0.262602
-0.260431
-0.258029
-0.255355
-0.252315
-0.248837
-0.244754
-0.239975
-0.234256
-0.227533
-0.219502
-0.210227
-0.199384
-0.187287
-0.173644
-0.159078
-0.143391
-0.127375
-0.111065
-0.0949867
-0.0797775
-0.0649121
-0.0523803
-0.0395056
-0.0307587
-0.0200435
-0.0155617
-0.0067558
-0.00616072
0.000932087
-0.275181
-0.274839
-0.274363
-0.27375
-0.272994
-0.272093
-0.271043
-0.269848
-0.268502
-0.267008
-0.265358
-0.263551
-0.261566
-0.259389
-0.256972
-0.254276
-0.251207
-0.247695
-0.243577
-0.238765
-0.233022
-0.226289
-0.218272
-0.209034
-0.19827
-0.186274
-0.172786
-0.15838
-0.142905
-0.12708
-0.110998
-0.0951038
-0.0800824
-0.065367
-0.0529291
-0.0401689
-0.031377
-0.0207649
-0.0160577
-0.00738334
-0.00633477
0.000563773
-0.273604
-0.27332
-0.272898
-0.272335
-0.271625
-0.270766
-0.269755
-0.268593
-0.267277
-0.265807
-0.264175
-0.262379
-0.260398
-0.258216
-0.255787
-0.253071
-0.249974
-0.246429
-0.242277
-0.237433
-0.23167
-0.224928
-0.216932
-0.207736
-0.197059
-0.185172
-0.171848
-0.157613
-0.142362
-0.126739
-0.110895
-0.0951949
-0.0803676
-0.065812
-0.0534705
-0.0408323
-0.0319944
-0.0214896
-0.0165543
-0.00801095
-0.00651118
0.000205425
-0.271822
-0.271604
-0.271244
-0.270737
-0.270079
-0.269269
-0.268302
-0.26718
-0.265898
-0.264456
-0.262847
-0.261065
-0.259091
-0.256907
-0.254467
-0.251732
-0.248609
-0.245033
-0.24085
-0.235977
-0.230196
-0.223452
-0.215481
-0.206334
-0.195752
-0.183983
-0.170833
-0.156779
-0.141761
-0.126352
-0.110753
-0.0952596
-0.0806321
-0.0662457
-0.0540029
-0.0414937
-0.0326089
-0.0222153
-0.0170503
-0.00863633
-0.00669007
-0.00014138
-0.26983
-0.269685
-0.269393
-0.26895
-0.268352
-0.267596
-0.266679
-0.265601
-0.264358
-0.262949
-0.261366
-0.259602
-0.257638
-0.255455
-0.253007
-0.250255
-0.247109
-0.243504
-0.239293
-0.234394
-0.228601
-0.221858
-0.21392
-0.204829
-0.19435
-0.182709
-0.169742
-0.15588
-0.141104
-0.12592
-0.110574
-0.0952974
-0.0808746
-0.0666666
-0.0545243
-0.0421507
-0.0332189
-0.0229394
-0.0175447
-0.00925717
-0.00687156
-0.000475189
-0.267631
-0.267565
-0.267347
-0.266973
-0.266439
-0.265744
-0.264882
-0.263854
-0.262655
-0.261283
-0.259729
-0.257988
-0.256037
-0.253858
-0.251404
-0.248638
-0.245472
-0.241841
-0.237605
-0.232685
-0.226885
-0.22015
-0.21225
-0.203223
-0.192857
-0.181352
-0.168577
-0.154918
-0.140392
-0.125444
-0.110359
-0.0953081
-0.0810941
-0.067073
-0.055033
-0.0428013
-0.0338224
-0.0236595
-0.0180364
-0.00987112
-0.00705571
-0.000794711
-0.265232
-0.265248
-0.265109
-0.264809
-0.264346
-0.263715
-0.262913
-0.261939
-0.260788
-0.259457
-0.257937
-0.25622
-0.254286
-0.252114
-0.249659
-0.246882
-0.243698
-0.240046
-0.23579
-0.230854
-0.225052
-0.218331
-0.210478
-0.201523
-0.191276
-0.179918
-0.167344
-0.153897
-0.139629
-0.124926
-0.110106
-0.0952918
-0.08129
-0.0674637
-0.0555273
-0.0434429
-0.0344178
-0.024373
-0.0185243
-0.0104759
-0.00724251
-0.00109885
-0.262646
-0.262749
-0.262691
-0.262469
-0.262078
-0.261515
-0.260777
-0.25986
-0.258761
-0.257475
-0.255992
-0.254304
-0.252389
-0.250227
-0.247773
-0.244989
-0.241792
-0.238123
-0.233851
-0.228904
-0.223107
-0.216407
-0.208609
-0.199734
-0.189616
-0.178412
-0.166047
-0.152821
-0.138817
-0.124369
-0.109819
-0.0952488
-0.0814617
-0.0678372
-0.0560059
-0.0440734
-0.0350035
-0.0250773
-0.0190075
-0.0110694
-0.00743189
-0.00138672
-0.259892
-0.260081
-0.260107
-0.259964
-0.259648
-0.259157
-0.258484
-0.257628
-0.256583
-0.255343
-0.2539
-0.252244
-0.250351
-0.248203
-0.245753
-0.242966
-0.23976
-0.236078
-0.231796
-0.226844
-0.221059
-0.214387
-0.20665
-0.197864
-0.187882
-0.176842
-0.164692
-0.151695
-0.137961
-0.123775
-0.109498
-0.0951795
-0.0816089
-0.0681924
-0.0564672
-0.0446906
-0.0355779
-0.02577
-0.0194848
-0.0116495
-0.00762368
-0.00165766
-0.25699
-0.257266
-0.257375
-0.257312
-0.257073
-0.256653
-0.256047
-0.255253
-0.254264
-0.253074
-0.251673
-0.25005
-0.248183
-0.24605
-0.243609
-0.240821
-0.23761
-0.23392
-0.229634
-0.224683
-0.218916
-0.21228
-0.204612
-0.195922
-0.186084
-0.175214
-0.163285
-0.150525
-0.137065
-0.123147
-0.109146
-0.0950845
-0.0817314
-0.068528
-0.0569101
-0.0452923
-0.0361395
-0.0264487
-0.0199555
-0.0122143
-0.00781766
-0.00191126
-0.253963
-0.254324
-0.254516
-0.254532
-0.254368
-0.25402
-0.253483
-0.252751
-0.251819
-0.25068
-0.249322
-0.247734
-0.245894
-0.243781
-0.24135
-0.238566
-0.235354
-0.231661
-0.227376
-0.222433
-0.21669
-0.210097
-0.202506
-0.193919
-0.18423
-0.173538
-0.161834
-0.149317
-0.136132
-0.122489
-0.108764
-0.0949645
-0.0818294
-0.0688431
-0.0573335
-0.0458765
-0.0366871
-0.0271112
-0.0204184
-0.0127622
-0.00801348
-0.00214735
-0.250832
-0.251277
-0.251548
-0.251643
-0.251554
-0.251277
-0.250807
-0.250138
-0.249263
-0.248175
-0.246861
-0.245311
-0.243499
-0.241407
-0.23899
-0.236212
-0.233005
-0.229313
-0.225034
-0.220104
-0.214394
-0.20785
-0.200341
-0.191864
-0.18233
-0.171822
-0.160347
-0.148076
-0.135169
-0.121803
-0.108354
-0.0948204
-0.0819029
-0.0691366
-0.0577364
-0.0464414
-0.0372193
-0.0277554
-0.0208729
-0.0132916
-0.00821075
-0.00236596
-0.247617
-0.248142
-0.248492
-0.248663
-0.248647
-0.248441
-0.248036
-0.247429
-0.246611
-0.245575
-0.244306
-0.242793
-0.241012
-0.238942
-0.236541
-0.233774
-0.230574
-0.226889
-0.222622
-0.217711
-0.212038
-0.20555
-0.198129
-0.189769
-0.180393
-0.170074
-0.158829
-0.146809
-0.134178
-0.121093
-0.107918
-0.0946531
-0.0819524
-0.0694079
-0.0581182
-0.0469851
-0.0377352
-0.0283795
-0.021318
-0.0138013
-0.00840896
-0.00256739
-0.244335
-0.244938
-0.245365
-0.245609
-0.245665
-0.245527
-0.245188
-0.244642
-0.24388
-0.242894
-0.24167
-0.240196
-0.238446
-0.236401
-0.234019
-0.231265
-0.228077
-0.224402
-0.220152
-0.215266
-0.209636
-0.20321
-0.195882
-0.187643
-0.17843
-0.168302
-0.157289
-0.145521
-0.133166
-0.120362
-0.10746
-0.0944633
-0.0819782
-0.0696561
-0.0584781
-0.0475063
-0.0382337
-0.0289818
-0.0217529
-0.0142902
-0.00860753
-0.00275208
-0.241001
-0.24168
-0.242181
-0.242497
-0.242623
-0.242552
-0.242276
-0.24179
-0.241083
-0.240148
-0.238969
-0.237532
-0.235816
-0.233797
-0.231436
-0.228698
-0.225525
-0.221865
-0.217637
-0.212781
-0.207199
-0.20084
-0.19361
-0.185497
-0.176448
-0.166515
-0.155732
-0.144218
-0.132135
-0.119612
-0.10698
-0.094252
-0.0819808
-0.0698808
-0.0588156
-0.0480035
-0.0387139
-0.0295609
-0.0221768
-0.0147575
-0.00880583
-0.00292068
-0.237626
-0.238379
-0.238952
-0.239339
-0.239532
-0.239526
-0.239313
-0.238885
-0.238233
-0.237348
-0.236213
-0.234816
-0.233133
-0.231141
-0.228803
-0.226085
-0.22293
-0.21929
-0.215088
-0.210267
-0.204738
-0.198451
-0.191323
-0.183338
-0.174455
-0.164718
-0.154165
-0.142903
-0.13109
-0.118847
-0.106481
-0.09402
-0.0819607
-0.0700814
-0.0591304
-0.0484757
-0.0391751
-0.0301156
-0.022589
-0.0152027
-0.00900315
-0.00307399
-0.23422
-0.235046
-0.235689
-0.236145
-0.236404
-0.236462
-0.23631
-0.23594
-0.235341
-0.234505
-0.233415
-0.232057
-0.230408
-0.228446
-0.226133
-0.223437
-0.220304
-0.216687
-0.212515
-0.207735
-0.202262
-0.196052
-0.189028
-0.181175
-0.172459
-0.162918
-0.152593
-0.141582
-0.130035
-0.118069
-0.105965
-0.0937681
-0.0819185
-0.0702576
-0.0594221
-0.0489218
-0.0396166
-0.030645
-0.0229888
-0.0156254
-0.00919875
-0.00321289
-0.230791
-0.231688
-0.2324
-0.232922
-0.233247
-0.233367
-0.233275
-0.232961
-0.232416
-0.231628
-0.230583
-0.229265
-0.227651
-0.22572
-0.223434
-0.220763
-0.217655
-0.214065
-0.209928
-0.205191
-0.19978
-0.193649
-0.186732
-0.179014
-0.170464
-0.161119
-0.151019
-0.140257
-0.128972
-0.117279
-0.105432
-0.0934969
-0.0818547
-0.0704092
-0.0596906
-0.0493412
-0.0400378
-0.0311482
-0.0233754
-0.0160254
-0.00939187
-0.00333835
-0.227346
-0.228311
-0.229091
-0.229679
-0.230067
-0.230249
-0.230215
-0.229957
-0.229464
-0.228726
-0.227725
-0.226448
-0.22487
-0.222971
-0.220715
-0.218071
-0.214991
-0.211433
-0.207333
-0.202645
-0.197298
-0.191251
-0.184443
-0.17686
-0.168477
-0.159327
-0.149449
-0.138932
-0.127903
-0.116479
-0.104886
-0.0932073
-0.0817698
-0.0705361
-0.0599357
-0.0497331
-0.0404382
-0.0316247
-0.0237483
-0.0164029
-0.00958173
-0.00345139
-0.223888
-0.224921
-0.225767
-0.226419
-0.22687
-0.227112
-0.227136
-0.226934
-0.226493
-0.225803
-0.224848
-0.223611
-0.222071
-0.220206
-0.217981
-0.215368
-0.212319
-0.208795
-0.204738
-0.200102
-0.194822
-0.188862
-0.182164
-0.174718
-0.1665
-0.157543
-0.147884
-0.137609
-0.126831
-0.115672
-0.104326
-0.0928997
-0.0816643
-0.0706382
-0.0601573
-0.0500974
-0.0408173
-0.0320743
-0.0241068
-0.016758
-0.00976754
-0.00355305
-0.220423
-0.221522
-0.222433
-0.223148
-0.223661
-0.223962
-0.224044
-0.223896
-0.223508
-0.222866
-0.221956
-0.220761
-0.21926
-0.21743
-0.215239
-0.212659
-0.209644
-0.206158
-0.202146
-0.197565
-0.192357
-0.186485
-0.1799
-0.172591
-0.164537
-0.155772
-0.146328
-0.13629
-0.125758
-0.114858
-0.103755
-0.092575
-0.0815389
-0.0707157
-0.0603555
-0.0504337
-0.0411749
-0.0324968
-0.0244503
-0.017091
-0.00994857
-0.00364434
-0.216955
-0.218119
-0.219093
-0.21987
-0.220443
-0.220804
-0.220942
-0.220849
-0.220511
-0.219919
-0.219054
-0.217902
-0.216441
-0.214648
-0.212493
-0.209948
-0.206971
-0.203527
-0.199563
-0.195041
-0.189906
-0.184126
-0.177654
-0.170482
-0.162591
-0.154016
-0.144782
-0.134977
-0.124685
-0.114038
-0.103172
-0.0922337
-0.081394
-0.0707687
-0.0605304
-0.0507421
-0.0415106