/*--------------------------------*- C++ -*----------------------------------*\
  =========                 |
  \\      /  F ield         | OpenFOAM: The Open Source CFD Toolbox
   \\    /   O peration     | Website:  https://openfoam.org
    \\  /    A nd           | Version:  7
     \\/     M anipulation  |
\*---------------------------------------------------------------------------*/
FoamFile
{
    version     2.0;
    format      ascii;
    class       surfaceScalarField;
    location    "25";
    object      phi;
}
// * * * * * * * * * * * * * * * * * * * * * * * * * * * * * * * * * * * * * //

dimensions      [0 3 -1 0 0 0 0];

internalField   nonuniform List<scalar> 
16755
(
-0.000417313
1.12872e-05
-2.0059e-07
-0.000428106
1.09116e-05
-1.19081e-07
-0.000438612
1.05183e-05
-1.21219e-08
-0.000448841
1.01063e-05
1.22883e-07
-0.000458804
9.6754e-06
2.8756e-07
-0.000468513
9.22589e-06
4.82822e-07
-0.00047798
8.75904e-06
7.08036e-07
-0.000487218
8.27706e-06
9.60784e-07
-0.000496237
7.78217e-06
1.23667e-06
-0.000505042
7.27734e-06
1.52852e-06
-0.000513633
6.76349e-06
1.82683e-06
-0.000521992
6.2409e-06
2.11843e-06
-0.000530085
5.70448e-06
2.38849e-06
-0.000537849
5.14539e-06
2.61816e-06
-0.000545183
4.54817e-06
2.7859e-06
-0.000551939
3.88574e-06
2.87049e-06
-0.000557911
3.12122e-06
2.8506e-06
-0.000562821
2.20377e-06
2.70642e-06
-0.000566314
1.07183e-06
2.42108e-06
-0.000567943
-3.51648e-07
1.98096e-06
-0.000567196
-2.11245e-06
1.36519e-06
-0.00056346
-4.3547e-06
6.18952e-07
-0.000556067
-7.13162e-06
-2.61613e-07
-0.000544293
-1.05324e-05
-1.24105e-06
-0.00052744
-1.45856e-05
-2.26831e-06
-0.000504808
-1.93477e-05
-3.28408e-06
-0.000475854
-2.47349e-05
-4.21856e-06
-0.00044009
-3.07608e-05
-5.00295e-06
-0.000397367
-3.71561e-05
-5.56746e-06
-0.000347526
-4.39771e-05
-5.86379e-06
-0.000291041
-5.06385e-05
-5.84637e-06
-0.000227964
-5.75572e-05
-5.51999e-06
-0.000159649
-6.34455e-05
-4.86996e-06
-8.58025e-05
-6.98705e-05
-3.97553e-06
-9.11918e-06
-7.38439e-05
-2.83951e-06
7.20432e-05
-7.95607e-05
-1.60173e-06
0.00015293
-8.05945e-05
-2.92334e-07
0.000237753
-8.58177e-05
9.9476e-07
0.000318914
-8.32415e-05
2.08094e-06
0.00040422
-8.84788e-05
3.17186e-06
0.000482847
-8.22966e-05
3.67059e-06
0.000566422
-8.80189e-05
4.44296e-06
0.000641918
-7.96046e-05
4.10928e-06
0.000722794
-8.54383e-05
4.56173e-06
-8.03024e-05
3.26079e-06
-0.000415225
2.23136e-05
-0.000425956
2.16419e-05
-0.000436397
2.096e-05
-0.000446559
2.02683e-05
-0.000456452
1.95682e-05
-0.000466087
1.88611e-05
-0.000475477
1.81489e-05
-0.000484634
1.74337e-05
-0.000493567
1.67155e-05
-0.000502283
1.59933e-05
-0.000510779
1.52594e-05
-0.00051904
1.45014e-05
-0.000527029
1.36943e-05
-0.000534686
1.28019e-05
-0.000541909
1.17718e-05
-0.000548553
1.05289e-05
-0.00055441
8.97828e-06
-0.000559204
6.9985e-06
-0.000562582
4.44975e-06
-0.0005641
1.16572e-06
-0.000563244
-2.96846e-06
-0.000559405
-8.19332e-06
-0.000551916
-1.46205e-05
-0.000540057
-2.2392e-05
-0.000523128
-3.15145e-05
-0.000500434
-4.20413e-05
-0.000471434
-5.37356e-05
-0.000435639
-6.65552e-05
-0.000392902
-7.9893e-05
-0.000343067
-9.3812e-05
-0.000286607
-0.000107099
-0.000223575
-0.000120589
-0.000155323
-0.000131698
-8.15612e-05
-0.000143632
-4.97642e-06
-0.000150429
7.60657e-05
-0.000160603
0.000156825
-0.000161354
0.000241499
-0.000170492
0.000322513
-0.000164255
0.000407652
-0.000173618
0.000486121
-0.000160766
0.000569522
-0.000171419
0.00064486
-0.000154943
0.000725562
-0.00016614
-0.000157177
-0.000411063
3.32199e-05
-0.000421669
3.2248e-05
-0.000431982
3.12728e-05
-0.00044201
3.02961e-05
-0.000451762
2.93206e-05
-0.00046125
2.83491e-05
-0.000470485
2.73842e-05
-0.000479479
2.64277e-05
-0.000488242
2.54777e-05
-0.000496778
2.45291e-05
-0.000505084
2.35661e-05
-0.000513146
2.25636e-05
-0.000520929
2.14772e-05
-0.000528371
2.02433e-05
-0.000535373
1.87735e-05
-0.000541788
1.69446e-05
-0.000547414
1.46041e-05
-0.000551976
1.15605e-05
-0.000555122
7.59616e-06
-0.000556413
2.45601e-06
-0.000555338
-4.04339e-06
-0.000551292
-1.22395e-05
-0.000543611
-2.23015e-05
-0.000531579
-3.44241e-05
-0.000514501
-4.85923e-05
-0.000491686
-6.48559e-05
-0.000462595
-8.28264e-05
-0.000426746
-0.000102405
-0.00038399
-0.000122649
-0.000334176
-0.000143626
-0.000277775
-0.0001635
-0.000214844
-0.000183519
-0.00014673
-0.000199813
-7.3148e-05
-0.000217214
3.22996e-06
-0.000226807
8.40237e-05
-0.000241397
0.000164523
-0.000241853
0.000248897
-0.000254865
0.000329616
-0.000244974
0.000414423
-0.000258426
0.000492584
-0.000238927
0.000575642
-0.000254477
0.000650675
-0.000229977
0.000731038
-0.000246504
-0.000233728
-0.000404846
4.39471e-05
-0.000415268
4.26691e-05
-0.000425389
4.13937e-05
-0.000435217
4.0124e-05
-0.00044476
3.88644e-05
-0.00045403
3.76185e-05
-0.000463035
3.63897e-05
-0.000471787
3.518e-05
-0.000480295
3.39855e-05
-0.000488563
3.27973e-05
-0.000496589
3.15915e-05
-0.000504356
3.03309e-05
-0.000511831
2.89522e-05
-0.000518952
2.73648e-05
-0.000525623
2.54446e-05
-0.0005317
2.30213e-05
-0.000536981
1.98854e-05
-0.000541197
1.57755e-05
-0.000543998
1.03974e-05
-0.000544949
3.40761e-06
-0.000543548
-5.44459e-06
-0.000539193
-1.65946e-05
-0.000531226
-3.02684e-05
-0.000518938
-4.67119e-05
-0.00050164
-6.58901e-05
-0.000478648
-8.78482e-05
-0.000449426
-0.000112048
-0.000413499
-0.000138332
-0.00037072
-0.000165428
-0.000320943
-0.000193403
-0.000264636
-0.000219806
-0.000201864
-0.000246291
-0.000133961
-0.000267716
-6.06528e-05
-0.000290522
1.54123e-05
-0.000302872
9.58327e-05
-0.000321817
0.000175942
-0.000321963
0.000259868
-0.000338791
0.000340149
-0.000325255
0.000424465
-0.000342741
0.00050217
-0.000316632
0.000584722
-0.000337029
0.000659306
-0.000304561
0.000739172
-0.000326369
-0.000309804
-0.000396605
5.44386e-05
-0.000406783
5.28467e-05
-0.000416651
5.12622e-05
-0.000426216
4.96892e-05
-0.000435486
4.81336e-05
-0.000444467
4.66002e-05
-0.000453171
4.50932e-05
-0.000461605
4.36146e-05
-0.000469779
4.21588e-05
-0.000477695
4.07135e-05
-0.000485351
3.92471e-05
-0.000492731
3.77108e-05
-0.000499801
3.60223e-05
-0.000506501
3.40655e-05
-0.000512738
3.16809e-05
-0.000518368
2.8652e-05
-0.000523196
2.47132e-05
-0.000526955
1.9534e-05
-0.000529301
1.27443e-05
-0.000529808
3.91368e-06
-0.000527977
-7.27499e-06
-0.000523216
-2.13559e-05
-0.000514874
-3.86102e-05
-0.000502251
-5.93347e-05
-0.000484667
-8.34749e-05
-0.000461444
-0.000111071
-0.000432054
-0.000141438
-0.000396029
-0.000174357
-0.000353225
-0.000208232
-0.000303504
-0.000243124
-0.000247329
-0.000275981
-0.000184771
-0.000308849
-0.000117152
-0.000335335
-4.42088e-05
-0.000363464
3.14401e-05
-0.000378521
0.000111366
-0.000401743
0.000190961
-0.000401557
0.000274297
-0.000422127
0.000354003
-0.000404961
0.000437674
-0.000426412
0.000514782
-0.000393739
0.000596673
-0.000418921
0.00067067
-0.000378558
0.000749884
-0.000405583
-0.000385256
-0.000386377
-0.000396256
6.27248e-05
-0.000405814
6.08205e-05
-0.000415056
5.89317e-05
-0.000423989
5.70659e-05
-0.000432618
5.52292e-05
-0.000440951
5.34264e-05
-0.000448996
5.16599e-05
-0.00045676
4.99224e-05
-0.000464245
4.81987e-05
-0.000471447
4.64496e-05
-0.000478352
4.46155e-05
-0.000484926
4.25961e-05
-0.00049111
4.025e-05
-0.000496813
3.73837e-05
-0.000501897
3.37354e-05
-0.000506168
2.89843e-05
-0.000509366
2.27319e-05
-0.000511155
1.45335e-05
-0.000511115
3.8734e-06
-0.000508758
-9.63167e-06
-0.000503499
-2.66145e-05
-0.000494699
-4.74104e-05
-0.000481668
-7.23657e-05
-0.000463735
-0.000101408
-0.000440234
-0.000134572
-0.000410643
-0.000171028
-0.000374505
-0.000210495
-0.000331679
-0.000251059
-0.000282033
-0.00029277
-0.000226027
-0.000331987
-0.000163739
-0.000371137
-9.64757e-05
-0.000402599
-2.39871e-05
-0.000435953
5.11461e-05
-0.000453654
0.000130463
-0.00048106
0.000209423
-0.000480518
0.000292036
-0.00050474
0.000371036
-0.000483962
0.000453918
-0.000509294
0.000530296
-0.000470117
0.000611378
-0.000500003
0.000684659
-0.000451839
0.000763078
-0.000484001
-0.000459949
-0.000383736
7.22508e-05
-0.000392929
7.00143e-05
-0.000401793
6.77954e-05
-0.00041033
6.56032e-05
-0.000418546
6.34447e-05
-0.000426445
6.13259e-05
-0.000434035
5.92492e-05
-0.000441319
5.72062e-05
-0.000448299
5.5179e-05
-0.000454971
5.31215e-05
-0.000461319
5.09638e-05
-0.000467311
4.85885e-05
-0.000472891
4.58297e-05
-0.000477969
4.24613e-05
-0.000482411
3.81771e-05
-0.000486029
3.26029e-05
-0.00048857
2.52727e-05
-0.000489705
1.56689e-05
-0.000489025
3.19288e-06
-0.000486052
-1.26045e-05
-0.000480212
-3.24548e-05
-0.000470876
-5.67456e-05
-0.00045737
-8.58721e-05
-0.000439032
-0.000119746
-0.000415211
-0.000158393
-0.000385393
-0.000200846
-0.000349131
-0.000246757
-0.000306286
-0.000293904
-0.000256738
-0.000342318
-0.00020094
-0.000387785
-0.00013898
-0.000433097
-7.21416e-05
-0.000469437
-1.92543e-07
-0.000507902
7.43297e-05
-0.000528176
0.000152928
-0.000559658
0.000231142
-0.000558731
0.000312905
-0.000586503
0.000391079
-0.000562136
0.000473037
-0.000591251
0.000548561
-0.000545642
0.000628698
-0.00058014
0.000701143
-0.000524284
0.00077863
-0.000561488
-0.000533752
-0.00036928
8.13759e-05
-0.000378059
7.87934e-05
-0.000386492
7.62287e-05
-0.000394581
7.36919e-05
-0.000402327
7.11912e-05
-0.000409735
6.87335e-05
-0.000416808
6.63217e-05
-0.000423548
6.39464e-05
-0.000429956
6.15874e-05
-0.000436027
5.91923e-05
-0.000441745
5.66817e-05
-0.000447078
5.39219e-05
-0.000451972
5.07238e-05
-0.000456341
4.68298e-05
-0.000460055
4.1891e-05
-0.000462933
3.54808e-05
-0.000464727
2.70674e-05
-0.000465121
1.6063e-05
-0.000463713
1.78492e-06
-0.000460044
-1.62737e-05
-0.000453546
-3.89533e-05
-0.000443606
-6.6685e-05
-0.000429565
-9.99135e-05
-0.000410775
-0.000138536
-0.000386597
-0.000182571
-0.000356529
-0.000230914
-0.000320137
-0.00028315
-0.000277283
-0.000336757
-0.000227859
-0.000391743
-0.00017231
-0.000443334
-0.000110731
-0.000494676
-4.43867e-05
-0.000535781
2.6941e-05
-0.00057923
0.000100762
-0.000601997
0.00017854
-0.000637436
0.000255903
-0.000636094
0.000336701
-0.000667302
0.000413936
-0.000639371
0.000494847
-0.000672162
0.000569406
-0.000620201
0.000648472
-0.000659206
0.000719971
-0.000595783
0.000796403
-0.000637921
-0.000606548
-0.000352951
9.00552e-05
-0.00036127
8.71123e-05
-0.000369226
8.41846e-05
-0.000376818
8.12837e-05
-0.000384045
7.84187e-05
-0.000390909
7.55973e-05
-0.000397411
7.28233e-05
-0.00040355
7.00862e-05
-0.000409327
6.73641e-05
-0.000414734
6.45993e-05
-0.000419756
6.17032e-05
-0.000424361
5.85271e-05
-0.000428497
5.48599e-05
-0.000432081
5.04141e-05
-0.00043499
4.47996e-05
-0.000437048
3.75394e-05
-0.000438017
2.80357e-05
-0.000437592
1.56386e-05
-0.000435379
-4.2799e-07
-0.000430942
-2.07115e-05
-0.000423716
-4.61793e-05
-0.000413112
-7.72891e-05
-0.000398483
-0.000114542
-0.000379199
-0.00015782
-0.000354637
-0.000207133
-0.000324304
-0.000261248
-0.00028778
-0.000319674
-0.00024493
-0.000379606
-0.000195657
-0.000441016
-0.000140397
-0.000498594
-7.92555e-05
-0.000555818
-1.34707e-05
-0.000601566
5.71573e-05
-0.000649858
0.000130193
-0.000675033
0.000207056
-0.000714299
0.000283471
-0.000712509
0.0003632
-0.00074703
0.000439395
-0.000715566
0.000519147
-0.000751914
0.00059264
-0.000693694
0.000670522
-0.000737088
0.000740977
-0.000666238
0.000816243
-0.000713187
-0.000678232
-0.000334817
9.82485e-05
-0.000342635
9.49301e-05
-0.000350072
9.16217e-05
-0.000357125
8.83361e-05
-0.000363789
8.50833e-05
-0.000370064
8.18719e-05
-0.000375947
7.87065e-05
-0.000381437
7.5576e-05
-0.00038653
7.24575e-05
-0.000391219
6.92879e-05
-0.000395487
6.59711e-05
-0.000399304
6.23441e-05
-0.000402619
5.81753e-05
-0.000405354
5.31489e-05
-0.00040739
4.68355e-05
-0.00040856
3.87096e-05
-0.000408633
2.81086e-05
-0.00040731
1.43159e-05
-0.000404246
-3.4921e-06
-0.000398965
-2.59927e-05
-0.000390953
-5.41907e-05
-0.000379632
-8.86102e-05
-0.000364374
-0.0001298
-0.000344562
-0.000177632
-0.000319593
-0.000232102
-0.000288985
-0.000291856
-0.000252332
-0.000356327
-0.000209504
-0.000422435
-0.000160412
-0.000490108
-0.000105485
-0.000553522
-4.48339e-05
-0.000616469
2.03264e-05
-0.000666726
9.01831e-05
-0.000719714
0.000162354
-0.000747204
0.000238216
-0.000790161
0.000313596
-0.000787889
0.00039216
-0.000825594
0.000467225
-0.000790631
0.000545719
-0.000830408
0.000618057
-0.000766032
0.000694655
-0.000813686
0.00076398
-0.000735564
0.000837981
-0.000787187
-0.00074871
-0.000314949
0.00010592
-0.00032223
0.000102211
-0.000329112
9.8504e-05
-0.000335589
9.48126e-05
-0.000341653
9.11478e-05
-0.0003473
8.75189e-05
-0.000352525
8.39317e-05
-0.000357324
8.03746e-05
-0.000361691
7.68241e-05
-0.000365615
7.32126e-05
-0.000369082
6.94374e-05
-0.00037206
6.53225e-05
-0.000374502
6.0617e-05
-0.000376332
5.49789e-05
-0.000377438
4.79415e-05
-0.000377661
3.8933e-05
-0.000376779
2.72263e-05
-0.000374511
1.20478e-05
-0.000370518
-7.48541e-06
-0.00036435
-3.21607e-05
-0.000355503
-6.30377e-05
-0.000343422
-0.000100691
-0.000327498
-0.000145724
-0.000307132
-0.000197997
-0.000281741
-0.000257493
-0.000250854
-0.000322743
-0.000214081
-0.000393099
-0.000171295
-0.000465221
-0.000122417
-0.000538986
-6.7864e-05
-0.000608074
-7.75745e-06
-0.000676575
5.67171e-05
-0.000731201
0.000125734
-0.000788731
0.000196967
-0.000818437
0.00027175
-0.000864943
0.000346016
-0.000862155
0.000423331
-0.000902909
0.000497186
-0.000864486
0.000574338
-0.000907559
0.000645443
-0.000837138
0.00072067
-0.000888913
0.000788793
-0.000803686
0.000861443
-0.000859837
-0.000817901
-0.000293419
0.00011304
-0.000300133
0.000108925
-0.00030643
0.000104801
-0.000312301
0.000100683
-0.000317734
9.65813e-05
-0.000322722
9.2507e-05
-0.000327257
8.84667e-05
-0.000331331
8.44487e-05
-0.000334936
8.04293e-05
-0.000338061
7.63372e-05
-0.000340688
7.20639e-05
-0.000342787
6.7422e-05
-0.000344313
6.21426e-05
-0.000345193
5.58596e-05
-0.000345323
4.80715e-05
-0.000344553
3.81622e-05
-0.000342667
2.53411e-05
-0.000339406
8.78621e-06
-0.000334438
-1.24536e-05
-0.000327337
-3.92618e-05
-0.000317615
-7.27589e-05
-0.00030474
-0.000113567
-0.000288124
-0.00016234
-0.000267187
-0.000218934
-0.000241364
-0.000283315
-0.0002102
-0.000353908
-0.00017332
-0.000429979
-0.000130598
-0.000507943
-8.1968e-05
-0.000587616
-2.78336e-05
-0.000662209
3.16764e-05
-0.000736085
9.54072e-05
-0.000794931
0.00016352
-0.000856844
0.000233749
-0.000888666
0.000307381
-0.000938576
0.000380463
-0.000935237
0.000456457
-0.000978903
0.000529034
-0.000937063
0.000604768
-0.000983293
0.000674577
-0.000906947
0.00074836
-0.000962695
0.000815218
-0.000870545
0.000886444
-0.000931063
-0.000885738
-0.000270301
0.000119583
-0.000276423
0.000115047
-0.000282111
0.000110489
-0.000287351
0.000105923
-0.000292129
0.00010136
-0.000296435
9.68123e-05
-0.000300255
9.22873e-05
-0.00030358
8.77733e-05
-0.000306398
8.32473e-05
-0.000308695
7.86346e-05
-0.000310454
7.38224e-05
-0.000311644
6.86125e-05
-0.000312222
6.27205e-05
-0.00031212
5.57576e-05
-0.000311239
4.71903e-05
-0.000309437
3.63603e-05
-0.000306512
2.24163e-05
-0.000302216
4.48984e-06
-0.000296242
-1.84279e-05
-0.000288173
-4.73303e-05
-0.000277548
-8.33842e-05
-0.000263853
-0.000127261
-0.000246525
-0.000179668
-0.000225005
-0.000240455
-0.000198749
-0.000309571
-0.000167314
-0.000385343
-0.000130344
-0.000466948
-8.77136e-05
-0.000550574
-3.93662e-05
-0.000635963
1.43069e-05
-0.000715882
7.317e-05
-0.000794949
0.000136101
-0.000857863
0.000203252
-0.000923995
0.000272414
-0.000957828
0.000344834
-0.001011
0.000416671
-0.00100707
0.00049128
-0.00105351
0.000562521
-0.0010083
0.000636775
-0.00105755
0.000705235
-0.000975408
0.000777512
-0.00103497
0.000843057
-0.00093609
0.000912801
-0.00100081
-0.000952165
-0.000245666
0.000125528
-0.000251177
0.000120559
-0.000256237
0.000115549
-0.000260829
0.000110514
-0.000264936
0.000105467
-0.000268542
0.000100418
-0.000271631
9.53769e-05
-0.00027419
9.0332e-05
-0.000276204
8.52613e-05
-0.000277657
8.00875e-05
-0.000278529
7.46943e-05
-0.000278791
6.88747e-05
-0.0002784
6.23296e-05
-0.000277293
5.46503e-05
-0.000275376
4.5274e-05
-0.000272517
3.35011e-05
-0.00026853
1.84294e-05
-0.000263172
-8.68989e-07
-0.000256167
-2.54325e-05
-0.000247106
-5.63914e-05
-0.000235556
-9.49343e-05
-0.000221025
-0.000141792
-0.000202975
-0.000197718
-0.000180867
-0.000262563
-0.000154181
-0.000336257
-0.000122487
-0.000417038
-8.54463e-05
-0.000503989
-4.2935e-05
-0.000593085
5.09359e-06
-0.000683992
5.82588e-05
-0.000769047
0.00011643
-0.000853119
0.000178509
-0.000919942
0.000244642
-0.000990127
0.000312682
-0.00102587
0.000383835
-0.00108215
0.000454373
-0.00107761
0.000527544
-0.00112668
0.000597401
-0.00107816
0.000670126
-0.00113027
0.000737195
-0.00104248
0.000807918
-0.0011057
0.000872111
-0.00100028
0.000940326
-0.00106902
-0.00101714
-0.000219584
0.00013086
-0.00022447
0.000125445
-0.00022889
0.000119969
-0.000232823
0.000114447
-0.000236248
0.000108892
-0.000239145
0.000103315
-0.000241495
9.77269e-05
-0.000243279
9.21165e-05
-0.000244481
8.64632e-05
-0.000245081
8.06877e-05
-0.000245058
7.46712e-05
-0.000244382
6.81991e-05
-0.000243013
6.09598e-05
-0.000240889
5.25264e-05
-0.000237925
4.231e-05
-0.000233995
2.95715e-05
-0.000228916
1.33507e-05
-0.000222509
-7.2769e-06
-0.000214444
-3.34974e-05
-0.000204377
-6.64579e-05
-0.000191891
-0.000107421
-0.000176516
-0.000157167
-0.00015774
-0.000216494
-0.000135046
-0.000285257
-0.000107939
-0.000363365
-7.60005e-05
-0.000448976
-3.89129e-05
-0.000541076
3.45592e-06
-0.000635454
5.11204e-05
-0.000731657
0.000103738
-0.000821665
0.000161169
-0.00091055
0.000222348
-0.000981121
0.000287414
-0.00105519
0.000354282
-0.00109274
0.000424119
-0.00115199
0.000493312
-0.00114681
0.000565002
-0.00119837
0.000633435
-0.00114659
0.000704591
-0.00120143
0.000770237
-0.00110812
0.000839371
-0.00117483
0.000902184
-0.0010631
0.000968835
-0.00113567
-0.00108063
-0.00019212
0.000135571
-0.000196374
0.0001297
-0.000200148
0.000123743
-0.000203416
0.000117715
-0.000206155
0.000111631
-0.000208341
0.0001055
-0.00020995
9.93361e-05
-0.00021096
9.31265e-05
-0.00021135
8.68536e-05
-0.000211099
8.04361e-05
-0.000210182
7.37542e-05
-0.000208569
6.65868e-05
-0.000206221
5.86113e-05
-0.00020308
4.93852e-05
-0.000199066
3.82964e-05
-0.000194063
2.4568e-05
-0.000187901
7.18949e-06
-0.000180415
-1.47628e-05
-0.0001713
-4.2613e-05
-0.000160223
-7.75344e-05
-0.000146798
-0.000120845
-0.00013058
-0.000173385
-0.000111081
-0.000235993
-8.78091e-05
-0.000308529
-6.0293e-05
-0.000390881
-2.81302e-05
-0.000481139
8.97972e-06
-0.000578186
5.11585e-05
-0.000677633
9.84382e-05
-0.000778936
0.000150467
-0.000873694
0.000207114
-0.000967197
0.000267346
-0.00104135
0.0003313
-0.00111915
0.000396953
-0.00115839
0.000465432
-0.00122046
0.000533242
-0.00121462
0.000603414
-0.00126855
0.000670393
-0.00121357
0.00073995
-0.00127099
0.000804151
-0.00117232
0.000871669
-0.00124235
0.000933084
-0.00112451
0.000998149
-0.00120074
-0.00114262
-0.000163337
0.000139657
-0.000166956
0.000133319
-0.000170082
0.000126869
-0.000172687
0.00012032
-0.000174743
0.000113687
-0.000176222
0.000106979
-0.000177096
0.000100211
-0.000177339
9.33697e-05
-0.000176927
8.64412e-05
-0.000175833
7.93425e-05
-0.000174033
7.19536e-05
-0.000171494
6.40483e-05
-0.000168178
5.52948e-05
-0.000164029
4.52366e-05
-0.000158974
3.32411e-05
-0.00015291
1.85036e-05
-0.000145672
-4.80011e-08
-0.000137116
-2.33185e-05
-0.00012695
-5.2779e-05
-0.00011487
-8.96143e-05
-0.000100513
-0.000135203
-8.3458e-05
-0.000190441
-6.32473e-05
-0.000256203
-3.94107e-05
-0.000332366
-1.15034e-05
-0.000418788
2.0861e-05
-0.000513503
5.79643e-05
-0.000615289
9.99299e-05
-0.000719599
0.000146781
-0.000825788
0.000198181
-0.000925093
0.000254003
-0.00102302
0.000313246
-0.0011006
0.000376047
-0.00118195
0.000440445
-0.00122279
0.000507531
-0.00128755
0.000573926
-0.00128101
0.000642553
-0.00133717
0.000708055
-0.00127908
0.000775992
-0.00133892
0.000838734
-0.00123507
0.000904619
-0.00130823
0.000964627
-0.00118452
0.00102809
-0.00126421
-0.00120309
-0.000133288
0.000143117
-0.000136276
0.000136306
-0.00013876
0.000129353
-0.000140709
0.000122269
-0.000142091
0.000115069
-0.000142874
0.000107762
-0.000143027
0.000100363
-0.000142518
9.2861e-05
-0.000141319
8.52426e-05
-0.000139402
7.7425e-05
-0.000136737
6.92886e-05
-0.000133292
6.06036e-05
-0.000129028
5.10304e-05
-0.000123892
4.01007e-05
-0.000117815
2.71646e-05
-0.00011069
1.13783e-05
-0.000102427
-8.31118e-06
-9.28015e-05
-3.29437e-05
-8.16011e-05
-6.39794e-05
-6.8533e-05
-0.000102682
-5.3258e-05
-0.000150478
-3.53817e-05
-0.000208317
-1.44752e-05
-0.00027711
9.90798e-06
-0.000356749
3.81825e-05
-0.000447062
7.07232e-05
-0.000546044
0.000107793
-0.000652359
0.000149512
-0.000761317
0.000195899
-0.000872175
0.000246631
-0.000975825
0.00030159
-0.00107798
0.000359806
-0.00115881
0.000421417
-0.00124356
0.000484525
-0.00128589
0.000550189
-0.00135321
0.000615143
-0.00134596
0.000682203
-0.00140423
0.000746214
-0.00134309
0.000812517
-0.00140523
0.000873794
-0.00129634
0.00093804
-0.00137248
0.000996639
-0.00124312
0.0010585
-0.00132607
-0.00126205
-0.000102023
0.000145961
-0.000104388
0.000138671
-0.000106241
0.000131205
-0.000107547
0.000123575
-0.00010827
0.000115792
-0.000108375
0.000107867
-0.000107826
9.98141e-05
-0.000106587
9.16222e-05
-0.000104627
8.32818e-05
-0.000101911
7.47094e-05
-9.84091e-05
6.57867e-05
-9.40868e-05
5.62813e-05
-8.89041e-05
4.58477e-05
-8.28099e-05
3.40064e-05
-7.5741e-05
2.00958e-05
-6.76023e-05
3.23953e-06
-5.83067e-05
-1.76068e-05
-4.76554e-05
-4.3595e-05
-3.54449e-05
-7.61899e-05
-2.1412e-05
-0.000116715
-5.2415e-06
-0.000166648
1.34333e-05
-0.000226992
3.5012e-05
-0.000298688
5.99161e-05
-0.000381653
8.85353e-05
-0.000475682
0.000121225
-0.000578733
0.000158231
-0.000689365
0.00019967
-0.000802757
0.000245558
-0.000918063
0.000295586
-0.00102585
0.000349645
-0.00113204
0.000406798
-0.00121597
0.000467188
-0.00130395
0.000528978
-0.00134768
0.000593194
-0.00141743
0.000656688
-0.00140946
0.000722167
-0.00146971
0.000784676
-0.0014056
0.00084934
-0.00146989
0.000909152
-0.00135616
0.000971759
-0.00143508
0.00102895
-0.00130031
0.00108922
-0.00138634
-0.00131949
-6.95845e-05
0.0001482
-7.13414e-05
0.000140428
-7.25797e-05
0.000132444
-7.32614e-05
0.000124257
-7.33473e-05
0.000115878
-7.27975e-05
0.000107317
-7.15724e-05
9.8589e-05
-6.9632e-05
8.96818e-05
-6.694e-05
8.05897e-05
-6.34595e-05
7.12289e-05
-5.91559e-05
6.14831e-05
-5.39929e-05
5.11183e-05
-4.79297e-05
3.97846e-05
-4.09156e-05
2.69922e-05
-3.28904e-05
1.20706e-05
-2.37863e-05
-5.8646e-06
-1.34912e-05
-2.7902e-05
-1.84431e-06
-5.52418e-05
1.13405e-05
-8.93748e-05
2.63059e-05
-0.00013168
4.33403e-05
-0.000183683
6.27849e-05
-0.000246436
8.50083e-05
-0.000320912
0.000110406
-0.00040705
0.00013934
-0.000504616
0.000172148
-0.000611542
0.000209058
-0.000726275
0.000250184
-0.000843883
0.00029554
-0.000963419
0.00034483
-0.00107514
0.000397956
-0.00118516
0.000454014
-0.00127202
0.000513155
-0.00136309
0.000573601
-0.00140813
0.000636351
-0.00148018
0.00069837
-0.00147148
0.000762258
-0.0015336
0.000823263
-0.0014666
0.000886287
-0.00153291
0.000944641
-0.00141451
0.00100562
-0.00149606
0.00106142
-0.00135612
0.0011201
-0.00144502
-0.00137545
-3.60065e-05
0.000149853
-3.71759e-05
0.000141598
-3.78221e-05
0.00013309
-3.79041e-05
0.000124339
-3.73794e-05
0.000115354
-3.62042e-05
0.000106142
-3.43351e-05
9.67199e-05
-3.17278e-05
8.70744e-05
-2.83418e-05
7.72037e-05
-2.41363e-05
6.70235e-05
-1.90732e-05
5.642e-05
-1.31138e-05
4.51589e-05
-6.21531e-06
3.28861e-05
1.67186e-06
1.91051e-05
1.06036e-05
3.13883e-06
2.06314e-05
-1.58924e-05
3.18771e-05
-3.91477e-05
4.4474e-05
-6.78387e-05
5.85917e-05
-0.000103493
7.44497e-05
-0.000147538
9.23109e-05
-0.000201544
0.000112489
-0.000266615
0.000135323
-0.000343746
0.000161181
-0.000432909
0.000190397
-0.000533832
0.000223292
-0.000644436
0.000260073
-0.000763056
0.000300853
-0.000884663
0.000345643
-0.00100821
0.000394162
-0.00112366
0.000446326
-0.00123733
0.000501261
-0.00132696
0.000559128
-0.00142096
0.000618212
-0.00146721
0.000679481
-0.00154145
0.000740014
-0.00153201
0.000802308
-0.00159589
0.00086181
-0.0015261
0.000923201
-0.0015943
0.000980106
-0.00147141
0.00103946
-0.00155542
0.00109389
-0.00141055
0.00115101
-0.00150214
-0.00142993
-1.31552e-06
0.000150951
-1.9245e-06
0.000142207
-2.00704e-06
0.000133172
-1.51941e-06
0.000123851
-4.14544e-07
0.000114249
1.34882e-06
0.000104379
3.82365e-06
9.42451e-05
7.05738e-06
8.38407e-05
1.10941e-05
7.31671e-05
1.59785e-05
6.2139e-05
2.17524e-05
5.06461e-05
2.84574e-05
3.84538e-05
3.61384e-05
2.52052e-05
4.48498e-05
1.03936e-05
5.46179e-05
-6.62923e-06
6.55263e-05
-2.68008e-05
7.76665e-05
-5.12879e-05
9.11612e-05
-8.13334e-05
0.000106161
-0.000118492
0.000122864
-0.000164241
0.000141507
-0.000220187
0.000162377
-0.000287485
0.000185781
-0.00036715
0.000212063
-0.00045919
0.000241525
-0.000563294
0.000274471
-0.000677381
0.00031109
-0.000799675
0.00035149
-0.000925063
0.000395684
-0.0010524
0.000443401
-0.00117138
0.000494574
-0.0012885
0.000548362
-0.00138075
0.000604936
-0.00147753
0.00066264
-0.00152492
0.000722418
-0.00160123
0.000781463
-0.00159105
0.000842162
-0.00165659
0.000900167
-0.00158411
0.000959935
-0.00165407
0.00101541
-0.00152689
0.00107317
-0.00161318
0.00112624
-0.00146362
0.00118183
-0.00155773
-0.00148297
3.44636e-05
3.43832e-05
0.000142287
3.48301e-05
0.000132726
3.58507e-05
0.000122831
3.74935e-05
0.000112606
3.98089e-05
0.000102063
4.28476e-05
9.12063e-05
4.66623e-05
8.00261e-05
5.13011e-05
6.85282e-05
5.68129e-05
5.66272e-05
6.3243e-05
4.4216e-05
7.06383e-05
3.10586e-05
7.904e-05
1.68035e-05
8.85113e-05
9.22368e-07
9.90578e-05
-1.71758e-05
0.000110784
-3.85269e-05
0.000123758
-6.42621e-05
0.00013809
-9.56655e-05
0.000153914
-0.000134316
0.000171407
-0.000181735
0.000190781
-0.00023956
0.000212294
-0.000308998
0.000236224
-0.00039108
0.000262887
-0.000485852
0.000292557
-0.000592964
0.000325516
-0.000710341
0.000361938
-0.000836098
0.000401926
-0.000965051
0.000445492
-0.00109597
0.000492379
-0.00121827
0.000542537
-0.00133866
0.000595156
-0.00143336
0.00065042
-0.0015328
0.000706735
-0.00158123
0.000765016
-0.00165951
0.000822571
-0.00164861
0.000881681
-0.0017157
0.0009382
-0.00164063
0.000996361
-0.00171223
0.00105042
-0.00158095
0.00110661
-0.00166936
0.00115836
-0.00151537
0.00121243
-0.0016118
-0.00153459
7.17287e-05
0.000141879
7.26642e-05
0.00013179
7.41761e-05
0.000121319
7.63151e-05
0.000110467
7.91344e-05
9.9244e-05
8.26881e-05
8.76526e-05
8.70326e-05
7.56815e-05
9.22198e-05
6.33411e-05
9.83022e-05
5.05448e-05
0.000105329
3.71887e-05
0.000113353
2.30354e-05
0.000122425
7.73079e-06
0.000132556
-9.20817e-06
0.000143833
-2.84529e-05
0.000156305
-5.09993e-05
0.000170045
-7.80019e-05
0.000185148
-0.000110768
0.000201732
-0.0001509
0.000219954
-0.000199956
0.000239999
-0.000259606
0.000262102
-0.000331102
0.000286508
-0.000415486
0.000313506
-0.000512849
0.00034334
-0.000622799
0.000376274
-0.000743275
0.000412464
-0.000872287
0.000452005
-0.00100459
0.000494913
-0.00113888
0.000540944
-0.0012643
0.000590064
-0.00138778
0.000641497
-0.0014848
0.000695439
-0.00158674
0.000750357
-0.00163615
0.00080714
-0.00171629
0.000863209
-0.00170468
0.00092074
-0.00177323
0.000975787
-0.00169568
0.00103236
-0.00176881
0.00108503
-0.00163363
0.00113967
-0.001724
0.00119012
-0.00156581
0.00124272
-0.00166441
-0.00158483
0.000110095
0.000141029
0.000111472
0.000130413
0.000113427
0.000119364
0.000116013
0.000107881
0.000119285
9.5972e-05
0.0001233
8.36373e-05
0.000128119
7.08629e-05
0.000133796
5.76641e-05
0.000140387
4.39531e-05
0.000147949
2.9627e-05
0.00015653
1.44548e-05
0.000166189
-1.92855e-06
0.000176932
-1.99512e-05
0.000188855
-4.03763e-05
0.000202001
-6.41454e-05
0.000216432
-9.24325e-05
0.000232232
-0.000126569
0.000249505
-0.000168173
0.000268389
-0.00021884
0.000289043
-0.00028026
0.000311676
-0.000353735
0.000336503
-0.000440312
0.000363784
-0.000540131
0.000393738
-0.000652752
0.000426605
-0.000776142
0.000462523
-0.000908205
0.000501584
-0.00104365
0.000543806
-0.0011811
0.000588956
-0.00130945
0.00063702
-0.00143584
0.000687252
-0.00153503
0.000739864
-0.00163935
0.000793382
-0.00168967
0.00084867
-0.00177158
0.000903261
-0.00175927
0.000959225
-0.0018292
0.00101282
-0.00174927
0.00106783
-0.00182381
0.00111914
-0.00168494
0.00117226
-0.00177713
0.00122144
-0.00161499
0.00127261
-0.00171558
-0.00163374
0.00014947
0.000139791
0.000151235
0.000128648
0.000153578
0.000117021
0.000156555
0.000104904
0.000160223
9.2304e-05
0.000164641
7.92187e-05
0.000169874
6.56305e-05
0.000175978
5.156e-05
0.000183014
3.69171e-05
0.00019104
2.16004e-05
0.00020012
5.37576e-06
0.000210263
-1.20717e-05
0.000221559
-3.12472e-05
0.000234051
-5.2869e-05
0.000247791
-7.78848e-05
0.000262833
-0.000107475
0.000279252
-0.000142988
0.000297138
-0.000186059
0.000316609
-0.000238311
0.000337803
-0.000301454
0.000360901
-0.000376833
0.000386089
-0.0004655
0.000413601
-0.000567643
0.000443624
-0.000682775
0.000476379
-0.000808898
0.000511988
-0.000943814
0.000550536
-0.0010822
0.000592043
-0.0012226
0.000636289
-0.0013537
0.00068328
-0.00148283
0.000732301
-0.00158405
0.000783578
-0.00169063
0.000835698
-0.00174179
0.000889497
-0.00182538
0.000942623
-0.00181239
0.000997038
-0.00188362
0.0010492
-0.00180143
0.00110267
-0.00187728
0.00115265
-0.00173492
0.0012043
-0.00182878
0.00125224
-0.00166293
0.00130202
-0.00176536
-0.00168134
0.000189844
0.000138227
0.000191934
0.000126558
0.000194605
0.00011435
0.000197912
0.000101598
0.000201914
8.83021e-05
0.000206672
7.44601e-05
0.000212253
6.00494e-05
0.000218718
4.50958e-05
0.00022613
2.95052e-05
0.000234551
1.31791e-05
0.000244032
-4.10537e-06
0.000254613
-2.26527e-05
0.000266368
-4.30019e-05
0.000279348
-6.58496e-05
0.000293597
-9.21338e-05
0.000309167
-0.000123044
0.000326124
-0.000159945
0.000344542
-0.000204477
0.000364523
-0.000258292
0.000386182
-0.000323112
0.000409676
-0.000400328
0.000435161
-0.000490985
0.000462844
-0.000595326
0.000492884
-0.000712815
0.000525481
-0.000841496
0.000560741
-0.000979075
0.000598741
-0.0011202
0.000639506
-0.00126337
0.000682828
-0.00139702
0.000728732
-0.00152874
0.000776536