/*--------------------------------*- C++ -*----------------------------------*\
  =========                 |
  \\      /  F ield         | OpenFOAM: The Open Source CFD Toolbox
   \\    /   O peration     | Website:  https://openfoam.org
    \\  /    A nd           | Version:  7
     \\/     M anipulation  |
\*---------------------------------------------------------------------------*/
FoamFile
{
    version     2.0;
    format      ascii;
    class       volVectorField;
    location    "95";
    object      U;
}
// * * * * * * * * * * * * * * * * * * * * * * * * * * * * * * * * * * * * * //

dimensions      [0 1 -1 0 0 0 0];

internalField   nonuniform List<vector> 
34000
(
(-0.000168185 -0.0155983 -1.23315e-21)
(-0.00170025 -0.0457831 -6.62689e-21)
(-0.00524787 -0.0749492 8.09e-22)
(-0.010205 -0.102315 -1.41313e-21)
(-0.0163894 -0.127317 2.15539e-21)
(-0.0236192 -0.149648 -1.59033e-20)
(-0.0316928 -0.16925 2.73687e-21)
(-0.0404047 -0.186299 -1.07864e-20)
(-0.0495434 -0.201158 -2.32166e-20)
(-0.058899 -0.214308 1.98883e-20)
(-0.0682739 -0.226274 5.92892e-21)
(-0.0774942 -0.237554 -7.13877e-21)
(-0.0864188 -0.248573 8.79463e-21)
(-0.0949436 -0.259648 1.2083e-20)
(-0.103 -0.270984 -7.66007e-21)
(-0.11055 -0.282675 -1.04162e-20)
(-0.117573 -0.294722 -2.51407e-20)
(-0.124061 -0.307041 -1.96322e-21)
(-0.129988 -0.319475 -4.34089e-21)
(-0.135324 -0.331825 -8.62895e-21)
(6.28728e-05 -0.0148967 -6.02835e-21)
(-0.00119537 -0.0439426 5.03985e-21)
(-0.00475872 -0.0721684 -5.92755e-21)
(-0.00991354 -0.098749 -1.33382e-20)
(-0.0164397 -0.123104 1.09224e-20)
(-0.0241212 -0.144916 6.63581e-20)
(-0.0327255 -0.164123 -4.09357e-20)
(-0.042022 -0.180903 6.93126e-21)
(-0.05178 -0.195613 3.34905e-20)
(-0.0617765 -0.208728 1.6256e-23)
(-0.0718077 -0.220759 2.00175e-20)
(-0.0817004 -0.232187 -2.65928e-20)
(-0.0913202 -0.243416 2.79733e-20)
(-0.100575 -0.254743 -2.41213e-20)
(-0.109414 -0.266353 -9.44256e-21)
(-0.117817 -0.27833 4.77637e-20)
(-0.125787 -0.290665 -1.51316e-20)
(-0.133335 -0.303277 2.32188e-21)
(-0.140458 -0.316014 -2.87591e-20)
(-0.147163 -0.328678 -3.12753e-21)
(0.000262648 -0.0140892 -4.66981e-20)
(-0.00076579 -0.0418429 6.06431e-21)
(-0.00436889 -0.0690236 9.31703e-21)
(-0.00972922 -0.094752 4.10081e-20)
(-0.0165899 -0.118422 -4.77998e-20)
(-0.0247022 -0.1397 -7.45221e-20)
(-0.0338037 -0.158516 6.79763e-20)
(-0.04364 -0.175037 -1.86516e-20)
(-0.0539622 -0.189616 -9.3247e-21)
(-0.0645355 -0.202712 -4.76004e-20)
(-0.0751505 -0.21482 1.31148e-20)
(-0.0856348 -0.226401 4.68809e-20)
(-0.0958606 -0.237837 -9.55261e-21)
(-0.105748 -0.249402 3.88266e-20)
(-0.115261 -0.261263 -3.22489e-20)
(-0.124399 -0.27349 -9.78936e-21)
(-0.133186 -0.28607 7.73411e-20)
(-0.141653 -0.298923 -4.84475e-21)
(-0.149821 -0.311905 1.22832e-19)
(-0.157719 -0.324825 -2.94827e-20)
(0.000425998 -0.0131807 7.64167e-20)
(-0.000421845 -0.0394971 -3.42913e-20)
(-0.0040888 -0.0655341 -2.38812e-20)
(-0.00965964 -0.0903482 -1.81445e-20)
(-0.0168431 -0.1133 3.36319e-20)
(-0.0253598 -0.134032 -6.43802e-21)
(-0.0349191 -0.152459 -1.13896e-19)
(-0.0452446 -0.168735 -1.212e-20)
(-0.0560707 -0.183198 -2.51214e-20)
(-0.0671515 -0.196291 -4.13603e-21)
(-0.0782729 -0.208488 -4.41187e-20)
(-0.0892633 -0.220229 5.02203e-20)
(-0.100001 -0.231868 -7.45743e-20)
(-0.110417 -0.24366 -2.28813e-21)
(-0.120489 -0.25575 2.05237e-20)
(-0.130237 -0.268195 -1.5994e-19)
(-0.139702 -0.280977 -1.29584e-19)
(-0.148937 -0.294018 7.06998e-20)
(-0.157983 -0.307189 -9.51196e-20)
(-0.166885 -0.320304 2.50991e-21)
(0.000548252 -0.012177 -1.02361e-20)
(-0.000172855 -0.03692 1.3556e-19)
(-0.00392767 -0.0617216 6.37105e-20)
(-0.00971116 -0.0855643 -4.15091e-21)
(-0.0172011 -0.107767 1.71281e-20)
(-0.0260903 -0.127945 2.50803e-21)
(-0.0360627 -0.145988 5.83826e-20)
(-0.0468215 -0.162032 6.93444e-20)
(-0.0580859 -0.176394 2.95534e-20)
(-0.0696003 -0.189499 1.04609e-19)
(-0.0811461 -0.201798 -1.2102e-19)
(-0.0925524 -0.213703 -2.55184e-20)
(-0.103703 -0.225544 5.40308e-20)
(-0.114538 -0.237551 -9.45976e-20)
(-0.12505 -0.249849 4.33659e-20)
(-0.135273 -0.262481 1.00646e-19)
(-0.14527 -0.275424 2.41358e-20)
(-0.155112 -0.288605 3.5098e-20)
(-0.164858 -0.301908 -5.61412e-20)
(-0.174562 -0.315154 6.4868e-21)
(0.000625223 -0.0110857 -5.00094e-20)
(-2.69527e-05 -0.0341301 3.20965e-20)
(-0.0038931 -0.057612 -5.20862e-20)
(-0.00988848 -0.0804314 1.52241e-20)
(-0.0176643 -0.10186 4.25545e-20)
(-0.0268892 -0.121475 1.93495e-20)
(-0.0372245 -0.139138 3.68675e-20)
(-0.0483554 -0.154962 -2.57921e-20)
(-0.0599878 -0.16924 -1.60243e-19)
(-0.0718575 -0.182372 -1.43949e-19)
(-0.0837416 -0.194782 -9.39632e-20)
(-0.0954697 -0.206857 3.55778e-20)
(-0.10693 -0.218899 -2.0349e-20)
(-0.118071 -0.231111 1.55812e-19)
(-0.128896 -0.2436 -5.628e-20)
(-0.139455 -0.256392 4.61842e-20)
(-0.149827 -0.269458 6.72716e-20)
(-0.160107 -0.282729 -3.80114e-20)
(-0.170365 -0.296108 3.33409e-19)
(-0.180658 -0.309423 -1.25723e-19)
(0.000653367 -0.00991541 6.06909e-20)
(9.13581e-06 -0.031148 -7.66772e-20)
(-0.00399099 -0.0532343 -1.17877e-19)
(-0.0101945 -0.0749835 -3.10709e-20)
(-0.0182314 -0.0956132 1.37508e-20)
(-0.0277502 -0.114659 2.12719e-20)
(-0.0383932 -0.131949 7.13792e-20)
(-0.0498305 -0.147564 1.59468e-20)
(-0.0617563 -0.161772 5.02293e-21)
(-0.0738987 -0.174943 2.58675e-19)
(-0.0860312 -0.187475 1.95012e-19)
(-0.0979831 -0.199725 -1.17486e-19)
(-0.109646 -0.211967 -1.73221e-20)
(-0.120974 -0.224379 -4.69143e-20)
(-0.131982 -0.237042 4.66056e-20)
(-0.142731 -0.24997 -2.47751e-19)
(-0.153317 -0.263124 -5.21726e-20)
(-0.163856 -0.27644 -7.81925e-20)
(-0.174429 -0.289838 -1.89775e-19)
(-0.185088 -0.303157 1.03935e-19)
(0.000629848 -0.0086759 1.01551e-20)
(-6.97475e-05 -0.0279972 -3.75145e-20)
(-0.00422533 -0.0486202 1.06477e-19)
(-0.0106302 -0.0692575 -6.57318e-20)
(-0.0188992 -0.0890677 -3.69317e-20)
(-0.0286656 -0.107539 5.91044e-20)
(-0.0395568 -0.124459 -9.98875e-20)
(-0.0512301 -0.139876 -1.35263e-20)
(-0.0633706 -0.154025 1.90681e-19)
(-0.0756994 -0.167247 -1.22305e-19)
(-0.0879866 -0.17991 -5.0472e-20)
(-0.100061 -0.192341 5.95447e-20)
(-0.111815 -0.204784 -1.57364e-20)
(-0.123209 -0.217389 -8.17877e-21)
(-0.134263 -0.230216 6.83209e-20)
(-0.14505 -0.243259 -1.82723e-19)
(-0.155681 -0.25647 6.3425e-20)
(-0.166295 -0.269787 -4.85704e-20)
(-0.176977 -0.28315 -1.09363e-19)
(-0.187771 -0.296407 3.95891e-20)
(0.000552628 -0.00737799 -2.84621e-20)
(-0.000267034 -0.0247029 2.06354e-19)
(-0.00459801 -0.043804 -4.58876e-20)
(-0.0111944 -0.063293 2.82551e-20)
(-0.0196627 -0.082265 2.05258e-19)
(-0.0296263 -0.100156 -1.3928e-19)
(-0.0407016 -0.11671 -6.89131e-20)
(-0.0525369 -0.131936 -1.20215e-19)
(-0.0648093 -0.146037 -1.32002e-19)
(-0.0772347 -0.15932 -8.76705e-20)
(-0.0895796 -0.172122 -1.19128e-19)
(-0.101671 -0.184737 2.16965e-19)
(-0.113403 -0.197383 -2.38217e-20)
(-0.124736 -0.21018 -5.12593e-20)
(-0.135697 -0.223162 -2.68178e-19)
(-0.146365 -0.236304 1.50466e-19)
(-0.156866 -0.249544 3.71377e-20)
(-0.167362 -0.262824 9.46827e-20)
(-0.177941 -0.276098 6.43686e-20)
(-0.188631 -0.289226 -1.72865e-19)
(0.000420541 -0.00603339 -8.87338e-20)
(-0.000584303 -0.0212925 1.20863e-19)
(-0.00510875 -0.0388223 6.83405e-20)
(-0.0118839 -0.0571316 3.1194e-20)
(-0.020515 -0.0752487 2.65262e-20)
(-0.0306215 -0.0925536 -9.39368e-20)
(-0.0418132 -0.108743 2.03797e-19)
(-0.0537323 -0.123786 1.13408e-20)
(-0.0660505 -0.137845 1.90551e-19)
(-0.0784792 -0.151197 -1.11956e-19)
(-0.0907815 -0.164142 1.80182e-19)
(-0.102782 -0.176947 -1.79711e-19)
(-0.114374 -0.189798 -1.6221e-19)
(-0.125517 -0.202786 1.39291e-19)
(-0.13624 -0.21592 4.95892e-19)
(-0.146628 -0.229149 -2.75108e-19)
(-0.156819 -0.242398 2.26598e-19)
(-0.166998 -0.255604 5.25476e-20)
(-0.177254 -0.268737 -1.97257e-19)
(-0.187593 -0.281667 1.66044e-19)
(0.000233339 -0.00465451 1.61488e-19)
(-0.00102119 -0.0177947 -9.25105e-20)
(-0.00575498 -0.0337136 3.20479e-20)
(-0.0126931 -0.0508168 1.20072e-19)
(-0.0214474 -0.068064 -1.10797e-19)
(-0.0316388 -0.084777 2.18966e-19)
(-0.0428757 -0.100602 -3.98108e-20)
(-0.0547972 -0.115464 4.99527e-21)
(-0.0670716 -0.129487 -2.63681e-19)
(-0.0794069 -0.142911 1.67396e-19)
(-0.0915632 -0.156005 3.92116e-20)
(-0.103362 -0.169004 -5.23469e-20)
(-0.114692 -0.182062 6.51727e-20)
(-0.125512 -0.195245 -2.58572e-19)
(-0.135849 -0.208529 -1.44216e-19)
(-0.145792 -0.22184 3.059e-19)
(-0.155487 -0.23508 -1.71518e-19)
(-0.165143 -0.248182 -2.45616e-19)
(-0.17485 -0.261123 4.56654e-19)
(-0.184582 -0.273783 -4.73188e-22)
(-8.26898e-06 -0.00325432 1.35806e-19)
(-0.00157533 -0.0142394 -1.71206e-19)
(-0.00653187 -0.0285178 -1.79768e-19)
(-0.0136144 -0.0443935 -8.61769e-20)
(-0.022449 -0.0607576 -1.25551e-19)
(-0.0326644 -0.0768719 -7.11974e-20)
(-0.043872 -0.0923303 -3.03682e-19)
(-0.0557112 -0.107012 3.73027e-20)
(-0.0678492 -0.121 -1.30629e-19)
(-0.0799915 -0.134499 4.59322e-19)
(-0.0918949 -0.147743 -2.68411e-19)
(-0.103377 -0.160937 1.64898e-19)
(-0.114321 -0.174208 -5.07079e-20)
(-0.124682 -0.187588 2.81574e-19)
(-0.134481 -0.201027 2.35005e-20)
(-0.143809 -0.214419 -2.44e-19)
(-0.152817 -0.22764 -4.42566e-20)
(-0.161739 -0.240612 1.03049e-20)
(-0.170663 -0.253312 -1.83705e-20)
(-0.179525 -0.265629 3.1036e-19)
(-0.000302602 -0.00184619 -1.68886e-19)
(-0.00224235 -0.0106576 -1.64349e-19)
(-0.00743228 -0.0232757 6.85751e-20)
(-0.0146379 -0.0379077 1.7237e-19)
(-0.0235073 -0.053377 -1.27232e-20)
(-0.0336831 -0.068885 -1.20148e-19)
(-0.0447842 -0.0839722 2.67917e-19)
(-0.0564536 -0.0984707 -3.05778e-20)
(-0.0683594 -0.112423 3.30013e-19)
(-0.0802057 -0.125994 -3.68509e-19)
(-0.0917462 -0.139389 9.74464e-20)
(-0.102793 -0.152779 1.16742e-19)
(-0.113225 -0.166264 -3.39825e-21)
(-0.122986 -0.179849 -2.06177e-21)
(-0.132093 -0.19345 -2.25492e-19)
(-0.140631 -0.206928 3.03532e-20)
(-0.148755 -0.220128 3.03739e-19)
(-0.156726 -0.232949 3.91648e-19)
(-0.164627 -0.245364 -4.64757e-19)
(-0.172345 -0.257259 -2.98056e-19)
(-0.000647014 -0.000443634 7.11389e-20)
(-0.00301588 -0.00708028 1.09416e-19)
(-0.00844684 -0.0180287 1.3478e-19)
(-0.0157518 -0.031406 -2.28232e-19)
(-0.0246082 -0.0459702 2.4116e-19)
(-0.0346782 -0.0608635 2.30917e-19)
(-0.0455931 -0.0755729 -9.03198e-20)
(-0.0570027 -0.0898827 3.99724e-19)
(-0.0685777 -0.103793 -4.07018e-19)
(-0.080022 -0.117433 1.81779e-19)
(-0.0910863 -0.130973 1.85678e-19)
(-0.101577 -0.144559 -1.40633e-20)
(-0.111364 -0.158261 2.88782e-21)
(-0.120382 -0.172057 2.44245e-20)
(-0.128638 -0.185831 -1.78283e-19)
(-0.136208 -0.199407 1.76555e-19)
(-0.143249 -0.212589 -9.05693e-20)
(-0.150045 -0.225247 -2.04253e-19)
(-0.156676 -0.237336 2.64424e-19)
(-0.162966 -0.248728 5.53668e-20)
(-0.00103792 0.00093982 -4.09122e-20)
(-0.00388764 -0.00353878 5.15535e-20)
(-0.00956408 -0.0128184 -1.12694e-19)
(-0.0169421 -0.0249351 -1.6945e-19)
(-0.0257356 -0.0385859 -1.75191e-19)
(-0.0356321 -0.0528553 -1.58827e-19)
(-0.0462791 -0.0671777 2.61107e-19)
(-0.0573364 -0.0812898 -1.31649e-19)
(-0.0684793 -0.0951498 1.06094e-19)
(-0.0794124 -0.108849 1.2633e-20)
(-0.0898834 -0.122529 -2.94918e-20)
(-0.0996928 -0.136306 7.43841e-20)
(-0.1087 -0.150226 -1.43963e-19)
(-0.116828 -0.16424 7.47734e-20)
(-0.124071 -0.1782 2.45156e-19)
(-0.130492 -0.19189 -3.60245e-19)
(-0.136243 -0.205067 -2.30311e-19)
(-0.141635 -0.21756 3.03078e-19)
(-0.146743 -0.229287 -1.76695e-19)
(-0.151308 -0.240092 -2.74538e-19)
(-0.00147083 0.00229088 1.52336e-19)
(-0.00484752 -6.39106e-05 -1.56765e-19)
(-0.0107705 -0.00768598 1.27038e-19)
(-0.0181931 -0.0185418 2.05486e-19)
(-0.0268724 -0.0312723 -3.83124e-20)
(-0.0365258 -0.0449081 -1.3751e-19)
(-0.0468217 -0.0588322 -2.56021e-19)
(-0.0574321 -0.0727347 -1.95828e-19)
(-0.068039 -0.0865319 -3.98679e-19)
(-0.0783486 -0.100279 4.14518e-20)
(-0.0881059 -0.114088 -3.66742e-20)
(-0.0971044 -0.128048 -2.86963e-19)
(-0.105193 -0.142185 2.51187e-19)
(-0.11228 -0.156423 3.07803e-19)
(-0.118343 -0.170584 -1.56589e-20)
(-0.12343 -0.184409 1.8868e-19)
(-0.127684 -0.197603 -9.62588e-20)
(-0.131437 -0.209937 1.61379e-20)
(-0.134765 -0.221276 2.70383e-19)
(-0.137297 -0.231408 6.44017e-19)
(-0.00194046 0.0035967 -6.56706e-20)
(-0.00588374 0.00331432 -4.70189e-20)
(-0.0120508 -0.00267188 1.31383e-19)
(-0.0194878 -0.0122719 -1.84653e-19)
(-0.0280001 -0.0240777 -4.85144e-20)
(-0.0373401 -0.0370698 2.87698e-19)
(-0.0472001 -0.0505826 -6.86963e-20)
(-0.0572674 -0.0642606 -1.99447e-19)
(-0.0672321 -0.0779793 3.24586e-19)
(-0.0768027 -0.0917592 -8.66996e-20)
(-0.0857219 -0.105681 6.40027e-20)
(-0.093776 -0.119815 3.52708e-19)
(-0.100802 -0.134163 -4.91271e-19)
(-0.106693 -0.148629 -1.34319e-19)
(-0.111407 -0.163006 -2.67184e-19)
(-0.114971 -0.176992 5.42243e-19)
(-0.117515 -0.190231 1.73862e-20)
(-0.119392 -0.202426 2.99233e-19)
(-0.12068 -0.213362 -1.06611e-19)
(-0.120857 -0.222736 -6.11212e-19)
(-0.00244077 0.00484504 -1.54111e-19)
(-0.00698305 0.00656712 2.2458e-19)
(-0.0133881 0.00218481 2.8683e-21)
(-0.0208073 -0.00617032 -2.4917e-21)
(-0.0290993 -0.0170493 2.3725e-19)
(-0.0380548 -0.0293878 1.7157e-19)
(-0.0473934 -0.0424748 -7.05409e-21)
(-0.05682 -0.0559112 5.1916e-19)
(-0.0660339 -0.0695327 1.99952e-19)
(-0.0747471 -0.0833256 -3.69784e-19)
(-0.0827 -0.0973439 1.69944e-20)
(-0.0896716 -0.111635 -1.11175e-20)
(-0.0954867 -0.126185 5.23744e-19)
(-0.100021 -0.140879 -5.88501e-19)
(-0.103211 -0.155485 1.61754e-19)
(-0.105062 -0.169659 7.27382e-21)
(-0.105683 -0.182981 -4.16273e-19)
(-0.105443 -0.195068 -4.30521e-19)
(-0.10443 -0.205601 -5.06175e-20)
(-0.10192 -0.214136 6.2201e-19)
(-0.0029651 0.00602453 5.05218e-20)
(-0.00813093 0.00966733 -1.5992e-19)
(-0.0147643 0.00684676 1.55748e-19)
(-0.0221322 -0.000280481 -2.33929e-19)
(-0.0301499 -0.0102334 2.92298e-19)
(-0.0386497 -0.0219091 -4.90608e-19)
(-0.0473811 -0.034555 -1.22236e-19)
(-0.0560681 -0.0477307 -2.71301e-19)
(-0.0644208 -0.0612336 -1.28625e-19)
(-0.0721553 -0.0750172 2.30621e-19)
(-0.0790099 -0.0891093 4.74172e-19)
(-0.0847563 -0.103539 -5.34466e-19)
(-0.0892066 -0.118276 -1.99997e-19)
(-0.092219 -0.133193 7.30659e-19)
(-0.0937072 -0.148037 -2.66953e-19)
(-0.0936508 -0.162427 -3.83732e-19)
(-0.0921337 -0.175873 4.86171e-19)
(-0.0895363 -0.187899 1.0167e-19)
(-0.0859659 -0.198047 9.84722e-20)
(-0.0804247 -0.20567 -3.99898e-19)
(-0.00350631 0.00712481 1.99985e-20)
(-0.00931184 0.0125898 -8.38157e-20)
(-0.0161602 0.0112788 2.74537e-19)
(-0.023442 0.00535622 -3.56397e-19)
(-0.0311315 -0.00367495 -2.94109e-19)
(-0.0391046 -0.0146798 1.85856e-19)
(-0.0471429 -0.0268691 5.21878e-19)
(-0.0549909 -0.0397638 -3.31048e-19)
(-0.0623705 -0.0531246 8.10265e-20)
(-0.0690022 -0.0668736 -1.60799e-19)
(-0.0746226 -0.0810137 -6.53178e-19)
(-0.0789964 -0.0955563 3.96625e-19)
(-0.0819231 -0.110461 3.23783e-19)
(-0.0832428 -0.12559 -5.73065e-19)
(-0.0828463 -0.140677 1.33314e-19)
(-0.0806859 -0.155305 5.3666e-19)
(-0.0768148 -0.168921 2.12943e-19)
(-0.0716198 -0.180942 7.40177e-20)
(-0.0652464 -0.190746 -4.29703e-19)
(-0.0563218 -0.197399 -2.07435e-19)
(-0.00405691 0.00813673 -1.36807e-19)
(-0.0105096 0.0153118 -2.53194e-19)
(-0.0175558 0.0154486 -1.45385e-19)
(-0.0247157 0.0107008 1.92998e-19)
(-0.0320234 0.00258319 -1.14392e-20)
(-0.0393997 -0.00774493 4.38172e-19)
(-0.0466595 -0.0194625 -4.07479e-20)
(-0.0535687 -0.0320553 4.84619e-20)
(-0.059862 -0.0452493 3.20419e-19)
(-0.0652646 -0.0589362 4.0695e-19)
(-0.0695118 -0.0730953 -1.99083e-20)
(-0.0723611 -0.0877225 -9.05693e-20)
(-0.0735997 -0.102769 -5.34126e-19)
(-0.0730504 -0.118091 4.0148e-19)
(-0.0705814 -0.133414 -3.63005e-20)
(-0.0661174 -0.148298 -2.40995e-19)
(-0.0596769 -0.162128 -1.206e-18)
(-0.0516468 -0.17421 4.26095e-19)
(-0.0422406 -0.183735 2.08024e-20)
(-0.0295729 -0.189388 -2.58086e-19)
(-0.00460922 0.00905251 1.27236e-19)
(-0.0117074 0.0178134 3.3147e-19)
(-0.0189311 0.0193265 -2.53307e-19)
(-0.0259324 0.0157169 -1.2344e-19)
(-0.0328053 0.00850026 1.02932e-19)
(-0.0395156 -0.00114787 -2.49342e-19)
(-0.0459123 -0.0123801 -4.66707e-19)
(-0.0517835 -0.0246503 2.77588e-19)
(-0.0568765 -0.0376523 -3.11642e-20)
(-0.060922 -0.0512482 -6.44722e-19)
(-0.0636537 -0.0653949 1.23339e-19)
(-0.0648223 -0.0800737 7.07528e-20)
(-0.0642036 -0.0952294 -1.23798e-19)
(-0.0616035 -0.110718 3.26799e-19)
(-0.0568689 -0.126263 6.38914e-19)
(-0.0498985 -0.141408 -4.16248e-19)
(-0.0406742 -0.15549 3.34702e-19)
(-0.0295756 -0.167702 8.41525e-20)
(-0.0169331 -0.177037 4.64989e-19)
(-0.000152429 -0.181699 2.07379e-19)
(-0.00515554 0.00986583 -1.39736e-19)
(-0.0128887 0.0200775 -1.52589e-20)
(-0.0202657 0.0228868 3.59697e-19)
(-0.0270712 0.0203719 3.58673e-19)
(-0.0334571 0.0140382 -7.39008e-20)
(-0.0394339 0.00506984 -4.65509e-20)
(-0.0448842 -0.00566552 4.71527e-19)
(-0.0496186 -0.0175938 -3.67851e-19)
(-0.0533975 -0.0303786 1.13558e-19)
(-0.0559564 -0.0438542 4.70642e-19)
(-0.0570281 -0.0579554 4.54495e-19)
(-0.0563565 -0.0726499 1.79858e-19)
(-0.0537063 -0.0878775 7.83336e-19)
(-0.0488684 -0.103497 -1.07188e-19)
(-0.0416702 -0.119235 -8.32612e-19)
(-0.0319873 -0.134635 4.09151e-19)
(-0.0197644 -0.148993 -2.20772e-19)
(-0.00536789 -0.161396 -5.05803e-19)
(0.0106684 -0.170642 -3.56669e-19)
(0.0319333 -0.174355 -3.54845e-19)
(-0.00568831 0.010572 9.00438e-20)
(-0.0140368 0.0220904 1.89942e-19)
(-0.0215397 0.0261073 -1.31399e-19)
(-0.0281117 0.0246363 -1.63885e-19)
(-0.0339596 0.0191622 -1.7208e-19)
(-0.0391368 0.010869 -4.62386e-20)
(-0.0435593 0.000638966 -4.89216e-19)
(-0.0470595 -0.0109301 2.51725e-19)
(-0.0494105 -0.0234739 -2.3345e-19)
(-0.0503531 -0.0368002 -3.97455e-19)
(-0.0496185 -0.0508223 1.47455e-20)
(-0.0469443 -0.0654943 -1.01909e-18)
(-0.042085 -0.0807517 -7.93408e-19)
(-0.0348178 -0.0964581 2.53249e-19)
(-0.0249535 -0.112352 1.26951e-19)
(-0.0123482 -0.127982 -2.75186e-19)
(0.00309017 -0.142623 1.06145e-18)
(0.021024 -0.155267 -1.6555e-19)
(0.0405796 -0.164555 4.46177e-19)
(0.0665757 -0.167218 3.9493e-19)
(-0.00620029 0.0111679 -1.23554e-19)
(-0.0151359 0.0238418 -4.11716e-19)
(-0.0227339 0.0289699 1.31921e-19)
(-0.0290342 0.028485 7.46363e-21)
(-0.0342942 0.0238408 5.61889e-19)
(-0.0386079 0.0162134 -3.37178e-19)
(-0.0419229 0.00649316 1.85036e-19)
(-0.0440929 -0.00470231 2.67695e-19)
(-0.0449035 -0.0169836 -2.07715e-20)
(-0.0441001 -0.0301332 1.66333e-19)
(-0.0414123 -0.0440431 5.11888e-19)
(-0.0365715 -0.0586534 1.07285e-18)
(-0.0293228 -0.0738955 8.68035e-20)
(-0.0194317 -0.0896387 -4.7957e-19)
(-0.00669569 -0.105636 8.69648e-20)
(0.00904391 -0.121456 8.51918e-19)
(0.027912 -0.136368 -5.75687e-19)
(0.049636 -0.149318 2.01922e-21)
(0.073004 -0.158943 4.36159e-19)
(0.103634 -0.160122 -2.68371e-19)
(-0.00668472 0.0116522 -1.19406e-19)
(-0.0161707 0.0253251 4.8938e-19)
(-0.02383 0.031461 -3.73814e-19)
(-0.0298198 0.0318972 -7.66684e-20)
(-0.0344433 0.0280468 -1.30078e-19)
(-0.0378314 0.02107 -3.40637e-19)
(-0.0399615 0.0118595 3.39358e-19)
(-0.0407075 0.00104818 -1.11595e-19)
(-0.0398664 -0.0109521 -2.03073e-19)
(-0.037188 -0.0238999 3.33836e-19)
(-0.0324002 -0.037666 -3.88497e-19)
(-0.0252283 -0.0521762 -1.25187e-19)
(-0.0154087 -0.0673562 -1.38453e-20)
(-0.00269763 -0.0830809 3.38374e-19)
(0.0131173 -0.0991206 -3.07352e-19)
(0.0322022 -0.11507 -5.77936e-19)
(0.0546934 -0.130222 -1.78759e-19)
(0.0803402 -0.143526 -2.54573e-19)
(0.107944 -0.153496 -7.69164e-19)
(0.143389 -0.153378 -2.25396e-19)
(-0.00713547 0.0120253 1.70281e-19)
(-0.0171273 0.0265371 -2.14692e-19)
(-0.0248108 0.0335713 -2.71638e-19)
(-0.030451 0.0348567 -2.56923e-19)
(-0.0343903 0.0317571 8.54123e-20)
(-0.0367925 0.0254097 4.68661e-20)
(-0.0376625 0.0167036 1.21821e-19)
(-0.0368925 0.00628255 -3.18192e-19)
(-0.0342904 -0.00542202 2.47597e-19)
(-0.0296095 -0.018146 -7.4788e-19)
(-0.0225758 -0.0317395 -3.768e-19)
(-0.0129088 -0.0461126 7.13975e-21)
(-0.000337144 -0.0611838 3.3866e-19)
(0.0153901 -0.0768317 -2.22887e-19)
(0.0344906 -0.0928435 5.69561e-19)
(0.0571315 -0.108846 -1.39051e-19)
(0.0834499 -0.124166 1.7932e-19)
(0.113209 -0.137765 6.77788e-19)
(0.145073 -0.148003 8.8266e-20)
(0.185856 -0.147155 4.23778e-19)
(-0.00754714 0.0122889 -3.60166e-19)
(-0.017993 0.0274784 2.9185e-19)
(-0.0256607 0.0352962 3.2698e-19)
(-0.0309112 0.0373522 -1.91636e-19)
(-0.0341193 0.0349537 3.28326e-19)
(-0.0354771 0.0292081 3.17509e-19)
(-0.0350137 0.0209951 -5.70922e-20)
(-0.0326379 0.0109654 -1.10446e-19)
(-0.0281671 -0.000433036 -3.01535e-19)
(-0.0213578 -0.0129152 1.40057e-19)
(-0.0119339 -0.0263104 1.3438e-20)
(0.00039078 -0.040512 -3.76389e-19)
(0.0158941 -0.0554292 2.84638e-19)
(0.0348316 -0.0709412 -2.23548e-19)
(0.0574219 -0.0868499 -4.04636e-19)
(0.0838253 -0.102814 -5.30242e-19)
(0.114169 -0.118211 1.28878e-19)
(0.148246 -0.132031 1.80619e-19)
(0.184431 -0.14263 -1.69209e-19)
(0.230782 -0.141119 7.02165e-19)
(-0.0079152 0.0124466 -2.86364e-19)
(-0.0187567 0.0281529 -2.6879e-19)
(-0.0263653 0.0366355 2.13214e-19)
(-0.0311851 0.0393775 1.23982e-19)
(-0.0336153 0.0376235 5.15255e-20)
(-0.0338712 0.0324453 -9.39814e-20)
(-0.0320025 0.0247083 -6.58592e-20)
(-0.0279327 0.0150658 1.52562e-19)
(-0.0214875 0.00397917 -1.45539e-19)
(-0.0124257 -0.00824711 1.17235e-18)
(-0.000468953 -0.021422 8.61289e-20)
(0.0146739 -0.0354209 -1.34289e-19)
(0.0332858 -0.0501414 -8.81126e-19)
(0.0556242 -0.0654597 1.69606e-19)
(0.0819033 -0.0811874 -4.39085e-19)
(0.112268 -0.0970141 2.89245e-19)
(0.146822 -0.112374 2.65669e-19)
(0.185395 -0.12631 -1.00298e-18)
(0.225968 -0.137338 -3.09433e-19)
(0.27801 -0.135145 -1.0492e-18)
(-0.00823606 0.0125033 1.38215e-19)
(-0.019409 0.0285678 2.79181e-19)
(-0.0269121 0.0375936 -5.04186e-19)
(-0.0312584 0.0409315 -3.87237e-19)
(-0.0328637 0.039759 1.98102e-19)
(-0.0319605 0.0351072 1.85917e-19)
(-0.0286158 0.0278229 -3.87941e-19)
(-0.022765 0.0185578 -3.52866e-20)
(-0.0142406 0.00778423 2.08547e-20)
(-0.00280342 -0.00417615 -3.53191e-19)
(0.0118272 -0.0171122 5.19108e-19)
(0.0299467 -0.0308807 2.47666e-21)
(0.0518408 -0.0453646 6.63376e-19)
(0.0777656 -0.0604331 4.51421e-19)
(0.107925 -0.0759025 7.52917e-20)
(0.142439 -0.0914876 9.55641e-19)
(0.18137 -0.106681 -8.65095e-19)
(0.224586 -0.120588 3.98569e-19)
(0.269592 -0.132053 3.07961e-19)
(0.327382 -0.129147 2.60805e-19)
(-0.00850708 0.012465 6.71052e-19)
(-0.019942 0.0287333 -4.73978e-19)
(-0.02729 0.038179 1.14475e-19)
(-0.031118 0.0420182 3.76558e-19)
(-0.0318498 0.0413579 -4.06939e-19)
(-0.02973 0.0371855 1.97791e-20)
(-0.0248383 0.0303246 3.13299e-19)
(-0.0171196 0.0214223 5.79899e-19)
(-0.00641171 0.0109583 7.9158e-19)
(0.0075232 -0.000729833 -7.6171e-19)
(0.0249679 -0.0134117 -4.56328e-19)
(0.0462204 -0.0269246 2.17702e-19)
(0.0715674 -0.0411344 -6.31497e-19)
(0.101258 -0.0558994 4.34236e-20)
(0.13548 -0.0710342 2.47916e-19)
(0.174316 -0.0862717 1.91292e-19)
(0.217769 -0.10116 5.83556e-19)
(0.265737 -0.11486 1.20476e-19)
(0.315192 -0.126709 -4.34335e-19)
(0.378695 -0.123024 4.56277e-19)
(-0.0087266 0.0123389 -6.37285e-19)
(-0.0203497 0.0286624 4.72798e-19)
(-0.0274894 0.0384042 1.146e-19)
(-0.0307511 0.0426463 -3.74416e-19)
(-0.030559 0.0424241 1.58997e-19)
(-0.0271632 0.0386781 -7.70913e-20)
(-0.0206522 0.032206 -5.72135e-20)
(-0.0109776 0.0236467 -4.89713e-19)
(0.00201893 0.0134853 -7.78191e-19)
(0.0185747 0.0020728 7.32925e-19)
(0.0389737 -0.0103416 -2.6487e-19)
(0.0635152 -0.0235752 8.32087e-21)
(0.0924825 -0.0374749 1.52269e-19)
(0.126113 -0.0518839 3.25459e-19)
(0.164568 -0.0666094 -3.91676e-20)
(0.207882 -0.0813934 -9.15504e-20)
(0.255975 -0.0958312 -4.71034e-19)
(0.308755 -0.109127 -3.13906e-19)
(0.362644 -0.121249 -2.95385e-19)
(0.431695 -0.116666 4.63439e-19)
(-0.00889388 0.0121328 5.13157e-19)
(-0.0206278 0.0283701 -1.33805e-19)
(-0.027502 0.0382854 4.56178e-19)
(-0.0301459 0.0428294 1.1081e-19)
(-0.0289757 0.0429666 -2.4526e-19)
(-0.0242414 0.0395892 3.98541e-20)
(-0.0160361 0.0334666 -5.28442e-19)
(-0.00431499 0.0252269 2.41879e-19)
(0.0110781 0.0153579 1.32734e-19)
(0.0303801 0.0042226 -4.8288e-20)
(0.0538755 -0.00791202 -5.53358e-20)
(0.0818619 -0.0208426 6.71694e-20)
(0.114615 -0.0343957 -3.05913e-19)
(0.152353 -0.048396 -7.14333e-19)
(0.195199 -0.0626374 3.63211e-19)
(0.243124 -0.0768632 -1.80553e-19)
(0.295944 -0.0907053 -4.34531e-20)
(0.353535 -0.103386 7.59293e-19)
(0.411813 -0.115621 7.84057e-19)
(0.486067 -0.109962 -1.18304e-18)
(-0.00900905 0.0118553 -1.30492e-19)
(-0.020773 0.0278735 -1.44702e-19)
(-0.0273204 0.0378417 -2.86068e-19)
(-0.0292901 0.0425857 2.10543e-19)
(-0.027083 0.0430005 3.8274e-19)
(-0.0209432 0.03993 -4.98285e-19)
(-0.0109638 0.0341137 7.99611e-19)
(0.00289892 0.0261672 -1.57305e-19)
(0.0208007 0.0165785 2.34303e-20)
(0.0429785 0.0057215 -5.53063e-19)
(0.0697157 -0.00612017 -4.24168e-20)
(0.101305 -0.0187224 -4.61509e-19)
(0.138008 -0.0318898 6.22012e-19)
(0.180015 -0.0454259 4.11116e-19)
(0.227396 -0.059107 -8.0466e-19)
(0.28004 -0.0726702 -6.8485e-19)
(0.337637 -0.0857713 1.57833e-19)
(0.399966 -0.0976296 9.09989e-19)
(0.462553 -0.109763 4.14926e-19)
(0.541428 -0.102806 2.17639e-19)
(-0.00907297 0.0115152 4.14768e-20)
(-0.0207836 0.0271906 1.40092e-19)
(-0.026938 0.037095 1.69438e-19)
(-0.0281713 0.041937 -1.41404e-19)
(-0.0248621 0.0425459 3.56212e-19)
(-0.0172433 0.039718 4.79188e-19)
(-0.0054038 0.0341625 7.70767e-21)
(0.0107022 0.0264809 -6.26527e-19)
(0.0312313 0.0171603 -5.03965e-19)
(0.0564204 0.00658346 5.305e-19)
(0.0865498 -0.00494963 -7.16467e-19)
(0.121902 -0.0171943 -8.0964e-19)
(0.162719 -0.029932 -8.13954e-20)
(0.209147 -0.0429437 -4.22445e-20)
(0.26119 -0.0559842 2.84558e-19)
(0.318629 -0.0687798 1.86415e-19)
(0.381011 -0.0809954 2.40546e-19)
(0.44792 -0.0918403 -1.12483e-18)
(0.514715 -0.103604 -3.05837e-19)
(0.597323 -0.0951074 7.95419e-19)
(-0.00908711 0.0111214 -2.44405e-19)
(-0.0206586 0.0263406 2.39783e-19)
(-0.0263485 0.0360693 -1.76672e-19)
(-0.0267761 0.040909 -8.79668e-20)
(-0.0222918 0.0416279 -2.40228e-19)
(-0.0131123 0.0389772 -1.82608e-19)
(0.000681733 0.0336361 -3.29365e-19)
(0.0191411 0.026191 5.46912e-19)
(0.0424246 0.0171271 2.19221e-19)
(0.0707683 0.00683507 -5.40863e-19)
(0.104446 -0.00436949 8.53187e-19)
(0.143726 -0.0162214 4.4014e-19)
(0.188816 -0.0284789 -3.34593e-19)
(0.239808 -0.0408989 -4.7069e-19)
(0.296618 -0.0532132 -6.04663e-20)
(0.358891 -0.0651347 4.83938e-19)
(0.426014 -0.0763195 -3.20599e-19)
(0.497251 -0.0859922 1.2314e-19)
(0.568132 -0.0970565 2.7083e-19)
(0.653222 -0.0868169 6.73321e-19)
(-0.00905332 0.0106824 -2.48517e-20)
(-0.0203976 0.0253427 -5.92427e-19)
(-0.0255453 0.0347898 1.44635e-19)
(-0.0250898 0.03953 3.2195e-19)
(-0.0193482 0.0402763 -5.87286e-20)
(-0.00851635 0.037738 -3.92366e-19)
(0.00733725 0.0325653 4.3517e-19)
(0.0282706 0.0253298 5.01279e-19)
(0.0544457 0.016514 1.92459e-19)
(0.0860966 0.00651585 9.62519e-19)
(0.123487 -0.00433417 -4.50699e-19)
(0.16686 -0.0157507 2.17151e-19)
(0.21638 -0.027469 -2.24573e-19)
(0.272064 -0.039222 5.42931e-19)
(0.333715 -0.0507185 -4.75685e-20)
(0.400815 -0.0616578 -1.25625e-19)
(0.472569 -0.0716649 -1.97878e-19)
(0.547781 -0.0800515 3.09997e-19)
(0.622589 -0.0899876 -7.73846e-19)
(0.70847 -0.0778714 -1.03076e-18)
(-0.00897369 0.0102067 -1.42323e-19)
(-0.0200003 0.0242161 -5.2987e-20)
(-0.0245212 0.033283 -4.7935e-19)
(-0.0230958 0.0378308 2.9401e-19)
(-0.0160038 0.038525 -3.00939e-19)
(-0.00341612 0.0360365 -3.07002e-19)
(0.0146141 0.0309887 -2.75055e-20)
(0.0381543 0.0239391 -5.04901e-19)
(0.0673699 0.0153673 -8.06523e-19)
(0.10249 0.00567808 2.21771e-19)
(0.143762 -0.00478372 2.49951e-19)
(0.191395 -0.0157134 3.02719e-19)
(0.245491 -0.0268242 7.77121e-19)
(0.305973 -0.037827 -7.66818e-20)
(0.372504 -0.0484095 -1.68144e-19)
(0.444368 -0.0582593 -2.36337e-20)
(0.520571 -0.0669469 4.21589e-19)
(0.599319 -0.0739836 7.40445e-19)
(0.677797 -0.082142 -2.06678e-19)
(0.76215 -0.0680825 7.52468e-19)
(-0.00885027 0.00970167 4.46858e-19)
(-0.0194658 0.0229791 -7.26094e-20)
(-0.0232678 0.0315752 4.23632e-19)
(-0.0207755 0.0358442 -4.3511e-19)
(-0.0122276 0.0364112 6.43788e-19)
(0.00223276 0.033914 5.40913e-19)
(0.0225706 0.0289519 -4.46252e-19)
(0.0488641 0.0220695 -8.35261e-19)
(0.0812813 0.0137438 1.39118e-18)
(0.120043 0.00438626 3.4572e-19)
(0.165371 -0.00564463 -2.70716e-19)
(0.217427 -0.0160261 -2.68784e-19)
(0.27623 -0.0264518 -1.34316e-19)
(0.341583 -0.0366142 -2.10692e-19)
(0.412978 -0.0461854 -6.96411e-19)
(0.489479 -0.0548472 -1.88679e-19)
(0.569878 -0.0621016 1.5098e-20)
(0.651725 -0.0677728 -5.06949e-19)
(0.733548 -0.0731657 2.50464e-19)
(0.813302 -0.057541 -5.32193e-19)
(-0.00868489 0.00917426 -7.14061e-19)
(-0.018793 0.0216493 4.79959e-19)
(-0.0217754 0.029693 -7.15126e-19)
(-0.0181072 0.0336037 -3.90289e-19)
(-0.00798454 0.033975 1.45774e-19)
(0.00847984 0.0314165 -5.84256e-19)
(0.0312711 0.026507 9.19808e-19)
(0.0604788 0.0197798 1.62753e-20)
(0.0962713 0.0117102 -5.17744e-19)
(0.138855 0.0027162 -4.54121e-19)
(0.188415 -0.00683108 -8.1453e-19)
(0.245045 -0.0165929 -9.50558e-21)
(0.308663 -0.026247 3.01578e-20)
(0.378915 -0.0354739 -1.88714e-19)
(0.455095 -0.0439397 8.39404e-19)
(0.536016 -0.0513344 5.15905e-19)
(0.62026 -0.0571051 1.2613e-19)
(0.704863 -0.0614373 -5.43722e-19)
(0.789928 -0.0630342 -3.08166e-20)
(0.862732 -0.0484618 -8.6115e-19)
(-0.00847892 0.00863034 2.53665e-19)
(-0.0179792 0.0202426 -4.80012e-19)
(-0.0200321 0.0276617 6.17384e-19)
(-0.0150668 0.0311436 8.69196e-19)
(-0.0032359 0.0312584 -2.8325e-19)
(0.0153796 0.028594 3.75788e-20)
(0.0407859 0.0237118 -7.74413e-19)
(0.0730831 0.0171363 -1.92617e-19)
(0.112436 0.00934207 -6.0606e-19)
(0.159027 0.000753579 7.93938e-19)
(0.21299 -0.00824682 7.39659e-19)
(0.274333 -0.0173074 -1.31412e-19)
(0.342835 -0.0260956 -9.95282e-20)
(0.417956 -0.0342889 -7.94424e-21)
(0.498755 -0.0415612 1.49862e-19)
(0.583769 -0.0476337 -2.69727e-19)
(0.671352 -0.0519444 -3.11894e-19)
(0.758269 -0.0550162 6.51808e-19)
(0.846333 -0.0528166 -2.02134e-19)
(0.91514 -0.0457566 3.86845e-20)
(-0.00823305 0.00807476 6.70477e-20)
(-0.0170204 0.0187734 9.7265e-20)
(-0.0180237 0.0255059 -3.23119e-19)
(-0.0116268 0.0284981 -8.9557e-19)
(0.0020609 0.0283052 1.45574e-19)
(0.0229906 0.0254992 4.42238e-19)
(0.0511893 0.0206286 2.02717e-19)
(0.086765 0.0142114 8.7349e-19)
(0.129872 0.00672238 -5.50472e-19)
(0.180658 -0.00140775 -7.19477e-19)
(0.239188 -0.00978737 -1.32386e-19)
(0.305352 -0.0180561 3.31418e-19)
(0.378762 -0.0258779 7.25721e-20)