/*--------------------------------*- C++ -*----------------------------------*\
  =========                 |
  \\      /  F ield         | OpenFOAM: The Open Source CFD Toolbox
   \\    /   O peration     | Website:  https://openfoam.org
    \\  /    A nd           | Version:  7
     \\/     M anipulation  |
\*---------------------------------------------------------------------------*/
FoamFile
{
    version     2.0;
    format      ascii;
    class       volScalarField;
    location    "40";
    object      p;
}
// * * * * * * * * * * * * * * * * * * * * * * * * * * * * * * * * * * * * * //

dimensions      [0 2 -2 0 0 0 0];

internalField   nonuniform List<scalar> 
9950
(
-0.181428
-0.183545
-0.184411
-0.185207
-0.185863
-0.186441
-0.186959
-0.187415
-0.187825
-0.18813
-0.181559
-0.183661
-0.184518
-0.185306
-0.185953
-0.186523
-0.187031
-0.187477
-0.187877
-0.188156
-0.18182
-0.18389
-0.184732
-0.185503
-0.186133
-0.186685
-0.187175
-0.187598
-0.187979
-0.188206
-0.182209
-0.184233
-0.185051
-0.185796
-0.1864
-0.186926
-0.187386
-0.187776
-0.188129
-0.188272
-0.182721
-0.184684
-0.18547
-0.186181
-0.186751
-0.187241
-0.187661
-0.188006
-0.18832
-0.188346
-0.18335
-0.18524
-0.185987
-0.186654
-0.187181
-0.187625
-0.187995
-0.188279
-0.188547
-0.188413
-0.184092
-0.185897
-0.186596
-0.187211
-0.187684
-0.188072
-0.18838
-0.188588
-0.188804
-0.188457
-0.18494
-0.186648
-0.187293
-0.187846
-0.188255
-0.188576
-0.18881
-0.188924
-0.189084
-0.188456
-0.185887
-0.187489
-0.188071
-0.188553
-0.188888
-0.189131
-0.189278
-0.189277
-0.189382
-0.188387
-0.186927
-0.188415
-0.188926
-0.189326
-0.189576
-0.189729
-0.189778
-0.189637
-0.189695
-0.188219
-0.188052
-0.189419
-0.189851
-0.19016
-0.190314
-0.190365
-0.190303
-0.189996
-0.190021
-0.187906
-0.189257
-0.190498
-0.190843
-0.19105
-0.191096
-0.191033
-0.190849
-0.190345
-0.19037
-0.187398
-0.190538
-0.191647
-0.191896
-0.19199
-0.191916
-0.191728
-0.191411
-0.19068
-0.190754
-0.186737
-0.191891
-0.192864
-0.193007
-0.192976
-0.19277
-0.192445
-0.191986
-0.190993
-0.191097
-0.186042
-0.193314
-0.194147
-0.194174
-0.194005
-0.193654
-0.193181
-0.192574
-0.191309
-0.19134
-0.185233
-0.194807
-0.195495
-0.195396
-0.195075
-0.194566
-0.193933
-0.193169
-0.191678
-0.191559
-0.184214
-0.196372
-0.196911
-0.196672
-0.196184
-0.195502
-0.1947
-0.193756
-0.192055
-0.19181
-0.18301
-0.198015
-0.198397
-0.198004
-0.197333
-0.196461
-0.19548
-0.194346
-0.192437
-0.192072
-0.181675
-0.199742
-0.199959
-0.199397
-0.198523
-0.197444
-0.196271
-0.194936
-0.192845
-0.192301
-0.180292
-0.201563
-0.201606
-0.200857
-0.199759
-0.198451
-0.197073
-0.195516
-0.193298
-0.192441
-0.178987
-0.203494
-0.203347
-0.20239
-0.201048
-0.199489
-0.197888
-0.19608
-0.193816
-0.192409
-0.177922
-0.205549
-0.205197
-0.204008
-0.202397
-0.200563
-0.198722
-0.196622
-0.194415
-0.192097
-0.177179
-0.20775
-0.207165
-0.205731
-0.203821
-0.201687
-0.199585
-0.197151
-0.195111
-0.191384
-0.176645
-0.210121
-0.209276
-0.207569
-0.205336
-0.202877
-0.200493
-0.197689
-0.195911
-0.190285
-0.176832
-0.212691
-0.211548
-0.209543
-0.206961
-0.204152
-0.201463
-0.198276
-0.196739
-0.189174
-0.18116
-0.215483
-0.214006
-0.211675
-0.208719
-0.20554
-0.202519
-0.198948
-0.197408
-0.188487
-0.193172
-0.218528
-0.216675
-0.21399
-0.210637
-0.207067
-0.203686
-0.19974
-0.197869
-0.188511
-0.193248
-0.221859
-0.21958
-0.216513
-0.21274
-0.208763
-0.204989
-0.20067
-0.198181
-0.188782
-0.191396
-0.225508
-0.222745
-0.219271
-0.215057
-0.210658
-0.206457
-0.201735
-0.198468
-0.189077
-0.189472
-0.229506
-0.226198
-0.222291
-0.217617
-0.212779
-0.208112
-0.202928
-0.198783
-0.189294
-0.18734
-0.23388
-0.229964
-0.225598
-0.220446
-0.215148
-0.20997
-0.204245
-0.199136
-0.189354
-0.185115
-0.238658
-0.234066
-0.22922
-0.223569
-0.217785
-0.212038
-0.205678
-0.199514
-0.189208
-0.182835
-0.243862
-0.238527
-0.23318
-0.227009
-0.2207
-0.214317
-0.207212
-0.199887
-0.18883
-0.180506
-0.24951
-0.243368
-0.2375
-0.230785
-0.223899
-0.216799
-0.208821
-0.200212
-0.188203
-0.178109
-0.255616
-0.248603
-0.242199
-0.234909
-0.227382
-0.219465
-0.210462
-0.200441
-0.18732
-0.175616
-0.262187
-0.254246
-0.24729
-0.239387
-0.23114
-0.222286
-0.212082
-0.200523
-0.186175
-0.172997
-0.269222
-0.260303
-0.252782
-0.244215
-0.235152
-0.225214
-0.213619
-0.200413
-0.184761
-0.170222
-0.276713
-0.266775
-0.258673
-0.249379
-0.239388
-0.228187
-0.215009
-0.200068
-0.183071
-0.16726
-0.284642
-0.273653
-0.26495
-0.254853
-0.243797
-0.231129
-0.216186
-0.199446
-0.181095
-0.164084
-0.292979
-0.280917
-0.271587
-0.260596
-0.248312
-0.233952
-0.217088
-0.198513
-0.178818
-0.160666
-0.30168
-0.288536
-0.278546
-0.266555
-0.252846
-0.236569
-0.217655
-0.197234
-0.176223
-0.156979
-0.310688
-0.296465
-0.28577
-0.272653
-0.257296
-0.238886
-0.217831
-0.195575
-0.173289
-0.152997
-0.319933
-0.304642
-0.293188
-0.278798
-0.261546
-0.240816
-0.217561
-0.193503
-0.169994
-0.148695
-0.329326
-0.312989
-0.300709
-0.284874
-0.265475
-0.24227
-0.216794
-0.190985
-0.16631
-0.144045
-0.338764
-0.321409
-0.308227
-0.290749
-0.26896
-0.243168
-0.215478
-0.187985
-0.16221
-0.139021
-0.348125
-0.329792
-0.315616
-0.296278
-0.27188
-0.243428
-0.213566
-0.184469
-0.157664
-0.133599
-0.357274
-0.338009
-0.322734
-0.301306
-0.274114
-0.242977
-0.211008
-0.180403
-0.152644
-0.127754
-0.366062
-0.345915
-0.329422
-0.305675
-0.27555
-0.241744
-0.20776
-0.175751
-0.147118
-0.121462
-0.374326
-0.353357
-0.335511
-0.309227
-0.27608
-0.239663
-0.203776
-0.170479
-0.141059
-0.114703
-0.381894
-0.360166
-0.340821
-0.311811
-0.275605
-0.236671
-0.199013
-0.164553
-0.134436
-0.107457
-0.388589
-0.366168
-0.345172
-0.313283
-0.274034
-0.232712
-0.193431
-0.15794
-0.127224
-0.0997059
-0.394226
-0.371183
-0.348382
-0.313507
-0.271283
-0.227732
-0.186993
-0.15061
-0.119397
-0.0914332
-0.398623
-0.375029
-0.350277
-0.312363
-0.26728
-0.221686
-0.179664
-0.142536
-0.110934
-0.0826239
-0.4016
-0.377526
-0.350695
-0.309742
-0.261961
-0.214533
-0.171413
-0.133692
-0.101817
-0.0732708
-0.402984
-0.378499
-0.349487
-0.30555
-0.25527
-0.206236
-0.162214
-0.124056
-0.0920325
-0.0633765
-0.402613
-0.377784
-0.346519
-0.299708
-0.247166
-0.196769
-0.152044
-0.113607
-0.0815656
-0.0529381
-0.400335
-0.375228
-0.34168
-0.292152
-0.237614
-0.18611
-0.140888
-0.102333
-0.0703993
-0.0419018
-0.396016
-0.370695
-0.334876
-0.282836
-0.226592
-0.174246
-0.128738
-0.0902313
-0.0585219
-0.0301364
-0.389539
-0.364069
-0.326035
-0.27173
-0.214088
-0.161173
-0.115591
-0.0773103
-0.0459507
-0.0175455
-0.380808
-0.355255
-0.315108
-0.258816
-0.200102
-0.146891
-0.101449
-0.0635701
-0.0327255
-0.00432318
-0.369747
-0.344181
-0.302064
-0.244097
-0.184643
-0.131411
-0.0863195
-0.0490125
-0.0188081
0.00921211
-0.356304
-0.330801
-0.286892
-0.227587
-0.167732
-0.114749
-0.0702268
-0.0337041
-0.00414877
0.0231198
-0.340449
-0.315091
-0.269604
-0.209315
-0.149397
-0.0969321
-0.0532151
-0.0176431
0.0111689
0.0374838
-0.322177
-0.297054
-0.250228
-0.189324
-0.129675
-0.0780066
-0.0353134
-0.000836247
0.027085
0.0523189
-0.301505
-0.276714
-0.228815
-0.167674
-0.108615
-0.0580257
-0.016544
0.0166807
0.0435641
0.0676028
-0.278474
-0.254121
-0.20544
-0.144433
-0.0862877
-0.0370131
0.00304595
0.034865
0.0605736
0.0832954
-0.253145
-0.229351
-0.180215
-0.119649
-0.0627499
-0.0150374
0.0234044
0.0536699
0.0780755
0.0993432
-0.225601
-0.202505
-0.153243
-0.0933706
-0.0380876
0.00783259
0.0444734
0.0730449
0.0960232
0.115676
-0.195953
-0.173723
-0.124485
-0.0657959
-0.0123754
0.0315247
0.0661895
0.0929362
0.114365
0.132215
-0.164332
-0.143173
-0.0939203
-0.0370809
0.014276
0.0559594
0.088484
0.113287
0.133054
0.148904
-0.130861
-0.110907
-0.0619069
-0.00724565
0.041764
0.0810497
0.111283
0.134043
0.152057
0.165697
-0.0956481
-0.0768266
-0.0289441
0.0235588
0.0699871
0.106704
0.134514
0.155165
0.171331
0.182385
-0.0588717
-0.0414146
0.00503311
0.0551862
0.0988355
0.132829
0.158111
0.176629
0.190755
0.19841
-0.0209043
-0.00469527
0.0399386
0.0874946
0.128191
0.159327
0.182017
0.1984
0.210124
0.213309
0.0182184
0.0330473
0.0756221
0.120342
0.15793
0.1861
0.206157
0.220345
0.229234
0.22811
0.0582906
0.0715919
0.111909
0.153581
0.187927
0.213044
0.230421
0.242217
0.247874
0.246386
0.0990875
0.110737
0.148614
0.187062
0.218054
0.240051
0.254678
0.263896
0.266787
0.265308
0.140386
0.150277
0.185552
0.22063
0.248182
0.267008
0.278823
0.285398
0.285858
0.283666
0.18196
0.190005
0.222535
0.254128
0.27818
0.293799
0.30276
0.306689
0.304909
0.301588
0.223583
0.229709
0.259375
0.287402
0.307915
0.320311
0.326398
0.3277
0.323755
0.319022
0.265027
0.269178
0.295888
0.320295
0.337256
0.346431
0.349645
0.34835
0.342279
0.335954
0.306066
0.308203
0.331888
0.352653
0.366073
0.372046
0.372408
0.368555
0.360385
0.35236
0.346474
0.346575
0.367197
0.384324
0.394236
0.397047
0.394597
0.388233
0.377995
0.368205
0.386031
0.38409
0.401637
0.415159
0.42162
0.421329
0.41612
0.407303
0.395039
0.383453
0.424519
0.420548
0.435037
0.445014
0.448102
0.444785
0.436889
0.425689
0.411451
0.398064
0.46173
0.455756
0.467229
0.473748
0.473563
0.467315
0.456819
0.443317
0.427168
0.411998
0.497459
0.489528
0.498056
0.501226
0.497888
0.488822
0.475826
0.460116
0.442132
0.425214
0.531513
0.521686
0.527363
0.52732
0.520968
0.509213
0.493832
0.47602
0.456287
0.437672
0.563706
0.55206
0.555006
0.551906
0.542699
0.528398
0.510761
0.490964
0.469577
0.449333
0.593865
0.580492
0.58085
0.57487
0.562983
0.546294
0.526542
0.504887
0.481951
0.460161
0.621825
0.606833
0.604765
0.596104
0.581727
0.562823
0.54111
0.517734
0.493362
0.470121
0.647437
0.630945
0.626636
0.615508
0.598848
0.577913
0.554403
0.529453
0.503766
0.47918
0.670561
0.652703
0.646354
0.632991
0.614267
0.591499
0.566365
0.539994
0.51312
0.487308
0.691073
0.671994
0.663824
0.648473
0.627916
0.603519
0.576946
0.549315
0.521388
0.49448
0.708864
0.688718
0.678959
0.66188
0.639731
0.613922
0.586099
0.557377
0.528538
0.500672
0.723837
0.702789
0.691687
0.673149
0.649661
0.622662
0.593788
0.564147
0.53454
0.505863
0.735913
0.714133
0.701944
0.682228
0.657659
0.629701
0.599978
0.569598
0.539371
0.510036
0.745027
0.722693
0.70968
0.689075
0.663689
0.635007
0.604644
0.573705
0.543011
0.513178
0.75113
0.728424
0.714859
0.693658
0.667725
0.638558
0.607765
0.576453
0.545446
0.515278
0.75419
0.731297
0.717455
0.695954
0.669747
0.640337
0.60933
0.57783
0.546666
0.51633
0.75419
0.731297
0.717455
0.695954
0.669747
0.640337
0.609329
0.57783
0.546666
0.51633
0.75113
0.728424
0.714859
0.693657
0.667724
0.638557
0.607765
0.576453
0.545446
0.515278
0.745026
0.722692
0.70968
0.689075
0.663689
0.635007
0.604643
0.573705
0.543011
0.513177
0.735912
0.714132
0.701943
0.682228
0.657658
0.6297
0.599977
0.569597
0.53937
0.510035
0.723836
0.702787
0.691686
0.673148
0.64966
0.622661
0.593787
0.564146
0.534539
0.505862
0.708862
0.688717
0.678958
0.661878
0.63973
0.613921
0.586098
0.557376
0.528537
0.500671
0.691071
0.671992
0.663822
0.648471
0.627914
0.603518
0.576944
0.549313
0.521387
0.494479
0.670559
0.652701
0.646352
0.63299
0.614265
0.591497
0.566364
0.539992
0.513118
0.487307
0.647434
0.630943
0.626634
0.615506
0.598846
0.577911
0.554402
0.529451
0.503764
0.479178
0.621823
0.606831
0.604763
0.596101
0.581725
0.562821
0.541108
0.517732
0.493361
0.470119
0.593862
0.58049
0.580847
0.574867
0.56298
0.546291
0.52654
0.504885
0.481949
0.460159
0.563703
0.552057
0.555004
0.551903
0.542696
0.528395
0.510758
0.490961
0.469574
0.449331
0.53151
0.521683
0.52736
0.527317
0.520965
0.50921
0.493829
0.476017
0.456284
0.437669
0.497456
0.489524
0.498052
0.501223
0.497885
0.488819
0.475823
0.460114
0.44213
0.425211
0.461726
0.455752
0.467226
0.473744
0.47356
0.467312
0.456816
0.443314
0.427165
0.411995
0.424515
0.420544
0.435033
0.44501
0.448099
0.444782
0.436886
0.425686
0.411448
0.398061
0.386026
0.384085
0.401633
0.415155
0.421616
0.421325
0.416117
0.4073
0.395036
0.38345
0.34647
0.34657
0.367193
0.38432
0.394232
0.397043
0.394593
0.388229
0.377992
0.368201
0.306061
0.308198
0.331884
0.352648
0.366068
0.372041
0.372404
0.368551
0.360381
0.352356
0.265022
0.269173
0.295883
0.32029
0.337252
0.346426
0.34964
0.348345
0.342275
0.33595
0.223578
0.229703
0.25937
0.287397
0.30791
0.320307
0.326393
0.327695
0.323751
0.319018
0.181954
0.189999
0.22253
0.254123
0.278175
0.293794
0.302755
0.306685
0.304904
0.301584
0.14038
0.150271
0.185547
0.220624
0.248177
0.267003
0.278818
0.285393
0.285854
0.283661
0.0990812
0.110731
0.148608
0.187056
0.218049
0.240046
0.254672
0.263891
0.266782
0.265303
0.0582839
0.0715853
0.111902
0.153575
0.187921
0.213039
0.230416
0.242212
0.247869
0.246382
0.0182114
0.0330404
0.0756154
0.120335
0.157924
0.186094
0.206152
0.22034
0.229229
0.228105
-0.0209116
-0.0047025
0.0399316
0.0874878
0.128185
0.159321
0.182011
0.198394
0.210119
0.213304
-0.0588794
-0.0414222
0.00502578
0.0551791
0.0988287
0.132822
0.158105
0.176623
0.19075
0.198405
-0.0956562
-0.0768345
-0.0289518
0.0235514
0.06998
0.106697
0.134507
0.155158
0.171325
0.182379
-0.130869
-0.110916
-0.061915
-0.00725334
0.0417566
0.0810426
0.111276
0.134037
0.152051
0.165691
-0.164341
-0.143182
-0.0939286
-0.037089
0.0142683
0.0559521
0.088477
0.11328
0.133048
0.148898
-0.195963
-0.173732
-0.124494
-0.0658042
-0.0123833
0.0315171
0.0661823
0.0929293
0.114358
0.132209
-0.225611
-0.202515
-0.153252
-0.0933793
-0.0380959
0.00782469
0.0444659
0.0730379
0.0960166
0.11567
-0.253155
-0.229361
-0.180225
-0.119658
-0.0627585
-0.0150456
0.0233966
0.0536626
0.0780687
0.0993368
-0.278484
-0.254131
-0.20545
-0.144443
-0.0862966
-0.0370216
0.00303794
0.0348575
0.0605666
0.0832889
-0.301516
-0.276725
-0.228825
-0.167684
-0.108624
-0.0580345
-0.0165522
0.0166729
0.0435568
0.0675961
-0.322188
-0.297065
-0.250239
-0.189334
-0.129685
-0.0780157
-0.035322
-0.000844269
0.0270776
0.052312
-0.340461
-0.315103
-0.269615
-0.209325
-0.149407
-0.0969415
-0.053224
-0.0176514
0.0111612
0.0374767
-0.356316
-0.330813
-0.286904
-0.227598
-0.167742
-0.114758
-0.0702359
-0.0337126
-0.00415666
0.0231126
-0.36976
-0.344193
-0.302076
-0.244108
-0.184654
-0.131421
-0.0863289
-0.0490212
-0.0188162
0.0092047
-0.380821
-0.355268
-0.315121
-0.258828
-0.200113
-0.146902
-0.101459
-0.0635791
-0.0327338
-0.00433076
-0.389553
-0.364083
-0.326048
-0.271742
-0.2141
-0.161183
-0.115601
-0.0773195
-0.0459592
-0.0175532
-0.39603
-0.370709
-0.334889
-0.282849
-0.226604
-0.174257
-0.128748
-0.0902409
-0.0585307
-0.0301444
-0.400349
-0.375242
-0.341694
-0.292165
-0.237626
-0.186121
-0.140898
-0.102343
-0.0704082
-0.0419099
-0.402628
-0.377799
-0.346534
-0.299721
-0.247179
-0.196781
-0.152055
-0.113617
-0.0815747
-0.0529463
-0.403
-0.378515
-0.349502
-0.305564
-0.255284
-0.206248
-0.162225
-0.124066
-0.0920419
-0.063385
-0.401616
-0.377542
-0.350711
-0.309757
-0.261974
-0.214545
-0.171424
-0.133702
-0.101827
-0.0732794
-0.398639
-0.375045
-0.350293
-0.312378
-0.267294
-0.221699
-0.179676
-0.142547
-0.110944
-0.0826327
-0.394243
-0.3712
-0.348398
-0.313523
-0.271298
-0.227746
-0.187005
-0.150621
-0.119407
-0.0914421
-0.388606
-0.366185
-0.345189
-0.313299
-0.274049
-0.232726
-0.193444
-0.157951
-0.127234
-0.099715
-0.381912
-0.360183
-0.340839
-0.311828
-0.275621
-0.236686
-0.199026
-0.164565
-0.134447
-0.107466
-0.374344
-0.353375
-0.335529
-0.309244
-0.276096
-0.239678
-0.203789
-0.170491
-0.141069
-0.114712
-0.36608
-0.345934
-0.329441
-0.305692
-0.275566
-0.24176
-0.207774
-0.175764
-0.14713
-0.121472
-0.357293
-0.338027
-0.322753
-0.301324
-0.274131
-0.242993
-0.211023
-0.180416
-0.152655
-0.127764
-0.348144
-0.329811
-0.315635
-0.296296
-0.271897
-0.243444
-0.21358
-0.184483
-0.157676
-0.13361
-0.338783
-0.321429
-0.308246
-0.290768
-0.268978
-0.243184
-0.215494
-0.187999
-0.162222
-0.139032
-0.329346
-0.313008
-0.300729
-0.284893
-0.265493
-0.242288
-0.21681
-0.190999
-0.166322
-0.144055
-0.319953
-0.304662
-0.293208
-0.278817
-0.261564
-0.240833
-0.217578
-0.193518
-0.170007
-0.148706
-0.310709
-0.296486
-0.28579
-0.272673
-0.257315
-0.238904
-0.217848
-0.195591
-0.173303
-0.153009
-0.3017
-0.288557
-0.278566
-0.266575
-0.252866
-0.236587
-0.217673
-0.19725
-0.176237
-0.156991
-0.292999
-0.280938
-0.271608
-0.260617
-0.248332
-0.233972
-0.217106
-0.19853
-0.178832
-0.160678
-0.284663
-0.273674
-0.26497
-0.254873
-0.243817
-0.231148
-0.216205
-0.199464
-0.18111
-0.164097
-0.276735
-0.266796
-0.258694
-0.2494
-0.239408
-0.228207
-0.215028
-0.200085
-0.183087
-0.167274
-0.269243
-0.260325
-0.252803
-0.244236
-0.235173
-0.225235
-0.213639
-0.200432
-0.184778
-0.170236
-0.262208
-0.254267
-0.247312
-0.239408
-0.231161
-0.222307
-0.212103
-0.200543
-0.186192
-0.173012
-0.255637
-0.248624
-0.24222
-0.234931
-0.227404
-0.219487
-0.210483
-0.200461
-0.187339
-0.175632
-0.249532
-0.243389
-0.237521
-0.230807
-0.223921
-0.216821
-0.208843
-0.200233
-0.188223
-0.178126
-0.243884
-0.238549
-0.233201
-0.227031
-0.220722
-0.21434
-0.207235
-0.199909
-0.18885
-0.180524
-0.23868
-0.234088
-0.229242
-0.223591
-0.217807
-0.212061
-0.205701
-0.199537
-0.189229
-0.182855
-0.233902
-0.229985
-0.22562
-0.220468
-0.215171
-0.209993
-0.204269
-0.19916
-0.189376
-0.185135
-0.229528
-0.22622
-0.222312
-0.217639
-0.212802
-0.208136
-0.202953
-0.198808
-0.189318
-0.187362
-0.22553
-0.222767
-0.219293
-0.21508
-0.210681
-0.206481
-0.20176
-0.198494
-0.189102
-0.189495
-0.221881
-0.219601
-0.216535
-0.212762
-0.208787
-0.205014
-0.200696
-0.198208
-0.188808
-0.19142
-0.21855
-0.216697
-0.214012
-0.210659
-0.20709
-0.203711
-0.199767
-0.197896
-0.188538
-0.193272
-0.215504
-0.214028
-0.211697
-0.208742
-0.205564
-0.202545
-0.198975
-0.197436
-0.188515
-0.193196
-0.212712
-0.211569
-0.209565
-0.206983
-0.204176
-0.201489
-0.198303
-0.196768
-0.189203
-0.181186
-0.210142
-0.209297
-0.20759
-0.205358
-0.2029
-0.200518
-0.197717
-0.19594
-0.190314
-0.176859
-0.207771
-0.207186
-0.205752
-0.203843
-0.201711
-0.199611
-0.197178
-0.19514
-0.191413
-0.176671
-0.205569
-0.205217
-0.204028
-0.202419
-0.200586
-0.198747
-0.196649
-0.194443
-0.192127
-0.177205
-0.203512
-0.203366
-0.202409
-0.201068
-0.199511
-0.197913
-0.196106
-0.193844
-0.192439
-0.177949
-0.201581
-0.201624
-0.200876
-0.199779
-0.198473
-0.197097
-0.195542
-0.193326
-0.19247
-0.179012
-0.199758
-0.199976
-0.199415
-0.198543
-0.197464
-0.196294
-0.194961
-0.192872
-0.192329
-0.180317
-0.19803
-0.198413
-0.198021
-0.197351
-0.196481
-0.195502
-0.19437
-0.192463
-0.192099
-0.181699
-0.196386
-0.196926
-0.196687
-0.196201
-0.195521
-0.194721
-0.193779
-0.192079
-0.191836
-0.183033
-0.19482
-0.195509
-0.19541
-0.195091
-0.194583
-0.193953
-0.19319
-0.191701
-0.191583
-0.184236
-0.193326
-0.19416
-0.194188
-0.19402
-0.193671
-0.193199
-0.192594
-0.19133
-0.191363
-0.185253
-0.191901
-0.192876
-0.19302
-0.19299
-0.192785
-0.192462
-0.192005
-0.191012
-0.191118
-0.18606
-0.190547
-0.191658
-0.191907
-0.192002
-0.19193
-0.191743
-0.191428
-0.190698
-0.190773
-0.186755
-0.189265
-0.190507
-0.190853
-0.191061
-0.191108
-0.191047
-0.190864
-0.190362
-0.190387
-0.187415
-0.188059
-0.189428
-0.18986
-0.19017
-0.190325
-0.190377
-0.190317
-0.19001
-0.190036
-0.187921
-0.186933
-0.188422
-0.188934
-0.189335
-0.189586
-0.18974
-0.18979
-0.18965
-0.189708
-0.188232
-0.185892
-0.187496
-0.188078
-0.188561
-0.188896
-0.18914
-0.189289
-0.189288
-0.189394
-0.188399
-0.184945
-0.186653
-0.187299
-0.187853
-0.188262
-0.188584
-0.188819
-0.188934
-0.189094
-0.188466
-0.184096
-0.185901
-0.186601
-0.187217
-0.18769
-0.188079
-0.188388
-0.188596
-0.188813
-0.188465
-0.183353
-0.185244
-0.185991
-0.186659
-0.187186
-0.18763
-0.188001
-0.188286
-0.188554
-0.188419
-0.182723
-0.184687
-0.185474
-0.186185
-0.186755
-0.187245
-0.187666
-0.188011
-0.188326
-0.188351
-0.18221
-0.184235
-0.185053
-0.185799
-0.186404
-0.18693
-0.18739
-0.187781
-0.188133
-0.188276
-0.181822
-0.183892
-0.184734
-0.185505
-0.186136
-0.186688
-0.187177
-0.187601
-0.187982
-0.188209
-0.18156
-0.183662
-0.184519
-0.185307
-0.185955
-0.186524
-0.187033
-0.187478
-0.187879
-0.188158
-0.181428
-0.183546
-0.184411
-0.185208
-0.185863
-0.186442
-0.186959
-0.187416
-0.187826
-0.188131
-0.18871
-0.188897
-0.189303
-0.189526
-0.189777
-0.189918
-0.189981
-0.189901
-0.189653
-0.189186
-0.188452
-0.187398
-0.185946
-0.184047
-0.181557
-0.178474
-0.174482
-0.169797
-0.16366
-0.15694
-0.147836
-0.138647
-0.125907
-0.113655
-0.097754
-0.0811088
-0.0652732
-0.0416472
-0.031965
0.000902577
-0.188776
-0.188933
-0.189344
-0.189561
-0.189813
-0.189954
-0.190017
-0.189939
-0.189693
-0.189229
-0.188498
-0.187447
-0.185998
-0.184102
-0.181614
-0.178532
-0.174547
-0.169843
-0.163699
-0.156971
-0.147858
-0.138659
-0.125904
-0.113655
-0.0977492
-0.0811194
-0.065295
-0.0416847
-0.0320213
0.00089761
-0.188905
-0.189003
-0.189424
-0.18963
-0.189882
-0.190022
-0.190086
-0.190009
-0.189765
-0.189304
-0.188576
-0.187529
-0.186084
-0.184192
-0.181707
-0.178628
-0.174638
-0.16993
-0.163782
-0.15705
-0.147922
-0.138719
-0.125946
-0.113702
-0.0977844
-0.0811712
-0.0653511
-0.0417531
-0.0321054
0.00089397
-0.189096
-0.189102
-0.189539
-0.189729
-0.189981
-0.19012
-0.190185
-0.190109
-0.189867
-0.189409
-0.188684
-0.187642
-0.186202
-0.184316
-0.181834
-0.17876
-0.174768
-0.170064
-0.163906
-0.157174
-0.148028
-0.138826
-0.12603
-0.113795
-0.0978587
-0.081263
-0.0654405
-0.0418514
-0.0322169
0.000847311
-0.189342
-0.189226
-0.189687
-0.189855
-0.190108
-0.190244
-0.190309
-0.190235
-0.189996
-0.18954
-0.18882
-0.187782
-0.186348
-0.184469
-0.181992
-0.178924
-0.174933
-0.170244
-0.164069
-0.157339
-0.148174
-0.138976
-0.126154
-0.113931
-0.0979701
-0.0813925
-0.0655615
-0.0419781
-0.0323594
0.000753458
-0.18964
-0.189367
-0.18986
-0.190004
-0.190256
-0.19039
-0.190456
-0.190383
-0.190146
-0.189695
-0.188978
-0.187947
-0.186519
-0.184648
-0.182178
-0.179119
-0.175127
-0.17044
-0.164264
-0.157541
-0.148357
-0.139167
-0.126315
-0.114107
-0.0981162
-0.0815566
-0.0657118
-0.0421299
-0.0325316
0.000644613
-0.189985
-0.189517
-0.190054
-0.190168
-0.190422
-0.190553
-0.19062
-0.190549
-0.190314
-0.189867
-0.189156
-0.188131
-0.18671
-0.184849
-0.182386
-0.179338
-0.175347
-0.170656
-0.16449
-0.157776
-0.148572
-0.139393
-0.126509
-0.114319
-0.098294
-0.0817517
-0.0658889
-0.0422983
-0.0326933
0.000488633
-0.19037
-0.189667
-0.19026
-0.190343
-0.190598
-0.190727
-0.190794
-0.190726
-0.190494
-0.190052
-0.189346
-0.18833
-0.186917
-0.185067
-0.182613
-0.179577
-0.175589
-0.170951
-0.164741
-0.158039
-0.148815
-0.139651
-0.126732
-0.114562
-0.0985001
-0.0819737
-0.066094
-0.0424777
-0.0328744
0.000317169
-0.190795
-0.189807
-0.190472
-0.190521
-0.190777
-0.190906
-0.190974
-0.190908
-0.190681
-0.190244
-0.189545
-0.188538
-0.187134
-0.185297
-0.182852
-0.179831
-0.175846
-0.171211
-0.165011
-0.158324
-0.14908
-0.139933
-0.126981
-0.11483
-0.0987308
-0.0822158
-0.0663279
-0.0426965
-0.0330438
0.000134218
-0.191259
-0.189929
-0.190681
-0.190698
-0.190954
-0.191084
-0.191153
-0.19109
-0.190867
-0.190437
-0.189746
-0.188749
-0.187355
-0.185533
-0.183099
-0.180095
-0.176115
-0.1715
-0.165296
-0.158626
-0.149364
-0.140235
-0.127249
-0.115119
-0.098982
-0.0824705
-0.0665624
-0.0429414
-0.0332244
-6.42637e-05
-0.191779
-0.19002
-0.190881
-0.190866
-0.191121
-0.191253
-0.191323
-0.191265
-0.191047
-0.190625
-0.189942
-0.188957
-0.187576
-0.18577
-0.183348
-0.180362
-0.17639
-0.171795
-0.165589
-0.158939
-0.149659
-0.140552
-0.127532
-0.115424
-0.0992495
-0.0827531
-0.0668026
-0.043186
-0.0334087
-0.000279184
-0.192382
-0.190061
-0.191069
-0.191018
-0.191272
-0.191407
-0.191479
-0.191426
-0.191215
-0.190801
-0.190129
-0.189158
-0.187789
-0.186001
-0.183594
-0.180628
-0.176662
-0.172091
-0.165886
-0.159258
-0.149961
-0.140878
-0.127823
-0.115738
-0.0995305
-0.0830388
-0.0670613
-0.0434338
-0.0335884
-0.00050981
-0.192958
-0.190083
-0.191244
-0.19115
-0.1914
-0.191539
-0.191614
-0.191567
-0.191363
-0.190961
-0.1903
-0.189344
-0.18799
-0.186222
-0.18383
-0.180885
-0.176917
-0.172384
-0.16618
-0.159579
-0.150262
-0.141205
-0.128125
-0.116051
-0.0998209
-0.0833252
-0.0673294
-0.0436865
-0.0337593
-0.000755376
-0.193337
-0.190251
-0.191313
-0.191272
-0.191499
-0.191644
-0.191722
-0.191682
-0.191487
-0.191097
-0.190449
-0.189509
-0.188173
-0.186428
-0.184049
-0.18113
-0.177193
-0.172667
-0.166467
-0.159888
-0.150566
-0.141526
-0.128428
-0.116364
-0.100116
-0.0836102
-0.0676011
-0.0439418
-0.033918
-0.00101524
-0.193754
-0.190382
-0.19136
-0.191364
-0.191564
-0.191714
-0.191795
-0.191763
-0.191578
-0.191202
-0.19057
-0.18965
-0.188331
-0.186608
-0.184252
-0.181354
-0.177464
-0.172934
-0.166742
-0.160188
-0.15086
-0.141841
-0.128727
-0.11667
-0.100413
-0.0838896
-0.0678731
-0.0441975
-0.0340616
-0.00128881
-0.19421
-0.190481
-0.191383
-0.191417
-0.191588
-0.191743
-0.191827
-0.191804
-0.191632
-0.191271
-0.190658
-0.189759
-0.188461
-0.186762
-0.184428
-0.181557
-0.177671
-0.173182
-0.166999
-0.160472
-0.151139
-0.142141
-0.129018
-0.116965
-0.100708
-0.0841594
-0.0681424
-0.0444515
-0.0341875
-0.0015755
-0.194677
-0.190576
-0.19137
-0.191429
-0.191566
-0.191723
-0.191812
-0.1918
-0.191642
-0.1913
-0.190706
-0.189831
-0.188556
-0.186884
-0.184572
-0.181723
-0.17786
-0.173405
-0.167232
-0.160734
-0.151401
-0.142423
-0.129298
-0.117242
-0.100998
-0.084416
-0.0684059
-0.0447024
-0.0342935
-0.00187474
-0.195141
-0.190679
-0.191319
-0.191394
-0.191491
-0.191648
-0.191742
-0.191742
-0.191601
-0.191281
-0.190709
-0.18986
-0.18861
-0.186968
-0.18468
-0.181801
-0.178016
-0.173598
-0.167438
-0.160969
-0.151641
-0.142682
-0.129564
-0.117499
-0.101279
-0.0846563
-0.0686607
-0.0449486
-0.0343778
-0.00218602
-0.195578
-0.190787
-0.191233
-0.191306
-0.191354
-0.191508
-0.191609
-0.191625
-0.191503
-0.191207
-0.190661
-0.189841
-0.188619
-0.187009
-0.184749
-0.182055
-0.178138
-0.173756
-0.167612
-0.161173
-0.151855
-0.142912
-0.12981
-0.11773
-0.101549
-0.0848774
-0.0689042
-0.0451888
-0.034439
-0.00250884
-0.195958
-0.190889
-0.191106
-0.191153
-0.191144
-0.191293
-0.191405
-0.191439
-0.191341
-0.191072
-0.190556
-0.189768
-0.188576
-0.187001
-0.184766
-0.182049
-0.178216
-0.173874
-0.167748
-0.161341
-0.152038
-0.143111
-0.130035
-0.117933
-0.101805
-0.0850766
-0.0691335
-0.0454216
-0.0344757
-0.00284268
-0.196235
-0.190936
-0.190924
-0.190919
-0.190847
-0.190993
-0.191121
-0.191177
-0.191106
-0.19087
-0.190386
-0.189635
-0.188476
-0.186938
-0.18473
-0.182049
-0.178251
-0.173946
-0.167843
-0.161468
-0.152187
-0.143271
-0.130234
-0.118103
-0.102042
-0.0852504
-0.0693451
-0.0456453
-0.0344865
-0.00318686
-0.196299
-0.190851
-0.190675
-0.190598
-0.190459
-0.190603
-0.190752
-0.190836
-0.190797
-0.190597
-0.190149
-0.189436
-0.188314
-0.186816
-0.184631
-0.182
-0.178233
-0.173968
-0.167892
-0.161549
-0.152297
-0.143391
-0.130404
-0.118236
-0.102258
-0.085398
-0.0695389
-0.0458593
-0.0344729
-0.00354074
-0.196189
-0.190641
-0.190367
-0.190189
-0.189974
-0.190114
-0.19029
-0.190405
-0.190401
-0.190242
-0.189834
-0.189166
-0.188084
-0.186632
-0.184456
-0.181886
-0.17816
-0.17394
-0.167896
-0.16159
-0.152375
-0.14348
-0.130555
-0.118346
-0.102468
-0.085529
-0.0697262
-0.0460688
-0.0344421
-0.00390515
-0.196332
-0.190214
-0.18989
-0.189602
-0.189306
-0.189447
-0.189663
-0.189825
-0.189869
-0.189763
-0.189408
-0.188795
-0.187764
-0.186371
-0.184328
-0.18171
-0.178032
-0.173867
-0.167863
-0.161601
-0.152433
-0.143548
-0.130701
-0.118441
-0.102679
-0.085651
-0.0699098
-0.0462793
-0.0343916
-0.00428322
-0.194169
-0.188236
-0.188861
-0.188621
-0.18831
-0.188509
-0.188813
-0.189057
-0.189176
-0.189142
-0.188855
-0.188308
-0.187337
-0.186
-0.183955
-0.181443
-0.177817
-0.173697
-0.167736
-0.161498
-0.152387
-0.143487
-0.130735
-0.118408
-0.102774
-0.0856741
-0.0699816
-0.0464477
-0.0342541
-0.00467077
-0.179218
-0.183257
-0.187345
-0.187465
-0.187177
-0.187453
-0.187865
-0.188195
-0.188386
-0.188417
-0.188193
-0.187702
-0.186792
-0.185524
-0.183569
-0.180991
-0.177379
-0.173244
-0.167325
-0.161044
-0.152016
-0.143033
-0.130435
-0.117998
-0.10256
-0.0854334
-0.0697842
-0.0465556
-0.033872
-0.00520865
-0.176016
-0.179921
-0.18467
-0.185007
-0.184694
-0.185084
-0.185698
-0.186196
-0.186513
-0.186654
-0.186524
-0.186114
-0.18526
-0.18401
-0.182036
-0.179587
-0.17603
-0.171922
-0.166066
-0.159781
-0.150886
-0.141853
-0.129509
-0.116989
-0.101887
-0.0847811
-0.0692825
-0.046493
-0.033284
-0.00584156
-0.173321
-0.176139
-0.180361
-0.181169
-0.181137
-0.181739
-0.18261
-0.183344
-0.183847
-0.184149
-0.184158
-0.183871
-0.183114
-0.18195
-0.180068
-0.177674
-0.17417
-0.1701
-0.164328
-0.158057
-0.149324
-0.140267
-0.128216
-0.115652
-0.100924
-0.0839014
-0.0685744
-0.0463135
-0.0325954
-0.00644256
-0.169371
-0.171338
-0.174509
-0.175812
-0.17636
-0.177308
-0.178486
-0.179518
-0.180278
-0.180804
-0.181009
-0.180899
-0.180293
-0.179266
-0.177505
-0.175203
-0.171792
-0.167789
-0.162142
-0.155909
-0.147385
-0.138328
-0.126613
-0.114049
-0.0997155
-0.0828528
-0.0676839
-0.0460574
-0.0318205
-0.0070082
-0.16315
-0.165273
-0.167508
-0.169105
-0.170331
-0.171743
-0.17327
-0.17464
-0.175709
-0.176514
-0.176969
-0.177087
-0.176684
-0.175837
-0.174237
-0.17208
-0.168812
-0.16491
-0.159438
-0.153277
-0.145012
-0.135998
-0.124659
-0.112158
-0.098233
-0.0816242
-0.0666017
-0.0457099
-0.0309741
-0.00751536
-0.154807
-0.157858
-0.159622
-0.161363
-0.163206
-0.165147
-0.167058
-0.168775
-0.170177
-0.17129
-0.17203
-0.172411
-0.17225
-0.17162
-0.170224
-0.168243
-0.165186
-0.161422
-0.156176
-0.15013
-0.142171
-0.133257
-0.122326
-0.109971
-0.0964594
-0.0802074
-0.0653277
-0.0452539
-0.0300763
-0.00794165
-0.14509
-0.149244
-0.151048
-0.15293
-0.155268
-0.157732
-0.160046
-0.162107
-0.163836
-0.165263
-0.166297
-0.166956
-0.167059
-0.16667
-0.165513
-0.163747
-0.160933
-0.157344
-0.152368
-0.146484
-0.13887
-0.130122
-0.119619
-0.107501
-0.0944021
-0.0786072
-0.0638775
-0.0446795
-0.0291506
-0.0082707
-0.134595
-0.139746
-0.141965
-0.144085
-0.146813
-0.149741
-0.152457
-0.154854
-0.156895
-0.15862
-0.159945
-0.160878
-0.161251
-0.16111
-0.160211
-0.158672
-0.156131
-0.152753
-0.148076
-0.142398
-0.135153
-0.126639
-0.116571
-0.104779
-0.0920893
-0.0768374
-0.0622783
-0.0439822