/*--------------------------------*- C++ -*----------------------------------*\
  =========                 |
  \\      /  F ield         | OpenFOAM: The Open Source CFD Toolbox
   \\    /   O peration     | Website:  https://openfoam.org
    \\  /    A nd           | Version:  7
     \\/     M anipulation  |
\*---------------------------------------------------------------------------*/
FoamFile
{
    version     2.0;
    format      ascii;
    class       volVectorField;
    location    "40";
    object      U;
}
// * * * * * * * * * * * * * * * * * * * * * * * * * * * * * * * * * * * * * //

dimensions      [0 1 -1 0 0 0 0];

internalField   nonuniform List<vector> 
9950
(
(-0.00118108 0.000871435 -1.15566e-20)
(-0.00691442 0.00200142 2.18757e-21)
(-0.0176258 0.00267258 5.83158e-21)
(-0.0301617 0.00300169 -3.10075e-21)
(-0.0435832 0.0030755 1.71442e-21)
(-0.0569292 0.00297947 1.88009e-20)
(-0.0696127 0.00279144 -2.25795e-21)
(-0.0813747 0.00258335 -2.75777e-22)
(-0.0922888 0.00241951 -1.88237e-21)
(-0.102476 0.00233939 6.15547e-21)
(-0.00128116 0.002597 3.17423e-20)
(-0.00711683 0.00596003 3.64756e-21)
(-0.0178416 0.00795171 1.44341e-21)
(-0.0303323 0.00892119 2.89674e-20)
(-0.0436598 0.00912767 -4.84907e-20)
(-0.0568705 0.00882586 -1.57707e-20)
(-0.0693799 0.00824758 1.20848e-20)
(-0.0809277 0.00760737 1.41474e-21)
(-0.0915933 0.0070985 1.74091e-20)
(-0.10146 0.00683988 -2.8799e-20)
(-0.00147963 0.00429515 -4.02715e-20)
(-0.00751874 0.0098606 3.06812e-20)
(-0.0182707 0.0131575 -2.06495e-20)
(-0.0306717 0.0147603 -5.94483e-20)
(-0.043812 0.0150963 2.90966e-20)
(-0.0567531 0.0145862 -4.36774e-20)
(-0.0689149 0.0136132 -3.48322e-20)
(-0.0800344 0.0125342 6.12534e-21)
(-0.0902033 0.0116749 -3.30741e-21)
(-0.0994233 0.0112371 2.79865e-20)
(-0.00177331 0.0059484 5.58022e-20)
(-0.00811451 0.0136658 -8.25887e-20)
(-0.0189075 0.0182426 -5.8301e-21)
(-0.0311752 0.0204666 9.37557e-21)
(-0.0440363 0.0209269 1.00887e-20)
(-0.0565742 0.020204 7.35397e-20)
(-0.0682154 0.018829 4.97829e-20)
(-0.0786912 0.0172998 4.81602e-20)
(-0.0881145 0.0160804 -5.58563e-21)
(-0.0963544 0.0154621 9.4309e-22)
(-0.00215759 0.00754039 -8.97927e-20)
(-0.00889585 0.0173401 6.22208e-20)
(-0.0197438 0.0231611 -6.95848e-20)
(-0.0318356 0.0259894 3.35111e-20)
(-0.0443267 0.0265662 4.79122e-20)
(-0.0563289 0.0256243 -7.37909e-20)
(-0.0672766 0.0238366 4.00662e-20)
(-0.0768911 0.0218406 -1.48322e-19)
(-0.0853187 0.0202469 -8.30462e-20)
(-0.0922293 0.0194449 7.90914e-21)
(-0.00262657 0.00905622 5.43002e-20)
(-0.00985199 0.0208506 5.13144e-20)
(-0.0207685 0.0278699 5.21352e-20)
(-0.0326428 0.0312798 -6.40176e-21)
(-0.0446743 0.031963 5.22525e-20)
(-0.0560088 0.0307939 8.00303e-21)
(-0.0660902 0.0285796 6.08773e-20)
(-0.0746219 0.0260948 8.50092e-20)
(-0.081802 0.0241065 1.35926e-19)
(-0.0870103 0.0231147 -3.15384e-20)
(-0.0031733 0.0104828 -2.74134e-21)
(-0.0109699 0.024167 -2.08552e-20)
(-0.0219678 0.0323286 5.59992e-20)
(-0.0335835 0.036292 4.30759e-20)
(-0.0450664 0.0370683 1.38305e-22)
(-0.0556015 0.0356619 -1.17385e-19)
(-0.0646423 0.033004 -6.23099e-20)
(-0.0718639 0.0300024 1.63957e-20)
(-0.077542 0.0275915 -7.30222e-21)
(-0.0806409 0.0263992 -2.0604e-19)
(-0.00378998 0.0118089 1.10197e-19)
(-0.0122345 0.0272629 -1.38591e-19)
(-0.0233249 0.0365004 6.92667e-20)
(-0.0346406 0.040983 -7.11883e-21)
(-0.0454856 0.0418362 9.51387e-20)
(-0.055088 0.0401808 1.49343e-19)
(-0.0629112 0.0370595 1.31174e-21)
(-0.068586 0.0335069 -1.66647e-22)
(-0.0725044 0.0306358 -1.90873e-19)
(-0.0730382 0.0292249 2.60135e-19)
(-0.00446821 0.0130257 -1.02633e-19)
(-0.0136291 0.030115 1.24045e-19)
(-0.0248203 0.0403521 -1.33942e-20)
(-0.0357929 0.0453131 7.09609e-20)
(-0.0459083 0.0462241 -2e-19)
(-0.054441 0.0443068 1.64543e-20)
(-0.0608642 0.0407 9.59083e-20)
(-0.0647411 0.0365572 -9.01176e-20)
(-0.066637 0.0331751 2.76031e-19)
(-0.0640852 0.0315179 1.07937e-19)
(-0.00519928 0.0141264 -4.25067e-20)
(-0.0151352 0.0327043 -1.45184e-21)
(-0.0264313 0.0438544 -1.59513e-21)
(-0.0370137 0.0492467 -1.76478e-19)
(-0.0463032 0.0501932 -3.18336e-20)
(-0.0536223 0.0480006 -1.59375e-19)
(-0.0584533 0.0438858 -2.06984e-19)
(-0.0602607 0.0391102 4.3435e-20)
(-0.0598636 0.0351496 -7.8096e-20)
(-0.0536223 0.0332091 -1.80534e-19)
(-0.00597439 0.0151064 1.25714e-19)
(-0.0167334 0.0350155 1.12679e-19)
(-0.0281319 0.0469823 1.63017e-19)
(-0.0382706 0.0527514 -2.07065e-19)
(-0.0466295 0.0537084 7.19101e-20)
(-0.0525793 0.051228 -1.31284e-20)
(-0.0556101 0.0465842 1.57564e-20)
(-0.0550468 0.0411336 7.46502e-20)
(-0.0520718 0.0365067 2.00123e-19)
(-0.0414454 0.0342633 4.00164e-20)
(-0.00678486 0.0159634 -2.13932e-19)
(-0.0184029 0.0370367 5.52298e-22)
(-0.0298925 0.0497142 -6.71765e-20)
(-0.0395243 0.0557991 1.2645e-19)
(-0.0468349 0.0567386 2.29969e-20)
(-0.0512414 0.0539602 -7.22625e-21)
(-0.0522402 0.048771 1.67744e-19)
(-0.0489634 0.042608 -1.48841e-19)
(-0.0430842 0.0371925 -1.30841e-19)
(-0.027324 0.0347329 -2.30028e-19)
(-0.00762234 0.0166969 2.49012e-19)
(-0.0201221 0.0387599 -1.89228e-19)
(-0.0316798 0.0520325 -2.81429e-19)
(-0.0407274 0.0583646 1.87935e-20)
(-0.0468533 0.0592567 -1.06734e-19)
(-0.0495165 0.0561741 1.40215e-19)
(-0.0482173 0.0504321 -2.92925e-19)
(-0.041834 0.0435308 -1.0128e-19)
(-0.0326001 0.0371258 -1.27858e-19)
(-0.0109703 0.0346938 1.74945e-19)
(-0.00847896 0.0173079 8.88672e-20)
(-0.0218683 0.0401799 2.35864e-19)
(-0.0334562 0.053923 1.79668e-19)
(-0.0418232 0.0604267 7.84828e-20)
(-0.0466024 0.0612391 -7.83294e-20)
(-0.047287 0.0578524 1.82838e-19)
(-0.0433762 0.0515657 4.50688e-19)
(-0.0334604 0.0439344 1.91241e-19)
(-0.020228 0.0362841 2.5456e-20)
(0.00815283 0.0340847 3.35446e-20)
(-0.00934743 0.0177992 -1.65373e-19)
(-0.0236178 0.0412942 -3.66832e-19)
(-0.0351792 0.0553745 -1.04385e-19)
(-0.0427449 0.0619667 1.10189e-19)
(-0.0459818 0.0626655 2.24586e-19)
(-0.0444045 0.0589824 1.05016e-19)
(-0.0374949 0.0521816 -4.00762e-19)
(-0.0235822 0.0438833 8.19925e-21)
(-0.00560486 0.0348016 3.61667e-19)
(0.0308502 0.0328809 1.55004e-19)
(-0.0102211 0.0181745 2.12928e-19)
(-0.0253459 0.0421026 1.8442e-19)
(-0.036801 0.0563785 -1.62139e-19)
(-0.0434137 0.062969 -6.26174e-20)
(-0.0448704 0.0635181 -9.16542e-20)
(-0.0406891 0.0595547 -2.99626e-19)
(-0.0302919 0.0522945 4.73514e-19)
(-0.0117993 0.0434133 -1.31508e-19)
(0.0116981 0.0328406 -2.87552e-19)
(0.0578749 0.0313089 1.57868e-19)
(-0.0110937 0.0184384 -4.70635e-19)
(-0.0270262 0.0426068 2.30255e-19)
(-0.0382674 0.0569295 2.16859e-19)
(-0.043738 0.063421 6.38486e-20)
(-0.0431246 0.0637825 6.7809e-20)
(-0.0359276 0.0595633 -1.83735e-19)
(-0.0214554 0.0519305 -1.7509e-19)
(0.00237804 0.0425781 -5.89641e-20)
(0.0323447 0.0304913 1.58018e-19)
(0.0899906 0.0297946 -1.52264e-19)
(-0.0119597 0.0185961 3.8339e-19)
(-0.0286302 0.0428097 -2.41602e-20)
(-0.039517 0.057024 5.9738e-20)
(-0.0436112 0.0633135 -3.10928e-20)
(-0.0405756 0.0634483 1.41919e-19)
(-0.0298644 0.0590065 -5.00667e-20)
(-0.0106183 0.0511268 -2.93144e-19)
(0.0194542 0.0414976 2.00682e-19)
(0.0571595 0.02786 -6.75203e-21)
(0.127985 0.0288658 -4.59689e-19)
(-0.0128135 0.0186527 -9.99375e-20)
(-0.0301265 0.0427153 -9.30243e-20)
(-0.0404796 0.0566616 -1.63033e-19)
(-0.0429107 0.0626418 -9.30466e-20)
(-0.0370288 0.0625102 -1.8136e-19)
(-0.0222043 0.0578866 -1.77679e-19)
(0.00265654 0.0499181 2.21551e-19)
(0.0399822 0.0402955 -3.27767e-19)
(0.0870774 0.0251428 1.30431e-19)
(0.172495 0.0291363 4.78234e-19)
(-0.0136494 0.0186134 -3.5986e-20)
(-0.0314799 0.0423283 -6.28478e-20)
(-0.0410745 0.0558446 1.77777e-19)
(-0.0414952 0.0614078 1.78753e-19)
(-0.0322604 0.0609714 -3.62476e-21)
(-0.012614 0.0562163 -5.46674e-20)
(0.0188603 0.0483512 1.69912e-19)
(0.064563 0.0390778 -4.95932e-20)
(0.123136 0.0226407 -8.4055e-20)
(0.223779 0.0312215 1.17302e-19)
(-0.0144609 0.0184825 1.49537e-19)
(-0.0326496 0.0416534 8.17412e-20)
(-0.0412098 0.0545809 -3.1426e-20)
(-0.039202 0.059621 -2.79798e-20)
(-0.0260156 0.0588476 1.19323e-19)
(-0.000718783 0.054023 4.89952e-19)
(0.0385287 0.0464938 -1.60054e-19)
(0.0938242 0.0379309 5.58999e-20)
(0.166419 0.0208029 -2.05795e-19)
(0.281464 0.0355918 -5.85154e-19)
(-0.0152402 0.0182632 1.2126e-20)
(-0.0335869 0.0406951 -3.03045e-19)
(-0.0407796 0.0528838 -9.96916e-20)
(-0.0358453 0.057301 -1.2283e-19)
(-0.0180058 0.0561725 -3.97974e-19)
(0.0138975 0.0513584 -5.85696e-20)
(0.0622301 0.044444 1.1739e-19)
(0.128408 0.0369175 -3.33908e-19)
(0.217901 0.0203079 2.04849e-19)
(0.344266 0.0425246 1.61689e-19)
(-0.015978 0.0179578 2.92409e-19)
(-0.0342369 0.0394617 5.43569e-20)
(-0.0396584 0.0507684 -8.09371e-22)
(-0.0312143 0.0544807 9.66388e-20)
(-0.00790777 0.0530025 3.65762e-19)
(0.0316912 0.048308 9.71422e-20)
(0.0905477 0.0423411 -1.16232e-19)
(0.168988 0.0360841 4.59823e-20)
(0.278199 0.0221418 1.65352e-19)
(0.409761 0.0522081 -1.88042e-19)
(-0.0166611 0.0175675 -1.45809e-19)
(-0.0345356 0.0379597 9.82743e-20)
(-0.037704 0.048256 1.09339e-19)
(-0.0250697 0.0512092 -2.58407e-19)
(0.00463541 0.0494216 -1.23421e-19)
(0.053152 0.0450002 -1.92071e-19)
(0.124049 0.0403666 -1.50948e-19)
(0.216299 0.0355093 -1.42452e-19)
(0.347345 0.0274999 3.9284e-19)
(0.4751 0.063928 5.28253e-19)
(-0.0172703 0.0170892 -1.57254e-19)
(-0.0344056 0.0361946 -7.26928e-20)
(-0.0347567 0.045378 3.17514e-20)
(-0.0171462 0.0475527 1.18173e-20)
(0.0200097 0.0455442 2.25637e-19)
(0.078786 0.0416122 2.48315e-19)
(0.163228 0.0387356 2.85193e-19)
(0.271033 0.0354488 7.72344e-20)
(0.424436 0.0370922 -5.99743e-19)
(0.540437 0.0727726 -4.21e-20)
(-0.0177811 0.0165199 4.93339e-19)
(-0.0337555 0.034174 8.81032e-20)
(-0.0306367 0.0421722 -7.78974e-20)
(-0.00715404 0.0435946 -1.17254e-21)
(0.0386214 0.0415167 -2.57689e-19)
(0.109089 0.0383725 2.02034e-19)
(0.208458 0.037703 -2.54169e-19)
(0.333448 0.0365028 -4.06737e-20)
(0.506458 0.0495683 5.40099e-19)
(0.613164 0.0706607 6.51642e-20)
(-0.0181658 0.0158568 -5.53086e-19)
(-0.0324797 0.0319048 -1.21041e-19)
(-0.025144 0.0386837 2.62738e-19)
(0.00521664 0.0394366 -5.64174e-20)
(0.0608836 0.0375171 1.5814e-19)
(0.144515 0.0355592 -2.68548e-19)
(0.259976 0.0375876 1.84165e-19)
(0.403087 0.0394964 2.13844e-19)
(0.588308 0.0605203 -4.67195e-19)
(0.71438 0.068256 -1.23616e-19)
(-0.0183901 0.0150938 5.47395e-20)
(-0.0304601 0.0293961 -1.15324e-19)
(-0.0180621 0.0349667 -2.46299e-19)
(0.0202879 0.0351981 1.20627e-19)
(0.0871975 0.0337517 1.33416e-19)
(0.185427 0.0334869 -5.51185e-20)
(0.317828 0.0387506 1.11176e-19)
(0.478712 0.0449646 -1.17216e-19)
(0.671502 0.0709856 -1.22616e-19)
(0.813557 0.0777622 2.01178e-19)
(-0.0184117 0.014224 8.51973e-20)
(-0.0275663 0.0266612 -1.05704e-19)
(-0.00916156 0.0310848 1.89555e-19)
(0.0383834 0.0310155 -1.12746e-19)
(0.117927 0.0304503 -5.78765e-19)
(0.232048 0.0324879 3.83332e-20)
(0.381753 0.0415645 -5.98435e-20)
(0.558585 0.0529981 6.02351e-19)
(0.755084 0.082375 -1.7643e-19)
(0.90379 0.0915762 -6.06251e-19)
(-0.018182 0.0132416 -4.27288e-20)
(-0.0236564 0.0237183 1.77493e-19)
(0.00179432 0.0271122 4.90262e-20)
(0.0598149 0.0270421 3.34889e-19)
(0.153371 0.0278606 2.72749e-19)
(0.284398 0.0328925 -4.45908e-19)
(0.451062 0.0463517 1.50451e-19)
(0.640699 0.0633694 -4.60836e-19)
(0.836562 0.0949984 3.01034e-19)
(0.98451 0.106633 5.8422e-19)
(-0.0176463 0.0121425 6.53008e-20)
(-0.0185789 0.0205928 -4.14536e-19)
(0.0150437 0.0231362 -1.38703e-19)
(0.0848669 0.0234475 -1.33296e-19)
(0.193725 0.0262427 -1.4084e-19)
(0.342245 0.035006 6.02022e-19)
(0.52461 0.0533197 -1.47529e-19)
(0.722848 0.0757075 -6.39019e-20)
(0.913536 0.108617 5.41934e-20)
(1.05434 0.121902 -1.22556e-19)
(-0.0167448 0.010926 -2.41225e-19)
(-0.0121764 0.0173198 4.14146e-19)
(0.0308182 0.019259 -1.02265e-19)
(0.113779 0.020418 1.27352e-19)
(0.239049 0.025862 2.0303e-19)
(0.405063 0.0390815 -2.53141e-19)
(0.60085 0.0625103 -3.16133e-19)
(0.802829 0.0895732 2.76929e-19)
(0.984075 0.122811 -2.85615e-19)
(1.11317 0.136694 -4.41654e-19)
(-0.0154132 0.00959608 -8.96549e-20)
(-0.00428901 0.0139468 -3.48591e-19)
(0.0493344 0.0155998 3.05545e-19)
(0.146728 0.0181566 -1.94007e-20)
(0.289233 0.0269795 8.01389e-20)
(0.472006 0.04529 8.43011e-20)
(0.677976 0.0737868 2.64141e-19)
(0.878673 0.104499 -1.4203e-19)
(1.04693 0.137144 3.14488e-19)
(1.16151 0.150634 -6.46045e-20)
(-0.0135842 0.00816215 2.39893e-19)
(0.00524175 0.0105355 3.34935e-19)
(0.0707842 0.0122968 -2.06137e-19)
(0.183806 0.0168808 -5.42631e-20)
(0.343967 0.0298373 -6.47857e-20)
(0.54194 0.0536944 1.51048e-19)
(0.754119 0.086866 -8.51233e-20)
(0.948829 0.120037 4.51507e-21)
(1.10154 0.151256 7.45012e-20)
(1.20031 0.163552 2.12935e-19)
(-0.0111886 0.00664052 2.02181e-19)
(0.0165677 0.00716436 -1.79872e-19)
(0.0953242 0.0095076 2.25428e-19)
(0.225004 0.0168184 -2.10892e-19)
(0.40272 0.0346386 -4.22179e-19)
(0.613509 0.064237 -1.06698e-19)
(0.827539 0.101378 2.49993e-19)
(1.01225 0.135797 -1.65322e-19)
(1.14788 0.164889 -1.46217e-19)
(1.23073 0.175419 1.28245e-19)
(-0.00815709 0.00505502 2.20472e-19)
(0.029829 0.00392902 -1.15635e-19)
(0.123064 0.00740852 6.02893e-20)
(0.270189 0.0181995 9.20195e-20)
(0.464749 0.0415245 1.82421e-19)
(0.685247 0.0767491 -5.95925e-20)
(0.896781 0.116931 -1.98515e-20)
(1.06838 0.151468 3.42671e-19)
(1.18635 0.177889 -1.25891e-19)
(1.254 0.186295 -1.34994e-19)
(-0.00442179 0.00343752 -4.80192e-20)
(0.0451479 0.000942964 2.26078e-21)
(0.154056 0.00619208 1.87813e-19)
(0.31909 0.0212447 -8.52423e-20)
(0.529121 0.0505553 -2.2616e-19)
(0.755711 0.0909788 5.73273e-20)
(0.960757 0.133155 -5.02461e-19)
(1.11709 0.166826 -2.16362e-19)
(1.2176 0.190185 1.27237e-21)
(1.2713 0.196293 -3.89727e-20)
(8.1858e-05 0.00182822 -3.1169e-19)
(0.0626231 -0.00166328 9.82799e-20)
(0.188281 0.00606264 -4.48981e-19)
(0.371293 0.0261494 3.55343e-20)
(0.594769 0.0617024 1.8461e-19)
(0.823595 0.10663 -3.88114e-20)
(1.01876 0.149737 4.15185e-19)
(1.15859 0.181725 3.76129e-19)
(1.24243 0.201775 1.12508e-19)
(1.2837 0.205547 -1.93383e-19)
(0.00541304 0.000275514 1.16369e-19)
(0.0823227 -0.00374376 1.84484e-19)
(0.225641 0.00722998 2.55148e-19)
(0.426238 0.0330667 1.26772e-19)
(0.660571 0.0748548 -1.1638e-19)
(0.887816 0.123401 -3.13618e-20)
(1.07044 0.166426 6.12458e-20)
(1.1933 0.196085 -1.02709e-19)
(1.26167 0.2127 7.50187e-20)
(1.29213 0.2142 1.79605e-19)
(0.0116234 -0.00116429 1.27987e-19)
(0.104278 -0.00513967 4.75913e-20)
(0.26595 0.00990069 9.21494e-20)
(0.483244 0.0420937 -4.83585e-20)
(0.725423 0.0898385 -4.31452e-20)
(0.947549 0.141005 2.30061e-19)
(1.11573 0.183035 -2.18368e-19)
(1.22179 0.209877 -8.74312e-20)
(1.27614 0.223033 1.04887e-20)
(1.2974 0.222388 8.36042e-20)
(0.0187546 -0.00242765 -8.97635e-20)
(0.12848 -0.00568285 3.3589e-20)
(0.308928 0.0142679 4.26714e-20)
(0.541535 0.0532634 -9.05928e-20)
(0.788312 0.10644 2.97715e-19)
(1.00224 0.159193 -2.42364e-19)
(1.15479 0.199434 3.79713e-20)
(1.2447 0.223112 -7.40975e-20)
(1.28657 0.23286 -7.50997e-20)
(1.30013 0.230231 1.01215e-19)
(0.0268365 -0.00344475 -7.96113e-20)
(0.154868 -0.00520018 -1.08465e-19)
(0.354205 0.0205004 2.93567e-20)
(0.600287 0.0665448 2.01122e-19)
(0.848367 0.124431 -2.09278e-19)
(1.05156 0.177756 1.31081e-19)
(1.18794 0.21554 5.07466e-20)
(1.26267 0.235826 7.75862e-20)
(1.29365 0.242273 -2.43746e-19)
(1.30086 0.237835 -7.39567e-12)
(0.0358845 -0.00414066 -1.312e-20)
(0.183336 -0.00351872 4.04368e-20)
(0.40133 0.028732 -1.22988e-19)
(0.658667 0.0818511 -1.66175e-19)
(0.904887 0.143584 1.91056e-19)
(1.09541 0.196523 -2.28428e-19)
(1.21558 0.231307 8.56936e-21)
(1.27634 0.248072 3.58927e-20)
(1.29793 0.251359 1.85982e-19)
(1.29998 0.245282 -1.74793e-12)
(0.0458978 -0.00443679 -8.66838e-21)
(0.213721 -0.000471668 4.34906e-20)
(0.449782 0.0390536 -9.82454e-20)
(0.715879 0.0990518 1.39476e-19)
(0.957343 0.163684 5.04098e-21)
(1.13383 0.215361 1.13846e-19)
(1.23817 0.246718 -1.07549e-19)
(1.28628 0.25991 1.18588e-21)
(1.29991 0.260198 -1.03344e-19)
(1.2978 0.252638 -3.61291e-20)
(0.0568579 -0.0042526 1.03006e-20)
(0.245808 0.00409535 -3.29303e-20)
(0.49899 0.0515085 -1.36559e-20)
(0.771196 0.117986 -3.34787e-20)
(1.00537 0.184535 -1.03876e-19)
(1.16698 0.23417 -8.72331e-21)
(1.25619 0.261775 1.1276e-19)
(1.29302 0.271402 -7.45358e-20)
(1.29997 0.26886 1.07822e-19)
(1.29456 0.259951 -8.81332e-20)
(0.0687272 -0.00350745 -4.3427e-20)
(0.279334 0.0103178 -8.17008e-20)
(0.548359 0.0660919 1.31344e-19)
(0.823986 0.138476 -9.69998e-21)
(1.04877 0.205963 -3.14015e-21)
(1.1951 0.25287 5.06741e-20)
(1.27011 0.276494 -3.39036e-20)
(1.297 0.282605 1.14245e-19)
(1.29843 0.2774 -1.41876e-20)
(1.2904 0.26725 7.99111e-20)
(0.0814485 -0.00212272 1.09266e-20)
(0.313988 0.0183064 1.59062e-20)
(0.597288 0.0827535 -3.83299e-20)
(0.87372 0.160333 -8.94621e-20)
(1.08743 0.227813 -2.3723e-20)
(1.2185 0.271407 -2.04593e-20)
(1.28037 0.290894 3.63747e-20)
(1.29862 0.293571 -5.40646e-20)
(1.29554 0.28586 2.0423e-20)
(1.28547 0.274553 -1.33189e-20)
(0.0949446 -2.40897e-05 6.38024e-21)
(0.349425 0.0281416 7.09829e-20)
(0.645196 0.101403 3.83486e-20)
(0.919977 0.183367 3.46037e-20)
(1.12137 0.249946 -9.00748e-21)
(1.23749 0.289736 -2.61862e-20)
(1.28737 0.305 -4.3703e-20)
(1.29819 0.304342 -1.0113e-20)
(1.29147 0.294268 -5.443e-20)
(1.27983 0.281862 -1.63617e-20)
(0.109119 0.00285619 -3.55933e-20)
(0.385267 0.0398705 -1.82985e-20)
(0.691537 0.121915 -3.56381e-20)
(0.96244 0.207391 5.38219e-21)
(1.15067 0.27224 6.38689e-20)
(1.25239 0.307825 3.1216e-20)
(1.29147 0.318831 -2.16192e-20)
(1.29598 0.314948 -3.76378e-21)
(1.28639 0.302639 1.86616e-20)
(1.27355 0.289173 1.06457e-20)
(0.123858 0.00657689 2.50719e-20)
(0.421122 0.0535039 -5.75742e-21)
(0.735813 0.144139 2.17848e-20)
(1.00089 0.23222 8.33189e-21)
(1.17545 0.294586 -1.28658e-20)
(1.26354 0.325647 -2.07748e-20)
(1.29298 0.332405 4.331e-21)
(1.29221 0.32541 1.53658e-21)
(1.28038 0.310977 2.27768e-20)
(1.26666 0.296469 -3.06959e-21)
(0.13903 0.0111856 2.3126e-20)
(0.456588 0.0690163 -5.68489e-21)
(0.777587 0.167901 2.29714e-20)
(1.03517 0.257675 6.69809e-21)
(1.1959 0.316883 -1.34503e-20)
(1.27122 0.343178 -1.9841e-20)
(1.29219 0.34573 5.61723e-21)
(1.28704 0.335735 -3.52494e-22)
(1.27353 0.319274 2.17555e-20)
(1.25918 0.303729 -1.95306e-21)
(0.154492 0.016717 -5.86889e-20)
(0.491268 0.0863467 -1.64113e-20)
(0.816485 0.19301 -3.26314e-20)
(1.06523 0.283582 -9.5856e-22)
(1.2122 0.339039 7.00568e-20)
(1.27572 0.360392 1.29141e-20)
(1.28932 0.358809 -6.52096e-21)
(1.28062 0.345922 -1.4081e-21)
(1.26589 0.327513 6.87433e-21)
(1.25114 0.310925 1.36921e-20)
(0.170088 0.0231906 5.49218e-21)
(0.524775 0.1054 8.15478e-20)
(0.852195 0.219265 3.94629e-20)
(1.09105 0.309772 2.88353e-20)
(1.22457 0.360966 -6.1687e-21)
(1.27731 0.377263 -1.5358e-20)
(1.28457 0.371633 -5.07453e-20)
(1.27305 0.355959 3.02831e-21)
(1.25749 0.33567 -3.5756e-20)
(1.24253 0.318026 -7.56709e-21)
(0.185652 0.0306102 -1.81873e-20)
(0.556745 0.126051 6.18763e-20)
(0.884471 0.246456 -4.89248e-20)
(1.11265 0.336081 -1.09277e-19)
(1.23321 0.382578 2.0088e-20)
(1.27621 0.39376 -4.51995e-20)
(1.27811 0.384189 3.02774e-20)
(1.26441 0.365825 -3.21251e-20)
(1.24837 0.343711 1.14836e-20)
(1.23337 0.324995 -7.2265e-22)
(0.201018 0.0389629 2.99234e-20)
(0.586843 0.148147 -1.63465e-19)
(0.913127 0.274367 1.32663e-19)
(1.13012 0.362349 6.30397e-20)
(1.23834 0.403795 -6.56595e-20)
(1.27264 0.409847 8.2778e-20)
(1.27007 0.396452 -3.27127e-20)
(1.25476 0.37549 9.60729e-20)
(1.23853 0.351598 -1.39937e-20)
(1.22366 0.331795 1.8544e-20)
(0.216015 0.048219 8.85148e-20)
(0.614767 0.171511 -1.04583e-19)
(0.938031 0.30278 -9.46209e-20)
(1.14354 0.388421 1.60609e-20)
(1.24016 0.424534 -6.62863e-20)
(1.26678 0.425486 -3.14943e-20)
(1.26057 0.408391 9.82998e-20)
(1.24415 0.384916 -5.27547e-20)
(1.228 0.359284 4.78524e-20)
(1.21343 0.33838 -2.32372e-20)
(0.230477 0.0583321 4.74442e-20)
(0.640251 0.195948 1.12512e-19)
(0.959102 0.331476 -1.63328e-19)
(1.15305 0.414146 1.13432e-19)
(1.23887 0.444713 6.45805e-21)
(1.25882 0.440631 1.13998e-19)
(1.2497 0.419968 -7.3841e-20)
(1.23262 0.394061 -2.47107e-20)
(1.21678 0.366717 -4.21054e-20)
(1.20264 0.344701 6.44266e-21)
(0.244241 0.0692402 1.72155e-19)
(0.663072 0.221246 -8.14328e-20)
(0.976303 0.360237 -6.66869e-20)
(1.15878 0.439374 -2.08769e-19)
(1.23467 0.464251 1.31631e-19)
(1.24888 0.455233 -1.3777e-19)
(1.23756 0.431138 3.72695e-21)
(1.2202 0.402879 -1.29307e-20)
(1.20487 0.37385 6.65784e-20)
(1.19121 0.350711 -9.86387e-22)
(0.257154 0.0808665 -1.88067e-19)
(0.683045 0.247183 -1.64561e-19)
(0.989638 0.388847 3.41853e-20)
(1.16088 0.463963 1.97746e-19)
(1.22773 0.483064 -1.99726e-19)
(1.23712 0.469236 1.10517e-19)
(1.22421 0.441854 9.18602e-20)
(1.20692 0.411324 6.44303e-21)
(1.19228 0.380667 -6.96386e-20)
(1.17905 0.356398 3.50216e-21)
(0.269072 0.0931207 8.65215e-20)
(0.700028 0.273527 6.00385e-21)
(0.999145 0.417094 5.80483e-20)
(1.15951 0.487772 -8.12046e-20)
(1.21823 0.501068 1.69861e-19)
(1.22365 0.482582 -1.21223e-19)
(1.20972 0.452057 6.71205e-22)
(1.19282 0.419343 -2.348e-21)
(1.17904 0.387171 -1.90523e-20)
(1.16621 0.36177 1.24523e-20)
(0.279865 0.105901 6.20786e-20)
(0.713917 0.300042 6.91615e-20)
(1.00489 0.44477 2.07795e-19)
(1.15484 0.510666 -7.12161e-20)
(1.20634 0.518181 -7.29985e-20)
(1.20858 0.495208 1.66722e-19)
(1.19414 0.461689 -8.30962e-20)
(1.17792 0.426866 -2.41026e-20)
(1.16515 0.393309 1.75453e-20)
(1.15296 0.366693 2.24551e-21)
(0.289418 0.119095 1.0127e-19)
(0.72465 0.326492 2.5172e-19)
(1.00697 0.471674 9.73083e-20)
(1.14705 0.532512 1.39958e-19)
(1.19222 0.534317 -1.52832e-20)
(1.19203 0.50705 1.90381e-20)
(1.17753 0.470692 -9.62159e-21)
(1.16227 0.433844 -5.54336e-21)
(1.15059 0.39897 1.27452e-20)
(1.13933 0.371194 -3.21624e-20)
(0.297633 0.132583 -3.03819e-19)
(0.732198 0.352641 5.11741e-21)
(1.0055 0.49761 -4.33726e-19)
(1.13631 0.553185 3.93084e-20)
(1.17602 0.549394 8.30153e-20)
(1.17409 0.518039 1.49199e-20)
(1.15997 0.478999 7.73115e-20)
(1.1459 0.440238 4.32423e-20)
(1.13537 0.404089 -8.78526e-21)
(1.12528 0.375186 1.39853e-20)
(0.304429 0.146238 -6.98659e-20)
(0.736568 0.378258 2.21523e-20)
(1.00061 0.522392 3.94011e-20)
(1.1228 0.57256 3.49298e-20)
(1.15788 0.563329 -9.82407e-20)
(1.15486 0.528107 -4.67612e-20)
(1.14151 0.486546 -7.0337e-20)
(1.12883 0.445986 1.22958e-21)
(1.11957 0.408624 -2.21619e-20)
(1.11078 0.378616 2.38997e-20)
(0.309743 0.159929 2.01218e-19)
(0.737797 0.403119 -3.2415e-19)
(0.992463 0.545841 1.33273e-19)
(1.1067 0.590524 5.09244e-20)
(1.13796 0.576037 1.33185e-19)
(1.13444 0.537184 -4.05187e-20)
(1.12221 0.493268 2.18739e-20)
(1.11109 0.451033 -2.43044e-20)
(1.10322 0.412527 1.36375e-21)
(1.09584 0.381436 6.36111e-20)
(0.31353 0.173525 1.49384e-19)
(0.735948 0.427008 -1.32399e-19)
(0.981219 0.56779 9.09739e-20)
(1.0882 0.606966 -1.28898e-19)
(1.11639 0.587438 -1.38833e-19)
(1.11292 0.545197 -9.25374e-21)
(1.10211 0.499104 7.2583e-21)
(1.09273 0.455323 2.29016e-20)
(1.08635 0.415751 7.74033e-20)
(1.0805 0.383605 -1.10294e-19)
(0.315765 0.186891 1.55326e-19)
(0.731117 0.449718 4.31922e-19)
(0.967078 0.588089 -1.5765e-19)
(1.06746 0.621776 -1.0263e-19)
(1.09332 0.597458 3.88948e-20)
(1.09038 0.552078 6.66637e-21)
(1.08129 0.503991 2.65424e-20)
(1.0738 0.458802 -1.87003e-20)
(1.06899 0.418248 -7.33563e-21)
(1.06479 0.385082 -1.21229e-19)
(0.316439 0.199896 -1.04275e-19)
(0.723426 0.47105 -2.85397e-19)
(0.950241 0.606606 1.04291e-19)
(1.04463 0.634846 6.7163e-20)
(1.06887 0.606018 3.97893e-20)
(1.06693 0.557762 -1.60974e-20)
(1.05982 0.507871 -9.40259e-20)
(1.05434 0.461422 1.10512e-19)
(1.05118 0.419973 -1.36347e-19)
(1.04875 0.385828 -7.68127e-20)
(0.315565 0.212411 -2.48936e-19)
(0.713035 0.49082 3.38202e-19)
(0.930849 0.623192 -1.27881e-19)
(1.01991 0.646102 6.31202e-20)
(1.04321 0.613035 1.52706e-20)
(1.04267 0.562188 5.98383e-20)
(1.03775 0.510689 4.85723e-21)
(1.03443 0.463134 -1.25364e-19)
(1.03298 0.420881 1.76948e-19)
(1.03246 0.385796 3.85556e-19)
(0.313183 0.224313 1.89393e-20)
(0.700123 0.5089 -1.92205e-19)
(0.908984 0.637649 -8.86919e-20)
(0.993534 0.655476 -2.54321e-20)
(1.01647 0.618451 -1.23493e-20)
(1.01768 0.565295 -1.38161e-19)
(1.01517 0.512391 8.76904e-20)
(1.0141 0.463895 -8.0913e-20)
(1.01445 0.420924 -1.55277e-20)
(1.01597 0.384927 1.25703e-19)
(0.30935 0.235463 -7.6055e-20)
(0.68484 0.525199 1.56961e-19)
(0.884852 0.649873 1.33695e-20)
(0.965709 0.66284 6.84432e-21)
(0.988787 0.622221 -1.05016e-19)
(0.99207 0.567032 1.58136e-19)
(0.992147 0.51293 1.85409e-20)
(0.993441 0.463665 2.01644e-19)
(0.995617 0.420048 -1.7377e-19)
(0.999319 0.383146 -4.84168e-19)
(0.304104 0.245698 2.29776e-20)
(0.667242 0.539511 -3.72104e-20)
(0.858853 0.659913 -3.55001e-22)
(0.936619 0.668107 1.38236e-20)
(0.960296 0.624288 1.58948e-19)
(0.965939 0.567351 -8.60118e-20)
(0.968768 0.512263 8.78197e-20)
(0.972485 0.462405 -3.83758e-19)
(0.976544 0.418211 1.11838e-19)
(0.98265 0.380395 5.3908e-19)
(0.297451 0.254884 1.14629e-20)
(0.647503 0.551616 -4.39683e-20)
(0.831242 0.667662 7.82873e-21)
(0.906424 0.671271 -5.52783e-20)
(0.931134 0.624605 -1.86937e-20)
(0.939388 0.566208 6.81349e-20)
(0.945098 0.51035 -1.50662e-19)
(0.951273 0.460073 1.53847e-19)
(0.957336 0.415366 1.00799e-19)
(0.966379 0.376681 -1.87228e-19)
(0.289527 0.26292 -3.82692e-20)
(0.625885 0.561398 5.44666e-21)
(0.802161 0.673004 -1.51261e-21)
(0.875298 0.672291 -1.22248e-20)
(0.901438 0.623133 -1.09028e-19)
(0.912518 0.563569 1.77113e-19)
(0.921199 0.507158 -6.85589e-20)
(0.929844 0.45661 -1.6311e-19)
(0.938212 0.411425 3.92321e-19)
(0.951004 0.372101 2.8291e-19)
(0.280472 0.269812 -1.19621e-20)
(0.602596 0.568795 -4.24957e-20)
(0.771823 0.675849 3.57329e-21)
(0.843424 0.67113 2.26131e-20)
(0.871344 0.619844 1.30379e-19)
(0.885428 0.559406 -6.11723e-20)
(0.897129 0.502666 2.07565e-19)
(0.908283 0.451981 1.44579e-19)
(0.919452 0.406247 -7.09869e-19)
(0.936197 0.366394 -4.16022e-20)
(0.270342 0.275453 8.80785e-22)
(0.577871 0.573747 8.33704e-20)
(0.740448 0.676145 -3.49205e-20)
(0.810983 0.667758 -6.22833e-20)
(0.840993 0.614713 -1.82547e-19)
(0.85822 0.553704 -2.50687e-19)
(0.872971 0.49687 -1.95518e-19)
(0.88675 0.446231 -1.6434e-19)
(0.90122 0.399987 7.28534e-19)
(0.920148 0.357136 1.03041e-19)
(0.259238 0.279763 9.20152e-20)
(0.551936 0.576197 -1.63059e-20)
(0.708257 0.673861 -8.66223e-20)
(0.778157 0.662154 1.78922e-19)
(0.810521 0.607727 2.25192e-19)
(0.830999 0.546446 1.42053e-19)
(0.848844 0.489749 1.17434e-19)
(0.865413 0.439364 2.65357e-19)
(0.882918 0.393519 -5.48638e-19)
(0.902342 0.351696 -9.34972e-19)
(0.247278 0.282678 -1.3241e-19)
(0.525012 0.576099 -1.50957e-19)
(0.675469 0.668981 1.97299e-20)
(0.745124 0.65431 -1.3739e-19)
(0.780066 0.598877 -3.98546e-19)
(0.803876 0.537621 -6.93301e-20)
(0.824858 0.481283 2.84896e-19)
(0.844297 0.431292 -4.03385e-19)
(0.864516 0.385799 -9.27981e-20)
(0.884813 0.3442 2.86893e-19)
(0.234588 0.28415 1.34823e-19)
(0.497319 0.573423 2.06029e-19)
(0.642301 0.6615 1.92424e-19)
(0.712062 0.644228 1.16072e-19)
(0.749764 0.588164 4.40715e-19)
(0.776962 0.527228 1.98042e-19)
(0.801105 0.471474 -7.7894e-20)
(0.823423 0.422068 2.25597e-19)
(0.84616 0.377179 -1.98248e-19)
(0.867664 0.336336 -2.76316e-19)
(0.221298 0.28414 -4.16741e-21)
(0.469078 0.568153 -5.98008e-20)
(0.608969 0.651429 7.27261e-20)
(0.679145 0.63192 2.5326e-20)
(0.71975 0.575598 -2.6706e-19)
(0.750368 0.51527 -5.47987e-19)
(0.777674 0.460325 -2.37e-20)
(0.802844 0.411685 -1.51254e-19)
(0.827973 0.367571 5.05383e-19)
(0.850906 0.327671 9.12745e-19)
(0.207539 0.282621 6.23796e-20)
(0.440508 0.560291 -6.20678e-20)
(0.575682 0.638788 -1.85747e-19)
(0.646543 0.61741 -1.87324e-19)
(0.690158 0.561195 -2.31107e-19)
(0.724202 0.501761 2.87757e-19)
(0.754655 0.447847 -2.45706e-19)
(0.782633 0.400163 -1.21394e-19)
(0.810081 0.357013 1.00303e-19)
(0.83459 0.318209 -1.90741e-19)
(0.193445 0.27958 2.07216e-19)
(0.411825 0.549853 9.29687e-20)
(0.542646 0.623614 1.95411e-19)
(0.614425 0.60073 3.13803e-19)
(0.661121 0.544981 4.42669e-19)
(0.698574 0.486721 -1.6646e-20)
(0.732135 0.434055 -4.26071e-19)
(0.762866 0.387517 5.16367e-19)
(0.792575 0.345508 4.94276e-20)
(0.818751 0.307917 -9.53527e-19)
(0.179147 0.275013 -7.15812e-19)
(0.383243 0.536872 5.14044e-20)
(0.510062 0.605952 -1.39537e-19)
(0.582951 0.581923 1.00627e-19)
(0.632765 0.526991 -1.78017e-19)
(0.673589 0.470175 4.83648e-20)
(0.710203 0.418974 4.99377e-19)
(0.743623 0.373767 -2.68277e-19)
(0.775534 0.333068 1.3458e-19)
(0.803433 0.296793 7.11763e-19)
(0.164779 0.268929 1.00923e-18)
(0.354971 0.521393 -6.48399e-19)
(0.478122 0.585862 -2.24202e-19)
(0.552279 0.561042 -3.42616e-19)
(0.605218 0.507266 9.91519e-20)
(0.64935 0.452158 2.90698e-19)
(0.688944 0.402631 4.7358e-19)
(0.72498 0.358938 -1.41912e-19)
(0.759032 0.319705 -3.63596e-19)
(0.788678 0.284841 5.94723e-19)
(0.150472 0.261349 -3.48406e-19)
(0.32721 0.503478 -1.81831e-19)
(0.447015 0.563413 2.47777e-19)
(0.522561 0.53815 1.59829e-19)
(0.578601 0.485857 1.48093e-19)
(0.625958 0.432711 6.68996e-19)
(0.668444 0.385062 -9.66051e-19)
(0.707012 0.343058 2.95302e-19)
(0.743134 0.305439 7.72839e-19)
(0.774529 0.272079 -6.09235e-19)
(0.136353 0.252303 3.94638e-19)
(0.300155 0.483201 1.09818e-18)
(0.41692 0.538687 1.19407e-19)
(0.493943 0.513317 -5.36377e-19)
(0.55303 0.462823 -5.34822e-19)
(0.60351 0.411882 -8.83623e-20)
(0.648786 0.366308 7.36673e-19)
(0.689789 0.326162 -6.27237e-20)
(0.727902 0.290295 -5.71722e-19)
(0.761029 0.25853 -4.35266e-19)
(0.122549 0.241833 2.6119e-20)
(0.273995 0.460651 -8.27497e-19)
(0.388009 0.511777 -4.95177e-19)
(0.466564 0.486624 1.25847e-19)
(0.528618 0.438228 4.49288e-20)
(0.582101 0.389725 -5.61627e-19)
(0.630049 0.346414 -1.01856e-18)
(0.67338 0.308289 -6.68289e-19)
(0.713396 0.274304 2.86471e-19)
(0.748217 0.244226 -2.2352e-19)
(0.109178 0.229989 -3.79207e-19)
(0.248909 0.435926 4.95992e-19)
(0.360446 0.482787 3.51181e-19)
(0.440556 0.45816 2.32447e-19)
(0.505473 0.412147 4.00427e-19)
(0.561818 0.366303 -5.7693e-19)
(0.612309 0.325433 9.53461e-19)
(0.657851 0.289482 1.75734e-19)
(0.699671 0.257502 2.7966e-19)
(0.736135 0.229201 -3.98735e-19)
(0.0963559 0.216834 7.05332e-19)
(0.225065 0.409139 -3.95517e-20)
(0.334384 0.451828 5.6441e-19)
(0.416046 0.428021 -4.13208e-19)
(0.483696 0.384659 -2.58853e-19)
(0.542749 0.341681 4.62623e-20)