/*--------------------------------*- C++ -*----------------------------------*\
  =========                 |
  \\      /  F ield         | OpenFOAM: The Open Source CFD Toolbox
   \\    /   O peration     | Website:  https://openfoam.org
    \\  /    A nd           | Version:  7
     \\/     M anipulation  |
\*---------------------------------------------------------------------------*/
FoamFile
{
    version     2.0;
    format      ascii;
    class       volVectorField;
    location    "25";
    object      U;
}
// * * * * * * * * * * * * * * * * * * * * * * * * * * * * * * * * * * * * * //

dimensions      [0 1 -1 0 0 0 0];

internalField   nonuniform List<vector> 
8500
(
(-0.187943 0.00105654 -2.11072e-21)
(-0.193343 0.00102438 4.68309e-22)
(-0.198683 0.000991844 1.22571e-21)
(-0.203958 0.000958736 1.89481e-23)
(-0.209164 0.000924848 -2.28061e-21)
(-0.214295 0.000889947 2.60726e-21)
(-0.219347 0.00085378 -1.16907e-21)
(-0.224314 0.000816077 5.78483e-22)
(-0.229189 0.000776559 -1.14399e-21)
(-0.233966 0.000734946 1.00989e-21)
(-0.238636 0.000690968 -1.93798e-22)
(-0.24319 0.000644372 -3.72346e-22)
(-0.247618 0.000594938 -9.33158e-22)
(-0.251909 0.000542489 1.16548e-21)
(-0.256049 0.000486904 1.19583e-21)
(-0.260021 0.000428126 -1.11789e-21)
(-0.263808 0.000366171 -6.93517e-22)
(-0.267387 0.000301144 5.67938e-23)
(-0.270732 0.000233208 -2.22667e-22)
(-0.273814 0.00016263 7.06099e-22)
(-0.276594 8.96641e-05 -5.29565e-22)
(-0.27903 1.48833e-05 5.06936e-22)
(-0.281069 -6.08872e-05 -8.82491e-22)
(-0.282647 -0.000140147 -3.14452e-22)
(-0.28369 -0.000215918 1.0172e-22)
(-0.284118 -0.000292787 -4.40852e-23)
(-0.283821 -0.000370922 -1.53469e-22)
(-0.282698 -0.000447997 -1.03112e-21)
(-0.28059 -0.000524241 1.05818e-21)
(-0.277388 -0.000598888 7.46205e-22)
(-0.272871 -0.00067407 -3.01971e-22)
(-0.266946 -0.000746847 8.448e-23)
(-0.259318 -0.000823072 -2.93588e-22)
(-0.249927 -0.000895064 -4.86259e-22)
(-0.238464 -0.000976695 -8.64507e-22)
(-0.224783 -0.00104877 -5.88418e-22)
(-0.208931 -0.00114333 5.32878e-22)
(-0.189983 -0.00121362 -6.64015e-22)
(-0.169766 -0.00133448 5.2481e-22)
(-0.14404 -0.00139333 -1.63382e-22)
(-0.120895 -0.00156821 2.54992e-22)
(-0.0852403 -0.00158979 2.4848e-22)
(-0.063589 -0.00188211 6.97495e-23)
(-0.0107968 -0.00182225 -2.22643e-22)
(0.000734259 -0.0024033 -8.49046e-25)
(0.0851688 -0.00257666 2.12357e-23)
(-0.187106 0.00302425 -2.55005e-21)
(-0.192479 0.00292336 2.03393e-21)
(-0.197791 0.00282272 1.64606e-21)
(-0.203037 0.0027221 -7.48625e-23)
(-0.208214 0.00262126 -6.37278e-21)
(-0.213316 0.00251992 6.77079e-21)
(-0.218337 0.00241774 -4.58822e-21)
(-0.223272 0.00231436 -1.74878e-21)
(-0.228115 0.00220938 3.68262e-22)
(-0.232858 0.00210236 2.69092e-22)
(-0.237494 0.00199285 -5.38923e-21)
(-0.242012 0.00188038 7.56263e-21)
(-0.246404 0.0017645 -4.14654e-22)
(-0.250656 0.00164471 -6.9202e-21)
(-0.254756 0.00152056 1.78898e-21)
(-0.258688 0.00139157 1.56788e-21)
(-0.262432 0.00125726 -2.34139e-21)
(-0.265967 0.00111715 1.39207e-21)
(-0.269267 0.000970699 3.00174e-21)
(-0.272302 0.000817345 -2.72187e-21)
(-0.275034 0.000656346 2.05195e-21)
(-0.277421 0.000487222 -1.43117e-21)
(-0.279409 0.000309482 6.95769e-22)
(-0.280936 0.000120762 9.69663e-22)
(-0.281925 -7.87211e-05 1.97676e-22)
(-0.282301 -0.000289836 -7.176e-23)
(-0.281951 -0.000515916 -7.02607e-22)
(-0.280775 -0.000756159 -2.02527e-23)
(-0.278614 -0.0010135 1.43815e-21)
(-0.275361 -0.00128546 -1.27729e-21)
(-0.270793 -0.00157905 -3.38986e-21)
(-0.264821 -0.00188456 2.42987e-22)
(-0.257147 -0.0022177 5.74771e-22)
(-0.247714 -0.00255266 -2.67609e-22)
(-0.236211 -0.00292639 3.45938e-22)
(-0.222497 -0.00327675 -7.91684e-22)
(-0.206612 -0.00369263 -4.64789e-22)
(-0.187642 -0.00402823 1.4137e-21)
(-0.167403 -0.00449967 -1.33521e-21)
(-0.141665 -0.00476258 1.3134e-22)
(-0.118511 -0.00534597 -8.49401e-22)
(-0.0828564 -0.00542915 -7.851e-22)
(-0.0612051 -0.00629135 1.4478e-22)
(-0.00844136 -0.00601739 6.37253e-22)
(0.00309365 -0.00765485 1.90235e-22)
(0.0873635 -0.00788172 9.04486e-23)
(-0.185436 0.00497631 1.28299e-20)
(-0.190755 0.00480675 -9.17655e-21)
(-0.196011 0.00463804 -4.15165e-23)
(-0.201201 0.00446992 4.68663e-21)
(-0.20632 0.00430212 -9.84327e-22)
(-0.211362 0.00413431 -1.48569e-21)
(-0.216322 0.00396607 8.36473e-21)
(-0.221195 0.00379695 -2.4869e-21)
(-0.225973 0.00362642 3.97499e-21)
(-0.23065 0.00345388 3.75219e-22)
(-0.235217 0.00327871 -2.82391e-21)
(-0.239665 0.00310023 -6.16392e-22)
(-0.243983 0.00291773 8.39967e-21)
(-0.24816 0.00273044 -1.39706e-21)
(-0.252181 0.00253755 -3.4767e-21)
(-0.256031 0.00233817 7.2079e-22)
(-0.259691 0.00213135 8.84423e-22)
(-0.263139 0.001916 -4.28132e-21)
(-0.266349 0.00169089 5.50995e-21)
(-0.26929 0.00145465 -4.64249e-21)
(-0.271926 0.00120552 -3.81193e-21)
(-0.274213 0.000941926 2.37198e-21)
(-0.2761 0.000661381 5.26089e-21)
(-0.277523 0.000363136 -2.57753e-21)
(-0.278408 4.21775e-05 4.51078e-22)
(-0.278677 -0.000303261 -2.91823e-21)
(-0.278219 -0.000677379 1.74847e-21)
(-0.276936 -0.00108034 -1.20772e-21)
(-0.274668 -0.00151818 -4.21451e-21)
(-0.271311 -0.00198677 1.76036e-21)
(-0.26664 -0.00249798 3.81306e-22)
(-0.26057 -0.00303535 2.94768e-21)
(-0.252802 -0.00362443 4.32808e-22)
(-0.243283 -0.00422129 3.51329e-21)
(-0.231698 -0.004886 -1.70926e-21)
(-0.217916 -0.00551342 3.02185e-21)
(-0.201966 -0.00624944 -1.28996e-21)
(-0.18295 -0.00684894 -1.60809e-21)
(-0.162667 -0.00766988 1.14751e-21)
(-0.13691 -0.00813521 -1.11711e-21)
(-0.113737 -0.00912641 -6.44225e-23)
(-0.0780883 -0.00926956 1.51996e-21)
(-0.0564405 -0.0106998 -5.49687e-22)
(-0.00374342 -0.0102089 -6.13612e-22)
(0.00779442 -0.0128953 -1.98835e-22)
(0.0917359 -0.0131751 -1.83575e-22)
(-0.182937 0.00690248 3.69134e-21)
(-0.188174 0.00666435 2.34291e-21)
(-0.193348 0.00642762 9.20055e-21)
(-0.198453 0.00619202 -1.74464e-21)
(-0.203486 0.00595726 -8.91125e-21)
(-0.208439 0.00572293 9.26741e-21)
(-0.213309 0.00548855 -1.20495e-21)
(-0.218088 0.00525357 -7.88159e-21)
(-0.222771 0.00501733 -2.53391e-21)
(-0.227348 0.0047791 3.40638e-21)
(-0.231813 0.00453806 -2.06525e-21)
(-0.236156 0.00429334 9.05837e-21)
(-0.240365 0.00404397 -1.29062e-20)
(-0.244429 0.00378889 4.16996e-21)
(-0.248334 0.00352698 -4.7112e-21)
(-0.252062 0.00325692 2.97448e-21)
(-0.255597 0.00297731 3.60299e-21)
(-0.258915 0.00268645 -2.99313e-21)
(-0.261991 0.00238247 -5.62231e-21)
(-0.264793 0.00206317 3.56317e-21)
(-0.267286 0.00172579 -3.08439e-22)
(-0.269427 0.00136776 -4.52088e-21)
(-0.271162 0.000984989 -2.08721e-21)
(-0.272431 0.000574851 -4.18358e-22)
(-0.273159 0.000135086 -2.79297e-21)
(-0.273269 -0.000344535 4.88197e-21)
(-0.272652 -0.000866148 7.02426e-22)
(-0.271208 -0.00143112 2.15626e-21)
(-0.268781 -0.00204853 2.31351e-21)
(-0.265267 -0.00271264 -1.80466e-22)
(-0.260443 -0.00344019 2.44706e-22)
(-0.254227 -0.00420796 -6.28882e-21)
(-0.246317 -0.00505135 9.82589e-22)
(-0.23667 -0.00590833 5.67918e-22)
(-0.224963 -0.00686209 3.48014e-21)
(-0.211079 -0.00776448 2.17186e-22)
(-0.195032 -0.00881858 -8.96498e-22)
(-0.175949 -0.0096796 1.20572e-21)
(-0.155601 -0.0108482 -1.35757e-21)
(-0.129817 -0.0115131 1.78652e-21)
(-0.10662 -0.0129108 1.16823e-21)
(-0.0709817 -0.0131111 -4.43579e-22)
(-0.0493427 -0.0151072 2.31822e-21)
(0.0032512 -0.0144246 5.60599e-22)
(0.0147897 -0.0180865 8.28768e-22)
(0.0982418 -0.0184482 1.40174e-22)
(-0.179614 0.00879272 -1.67933e-20)
(-0.184744 0.00848617 1.45614e-20)
(-0.189808 0.00818151 -3.92637e-21)
(-0.194802 0.00787849 1.50845e-21)
(-0.199719 0.00757674 -1.36965e-20)
(-0.204556 0.00727584 2.80601e-21)
(-0.209306 0.00697523 6.12353e-21)
(-0.213962 0.00667424 3.3642e-21)
(-0.218518 0.0063721 -1.91643e-21)
(-0.222965 0.00606793 3.42291e-21)
(-0.227296 0.00576075 -8.50678e-21)
(-0.231499 0.00544945 8.48031e-22)
(-0.235565 0.00513286 1.0637e-20)
(-0.23948 0.00480963 1.30954e-21)
(-0.243231 0.00447831 2.11224e-21)
(-0.246801 0.00413718 -1.17338e-20)
(-0.25017 0.00378439 -1.77823e-22)
(-0.253317 0.00341768 7.92224e-21)
(-0.256216 0.00303452 -2.37348e-21)
(-0.258836 0.00263192 -2.19216e-21)
(-0.261141 0.00220615 6.70233e-21)
(-0.263088 0.00175367 -7.576e-21)
(-0.264625 0.00126896 -3.45819e-21)
(-0.26569 0.000748027 3.93994e-21)
(-0.266211 0.000188561 1.70064e-21)
(-0.266113 -0.000424513 1.02393e-21)
(-0.265284 -0.00109278 -6.88322e-21)
(-0.263629 -0.00181869 6.15712e-21)
(-0.260992 -0.0026144 -1.7009e-21)
(-0.257272 -0.00347248 1.7468e-21)
(-0.252246 -0.00441459 -1.20592e-21)
(-0.245837 -0.00541071 1.31772e-21)
(-0.237741 -0.00650614 -2.59391e-21)
(-0.227926 -0.00762071 -9.94354e-22)
(-0.216058 -0.00886084 -4.9674e-21)
(-0.202041 -0.0100353 -3.20646e-21)
(-0.185868 -0.0114045 5.59394e-21)
(-0.166699 -0.0125237 4.92767e-21)
(-0.146268 -0.0140372 -1.80043e-21)
(-0.120449 -0.0148978 3.22782e-21)
(-0.0972235 -0.0167003 -2.84408e-21)
(-0.0616042 -0.0169538 1.19329e-21)
(-0.0399824 -0.0195171 -1.44396e-21)
(0.0124746 -0.0186578 1.52432e-22)
(0.0240106 -0.0232208 -1.22126e-22)
(0.106815 -0.0236925 1.25743e-22)
(-0.175473 0.0106373 -1.61215e-20)
(-0.18047 0.0102626 -7.0458e-21)
(-0.185398 0.00989012 2.94288e-20)
(-0.190254 0.00951973 -1.13196e-20)
(-0.19503 0.00915103 -5.4197e-21)
(-0.199722 0.0087835 2.84434e-20)
(-0.204324 0.00841654 -1.3044e-21)
(-0.208828 0.00804937 -1.86978e-20)
(-0.213228 0.00768111 2.70226e-20)
(-0.217514 0.00731072 -2.6034e-20)
(-0.221679 0.00693704 1.0601e-21)
(-0.225711 0.0065588 -3.78965e-21)
(-0.2296 0.00617456 6.49769e-21)
(-0.233333 0.00578272 -3.50997e-21)
(-0.236894 0.00538151 -1.38098e-21)
(-0.240268 0.00496883 5.91587e-21)
(-0.243435 0.0045424 9.64724e-21)
(-0.246372 0.0040994 -6.46112e-22)
(-0.249054 0.00363668 -6.12261e-21)
(-0.25145 0.00315048 -8.50612e-21)
(-0.253523 0.00263612 -2.09538e-21)
(-0.255232 0.00208915 3.80715e-21)
(-0.256525 0.00150262 1.32239e-20)
(-0.25734 0.000871764 3.67812e-21)
(-0.257608 0.000191929 -1.34755e-20)
(-0.257253 -0.000553321 1.461e-20)
(-0.256164 -0.00136719 8.38867e-23)
(-0.25425 -0.00225268 -5.15897e-21)
(-0.251355 -0.00322503 -7.58696e-22)
(-0.247382 -0.00427512 -4.00673e-22)
(-0.242108 -0.00542949 -4.84059e-21)
(-0.235463 -0.00665135 9.6424e-21)
(-0.227139 -0.00799589 3.71032e-21)
(-0.217119 -0.00936484 -3.54458e-21)
(-0.205054 -0.0108879 5.31078e-21)
(-0.190876 -0.0123306 -3.01807e-21)
(-0.17455 -0.0140113 -3.03892e-21)
(-0.155276 -0.0153842 -7.23553e-21)
(-0.134747 -0.0172394 2.16166e-21)
(-0.10889 -0.0182904 -4.3337e-22)
(-0.085634 -0.0204953 2.71992e-21)
(-0.0500431 -0.0207972 -6.39667e-22)
(-0.0284482 -0.023937 -1.71213e-21)
(0.023838 -0.0228815 -7.62466e-22)
(0.0353669 -0.0283062 -2.66441e-22)
(0.117371 -0.0288994 -2.60973e-22)
(-0.170521 0.012427 1.36855e-20)
(-0.17536 0.0119843 1.99818e-20)
(-0.180128 0.0115442 6.15184e-21)
(-0.184819 0.0111066 -1.4443e-20)
(-0.189429 0.010671 4.10247e-21)
(-0.19395 0.0102368 2.89941e-21)
(-0.198377 0.0098034 -1.46954e-20)
(-0.202701 0.00936989 3.96815e-22)
(-0.206916 0.00893525 2.81641e-20)
(-0.211013 0.00849833 -2.40328e-20)
(-0.214982 0.00805779 -1.01035e-22)
(-0.218813 0.00761216 2.46567e-20)
(-0.222494 0.00715979 -2.62141e-20)
(-0.226011 0.00669881 2.74807e-21)
(-0.22935 0.00622717 7.41115e-22)
(-0.232493 0.00574239 2.0346e-20)
(-0.235421 0.00524178 -3.12233e-20)
(-0.238111 0.00472199 1.90776e-20)
(-0.240538 0.00417928 -2.20246e-21)
(-0.24267 0.00360914 6.61046e-21)
(-0.244472 0.00300598 -8.59215e-21)
(-0.245901 0.00236449 -1.67817e-20)
(-0.246908 0.00167623 2.40158e-21)
(-0.24743 0.000936095 -4.65696e-21)
(-0.247399 0.000135656 -1.91877e-21)
(-0.246743 -0.000740315 1.53362e-22)
(-0.24535 -0.00169853 -5.96785e-21)
(-0.243132 -0.00274195 5.29902e-21)
(-0.239934 -0.00388894 1.17154e-21)
(-0.235664 -0.00512863 3.79235e-21)
(-0.2301 -0.00649249 -9.31129e-22)
(-0.223179 -0.00793692 -1.26026e-20)
(-0.214589 -0.00952702 -6.97595e-21)
(-0.204328 -0.0111464 -1.00246e-21)
(-0.192035 -0.0129482 -4.5532e-21)
(-0.17767 -0.0146546 -2.68974e-22)
(-0.161167 -0.0166423 2.2507e-21)
(-0.141776 -0.0182637 7.68152e-22)
(-0.121136 -0.0204564 2.45451e-21)
(-0.0952389 -0.0216916 -5.96522e-21)
(-0.0719529 -0.0242957 2.24822e-21)
(-0.0364037 -0.0246394 8.87802e-23)
(-0.0148441 -0.0283532 7.16926e-22)
(0.0372354 -0.0270991 2.05778e-22)
(0.0487491 -0.0333418 -3.70474e-22)
(0.129811 -0.0340603 -1.45694e-23)
(-0.164767 0.0141529 -2.81722e-20)
(-0.169424 0.0136426 -7.58987e-21)
(-0.174007 0.0131352 2.52681e-20)
(-0.17851 0.0126305 -2.57231e-20)
(-0.182928 0.0121281 2.21667e-20)
(-0.187253 0.0116272 -1.35805e-20)
(-0.191478 0.0111273 -1.65168e-20)
(-0.195597 0.0106273 -1.53891e-21)
(-0.199601 0.010126 1.61237e-20)
(-0.203481 0.00962228 -2.0323e-20)
(-0.207226 0.00911449 1.50154e-20)
(-0.210827 0.00860101 -7.74767e-21)
(-0.21427 0.00807999 1.40532e-20)
(-0.217541 0.00754931 -1.63154e-20)
(-0.220626 0.00700664 5.26029e-21)
(-0.223506 0.00644915 1.91274e-20)
(-0.226163 0.00587377 -1.77189e-20)
(-0.228572 0.00527663 -1.80887e-20)
(-0.230708 0.00465345 9.91187e-21)
(-0.232541 0.00399901 1.02344e-20)
(-0.234033 0.00330681 1.03336e-20)
(-0.235145 0.00257078 -5.20983e-21)
(-0.235825 0.00178098 8.3712e-22)
(-0.236014 0.000933436 4.67445e-21)
(-0.235645 1.13654e-05 4.39854e-21)
(-0.234646 -0.000993985 -2.36353e-21)
(-0.232907 -0.00209507 3.96889e-21)
(-0.230344 -0.00329449 2.86227e-22)
(-0.226801 -0.00461377 -1.57673e-21)
(-0.222196 -0.00604028 2.27364e-21)
(-0.216302 -0.00761035 1.02522e-20)
(-0.20907 -0.00927365 -9.34882e-22)
(-0.200178 -0.0111052 1.29222e-20)
(-0.189648 -0.0129705 -1.40242e-21)
(-0.177098 -0.015046 7.71608e-21)
(-0.162525 -0.0170107 -3.37431e-21)
(-0.145824 -0.0193001 -4.12783e-21)
(-0.126305 -0.0211639 1.30485e-21)
(-0.105544 -0.0236893 1.24661e-21)
(-0.0796078 -0.0251014 -3.68995e-22)
(-0.0562959 -0.0281009 -2.96497e-21)
(-0.0208038 -0.0284765 -2.72406e-22)
(0.000706809 -0.0327488 3.90097e-21)
(0.0525414 -0.0313234 -5.20502e-22)
(0.0640351 -0.038322 -2.51496e-24)
(0.144021 -0.0391669 -9.20435e-23)
(-0.158217 0.0158066 -7.34301e-21)
(-0.16267 0.0152292 -2.04079e-20)
(-0.167045 0.0146549 3.65221e-21)
(-0.171337 0.0140834 1.82866e-20)
(-0.175539 0.0135142 -8.20881e-21)
(-0.179644 0.0129469 9.49539e-22)
(-0.183645 0.0123804 -1.3531e-20)
(-0.187534 0.0118137 1.04892e-20)
(-0.191301 0.0112457 1.19958e-20)
(-0.194938 0.0106748 8.81201e-21)
(-0.198434 0.0100994 -2.61008e-20)
(-0.201778 0.00951756 3.48897e-20)
(-0.204955 0.00892737 -1.72313e-20)
(-0.207953 0.0083264 1.63385e-20)
(-0.210755 0.00771209 -1.06197e-20)
(-0.213343 0.00708125 1.88043e-20)
(-0.215697 0.00643047 2.66961e-21)
(-0.217794 0.0057554 8.84732e-21)
(-0.219608 0.00505125 -1.33854e-20)
(-0.221107 0.00431212 -1.87016e-20)
(-0.222257 0.00353066 4.75579e-21)
(-0.223016 0.00270007 9.32681e-21)
(-0.223334 0.00180923 1.10418e-20)
(-0.223153 0.000860138 -7.79026e-21)
(-0.222409 -0.00018829 -6.6957e-21)
(-0.22103 -0.00132187 -1.87935e-20)
(-0.218907 -0.00256411 1.19522e-20)
(-0.215962 -0.00391734 -2.93239e-21)
(-0.212039 -0.00540623 -6.05826e-21)
(-0.207063 -0.00701636 1.39728e-21)
(-0.200804 -0.00878894 -1.49008e-20)
(-0.193228 -0.0106669 -5.24107e-21)
(-0.184006 -0.012735 -4.21454e-21)
(-0.173179 -0.014841 6.13826e-21)
(-0.160348 -0.0171848 -6.82143e-21)
(-0.145549 -0.0194017 2.28221e-21)
(-0.128635 -0.0219868 8.04234e-22)
(-0.10898 -0.0240858 -4.84945e-22)
(-0.088093 -0.0269385 3.04662e-21)
(-0.0621214 -0.0285193 -1.06127e-21)
(-0.0387901 -0.0319109 -2.32893e-21)
(-0.00337285 -0.0323057 -3.23779e-21)
(0.0180707 -0.0371262 -5.42687e-21)
(0.0696194 -0.0355455 -9.37372e-22)
(0.081091 -0.0432407 -1.65033e-21)
(0.159878 -0.0442112 2.19732e-22)
(-0.15088 0.0173805 -3.10034e-21)
(-0.155107 0.0167365 -7.93104e-21)
(-0.159253 0.0160957 5.48554e-21)
(-0.163312 0.0154578 -8.44343e-22)
(-0.167276 0.0148222 6.62675e-21)
(-0.171139 0.0141885 -6.95504e-21)
(-0.174893 0.0135555 8.13904e-21)
(-0.178528 0.0129222 -4.00197e-21)
(-0.182037 0.0122872 1.01855e-21)
(-0.185408 0.0116488 -6.46063e-21)
(-0.18863 0.0110054 1.20603e-20)
(-0.191692 0.0103549 3.51897e-21)
(-0.19458 0.009695 -5.53878e-21)
(-0.197278 0.00902317 -3.03509e-20)
(-0.199772 0.0083366 7.1485e-21)
(-0.202041 0.00763177 -5.06539e-21)
(-0.204065 0.00690496 1.10281e-20)
(-0.205822 0.00615137 -1.87043e-20)
(-0.207283 0.00536575 2.35407e-20)
(-0.20842 0.00454155 -1.76964e-21)
(-0.209196 0.0036706 -2.87003e-21)
(-0.209571 0.00274545 -6.89569e-21)
(-0.209494 0.00175418 -7.88545e-22)
(-0.208913 0.000706293 -8.02223e-21)
(-0.207762 -0.000469954 1.52646e-20)
(-0.205969 -0.0017305 8.13947e-21)
(-0.20343 -0.0031119 9.76006e-21)
(-0.20007 -0.0046165 -1.96237e-20)
(-0.195735 -0.00627201 3.86742e-21)
(-0.190356 -0.00806217 1.55997e-21)
(-0.183704 -0.0100331 3.01394e-21)
(-0.175756 -0.0121209 5.91159e-21)
(-0.166177 -0.0144204 2.88129e-21)
(-0.155032 -0.0167613 5.88736e-21)
(-0.1419 -0.019367 6.57421e-21)
(-0.126861 -0.0218293 -7.81542e-21)
(-0.109723 -0.0247035 1.13875e-20)
(-0.0899274 -0.0270298 1.12939e-21)
(-0.0689126 -0.0302039 -1.01101e-20)
(-0.0429122 -0.0319441 6.70668e-21)
(-0.019571 -0.0357268 7.32592e-22)
(0.0157509 -0.0361275 4.78245e-21)
(0.0371069 -0.0414827 1.11101e-21)
(0.0883249 -0.0397552 7.28477e-22)
(0.0997739 -0.0480923 8.16013e-22)
(0.177248 -0.0491858 -4.52818e-22)
(-0.146743 0.0181576 3.94318e-20)
(-0.15064 0.0174509 -5.1869e-20)
(-0.154445 0.016747 -2.1594e-20)
(-0.158152 0.0160455 5.88511e-20)
(-0.161752 0.0153455 4.56609e-22)
(-0.165238 0.0146462 -2.39968e-20)
(-0.168599 0.0139463 1.84731e-20)
(-0.171827 0.0132442 -7.14969e-21)
(-0.174911 0.0125383 -1.53559e-20)
(-0.177838 0.0118266 6.71638e-21)
(-0.180597 0.0111069 -2.49108e-20)
(-0.183172 0.0103769 3.78826e-20)
(-0.185549 0.00963365 -1.29059e-20)
(-0.18771 0.00887422 -1.44029e-21)
(-0.189637 0.00809478 1.12994e-20)
(-0.191307 0.00729133 -5.60015e-21)
(-0.192698 0.00645863 -1.75e-22)
(-0.193783 0.00559105 -8.54381e-21)
(-0.194531 0.00468144 7.23861e-21)
(-0.194907 0.00372081 1.44119e-20)
(-0.194871 0.0027011 -1.14774e-20)
(-0.194371 0.00160951 1.6418e-20)
(-0.193362 0.0004498 -4.28272e-21)
(-0.191777 -0.000839415 -2.18497e-20)
(-0.189541 -0.00222523 1.75253e-20)
(-0.186557 -0.0037436 -1.62175e-21)
(-0.182754 -0.00539686 3.77444e-21)
(-0.177979 -0.00721568 -1.18438e-20)
(-0.172171 -0.00918196 1.67364e-20)
(-0.1651 -0.0113466 -8.0883e-21)
(-0.156759 -0.0136392 -1.14896e-21)
(-0.146801 -0.0161642 -1.01814e-20)
(-0.135323 -0.0187335 -9.7889e-21)
(-0.121873 -0.0215943 -1.25166e-21)
(-0.106586 -0.0242946 2.4461e-21)
(-0.0892142 -0.0274506 -1.4732e-20)
(-0.0692791 -0.0299955 -4.54852e-21)
(-0.048138 -0.0334844 6.30128e-21)
(-0.0221191 -0.0353738 -1.62143e-21)
(0.00122048 -0.0395426 3.27359e-21)
(0.0364248 -0.0399443 -4.74068e-21)
(0.057671 -0.0458139 -2.29455e-21)
(0.108508 -0.0439471 1.42878e-21)
(0.119935 -0.0528716 1.24891e-21)
(0.195995 -0.0540837 3.372e-22)
(-0.137586 0.0194863 -1.16864e-20)
(-0.141214 0.0187144 -6.67075e-21)
(-0.144747 0.0179452 -9.61079e-21)
(-0.148178 0.0171781 2.57394e-20)
(-0.151496 0.0164124 2.45536e-20)
(-0.154695 0.015647 -3.95645e-20)
(-0.157764 0.0148806 5.98784e-20)
(-0.160692 0.0141115 -2.05279e-20)
(-0.163469 0.0133379 -2.08665e-20)
(-0.166083 0.0125577 1.0719e-20)
(-0.168518 0.0117686 4.9278e-21)
(-0.170762 0.010968 -4.49605e-21)
(-0.172797 0.0101528 -1.64479e-20)
(-0.174606 0.00932002 8.36188e-21)
(-0.176169 0.0084654 1.24082e-20)
(-0.177465 0.00758473 9.06496e-21)
(-0.17847 0.00667239 -4.53247e-21)
(-0.179156 0.0057224 -3.15037e-21)
(-0.179494 0.00472706 -1.10458e-21)
(-0.179447 0.00367662 -7.35359e-21)
(-0.178977 0.00256248 3.45807e-21)
(-0.178032 0.00137249 -1.93897e-20)
(-0.176571 9.28994e-05 2.85001e-20)
(-0.174527 -0.00130071 -2.84703e-21)
(-0.171824 -0.00281024 -8.29678e-21)
(-0.168373 -0.00446319 -1.587e-20)
(-0.164104 -0.00626219 1.96421e-21)
(-0.158866 -0.00824074 -3.03438e-21)
(-0.152609 -0.0103789 1.50931e-21)
(-0.145099 -0.0127323 8.26498e-21)
(-0.136346 -0.015224 -6.50915e-21)
(-0.125993 -0.0179681 1.09669e-20)
(-0.114168 -0.0207591 2.26359e-21)
(-0.100391 -0.0238675 -8.38029e-22)
(-0.0848495 -0.0267976 6.4464e-21)
(-0.067241 -0.0302275 2.03047e-20)
(-0.0471695 -0.0329818 2.8224e-21)
(-0.0259075 -0.0367785 7.4773e-21)
(0.000117049 -0.0388058 3.05797e-21)
(0.0234394 -0.0433516 -5.39944e-21)
(0.0585017 -0.0437535 1.58418e-21)
(0.0796164 -0.0501177 5.51072e-21)
(0.130018 -0.0481172 -2.30184e-21)
(0.141425 -0.0575736 -6.33318e-22)
(0.215978 -0.0588983 4.69445e-23)
(-0.127638 0.020717 4.49733e-21)
(-0.130982 0.0198809 4.02282e-20)
(-0.134226 0.0190471 -2.23095e-20)
(-0.137363 0.0182151 -7.53363e-21)
(-0.140383 0.0173842 -1.47266e-21)
(-0.143278 0.0165531 -1.25118e-20)
(-0.146037 0.0157205 5.75999e-20)
(-0.14865 0.0148845 -3.7694e-20)
(-0.151104 0.0140433 9.20534e-21)
(-0.153386 0.0131945 -3.28212e-20)
(-0.155483 0.0123357 6.42979e-21)
(-0.157377 0.0114642 2.13557e-20)
(-0.159054 0.0105768 -9.1417e-21)
(-0.160494 0.00967011 -6.0856e-21)
(-0.161677 0.0087398 1.10768e-20)
(-0.162581 0.00778142 -1.02377e-20)
(-0.163181 0.00678894 -9.47972e-22)
(-0.163451 0.00575617 1.24603e-20)
(-0.16336 0.00467485 -9.97872e-21)
(-0.162873 0.0035345 2.26895e-20)
(-0.16195 0.00232635 -8.42179e-22)
(-0.160543 0.00104552 -2.55002e-21)
(-0.158611 -0.000352902 -1.23333e-20)
(-0.156087 -0.0018569 -1.28574e-20)
(-0.152901 -0.00348849 4.58093e-21)
(-0.148962 -0.00527351 7.76529e-21)
(-0.144209 -0.00721511 8.95233e-21)
(-0.138492 -0.00934954 8.10994e-21)
(-0.131769 -0.011655 -2.19309e-21)
(-0.123804 -0.0141919 -5.63642e-21)
(-0.114627 -0.0168766 4.68605e-21)
(-0.103868 -0.0198331 2.08998e-21)
(-0.0916874 -0.0228383 8.75435e-22)
(-0.0775763 -0.0261864 -2.13828e-21)
(-0.06178 -0.0293376 1.78989e-21)
(-0.0439348 -0.0330332 -3.67968e-21)
(-0.023734 -0.0359867 -2.24318e-21)
(-0.00235997 -0.040084 -6.58267e-21)
(0.0236547 -0.0422378 -3.55401e-21)
(0.0469415 -0.0471519 3.95078e-21)
(0.0818342 -0.0475478 4.64818e-21)
(0.102797 -0.0543899 -4.87713e-21)
(0.152703 -0.052261 1.17029e-21)
(0.164091 -0.0621938 1.496e-21)
(0.237057 -0.0636236 -2.29476e-22)
(-0.116903 0.0218451 -4.35995e-21)
(-0.119946 0.0209457 -3.61176e-21)
(-0.122886 0.0200483 -3.72015e-20)
(-0.125714 0.0191523 5.35035e-20)
(-0.128422 0.0182568 -4.05613e-20)
(-0.130999 0.0173607 7.67913e-20)
(-0.133434 0.0164622 -4.51598e-20)
(-0.135717 0.0155597 3.74887e-20)
(-0.137833 0.014651 -1.79807e-20)
(-0.13977 0.0137337 -9.04014e-21)
(-0.141513 0.0128051 -1.77348e-20)
(-0.143045 0.0118626 4.46427e-20)
(-0.144349 0.0109026 -3.04439e-21)
(-0.145406 0.00992166 -1.31124e-20)
(-0.146195 0.00891526 1.09366e-20)
(-0.146693 0.00787874 -4.42433e-22)
(-0.146876 0.00680574 -2.4736e-20)
(-0.146716 0.00568988 -8.06274e-21)
(-0.146182 0.00452243 1.87734e-21)
(-0.14524 0.00329212 -2.21026e-21)
(-0.14385 0.00199055 -7.70018e-21)
(-0.141967 0.000620411 1.27448e-20)
(-0.139551 -0.000894353 -1.5784e-22)
(-0.136532 -0.00251012 -9.3901e-21)
(-0.132848 -0.00426176 -4.20787e-21)
(-0.12841 -0.00617621 -2.76282e-21)
(-0.12316 -0.0082571 -3.63221e-21)
(-0.11695 -0.0105433 -2.76981e-21)
(-0.10975 -0.0130113 4.49769e-21)
(-0.101321 -0.015726 5.64834e-21)
(-0.0917115 -0.0185974 -5.23499e-21)
(-0.0805382 -0.0217591 -7.13821e-21)
(-0.0679999 -0.0249706 1.16196e-20)
(-0.0535523 -0.02855 -6.62053e-21)
(-0.0375043 -0.0319133 -1.15377e-20)
(-0.0194266 -0.0358657 -3.67959e-21)
(0.000893271 -0.0390079 -4.4241e-21)
(0.0223673 -0.0433977 -5.99573e-21)
(0.0483539 -0.0456667 -4.12169e-21)
(0.0715851 -0.0509407 -5.48498e-22)
(0.106277 -0.0513216 -6.62757e-21)
(0.127068 -0.0586251 4.47308e-21)
(0.176415 -0.0563735 -1.71625e-23)
(0.187787 -0.066728 -2.219e-23)
(0.259094 -0.068254 6.34198e-22)
(-0.105378 0.0228666 3.00032e-20)
(-0.108107 0.0219053 2.86659e-20)
(-0.11073 0.0209454 -8.18948e-21)
(-0.113237 0.0199864 -4.13863e-20)
(-0.115619 0.0190272 6.90934e-21)
(-0.117866 0.0180667 -2.78655e-20)
(-0.119965 0.0171031 5.26528e-20)
(-0.121905 0.0161344 -4.13244e-20)
(-0.123673 0.0151585 1.81023e-20)
(-0.125253 0.0141729 2.05952e-20)
(-0.126632 0.0131747 -2.41055e-20)
(-0.12779 0.012161 1.78227e-21)
(-0.128711 0.0111282 -4.39159e-20)
(-0.129374 0.0100729 3.60334e-20)
(-0.129759 0.00899011 3.77567e-20)
(-0.129841 0.00787516 -3.71325e-20)
(-0.129596 0.00672132 -1.5834e-20)
(-0.128995 0.00552218 5.86646e-20)
(-0.12801 0.00426856 -3.25792e-20)
(-0.126603 0.00294831 -2.74274e-20)
(-0.124734 0.00155528 -7.16866e-21)
(-0.122367 7.88872e-05 4.95255e-21)
(-0.119459 -0.0015352 -3.81664e-21)
(-0.115935 -0.00326122 -8.23159e-21)
(-0.111745 -0.00513068 -6.28363e-22)
(-0.106797 -0.0071718 1.04619e-20)
(-0.101043 -0.00938849 -8.7697e-21)
(-0.0943327 -0.0118222 3.75356e-21)
(-0.0866499 -0.0144476 -1.58243e-20)
(-0.07775 -0.0173342 3.28092e-21)
(-0.0677054 -0.0203857 4.16564e-21)
(-0.0561161 -0.023745 2.54767e-21)
(-0.0432212 -0.0271547 -1.90467e-21)
(-0.0284391 -0.0309566 5.96245e-21)
(-0.0121463 -0.0345224 -8.21171e-21)
(0.00615606 -0.0387224 7.63672e-21)
(0.0265815 -0.0420422 7.27072e-21)
(0.0481404 -0.046716 8.0904e-21)
(0.0740781 -0.0490886 1.07998e-21)
(0.0972323 -0.0547137 -4.09957e-21)
(0.13169 -0.0550705 2.46518e-21)
(0.152291 -0.0628172 5.19773e-22)
(0.201014 -0.0604494 9.90604e-22)
(0.21237 -0.0711721 -3.0774e-21)
(0.281955 -0.0727844 -1.02382e-22)
(-0.0930571 0.0237786 1.54775e-21)
(-0.0954615 0.0227568 -2.58946e-20)
(-0.0977561 0.0217358 -1.41786e-20)
(-0.0999315 0.0207149 -1.42564e-20)
(-0.101978 0.0196931 -6.67032e-21)
(-0.103883 0.0186691 -1.50436e-20)
(-0.105637 0.0176411 5.31184e-22)
(-0.107226 0.016607 4.83892e-21)
(-0.108635 0.0155644 -1.70917e-20)
(-0.109851 0.0145108 3.30709e-20)
(-0.110856 0.0134431 -2.54123e-20)
(-0.111633 0.0123584 3.71593e-21)
(-0.112163 0.0112529 2.27162e-20)
(-0.112426 0.0101231 -4.17049e-20)
(-0.112398 0.00896375 3.55955e-20)
(-0.112058 0.0077702 -2.25707e-20)
(-0.111379 0.00653535 4.03656e-20)
(-0.110332 0.00525287 -4.97597e-21)
(-0.108888 0.00391311 -1.30752e-20)
(-0.107011 0.00250286 -6.4379e-21)
(-0.104661 0.00102592 5.83856e-20)
(-0.101804 -0.000569281 -3.18713e-20)
(-0.0983968 -0.00227501 1.49537e-20)
(-0.0943646 -0.00410981 -2.71404e-21)
(-0.089664 -0.00609479 -3.41214e-22)
(-0.0842036 -0.0082597 5.0496e-21)
(-0.0779415 -0.0106085 -6.24685e-21)
(-0.0707291 -0.0131854 1.33681e-20)
(-0.062562 -0.0159629 1.67621e-20)
(-0.0531912 -0.0190152 -4.24367e-21)
(-0.0427125 -0.0222399 -2.23915e-20)
(-0.0307094 -0.025789 1.59405e-20)
(-0.0174633 -0.0293885 -7.75323e-21)
(-0.00235288 -0.0334036 -2.13178e-20)
(0.0141742 -0.037162 1.46527e-20)
(0.0326897 -0.0416001 -1.16247e-20)
(0.0532045 -0.0450859 -8.31863e-21)
(0.0748303 -0.0500349 -5.54853e-21)
(0.100696 -0.0524988 -5.63203e-21)
(0.123751 -0.0584661 5.31238e-21)
(0.157936 -0.0587901 1.61472e-21)
(0.178333 -0.0669603 -5.01699e-21)
(0.226363 -0.0644832 -1.61412e-21)
(0.237704 -0.0755225 2.06321e-21)
(0.305512 -0.07721 -3.42651e-22)
(-0.0799297 0.0245789 -6.88606e-20)
(-0.0820001 0.0234983 6.50263e-20)
(-0.0839579 0.0224176 -4.96848e-20)
(-0.0857931 0.0213363 -1.98758e-20)
(-0.0874954 0.0202532 4.17077e-20)
(-0.0890531 0.0191668 4.66564e-20)
(-0.090454 0.0180754 -6.38962e-20)
(-0.0916844 0.0169766 4.86971e-20)
(-0.0927299 0.0158681 -4.15471e-20)
(-0.0935745 0.0147469 7.10882e-21)
(-0.0942012 0.0136103 3.57839e-20)
(-0.0945918 0.0124548 2.75385e-21)
(-0.0947263 0.0112767 -5.31995e-21)
(-0.094584 0.0100725 2.84036e-21)
(-0.0941419 0.00883663 3.44717e-21)
(-0.0933759 0.00756446 -1.60842e-22)
(-0.0922596 0.00624857 6.52617e-21)
(-0.0907641 0.00488283 -1.22064e-20)
(-0.0888611 0.00345697 -5.1103e-21)
(-0.0865108 0.00195679 -1.29865e-20)
(-0.0836805 0.00039779 2.6543e-21)
(-0.0803346 -0.00130832 -4.61757e-21)
(-0.0764252 -0.00311227 -4.99502e-21)
(-0.0718861 -0.00505439 1.54685e-21)
(-0.0666757 -0.00715249 2.18557e-20)
(-0.0607038 -0.00943819 -6.46487e-21)
(-0.053936 -0.0119155 -3.16652e-21)
(-0.0462235 -0.0146308 7.95489e-21)
(-0.0375756 -0.0175552 -2.81203e-21)
(-0.0277379 -0.0207668 -4.51126e-21)
(-0.0168312 -0.0241575 -1.28885e-20)
(-0.00442088 -0.0278883 1.46573e-20)
(0.00916683 -0.0316688 -4.34608e-21)
(0.0245956 -0.0358879 1.4255e-20)
(0.0413429 -0.0398285 -2.98079e-22)
(0.0600567 -0.0444949 1.0631e-20)
(0.0806417 -0.0481351 9.85768e-21)
(0.102314 -0.0533502 -5.40096e-21)
(0.128081 -0.0558928 4.7827e-21)
(0.151015 -0.0621926 1.72388e-21)
(0.184887 -0.0624755 2.72769e-21)
(0.205065 -0.0710483 2.66515e-21)
(0.252333 -0.0684694 -5.09321e-22)
(0.263658 -0.0797759 2.43847e-21)
(0.329644 -0.0815267 7.92067e-23)
(-0.0659793 0.0252663 9.30913e-21)
(-0.0677091 0.0241288 1.09332e-20)
(-0.0693237 0.0229902 -1.75246e-20)
(-0.0708131 0.02185 5.74844e-20)
(-0.0721662 0.020707 -6.02989e-20)
(-0.073371 0.0195596 3.48214e-20)
(-0.0744146 0.0184059 -4.05117e-20)
(-0.075283 0.0172435 2.05905e-20)
(-0.0759607 0.0160698 3.75965e-21)
(-0.0764314 0.014882 -1.85624e-20)
(-0.0766774 0.0136768 4.12131e-21)
(-0.0766796 0.0124511 9.46123e-21)
(-0.0764174 0.0112008 3.08522e-21)
(-0.0758695 0.00992236 -1.72789e-21)
(-0.0750123 0.0086102 -1.87732e-20)
(-0.0738211 0.00725956 -2.09225e-20)
(-0.0722689 0.00586273 2.45571e-20)
(-0.0703266 0.00441399 -2.65054e-20)
(-0.0679665 0.00290215 -6.25843e-21)
(-0.0651452 0.00131852 3.22651e-20)
(-0.0618387 -0.000343944 2.64854e-20)
(-0.0580079 -0.00214126 -3.01667e-20)
(-0.0536006 -0.00404475 2.54284e-20)
(-0.0485595 -0.00609234 -1.56466e-21)
(-0.0428449 -0.00830117 -5.04823e-21)
(-0.0363674 -0.0107046 1.03058e-20)
(-0.0291006 -0.0133064 -4.11104e-21)
(-0.0208951 -0.0161555 -1.24949e-20)
(-0.0117747 -0.0192213 1.61415e-20)
(-0.00147863 -0.0225857 6.43092e-22)
(0.00984551 -0.0261353 2.94597e-20)
(0.0226524 -0.0300395 -7.79681e-21)
(0.0365681 -0.0339922 -1.30559e-21)
(0.0523013 -0.0384055 -7.96801e-21)
(0.0692515 -0.0425178 -9.42757e-21)
(0.0881457 -0.0474027 -5.2338e-21)
(0.108779 -0.0511851 -2.85489e-21)
(0.130476 -0.056657 8.693e-21)
(0.156117 -0.0592659 8.49258e-21)
(0.178906 -0.0658875 -7.04043e-21)
(0.212422 -0.0661218 5.48585e-22)
(0.232369 -0.0750748 -1.87345e-21)
(0.278806 -0.0724018 1.96986e-21)
(0.290113 -0.0839291 -4.34386e-21)
(0.354234 -0.0857304 7.12192e-23)
(-0.0511831 0.0258408 1.19547e-20)
(-0.0525683 0.0246482 -5.19643e-21)
(-0.0538364 0.0234537 1.74616e-20)
(-0.0549768 0.0222564 -2.9311e-21)
(-0.0559782 0.0210552 -2.97127e-20)
(-0.0568281 0.0198483 3.67818e-20)