/*--------------------------------*- C++ -*----------------------------------*\
  =========                 |
  \\      /  F ield         | OpenFOAM: The Open Source CFD Toolbox
   \\    /   O peration     | Website:  https://openfoam.org
    \\  /    A nd           | Version:  7
     \\/     M anipulation  |
\*---------------------------------------------------------------------------*/
FoamFile
{
    version     2.0;
    format      ascii;
    class       volScalarField;
    location    "35";
    object      p;
}
// * * * * * * * * * * * * * * * * * * * * * * * * * * * * * * * * * * * * * //

dimensions      [0 2 -2 0 0 0 0];

internalField   nonuniform List<scalar> 
34000
(
-0.197258
-0.198297
-0.198929
-0.199471
-0.199946
-0.200355
-0.200716
-0.20104
-0.201338
-0.201616
-0.201878
-0.202128
-0.202367
-0.202597
-0.20282
-0.203038
-0.203253
-0.203468
-0.203686
-0.203908
-0.1973
-0.198336
-0.198967
-0.199507
-0.19998
-0.200388
-0.200747
-0.20107
-0.201367
-0.201643
-0.201903
-0.202151
-0.202389
-0.202617
-0.202838
-0.203054
-0.203267
-0.20348
-0.203696
-0.203915
-0.197387
-0.198417
-0.199045
-0.199582
-0.200051
-0.200456
-0.200812
-0.201133
-0.201426
-0.201699
-0.201956
-0.202201
-0.202435
-0.20266
-0.202877
-0.203089
-0.203298
-0.203509
-0.20372
-0.203933
-0.197519
-0.19854
-0.199162
-0.199694
-0.200159
-0.200559
-0.200911
-0.201227
-0.201516
-0.201784
-0.202037
-0.202276
-0.202505
-0.202725
-0.202937
-0.203144
-0.203347
-0.203553
-0.203759
-0.203961
-0.197695
-0.198705
-0.199319
-0.199845
-0.200303
-0.200697
-0.201043
-0.201353
-0.201636
-0.201898
-0.202144
-0.202377
-0.202599
-0.202812
-0.203017
-0.203216
-0.203412
-0.203612
-0.203811
-0.204
-0.197914
-0.198909
-0.199515
-0.200032
-0.200483
-0.200869
-0.201208
-0.20151
-0.201785
-0.202039
-0.202277
-0.202502
-0.202716
-0.20292
-0.203116
-0.203306
-0.203493
-0.203684
-0.203874
-0.204047
-0.198175
-0.199154
-0.199749
-0.200257
-0.200698
-0.201075
-0.201404
-0.201697
-0.201963
-0.202208
-0.202436
-0.202651
-0.202854
-0.203048
-0.203232
-0.203411
-0.203587
-0.203769
-0.203948
-0.204101
-0.198478
-0.199437
-0.200021
-0.200517
-0.200947
-0.201314
-0.201632
-0.201914
-0.202169
-0.202403
-0.20262
-0.202823
-0.203013
-0.203194
-0.203366
-0.203531
-0.203694
-0.203864
-0.20403
-0.204159
-0.198821
-0.199759
-0.200328
-0.200812
-0.20123
-0.201584
-0.20189
-0.20216
-0.202402
-0.202623
-0.202826
-0.203015
-0.203192
-0.203357
-0.203514
-0.203663
-0.203811
-0.203968
-0.204119
-0.204221
-0.199204
-0.200118
-0.200672
-0.201141
-0.201545
-0.201886
-0.202178
-0.202434
-0.202661
-0.202867
-0.203055
-0.203228
-0.203388
-0.203536
-0.203675
-0.203807
-0.203936
-0.204078
-0.204212
-0.204283
-0.199624
-0.200512
-0.20105
-0.201504
-0.201892
-0.202217
-0.202494
-0.202734
-0.202945
-0.203134
-0.203305
-0.20346
-0.203601
-0.203729
-0.203848
-0.203959
-0.204067
-0.204192
-0.204307
-0.204342
-0.20008
-0.200942
-0.201462
-0.201898
-0.20227
-0.202578
-0.202837
-0.203059
-0.203252
-0.203423
-0.203574
-0.203709
-0.203828
-0.203935
-0.20403
-0.204117
-0.204203
-0.204307
-0.2044
-0.204396
-0.200572
-0.201404
-0.201906
-0.202324
-0.202677
-0.202967
-0.203207
-0.20341
-0.203582
-0.203732
-0.203861
-0.203973
-0.204069
-0.204151
-0.20422
-0.204281
-0.204339
-0.20442
-0.20449
-0.20444
-0.201097
-0.2019
-0.202381
-0.20278
-0.203113
-0.203382
-0.203602
-0.203783
-0.203934
-0.20406
-0.204165
-0.204252
-0.204322
-0.204375
-0.204416
-0.204447
-0.204475
-0.204529
-0.204573
-0.204471
-0.201655
-0.202427
-0.202887
-0.203265
-0.203577
-0.203824
-0.204021
-0.204179
-0.204305
-0.204406
-0.204485
-0.204544
-0.204585
-0.204607
-0.204615
-0.204613
-0.204607
-0.204632
-0.204646
-0.204485
-0.202244
-0.202984
-0.203422
-0.203778
-0.204067
-0.204291
-0.204463
-0.204596
-0.204695
-0.204769
-0.204819
-0.204848
-0.204856
-0.204845
-0.204817
-0.204777
-0.204733
-0.204724
-0.204707
-0.204477
-0.202863
-0.203571
-0.203986
-0.204318
-0.204583
-0.204781
-0.204928
-0.205032
-0.205104
-0.205147
-0.205166
-0.205162
-0.205135
-0.205087
-0.205019
-0.204937
-0.20485
-0.204803
-0.204752
-0.204441
-0.203511
-0.204186
-0.204577
-0.204885
-0.205124
-0.205295
-0.205413
-0.205489
-0.205529
-0.20554
-0.205525
-0.205485
-0.205421
-0.205332
-0.205221
-0.205093
-0.204957
-0.204866
-0.204778
-0.204372
-0.204187
-0.204829
-0.205196
-0.205478
-0.205689
-0.205832
-0.20592
-0.205963
-0.20597
-0.205947
-0.205895
-0.205817
-0.205712
-0.205579
-0.20542
-0.205241
-0.205052
-0.204911
-0.204783
-0.204253
-0.204891
-0.205499
-0.205841
-0.206096
-0.206278
-0.20639
-0.206446
-0.206455
-0.206427
-0.206366
-0.206276
-0.206157
-0.206007
-0.205827
-0.205617
-0.205382
-0.205133
-0.204936
-0.204771
-0.204064
-0.205621
-0.206197
-0.206512
-0.206739
-0.206891
-0.20697
-0.206991
-0.206964
-0.206898
-0.206798
-0.206666
-0.206503
-0.206307
-0.206076
-0.20581
-0.205515
-0.205199
-0.20494
-0.204749
-0.203858
-0.206379
-0.206921
-0.207209
-0.207406
-0.207526
-0.207571
-0.207555
-0.207489
-0.207383
-0.207241
-0.207066
-0.206856
-0.206611
-0.206326
-0.206
-0.205639
-0.20525
-0.204917
-0.204634
-0.203663
-0.207163
-0.207671
-0.207931
-0.208098
-0.208183
-0.208192
-0.208137
-0.208031
-0.207882
-0.207695
-0.207474
-0.207216
-0.206918
-0.206576
-0.206187
-0.205755
-0.205286
-0.204874
-0.204503
-0.203381
-0.207974
-0.208449
-0.20868
-0.208815
-0.208864
-0.208833
-0.208737
-0.208587
-0.208393
-0.208161
-0.207891
-0.207582
-0.20723
-0.206828
-0.206372
-0.205863
-0.205308
-0.204807
-0.204349
-0.203019
-0.208813
-0.209254
-0.209456
-0.209556
-0.209568
-0.209496
-0.209356
-0.20916
-0.208918
-0.208636
-0.208316
-0.207954
-0.207545
-0.207082
-0.206556
-0.205967
-0.205317
-0.204717
-0.204165
-0.202578
-0.209681
-0.210088
-0.210259
-0.210323
-0.210294
-0.210179
-0.209992
-0.209748
-0.209456
-0.209123
-0.20875
-0.208333
-0.207866
-0.207338
-0.206741
-0.206067
-0.205316
-0.204605
-0.203953
-0.202055
-0.210578
-0.210951
-0.211089
-0.211117
-0.211045
-0.210883
-0.210647
-0.210352
-0.210007
-0.20962
-0.209192
-0.208718
-0.208192
-0.207599
-0.206927
-0.206166
-0.205308
-0.204475
-0.203714
-0.201443
-0.211506
-0.211845
-0.21195
-0.211937
-0.21182
-0.211609
-0.211321
-0.210971
-0.210571
-0.210128
-0.209642
-0.209111
-0.208523
-0.207864
-0.207116
-0.206267
-0.205296
-0.20433
-0.203454
-0.200738
-0.212467
-0.212771
-0.21284
-0.212786
-0.212622
-0.212358
-0.212015
-0.211608
-0.211149
-0.210647
-0.210102
-0.20951
-0.20886
-0.208134
-0.207311
-0.206371
-0.205285
-0.204175
-0.20318
-0.199937
-0.213464
-0.213731
-0.213764
-0.213665
-0.21345
-0.213131
-0.212729
-0.212261
-0.211741
-0.211177
-0.210571
-0.209918
-0.209204
-0.208411
-0.207512
-0.206482
-0.205278
-0.204015
-0.202897
-0.199042
-0.214498
-0.214728
-0.214722
-0.214576
-0.214307
-0.21393
-0.213466
-0.212933
-0.212348
-0.211719
-0.211049
-0.210333
-0.209555
-0.208694
-0.207721
-0.206601
-0.20528
-0.203855
-0.202614
-0.198057
-0.215574
-0.215765
-0.215718
-0.215522
-0.215195
-0.214755
-0.214225
-0.213625
-0.212971
-0.212275
-0.211538
-0.210756
-0.209913
-0.208985
-0.207938
-0.206731
-0.205293
-0.203701
-0.202338
-0.196994
-0.216693
-0.216844
-0.216753
-0.216503
-0.216116
-0.215609
-0.215009
-0.214337
-0.213611
-0.212844
-0.212038
-0.211188
-0.210279
-0.209283
-0.208163
-0.206872
-0.205321
-0.203561
-0.202073
-0.19587
-0.217861
-0.217969
-0.217831
-0.217525
-0.217072
-0.216495
-0.21582
-0.215072
-0.21427
-0.213428
-0.212549
-0.21163
-0.210653
-0.20959
-0.208399
-0.207027
-0.205367
-0.203442
-0.201819
-0.194714
-0.219082
-0.219144
-0.218956
-0.218588
-0.218066
-0.217414
-0.21666
-0.215832
-0.21495
-0.214029
-0.213075
-0.212083
-0.211036
-0.209906
-0.208645
-0.207197
-0.205435
-0.203356
-0.201576
-0.193578
-0.220359
-0.220372
-0.22013
-0.219698
-0.219102
-0.21837
-0.217533
-0.21662
-0.215654
-0.21465
-0.213617
-0.212549
-0.211431
-0.210232
-0.208904
-0.207385
-0.205528
-0.203323
-0.20134
-0.192552
-0.221699
-0.221658
-0.221359
-0.220857
-0.220183
-0.219366
-0.218441
-0.217438
-0.216383
-0.215294
-0.214177
-0.213031
-0.21184
-0.210573
-0.20918
-0.207597
-0.205654
-0.203364
-0.201077
-0.191688
-0.223106
-0.223008
-0.222646
-0.22207
-0.221312
-0.220405
-0.219387
-0.218291
-0.217143
-0.215963
-0.21476
-0.213533
-0.212266
-0.210931
-0.209477
-0.207841
-0.205833
-0.203525
-0.200686
-0.19088
-0.224587
-0.224425
-0.223997
-0.223342
-0.222494
-0.221493
-0.220377
-0.219181
-0.217936
-0.216662
-0.215369
-0.214058
-0.212714
-0.21131
-0.209802
-0.20813
-0.206102
-0.203909
-0.200246
-0.190576
-0.226147
-0.225916
-0.225417
-0.224676
-0.223734
-0.222633
-0.221414
-0.220115
-0.218768
-0.217396
-0.21601
-0.214611
-0.213189
-0.211717
-0.210158
-0.208471
-0.206486
-0.204619
-0.200536
-0.194776
-0.227793
-0.227487
-0.226909
-0.226078
-0.225036
-0.223829
-0.222502
-0.221096
-0.219644
-0.218169
-0.216687
-0.215198
-0.213695
-0.212154
-0.210547
-0.208856
-0.206946
-0.205501
-0.202107
-0.209871
-0.229532
-0.229142
-0.228481
-0.227554
-0.226406
-0.225088
-0.223648
-0.22213
-0.220568
-0.218989
-0.217406
-0.215825
-0.214237
-0.212625
-0.210967
-0.209269
-0.207419
-0.206333
-0.203147
-0.213554
-0.231371
-0.230889
-0.230138
-0.229107
-0.227848
-0.226414
-0.224857
-0.223222
-0.221547
-0.219859
-0.218175
-0.216498
-0.214822
-0.213134
-0.211417
-0.209697
-0.207867
-0.206964
-0.203774
-0.214046
-0.233316
-0.232733
-0.231885
-0.230746
-0.229368
-0.227813
-0.226134
-0.224379
-0.222588
-0.220788
-0.218998
-0.217222
-0.215454
-0.213683
-0.211897
-0.210131
-0.208278
-0.207402
-0.204178
-0.213633
-0.235375
-0.23468
-0.233729
-0.232474
-0.230973
-0.229291
-0.227486
-0.225607
-0.223696
-0.221782
-0.219883
-0.218003
-0.216138
-0.214276
-0.212405
-0.210567
-0.208644
-0.207668
-0.20436
-0.212528
-0.237554
-0.236738
-0.235676
-0.234298
-0.232667
-0.230854
-0.228918
-0.226912
-0.224878
-0.222847
-0.220835
-0.218847
-0.216877
-0.214913
-0.212939
-0.210997
-0.208959
-0.207776
-0.204329
-0.210948
-0.239862
-0.238912
-0.237731
-0.236224
-0.234458
-0.232508
-0.230437
-0.2283
-0.22614
-0.223988
-0.22186
-0.219759
-0.217676
-0.215595
-0.213499
-0.211419
-0.209219
-0.207743
-0.204114
-0.209099
-0.242304
-0.241209
-0.239901
-0.238257
-0.23635
-0.234259
-0.232049
-0.229778
-0.22749
-0.225214
-0.222965
-0.220742
-0.218535
-0.216322
-0.214079
-0.211826
-0.209421
-0.207589
-0.203743
-0.207117
-0.244887
-0.243635
-0.242192
-0.240405
-0.238349
-0.236112
-0.233761
-0.231353
-0.228932
-0.226528
-0.224152
-0.2218
-0.219456
-0.217092
-0.214676
-0.212216
-0.209565
-0.207329
-0.203239
-0.205092
-0.247618
-0.246195
-0.244609
-0.242671
-0.240463
-0.238076
-0.235578
-0.233029
-0.230473
-0.227936
-0.225426
-0.222935
-0.220438
-0.217903
-0.215287
-0.212584
-0.20965
-0.206979
-0.202623
-0.203079
-0.250503
-0.248895
-0.247158
-0.245063
-0.242696
-0.240154
-0.237507
-0.234814
-0.232119
-0.229443
-0.226791
-0.224147
-0.22148
-0.218749
-0.215904
-0.212925
-0.209675
-0.20655
-0.201908
-0.20111
-0.253547
-0.251741
-0.249844
-0.247586
-0.245055
-0.242353
-0.239553
-0.236713
-0.233873
-0.231052
-0.228246
-0.225435
-0.222577
-0.219625
-0.216521
-0.213236
-0.209641
-0.206051
-0.201108
-0.199201
-0.256754
-0.254737
-0.252672
-0.250244
-0.247543
-0.244679
-0.241723
-0.238731
-0.23574
-0.232765
-0.229794
-0.226797
-0.223726
-0.220525
-0.217132
-0.21351
-0.209544
-0.205488
-0.200232
-0.197355
-0.260131
-0.257887
-0.255647
-0.253042
-0.250168
-0.247137
-0.24402
-0.240872
-0.237724
-0.234583
-0.231431
-0.228229
-0.22492
-0.221441
-0.217728
-0.213742
-0.209385
-0.204863
-0.199286
-0.195568
-0.263679
-0.261195
-0.258772
-0.255985
-0.252933
-0.249731
-0.246449
-0.243139
-0.239826
-0.236507
-0.233157
-0.229726
-0.22615
-0.222363
-0.218299
-0.213924
-0.209159
-0.204178
-0.198275
-0.193828
-0.267402
-0.264665
-0.262051
-0.259077
-0.255842
-0.252465
-0.249015
-0.245535
-0.242046
-0.238536
-0.234966
-0.23128
-0.227408
-0.22328
-0.218838
-0.214051
-0.208863
-0.203431
-0.197199
-0.192124
-0.271301
-0.268298
-0.265487
-0.262321
-0.258898
-0.255343
-0.251718
-0.248062
-0.244385
-0.240664
-0.236852
-0.232883
-0.228682
-0.224183
-0.219333
-0.214114
-0.208494
-0.20262
-0.19606
-0.190438
-0.275378
-0.272095
-0.269081
-0.265718
-0.262105
-0.258368
-0.254562
-0.250719
-0.246839
-0.242887
-0.238806
-0.234522
-0.22996
-0.225058
-0.219774
-0.214107
-0.208048
-0.201741
-0.194856
-0.188756
-0.279633
-0.276058
-0.272836
-0.269272
-0.265464
-0.261539
-0.257546
-0.253505
-0.249404
-0.245198
-0.240818
-0.236186
-0.231229
-0.225892
-0.220151
-0.214021
-0.20752
-0.20079
-0.193583
-0.187061
-0.284063
-0.280186
-0.276749
-0.272981
-0.268976
-0.264859
-0.260669
-0.256416
-0.252074
-0.247587
-0.242876
-0.237861
-0.232474
-0.226673
-0.220454
-0.21385
-0.206904
-0.199762
-0.192239
-0.185339
-0.288666
-0.284476
-0.280821
-0.276846
-0.27264
-0.268324
-0.263927
-0.259446
-0.254841
-0.250041
-0.244965
-0.23953
-0.233679
-0.227388
-0.220671
-0.213586
-0.206196
-0.198653
-0.190818
-0.183576
-0.293438
-0.288925
-0.28505
-0.280864
-0.276453
-0.271932
-0.267317
-0.262588
-0.257692
-0.252548
-0.247069
-0.241178
-0.23483
-0.228022
-0.220793
-0.213221
-0.205391
-0.197456
-0.189316
-0.181758
-0.298372
-0.293528
-0.289429
-0.285033
-0.280412
-0.275678
-0.270829
-0.265831
-0.260615
-0.255091
-0.24917
-0.242786
-0.23591
-0.228563
-0.220809
-0.212748
-0.204482
-0.196166
-0.187728
-0.179874
-0.303461
-0.29828
-0.293956
-0.289345
-0.284511
-0.279554
-0.274455
-0.269163
-0.263594
-0.257652
-0.25125
-0.244335
-0.236902
-0.228997
-0.22071
-0.21216
-0.203464
-0.194776
-0.186048
-0.177914
-0.308695
-0.303171
-0.298621
-0.293795
-0.288742
-0.283551
-0.278183
-0.272568
-0.266611
-0.26021
-0.253287
-0.245807
-0.23779
-0.229312
-0.220486
-0.21145
-0.202332
-0.193282
-0.18427
-0.175869
-0.314062
-0.308191
-0.303415
-0.298374
-0.293096
-0.287657
-0.281998
-0.276029
-0.269645
-0.262744
-0.255261
-0.247182
-0.238559
-0.229495
-0.220128
-0.21061
-0.201078
-0.191677
-0.182388
-0.17373
-0.319548
-0.313329
-0.308328
-0.303069
-0.297559
-0.291858
-0.285882
-0.279526
-0.272675
-0.265232
-0.257149
-0.248442
-0.239192
-0.229534
-0.219626
-0.209633
-0.199697
-0.189954
-0.180396
-0.171488
-0.325138
-0.31857
-0.313346
-0.307867
-0.302117
-0.296136
-0.289816
-0.283035
-0.275674
-0.267647
-0.258928
-0.249565
-0.239674
-0.229416
-0.218972
-0.208512
-0.198182
-0.188108
-0.178289
-0.169138
-0.330813
-0.323897
-0.318452
-0.312752
-0.306753
-0.300471
-0.293776
-0.286532
-0.278619
-0.269966
-0.260576
-0.250534
-0.23999
-0.229132
-0.218156
-0.20724
-0.196527
-0.186132
-0.176059
-0.166671
-0.336551
-0.329292
-0.323629
-0.317706
-0.311445
-0.304841
-0.297738
-0.28999
-0.28148
-0.272161
-0.26207
-0.25133
-0.240124
-0.228668
-0.217169
-0.205808
-0.194724
-0.184019
-0.173701
-0.164082
-0.342331
-0.334734
-0.328857
-0.322706
-0.316172
-0.30922
-0.301674
-0.293379
-0.28423
-0.274207
-0.263388
-0.251934
-0.240064
-0.228015
-0.216004
-0.20421
-0.192767
-0.181762
-0.171208
-0.161364
-0.348127
-0.340199
-0.334111
-0.327731
-0.320907
-0.313581
-0.305554
-0.296669
-0.286838
-0.276078
-0.264506
-0.252328
-0.239795
-0.227161
-0.21465
-0.202438
-0.190648
-0.179355
-0.168574
-0.158511
-0.353911
-0.345662
-0.339368
-0.332752
-0.325623
-0.317893
-0.309346
-0.299828
-0.289276
-0.277745
-0.265403
-0.252495
-0.239303
-0.226095
-0.213099
-0.200483
-0.188361
-0.176791
-0.165792
-0.155517
-0.359653
-0.351094
-0.344598
-0.337742
-0.330289
-0.322124
-0.313017
-0.302823
-0.291512
-0.279185
-0.266058
-0.252419
-0.238576
-0.224809
-0.211343
-0.198338
-0.185897
-0.174063
-0.162856
-0.152376
-0.36532
-0.356464
-0.349771
-0.342669
-0.334871
-0.326239
-0.316532
-0.30562
-0.293516
-0.28037
-0.26645
-0.252083
-0.237601
-0.22329
-0.209371
-0.195995
-0.183249
-0.171164
-0.15976
-0.149083
-0.370879
-0.361741
-0.354856
-0.347499
-0.339335
-0.330202
-0.319853
-0.308187
-0.295258
-0.281276
-0.266559
-0.251473
-0.236365
-0.221529
-0.207177
-0.193445
-0.18041
-0.168088
-0.156497
-0.145632
-0.376293
-0.36689
-0.359817
-0.352197
-0.343644
-0.333974
-0.322946
-0.310487
-0.296709
-0.281879
-0.266367
-0.250572
-0.234857
-0.219515
-0.204749
-0.190681
-0.177372
-0.164826
-0.15306
-0.142018
-0.381525
-0.371875
-0.364618
-0.356724
-0.347758
-0.337518
-0.325771
-0.312489
-0.29784
-0.282156
-0.265855
-0.249366
-0.233066
-0.21724
-0.202081
-0.187695
-0.174128
-0.161373
-0.149445
-0.138236
-0.386534
-0.376656
-0.36922
-0.361042
-0.351638
-0.340792
-0.328293
-0.314158
-0.298624
-0.282084
-0.265005
-0.247843
-0.230979
-0.214694
-0.199162
-0.184478
-0.170671
-0.157723
-0.145644
-0.134279
-0.39128
-0.381196
-0.373583
-0.36511
-0.355242
-0.343758
-0.330472
-0.315462
-0.299032
-0.281641
-0.263801
-0.245988
-0.228587
-0.211866
-0.195986
-0.181023
-0.166993
-0.153868
-0.141652
-0.130145
-0.395721
-0.385453
-0.377667
-0.368886
-0.35853
-0.346375
-0.332274
-0.316369
-0.299041
-0.280809
-0.262228
-0.24379
-0.225878
-0.208748
-0.192543
-0.177323
-0.163089
-0.149802
-0.137465
-0.125828
-0.399813
-0.389385
-0.381429
-0.372328
-0.361457
-0.348603
-0.333662
-0.31685
-0.298625
-0.279568
-0.26027
-0.241236
-0.222843
-0.20533
-0.188825
-0.173369
-0.15895
-0.145521
-0.133076
-0.121323
-0.403515
-0.392949
-0.384826
-0.375391
-0.363982
-0.350402
-0.334601
-0.316876
-0.297762
-0.2779
-0.257914
-0.238316
-0.219472
-0.201606
-0.184825
-0.169156
-0.154572
-0.141018
-0.128481
-0.116627
-0.406781
-0.396103
-0.387816
-0.378034
-0.366065
-0.351734
-0.335059
-0.316419
-0.29643
-0.27579
-0.255147
-0.235018
-0.215756
-0.197566
-0.180536
-0.164677
-0.149947
-0.136288
-0.123675
-0.111737
-0.40957
-0.398805
-0.390354
-0.380213
-0.367662
-0.352562
-0.335003
-0.315454
-0.29461
-0.273221
-0.251957
-0.231333
-0.211687
-0.193203
-0.175951
-0.159925
-0.145072
-0.131327
-0.118654
-0.106648
-0.411837
-0.401011
-0.392399
-0.381886
-0.368735
-0.35285
-0.334403
-0.313957
-0.292283
-0.270179
-0.248333
-0.227251
-0.207256
-0.18851
-0.171063
-0.154895
-0.13994
-0.12613
-0.113415
-0.101359
-0.413542
-0.402679
-0.393908
-0.383012
-0.369246
-0.352565
-0.333233
-0.311906
-0.289434
-0.266654
-0.244265
-0.222766
-0.202457
-0.18348
-0.165867
-0.149582
-0.134548
-0.120693
-0.107954
-0.0958659
-0.414642
-0.403768
-0.39484
-0.383551
-0.369157
-0.351675
-0.331466
-0.309283
-0.286046
-0.262632
-0.239744
-0.217868
-0.197283
-0.178108
-0.160357
-0.14398
-0.128891
-0.115013
-0.102269
-0.0901671
-0.415098
-0.404239
-0.395155
-0.383465
-0.368434
-0.350151
-0.329078
-0.306069
-0.282108
-0.258104
-0.234763
-0.212552
-0.191728
-0.172389
-0.154529
-0.138088
-0.122966
-0.109087
-0.0963562
-0.0842602
-0.414871
-0.404053
-0.394815
-0.382717
-0.367044
-0.347965
-0.32605
-0.302248
-0.277608
-0.253063
-0.229314
-0.206812
-0.185788
-0.166318
-0.14838
-0.131899
-0.11677
-0.102912
-0.0902143
-0.0781441
-0.413926
-0.403173
-0.393784
-0.381274
-0.364957
-0.345093
-0.322362
-0.297807
-0.272536
-0.2475
-0.223393
-0.200643
-0.179458
-0.159891
-0.141906
-0.125414
-0.110301
-0.0964871
-0.083842
-0.0718201
-0.412229
-0.401566
-0.392028
-0.379104
-0.362147
-0.341513
-0.317998
-0.292735
-0.266884
-0.24141
-0.216995
-0.194042
-0.172735
-0.153107
-0.135104
-0.118628
-0.103557
-0.0898094
-0.0772392
-0.0652914
-0.409747
-0.399198
-0.389516
-0.376177
-0.358588
-0.337207
-0.312945
-0.287023
-0.260646
-0.234788
-0.210116
-0.187006
-0.165618
-0.145963
-0.127974
-0.111541
-0.0965364
-0.0828778
-0.070405
-0.0585526
-0.406452
-0.39604
-0.38622
-0.372469
-0.35426
-0.332159
-0.307192
-0.280664
-0.253819
-0.227633
-0.202754
-0.179534
-0.158104
-0.138458
-0.120514
-0.104154
-0.0892397
-0.0756928
-0.0633352
-0.0515722
-0.402319
-0.392067
-0.382112
-0.367957
-0.349144
-0.326355
-0.30073
-0.273652
-0.246399
-0.219943
-0.19491
-0.171625
-0.150194
-0.130593
-0.112726
-0.0964654
-0.0816684
-0.068258
-0.0560264
-0.0443089
-0.397323
-0.387254
-0.377171
-0.362621
-0.343226
-0.319786
-0.293554
-0.265986
-0.238385
-0.211717
-0.186584
-0.16328
-0.141889
-0.122369
-0.104611
-0.0884786
-0.073825
-0.0605754
-0.0484865
-0.0368059
-0.391446
-0.38158
-0.371378
-0.356444
-0.336493
-0.312444
-0.285661
-0.257665
-0.229779
-0.202958
-0.177776
-0.154501
-0.133191
-0.113787
-0.0961704
-0.0801958
-0.0657118
-0.0526432
-0.0407205
-0.029225
-0.384672
-0.37503
-0.364717
-0.349414
-0.328937
-0.304326
-0.27705
-0.24869
-0.220584
-0.193669
-0.168492
-0.145291
-0.124103
-0.104852
-0.0874082
-0.0716203
-0.0573336
-0.0444778
-0.0327275
-0.0214606
-0.376986
-0.367588
-0.357174
-0.341523
-0.320553
-0.295429
-0.267723
-0.239066
-0.210803
-0.183855
-0.158734
-0.135654
-0.114628
-0.095566
-0.0783283
-0.0627564
-0.0486941
-0.0360729
-0.0245254
-0.0134945
-0.36838
-0.359246
-0.348743
-0.332763
-0.311339
-0.285757
-0.257683
-0.228797
-0.200444
-0.17352
-0.14851
-0.125596
-0.104773
-0.0859354
-0.0689361
-0.0536089
-0.0397975
-0.0274343
-0.0161149
-0.00532821
-0.358848
-0.349995
-0.339417
-0.323133
-0.301296
-0.275313
-0.246939
-0.217892
-0.189513
-0.162674
-0.137826
-0.115124
-0.0945437
-0.075967
-0.0592368
-0.0441835
-0.0306491
-0.0185676
-0.00749799
0.00303206
-0.348388
-0.339835
-0.329194
-0.312634
-0.29043
-0.264105
-0.235499
-0.20636
-0.178021
-0.151325
-0.12669
-0.104246
-0.0839482
-0.0656667
-0.0492379
-0.034487
-0.0212555
-0.00947895
0.0013209
0.0115795
-0.337001
-0.328764
-0.318078
-0.301271
-0.278747
-0.252142
-0.223374
-0.194212
-0.165979
-0.139482
-0.115109
-0.0929731
-0.0729948
-0.0550433
-0.0389472
-0.0245269
-0.011624
-0.000175337
0.0103358
0.0203069
-0.324692
-0.316788
-0.306073
-0.289052
-0.266259
-0.239439
-0.210577
-0.181464
-0.153399
-0.12716
-0.103103
-0.0813089
-0.0616926
-0.044106
-0.0283736
-0.0143118
-0.00176271
0.00933549
0.0195394
0.0292067
-0.311471
-0.303914
-0.293188
-0.275989
-0.252979
-0.226009
-0.197126
-0.168128
-0.140295
-0.11437
-0.0906763
-0.0692698
-0.0500525
-0.0328649
-0.0175268
-0.00385105
0.00831907
0.0190448
0.0289232
0.0382704
-0.297348
-0.290154
-0.279437
-0.262095
-0.238924
-0.21187
-0.183036
-0.154223
-0.126684
-0.101127
-0.0778443
-0.0568677
-0.0380862
-0.0213311
-0.00641751
0.00684489
0.0186113
0.0289427
0.0384777
0.0474886
-0.282341
-0.275523
-0.264835
-0.24739
-0.224113
-0.197043
-0.168329
-0.139767
-0.112583
-0.0874469
-0.0646216
-0.0441161
-0.0258065
-0.00951666
0.0049428
0.0177649
0.0291029
0.0390186
0.048192
0.0568503
-0.266467
-0.260039
-0.249402
-0.231893
-0.208568
-0.181551
-0.153026
-0.12478
-0.0980098
-0.0733469
-0.051024
-0.0310292
-0.0132271
0.00256563
0.0165418
0.0288969
0.0397821
0.0492605
0.0580541
0.0663428
-0.249749
-0.243723
-0.233159
-0.215629
-0.192314
-0.165417
-0.137148
-0.109285
-0.0829852
-0.0588453
-0.0370681
-0.0176226
-0.000362218
0.0149022
0.0283666
0.0402284
0.0506362
0.059656
0.0680506
0.0759513
-0.232213
-0.2266
-0.216132
-0.198623
-0.17538
-0.148667
-0.120721
-0.093304
-0.0675303
-0.0439614
-0.022772
-0.00391279
0.0127728
0.0274787
0.0404035
0.051746
0.0616519
0.0701912
0.0781667
0.0856581
-0.213887
-0.208698
-0.19835
-0.180907
-0.157795
-0.131325
-0.103775
-0.076862
-0.0516676
-0.0287159
-0.00815434
0.0100831
0.026162
0.0402803
0.0526386
0.0634362
0.0728153
0.0808522
0.0883862
0.0954428
-0.194801
-0.190048
-0.179844
-0.162512
-0.139579
-0.113432
-0.0863351
-0.059985
-0.0354209
-0.0131304
0.00676501
0.0243469
0.0397888
0.0532916
0.0650574
0.075285
0.0841123
0.0916242
0.0986916
0.10528
-0.174989
-0.170682
-0.160648
-0.14347
-0.120774
-0.0950135
-0.0684321
-0.0427004
-0.0188151
0.00277242
0.0219654
0.0388598
0.0536359
0.0664969
0.0776455
0.0872787
0.0955292
0.102493
0.109063
0.115133
-0.154487
-0.150638
-0.140798
-0.123809
-0.101423
-0.076103
-0.0500967
-0.0250367
-0.00187615
0.0189689
0.0374253
0.0536021
0.0676854
0.0798801
0.0903884
0.0994039
0.107053
0.113445
0.119481
0.124964
-0.133332
-0.129954
-0.120326
-0.10358
-0.0815542
-0.0567358
-0.0313615
-0.00702354
0.0153689
0.0354344
0.0531222
0.0685535
0.0819191
0.0934247
0.103271
0.111648
0.118672
0.12447
0.129929
0.134738
-0.111559
-0.108674
-0.0992776
-0.0828201
-0.0612076
-0.0369481
-0.0122599
0.0113085
0.0328922
0.0521436
0.0690331
0.0836929
0.0963178
0.107114
0.11628
0.123997
0.130374
0.135561
0.140406
0.144429
-0.0892062
-0.08685
-0.0776993
-0.0615697
-0.0404231
-0.0167776
0.00717365
0.0299279
0.0506649
0.06907
0.0851338
0.0989984
0.110862
0.120931
0.129401
0.136441
0.142151
0.14672
0.150904
0.153927
-0.0663424
-0.0645113
-0.0556351
-0.039872
-0.0192419
0.00373744
0.0269035
0.0488019
0.0686572
0.0861865
0.1014
0.114448
0.125531
0.134857
0.142618
0.148968
0.154004
0.157968
0.161383
0.162952
-0.0430447
-0.0416772
-0.0331275
-0.0177719
0.00229358
0.0245573
0.0468933
0.0678974
0.0868386
0.103465
0.117805
0.130017
0.140305
0.148875
0.155918
0.161572
0.165952
0.169348
0.171814
0.171294
-0.0193199
-0.018425
-0.0102244
0.00468523
0.0241399
0.0456416
0.0671057
0.0871801
0.105178
0.120877
0.134323
0.145682
0.15516
0.162964
0.16928
0.174242
0.178006
0.180885
0.182286
0.179736
0.0047841
0.00519191
0.0130256
0.0274524
0.0462526
0.0669491
0.087503
0.106615
0.123643
0.138394
0.150927
0.161417
0.170073
0.177101
0.182685
0.186961
0.190136
0.192473
0.192768
0.191024
0.0292139
0.0291262
0.0365739
0.0504824
0.0685869
0.0884381
0.108047
0.126168
0.142203
0.155985
0.16759
0.177198
0.18502
0.191264
0.196108
0.1997
0.202271
0.204012
0.203683
0.202723
0.0539149
0.0533266
0.0603695
0.0737263
0.0910968
0.110066
0.128698
0.145802
0.160823
0.17362
0.184283
0.192998
0.199977
0.205427
0.209528
0.212431
0.214379
0.215502
0.214669
0.213814
0.0788329
0.0777407
0.0843609
0.0971349
0.113736
0.13179
0.149417
0.165482
0.17947
0.191268
0.200977
0.208789
0.214918
0.219568
0.222919
0.225129
0.226437
0.226944
0.225636
0.224584
0.103913
0.102316
0.108496
0.120658
0.136459
0.153568
0.170164
0.185171
0.198112
0.208899
0.217645
0.224547
0.229817
0.233662
0.236259
0.237768
0.238427
0.238315
0.236514
0.235128
0.129102
0.126998
0.132722
0.144247
0.159217
0.175355
0.190901
0.204833
0.216715
0.226482
0.234258
0.240243
0.24465
0.247685
0.249524
0.250328
0.250328
0.249594
0.247277
0.245477
0.154343
0.151733
0.156987
0.16785
0.181964
0.197109
0.211586
0.22443
0.235244
0.243985
0.250786
0.25585
0.259392
0.261614
0.262692
0.262786
0.262122
0.260759
0.257907
0.255649
0.179581
0.176467
0.181238
0.191418
0.204654
0.218785
0.23218
0.243927
0.253667
0.261378
0.267201
0.271344
0.274018
0.275426
0.275742
0.275123
0.273791
0.271795
0.268396
0.265652
0.20476
0.201145
0.205421
0.2149
0.227239
0.240342
0.252643
0.263287
0.27195
0.278629
0.283475
0.286695
0.288504
0.289098
0.288651
0.287319
0.285317
0.282686
0.278732
0.275485
0.229826
0.225713
0.229484
0.238245
0.249672
0.261736
0.272937
0.282474
0.290059
0.295707
0.299578
0.30188
0.302824
0.302608
0.3014
0.299356
0.296684
0.293417
0.288906
0.285146
0.254723
0.250116
0.253375
0.261406
0.271908
0.282924
0.293021
0.301452
0.307962
0.312584
0.315483
0.31687
0.316955
0.315932
0.313968
0.311215
0.307875
0.303974
0.298907
0.294627
0.279396
0.274301
0.277041
0.284331
0.2939
0.303864
0.312857
0.320185
0.325625
0.329227
0.331162
0.331641
0.330874
0.32905
0.326335
0.322878
0.318875
0.314344
0.308724
0.30392
0.30379
0.298213
0.30043
0.306973
0.315604
0.324514
0.332407
0.338638
0.343017
0.345607
0.346587
0.346168
0.344556
0.34194
0.338481
0.334328
0.329666
0.324513
0.318346
0.313016
0.327853
0.321801
0.323492
0.329283
0.336974
0.344834
0.351632
0.356776
0.360105
0.361695
0.361732
0.360425
0.35798
0.354581
0.350388
0.345546
0.340235
0.334467
0.32776
0.321905
0.351531
0.345013
0.346177
0.351214
0.357967
0.364782
0.370497
0.374566
0.376857
0.377463
0.376569
0.374388
0.371121
0.366952
0.362036
0.356515
0.350565
0.344192
0.336955
0.330577
0.374772
0.367796
0.368435
0.37272
0.37854
0.38432
0.388964
0.391974
0.393244
0.39288
0.391073
0.388032
0.383959
0.379033
0.373406
0.36722
0.36064
0.353674
0.345918
0.339022
0.397525
0.390101
0.390218
0.393755
0.398651
0.403408
0.406997
0.408966
0.409235
0.407921
0.405217
0.401335
0.396471
0.390804
0.384481
0.377642
0.370447
0.362901
0.354637
0.347228
0.41974
0.41188
0.411479
0.414275
0.418258
0.422009
0.424563
0.425512
0.424801
0.422557
0.418978
0.414272
0.408637
0.402245
0.395243
0.387767
0.37997
0.371858
0.3631
0.355185
0.441368
0.433083
0.432171
0.434237
0.437321
0.440086
0.441627
0.441579
0.439912
0.436762
0.432329
0.426823
0.420435
0.413337
0.405674
0.397577
0.389195
0.380532
0.371294
0.362883
0.462362
0.453664
0.452251
0.453598
0.455802
0.457602
0.458156
0.457139
0.454542
0.450511
0.445249
0.438964
0.431846
0.424063
0.415757
0.407058
0.398107
0.388911
0.379208
0.37031
0.482676
0.473579
0.471675
0.472318
0.473663
0.474525
0.474118
0.47216
0.468662
0.463778
0.457714
0.450674
0.442849
0.434403
0.425476
0.416194
0.406693
0.396982
0.386829
0.377457
0.502266
0.492784
0.4904
0.490358
0.490868
0.490819
0.489484
0.486616
0.482247
0.47654
0.469701
0.461934
0.453427
0.444342
0.434815
0.42497
0.414939
0.404732
0.394147
0.384314
0.521088
0.511237
0.508388
0.507681
0.507381
0.506452
0.504222
0.500479
0.495272
0.488773
0.481189
0.472724
0.463561
0.453861
0.443758
0.433373
0.422832
0.41215
0.40115
0.390871
0.539102
0.528897
0.525598
0.524249
0.52317
0.521395
0.518305
0.513722
0.507713
0.500455
0.492158
0.483023
0.473233
0.462945
0.452291
0.441389
0.430361
0.419223
0.407827
0.397118
0.556268
0.545726
0.541995
0.540028
0.538202
0.535617
0.531706
0.526321
0.519546
0.511565
0.502588
0.492815
0.482427
0.471578
0.460399
0.449005
0.437512
0.425941
0.414168
0.403047
0.572549
0.561687
0.557543
0.554986
0.552447
0.549091
0.544398
0.538252
0.53075
0.522083
0.51246
0.502083
0.491127
0.479746
0.468069
0.456208
0.444274
0.432294
0.420164
0.408649
0.58791
0.576746
0.57221
0.569092
0.565876
0.56179
0.556358
0.549492
0.541304
0.531989
0.521757
0.510808
0.499317
0.487435
0.475287
0.462986
0.450637
0.43827
0.425804
0.413916
0.602317
0.59087
0.585963
0.582315
0.578462
0.573689
0.567563
0.560021
0.551189
0.541265
0.530462
0.518978
0.506984
0.494631
0.482043
0.469329
0.456591
0.443861
0.43108
0.41884
0.615739
0.604029
0.598773
0.594629
0.59018
0.584765
0.57799
0.569818
0.560385
0.549895
0.538559
0.526575
0.514114
0.501323
0.488324
0.475225
0.462124
0.449058
0.435983
0.423413
0.628147
0.616193
0.610614
0.606009
0.601005
0.594995
0.58762
0.578865
0.568876
0.557862
0.546034
0.533589
0.520695
0.507498
0.49412
0.480665
0.467229
0.453852
0.440507
0.42763
0.639514
0.627336
0.621459
0.61643
0.610917
0.60436
0.596435
0.587144