/*--------------------------------*- C++ -*----------------------------------*\
  =========                 |
  \\      /  F ield         | OpenFOAM: The Open Source CFD Toolbox
   \\    /   O peration     | Website:  https://openfoam.org
    \\  /    A nd           | Version:  7
     \\/     M anipulation  |
\*---------------------------------------------------------------------------*/
FoamFile
{
    version     2.0;
    format      ascii;
    class       volVectorField;
    location    "35";
    object      U;
}
// * * * * * * * * * * * * * * * * * * * * * * * * * * * * * * * * * * * * * //

dimensions      [0 1 -1 0 0 0 0];

internalField   nonuniform List<vector> 
34000
(
(-0.000243843 0.00022157 -6.72973e-22)
(-0.00164447 0.000583447 -3.62246e-21)
(-0.00454906 0.000874943 4.43507e-22)
(-0.00843154 0.00110589 -7.7337e-22)
(-0.0130932 0.00128285 1.18322e-21)
(-0.0183509 0.00141223 -8.72986e-21)
(-0.0240323 0.00150035 1.50181e-21)
(-0.0299918 0.00155327 -5.92557e-21)
(-0.0361066 0.00157687 -1.27633e-20)
(-0.0422757 0.00157683 1.09291e-20)
(-0.0484196 0.00155866 3.25546e-21)
(-0.0544794 0.00152766 -3.91306e-21)
(-0.0604156 0.00148888 4.81399e-21)
(-0.0662069 0.00144711 6.59886e-21)
(-0.0718491 0.00140674 -4.17567e-21)
(-0.0773533 0.00137168 -5.64871e-21)
(-0.0827432 0.0013452 -1.35705e-20)
(-0.0880542 0.00132977 -1.05331e-21)
(-0.093325 0.00132649 -2.31347e-21)
(-0.0985932 0.00133683 -4.51865e-21)
(-0.00026201 0.000712143 -3.28943e-21)
(-0.00168984 0.0018734 2.75194e-21)
(-0.00461213 0.00280847 -3.24075e-21)
(-0.00850485 0.00354857 -7.29403e-21)
(-0.0131701 0.00411511 5.97633e-21)
(-0.0184256 0.00452911 3.63738e-20)
(-0.0240997 0.00481118 -2.2447e-20)
(-0.0300472 0.0049811 3.82226e-21)
(-0.0361456 0.00505798 1.83815e-20)
(-0.0422944 0.00506015 -7.00591e-24)
(-0.0484144 0.00500522 1.09439e-20)
(-0.0544468 0.00490994 -1.45332e-20)
(-0.0603521 0.00479016 1.52523e-20)
(-0.0661093 0.00466066 -1.31584e-20)
(-0.0717142 0.00453489 -5.12487e-21)
(-0.0771781 0.00442466 2.58505e-20)
(-0.0825251 0.00433972 -8.12326e-21)
(-0.087791 0.00428729 1.26266e-21)
(-0.0930143 0.00427038 -1.53065e-20)
(-0.0982299 0.00429296 -1.63554e-21)
(-0.00029867 0.00119975 -2.54748e-20)
(-0.00178136 0.00315587 3.31057e-21)
(-0.00473927 0.00473117 5.09379e-21)
(-0.00865254 0.00597792 2.241e-20)
(-0.0133251 0.0069322 -2.61363e-20)
(-0.018576 0.00762947 -4.07855e-20)
(-0.0242351 0.00810449 3.72085e-20)
(-0.0301582 0.00839067 -1.01941e-20)
(-0.0362237 0.00852023 -5.1327e-21)
(-0.0423317 0.00852409 -2.60149e-20)
(-0.0484035 0.00843189 7.12485e-21)
(-0.0543806 0.00827181 2.56226e-20)
(-0.0602239 0.00807047 -5.26737e-21)
(-0.0659125 0.00785267 2.11059e-20)
(-0.0714426 0.00764098 -1.74546e-20)
(-0.0768257 0.00745517 -5.30637e-21)
(-0.0820865 0.00731161 4.1639e-20)
(-0.0872618 0.0072223 -2.5928e-21)
(-0.09239 0.00719226 6.54478e-20)
(-0.0975002 0.00722822 -1.54057e-20)
(-0.000353586 0.00168239 4.16778e-20)
(-0.00191849 0.00442586 -1.86889e-20)
(-0.0049298 0.00663579 -1.30284e-20)
(-0.00887387 0.00838502 -9.91699e-21)
(-0.0135573 0.00972396 1.83829e-20)
(-0.0188014 0.0107022 -3.46813e-21)
(-0.024438 0.0113685 -6.2207e-20)
(-0.0303244 0.0117697 -6.59942e-21)
(-0.0363405 0.011951 -1.37187e-20)
(-0.0423872 0.0119557 -2.17654e-21)
(-0.0483866 0.0118254 -2.4079e-20)
(-0.0542807 0.0115996 2.73171e-20)
(-0.0600308 0.0113158 -4.05174e-20)
(-0.0656163 0.0110088 -1.23986e-21)
(-0.0710339 0.0107103 1.10958e-20)
(-0.0762956 0.0104482 -8.61925e-20)
(-0.0814267 0.0102457 -6.95807e-20)
(-0.0864659 0.0101198 3.77631e-20)
(-0.0914513 0.0100775 -5.07129e-20)
(-0.0964032 0.0101288 1.26012e-21)
(-0.000426407 0.00215814 -5.58141e-21)
(-0.00210041 0.00567846 7.38481e-20)
(-0.00518269 0.00851524 3.46771e-20)
(-0.00916774 0.0107611 -2.2636e-21)
(-0.0138656 0.0124804 9.34791e-21)
(-0.0191007 0.0137365 1.42754e-21)
(-0.0247073 0.0145918 3.18437e-20)
(-0.030545 0.0151062 3.77658e-20)
(-0.0364952 0.0153378 1.60744e-20)
(-0.0424603 0.0153421 5.69811e-20)
(-0.0483631 0.0151725 -6.57355e-20)
(-0.0541465 0.0148798 -1.38936e-20)
(-0.0597723 0.0145122 2.92907e-20)
(-0.0652203 0.0141146 -5.10828e-20)
(-0.0704877 0.013728 2.33457e-20)
(-0.0755871 0.0133888 5.41977e-20)
(-0.080545 0.013127 1.30444e-20)
(-0.0854022 0.0129647 1.86925e-20)
(-0.0901968 0.0129115 -2.99597e-20)
(-0.0949377 0.012981 3.24602e-21)
(-0.000516669 0.00262514 -2.72432e-20)
(-0.00232606 0.00690898 1.74229e-20)
(-0.00549658 0.0103626 -2.83813e-20)
(-0.00953267 0.0130976 8.26069e-21)
(-0.0142487 0.0151917 2.31355e-20)
(-0.0194726 0.0167215 1.0575e-20)
(-0.0250419 0.0177627 2.00028e-20)
(-0.0308189 0.0183882 -1.40627e-20)
(-0.036687 0.0186682 -8.69984e-20)
(-0.0425501 0.0186705 -7.79721e-20)
(-0.0483324 0.0184601 -5.07441e-20)
(-0.0539775 0.018099 1.92561e-20)
(-0.0594478 0.0176458 -1.10125e-20)
(-0.0647238 0.0171559 8.40642e-20)
(-0.069803 0.0166796 -3.03004e-20)
(-0.0746992 0.0162619 2.47689e-20)
(-0.0794398 0.0159402 3.60799e-20)
(-0.084069 0.015742 -2.03014e-20)
(-0.0886247 0.0156797 1.77355e-19)
(-0.0931013 0.0157714 -6.58953e-20)
(-0.000623811 0.00308162 3.30507e-20)
(-0.00259415 0.00811288 -4.17004e-20)
(-0.00586981 0.0121714 -6.40029e-20)
(-0.00996686 0.0153864 -1.69056e-20)
(-0.0147046 0.0178484 7.45718e-21)
(-0.0199152 0.019647 1.15268e-20)
(-0.0254402 0.0208704 3.86437e-20)
(-0.0311446 0.021604 8.57465e-21)
(-0.0369144 0.0219303 2.88743e-21)
(-0.0426555 0.0219287 1.4002e-19)
(-0.0482934 0.0216756 1.05411e-19)
(-0.0537727 0.0212439 -6.32908e-20)
(-0.0590564 0.0207031 -9.3465e-21)
(-0.0641256 0.0201186 -2.52624e-20)
(-0.0689787 0.0195505 2.50055e-20)
(-0.0736302 0.0190526 -1.32512e-19)
(-0.0781092 0.0186703 -2.77408e-20)
(-0.0824638 0.0184368 -4.1664e-20)
(-0.0867319 0.0183677 -1.00871e-19)
(-0.090891 0.0184865 5.4484e-20)
(-0.000747175 0.00352592 5.51899e-21)
(-0.00290314 0.00928591 -2.03289e-20)
(-0.00630041 0.0139351 5.77662e-20)
(-0.0104681 0.0176195 -3.5624e-20)
(-0.0152311 0.0204415 -1.99606e-20)
(-0.0204266 0.0225028 3.18649e-20)
(-0.0259001 0.023904 -5.40736e-20)
(-0.0315203 0.0247425 -7.40663e-21)
(-0.037176 0.0251123 1.02956e-19)
(-0.0427751 0.0251044 -6.5989e-20)
(-0.0482448 0.0248062 -2.72071e-20)
(-0.0535307 0.0243017 3.21842e-20)
(-0.0585968 0.0236706 -8.50342e-21)
(-0.0634244 0.0229888 -4.42149e-21)
(-0.068013 0.0223262 3.65156e-20)
(-0.072378 0.0217462 -9.72085e-20)
(-0.0765505 0.0213022 3.39676e-20)
(-0.0805831 0.021034 -2.58348e-20)
(-0.0845146 0.0209609 -5.80756e-20)
(-0.0883021 0.0211134 2.07668e-20)
(-0.000886023 0.00395653 -1.54804e-20)
(-0.00325132 0.0104241 1.11814e-19)
(-0.00678613 0.015648 -2.48731e-20)
(-0.011034 0.0197895 1.52872e-20)
(-0.0158259 0.0229622 1.10918e-19)
(-0.0210042 0.0252793 -7.52839e-20)
(-0.0264193 0.0268532 -3.71288e-20)
(-0.0319438 0.0277925 -6.47624e-20)
(-0.0374695 0.0282027 -7.1084e-20)
(-0.0429068 0.0281857 -4.70157e-20)
(-0.0481846 0.0278399 -6.3748e-20)
(-0.0532498 0.0272596 1.16251e-19)
(-0.0580668 0.0265352 -1.29036e-20)
(-0.062618 0.0257527 -2.7241e-20)
(-0.0669033 0.0249926 -1.42688e-19)
(-0.0709395 0.0243277 8.01902e-20)
(-0.0747597 0.0238208 1.99424e-20)
(-0.0784222 0.0235187 5.02593e-20)
(-0.081967 0.0234451 3.41338e-20)
(-0.0853284 0.0236394 -9.06446e-20)
(-0.00103954 0.00437205 -4.81087e-20)
(-0.00363677 0.0115238 6.52884e-20)
(-0.00732448 0.0173045 3.68805e-20)
(-0.0116617 0.0218893 1.68022e-20)
(-0.0164858 0.0254023 1.41104e-20)
(-0.0216451 0.0279674 -5.05036e-20)
(-0.026995 0.0297079 1.09627e-19)
(-0.0324124 0.0307435 6.17129e-21)
(-0.0377924 0.0311905 1.02104e-19)
(-0.0430482 0.0311613 -5.97317e-20)
(-0.0481105 0.0307647 9.6438e-20)
(-0.0529273 0.0301054 -9.5775e-20)
(-0.0574641 0.0292841 -8.65014e-20)
(-0.0617035 0.0283972 7.40469e-20)
(-0.0656462 0.0275356 2.63313e-19)
(-0.0693105 0.0267828 -1.45737e-19)
(-0.0727318 0.0262113 1.20132e-19)
(-0.0759748 0.0258759 2.77679e-20)
(-0.0790819 0.0258061 -1.04482e-19)
(-0.0819613 0.0260519 8.69557e-20)
(-0.00120687 0.00477125 8.74288e-20)
(-0.00405743 0.0125816 -5.0144e-20)
(-0.00791273 0.0188995 1.7102e-20)
(-0.0123481 0.0239125 6.45751e-20)
(-0.0172077 0.0277541 -5.97213e-20)
(-0.022346 0.0305583 1.17563e-19)
(-0.0276239 0.0324588 -2.14211e-20)
(-0.0329228 0.0335856 2.69516e-21)
(-0.0381415 0.0340652 -1.41081e-19)
(-0.0431961 0.0340202 8.95221e-20)
(-0.0480192 0.0335693 2.07192e-20)
(-0.0525601 0.0328272 -2.73821e-20)
(-0.056785 0.0319049 3.44692e-20)
(-0.060677 0.0309091 -1.36727e-19)
(-0.0642373 0.0299416 -7.64364e-20)
(-0.0674856 0.0290969 1.6155e-19)
(-0.07046 0.0284587 -9.05583e-20)
(-0.0732326 0.0280907 -1.29761e-19)
(-0.0758495 0.0280296 2.41457e-19)
(-0.0781893 0.0283389 -3.14471e-22)
(-0.00138709 0.00515303 7.32601e-20)
(-0.00451111 0.0135946 -9.22779e-20)
(-0.00854793 0.0204284 -9.67349e-20)
(-0.0130898 0.0258529 -4.63433e-20)
(-0.017988 0.0300103 -6.73413e-20)
(-0.0231032 0.0330439 -3.8227e-20)
(-0.0283023 0.0350969 -1.62165e-19)
(-0.0334713 0.0363091 2.00125e-20)
(-0.038513 0.0368167 -6.93795e-20)
(-0.0433466 0.0367518 2.43884e-19)
(-0.0479066 0.0362428 -1.42272e-19)
(-0.0521439 0.0354139 8.76712e-20)
(-0.0560249 0.0343859 -2.69187e-20)
(-0.0595332 0.0332761 1.48671e-19)
(-0.0626704 0.0321974 1.2272e-20)
(-0.0654576 0.0312563 -1.28452e-19)
(-0.0679356 0.0305485 -2.31361e-20)
(-0.070185 0.0301485 5.64732e-21)
(-0.0722572 0.0301017 -9.91843e-21)
(-0.0739974 0.0304888 1.62316e-19)
(-0.00157925 0.00551648 -9.12188e-20)
(-0.00499551 0.0145602 -8.81893e-20)
(-0.00922695 0.0218871 3.6776e-20)
(-0.0138831 0.0277052 9.22256e-20)
(-0.0188226 0.0321643 -6.68943e-21)
(-0.0239125 0.0354164 -6.39785e-20)
(-0.0290257 0.0376137 1.42802e-19)
(-0.0340533 0.038905 -1.61266e-20)
(-0.0389023 0.0394355 1.74917e-19)
(-0.0434948 0.0393464 -1.95289e-19)
(-0.0477678 0.0387749 5.16841e-20)
(-0.0516731 0.0378546 6.14484e-20)
(-0.0551778 0.0367159 -1.86215e-21)
(-0.0582654 0.0354864 -1.04297e-21)
(-0.0609378 0.0342904 -1.18218e-19)
(-0.0632172 0.0332472 1.60919e-20)
(-0.0651473 0.0324663 1.59309e-19)
(-0.0668184 0.0320346 2.05576e-19)
(-0.0682889 0.0320084 -2.44663e-19)
(-0.0693666 0.0324904 -1.5594e-19)
(-0.00178238 0.00586082 3.82161e-20)
(-0.00550823 0.0154762 5.88811e-20)
(-0.00994649 0.0232718 7.19084e-20)
(-0.0147242 0.0294643 -1.21936e-19)
(-0.0197072 0.0342101 1.28484e-19)
(-0.0247692 0.037669 1.228e-19)
(-0.0297891 0.0400015 -4.81575e-20)
(-0.0346635 0.0413648 2.11496e-19)
(-0.0393036 0.0419126 -2.14991e-19)
(-0.0436348 0.0417945 9.5673e-20)
(-0.0475961 0.0411561 9.77278e-20)
(-0.0511407 0.0401396 -7.62196e-21)
(-0.0542359 0.0388845 1.2682e-21)
(-0.0568649 0.0375288 1.2944e-20)
(-0.0590295 0.0362087 -9.25958e-20)
(-0.0607526 0.0350569 9.20194e-20)
(-0.062081 0.0341984 -4.75282e-20)
(-0.0631156 0.0337348 -1.07027e-19)
(-0.0639244 0.0337362 1.38706e-19)
(-0.0642721 0.034333 2.88003e-20)
(-0.0019955 0.00618547 -2.20311e-20)
(-0.00604681 0.0163405 2.77023e-20)
(-0.0107031 0.0245796 -6.01572e-20)
(-0.0156089 0.0311258 -9.00819e-20)
(-0.020637 0.0361421 -9.30814e-20)
(-0.0256679 0.0397951 -8.41981e-20)
(-0.030587 0.042253 1.37554e-19)
(-0.0352959 0.0436808 -6.99346e-20)
(-0.0397104 0.0442399 5.60029e-20)
(-0.0437592 0.0440877 6.20293e-21)
(-0.0473838 0.0433776 -1.53419e-20)
(-0.0505381 0.0422596 3.84147e-20)
(-0.0531895 0.0408823 -7.51136e-20)
(-0.0553206 0.0393936 3.94189e-20)
(-0.0569326 0.0379415 1.27574e-19)
(-0.0580489 0.0366735 -1.86952e-19)
(-0.0587189 0.0357317 -1.19887e-19)
(-0.0590552 0.0352353 1.5797e-19)
(-0.0591387 0.0352717 -9.27962e-20)
(-0.0586835 0.0360064 -1.42874e-19)
(-0.00221764 0.00648998 8.12744e-20)
(-0.00660876 0.0171518 -8.33987e-20)
(-0.0114932 0.0258076 6.77651e-20)
(-0.0165327 0.032686 1.0903e-19)
(-0.0216069 0.0379554 -2.01378e-20)
(-0.026603 0.0417889 -7.22056e-20)
(-0.0314127 0.0443616 -1.35232e-19)
(-0.0359432 0.0458456 -1.03176e-19)
(-0.0401147 0.0464097 -2.08334e-19)
(-0.0438594 0.0462181 2.12291e-20)
(-0.0471209 0.0454312 -1.86881e-20)
(-0.0498541 0.0442066 -1.4911e-19)
(-0.0520263 0.0427009 1.29536e-19)
(-0.0536186 0.0410717 1.59151e-19)
(-0.0546314 0.0394792 -8.07773e-21)
(-0.0550875 0.0380861 9.79192e-20)
(-0.0550389 0.0370541 -4.96629e-20)
(-0.0546109 0.036523 7.97834e-21)
(-0.0539008 0.0366021 1.40319e-19)
(-0.0525624 0.0375011 3.34473e-19)
(-0.00244782 0.00677403 -3.53005e-20)
(-0.00719155 0.0179089 -2.48099e-20)
(-0.0123131 0.0269536 6.98372e-20)
(-0.0174909 0.0341414 -9.76176e-20)
(-0.0226113 0.0396456 -2.54544e-20)
(-0.027568 0.043645 1.51703e-19)
(-0.032259 0.0463212 -3.59379e-20)
(-0.0365971 0.0478528 -1.04226e-19)
(-0.0405072 0.048415 1.69628e-19)
(-0.0439248 0.0481785 -4.56413e-20)
(-0.0467957 0.0473099 3.33957e-20)
(-0.0490756 0.0459735 1.81828e-19)
(-0.050731 0.0443332 -2.53133e-19)
(-0.0517418 0.0425558 -6.9397e-20)
(-0.0521058 0.0408137 -1.36877e-19)
(-0.0518455 0.0392856 2.78397e-19)
(-0.0510141 0.0381548 8.72496e-21)
(-0.0497503 0.037586 1.54046e-19)
(-0.0481735 0.037715 -5.58432e-20)
(-0.0458622 0.0388075 -3.16803e-19)
(-0.0026851 0.00703748 -8.19983e-20)
(-0.00779265 0.0186108 1.18809e-19)
(-0.0131589 0.0280158 1.61752e-21)
(-0.0184785 0.0354893 -1.16346e-21)
(-0.023644 0.0412089 1.24556e-19)
(-0.0285556 0.0453587 8.98817e-20)
(-0.0331175 0.0481263 -3.4057e-21)
(-0.0372481 0.0496963 2.70007e-19)
(-0.0408768 0.0502497 1.0365e-19)
(-0.0439428 0.0499627 -1.90919e-19)
(-0.0463937 0.0490076 9.04459e-21)
(-0.0481861 0.0475543 -6.55679e-21)
(-0.0492852 0.0457735 2.68046e-19)
(-0.0496687 0.0438403 -3.00422e-19)
(-0.0493317 0.0419388 8.30442e-20)
(-0.0482946 0.0402648 3.11171e-21)
(-0.0466112 0.0390253 -2.13148e-19)
(-0.0444343 0.0384141 -2.21636e-19)
(-0.0419123 0.0385997 -2.67627e-20)
(-0.0385257 0.0399168 3.21653e-19)
(-0.00292857 0.0072803 2.65745e-20)
(-0.00840951 0.0192571 -8.4573e-20)
(-0.0140267 0.0289929 8.18304e-20)
(-0.0194903 0.0367273 -1.22589e-19)
(-0.0246987 0.042642 1.52452e-19)
(-0.029558 0.046926 -2.55757e-19)
(-0.0339789 0.0497723 -6.32436e-20)
(-0.0378852 0.0513709 -1.41161e-19)
(-0.041211 0.0519081 -6.66582e-20)
(-0.0438986 0.0515652 1.19018e-19)
(-0.0458981 0.0505191 2.43204e-19)
(-0.0471659 0.0489445 -2.7307e-19)
(-0.0476662 0.0470176 -1.02262e-19)
(-0.0473735 0.0449213 3.71654e-19)
(-0.0462791 0.0428508 -1.35083e-19)
(-0.0444004 0.0410191 -1.94827e-19)
(-0.0417902 0.0396592 2.47437e-19)
(-0.0386153 0.0389998 5.2203e-20)
(-0.0350649 0.0392484 4.98846e-20)
(-0.0304875 0.0408274 -2.0702e-19)
(-0.00317732 0.00750256 1.03932e-20)
(-0.00903959 0.0198475 -4.41074e-20)
(-0.0149125 0.0298838 1.43508e-19)
(-0.0205207 0.0378535 -1.85806e-19)
(-0.0257681 0.043942 -1.53693e-19)
(-0.0305665 0.0483431 9.72974e-20)
(-0.0348327 0.0512546 2.70296e-19)
(-0.0384959 0.0528718 -1.70847e-19)
(-0.0414947 0.0533856 4.13373e-20)
(-0.043775 0.0529815 -8.2347e-20)
(-0.0452884 0.0518403 -3.32852e-19)
(-0.0459916 0.0501407 2.01805e-19)
(-0.0458468 0.0480633 1.63154e-19)
(-0.0448248 0.0457974 -2.89597e-19)
(-0.0429121 0.0435486 6.79068e-20)
(-0.0401212 0.0415468 2.71232e-19)
(-0.0365024 0.0400537 1.06619e-19)
(-0.0322349 0.0393374 3.75428e-20)
(-0.0275648 0.0396528 -2.20186e-19)
(-0.0216843 0.041562 -1.06629e-19)
(-0.00343052 0.00770445 -7.19097e-20)
(-0.00968037 0.0203818 -1.32262e-19)
(-0.0158121 0.0306878 -7.63114e-20)
(-0.021564 0.0388665 1.01081e-19)
(-0.0268446 0.0451067 -5.90999e-21)
(-0.0315715 0.0496069 2.26789e-19)
(-0.0356671 0.0525697 -2.14041e-20)
(-0.039066 0.054195 2.54056e-20)
(-0.0417111 0.0546779 1.63222e-19)
(-0.0435517 0.0542077 2.06868e-19)
(-0.0445409 0.0529683 -9.60861e-21)
(-0.0446353 0.0511411 -4.59031e-20)
(-0.0437946 0.04891 -2.69354e-19)
(-0.0419852 0.0464694 2.02187e-19)
(-0.0391874 0.044034 -1.79491e-20)
(-0.0354074 0.0418502 -1.21285e-19)
(-0.0306905 0.0402093 -6.07955e-19)
(-0.0252245 0.0394218 2.1567e-19)
(-0.0193099 0.0397891 1.15035e-20)
(-0.012039 0.0421256 -1.32502e-19)
(-0.00368735 0.00788623 6.63895e-20)
(-0.0103293 0.0208603 1.7284e-19)
(-0.0167213 0.0314047 -1.31625e-19)
(-0.0226138 0.039765 -6.38192e-20)
(-0.02792 0.0461341 5.33398e-20)
(-0.0325624 0.0507147 -1.28978e-19)
(-0.0364689 0.0537142 -2.39689e-19)
(-0.0395793 0.0553368 1.42012e-19)
(-0.0418408 0.0557817 -1.62883e-20)
(-0.0432054 0.055241 -3.26886e-19)
(-0.043628 0.0539011 6.27612e-20)
(-0.0430643 0.0519451 3.5398e-20)
(-0.0414714 0.0495592 -6.16781e-20)
(-0.0388102 0.0469411 1.63134e-19)
(-0.0350536 0.0443127 3.18179e-19)
(-0.0301999 0.0419359 -2.07433e-19)
(-0.0242882 0.0401318 1.68637e-19)
(-0.0175184 0.0392558 4.11642e-20)
(-0.0102084 0.0396804 2.3622e-19)
(-0.00139699 0.0424804 1.05623e-19)
(-0.00394702 0.00804823 -7.28265e-20)
(-0.0109839 0.0212833 -8.4753e-21)
(-0.0176355 0.0320341 1.86537e-19)
(-0.0236637 0.0405483 1.85204e-19)
(-0.0289853 0.0470225 -3.80077e-20)
(-0.0335274 0.0516641 -2.4046e-20)
(-0.0372234 0.0546852 2.41224e-19)
(-0.0400177 0.0562943 -1.87498e-19)
(-0.0418614 0.056694 5.72381e-20)
(-0.0427095 0.0560791 2.37427e-19)
(-0.0425177 0.0546377 2.27923e-19)
(-0.0412409 0.052554 8.8959e-20)
(-0.0388325 0.0500144 3.89558e-19)
(-0.0352475 0.0472188 -5.36914e-20)
(-0.0304503 0.0443942 -4.13716e-19)
(-0.024429 0.0418159 2.03756e-19)
(-0.0172139 0.0398347 -1.08952e-19)
(-0.00901656 0.0388581 -2.53899e-19)
(-0.000182536 0.039352 -1.80157e-19)
(0.0103738 0.0426188 -1.80385e-19)
(-0.00420879 0.00819084 4.66214e-20)
(-0.0116417 0.0216512 9.77401e-20)
(-0.0185502 0.0325763 -6.79987e-20)
(-0.0247066 0.0412157 -8.46051e-20)
(-0.0300308 0.0477707 -8.79582e-20)
(-0.034454 0.0524533 -2.3764e-20)
(-0.0379144 0.0554805 -2.48995e-19)
(-0.0403609 0.0570649 1.27892e-19)
(-0.0417483 0.0574126 -1.17882e-19)
(-0.0420337 0.0567207 -1.99419e-19)
(-0.0411735 0.0551783 7.10016e-21)
(-0.0391212 0.0529698 -5.0693e-19)
(-0.0358263 0.0502812 -3.93818e-19)
(-0.0312366 0.0473119 1.24688e-19)
(-0.0253068 0.0442921 6.3156e-20)
(-0.0180133 0.0415076 -1.35712e-19)
(-0.00937396 0.0393375 5.26851e-19)
(0.000391532 0.0382441 -8.27915e-20)
(0.0108939 0.0387964 2.25577e-19)
(0.0234037 0.0425847 2.01753e-19)
(-0.00447195 0.00831448 -6.39755e-20)
(-0.0123 0.0219646 -2.12364e-19)
(-0.0194606 0.0330313 6.7572e-20)
(-0.0257352 0.041767 3.79325e-21)
(-0.031046 0.0483776 2.87723e-19)
(-0.0353281 0.0530807 -1.71867e-19)
(-0.0385239 0.056098 9.41913e-20)
(-0.0405863 0.0576466 1.34662e-19)
(-0.0414732 0.0579358 -1.06008e-20)
(-0.0411436 0.0571649 8.32904e-20)
(-0.0395541 0.0555239 2.53611e-19)
(-0.0366557 0.0531964 5.31011e-19)
(-0.0323935 0.0503667 4.26853e-20)
(-0.0267076 0.0472326 -2.35893e-19)
(-0.0195419 0.0440242 4.29203e-20)
(-0.0108592 0.0410343 4.1819e-19)
(-0.000661537 0.0386671 -2.84147e-19)
(0.0108277 0.0374402 1.23528e-21)
(0.0231617 0.0380313 2.19602e-19)
(0.037853 0.0424084 -1.3545e-19)
(-0.0047358 0.00841959 -6.13449e-20)
(-0.0129563 0.0222241 2.51183e-19)
(-0.0203617 0.0333997 -1.91844e-19)
(-0.0267415 0.0422019 -3.92333e-20)
(-0.0320196 0.0488426 -6.62484e-20)
(-0.0361343 0.053545 -1.72348e-19)
(-0.0390319 0.0565361 1.71804e-19)
(-0.0406687 0.0580377 -5.66726e-20)
(-0.0410051 0.0582624 -1.01516e-19)
(-0.0400012 0.0574118 1.66385e-19)
(-0.0376128 0.0556762 -1.93094e-19)
(-0.0337883 0.0532384 -6.22962e-20)
(-0.0284672 0.0502801 -6.95175e-21)
(-0.0215814 0.0469956 1.65618e-19)
(-0.0130628 0.0436122 -1.50002e-19)
(-0.00285958 0.0404254 -2.83723e-19)
(0.00904504 0.0378598 -8.70951e-20)
(0.0224293 0.0364856 -1.26189e-19)
(0.0367744 0.0370916 -3.85634e-19)
(0.0539037 0.042123 -1.14794e-19)
(-0.00499968 0.0085066 8.71052e-20)
(-0.0136078 0.0224304 -1.10243e-19)
(-0.0212481 0.0336816 -1.38406e-19)
(-0.0277168 0.0425204 -1.30906e-19)
(-0.0329392 0.049165 4.36063e-20)
(-0.036856 0.0538451 2.44554e-20)
(-0.0394168 0.0567936 6.13717e-20)
(-0.0405806 0.0582371 -1.59438e-19)
(-0.0403094 0.0583918 1.23558e-19)
(-0.0385638 0.0574617 -3.70205e-19)
(-0.0352978 0.0556378 -1.85967e-19)
(-0.0304562 0.0531017 3.10747e-21)
(-0.0239724 0.050032 1.65149e-19)
(-0.015769 0.046618 -1.08376e-19)
(-0.00576545 0.0430817 2.76816e-19)
(0.00610573 0.0397167 -6.78736e-20)
(0.0198824 0.0369609 8.83987e-20)
(0.0353499 0.0354319 3.34184e-19)
(0.0519012 0.0360257 4.41714e-20)
(0.0717537 0.0417747 2.13184e-19)
(-0.00526291 0.00857594 -1.84042e-19)
(-0.0142519 0.0225839 1.48589e-19)
(-0.0221142 0.0338777 1.66887e-19)
(-0.0286522 0.0427226 -9.72122e-20)
(-0.0337915 0.0493445 1.66202e-19)
(-0.037475 0.0539804 1.60431e-19)
(-0.0396547 0.0568696 -2.90707e-20)
(-0.0402914 0.058244 -5.50447e-20)
(-0.0393481 0.0583239 -1.49891e-19)
(-0.0367845 0.0573159 7.0238e-20)
(-0.032552 0.0554121 6.83745e-21)
(-0.0265904 0.0527929 -1.84319e-19)
(-0.0188261 0.049634 1.37453e-19)
(-0.00917184 0.0461187 -1.07916e-19)
(0.00246583 0.0424616 -1.96388e-19)
(0.0161702 0.038949 -2.56702e-19)
(0.0320017 0.0360245 6.29787e-20)
(0.0497584 0.0343436 8.77032e-20)
(0.0687252 0.0348967 -8.41653e-20)
(0.0916132 0.0414262 3.52494e-19)
(-0.0055248 0.00862801 -1.45519e-19)
(-0.0148855 0.0226854 -1.36782e-19)
(-0.022954 0.0339884 1.08194e-19)
(-0.0295377 0.0428087 6.2966e-20)
(-0.0345621 0.049381 2.58122e-20)
(-0.0379714 0.0539506 -4.72168e-20)
(-0.0397194 0.0567637 -3.32785e-20)
(-0.039768 0.0580582 7.62375e-20)
(-0.0380797 0.0580592 -7.18516e-20)
(-0.0346121 0.0569762 5.77425e-19)
(-0.0293126 0.0550029 4.21456e-20)
(-0.0221151 0.0523196 -6.48219e-20)
(-0.0129374 0.0490988 -4.2748e-19)
(-0.00168208 0.0455183 8.25946e-20)
(0.0117574 0.041783 -2.11767e-19)
(0.0274796 0.0381678 1.40259e-19)
(0.0455673 0.0351127 1.28778e-19)
(0.0658369 0.0332986 -4.9081e-19)
(0.087441 0.0337842 -1.53057e-19)
(0.1137 0.0411584 -5.26509e-19)
(-0.00578467 0.00866318 7.03428e-20)
(-0.0155057 0.0227354 1.41671e-19)
(-0.0237611 0.034014 -2.55403e-19)
(-0.0303627 0.0427788 -1.95752e-19)
(-0.0352352 0.0492745 9.94061e-20)
(-0.0383237 0.0537554 9.34787e-20)
(-0.0395827 0.0564759 -1.94175e-19)
(-0.0389741 0.0576803 -1.75009e-20)
(-0.0364588 0.0575989 1.03807e-20)
(-0.0319908 0.0564451 -1.73868e-19)
(-0.0255119 0.0544152 2.53123e-19)
(-0.0169482 0.0516899 1.41908e-21)
(-0.0062082 0.0484399 3.20709e-19)
(0.0068166 0.0448377 2.1786e-19)
(0.0222454 0.0410785 3.65973e-20)
(0.0401903 0.0374215 4.60515e-19)
(0.0607547 0.0342939 -4.185e-19)
(0.0837775 0.0323868 1.94147e-19)
(0.108251 0.0327853 1.52024e-19)
(0.138229 0.0410735 1.30354e-19)
(-0.00604175 0.00868175 3.39317e-19)
(-0.016109 0.0227342 -2.39806e-19)
(-0.0245284 0.033955 5.81689e-20)
(-0.0311155 0.0426332 1.9005e-19)
(-0.0357939 0.0490252 -2.04998e-19)
(-0.0385085 0.0533954 1.01089e-20)
(-0.0392139 0.0560068 1.56287e-19)
(-0.0378707 0.0571112 2.87488e-19)
(-0.0344367 0.056945 3.89689e-19)
(-0.0288605 0.0557263 -3.73544e-19)
(-0.0210765 0.0536548 -2.22839e-19)
(-0.0110016 0.050913 1.05884e-19)
(0.00146645 0.0476715 -3.04886e-19)
(0.0164478 0.0440989 2.0837e-20)
(0.0340736 0.0403812 1.1897e-19)
(0.0544668 0.0367597 9.14038e-20)
(0.0777471 0.0336407 2.82165e-19)
(0.103778 0.0317077 5.93177e-20)
(0.13136 0.0320135 -2.13611e-19)
(0.165405 0.0412966 2.29217e-19)
(-0.00629526 0.00868398 -3.21864e-19)
(-0.0166919 0.0226823 2.3892e-19)
(-0.0252483 0.0338117 5.80132e-20)
(-0.0317835 0.0423725 -1.88581e-19)
(-0.0362195 0.0486337 7.97634e-20)
(-0.0385003 0.0528712 -3.86225e-20)
(-0.0385797 0.0553577 -2.90328e-20)
(-0.0364153 0.0563532 -2.4278e-19)
(-0.0319604 0.0561009 -3.83357e-19)
(-0.0251565 0.0548246 3.58894e-19)
(-0.0159285 0.0527287 -1.29315e-19)
(-0.00418206 0.0499992 4.03588e-21)
(0.0101972 0.0468085 7.34452e-20)
(0.0273412 0.0433238 1.56028e-19)
(0.0473918 0.0397236 -1.89504e-20)
(0.0704788 0.0362316 -4.4021e-20)
(0.0967315 0.0332261 -2.27076e-19)
(0.126034 0.0313666 -1.52301e-19)
(0.156969 0.031597 -1.44395e-19)
(0.195404 0.0419774 2.30294e-19)
(-0.00654429 0.00867003 2.58427e-19)
(-0.0172503 0.0225798 -6.74602e-20)
(-0.0259127 0.0335845 2.29784e-19)
(-0.0323532 0.0419969 5.57463e-20)
(-0.0364921 0.0481007 -1.23065e-19)
(-0.0382719 0.0521842 1.99084e-20)
(-0.0376441 0.0545308 -2.62654e-19)
(-0.0345625 0.0554095 1.19516e-19)
(-0.0289736 0.0550711 6.48242e-20)
(-0.0208099 0.0537464 -2.38713e-20)
(-0.00998493 0.0516457 -2.72492e-20)
(0.00360886 0.0489605 3.2273e-20)
(0.0200993 0.0458672 -1.46943e-19)
(0.0396304 0.0425345 -3.42519e-19)
(0.0623525 0.0391375 1.73813e-19)
(0.0883972 0.0358838 -8.68933e-20)
(0.117894 0.0331212 -2.13821e-20)
(0.150737 0.0314702 3.68414e-19)
(0.18527 0.0316762 3.85899e-19)
(0.228354 0.0432915 -5.89714e-19)
(-0.00678785 0.00863998 -6.58528e-20)
(-0.01778 0.0224267 -7.27875e-20)
(-0.0265122 0.0332735 -1.44035e-19)
(-0.0328097 0.0415072 1.05777e-19)
(-0.0365899 0.0474275 1.9184e-19)
(-0.0377934 0.0513366 -2.48465e-19)
(-0.0363685 0.0535293 3.97214e-19)
(-0.0322633 0.0542845 -7.77376e-20)
(-0.025416 0.053862 1.14828e-20)
(-0.0157478 0.0525001 -2.6991e-19)
(-0.0031588 0.0504168 -2.06322e-20)
(0.0124735 0.0478108 -2.22727e-19)
(0.0312915 0.0448652 2.99041e-19)
(0.0534509 0.0417542 1.96931e-19)
(0.079108 0.0386534 -3.85095e-19)
(0.108389 0.0357594 -3.28136e-19)
(0.141412 0.0333913 7.57697e-20)
(0.178058 0.0321195 4.41663e-19)
(0.216441 0.0324 2.03977e-19)
(0.264316 0.0454386 1.11035e-19)
(-0.0070248 0.00859382 2.06864e-20)
(-0.0182761 0.022223 7.05431e-20)
(-0.0270371 0.0328789 8.5144e-20)
(-0.0331366 0.0409039 -7.10405e-20)
(-0.0364893 0.0466156 1.78264e-19)
(-0.0370329 0.050331 2.38995e-19)
(-0.0347114 0.0523574 3.83757e-21)
(-0.0294657 0.0529847 -3.09045e-19)
(-0.0212236 0.0524819 -2.4716e-19)
(-0.00989328 0.0510968 2.58968e-19)
(0.00464079 0.0490559 -3.47209e-19)
(0.0225174 0.0465671 -3.9036e-19)
(0.0438942 0.0438231 -3.90826e-20)
(0.0689378 0.0410071 -2.03951e-20)
(0.0978068 0.038301 1.36132e-19)
(0.130614 0.0358969 8.93916e-20)
(0.167452 0.0340935 1.16103e-19)
(0.20815 0.0334033 -5.46012e-19)
(0.250645 0.033921 -1.50749e-19)
(0.303253 0.0486326 3.95301e-19)
(-0.00725383 0.00853143 -1.22761e-19)
(-0.018733 0.0219685 1.20501e-19)
(-0.0274763 0.0324007 -8.87954e-20)
(-0.0333162 0.0401882 -4.41893e-20)
(-0.0361647 0.0456673 -1.2034e-19)
(-0.0359559 0.0491712 -9.12669e-20)
(-0.0326283 0.051021 -1.6336e-19)
(-0.026114 0.0515181 2.70148e-19)
(-0.0163288 0.050942 1.07377e-19)
(-0.00316564 0.0495504 -2.64111e-19)
(0.013508 0.0475802 4.1373e-19)
(0.0338483 0.0452501 2.12385e-19)
(0.058028 0.0427647 -1.6079e-19)
(0.0862229 0.0403198 -2.25522e-19)
(0.118589 0.0381094 -2.89565e-20)
(0.155217 0.0363299 2.32202e-19)
(0.196159 0.0352741 -1.55078e-19)
(0.24113 0.0353881 5.91845e-20)
(0.288034 0.0363889 1.33437e-19)
(0.345016 0.0530788 3.33209e-19)
(-0.0074734 0.0084526 -1.24924e-20)
(-0.0191449 0.0216627 -2.97736e-19)
(-0.0278177 0.0318393 7.26977e-20)
(-0.0333293 0.0393611 1.61383e-19)
(-0.0355886 0.0445851 -2.97318e-20)
(-0.0345255 0.0478621 -1.95666e-19)
(-0.0300718 0.0495275 2.15842e-19)
(-0.0221494 0.049895 2.4718e-19)
(-0.0106604 0.0492559 9.46012e-20)
(0.00451888 0.0478785 4.69888e-19)
(0.0235392 0.0460111 -2.1858e-19)
(0.0465744 0.0438848 1.04703e-19)
(0.0738112 0.0417181 -1.08287e-19)
(0.105431 0.0397223 2.60472e-19)
(0.141582 0.0381086 -2.2943e-20)
(0.182321 0.037087 -6.01111e-20)
(0.227648 0.0369672 -9.60103e-20)
(0.277076 0.0381115 1.5107e-19)
(0.328728 0.0399679 -3.80943e-19)
(0.389274 0.0590005 -5.13651e-19)
(-0.00768175 0.00835696 -7.13945e-20)
(-0.0195048 0.0213049 -2.66736e-20)
(-0.0280482 0.0311947 -2.40857e-19)
(-0.0331549 0.0384241 1.47503e-19)
(-0.0347311 0.0433726 -1.50672e-19)
(-0.032702 0.0464097 -1.53064e-19)
(-0.0269915 0.0478859 -1.3769e-20)
(-0.01751 0.0481285 -2.49397e-19)
(-0.00414433 0.0474406 -3.95923e-19)
(0.0132468 0.0461026 1.08393e-19)
(0.0348325 0.0443749 1.21378e-19)
(0.0608034 0.0425019 1.46352e-19)
(0.0913574 0.0407169 3.73939e-19)
(0.126677 0.0392489 -3.67856e-20)
(0.166895 0.0383295 -8.09512e-20)
(0.212025 0.0381915 -1.12545e-20)
(0.262001 0.0391894 2.03848e-19)
(0.316026 0.0415747 3.62377e-19)
(0.372792 0.0449185 -1.01731e-19)
(0.435313 0.0667753 3.71736e-19)
(-0.00787688 0.00824403 2.24401e-19)
(-0.0198051 0.0208947 -3.6614e-20)
(-0.0281529 0.030467 2.12982e-19)
(-0.0327702 0.0373789 -2.18383e-19)
(-0.0335604 0.042034 3.22459e-19)
(-0.0304433 0.0448213 2.69805e-19)
(-0.0233342 0.0461074 -2.21765e-19)
(-0.0121307 0.0462339 -4.1264e-19)
(0.00329638 0.0455167 6.83996e-19)
(0.0231063 0.0442487 1.68968e-19)
(0.0474859 0.0427029 -1.31537e-19)
(0.0766397 0.0411376 -1.30041e-19)
(0.110772 0.0398008 -6.46847e-20)
(0.15006 0.0389388 -1.01446e-19)
(0.19461 0.0388043 -3.35787e-19)
(0.244388 0.0396577 -9.14206e-20)
(0.299264 0.041922 7.59572e-21)
(0.358053 0.0457184 -2.48807e-19)
(0.420387 0.0516152 1.23571e-19)
(0.482081 0.0766106 -2.66152e-19)
(-0.00805642 0.00811332 -3.58804e-19)
(-0.0200375 0.0204312 2.41404e-19)
(-0.028116 0.0296564 -3.59836e-19)
(-0.0321507 0.0362278 -1.96123e-19)
(-0.0320421 0.0405744 7.31711e-20)
(-0.0277046 0.0431056 -2.91847e-19)
(-0.0190438 0.0442053 4.57336e-19)
(-0.00594384 0.0442297 7.71469e-21)
(0.0117408 0.0435083 -2.54289e-19)
(0.0341867 0.042347 -2.22246e-19)
(0.061596 0.041032 -3.96826e-19)
(0.0941826 0.0398345 -4.90596e-21)
(0.13215 0.0390163 1.45939e-20)
(0.175656 0.0388379 -9.13234e-20)
(0.224775 0.0395686 4.05134e-19)
(0.279411 0.0414895 2.50265e-19)
(0.339399 0.0450946 6.22995e-20)
(0.403253 0.050375 -2.68642e-19)
(0.472143 0.0600573 -1.45301e-20)
(0.530345 0.0861772 -4.40861e-19)
(-0.00821765 0.00796415 1.27456e-19)
(-0.0201926 0.0199136 -2.41983e-19)
(-0.02792 0.0287633 3.11001e-19)
(-0.0312698 0.0349735 4.3721e-19)
(-0.0301398 0.0389998 -1.42305e-19)
(-0.0244385 0.0412731 1.8371e-20)
(-0.0140617 0.042195 -3.85909e-19)
(0.00112038 0.0421372 -9.61162e-20)
(0.0212693 0.0414435 -2.98742e-19)
(0.046577 0.040433 3.89438e-19)
(0.0772565 0.0394046 3.60741e-19)
(0.113524 0.0386417 -6.41812e-20)
(0.155568 0.0384171 -4.81961e-20)
(0.203518 0.0389997 -4.18238e-21)
(0.257391 0.0406653 7.28653e-20)
(0.317013 0.0436937 -1.30993e-19)
(0.382193 0.0486153 -1.52088e-19)
(0.451326 0.0552468 3.22954e-19)
(0.528007 0.0688499 -1.04393e-19)
(0.586514 0.0887354 9.43812e-21)
(-0.00835749 0.00779578 3.37048e-20)
(-0.0202598 0.0193409 4.87212e-20)
(-0.027546 0.0277882 -1.62981e-19)
(-0.0300991 0.0336193 -4.51132e-19)
(-0.0278148 0.0373173 7.30365e-20)
(-0.0205957 0.0393356 2.21369e-19)
(-0.00832739 0.0400942 1.00965e-19)
(0.00913335 0.0399809 4.33311e-19)
(0.0319625 0.0393541 -2.72203e-19)
(0.060364 0.0385463 -3.53549e-19)
(0.0945552 0.0378686 -6.46922e-20)
(0.134743 0.0376146 1.60923e-19)