/*--------------------------------*- C++ -*----------------------------------*\
  =========                 |
  \\      /  F ield         | OpenFOAM: The Open Source CFD Toolbox
   \\    /   O peration     | Website:  https://openfoam.org
    \\  /    A nd           | Version:  7
     \\/     M anipulation  |
\*---------------------------------------------------------------------------*/
FoamFile
{
    version     2.0;
    format      ascii;
    class       volVectorField;
    location    "20";
    object      U;
}
// * * * * * * * * * * * * * * * * * * * * * * * * * * * * * * * * * * * * * //

dimensions      [0 1 -1 0 0 0 0];

internalField   nonuniform List<vector> 
8500
(
(1.02863 0.376459 -1.24274e-21)
(1.0163 0.392458 -2.60087e-20)
(1.01844 0.375902 5.28959e-20)
(1.0025 0.410604 -4.37826e-20)
(1.00528 0.391695 7.44108e-20)
(1.00813 0.375022 -8.88071e-20)
(0.988194 0.43054 -3.11977e-20)
(0.990843 0.409676 1.19538e-19)
(0.99414 0.390598 -6.88734e-20)
(0.997715 0.373803 2.09647e-20)
(0.97595 0.429421 5.45572e-20)
(0.979116 0.408404 6.7963e-20)
(0.982889 0.389159 -2.28443e-19)
(0.987203 0.372228 5.20082e-20)
(0.960597 0.450307 7.84587e-20)
(0.963663 0.427924 -9.85742e-20)
(0.96734 0.406785 4.47763e-20)
(0.971544 0.38737 2.52634e-19)
(0.976596 0.370265 1.52003e-19)
(0.944175 0.472334 -3.38126e-20)
(0.947622 0.448527 -1.2747e-19)
(0.951356 0.426039 -4.51361e-20)
(0.955542 0.404815 -1.55021e-19)
(0.960122 0.385217 8.37642e-20)
(0.965909 0.367876 -1.80587e-19)
(0.930391 0.470214 -2.92344e-20)
(0.934617 0.446319 -1.88589e-20)
(0.939046 0.423758 8.89214e-20)
(0.94374 0.402488 1.76977e-19)
(0.948658 0.382693 -2.98146e-19)
(0.95526 0.365031 2.03261e-19)
(0.911629 0.49301 -4.03613e-21)
(0.916567 0.467629 -5.73699e-21)
(0.921593 0.443674 1.64874e-19)
(0.926742 0.421071 -6.39383e-20)
(0.931947 0.399788 -1.2813e-19)
(0.937258 0.379775 -5.19136e-21)
(0.944878 0.361744 -2.89856e-19)
(0.896918 0.489994 -8.68744e-20)
(0.902721 0.464575 4.95223e-20)
(0.90856 0.440588 1.37703e-19)
(0.91444 0.417969 4.30056e-20)
(0.920188 0.396692 -2.47431e-19)
(0.926098 0.376392 -8.56769e-21)
(0.934761 0.35797 9.03496e-20)
(0.875471 0.513421 -5.17142e-20)
(0.882192 0.486471 -1.19129e-20)
(0.888867 0.461047 -1.48695e-19)
(0.895524 0.43706 -7.8485e-20)
(0.902135 0.414453 -8.87704e-20)
(0.908504 0.393201 2.93218e-19)
(0.915353 0.372541 -6.91185e-20)
(0.924166 0.352521 2.61583e-19)
(0.852001 0.537862 -1.61165e-19)
(0.859815 0.509366 7.11433e-20)
(0.867472 0.482439 1.16326e-19)
(0.875022 0.457047 4.83263e-20)
(0.882495 0.433094 1.31909e-19)
(0.889842 0.410525 6.43788e-20)
(0.896924 0.389318 -1.70171e-20)
(0.904725 0.368675 1.45875e-19)
(0.913706 0.348602 2.35974e-20)
(0.835367 0.53321 -7.49307e-20)
(0.844182 0.504761 -2.19804e-19)
(0.852779 0.477896 -1.43342e-20)
(0.861207 0.452572 -9.78158e-20)
(0.869493 0.42869 1.53442e-19)
(0.877577 0.406193 -2.38764e-19)
(0.885371 0.385041 -6.12929e-20)
(0.893881 0.364419 -9.31593e-20)
(0.902971 0.344307 -3.39651e-19)
(0.808538 0.557828 -2.53947e-20)
(0.818775 0.527961 -9.44481e-21)
(0.828595 0.499603 -3.61748e-20)
(0.838135 0.472841 -7.70157e-20)
(0.847441 0.447624 -1.11639e-19)
(0.856539 0.423849 6.05814e-20)
(0.865367 0.401459 1.92562e-19)
(0.873869 0.380398 -1.05154e-19)
(0.883015 0.359863 1.38007e-19)
(0.892348 0.339901 3.94434e-19)
(0.79095 0.551868 -3.49202e-19)
(0.802251 0.522114 -1.69858e-19)
(0.81308 0.493892 4.60118e-20)
(0.823562 0.467274 6.47909e-20)
(0.833745 0.442202 2.28746e-19)
(0.843654 0.418573 -3.21675e-19)
(0.853227 0.396324 9.54724e-20)
(0.862433 0.37539 5.75402e-20)
(0.872186 0.354997 -8.23787e-20)
(0.881856 0.335275 -2.96493e-19)
(0.773454 0.54526 1.85222e-19)
(0.785822 0.515668 3.01346e-19)
(0.797658 0.487627 2.4769e-19)
(0.809082 0.461195 1.82425e-19)
(0.820141 0.436308 -3.95848e-19)
(0.830858 0.412861 -4.01968e-21)
(0.841177 0.39079 -1.07729e-19)
(0.851081 0.37002 4.17931e-19)
(0.861435 0.349819 -1.77302e-20)
(0.871503 0.330385 -2.07066e-19)
(0.741759 0.568616 -2.6043e-19)
(0.756078 0.538006 5.93761e-21)
(0.769512 0.508626 1.0058e-19)
(0.782354 0.480811 -1.59187e-19)
(0.794718 0.454606 -2.00942e-19)
(0.80665 0.429943 5.10288e-19)
(0.818173 0.406715 2.06672e-19)
(0.829236 0.384858 -2.15007e-19)
(0.839835 0.364288 -2.48521e-19)
(0.850793 0.344321 -2.81176e-19)
(0.8613 0.325208 -2.55829e-20)
(0.723425 0.56049 1.38291e-19)
(0.738849 0.530107 5.45198e-20)
(0.753348 0.500989 -2.7892e-19)
(0.767193 0.473446 2.96571e-19)
(0.780492 0.44751 1.82562e-19)
(0.793292 0.423108 -7.15598e-20)
(0.805619 0.400136 -1.39581e-19)
(0.817424 0.378527 1.22713e-19)
(0.828715 0.358194 -2.13233e-19)
(0.840279 0.338498 -2.98286e-19)
(0.851256 0.319727 2.87631e-19)
(0.687185 0.582194 4.38167e-19)
(0.705267 0.551669 -2.20653e-19)
(0.721797 0.521568 2.7295e-19)
(0.737356 0.492761 -3.17325e-19)
(0.752198 0.465534 4.18564e-20)
(0.766426 0.439907 -1.27823e-19)
(0.780089 0.415806 9.29683e-20)
(0.793214 0.393126 8.83186e-20)
(0.805758 0.3718 -5.49876e-20)
(0.81774 0.351736 5.32818e-19)
(0.829912 0.332344 -7.14973e-20)
(0.841381 0.313932 -2.46059e-19)
(0.66813 0.572413 -3.18268e-19)
(0.687318 0.542157 4.61457e-19)
(0.704949 0.512393 -4.98777e-20)
(0.721562 0.483947 1.32221e-19)
(0.737393 0.45708 1.61855e-19)
(0.752543 0.431804 6.53207e-20)
(0.767061 0.408041 -4.48685e-19)
(0.780979 0.385687 1.01881e-19)
(0.794258 0.364677 9.5573e-20)
(0.806927 0.344916 -3.21282e-19)
(0.819708 0.325857 1.20735e-19)
(0.831681 0.307818 4.66586e-20)
(0.626425 0.590535 -4.72683e-20)
(0.649314 0.561888 -5.77328e-21)
(0.669607 0.531961 7.49087e-20)
(0.688333 0.50259 -1.28617e-19)
(0.70599 0.474552 -1.79746e-20)
(0.722801 0.448088 -5.03188e-19)
(0.738864 0.423203 -3.89215e-19)
(0.754229 0.399815 -6.57523e-20)
(0.768932 0.377824 -5.6176e-20)
(0.78294 0.357162 -6.27286e-20)
(0.796293 0.337734 -1.28374e-19)
(0.809679 0.319034 -1.49687e-19)
(0.822168 0.301384 -2.0149e-19)
(0.606843 0.579014 -9.20332e-20)
(0.630771 0.550627 -4.26937e-20)
(0.652165 0.521091 -4.43918e-19)
(0.671976 0.492164 -4.23735e-19)
(0.690666 0.464583 7.87553e-20)
(0.708446 0.438566 6.93452e-19)
(0.72541 0.41411 1.04042e-19)
(0.741613 0.391135 2.82092e-19)
(0.757093 0.36954 -4.41965e-19)
(0.771823 0.349257 -1.05364e-19)
(0.785852 0.330192 5.27665e-19)
(0.79984 0.311878 2.35485e-19)
(0.812849 0.294628 9.70987e-19)
(0.587566 0.566699 -5.88822e-20)
(0.612534 0.53864 3.03291e-19)
(0.635021 0.509555 -1.90641e-19)
(0.655905 0.481126 1.40707e-19)
(0.675616 0.454047 3.24569e-19)
(0.694351 0.428519 -2.23778e-19)
(0.712204 0.404533 5.72621e-20)
(0.729233 0.382006 2.79818e-19)
(0.745478 0.36084 3.54844e-19)
(0.760921 0.340967 -1.86611e-19)
(0.775619 0.322293 -1.07318e-19)
(0.790202 0.304388 1.64806e-19)
(0.803735 0.287554 -4.80699e-19)
(0.538705 0.577123 6.85111e-20)
(0.56863 0.553604 1.92945e-19)
(0.594635 0.52594 -2.88932e-19)
(0.618205 0.497364 6.90089e-19)
(0.640148 0.469484 2.91176e-19)
(0.660862 0.442954 -9.8022e-20)
(0.680537 0.417956 -3.13032e-20)
(0.699265 0.394477 1.33068e-19)
(0.717106 0.372434 -3.71476e-19)
(0.734106 0.351729 3.08467e-20)
(0.750252 0.332296 -2.42562e-19)
(0.76561 0.314041 -1.08256e-19)
(0.780778 0.296569 -4.82811e-19)
(0.794834 0.280165 -2.10352e-19)
(0.519275 0.563028 -2.41434e-19)
(0.550071 0.539743 1.31007e-19)
(0.577107 0.51254 -8.04717e-20)
(0.601745 0.48453 -2.50133e-19)
(0.624729 0.457249 2.74964e-19)
(0.64643 0.431312 2.96569e-19)
(0.667028 0.406886 -8.42583e-22)
(0.686614 0.383951 -6.87089e-20)
(0.705254 0.362426 -3.90374e-20)
(0.722995 0.342215 2.94018e-19)
(0.739831 0.323251 2.64693e-19)
(0.755837 0.305442 7.4637e-20)
(0.771581 0.288425 5.09384e-19)
(0.786157 0.272465 1.67305e-19)
(0.500254 0.548113 -8.82196e-20)
(0.531923 0.525134 -1.50402e-19)
(0.559978 0.498454 -5.76476e-20)
(0.585668 0.471067 -8.60577e-21)
(0.609675 0.444433 -6.00584e-19)
(0.632343 0.419133 -7.68228e-19)
(0.653844 0.395318 -1.19768e-19)
(0.674272 0.372965 2.71642e-19)
(0.693693 0.351991 -1.07638e-19)
(0.71216 0.332304 -5.52017e-19)
(0.729674 0.313837 5.22122e-19)
(0.746316 0.2965 7.56124e-20)
(0.762623 0.279961 -2.12909e-19)
(0.777714 0.26446 3.36052e-19)
(0.443814 0.546432 1.01708e-19)
(0.48168 0.532398 3.55202e-19)
(0.514219 0.509793 -1.24513e-19)
(0.543281 0.483698 1.90525e-19)
(0.570003 0.456987 3.66792e-19)
(0.59501 0.431049 2.02124e-19)
(0.618623 0.406429 8.57624e-19)
(0.641008 0.383264 3.96836e-19)
(0.662257 0.361528 -3.28739e-20)
(0.682441 0.341138 -2.10551e-20)
(0.701618 0.322006 7.02544e-20)
(0.719794 0.304063 -5.77537e-19)
(0.737058 0.287223 -3.11046e-19)
(0.753915 0.271183 1.34555e-19)
(0.769515 0.256157 -4.67078e-19)
(0.425166 0.529884 7.6552e-20)
(0.46359 0.515904 -4.5337e-19)
(0.496993 0.493739 3.45834e-19)
(0.527044 0.46829 -1.61545e-19)
(0.554775 0.442307 -3.75611e-19)
(0.580759 0.417112 -9.17673e-20)
(0.605294 0.393213 -3.53987e-19)
(0.628538 0.370736 -7.44168e-19)
(0.650588 0.349651 6.43018e-20)
(0.671517 0.329877 5.99477e-19)
(0.691385 0.311328 -2.63866e-19)
(0.710208 0.293937 3.23545e-19)
(0.728077 0.277619 4.38217e-19)
(0.74547 0.262099 2.83301e-19)
(0.76157 0.247563 2.17172e-19)
(0.407029 0.512513 2.75225e-19)
(0.446019 0.498652 4.81685e-19)
(0.480275 0.476993 -5.88326e-19)
(0.511296 0.452247 4.67985e-19)
(0.540012 0.427044 3.76758e-19)
(0.566946 0.402635 -1.09749e-19)
(0.592376 0.379498 -5.8631e-20)
(0.616457 0.357746 2.16833e-19)
(0.639285 0.337345 -3.76597e-19)
(0.660937 0.318219 -5.07776e-19)
(0.681477 0.300282 1.94173e-19)
(0.700928 0.283468 -1.98518e-19)
(0.719386 0.267696 -2.37753e-19)
(0.737298 0.252715 -2.07793e-19)
(0.753889 0.238686 2.0902e-20)
(0.389444 0.494343 -4.77099e-19)
(0.429001 0.480667 -3.79628e-20)
(0.464097 0.459575 2.82901e-20)
(0.496064 0.435589 -4.89841e-20)
(0.525737 0.411215 -4.73125e-19)
(0.553592 0.387636 -2.11594e-20)
(0.579892 0.3653 -7.8445e-20)
(0.604783 0.344308 4.77478e-19)
(0.628364 0.324625 -1.49771e-19)
(0.650717 0.306176 -4.31067e-20)
(0.671909 0.288878 2.56133e-19)
(0.691969 0.272666 7.5217e-19)
(0.710998 0.257463 -7.6383e-20)
(0.729412 0.243042 -9.15665e-20)
(0.746481 0.229535 1.57503e-19)
(0.326486 0.474957 3.42148e-19)
(0.372446 0.475402 -2.02968e-19)
(0.41257 0.461973 -3.3028e-19)
(0.448488 0.441509 3.2831e-19)
(0.481374 0.418337 -1.10577e-19)
(0.511975 0.394839 3.10592e-19)
(0.540722 0.372132 1.43123e-19)
(0.56786 0.350634 -8.45577e-20)
(0.593534 0.330436 -3.24754e-19)
(0.617844 0.311502 4.05788e-19)
(0.640874 0.293759 -1.02519e-19)
(0.662696 0.277127 -4.49871e-19)
(0.683344 0.261542 -1.55117e-19)
(0.702923 0.24693 -4.92198e-20)
(0.721822 0.233087 7.79277e-19)
(0.739358 0.220119 -5.04272e-19)
(0.310026 0.455629 -2.53791e-19)
(0.35607 0.455718 5.03035e-19)
(0.396756 0.442596 9.13574e-20)
(0.433476 0.422819 2.49475e-19)
(0.467253 0.400512 1.86731e-19)
(0.498749 0.377935 -5.14507e-19)
(0.528356 0.35614 -2.71788e-19)
(0.556302 0.335517 5.08003e-19)
(0.58273 0.316146 -1.6767e-20)
(0.607741 0.297992 -4.19829e-19)
(0.631422 0.280982 1.08239e-19)
(0.65385 0.265041 5.25361e-19)
(0.675066 0.250107 -4.28216e-19)
(0.695175 0.236108 -1.74933e-19)
(0.714539 0.22286 -1.54104e-19)
(0.732527 0.210446 3.44895e-19)
(0.294207 0.435539 -3.43566e-19)
(0.340352 0.435321 -1.49893e-19)
(0.381591 0.422563 -6.35467e-20)
(0.419089 0.403528 -4.98238e-19)
(0.453726 0.382136 -3.8171e-19)
(0.486082 0.360524 5.10402e-19)
(0.516514 0.33968 2.85154e-19)
(0.545236 0.319966 -2.2465e-19)
(0.572387 0.301454 -2.61931e-19)
(0.59807 0.284109 2.85479e-19)
(0.622377 0.26786 -1.62838e-19)
(0.645387 0.252634 2.36075e-19)
(0.667147 0.238373 1.13916e-19)
(0.687764 0.225007 4.45891e-19)
(0.707573 0.212373 8.98769e-20)
(0.725998 0.200529 -4.08007e-19)
(0.279063 0.414719 -7.05998e-20)
(0.325322 0.414242 -2.01376e-19)
(0.367103 0.401904 1.77363e-19)
(0.405353 0.383664 6.62663e-20)
(0.440814 0.363234 -1.99156e-19)
(0.473996 0.342628 1.34065e-19)
(0.505217 0.322772 -3.58257e-19)
(0.53468 0.304 -8.02438e-20)
(0.562522 0.286378 3.31602e-19)
(0.588848 0.269869 1.18792e-19)
(0.613753 0.254406 1.87671e-19)
(0.637319 0.23992 -3.57131e-19)
(0.659599 0.226352 -1.38595e-19)
(0.680701 0.21364 -4.70988e-20)
(0.700935 0.201636 6.56523e-20)
(0.71978 0.190377 3.74937e-19)
(0.264629 0.393203 -1.57812e-19)
(0.311013 0.392513 3.48317e-19)
(0.35332 0.380648 5.57729e-19)
(0.392291 0.363253 1.60123e-19)
(0.428542 0.343831 2.19023e-19)
(0.46251 0.32427 -3.01327e-21)
(0.494483 0.305436 1.05687e-19)
(0.524652 0.287639 3.7318e-19)
(0.553151 0.270935 -5.50879e-20)
(0.580089 0.255288 -6.76157e-19)
(0.605563 0.240636 5.91826e-21)
(0.629658 0.226911 3.84268e-20)
(0.652433 0.214058 3.572e-20)
(0.673997 0.202018 -2.21527e-19)
(0.694635 0.19066 -2.06004e-19)
(0.713882 0.18 -4.03523e-19)
(0.200354 0.353825 -1.05992e-19)
(0.250938 0.371027 2.10659e-19)
(0.297453 0.370167 2.08145e-19)
(0.340268 0.358826 -2.07637e-19)
(0.379929 0.342324 2.51158e-20)
(0.416931 0.323951 -1.37447e-19)
(0.451645 0.305473 3.45229e-20)
(0.48433 0.287695 -4.18042e-21)
(0.515168 0.270901 -1.66969e-19)
(0.54429 0.255143 -7.53735e-20)
(0.571808 0.240384 4.4941e-19)
(0.59782 0.226565 -3.39017e-19)
(0.622416 0.213624 2.28247e-19)
(0.64566 0.201505 9.3324e-20)
(0.667661 0.190155 -2.15489e-20)
(0.688681 0.179458 6.89095e-21)
(0.70831 0.169412 2.22311e-19)
(0.18792 0.3323 2.9411e-19)
(0.238019 0.348228 -1.63263e-19)
(0.284669 0.347239 -2.88863e-19)
(0.327972 0.336468 -1.75984e-19)
(0.368289 0.320905 -3.43424e-19)
(0.406 0.303621 2.82787e-19)
(0.441418 0.286262 -2.3284e-19)
(0.474776 0.269571 5.01288e-20)
(0.506243 0.253809 3.54707e-20)
(0.535953 0.239022 -1.54848e-19)
(0.564016 0.225175 1.81145e-19)
(0.590537 0.212212 2.75036e-19)
(0.615605 0.200072 -2.45878e-19)
(0.639291 0.188707 -2.82427e-19)
(0.661704 0.178064 5.43591e-19)
(0.683082 0.168042 -4.91523e-19)
(0.703074 0.158624 1.80336e-19)
(0.176245 0.310172 -2.45602e-19)
(0.225901 0.324843 5.23479e-20)
(0.272689 0.323765 1.14663e-19)
(0.316456 0.313609 -4.02759e-19)
(0.35739 0.299025 6.60022e-20)
(0.395768 0.282869 -2.75995e-19)
(0.431847 0.266661 2.36175e-19)
(0.465835 0.251086 5.65802e-20)
(0.497893 0.236383 -2.59063e-19)
(0.528152 0.222591 -5.90325e-20)
(0.556728 0.209679 1.41066e-19)
(0.583724 0.197591 6.69637e-20)
(0.609234 0.186274 -1.97775e-20)
(0.633335 0.175678 1.64225e-20)
(0.656133 0.165759 -4.7831e-19)
(0.677847 0.156424 3.42372e-19)
(0.698181 0.147647 3.19505e-19)
(0.165357 0.28748 2.24415e-19)
(0.214611 0.300911 1.53859e-19)
(0.261535 0.29978 2.9307e-19)
(0.30574 0.290281 4.0897e-20)
(0.347253 0.276717 2.86317e-20)
(0.386254 0.261723 -2.0888e-21)
(0.422949 0.246696 -3.02014e-19)
(0.457523 0.232265 1.59438e-19)
(0.490131 0.218645 -2.58486e-19)
(0.520902 0.205872 1.71539e-19)
(0.549954 0.193914 -2.77251e-19)
(0.577393 0.182721 -1.63928e-19)
(0.603315 0.172243 3.33584e-19)
(0.627801 0.162434 2.98474e-20)
(0.650957 0.153252 7.55761e-20)
(0.672984 0.144618 3.07347e-20)
(0.693636 0.136495 -3.52141e-19)
(0.155282 0.264266 -1.50404e-19)
(0.204174 0.276473 9.55226e-20)
(0.251231 0.275323 -2.16061e-19)
(0.295845 0.266519 1.65368e-19)
(0.337896 0.254011 2.3589e-20)
(0.377474 0.240211 1.41101e-19)
(0.414739 0.226395 -5.26011e-21)
(0.449855 0.213132 -1.40265e-19)
(0.48297 0.200619 1.39172e-19)
(0.514214 0.188885 -3.60923e-19)
(0.543706 0.177901 5.06953e-19)
(0.571553 0.167621 1.95201e-19)
(0.597856 0.157998 -4.11336e-19)
(0.622698 0.148991 4.16432e-20)
(0.646185 0.140561 2.71199e-19)
(0.668499 0.132638 -3.86002e-19)
(0.689448 0.12518 -1.9724e-21)
(0.146045 0.240572 9.88369e-20)
(0.194612 0.251569 -8.1466e-20)
(0.241797 0.250432 -4.08006e-20)
(0.28679 0.242357 -8.29591e-20)
(0.329336 0.230939 -1.06308e-19)
(0.369443 0.218363 -2.97258e-19)
(0.407229 0.205783 1.3061e-19)
(0.442842 0.193713 -1.8334e-19)
(0.476421 0.182327 3.39086e-19)
(0.508099 0.171651 2.30521e-19)
(0.537993 0.161659 -4.08942e-19)
(0.566214 0.152308 -4.13773e-19)
(0.592865 0.143556 1.98604e-19)
(0.618033 0.135364 -2.22848e-19)
(0.641823 0.127698 -2.76923e-20)
(0.6644 0.120498 2.21e-19)
(0.68562 0.113715 -4.11507e-19)
(0.137667 0.216439 -1.58943e-19)
(0.185946 0.226241 -2.29157e-19)
(0.233252 0.225145 3.37932e-19)
(0.278592 0.217833 4.71029e-20)
(0.321587 0.207534 1.71141e-19)
(0.362175 0.196209 1.81567e-19)
(0.400434 0.184889 -4.32125e-20)
(0.436496 0.174032 2.57296e-19)
(0.470497 0.163792 -1.52654e-19)
(0.502566 0.154193 -1.99251e-19)
(0.532824 0.145209 3.19645e-19)
(0.561385 0.136802 3.65721e-19)
(0.588351 0.128934 -4.2237e-19)
(0.613814 0.12157 5.83674e-20)
(0.637878 0.114679 -3.90752e-20)
(0.660693 0.108211 -1.38241e-19)
(0.68216 0.102115 5.52026e-20)
(0.130169 0.191913 1.74871e-19)
(0.178195 0.200531 1.26942e-19)
(0.225613 0.199502 -1.82587e-19)
(0.271266 0.192982 8.61981e-20)
(0.314665 0.18383 9.79019e-20)
(0.355682 0.17378 -3.09782e-19)
(0.394365 0.163741 1.52743e-19)
(0.430828 0.154116 1.73484e-20)
(0.465205 0.145041 1.48269e-19)
(0.497625 0.136533 -1.93281e-19)
(0.528209 0.128571 2.43587e-20)
(0.557072 0.121122 -1.53854e-20)
(0.58432 0.11415 2.15113e-20)
(0.610047 0.107625 1.31873e-19)
(0.634355 0.101521 2.37317e-20)
(0.657383 0.0957935 -2.94388e-20)
(0.679072 0.0903922 3.59486e-21)
(0.123569 0.167038 -2.62805e-20)
(0.171376 0.174483 1.5586e-19)
(0.218896 0.173545 -1.97968e-19)
(0.264825 0.167841 4.96511e-20)
(0.30858 0.159861 -1.76874e-19)
(0.349976 0.151107 4.66994e-22)
(0.389031 0.142368 -2.87157e-19)
(0.425848 0.133992 -2.10314e-19)
(0.460556 0.126096 1.13409e-19)
(0.493284 0.118694 3.00877e-20)
(0.524154 0.111768 -8.03067e-20)
(0.553284 0.105287 1.08188e-19)
(0.580779 0.0992228 7.95856e-20)
(0.606738 0.0935474 1.34144e-19)
(0.631262 0.0882382 6.63653e-20)
(0.654476 0.083259 1.53317e-19)
(0.67636 0.078561 6.22873e-20)
(0.0725211 0.124527 2.54501e-19)
(0.117883 0.141858 -9.9899e-20)
(0.165504 0.148141 -4.60674e-20)
(0.213113 0.147313 -8.81112e-20)
(0.259282 0.142449 8.54008e-21)
(0.303344 0.13566 6.29526e-20)
(0.345067 0.128221 1.96157e-19)
(0.384442 0.120799 2.41825e-19)
(0.421564 0.113687 9.44386e-20)
(0.456556 0.106983 -2.28432e-20)
(0.489549 0.100699 -4.96381e-20)
(0.520667 0.0948191 -1.25821e-19)
(0.550025 0.0893181 1.53217e-20)
(0.577734 0.0841706 -1.50008e-20)
(0.603892 0.0793534 -1.0967e-19)
(0.628601 0.0748474 -1.1396e-20)
(0.651976 0.0706229 -2.21486e-19)
(0.674028 0.0666353 4.35179e-21)
(0.068285 0.102224 -1.04133e-19)
(0.113123 0.116419 -5.51654e-21)
(0.160591 0.121549 -1.18877e-20)
(0.208276 0.120847 5.88766e-20)
(0.254647 0.116842 -1.8551e-19)
(0.298967 0.111263 -7.31172e-20)
(0.340963 0.105155 -1.25552e-19)
(0.380607 0.0990639 5.0434e-21)
(0.417983 0.0932278 4.23787e-20)
(0.453213 0.0877269 9.54023e-20)
(0.486428 0.0825716 -1.89864e-20)
(0.517751 0.0777477 8.44997e-20)
(0.547302 0.0732349 -4.16304e-20)
(0.575189 0.0690122 -1.51672e-19)
(0.601514 0.0650606 -1.60858e-20)
(0.626377 0.0613646 -3.53964e-20)
(0.649886 0.0579005 1.69076e-19)
(0.67208 0.0546296 -2.90425e-20)
(0.0648827 0.0797179 -2.43583e-20)
(0.109302 0.0907691 5.37891e-20)
(0.156648 0.0947512 4.21403e-20)
(0.204396 0.0941912 1.20709e-20)
(0.250929 0.0910597 1.43169e-19)
(0.295456 0.0867055 -3.88918e-20)
(0.337671 0.0819415 3.48715e-20)
(0.37753 0.0771918 4.17082e-20)
(0.41511 0.072642 2.91264e-20)
(0.450532 0.0683539 -7.96256e-20)
(0.483925 0.0643354 1.05479e-19)
(0.515414 0.0605754 7.99061e-20)
(0.545118 0.0570579 -3.16126e-20)
(0.573148 0.0537667 1.29263e-19)
(0.599607 0.0506869 2.03897e-19)
(0.624595 0.0478064 -3.01241e-20)
(0.648211 0.0451073 7.6722e-20)
(0.670518 0.042558 -3.48664e-20)
(0.0623231 0.0570544 1.6533e-20)
(0.106428 0.0649533 -8.51031e-20)
(0.153683 0.0677938 4.41369e-20)
(0.201478 0.067386 1.30447e-19)
(0.248134 0.0651405 -1.05407e-19)
(0.292817 0.0620222 -6.13114e-21)
(0.335197 0.0586121 2.74687e-20)
(0.375218 0.0552131 6.16133e-20)
(0.412952 0.0519576 5.80386e-21)
(0.448517 0.0488895 -2.00039e-20)
(0.482044 0.0460144 -3.26802e-20)
(0.513657 0.0433243 -3.47613e-20)
(0.543477 0.0408078 1.33887e-20)
(0.571614 0.0384533 1.35265e-20)
(0.598174 0.03625 -6.86282e-20)
(0.623255 0.0341895 -6.76182e-21)
(0.646952 0.032259 -1.65634e-19)
(0.669344 0.0304352 6.94673e-20)
(0.060613 0.0342777 -7.85229e-21)
(0.104509 0.0390192 3.60688e-20)
(0.151703 0.0407218 -2.11686e-20)
(0.19953 0.040474 -6.68412e-20)
(0.246268 0.0391232 3.25279e-20)
(0.291055 0.037249 -7.56176e-22)
(0.333546 0.0352001 -9.49282e-20)
(0.373675 0.0331582 5.79333e-20)
(0.411511 0.0312026 -3.93007e-20)
(0.447172 0.0293597 3.13494e-20)
(0.480788 0.0276327 -2.59224e-20)
(0.512484 0.026017 1.37128e-20)
(0.542381 0.0245055 2.5025e-20)
(0.570591 0.0230913 -7.37556e-20)
(0.597218 0.021768 7.00693e-21)
(0.622361 0.0205304 -3.33568e-21)
(0.646112 0.0193711 4.20497e-20)
(0.668561 0.0182757 9.49727e-22)
(0.0597568 0.0114331 5.41897e-21)
(0.103548 0.0130139 6.79182e-21)
(0.150712 0.0135812 -1.35225e-20)
(0.198555 0.013498 2.60912e-20)
(0.245334 0.0130472 -1.03444e-20)
(0.290174 0.0124219 3.24039e-20)
(0.332719 0.0117385 2.9853e-20)
(0.372903 0.0110574 -3.73819e-20)
(0.41079 0.0104052 -1.3852e-20)
(0.446499 0.00979059 1.89746e-20)
(0.48016 0.00921464 -1.33668e-20)
(0.511897 0.00867577 -1.7203e-20)
(0.541833 0.00817169 1.52939e-21)
(0.570078 0.00770007 1.78891e-20)
(0.596739 0.00725875 3.50898e-20)
(0.621913 0.00684603 2.62905e-21)
(0.645691 0.00645943 3.93086e-21)
(0.668169 0.00609413 1.73979e-20)
(0.0597568 -0.0114342 4.31214e-21)
(0.103548 -0.0130151 8.04279e-21)
(0.150712 -0.0135825 -6.80969e-21)
(0.198555 -0.0134993 2.46735e-20)
(0.245334 -0.0130485 -1.37278e-20)
(0.290174 -0.0124232 3.576e-20)
(0.332719 -0.0117397 2.20002e-20)
(0.372903 -0.0110586 -2.96199e-20)
(0.41079 -0.0104063 -1.08888e-20)
(0.446499 -0.0097916 1.35686e-20)
(0.48016 -0.0092156 -1.13222e-20)
(0.511897 -0.00867668 -2.21223e-20)
(0.541833 -0.00817255 5.88373e-21)
(0.570078 -0.00770087 1.59083e-20)
(0.596739 -0.00725951 3.60175e-20)
(0.621913 -0.00684675 3.0976e-21)
(0.645691 -0.0064601 2.74084e-21)
(0.668169 -0.00609475 1.85339e-20)
(0.060613 -0.0342788 2.9292e-20)
(0.104509 -0.0390204 2.2552e-20)
(0.151703 -0.0407231 -1.83126e-20)
(0.19953 -0.0404753 -1.09304e-19)
(0.246268 -0.0391245 6.64044e-20)
(0.291055 -0.0372503 -1.10181e-20)
(0.333546 -0.0352013 -5.19142e-20)
(0.373675 -0.0331593 1.84714e-23)
(0.411511 -0.0312037 -2.88334e-20)
(0.447172 -0.0293607 3.7753e-20)
(0.480788 -0.0276337 -3.79977e-20)
(0.512484 -0.0260179 3.21503e-20)
(0.542381 -0.0245063 1.21432e-20)
(0.570591 -0.0230921 -5.85504e-20)
(0.597218 -0.0217687 1.76221e-20)
(0.622361 -0.0205311 -2.88735e-21)
(0.646112 -0.0193717 3.10442e-20)
(0.668561 -0.0182763 3.198e-21)
(0.0623232 -0.0570555 -4.42862e-20)
(0.106428 -0.0649546 -6.91998e-20)
(0.153683 -0.0677951 7.96793e-20)
(0.201478 -0.0673873 1.22198e-19)
(0.248134 -0.0651417 -1.09493e-19)
(0.292817 -0.0620234 2.89527e-20)
(0.335197 -0.0586133 1.41089e-20)
(0.375218 -0.0552142 7.06264e-20)
(0.412952 -0.0519587 -1.90986e-20)
(0.448517 -0.0488905 -6.60541e-20)
(0.482044 -0.0460154 1.35644e-20)
(0.513657 -0.0433252 -5.09902e-20)
(0.543477 -0.0408087 4.072e-20)
(0.571614 -0.0384541 1.16069e-20)
(0.598174 -0.0362508 -9.11845e-20)
(0.623255 -0.0341902 5.44304e-21)
(0.646952 -0.0322596 -1.33446e-19)
(0.669344 -0.0304358 3.00693e-20)
(0.0648828 -0.0797191 2.23735e-20)
(0.109302 -0.0907704 3.03309e-20)
(0.156648 -0.0947525 -5.59382e-20)
(0.204396 -0.0941926 1.04503e-20)
(0.250929 -0.091061 1.82312e-19)
(0.295456 -0.0867067 1.86294e-20)
(0.337671 -0.0819427 3.78601e-20)
(0.37753 -0.0771929 5.20836e-21)
(0.415111 -0.0726431 6.36168e-20)
(0.450532 -0.0683549 -7.06918e-20)
(0.483925 -0.0643363 1.00358e-19)
(0.515414 -0.0605763 2.9787e-21)
(0.545118 -0.0570588 -2.53814e-20)
(0.573148 -0.0537675 1.94249e-19)
(0.599607 -0.0506877 1.51257e-19)
(0.624595 -0.0478072 -7.8509e-20)
(0.648211 -0.045108 1.03979e-19)
(0.670518 -0.0425586 -2.31237e-21)
(0.0682851 -0.102225 -1.5734e-19)
(0.113123 -0.116421 6.92122e-21)
(0.160591 -0.12155 -2.83542e-20)
(0.208277 -0.120849 -4.59723e-21)
(0.254647 -0.116843 -9.25184e-20)
(0.298967 -0.111265 -1.07289e-19)
(0.340963 -0.105157 -4.48178e-20)
(0.380607 -0.0990651 -1.54441e-19)
(0.417983 -0.0932289 1.73049e-19)
(0.453213 -0.0877279 3.55768e-20)
(0.486428 -0.0825726 -7.20877e-20)
(0.517752 -0.0777486 1.23008e-19)
(0.547302 -0.0732357 -5.35114e-20)
(0.575189 -0.069013 -1.21629e-19)
(0.601514 -0.0650614 -2.87171e-20)
(0.626378 -0.0613653 -3.83323e-20)
(0.649886 -0.0579012 6.16091e-20)
(0.67208 -0.0546302 -4.43262e-21)
(0.0725212 -0.124528 9.92889e-21)
(0.117883 -0.141859 -2.44628e-20)
(0.165504 -0.148142 -6.88716e-20)
(0.213113 -0.147314 -3.19446e-20)
(0.259282 -0.14245 -5.72705e-20)
(0.303345 -0.135661 4.03485e-20)
(0.345067 -0.128223 2.39466e-19)
(0.384443 -0.120801 2.084e-19)
(0.421564 -0.113688 1.31081e-19)
(0.456557 -0.106984 -4.89185e-20)
(0.489549 -0.1007 2.72789e-20)
(0.520667 -0.09482 -2.01215e-19)
(0.550025 -0.089319 6.99174e-20)
(0.577734 -0.0841714 -5.54529e-20)
(0.603892 -0.0793541 -7.84704e-20)
(0.628601 -0.0748481 4.18058e-20)
(0.651976 -0.0706235 -3.55831e-19)
(0.674028 -0.066636 1.28455e-19)
(0.123569 -0.167039 4.98241e-20)
(0.171376 -0.174485 -2.17561e-20)
(0.218896 -0.173546 -3.3059e-20)
(0.264825 -0.167843 -1.09017e-19)
(0.30858 -0.159862 -2.29906e-20)
(0.349976 -0.151108 -1.00815e-20)
(0.389031 -0.14237 -3.73296e-19)
(0.425848 -0.133994 -2.72641e-19)
(0.460556 -0.126097 1.59312e-19)
(0.493284 -0.118695 2.32888e-20)
(0.524155 -0.111769 5.99013e-20)
(0.553284 -0.105288 -5.73783e-20)
(0.58078 -0.0992236 2.92629e-19)
(0.606738 -0.0935482 5.72173e-20)
(0.631262 -0.0882389 8.53259e-20)
(0.654476 -0.0832596 2.00189e-19)
(0.67636 -0.0785616 -1.06975e-19)
(0.130169 -0.191914 6.44277e-20)
(0.178195 -0.200532 5.77239e-20)
(0.225614 -0.199504 -8.84901e-20)
(0.271266 -0.192983 1.5268e-19)
(0.314665 -0.183831 2.1685e-20)
(0.355682 -0.173781 -2.77048e-19)
(0.394365 -0.163742 1.74358e-19)
(0.430829 -0.154117 6.96241e-20)
(0.465205 -0.145042 -8.08879e-20)
(0.497625 -0.136534 2.17538e-20)
(0.528209 -0.128572 1.01119e-20)
(0.557073 -0.121123 -8.28116e-20)
(0.58432 -0.114151 2.10528e-19)
(0.610047 -0.107626 -7.41218e-20)
(0.634356 -0.101522 5.35039e-20)
(0.657383 -0.0957942 1.13972e-19)
(0.679072 -0.0903928 -4.22572e-20)
(0.137667 -0.216441 -8.8078e-20)
(0.185946 -0.226242 -3.17439e-19)
(0.233252 -0.225146 2.13825e-19)
(0.278592 -0.217834 1.02682e-19)
(0.321588 -0.207536 1.76168e-19)
(0.362175 -0.19621 1.8991e-19)
(0.400434 -0.18489 1.20644e-19)
(0.436496 -0.174033 1.59002e-19)
(0.470497 -0.163793 -2.86309e-19)
(0.502566 -0.154194 3.19172e-20)
(0.532825 -0.14521 6.23348e-20)
(0.561385 -0.136803 3.21247e-19)
(0.588351 -0.128935 -1.74825e-19)
(0.613814 -0.121571 -4.40292e-20)
(0.637878 -0.11468 -1.01196e-19)
(0.660693 -0.108212 -6.59103e-20)
(0.68216 -0.102116 1.71433e-19)
(0.146045 -0.240573 2.3011e-21)
(0.194612 -0.25157 -3.53367e-20)
(0.241797 -0.250433 1.38467e-19)
(0.286791 -0.242359 -2.98965e-19)
(0.329336 -0.23094 -1.70583e-20)
(0.369443 -0.218364 -2.66284e-19)
(0.40723 -0.205784 1.50669e-19)
(0.442842 -0.193714 -2.41882e-19)
(0.476422 -0.182328 2.32933e-19)
(0.508099 -0.171652 2.07079e-19)
(0.537993 -0.16166 -1.69099e-19)
(0.566215 -0.152309 -5.85165e-19)
(0.592865 -0.143557 3.12356e-19)
(0.618033 -0.135365 -2.51114e-19)
(0.641823 -0.127698 -5.48024e-20)
(0.6644 -0.120499 2.03062e-19)
(0.685621 -0.113716 -1.66155e-19)
(0.155282 -0.264268 -1.32991e-19)
(0.204174 -0.276474 1.67647e-19)
(0.251231 -0.275324 -3.19286e-19)
(0.295846 -0.26652 5.90075e-20)
(0.337896 -0.254012 -6.46096e-21)
(0.377474 -0.240212 3.66127e-19)
(0.414739 -0.226396 -2.27554e-19)
(0.449855 -0.213133 -4.82371e-20)
(0.48297 -0.20062 6.29642e-20)
(0.514215 -0.188886 -7.93626e-20)
(0.543706 -0.177902 3.07452e-19)
(0.571553 -0.167622 1.70097e-19)
(0.597856 -0.157999 -3.41772e-19)
(0.622698 -0.148992 1.85064e-19)
(0.646185 -0.140561 2.54412e-19)
(0.668499 -0.132639 -4.64706e-19)
(0.689448 -0.12518 1.69498e-21)
(0.165357 -0.287482 1.31447e-19)
(0.214612 -0.300913 1.81876e-19)
(0.261536 -0.299781 1.04067e-19)
(0.30574 -0.290282 4.23282e-19)
(0.347253 -0.276718 -5.36137e-20)
(0.386254 -0.261724 1.72638e-19)
(0.42295 -0.246697 -6.02483e-19)
(0.457524 -0.232266 3.43529e-19)
(0.490131 -0.218646 -2.11666e-19)
(0.520903 -0.205873 6.19819e-20)
(0.549954 -0.193915 -3.32967e-19)
(0.577393 -0.182722 -2.63963e-20)
(0.603315 -0.172244 2.68284e-19)
(0.627801 -0.162435 4.48558e-20)
(0.650958 -0.153253 -1.31034e-20)
(0.672984 -0.144619 2.21476e-20)
(0.693637 -0.136495 -2.96094e-19)
(0.176245 -0.310173 -1.8324e-19)
(0.225902 -0.324844 1.50878e-20)
(0.272689 -0.323766 1.63689e-19)
(0.316456 -0.31361 -3.68236e-19)
(0.35739 -0.299027 3.87754e-20)
(0.395769 -0.28287 -4.32163e-19)
(0.431848 -0.266662 4.77862e-19)
(0.465835 -0.251087 -1.25281e-19)
(0.497893 -0.236384 -1.41766e-19)
(0.528153 -0.222592 4.06353e-21)
(0.556728 -0.209679 1.61204e-21)
(0.583724 -0.197592 2.5079e-19)
(0.609235 -0.186274 -3.67118e-20)
(0.633335 -0.175679 -3.17947e-19)
(0.656133 -0.165759 -3.93616e-19)
(0.677847 -0.156425 4.58063e-19)
(0.698181 -0.147647 2.88427e-19)
(0.187921 -0.332301 2.12607e-19)
(0.23802 -0.348229 -3.283e-19)
(0.28467 -0.34724 -3.11356e-19)
(0.327973 -0.33647 1.24435e-19)
(0.368289 -0.320906 -5.19732e-19)
(0.406 -0.303622 5.2142e-19)
(0.441418 -0.286263 -2.27253e-19)
(0.474776 -0.269572 -2.29237e-19)
(0.506243 -0.25381 2.03952e-20)
(0.535953 -0.239023 -5.68007e-22)
(0.564017 -0.225176 -2.8788e-20)
(0.590537 -0.212212 1.93013e-19)
(0.615605 -0.200073 -1.83156e-19)
(0.639291 -0.188708 9.44125e-20)
(0.661704 -0.178065 2.04398e-19)
(0.683082 -0.168042 -2.55955e-19)
(0.703075 -0.158624 -5.24643e-20)
(0.200354 -0.353826 -3.04174e-20)
(0.250938 -0.371029 2.31875e-19)
(0.297453 -0.370168 2.07972e-19)
(0.340268 -0.358827 -3.26948e-19)
(0.37993 -0.342325 1.76099e-19)
(0.416931 -0.323952 -1.35438e-19)
(0.451645 -0.305474 -9.29846e-21)
(0.484331 -0.287696 3.42659e-20)
(0.515168 -0.270902 -8.1746e-20)
(0.54429 -0.255144 1.62407e-19)
(0.571808 -0.240385 -8.83306e-20)
(0.597821 -0.226566 -2.62047e-19)
(0.622416 -0.213624 3.72857e-19)
(0.645661 -0.201506 2.31264e-19)
(0.667662 -0.190156 -2.96241e-19)
(0.688681 -0.179459 1.718e-19)
(0.708311 -0.169413 2.50064e-19)
(0.26463 -0.393205 4.4775e-20)
(0.311013 -0.392514 1.65235e-19)
(0.35332 -0.38065 3.27149e-19)
(0.392292 -0.363255 2.46362e-19)
(0.428543 -0.343832 4.74736e-19)