/*--------------------------------*- C++ -*----------------------------------*\
  =========                 |
  \\      /  F ield         | OpenFOAM: The Open Source CFD Toolbox
   \\    /   O peration     | Website:  https://openfoam.org
    \\  /    A nd           | Version:  7
     \\/     M anipulation  |
\*---------------------------------------------------------------------------*/
FoamFile
{
    version     2.0;
    format      ascii;
    class       volScalarField;
    location    "5";
    object      p;
}
// * * * * * * * * * * * * * * * * * * * * * * * * * * * * * * * * * * * * * //

dimensions      [0 2 -2 0 0 0 0];

internalField   nonuniform List<scalar> 
3275
(
-0.35551
-0.359887
-0.362244
-0.363604
-0.364248
-0.364174
-0.363445
-0.362126
-0.36027
-0.357927
-0.355143
-0.351968
-0.348448
-0.34458
-0.340454
-0.356048
-0.360363
-0.362677
-0.363997
-0.364604
-0.364496
-0.363735
-0.362386
-0.360502
-0.358132
-0.355324
-0.352127
-0.348589
-0.344696
-0.340533
-0.357122
-0.361313
-0.363539
-0.364782
-0.365315
-0.365138
-0.364314
-0.362905
-0.360964
-0.35854
-0.355683
-0.352441
-0.34887
-0.344924
-0.340688
-0.358724
-0.362733
-0.364827
-0.365953
-0.366376
-0.366096
-0.365176
-0.363677
-0.361651
-0.359148
-0.356215
-0.352906
-0.349283
-0.34526
-0.34091
-0.360846
-0.364614
-0.366534
-0.367506
-0.367782
-0.367366
-0.366318
-0.364698
-0.362558
-0.359947
-0.356913
-0.353513
-0.34982
-0.345694
-0.341187
-0.363478
-0.366947
-0.368652
-0.369432
-0.369526
-0.36894
-0.367732
-0.365961
-0.363677
-0.360931
-0.357769
-0.354252
-0.350471
-0.346215
-0.341485
-0.366605
-0.369723
-0.371172
-0.371724
-0.3716
-0.37081
-0.36941
-0.367457
-0.365001
-0.362091
-0.358772
-0.355113
-0.351222
-0.346808
-0.34176
-0.370213
-0.372928
-0.374083
-0.374371
-0.373994
-0.372967
-0.371343
-0.369178
-0.366519
-0.363416
-0.359913
-0.356084
-0.352059
-0.347466
-0.342151
-0.374286
-0.37655
-0.377374
-0.377362
-0.376699
-0.375401
-0.373523
-0.371114
-0.368224
-0.364897
-0.36118
-0.357153
-0.352966
-0.348138
-0.342552
-0.378808
-0.380574
-0.381031
-0.380686
-0.379703
-0.378104
-0.375939
-0.373258
-0.370105
-0.366525
-0.362563
-0.358306
-0.353931
-0.348836
-0.342898
-0.383762
-0.384987
-0.385042
-0.384332
-0.382997
-0.381065
-0.378584
-0.375599
-0.372154
-0.368292
-0.364053
-0.359533
-0.354939
-0.34954
-0.343177
-0.389133
-0.389775
-0.389394
-0.388287
-0.386569
-0.384274
-0.381448
-0.378132
-0.374366
-0.37019
-0.365642
-0.360826
-0.355978
-0.350231
-0.343372
-0.394903
-0.394923
-0.394075
-0.39254
-0.39041
-0.387724
-0.384524
-0.38085
-0.376735
-0.372217
-0.367328
-0.362177
-0.357038
-0.350893
-0.343448
-0.401059
-0.400417
-0.399072
-0.397081
-0.39451
-0.391405
-0.387806
-0.383748
-0.379259
-0.374372
-0.36911
-0.363587
-0.358114
-0.351513
-0.343386
-0.407584
-0.406243
-0.404371
-0.401897
-0.398858
-0.39531
-0.391289
-0.386824
-0.381938
-0.376656
-0.370991
-0.365058
-0.359205
-0.352079
-0.34315
-0.414466
-0.412389
-0.409962
-0.406979
-0.403448
-0.399433
-0.394969
-0.390077
-0.384774
-0.379075
-0.372981
-0.3666
-0.360315
-0.352586
-0.342705
-0.421688
-0.41884
-0.415831
-0.412314
-0.408268
-0.403768
-0.398842
-0.393508
-0.387773
-0.38164
-0.375094
-0.368229
-0.361461
-0.353035
-0.342018
-0.429236
-0.425582
-0.421965
-0.417893
-0.413312
-0.408308
-0.402907
-0.397118
-0.390941
-0.384364
-0.37735
-0.369971
-0.362666
-0.353436
-0.341048
-0.437094
-0.432599
-0.428351
-0.423703
-0.418571
-0.413049
-0.407161
-0.400911
-0.394288
-0.387265
-0.379776
-0.371863
-0.363969
-0.353812
-0.339755
-0.445244
-0.439875
-0.434974
-0.429733
-0.424034
-0.417984
-0.411604
-0.40489
-0.397824
-0.390363
-0.382408
-0.373956
-0.365433
-0.354219
-0.338121
-0.453665
-0.447393
-0.44182
-0.43597
-0.429693
-0.423106
-0.416231
-0.409057
-0.401561
-0.393681
-0.385285
-0.376316
-0.367157
-0.354785
-0.336206
-0.462334
-0.455132
-0.44887
-0.4424
-0.435535
-0.428409
-0.421038
-0.413415
-0.405506
-0.39724
-0.388452
-0.379024
-0.369265
-0.355669
-0.334069
-0.471227
-0.463071
-0.456106
-0.449007
-0.441549
-0.433881
-0.426021
-0.417959
-0.409665
-0.401061
-0.39196
-0.382184
-0.371895
-0.356831
-0.331196
-0.480313
-0.471186
-0.463508
-0.455774
-0.44772
-0.43951
-0.431167
-0.422684
-0.414038
-0.405161
-0.395875
-0.385987
-0.37539
-0.358587
-0.327384
-0.489563
-0.47945
-0.471054
-0.462681
-0.454031
-0.445283
-0.436464
-0.427575
-0.41861
-0.409533
-0.400242
-0.39066
-0.380593
-0.364693
-0.333849
-0.498942
-0.487836
-0.478719
-0.469708
-0.460463
-0.45118
-0.441891
-0.432607
-0.423343
-0.414111
-0.404941
-0.395989
-0.387491
-0.379705
-0.38361
-0.508414
-0.496313
-0.486476
-0.47683
-0.466995
-0.457182
-0.447426
-0.437748
-0.42818
-0.418778
-0.409667
-0.401144
-0.393526
-0.389003
-0.39901
-0.51794
-0.504848
-0.494297
-0.484023
-0.473604
-0.463265
-0.453044
-0.442964
-0.433073
-0.423446
-0.414254
-0.40582
-0.398297
-0.393999
-0.403018
-0.527483
-0.513407
-0.502152
-0.491259
-0.480265
-0.469406
-0.458718
-0.448228
-0.437985
-0.428072
-0.418667
-0.410066
-0.402264
-0.397393
-0.404508
-0.536999
-0.521953
-0.510006
-0.498508
-0.486949
-0.475576
-0.464422
-0.453509
-0.442884
-0.432624
-0.422892
-0.413933
-0.405614
-0.399831
-0.404544
-0.546446
-0.530446
-0.517824
-0.505736
-0.493626
-0.481747
-0.470127
-0.458777
-0.447737
-0.43707
-0.426909
-0.417435
-0.408409
-0.401485
-0.403646
-0.555776
-0.538844
-0.525566
-0.512907
-0.50026
-0.487885
-0.475796
-0.463996
-0.452509
-0.441377
-0.430697
-0.420582
-0.410708
-0.40252
-0.402172
-0.564942
-0.547101
-0.53319
-0.519979
-0.506813
-0.49395
-0.481392
-0.469127
-0.45716
-0.445508
-0.434229
-0.423374
-0.412556
-0.403047
-0.400284
-0.57389
-0.555167
-0.540647
-0.526908
-0.513241
-0.4999
-0.486872
-0.474125
-0.461645
-0.449422
-0.437475
-0.425799
-0.413973
-0.403127
-0.398053
-0.582562
-0.562987
-0.547887
-0.533645
-0.519495
-0.505686
-0.492185
-0.478941
-0.465915
-0.453073
-0.440398
-0.427839
-0.414963
-0.402785
-0.395511
-0.554854
-0.540135
-0.525522
-0.511254
-0.497279
-0.48352
-0.469918
-0.456412
-0.442956
-0.429466
-0.415514
-0.402024
-0.392663
-0.546319
-0.531264
-0.516548
-0.502094
-0.487803
-0.473594
-0.459385
-0.445104
-0.430647
-0.415605
-0.400831
-0.389498
-0.521503
-0.506568
-0.491728
-0.476884
-0.461933
-0.44679
-0.43134
-0.415207
-0.399183
-0.385995
-0.495226
-0.479719
-0.463997
-0.447962
-0.4315
-0.414281
-0.397048
-0.382123
-0.46551
-0.448561
-0.431079
-0.412787
-0.394389
-0.377845
-0.430024
-0.410679
-0.391164
-0.37312
-0.387331
-0.367904
-0.387332
-0.367904
-0.448527
-0.430024
-0.41068
-0.391165
-0.37312
-0.482034
-0.465511
-0.448561
-0.431079
-0.412788
-0.394389
-0.377845
-0.495227
-0.47972
-0.463997
-0.447962
-0.431501
-0.414282
-0.397048
-0.382124
-0.521504
-0.506568
-0.491728
-0.476884
-0.461934
-0.446791
-0.43134
-0.415207
-0.399183
-0.385996
-0.546319
-0.531265
-0.516549
-0.502095
-0.487804
-0.473595
-0.459385
-0.445104
-0.430647
-0.415606
-0.400831
-0.389498
-0.554854
-0.540135
-0.525523
-0.511255
-0.49728
-0.48352
-0.469918
-0.456412
-0.442956
-0.429467
-0.415514
-0.402024
-0.392663
-0.582562
-0.562988
-0.547888
-0.533645
-0.519495
-0.505686
-0.492186
-0.478941
-0.465916
-0.453073
-0.440398
-0.427839
-0.414963
-0.402785
-0.395511
-0.57389
-0.555167
-0.540648
-0.526909
-0.513241
-0.4999
-0.486872
-0.474125
-0.461645
-0.449422
-0.437475
-0.425799
-0.413973
-0.403127
-0.398054
-0.564943
-0.547101
-0.53319
-0.519979
-0.506814
-0.49395
-0.481393
-0.469127
-0.45716
-0.445508
-0.43423
-0.423374
-0.412556
-0.403047
-0.400284
-0.555777
-0.538844
-0.525567
-0.512907
-0.500261
-0.487885
-0.475796
-0.463996
-0.452509
-0.441377
-0.430698
-0.420583
-0.410709
-0.40252
-0.402173
-0.546446
-0.530446
-0.517825
-0.505736
-0.493626
-0.481748
-0.470127
-0.458777
-0.447738
-0.43707
-0.42691
-0.417436
-0.40841
-0.401486
-0.403647
-0.536999
-0.521953
-0.510006
-0.498508
-0.48695
-0.475577
-0.464423
-0.45351
-0.442884
-0.432624
-0.422892
-0.413933
-0.405615
-0.399831
-0.404545
-0.527483
-0.513407
-0.502152
-0.491259
-0.480265
-0.469406
-0.458718
-0.448228
-0.437985
-0.428072
-0.418667
-0.410066
-0.402264
-0.397393
-0.404508
-0.517941
-0.504848
-0.494298
-0.484023
-0.473605
-0.463265
-0.453044
-0.442965
-0.433073
-0.423446
-0.414254
-0.40582
-0.398297
-0.393999
-0.403019
-0.508414
-0.496313
-0.486477
-0.47683
-0.466996
-0.457182
-0.447426
-0.437748
-0.42818
-0.418778
-0.409667
-0.401144
-0.393527
-0.389004
-0.399011
-0.498942
-0.487836
-0.478719
-0.469708
-0.460464
-0.451181
-0.441892
-0.432607
-0.423343
-0.414112
-0.404941
-0.395989
-0.387491
-0.379705
-0.38361
-0.489563
-0.47945
-0.471054
-0.462681
-0.454031
-0.445283
-0.436464
-0.427575
-0.41861
-0.409533
-0.400242
-0.39066
-0.380593
-0.364694
-0.333849
-0.480314
-0.471186
-0.463509
-0.455774
-0.44772
-0.439511
-0.431167
-0.422684
-0.414038
-0.405161
-0.395875
-0.385987
-0.375391
-0.358588
-0.327385
-0.471227
-0.463071
-0.456107
-0.449007
-0.44155
-0.433881
-0.426021
-0.417959
-0.409665
-0.401062
-0.39196
-0.382184
-0.371896
-0.356831
-0.331197
-0.462335
-0.455132
-0.44887
-0.4424
-0.435536
-0.428409
-0.421039
-0.413415
-0.405506
-0.39724
-0.388453
-0.379024
-0.369266
-0.355669
-0.33407
-0.453665
-0.447393
-0.44182
-0.43597
-0.429693
-0.423107
-0.416231
-0.409058
-0.401561
-0.393681
-0.385285
-0.376317
-0.367157
-0.354785
-0.336206
-0.445244
-0.439875
-0.434975
-0.429733
-0.424034
-0.417984
-0.411604
-0.40489
-0.397825
-0.390364
-0.382408
-0.373957
-0.365434
-0.354219
-0.338122
-0.437095
-0.432599
-0.428351
-0.423703
-0.418571
-0.413049
-0.407162
-0.400911
-0.394288
-0.387266
-0.379777
-0.371864
-0.363969
-0.353812
-0.339756
-0.429237
-0.425582
-0.421965
-0.417893
-0.413313
-0.408308
-0.402907
-0.397118
-0.390941
-0.384365
-0.37735
-0.369971
-0.362666
-0.353436
-0.341048
-0.421689
-0.41884
-0.415831
-0.412314
-0.408269
-0.403768
-0.398842
-0.393508
-0.387773
-0.38164
-0.375094
-0.368229
-0.361461
-0.353035
-0.342018
-0.414466
-0.41239
-0.409962
-0.406979
-0.403448
-0.399433
-0.394969
-0.390077
-0.384775
-0.379075
-0.372981
-0.3666
-0.360316
-0.352586
-0.342706
-0.407585
-0.406244
-0.404372
-0.401898
-0.398859
-0.39531
-0.39129
-0.386824
-0.381938
-0.376656
-0.370991
-0.365058
-0.359205
-0.352079
-0.34315
-0.401059
-0.400417
-0.399072
-0.397081
-0.39451
-0.391405
-0.387807
-0.383748
-0.37926
-0.374372
-0.36911
-0.363587
-0.358114
-0.351513
-0.343386
-0.394904
-0.394923
-0.394076
-0.39254
-0.39041
-0.387724
-0.384524
-0.38085
-0.376736
-0.372218
-0.367329
-0.362178
-0.357038
-0.350894
-0.343448
-0.389133
-0.389775
-0.389394
-0.388287
-0.386569
-0.384274
-0.381448
-0.378132
-0.374366
-0.370191
-0.365643
-0.360826
-0.355978
-0.350231
-0.343372
-0.383763
-0.384987
-0.385042
-0.384332
-0.382997
-0.381065
-0.378584
-0.3756
-0.372154
-0.368292
-0.364053
-0.359533
-0.354939
-0.34954
-0.343178
-0.378808
-0.380574
-0.381031
-0.380686
-0.379703
-0.378104
-0.375939
-0.373258
-0.370105
-0.366525
-0.362563
-0.358306
-0.353931
-0.348836
-0.342898
-0.374286
-0.37655
-0.377374
-0.377362
-0.376699
-0.375402
-0.373523
-0.371114
-0.368224
-0.364897
-0.36118
-0.357153
-0.352966
-0.348139
-0.342552
-0.370213
-0.372928
-0.374084
-0.374371
-0.373995
-0.372967
-0.371343
-0.369178
-0.36652
-0.363416
-0.359913
-0.356084
-0.352059
-0.347466
-0.342152
-0.366605
-0.369723
-0.371173
-0.371724
-0.3716
-0.37081
-0.36941
-0.367457
-0.365001
-0.362091
-0.358773
-0.355113
-0.351223
-0.346808
-0.34176
-0.363478
-0.366947
-0.368652
-0.369433
-0.369526
-0.36894
-0.367732
-0.365961
-0.363677
-0.360931
-0.357769
-0.354252
-0.350471
-0.346215
-0.341485
-0.360846
-0.364614
-0.366534
-0.367506
-0.367782
-0.367366
-0.366318
-0.364698
-0.362558
-0.359947
-0.356913
-0.353513
-0.34982
-0.345694
-0.341187
-0.358724
-0.362733
-0.364827
-0.365953
-0.366376
-0.366096
-0.365176
-0.363677
-0.361651
-0.359148
-0.356215
-0.352906
-0.349283
-0.34526
-0.34091
-0.357122
-0.361314
-0.363539
-0.364782
-0.365315
-0.365138
-0.364314
-0.362905
-0.360964
-0.35854
-0.355683
-0.352441
-0.34887
-0.344924
-0.340688
-0.356048
-0.360363
-0.362677
-0.363997
-0.364604
-0.364496
-0.363736
-0.362387
-0.360502
-0.358132
-0.355324
-0.352127
-0.348589
-0.344696
-0.340533
-0.35551
-0.359887
-0.362244
-0.363604
-0.364248
-0.364174
-0.363445
-0.362126
-0.36027
-0.357927
-0.355143
-0.351968
-0.348448
-0.34458
-0.340454
-0.335775
-0.327966
-0.319791
-0.310345
-0.299909
-0.288453
-0.336142
-0.328184
-0.320015
-0.310552
-0.300106
-0.288644
-0.336872
-0.328615
-0.320457
-0.310961
-0.300496
-0.289022
-0.337953
-0.329232
-0.321109
-0.311566
-0.301072
-0.289581
-0.339373
-0.329997
-0.321957
-0.312357
-0.301826
-0.29031
-0.34116
-0.331189
-0.323005
-0.313322
-0.302743
-0.291199
-0.343312
-0.332307
-0.324216
-0.314444
-0.303808
-0.292232
-0.345573
-0.333707
-0.325576
-0.315711
-0.305006
-0.293393
-0.348099
-0.335247
-0.327072
-0.317098
-0.306316
-0.294663
-0.350887
-0.336896
-0.328682
-0.318586
-0.307719
-0.296024
-0.353899
-0.338647
-0.330383
-0.320153
-0.309194
-0.297454
-0.357113
-0.340485
-0.332153
-0.32178
-0.31072
-0.298936
-0.360421
-0.342389
-0.333966
-0.323442
-0.312277
-0.300448
-0.3639
-0.344348
-0.335798
-0.325118
-0.313844
-0.301972
-0.289353
-0.367461
-0.346345
-0.337625
-0.326786
-0.315402
-0.303489
-0.290869
-0.371055
-0.348368
-0.339422
-0.328423
-0.316933
-0.304982
-0.292369
-0.37462
-0.350409
-0.341165
-0.330006
-0.318417
-0.306437
-0.293839
-0.378065
-0.352458
-0.342831
-0.331513
-0.31984
-0.307838
-0.295264
-0.381254
-0.354503
-0.344399
-0.332921
-0.321186
-0.309175
-0.296635
-0.383983
-0.356514
-0.345848
-0.334205
-0.322438
-0.310434
-0.297941
-0.385936
-0.358424
-0.347162
-0.335346
-0.323585
-0.311611
-0.299176
-0.286195
-0.386679
-0.360198
-0.348366
-0.336342
-0.324622
-0.312701
-0.300337
-0.287445
-0.385776
-0.36182
-0.349478
-0.337181
-0.325525
-0.313683
-0.301403
-0.288611
-0.381778
-0.362469
-0.350256
-0.337757
-0.326224
-0.31452
-0.302358
-0.28969
-0.368609
-0.360003
-0.350398
-0.338026
-0.326766
-0.3153
-0.303303
-0.29078
-0.334957
-0.353844
-0.351044
-0.339213
-0.328302
-0.31712
-0.305277
-0.292845
-0.322822
-0.345172
-0.345572
-0.334474
-0.324238
-0.313693
-0.302314
-0.290268
-0.318159
-0.337297
-0.338614
-0.328232
-0.318604
-0.308687
-0.29782
-0.286217
-0.314669
-0.329527
-0.331353
-0.321812
-0.312698
-0.303356
-0.293016
-0.28188
-0.270017
-0.310851
-0.321558
-0.323482
-0.314831
-0.306208
-0.297424
-0.287643
-0.277018
-0.265643
-0.306118
-0.313187
-0.314786
-0.307018
-0.29892
-0.290695
-0.281507
-0.271444
-0.260607
-0.300059
-0.304182
-0.305198
-0.298302
-0.290792
-0.283141
-0.27458
-0.265125
-0.254877
-0.292416
-0.294358
-0.294695
-0.288657
-0.281813
-0.274766
-0.266861
-0.25806
-0.248449
-0.283095
-0.283603
-0.283293
-0.278096
-0.271992
-0.265588
-0.258368
-0.25026
-0.241329
-0.272151
-0.271886
-0.271054
-0.266674
-0.261374
-0.255654
-0.249145
-0.241761
-0.233548
-0.259757
-0.259256
-0.258087
-0.254502
-0.250044
-0.245045
-0.239265
-0.232629
-0.22516
-0.246184
-0.245844
-0.244547
-0.241728
-0.238122
-0.23387
-0.228831
-0.222952
-0.216244
-0.231765
-0.231843
-0.230617
-0.22853
-0.22576
-0.222261
-0.217962
-0.21284
-0.206897
-0.216862
-0.217487
-0.216498
-0.215101
-0.213123
-0.210363
-0.206792
-0.202414
-0.197228
-0.20182
-0.203023
-0.20239
-0.201631
-0.200383
-0.198331
-0.195463
-0.191804
-0.187353
-0.186947
-0.18869
-0.188478
-0.188298
-0.187705
-0.186312
-0.184108
-0.181134
-0.177389
-0.172488
-0.174692
-0.174922
-0.175256
-0.175236
-0.174442
-0.172855
-0.170523
-0.167444
-0.158627
-0.161196
-0.161851
-0.16263
-0.163101
-0.162839
-0.161815
-0.160075
-0.157617
-0.145486
-0.148322
-0.149363
-0.150518
-0.151402
-0.151604
-0.151084
-0.149881
-0.147996
-0.133134
-0.136151
-0.137525
-0.13899
-0.140214
-0.140813
-0.140737
-0.140018
-0.138653
-0.121607
-0.124729
-0.126379
-0.128095
-0.129593
-0.130526
-0.130836
-0.130546
-0.129649
-0.110909
-0.114079
-0.115951
-0.117863
-0.119579
-0.120789
-0.121429
-0.121514
-0.121034
-0.101032
-0.104205
-0.106249
-0.108312
-0.110197
-0.111631
-0.112551
-0.112961
-0.112848
-0.0919572
-0.0951013
-0.0972759
-0.0994496
-0.101463
-0.103077
-0.104229
-0.104917
-0.105124
-0.0836638
-0.0867555
-0.0890255
-0.0912787
-0.0933853
-0.0951411
-0.0964848
-0.0974077
-0.0978913
-0.0761295
-0.0791536
-0.0814907
-0.0837978
-0.0859699
-0.0878344
-0.0893333
-0.0904528
-0.0911726
-0.0693341
-0.0722815
-0.0746635
-0.0770042
-0.0792195
-0.0811654
-0.0827882
-0.0840702
-0.0849892
-0.0632605
-0.0661273
-0.068537
-0.0708958
-0.0731368
-0.075142
-0.076862
-0.0782765
-0.0793619
-0.0578964
-0.0606826
-0.063107
-0.0654726
-0.0677263
-0.0697729
-0.0715679
-0.073089
-0.0743114
-0.0532354
-0.0559443
-0.058374
-0.0607386
-0.0629955
-0.0650697
-0.0669213
-0.0685266
-0.0698601
-0.0492774
-0.0519156
-0.0543447
-0.0567033
-0.0589574
-0.0610488
-0.0629421
-0.0646125
-0.0660341
-0.046034
-0.0486102
-0.0510346
-0.0533848
-0.0556327
-0.0577338
-0.0596567
-0.0613759
-0.0628654
-0.0435228
-0.0460495
-0.0484684
-0.0508103
-0.0530513
-0.0551575
-0.0571005
-0.0588548
-0.060394
-0.0417885
-0.0442779
-0.0466908
-0.0490253
-0.0512599
-0.0533679
-0.0553232
-0.0571001
-0.0586721
-0.0408701
-0.0433433
-0.0457544
-0.0480861
-0.0503182
-0.0524275
-0.0543893
-0.0561779
-0.0577669
-0.335213
-0.339325
-0.342961
-0.346184
-0.349063
-0.351671
-0.354086
-0.356389
-0.358662
-0.360987
-0.363453
-0.366173
-0.36929
-0.372778
-0.377271
-0.388659
-0.407035
-0.318226
-0.323348
-0.328125
-0.332617
-0.336886
-0.340999
-0.345029
-0.349055
-0.353161
-0.35744
-0.361998
-0.366982
-0.372533
-0.378522
-0.385552
-0.398679
-0.41145
-0.301423
-0.307235
-0.312763
-0.318048
-0.323135
-0.328073
-0.332915
-0.33772
-0.342552
-0.34748
-0.352585
-0.357979
-0.363748
-0.369709
-0.376425
-0.388354
-0.398978
-0.283711
-0.28986
-0.295775
-0.30149
-0.307041
-0.312469
-0.317818
-0.323138
-0.328486
-0.333921
-0.339517
-0.345372
-0.351558
-0.357913
-0.364996
-0.376678
-0.386671
-0.266384
-0.272752
-0.27894
-0.284976
-0.290891
-0.296721
-0.302502
-0.308278
-0.314095
-0.320005
-0.326066
-0.332359
-0.33893
-0.345627
-0.352939
-0.364138
-0.37348
-0.249569
-0.256033
-0.262362
-0.268579
-0.274709
-0.280781
-0.286827
-0.292881
-0.298981
-0.305169
-0.311493
-0.318015
-0.324768
-0.331622
-0.339009
-0.349694
-0.358654
-0.233257
-0.2397
-0.246042
-0.252302
-0.258503
-0.264667
-0.27082
-0.276993
-0.283217
-0.289527
-0.295963
-0.302578
-0.309394
-0.316308
-0.323698
-0.333861
-0.342501
-0.217526
-0.223856
-0.230112
-0.23631
-0.242467
-0.248605
-0.254744
-0.26091
-0.267129
-0.273432
-0.279851
-0.286432
-0.293191
-0.300047
-0.307327
-0.316902
-0.325176
-0.202427
-0.208576
-0.214669
-0.22072
-0.226744
-0.232758
-0.238781
-0.244833
-0.250936
-0.257117
-0.263403
-0.269831
-0.276416
-0.283098
-0.290155
-0.299073
-0.306907
-0.187985
-0.193901
-0.199773
-0.205615
-0.211437
-0.217254
-0.223081
-0.228936
-0.234836
-0.240804
-0.246863
-0.253044
-0.259359
-0.265768
-0.272499
-0.280701
-0.28802
-0.174214
-0.17986
-0.185473
-0.19106
-0.196631
-0.202199
-0.207774
-0.213371
-0.219006
-0.224696
-0.23046
-0.236323
-0.242297
-0.248355
-0.254681
-0.26213
-0.268878
-0.161116
-0.166472
-0.171798
-0.177102
-0.182391
-0.187674
-0.192961
-0.198263
-0.203592
-0.208961
-0.214386
-0.219887
-0.225474
-0.23113
-0.236999
-0.243691
-0.249842
-0.148691
-0.153743
-0.15877
-0.163774
-0.168763
-0.173743
-0.178721
-0.183706
-0.188706
-0.193733
-0.198798
-0.203916
-0.209094
-0.214325
-0.219715
-0.225678
-0.231239
-0.136931
-0.141677
-0.146398
-0.151098
-0.15578
-0.160449
-0.165111
-0.169771
-0.174437
-0.179115
-0.183816
-0.188548
-0.193318
-0.198123
-0.203038
-0.208327
-0.213333
-0.125828
-0.130271
-0.134689
-0.139085
-0.143462
-0.147822
-0.152169
-0.156509
-0.160844
-0.165181
-0.169525
-0.173884
-0.178262
-0.182658
-0.187122
-0.191808
-0.196312
-0.11537
-0.119519
-0.123642
-0.127742
-0.13182
-0.135879
-0.139922
-0.14395
-0.147967
-0.151977
-0.155983
-0.159989
-0.163999
-0.168015
-0.172063
-0.176225
-0.180286
-0.105547
-0.109411
-0.11325
-0.117066
-0.120858
-0.124629
-0.12838
-0.132112
-0.135828
-0.139529
-0.143218
-0.146898
-0.15057
-0.154236
-0.157911
-0.161625
-0.165302
-0.0963416
-0.0999362
-0.103506
-0.107051
-0.110572
-0.11407
-0.117546
-0.120999
-0.124433
-0.127847
-0.131243
-0.134622
-0.137987
-0.141338
-0.144679
-0.148014
-0.151359
-0.0877388
-0.0910794
-0.094395
-0.0976858
-0.100952
-0.104194
-0.107412
-0.110606
-0.113777
-0.116926
-0.120052
-0.123158
-0.126243
-0.129311
-0.132356
-0.135368
-0.138424
-0.0797208
-0.0828238
-0.085902
-0.0889553
-0.0919837
-0.0949871
-0.0979656
-0.100919
-0.103848
-0.106752
-0.109633
-0.112489
-0.115322
-0.118133
-0.120916
-0.123652
-0.126453
-0.0722691
-0.0751514
-0.0780091
-0.0808421
-0.08365
-0.0864326
-0.0891898
-0.0919215
-0.0946276
-0.0973081
-0.0999629
-0.102592
-0.105197
-0.107778
-0.110325
-0.112822
-0.115394
-0.0653649
-0.0680431
-0.0706973
-0.0733269
-0.0759315
-0.0785108
-0.0810645
-0.0835924
-0.0860943
-0.0885699
-0.0910192
-0.0934422
-0.0958395
-0.0982117
-0.100548
-0.102834
-0.1052
-0.0589893
-0.0614801
-0.0639472
-0.0663901
-0.0688081
-0.071201
-0.0735684
-0.0759099
-0.0782252
-0.0805141
-0.0827763
-0.0850118
-0.0872212
-0.0894047
-0.0915521
-0.0936501
-0.095827
-0.0531244
-0.0554439
-0.0577401
-0.0600123
-0.06226
-0.0644828
-0.0666803
-0.0688519
-0.0709975
-0.0731167
-0.0752091
-0.0772748
-0.0793141
-0.081327
-0.0833041
-0.0852344
-0.0872389
-0.0477536
-0.0499173
-0.052058
-0.0541751
-0.0562681
-0.0583365
-0.0603798
-0.0623976
-0.0643895
-0.0663551
-0.0682941
-0.0702064
-0.0720924
-0.0739517
-0.0757758
-0.0775563
-0.0794033
-0.0428619
-0.0448847
-0.0468849
-0.048862
-0.0508153
-0.0527444
-0.0546487
-0.0565278
-0.0583813
-0.0602088
-0.0620099
-0.0637845
-0.065533
-0.0672547
-0.0689421
-0.0705891
-0.0722932
-0.0384367
-0.0403329
-0.0422071
-0.0440585
-0.0458867
-0.0476909
-0.0494708
-0.0512259
-0.0529557
-0.0546599
-0.056338
-0.05799
-0.0596159
-0.0612153
-0.0627816
-0.0643105
-0.0658856
-0.0344681
-0.0362517
-0.0380137
-0.0397535
-0.0414703
-0.0431638
-0.0448334
-0.0464785
-0.0480988
-0.049694
-0.0512635
-0.0528072
-0.0543252
-0.0558169
-0.0572769
-0.0587023
-0.0601623
-0.0309497
-0.0326342
-0.0342975
-0.035939
-0.0375582
-0.0391544
-0.0407272
-0.0422761
-0.0438007
-0.0453005
-0.0467753
-0.0482247
-0.0496488
-0.051047
-0.052415
-0.0537509
-0.0551098
-0.027879
-0.0294775
-0.0310553
-0.0326119
-0.0341466
-0.0356589
-0.0371483
-0.0386144
-0.0400566
-0.0414747
-0.0428683
-0.044237
-0.0455809
-0.0468993
-0.0481891
-0.0494491
-0.0507208
-0.0252585
-0.0267838
-0.028289
-0.0297734
-0.0312365
-0.0326779
-0.0340969
-0.0354932
-0.0368663
-0.0382159
-0.0395415
-0.040843
-0.0421201
-0.0433724
-0.0445976
-0.045795
-0.0469939
-0.0230975
-0.0245628
-0.0260086
-0.0274341
-0.028839
-0.0302226
-0.0315846
-0.0329244
-0.0342416
-0.035536
-0.036807
-0.0380545
-0.0392783
-0.0404778
-0.0416517
-0.0427996
-0.0439399
-0.0214084
-0.0228261
-0.0242248
-0.025604
-0.0269632
-0.0283019
-0.0296197
-0.0309161
-0.0321908
-0.0334433
-0.0346734
-0.0358807
-0.037065
-0.0382259
-0.0393625
-0.0404748
-0.0415725
-0.0216143
-0.0229809
-0.0243285
-0.0256567
-0.026965
-0.0282529
-0.0295201
-0.0307661
-0.0319906
-0.0331933
-0.0343739
-0.0355321
-0.0366675
-0.0377798
-0.038869
-0.0399387
-0.0209242
-0.0222702
-0.0235984
-0.0249082
-0.0261994
-0.0274715
-0.028724
-0.0299567
-0.0311691
-0.0323609
-0.0335318
-0.0346815
-0.0358096
-0.0369158
-0.0380002
-0.0390634
-0.019561
-0.0209244
-0.0222705
-0.0235986
-0.0249085
-0.0261996
-0.0274717
-0.0287243
-0.0299569
-0.0311693
-0.0323612
-0.0335321
-0.0346818
-0.0358099
-0.0369161
-0.0380004
-0.0390637
-0.0202295
-0.0216146
-0.0229811
-0.0243288
-0.0256569
-0.0269652
-0.0282531
-0.0295203
-0.0307663
-0.0319909
-0.0331936
-0.0343741
-0.0355323
-0.0366678
-0.0377801
-0.0388692
-0.0399389
-0.0214086
-0.0228263
-0.024225
-0.0256042
-0.0269634
-0.0283021
-0.0296199
-0.0309164
-0.032191
-0.0334436
-0.0346737
-0.0358809
-0.0370652
-0.0382261
-0.0393627
-0.040475
-0.0415727
-0.0230977
-0.0245631
-0.0260088
-0.0274344
-0.0288392
-0.0302229
-0.0315848
-0.0329246
-0.0342419
-0.0355362
-0.0368073
-0.0380548
-0.0392785
-0.0404781
-0.0416519
-0.0427998
-0.0439401
-0.0252587
-0.026784
-0.0282892
-0.0297737
-0.0312368
-0.0326781
-0.0340972
-0.0354935
-0.0368666
-0.0382161
-0.0395418
-0.0408432
-0.0421203
-0.0433726
-0.0445978
-0.0457953
-0.0469941
-0.0278792
-0.0294777
-0.0310556
-0.0326121
-0.0341468
-0.0356591
-0.0371486
-0.0386146
-0.0400569
-0.041475
-0.0428685
-0.0442373
-0.0455811
-0.0468996
-0.0481894
-0.0494493
-0.0507211
-0.0309499
-0.0326344
-0.0342977
-0.0359393
-0.0375584
-0.0391547
-0.0407275
-0.0422764
-0.0438009
-0.0453008
-0.0467756
-0.048225
-0.049649
-0.0510472
-0.0524152
-0.0537511
-0.05511
-0.0344684
-0.036252
-0.038014
-0.0397537
-0.0414706
-0.0431641
-0.0448336
-0.0464788
-0.0480991
-0.0496942
-0.0512637
-0.0528074
-0.0543254
-0.0558171
-0.0572772
-0.0587025
-0.0601625
-0.038437
-0.0403332
-0.0422074
-0.0440588
-0.0458869
-0.0476912
-0.0494711
-0.0512262
-0.052956
-0.0546601
-0.0563383
-0.0579902
-0.0596162
-0.0612156
-0.0627819
-0.0643107
-0.0658858
-0.0428622
-0.0448849
-0.0468852
-0.0488622
-0.0508156
-0.0527447
-0.054649
-0.0565281
-0.0583815
-0.060209
-0.0620102
-0.0637848
-0.0655332
-0.0672549
-0.0689424
-0.0705894
-0.0722934
-0.0477539
-0.0499175
-0.0520582
-0.0541754
-0.0562684
-0.0583368
-0.0603801
-0.0623979
-0.0643897
-0.0663553
-0.0682944
-0.0702067
-0.0720926
-0.073952
-0.075776
-0.0775565
-0.0794036
-0.0531247
-0.0554442
-0.0577404
-0.0600126
-0.0622603
-0.0644831
-0.0666805
-0.0688522
-0.0709978
-0.0731169
-0.0752094
-0.077275
-0.0793144
-0.0813273
-0.0833043
-0.0852347
-0.0872391
-0.0589895
-0.0614804
-0.0639475
-0.0663904
-0.0688084
-0.0712013
-0.0735687
-0.0759101
-0.0782255
-0.0805143
-0.0827766
-0.0850121
-0.0872215
-0.089405
-0.0915524
-0.0936504
-0.0958273
-0.0653651
-0.0680434
-0.0706976
-0.0733272
-0.0759318
-0.0785111
-0.0810648
-0.0835927
-0.0860946
-0.0885702
-0.0910195
-0.0934425
-0.0958398
-0.098212
-0.100549
-0.102834
-0.1052
-0.0722694
-0.0751516
-0.0780094
-0.0808424
-0.0836503
-0.0864329
-0.0891901
-0.0919218
-0.0946279
-0.0973084
-0.0999632
-0.102592
-0.105197
-0.107778
-0.110325
-0.112822
-0.115394
-0.0797211
-0.0828241
-0.0859023
-0.0889556
-0.091984
-0.0949874
-0.0979659
-0.100919
-0.103848
-0.106753
-0.109633
-0.112489
-0.115322
-0.118134
-0.120916
-0.123652
-0.126453
-0.0877391
-0.0910797
-0.0943953
-0.0976861
-0.100952
-0.104194
-0.107412
-0.110606
-0.113777
-0.116926
-0.120053
-0.123158
-0.126244
-0.129311
-0.132356
-0.135369
-0.138425
-0.0963419
-0.0999365
-0.103506
-0.107051
-0.110572
-0.11407
-0.117546
-0.121
-0.124433
-0.127847
-0.131243
-0.134622
-0.137987
-0.141338
-0.144679
-0.148014
-0.151359
-0.105547
-0.109411
-0.113251
-0.117066
-0.120859
-0.12463
-0.12838
-0.132113
-0.135828
-0.13953
-0.143219
-0.146898
-0.15057
-0.154237
-0.157911
-0.161625
-0.165302
-0.115371
-0.119519
-0.123642
-0.127742
-0.13182
-0.13588
-0.139922
-0.143951
-0.147968
-0.151977
-0.155983
-0.159989
-0.164
-0.168015
-0.172063
-0.176225
-0.180286
-0.125828
-0.130271
-0.13469
-0.139085
-0.143462
-0.147822
-0.15217
-0.156509
-0.160844
-0.165181
-0.169526
-0.173885
-0.178262
-0.182659
-0.187122
-0.191808
-0.196312
-0.136931
-0.141678
-0.146399
-0.151098
-0.15578
-0.160449
-0.165111
-0.169771
-0.174437
-0.179116
-0.183816
-0.188548
-0.193319
-0.198124
-0.203039
-0.208327
-0.213334
-0.148691
-0.153744
-0.15877
-0.163774
-0.168763
-0.173743
-0.178721
-0.183706
-0.188707
-0.193733
-0.198798
-0.203916
-0.209094
-0.214325
-0.219715
-0.225678
-0.23124
-0.161117
-0.166472
-0.171799
-0.177102
-0.182391
-0.187675
-0.192962
-0.198263
-0.203592
-0.208961
-0.214386
-0.219888
-0.225474
-0.23113
-0.236999
-0.243692
-0.249843
-0.174214
-0.179861
-0.185473
-0.19106
-0.196632
-0.202199
-0.207774
-0.213372
-0.219007
-0.224696
-0.23046
-0.236324
-0.242298
-0.248355
-0.254681
-0.26213
-0.268878
-0.187986
-0.193901
-0.199774
-0.205615
-0.211438
-0.217255
-0.223082
-0.228936
-0.234837
-0.240804
-0.246863
-0.253044
-0.25936
-0.265769
-0.2725
-0.280701
-0.288021
-0.202427
-0.208576
-0.214669
-0.22072
-0.226745
-0.232759
-0.238781
-0.244833
-0.250937
-0.257117
-0.263403
-0.269831
-0.276416
-0.283099
-0.290155
-0.299073
-0.306907
-0.217526
-0.223856
-0.230112
-0.23631
-0.242468
-0.248605
-0.254744
-0.26091
-0.26713
-0.273432
-0.279852
-0.286432
-0.293191
-0.300048
-0.307327
-0.316903
-0.325176
-0.233257
-0.2397
-0.246042
-0.252303
-0.258503
-0.264667
-0.270821
-0.276994
-0.283218
-0.289528
-0.295964
-0.302578
-0.309395
-0.316308
-0.323698
-0.333862
-0.342502
-0.249569
-0.256033
-0.262362
-0.268579
-0.27471
-0.280782
-0.286827
-0.292881
-0.298981
-0.305169
-0.311493
-0.318016
-0.324769
-0.331622
-0.339009
-0.349694
-0.358654
-0.266385
-0.272752
-0.27894
-0.284976
-0.290892
-0.296721
-0.302502
-0.308278
-0.314096
-0.320005
-0.326067
-0.33236
-0.33893
-0.345628
-0.352939
-0.364138
-0.373481
-0.283711
-0.28986
-0.295776
-0.301491
-0.307041
-0.312469
-0.317818
-0.323139
-0.328486
-0.333922
-0.339517
-0.345373
-0.351558
-0.357914
-0.364996
-0.376678
-0.386671
-0.301423
-0.307236
-0.312764
-0.318049
-0.323136
-0.328073
-0.332916
-0.337721
-0.342552
-0.34748
-0.352585
-0.35798
-0.363749
-0.369709
-0.376426
-0.388355
-0.398978
-0.318227
-0.323348
-0.328126
-0.332617
-0.336886
-0.340999
-0.34503
-0.349056
-0.353162
-0.357441
-0.361999
-0.366982
-0.372534
-0.378522
-0.385552
-0.398679
-0.411451
-0.335214
-0.339326
-0.342962
-0.346185
-0.349063
-0.351671
-0.354087
-0.356389
-0.358662
-0.360988
-0.363453
-0.366174
-0.36929
-0.372778
-0.377272
-0.388659
-0.407036
-0.0408703
-0.0433435
-0.0457546
-0.0480864
-0.0503184
-0.0524277
-0.0543895
-0.0561781
-0.0417887
-0.0442781
-0.046691
-0.0490255
-0.0512601
-0.0533681
-0.0553234
-0.0571003
-0.0435231
-0.0460497
-0.0484686
-0.0508105
-0.0530515
-0.0551577
-0.0571007
-0.058855
-0.0460342
-0.0486104
-0.0510348
-0.053385
-0.0556329
-0.057734
-0.0596569
-0.0613761
-0.0492777
-0.0519159
-0.0543449
-0.0567035
-0.0589576
-0.061049
-0.0629423
-0.0646127
-0.0532356
-0.0559445
-0.0583743
-0.0607389
-0.0629958
-0.0650699
-0.0669215
-0.0685268
-0.0578966
-0.0606828
-0.0631072
-0.0654729
-0.0677265
-0.0697731
-0.0715681
-0.0730892
-0.0632608
-0.0661276
-0.0685372
-0.0708961
-0.073137
-0.0751422
-0.0768622
-0.0782767
-0.0693343