/*--------------------------------*- C++ -*----------------------------------*\
  =========                 |
  \\      /  F ield         | OpenFOAM: The Open Source CFD Toolbox
   \\    /   O peration     | Website:  https://openfoam.org
    \\  /    A nd           | Version:  7
     \\/     M anipulation  |
\*---------------------------------------------------------------------------*/
FoamFile
{
    version     2.0;
    format      ascii;
    class       volVectorField;
    location    "5";
    object      U;
}
// * * * * * * * * * * * * * * * * * * * * * * * * * * * * * * * * * * * * * //

dimensions      [0 1 -1 0 0 0 0];

internalField   nonuniform List<vector> 
3275
(
(-0.000345462 0.000349461 6.19726e-21)
(-0.00192926 0.000846371 -1.15857e-21)
(-0.00497514 0.00118131 -1.57946e-21)
(-0.00878814 0.00138513 -1.38209e-21)
(-0.0130128 0.00148103 2.72244e-21)
(-0.0173876 0.00148968 -5.28167e-21)
(-0.0216852 0.00143024 -5.77612e-21)
(-0.0257305 0.00132035 8.7465e-22)
(-0.0293979 0.00117653 8.00696e-21)
(-0.0326081 0.00101435 -1.76994e-20)
(-0.0353257 0.000848522 5.92963e-21)
(-0.037559 0.000692765 6.14197e-21)
(-0.0393572 0.000558884 2.06415e-21)
(-0.0407855 0.000454909 2.35927e-21)
(-0.0419472 0.000392827 5.21144e-21)
(-0.000385732 0.00104319 -5.32079e-21)
(-0.00201277 0.00252581 1.52273e-20)
(-0.00505986 0.00352457 7.23595e-21)
(-0.00884072 0.0041315 3.15062e-21)
(-0.013004 0.00441585 1.23663e-20)
(-0.017291 0.00443947 5.83697e-22)
(-0.0214771 0.00425959 6.90588e-21)
(-0.0253894 0.00392901 -1.96718e-20)
(-0.0289038 0.00349712 6.18101e-21)
(-0.0319426 0.00301059 -1.37283e-20)
(-0.0344717 0.00251356 3.84035e-21)
(-0.0365008 0.00204727 1.76954e-20)
(-0.0380821 0.00164729 -4.74018e-21)
(-0.039279 0.00133815 -4.28418e-21)
(-0.0401858 0.00115651 5.72892e-21)
(-0.000465165 0.00172124 -3.42275e-21)
(-0.00217699 0.00416515 -3.48593e-20)
(-0.00522534 0.00580945 1.41467e-20)
(-0.00894111 0.00680576 3.86609e-21)
(-0.012981 0.00726853 -2.39525e-20)
(-0.0170922 0.00730006 1.84137e-20)
(-0.0210553 0.00699507 -1.16406e-20)
(-0.0247016 0.00644098 4.38751e-20)
(-0.0279104 0.0057197 3.9141e-21)
(-0.0306067 0.00490879 2.69625e-20)
(-0.0327592 0.00408186 -2.9012e-20)
(-0.0343806 0.00330792 -4.27027e-20)
(-0.0355292 0.00264674 1.49679e-20)
(-0.0362642 0.00214071 -6.26289e-21)
(-0.0366623 0.00185327 3.46174e-20)
(-0.000581572 0.0023735 1.44607e-20)
(-0.00241641 0.0057384 -7.52834e-21)
(-0.00546372 0.00799808 -2.76458e-20)
(-0.00907983 0.00936114 -5.26415e-20)
(-0.0129333 0.00998577 2.4154e-20)
(-0.0167801 0.0100136 9.54049e-21)
(-0.0204085 0.00957578 2.13928e-20)
(-0.023656 0.00879359 -1.66973e-20)
(-0.026407 0.00778079 1.33441e-20)
(-0.0285907 0.00664549 -4.84222e-20)
(-0.0301796 0.00549077 1.44103e-20)
(-0.031191 0.00441387 5.13158e-20)
(-0.0316923 0.00349951 -6.27887e-20)
(-0.0317373 0.00281014 1.62426e-20)
(-0.0313748 0.0024395 -5.83366e-20)
(-0.000731718 0.0029903 9.60753e-21)
(-0.00272282 0.00722066 5.77852e-21)
(-0.00576334 0.0100541 3.73477e-20)
(-0.00924271 0.0117527 -6.92087e-21)
(-0.0128451 0.0125164 9.24789e-21)
(-0.0163378 0.0125245 -1.03655e-20)
(-0.0195195 0.0119434 5.29278e-20)
(-0.0222357 0.0109269 2.7208e-20)
(-0.0243774 0.00961969 -4.43067e-20)
(-0.0258795 0.00816002 6.19715e-21)
(-0.0267193 0.00668041 1.26454e-20)
(-0.0269203 0.00530696 -7.11507e-20)
(-0.026562 0.00415033 1.15631e-19)
(-0.0256923 0.00329592 2.3985e-20)
(-0.0243192 0.00287291 2.26377e-20)
(-0.00091139 0.00356257 -1.92557e-20)
(-0.00308548 0.00858854 5.6915e-20)
(-0.00610878 0.0119433 -5.38955e-20)
(-0.00941102 0.013938 8.99325e-20)
(-0.0126954 0.014812 5.96849e-20)
(-0.0157431 0.0147805 -8.1806e-21)
(-0.0183655 0.014043 -1.11716e-19)
(-0.020418 0.0127845 1.00884e-20)
(-0.0217999 0.0111796 3.98567e-21)
(-0.0224528 0.00939575 8.17829e-20)
(-0.0223599 0.0075949 7.09935e-21)
(-0.0215525 0.00593281 8.50664e-20)
(-0.0201253 0.00454745 -1.60013e-19)
(-0.0181207 0.00355131 1.13496e-20)
(-0.0154884 0.00311642 2.16084e-21)
(-0.00111547 0.00408203 3.39906e-20)
(-0.00349127 0.00982042 4.42135e-20)
(-0.00648113 0.013634 -1.52635e-20)
(-0.00956158 0.0158779 -1.66577e-19)
(-0.0124579 0.0168281 -5.38139e-20)
(-0.014968 0.0167334 -9.64646e-21)
(-0.0169176 0.0158243 3.9537e-20)
(-0.0181743 0.0143152 6.62179e-21)
(-0.0186468 0.0124089 -9.27707e-20)
(-0.0182844 0.0103012 -1.41992e-19)
(-0.0170778 0.0081835 -1.20026e-19)
(-0.0150666 0.00624203 -1.42797e-19)
(-0.0123642 0.00464377 1.0145e-19)
(-0.00900988 0.00353538 -1.22738e-19)
(-0.00488298 0.00314975 -2.60226e-20)
(-0.00133801 0.00454122 -4.19704e-20)
(-0.00392481 0.0108968 -3.94801e-20)
(-0.00685805 0.0150974 -1.72814e-20)
(-0.00966688 0.0175368 1.23626e-19)
(-0.0121017 0.0185244 -2.25774e-20)
(-0.0139789 0.0183398 1.08418e-19)
(-0.0151413 0.0172423 1.06805e-20)
(-0.0154698 0.0154732 -1.02161e-19)
(-0.0148842 0.013262 7.85651e-20)
(-0.0133425 0.0108314 1.14012e-19)
(-0.0108433 0.00840191 -2.86923e-20)
(-0.00743612 0.00619126 1.19347e-19)
(-0.00325461 0.00439747 -4.22235e-20)
(0.00166737 0.00320859 6.07666e-20)
(0.00750074 0.00293737 -1.12103e-19)
(-0.00157233 0.00493363 3.38262e-20)
(-0.00436869 0.0118004 -1.10294e-20)
(-0.00721404 0.0163083 2.87826e-20)
(-0.00969528 0.0188835 -5.14593e-20)
(-0.0115904 0.0198655 -4.15179e-20)
(-0.0127367 0.019562 9.22338e-21)
(-0.0129957 0.0182582 -3.07971e-20)
(-0.0122635 0.0162198 1.40885e-19)
(-0.0104718 0.0137007 -1.91598e-20)
(-0.00758872 0.0109491 1.29444e-19)
(-0.00362099 0.00821367 2.80218e-20)
(0.00137069 0.00574477 6.20705e-20)
(0.00722972 0.00377377 5.96456e-20)
(0.0139317 0.00253818 2.84074e-20)
(0.0216942 0.00244081 1.58714e-19)
(-0.00181111 0.00525369 -1.63521e-21)
(-0.00480362 0.0125166 -8.18443e-20)
(-0.0075206 0.0172448 5.69168e-20)
(-0.00961113 0.019891 -2.92581e-20)
(-0.0108832 0.0208214 1.1112e-19)
(-0.0111969 0.0203684 -5.87386e-20)
(-0.0104341 0.0188401 -5.87481e-20)
(-0.00850784 0.0165239 5.07104e-20)
(-0.00536293 0.0136953 1.38615e-20)
(-0.000978065 0.0106259 -2.51938e-19)
(0.00463103 0.0075917 -1.94212e-20)
(0.0113922 0.00487617 3.67899e-20)
(0.0191233 0.00274727 1.11966e-19)
(0.0278081 0.00150233 -1.0736e-19)
(0.037722 0.00164891 4.48007e-21)
(-0.00204645 0.00549682 -8.62584e-20)
(-0.0052086 0.0130329 4.57716e-20)
(-0.00774641 0.017889 -1.20401e-19)
(-0.00937503 0.0205376 2.41712e-20)
(-0.00993452 0.021368 -4.79306e-20)
(-0.00930925 0.0207342 -3.00878e-20)
(-0.00740366 0.0189639 -1.57925e-19)
(-0.00414882 0.0163631 8.56249e-20)
(0.000496166 0.0132256 -6.50073e-20)
(0.00654123 0.00984389 4.8358e-20)
(0.0139615 0.00651975 -5.06542e-20)
(0.0226732 0.00356987 -1.10602e-19)
(0.0324666 0.00130169 -1.07284e-19)
(0.0433319 8.40341e-05 9.77501e-20)
(0.0556122 0.000557129 2.32135e-20)
(-0.00226994 0.0056594 1.33758e-19)
(-0.00556107 0.0133398 4.12891e-20)
(-0.00785761 0.0182267 2.20706e-21)
(-0.00894398 0.0208064 3.05463e-20)
(-0.00869415 0.0214872 1.02428e-19)
(-0.0070186 0.0206418 -1.14203e-19)
(-0.00384564 0.0186138 1.80026e-19)
(0.000874077 0.0157241 -5.76644e-20)
(0.007166 0.0122819 -1.82352e-20)
(0.015028 0.00859681 5.89167e-20)
(0.0244259 0.00499404 -2.18737e-20)
(0.0352647 0.00182298 8.10331e-20)
(0.0473059 -0.000567121 -8.09445e-21)
(0.0605449 -0.00172288 1.99073e-20)
(0.0754014 -0.000837194 2.05876e-19)
(-0.00247273 0.00573871 -1.15141e-19)
(-0.0058371 0.0134298 -2.29533e-20)
(-0.0078179 0.0182475 5.78693e-20)
(-0.00827172 0.0206855 -1.25157e-19)
(-0.00710789 0.0211673 -3.17287e-20)
(-0.00426457 0.0200809 1.85083e-20)
(0.000304526 0.0177822 -1.51331e-19)
(0.00662778 0.0146036 -4.02484e-20)
(0.014714 0.0108656 -1.94197e-20)
(0.0245482 0.00689102 9.67073e-20)
(0.0360869 0.0030248 3.4224e-20)
(0.0492245 -0.000352703 -1.8378e-19)
(0.0636936 -0.00284906 -7.06478e-20)
(0.0794943 -0.0039122 9.0978e-20)
(0.09713 -0.00252679 -1.7792e-19)
(-0.00264558 0.00573293 7.88784e-20)
(-0.00601153 0.0132983 1.22952e-19)
(-0.00758887 0.0179453 -3.59175e-20)
(-0.00730886 0.0201684 1.00829e-19)
(-0.00511765 0.0204029 -2.77319e-20)
(-0.000982205 0.0190487 -2.30838e-19)
(0.0051168 0.0164707 1.62265e-19)
(0.0131853 0.0130087 2.42623e-19)
(0.0232143 0.00899007 5.70025e-20)
(0.0351748 0.00474656 -2.43062e-19)
(0.0490139 0.000637761 -9.67724e-20)
(0.0646167 -0.00292864 -1.42909e-19)
(0.0816878 -0.00551756 2.7848e-19)
(0.100234 -0.00646363 -2.34546e-19)
(0.120854 -0.0044928 2.46434e-19)
(-0.00277887 0.00564102 -5.73689e-20)
(-0.00605806 0.0129428 -6.46271e-20)
(-0.0071303 0.0173175 8.67577e-21)
(-0.0060035 0.0192536 -7.28026e-20)
(-0.00266188 0.019195 6.41112e-20)
(0.0028976 0.0175502 -1.5484e-20)
(0.010666 0.0146894 -7.36485e-20)
(0.0206254 0.0109563 -8.73841e-20)
(0.0327472 0.00668075 -1.49132e-19)
(0.0469874 0.00219778 -8.43829e-20)
(0.0632831 -0.00212458 2.82775e-20)
(0.0815113 -0.00585749 -1.2853e-19)
(0.101351 -0.00852699 -4.30047e-20)
(0.122819 -0.00934139 -1.86781e-19)
(0.146626 -0.00671099 -8.23583e-20)
(-0.00286261 0.00546276 -7.96754e-20)
(-0.00594939 0.0123633 -1.15344e-19)
(-0.00640031 0.0163652 -1.2161e-19)
(-0.00430154 0.0179447 5.84051e-20)
(0.000323637 0.0175508 3.04847e-19)
(0.00744731 0.0155974 -2.95115e-21)
(0.0170311 0.012457 1.00791e-19)
(0.0290315 0.00847336 1.25623e-19)
(0.0433987 0.00397473 -1.81562e-19)
(0.0600718 -0.000706713 6.37607e-20)
(0.0789766 -0.0052022 2.22257e-19)
(0.0999837 -0.00907107 1.62766e-19)
(0.12275 -0.0118092 -2.62185e-20)
(0.147309 -0.0124896 -5.02452e-20)
(0.174506 -0.00914211 -6.69593e-21)
(-0.00288655 0.00519865 6.57247e-20)
(-0.00565751 0.011562 1.90632e-20)
(-0.00535584 0.0150934 1.66352e-19)
(-0.00214731 0.0162503 -1.78926e-19)
(0.00390512 0.0154834 -1.63426e-19)
(0.0127418 0.0132094 -1.50739e-20)
(0.0242938 0.00980005 1.20431e-19)
(0.0384907 0.00559605 9.73028e-20)
(0.0552591 0.000919953 4.42587e-19)
(0.0745188 -0.0039047 2.43892e-19)
(0.0961825 -0.00851751 1.81297e-19)
(0.120114 -0.0124788 1.18905e-19)
(0.145952 -0.01527 -1.74818e-19)
(0.173762 -0.0158278 2.01789e-19)
(0.204552 -0.011732 -1.39122e-19)
(-0.00284018 0.00484996 -9.5951e-20)
(-0.0051538 0.0105434 1.15015e-19)
(-0.00395311 0.0135106 3.62956e-20)
(0.00051575 0.0141839 8.02247e-20)
(0.00814975 0.0130119 2.64691e-19)
(0.0188571 0.0104119 1.90148e-20)
(0.0325374 0.00675225 1.02078e-19)
(0.049092 0.00236831 -1.44737e-19)
(0.0684217 -0.00242638 -4.15382e-19)
(0.0904234 -0.0073222 -1.61884e-20)
(0.114993 -0.0119766 -7.3025e-20)
(0.141987 -0.0159672 -3.48104e-19)
(0.17103 -0.0187854 2.08346e-19)
(0.202232 -0.0192445 -1.54919e-19)
(0.236818 -0.0144074 3.23135e-19)
(-0.00271277 0.00441871 1.41303e-19)
(-0.00440938 0.00931427 -5.20241e-20)
(-0.00214814 0.0116293 -1.62557e-19)
(0.00374416 0.0117635 8.88686e-20)
(0.0131244 0.0101609 -1.94226e-19)
(0.0258686 0.00723636 -1.25738e-19)
(0.0418446 0.0033535 -9.5152e-20)
(0.0609241 -0.00115965 -4.2496e-20)
(0.0829798 -0.00600037 2.45971e-19)
(0.107882 -0.0108767 2.98958e-20)
(0.135505 -0.0154726 -2.12075e-19)
(0.165693 -0.019401 2.26023e-20)
(0.198058 -0.022198 6.56495e-20)
(0.232774 -0.0225881 7.68087e-20)
(0.271354 -0.0170674 -1.42784e-19)
(-0.00249354 0.00390778 -1.15242e-19)
(-0.00339542 0.00788389 -9.87797e-20)
(0.000102583 0.00946539 1.34026e-19)
(0.00759344 0.00901211 -2.1953e-19)
(0.0188944 0.00696002 2.3921e-19)
(0.0338496 0.00371995 1.54496e-20)
(0.0522952 -0.000351286 8.56488e-20)
(0.0740725 -0.00493337 8.39171e-22)
(0.0990244 -0.00973469 -1.19896e-19)
(0.126991 -0.0144821 1.06988e-19)
(0.157817 -0.0188914 4.95538e-20)
(0.191326 -0.0226283 1.1144e-19)
(0.227117 -0.0253163 1.5337e-19)
(0.265442 -0.0256552 -1.54435e-19)
(0.3082 -0.01957 6.65279e-20)
(-0.00217172 0.00332097 1.25821e-19)
(-0.00208358 0.00626411 1.17357e-20)
(0.00284135 0.00703882 8.01999e-21)
(0.0121169 0.00595746 1.38345e-19)
(0.0255217 0.00344454 -2.41355e-19)
(0.0428687 -9.52998e-05 -1.48292e-19)
(0.0639629 -0.00431312 2.27566e-19)
(0.0886156 -0.00889623 -3.00754e-19)
(0.116639 -0.0135625 6.1646e-20)
(0.147838 -0.0180551 -2.23322e-19)
(0.182023 -0.0221215 -2.01823e-19)
(0.218986 -0.0254911 -1.16993e-19)
(0.258301 -0.0279202 2.59432e-19)
(0.300306 -0.028185 4.68416e-20)
(0.347401 -0.0217192 -1.69956e-19)
(-0.00173676 0.00266307 4.11194e-20)
(-0.00044643 0.00446951 -2.52111e-19)
(0.00610846 0.00437355 8.83242e-20)
(0.0173646 0.00263218 1.24261e-19)
(0.0330632 -0.000345203 2.99151e-20)
(0.0529873 -0.0041624 2.07657e-19)
(0.0769122 -0.00847959 -1.27723e-19)
(0.10462 -0.0129912 2.08863e-19)
(0.135893 -0.0174215 9.25819e-20)
(0.170501 -0.0215235 2.94779e-20)
(0.208213 -0.0250672 3.40078e-19)
(0.248776 -0.0278435 6.72248e-21)
(0.291722 -0.0297759 -7.61604e-20)
(0.33746 -0.0298459 3.12122e-19)
(0.389025 -0.0232094 -3.00019e-19)
(-0.00117851 0.00194 7.56877e-20)
(0.00154198 0.00251761 -1.03241e-19)
(0.00994136 0.00149786 -7.61639e-20)
(0.023382 -0.000925864 -2.62615e-19)
(0.0415692 -0.00436326 -1.51022e-19)
(0.0642577 -0.00842927 -9.13735e-20)
(0.0911949 -0.012795 -1.87204e-19)
(0.122136 -0.0171617 -2.32561e-19)
(0.156836 -0.0212568 1.64794e-20)
(0.195033 -0.0248337 1.35148e-19)
(0.236455 -0.0276661 6.39077e-20)
(0.280793 -0.0295803 -3.48115e-20)
(0.327507 -0.0306563 -2.72468e-21)
(0.377005 -0.0301554 -1.85473e-19)
(0.433052 -0.0233639 2.6678e-19)
(-0.000487407 0.0011589 6.66375e-20)
(0.00390565 0.000429006 -1.10803e-19)
(0.0143739 -0.00155553 1.05445e-19)
(0.0302087 -0.00467333 1.91288e-19)
(0.0510815 -0.00855764 1.04008e-20)
(0.0767203 -0.012838 -6.36442e-20)
(0.106846 -0.0171992 1.64053e-19)
(0.141192 -0.021351 1.10101e-19)
(0.179488 -0.0250223 -3.37542e-19)
(0.221453 -0.027958 -3.58437e-19)
(0.266787 -0.0299117 1.38151e-19)
(0.315132 -0.0306929 -7.83927e-20)
(0.365874 -0.0304116 4.06305e-20)
(0.419178 -0.0284278 -2.2456e-19)
(0.479189 -0.020788 1.48016e-19)
(0.000345304 0.000328117 2.78807e-19)
(0.00666616 -0.00177253 2.66991e-19)
(0.0194355 -0.00474921 7.32777e-20)
(0.0378781 -0.00856103 6.49645e-20)
(0.0616327 -0.0128697 1.24373e-19)
(0.0904019 -0.0173237 -1.06098e-20)
(0.123883 -0.021626 1.53453e-19)
(0.161787 -0.0254991 1.50651e-19)
(0.20383 -0.0286767 5.26759e-20)
(0.249724 -0.0308952 1.27924e-19)
(0.299172 -0.0318765 -4.67776e-20)
(0.351854 -0.0313593 1.61233e-19)
(0.407266 -0.0292359 -5.33658e-20)
(0.46528 -0.0245011 2.24965e-19)
(0.528817 -0.0149344 -3.39529e-19)
(0.00132742 -0.000542753 -7.13039e-20)
(0.00984228 -0.00406005 -3.30157e-19)
(0.0251509 -0.00804109 -1.93294e-20)
(0.0464159 -0.0125337 -1.12811e-19)
(0.0732448 -0.0172336 -9.54377e-21)
(0.105315 -0.0218132 -1.06436e-19)
(0.1423 -0.0259997 -6.55096e-20)
(0.183891 -0.0295363 -2.52361e-19)
(0.229792 -0.032172 1.86542e-19)
(0.27972 -0.0336501 2.31281e-19)
(0.33342 -0.0336872 -2.55821e-19)
(0.390715 -0.0319716 -3.07539e-20)
(0.451672 -0.0280698 -9.83209e-20)
(0.517309 -0.0206125 -2.1098e-19)
(0.592394 -0.0109824 4.27374e-19)
(0.00246566 -0.00144293 -1.50228e-19)
(0.0134497 -0.00640359 -1.9008e-19)
(0.0315397 -0.0113844 1.64128e-19)
(0.0558407 -0.0165301 2.09589e-19)
(0.0859298 -0.0215756 -1.84978e-19)
(0.121459 -0.0262235 -3.04427e-20)
(0.162074 -0.0302323 -7.63204e-20)
(0.207446 -0.0333757 -1.3489e-20)
(0.257261 -0.0354335 -2.10973e-20)
(0.311236 -0.0361846 -3.01975e-19)
(0.369145 -0.0353981 1.68298e-19)
(0.430911 -0.0328474 -2.04565e-19)
(0.496934 -0.0282182 3.00692e-20)
(0.568494 -0.021206 3.37066e-19)
(0.647412 -0.0169509 -2.72183e-19)
(0.00376553 -0.00236057 -1.43834e-21)
(0.0175007 -0.00877032 9.64776e-20)
(0.0386159 -0.0147282 -2.81167e-19)
(0.0661632 -0.020483 -2.77409e-19)
(0.0996893 -0.0258147 2.46853e-19)
(0.138818 -0.0304618 4.74391e-20)
(0.183166 -0.0342217 1.0021e-19)
(0.232373 -0.0369081 1.49246e-19)
(0.286099 -0.0383471 -2.1159e-19)
(0.344036 -0.0383772 -3.33452e-19)
(0.405941 -0.0368611 2.25979e-19)
(0.471718 -0.0337305 3.96208e-19)
(0.541729 -0.0289346 -2.084e-19)
(0.616812 -0.0229928 6.29933e-20)
(0.695934 -0.0220704 -3.42254e-19)
(0.00523136 -0.00328293 1.36699e-19)
(0.0220043 -0.011125 6.94153e-20)
(0.0463882 -0.0180174 5.01091e-19)
(0.0773869 -0.0243201 1.17828e-19)
(0.114516 -0.0298632 -3.14788e-19)
(0.157368 -0.0344267 2.53001e-19)
(0.205525 -0.0378535 1.668e-19)
(0.258586 -0.040006 6.85032e-20)
(0.316167 -0.0407663 3.69834e-19)
(0.37791 -0.0400461 3.6307e-19)
(0.443501 -0.0378128 -1.58011e-19)
(0.51273 -0.0341525 -7.15337e-20)
(0.585717 -0.0292187 2.72194e-19)
(0.662684 -0.0238872 -1.11907e-20)
(0.740979 -0.0242021 4.2639e-19)
(0.0068663 -0.00419653 -7.5379e-20)
(0.0269661 -0.0134306 4.45336e-20)
(0.0548601 -0.0211944 -1.32259e-20)
(0.089508 -0.0279652 -2.65943e-19)
(0.130393 -0.0336284 6.32893e-20)
(0.177074 -0.0380105 6.1449e-22)
(0.229089 -0.0410055 -1.839e-19)
(0.28599 -0.0425303 -3.35363e-19)
(0.347332 -0.0425293 -1.89057e-19)
(0.412679 -0.0409907 2.25082e-19)
(0.481615 -0.0379807 -2.63138e-19)
(0.553761 -0.0337081 -1.06466e-19)
(0.628943 -0.0284528 7.21606e-21)
(0.706851 -0.0232006 5.89804e-20)
(0.78414 -0.0235893 2.40943e-19)
(0.00867234 -0.00508742 -1.2383e-19)
(0.0323883 -0.0156484 -3.97769e-19)
(0.0640294 -0.0241992 -7.14621e-20)
(0.102516 -0.0313395 3.31157e-19)
(0.147297 -0.0370147 3.1523e-19)
(0.197892 -0.0411024 -1.88564e-19)
(0.253793 -0.0435522 1.32695e-19)
(0.31449 -0.0443396 1.78801e-19)
(0.379467 -0.0434742 2.54911e-19)
(0.448193 -0.0410187 -4.19917e-19)
(0.520126 -0.0371262 8.67898e-20)
(0.594708 -0.0320964 -1.85496e-19)
(0.671484 -0.0262792 -1.32772e-19)
(0.749751 -0.0206601 -3.89868e-19)
(0.825941 -0.0204229 -6.93304e-19)
(0.0106503 -0.00594126 9.28814e-20)
(0.0382698 -0.017739 4.64592e-19)
(0.0738885 -0.0269703 -7.72409e-20)
(0.116391 -0.0343627 -3.21684e-19)
(0.165193 -0.0399255 -1.68933e-19)
(0.219769 -0.0435913 -5.17748e-20)
(0.279559 -0.0453694 -7.13406e-21)
(0.343984 -0.0452969 -4.71856e-20)
(0.412446 -0.0434491 -3.28681e-19)
(0.484309 -0.0399602 -1.01084e-19)
(0.558898 -0.0350578 2.23441e-19)
(0.635481 -0.0291084 -7.39648e-20)
(0.713362 -0.022498 1.57918e-19)
(0.791562 -0.0161704 4.73131e-20)
(0.866528 -0.0148793 7.04415e-19)
(0.0127999 -0.0067435 7.16972e-20)
(0.0446058 -0.0196624 -2.81046e-19)
(0.0844245 -0.0294463 -8.93103e-20)
(0.131109 -0.0369547 2.55392e-19)
(0.184039 -0.0422651 -1.17927e-19)
(0.242644 -0.045369 2.48858e-19)
(0.306302 -0.0463385 6.167e-20)
(0.374364 -0.0452747 1.03493e-21)
(0.44614 -0.042319 3.62643e-19)
(0.520887 -0.037674 -1.09786e-19)
(0.597795 -0.0316328 3.06067e-19)
(0.675977 -0.0246124 2.34333e-19)
(0.754539 -0.0170202 -1.08755e-19)
(0.832311 -0.00975102 -8.11575e-20)
(0.905881 -0.0071677 -1.75016e-19)
(0.0151197 -0.00747954 2.82494e-20)
(0.0513883 -0.0213785 2.07267e-19)
(0.0956183 -0.0315658 7.19504e-20)
(0.146637 -0.0390367 -2.61907e-19)
(0.203785 -0.0439409 3.18794e-19)
(0.266443 -0.0463323 -3.71142e-20)
(0.333928 -0.046349 -1.12462e-19)
(0.405512 -0.0441586 2.23312e-19)
(0.480413 -0.0399695 -2.76124e-19)
(0.557777 -0.03405 -5.40209e-20)
(0.636672 -0.0267534 -1.39181e-19)
(0.716069 -0.0185391 -2.74876e-19)
(0.794921 -0.00983197 4.83027e-20)
(0.871933 -0.00148553 -2.00397e-20)
(0.943891 0.00249605 1.06242e-19)
(0.0176071 -0.00813476 8.31603e-21)
(0.0586053 -0.0228477 1.05711e-19)
(0.107445 -0.0332687 -1.5382e-19)
(0.162932 -0.0405325 4.25069e-20)
(0.224369 -0.0448645 -2.43968e-19)
(0.291085 -0.0463849 -2.95723e-19)
(0.362331 -0.0453012 -6.20217e-20)
(0.4373 -0.0418499 -1.78369e-19)
(0.515115 -0.0363074 -6.7771e-20)
(0.594819 -0.0290076 -2.66911e-20)
(0.675364 -0.0203611 2.29386e-19)
(0.755607 -0.0108668 -1.47156e-19)
(0.834377 -0.000969044 -3.01749e-20)
(0.910303 0.00850872 -7.99499e-20)
(0.980405 0.0138983 8.76359e-20)
(0.119874 -0.0344967 4.41319e-20)
(0.179945 -0.0413691 -1.39374e-20)
(0.24572 -0.0449532 -5.11017e-20)
(0.316475 -0.0454391 3.2343e-20)
(0.391393 -0.0431074 6.19978e-20)
(0.469587 -0.0382661 3.08808e-20)
(0.550089 -0.0312618 1.42358e-19)
(0.631842 -0.0224944 4.69891e-20)
(0.713698 -0.0124313 -1.78522e-20)
(0.794418 -0.0016105 9.35247e-20)
(0.872745 0.00949962 1.44651e-19)
(0.947269 0.0200957 -5.22378e-20)
(1.01526 0.02683 2.4029e-21)
(0.197618 -0.0414779 1.27404e-19)
(0.267758 -0.0441309 7.17881e-20)
(0.342508 -0.0434169 1.08718e-19)
(0.420985 -0.039693 1.07414e-19)
(0.502222 -0.0333421 8.67081e-20)
(0.585164 -0.024783 1.18014e-19)
(0.668663 -0.0144831 1.62369e-19)
(0.751485 -0.00296708 2.03629e-20)
(0.832319 0.00918666 5.63629e-21)
(0.909851 0.0214821 -2.85025e-19)
(0.982665 0.0331289 -1.01656e-20)
(1.04828 0.0410881 5.15258e-21)
(0.36907 -0.0402508 -3.42806e-20)
(0.450968 -0.0349972 -1.1837e-20)
(0.535044 -0.0270296 7.03132e-20)
(0.620161 -0.0168416 -2.88843e-19)
(0.705092 -0.00496945 -1.782e-21)
(0.788532 0.00800395 2.60879e-19)
(0.869121 0.0214593 8.68995e-20)
(0.945517 0.0348701 8.84901e-20)
(1.01633 0.047456 8.56358e-20)
(1.07934 0.0564771 1.37441e-20)
(0.567881 -0.0192976 -1.10236e-19)
(0.654893 -0.00742768 1.27665e-19)
(0.740932 0.00602994 6.56097e-20)
(0.824642 0.020434 -1.46375e-20)
(0.904635 0.0351244 9.41343e-20)
(0.979568 0.0495441 1.5579e-20)
(1.0481 0.0629226 -1.10346e-19)
(1.10828 0.0728103 -1.38053e-19)
(0.775986 0.0184798 -2.65204e-19)
(0.859618 0.0342577 -1.6812e-19)
(0.938675 0.0500849 -1.35675e-19)
(1.01184 0.0653762 2.08454e-19)
(1.07785 0.0793742 -1.594e-19)
(1.13501 0.0899109 1.15128e-19)
(0.97107 0.0662327 -1.61991e-19)
(1.04218 0.0822334 7.0412e-20)
(1.10546 0.0966584 5.68834e-20)
(1.15944 0.107612 -2.6571e-20)
(1.13082 0.114626 4.47548e-20)
(1.18151 0.125759 -1.47072e-11)
(1.13082 -0.114626 -1.27235e-19)
(1.18151 -0.125759 4.42267e-20)
(0.893273 -0.0493944 8.72041e-20)
(0.97107 -0.0662326 -1.33339e-19)
(1.04218 -0.0822333 -1.52653e-19)
(1.10546 -0.0966583 1.21188e-19)
(1.15944 -0.107612 -4.80552e-21)
(0.68917 -0.00345025 -1.14598e-19)
(0.775987 -0.0184796 8.78852e-20)
(0.859619 -0.0342576 -2.35308e-19)
(0.938676 -0.0500849 -1.40132e-19)
(1.01184 -0.0653762 3.11913e-21)
(1.07785 -0.0793742 5.70415e-21)
(1.13501 -0.0899109 -1.84367e-20)
(0.567882 0.0192979 -1.53948e-19)
(0.654894 0.00742792 1.96401e-19)
(0.740933 -0.0060298 8.64098e-20)
(0.824642 -0.0204339 -1.95552e-19)
(0.904635 -0.0351244 2.45353e-19)
(0.979568 -0.0495441 8.72418e-21)
(1.0481 -0.0629226 -2.36799e-20)
(1.10828 -0.0728103 -2.27881e-19)
(0.36907 0.040251 7.18979e-21)
(0.450968 0.0349975 -2.08345e-19)
(0.535044 0.0270299 1.44308e-19)
(0.620162 0.0168418 -1.49665e-19)
(0.705092 0.00496953 -1.21253e-19)
(0.788532 -0.00800395 2.53744e-19)
(0.869121 -0.0214593 1.49565e-19)
(0.945517 -0.0348701 8.11836e-20)
(1.01633 -0.047456 1.24455e-19)
(1.07934 -0.0564771 8.71659e-20)
(0.197619 0.0414781 2.12937e-19)
(0.267759 0.0441311 2.24066e-19)
(0.342509 0.0434172 1.99625e-19)
(0.420986 0.0396933 8.42998e-20)
(0.502223 0.0333423 5.99514e-20)
(0.585165 0.0247831 1.01954e-19)
(0.668664 0.0144831 2.97735e-19)
(0.751486 0.00296709 -1.79084e-19)
(0.832319 -0.00918666 3.47397e-20)
(0.909851 -0.0214821 -1.96127e-19)
(0.982665 -0.0331289 3.79963e-20)
(1.04829 -0.0410881 -6.44186e-20)
(0.119874 0.0344968 -2.10515e-19)
(0.179945 0.0413693 -2.54338e-19)
(0.245721 0.0449534 1.3273e-19)
(0.316475 0.0454394 -8.70458e-20)
(0.391394 0.0431076 -4.54833e-21)
(0.469588 0.0382663 1.91556e-20)
(0.55009 0.0312619 9.97312e-20)
(0.631843 0.0224944 1.7982e-19)
(0.713698 0.0124313 1.1031e-19)
(0.794418 0.00161049 1.204e-20)
(0.872745 -0.00949963 1.73408e-19)
(0.947269 -0.0200957 9.68165e-20)
(1.01526 -0.02683 -1.22294e-19)
(0.0176071 0.00813479 -4.52745e-20)
(0.0586054 0.0228478 -1.05749e-19)
(0.107445 0.0332688 4.25193e-20)
(0.162932 0.0405327 1.53514e-19)
(0.224369 0.0448647 -2.86113e-19)
(0.291086 0.0463851 -3.05736e-19)
(0.362332 0.0453014 -1.27229e-19)
(0.437301 0.04185 -1.54121e-19)
(0.515116 0.0363075 -1.19467e-19)
(0.59482 0.0290077 -7.93553e-20)
(0.675365 0.0203611 1.74295e-19)
(0.755607 0.0108668 -5.64219e-20)
(0.834377 0.000969028 -9.35269e-20)
(0.910303 -0.00850874 5.72676e-20)
(0.980405 -0.0138984 1.08712e-19)
(0.0151198 0.00747958 3.1101e-20)
(0.0513884 0.0213786 9.87791e-20)
(0.0956185 0.0315659 1.47769e-19)
(0.146637 0.0390369 -2.28776e-19)
(0.203785 0.0439411 9.80961e-20)
(0.266444 0.0463325 3.2546e-19)
(0.333929 0.0463492 -1.46989e-19)
(0.405513 0.0441587 -2.56084e-20)
(0.480413 0.0399695 -2.46635e-20)
(0.557777 0.03405 9.75608e-20)
(0.636672 0.0267534 -2.14634e-19)
(0.71607 0.0185391 -5.42089e-19)
(0.794922 0.00983195 1.99735e-19)
(0.871933 0.00148551 6.18929e-22)
(0.943891 -0.00249607 -5.06148e-20)
(0.0128 0.00674354 6.53126e-20)
(0.044606 0.0196625 -3.37513e-19)
(0.0844247 0.0294464 -4.34623e-20)
(0.13111 0.0369549 2.39147e-19)
(0.18404 0.0422653 -5.67803e-21)
(0.242644 0.0453692 1.77101e-19)
(0.306303 0.0463387 1.62278e-19)
(0.374365 0.0452748 -9.41115e-20)
(0.446141 0.0423191 3.21473e-19)
(0.520887 0.037674 -1.35999e-19)
(0.597796 0.0316328 2.30371e-19)
(0.675977 0.0246124 5.34189e-19)
(0.754539 0.0170202 -4.86179e-19)
(0.832312 0.00975099 2.90777e-19)
(0.905882 0.00716767 -1.62703e-19)
(0.0106504 0.00594129 1.69671e-19)
(0.03827 0.0177391 3.11032e-19)
(0.0738888 0.0269705 8.35558e-20)
(0.116392 0.0343628 -3.28251e-19)
(0.165193 0.0399257 -2.9162e-19)
(0.21977 0.0435915 4.7162e-20)
(0.279559 0.0453696 -7.39402e-20)
(0.343985 0.045297 -3.62914e-20)
(0.412447 0.0434491 -5.27539e-19)
(0.48431 0.0399602 1.15968e-19)
(0.558898 0.0350578 9.48271e-20)
(0.635481 0.0291083 -2.72254e-20)
(0.713362 0.022498 1.73563e-19)
(0.791562 0.0161704 2.5718e-19)
(0.866529 0.0148793 4.93563e-19)
(0.00867239 0.00508746 -9.35582e-20)
(0.0323885 0.0156485 -4.89879e-19)
(0.0640296 0.0241993 1.88261e-19)
(0.102516 0.0313396 2.58205e-19)
(0.147297 0.0370149 2.4056e-19)
(0.197892 0.0411026 -2.15092e-19)
(0.253793 0.0435523 -4.54199e-21)
(0.314491 0.0443397 3.46312e-19)
(0.379467 0.0434742 -2.50757e-20)
(0.448193 0.0410187 3.32132e-20)
(0.520126 0.0371262 -1.97101e-19)
(0.594708 0.0320964 -1.22212e-19)
(0.671484 0.0262791 -2.92979e-19)
(0.749751 0.0206601 -3.99667e-19)
(0.825942 0.0204228 -4.10899e-19)
(0.00686635 0.00419657 -9.39888e-20)
(0.0269662 0.0134307 2.28986e-19)
(0.0548603 0.0211946 -2.36076e-19)
(0.0895083 0.0279653 -1.59426e-19)
(0.130394 0.0336286 -3.30646e-20)
(0.177074 0.0380107 -2.4715e-20)
(0.22909 0.0410056 -1.60311e-19)
(0.285991 0.0425304 -3.49699e-19)
(0.347333 0.0425294 9.04443e-20)
(0.41268 0.0409908 -5.45946e-20)
(0.481615 0.0379807 -1.99317e-19)
(0.553762 0.033708 1.28914e-19)
(0.628944 0.0284527 -3.90317e-20)
(0.706852 0.0232005 -5.09133e-20)
(0.78414 0.0235893 9.2839e-20)
(0.00523141 0.00328296 -4.8027e-20)
(0.0220044 0.0111251 2.84216e-19)
(0.0463884 0.0180176 2.38003e-19)
(0.0773872 0.0243202 1.83945e-19)
(0.114516 0.0298634 -3.27992e-20)
(0.157368 0.0344268 5.5946e-20)
(0.205525 0.0378536 5.02382e-20)
(0.258586 0.040006 2.80088e-19)
(0.316168 0.0407664 3.72786e-19)
(0.37791 0.0400462 1.17916e-19)
(0.443501 0.0378128 5.22505e-20)
(0.512731 0.0341524 -1.34554e-19)
(0.585718 0.0292187 4.50248e-19)
(0.662684 0.0238871 -5.73762e-21)
(0.740979 0.0242021 3.61963e-19)
(0.00376557 0.00236061 2.30132e-20)
(0.0175008 0.00877041 -8.78515e-21)
(0.038616 0.0147283 -3.60663e-19)
(0.0661634 0.0204831 -1.36483e-19)
(0.0996896 0.0258149 2.60222e-19)
(0.138818 0.0304619 9.30715e-20)
(0.183167 0.0342218 1.07256e-19)
(0.232374 0.0369082 2.44711e-19)
(0.2861 0.0383472 -4.87517e-19)
(0.344037 0.0383772 6.93719e-21)
(0.405941 0.0368611 -6.64661e-20)
(0.471718 0.0337305 2.93117e-19)
(0.54173 0.0289346 -2.38455e-19)
(0.616813 0.0229927 2.03526e-19)
(0.695934 0.0220704 -3.18695e-19)
(0.0024657 0.00144297 -1.79766e-19)
(0.0134498 0.00640367 1.12407e-19)
(0.0315398 0.0113845 2.13038e-19)
(0.0558409 0.0165302 -9.68328e-20)
(0.0859301 0.0215758 -1.09643e-19)
(0.121459 0.0262236 1.5625e-19)
(0.162075 0.0302324 -8.64106e-20)
(0.207446 0.0333757 -2.00088e-19)
(0.257261 0.0354335 -1.14414e-19)
(0.311236 0.0361846 -6.24103e-20)
(0.369145 0.0353981 -4.45363e-21)
(0.430912 0.0328474 -4.65483e-20)
(0.496935 0.0282181 -4.01112e-20)
(0.568495 0.0212059 1.28389e-19)
(0.647413 0.0169508 -2.87723e-19)
(0.00132746 0.000542784 -6.98809e-20)
(0.00984238 0.00406013 -1.59902e-19)
(0.0251511 0.0080412 -2.88562e-19)
(0.0464161 0.0125339 1.3921e-19)
(0.0732451 0.0172337 -2.22536e-19)
(0.105316 0.0218133 -8.26047e-20)
(0.1423 0.0259998 -6.83573e-20)
(0.183891 0.0295364 -1.51931e-19)
(0.229792 0.032172 2.51935e-19)
(0.279721 0.0336501 1.67071e-20)
(0.333421 0.0336871 4.86149e-20)
(0.390715 0.0319715 -2.91224e-19)
(0.451672 0.0280698 5.78664e-20)
(0.517309 0.0206124 -2.3499e-19)
(0.592394 0.0109823 3.59891e-19)
(0.000345334 -0.000328089 3.82867e-19)
(0.00666625 0.0017726 1.04417e-19)
(0.0194356 0.00474931 2.29616e-19)
(0.0378783 0.00856114 -8.82503e-20)
(0.0616329 0.0128698 1.07023e-19)
(0.0904022 0.0173238 1.91966e-19)
(0.123883 0.021626 -2.21878e-20)
(0.161787 0.0254992 2.49905e-19)
(0.20383 0.0286768 1.17355e-19)
(0.249724 0.0308952 1.96973e-19)
(0.299173 0.0318764 -2.77538e-19)
(0.351854 0.0313592 1.54776e-19)
(0.407267 0.0292358 9.93017e-20)
(0.46528 0.024501 1.98405e-19)
(0.528817 0.0149343 -4.01842e-19)
(-0.00048738 -0.00115887 -1.65056e-19)
(0.00390573 -0.000428939 1.76318e-19)
(0.014374 0.00155562 -5.28621e-20)
(0.0302089 0.00467343 9.80215e-20)
(0.0510817 0.00855774 1.75677e-19)
(0.0767205 0.0128381 2.5878e-20)
(0.106847 0.0171992 -1.26619e-20)
(0.141192 0.0213511 9.10953e-20)
(0.179489 0.0250223 -1.30988e-19)
(0.221454 0.027958 -4.11234e-19)
(0.266787 0.0299116 2.30913e-19)
(0.315133 0.0306928 -1.74266e-19)
(0.365875 0.0304115 -2.70159e-20)
(0.419178 0.0284277 -2.11206e-19)
(0.479189 0.0207879 3.27234e-19)
(-0.00117849 -0.00193998 -9.99151e-20)
(0.00154205 -0.00251755 1.50407e-20)
(0.00994147 -0.00149778 -1.50021e-19)
(0.0233821 0.00092595 -1.32218e-19)
(0.0415693 0.00436334 -2.3049e-19)
(0.0642579 0.00842933 -4.69036e-20)
(0.0911951 0.012795 -9.61005e-20)
(0.122137 0.0171617 -1.42183e-19)
(0.156836 0.0212568 4.93549e-20)
(0.195034 0.0248337 1.75853e-19)
(0.236456 0.027666 -2.12782e-19)
(0.280793 0.0295803 -1.31059e-19)
(0.327508 0.0306562 -2.73989e-20)
(0.377005 0.0301553 -5.34273e-20)
(0.433053 0.0233638 2.86222e-19)
(-0.00173674 -0.00266305 -1.21447e-19)
(-0.000446371 -0.00446946 -6.22372e-20)
(0.00610856 -0.00437348 5.20021e-20)
(0.0173648 -0.00263211 -1.06062e-20)
(0.0330634 0.000345266 2.85687e-19)
(0.0529875 0.00416245 -5.81187e-20)
(0.0769124 0.00847962 -1.51945e-19)
(0.10462 0.0129912 9.48217e-20)
(0.135893 0.0174214 2.46786e-19)
(0.170501 0.0215235 2.14289e-19)