/*--------------------------------*- C++ -*----------------------------------*\
  =========                 |
  \\      /  F ield         | OpenFOAM: The Open Source CFD Toolbox
   \\    /   O peration     | Website:  https://openfoam.org
    \\  /    A nd           | Version:  7
     \\/     M anipulation  |
\*---------------------------------------------------------------------------*/
FoamFile
{
    version     2.0;
    format      ascii;
    class       surfaceScalarField;
    location    "15";
    object      phi;
}
// * * * * * * * * * * * * * * * * * * * * * * * * * * * * * * * * * * * * * //

dimensions      [0 3 -1 0 0 0 0];

internalField   nonuniform List<scalar> 
16735
(
-4.23618e-06
4.23618e-06
-8.57057e-13
-1.45135e-05
1.02774e-05
-3.89859e-12
-2.92459e-05
1.47324e-05
-7.63787e-12
-4.68893e-05
1.76433e-05
-1.16646e-11
-6.59868e-05
1.90976e-05
-1.53666e-11
-8.5246e-05
1.92592e-05
-1.83618e-11
-0.000103639
1.83933e-05
-2.04548e-11
-0.000120549
1.69093e-05
-2.12407e-11
-0.000135857
1.53084e-05
-2.17865e-11
1.42319e-05
-2.27817e-11
-0.000150089
-4.15926e-06
8.39544e-06
-1.42137e-05
2.03319e-05
-2.85644e-05
2.9083e-05
-4.56475e-05
3.47265e-05
-6.39788e-05
3.74289e-05
-8.22291e-05
3.75095e-05
-9.9325e-05
3.54892e-05
-0.000114597
3.21817e-05
-0.000127885
2.85957e-05
2.60109e-05
-0.000139664
-4.0066e-06
1.2402e-05
-1.3618e-05
2.99433e-05
-2.72093e-05
4.26744e-05
-4.31778e-05
5.06949e-05
-5.99845e-05
5.42357e-05
-7.62273e-05
5.37523e-05
-9.07412e-05
5.00031e-05
-0.000102755
4.41952e-05
-0.000112015
3.78557e-05
3.29007e-05
-0.000118904
-3.78044e-06
1.61825e-05
-1.27337e-05
3.88965e-05
-2.5196e-05
5.51367e-05
-3.95066e-05
6.50055e-05
-5.40457e-05
6.87748e-05
-6.73026e-05
6.70091e-05
-7.79756e-05
6.06762e-05
-8.51389e-05
5.13584e-05
-8.83984e-05
4.11152e-05
3.24879e-05
-8.79856e-05
-3.48391e-06
1.96664e-05
-1.15712e-05
4.69838e-05
-2.25461e-05
6.61116e-05
-3.46715e-05
7.7131e-05
-4.62217e-05
8.03249e-05
-5.55434e-05
7.63309e-05
-6.11537e-05
6.62864e-05
-6.19181e-05
5.21228e-05
-5.72801e-05
3.64772e-05
2.23649e-05
-4.7157e-05
-3.12072e-06
2.27871e-05
-1.01428e-05
5.40058e-05
-1.92853e-05
7.52541e-05
-2.87178e-05
8.65635e-05
-3.6585e-05
8.81921e-05
-4.1059e-05
8.08049e-05
-4.04313e-05
6.56587e-05
-3.32835e-05
4.4975e-05
-1.88683e-05
2.2062e-05
1.70304e-06
1.79355e-06
-2.69486e-06
2.5482e-05
-8.46194e-06
5.97729e-05
-1.54421e-05
8.22343e-05
-2.16954e-05
9.28168e-05
-2.52162e-05
9.17129e-05
-2.39719e-05
7.95606e-05
-1.59898e-05
5.76766e-05
4.20862e-07
2.85643e-05
2.66122e-05
-4.12933e-06
-3.41475e-05
6.24627e-05
-2.21024e-06
2.76922e-05
-6.54184e-06
6.41045e-05
-1.10447e-05
8.67372e-05
-1.36551e-05
9.54271e-05
-1.21988e-05
9.02566e-05
-4.41297e-06
7.17748e-05
1.19881e-05
4.12755e-05
3.91274e-05
1.42508e-06
7.85258e-05
-4.35278e-05
-8.619e-05
0.000130568
-1.67026e-06
2.93625e-05
-4.39443e-06
6.68287e-05
-6.1192e-06
8.8462e-05
-4.64431e-06
9.39522e-05
2.38741e-06
8.32248e-05
1.74881e-05
5.66741e-05
4.32855e-05
1.54781e-05
8.23338e-05
-3.76232e-05
0.000136661
-9.78554e-05
-0.000156479
0.000206951
-1.07762e-06
3.04401e-05
-2.02933e-06
6.77804e-05
-6.86991e-07
8.71196e-05
5.29618e-06
8.79691e-05
1.84717e-05
7.00493e-05
4.16145e-05
3.35314e-05
7.7715e-05
-2.06225e-05
0.000129821
-8.97294e-05
0.000200556
-0.00016859
-0.000246956
0.000291032
-4.34211e-07
3.08743e-05
5.46573e-07
6.67996e-05
5.23486e-06
8.24313e-05
1.61352e-05
7.70687e-05
3.5999e-05
5.01855e-05
6.78688e-05
1.6616e-06
0.000115109
-6.78625e-05
0.000181301
-0.000155921
0.000269767
-0.000257056
-0.000359412
0.000382223
2.60788e-07
3.06135e-05
3.32896e-06
6.37314e-05
1.16371e-05
7.41232e-05
2.78524e-05
6.08534e-05
5.49312e-05
2.31067e-05
9.61805e-05
-3.95877e-05
0.000155331
-0.000127013
0.000236514
-0.000237104
0.000343856
-0.000364398
-0.000495464
0.000479908
1.00521e-06
2.96083e-05
6.31754e-06
5.84191e-05
1.85144e-05
6.19263e-05
4.04369e-05
3.89309e-05
7.52481e-05
-1.17045e-05
0.000126509
-9.08486e-05
0.00019829
-0.000198794
0.000295252
-0.000334066
0.000422401
-0.000491546
-0.00065648
0.000583416
1.80168e-06
2.78066e-05
9.51186e-06
5.07089e-05
2.58645e-05
4.55737e-05
5.38832e-05
1.09122e-05
9.69418e-05
-5.47631e-05
0.000158841
-0.000152748
0.000243944
-0.000283897
0.000357375
-0.000447497
0.000505027
-0.000639199
-0.00084348
0.000692027
2.6506e-06
2.5156e-05
1.29114e-05
4.04482e-05
3.3683e-05
2.48021e-05
6.81841e-05
-2.35889e-05
0.000120007
-0.000106586
0.000193182
-0.000225923
0.000292304
-0.00038302
0.000422838
-0.00057803
0.000591455
-0.000807817
-0.00105701
0.000804985
3.55198e-06
2.1604e-05
1.65122e-05
2.7488e-05
4.19582e-05
-6.43923e-07
8.33193e-05
-6.495e-05
0.000144422
-0.000167689
0.000229527
-0.000311027
0.00034341
-0.000496903
0.000491706
-0.000726326
0.000681578
-0.000997689
-0.00129697
0.000921541
4.50422e-06
1.70998e-05
2.03044e-05
1.16878e-05
5.06643e-05
-3.10039e-05
9.92422e-05
-0.000113528
0.000170125
-0.000238572
0.000267827
-0.000408729
0.000397286
-0.000626362
0.000564142
-0.000893182
0.000775536
-0.00120908
-0.00156255
0.00104112
5.5034e-06
1.15964e-05
2.42693e-05
-7.07803e-06
5.97546e-05
-6.64892e-05
0.000115864
-0.000169637
0.000196981
-0.000319689
0.000307934
-0.000519681
0.000453887
-0.000772315
0.000640398
-0.00107969
0.000873744
-0.00144243
-0.0018526
0.0011638
6.54281e-06
5.05361e-06
2.83781e-05
-2.89133e-05
6.91567e-05
-0.000107268
0.000133042
-0.000233522
0.000224748
-0.000411395
0.000349519
-0.000644453
0.000513003
-0.000935799
0.000720996
-0.00128769
0.000977645
-0.00169908
-0.00216603
0.00129107
7.61307e-06
-2.55945e-06
3.2592e-05
-5.38922e-05
7.87717e-05
-0.000153448
0.000150566
-0.000305317
0.000253034
-0.000513863
0.000391935
-0.000783354
0.000573822
-0.00111769
0.000806183
-0.00152005
0.00109373
-0.00198663
-0.00249585
0.00142356
8.7032e-06
-1.12627e-05
3.68654e-05
-8.20544e-05
8.84812e-05
-0.000205063
0.000168178
-0.000385013
0.000281301
-0.000626987
0.000434074
-0.000936126
0.000634001
-0.00131761
0.000891135
-0.00177718
0.00122572
-0.00232122
-0.00298279
0.00171266
9.80164e-06
-2.10643e-05
4.11503e-05
-0.000113403
9.81603e-05
-0.000262073
0.000185598
-0.000472451
0.000308957
-0.000750345
0.000474609
-0.00110178
0.00069022
-0.00153322
0.000965825
-0.00205279
0.00131786
-0.00267325
-0.00343067
0.00176573
1.08985e-05
-3.19628e-05
4.54045e-05
-0.000147909
0.000107699
-0.000324368
0.000202593
-0.000567345
0.000335541
-0.000883293
0.000512687
-0.00127892
0.000740984
-0.00176152
0.00102831
-0.00234011
0.00138362
-0.00302856
-0.0038566
0.00180955
1.19862e-05
-4.3949e-05
4.95938e-05
-0.000185517
0.000117012
-0.000391786
0.00021899
-0.000669324
0.000360773
-0.00102508
0.000547967
-0.00146612
0.000786326
-0.00199988
0.0010811
-0.00263488
0.00143543
-0.00338289
-0.0042654
0.00184423
1.30595e-05
-5.70085e-05
5.36922e-05
-0.000226149
0.000126032
-0.000464126
0.000234672
-0.000777963
0.000384491
-0.00117489
0.000580362
-0.00166199
0.000826642
-0.00224616
0.0011261
-0.00293434
0.00147783
-0.00373461
-0.00466019
0.00187262
1.41146e-05
-7.11231e-05
5.76794e-05
-0.000269714
0.00013471
-0.000541156
0.000249548
-0.000892801
0.00040659
-0.00133194
0.000609845
-0.00186525
0.000862223
-0.00249854
0.00116431
-0.00323643
0.00151232
-0.00408263
-0.00504278
0.00189491
1.51484e-05
-8.62714e-05
6.15369e-05
-0.000316103
0.000142998
-0.000622617
0.000263538
-0.00101334
0.000426973
-0.00149537
0.00063636
-0.00207463
0.00089318
-0.00275536
0.00119611
-0.00353935
0.00153928
-0.0044258
-0.00541363
0.00191013
1.61571e-05
-0.000102429
6.52447e-05
-0.00036519
0.000150847
-0.000708219
0.000276557
-0.00113905
0.000445521
-0.00166434
0.000659788
-0.0022889
0.000919444
-0.00301501
0.00122148
-0.0038414
0.00155846
-0.00476278
-0.00577223
0.00191707
1.71357e-05
-0.000119564
6.87789e-05
-0.000416833
0.0001582
-0.00079764
0.000288502
-0.00126935
0.000462085
-0.00183792
0.000679944
-0.00250676
0.000940809
-0.00327588
0.00124018
-0.00414076
0.00156936
-0.00509196
-0.00611749
0.00191462
1.80774e-05
-0.000137642
7.21103e-05
-0.000470866
0.000164989
-0.000890519
0.000299251
-0.00140362
0.000476483
-0.00201515
0.000696591
-0.00272687
0.000956985
-0.00353627
0.00125182
-0.00443559
0.00157141
-0.00541155
-0.00644795
0.00190186
1.89734e-05
-0.000156615
7.52042e-05
-0.000527097
0.000171136
-0.000986451
0.000308669
-0.00154115
0.000488514
-0.002195
0.000709459
-0.00294781
0.000967644
-0.00379446
0.00125601
-0.00472396
0.00156413
-0.00571966
-0.00676199
0.00187816
1.98132e-05
-0.000176428
7.80208e-05
-0.000585305
0.000176553
-0.00108498
0.000316606
-0.0016812
0.000497961
-0.00237635
0.000718275
-0.00316812
0.00097247
-0.00404865
0.00125243
-0.00500393
0.00154717
-0.0060144
-0.00705798
0.00184316
2.05849e-05
-0.000197013
8.05164e-05
-0.000645236
0.000181148
-0.00118561
0.00032291
-0.00182297
0.000504611
-0.00255805
0.000722777
-0.00338629
0.000971188
-0.00429706
0.00124083
-0.00527356
0.00152035
-0.00629392
-0.00733439
0.00179676
2.12756e-05
-0.000218289
8.26455e-05
-0.000706606
0.000184827
-0.0012878
0.000327432
-0.00196557
0.000508263
-0.00273888
0.000722739
-0.00360077
0.000963589
-0.00453791
0.00122106
-0.00553103
0.00148367
-0.00655654
-0.00758986
0.00173915
2.18718e-05
-0.000240161
8.43617e-05
-0.000769096
0.000187498
-0.00139093
0.000330028
-0.0021081
0.00050874
-0.0029176
0.000717981
-0.00381001
0.000949545
-0.00476948
0.00119312
-0.00577461
0.00143731
-0.00680073
-0.00782326
0.0016707
2.236e-05
-0.000262521
8.56201e-05
-0.000832356
0.000189074
-0.00149439
0.000330575
-0.0022496
0.000505897
-0.00309292
0.000708382
-0.00401249
0.000929018
-0.00499011
0.00115713
-0.00600272
0.00138158
-0.00702518
-0.00803369
0.00159201
2.2727e-05
-0.000285247
8.63781e-05
-0.000896007
0.000189478
-0.00159749
0.000328966
-0.00238909
0.000499628
-0.00326358
0.000693882
-0.00420674
0.00090206
-0.00519829
0.00111331
-0.00621396
0.00131696
-0.00722883
-0.0082205
0.00150378
2.29605e-05
-0.000308208
8.65978e-05
-0.000959645
0.000188642
-0.00169953
0.00032512
-0.00252557
0.000489871
-0.00342833
0.00067449
-0.00439136
0.000868815
-0.00539262
0.00106201
-0.00640716
0.00124402
-0.00741085
-0.00838331
0.00140683
2.30494e-05
-0.000331257
8.62462e-05
-0.00102284
0.000186515
-0.0017998
0.000318984
-0.00265804
0.000476608
-0.00358596
0.000650279
-0.00456503
0.000829506
-0.00557184
0.00100365
-0.0065813
0.00116342
-0.00757062
-0.00852193
0.00130204
2.29838e-05
-0.000354241
8.52966e-05
-0.00108515
0.000183059
-0.00189756
0.000310533
-0.00278551
0.000459868
-0.00373529
0.000621385
-0.00472655
0.000784431
-0.00573489
0.000938731
-0.0067356
0.00107587
-0.00770776
-0.0086364
0.00119034
2.27582e-05
-0.000376999
8.37344e-05
-0.00114613
0.000178261
-0.00199209
0.000299782
-0.00290703
0.000439736
-0.00387525
0.000588012
-0.00487483
0.000733965
-0.00588084
0.000867831
-0.00686946
0.000982159
-0.00782209
-0.00872692
0.00107267
2.23618e-05
-0.000399361
8.15383e-05
-0.00120531
0.000172103
-0.00208265
0.000286747
-0.00302168
0.000416306
-0.0040048
0.000550384
-0.0050089
0.000678495
-0.00600895
0.000791517
-0.00698249
0.000883016
-0.00791359
-0.00879381
0.000949915
2.17929e-05
-0.000421154
7.87086e-05
-0.00126222
0.000164606
-0.00216855
0.000271502
-0.00312857
0.000389746
-0.00412305
0.0005088
-0.00512796
0.000618485
-0.00611864
0.000710424
-0.00707442
0.000779229
-0.00798239
-0.00883755
0.000822963
2.10494e-05
-0.000442203
7.5249e-05
-0.00131642
0.000155801
-0.0022491
0.000254136
-0.00322691
0.000360243
-0.00422916
0.000463587
-0.0052313
0.000554419
-0.00620947
0.000625185
-0.00714519
0.000671551
-0.00802876
-0.00885865
0.000692656
2.01316e-05
-0.000462335
7.11712e-05
-0.00136746
0.000145733
-0.00232366
0.000234764
-0.00331594
0.00032802
-0.00432241
0.000415101
-0.00531838
0.000486798
-0.00628117
0.000536434
-0.00719483
0.000560714
-0.00805304
-0.00885772
0.000559778
1.90418e-05
-0.000481377
6.64946e-05
-0.00141491
0.000134465
-0.00239163
0.000213524
-0.003395
0.000293323
-0.00440221
0.00036372
-0.00538878
0.000416135
-0.00633358
0.000444795
-0.00722349
0.000447417
-0.00805566
-0.00883535
0.000425054
1.77847e-05
-0.000499161
6.12458e-05
-0.00145838
0.000122072
-0.00245246
0.000190572
-0.0034635
0.00025642
-0.00446806
0.00030984
-0.0054422
0.000342946
-0.00636669
0.000350873
-0.00723141
0.000332314
-0.0080371
-0.0087922
0.000289155
1.6367e-05
-0.000515528
5.54583e-05
-0.00149747
0.000108641
-0.00250564
0.000166082
-0.00352094
0.000217593
-0.00451957
0.000253866
-0.00547847
0.00026775
-0.00638057
0.000255265
-0.00721893
0.000215979
-0.00799782
-0.00872893
0.000152712
1.47972e-05
-0.000530326
4.91717e-05
-0.00153184
9.42718e-05
-0.00255074
0.000140238
-0.0035669
0.000177139
-0.00455647
0.000196211
-0.00549754
0.000191068
-0.00637543
0.000158591
-0.00718645
9.89551e-05
-0.00793818
-0.00864421
1.42353e-05
1.3086e-05
-0.000543412
4.24306e-05
-0.00156119
7.90703e-05
-0.00258738
0.000113236
-0.00360107
0.000135358
-0.00457859
0.000137283
-0.00549947
0.000113397
-0.00635155
6.14192e-05
-0.00713447
-1.72462e-05
-0.00785952
-0.0085417
-0.000119755
1.12453e-05
-0.000554657
3.52842e-05
-0.00158522
6.31496e-05
-0.00261525
8.52766e-05
-0.0036232
9.25522e-05
-0.00458587
7.74862e-05
-0.0054844
3.52183e-05
-0.00630928
-3.58457e-05
-0.00706341
-0.000134038
-0.00776132
-0.00842122
-0.000254521
9.2887e-06
-0.000563946
2.77849e-05
-0.00160372
4.66269e-05
-0.00263409
5.65629e-05
-0.00363313
4.90224e-05
-0.00457833
1.72204e-05
-0.0054526
-4.29915e-05
-0.00624907
-0.000132577
-0.00697382
-0.000249308
-0.00764459
-0.0082826
-0.000387919
7.23069e-06
-0.000571176
1.99874e-05
-0.00161648
2.96215e-05
-0.00264372
2.72964e-05
-0.00363081
5.07391e-06
-0.00455611
-4.31397e-05
-0.00540439
-0.00012077
-0.00617144
-0.000228285
-0.00686631
-0.000363084
-0.00750979
-0.00812623
-0.000519454
5.08745e-06
-0.000576264
1.19475e-05
-0.00162334
1.22528e-05
-0.00264403
-2.3091e-06
-0.00361624
-3.90457e-05
-0.00451937
-0.000103225
-0.00534021
-0.000197674
-0.00607699
-0.000322477
-0.00674151
-0.000474883
-0.00735739
-0.00795238
-0.000648741
2.8804e-06
-0.000579144
3.71981e-06
-0.00162418
-5.36715e-06
-0.00263494
-3.21202e-05
-0.00358949
-8.30436e-05
-0.00446845
-0.000162693
-0.00526056
-0.000273285
-0.00596639
-0.000414658
-0.00660013
-0.000584201
-0.00718784
-0.00776117
-0.000775407
5.78819e-07
-0.000579723
-4.6441e-06
-0.00161895
-2.31282e-05
-0.00261646
-6.19037e-05
-0.00355072
-0.000126684
-0.00440367
-0.000221236
-0.00516601
-0.000347211
-0.00584042
-0.000504333
-0.00644301
-0.000690494
-0.00700168
-0.00755255
-0.000899116
-1.73562e-06
-0.000577987
-1.30859e-05
-0.0016076
-4.09187e-05
-0.00258862
-9.1517e-05
-0.00350012
-0.000169751
-0.00432543
-0.000278585
-0.00505717
-0.000419105
-0.0056999
-0.000591021
-0.00627109
-0.000793179
-0.00679953
-0.00732616
-0.00101956
-4.06749e-06
-0.00057392
-2.15543e-05
-0.00159012
-5.86422e-05
-0.00255154
-0.000120813
-0.00343795
-0.000212058
-0.00423419
-0.000334518
-0.00493471
-0.000488682
-0.00554573
-0.000674268
-0.00608551
-0.000891549
-0.00658224
-0.00708159
-0.00113612
-6.4201e-06
-0.0005675
-3.00035e-05
-0.00156653
-7.62071e-05
-0.00250533
-0.000149659
-0.0033645
-0.000253451
-0.0041304
-0.000388871
-0.00479929
-0.00055574
-0.00537887
-0.000753637
-0.00588761
-0.000984341
-0.00635154
-0.00681774
-0.0012482
-8.77138e-06
-0.000558728
-3.83864e-05
-0.00153692
-9.35276e-05
-0.00245019
-0.000177939
-0.00328008
-0.000293802
-0.00401453
-0.000441552
-0.00465154
-0.000620251
-0.00520017
-0.000828876
-0.00567899
-0.00107012
-0.0061103
-0.00653065
-0.00135721
-1.11029e-05
-0.000547625
-4.66512e-05
-0.00150137
-0.000110514
-0.00238633
-0.000205533
-0.00318506
-0.000332995
-0.00388707
-0.000492526
-0.00449201
-0.000682476
-0.00501022
-0.000900616
-0.00546085
-0.00114299
-0.00586792
-0.00626025
-0.00141339
-1.34072e-05
-0.000534218
-5.47662e-05
-0.00146001
-0.000127102
-0.00231399
-0.000232352
-0.00307982
-0.000370935
-0.00374849
-0.000541756
-0.00432119
-0.000742626
-0.00480935
-0.000970916
-0.00523256
-0.00122377
-0.00561506
-0.00598069
-0.00150333
-1.56672e-05
-0.000518551
-6.26824e-05
-0.001413
-0.000143207
-0.00223347
-0.000258274
-0.00296475
-0.00040747
-0.00359929
-0.000589035
-0.00413962
-0.000800344
-0.00459804
-0.00103858
-0.00499432
-0.00130136
-0.00535229
-0.00569336
-0.00158868
-1.78698e-05
-0.000500681
-7.0359e-05
-0.00136051
-0.000158755
-0.00214507
-0.000283195
-0.00284031
-0.000442458
-0.00344003
-0.000634162
-0.00394792
-0.000855278
-0.00437692
-0.00110279
-0.00474681
-0.00137431
-0.00508077
-0.0053987
-0.00166897
-2.00025e-05
-0.000480679
-7.7758e-05
-0.00130275
-0.000173678
-0.00204915
-0.000307018
-0.00270697
-0.000475781
-0.00327127
-0.000676994
-0.00374671
-0.000907245
-0.00414667
-0.00116331
-0.00449074
-0.00144273
-0.00480136
-0.00509727
-0.00174416
-2.2054e-05
-0.000458625
-8.48444e-05
-0.00123996
-0.000187914
-0.00194608
-0.000329661
-0.00256522
-0.000507344
-0.00309358
-0.00071743
-0.00353662
-0.000956159
-0.00390794
-0.00122013
-0.00422677
-0.00150679
-0.0045147
-0.00478946
-0.00181459
-2.40135e-05
-0.000434611
-9.15867e-05
-0.00117239
-0.000201411
-0.00183626
-0.000351054
-0.00241558
-0.000537068
-0.00290757
-0.000755402
-0.00331829
-0.00100198
-0.00366136
-0.00127324
-0.00395551
-0.00156661
-0.00422133
-0.00447559
-0.00188048
-2.58716e-05
-0.00040874
-9.79566e-05
-0.0011003
-0.000214121
-0.00172009
-0.000371137
-0.00225856
-0.000564892
-0.00271382
-0.000790859
-0.00309232
-0.00104468
-0.00340755
-0.00132268
-0.0036775
-0.0016223
-0.00392171
-0.00415594
-0.00194195
-2.76195e-05
-0.00038112
-0.000103929
-0.00102399
-0.000226001
-0.00159802
-0.000389858
-0.00209471
-0.000590764
-0.00251291
-0.00082376
-0.00285932
-0.00108424
-0.00314706
-0.00136847
-0.00339327
-0.0016739
-0.00361629
-0.00383078
-0.00199905
-2.92492e-05
-0.000351871
-0.000109481
-0.000943762
-0.000237016
-0.00147049
-0.000407171
-0.00192455
-0.00061464
-0.00230544
-0.00085407
-0.00261989
-0.00112065
-0.00288048
-0.0014106
-0.00310333
-0.00172142
-0.00330546
-0.00350044
-0.00205177
-3.07537e-05
-0.000321117
-0.000114592
-0.000859924
-0.000247132
-0.00133795
-0.000423037
-0.00174865
-0.00063648
-0.002092
-0.000881758
-0.00237462
-0.00115389
-0.00260835
-0.00144906
-0.00280816
-0.00176485
-0.00298967
-0.00316522
-0.00210007
-3.21265e-05
-0.000288991
-0.000119244
-0.000772806
-0.00025632
-0.00120087
-0.000437421
-0.00156755
-0.000656248
-0.00187317
-0.000906791
-0.00212407
-0.00118392
-0.00233122
-0.00148382
-0.00250826
-0.00180416
-0.00266932
-0.0028255
-0.00214388
-3.33618e-05
-0.000255629
-0.000123421
-0.000682746
-0.000264554
-0.00105974
-0.00045029
-0.00138181
-0.00067391
-0.00164955
-0.000929138
-0.00186885
-0.00121073
-0.00204963
-0.00151486
-0.00220413
-0.0018393
-0.00234488
-0.00248168
-0.00218312
-3.44543e-05
-0.000221175
-0.000127109
-0.000590092
-0.000271811
-0.000915034
-0.000461615
-0.00119201
-0.000689437
-0.00142173
-0.000948769
-0.00160951
-0.00123427
-0.00176413
-0.00154213
-0.00189627
-0.00187021
-0.0020168
-0.00213419
-0.00221769
-3.53995e-05
-0.000185775
-0.000130293
-0.000495198
-0.00027807
-0.000767258
-0.000471372
-0.000998705
-0.000702801
-0.0011903
-0.000965656
-0.00134666
-0.00125452
-0.00147527
-0.0015656
-0.00158519
-0.00189683
-0.00168557
-0.0017835
-0.00224752
-3.61934e-05
-0.000149582
-0.000132964
-0.000398427
-0.000283314
-0.000616908
-0.000479537
-0.000802481
-0.000713977
-0.00095586
-0.000979773
-0.00108086
-0.00127144
-0.0011836
-0.00158522
-0.00127142
-0.00191911
-0.00135168
-0.00143011
-0.0022725
-3.68326e-05
-0.000112749
-0.000135113
-0.000300147
-0.000287527
-0.000464494
-0.000486093
-0.000603915
-0.000722945
-0.000719008
-0.000991096
-0.000812712
-0.00128502
-0.00088968
-0.00160097
-0.000955469
-0.001937
-0.00101565
-0.00107452
-0.00229258
-3.73144e-05
-7.54348e-05
-0.00013673
-0.000200731
-0.000290697
-0.000310527
-0.000491023
-0.000403589
-0.000729686
-0.000480346
-0.000999606
-0.000542791
-0.00129522
-0.000594062
-0.0016128
-0.00063789
-0.00195045
-0.000678004
-0.000717275
-0.00230769
-3.76367e-05
-3.77981e-05
-0.000137812
-0.000100556
-0.000292816
-0.000155523
-0.000494317
-0.000202089
-0.000734187
-0.000240475
-0.00100529
-0.000271691
-0.00130204
-0.000297314
-0.00162071
-0.000319218
-0.00195944
-0.000339274
-0.000358917
-0.0023178
-3.77981e-05
1.87253e-12
-0.000138354
5.82427e-12
-0.000293877
1.06867e-11
-0.000495965
1.58224e-11
-0.00073644
2.07559e-11
-0.00100813
2.52188e-11
-0.00130545
2.90925e-11
-0.00162466
3.23085e-11
-0.00196394
3.48216e-11
3.63798e-11
-0.00232285
-3.77981e-05
3.77981e-05
-0.000138354
0.000100556
-0.000293877
0.000155523
-0.000495965
0.000202089
-0.00073644
0.000240475
-0.00100813
0.000271691
-0.00130545
0.000297314
-0.00162466
0.000319219
-0.00196394
0.000339274
0.000358917
-0.00232285
-3.76367e-05
7.54348e-05
-0.000137812
0.000200731
-0.000292816
0.000310527
-0.000494317
0.000403589
-0.000734187
0.000480346
-0.00100529
0.000542791
-0.00130204
0.000594062
-0.00162071
0.00063789
-0.00195944
0.000678005
0.000717275
-0.0023178
-3.73144e-05
0.000112749
-0.00013673
0.000300147
-0.000290697
0.000464494
-0.000491023
0.000603915
-0.000729686
0.000719008
-0.000999606
0.000812712
-0.00129522
0.00088968
-0.0016128
0.000955469
-0.00195045
0.00101565
0.00107452
-0.00230769
-3.68326e-05
0.000149582
-0.000135113
0.000398427
-0.000287527
0.000616908
-0.000486093
0.000802482
-0.000722945
0.00095586
-0.000991096
0.00108086
-0.00128502
0.0011836
-0.00160097
0.00127142
-0.001937
0.00135168
0.00143011
-0.00229258
-3.61934e-05
0.000185775
-0.000132964
0.000495198
-0.000283314
0.000767258
-0.000479537
0.000998705
-0.000713977
0.0011903
-0.000979773
0.00134666
-0.00127144
0.00147527
-0.00158522
0.00158519
-0.00191911
0.00168557
0.0017835
-0.0022725
-3.53995e-05
0.000221175
-0.000130293
0.000590092
-0.00027807
0.000915034
-0.000471372
0.00119201
-0.000702801
0.00142173
-0.000965656
0.00160951
-0.00125452
0.00176413
-0.0015656
0.00189627
-0.00189683
0.0020168
0.00213419
-0.00224752
-3.44543e-05
0.000255629
-0.000127109
0.000682746
-0.000271811
0.00105974
-0.000461615
0.00138181
-0.000689437
0.00164955
-0.000948769
0.00186885
-0.00123427
0.00204963
-0.00154213
0.00220413
-0.00187021
0.00234488
0.00248168
-0.00221769
-3.33618e-05
0.000288991
-0.000123421
0.000772806
-0.000264554
0.00120087
-0.00045029
0.00156755
-0.00067391
0.00187317
-0.000929138
0.00212407
-0.00121073
0.00233122
-0.00151486
0.00250826
-0.0018393
0.00266932
0.0028255
-0.00218312
-3.21265e-05
0.000321117
-0.000119244
0.000859924
-0.00025632
0.00133795
-0.000437421
0.00174865
-0.000656248
0.002092
-0.000906791
0.00237462
-0.00118392
0.00260835
-0.00148382
0.00280816
-0.00180416
0.00298967
0.00316522
-0.00214388
-3.07537e-05
0.000351871
-0.000114592
0.000943762
-0.000247132
0.00147049
-0.000423037
0.00192455
-0.00063648
0.00230544
-0.000881758
0.00261989
-0.00115389
0.00288048
-0.00144906
0.00310333
-0.00176485
0.00330546
0.00350044
-0.00210007
-2.92492e-05
0.00038112
-0.000109481
0.00102399
-0.000237016
0.00159802
-0.000407171
0.00209471
-0.00061464
0.00251291
-0.00085407
0.00285933
-0.00112065
0.00314706
-0.0014106
0.00339327
-0.00172142
0.00361629
0.00383078
-0.00205177
-2.76195e-05
0.00040874
-0.000103929
0.0011003
-0.000226001
0.00172009
-0.000389858
0.00225856
-0.000590764
0.00271382
-0.00082376
0.00309232
-0.00108424
0.00340755
-0.00136847
0.0036775
-0.0016739
0.00392171
0.00415594
-0.00199905
-2.58716e-05
0.000434611
-9.79566e-05
0.00117239
-0.000214121
0.00183626
-0.000371137
0.00241558
-0.000564892
0.00290757
-0.000790859
0.00331829
-0.00104468
0.00366136
-0.00132268
0.00395551
-0.0016223
0.00422133
0.00447559
-0.00194195
-2.40135e-05
0.000458625
-9.15867e-05
0.00123996
-0.000201411
0.00194608
-0.000351054
0.00256522
-0.000537068
0.00309358
-0.000755402
0.00353662
-0.00100198
0.00390794
-0.00127324
0.00422677
-0.00156661
0.0045147
0.00478946
-0.00188048
-2.2054e-05
0.000480679
-8.48444e-05
0.00130275
-0.000187914
0.00204915
-0.000329661
0.00270697
-0.000507344
0.00327127
-0.00071743
0.00374671
-0.000956159
0.00414667
-0.00122013
0.00449074
-0.00150679
0.00480136
0.00509727
-0.00181459
-2.00025e-05
0.000500681
-7.7758e-05
0.00136051
-0.000173678
0.00214507
-0.000307018
0.00284031
-0.000475781
0.00344003
-0.000676994
0.00394792
-0.000907245
0.00437692
-0.00116331
0.00474681
-0.00144273
0.00508077
0.00539871
-0.00174416
-1.78698e-05
0.000518551
-7.0359e-05
0.001413
-0.000158755
0.00223347
-0.000283195
0.00296475
-0.000442458
0.00359929
-0.000634162
0.00413962
-0.000855278
0.00459804
-0.00110279
0.00499432
-0.00137431
0.00535229
0.00569336
-0.00166897
-1.56672e-05
0.000534218
-6.26824e-05
0.00146001
-0.000143207
0.00231399
-0.000258274
0.00307982
-0.00040747
0.00374849
-0.000589035
0.00432119
-0.000800344
0.00480935
-0.00103858
0.00523256
-0.00130136
0.00561506
0.00598069
-0.00158868
-1.34072e-05
0.000547625
-5.47662e-05
0.00150137
-0.000127102
0.00238633
-0.000232352
0.00318506
-0.000370935
0.00388707
-0.000541756
0.00449201
-0.000742626
0.00501022
-0.000970916
0.00546085
-0.00122377
0.00586792
0.00626025
-0.00150333
-1.11029e-05
0.000558728
-4.66512e-05
0.00153692
-0.000110514
0.00245019
-0.000205533
0.00328008
-0.000332995
0.00401453
-0.000492526
0.00465154
-0.000682476
0.00520017
-0.000900616
0.00567899
-0.00114299
0.0061103
0.00653065
-0.00141339
-8.77138e-06
0.0005675
-3.83864e-05
0.00156653
-9.35276e-05
0.00250533
-0.000177939
0.0033645
-0.000293802
0.0041304
-0.000441552
0.00479929
-0.000620251
0.00537887
-0.000828876
0.00588761
-0.00107012
0.00635154
0.00681774
-0.00135721
-6.4201e-06
0.00057392
-3.00035e-05
0.00159012
-7.62071e-05
0.00255154
-0.000149659
0.00343795
-0.000253451
0.00423419
-0.000388871
0.00493471
-0.00055574
0.00554573
-0.000753637
0.00608551
-0.000984341
0.00658224
0.00708159
-0.0012482
-4.06749e-06
0.000577987
-2.15543e-05
0.0016076
-5.86422e-05
0.00258862
-0.000120813
0.00350012
-0.000212058
0.00432543
-0.000334518
0.00505717
-0.000488682
0.0056999
-0.000674268
0.00627109
-0.000891549
0.00679953
0.00732616
-0.00113612
-1.73562e-06
0.000579723
-1.30859e-05
0.00161895
-4.09187e-05
0.00261646
-9.1517e-05
0.00355072
-0.000169751
0.00440367
-0.000278585
0.00516601
-0.000419105
0.00584042
-0.000591021
0.00644301
-0.000793179
0.00700168
0.00755255
-0.00101956
5.78819e-07
0.000579144
-4.6441e-06
0.00162418
-2.31282e-05
0.00263494
-6.19037e-05
0.00358949
-0.000126684
0.00446845
-0.000221236
0.00526056
-0.000347211
0.00596639
-0.000504333
0.00660013
-0.000690494
0.00718784
0.00776117
-0.000899116
2.8804e-06
0.000576264
3.7198e-06
0.00162334
-5.36715e-06
0.00264403
-3.21202e-05
0.00361624
-8.30436e-05
0.00451937
-0.000162693
0.00534021
-0.000273285
0.00607699
-0.000414658
0.00674151
-0.000584201
0.00735739
0.00795238
-0.000775407
5.08745e-06
0.000571176
1.19475e-05
0.00161648
1.22528e-05
0.00264372
-2.3091e-06
0.00363081
-3.90457e-05
0.00455611
-0.000103225
0.00540439
-0.000197674
0.00617144
-0.000322477
0.00686631
-0.000474883
0.00750979
0.00812623
-0.000648741
7.23069e-06
0.000563946
1.99874e-05
0.00160372
2.96215e-05
0.00263409
2.72964e-05
0.00363313
5.0739e-06
0.00457833
-4.31397e-05
0.0054526
-0.00012077
0.00624907
-0.000228285
0.00697382
-0.000363084
0.00764459
0.0082826
-0.000519454
9.2887e-06
0.000554657
2.77849e-05
0.00158522
4.66269e-05
0.00261525
5.65629e-05
0.0036232
4.90224e-05
0.00458587
1.72204e-05
0.0054844
-4.29915e-05
0.00630928
-0.000132577
0.00706341
-0.000249308
0.00776132
0.00842122
-0.000387919
1.12453e-05
0.000543412
3.52842e-05
0.00156119
6.31496e-05
0.00258738
8.52766e-05
0.00360107
9.25522e-05
0.00457859
7.74862e-05
0.00549947
3.52183e-05
0.00635155
-3.58457e-05
0.00713447
-0.000134038
0.00785952
0.0085417
-0.000254521
1.3086e-05
0.000530326
4.24306e-05
0.00153184
7.90703e-05
0.00255074
0.000113236
0.0035669
0.000135358
0.00455647
0.000137283
0.00549754
0.000113397
0.00637543
6.14192e-05
0.00718645
-1.72462e-05
0.00793818
0.00864421
-0.000119755
1.47972e-05
0.000515528
4.91717e-05
0.00149747
9.42718e-05
0.00250564
0.000140238
0.00352094
0.000177139
0.00451957
0.000196211
0.00547847
0.000191068
0.00638058
0.000158591
0.00721893
9.89551e-05
0.00799782
0.00872893
1.42354e-05
1.6367e-05
0.000499161
5.54583e-05
0.00145838
0.000108641
0.00245246
0.000166082
0.0034635
0.000217593
0.00446806
0.000253866
0.0054422
0.00026775
0.00636669
0.000255265
0.00723141
0.000215979
0.0080371
0.0087922
0.000152712
1.77847e-05
0.000481377
6.12458e-05
0.00141491
0.000122072
0.00239163
0.000190572
0.003395
0.00025642
0.00440221
0.00030984
0.00538878
0.000342946
0.00633358
0.000350873
0.00722349
0.000332314
0.00805566
0.00883535
0.000289155
1.90418e-05
0.000462335
6.64946e-05
0.00136746
0.000134465
0.00232366
0.000213524
0.00331594
0.000293323
0.00432241
0.00036372
0.00531838
0.000416135
0.00628117
0.000444795
0.00719483
0.000447417
0.00805304
0.00885772
0.000425054
2.01316e-05
0.000442203
7.11712e-05
0.00131642
0.000145733
0.0022491
0.000234764
0.00322691
0.00032802
0.00422916
0.000415101
0.0052313
0.000486798
0.00620947
0.000536434
0.00714519
0.000560714
0.00802876
0.00885865
0.000559778
2.10494e-05
0.000421154
7.5249e-05
0.00126222
0.000155801
0.00216855
0.000254136
0.00312857
0.000360243
0.00412305
0.000463587
0.00512796
0.000554419
0.00611864
0.000625185
0.00707442
0.000671551
0.00798239
0.00883755
0.000692656
2.17929e-05
0.000399361
7.87086e-05
0.00120531
0.000164606
0.00208265
0.000271502
0.00302168
0.000389746
0.00400481
0.0005088
0.0050089
0.000618485
0.00600895
0.000710424
0.00698249
0.000779229
0.00791359
0.00879381
0.000822963
2.23618e-05
0.000376999
8.15383e-05
0.00114613
0.000172103
0.00199209
0.000286747
0.00290703
0.000416306
0.00387525
0.000550384
0.00487483
0.000678495
0.00588084
0.000791517
0.00686946
0.000883016
0.00782209
0.00872692
0.000949915
2.27582e-05
0.000354241
8.37344e-05
0.00108515
0.000178261
0.00189756
0.000299782
0.00278551
0.000439736
0.00373529
0.000588012
0.00472655
0.000733965
0.00573489
0.000867831
0.0067356
0.000982159
0.00770776
0.0086364
0.00107267
2.29838e-05
0.000331257
8.52966e-05
0.00102284
0.000183059
0.0017998
0.000310533
0.00265804
0.000459868
0.00358596
0.000621385
0.00456503
0.000784431
0.00557184
0.000938731
0.0065813
0.00107587
0.00757062
0.00852193
0.00119034
2.30494e-05
0.000308208
8.62462e-05
0.000959645
0.000186515
0.00169953
0.000318984
0.00252557
0.000476608