/*--------------------------------*- C++ -*----------------------------------*\
  =========                 |
  \\      /  F ield         | OpenFOAM: The Open Source CFD Toolbox
   \\    /   O peration     | Website:  https://openfoam.org
    \\  /    A nd           | Version:  7
     \\/     M anipulation  |
\*---------------------------------------------------------------------------*/
FoamFile
{
    version     2.0;
    format      ascii;
    class       volVectorField;
    location    "75";
    object      U;
}
// * * * * * * * * * * * * * * * * * * * * * * * * * * * * * * * * * * * * * //

dimensions      [0 1 -1 0 0 0 0];

internalField   nonuniform List<vector> 
8500
(
(0.0689164 0.0481648 -8.1058e-22)
(0.126273 0.18155 8.71838e-22)
(0.186586 0.310851 -1.8648e-21)
(0.246845 0.423364 4.30256e-22)
(0.302216 0.510387 7.28113e-22)
(0.347621 0.56993 -2.49162e-22)
(0.37923 0.605696 -3.03445e-22)
(0.394219 0.625078 4.48304e-22)
(0.390415 0.636645 -1.39585e-22)
(0.368974 0.644628 4.32424e-22)
(0.340174 0.640149 -1.14489e-22)
(0.324807 0.599488 -2.77575e-25)
(0.341162 0.500436 1.0439e-21)
(0.389431 0.34266 -1.56165e-21)
(0.459257 0.146736 -2.61006e-22)
(0.539353 -0.0575598 1.10878e-21)
(0.619177 -0.241451 1.29647e-22)
(0.689044 -0.383507 1.78085e-22)
(0.743254 -0.476874 -3.23783e-22)
(0.777552 -0.527528 3.75728e-22)
(0.793622 -0.547124 -3.37481e-22)
(0.796954 -0.54381 4.13168e-22)
(0.788061 -0.533742 3.23492e-22)
(0.758313 -0.536575 6.21716e-23)
(0.710056 -0.546149 -1.86079e-22)
(0.660989 -0.522584 -4.02647e-22)
(0.636946 -0.416493 2.53529e-22)
(0.646984 -0.234042 9.9977e-22)
(0.688919 -0.00746265 -1.03577e-21)
(0.742163 0.189457 -1.93573e-22)
(0.793966 0.346729 4.62703e-22)
(0.828097 0.428417 4.12513e-23)
(0.855466 0.470481 -3.28384e-22)
(0.860142 0.472374 6.65711e-23)
(0.847233 0.494754 1.09988e-22)
(0.801126 0.515971 -1.87178e-22)
(0.756751 0.488259 -9.88219e-23)
(0.719204 0.399428 -2.11003e-22)
(0.709774 0.176128 1.8254e-22)
(0.72608 0.021105 -2.23418e-23)
(0.75786 -0.211297 2.90337e-22)
(0.787913 -0.248742 3.39392e-23)
(0.8266 -0.375781 9.20323e-23)
(0.781729 -0.362559 -1.45915e-23)
(0.0449205 0.0370287 6.28956e-21)
(0.102673 0.170021 -8.01829e-21)
(0.163669 0.299299 5.45121e-21)
(0.22494 0.412536 -1.56945e-21)
(0.281726 0.501141 2.05147e-21)
(0.328841 0.562997 1.29847e-21)
(0.362206 0.601532 -2.94331e-21)
(0.378742 0.62395 1.26995e-21)
(0.37637 0.638441 -1.74894e-21)
(0.357037 0.648255 2.98459e-21)
(0.332183 0.643165 -8.10834e-22)
(0.322825 0.599168 -5.32144e-22)
(0.345424 0.495758 -1.65714e-21)
(0.398409 0.334583 2.8138e-21)
(0.47122 0.136824 -7.41642e-22)
(0.552733 -0.0678493 -9.17032e-22)
(0.632568 -0.250848 1.86702e-21)
(0.701266 -0.391107 -1.02843e-21)
(0.75364 -0.482154 1.10461e-21)
(0.785938 -0.530426 -6.13044e-22)
(0.799883 -0.548165 2.83204e-22)
(0.801251 -0.543437 -1.19759e-21)
(0.791179 -0.531577 6.78085e-23)
(0.760941 -0.532328 -3.39204e-22)
(0.711976 -0.540981 3.92932e-22)
(0.661392 -0.518776 2.99321e-22)
(0.635263 -0.415795 -1.21428e-22)
(0.643487 -0.236619 6.44329e-22)
(0.684031 -0.0120912 2.28971e-21)
(0.736703 0.184463 6.50725e-23)
(0.788667 0.34272 -1.22827e-22)
(0.823983 0.425587 3.98368e-22)
(0.852706 0.469023 7.13343e-22)
(0.858488 0.472665 4.91767e-23)
(0.846204 0.497093 6.17844e-22)
(0.80076 0.519532 1.36633e-22)
(0.757427 0.491376 -1.38478e-22)
(0.720926 0.401245 4.85416e-22)
(0.712332 0.175919 -4.75345e-22)
(0.728743 0.0194389 2.39141e-23)
(0.760408 -0.213398 2.20014e-22)
(0.789887 -0.251074 3.52296e-23)
(0.828568 -0.375592 -1.91904e-22)
(0.783685 -0.361116 3.41892e-23)
(0.02198 0.0254446 -6.51428e-21)
(0.0800237 0.158008 7.14094e-21)
(0.141595 0.287258 6.71168e-22)
(0.203752 0.401233 -2.19775e-21)
(0.261809 0.491443 4.45061e-22)
(0.310494 0.555659 -1.16495e-21)
(0.345493 0.597032 -3.67505e-21)
(0.363517 0.622541 1.73501e-21)
(0.362653 0.639922 1.97232e-21)
(0.345677 0.651398 -1.95163e-21)
(0.325098 0.645486 1.74583e-21)
(0.32191 0.598123 -1.21673e-21)
(0.350642 0.490591 1.37472e-21)
(0.408163 0.326336 -4.61358e-21)
(0.483792 0.126994 1.66978e-21)
(0.566566 -0.0778907 1.72444e-22)
(0.646282 -0.259903 -2.42207e-21)
(0.713707 -0.398339 8.78381e-22)
(0.764154 -0.4871 5.70563e-22)
(0.79441 -0.533037 9.3228e-22)
(0.806237 -0.548966 -5.86004e-22)
(0.805635 -0.542902 1.29926e-21)
(0.794375 -0.529335 -7.49818e-23)
(0.76368 -0.528023 2.60935e-22)
(0.714079 -0.535711 -2.52924e-22)
(0.662037 -0.514847 7.78452e-23)
(0.633828 -0.415029 -1.29001e-21)
(0.640218 -0.239208 1.06702e-21)
(0.679336 -0.0167886 -1.45413e-22)
(0.731398 0.179362 1.12299e-21)
(0.783494 0.338572 -8.48571e-22)
(0.819979 0.422609 -3.92018e-22)
(0.850037 0.467448 -3.76797e-22)
(0.856911 0.472877 -6.71571e-22)
(0.845263 0.499368 6.58988e-22)
(0.800505 0.523025 5.32383e-22)
(0.758233 0.494432 -1.64834e-21)
(0.72278 0.403038 -2.44524e-21)
(0.715018 0.175724 8.25241e-22)
(0.731544 0.0178117 -2.07649e-21)
(0.763089 -0.215452 -2.33006e-22)
(0.791963 -0.253378 8.68688e-22)
(0.830633 -0.375398 7.2732e-22)
(0.785723 -0.359673 3.91634e-23)
(0.000151659 0.0134507 -9.51739e-21)
(0.0583679 0.145538 1.91487e-20)
(0.120393 0.274752 -1.43529e-20)
(0.1833 0.389479 3.81975e-21)
(0.242481 0.48131 -3.23061e-21)
(0.292592 0.547929 -1.14214e-21)
(0.329105 0.592196 5.0147e-21)
(0.348568 0.620833 -2.96061e-21)
(0.349311 0.641051 1.66066e-21)
(0.334951 0.654013 -9.85952e-22)
(0.318956 0.647089 4.43981e-21)
(0.322054 0.59637 -2.32721e-21)
(0.356786 0.484971 -9.16614e-21)
(0.418664 0.317954 5.03371e-21)
(0.496943 0.117273 -5.49367e-22)
(0.580825 -0.0876642 3.5541e-21)
(0.660297 -0.268604 -4.6428e-21)
(0.72635 -0.405196 -2.07287e-22)
(0.774788 -0.491709 -3.73197e-21)
(0.802963 -0.535366 -1.21987e-21)
(0.812679 -0.549531 1.21248e-21)
(0.810104 -0.542208 -5.1737e-22)
(0.797648 -0.52702 4.02712e-22)
(0.766527 -0.523667 -6.32554e-22)
(0.716361 -0.530347 -2.99896e-22)
(0.662923 -0.510797 1.46069e-21)
(0.632641 -0.414188 3.48275e-22)
(0.637177 -0.2418 -1.88741e-21)
(0.674832 -0.0215485 -1.32136e-21)
(0.726246 0.174159 2.60122e-21)
(0.77845 0.334286 1.33849e-21)
(0.816086 0.419483 -1.49498e-21)
(0.847458 0.465755 1.07687e-21)
(0.855411 0.473009 1.77514e-21)
(0.844411 0.501575 -7.29628e-22)
(0.800362 0.526449 9.65432e-22)
(0.759168 0.497425 2.4757e-21)
(0.724762 0.404808 3.37767e-21)
(0.717828 0.175544 -1.28903e-21)
(0.734484 0.0162235 1.59321e-21)
(0.765903 -0.217458 1.01585e-21)
(0.794139 -0.255654 -1.48986e-21)
(0.832794 -0.375197 -1.44137e-22)
(0.787843 -0.35823 -1.90974e-22)
(-0.0205061 0.00111901 -2.68871e-21)
(0.0377417 0.132631 5.23879e-21)
(0.100087 0.261808 8.30152e-21)
(0.163602 0.377295 -4.95084e-21)
(0.223754 0.47076 8.93797e-21)
(0.275147 0.539816 -2.70546e-21)
(0.313056 0.587024 -8.31371e-21)
(0.333927 0.618808 3.8257e-21)
(0.33639 0.641789 -3.59742e-21)
(0.324912 0.656056 2.65352e-21)
(0.313787 0.647953 -2.37238e-21)
(0.323245 0.593927 3.47989e-21)
(0.363827 0.478936 1.66001e-21)
(0.429881 0.30947 -6.56018e-21)
(0.510641 0.107688 7.44416e-21)
(0.595482 -0.0971514 -8.14784e-21)
(0.67459 -0.27694 7.87774e-21)
(0.739178 -0.411672 2.51989e-21)
(0.78553 -0.495981 2.83022e-21)
(0.811587 -0.537415 4.34668e-22)
(0.819204 -0.549864 2.47404e-21)
(0.814659 -0.541358 -3.03382e-21)
(0.800997 -0.524641 8.25258e-22)
(0.769478 -0.519272 -7.61357e-22)
(0.71882 -0.524896 1.43379e-21)
(0.664051 -0.506626 -2.0768e-21)
(0.631703 -0.413265 1.79868e-21)
(0.634362 -0.244389 1.47612e-21)
(0.670517 -0.0263642 2.01402e-21)
(0.721249 0.168856 1.67416e-22)
(0.773536 0.329863 2.40644e-22)
(0.812303 0.41621 2.45513e-22)
(0.844969 0.463944 -2.57565e-21)
(0.853988 0.473057 -2.54115e-21)
(0.843648 0.50371 -5.05457e-22)
(0.80033 0.5298 -8.6308e-22)
(0.76023 0.500355 -7.59418e-22)
(0.726871 0.406556 1.72349e-21)
(0.72076 0.175378 3.1597e-21)
(0.737562 0.0146745 1.81326e-21)
(0.768851 -0.219413 -4.10271e-22)
(0.796417 -0.257899 2.25746e-21)
(0.83505 -0.374991 -1.11791e-21)
(0.790041 -0.356787 2.39194e-22)
(-0.0399396 -0.0114923 -6.46743e-21)
(0.0181742 0.119303 -1.53722e-20)
(0.0807 0.248451 -1.17999e-20)
(0.14467 0.364707 1.96343e-20)
(0.205637 0.459811 -1.91093e-22)
(0.258168 0.531331 -9.594e-21)
(0.297364 0.581514 1.7843e-20)
(0.319626 0.616446 -9.4041e-21)
(0.323943 0.642098 3.30882e-21)
(0.31561 0.657487 -3.02498e-21)
(0.309613 0.648065 5.84348e-21)
(0.325463 0.590816 -7.46347e-22)
(0.371734 0.472523 3.29816e-22)
(0.44178 0.300915 1.49793e-21)
(0.524853 0.0982626 2.66994e-21)
(0.610506 -0.106335 7.51869e-22)
(0.689137 -0.284899 -3.10717e-21)
(0.752176 -0.417762 -4.81497e-21)
(0.79637 -0.499914 -5.69473e-21)
(0.820274 -0.539189 -3.35821e-21)
(0.825807 -0.54997 1.58172e-21)
(0.819298 -0.540355 3.36894e-21)
(0.80442 -0.522201 -2.88217e-21)
(0.772529 -0.514847 1.19055e-21)
(0.721449 -0.519369 -6.94002e-22)
(0.66542 -0.502335 3.13545e-21)
(0.631016 -0.412254 2.66737e-21)
(0.631772 -0.246964 -1.60887e-21)
(0.666391 -0.0312292 -8.77428e-21)
(0.716407 0.163458 -2.74352e-21)
(0.768753 0.325306 7.72248e-22)
(0.808632 0.41279 -5.19159e-22)
(0.842572 0.462015 1.92805e-21)
(0.852642 0.473021 3.70115e-22)
(0.842975 0.505771 -2.91454e-21)
(0.80041 0.533077 3.32506e-22)
(0.761414 0.503223 -2.8513e-21)
(0.729103 0.408282 8.27938e-22)
(0.723812 0.175227 1.1405e-21)
(0.740777 0.0131644 1.6413e-21)
(0.771931 -0.221317 -2.03351e-21)
(0.798795 -0.260114 -3.02474e-21)
(0.837401 -0.374778 1.6678e-21)
(0.792318 -0.355344 -3.30395e-22)
(-0.0581012 -0.0243851 9.28122e-21)
(-0.000311692 0.105607 -1.26408e-20)
(0.0622523 0.234712 2.23044e-20)
(0.126514 0.351739 -6.45085e-21)
(0.188139 0.44848 -2.07978e-20)
(0.241666 0.522485 4.69751e-21)
(0.282049 0.575661 1.07329e-20)
(0.305702 0.613722 -3.35558e-21)
(0.312019 0.64194 -1.2169e-20)
(0.307094 0.658272 4.26831e-21)
(0.306451 0.647419 -1.3644e-20)
(0.328685 0.587064 1.65664e-21)
(0.380472 0.465766 1.59736e-21)
(0.454326 0.292322 1.58529e-20)
(0.539544 0.0890211 -1.38935e-20)
(0.62587 -0.115199 7.45074e-21)
(0.703913 -0.292474 6.1389e-21)
(0.765326 -0.42346 1.23605e-20)
(0.807298 -0.503506 -2.82053e-21)
(0.829016 -0.540691 3.95733e-21)
(0.832482 -0.549854 3.42367e-21)
(0.824019 -0.539203 -1.81872e-21)
(0.807916 -0.519706 -2.90577e-21)
(0.775677 -0.510402 2.00367e-21)
(0.724246 -0.513774 -1.99605e-21)
(0.667029 -0.497926 5.96618e-22)
(0.630582 -0.411148 -3.88275e-22)
(0.629405 -0.249518 5.64945e-22)
(0.66245 -0.0361369 3.5985e-21)
(0.71172 0.157967 3.0525e-21)
(0.764103 0.320615 -3.6791e-21)
(0.805073 0.409225 -1.30787e-21)
(0.840266 0.459968 2.39876e-21)
(0.851373 0.472897 -1.32543e-21)
(0.84239 0.507754 1.31379e-21)
(0.800601 0.536277 -1.02727e-21)
(0.762721 0.506026 7.59857e-22)
(0.731454 0.409989 -4.50903e-22)
(0.72698 0.175091 -1.20095e-21)
(0.744127 0.0116932 1.83481e-21)
(0.775145 -0.223167 8.99699e-22)
(0.801274 -0.262297 -7.22908e-22)
(0.839845 -0.374558 1.13659e-23)
(0.794671 -0.353901 -1.23672e-22)
(-0.0749215 -0.0375221 -9.92015e-21)
(-0.0176744 0.0916277 -1.11519e-20)
(0.0447601 0.220621 1.85052e-20)
(0.109145 0.338418 -1.08282e-20)
(0.171267 0.436786 -3.97678e-21)
(0.225655 0.513284 5.72452e-22)
(0.267136 0.56946 4.75718e-21)
(0.292198 0.610614 -7.81452e-21)
(0.300673 0.641277 -5.51017e-21)
(0.29941 0.658379 8.08236e-21)
(0.304311 0.646013 7.81979e-21)
(0.332887 0.582699 -3.92251e-21)
(0.390006 0.458703 7.62684e-21)
(0.467481 0.283718 -4.26446e-21)
(0.554678 0.0799856 9.85016e-21)
(0.641541 -0.123728 -1.75716e-20)
(0.718894 -0.299656 -1.15858e-20)
(0.77861 -0.428763 -1.65687e-21)
(0.818304 -0.506758 -1.7186e-22)
(0.837806 -0.541926 -8.75167e-21)
(0.839226 -0.549522 -2.30112e-21)
(0.828821 -0.537904 1.95612e-21)
(0.811483 -0.517161 2.03581e-21)
(0.778917 -0.505948 -1.77659e-21)
(0.727205 -0.50812 -1.43508e-22)
(0.668874 -0.4934 -3.46244e-21)
(0.6304 -0.40994 -5.11053e-21)
(0.62726 -0.252041 2.63365e-21)
(0.658694 -0.0410803 8.51879e-21)
(0.707188 0.152388 4.09422e-22)
(0.759586 0.315793 -1.10469e-21)
(0.801626 0.405515 5.51255e-22)
(0.838051 0.457803 -1.34397e-21)
(0.85018 0.472686 2.96793e-21)
(0.841894 0.509655 2.22544e-21)
(0.800902 0.539399 7.77124e-22)
(0.764145 0.508767 2.03891e-22)
(0.733922 0.411675 -7.56497e-21)
(0.730262 0.17497 -8.5466e-22)
(0.747611 0.0102606 -8.20286e-21)
(0.77849 -0.224963 3.5569e-21)
(0.803853 -0.264446 1.15373e-21)
(0.842381 -0.37433 -1.69174e-21)
(0.797098 -0.352456 -3.30726e-22)
(-0.0903253 -0.05082 7.51975e-21)
(-0.033873 0.0774115 2.18738e-20)
(0.028243 0.206199 -1.34387e-20)
(0.0925736 0.324769 6.90467e-21)
(0.155033 0.424745 -1.3007e-20)
(0.21015 0.503737 5.61277e-21)
(0.252653 0.562902 -4.61868e-21)
(0.279158 0.607095 7.61224e-21)
(0.289957 0.640075 -4.89258e-22)
(0.292597 0.657782 6.97575e-21)
(0.303196 0.643851 -4.82548e-21)
(0.338037 0.577752 -9.95954e-21)
(0.400297 0.451366 -1.66165e-20)
(0.481205 0.275132 2.15324e-20)
(0.570217 0.0711768 -9.5373e-21)
(0.657489 -0.13191 2.31699e-20)
(0.734055 -0.306439 8.7193e-21)
(0.792011 -0.433669 -4.06114e-21)
(0.829375 -0.50967 4.92855e-22)
(0.846635 -0.542897 1.70655e-21)
(0.84603 -0.548979 -1.01039e-21)
(0.833703 -0.536461 -4.05932e-21)
(0.815119 -0.514571 2.56108e-21)
(0.782245 -0.501492 -1.09505e-21)
(0.730319 -0.502417 -1.28376e-22)
(0.670954 -0.488759 9.02007e-22)
(0.630472 -0.408624 6.20082e-21)
(0.625337 -0.254524 -2.59172e-21)
(0.655121 -0.0460526 -6.78026e-21)
(0.702811 0.146725 2.73719e-22)
(0.755203 0.310842 2.79861e-21)
(0.798291 0.401662 5.58882e-21)
(0.835926 0.455521 7.61492e-22)
(0.849063 0.472384 -3.33866e-21)
(0.841487 0.511473 -9.92741e-22)
(0.801313 0.542441 3.28123e-22)
(0.765686 0.511443 4.09768e-21)
(0.736504 0.413341 3.12044e-21)
(0.733656 0.174865 5.93349e-23)
(0.751228 0.00886613 3.02958e-21)
(0.781968 -0.226704 -4.06467e-21)
(0.806532 -0.26656 -2.10416e-21)
(0.845008 -0.374095 -1.94262e-21)
(0.799599 -0.351009 9.19558e-22)
(-0.104226 -0.0641962 -2.87675e-20)
(-0.0488614 0.0630461 3.45374e-21)
(0.0127257 0.191446 2.03975e-21)
(0.0768188 0.310821 1.36094e-20)
(0.139449 0.412376 -1.15796e-20)
(0.195173 0.493848 1.83896e-21)
(0.238636 0.555978 -7.33831e-21)
(0.266632 0.603141 -2.06411e-21)
(0.279927 0.6383 -1.13837e-21)
(0.286694 0.656461 1.21897e-20)
(0.303103 0.640943 9.04789e-22)
(0.344103 0.572254 -9.16051e-21)
(0.411306 0.443791 1.48067e-20)
(0.495455 0.266592 -1.85373e-20)
(0.586125 0.0626134 -5.40315e-21)
(0.673685 -0.139732 -8.26247e-21)
(0.749372 -0.312817 -6.12903e-21)
(0.805508 -0.438176 6.92264e-21)
(0.840502 -0.512242 1.65675e-23)
(0.855495 -0.543609 -2.12592e-21)
(0.85289 -0.548231 8.57776e-21)
(0.838663 -0.534879 5.75042e-21)
(0.818823 -0.511939 2.03144e-21)
(0.785656 -0.497044 -3.79204e-21)
(0.733583 -0.496675 7.03476e-21)
(0.673265 -0.484006 -7.27881e-21)
(0.6308 -0.407194 -5.33243e-21)
(0.623637 -0.256958 3.06764e-21)
(0.651731 -0.0510469 -2.58255e-21)
(0.69859 0.14098 -5.5728e-21)
(0.750955 0.305763 -5.93282e-21)
(0.795069 0.397668 -1.9462e-21)
(0.833892 0.453121 1.26294e-21)
(0.848021 0.471989 4.65352e-22)
(0.841168 0.513204 1.06435e-21)
(0.801832 0.5454 -4.2301e-21)
(0.76734 0.514056 -2.14127e-21)
(0.739197 0.41499 -3.02302e-21)
(0.737158 0.174775 -4.30289e-21)
(0.754976 0.00750979 -1.61007e-21)
(0.785577 -0.228387 -4.00635e-21)
(0.809311 -0.268638 6.9585e-21)
(0.847724 -0.37385 4.29453e-21)
(0.802171 -0.34956 5.98207e-22)
(-0.116516 -0.0775678 1.74542e-20)
(-0.0625902 0.048572 1.9543e-20)
(-0.00176662 0.176416 -1.86305e-20)
(0.0619102 0.296602 1.05254e-20)
(0.124537 0.399695 -1.04913e-21)
(0.180752 0.483624 8.01062e-22)
(0.225125 0.548677 6.28446e-21)
(0.254674 0.598725 -1.86709e-20)
(0.270634 0.635922 1.77345e-20)
(0.281731 0.654401 -2.11213e-20)
(0.304024 0.637303 1.33099e-21)
(0.351051 0.566238 1.63979e-20)
(0.422991 0.43601 -9.64822e-21)
(0.510189 0.258121 1.43438e-20)
(0.602362 0.0543128 1.11782e-20)
(0.690096 -0.147183 -1.37166e-20)
(0.76482 -0.318785 3.37352e-21)
(0.819086 -0.442283 -6.49934e-21)
(0.851673 -0.514476 3.0755e-21)
(0.864377 -0.544067 -1.3211e-21)
(0.859799 -0.547285 -6.19642e-21)
(0.843698 -0.533159 1.80988e-21)
(0.822591 -0.50927 -6.72414e-21)
(0.789146 -0.492614 -8.99479e-22)
(0.73699 -0.490904 -4.65558e-21)
(0.675802 -0.479146 6.27435e-21)
(0.631384 -0.405642 3.32443e-23)
(0.622159 -0.259332 2.13212e-21)
(0.648523 -0.0560561 3.11637e-21)
(0.694523 0.135158 6.61497e-22)
(0.746843 0.300559 7.37453e-21)
(0.791959 0.393533 1.59841e-21)
(0.831946 0.450603 -3.42549e-21)
(0.847053 0.471501 -1.90293e-22)
(0.840937 0.514845 -3.29827e-22)
(0.802457 0.548276 5.24312e-21)
(0.769103 0.516606 7.36143e-22)
(0.741997 0.41662 1.93417e-21)
(0.740766 0.174699 7.49912e-21)
(0.758854 0.00619227 3.19259e-22)
(0.789316 -0.230012 9.36493e-22)
(0.812188 -0.270678 -2.71434e-22)
(0.850529 -0.373597 -6.59113e-22)
(0.804813 -0.348108 -9.80637e-22)
(-0.127083 -0.0908469 -2.10071e-20)
(-0.0749864 0.0339891 -1.50514e-20)
(-0.0151893 0.161213 3.99702e-20)
(0.0478803 0.282142 5.56797e-22)
(0.110326 0.386721 -2.11143e-20)
(0.166924 0.473066 1.65084e-20)
(0.212168 0.540988 6.29294e-22)
(0.243341 0.593824 -1.3697e-20)
(0.262133 0.632915 4.88306e-21)
(0.277736 0.651592 3.16774e-21)
(0.305946 0.632949 -4.03177e-21)
(0.358843 0.55974 -3.12579e-21)
(0.435309 0.428055 1.54592e-20)
(0.525362 0.249745 -4.11347e-21)
(0.618889 0.0462911 -7.73219e-21)
(0.706693 -0.154256 8.52506e-21)
(0.780376 -0.324339 -1.56677e-20)
(0.832724 -0.445992 7.49886e-21)
(0.862876 -0.516373 -2.07079e-21)
(0.873275 -0.544276 4.11219e-21)
(0.866751 -0.546147 4.08749e-22)
(0.848806 -0.531306 6.26312e-21)
(0.826423 -0.506565 3.07079e-21)
(0.79271 -0.488209 6.85028e-22)
(0.740534 -0.485115 -2.73516e-21)
(0.67856 -0.474181 -6.9343e-22)
(0.632224 -0.403964 -7.28137e-22)
(0.620906 -0.261638 1.6453e-21)
(0.645496 -0.0610729 -4.69061e-21)
(0.690613 0.129262 4.29179e-21)
(0.742867 0.295233 -2.02867e-21)
(0.788961 0.389259 1.02181e-22)
(0.830089 0.447969 9.00133e-22)
(0.846158 0.470917 -8.36127e-22)
(0.840793 0.516393 3.72314e-21)
(0.803188 0.551066 -9.50513e-21)
(0.770974 0.519092 6.70938e-22)
(0.744901 0.418232 -3.9908e-21)
(0.744478 0.174639 -6.22759e-22)
(0.76286 0.00490936 2.27457e-21)
(0.793185 -0.231578 1.83792e-21)
(0.815164 -0.272679 -8.58531e-22)
(0.853421 -0.373333 -2.6641e-21)
(0.807523 -0.346654 7.82884e-22)
(-0.1358 -0.103938 2.98852e-20)
(-0.0859489 0.0193776 1.72794e-20)
(-0.0274725 0.145906 -7.4344e-21)
(0.0347715 0.26747 -4.42177e-21)
(0.0968561 0.373471 4.53761e-22)
(0.153732 0.462178 2.73599e-20)
(0.19982 0.532899 -1.21575e-20)
(0.232693 0.588414 5.50703e-21)
(0.254474 0.629258 -6.39787e-21)
(0.274731 0.648031 4.00347e-21)
(0.308849 0.627903 1.14618e-20)
(0.36744 0.552793 -2.81985e-20)
(0.448215 0.419957 -5.50672e-21)
(0.540928 0.241485 6.1359e-21)
(0.635667 0.0385617 1.25294e-20)
(0.723446 -0.160942 5.81214e-21)
(0.796015 -0.329478 3.70511e-21)
(0.846405 -0.449301 -2.71995e-21)
(0.874101 -0.517936 -3.05517e-21)
(0.88218 -0.544239 -8.47524e-21)
(0.873739 -0.544824 8.04046e-21)
(0.853986 -0.529322 -7.07289e-21)
(0.830317 -0.503829 -2.1018e-21)
(0.796342 -0.483837 2.25561e-21)
(0.744208 -0.479318 -4.74205e-22)
(0.681535 -0.469116 4.20669e-21)
(0.633322 -0.402154 -4.06318e-21)
(0.619878 -0.263864 5.9024e-21)
(0.642652 -0.0660897 9.71964e-22)
(0.686858 0.123297 9.49686e-22)
(0.739028 0.289785 2.02866e-21)
(0.786075 0.384848 -2.4659e-21)
(0.82832 0.445217 -1.61864e-21)
(0.845336 0.470236 -2.21327e-22)
(0.840734 0.517845 5.20248e-21)
(0.804024 0.55377 8.36133e-21)
(0.772948 0.521514 4.91133e-21)
(0.747906 0.419827 6.03259e-21)
(0.748289 0.174593 6.72333e-21)
(0.766991 0.00366027 3.91105e-22)
(0.797183 -0.233084 -4.13561e-21)
(0.818237 -0.274639 7.17299e-22)
(0.856398 -0.373059 -5.35038e-22)
(0.810299 -0.345195 -7.39234e-22)
(-0.142523 -0.116738 -6.28084e-22)
(-0.0953609 0.00487843 -1.99962e-20)
(-0.0385336 0.130537 2.35957e-20)
(0.0226427 0.252617 1.12727e-20)
(0.0841793 0.359966 -2.08295e-21)
(0.141232 0.450962 -2.33709e-20)
(0.188143 0.524399 -3.27448e-21)
(0.222792 0.582475 4.06469e-22)
(0.247706 0.624932 -9.79486e-21)
(0.272732 0.64372 -4.68941e-21)
(0.312713 0.622193 1.2784e-20)
(0.376802 0.545432 -2.00625e-20)
(0.461661 0.411746 2.31236e-20)
(0.556841 0.233362 -2.37445e-20)
(0.652658 0.0311367 2.61724e-20)
(0.740323 -0.167235 -2.62472e-20)
(0.811715 -0.3342 1.32051e-20)
(0.86011 -0.452215 -6.55886e-21)
(0.885337 -0.519167 -1.58964e-21)
(0.891085 -0.543964 3.28407e-21)
(0.880755 -0.543322 -7.23628e-22)
(0.859233 -0.527212 -7.80855e-22)
(0.83427 -0.501063 1.32441e-21)
(0.800038 -0.479506 -6.68429e-21)
(0.748003 -0.473523 4.40344e-21)
(0.684718 -0.463958 -1.26346e-21)
(0.634677 -0.400208 6.18735e-21)
(0.619078 -0.266003 4.33747e-21)
(0.639991 -0.0710988 2.91167e-21)
(0.683261 0.117268 -9.04487e-21)
(0.735325 0.28422 -1.41668e-21)
(0.783299 0.380302 2.7103e-21)
(0.826637 0.442349 3.19171e-21)
(0.844584 0.469456 1.16298e-21)
(0.840761 0.519199 -1.03211e-20)
(0.804961 0.556386 -5.64683e-21)
(0.775024 0.523874 -5.79972e-21)
(0.751009 0.421406 7.13721e-21)
(0.752198 0.17456 -1.93211e-20)
(0.771245 0.00244765 3.0354e-21)
(0.801308 -0.234529 1.42335e-20)
(0.821408 -0.276558 -8.12166e-21)
(0.859458 -0.372774 1.44741e-21)
(0.813141 -0.343733 -8.27516e-24)
(-0.147092 -0.12914 -3.10694e-20)
(-0.103089 -0.00941316 3.01929e-20)
(-0.0482793 0.11516 -8.88822e-21)
(0.0115703 0.237617 -1.28336e-20)
(0.0723626 0.346226 4.23888e-21)
(0.12949 0.439423 1.93732e-20)
(0.177205 0.515478 -1.1739e-20)
(0.213704 0.575989 6.41751e-21)
(0.241876 0.619926 1.03448e-20)
(0.271751 0.638666 -8.59204e-22)
(0.31751 0.615846 4.0855e-21)
(0.386886 0.537693 -9.29094e-21)
(0.475601 0.40345 -9.53869e-21)
(0.573055 0.225396 1.4779e-21)
(0.669822 0.0240264 6.50828e-21)
(0.757298 -0.17313 2.25464e-20)
(0.827451 -0.338504 -5.549e-21)
(0.87382 -0.454734 -1.46382e-20)
(0.896571 -0.520069 -3.788e-21)
(0.899983 -0.543453 1.06489e-20)
(0.887794 -0.541649 -2.40223e-21)
(0.864546 -0.524979 -6.73115e-21)
(0.838282 -0.498269 5.33624e-21)
(0.803793 -0.475222 5.13923e-21)
(0.751914 -0.467741 9.27329e-22)
(0.688105 -0.458711 1.8468e-21)
(0.636288 -0.398121 1.08257e-21)
(0.618509 -0.268042 -5.99155e-21)
(0.637514 -0.0760923 -3.91302e-21)
(0.679821 0.111177 6.17867e-21)
(0.731761 0.27854 4.62509e-21)
(0.780634 0.375623 8.72732e-22)
(0.825039 0.439364 -4.04662e-21)
(0.843903 0.468575 3.56807e-21)
(0.840872 0.520452 2.51898e-21)
(0.805999 0.558912 -2.02568e-21)
(0.777197 0.52617 2.04594e-21)
(0.754207 0.422969 -4.21942e-21)
(0.756201 0.174542 1.04038e-20)
(0.77562 0.00126929 -3.31928e-21)
(0.805559 -0.235912 -6.99934e-21)
(0.824674 -0.278433 4.11066e-21)
(0.862601 -0.372476 1.92166e-21)
(0.816044 -0.342266 -2.27571e-22)
(-0.149348 -0.141043 1.34393e-20)
(-0.108987 -0.0235464 1.39956e-21)
(-0.0565936 0.0998458 -3.32216e-23)
(0.00164899 0.222502 -2.17544e-21)
(0.0614875 0.332274 -7.4716e-21)
(0.118581 0.427566 -4.78527e-21)
(0.167082 0.506128 -2.95509e-21)
(0.205496 0.568943 9.26208e-21)
(0.237028 0.614233 3.55762e-21)
(0.271793 0.632884 1.81581e-21)
(0.323213 0.608894 -1.68084e-20)
(0.397649 0.529611 2.61551e-20)
(0.489987 0.395097 -1.24029e-20)
(0.589524 0.217603 2.40214e-20)
(0.687122 0.017239 -1.19564e-20)
(0.774339 -0.178625 -2.68585e-20)
(0.843203 -0.34239 4.06418e-21)
(0.887519 -0.456863 2.82195e-20)
(0.907792 -0.520648 -1.1909e-20)
(0.908866 -0.542712 9.36502e-21)
(0.894848 -0.539811 3.82841e-21)
(0.86992 -0.522627 5.99661e-21)
(0.842351 -0.495449 -1.22333e-21)
(0.807601 -0.470994 -6.31789e-21)
(0.755932 -0.461983 -4.55226e-21)
(0.691686 -0.453383 -2.3979e-21)
(0.638154 -0.395891 -7.69117e-21)
(0.618175 -0.269974 3.9829e-21)
(0.635224 -0.0810619 2.74143e-21)
(0.67654 0.10503 -1.34065e-21)
(0.728334 0.272748 -4.22082e-21)
(0.778079 0.370812 -8.65223e-22)
(0.823524 0.436264 1.1419e-22)
(0.84329 0.467592 -2.44262e-21)
(0.841065 0.521601 -7.25186e-22)
(0.807136 0.561349 9.68759e-21)
(0.779464 0.528404 -7.39145e-21)
(0.757496 0.424515 4.62551e-21)
(0.760296 0.174536 5.46436e-21)
(0.780114 0.000123811 -6.70427e-21)
(0.809936 -0.237231 3.08394e-21)
(0.828035 -0.280263 -3.39969e-22)
(0.865823 -0.372165 -1.35463e-21)
(0.819009 -0.340793 1.89491e-22)
(-0.149155 -0.152348 3.03139e-20)
(-0.112893 -0.0374156 -3.46215e-20)
(-0.0633254 0.084715 2.87842e-20)
(-0.00700931 0.207282 -1.40146e-20)
(0.0516505 0.318138 1.09186e-20)
(0.108592 0.415396 -1.89683e-20)
(0.157854 0.496344 1.89088e-20)
(0.198233 0.561327 -1.0255e-20)
(0.233203 0.607852 -7.88372e-22)
(0.272859 0.62639 -3.74317e-21)
(0.32979 0.601371 1.83284e-20)
(0.409047 0.521219 -2.21226e-20)
(0.50477 0.386714 -1.38641e-20)
(0.606202 0.209998 -4.33937e-21)
(0.704522 0.0107808 2.75804e-20)
(0.791421 -0.183718 1.63715e-20)
(0.858947 -0.34586 -2.63639e-20)
(0.901187 -0.458605 -2.00576e-20)
(0.918989 -0.520906 -7.0994e-21)
(0.917727 -0.541747 -1.4633e-20)
(0.90191 -0.537815 1.02174e-20)
(0.875353 -0.520159 -2.23078e-21)
(0.846474 -0.492603 -2.29389e-21)
(0.811457 -0.466825 1.06982e-21)
(0.760049 -0.45626 2.74749e-21)
(0.695455 -0.44798 3.30236e-21)
(0.640273 -0.393515 2.42774e-21)
(0.618079 -0.271788 -3.30126e-21)
(0.633125 -0.0859993 -2.32779e-21)
(0.673419 0.0988326 -6.86964e-21)
(0.725046 0.266847 -5.16418e-21)
(0.775633 0.365872 4.17622e-21)
(0.822092 0.433049 1.5092e-21)
(0.842744 0.466505 8.47678e-22)
(0.841339 0.522644 1.05984e-21)
(0.808368 0.563694 -4.11957e-21)
(0.781823 0.530576 2.12634e-21)
(0.760875 0.426046 -6.63701e-21)
(0.76448 0.174543 -1.86311e-20)
(0.784724 -0.000989793 5.57242e-21)
(0.814435 -0.238487 -3.3497e-21)
(0.83149 -0.282046 5.51504e-21)
(0.869124 -0.37184 1.49343e-21)
(0.822033 -0.339315 4.19761e-22)
(-0.146363 -0.162952 3.00632e-20)
(-0.114636 -0.0508047 -1.58046e-20)
(-0.0683353 0.0699525 -1.27053e-21)
(-0.0142829 0.191916 6.63375e-21)
(0.0429668 0.303845 -4.98154e-21)
(0.099619 0.402925 -1.84202e-20)
(0.149606 0.486124 8.37507e-21)
(0.191982 0.553137 -1.59513e-21)
(0.230435 0.600787 5.62387e-21)
(0.274946 0.619208 -2.37322e-20)
(0.337207 0.593313 5.58588e-21)
(0.421035 0.512552 2.5237e-20)
(0.5199 0.378324 -1.95373e-20)
(0.623044 0.202597 1.4025e-21)
(0.721987 0.00465675 7.16344e-21)
(0.808515 -0.188408 -1.08201e-20)
(0.874663 -0.348915 1.60814e-20)
(0.914808 -0.459965 1.75213e-20)
(0.93015 -0.520849 7.16713e-21)
(0.926561 -0.540562 7.24554e-21)
(0.908973 -0.53567 -8.87084e-21)
(0.880841 -0.51758 -9.47251e-23)
(0.850652 -0.489733 -5.55635e-22)
(0.815356 -0.462722 1.71113e-21)
(0.764258 -0.450581 -2.32603e-21)
(0.699402 -0.442512 -1.60105e-22)
(0.642643 -0.390991 2.60267e-21)
(0.618226 -0.273476 5.00744e-21)
(0.631219 -0.0908957 -4.81021e-21)
(0.670461 0.092589 7.11556e-22)
(0.721897 0.260841 6.69607e-21)
(0.773294 0.360806 -9.65821e-21)
(0.820741 0.429719 -3.00733e-22)
(0.842263 0.465314 -7.17463e-21)
(0.841692 0.523579 3.76098e-21)
(0.809695 0.565947 6.30707e-21)
(0.784271 0.532686 2.92971e-21)
(0.76434 0.427561 3.87367e-21)
(0.768751 0.174562 2.40393e-20)
(0.789448 -0.00207266 -5.17589e-21)
(0.819056 -0.239679 -7.40534e-21)
(0.835039 -0.283782 -4.43199e-21)
(0.872501 -0.371501 -1.10395e-21)
(0.825115 -0.33783 5.77838e-22)
(-0.114034 -0.063622 -1.82839e-20)
(-0.07149 0.0555332 1.55614e-20)
(-0.020054 0.17655 7.04972e-21)
(0.0355743 0.289435 1.11274e-20)
(0.0917659 0.390169 1.2785e-21)
(0.142426 0.475471 5.65713e-21)
(0.186809 0.544374 -2.08491e-20)
(0.228757 0.59305 3.25548e-21)
(0.278046 0.611366 2.17947e-21)
(0.345429 0.584756 1.14272e-20)
(0.433566 0.503645 1.10409e-20)
(0.535329 0.369953 1.05801e-20)
(0.640008 0.195409 2.45412e-20)
(0.739484 -0.00113023 -4.75769e-20)
(0.825597 -0.192696 3.07695e-20)
(0.890329 -0.351558 1.04922e-20)
(0.928364 -0.460948 1.9338e-21)
(0.941264 -0.520482 7.98487e-21)
(0.935359 -0.539163 -1.16603e-20)
(0.916031 -0.533382 8.48836e-21)
(0.886379 -0.514895 -6.29006e-21)
(0.854882 -0.486838 -4.51033e-22)
(0.819293 -0.458689 3.35758e-21)
(0.768551 -0.444957 -2.3696e-21)
(0.703521 -0.436985 3.08868e-21)
(0.645259 -0.388319 -2.42171e-21)
(0.618618 -0.275029 1.60489e-21)
(0.62951 -0.0957423 -1.26919e-22)
(0.667666 0.0863051 9.70599e-21)
(0.718887 0.254733 2.8953e-22)
(0.771063 0.355616 5.96523e-21)
(0.819468 0.426276 1.55385e-21)
(0.841846 0.464016 -4.37278e-22)
(0.842123 0.524403 -4.5814e-22)
(0.811113 0.568106 -5.96992e-21)
(0.786803 0.534733 2.52861e-21)
(0.767888 0.429062 -2.33936e-21)
(0.773107 0.174593 -1.14711e-20)
(0.794281 -0.00312596 2.56006e-21)
(0.823798 -0.240806 3.574e-21)
(0.838679 -0.285468 2.5063e-21)
(0.875952 -0.371145 4.07278e-22)
(0.828251 -0.336339 -6.64437e-22)
(-0.110947 -0.0757928 -1.31493e-20)
(-0.0726206 0.0413979 1.30937e-20)
(-0.0241664 0.161396 -1.56118e-20)
(0.0295933 0.274947 -6.24916e-22)
(0.0851427 0.377146 1.09211e-20)
(0.136403 0.464395 -2.1267e-20)
(0.182776 0.535044 1.51809e-20)
(0.228196 0.584657 -1.31603e-20)
(0.282146 0.602896 1.40339e-20)
(0.35442 0.575739 -1.00286e-21)
(0.446595 0.49453 7.06803e-21)
(0.551009 0.361622 -2.26192e-20)
(0.657051 0.188447 -2.95878e-20)
(0.75698 -0.00657916 -4.40778e-21)
(0.842642 -0.196583 -1.62995e-20)
(0.905927 -0.353793 -1.03495e-20)
(0.941839 -0.46156 4.47253e-21)
(0.952319 -0.51981 -1.13969e-20)
(0.944117 -0.537554 1.73403e-20)
(0.923077 -0.530957 -9.19324e-21)
(0.891963 -0.512107 -2.92637e-21)
(0.859164 -0.48392 -5.35571e-21)
(0.823263 -0.45473 -7.39426e-21)
(0.772918 -0.439398 -2.58678e-21)
(0.707802 -0.43141 1.7104e-21)
(0.648116 -0.385498 -1.16424e-21)
(0.61926 -0.276439 1.64868e-21)
(0.628004 -0.10053 5.64953e-21)
(0.665038 0.0799868 -1.04964e-20)
(0.716017 0.248528 -6.79677e-21)
(0.768937 0.350306 -2.29367e-22)
(0.818272 0.42272 4.95895e-21)
(0.84149 0.46261 5.9903e-21)
(0.842629 0.525114 3.00228e-22)
(0.81262 0.570172 4.16624e-21)
(0.789418 0.53672 -7.59055e-23)
(0.771517 0.430547 1.97441e-21)
(0.777543 0.174634 -8.58462e-21)
(0.799223 -0.00415093 9.86281e-21)
(0.828657 -0.241867 2.40402e-21)
(0.84241 -0.287103 -4.43661e-21)
(0.879474 -0.370773 -1.1964e-21)
(0.831442 -0.33484 -1.21036e-21)
(-0.105241 -0.0872354 4.35285e-21)
(-0.0715575 0.0276731 -1.65344e-21)
(-0.0264587 0.146492 -1.18624e-20)
(0.0251527 0.260418 1.10209e-20)
(0.0798633 0.363883 -2.79371e-21)
(0.131629 0.452907 5.2558e-21)
(0.179942 0.52516 1.76913e-21)
(0.228774 0.57563 -5.53968e-21)
(0.287231 0.593831 -2.09998e-20)
(0.364141 0.566301 -1.14838e-21)
(0.460076 0.485239 2.03251e-21)
(0.566893 0.353353 1.1487e-20)
(0.674135 0.181717 4.26144e-21)
(0.774448 -0.0116903 8.38683e-21)