/*--------------------------------*- C++ -*----------------------------------*\
  =========                 |
  \\      /  F ield         | OpenFOAM: The Open Source CFD Toolbox
   \\    /   O peration     | Website:  https://openfoam.org
    \\  /    A nd           | Version:  7
     \\/     M anipulation  |
\*---------------------------------------------------------------------------*/
FoamFile
{
    version     2.0;
    format      ascii;
    class       volScalarField;
    location    "80";
    object      p;
}
// * * * * * * * * * * * * * * * * * * * * * * * * * * * * * * * * * * * * * //

dimensions      [0 2 -2 0 0 0 0];

internalField   nonuniform List<scalar> 
34000
(
-0.319227
-0.320823
-0.321725
-0.322453
-0.323064
-0.323577
-0.324029
-0.324445
-0.324842
-0.325227
-0.325606
-0.325978
-0.326339
-0.326685
-0.327011
-0.327313
-0.327591
-0.327845
-0.328079
-0.32831
-0.321689
-0.323308
-0.324234
-0.324993
-0.325645
-0.326211
-0.326731
-0.32723
-0.327727
-0.328229
-0.328742
-0.329265
-0.329795
-0.330327
-0.330855
-0.331376
-0.331888
-0.332387
-0.332885
-0.333389
-0.324239
-0.325873
-0.326817
-0.327603
-0.328293
-0.328911
-0.329498
-0.330081
-0.330677
-0.331298
-0.331945
-0.332621
-0.333321
-0.33404
-0.334773
-0.335515
-0.336263
-0.337013
-0.337779
-0.338558
-0.326876
-0.328515
-0.329472
-0.330281
-0.331007
-0.331675
-0.332327
-0.332993
-0.333689
-0.334426
-0.335209
-0.336038
-0.336908
-0.337815
-0.338754
-0.339718
-0.340704
-0.341707
-0.342745
-0.343797
-0.329597
-0.33123
-0.332194
-0.333023
-0.333781
-0.334496
-0.335213
-0.335959
-0.336754
-0.337609
-0.338526
-0.339507
-0.340548
-0.341643
-0.342786
-0.343972
-0.345196
-0.346454
-0.347762
-0.349085
-0.332398
-0.334013
-0.33498
-0.335823
-0.33661
-0.33737
-0.338148
-0.338974
-0.339867
-0.340837
-0.341888
-0.34302
-0.344229
-0.345511
-0.346857
-0.348263
-0.349723
-0.351235
-0.35281
-0.354396
-0.335274
-0.33686
-0.337823
-0.338676
-0.339488
-0.34029
-0.341127
-0.34203
-0.343018
-0.344101
-0.345284
-0.346566
-0.347942
-0.349406
-0.350953
-0.352575
-0.354266
-0.356027
-0.357864
-0.359703
-0.338219
-0.339765
-0.340717
-0.341575
-0.342408
-0.343248
-0.344142
-0.345119
-0.3462
-0.347394
-0.348705
-0.350133
-0.351671
-0.353315
-0.355056
-0.356889
-0.358805
-0.360809
-0.362899
-0.364976
-0.341227
-0.342721
-0.343656
-0.344513
-0.345363
-0.346237
-0.347183
-0.348232
-0.349401
-0.350703
-0.352139
-0.353709
-0.355405
-0.357223
-0.359152
-0.361187
-0.363319
-0.365556
-0.367886
-0.370183
-0.344289
-0.34572
-0.346631
-0.347483
-0.348344
-0.349248
-0.350243
-0.351358
-0.352613
-0.354018
-0.355575
-0.35728
-0.359129
-0.361113
-0.363222
-0.365449
-0.367785
-0.370243
-0.372798
-0.375289
-0.347397
-0.348754
-0.349636
-0.350477
-0.351344
-0.352273
-0.353312
-0.354489
-0.355825
-0.357327
-0.358998
-0.360835
-0.362828
-0.36497
-0.367249
-0.369655
-0.372181
-0.374844
-0.377605
-0.380262
-0.350543
-0.351815
-0.35266
-0.353484
-0.354352
-0.355302
-0.356379
-0.357614
-0.359024
-0.360619
-0.362398
-0.364357
-0.366487
-0.368776
-0.371213
-0.373785
-0.376483
-0.379333
-0.382277
-0.385066
-0.353716
-0.354893
-0.355696
-0.356498
-0.357361
-0.358325
-0.359435
-0.360721
-0.3622
-0.363879
-0.365759
-0.367832
-0.370089
-0.372515
-0.375096
-0.377817
-0.380669
-0.383684
-0.386787
-0.389667
-0.356906
-0.357979
-0.358734
-0.359507
-0.360361
-0.361333
-0.36247
-0.3638
-0.36534
-0.367097
-0.369069
-0.371247
-0.373619
-0.376169
-0.37888
-0.381733
-0.384717
-0.387871
-0.391108
-0.394032
-0.360102
-0.361064
-0.361765
-0.362504
-0.363341
-0.364315
-0.365472
-0.366839
-0.368433
-0.370258
-0.372313
-0.374586
-0.377062
-0.379723
-0.382546
-0.385512
-0.388605
-0.391872
-0.395213
-0.398129
-0.363295
-0.364138
-0.364779
-0.365479
-0.366293
-0.367263
-0.368431
-0.369828
-0.371466
-0.373352
-0.375479
-0.377835
-0.380403
-0.383159
-0.386079
-0.389137
-0.392313
-0.395663
-0.399081
-0.40193
-0.366473
-0.36719
-0.367768
-0.368422
-0.369207
-0.370165
-0.371338
-0.372755
-0.374429
-0.376364
-0.378553
-0.380981
-0.383626
-0.386463
-0.389461
-0.39259
-0.395823
-0.399224
-0.402694
-0.405403
-0.369626
-0.370214
-0.370722
-0.371325
-0.372075
-0.373013
-0.374183
-0.375611
-0.37731
-0.379284
-0.381522
-0.384009
-0.386718
-0.389619
-0.392677
-0.395855
-0.399118
-0.402538
-0.406037
-0.408503
-0.372743
-0.373198
-0.373634
-0.37418
-0.374888
-0.375799
-0.376956
-0.378385
-0.380099
-0.382099
-0.384375
-0.386907
-0.389666
-0.392615
-0.395714
-0.398919
-0.402184
-0.405589
-0.409102
-0.411211
-0.375816
-0.376135
-0.376494
-0.37698
-0.377638
-0.378514
-0.379649
-0.381069
-0.382786
-0.384801
-0.387101
-0.389664
-0.392457
-0.395438
-0.398559
-0.401769
-0.405009
-0.408354
-0.411766
-0.413621
-0.378834
-0.379018
-0.379298
-0.379717
-0.38032
-0.381152
-0.382255
-0.383654
-0.385362
-0.387379
-0.389689
-0.392268
-0.39508
-0.398076
-0.401202
-0.404395
-0.407586
-0.410838
-0.414119
-0.415627
-0.381791
-0.38184
-0.382038
-0.382386
-0.382926
-0.383707
-0.384767
-0.386134
-0.38782
-0.389824
-0.392131
-0.394712
-0.397526
-0.400521
-0.403633
-0.40679
-0.409907
-0.413037
-0.416173
-0.417226
-0.384678
-0.384596
-0.38471
-0.384982
-0.385453
-0.386172
-0.38718
-0.388502
-0.390154
-0.392131
-0.394419
-0.396985
-0.399787
-0.402764
-0.405846
-0.408948
-0.411969
-0.414948
-0.417923
-0.418424
-0.387491
-0.38728
-0.387309
-0.387502
-0.387897
-0.388546
-0.389489
-0.390755
-0.392358
-0.394294
-0.396547
-0.399084
-0.401856
-0.404799
-0.407833
-0.410863
-0.41377
-0.416568
-0.419369
-0.419225
-0.390225
-0.38989
-0.389833
-0.389943
-0.390256
-0.390826
-0.391694
-0.39289
-0.394429
-0.396309
-0.398511
-0.401002
-0.403728
-0.406621
-0.40959
-0.412532
-0.415308
-0.4179
-0.420514
-0.419634
-0.392877
-0.392424
-0.392282
-0.392305
-0.392529
-0.39301
-0.393792
-0.394906
-0.396367
-0.398175
-0.40031
-0.402738
-0.405402
-0.408227
-0.411117
-0.413954
-0.416584
-0.418946
-0.421368
-0.419658
-0.395445
-0.394883
-0.394655
-0.394587
-0.394716
-0.3951
-0.395785
-0.396802
-0.398171
-0.399891
-0.401944
-0.404292
-0.406877
-0.409618
-0.412411
-0.415129
-0.4176
-0.419709
-0.421939
-0.41931
-0.397931
-0.397266
-0.396953
-0.396793
-0.39682
-0.397099
-0.397674
-0.398583
-0.399845
-0.401462
-0.403415
-0.405666
-0.408155
-0.410796
-0.413477
-0.41606
-0.418359
-0.420194
-0.422236
-0.418604
-0.400336
-0.399577
-0.399181
-0.398924
-0.398845
-0.399009
-0.399465
-0.400252
-0.401393
-0.402891
-0.404728
-0.406867
-0.409242
-0.411766
-0.414319
-0.416752
-0.418867
-0.420408
-0.422268
-0.417561
-0.402664
-0.401821
-0.401342
-0.400987
-0.400796
-0.400837
-0.401163
-0.401816
-0.402822
-0.404186
-0.405892
-0.407901
-0.410148
-0.412538
-0.414945
-0.417213
-0.419132
-0.420358
-0.422042
-0.416204
-0.404922
-0.404004
-0.403443
-0.402988
-0.402679
-0.40259
-0.402776
-0.403283
-0.404141
-0.405357
-0.406917
-0.408781
-0.410882
-0.413123
-0.415369
-0.417454
-0.419162
-0.420057
-0.421565
-0.414561
-0.407117
-0.406132
-0.405491
-0.404934
-0.404503
-0.404276
-0.404313
-0.404663
-0.405361
-0.406416
-0.407816
-0.40952
-0.41146
-0.413535
-0.415604
-0.41749
-0.418972
-0.41952
-0.420838
-0.412666
-0.409259
-0.408216
-0.407496
-0.406834
-0.406277
-0.405906
-0.405785
-0.405969
-0.406495
-0.407377
-0.408603
-0.410134
-0.4119
-0.413794
-0.415669
-0.417339
-0.418575
-0.418764
-0.419862
-0.410556
-0.411359
-0.410265
-0.409467
-0.408699
-0.408011
-0.40749
-0.407204
-0.407213
-0.407558
-0.408256
-0.409298
-0.410644
-0.412221
-0.41392
-0.415585
-0.417022
-0.417991
-0.417815
-0.418634
-0.408276
-0.413431
-0.412291
-0.411416
-0.410539
-0.409718
-0.409042
-0.408585
-0.408411
-0.408567
-0.409072
-0.409919
-0.411068
-0.412444
-0.413935
-0.415375
-0.416563
-0.417239
-0.416704
-0.417152
-0.405889
-0.415489
-0.414308
-0.413355
-0.412368
-0.411409
-0.410574
-0.40994
-0.409578
-0.409538
-0.409842
-0.410485
-0.411428
-0.412593
-0.413862
-0.415063
-0.415986
-0.416341
-0.415463
-0.415411
-0.403466
-0.417549
-0.416329
-0.415298
-0.414199
-0.4131
-0.412101
-0.411287
-0.410732
-0.410489
-0.410587
-0.41102
-0.411748
-0.412691
-0.413726
-0.414673
-0.415317
-0.415322
-0.414129
-0.413373
-0.400997
-0.419626
-0.418368
-0.417258
-0.416044
-0.414802
-0.413638
-0.41264
-0.411888
-0.41144
-0.411326
-0.411543
-0.412048
-0.41276
-0.41355
-0.41423
-0.414582
-0.414218
-0.412763
-0.410963
-0.398329
-0.42174
-0.420442
-0.419249
-0.417919
-0.416532
-0.415199
-0.414016
-0.413065
-0.412409
-0.41208
-0.412075
-0.412351
-0.412822
-0.413353
-0.413752
-0.413804
-0.413081
-0.41147
-0.408323
-0.395967
-0.423907
-0.422565
-0.421287
-0.419838
-0.418303
-0.416801
-0.415431
-0.41428
-0.413415
-0.412868
-0.412637
-0.412676
-0.412895
-0.413155
-0.413257
-0.412997
-0.411935
-0.410293
-0.406103
-0.397208
-0.426147
-0.424754
-0.423386
-0.421814
-0.420131
-0.418458
-0.4169
-0.415549
-0.414473
-0.413707
-0.413245
-0.413041
-0.412996
-0.412967
-0.412753
-0.412159
-0.410751
-0.409035
-0.404604
-0.406018
-0.428475
-0.427023
-0.425561
-0.423863
-0.422028
-0.420184
-0.418439
-0.416889
-0.415602
-0.414614
-0.413917
-0.413459
-0.413138
-0.412801
-0.412243
-0.411282
-0.409492
-0.407554
-0.402774
-0.405573
-0.430911
-0.429387
-0.427825
-0.425997
-0.424009
-0.421994
-0.420062
-0.418313
-0.416815
-0.415603
-0.414665
-0.413945
-0.41333
-0.412662
-0.41173
-0.410357
-0.408132
-0.405776
-0.400487
-0.402492
-0.43347
-0.431861
-0.430193
-0.428231
-0.426087
-0.4239
-0.421783
-0.419835
-0.418126
-0.416686
-0.415501
-0.414505
-0.413578
-0.412552
-0.411212
-0.40938
-0.40666
-0.403737
-0.397879
-0.398525
-0.436168
-0.434459
-0.432676
-0.430575
-0.428274
-0.425914
-0.423611
-0.421466
-0.419544
-0.417874
-0.416433
-0.415146
-0.413885
-0.412472
-0.410686
-0.408346
-0.405074
-0.401481
-0.395013
-0.394068
-0.439018
-0.437192
-0.435287
-0.433042
-0.43058
-0.428047
-0.42556
-0.423216
-0.42108
-0.419173
-0.417465
-0.415871
-0.414251
-0.412418
-0.410146
-0.407253
-0.403378
-0.399049
-0.391948
-0.389399
-0.442034
-0.440073
-0.438035
-0.435641
-0.433016
-0.430309
-0.427636
-0.425093
-0.422739
-0.420589
-0.418601
-0.416679
-0.414672
-0.412385
-0.409588
-0.406098
-0.401578
-0.396477
-0.388737
-0.384685
-0.445226
-0.44311
-0.440932
-0.438382
-0.43559
-0.432707
-0.429848
-0.427104
-0.424527
-0.422123
-0.419839
-0.417567
-0.415143
-0.412366
-0.409006
-0.404881
-0.399685
-0.393797
-0.385427
-0.380016
-0.448604
-0.446313
-0.443984
-0.441273
-0.43831
-0.435249
-0.432202
-0.429252
-0.426447
-0.423777
-0.421178
-0.418529
-0.415657
-0.412353
-0.408392
-0.403601
-0.397705
-0.391035
-0.382054
-0.375442
-0.452174
-0.449688
-0.447199
-0.44432
-0.441182
-0.43794
-0.434701
-0.431542
-0.428497
-0.425547
-0.422612
-0.419558
-0.416202
-0.412335
-0.40774
-0.402256
-0.39565
-0.388212
-0.378646
-0.370984
-0.455943
-0.453242
-0.450583
-0.447529
-0.444211
-0.440785
-0.43735
-0.433974
-0.430679
-0.42743
-0.424135
-0.420644
-0.416769
-0.412304
-0.407043
-0.400847
-0.393525
-0.385345
-0.375221
-0.366649
-0.459914
-0.456978
-0.454139
-0.450904
-0.447402
-0.443787
-0.44015
-0.436548
-0.432989
-0.429421
-0.425737
-0.421776
-0.417346
-0.412247
-0.406295
-0.399373
-0.391337
-0.382444
-0.371793
-0.362431
-0.46409
-0.460901
-0.457873
-0.454449
-0.450757
-0.446947
-0.443101
-0.439262
-0.435422
-0.431511
-0.427407
-0.422941
-0.417919
-0.412155
-0.405488
-0.397833
-0.389092
-0.379517
-0.368369
-0.358323
-0.468472
-0.465011
-0.461784
-0.458166
-0.454278
-0.450267
-0.446203
-0.442114
-0.437972
-0.433691
-0.429134
-0.424124
-0.418475
-0.412015
-0.404616
-0.396226
-0.386792
-0.37657
-0.364954
-0.35431
-0.473058
-0.469308
-0.465875
-0.462056
-0.457966
-0.453747
-0.449455
-0.445098
-0.440631
-0.43595
-0.430903
-0.425312
-0.419
-0.411818
-0.403673
-0.394549
-0.38444
-0.373604
-0.361547
-0.35038
-0.477847
-0.473792
-0.470145
-0.466118
-0.461821
-0.457386
-0.452852
-0.448209
-0.44339
-0.438274
-0.432699
-0.426488
-0.419478
-0.411552
-0.402652
-0.392802
-0.382037
-0.370618
-0.358147
-0.346515
-0.482834
-0.478461
-0.474593
-0.470353
-0.46584
-0.46118
-0.456389
-0.451438
-0.446238
-0.44065
-0.434506
-0.427636
-0.419897
-0.411206
-0.401547
-0.390981
-0.379581
-0.367612
-0.35475
-0.342703
-0.488014
-0.48331
-0.479215
-0.474757
-0.470022
-0.465124
-0.46006
-0.454776
-0.449161
-0.443061
-0.436307
-0.428738
-0.420241
-0.410771
-0.400352
-0.389084
-0.377072
-0.364582
-0.35135
-0.338927
-0.49338
-0.488334
-0.484008
-0.479326
-0.474362
-0.469214
-0.463857
-0.45821
-0.452143
-0.44549
-0.438081
-0.429777
-0.420497
-0.410235
-0.399061
-0.387106
-0.374506
-0.361523
-0.347941
-0.335174
-0.498923
-0.493526
-0.488964
-0.484055
-0.478853
-0.473442
-0.467768
-0.461726
-0.455167
-0.447916
-0.43981
-0.430736
-0.42065
-0.40959
-0.397667
-0.385044
-0.37188
-0.358428
-0.344516
-0.331431
-0.504634
-0.498878
-0.494078
-0.488936
-0.483487
-0.477796
-0.47178
-0.465308
-0.458214
-0.450319
-0.441474
-0.431597
-0.420686
-0.408826
-0.396165
-0.382894
-0.369188
-0.355293
-0.341066
-0.327684
-0.5105
-0.50438
-0.499339
-0.493961
-0.488255
-0.482265
-0.475877
-0.468938
-0.461263
-0.452676
-0.443052
-0.432342
-0.420593
-0.407933
-0.394548
-0.380649
-0.366425
-0.352108
-0.337583
-0.32392
-0.516506
-0.510018
-0.504736
-0.499117
-0.493143
-0.486833
-0.480043
-0.472593
-0.46429
-0.454966
-0.444522
-0.432954
-0.420356
-0.406902
-0.392808
-0.378304
-0.363584
-0.348868
-0.334057
-0.320129
-0.522637
-0.515779
-0.510255
-0.504391
-0.498137
-0.491483
-0.484256
-0.476251
-0.467271
-0.457163
-0.445864
-0.433416
-0.419965
-0.405724
-0.39094
-0.375852
-0.360659
-0.345562
-0.33048
-0.316298
-0.528874
-0.521646
-0.515881
-0.509767
-0.503218
-0.496196
-0.488492
-0.479886
-0.470179
-0.459243
-0.447055
-0.433711
-0.419405
-0.40439
-0.388934
-0.373286
-0.357642
-0.342182
-0.326841
-0.312416
-0.535195
-0.5276
-0.521595
-0.515226
-0.508367
-0.500947
-0.492727
-0.48347
-0.472987
-0.46118
-0.448075
-0.433823
-0.418665
-0.40289
-0.386785
-0.370599
-0.354523
-0.338719
-0.323131
-0.308474
-0.541578
-0.53362
-0.527377
-0.520747
-0.51356
-0.505711
-0.496931
-0.486975
-0.475667
-0.46295
-0.448903
-0.433734
-0.417732
-0.401215
-0.384483
-0.367782
-0.351295
-0.335163
-0.31934
-0.304459
-0.547998
-0.539681
-0.533203
-0.526305
-0.518771
-0.510459
-0.501074
-0.490368
-0.478189
-0.464526
-0.449519
-0.433431
-0.416595
-0.399356
-0.382019
-0.364826
-0.347949
-0.331505
-0.315459
-0.300363
-0.554425
-0.545759
-0.539048
-0.531875
-0.523971
-0.51516
-0.505124
-0.493618
-0.480523
-0.465883
-0.4499
-0.432896
-0.415242
-0.397302
-0.379385
-0.361724
-0.344474
-0.327735
-0.311477
-0.296176
-0.560829
-0.551824
-0.544884
-0.537426
-0.529129
-0.519782
-0.509046
-0.496691
-0.482639
-0.466996
-0.450029
-0.432115
-0.413661
-0.395045
-0.376572
-0.358464
-0.340862
-0.323843
-0.307384
-0.291887
-0.567178
-0.557846
-0.550678
-0.542926
-0.534211
-0.524287
-0.512804
-0.499553
-0.484507
-0.46784
-0.449886
-0.431074
-0.411841
-0.392572
-0.37357
-0.355038
-0.337102
-0.31982
-0.303172
-0.287487
-0.573436
-0.56379
-0.556398
-0.548341
-0.53918
-0.528639
-0.516361
-0.502169
-0.486097
-0.46839
-0.449452
-0.429758
-0.409769
-0.389876
-0.370368
-0.351436
-0.333185
-0.315655
-0.29883
-0.282968
-0.579565
-0.569622
-0.562008
-0.553634
-0.543998
-0.532797
-0.519679
-0.504505
-0.48738
-0.468625
-0.448709
-0.428152
-0.407434
-0.386944
-0.366958
-0.347647
-0.3291
-0.311339
-0.29435
-0.278321
-0.585527
-0.575303
-0.56747
-0.558765
-0.548624
-0.536722
-0.522719
-0.506527
-0.488326
-0.46852
-0.44764
-0.426243
-0.404824
-0.383766
-0.363329
-0.343663
-0.324839
-0.306862
-0.289722
-0.273537
-0.591279
-0.580794
-0.572744
-0.563693
-0.553017
-0.540372
-0.525442
-0.508199
-0.488909
-0.468054
-0.446227
-0.424018
-0.401929
-0.380333
-0.35947
-0.339472
-0.320391
-0.302215
-0.284937
-0.268608
-0.59678
-0.586053
-0.577788
-0.568376
-0.557132
-0.543705
-0.527808
-0.50949
-0.489101
-0.467205
-0.444454
-0.421463
-0.398736
-0.376633
-0.355372
-0.335065
-0.315746
-0.29739
-0.279987
-0.263527
-0.601985
-0.591037
-0.582559
-0.572768
-0.560926
-0.546678
-0.529781
-0.510365
-0.488875
-0.465954
-0.442305
-0.418565
-0.395235
-0.372655
-0.351025
-0.330433
-0.310897
-0.292377
-0.274864
-0.258285
-0.606848
-0.595702
-0.587011
-0.576826
-0.564354
-0.549248
-0.531322
-0.510794
-0.488207
-0.464282
-0.439766
-0.415313
-0.391414
-0.36839
-0.346418
-0.325566
-0.305832
-0.287168
-0.26956
-0.252877
-0.611324
-0.600004
-0.5911
-0.580502
-0.567371
-0.551374
-0.532394
-0.510747
-0.487074
-0.462169
-0.436822
-0.411694
-0.387262
-0.363828
-0.341543
-0.320454
-0.300545
-0.281756
-0.264068
-0.247295
-0.615365
-0.603895
-0.594779
-0.583752
-0.569931
-0.553015
-0.532963
-0.510195
-0.485453
-0.4596
-0.43346
-0.407695
-0.38277
-0.358958
-0.336389
-0.31509
-0.295027
-0.276131
-0.258381
-0.241533
-0.618927
-0.607331
-0.598003
-0.586527
-0.571992
-0.554131
-0.532994
-0.509112
-0.483323
-0.456558
-0.429666
-0.403308
-0.377927
-0.353772
-0.330948
-0.309464
-0.289269
-0.270288
-0.252491
-0.235586
-0.62196
-0.610264
-0.600723
-0.588783
-0.573508
-0.554682
-0.532454
-0.50747
-0.480665
-0.453028
-0.425429
-0.39852
-0.372723
-0.34826
-0.325212
-0.303569
-0.283266
-0.26422
-0.246394
-0.229449
-0.62442
-0.612648
-0.602893
-0.590474
-0.574438
-0.554633
-0.531314
-0.505248
-0.477461
-0.448996
-0.420737
-0.393323
-0.36715
-0.342414
-0.319173
-0.297397
-0.277009
-0.257921
-0.240084
-0.223116
-0.62626
-0.614439
-0.60447
-0.591556
-0.574742
-0.553947
-0.529546
-0.502423
-0.473694
-0.44445
-0.41558
-0.387706
-0.361199
-0.336226
-0.312822
-0.290942
-0.270494
-0.251385
-0.233556
-0.216583
-0.627437
-0.615591
-0.605408
-0.591987
-0.57438
-0.552593
-0.527123
-0.498975
-0.469351
-0.439378
-0.409948
-0.381663
-0.354863
-0.329689
-0.306155
-0.284197
-0.263713
-0.244607
-0.226805
-0.209847
-0.627907
-0.616063
-0.605665
-0.591726
-0.573317
-0.550539
-0.524022
-0.494888
-0.464418
-0.43377
-0.403833
-0.375184
-0.348134
-0.322797
-0.299163
-0.277157
-0.256663
-0.237583
-0.219828
-0.202904
-0.62763
-0.615812
-0.605199
-0.590734
-0.571518
-0.547759
-0.520222
-0.490145
-0.458882
-0.427617
-0.397227
-0.368263
-0.341006
-0.315543
-0.291843
-0.269817
-0.24934
-0.230309
-0.21262
-0.195752
-0.626566
-0.6148
-0.603973
-0.588974
-0.568951
-0.544226
-0.515702
-0.484733
-0.452735
-0.420912
-0.390124
-0.360896
-0.333474
-0.307922
-0.28419
-0.262174
-0.241738
-0.222782
-0.205181
-0.188388
-0.624679
-0.612988
-0.601949
-0.586415
-0.565589
-0.539919
-0.510448
-0.47864
-0.445969
-0.413647
-0.382519
-0.353076
-0.325534
-0.299931
-0.276199
-0.254222
-0.233857
-0.214998
-0.197509
-0.180815
-0.621934
-0.610342
-0.599094
-0.583023
-0.561405
-0.534817
-0.504446
-0.471857
-0.438576
-0.405819
-0.374408
-0.344799
-0.317181
-0.291566
-0.267869
-0.245961
-0.225692
-0.206957
-0.189603
-0.173032
-0.6183
-0.606831
-0.595376
-0.578773
-0.556377
-0.528905
-0.497683
-0.464376
-0.430552
-0.397424
-0.365786
-0.336064
-0.308414
-0.282825
-0.259196
-0.237388
-0.217242
-0.198657
-0.18146
-0.165023
-0.613748
-0.602424
-0.590768
-0.573638
-0.550485
-0.522168
-0.490152
-0.456193
-0.421893
-0.388459
-0.356654
-0.326869
-0.299231
-0.273706
-0.250181
-0.228503
-0.208507
-0.190096
-0.173068
-0.156744
-0.608254
-0.597097
-0.585245
-0.567599
-0.543714
-0.514596
-0.481846
-0.447305
-0.412599
-0.378924
-0.34701
-0.317213
-0.289631
-0.26421
-0.240822
-0.219305
-0.199489
-0.181278
-0.164427
-0.148187
-0.601794
-0.590826
-0.578786
-0.560638
-0.536051
-0.506181
-0.472762
-0.437709
-0.40267
-0.368819
-0.336855
-0.307097
-0.279616
-0.254337
-0.231121
-0.209796
-0.190188
-0.172203
-0.155557
-0.13956
-0.594351
-0.583592
-0.571374
-0.55274
-0.527487
-0.496919
-0.462899
-0.427409
-0.392108
-0.358148
-0.326191
-0.296523
-0.269186
-0.244089
-0.221079
-0.199978
-0.180607
-0.162873
-0.146453
-0.130727
-0.58591
-0.57538
-0.562993
-0.543896
-0.518015
-0.486809
-0.452258
-0.416406
-0.380916
-0.346913
-0.315021
-0.285493
-0.258345
-0.233469
-0.2107
-0.189854
-0.170749
-0.153291
-0.137125
-0.121677
-0.57646
-0.566178
-0.553634
-0.534097
-0.507633
-0.47585
-0.440844
-0.404706
-0.3691
-0.33512
-0.303351
-0.274013
-0.247098
-0.22248
-0.199987
-0.179427
-0.160616
-0.143461
-0.127573
-0.112414
-0.565992
-0.555977
-0.543291
-0.523342
-0.496343
-0.464049
-0.428662
-0.392317
-0.356668
-0.322775
-0.291187
-0.262088
-0.235448
-0.211128
-0.188944
-0.168701
-0.150213
-0.133386
-0.117799
-0.102946
-0.554503
-0.544773
-0.53196
-0.51163
-0.484147
-0.451411
-0.415721
-0.379247
-0.343627
-0.309888
-0.278535
-0.249725
-0.223403
-0.199418
-0.177578
-0.157683
-0.139544
-0.123072
-0.107807
-0.0932785
-0.541994
-0.532566
-0.519642
-0.498965
-0.471054
-0.437946
-0.402033
-0.365507
-0.32999
-0.296466
-0.265406
-0.236932
-0.210971
-0.187358
-0.165896
-0.146377
-0.128617
-0.112524
-0.0976009
-0.0834181
-0.528467
-0.519357
-0.506343
-0.485355
-0.457074
-0.423668
-0.38761
-0.351111
-0.315767
-0.282522
-0.251808
-0.223718
-0.198159
-0.174955
-0.153904
-0.134793
-0.117438
-0.101748
-0.087188
-0.0733712
-0.51393
-0.505154
-0.492069
-0.470811
-0.442219
-0.40859
-0.372468
-0.336073
-0.300973
-0.268069
-0.237754
-0.210093
-0.184977
-0.16222
-0.141611
-0.122937
-0.106013
-0.0907512
-0.0765747
-0.0631444
-0.498394
-0.489968
-0.476833
-0.455347
-0.426507
-0.392731
-0.356625
-0.320411
-0.285622
-0.253119
-0.223255
-0.19607
-0.171438
-0.149161
-0.129027
-0.110819
-0.0943531
-0.0795416
-0.0657687
-0.0527451
-0.481874
-0.473812
-0.460651
-0.43898
-0.409957
-0.37611
-0.3401
-0.304142
-0.269732
-0.237688
-0.208327
-0.181662
-0.157551
-0.135791
-0.116163
-0.0984485
-0.0824659
-0.068128
-0.0547782
-0.0421811
-0.464388
-0.456703
-0.44354
-0.421731
-0.392591
-0.35875
-0.322914
-0.287285
-0.253321
-0.221794
-0.192984
-0.166882
-0.143332
-0.122122
-0.10303
-0.0858365
-0.0703622
-0.0565199
-0.0436124
-0.0314609
-0.445957
-0.438663
-0.425523
-0.403622
-0.374432
-0.340676
-0.305092
-0.269863
-0.236409
-0.205453
-0.177243
-0.151746
-0.128792
-0.108166
-0.0896409
-0.0729946
-0.0580529
-0.0447275
-0.0322809
-0.0205939
-0.426606
-0.419716
-0.406625
-0.384681
-0.355508
-0.321915
-0.286655
-0.251899
-0.219016
-0.188685
-0.161121
-0.136269
-0.113949
-0.0939377
-0.076008
-0.0599354
-0.0455497
-0.032762
-0.0207946
-0.00959017
-0.406363
-0.399888
-0.386874
-0.364939
-0.335855
-0.302484
-0.267633
-0.233418
-0.201165
-0.171511
-0.144637
-0.120469
-0.0988171
-0.0794523
-0.0621457
-0.046672
-0.0328652
-0.0206352
-0.00916464
0.00153928
-0.385258
-0.37921
-0.3663
-0.344428
-0.31551
-0.282411
-0.248052
-0.214445
-0.18288
-0.153951
-0.12781
-0.104365
-0.0834136
-0.0647253
-0.0480687
-0.0332184
-0.0200129
-0.0083597
0.00259655
0.0127823
-0.363324
-0.357716
-0.344938
-0.323179
-0.294459
-0.261769
-0.227944
-0.195008
-0.164185
-0.136029
-0.110662
-0.087974
-0.0677562
-0.0497731
-0.0337926
-0.0195894
-0.0070067
0.00405112
0.0144759
0.0241251
-0.340598
-0.335442
-0.322826
-0.301226
-0.272781
-0.240557
-0.207341
-0.175135
-0.145107
-0.117769
-0.0932141
-0.0713176
-0.0518632
-0.0346129
-0.0193334
-0.00580004
0.00613866
0.0165833
0.0264595
0.0355525
-0.317117
-0.312426
-0.300001
-0.278601
-0.250513
-0.218814
-0.186275
-0.154856
-0.125672
-0.0991943
-0.0754886
-0.0544159
-0.0357539
-0.0192623
-0.00470754
0.00813384
0.019408
0.0292225
0.0385324
0.0470467
-0.29292
-0.288709
-0.276495
-0.255361
-0.227687
-0.196577
-0.164778
-0.134201
-0.105909
-0.0803311
-0.0575089
-0.0372905
-0.0194478
-0.00373953
0.010068
0.0221962
0.0327857
0.0419538
0.0506781
0.0585849
-0.268047
-0.264339
-0.252358
-0.231543
-0.204343
-0.173885
-0.142887
-0.113204
-0.0858468
-0.0612057
-0.0392993
-0.0199633
-0.00296542
0.0119367
0.0249761
0.036371
0.0462562
0.0547622
0.0628782
0.070135
-0.242535
-0.23937
-0.22764
-0.207188
-0.180522
-0.150778
-0.120636
-0.0918955
-0.0655145
-0.0418454
-0.0208847
-0.00245735
0.0136725
0.0277474
0.0399994
0.0506421
0.0598038
0.0676332
0.0751145
0.0816639
-0.216455
-0.213835
-0.202388
-0.182343
-0.156268
-0.127296
-0.0980627
-0.07031
-0.0449432
-0.0222781
-0.00229054
0.0152041
0.0304446
0.0436731
0.0551205
0.0649931
0.0734126
0.0805549
0.0873787
0.0931508
-0.189892
-0.187753
-0.176646
-0.157054
-0.131626
-0.103479
-0.0752047
-0.0484819
-0.0241642
-0.00253254
0.0164568
0.032997
0.0473289
0.0596944
0.0703218
0.0794074
0.0870682
0.0935248
0.099672
0.104533
-0.162859
-0.161198
-0.150464
-0.13137
-0.106639
-0.0793704
-0.0521005
-0.0264462
-0.00320953
0.017362
0.0353306
0.0508968
0.0643032
0.0757911
0.0855855
0.0938692
0.100763
0.106557
0.111967
0.115552
-0.135398
-0.13423
-0.123892
-0.105338
-0.0813552
-0.0550123
-0.0287892
-0.00423854
0.0178881
0.0373757
0.0543033
0.0688783
0.0813446
0.0919426
0.100893
0.108364
0.114502
0.119669
0.124164
0.125839
-0.107566
-0.106903
-0.0969819
-0.079009
-0.0558203
-0.0304481
-0.00531042
0.0181047
0.0390956
0.0574781
0.073347
0.0869159
0.0984294
0.108127
0.116224
0.12288
0.128287
0.132836
0.136131
0.135723
-0.0794202
-0.0792703
-0.069787
-0.0524335
-0.0300823
-0.00572162
0.0182956
0.0405469
0.0603793
0.0776383
0.0924334
0.104983
0.115534
0.124322
0.131559
0.137404
0.142097
0.145953
0.147763
0.147436
-0.0510153
-0.0513834
-0.04236
-0.0256621
-0.00418861
0.0191229
0.0419883
0.0630508
0.081705
0.0978249
0.111533
0.123054
0.132632
0.140505
0.146877
0.151913
0.155881
0.158995
0.159877
0.159927
-0.0224088
-0.0232986
-0.0147555
0.00125315
0.0218121
0.0440409
0.0657268
0.085579
0.103039
0.118006
0.130618
0.1411
0.1497
0.156651
0.162156
0.166383
0.169608
0.171967
0.172136
0.172143
0.00634185
0.00492798
0.0129717
0.0282602
0.0478712
0.0689875
0.0894701
0.108094
0.124345
0.138151
0.149657
0.159095
0.166711
0.172737
0.177372
0.18079
0.183263
0.18488
0.184427
0.184191
0.0351791
0.0332401
0.0407667
0.0553068
0.0739401
0.0939178
0.113177
0.130558
0.145591
0.158227
0.168622
0.177012
0.183641
0.188739
0.192503
0.19511
0.196825
0.197711
0.19666
0.196067
0.0640452
0.061581
0.0685742
0.0823406
0.0999699
0.118787
0.136806
0.152933
0.166741
0.178202
0.187483
0.194823
0.200463
0.204633
0.207527
0.209321
0.210276
0.210438
0.208788
0.20776
0.0928823
0.0898939
0.0963393
0.109309
0.125912
0.14355
0.160317
0.175182
0.187759
0.198044
0.206211
0.212499
0.217152
0.220394
0.222418
0.223401
0.223595
0.223036
0.220781
0.219267
0.121632
0.118122
0.124007
0.136161
0.151718
0.168163
0.183668
0.197267
0.208613
0.217721
0.224775
0.230016
0.233683
0.236
0.237157
0.23733
0.236762
0.235485
0.232619
0.230583
0.150238
0.146209
0.151522
0.162844
0.17734
0.192581
0.206819
0.219151
0.229267
0.237202
0.243148
0.247344
0.25003
0.251426
0.25172
0.251086
0.24976
0.247766
0.244286
0.241704
0.178642
0.174097
0.17883
0.189306
0.20273
0.21676
0.22973
0.240796
0.249687
0.256455
0.261298
0.264457
0.266169
0.26665
0.266087
0.26465
0.26257
0.259862
0.255766
0.252622
0.206787
0.201732
0.205877
0.215497
0.227841
0.240657
0.252361
0.262167
0.26984
0.27545
0.279199
0.281329
0.282074
0.281649
0.280236
0.278002
0.275173
0.271757
0.267047
0.263331
0.234618
0.229058
0.23261
0.241366
0.252626
0.264229
0.274671
0.283226
0.289693
0.294155
0.296821
0.297933
0.297723
0.296401
0.294146
0.291125
0.287554
0.283436
0.278116
0.273821
0.262078
0.25602
0.258976
0.266865
0.277039
0.287433
0.296624
0.303939
0.309212
0.31254
0.314137
0.314244
0.31309
0.310883
0.307798
0.303999
0.299695
0.294884
0.288961
0.284084
0.289112
0.282565
0.284924
0.291944
0.301035
0.310229
0.31818
0.324271
0.328365
0.330576
0.33112
0.330237
0.328153
0.325074
0.321172
0.316606
0.311579
0.306086
0.299569
0.294111
0.315668
0.308639
0.310402
0.316555
0.324571
0.332576
0.339302
0.344186
0.347121
0.348233
0.347741
0.345885
0.342889
0.338954
0.334248
0.32893
0.323192
0.317029
0.309929
0.303891
0.341691
0.334191
0.335361
0.340651
0.347602
0.354433
0.359953
0.363652
0.365449
0.365482
0.363976
0.361167
0.357276
0.3525
0.347008
0.340951
0.334517
0.327698
0.320027
0.313415
0.367131
0.35917
0.359752
0.364188
0.370086
0.375762
0.380099
0.382635
0.383318
0.382297
0.379798
0.376056
0.371291
0.365695
0.359433
0.352655
0.34554
0.33808
0.329851
0.322671
0.391937
0.383527
0.383528
0.38712
0.391983
0.396525
0.399703
0.401104
0.400699
0.398649
0.395182
0.390531
0.384913
0.378517
0.371505
0.364023
0.356244
0.348161
0.339389
0.33165
0.416061
0.407213
0.406642
0.409405
0.413252
0.416686
0.418732
0.419027
0.417564
0.414513
0.410103
0.404569
0.398121
0.390948
0.383206
0.375041
0.366617
0.357928
0.348629
0.340342
0.439454
0.430182
0.429051
0.431
0.433855
0.436208
0.437154
0.436374
0.433883
0.429861
0.424539
0.418147
0.410896
0.402969
0.394521
0.385693
0.376643
0.367367
0.357559
0.348735
0.462071
0.45239
0.450709
0.451865
0.453754
0.455057
0.454937
0.453116
0.449632
0.444671
0.438466
0.431246
0.423218
0.414562
0.405431
0.395963
0.386309
0.376467
0.366167
0.35682
0.483867
0.473791
0.471577
0.471961
0.472913
0.4732
0.47205
0.469225
0.464783
0.458917
0.451862
0.443844
0.435068
0.425711
0.415922
0.405838
0.395601
0.385215
0.374442
0.364587
0.504801
0.494345
0.491615
0.491251
0.491297
0.490605
0.488465
0.484674
0.479312
0.472577
0.464706
0.455922
0.446428
0.436398
0.425978
0.415302
0.404507
0.3936
0.382374
0.372027
0.52483
0.514012
0.510783
0.509699
0.508874
0.507242
0.504152
0.499438
0.493194
0.485629
0.476977
0.467461
0.457281
0.446607
0.435585
0.424343
0.413014
0.401609
0.38995
0.379131
0.543917
0.532753
0.529046
0.527271
0.525612
0.523082
0.519086
0.51349
0.506408
0.498052
0.488656
0.478443
0.467609
0.456323
0.444727
0.432947
0.42111
0.409231
0.397162
0.385889
0.562024
0.550533
0.546368
0.543934
0.541481
0.538097
0.53324
0.526809
0.518932
0.509826
0.499726
0.488852
0.477399
0.465533
0.453393
0.441102
0.428784
0.416457
0.403999
0.392294
0.579116
0.567317
0.562718
0.559658
0.556453
0.552262
0.546592
0.539372
0.530745
0.520931
0.510167
0.498671
0.486634
0.474221
0.461568
0.448797
0.436025
0.423277
0.410452
0.398337
0.595161
0.583073
0.578064
0.574415
0.570501
0.565551
0.559118
0.551159
0.541828
0.531351
0.519964
0.507884
0.495301
0.482375
0.469242
0.456021
0.442824
0.42968
0.416512
0.404011
0.610128
0.597771
0.592379
0.588177
0.583601
0.577943
0.570798
0.562149
0.552163
0.541068
0.529102
0.516479
0.503386
0.489983
0.476403
0.462763
0.44917
0.435659
0.422172
0.409309
0.623989
0.611383
0.605634
0.600919
0.59573
0.589415
0.581612
0.572325
0.561733
0.550068
0.537566
0.524441
0.510878
0.497034
0.483041
0.469013
0.455055
0.441204
0.427423
0.414224
0.636716
0.623884
0.617807
0.61262
0.606866
0.599949