/*--------------------------------*- C++ -*----------------------------------*\
  =========                 |
  \\      /  F ield         | OpenFOAM: The Open Source CFD Toolbox
   \\    /   O peration     | Website:  https://openfoam.org
    \\  /    A nd           | Version:  7
     \\/     M anipulation  |
\*---------------------------------------------------------------------------*/
FoamFile
{
    version     2.0;
    format      ascii;
    class       surfaceScalarField;
    location    "80";
    object      phi;
}
// * * * * * * * * * * * * * * * * * * * * * * * * * * * * * * * * * * * * * //

dimensions      [0 3 -1 0 0 0 0];

internalField   nonuniform List<scalar> 
67470
(
-1.37231e-06
1.70728e-05
-1.57005e-05
-5.07674e-06
3.93677e-05
-3.56633e-05
-1.08567e-05
5.2154e-05
-4.6374e-05
-1.8486e-05
5.65835e-05
-4.89543e-05
-2.77684e-05
5.39049e-05
-4.46224e-05
-3.85381e-05
4.53842e-05
-3.46145e-05
-5.06564e-05
3.22193e-05
-2.0101e-05
-6.40089e-05
1.54554e-05
-2.1029e-06
-7.85021e-05
-4.0854e-06
1.85786e-05
-9.40612e-05
-2.58509e-05
4.141e-05
-0.000110629
-4.95775e-05
6.61456e-05
-0.000128169
-7.52793e-05
9.28189e-05
-0.000146666
-0.000103215
0.000121711
-0.000166133
-0.000133839
0.000153307
-0.000186619
-0.00016776
0.000188246
-0.000208207
-0.000205698
0.000227287
-0.000231022
-0.000248471
0.000271286
-0.000255222
-0.000296989
0.000321189
-0.000280978
-0.000352255
0.000378011
-0.000415523
0.000443028
-0.000308483
-1.38842e-06
1.84612e-05
-5.14661e-06
4.31259e-05
-1.10239e-05
5.80313e-05
-1.87974e-05
6.43571e-05
-2.82727e-05
6.33802e-05
-3.92835e-05
5.6395e-05
-5.16899e-05
4.46257e-05
-6.53759e-05
2.91414e-05
-8.02468e-05
1.07855e-05
-9.62277e-05
-9.87002e-06
-0.000113264
-3.25414e-05
-0.000131322
-5.72207e-05
-0.000150397
-8.41397e-05
-0.000170515
-0.000113722
-0.00019174
-0.000146535
-0.00021418
-0.000183258
-0.000237989
-0.000224663
-0.000263358
-0.00027162
-0.000290501
-0.000325112
-0.00038636
-0.000319664
-1.39574e-06
1.9857e-05
-5.18527e-06
4.69154e-05
-1.1126e-05
6.3972e-05
-1.90002e-05
7.22313e-05
-2.86156e-05
7.29956e-05
-3.98061e-05
6.75854e-05
-5.243e-05
5.72496e-05
-6.63687e-05
4.30801e-05
-8.15251e-05
2.59418e-05
-9.78224e-05
6.42728e-06
-0.000115206
-1.51583e-05
-0.000133644
-3.87823e-05
-0.000153136
-6.46472e-05
-0.000173718
-9.31404e-05
-0.000195465
-0.000124787
-0.000218505
-0.000160218
-0.000243013
-0.000200155
-0.000269214
-0.00024542
-0.000297357
-0.000296968
-0.00035598
-0.000327737
-1.39369e-06
2.12507e-05
-5.19053e-06
5.07123e-05
-1.11585e-05
6.994e-05
-1.90867e-05
8.01594e-05
-2.8786e-05
8.26949e-05
-4.00906e-05
7.889e-05
-5.2857e-05
7.0016e-05
-6.69632e-05
5.71863e-05
-8.23081e-05
4.12867e-05
-9.88114e-05
2.29306e-05
-0.000116415
2.44577e-06
-0.000135089
-2.01093e-05
-0.000154831
-4.49051e-05
-0.00017568
-7.22906e-05
-0.000197723
-0.000102745
-0.000221096
-0.000136845
-0.000245994
-0.000175256
-0.000272667
-0.000218747
-0.000301397
-0.000268238
-0.000324854
-0.000332522
-1.38175e-06
2.26324e-05
-5.16062e-06
5.44911e-05
-1.11177e-05
7.58971e-05
-1.90505e-05
8.80923e-05
-2.87745e-05
9.24189e-05
-4.01244e-05
9.02399e-05
-5.29547e-05
8.28462e-05
-6.71392e-05
7.13708e-05
-8.25717e-05
5.67192e-05
-9.91665e-05
3.95254e-05
-0.000116861
2.014e-05
-0.000135618
-1.35162e-06
-0.000155436
-2.5087e-05
-0.000176353
-5.13744e-05
-0.000198454
-8.06438e-05
-0.000221884
-0.000113415
-0.000246848
-0.000150292
-0.000273616
-0.000191979
-0.000302498
-0.000239357
-0.000293483
-0.000333869
-1.35959e-06
2.3992e-05
-5.09423e-06
5.82258e-05
-1.10007e-05
8.18036e-05
-1.8887e-05
9.59786e-05
-2.8574e-05
0.000102106
-3.98977e-05
0.000101564
-5.27102e-05
9.56588e-05
-6.68808e-05
8.55415e-05
-8.22969e-05
7.21352e-05
-9.88652e-05
5.60938e-05
-0.000116515
3.77901e-05
-0.000135204
1.73366e-05
-0.00015492
-5.37081e-06
-0.000175695
-3.0599e-05
-0.000197612
-5.87268e-05
-0.000220813
-9.0214e-05
-0.00024551
-0.000125595
-0.000271982
-0.000165507
-0.000300562
-0.000210777
-0.000262387
-0.000331658
-1.32697e-06
2.5319e-05
-4.99052e-06
6.18893e-05
-1.08057e-05
8.76187e-05
-1.85928e-05
0.000103766
-2.81793e-05
0.000111692
-3.94031e-05
0.000112787
-5.21142e-05
0.00010837
-6.61764e-05
9.96037e-05
-8.14694e-05
8.74283e-05
-9.7891e-05
7.25154e-05
-0.00011536
5.52595e-05
-0.000133823
3.57991e-05
-0.000153257
1.40628e-05
-0.000173681
-1.01748e-05
-0.000195167
-3.72409e-05
-0.000217848
-6.75322e-05
-0.000241934
-0.00010151
-0.000267709
-0.000139732
-0.00029552
-0.000182965
-0.000232103
-0.000325804
-1.28386e-06
2.66029e-05
-4.84918e-06
6.54546e-05
-1.05318e-05
9.33013e-05
-1.81661e-05
0.0001114
-2.75876e-05
0.000121114
-3.86366e-05
0.000123836
-5.11608e-05
0.000120894
-6.50184e-05
0.000113461
-8.00802e-05
0.00010249
-9.62333e-05
8.86685e-05
-0.000113384
7.24101e-05
-0.000131463
5.38781e-05
-0.000150432
3.3032e-05
-0.000170293
9.68631e-06
-0.000191099
-1.64347e-05
-0.000212968
-4.56634e-05
-0.000236096
-7.83827e-05
-0.000260765
-0.000115063
-0.000287332
-0.000156398
-0.000203183
-0.000316253
-1.23037e-06
2.78332e-05
-4.67045e-06
6.88947e-05
-1.01792e-05
9.88101e-05
-1.76069e-05
0.000118828
-2.67983e-05
0.000130305
-3.75967e-05
0.000134635
-4.98479e-05
0.000133145
-6.34036e-05
0.000127017
-7.81253e-05
0.000117212
-9.38873e-05
0.00010443
-0.000110581
8.91035e-05
-0.000128118
7.14158e-05
-0.000146442
5.13551e-05
-0.000165528
2.87732e-05
-0.000185407
3.44366e-06
-0.000206169
-2.4901e-05
-0.00022799
-5.65615e-05
-0.000251143
-9.19109e-05
-0.000275985
-0.000131555
-0.00017618
-0.000302988
-1.16676e-06
2.9e-05
-4.45506e-06
7.2183e-05
-9.7491e-06
0.000104104
-1.69168e-05
0.000125995
-2.5813e-05
0.000139202
-3.62851e-05
0.000145107
-4.81767e-05
0.000145037
-6.13333e-05
0.000140174
-7.56057e-05
0.000131484
-9.0854e-05
0.000119679
-0.000106952
0.000105202
-0.000123792
8.82555e-05
-0.000141289
6.88522e-05
-0.000159393
4.6877e-05
-0.000178098
2.21493e-05
-0.000197464
-5.53509e-06
-0.000217634
-3.63913e-05
-0.00023886
-7.06848e-05
-0.000261499
-0.000108917
-0.000151649
-0.00028603
-1.09348e-06
3.00935e-05
-4.20431e-06
7.52938e-05
-9.24379e-06
0.000109144
-1.60988e-05
0.00013285
-2.46357e-05
0.000147739
-3.47062e-05
0.000155177
-4.61524e-05
0.000156483
-5.88129e-05
0.000152834
-7.25272e-05
0.000145199
-8.71402e-05
0.000134292
-0.000102506
0.000120568
-0.000118493
0.000104242
-0.000134987
8.53465e-05
-0.000151903
6.37932e-05
-0.000169197
3.94425e-05
-0.000186882
1.21506e-05
-0.000205063
-1.82105e-05
-0.00022396
-5.17878e-05
-0.000243921
-8.89562e-05
-0.00013014
-0.00026543
-1.0111e-06
3.11046e-05
-3.91998e-06
7.82027e-05
-8.66654e-06
0.00011389
-1.51579e-05
0.000139342
-2.32727e-05
0.000155853
-3.28675e-05
0.000164772
-4.37834e-05
0.000167399
-5.5852e-05
0.000164903
-6.89007e-05
0.000158247
-8.27581e-05
0.000148149
-9.72571e-05
0.000135067
-0.000112239
0.000119224
-0.000127557
0.000100665
-0.000143087
7.9323e-05
-0.000158736
5.50913e-05
-0.000174467
2.78817e-05
-0.000190331
-2.3469e-06
-0.000206506
-3.5612e-05
-0.000223325
-7.21372e-05
-0.000112188
-0.000241277
-9.20355e-07
3.20249e-05
-3.60439e-06
8.08867e-05
-8.02166e-06
0.000118307
-1.41004e-05
0.000145421
-2.17323e-05
0.000163485
-3.07795e-05
0.000173819
-4.1082e-05
0.000177702
-5.24643e-05
0.000176285
-6.47417e-05
0.000170525
-7.77251e-05
0.000161133
-9.12247e-05
0.000148566
-0.000105053
0.000133052
-0.000119028
0.00011464
-0.000132979
9.32742e-05
-0.000146761
6.88731e-05
-0.000160275
4.13957e-05
-0.000173507
1.08855e-05
-0.000186584
-2.25349e-05
-0.000199814
-5.89073e-05
-9.83154e-05
-0.000213687
-8.22112e-07
3.2847e-05
-3.26033e-06
8.3325e-05
-7.31442e-06
0.000122361
-1.29343e-05
0.00015104
-2.00252e-05
0.000170576
-2.84554e-05
0.000182249
-3.80638e-05
0.00018731
-4.86679e-05
0.000186889
-6.00702e-05
0.000181927
-7.20637e-05
0.000173126
-8.44346e-05
0.000160937
-9.69649e-05
0.000145582
-0.000109434
0.000127109
-0.000121622
0.000105463
-0.000133325
8.0576e-05
-0.000144374
5.24443e-05
-0.000154679
2.11902e-05
-0.000164299
-1.29148e-05
-0.000173512
-4.96944e-05
-8.9023e-05
-0.000182804
-7.17373e-07
3.35644e-05
-2.89103e-06
8.54986e-05
-6.55102e-06
0.000126021
-1.16691e-05
0.000156159
-1.81643e-05
0.000177071
-2.59111e-05
0.000189996
-3.47476e-05
0.000196146
-4.44843e-05
0.000196626
-5.49108e-05
0.000192353
-6.58012e-05
0.000184016
-7.69173e-05
0.000172053
-8.80091e-05
0.000156674
-9.88152e-05
0.000137915
-0.000109065
0.000115713
-0.000118489
9e-05
-0.00012684
6.07952e-05
-0.000133941
2.82907e-05
-0.000139768
-7.08722e-06
-0.00014456
-4.49027e-05
-8.47904e-05
-0.000148793
-6.07256e-07
3.41717e-05
-2.50015e-06
8.73915e-05
-5.73851e-06
0.00012926
-1.03157e-05
0.000160736
-1.61644e-05
0.00018292
-2.31652e-05
0.000196997
-3.11557e-05
0.000204137
-3.99391e-05
0.000205409
-4.9292e-05
0.000201706
-5.89695e-05
0.000193694
-6.8708e-05
0.000181792
-7.8225e-05
0.000166191
-8.72175e-05
0.000146908
-9.53615e-05
0.000123857
-0.000102318
9.69567e-05
-0.000107756
6.62327e-05
-0.000111398
3.19324e-05
-0.000113123
-5.36182e-06
-0.000113116
-4.49099e-05
-8.6071e-05
-0.000111835
-4.92979e-07
3.46646e-05
-2.09173e-06
8.89903e-05
-4.88474e-06
0.000132053
-8.88613e-06
0.000164737
-1.40419e-05
0.000188076
-2.02387e-05
0.000203194
-2.73133e-05
0.000211211
-3.50614e-05
0.000213157
-4.32466e-05
0.000209891
-5.16045e-05
0.000202052
-5.98462e-05
0.000190033
-6.76562e-05
0.000174001
-7.46893e-05
0.000153941
-8.05668e-05
0.000129735
-8.48794e-05
0.000101269
-8.72047e-05
6.8558e-05
-8.71566e-05
3.18843e-05
-8.44993e-05
-8.01915e-06
-7.93455e-05
-5.00637e-05
-9.32919e-05
-7.21245e-05
-3.75854e-07
3.50405e-05
-1.67013e-06
9.02846e-05
-3.99823e-06
0.000134381
-7.39382e-06
0.000168133
-1.18154e-05
0.000192497
-1.7155e-05
0.000208534
-2.32483e-05
0.000217305
-2.98836e-05
0.000219793
-3.68108e-05
0.000216819
-4.37464e-05
0.000208988
-5.03754e-05
0.000196662
-5.63497e-05
0.000179975
-6.12819e-05
0.000158873
-6.47391e-05
0.000133192
-6.62404e-05
0.000102771
-6.52701e-05
6.75877e-05
-6.13238e-05
2.79379e-05
-5.40298e-05
-1.53131e-05
-4.34323e-05
-6.06613e-05
-0.000106845
-2.98789e-05
-2.57262e-07
3.52978e-05
-1.23998e-06
9.12673e-05
-3.08808e-06
0.000136229
-5.85305e-06
0.000170898
-9.50454e-06
0.000196149
-1.39394e-05
0.000212968
-1.89913e-05
0.000222357
-2.44411e-05
0.000225242
-3.00246e-05
0.000222402
-3.54387e-05
0.000214402
-4.03428e-05
0.000201566
-4.43558e-05
0.000183988
-4.70492e-05
0.000161566
-4.79366e-05
0.000134079
-4.6467e-05
0.000101301
-4.20307e-05
6.31514e-05
-3.40001e-05
1.99073e-05
-2.18312e-05
-2.7482e-05
-5.33764e-06
-7.71548e-05
-0.000126426
1.42428e-05
-1.38631e-07
3.54364e-05
-8.0608e-07
9.19347e-05
-2.16386e-06
0.000137587
-4.27891e-06
0.000173013
-7.13044e-06
0.000199
-1.06188e-05
0.000216457
-1.45752e-05
0.000226313
-1.87721e-05
0.000229439
-2.2931e-05
0.000226561
-2.67287e-05
0.000218199
-2.97987e-05
0.000204636
-3.17275e-05
0.000185917
-3.20461e-05
0.000161885
-3.0217e-05
0.00013225
-2.56212e-05
9.67052e-05
-1.75574e-05
5.50875e-05
-5.27561e-06
7.62555e-06
1.18926e-05
-4.46503e-05
3.42875e-05
-9.95497e-05
-0.00015343
6.12913e-05
-2.14643e-08
3.54579e-05
-3.7339e-07
9.22866e-05
-1.2354e-06
0.000138449
-2.68706e-06
0.000174464
-4.71503e-06
0.000201028
-7.22164e-06
0.000218963
-1.00346e-05
0.000229126
-1.2917e-05
0.000232322
-1.55754e-05
0.00022922
-1.76661e-05
0.00022029
-1.87963e-05
0.000205767
-1.85201e-05
0.000185641
-1.63291e-05
0.000159694
-1.16367e-05
0.000127558
-3.7603e-06
8.88288e-05
8.089e-06
4.32382e-05
2.47866e-05
-9.07209e-06
4.71837e-05
-6.70473e-05
7.56791e-05
-0.000128045
-0.000187654
0.000109904
9.29921e-08
3.53649e-05
5.31441e-08
9.23265e-05
-3.12676e-07
0.000138815
-1.0935e-06
0.000175245
-2.28082e-06
0.000202216
-3.77721e-06
0.00022046
-5.40539e-06
0.000230754
-6.91795e-06
0.000233834
-8.00572e-06
0.000230307
-8.30339e-06
0.000220588
-7.39121e-06
0.000204854
-4.79091e-06
0.000183041
4.46755e-08
0.000154858
7.7489e-06
0.000119854
1.90637e-05
7.7514e-05
3.48585e-05
2.74434e-05
5.61274e-05
-3.0341e-05
8.38934e-05
-9.48134e-05
0.000118763
-0.000162915
-0.000229373
0.000160482
2.03008e-07
3.51619e-05
4.68574e-07
9.20609e-05
5.94417e-07
0.000138689
4.86158e-07
0.000175353
1.49558e-07
0.000202552
-3.15116e-07
0.000220924
-7.24041e-07
0.000231163
-8.18046e-07
0.000233928
-2.70764e-07
0.00022976
1.30571e-06
0.000219011
4.35929e-06
0.000201801
9.40136e-06
0.000177999
1.70176e-05
0.000147242
2.78861e-05
0.000108985
4.28033e-05
6.25969e-05
6.27111e-05
7.53559e-06
8.87118e-05
-5.63417e-05
0.000122005
-0.000128106
0.00016342
-0.00020433
-0.000278833
0.00021288
3.07387e-07
3.48545e-05
8.68174e-07
9.15001e-05
1.47616e-06
0.000138081
2.03541e-06
0.000174794
2.55372e-06
0.000202034
3.13533e-06
0.000220343
3.97305e-06
0.000230325
5.33963e-06
0.000232562
7.58026e-06
0.000227519
1.11071e-05
0.000215484
1.63976e-05
0.00019651
2.39977e-05
0.000170399
3.45321e-05
0.000136708
4.87226e-05
9.47946e-05
6.74155e-05
4.39041e-05
9.16161e-05
-1.66651e-05
0.000122521
-8.72463e-05
0.000161495
-0.000167081
0.000209608
-0.000252443
-0.000336247
0.000267021
4.04818e-07
3.44496e-05
1.24749e-06
9.06575e-05
2.32354e-06
0.000137005
3.54028e-06
0.000173577
4.9104e-06
0.000200664
6.54585e-06
0.000218707
8.65059e-06
0.000228221
1.1513e-05
0.000229699
1.54992e-05
0.000223533
2.10474e-05
0.000209936
2.86669e-05
0.000188891
3.89401e-05
0.000160125
5.25322e-05
0.000123115
7.02084e-05
7.71183e-05
9.28616e-05
2.12509e-05
0.000121551
-4.53544e-05
0.000157548
-0.000123244
0.000202367
-0.000211899
0.000257316
-0.000307392
-0.000401803
0.000322872
4.94139e-07
3.39555e-05
1.60247e-06
8.95491e-05
3.1282e-06
0.000135479
4.98674e-06
0.000171719
7.19974e-06
0.000198451
9.89002e-06
0.000216017
1.32755e-05
0.000224835
1.76626e-05
0.000225312
2.34405e-05
0.000217755
3.10763e-05
0.0002023
4.11133e-05
0.000178854
5.41735e-05
0.000147065
7.09649e-05
0.000106324
9.22971e-05
5.57861e-05
0.000119107
-5.55923e-06
0.000152499
-7.87466e-05
0.000193801
-0.000164546
0.000244643
-0.000262741
0.000306564
-0.000369314
-0.000475658
0.000380419
5.74346e-07
3.33812e-05
1.92957e-06
8.81939e-05
3.8828e-06
0.000133526
6.36269e-06
0.000169239
9.40408e-06
0.000195409
1.31442e-05
0.000212277
1.78179e-05
0.000220162
2.37525e-05
0.000219377
3.1363e-05
0.000210145
4.11481e-05
0.000192515
5.36886e-05
0.000166313
6.96489e-05
0.000131105
8.97833e-05
8.61896e-05
0.000114948
3.06212e-05
0.000146124
-3.6735e-05
0.000184452
-0.000117075
0.000231294
-0.000211388
0.000288359
-0.000319805
0.000357391
-0.000438346
-0.000557927
0.000439661
6.44627e-07
3.27365e-05
2.22593e-06
8.66126e-05
4.58134e-06
0.00013117
7.65809e-06
0.000166162
1.15087e-05
0.000191559
1.62885e-05
0.000207497
2.22528e-05
0.000214197
2.97527e-05
0.000211877
3.92322e-05
0.000200665
5.12249e-05
0.000180523
6.63526e-05
0.000151186
8.53262e-05
0.000112131
0.00010895
6.25658e-05
0.00013813
1.44103e-06
0.000173891
-7.24959e-05
0.000217405
-0.000160588
0.000270047
-0.000264031
0.000333555
-0.000383313
0.000409841
-0.000514632
-0.000648675
0.000500589
7.04398e-07
3.20321e-05
2.48945e-06
8.48276e-05
5.21937e-06
0.00012844
8.86542e-06
0.000162516
1.35024e-05
0.000186922
1.93079e-05
0.000201692
2.6561e-05
0.000206944
3.56404e-05
0.000202798
4.70224e-05
0.000189283
6.12791e-05
0.000166266
7.90772e-05
0.000133388
0.000101178
9.00301e-05
0.000128441
3.53029e-05
0.000161826
-3.19431e-05
0.0002024
-0.00011307
0.000251362
-0.00020955
0.000310082
-0.000322751
0.000380271
-0.000453502
0.000463954
-0.000598315
-0.000747891
0.00056317
7.53336e-07
3.12788e-05
2.71892e-06
8.2862e-05
5.79428e-06
0.000125365
9.98013e-06
0.00015833
1.53783e-05
0.000181524
2.2193e-05
0.000194877
3.07309e-05
0.000198406
4.1402e-05
0.000192127
5.47188e-05
0.000175967
7.12959e-05
0.000149689
9.18492e-05
0.000112834
0.000117196
6.46837e-05
0.000148252
4.2465e-06
0.000186034
-6.97256e-05
0.000231657
-0.000158693
0.000286338
-0.000264231
0.000351422
-0.000387834
0.000428531
-0.000530611
0.00051975
-0.000689533
-0.000855465
0.000627323
7.91406e-07
3.04874e-05
2.91417e-06
8.07392e-05
6.30549e-06
0.000121974
1.10011e-05
0.000153635
1.71346e-05
0.00017539
2.49411e-05
0.00018707
3.47594e-05
0.000188588
4.70347e-05
0.000179852
6.23199e-05
0.000160681
8.12765e-05
0.000130732
0.000104674
8.94368e-05
0.000133388
3.59694e-05
0.000168399
-3.07638e-05
0.00021078
-0.000112107
0.00026169
-0.000209604
0.000322359
-0.0003249
0.000394089
-0.000459564
0.000478346
-0.000614869
0.000577213
-0.0007884
-0.000971149
0.000692898
8.1889e-07
2.96685e-05
3.07609e-06
7.8482e-05
6.75469e-06
0.000118295
1.19307e-05
0.000148459
1.87748e-05
0.000168546
2.75572e-05
0.000178288
3.86533e-05
0.000177492
5.25481e-05
0.000165957
6.98394e-05
0.00014339
9.12399e-05
0.000109332
0.000117577
6.30996e-05
0.00014979
3.75621e-06
0.000188923
-6.98966e-05
0.000236109
-0.000159292
0.000292546
-0.000266041
0.000359465
-0.000391819
0.000438102
-0.000538201
0.000529698
-0.000706465
0.000636281
-0.000894982
-0.00109452
0.000759647
8.36401e-07
2.88321e-05
3.20674e-06
7.61117e-05
7.14594e-06
0.000114356
1.27757e-05
0.000142829
2.03082e-05
0.000161014
3.0054e-05
0.000168542
4.24298e-05
0.000165116
5.79649e-05
0.000150422
7.7307e-05
0.000124048
0.000101225
8.54139e-05
0.000130608
3.37167e-05
0.000166461
-3.20972e-05
0.000209894
-0.000113329
0.000262095
-0.000211493
0.000324294
-0.00032824
0.000397704
-0.000465229
0.000483472
-0.000623969
0.000582535
-0.000805528
0.00069682
-0.00100927
-0.0012249
0.000827205
8.44891e-07
2.79872e-05
3.30935e-06
7.36472e-05
7.48575e-06
0.00011018
1.35464e-05
0.000136768
2.17503e-05
0.00015281
3.24529e-05
0.000157839
4.61171e-05
0.000151452
6.33218e-05
0.000133217
8.47694e-05
0.0001026
0.000111289
5.88943e-05
0.000143836
1.1697e-06
0.000183483
-7.17444e-05
0.000231403
-0.000161249
0.000288832
-0.000268922
0.000357016
-0.000396425
0.000437128
-0.000545341
0.000530187
-0.000717028
0.000636761
-0.000912102
0.000758618
-0.00113112
-0.00136135
0.000895071
8.45655e-07
2.71416e-05
3.38833e-06
7.11045e-05
7.78306e-06
0.000105785
1.42577e-05
0.000130294
2.31226e-05
0.000143945
3.47835e-05
0.000146179
4.97545e-05
0.000136481
6.86692e-05
0.000114302
9.22899e-05
7.89798e-05
0.00012151
2.96737e-05
0.000157354
-3.46742e-05
0.000200962
-0.000115352
0.000253562
-0.00021385
0.000316429
-0.000331789
0.000390802
-0.000470798
0.000477778
-0.000632316
0.000578205
-0.000817455
0.000692224
-0.00102612
0.000821367
-0.00126027
-0.00150259
0.000962601
8.40308e-07
2.63013e-05
3.44923e-06
6.84956e-05
8.04912e-06
0.000101185
1.4928e-05
0.000123415
2.44525e-05
0.00013442
3.70834e-05
0.000133548
5.33914e-05
0.000120173
7.40704e-05
9.36233e-05
9.99468e-05
5.31034e-05
0.000131983
-2.36249e-06
0.000171271
-7.39626e-05
0.000219016
-0.000163096
0.000276495
-0.000271328
0.000344997
-0.000400291
0.000425727
-0.000551528
0.000519664
-0.000726253
0.000627425
-0.000925217
0.000748705
-0.0011474
0.000884641
-0.0013962
-0.00164699
0.00102905
8.30764e-07
2.54705e-05
3.49859e-06
6.58278e-05
8.29733e-06
9.63862e-05
1.55795e-05
0.000116133
2.57725e-05
0.000124227
3.93974e-05
0.000119923
5.70867e-05
0.000102484
7.95994e-05
7.11106e-05
0.000107831
2.4872e-05
0.000142813
-3.73452e-05
0.000185708
-0.000116857
0.000237774
-0.000215162
0.000300323
-0.000333877
0.000374634
-0.000474603
0.000461839
-0.000638732
0.00056275
-0.000827164
0.00067768
-0.00104015
0.000805899
-0.00127562
0.000947851
-0.00153816
-0.00179282
0.00109367
8.19188e-07
2.46513e-05
3.54384e-06
6.31031e-05
8.54287e-06
9.13872e-05
1.62372e-05
0.000108438
2.71195e-05
0.000113345
4.17761e-05
0.000105266
6.09064e-05
8.33533e-05
8.53393e-05
4.66778e-05
0.000116042
-5.83031e-06
0.000154117
-7.54206e-05
0.000200789
-0.000163528
0.000257361
-0.000271735
0.000325156
-0.000401672
0.00040541
-0.000554857
0.000499134
-0.000732457
0.000606926
-0.000934956
0.000728735
-0.00116196
0.000863461
-0.00141035
0.00101022
-0.00168492
-0.00193861
0.00115602
8.07944e-07
2.38434e-05
3.59309e-06
6.0318e-05
8.80231e-06
8.6178e-05
1.69285e-05
0.000100312
2.8534e-05
0.00010174
4.42748e-05
8.95254e-05
6.4922e-05
6.27061e-05
9.1378e-05
2.02218e-05
0.000124683
-3.91356e-05
0.00016601
-0.000116747
0.000216635
-0.000214154
0.00027789
-0.00033299
0.000351077
-0.000474859
0.000437345
-0.000641125
0.000537535
-0.000832647
0.000651982
-0.0010494
0.000780263
-0.00129024
0.000921085
-0.00155117
0.00107116
-0.00183499
-0.00208376
0.0012163
7.99527e-07
2.30438e-05
3.65489e-06
5.74626e-05
9.09315e-06
8.07397e-05
1.76823e-05
9.17231e-05
3.00582e-05
8.93636e-05
4.69509e-05
7.26327e-05
6.92071e-05
4.04499e-05
9.78053e-05
-8.37641e-06
0.000133859
-7.51894e-05
0.000178603
-0.000161491
0.000233355
-0.000268905
0.000299448
-0.000399083
0.000378125
-0.000553536
0.000470398
-0.000733398
0.000576871
-0.00093912
0.000697561
-0.00117009
0.000831696
-0.00142437
0.000978115
-0.00169759
0.00113152
-0.00198839
-0.00222774
0.0012755
7.96345e-07
2.22475e-05
3.73772e-06
5.45212e-05
9.43296e-06
7.50445e-05
1.85277e-05
8.26283e-05
3.17349e-05
7.61564e-05
4.98622e-05
5.45054e-05
7.38348e-05
1.64774e-05
0.000104708
-3.92498e-05
0.000143666
-0.000114147
0.000191995
-0.00020982
0.000251035
-0.000327945
0.000322088
-0.000470136
0.000406292
-0.00063774
0.000504458
-0.000831564
0.000616883
-0.00105154
0.000743185
-0.00129639
0.00088215
-0.00156334
0.00103241
-0.00184784
0.00119024
-0.00214622
-0.00242258
0.00138508
8.01168e-07
2.14463e-05
3.85067e-06
5.14717e-05
9.83989e-06
6.90553e-05
1.94943e-05
7.29739e-05
3.36065e-05
6.20441e-05
5.30647e-05
3.50472e-05
7.88741e-05
-9.33208e-06
0.000112166
-7.25418e-05
0.000154187
-0.000156168
0.000206264
-0.000261897
0.000269729
-0.000391411
0.000345817
-0.000546223
0.000435506
-0.000727429
0.00053934
-0.000935398
0.00065723
-0.00116944
0.000788315
-0.00142748
0.000930845
-0.00170587
0.0010829
-0.00199989
0.00124033
-0.00230365
-0.00259622
0.00141396
8.16252e-07
2.06301e-05
4.00172e-06
4.82863e-05
1.03304e-05
6.27266e-05
2.06091e-05
6.26953e-05
3.57121e-05
4.69412e-05
5.66097e-05
1.41496e-05
8.43872e-05
-3.71096e-05
0.000120248
-0.000108402
0.000165491
-0.000201412
0.000221461
-0.000317867
0.000289457
-0.000459407
0.000370596
-0.000627362
0.000465639
-0.000822473
0.000574794
-0.00104455
0.000697521
-0.00129216
0.000832411
-0.00156237
0.000977129
-0.00185059
0.00112893
-0.0021517
0.00128335
-0.00245806
-0.00275629
0.00144341
8.43798e-07
1.97863e-05
4.19843e-06
4.49316e-05
1.09199e-05
5.6005e-05
2.1897e-05
5.17182e-05
3.80868e-05
3.07513e-05
6.05422e-05
-8.30578e-06
9.04261e-05
-6.69936e-05
0.000129006
-0.000146983
0.000177621
-0.000250026
0.000237609
-0.000377855
0.000310194
-0.000531992
0.000396329
-0.000713496
0.000496496
-0.00092264
0.000610506
-0.00115856
0.000737312
-0.00141897
0.000874933
-0.00169999
0.00102046
-0.00199611
0.00117045
-0.00230169
0.00132036
-0.00260798
-0.00290559
0.00146966
8.8575e-07
1.89005e-05
4.44746e-06
4.13699e-05
1.16219e-05
4.88306e-05
2.33795e-05
3.99606e-05
4.07606e-05
1.33703e-05
6.48989e-05
-3.24441e-05
9.70305e-05
-9.91252e-05
0.000138477
-0.000188429
0.000190597
-0.000302146
0.000254693
-0.00044195
0.000331872
-0.000609171
0.000422868
-0.000804492
0.000527827
-0.0010276
0.000646107
-0.00127684
0.000776126
-0.00154899
0.000915337
-0.0018392
0.00106033
-0.00214111
0.00120717
-0.00244852
0.00135139
-0.0027522
-0.00304521
0.00149101
9.43721e-07
1.79568e-05
4.75439e-06
3.75593e-05
1.24475e-05
4.11375e-05
2.50743e-05
2.73337e-05
4.37569e-05
-5.31226e-06
6.97067e-05
-5.83939e-05
0.000104226
-0.000133644
0.000148676
-0.000232879
0.000204411
-0.000357882
0.000272663
-0.000510202
0.000354377
-0.000690886
0.000450013
-0.000900128
0.000559327
-0.00113691
0.000681186
-0.0013987
0.000813465
-0.00168127
0.000953098
-0.00197884
0.00109628
-0.00228429
0.0012388
-0.00259104
0.00137642
-0.00288981
-0.00317557
0.00150678
1.01897e-06
1.69378e-05
5.12353e-06
3.34547e-05
1.34052e-05
3.28559e-05
2.69943e-05
1.37446e-05
4.70917e-05
-2.54097e-05
7.49817e-05
-8.62839e-05
0.000112021
-0.000170684
0.000159595
-0.000280453
0.000219024
-0.000417311
0.000291432
-0.00058261
0.000377552
-0.000777006
0.000477519
-0.00100009
0.000590652
-0.00125005
0.000715305
-0.00152335
0.000848833
-0.00181479
0.000987724
-0.00211773
0.00112791
-0.00242448
0.00126512
-0.00272825
0.00139546
-0.00302016
-0.00329685
0.00151674
1.1124e-06
1.58254e-05
5.55792e-06
2.90092e-05
1.45008e-05
2.39131e-05
2.91475e-05
-9.02116e-07
5.07737e-05
-4.70359e-05
8.07284e-05
-0.000116239
0.000120411
-0.000210366
0.000171206
-0.000331248
0.000234372
-0.000480478
0.000310879
-0.000659117
0.000401202
-0.000867329
0.000505101
-0.00110399
0.000621427
-0.00136637
0.000748019
-0.00164995
0.000881756
-0.00194853
0.00101878
-0.00225475
0.0011549
-0.0025606
0.00128598
-0.00285932
0.00140861
-0.00314279
-0.00340919
0.00152095
1.22449e-06
1.46009e-05
6.05931e-06
2.41744e-05
1.57373e-05
1.4235e-05
3.15372e-05
-1.6702e-05
5.48035e-05
-7.03022e-05
8.69403e-05
-0.000148375
0.000129372
-0.000252798
0.000183459
-0.000385335
0.000250361
-0.00054738
0.000330852
-0.000739608
0.0004251
-0.000961577
0.00053245
-0.00121134
0.000651265
-0.00148519
0.000778892
-0.00177757
0.0009118
-0.00208144
0.00104591
-0.00238886
0.00117704
-0.00269174
0.00130136
-0.00298364
0.00141601
-0.00325743
-0.00351282
0.00151963
1.35539e-06
1.32455e-05
6.62812e-06
1.89016e-05
1.71151e-05
3.7481e-06
3.41619e-05
-3.37489e-05
5.91746e-05
-9.53148e-05
9.35996e-05
-0.0001828
0.000138867
-0.000298066
0.000196285
-0.000442752
0.000266875
-0.00061797
0.000351172
-0.000823905
0.000448993
-0.0010594
0.000559237
-0.00132159
0.000679779
-0.00160573
0.000807514
-0.00190531
0.000938592
-0.00221252
0.00106883
-0.00251909
0.00119422
-0.00281713
0.00131133
-0.00310074
0.00141791
-0.00336402
-0.00360804
0.00151313
1.50493e-06
1.17406e-05
7.2636e-06
1.3143e-05
1.86317e-05
-7.62004e-06
3.70157e-05
-5.21328e-05
6.3873e-05
-0.000122172
0.000100678
-0.000219606
0.000148845
-0.000346232
0.000209596
-0.000503503
0.000283778
-0.000692152
0.00037164
-0.000911767
0.000472612
-0.00116037
0.000585131
-0.00143411
0.000706599
-0.0017272
0.00083352
-0.00203223
0.000961831
-0.00234083
0.00108737
-0.00264463
0.00120642
-0.00293618
0.00131605
-0.00321037
0.00141465
-0.00346261
-0.00369526
0.00150187
1.67261e-06
1.0068e-05
7.96397e-06
6.85161e-06
2.02827e-05
-1.99388e-05
4.00883e-05
-7.19384e-05
6.88788e-05
-0.000150963
0.000108139
-0.000258866
0.000159242
-0.000397335
0.00022329
-0.000567551
0.000300915
-0.000769777
0.000392041
-0.00100289
0.000495681
-0.00126401
0.000609805
-0.00154823
0.00073138
-0.00184877
0.000856597
-0.00215745
0.00098129
-0.00246552
0.00110145
-0.00276479
0.00121374
-0.00304848
0.00131579
-0.00331242
0.0014066
-0.00355342
-0.00377495
0.00148629
1.85777e-06
8.21023e-06
8.7265e-06
-1.71208e-08
2.20614e-05
-3.32737e-05
4.33661e-05
-9.32431e-05
7.41662e-05
-0.000181763
0.000115937
-0.000300637
0.000169983
-0.00045138
0.000237252
-0.00063482
0.000318119
-0.000850644
0.000412152
-0.00109693
0.000517924
-0.00136978
0.000632952
-0.00166326
0.000753818
-0.00196964
0.000876495
-0.00228012
0.000996829
-0.00258585
0.00111107
-0.00287903
0.00121634
-0.00315375
0.00131086
-0.00340694
0.0013942
-0.00363676
-0.00384764
0.00146689
2.05954e-06
6.15069e-06
9.54781e-06
-7.50539e-06
2.39594e-05
-4.76853e-05
4.68322e-05
-0.000116116
7.97044e-05
-0.000214635
0.000124021
-0.000344954
0.000180984
-0.000508344
0.000251356
-0.000705192
0.000335217
-0.000934506
0.000431746
-0.00119346
0.000539072
-0.00147711
0.000654286
-0.00177847
0.000773656
-0.00208901
0.000893032
-0.0023995
0.00100839
-0.00270121
0.00111632
-0.00298696
0.00121446
-0.0032519
0.00130161
-0.00349409
0.00137788
-0.00371302
-0.00391388
0.00144411
2.27695e-06
3.87374e-06
1.04239e-05
-1.56524e-05
2.59671e-05
-6.32284e-05
5.04674e-05
-0.000140616
8.54585e-05
-0.000249626
0.00013233
-0.000391826
0.000192157
-0.00056817
0.000265472
-0.000778507
0.00035203
-0.00102106
0.0004506
-0.00129203
0.000558873
-0.00158538
0.000673559
-0.00189316
0.000790687
-0.00220614
0.000906094
-0.00251491
0.00101597
-0.00281108
0.00111734
-0.00308834
0.00120838
-0.00334294
0.00128844
-0.00357415
0.00135807
-0.00378266
-0.00397422
0.00141842
2.50895e-06
1.36479e-06
1.13505e-05
-2.44939e-05
2.80737e-05
-7.99516e-05
5.425e-05
-0.000166793
9.13904e-05
-0.000286767
0.000140805
-0.00044124
0.000203404
-0.000630769
0.000279462
-0.000854566
0.000368378
-0.00110998
0.000468499
-0.00139215
0.000577098
-0.00169398
0.000690558
-0.00200662
0.000804763
-0.00232034
0.000915631
-0.00262578
0.00101966
-0.00291512
0.00111436
-0.00318303
0.00119844
-0.00342701
0.00127174
-0.00364746
0.00133522
-0.00384614
-0.00402922
0.00139022
2.75442e-06
-1.38963e-06
1.23228e-05
-3.40623e-05
3.02676e-05
-9.78964e-05
5.8157e-05
-0.000194682
9.74592e-05
-0.000326069
0.000149377
-0.000493157
0.000214626
-0.000696019
0.00029319
-0.000933129
0.000384085
-0.00120087
0.00048524
-0.0014933
0.000593543
-0.00180228
0.000705116
-0.00211819
0.000815788
-0.00243101
0.000921657
-0.00273164
0.0010196
-0.00301306
0.00110763
-0.00327106
0.00118496
-0.00350434
0.00125191
-0.00371441
0.00130973
-0.00390396
-0.00407939
0.0013599
3.01225e-06
-4.40188e-06
1.33359e-05
-4.4386e-05
3.25365e-05
-0.000117097
6.21638e-05
-0.000224309
0.000103622
-0.000367527
0.000157978
-0.000547513
0.000225723
-0.000763764
0.000306517
-0.00101392
0.000398984
-0.00129334
0.000500641
-0.00159496
0.000608036
-0.00190968
0.000717109
-0.00222726
0.000823724
-0.00253763
0.000924241
-0.00283216
0.00101597
-0.00310479
0.00109742
-0.00335251
0.0011683
-0.00357523
0.00122933
-0.00377544
0.00128197
-0.0039566
-0.00412522
0.0013278
3.28128e-06
-7.68316e-06
1.43847e-05
-5.54895e-05
3.48676e-05
-0.00013758
6.62447e-05
-0.000255686
0.000109833
-0.000411115
0.000166538
-0.000604217
0.000236592
-0.000833818
0.000319311
-0.00109664
0.000412916
-0.00138695
0.000514538
-0.00169658
0.000620438
-0.00201558
0.000726456
-0.00233328
0.00082858
-0.00263975
0.000923497
-0.00292708
0.00100898
-0.00319027
0.00108403
-0.00342756
0.00114882
-0.00364001
0.00120435
-0.00383098
0.00125228
-0.00400452
-0.00416713
0.0012942
3.56037e-06
-1.12435e-05
1.5464e-05
-6.73931e-05
3.72474e-05
-0.000159363
7.03732e-05
-0.000288812
0.000116048
-0.000456791
0.000174985
-0.000663154
0.000247133
-0.000905966
0.000331442
-0.00118095
0.000425737
-0.00148124
0.000526791
-0.00179763
0.000630646
-0.00211943
0.000733122
-0.00243576